977 TIP4P/2005f water molecules t=   0.77000 step= 770
 3908
    1SOL     OW    1   0.246   0.842   3.063  0.7190 -0.3760 -0.0455
    1SOL    HW1    2   0.217   0.847   2.975  5.2501 -0.0207  1.4764
    1SOL    HW2    3   0.215   0.751   3.082  0.2641  1.9447 -1.4907
    1SOL     MW    4   0.238   0.831   3.054  1.2568 -0.0229 -0.0354
    2SOL     OW    5   0.295   3.016   1.163  0.1805 -0.0023  0.0700
    2SOL    HW1    6   0.365   3.079   1.132  0.9231 -2.6125 -1.0506
    2SOL    HW2    7   0.216   3.052   1.120 -0.1587 -2.0020 -1.2957
    2SOL     MW    8   0.294   3.029   1.153  0.2337 -0.6105 -0.2581
    3SOL     OW    9   2.645   0.425   0.935 -0.0708 -0.2363  0.2587
    3SOL    HW1   10   2.665   0.506   0.874  0.5024 -0.7209 -1.3815
    3SOL    HW2   11   2.634   0.463   1.028  1.8516  1.5933 -0.7676
    3SOL     MW   12   2.647   0.440   0.940  0.2585 -0.0588 -0.0931
    4SOL     OW   13   3.038   1.705   0.636 -0.6384  0.0364  0.4809
    4SOL    HW1   14   2.980   1.757   0.577 -1.2307 -0.8379  3.7637
    4SOL    HW2   15   3.106   1.656   0.584  1.7680  0.8958  2.0460
    4SOL     MW   16   3.039   1.705   0.621 -0.3990  0.0344  1.1206
    5SOL     OW   17   1.711   1.505   0.516  0.1348  0.1357  0.1128
    5SOL    HW1   18   1.754   1.469   0.593  0.9837 -1.2804 -0.3200
    5SOL    HW2   19   1.615   1.468   0.512 -1.7661 -1.4769  0.3048
    5SOL     MW   20   1.704   1.495   0.526 -0.0040 -0.2639  0.0810
    6SOL     OW   21   0.853   1.421   0.644 -0.1138  0.1775 -0.0621
    6SOL    HW1   22   0.763   1.445   0.668 -1.2914  3.3875 -0.4517
    6SOL    HW2   23   0.852   1.326   0.667 -1.0836 -2.4073 -0.2377
    6SOL     MW   24   0.841   1.411   0.650 -0.3971  0.2600 -0.1367
    7SOL     OW   25   2.028   1.145   3.062  0.2462  0.3574 -0.7057
    7SOL    HW1   26   2.084   1.213   3.025  0.1053 -0.0875  3.8504
    7SOL    HW2   27   2.054   1.137   3.154 -1.4049 -3.5430 -0.8886
    7SOL     MW   28   2.039   1.153   3.069  0.0098 -0.2159 -0.1287
    8SOL     OW   29   0.944   1.340   1.034 -0.9475  0.2903  0.2625
    8SOL    HW1   30   1.030   1.293   1.053  2.1528  1.0270  0.5737
    8SOL    HW2   31   0.883   1.319   1.103  0.7312  0.1132 -1.5051
    8SOL     MW   32   0.947   1.331   1.046 -0.3170  0.3641  0.0704
    9SOL     OW   33   1.051   0.471   1.376  0.0419  0.4547  0.0041
    9SOL    HW1   34   0.997   0.405   1.332 -1.3319  0.5775 -0.2906
    9SOL    HW2   35   1.080   0.428   1.456  0.1116 -1.0781  1.7320
    9SOL     MW   36   1.048   0.457   1.381 -0.1302  0.2687  0.1932
   10SOL     OW   37   0.287   0.809   0.457  0.4984  0.3789  0.1386
   10SOL    HW1   38   0.375   0.823   0.417 -2.3995  1.4374  1.0189
   10SOL    HW2   39   0.272   0.888   0.515 -0.5605  1.1610 -3.4462
   10SOL     MW   40   0.297   0.821   0.459 -0.0237  0.6217 -0.2182
   11SOL     OW   41   0.786   1.150   1.720  0.0769  0.1479  0.4508
   11SOL    HW1   42   0.826   1.138   1.809  0.5531 -2.7866 -1.2443
   11SOL    HW2   43   0.802   1.060   1.669  1.4431 -2.6374 -0.6281
   11SOL     MW   44   0.793   1.136   1.725  0.3200 -0.6068  0.0848
   12SOL     OW   45   0.033   1.051   0.866  0.1992 -0.6578 -0.2378
   12SOL    HW1   46   0.080   1.129   0.912  0.9710  2.2124  0.5231
   12SOL    HW2   47  -0.036   1.099   0.815  2.4973 -0.6163  0.5955
   12SOL     MW   48   0.030   1.068   0.865  0.6043 -0.2736 -0.0274
   13SOL     OW   49   1.859   1.372   1.341  0.0935 -0.2353 -0.2197
   13SOL    HW1   50   1.860   1.320   1.266 -1.6654 -0.5855  0.2569
   13SOL    HW2   51   1.900   1.454   1.320  0.0838 -1.7447 -0.5011
   13SOL     MW   52   1.865   1.376   1.328 -0.1399 -0.4807 -0.1939
   14SOL     OW   53   0.642   0.386   1.845  0.5273  0.5208  0.1303
   14SOL    HW1   54   0.580   0.308   1.836 -0.2264  1.9446  1.7544
   14SOL    HW2   55   0.698   0.364   1.917  0.9160  3.0399  0.8752
   14SOL     MW   56   0.641   0.373   1.853  0.4791  1.0410  0.4428
   15SOL     OW   57   1.950   0.447   0.975 -0.8250  0.0417  0.0310
   15SOL    HW1   58   1.920   0.497   1.054 -1.3502 -1.7884 -0.8085
   15SOL    HW2   59   2.046   0.452   0.967 -2.0321 -1.1729  0.3403
   15SOL     MW   60   1.959   0.454   0.985 -1.0535 -0.3601 -0.0389
   16SOL     OW   61   0.213   1.837   0.324 -0.3655 -0.1603  0.0217
   16SOL    HW1   62   0.296   1.785   0.334 -0.1852 -1.4777 -0.2078
   16SOL    HW2   63   0.224   1.935   0.337  1.0831  1.4588  0.3280
   16SOL     MW   64   0.225   1.843   0.327 -0.1506 -0.1205  0.0319
   17SOL     OW   65   1.081   0.926   1.523  0.6892 -0.1409 -0.3081
   17SOL    HW1   66   1.136   0.900   1.598  0.7121  0.2310  1.5018
   17SOL    HW2   67   0.993   0.911   1.546  2.7266 -0.5609 -1.9628
   17SOL     MW   68   1.077   0.920   1.536  0.9610 -0.1472 -0.2877
   18SOL     OW   69   0.084   1.598   0.376 -0.2781 -0.0240 -0.5538
   18SOL    HW1   70   0.098   1.692   0.370 -1.9516  1.4787 -0.8622
   18SOL    HW2   71   0.081   1.575   0.284 -0.7962 -2.2518  1.1041
   18SOL     MW   72   0.085   1.607   0.363 -0.5672 -0.1197 -0.3758
   19SOL     OW   73   0.125   1.283   0.969  0.1642  0.0979  0.1113
   19SOL    HW1   74   0.155   1.330   0.892 -2.0038 -1.0837  3.4477
   19SOL    HW2   75   0.043   1.324   1.004  3.7456  1.7764 -0.3724
   19SOL     MW   76   0.118   1.294   0.964  0.3507  0.1635  0.4877
   20SOL     OW   77   0.427   2.112   1.165  0.1545  0.1639 -0.1306
   20SOL    HW1   78   0.378   2.034   1.124  0.1415 -0.5513 -2.2243
   20SOL    HW2   79   0.359   2.152   1.230  0.2402  1.4510  0.5797
   20SOL     MW   80   0.412   2.107   1.168  0.1641  0.2394 -0.3131
   21SOL     OW   81   0.547   0.818   0.354  0.1743  0.0598  0.0097
   21SOL    HW1   82   0.613   0.788   0.421 -1.5110 -0.4208 -0.6715
   21SOL    HW2   83   0.569   0.763   0.279 -2.0183 -1.6439 -0.4151
   21SOL     MW   84   0.559   0.807   0.353 -0.3373 -0.2284 -0.1362
   22SOL     OW   85   1.482   0.631   1.091  0.4612  0.2559 -0.4442
   22SOL    HW1   86   1.474   0.610   0.993  1.0545 -0.1996 -2.9253
   22SOL    HW2   87   1.396   0.664   1.115  0.1086 -0.6008  1.7167
   22SOL     MW   88   1.469   0.633   1.082  0.4930  0.0827 -0.4864
   23SOL     OW   89   0.040   0.775   0.648 -0.4908 -0.0552  0.4935
   23SOL    HW1   90   0.049   0.699   0.706  1.9091  1.3300 -1.2435
   23SOL    HW2   91   0.108   0.836   0.686  0.5206  1.4203  1.0121
   23SOL     MW   92   0.050   0.773   0.661 -0.0407  0.3223  0.3327
   24SOL     OW   93   1.981   2.209   0.117  0.2700  0.2931  0.2057
   24SOL    HW1   94   2.002   2.189   0.212 -2.2593 -0.1414  2.6586
   24SOL    HW2   95   2.029   2.142   0.066 -1.9212 -0.2043 -1.1326
   24SOL     MW   96   1.990   2.198   0.123 -0.3528  0.1701  0.3528
   25SOL     OW   97   0.227   1.372   0.480 -0.1581 -0.7745 -0.0675
   25SOL    HW1   98   0.180   1.447   0.440  0.4779 -0.9525  0.0830
   25SOL    HW2   99   0.316   1.389   0.461 -1.5346  3.4779  4.9828
   25SOL     MW  100   0.233   1.384   0.472 -0.2558 -0.2370  0.6187
   26SOL     OW  101   2.007   0.993   0.375  0.3849 -0.3770  0.0385
   26SOL    HW1  102   1.935   1.022   0.437  0.1199  0.1572 -1.4683
   26SOL    HW2  103   2.050   1.078   0.340 -0.0570  1.6991 -2.1595
   26SOL     MW  104   2.003   1.008   0.378  0.2916 -0.0326 -0.4503
   27SOL     OW  105   2.064   1.435   0.262 -0.4607  0.1102 -0.0007
   27SOL    HW1  106   1.981   1.388   0.292 -1.6207 -0.1884 -0.0247
   27SOL    HW2  107   2.107   1.476   0.342 -0.5207  0.6426  0.6587
   27SOL     MW  108   2.059   1.434   0.276 -0.6216  0.1411  0.0831
   28SOL     OW  109   0.408   1.063   2.023 -0.2497 -0.5555 -0.3444
   28SOL    HW1  110   0.466   1.061   2.095  0.2172  0.2374  0.1385
   28SOL    HW2  111   0.349   0.991   2.056 -1.1274 -1.0771  0.5440
   28SOL     MW  112   0.408   1.053   2.037 -0.3039 -0.5197 -0.1635
   29SOL     OW  113   0.227   1.444   0.763  0.2256  0.0036 -0.2015
   29SOL    HW1  114   0.218   1.537   0.742  0.5083  0.8961  0.3192
   29SOL    HW2  115   0.218   1.396   0.677  1.2162 -0.5974 -0.3250
   29SOL     MW  116   0.224   1.450   0.749  0.3936  0.0421 -0.1491
   30SOL     OW  117   0.788   1.212   1.211  0.2182 -0.0861 -0.2708
   30SOL    HW1  118   0.704   1.185   1.251 -0.2246 -0.7951  0.5553
   30SOL    HW2  119   0.855   1.201   1.283 -0.7133 -3.5796  0.2760
   30SOL     MW  120   0.786   1.207   1.226  0.0369 -0.6406 -0.0896
   31SOL     OW  121   0.417   0.168   0.187  0.1979 -1.0154 -0.1599
   31SOL    HW1  122   0.445   0.102   0.248  4.5686  0.2462 -3.3413
   31SOL    HW2  123   0.412   0.117   0.104 -1.0628 -2.6010  0.9424
   31SOL     MW  124   0.420   0.153   0.184  0.6083 -1.0582 -0.4342
   32SOL     OW  125   2.789   0.999   1.128  0.0740  0.2323 -0.2300
   32SOL    HW1  126   2.708   0.940   1.106  0.2505 -0.9561  0.8834
   32SOL    HW2  127   2.874   0.948   1.124 -1.4255 -0.4974  1.2271
   32SOL     MW  128   2.790   0.985   1.125 -0.1006 -0.0208  0.1092
   33SOL     OW  129   1.831   1.299   0.351  0.0878  0.0569  0.1625
   33SOL    HW1  130   1.831   1.207   0.380 -2.0178 -0.2905 -0.7125
   33SOL    HW2  131   1.799   1.356   0.420 -3.3046  0.8679 -3.3421
   33SOL     MW  132   1.827   1.294   0.364 -0.6376  0.1181 -0.4153
   34SOL     OW  133   1.248   1.861   1.058 -0.0518 -0.1477 -0.1212
   34SOL    HW1  134   1.166   1.906   1.071  2.7959  0.0285 -0.1890
   34SOL    HW2  135   1.304   1.882   1.137  2.0485  0.9516 -0.1054
   34SOL     MW  136   1.245   1.870   1.070  0.6010  0.0206 -0.1281
   35SOL     OW  137   0.438   0.176   1.884 -0.2086 -0.2622  0.3738
   35SOL    HW1  138   0.415   0.119   1.958  1.0504  1.1443  1.3581
   35SOL    HW2  139   0.467   0.122   1.810  0.5502  1.2204 -3.5362
   35SOL     MW  140   0.439   0.162   1.884  0.0576  0.1190 -0.0122
   36SOL     OW  141   1.900   1.933   0.533  0.6762 -0.0134  0.3335
   36SOL    HW1  142   1.916   1.955   0.442 -1.1542  1.6932 -0.6913
   36SOL    HW2  143   1.931   1.838   0.540 -1.7226  0.3507 -0.9525
   36SOL     MW  144   1.906   1.924   0.522  0.1182  0.2598  0.0287
   37SOL     OW  145   1.748   1.991   1.029 -0.2238 -0.3634 -0.0106
   37SOL    HW1  146   1.702   1.940   0.962 -0.9160  1.1848  2.3557
   37SOL    HW2  147   1.681   2.033   1.079  2.0711 -0.8546  0.7314
   37SOL     MW  148   1.733   1.990   1.027 -0.0123 -0.2239  0.3995
   38SOL     OW  149   2.782   0.913   0.121 -0.2541  0.4071  0.0619
   38SOL    HW1  150   2.804   0.879   0.210 -5.6821 -2.8601 -1.2136
   38SOL    HW2  151   2.860   0.900   0.068  1.6868  3.4550  0.1197
   38SOL     MW  152   2.795   0.907   0.125 -0.7142  0.3782 -0.0988
   39SOL     OW  153   1.425   0.607   0.793  0.0515 -0.3637  0.3951
   39SOL    HW1  154   1.410   0.510   0.811  0.9025  0.4568  1.7838
   39SOL    HW2  155   1.339   0.645   0.767 -0.7921  3.0617  1.5800
   39SOL     MW  156   1.412   0.599   0.792  0.0525  0.1965  0.7347
   40SOL     OW  157   1.156   1.911   0.259  0.2042 -0.1615  0.1448
   40SOL    HW1  158   1.199   1.858   0.320 -0.7363  0.0603  0.6416
   40SOL    HW2  159   1.120   1.987   0.311  2.6207 -1.4365  0.9674
   40SOL     MW  160   1.156   1.914   0.274  0.3989 -0.3005  0.3189
   41SOL     OW  161   0.624   0.550   1.587 -0.0547 -0.0682  0.7244
   41SOL    HW1  162   0.719   0.575   1.577 -0.5767  0.3805 -0.6295
   41SOL    HW2  163   0.617   0.508   1.668 -1.0782  2.2561  0.2557
   41SOL     MW  164   0.636   0.548   1.596 -0.2586  0.2977  0.4839
   42SOL     OW  165   1.256   3.032   1.971  0.6258 -0.3240  0.0629
   42SOL    HW1  166   1.166   2.998   1.981 -1.0209  1.1152 -0.1828
   42SOL    HW2  167   1.320   2.977   2.023  0.6606 -0.1258  1.2614
   42SOL     MW  168   1.252   3.020   1.979  0.4131 -0.1080  0.1886
   43SOL     OW  169   1.568   0.130   1.737  0.1650 -0.2766  0.3661
   43SOL    HW1  170   1.593   0.094   1.648  2.0846  0.2646 -0.8270
   43SOL    HW2  171   1.469   0.134   1.732 -0.5885  1.2732 -2.1845
   43SOL     MW  172   1.558   0.126   1.724  0.3189 -0.0007 -0.1278
   44SOL     OW  173   1.156   0.767   1.060 -1.3384  0.0094  0.1221
   44SOL    HW1  174   1.172   0.852   1.018  0.4137 -0.6066  0.9693
   44SOL    HW2  175   1.176   0.777   1.153  0.5197 -0.2677 -2.8280
   44SOL     MW  176   1.161   0.780   1.067 -0.8620 -0.1084 -0.1554
   45SOL     OW  177   1.186   0.752   0.731  0.4158 -0.4617 -0.2749
   45SOL    HW1  178   1.111   0.764   0.791 -0.2795  0.6634 -1.8544
   45SOL    HW2  179   1.144   0.707   0.656 -1.8761 -0.1465  2.1736
   45SOL     MW  180   1.171   0.747   0.729  0.0216 -0.2717 -0.1602
   46SOL     OW  181   0.582   1.177   0.562  0.5848  0.1596  0.1176
   46SOL    HW1  182   0.545   1.172   0.474  0.3641  0.6241 -1.0284
   46SOL    HW2  183   0.662   1.134   0.559  1.3150  3.6000 -0.1843
   46SOL     MW  184   0.588   1.171   0.550  0.6520  0.6748 -0.0734
   47SOL     OW  185   0.159   1.966   1.853  0.4428 -0.2828  1.5253
   47SOL    HW1  186   0.204   1.886   1.816 -0.0628  2.0513 -0.3317
   47SOL    HW2  187   0.158   1.956   1.946  2.1334  1.6273  0.7713
   47SOL     MW  188   0.165   1.954   1.861  0.5992  0.2772  1.1808
   48SOL     OW  189   1.103   0.502   0.949 -0.2074 -0.5347 -0.1163
   48SOL    HW1  190   1.012   0.487   0.975 -2.3449 -0.3903  1.1781
   48SOL    HW2  191   1.131   0.589   0.978 -0.0988 -2.3890 -0.6014
   48SOL     MW  192   1.095   0.512   0.956 -0.4751 -0.7603 -0.0095
   49SOL     OW  193   1.831   0.732   1.603  0.0440 -0.0424  0.1263
   49SOL    HW1  194   1.776   0.688   1.664  0.3617 -1.2079  1.2623
   49SOL    HW2  195   1.880   0.664   1.550 -1.3875 -0.2798  1.2380
   49SOL     MW  196   1.830   0.717   1.604 -0.1030 -0.2275  0.4228
   50SOL     OW  197   1.209   1.066   0.526 -0.0375  0.0990 -0.3867
   50SOL    HW1  198   1.162   1.114   0.592 -0.8112 -1.6330  3.7738
   50SOL    HW2  199   1.288   1.033   0.573  0.1453 -1.0546 -0.4282
   50SOL     MW  200   1.213   1.068   0.541 -0.1155 -0.2817  0.1568
   51SOL     OW  201   0.336   2.881   0.924  0.0688 -0.3304  0.4375
   51SOL    HW1  202   0.428   2.842   0.959  1.5047 -0.5506  0.4682
   51SOL    HW2  203   0.311   2.934   0.999 -0.9121 -3.7477 -1.4527
   51SOL     MW  204   0.345   2.883   0.938  0.1289 -0.8103  0.1922
   52SOL     OW  205   0.816   1.843   0.435 -0.0668 -0.1283 -0.1691
   52SOL    HW1  206   0.804   1.933   0.467  0.0432  1.2606  1.3649
   52SOL    HW2  207   0.809   1.843   0.340  0.0769 -1.9528 -1.7730
   52SOL     MW  208   0.813   1.855   0.427 -0.0333 -0.1858 -0.1783
   53SOL     OW  209   0.425   2.132   0.630 -0.1205  0.1738 -0.5528
   53SOL    HW1  210   0.346   2.112   0.583 -1.8610 -2.8474 -0.5333
   53SOL    HW2  211   0.433   2.228   0.637 -1.3566 -2.1376 -0.8307
   53SOL     MW  212   0.415   2.142   0.625 -0.5132 -0.5298 -0.5869
   54SOL     OW  213   2.099   0.923   0.857 -0.0096  0.4880 -0.0236
   54SOL    HW1  214   2.111   0.947   0.762  0.0930 -0.9334 -1.5791
   54SOL    HW2  215   2.033   0.852   0.856 -1.1780  0.4449  1.4425
   54SOL     MW  216   2.092   0.917   0.845 -0.1502  0.2947 -0.0354
   55SOL     OW  217   0.561   1.541   1.659  0.3297 -0.0338  0.7228
   55SOL    HW1  218   0.480   1.575   1.618  2.0027  1.2779 -0.5119
   55SOL    HW2  219   0.609   1.510   1.586  0.6012  3.0029  2.8629
   55SOL     MW  220   0.556   1.542   1.644  0.5863  0.5399  0.8422
   56SOL     OW  221   0.593   0.777   0.050  0.6160  0.2472  0.2171
   56SOL    HW1  222   0.581   0.874   0.042  2.6255  0.1654 -0.9237
   56SOL    HW2  223   0.534   0.731  -0.013  0.1765  0.1736 -1.2931
   56SOL     MW  224   0.584   0.784   0.041  0.8231  0.2267 -0.1327
   57SOL     OW  225   1.207   1.196   1.097  0.4141 -0.5029  0.7003
   57SOL    HW1  226   1.291   1.239   1.076  1.3526 -0.9469  0.3592
   57SOL    HW2  227   1.201   1.169   1.195  1.0685  1.4306  1.9265
   57SOL     MW  228   1.217   1.198   1.107  0.6243 -0.3064  0.8171
   58SOL     OW  229   0.545   1.159   1.317 -0.0089  0.1902 -0.5238
   58SOL    HW1  230   0.518   1.249   1.279 -0.2865  0.7815  1.6610
   58SOL    HW2  231   0.559   1.172   1.411 -1.5890  1.1158 -1.4658
   58SOL     MW  232   0.543   1.173   1.324 -0.2540  0.3903 -0.3599
   59SOL     OW  233   1.549   1.690   0.334  0.0347  0.1052 -0.2141
   59SOL    HW1  234   1.565   1.672   0.429  1.6760  0.2852  1.2768
   59SOL    HW2  235   1.458   1.691   0.324  0.3713 -1.6123  0.3100
   59SOL     MW  236   1.539   1.688   0.345  0.2956 -0.0976  0.0517
   60SOL     OW  237   0.029   0.184   1.601 -0.7055  0.0554  0.0259
   60SOL    HW1  238  -0.052   0.226   1.618  0.1450 -0.3010  1.2296
   60SOL    HW2  239   0.020   0.111   1.661 -1.0759  0.1771 -0.6956
   60SOL     MW  240   0.017   0.180   1.611 -0.6422  0.0244  0.0895
   61SOL     OW  241   2.040   1.498   3.071 -0.2504 -0.0100  0.4833
   61SOL    HW1  242   2.008   1.539   3.150 -1.2068  1.1638 -0.5433
   61SOL    HW2  243   2.112   1.451   3.114  1.0035  0.7393  1.0604
   61SOL     MW  244   2.045   1.497   3.087 -0.2112  0.2437  0.4240
   62SOL     OW  245   0.569   1.693   0.628  0.2306  0.0653 -0.0916
   62SOL    HW1  246   0.641   1.705   0.560 -1.5562  0.7336  1.7453
   62SOL    HW2  247   0.576   1.602   0.658 -0.2593 -0.8917 -1.0173
   62SOL     MW  248   0.579   1.683   0.623 -0.0698  0.0272  0.0286
   63SOL     OW  249   1.689   0.680   0.740 -0.3513 -0.2966 -0.1510
   63SOL    HW1  250   1.686   0.757   0.681  2.9086  2.2183  1.6233
   63SOL    HW2  251   1.598   0.670   0.765  0.6368  0.6539 -1.2805
   63SOL     MW  252   1.676   0.689   0.736  0.2092  0.1606 -0.0659
   64SOL     OW  253   0.223   1.751   0.752 -0.7102  0.2204  0.4300
   64SOL    HW1  254   0.296   1.795   0.795  1.2438 -0.7997  0.8802
   64SOL    HW2  255   0.154   1.807   0.776  2.0216 -2.9361 -1.0607
   64SOL     MW  256   0.223   1.764   0.761 -0.0920 -0.3306  0.2927
   65SOL     OW  257   1.539   2.344   0.387  0.0200 -0.2664 -0.4820
   65SOL    HW1  258   1.634   2.357   0.376 -0.7548  1.4433  1.3641
   65SOL    HW2  259   1.515   2.396   0.461  1.3483  0.1782 -4.0203
   65SOL     MW  260   1.548   2.353   0.396  0.0930  0.0178 -0.7052
   66SOL     OW  261   0.275   0.542   0.562  0.0623 -1.0520 -0.5191
   66SOL    HW1  262   0.335   0.496   0.506  0.4489  2.5709 -1.8535
   66SOL    HW2  263   0.273   0.637   0.533  0.2735  1.6364 -2.2389
   66SOL     MW  264   0.283   0.549   0.551  0.1412 -0.2193 -0.9221
   67SOL     OW  265   1.520   0.076   2.044  0.2995 -0.0561  0.4141
   67SOL    HW1  266   1.559   0.111   1.962 -0.2767 -0.9827 -1.8057
   67SOL    HW2  267   1.529  -0.020   2.050 -0.5612  0.7771  1.3154
   67SOL     MW  268   1.527   0.068   2.034  0.1099 -0.0684  0.2401
   68SOL     OW  269   0.659   0.109   2.933  0.5548 -0.5844 -0.1992
   68SOL    HW1  270   0.629   0.150   2.848  0.0635  2.1237 -0.2083
   68SOL    HW2  271   0.742   0.160   2.946  2.3373  0.4688  0.3478
   68SOL     MW  272   0.666   0.121   2.924  0.7252 -0.0881 -0.1282
   69SOL     OW  273   1.003   0.198   2.000  0.0574  0.2707 -0.1737
   69SOL    HW1  274   1.091   0.214   2.046  1.7687  0.3512 -1.2670
   69SOL    HW2  275   0.988   0.106   2.013 -2.3024 -0.4180 -0.1320
   69SOL     MW  276   1.013   0.188   2.008 -0.0282  0.1905 -0.3125
   70SOL     OW  277   0.513   1.739   1.111  0.0762  0.1886  0.1460
   70SOL    HW1  278   0.520   1.672   1.177 -0.3677  1.3733 -0.2635
   70SOL    HW2  279   0.598   1.760   1.066  3.8717  1.0027  0.8479
   70SOL     MW  280   0.525   1.733   1.114  0.5184  0.4523  0.1846
   71SOL     OW  281   1.602   0.527   1.311 -0.3983 -0.0476 -0.8853
   71SOL    HW1  282   1.535   0.563   1.371 -0.8706 -1.1012 -0.9464
   71SOL    HW2  283   1.583   0.578   1.228 -0.1599 -0.8423  0.1492
   71SOL     MW  284   1.591   0.538   1.308 -0.4292 -0.2915 -0.7569
   72SOL     OW  285   0.759   1.814   0.988 -0.4133  0.2625 -0.2852
   72SOL    HW1  286   0.737   1.868   0.911 -1.2704  0.6341 -0.4262
   72SOL    HW2  287   0.766   1.724   0.956  2.1058 -0.6806 -0.3757
   72SOL     MW  288   0.757   1.809   0.974 -0.1941  0.1871 -0.3157
   73SOL     OW  289   1.165   0.745   1.332  0.2691  0.6344 -0.3248
   73SOL    HW1  290   1.127   0.656   1.347 -0.2767  0.5051 -2.4444
   73SOL    HW2  291   1.109   0.802   1.381 -1.4374 -1.2632 -0.7054
   73SOL     MW  292   1.153   0.741   1.340 -0.0281  0.3670 -0.6547
   74SOL     OW  293   2.783   0.169   0.941 -0.6342  0.1968 -0.0338
   74SOL    HW1  294   2.824   0.187   0.853 -0.8412  0.5451  0.9549
   74SOL    HW2  295   2.728   0.250   0.944  1.0784  0.8235  1.0790
   74SOL     MW  296   2.781   0.182   0.930 -0.4355  0.3255  0.2435
   75SOL     OW  297   1.647   1.377   0.101 -0.1891 -0.2662  0.3805
   75SOL    HW1  298   1.694   1.451   0.143 -0.2360  2.3867 -1.5963
   75SOL    HW2  299   1.705   1.302   0.110  2.1610 -0.2757  0.3432
   75SOL     MW  300   1.661   1.377   0.108  0.1148  0.0826  0.1148
   76SOL     OW  301   3.008   0.617   0.461 -0.0737 -0.3271  0.2409
   76SOL    HW1  302   3.061   0.662   0.530  0.1233  0.5382 -1.0463
   76SOL    HW2  303   3.064   0.553   0.424 -1.8326 -2.7549  1.6741
   76SOL     MW  304   3.023   0.614   0.465 -0.2798 -0.5333  0.2602
   77SOL     OW  305   0.783   0.552   0.416  0.2778  0.1543  0.6191
   77SOL    HW1  306   0.778   0.554   0.323  2.1799 -0.7289  0.0880
   77SOL    HW2  307   0.746   0.464   0.445  0.8843 -0.8231 -0.6368
   77SOL     MW  308   0.777   0.541   0.408  0.6088 -0.0912  0.3833
   78SOL     OW  309   0.731   0.921   1.298 -0.2699  0.5351  0.4205
   78SOL    HW1  310   0.761   0.989   1.234  2.3539  2.0441 -1.6817
   78SOL    HW2  311   0.686   0.863   1.239  0.3994 -1.5809 -1.6994
   78SOL     MW  312   0.729   0.922   1.281  0.1646  0.4550 -0.1366
   79SOL     OW  313   1.942   1.667   0.590  0.4174  0.0125 -0.0480
   79SOL    HW1  314   1.848   1.640   0.566  3.0962 -2.2674  3.2666
   79SOL    HW2  315   1.948   1.680   0.685 -2.2815 -2.2698 -0.6639
   79SOL     MW  316   1.930   1.665   0.599  0.4147 -0.5894  0.3081
   80SOL     OW  317   0.080   0.939   0.325 -0.0000 -0.3381  0.4217
   80SOL    HW1  318   0.001   0.889   0.336  1.0141  1.1424  0.7024
   80SOL    HW2  319   0.144   0.874   0.359  0.6564  0.4785 -0.2197
   80SOL     MW  320   0.078   0.924   0.331  0.2204 -0.0350  0.3741
   81SOL     OW  321   1.915   1.895   0.215  0.3723  0.3535 -0.0664
   81SOL    HW1  322   1.874   1.811   0.187  1.3796 -2.0169  2.2362
   81SOL    HW2  323   1.843   1.960   0.186  1.3413  1.7790  0.3136
   81SOL     MW  324   1.900   1.893   0.207  0.6331  0.2289  0.2875
   82SOL     OW  325   0.821   1.041   0.514 -0.3183 -0.8665 -0.0248
   82SOL    HW1  326   0.825   1.048   0.416 -3.4433  1.9942  1.6981
   82SOL    HW2  327   0.794   0.953   0.530  1.4025  3.1178  0.8643
   82SOL     MW  328   0.818   1.030   0.503 -0.5036  0.0366  0.3199
   83SOL     OW  329   0.090   0.630   1.406 -0.6381  0.3804  0.7070
   83SOL    HW1  330   0.120   0.707   1.356  1.6119  1.2208  1.0368
   83SOL    HW2  331   0.167   0.615   1.457 -2.8425  0.2082  0.2102
   83SOL     MW  332   0.104   0.638   1.406 -0.6321  0.4686  0.6850
   84SOL     OW  333   0.105   0.258   0.950 -0.0220  0.2043 -0.1956
   84SOL    HW1  334   0.011   0.280   0.929 -1.8422 -1.4637  0.0579
   84SOL    HW2  335   0.096   0.174   1.002  2.5470  0.7142  2.3789
   84SOL     MW  336   0.091   0.250   0.954  0.0768  0.0515  0.1775
   85SOL     OW  337   0.486   0.418   0.745  0.4031 -0.1024  0.4281
   85SOL    HW1  338   0.401   0.457   0.712 -0.8806 -0.8742 -2.3616
   85SOL    HW2  339   0.463   0.335   0.778 -1.3529 -1.8324 -0.3394
   85SOL     MW  340   0.471   0.412   0.745  0.0021 -0.4325 -0.0412
   86SOL     OW  341   1.210   0.316   1.129 -0.2584  0.0178  0.6911
   86SOL    HW1  342   1.172   0.385   1.071  1.8851  0.0056 -1.2839
   86SOL    HW2  343   1.261   0.357   1.200 -1.6835 -1.0909 -0.1313
   86SOL     MW  344   1.212   0.330   1.131 -0.1636 -0.1301  0.3220
   87SOL     OW  345   1.199   1.439   1.297  0.8734  0.6146 -0.0235
   87SOL    HW1  346   1.223   1.495   1.222 -0.7117  1.8641  1.3172
   87SOL    HW2  347   1.141   1.374   1.257 -0.8238 -1.0799  2.7969
   87SOL     MW  348   1.195   1.438   1.282  0.4404  0.5559  0.5255
   88SOL     OW  349   1.208   0.998   0.938 -0.0105 -0.0323  0.4941
   88SOL    HW1  350   1.301   0.999   0.920  0.0418 -0.0203 -1.8706
   88SOL    HW2  351   1.190   1.050   1.017  1.0396  1.0638 -1.9758
   88SOL     MW  352   1.218   1.005   0.946  0.1349  0.1139 -0.1438
   89SOL     OW  353   1.779   0.678   0.369  0.1506 -0.2417  0.0881
   89SOL    HW1  354   1.802   0.589   0.364 -0.2368  2.2023  2.2701
   89SOL    HW2  355   1.854   0.725   0.330  0.2571  1.4026  1.0602
   89SOL     MW  356   1.792   0.672   0.363  0.1135  0.2977  0.5043
   90SOL     OW  357   0.680   1.130   2.766  0.4143 -0.4121 -0.9983
   90SOL    HW1  358   0.740   1.044   2.763  0.0463 -2.5231  0.1136
   90SOL    HW2  359   0.703   1.181   2.839 -0.3713 -1.5826  0.5279
   90SOL     MW  360   0.691   1.125   2.775  0.2621 -0.8450 -0.6502
   91SOL     OW  361   2.170   0.672   0.478  0.1796  0.3872 -0.8469
   91SOL    HW1  362   2.247   0.699   0.428 -0.4000 -1.4274 -0.4849
   91SOL    HW2  363   2.149   0.588   0.433  0.4795 -2.0103  0.3192
   91SOL     MW  364   2.177   0.664   0.465  0.1427 -0.1685 -0.6453
   92SOL     OW  365   1.648   0.861   0.533  0.3826  0.1133  0.1815
   92SOL    HW1  366   1.554   0.866   0.522 -2.1396  1.1216  0.3550
   92SOL    HW2  367   1.678   0.792   0.471 -0.4740  0.9591 -1.4566
   92SOL     MW  368   1.639   0.852   0.524 -0.0632  0.3579 -0.0117
   93SOL     OW  369   0.961   0.265   0.415 -0.4694 -0.1497 -0.2324
   93SOL    HW1  370   0.875   0.272   0.375 -2.0207  0.9752  1.0429
   93SOL    HW2  371   1.015   0.300   0.346  0.4047 -0.9449  0.7964
   93SOL     MW  372   0.957   0.270   0.401 -0.5587 -0.1062  0.0716
   94SOL     OW  373   1.794   1.452   1.624 -0.6738  1.1454  0.1401
   94SOL    HW1  374   1.825   1.438   1.531  1.6279  0.8863  0.3231
   94SOL    HW2  375   1.779   1.363   1.655 -0.4519 -1.7598 -0.4554
   94SOL     MW  376   1.796   1.438   1.616 -0.3408  0.7279  0.0857
   95SOL     OW  377   0.762   1.534   0.946  0.0084  0.8664 -0.7228
   95SOL    HW1  378   0.828   1.467   0.942 -1.9815  0.9586 -1.6124
   95SOL    HW2  379   0.689   1.501   0.995  1.2175 -0.1098  0.3400
   95SOL     MW  380   0.761   1.521   0.952 -0.0946  0.7497 -0.7000
   96SOL     OW  381   1.240   1.839   1.640  0.4231 -0.5191 -0.1284
   96SOL    HW1  382   1.165   1.845   1.689 -1.3716  0.7930  0.8895
   96SOL    HW2  383   1.246   1.742   1.627  1.6743  3.0056 -0.7653
   96SOL     MW  384   1.231   1.827   1.645  0.3514  0.1190 -0.0781
   97SOL     OW  385   1.285   1.429   0.780 -0.2188  0.0139 -0.4280
   97SOL    HW1  386   1.355   1.478   0.812 -0.0821 -0.8694 -1.4506
   97SOL    HW2  387   1.203   1.484   0.782 -1.4948  1.2976 -1.3544
   97SOL     MW  388   1.283   1.443   0.784 -0.3691  0.0667 -0.6852
   98SOL     OW  389   1.456   1.277   1.023  0.1179  0.0808 -0.5334
   98SOL    HW1  390   1.492   1.337   1.093 -0.1667 -0.6343 -1.0014
   98SOL    HW2  391   1.488   1.302   0.937 -1.3700  2.5742 -2.3950
   98SOL     MW  392   1.465   1.288   1.021 -0.1160  0.3154 -0.8407
   99SOL     OW  393   1.363   0.392   1.328  0.3848  0.0215  0.0389
   99SOL    HW1  394   1.452   0.408   1.289  0.5286 -3.4849  0.1712
   99SOL    HW2  395   1.376   0.387   1.423  0.7016  2.2573  0.5176
   99SOL     MW  396   1.376   0.394   1.335  0.4456 -0.1462  0.1195
  100SOL     OW  397   1.024   1.146   1.364  0.3024  0.0898  0.2549
  100SOL    HW1  398   1.037   1.205   1.436 -1.8617 -1.4786  0.0767
  100SOL    HW2  399   1.049   1.065   1.411 -1.6603  0.7503 -0.7019
  100SOL     MW  400   1.029   1.143   1.380 -0.2421 -0.0300  0.1051
  101SOL     OW  401   0.491   1.079   0.295  0.0676 -0.0586 -0.2780
  101SOL    HW1  402   0.505   0.990   0.319 -1.3139  0.6679  2.3860
  101SOL    HW2  403   0.499   1.081   0.193 -1.3418  0.8757 -1.7867
  101SOL     MW  404   0.494   1.068   0.285 -0.3006  0.1605 -0.1256
  102SOL     OW  405   2.904   0.610   1.023  0.1878  0.8338  0.6584
  102SOL    HW1  406   2.928   0.701   1.034  0.3109 -2.3246  1.1696
  102SOL    HW2  407   2.972   0.567   1.073 -0.4008  1.6664 -0.5064
  102SOL     MW  408   2.916   0.617   1.031  0.1264  0.5269  0.5722
  103SOL     OW  409   1.729   0.330   1.789 -0.0320 -0.3762 -0.0054
  103SOL    HW1  410   1.687   0.254   1.759  1.0247  1.2421 -2.5222
  103SOL    HW2  411   1.766   0.310   1.880  0.3337 -1.0588  2.3635
  103SOL     MW  412   1.728   0.317   1.797  0.1557 -0.2528 -0.0249
  104SOL     OW  413   0.076   1.725   1.517 -0.8592  0.1111 -0.5342
  104SOL    HW1  414   0.008   1.660   1.550 -2.0174 -3.9872  3.6874
  104SOL    HW2  415   0.077   1.725   1.415 -1.5042  1.4082  0.0167
  104SOL     MW  416   0.067   1.716   1.508 -1.0971 -0.2585  0.0955
  105SOL     OW  417   0.037   1.167   0.472  0.4442  0.8039 -0.0268
  105SOL    HW1  418   0.058   1.082   0.416 -2.2040 -1.9349 -0.2035
  105SOL    HW2  419   0.119   1.226   0.473  1.3076  0.7756  0.0703
  105SOL     MW  420   0.050   1.164   0.464  0.2087  0.4388 -0.0373
  106SOL     OW  421   0.874   0.370   1.029 -0.2127  0.5562  0.0099
  106SOL    HW1  422   0.812   0.427   0.980 -1.1996 -1.0604 -1.3511
  106SOL    HW2  423   0.893   0.302   0.956  0.2696  0.5849  1.7593
  106SOL     MW  424   0.868   0.368   1.013 -0.2793  0.3467  0.0612
  107SOL     OW  425   0.761   2.186   2.955 -0.0554 -0.3246 -0.0460
  107SOL    HW1  426   0.698   2.134   2.898  0.6648  1.7618 -2.3812
  107SOL    HW2  427   0.739   2.148   3.039 -2.9813  2.1798  0.0026
  107SOL     MW  428   0.750   2.174   2.959 -0.3464  0.2811 -0.3477
  108SOL     OW  429   1.271   1.575   1.562 -0.1769  0.1718  0.7276
  108SOL    HW1  430   1.248   1.541   1.477 -0.3094  2.0583  4.6885
  108SOL    HW2  431   1.350   1.519   1.589 -1.1697  0.3737  0.8743
  108SOL     MW  432   1.279   1.563   1.555 -0.3254  0.4473  1.2696
  109SOL     OW  433   1.978   0.793   0.182 -0.2115 -0.0537  0.2803
  109SOL    HW1  434   2.020   0.798   0.098 -2.9637  0.6399 -1.4432
  109SOL    HW2  435   2.025   0.846   0.254  3.1142  3.4520 -1.0244
  109SOL     MW  436   1.990   0.801   0.180 -0.1358  0.5003 -0.1192
  110SOL     OW  437   0.446   1.919   0.808 -0.4238 -0.1288  0.2719
  110SOL    HW1  438   0.486   1.851   0.752 -0.1302 -2.3487  2.0059
  110SOL    HW2  439   0.447   1.995   0.750 -2.1365 -0.1526  1.6663
  110SOL     MW  440   0.451   1.920   0.793 -0.6110 -0.4249  0.6847
  111SOL     OW  441   0.801   0.925   1.568  0.1360 -0.3432  0.2849
  111SOL    HW1  442   0.769   0.939   1.477  0.3210 -2.1019 -0.5169
  111SOL    HW2  443   0.784   0.829   1.578  3.6886 -1.5598 -0.7962
  111SOL     MW  444   0.795   0.914   1.557  0.6292 -0.7358  0.0365
  112SOL     OW  445   1.344   1.078   1.592  0.8310  0.1321 -0.2807
  112SOL    HW1  446   1.279   1.144   1.628  1.7080  1.0660  0.8478
  112SOL    HW2  447   1.306   0.991   1.588 -1.7281  1.2829 -1.3451
  112SOL     MW  448   1.330   1.075   1.596  0.6091  0.4071 -0.2722
  113SOL     OW  449   1.304   0.054   1.720  0.2983  0.1248 -0.8549
  113SOL    HW1  450   1.295   0.005   1.802  2.3121  0.5563  0.5086
  113SOL    HW2  451   1.301  -0.020   1.653  0.6332 -1.2249  2.0265
  113SOL     MW  452   1.302   0.038   1.722  0.6082  0.0037 -0.2948
  114SOL     OW  453   0.302   2.861   1.932 -0.5681 -0.1320 -0.2629
  114SOL    HW1  454   0.352   2.921   1.987  1.3486  0.9972 -3.0537
  114SOL    HW2  455   0.316   2.896   1.839 -1.2016 -1.4995  0.9590
  114SOL     MW  456   0.310   2.874   1.927 -0.3988 -0.1634 -0.4699
  115SOL     OW  457   0.495   0.832   1.146 -0.6055  0.0102  0.0522
  115SOL    HW1  458   0.527   0.746   1.119  0.8454 -1.4397  1.4032
  115SOL    HW2  459   0.415   0.815   1.202 -0.6724  1.7573  1.6006
  115SOL     MW  460   0.489   0.819   1.150 -0.4229  0.0494  0.4348
  116SOL     OW  461   0.807   1.021   0.975  0.0416  0.2880 -0.3578
  116SOL    HW1  462   0.799   1.055   0.889  0.3993 -1.8670  0.4039
  116SOL    HW2  463   0.845   1.097   1.027  1.5663 -0.8047  1.1421
  116SOL     MW  464   0.811   1.036   0.971  0.2900 -0.1405 -0.0594
  117SOL     OW  465   1.115   1.200   0.763 -0.3276 -0.0747 -0.6235
  117SOL    HW1  466   1.141   1.131   0.825  2.2329 -1.6971 -0.5825
  117SOL    HW2  467   1.168   1.278   0.795  0.2114  0.6603  0.1756
  117SOL     MW  468   1.125   1.201   0.776  0.0813 -0.1917 -0.5127
  118SOL     OW  469   3.039   2.940   1.765 -0.3853  0.3647  0.4165
  118SOL    HW1  470   3.087   3.011   1.813  1.3320  1.6086 -2.0700
  118SOL    HW2  471   2.949   2.955   1.777 -1.3752 -0.5246  0.6348
  118SOL     MW  472   3.034   2.952   1.773 -0.2893  0.4115  0.1173
  119SOL     OW  473   0.482   1.438   1.222  0.0348 -0.2971  0.4034
  119SOL    HW1  474   0.481   1.412   1.125 -1.8107  0.7841 -0.2854
  119SOL    HW2  475   0.384   1.433   1.235  2.0242  1.7152 -4.4746
  119SOL     MW  476   0.469   1.434   1.211  0.0538  0.1111 -0.3311
  120SOL     OW  477   0.266   0.695   0.966 -0.2930 -0.1634 -0.1628
  120SOL    HW1  478   0.237   0.649   1.047 -0.6192  1.4656  0.9543
  120SOL    HW2  479   0.345   0.746   0.989  0.0640 -0.0818 -0.1236
  120SOL     MW  480   0.273   0.696   0.980 -0.2889  0.0623 -0.0102
  121SOL     OW  481   1.754   1.200   1.710 -0.2640  0.0795  0.5188
  121SOL    HW1  482   1.671   1.167   1.730 -2.0033  0.9581 -0.6265
  121SOL    HW2  483   1.788   1.140   1.641 -1.5322 -0.2660  1.0411
  121SOL     MW  484   1.748   1.188   1.703 -0.6608  0.1498  0.4366
  122SOL     OW  485   0.133   0.559   0.785  0.1909  0.0875  0.3965
  122SOL    HW1  486   0.194   0.539   0.712 -1.4296 -1.0794 -1.0326
  122SOL    HW2  487   0.190   0.616   0.836  0.0942 -1.7434 -1.1537
  122SOL     MW  488   0.149   0.564   0.782 -0.0357 -0.3081  0.0034
  123SOL     OW  489   1.823   1.064   0.560  0.6982  0.7607 -0.3359
  123SOL    HW1  490   1.764   0.985   0.550 -0.7024 -1.7525  0.7682
  123SOL    HW2  491   1.858   1.066   0.650 -3.1568  0.2868 -0.2570
  123SOL     MW  492   1.820   1.054   0.571  0.0048  0.3666 -0.1798
  124SOL     OW  493   0.697   0.531   0.880 -0.1501 -0.1061 -0.3425
  124SOL    HW1  494   0.624   0.515   0.823  1.5831 -0.5046  0.1254
  124SOL    HW2  495   0.714   0.624   0.888  0.0336 -1.9523 -1.6800
  124SOL     MW  496   0.689   0.541   0.874  0.1028 -0.4022 -0.4572
  125SOL     OW  497   0.717   1.785   1.706 -0.3944  0.1805 -0.0549
  125SOL    HW1  498   0.649   1.722   1.678  0.4879 -0.0031  2.6594
  125SOL    HW2  499   0.679   1.868   1.694  1.6326 -1.3731  2.8588
  125SOL     MW  500   0.703   1.788   1.700 -0.0105 -0.0487  0.6877
  126SOL     OW  501   2.122   1.611   1.982 -0.1331  0.1977  0.2773
  126SOL    HW1  502   2.186   1.681   1.952  0.8702  1.1201  2.6331
  126SOL    HW2  503   2.161   1.521   1.992  1.0355 -0.6942 -0.2509
  126SOL     MW  504   2.135   1.608   1.979  0.1535  0.2017  0.5184
  127SOL     OW  505   0.695   0.791   1.858  0.2324 -0.7370  0.0666
  127SOL    HW1  506   0.770   0.750   1.894  2.0293  1.8333  0.5260
  127SOL    HW2  507   0.678   0.865   1.920 -0.1408  1.1768 -0.1137
  127SOL     MW  508   0.702   0.795   1.871  0.4202 -0.1454  0.1034
  128SOL     OW  509   1.812   0.726   2.900 -0.6664 -0.9222 -0.1830
  128SOL    HW1  510   1.813   0.697   2.806 -1.5954  2.6035 -1.8214
  128SOL    HW2  511   1.778   0.815   2.895 -0.7669 -1.3073  1.9655
  128SOL     MW  512   1.807   0.734   2.887 -0.8022 -0.5078 -0.1157
  129SOL     OW  513   1.647   0.947   0.217 -0.2874  0.4867  0.1187
  129SOL    HW1  514   1.610   0.862   0.211  0.4522  2.7909  0.2940
  129SOL    HW2  515   1.683   0.954   0.308  0.9221  1.2559  1.5313
  129SOL     MW  516   1.647   0.937   0.228 -0.0302  0.8922  0.3282
  130SOL     OW  517   0.740   1.338   0.354 -0.2807 -0.6097  0.1573
  130SOL    HW1  518   0.797   1.363   0.432  1.6241  1.6240 -3.5788
  130SOL    HW2  519   0.790   1.384   0.281  0.5764  4.6034 -2.6155
  130SOL     MW  520   0.754   1.347   0.355  0.0837  0.3728 -0.7015
  131SOL     OW  521   2.994   0.832   3.071  0.1446 -0.3552  0.0836
  131SOL    HW1  522   3.003   0.869   2.985  2.6791 -1.1259  0.3503
  131SOL    HW2  523   3.082   0.828   3.111  3.1310 -1.0799 -0.4117
  131SOL     MW  524   3.007   0.836   3.065  0.8730 -0.5525  0.0535
  132SOL     OW  525   2.699   0.162   1.225 -0.7235 -0.3706  0.1577
  132SOL    HW1  526   2.724   0.163   1.129  0.0251  0.6251  0.9807
  132SOL    HW2  527   2.607   0.138   1.239  1.9323 -0.6581  1.6983
  132SOL     MW  528   2.691   0.159   1.214 -0.2743 -0.2772  0.4696
  133SOL     OW  529   1.057   0.161   1.732 -0.3959 -0.1274  0.2298
  133SOL    HW1  530   1.136   0.115   1.702 -0.8418 -1.1775 -0.3658
  133SOL    HW2  531   1.067   0.158   1.827 -0.0335 -1.0321  1.6918
  133SOL     MW  532   1.068   0.155   1.740 -0.4069 -0.3854  0.3441
  134SOL     OW  533   1.405   2.524   1.436 -0.4345 -0.0783 -0.2761
  134SOL    HW1  534   1.329   2.585   1.441 -2.5860  1.2137 -0.2987
  134SOL    HW2  535   1.470   2.548   1.501  1.1369  3.5916  0.3268
  134SOL     MW  536   1.403   2.535   1.445 -0.5110  0.5763 -0.1996
  135SOL     OW  537   3.064   1.025   2.842 -0.1863 -0.3415 -0.1200
  135SOL    HW1  538   3.127   1.093   2.851 -3.5825 -1.6901  4.2092
  135SOL    HW2  539   2.987   1.072   2.865 -0.2633 -2.2774 -3.0689
  135SOL     MW  540   3.062   1.040   2.846 -0.6446 -0.7748  0.0621
  136SOL     OW  541   0.220   2.053   0.893 -0.5592 -0.4118 -0.4383
  136SOL    HW1  542   0.137   2.015   0.860  1.8797  0.2004 -1.8496
  136SOL    HW2  543   0.287   2.025   0.825 -0.9769 -0.6227 -0.6379
  136SOL     MW  544   0.218   2.045   0.880 -0.2925 -0.3588 -0.6508
  137SOL     OW  545   0.679   2.070   0.537  0.1988  0.1834 -0.4232
  137SOL    HW1  546   0.716   2.049   0.622 -2.4740  2.2839 -0.0072
  137SOL    HW2  547   0.584   2.072   0.529  1.4781 -0.9899  2.2736
  137SOL     MW  548   0.671   2.067   0.547  0.0149  0.3057 -0.0125
  138SOL     OW  549   0.517   0.549   1.100  0.4768  0.2740 -0.4226
  138SOL    HW1  550   0.425   0.523   1.086  2.0851 -2.2349  1.1618
  138SOL    HW2  551   0.566   0.534   1.018  1.1677  1.0905 -2.0409
  138SOL     MW  552   0.512   0.544   1.088  0.7801  0.0507 -0.4271
  139SOL     OW  553   2.767   0.578   1.355  0.2887  0.0829 -0.3109
  139SOL    HW1  554   2.810   0.494   1.344 -1.8352  1.2316 -0.5487
  139SOL    HW2  555   2.806   0.615   1.430 -2.8429 -0.6303  1.1870
  139SOL     MW  556   2.778   0.572   1.363 -0.4047  0.1403 -0.1446
  140SOL     OW  557   0.809   0.379   2.073  0.3592 -0.1248 -0.0397
  140SOL    HW1  558   0.875   0.315   2.057 -0.8789  3.9043  1.7154
  140SOL    HW2  559   0.818   0.400   2.165 -1.2569  2.9405  1.3701
  140SOL     MW  560   0.819   0.374   2.083 -0.0174  0.8112  0.3778
  141SOL     OW  561   1.082   0.578   1.762  0.2473  0.3771 -0.3108
  141SOL    HW1  562   1.122   0.496   1.734  1.4505  2.6829 -0.6106
  141SOL    HW2  563   1.145   0.643   1.739  1.6371  0.2085 -1.0361
  141SOL     MW  564   1.096   0.576   1.756  0.5894  0.6591 -0.4460
  142SOL     OW  565   0.840   1.172   0.759 -0.1971  1.1400 -0.9905
  142SOL    HW1  566   0.840   1.128   0.671 -0.4374 -0.4030  0.2564
  142SOL    HW2  567   0.937   1.188   0.777 -1.0139  1.1563  1.5129
  142SOL     MW  568   0.853   1.168   0.749 -0.3366  0.9386 -0.4957
  143SOL     OW  569   1.748   0.784   1.104 -0.0577  0.1308  0.5350
  143SOL    HW1  570   1.763   0.776   1.009  0.9833  3.8530  0.4442
  143SOL    HW2  571   1.652   0.804   1.112  0.7991 -0.5021  1.6436
  143SOL     MW  572   1.738   0.786   1.093  0.1927  0.5384  0.6693
  144SOL     OW  573   0.243   1.191   1.542 -0.6161 -1.0236  0.6161
  144SOL    HW1  574   0.333   1.159   1.532 -0.8592  0.5586  3.1197
  144SOL    HW2  575   0.240   1.212   1.635 -1.2719 -0.4401  2.1281
  144SOL     MW  576   0.254   1.190   1.553 -0.7347 -0.7379  1.1459
  145SOL     OW  577   0.266   0.440   1.108  0.4416  0.8139  0.7110
  145SOL    HW1  578   0.297   0.366   1.164  2.2420 -2.2328  3.5846
  145SOL    HW2  579   0.233   0.402   1.019  0.2244 -0.8338 -2.3510
  145SOL     MW  580   0.266   0.425   1.103  0.6505  0.1945  0.6861
  146SOL     OW  581   0.819   1.932   1.314 -0.5635 -0.1978 -0.2497
  146SOL    HW1  582   0.857   1.945   1.227 -2.0763 -0.2913 -0.9280
  146SOL    HW2  583   0.728   1.947   1.295 -3.3616  0.2099  2.0773
  146SOL     MW  584   0.812   1.936   1.300 -1.1323 -0.1563 -0.0322
  147SOL     OW  585   0.361   0.396   2.997 -0.6534  0.1135 -0.1762
  147SOL    HW1  586   0.301   0.373   3.067 -3.8648  0.1115 -1.0538
  147SOL    HW2  587   0.326   0.474   2.954  0.2474  1.2340 -0.3924
  147SOL     MW  588   0.349   0.403   3.000 -0.9582  0.2611 -0.3205
  148SOL     OW  589   0.125   0.863   1.278  0.5023 -0.1620 -0.2084
  148SOL    HW1  590   0.224   0.878   1.298  1.1842 -2.3188 -0.4400
  148SOL    HW2  591   0.087   0.894   1.357  1.4450 -2.4416 -2.8517
  148SOL     MW  592   0.133   0.869   1.291  0.7166 -0.7473 -0.5877
  149SOL     OW  593   1.364   1.144   1.338  0.0650 -0.9173  0.2798
  149SOL    HW1  594   1.343   1.127   1.432 -0.1082  1.5923  2.0655
  149SOL    HW2  595   1.440   1.203   1.349 -0.8230 -2.2155  0.4788
  149SOL     MW  596   1.371   1.150   1.352 -0.0750 -0.7575  0.5416
  150SOL     OW  597   1.844   1.412   0.741  0.1571 -0.2353  0.1920
  150SOL    HW1  598   1.871   1.321   0.744 -0.5655  2.0288  0.4880
  150SOL    HW2  599   1.912   1.461   0.788  2.6032  0.4901 -1.8425
  150SOL     MW  600   1.856   1.407   0.748  0.3845  0.1591 -0.0374
  151SOL     OW  601   1.667   1.795   0.827  0.1579 -0.6268 -0.2150
  151SOL    HW1  602   1.645   1.816   0.732  1.9133  1.7545 -0.1887
  151SOL    HW2  603   1.599   1.743   0.860 -0.7322 -1.3903  2.1601
  151SOL     MW  604   1.655   1.791   0.818  0.2721 -0.4134  0.1019
  152SOL     OW  605   0.720   1.393   1.481  0.3902  0.4949 -0.1773
  152SOL    HW1  606   0.721   1.325   1.548  0.4322 -0.6337 -0.5049
  152SOL    HW2  607   0.796   1.445   1.499 -1.2258  0.1825  1.4750
  152SOL     MW  608   0.730   1.391   1.493  0.1825  0.3048 -0.0025
  153SOL     OW  609   2.596   1.232   0.761  0.1480 -0.4542 -0.4725
  153SOL    HW1  610   2.664   1.204   0.701 -2.6695 -1.3258  2.4672
  153SOL    HW2  611   2.532   1.158   0.753 -0.8615 -0.1506 -2.6306
  153SOL     MW  612   2.596   1.218   0.752 -0.3569 -0.5292 -0.3694
  154SOL     OW  613   0.346   1.798   1.745 -0.5879  0.8037  0.2391
  154SOL    HW1  614   0.321   1.785   1.656 -0.9683  3.0084 -0.4290
  154SOL    HW2  615   0.337   1.706   1.785 -0.6400  0.4941 -0.3464
  154SOL     MW  616   0.341   1.784   1.739 -0.6450  1.0537  0.0737
  155SOL     OW  617   1.189   0.697   0.270  0.4092  0.0586  0.0444
  155SOL    HW1  618   1.175   0.655   0.358 -0.4489  0.3537 -2.2956
  155SOL    HW2  619   1.154   0.787   0.280  1.8207 -0.6434  0.8880
  155SOL     MW  620   1.182   0.704   0.283  0.4822  0.0049 -0.1531
  156SOL     OW  621   1.562   3.046   1.065 -0.9568 -0.0419  0.3374
  156SOL    HW1  622   1.602   3.126   1.098  1.0804  0.8215 -0.0805
  156SOL    HW2  623   1.577   2.981   1.129  0.0090  3.3490  0.0522
  156SOL     MW  624   1.569   3.048   1.078 -0.5606  0.5194  0.2447
  157SOL     OW  625   1.454   1.130   0.117 -0.1382 -0.3125  0.0772
  157SOL    HW1  626   1.501   1.059   0.175  1.7131 -2.6797  1.0840
  157SOL    HW2  627   1.525   1.181   0.075 -0.2029  0.1289  0.3838
  157SOL     MW  628   1.469   1.127   0.119  0.0975 -0.5666  0.2505
  158SOL     OW  629   0.483   1.615   2.199 -0.1657 -0.0942 -0.4108
  158SOL    HW1  630   0.481   1.684   2.132  0.3225  2.9280 -0.7427
  158SOL    HW2  631   0.410   1.643   2.259  0.5503 -0.2361  1.8931
  158SOL     MW  632   0.473   1.628   2.198 -0.0068  0.2858 -0.1506
  159SOL     OW  633   1.270   1.701   0.413  0.4233  0.1196  0.4147
  159SOL    HW1  634   1.245   1.619   0.363 -3.0139 -2.6042  1.3150
  159SOL    HW2  635   1.215   1.708   0.491  1.0594  1.2858 -1.0535
  159SOL     MW  636   1.259   1.691   0.417  0.0537 -0.0859  0.3398
  160SOL     OW  637   0.525   1.151   1.584  0.8185 -0.0296  0.7254
  160SOL    HW1  638   0.508   1.055   1.595  1.5319 -3.3835  0.1924
  160SOL    HW2  639   0.585   1.165   1.658 -2.2479  0.4762  0.7450
  160SOL     MW  640   0.531   1.140   1.595  0.5081 -0.4054  0.6577
  161SOL     OW  641   0.475   2.203   2.562 -0.5098 -0.2006  0.0538
  161SOL    HW1  642   0.384   2.215   2.532 -0.0624 -1.2555 -0.8264
  161SOL    HW2  643   0.526   2.162   2.493 -1.6079 -3.3469  0.6322
  161SOL     MW  644   0.470   2.199   2.549 -0.5957 -0.7549  0.0140
  162SOL     OW  645   1.079   1.815   1.866 -0.0558  0.1906  0.4649
  162SOL    HW1  646   1.072   1.909   1.891 -0.9524  2.6733 -0.4454
  162SOL    HW2  647   0.987   1.784   1.877  0.3207  1.9767 -0.4431
  162SOL     MW  648   1.066   1.823   1.871 -0.1244  0.7539  0.2250
  163SOL     OW  649   2.138   0.049   0.938 -0.0346 -0.1076 -0.1267
  163SOL    HW1  650   2.117   0.114   0.860  3.9378  2.5747 -1.6455
  163SOL    HW2  651   2.059   0.024   0.983  0.7639  2.5305 -0.2170
  163SOL     MW  652   2.125   0.054   0.934  0.5949  0.5944 -0.3390
  164SOL     OW  653   0.346   0.186   0.890  0.2427 -0.1877  0.0052
  164SOL    HW1  654   0.262   0.216   0.918  0.8754  1.2259 -1.7129
  164SOL    HW2  655   0.330   0.120   0.819 -1.2552  0.9943 -0.9121
  164SOL     MW  656   0.333   0.181   0.885  0.1285  0.1548 -0.3425
  165SOL     OW  657   1.337   1.235   0.338  0.2703 -0.5569 -0.3032
  165SOL    HW1  658   1.278   1.173   0.381 -0.1598  3.4369  0.6392
  165SOL    HW2  659   1.387   1.191   0.264  1.1840  1.4080 -0.4435
  165SOL     MW  660   1.336   1.221   0.334  0.3341  0.2293 -0.1974
  166SOL     OW  661   0.532   1.116   1.006  0.1918  0.2596  0.5713
  166SOL    HW1  662   0.509   1.066   1.083 -1.8918  1.3376 -1.7480
  166SOL    HW2  663   0.624   1.129   1.009 -0.2595  1.8135 -0.3405
  166SOL     MW  664   0.541   1.111   1.017 -0.1426  0.6068  0.1450
  167SOL     OW  665   0.788   1.041   0.238 -0.2390 -0.1194 -0.2143
  167SOL    HW1  666   0.695   1.071   0.240 -2.1274  1.7796 -0.0091
  167SOL    HW2  667   0.838   1.116   0.190 -0.9597 -2.1494  0.7447
  167SOL     MW  668   0.782   1.055   0.232 -0.5833 -0.1367 -0.0607
  168SOL     OW  669   1.648   1.679   2.972  0.0208  0.2081  0.6028
  168SOL    HW1  670   1.554   1.674   2.986 -0.8845 -0.9288 -1.6116
  168SOL    HW2  671   1.678   1.589   2.944  1.8279 -2.3889 -2.6189
  168SOL     MW  672   1.640   1.667   2.970  0.1398 -0.2845 -0.1144
  169SOL     OW  673   0.383   0.906   1.396  0.2284 -0.2281  0.2762
  169SOL    HW1  674   0.388   0.883   1.488 -1.1891 -1.6728  1.2186
  169SOL    HW2  675   0.441   0.980   1.376 -1.3617 -0.5710  1.1904
  169SOL     MW  676   0.391   0.913   1.405 -0.1684 -0.4639  0.5212
  170SOL     OW  677   0.995   1.490   1.519  0.4586 -0.5706  0.1366
  170SOL    HW1  678   1.001   1.584   1.536 -1.5275 -0.6729  2.3450
  170SOL    HW2  679   1.053   1.475   1.436 -0.0950  1.3716 -1.8232
  170SOL     MW  680   1.003   1.500   1.511  0.1235 -0.3279  0.1694
  171SOL     OW  681   0.588   1.425   0.681  0.2675  0.1267  0.0848
  171SOL    HW1  682   0.540   1.408   0.768 -1.1834 -1.2704 -1.7866
  171SOL    HW2  683   0.585   1.341   0.633  1.5128 -0.9339  0.6982
  171SOL     MW  684   0.581   1.412   0.686  0.2404 -0.1976 -0.0812
  172SOL     OW  685   0.852   0.288   1.283 -0.2203  0.8795 -0.3103
  172SOL    HW1  686   0.869   0.309   1.191  0.5846 -0.2779 -1.7445
  172SOL    HW2  687   0.771   0.335   1.316 -0.7523  0.3741  0.2589
  172SOL     MW  688   0.844   0.297   1.275 -0.1843  0.6601 -0.4244
  173SOL     OW  689   0.450   1.714   0.393  0.0308  0.7046  0.0810
  173SOL    HW1  690   0.419   1.625   0.374 -0.1838  3.1385 -1.0479
  173SOL    HW2  691   0.487   1.700   0.484 -1.1210 -1.3832 -0.4917
  173SOL     MW  692   0.451   1.701   0.402 -0.1495  0.7503 -0.1435
  174SOL     OW  693   1.852   0.998   1.531 -0.0838 -0.2566 -0.1508
  174SOL    HW1  694   1.825   0.909   1.559 -1.2752  1.8930  2.5865
  174SOL    HW2  695   1.846   1.004   1.434 -0.0654  2.1877  3.2486
  174SOL     MW  696   1.848   0.987   1.522 -0.2386  0.3495  0.6589
  175SOL     OW  697   0.466   1.423   0.369  0.3560  0.2015 -0.7331
  175SOL    HW1  698   0.443   1.400   0.274  1.8217  1.1085 -5.0433
  175SOL    HW2  699   0.560   1.392   0.380 -0.2141  0.0572  0.2822
  175SOL     MW  700   0.475   1.416   0.358  0.4742  0.3021 -1.1679
  176SOL     OW  701   0.210   1.395   1.228  0.3919  0.8447 -0.1463
  176SOL    HW1  702   0.182   1.346   1.154 -0.3174  0.9667 -0.7570
  176SOL    HW2  703   0.178   1.340   1.304  1.2459  0.6449  2.7210
  176SOL     MW  704   0.203   1.381   1.228  0.4110  0.8344  0.1514
  177SOL     OW  705   0.575   0.411   1.337  0.2348  0.3978 -0.0012
  177SOL    HW1  706   0.532   0.460   1.257 -0.3539 -0.9741  0.9495
  177SOL    HW2  707   0.593   0.478   1.404  1.2364  2.1816 -2.3538
  177SOL     MW  708   0.571   0.426   1.335  0.2893  0.4521 -0.1862
  178SOL     OW  709   0.026   0.428   2.946  0.0968  0.2662  0.4909
  178SOL    HW1  710  -0.035   0.452   3.016 -2.1063 -0.3939  0.1564
  178SOL    HW2  711  -0.032   0.448   2.872 -0.7677  3.1373  0.0504
  178SOL     MW  712   0.010   0.434   2.945 -0.3079  0.5579  0.3887
  179SOL     OW  713   1.585   1.353   1.404 -0.3211 -0.1227  0.1847
  179SOL    HW1  714   1.564   1.387   1.492  0.8305 -0.3508  1.3869
  179SOL    HW2  715   1.680   1.336   1.404  0.5086 -0.1222 -0.9695
  179SOL     MW  716   1.594   1.355   1.415 -0.0597 -0.1527  0.1910
  180SOL     OW  717   3.036   0.206   0.471  0.1019 -0.1824 -0.4122
  180SOL    HW1  718   2.965   0.209   0.413  1.2533 -2.2440 -0.4824
  180SOL    HW2  719   3.094   0.277   0.443  0.4338 -0.7064  2.1156
  180SOL     MW  720   3.034   0.216   0.459  0.2976 -0.5236 -0.0879
  181SOL     OW  721   1.140   1.365   3.086  0.3212 -0.4098  0.2012
  181SOL    HW1  722   1.214   1.399   3.131 -3.0022  1.7873  0.5397
  181SOL    HW2  723   1.173   1.288   3.043 -0.0132  2.0046 -2.6421
  181SOL     MW  724   1.154   1.359   3.086 -0.1614  0.1987 -0.1293
  182SOL     OW  725   0.514   0.899   1.659 -0.6841  0.2309 -0.4226
  182SOL    HW1  726   0.428   0.874   1.695  0.3469 -2.5911 -0.4318
  182SOL    HW2  727   0.570   0.841   1.702  0.3500  1.1522 -0.3526
  182SOL     MW  728   0.510   0.888   1.670 -0.4116 -0.0199 -0.4145
  183SOL     OW  729   1.555   1.545   1.225  0.5734 -0.2404 -0.0626
  183SOL    HW1  730   1.468   1.588   1.233  1.6220  0.6448 -0.8654
  183SOL    HW2  731   1.555   1.475   1.298 -0.3859  1.1444 -0.5340
  183SOL     MW  732   1.543   1.541   1.236  0.5852  0.0591 -0.2307
  184SOL     OW  733   0.913   0.619   1.982 -0.0228 -0.1268 -0.2360
  184SOL    HW1  734   0.989   0.591   1.932  0.6848  2.0223  0.3671
  184SOL    HW2  735   0.866   0.533   1.984  0.0641  0.5729 -1.1233
  184SOL     MW  736   0.917   0.604   1.976  0.0820  0.2490 -0.2735
  185SOL     OW  737   1.244   1.019   1.933  0.4227  0.3590  0.2038
  185SOL    HW1  738   1.267   0.925   1.962  2.9967 -0.0457 -1.2696
  185SOL    HW2  739   1.269   1.067   2.007  1.1066 -0.4152 -0.9634
  185SOL     MW  740   1.250   1.013   1.947  0.8526  0.2034 -0.1446
  186SOL     OW  741   0.378   1.639   1.455 -0.5188  0.3386 -0.4804
  186SOL    HW1  742   0.448   1.611   1.400 -0.4841 -1.9718 -1.1692
  186SOL    HW2  743   0.296   1.647   1.404 -0.6885  1.7532  0.7465
  186SOL     MW  744   0.376   1.637   1.441 -0.5366  0.2204 -0.4094
  187SOL     OW  745   1.417   0.713   1.435 -0.6530  0.1759 -0.2282
  187SOL    HW1  746   1.418   0.700   1.530  0.7175 -0.4367 -0.7801
  187SOL    HW2  747   1.328   0.727   1.405  0.7592  1.3984  0.7573
  187SOL     MW  748   1.405   0.713   1.444 -0.2859  0.2564 -0.1710
  188SOL     OW  749   1.953   1.142   0.816 -0.2907  0.2166 -0.1815
  188SOL    HW1  750   1.912   1.159   0.902 -0.9130  4.1113  1.5754
  188SOL    HW2  751   2.020   1.072   0.822 -1.0573 -1.5461 -0.8172
  188SOL     MW  752   1.957   1.135   0.828 -0.4739  0.4979 -0.0336
  189SOL     OW  753   0.712   0.803   0.840 -0.5106  0.3763  0.8322
  189SOL    HW1  754   0.632   0.852   0.806 -0.9023 -1.4080 -0.5095
  189SOL    HW2  755   0.747   0.870   0.906 -1.1168 -1.3499  0.8337
  189SOL     MW  756   0.706   0.818   0.844 -0.6423 -0.0868  0.6554
  190SOL     OW  757   1.882   0.281   2.063  0.1997  0.6369 -0.3697
  190SOL    HW1  758   1.933   0.218   2.117  0.1768  2.6616  4.0363
  190SOL    HW2  759   1.945   0.349   2.026 -1.6332  1.4355  1.7930
  190SOL     MW  760   1.897   0.282   2.065 -0.0452  1.0094  0.4970
  191SOL     OW  761   1.486   0.939   1.233 -0.7201  0.2280  0.4439
  191SOL    HW1  762   1.442   1.009   1.283  1.4467  0.1519  0.2431
  191SOL    HW2  763   1.498   0.868   1.295  1.9274  0.1009 -2.0761
  191SOL     MW  764   1.482   0.939   1.248 -0.0849  0.2012  0.0849
  192SOL     OW  765   0.574   2.079   2.793  0.3733  0.1578  0.0849
  192SOL    HW1  766   0.518   2.109   2.715 -3.2556  0.8445 -2.6037
  192SOL    HW2  767   0.589   1.987   2.778  1.3022  0.6346 -0.1656
  192SOL     MW  768   0.568   2.071   2.781  0.0171  0.3113 -0.3029
  193SOL     OW  769   1.023   1.565   0.802 -0.4672  0.0307 -0.2134
  193SOL    HW1  770   0.999   1.547   0.891  0.5841 -2.1817  3.2654
  193SOL    HW2  771   0.974   1.499   0.746  0.7005 -1.7311  0.8880
  193SOL     MW  772   1.013   1.554   0.806 -0.1744 -0.4937  0.3909
  194SOL     OW  773   0.436   1.392   0.932 -0.3473  0.3485  0.7624
  194SOL    HW1  774   0.441   1.297   0.943  2.1387 -1.4062 -0.5988
  194SOL    HW2  775   0.379   1.415   0.863  0.1063 -1.0097  1.1486
  194SOL     MW  776   0.429   1.383   0.924  0.0405 -0.0622  0.6337
  195SOL     OW  777   1.282   1.129   2.996 -0.3332  0.9507  0.5546
  195SOL    HW1  778   1.326   1.136   3.079 -0.7166 -0.2517 -3.9621
  195SOL    HW2  779   1.206   1.069   3.020 -1.5518  0.5163  1.1829
  195SOL     MW  780   1.278   1.122   3.010 -0.5446  0.7348  0.0416
  196SOL     OW  781   2.169   1.028   0.603  0.1500 -0.2361 -0.8466
  196SOL    HW1  782   2.144   0.986   0.517 -1.1673 -2.3892 -0.7915
  196SOL    HW2  783   2.164   1.123   0.583 -1.8779  1.2026  1.5949
  196SOL     MW  784   2.165   1.035   0.589 -0.2914 -0.3304 -0.5172
  197SOL     OW  785   0.692   1.246   2.048  0.4626  0.4858 -0.0957
  197SOL    HW1  786   0.695   1.151   2.040 -0.2966 -1.5502 -2.3111
  197SOL    HW2  787   0.645   1.279   1.976  0.3301  1.5901  0.7899
  197SOL     MW  788   0.686   1.238   2.038  0.3449  0.3629 -0.2711
  198SOL     OW  789   2.974   1.361   1.077  0.0680  0.0005  0.4576
  198SOL    HW1  790   2.948   1.454   1.065 -1.9567  1.3323 -2.2389
  198SOL    HW2  791   2.891   1.319   1.042 -0.3217  0.8660 -0.7009
  198SOL     MW  792   2.960   1.368   1.071 -0.2506  0.2904 -0.0510
  199SOL     OW  793   0.520   1.356   1.861 -0.1233  0.1338  0.5115
  199SOL    HW1  794   0.449   1.308   1.815  0.4448  0.5489 -1.3297
  199SOL    HW2  795   0.540   1.431   1.802  1.1535 -0.8536  1.3927
  199SOL     MW  796   0.513   1.360   1.847  0.1201  0.0583  0.3848
  200SOL     OW  797   1.861   0.010   1.336 -0.4493 -0.5028 -0.3973
  200SOL    HW1  798   1.871  -0.019   1.240 -2.8574 -0.9759 -0.4715
  200SOL    HW2  799   1.766   0.037   1.356 -3.2353 -0.6726 -0.0392
  200SOL     MW  800   1.850   0.010   1.326 -1.1346 -0.5876 -0.3598
  201SOL     OW  801   0.953   0.208   0.836  0.4235 -0.0092  0.2319
  201SOL    HW1  802   0.933   0.140   0.766 -0.3246 -1.4955  0.2052
  201SOL    HW2  803   1.011   0.273   0.792 -2.7697 -0.4709  1.8752
  201SOL     MW  804   0.958   0.207   0.821 -0.0965 -0.2663  0.4452
  202SOL     OW  805   1.505   1.578   0.941  0.2202 -0.3405 -0.4663
  202SOL    HW1  806   1.557   1.507   0.905  0.9748 -2.8458  0.3132
  202SOL    HW2  807   1.534   1.595   1.032 -1.5560  0.4142 -0.0511
  202SOL     MW  808   1.515   1.571   0.948  0.0854 -0.5715 -0.3087
  203SOL     OW  809  -0.004   0.473   1.182 -0.6756  0.7454  1.0403
  203SOL    HW1  810   0.083   0.452   1.147  3.2967 -0.7614  3.0430
  203SOL    HW2  811   0.018   0.512   1.269 -0.9373 -1.7756  0.5551
  203SOL     MW  812   0.010   0.475   1.189 -0.1860  0.2140  1.2405
  204SOL     OW  813   1.058   1.775   0.591  0.2418 -0.7070  0.2803
  204SOL    HW1  814   1.038   1.711   0.663  1.3164 -1.2725 -1.1744
  204SOL    HW2  815   0.969   1.781   0.563  0.3775  0.3562 -0.6525
  204SOL     MW  816   1.043   1.767   0.597  0.4015 -0.6413 -0.0347
  205SOL     OW  817   1.357   0.084   1.371  0.5025 -0.0485  0.4513
  205SOL    HW1  818   1.303   0.062   1.295  1.4707  0.2104 -0.4248
  205SOL    HW2  819   1.358   0.176   1.372  0.2559 -2.9488 -0.8759
  205SOL     MW  820   1.350   0.093   1.361  0.5977 -0.3970  0.1606
  206SOL     OW  821   0.409   3.026   1.419 -0.4947 -0.1996  0.3980
  206SOL    HW1  822   0.374   3.020   1.325 -1.0765  1.9636 -1.5486
  206SOL    HW2  823   0.485   2.955   1.417  1.4189  0.1010 -0.0019
  206SOL     MW  824   0.414   3.016   1.406 -0.3190  0.1255  0.0884
  207SOL     OW  825   0.918   1.482   0.206 -0.4413 -0.5284 -0.0164
  207SOL    HW1  826   0.929   1.578   0.206 -2.2517  0.8883 -0.8861
  207SOL    HW2  827   1.011   1.451   0.199  1.6291 -0.0458 -0.4370
  207SOL     MW  828   0.932   1.491   0.205 -0.4070 -0.2778 -0.1867
  208SOL     OW  829   0.703   1.632   1.316 -0.2683  0.0980  0.0745
  208SOL    HW1  830   0.789   1.661   1.346  1.0329  0.1354 -0.4231
  208SOL    HW2  831   0.702   1.537   1.325  2.2130 -1.2337  0.7650
  208SOL     MW  832   0.714   1.624   1.321  0.2307 -0.0727  0.1000
  209SOL     OW  833   1.566   0.542   2.945  0.5179  0.2308  0.5457
  209SOL    HW1  834   1.616   0.623   2.923 -1.9608  2.2448  0.3079
  209SOL    HW2  835   1.626   0.470   2.932 -1.0792  3.0663  1.3212
  209SOL     MW  836   1.580   0.543   2.940 -0.0199  0.8706  0.6166
  210SOL     OW  837   1.586   1.356   0.800 -0.5762 -0.5774 -0.0298
  210SOL    HW1  838   1.680   1.377   0.780 -0.2087  2.3744 -1.3917
  210SOL    HW2  839   1.544   1.332   0.713 -1.2703 -0.5578  1.4066
  210SOL     MW  840   1.593   1.355   0.786 -0.6193 -0.1854 -0.0200
  211SOL     OW  841   1.648   0.372   0.957  0.2905  0.0738 -0.4029
  211SOL    HW1  842   1.651   0.372   0.864 -0.3184 -2.0806  2.0543
  211SOL    HW2  843   1.726   0.427   0.975  1.2733 -0.8325 -0.8204
  211SOL     MW  844   1.658   0.379   0.947  0.3398 -0.3300 -0.1338
  212SOL     OW  845   0.208   1.081   0.100  0.3398 -0.1639  0.3594
  212SOL    HW1  846   0.159   1.067   0.180  0.3502 -1.4662 -2.4401
  212SOL    HW2  847   0.247   0.992   0.087 -0.0304  0.0205  1.3585
  212SOL     MW  848   0.206   1.067   0.109  0.2923 -0.3114  0.1218
  213SOL     OW  849   0.478   1.707   3.039  0.6187  1.0997 -0.0274
  213SOL    HW1  850   0.497   1.787   3.088 -2.1938  1.3554  0.2045
  213SOL    HW2  851   0.506   1.724   2.942  0.4576 -1.4812 -1.0773
  213SOL     MW  852   0.484   1.720   3.032  0.2263  0.7929 -0.1353
  214SOL     OW  853   0.561   0.283   2.252 -0.1697 -0.7816  0.5739
  214SOL    HW1  854   0.495   0.347   2.223 -1.6859  1.4445 -0.9716
  214SOL    HW2  855   0.643   0.305   2.202  0.6797  0.2111 -0.1526
  214SOL     MW  856   0.563   0.295   2.241 -0.2577 -0.3569  0.2741
  215SOL     OW  857   0.518   0.701   2.662  0.7264  0.0390  0.0366
  215SOL    HW1  858   0.513   0.700   2.566 -2.1627  1.3598 -0.9915
  215SOL    HW2  859   0.476   0.621   2.701 -2.8391 -0.5312  0.6753
  215SOL     MW  860   0.512   0.691   2.654 -0.1252  0.1380 -0.0148
  216SOL     OW  861   2.923   3.076   2.651 -0.3990 -0.3323 -0.1705
  216SOL    HW1  862   2.895   3.070   2.747 -1.1223  0.5823  1.9165
  216SOL    HW2  863   2.906   3.176   2.634  0.0436  1.2433  0.7088
  216SOL     MW  864   2.917   3.088   2.661 -0.4361 -0.0037  0.2209
  217SOL     OW  865   0.927   1.174   0.068  0.3591 -0.8561  0.5277
  217SOL    HW1  866   0.944   1.097   0.014  0.2460  0.2082 -3.5575
  217SOL    HW2  867   0.983   1.245   0.031 -0.9123  1.4912  1.1062
  217SOL     MW  868   0.937   1.173   0.056  0.1765 -0.4059  0.0650
  218SOL     OW  869   0.938   1.340   2.524  0.6604  0.4544 -0.1833
  218SOL    HW1  870   0.986   1.261   2.519  1.3319  1.2226 -0.6382
  218SOL    HW2  871   1.008   1.398   2.552  1.7589 -0.1341 -1.3529
  218SOL     MW  872   0.953   1.337   2.527  0.8939  0.4781 -0.3976
  219SOL     OW  873   1.100   0.468   2.618  0.0707 -0.1306  0.2608
  219SOL    HW1  874   1.141   0.484   2.703  0.9951 -0.3531  0.0993
  219SOL    HW2  875   1.032   0.530   2.599 -0.2545 -1.3459  3.0918
  219SOL     MW  876   1.097   0.478   2.627  0.1497 -0.3203  0.6130
  220SOL     OW  877   1.752   0.457   2.232 -0.1917  0.2389  0.0734
  220SOL    HW1  878   1.682   0.490   2.175 -1.8707  1.9028  1.5090
  220SOL    HW2  879   1.793   0.380   2.185 -0.6848 -3.3500 -0.8685
  220SOL     MW  880   1.748   0.451   2.218 -0.4783 -0.0151  0.1386
  221SOL     OW  881   0.341   1.336   2.916  0.3536  0.0874  0.5197
  221SOL    HW1  882   0.385   1.256   2.901  2.1783 -0.2113  0.6280
  221SOL    HW2  883   0.395   1.394   2.862  3.0124 -1.0121  0.9081
  221SOL     MW  884   0.354   1.333   2.907  0.9452 -0.0971  0.5852
  222SOL     OW  885   0.398   0.931   2.681  0.1528  0.4238  0.0607
  222SOL    HW1  886   0.379   0.951   2.587  1.9607 -0.1580  1.8240
  222SOL    HW2  887   0.453   0.853   2.674 -1.4624  2.0461  1.7054
  222SOL     MW  888   0.403   0.923   2.667  0.1782  0.5611  0.5103
  223SOL     OW  889   0.016   2.077   2.585 -0.1288 -0.4341 -0.5230
  223SOL    HW1  890   0.071   1.999   2.608  0.1277  0.0403 -0.1350
  223SOL    HW2  891   0.077   2.124   2.529  0.2035  1.6681  2.5938
  223SOL     MW  892   0.031   2.073   2.580 -0.0511 -0.0941 -0.0606
  224SOL     OW  893   1.544   0.821   2.597  0.1228 -0.0876  0.0452
  224SOL    HW1  894   1.581   0.865   2.668 -0.4941 -0.2826 -1.4994
  224SOL    HW2  895   1.500   0.886   2.542 -0.7159  1.9308 -0.7066
  224SOL     MW  896   1.543   0.835   2.599 -0.0692  0.1530 -0.2578
  225SOL     OW  897   2.940   1.499   2.309  0.1977 -0.3065  0.0708
  225SOL    HW1  898   3.003   1.557   2.258  2.0475  1.6321  0.7466
  225SOL    HW2  899   2.915   1.556   2.383  1.1721  1.1745 -2.1796
  225SOL     MW  900   2.945   1.514   2.312  0.5703  0.1447 -0.1369
  226SOL     OW  901   0.459   1.434   2.685 -0.0753  0.5454  0.1332
  226SOL    HW1  902   0.556   1.452   2.690  2.1624  0.3074  3.2438
  226SOL    HW2  903   0.418   1.518   2.678 -0.9717 -1.3890  0.5440
  226SOL     MW  904   0.466   1.448   2.684  0.1017  0.2588  0.5978
  227SOL     OW  905   0.452   1.089   2.881  0.2144  0.1361  0.4490
  227SOL    HW1  906   0.538   1.118   2.849  1.2299  0.1034  0.4965
  227SOL    HW2  907   0.426   1.035   2.810 -1.4998 -1.0957  1.2486
  227SOL     MW  908   0.460   1.086   2.867  0.1222 -0.0307  0.5608
  228SOL     OW  909   0.712   0.982   2.063 -0.1176 -0.3166  0.2021
  228SOL    HW1  910   0.805   0.972   2.026 -2.8012 -1.6894 -0.4756
  228SOL    HW2  911   0.716   0.913   2.135  1.7189 -2.0262  0.5772
  228SOL     MW  912   0.725   0.972   2.068 -0.2294 -0.7233  0.1622
  229SOL     OW  913   0.173   0.599   0.023  0.1821 -0.4583 -0.0692
  229SOL    HW1  914   0.125   0.541  -0.041  0.6180  1.7258 -2.0932
  229SOL    HW2  915   0.171   0.556   0.109  2.5918 -0.0700  0.3757
  229SOL     MW  916   0.167   0.585   0.026  0.5576 -0.1189 -0.2775
  230SOL     OW  917   1.757   1.377   2.030 -0.7932 -0.2771  0.3277
  230SOL    HW1  918   1.725   1.359   2.117  0.3045 -2.1031  0.4785
  230SOL    HW2  919   1.821   1.310   2.006  0.5667  0.1164  1.3251
  230SOL     MW  920   1.761   1.366   2.039 -0.4689 -0.4661  0.4792
  231SOL     OW  921   2.762   1.333   2.178 -0.3304 -0.1075 -0.4950
  231SOL    HW1  922   2.841   1.388   2.186 -2.4158 -1.3642 -1.1269
  231SOL    HW2  923   2.692   1.390   2.131 -1.3354  1.2284  2.3672
  231SOL     MW  924   2.763   1.348   2.173 -0.7381 -0.0971 -0.2008
  232SOL     OW  925   2.243   0.815   2.103  0.3013  0.5958 -0.8057
  232SOL    HW1  926   2.188   0.867   2.045  0.7006 -3.2204  0.9578
  232SOL    HW2  927   2.218   0.836   2.195 -0.0930  0.1027 -0.1451
  232SOL     MW  928   2.232   0.825   2.108  0.3019  0.0272 -0.4858
  233SOL     OW  929   2.037   0.453   1.957 -0.1199 -0.7443 -0.2771
  233SOL    HW1  930   2.099   0.380   1.944  1.8006 -0.8172  1.6503
  233SOL    HW2  931   2.071   0.482   2.049  2.3496 -1.5987  0.8011
  233SOL     MW  932   2.049   0.447   1.967  0.4593 -0.8667  0.1194
  234SOL     OW  933   0.290   1.012   2.449 -0.2126  0.0660  0.1109
  234SOL    HW1  934   0.198   1.042   2.431 -0.8263  1.5046 -2.2734
  234SOL    HW2  935   0.336   1.100   2.441  1.8250 -1.9677 -1.1356
  234SOL     MW  936   0.284   1.028   2.445 -0.0247 -0.0125 -0.3682
  235SOL     OW  937   1.144   3.026   2.713 -0.0078 -0.4515 -0.0786
  235SOL    HW1  938   1.181   2.974   2.783 -1.2782  2.4114 -1.1907
  235SOL    HW2  939   1.100   3.098   2.760 -0.7365 -2.0048 -0.7427
  235SOL     MW  940   1.143   3.029   2.728 -0.2716 -0.2787 -0.3129
  236SOL     OW  941   2.933   0.533   0.001 -0.3029  0.2990  0.0458
  236SOL    HW1  942   2.839   0.527  -0.002  2.4804  1.7556 -1.3038
  236SOL    HW2  943   2.952   0.628   0.003  0.2428 -0.3666  1.6516
  236SOL     MW  944   2.923   0.545   0.001  0.1363  0.4033  0.0796
  237SOL     OW  945   1.958   1.110   2.242  0.7078  0.4637  0.0857
  237SOL    HW1  946   1.918   1.150   2.165  0.4976  4.0273 -1.3729
  237SOL    HW2  947   1.900   1.038   2.268  2.3986 -2.4038 -0.2487
  237SOL     MW  948   1.945   1.106   2.235  0.9032  0.5555 -0.1509
  238SOL     OW  949   1.072   1.785   2.992 -0.2798  0.2065  0.0895
  238SOL    HW1  950   1.052   1.700   2.957 -2.5030  1.3383  1.5767
  238SOL    HW2  951   1.169   1.775   2.999  0.7238  0.3756  1.3137
  238SOL     MW  952   1.082   1.772   2.989 -0.4407  0.3782  0.4472
  239SOL     OW  953   1.249   1.360   2.359 -0.4850 -0.2072  0.0565
  239SOL    HW1  954   1.216   1.405   2.442  2.5164  1.0864  2.0055
  239SOL    HW2  955   1.286   1.277   2.401  2.4930 -4.3832  0.8412
  239SOL     MW  956   1.249   1.355   2.376  0.3039 -0.5875  0.4172
  240SOL     OW  957   0.739   0.823   2.283 -0.0180  0.2472  0.6003
  240SOL    HW1  958   0.725   0.886   2.353 -0.9820 -1.1384 -0.3160
  240SOL    HW2  959   0.828   0.793   2.302 -2.1320 -0.2796 -0.1837
  240SOL     MW  960   0.749   0.827   2.295 -0.4241 -0.0051  0.3760
  241SOL     OW  961   0.631   0.387   0.000  0.0232 -0.3321 -0.0755
  241SOL    HW1  962   0.662   0.454   0.061 -0.8440 -1.5549  0.8819
  241SOL    HW2  963   0.534   0.397  -0.009  0.8474  1.0604  0.0435
  241SOL     MW  964   0.623   0.397   0.007  0.0175 -0.3097  0.0665
  242SOL     OW  965   1.501   1.680   2.376  0.0078 -0.2775 -0.3332
  242SOL    HW1  966   1.493   1.781   2.373 -1.4072  3.9610 -2.1532
  242SOL    HW2  967   1.443   1.651   2.303 -0.9787  0.5979  0.7364
  242SOL     MW  968   1.492   1.690   2.366 -0.3091  0.3972 -0.4322
  243SOL     OW  969   1.038   0.246   2.480  0.3287  0.0693  0.5123
  243SOL    HW1  970   1.116   0.235   2.419  0.2926 -0.9042 -1.4154
  243SOL    HW2  971   1.043   0.334   2.524 -0.6934  1.1418 -0.3130
  243SOL     MW  972   1.049   0.256   2.477  0.1891  0.0824  0.1490
  244SOL     OW  973   0.247   0.758   2.350 -0.0844  0.5796  0.1797
  244SOL    HW1  974   0.268   0.847   2.380  2.0719  1.3837  0.6833
  244SOL    HW2  975   0.331   0.709   2.351  0.8315 -0.8305  1.1598
  244SOL     MW  976   0.261   0.764   2.354  0.3209  0.4996  0.3754
  245SOL     OW  977   1.268   0.224   2.323 -0.3009 -0.4359  0.0035
  245SOL    HW1  978   1.317   0.142   2.345 -0.0600  0.3853  0.7812
  245SOL    HW2  979   1.332   0.289   2.357  0.7611  4.0145  0.5254
  245SOL     MW  980   1.283   0.222   2.330 -0.1290  0.2596  0.1750
  246SOL     OW  981   1.186   1.193   2.142  0.0668 -0.5101 -0.5729
  246SOL    HW1  982   1.142   1.112   2.185  1.7983 -2.1213  1.8065
  246SOL    HW2  983   1.217   1.247   2.207 -0.1599 -0.8154 -1.5587
  246SOL     MW  984   1.184   1.190   2.156  0.2653 -0.7630 -0.3891
  247SOL     OW  985   0.760   0.586   0.146 -0.3494  0.1686  0.1052
  247SOL    HW1  986   0.713   0.651   0.094 -1.0368 -2.8465  0.9665
  247SOL    HW2  987   0.856   0.587   0.129  0.6549  0.3702 -1.7160
  247SOL     MW  988   0.766   0.595   0.137 -0.3076 -0.2026 -0.0215
  248SOL     OW  989   0.471   1.224   2.459 -0.2593  0.8964  0.3343
  248SOL    HW1  990   0.445   1.278   2.386 -0.7762 -1.0492  0.4011
  248SOL    HW2  991   0.487   1.288   2.529 -0.2963 -0.6476  0.8369
  248SOL     MW  992   0.470   1.239   2.459 -0.3324  0.4360  0.4095
  249SOL     OW  993   0.166   1.852   2.715  0.0775  0.3053 -0.2974
  249SOL    HW1  994   0.095   1.792   2.686  3.4024 -0.6558 -1.0139
  249SOL    HW2  995   0.176   1.831   2.810 -0.2550 -0.4073  3.5699
  249SOL     MW  996   0.158   1.842   2.724  0.4723  0.0845  0.1183
  250SOL     OW  997   2.185   0.864   2.361  0.3268  0.1065 -0.4791
  250SOL    HW1  998   2.275   0.816   2.373  0.7864  0.0930 -1.0298
  250SOL    HW2  999   2.199   0.958   2.356 -0.7649  0.4766 -1.4388
  250SOL     MW 1000   2.199   0.870   2.362  0.2434  0.1535 -0.6784
  251SOL     OW 1001   0.138   0.907   2.018 -0.1222 -0.8359 -0.2176
  251SOL    HW1 1002   0.162   0.883   2.110 -1.1807 -3.1527 -2.0301
  251SOL    HW2 1003   0.107   0.834   1.970  1.2066 -0.1413  0.0330
  251SOL     MW 1004   0.137   0.894   2.024 -0.0865 -1.0499 -0.4237
  252SOL     OW 1005   1.715   0.987   2.862 -0.0911  0.0027 -0.0426
  252SOL    HW1 1006   1.727   1.054   2.930 -0.1413 -2.1738 -1.4078
  252SOL    HW2 1007   1.782   0.999   2.791 -1.3372  1.9735 -2.1028
  252SOL     MW 1008   1.725   0.997   2.862 -0.2621 -0.0244 -0.4945
  253SOL     OW 1009   1.228   1.781   2.553  0.3894  0.1854  0.0925
  253SOL    HW1 1010   1.214   1.798   2.458 -1.8517  2.7922  0.4172
  253SOL    HW2 1011   1.158   1.836   2.578  1.3556 -0.3672 -1.5549
  253SOL     MW 1012   1.217   1.790   2.544  0.2212  0.4564 -0.0820
  254SOL     OW 1013   1.054   1.002   2.270  0.2653 -0.3665  0.0199
  254SOL    HW1 1014   1.022   0.914   2.258  1.1467 -0.3426 -0.7278
  254SOL    HW2 1015   0.979   1.063   2.282  0.9479 -3.6094  1.2485
  254SOL     MW 1016   1.040   0.998   2.270  0.4716 -0.7912  0.0833
  255SOL     OW 1017   0.794   2.581   2.201 -0.5423  0.7741 -0.9556
  255SOL    HW1 1018   0.738   2.515   2.237 -0.5759 -0.2186 -0.2303
  255SOL    HW2 1019   0.886   2.558   2.232 -0.4756 -1.9764 -1.4409
  255SOL     MW 1020   0.799   2.569   2.210 -0.5379  0.2803 -0.9239
  256SOL     OW 1021   1.244   2.748   2.852  0.7944 -0.0771  0.1476
  256SOL    HW1 1022   1.258   2.652   2.867 -0.9621 -3.2780  3.1691
  256SOL    HW2 1023   1.335   2.763   2.835 -0.1292 -1.6182  2.9007
  256SOL     MW 1024   1.258   2.738   2.852  0.4408 -0.7027  0.9095
  257SOL     OW 1025   0.089   1.922   0.094 -0.3379 -0.0147 -0.0487
  257SOL    HW1 1026   0.128   1.891   0.172 -0.0243 -0.6774 -1.4974
  257SOL    HW2 1027   0.117   1.855   0.027  1.3869 -0.5350  1.1727
  257SOL     MW 1028   0.098   1.909   0.095 -0.0690 -0.1708 -0.0787
  258SOL     OW 1029   0.679   1.010   2.459  0.0427 -0.4724 -0.1327
  258SOL    HW1 1030   0.691   1.087   2.409 -0.3564  1.2746 -2.6273
  258SOL    HW2 1031   0.601   1.041   2.512  0.4129  2.3523  0.1235
  258SOL     MW 1032   0.670   1.024   2.459  0.0389  0.1308 -0.4280
  259SOL     OW 1033   0.761   0.451   2.381  0.0763 -0.1554  0.1364
  259SOL    HW1 1034   0.670   0.477   2.379  0.1411 -2.6347 -0.0216
  259SOL    HW2 1035   0.757   0.363   2.420  1.2597 -0.4747  1.8489
  259SOL     MW 1036   0.748   0.443   2.386  0.2410 -0.5246  0.3415
  260SOL     OW 1037   0.509   0.142   1.606  0.0172  0.4006 -0.3694
  260SOL    HW1 1038   0.443   0.084   1.564 -0.7641 -0.9908  3.1796
  260SOL    HW2 1039   0.575   0.149   1.544 -5.0366 -0.7425 -1.2105
  260SOL     MW 1040   0.509   0.135   1.592 -0.7527  0.0662 -0.0121
  261SOL     OW 1041   1.304   0.769   2.014  0.1763  0.6208 -0.1968
  261SOL    HW1 1042   1.313   0.775   2.112 -0.8701  0.0095 -1.3104
  261SOL    HW2 1043   1.343   0.687   1.999  0.5318  1.2095 -2.0576
  261SOL     MW 1044   1.311   0.759   2.025  0.0851  0.6178 -0.5892
  262SOL     OW 1045   1.092   0.315   0.169 -0.6732  0.3231  0.5018
  262SOL    HW1 1046   1.182   0.284   0.148 -1.6762 -0.0838  2.2529
  262SOL    HW2 1047   1.041   0.267   0.105 -0.0947 -1.9664  0.6850
  262SOL     MW 1048   1.097   0.305   0.158 -0.7292 -0.0326  0.7570
  263SOL     OW 1049   0.432   3.088   2.511 -0.0175  0.4584  0.2653
  263SOL    HW1 1050   0.359   3.152   2.501 -0.2565  0.5809  4.2372
  263SOL    HW2 1051   0.481   3.084   2.426  0.6571 -1.6140  0.8425
  263SOL     MW 1052   0.429   3.096   2.499  0.0399  0.2012  0.8655
  264SOL     OW 1053   1.518   1.288   1.929  0.1213  0.4565 -0.2263
  264SOL    HW1 1054   1.470   1.298   2.011 -1.3300  2.0771  0.4820
  264SOL    HW2 1055   1.605   1.321   1.947 -2.2038 -0.1499  0.7794
  264SOL     MW 1056   1.523   1.294   1.942 -0.3769  0.5903 -0.0001
  265SOL     OW 1057   0.678   2.801   2.281  0.3126 -0.1013  0.4991
  265SOL    HW1 1058   0.746   2.734   2.254  1.4412  0.2673 -0.3202
  265SOL    HW2 1059   0.681   2.790   2.376 -0.2269 -0.5968 -2.6145
  265SOL     MW 1060   0.687   2.791   2.290  0.3903 -0.1181 -0.0198
  266SOL     OW 1061   1.000   0.733   2.226 -0.4039 -0.1576  0.1586
  266SOL    HW1 1062   0.982   0.669   2.159  0.3759  3.4612 -0.6166
  266SOL    HW2 1063   1.096   0.739   2.211 -0.9473 -0.4052 -0.9126
  266SOL     MW 1064   1.010   0.725   2.215 -0.3727  0.2872 -0.0850
  267SOL     OW 1065   1.393   1.702   2.778  0.5280  0.6644  0.4125
  267SOL    HW1 1066   1.482   1.673   2.745  0.9948 -2.0214  0.7795
  267SOL    HW2 1067   1.357   1.745   2.697  0.0255 -0.6301  1.5209
  267SOL     MW 1068   1.400   1.704   2.763  0.5233  0.1393  0.6072
  268SOL     OW 1069   0.257   0.824   1.724 -0.8490 -0.3948 -0.9475
  268SOL    HW1 1070   0.192   0.869   1.673  0.9815 -0.2337  1.6610
  268SOL    HW2 1071   0.258   0.731   1.698 -0.5350  0.5882 -0.2895
  268SOL     MW 1072   0.249   0.818   1.714 -0.5661 -0.2438 -0.5165
  269SOL     OW 1073   1.400   1.951   2.353  0.5385 -0.0613 -0.3885
  269SOL    HW1 1074   1.442   2.033   2.334  0.8979  1.4384  3.1360
  269SOL    HW2 1075   1.346   1.979   2.433 -3.1218 -0.5941  2.0704
  269SOL     MW 1076   1.399   1.965   2.361  0.1030  0.0662  0.4010
  270SOL     OW 1077   1.162   0.378   1.609 -0.4895  0.2174  0.5965
  270SOL    HW1 1078   1.119   0.300   1.657  2.9346 -0.4070 -0.6810
  270SOL    HW2 1079   1.253   0.362   1.598 -1.7678 -0.5929 -0.5287
  270SOL     MW 1080   1.168   0.365   1.614 -0.2064  0.0281  0.2795
  271SOL     OW 1081   0.895   0.024   2.515 -0.2549  0.1392  0.5116
  271SOL    HW1 1082   0.969  -0.021   2.562  2.4627  0.8271 -0.8419
  271SOL    HW2 1083   0.942   0.116   2.495 -1.5083  0.4023  1.7588
  271SOL     MW 1084   0.911   0.030   2.519 -0.0617  0.2646  0.4976
  272SOL     OW 1085   1.491   2.902   2.772 -0.1279 -0.1811 -0.3769
  272SOL    HW1 1086   1.475   2.958   2.698  1.4080 -1.8518 -0.0517
  272SOL    HW2 1087   1.491   2.958   2.848  1.5302  2.2400  1.9249
  272SOL     MW 1088   1.489   2.917   2.772  0.2935 -0.0821 -0.0303
  273SOL     OW 1089   1.439   0.958   2.844  0.3734  0.4273 -0.1921
  273SOL    HW1 1090   1.529   0.969   2.865  0.4768 -1.5696 -0.7776
  273SOL    HW2 1091   1.396   1.041   2.871 -0.3608  0.2570  0.5717
  273SOL     MW 1092   1.445   0.970   2.850  0.2901  0.1413 -0.1686
  274SOL     OW 1093   1.474   0.726   0.167  0.3131 -0.2696 -0.3790
  274SOL    HW1 1094   1.525   0.648   0.158 -1.3472 -0.6321 -3.7532
  274SOL    HW2 1095   1.386   0.700   0.199  2.9061  0.4577 -0.0130
  274SOL     MW 1096   1.469   0.713   0.170  0.4362 -0.2215 -0.7759
  275SOL     OW 1097   1.716   0.623   1.817  0.2256 -0.7679 -0.2564
  275SOL    HW1 1098   1.809   0.649   1.843  2.5453 -0.0168 -0.7214
  275SOL    HW2 1099   1.716   0.528   1.823  1.7279  0.0343  0.1809
  275SOL     MW 1100   1.729   0.614   1.821  0.7299 -0.5629 -0.2600
  276SOL     OW 1101   0.254   1.199   1.834  0.0095 -0.1078  0.0690
  276SOL    HW1 1102   0.305   1.137   1.882 -1.7262  0.6257 -1.1410
  276SOL    HW2 1103   0.170   1.201   1.887 -2.2719 -2.7416  0.0279
  276SOL     MW 1104   0.249   1.191   1.847 -0.5205 -0.3585 -0.0961
  277SOL     OW 1105   1.876   1.267   2.430  0.4507  0.1538 -0.0930
  277SOL    HW1 1106   1.922   1.349   2.452 -1.5185 -2.7170  1.9593
  277SOL    HW2 1107   1.928   1.211   2.374 -2.2653  3.0861 -4.4684
  277SOL     MW 1108   1.889   1.271   2.426 -0.1675  0.1619 -0.3995
  278SOL     OW 1109   1.465   0.611   1.702  0.3116  0.0521  0.2092
  278SOL    HW1 1110   1.427   0.585   1.786  1.5291  1.3163  1.3059
  278SOL    HW2 1111   1.556   0.601   1.720  1.8848 -1.1429  2.0335
  278SOL     MW 1112   1.472   0.606   1.715  0.6798  0.0612  0.5946
  279SOL     OW 1113   0.523   0.017   2.263  0.3799 -0.2544 -0.5739
  279SOL    HW1 1114   0.604  -0.033   2.243  2.6789  0.0499  0.4992
  279SOL    HW2 1115   0.539   0.110   2.250 -2.2019  1.6336 -0.6405
  279SOL     MW 1116   0.536   0.022   2.259  0.3426  0.0349 -0.4411
  280SOL     OW 1117   1.477   1.041   2.133 -0.1298 -0.2168 -0.4671
  280SOL    HW1 1118   1.525   0.966   2.093 -0.6577 -1.3339 -1.4817
  280SOL    HW2 1119   1.441   0.999   2.216  0.1760  1.0855  0.1154
  280SOL     MW 1120   1.478   1.026   2.138 -0.1591 -0.1924 -0.5241
  281SOL     OW 1121   1.289   1.307   2.750  0.1239  0.2439  0.6517
  281SOL    HW1 1122   1.378   1.310   2.770 -1.7141 -0.5834 -0.0381
  281SOL    HW2 1123   1.239   1.287   2.830  1.1099  0.2463  0.4254
  281SOL     MW 1124   1.294   1.305   2.763  0.0115  0.1351  0.5308
  282SOL     OW 1125   1.156   1.271   1.639 -0.2429  0.0538 -0.1761
  282SOL    HW1 1126   1.141   1.368   1.626 -0.9691  3.4115 -1.0136
  282SOL    HW2 1127   1.111   1.252   1.720  1.9755 -2.3870 -0.1102
  282SOL     MW 1128   1.148   1.281   1.648 -0.0460  0.1748 -0.2779
  283SOL     OW 1129   0.719   1.272   2.990  0.6410 -0.4875 -0.2797
  283SOL    HW1 1130   0.790   1.249   3.048  2.0198 -2.0805 -1.9662
  283SOL    HW2 1131   0.695   1.369   3.012 -0.8927  0.7168  0.9121
  283SOL     MW 1132   0.725   1.282   3.000  0.6205 -0.5388 -0.3450
  284SOL     OW 1133   0.518   0.633   2.402  0.2976 -0.2924 -0.3045
  284SOL    HW1 1134   0.595   0.684   2.378 -0.0041  1.0230  0.4509
  284SOL    HW2 1135   0.477   0.599   2.325  1.9020 -0.2971 -0.7777
  284SOL     MW 1136   0.523   0.635   2.389  0.4695 -0.1195 -0.2673
  285SOL     OW 1137   0.853   0.925   2.812  0.1682  0.4424  0.1287
  285SOL    HW1 1138   0.927   0.926   2.746  0.8517  0.3461 -1.7139
  285SOL    HW2 1139   0.819   0.836   2.810 -1.3924 -0.4839  0.2093
  285SOL     MW 1140   0.859   0.913   2.803  0.0525  0.3075 -0.1038
  286SOL     OW 1141   1.168   1.501   2.582 -0.3192 -0.0093  0.3296
  286SOL    HW1 1142   1.228   1.470   2.647 -0.9678  0.2212 -1.0513
  286SOL    HW2 1143   1.186   1.592   2.558  1.4185 -0.2172 -0.2950
  286SOL     MW 1144   1.178   1.509   2.587 -0.1755 -0.0063  0.0650
  287SOL     OW 1145   1.083   0.983   0.293  0.5646  0.1763  0.1634
  287SOL    HW1 1146   1.091   1.001   0.384 -1.3834 -0.6295 -0.7598
  287SOL    HW2 1147   0.989   0.990   0.272 -0.0647  0.1292  2.5366
  287SOL     MW 1148   1.071   0.987   0.302  0.2245  0.0638  0.3547
  288SOL     OW 1149   1.559   0.592   2.125 -0.1977 -0.1444  0.2147
  288SOL    HW1 1150   1.556   0.628   2.214  0.3226  2.2047 -1.2639
  288SOL    HW2 1151   1.596   0.660   2.063 -1.4403  0.6184 -0.1018
  288SOL     MW 1152   1.563   0.605   2.129 -0.2930  0.2662 -0.0221
  289SOL     OW 1153   0.960   1.034   2.580  0.9088 -0.0796 -0.2720
  289SOL    HW1 1154   1.005   0.971   2.525 -1.5863  0.3522  0.0088
  289SOL    HW2 1155   0.868   1.041   2.550 -1.1396  1.1322  1.5640
  289SOL     MW 1156   0.954   1.027   2.569  0.3093  0.1373  0.0073
  290SOL     OW 1157   0.880   0.609   1.560 -0.5342  1.1608 -0.2883
  290SOL    HW1 1158   0.926   0.555   1.493 -0.0682 -1.5984 -0.0705
  290SOL    HW2 1159   0.937   0.603   1.640 -1.7979  0.3452  1.1945
  290SOL     MW 1160   0.893   0.601   1.562 -0.6394  0.6891 -0.0639
  291SOL     OW 1161   0.196   0.320   0.151  0.0135  0.3078  0.1060
  291SOL    HW1 1162   0.260   0.251   0.165 -0.1301  0.7561 -1.5502
  291SOL    HW2 1163   0.134   0.266   0.084 -0.9433  0.1791 -0.2018
  291SOL     MW 1164   0.196   0.303   0.144 -0.1317  0.3500 -0.1532
  292SOL     OW 1165   1.029   0.579   0.084 -0.5480  0.2615 -0.1777
  292SOL    HW1 1166   1.094   0.631   0.143  1.0233  0.8870 -1.2945
  292SOL    HW2 1167   1.068   0.488   0.108 -3.0030 -0.2434 -0.9753
  292SOL     MW 1168   1.043   0.574   0.095 -0.6646  0.2774 -0.4303
  293SOL     OW 1169   0.205   0.140   2.467 -1.0865  0.1350  0.1873
  293SOL    HW1 1170   0.136   0.086   2.425 -2.6261  1.9987  0.7509
  293SOL    HW2 1171   0.177   0.175   2.556  0.4399 -2.0566  2.3821
  293SOL     MW 1172   0.192   0.138   2.473 -1.0883  0.0917  0.5513
  294SOL     OW 1173   1.511   0.645   2.384  0.6848 -0.4726 -0.1555
  294SOL    HW1 1174   1.554   0.686   2.462 -2.0239 -0.6075  0.6681
  294SOL    HW2 1175   1.478   0.567   2.413  0.4424  4.0056  0.4415
  294SOL     MW 1176   1.512   0.640   2.398  0.2954  0.1005  0.0319
  295SOL     OW 1177   0.901   0.659   2.515 -0.4577 -0.7465  0.4219
  295SOL    HW1 1178   0.864   0.582   2.463 -1.9211  4.5094  0.7995
  295SOL    HW2 1179   0.846   0.663   2.597  2.5936 -1.5555  0.2659
  295SOL     MW 1180   0.889   0.650   2.519 -0.2482 -0.1598  0.4512
  296SOL     OW 1181   1.282   0.242   2.038  0.9015 -0.4588 -0.1197
  296SOL    HW1 1182   1.322   0.161   2.013 -2.7620  0.8096 -0.2182
  296SOL    HW2 1183   1.293   0.258   2.130 -0.3077 -0.7739 -0.8903
  296SOL     MW 1184   1.289   0.234   2.047  0.2586 -0.3330 -0.2343
  297SOL     OW 1185   1.423   0.344   1.592 -0.7975  0.0064 -0.2533
  297SOL    HW1 1186   1.432   0.421   1.646 -1.4299 -0.5730 -2.5769
  297SOL    HW2 1187   1.508   0.299   1.598  1.2692  2.1655  0.9893
  297SOL     MW 1188   1.436   0.348   1.600 -0.6083  0.2149 -0.3959
  298SOL     OW 1189   1.631   0.871   1.994 -0.3975 -0.0159  0.3279
  298SOL    HW1 1190   1.586   0.917   1.917 -2.8097 -1.9321 -0.8153
  298SOL    HW2 1191   1.724   0.867   1.972 -0.0069 -0.0835 -0.0350
  298SOL     MW 1192   1.638   0.876   1.981 -0.6643 -0.2777  0.1292
  299SOL     OW 1193   0.536   1.046   0.034 -0.3517 -0.0001  0.1169
  299SOL    HW1 1194   0.612   1.100   0.025  1.4144  0.4523  2.8865
  299SOL    HW2 1195   0.481   1.045  -0.046  0.2466 -1.4624  0.1883
  299SOL     MW 1196   0.539   1.053   0.022 -0.0397 -0.1333  0.4917
  300SOL     OW 1197   1.243   1.132   2.501  0.4504 -0.0828  0.0558
  300SOL    HW1 1198   1.156   1.100   2.500 -0.0078  0.8636  2.4475
  300SOL    HW2 1199   1.247   1.177   2.590 -2.8932 -0.1583 -1.5372
  300SOL     MW 1200   1.232   1.133   2.513 -0.0512  0.0321  0.1611
  301SOL     OW 1201   1.401   0.954   0.670  0.9231  0.5302 -0.3127
  301SOL    HW1 1202   1.449   0.993   0.742 -1.7947  0.3997 -2.2320
  301SOL    HW2 1203   1.341   0.881   0.700  0.2449  0.4997  1.0945
  301SOL     MW 1204   1.399   0.950   0.684  0.4751  0.5089 -0.3803
  302SOL     OW 1205   0.127   1.474   2.019  0.0820  0.2730 -0.9296
  302SOL    HW1 1206   0.176   1.403   2.073  0.0105  0.6741 -0.4174
  302SOL    HW2 1207   0.089   1.544   2.083  1.6029  1.2706  0.9182
  302SOL     MW 1208   0.129   1.474   2.034  0.2732  0.4575 -0.6182
  303SOL     OW 1209   0.386   1.702   2.642 -0.6888 -0.2158 -0.2107
  303SOL    HW1 1210   0.367   1.693   2.551 -0.8141 -0.4014  1.1100
  303SOL    HW2 1211   0.299   1.734   2.663  2.8671  3.4625 -2.2301
  303SOL     MW 1212   0.372   1.705   2.633 -0.2362  0.2450 -0.3029
  304SOL     OW 1213   0.604   2.045   2.351 -0.8692  0.6389  0.1019
  304SOL    HW1 1214   0.665   2.105   2.305 -0.5539  3.0950 -0.7593
  304SOL    HW2 1215   0.657   1.965   2.364  0.7112  0.6416 -0.3127
  304SOL     MW 1216   0.619   2.042   2.346 -0.6191  0.9633 -0.0664
  305SOL     OW 1217   1.101   0.578   0.513  0.1184 -0.0170 -0.2459
  305SOL    HW1 1218   1.012   0.572   0.480 -1.4360  2.8898  0.3552
  305SOL    HW2 1219   1.118   0.494   0.544 -3.2602  1.7470  0.3711
  305SOL     MW 1220   1.092   0.566   0.513 -0.5325  0.5993 -0.0852
  306SOL     OW 1221   1.234   1.482   0.266 -0.2040  0.0856 -0.3009
  306SOL    HW1 1222   1.247   1.400   0.311  0.1923 -1.9179 -0.8911
  306SOL    HW2 1223   1.300   1.477   0.195 -5.1725  0.3920  1.1861
  306SOL     MW 1224   1.245   1.470   0.262 -0.8073 -0.1383 -0.1826
  307SOL     OW 1225   1.387   0.498   1.938 -0.6579 -0.1808 -0.2975
  307SOL    HW1 1226   1.361   0.408   1.965 -1.0869 -1.4712 -1.0908
  307SOL    HW2 1227   1.438   0.506   2.016 -0.5878 -1.7625  0.1347
  307SOL     MW 1228   1.391   0.487   1.952 -0.7053 -0.5597 -0.3451
  308SOL     OW 1229   2.141   0.594   2.703 -0.3857 -0.2658 -0.0693
  308SOL    HW1 1230   2.235   0.560   2.717  0.1294 -0.5351 -1.9086
  308SOL    HW2 1231   2.155   0.685   2.714  1.4704 -1.4357 -3.8534
  308SOL     MW 1232   2.155   0.602   2.706 -0.0729 -0.4557 -0.8113
  309SOL     OW 1233   0.403   0.366   0.399  0.1804  0.3600  0.1757
  309SOL    HW1 1234   0.492   0.361   0.432  0.4326 -0.7047 -0.3753
  309SOL    HW2 1235   0.405   0.345   0.306 -1.9186 -0.0249 -0.2755
  309SOL     MW 1236   0.415   0.362   0.391 -0.0633  0.1687  0.0434
  310SOL     OW 1237   0.511   0.618   1.937  0.5484  0.1170  0.0621
  310SOL    HW1 1238   0.564   0.548   1.891  1.6362  1.1572 -0.0602
  310SOL    HW2 1239   0.559   0.704   1.913 -2.6341 -0.1898  0.5150
  310SOL     MW 1240   0.524   0.620   1.927  0.2721  0.2138  0.1057
  311SOL     OW 1241   1.941   0.707   1.947  0.1096  0.4155 -0.5004
  311SOL    HW1 1242   1.929   0.720   2.041  0.9888  0.8448 -2.4152
  311SOL    HW2 1243   1.990   0.617   1.936  0.4298 -2.3660  0.7686
  311SOL     MW 1244   1.946   0.697   1.958  0.2679  0.1051 -0.5856
  312SOL     OW 1245   1.678   2.492   0.094  0.4152  0.4938  0.1129
  312SOL    HW1 1246   1.740   2.525   0.157 -0.7434 -2.9860 -0.1601
  312SOL    HW2 1247   1.600   2.546   0.097 -3.2451 -1.2321  2.2272
  312SOL     MW 1248   1.676   2.503   0.102 -0.2206 -0.1930  0.3558
  313SOL     OW 1249   0.108   1.225   2.946 -0.3325 -0.1600 -0.1080
  313SOL    HW1 1250   0.131   1.189   3.031 -0.3800  0.3891  0.2416
  313SOL    HW2 1251   0.181   1.280   2.918  0.2715  1.5761 -0.8096
  313SOL     MW 1252   0.121   1.228   2.954 -0.2591  0.1415 -0.1544
  314SOL     OW 1253   2.116   2.987   3.007 -0.0924 -0.3699  0.3723
  314SOL    HW1 1254   2.091   3.039   2.932  0.9529  1.4410  0.6257
  314SOL    HW2 1255   2.187   3.043   3.046  1.8867  1.1561 -1.0938
  314SOL     MW 1256   2.122   3.001   3.002  0.3066  0.0704  0.2123
  315SOL     OW 1257   1.525   1.918   0.011  0.5377  0.8215 -0.3990
  315SOL    HW1 1258   1.440   1.960   0.032 -1.0378  0.4650 -1.0702
  315SOL    HW2 1259   1.548   1.959  -0.072  0.5873  0.1475  0.8517
  315SOL     MW 1260   1.517   1.929   0.003  0.3363  0.6855 -0.3226
  316SOL     OW 1261   1.284   0.674   2.720 -0.7333  0.0821  0.2109
  316SOL    HW1 1262   1.372   0.687   2.682  0.7902  1.3300  2.1147
  316SOL    HW2 1263   1.287   0.700   2.815  1.2486 -0.4325 -0.6461
  316SOL     MW 1264   1.296   0.679   2.727 -0.2708  0.1788  0.3490
  317SOL     OW 1265   0.722   1.513   2.562 -0.0014 -0.2348  0.1678
  317SOL    HW1 1266   0.796   1.453   2.559 -0.8859 -0.4723 -0.9192
  317SOL    HW2 1267   0.720   1.557   2.477 -1.0965 -0.6831 -0.2215
  317SOL     MW 1268   0.732   1.511   2.550 -0.2626 -0.3253 -0.0270
  318SOL     OW 1269   1.345   0.388   2.924  0.3890 -0.2496 -0.3988
  318SOL    HW1 1270   1.268   0.441   2.928 -2.1884  0.9379  0.3567
  318SOL    HW2 1271   1.423   0.444   2.931  1.1252 -1.6905  1.2418
  318SOL     MW 1272   1.345   0.402   2.926  0.1461 -0.2831 -0.0827
  319SOL     OW 1273   0.774   0.395   2.845  0.2473  0.5197 -0.3664
  319SOL    HW1 1274   0.738   0.335   2.775  1.2837  0.0555 -1.1368
  319SOL    HW2 1275   0.718   0.387   2.928  0.4457  0.1795 -0.0386
  319SOL     MW 1276   0.762   0.386   2.847  0.4102  0.4136 -0.4248
  320SOL     OW 1277   1.056   1.319   1.928  0.1475 -0.0490  0.5570
  320SOL    HW1 1278   1.102   1.284   2.007  1.2474 -1.4101  0.9955
  320SOL    HW2 1279   1.105   1.403   1.914  0.3831  0.6574 -1.7271
  320SOL     MW 1280   1.068   1.325   1.937  0.3237 -0.1354  0.3135
  321SOL     OW 1281   1.034   0.945   3.008 -0.0183 -0.6593 -0.1340
  321SOL    HW1 1282   0.969   0.914   2.942  2.2991 -0.4681 -2.3159
  321SOL    HW2 1283   1.069   0.860   3.034 -0.5709 -1.0564 -2.4796
  321SOL     MW 1284   1.030   0.930   3.003  0.2146 -0.6864 -0.7314
  322SOL     OW 1285   1.264   0.820   1.704  0.1071  0.2438  0.2286
  322SOL    HW1 1286   1.340   0.762   1.724  0.6243 -0.8843  0.6085
  322SOL    HW2 1287   1.266   0.870   1.787  3.6828  2.4611 -0.2588
  322SOL     MW 1288   1.274   0.819   1.718  0.6471  0.3875  0.2145
  323SOL     OW 1289   1.230   1.571   1.870  0.2047  0.5127 -0.2251
  323SOL    HW1 1290   1.249   1.569   1.778  2.5654  1.9577 -1.7653
  323SOL    HW2 1291   1.166   1.641   1.886  0.9487  1.3932 -1.6044
  323SOL     MW 1292   1.224   1.580   1.860  0.6143  0.8195 -0.6103
  324SOL     OW 1293   1.451   1.009   2.432  0.3781 -0.1956 -0.0369
  324SOL    HW1 1294   1.350   1.043   2.451 -0.2236 -1.4738 -1.0481
  324SOL    HW2 1295   1.495   1.094   2.444 -0.1767 -0.2572 -4.0132
  324SOL     MW 1296   1.443   1.025   2.436  0.2256 -0.3724 -0.6949
  325SOL     OW 1297   1.076   0.478   2.940 -0.6813 -0.4060  0.2466
  325SOL    HW1 1298   1.066   0.527   3.023  2.6898  1.2927  1.1413
  325SOL    HW2 1299   0.982   0.475   2.910  0.7149 -2.3800  1.8209
  325SOL     MW 1300   1.062   0.484   2.947 -0.0523 -0.4423  0.5724
  326SOL     OW 1301   0.451   1.356   2.165 -0.3582  0.7303  0.3476
  326SOL    HW1 1302   0.523   1.306   2.125  0.2190  1.1933 -2.5181
  326SOL    HW2 1303   0.483   1.443   2.176 -0.6178 -1.2100  0.2200
  326SOL     MW 1304   0.464   1.361   2.161 -0.3163  0.5354 -0.0473
  327SOL     OW 1305   1.921   0.828   2.453  0.2284 -0.3139 -0.4030
  327SOL    HW1 1306   1.914   0.764   2.524 -1.2679 -0.8281  1.9786
  327SOL    HW2 1307   2.018   0.847   2.442  0.2746 -1.3298 -0.2232
  327SOL     MW 1308   1.933   0.822   2.461  0.0371 -0.5158 -0.0651
  328SOL     OW 1309   0.197   1.280   2.196 -0.3674 -0.4994  0.5053
  328SOL    HW1 1310   0.151   1.214   2.145 -2.0324 -3.1269  1.1958
  328SOL    HW2 1311   0.291   1.283   2.167  1.2778 -0.1699 -0.5440
  328SOL     MW 1312   0.204   1.271   2.185 -0.3700 -0.8026  0.4580
  329SOL     OW 1313   0.111   0.072   1.348 -0.1576  0.5118 -0.1794
  329SOL    HW1 1314   0.064   0.108   1.421 -0.6218 -2.2329  3.2619
  329SOL    HW2 1315   0.197   0.125   1.330  1.5348  3.6886  0.3182
  329SOL     MW 1316   0.116   0.084   1.356  0.0044  0.5688  0.3403
  330SOL     OW 1317   0.328   0.008   2.084  0.6280  0.4718 -0.0466
  330SOL    HW1 1318   0.366   0.013   2.171  0.0595 -4.9566 -0.0318
  330SOL    HW2 1319   0.258  -0.050   2.091 -1.7307  0.8777 -1.0321
  330SOL     MW 1320   0.324   0.001   2.096  0.2418 -0.1909 -0.1747
  331SOL     OW 1321   0.838   1.207   2.284  0.1739 -0.0389  0.4314
  331SOL    HW1 1322   0.796   1.238   2.206 -0.0663 -0.8770  0.2985
  331SOL    HW2 1323   0.864   1.285   2.331  3.2880 -2.3870 -1.7292
  331SOL     MW 1324   0.836   1.221   2.280  0.5531 -0.4593  0.1288
  332SOL     OW 1325   1.363   1.715   3.044 -0.3889  0.0077  0.4087
  332SOL    HW1 1326   1.378   1.719   2.945 -0.2217 -0.1707 -2.5106
  332SOL    HW2 1327   1.422   1.775   3.081 -1.0022  0.6236 -0.0604
  332SOL     MW 1328   1.372   1.723   3.036 -0.4477  0.0654 -0.0384
  333SOL     OW 1329   1.765   1.428   2.936 -0.3065 -0.0629 -0.5732
  333SOL    HW1 1330   1.846   1.453   2.988 -1.0340 -2.9847 -1.2800
  333SOL    HW2 1331   1.724   1.369   2.996  0.9716 -0.6098  2.8368
  333SOL     MW 1332   1.770   1.424   2.951 -0.2339 -0.5206 -0.2166
  334SOL     OW 1333   1.405  -0.003   2.594 -0.2575  0.0706  0.8445
  334SOL    HW1 1334   1.318  -0.028   2.631 -0.2512  0.0792  0.5354
  334SOL    HW2 1335   1.429   0.082   2.632 -0.5641  0.5410  0.7754
  334SOL     MW 1336   1.397   0.005   2.604 -0.2971  0.1338  0.7946
  335SOL     OW 1337   1.273   0.758   2.985  0.3536  0.0686 -0.6957
  335SOL    HW1 1338   1.322   0.762   3.066  1.9148  0.9578 -0.6674
  335SOL    HW2 1339   1.319   0.822   2.933  2.3440  0.9123  0.0699
  335SOL     MW 1340   1.285   0.767   2.989  0.8222  0.2972 -0.5910
  336SOL     OW 1341   0.955   1.067   1.932 -0.4000 -0.3513  0.4690
  336SOL    HW1 1342   0.964   1.163   1.943  0.7326  1.4837 -2.1042
  336SOL    HW2 1343   1.050   1.044   1.927  1.1604  0.3911  1.1891
  336SOL     MW 1344   0.969   1.076   1.933 -0.0447 -0.0113  0.2245
  337SOL     OW 1345   0.591   1.786   2.787 -0.4811  0.5149  0.0148
  337SOL    HW1 1346   0.520   1.758   2.727  0.7876 -3.2657 -1.8781
  337SOL    HW2 1347   0.672   1.739   2.754 -1.6768 -0.6788  1.3027
  337SOL     MW 1348   0.593   1.776   2.775 -0.4715 -0.1414 -0.0650
  338SOL     OW 1349   1.126   0.792   2.526  0.1493  0.0652  0.2245
  338SOL    HW1 1350   1.047   0.732   2.512 -0.1727  0.0594 -0.6629
  338SOL    HW2 1351   1.189   0.739   2.585 -0.5127 -1.9021  1.2605
  338SOL     MW 1352   1.124   0.777   2.532  0.0195 -0.1952  0.2441
  339SOL     OW 1353   1.536   1.040   1.790 -0.3494 -0.2628 -0.6175
  339SOL    HW1 1354   1.475   1.035   1.710 -0.4926 -0.0005 -1.5475
  339SOL    HW2 1355   1.492   1.100   1.852  0.3266 -2.1451  0.7714
  339SOL     MW 1356   1.522   1.047   1.788 -0.2791 -0.4765 -0.5569
  340SOL     OW 1357   1.381   1.465   0.035 -0.2969  0.0165 -0.5392
  340SOL    HW1 1358   1.376   1.554  -0.005 -1.5219  1.4368  3.2110
  340SOL    HW2 1359   1.475   1.442   0.051 -0.9463  1.6002  1.5504
  340SOL     MW 1360   1.393   1.473   0.032 -0.5442  0.4128  0.2313
  341SOL     OW 1361   0.154   1.414   2.694  0.1660  0.3505 -0.2279
  341SOL    HW1 1362   0.241   1.376   2.715  0.7449  1.8684  1.4287
  341SOL    HW2 1363   0.101   1.350   2.646  2.7159  1.9472  0.2056
  341SOL     MW 1364   0.158   1.400   2.690  0.5788  0.7615  0.0479
  342SOL     OW 1365   1.350   0.294   0.089 -0.5931  0.0927 -0.0011
  342SOL    HW1 1366   1.410   0.363   0.122 -0.1178 -2.1150 -0.3141
  342SOL    HW2 1367   1.349   0.302  -0.008  0.1471  1.7409  0.0940
  342SOL     MW 1368   1.358   0.304   0.081 -0.4327  0.0188 -0.0298
  343SOL     OW 1369   0.232   0.319   2.177 -0.1445  0.3011 -0.4933
  343SOL    HW1 1370   0.252   0.269   2.252 -3.1450  0.8751 -0.2887
  343SOL    HW2 1371   0.185   0.256   2.123  1.1153  0.0615 -2.4706
  343SOL     MW 1372   0.228   0.304   2.179 -0.3742  0.3453 -0.7272
  344SOL     OW 1373   1.694   2.077   0.171 -0.0825  0.1281  0.2080
  344SOL    HW1 1374   1.703   2.140   0.099 -0.4574 -2.6397 -0.5108
  344SOL    HW2 1375   1.628   2.019   0.134 -1.3435 -0.5661 -2.0468
  344SOL     MW 1376   1.686   2.078   0.157 -0.2983 -0.3287 -0.1844
  345SOL     OW 1377   0.741   1.628   2.320  0.4671 -0.8830  0.5951
  345SOL    HW1 1378   0.654   1.627   2.282  0.0761  1.9920 -1.5784
  345SOL    HW2 1379   0.809   1.598   2.257  2.3416 -0.6378 -1.5076
  345SOL     MW 1380   0.739   1.624   2.307  0.6629 -0.4713  0.0309
  346SOL     OW 1381   1.738   1.125   0.001  0.6433 -0.4543 -0.2085
  346SOL    HW1 1382   1.831   1.118  -0.023 -0.4384  0.9605 -1.2851
  346SOL    HW2 1383   1.718   1.056   0.066 -2.5371 -1.0119 -0.6160
  346SOL     MW 1384   1.748   1.115   0.007  0.0809 -0.3412 -0.4043
  347SOL     OW 1385   1.294   0.771   2.282 -0.2892 -0.2174 -0.0366
  347SOL    HW1 1386   1.373   0.728   2.324 -0.9485  2.9250  1.2157
  347SOL    HW2 1387   1.238   0.795   2.351  0.3476  3.3097 -0.9310
  347SOL     MW 1388   1.297   0.768   2.297 -0.2922  0.6625  0.0106
  348SOL     OW 1389   1.407   2.613   1.861  0.6785  0.3266  0.0585
  348SOL    HW1 1390   1.446   2.531   1.906  0.1013 -1.8671 -0.6381
  348SOL    HW2 1391   1.431   2.690   1.920  1.7261  2.5918 -1.7953
  348SOL     MW 1392   1.415   2.612   1.875  0.7406  0.3361 -0.2780
  349SOL     OW 1393   1.471   0.251   2.695  1.2608 -0.0027  0.0300
  349SOL    HW1 1394   1.406   0.296   2.746  1.4108 -2.1804 -1.7091
  349SOL    HW2 1395   1.556   0.260   2.740  0.2639  0.4123 -1.2262
  349SOL     MW 1396   1.473   0.258   2.708  1.1491 -0.2352 -0.3652
  350SOL     OW 1397   1.860   0.640   2.657 -0.4298 -0.3600  0.7569
  350SOL    HW1 1398   1.817   0.568   2.613 -0.2551 -0.7098  3.4426
  350SOL    HW2 1399   1.953   0.616   2.642  1.8688 -0.2453 -1.9181
  350SOL     MW 1400   1.866   0.627   2.649 -0.1035 -0.3910  0.7583
  351SOL     OW 1401   0.066   0.961   1.528  0.2970  0.2972 -0.4101
  351SOL    HW1 1402  -0.010   1.001   1.572  0.1671  0.6111  1.0479
  351SOL    HW2 1403   0.130   1.026   1.522 -0.9679  0.1384 -1.5389
  351SOL     MW 1404   0.064   0.975   1.533  0.1130  0.3176 -0.3666
  352SOL     OW 1405   0.878   1.680   2.730  0.3620  0.3621  0.4849
  352SOL    HW1 1406   0.913   1.628   2.798  0.5151 -1.7589  1.0510
  352SOL    HW2 1407   0.834   1.629   2.662 -0.3000  1.5306 -0.2588
  352SOL     MW 1408   0.877   1.667   2.730  0.2949  0.2364  0.4614
  353SOL     OW 1409   3.095   2.444   2.718 -0.2939  0.2878 -0.5532
  353SOL    HW1 1410   3.186   2.442   2.693 -0.1363  1.1392 -1.7881
  353SOL    HW2 1411   3.067   2.515   2.660  0.3597  1.7261  5.1736
  353SOL     MW 1412   3.103   2.453   2.707 -0.1868  0.5899  0.0395
  354SOL     OW 1413   0.345   2.511   0.837 -0.1544  0.0099 -0.0247
  354SOL    HW1 1414   0.334   2.488   0.931 -1.4050  1.6288 -0.6296
  354SOL    HW2 1415   0.296   2.436   0.800 -1.9788 -0.7385  0.6696
  354SOL     MW 1416   0.337   2.498   0.844 -0.5601  0.1248 -0.0129
  355SOL     OW 1417   0.020   2.256   0.392 -0.0577 -0.0677 -0.1152
  355SOL    HW1 1418  -0.051   2.193   0.399  0.2141  1.4618 -1.4343
  355SOL    HW2 1419   0.012   2.288   0.480 -0.5923  0.8217 -1.8974
  355SOL     MW 1420   0.010   2.252   0.404 -0.0924  0.2515 -0.5244
  356SOL     OW 1421   0.813   2.866   1.032 -0.5328 -0.0344 -0.5146
  356SOL    HW1 1422   0.848   2.828   0.951  0.0955 -0.7582 -0.3947
  356SOL    HW2 1423   0.723   2.847   1.021  0.7498 -1.4437 -0.1038
  356SOL     MW 1424   0.806   2.858   1.020 -0.2807 -0.3158 -0.4446
  357SOL     OW 1425   1.806   2.939   0.420  0.1995  0.0004 -0.0918
  357SOL    HW1 1426   1.743   2.881   0.468  1.2060  0.3605 -1.7529
  357SOL    HW2 1427   1.886   2.890   0.403 -4.2808  1.4203  2.8792
  357SOL     MW 1428   1.809   2.925   0.424 -0.2588  0.2352  0.0810
  358SOL     OW 1429   0.481   0.067   1.080  0.9247  0.2645  0.0061
  358SOL    HW1 1430   0.575   0.061   1.055  0.7953  0.4208 -0.3220
  358SOL    HW2 1431   0.428   0.119   1.016  0.6149  1.6541  1.7312
  358SOL     MW 1432   0.486   0.073   1.068  0.8668  0.4685  0.1904
  359SOL     OW 1433   0.877   2.875   1.830 -0.0745  0.6248  0.1235
  359SOL    HW1 1434   0.878   2.781   1.862  0.6216  1.5144  2.2821
  359SOL    HW2 1435   0.961   2.871   1.772  2.4841  2.2270  0.9315
  359SOL     MW 1436   0.888   2.862   1.826  0.3549  0.9536  0.5149
  360SOL     OW 1437   0.557   2.795   1.005 -0.1787 -0.5168 -0.2232
  360SOL    HW1 1438   0.568   2.763   0.910 -2.6305 -1.8009  0.2300
  360SOL    HW2 1439   0.553   2.715   1.057 -2.6269 -0.5702 -2.3273
  360SOL     MW 1440   0.558   2.780   1.000 -0.8252 -0.6933 -0.4410
  361SOL     OW 1441   0.196   2.703   1.332 -0.1511 -0.1933 -0.3451
  361SOL    HW1 1442   0.175   2.781   1.386 -1.4034 -2.3157 -0.5345
  361SOL    HW2 1443   0.286   2.676   1.363  0.8436 -1.2105  0.3067
  361SOL     MW 1444   0.205   2.710   1.343 -0.1851 -0.6075 -0.2841
  362SOL     OW 1445   1.475   2.429   0.660  0.1571 -0.3960 -0.2093
  362SOL    HW1 1446   1.488   2.334   0.683 -0.6200 -3.3095  0.1658
  362SOL    HW2 1447   1.478   2.470   0.748 -2.0088 -4.3122  0.4648
  362SOL     MW 1448   1.477   2.422   0.674 -0.2312 -1.2971 -0.0709
  363SOL     OW 1449   0.290   3.081   0.737 -0.0172  0.9374 -0.1443
  363SOL    HW1 1450   0.304   3.000   0.795 -1.6171  0.1868 -0.1750
  363SOL    HW2 1451   0.208   3.077   0.688 -0.1096 -1.4518  0.7334
  363SOL     MW 1452   0.281   3.070   0.738 -0.2405  0.5231 -0.0326
  364SOL     OW 1453   0.711   0.186   0.236  0.4645 -0.1002  0.1052
  364SOL    HW1 1454   0.694   0.098   0.262  0.6385 -2.3271  0.5617
  364SOL    HW2 1455   0.645   0.205   0.172  0.0529 -0.2876 -0.2558
  364SOL     MW 1456   0.700   0.177   0.231  0.4332 -0.4187  0.1178
  365SOL     OW 1457   0.964   1.931   1.095  0.1240  0.3324 -0.4197
  365SOL    HW1 1458   0.945   2.026   1.069 -1.2774 -0.2237  1.5566
  365SOL    HW2 1459   0.898   1.867   1.064 -2.4020 -0.1411 -0.6783
  365SOL     MW 1460   0.953   1.935   1.087 -0.3942  0.1965 -0.1931
  366SOL     OW 1461   2.841   2.627   1.027 -0.0052  0.3674 -1.1427
  366SOL    HW1 1462   2.916   2.608   1.076 -0.9544 -2.1008  0.3923
  366SOL    HW2 1463   2.886   2.639   0.938  1.5461  1.8615 -0.2745
  366SOL     MW 1464   2.857   2.626   1.022  0.0742  0.2389 -0.8256
  367SOL     OW 1465   1.256   2.877   0.917  0.1184  0.9228  0.1364
  367SOL    HW1 1466   1.185   2.900   0.983  1.7318  1.1404  4.0184
  367SOL    HW2 1467   1.213   2.838   0.838 -1.5589 -3.0241  1.0418
  367SOL     MW 1468   1.241   2.875   0.916  0.1099  0.4307  0.7680
  368SOL     OW 1469   1.664   0.406   0.693 -0.0784 -0.3938  0.5809
  368SOL    HW1 1470   1.754   0.389   0.665 -0.1638 -0.0411  0.0962
  368SOL    HW2 1471   1.668   0.506   0.701  0.4296 -0.7633  0.1503
  368SOL     MW 1472   1.676   0.417   0.690 -0.0227 -0.3960  0.4602
  369SOL     OW 1473   0.180   2.490   1.652 -0.2896 -0.0268 -0.3362
  369SOL    HW1 1474   0.262   2.468   1.699  0.5080  0.8586  2.0974
  369SOL    HW2 1475   0.149   2.573   1.682 -0.6166 -1.8013  0.7974
  369SOL     MW 1476   0.187   2.498   1.662 -0.2275 -0.1441  0.1345
  370SOL     OW 1477   0.725   0.039   0.975 -0.0465 -0.0580 -0.8445
  370SOL    HW1 1478   0.796   0.093   1.004 -0.2478 -2.6506 -0.5523
  370SOL    HW2 1479   0.757  -0.051   0.966 -0.3733 -3.2826  2.5351
  370SOL     MW 1480   0.739   0.035   0.978 -0.1162 -0.8255 -0.3600
  371SOL     OW 1481   1.347   2.974   1.526  0.2806  0.0567  0.3115
  371SOL    HW1 1482   1.285   2.901   1.506 -0.8157 -0.0328  0.8443
  371SOL    HW2 1483   1.337   3.047   1.458  1.6456  1.6223 -1.2944
  371SOL     MW 1484   1.337   2.974   1.515  0.3160  0.2514  0.1699
  372SOL     OW 1485   0.738   2.341   0.471 -0.2406 -0.0977  0.2949
  372SOL    HW1 1486   0.712   2.247   0.490 -0.8974  0.9165  0.2228
  372SOL    HW2 1487   0.776   2.361   0.382  2.7360 -1.9973 -1.1370
  372SOL     MW 1488   0.739   2.331   0.462  0.0655 -0.2145  0.0965
  373SOL     OW 1489   2.781   3.039   1.426 -0.0973  0.2128  0.0595
  373SOL    HW1 1490   2.856   3.003   1.383 -1.5095  0.9422  0.2413
  373SOL    HW2 1491   2.754   3.107   1.367 -2.0121 -1.7182 -1.5553
  373SOL     MW 1492   2.788   3.043   1.413 -0.5363  0.0542 -0.1296
  374SOL     OW 1493   1.537   0.459   0.189  0.1975 -0.4369 -0.2927
  374SOL    HW1 1494   1.622   0.425   0.177  0.1323  2.3034  4.3232
  374SOL    HW2 1495   1.523   0.462   0.284  1.7115 -2.0854  0.1612
  374SOL     MW 1496   1.546   0.455   0.200  0.3887 -0.2928  0.3762
  375SOL     OW 1497   1.111   2.064   2.281 -0.6440 -0.3862 -0.6821
  375SOL    HW1 1498   1.162   2.072   2.363  1.3607  0.3298  1.0630
  375SOL    HW2 1499   1.151   1.992   2.230  0.1838 -0.2289 -1.5262
  375SOL     MW 1500   1.123   2.056   2.285 -0.2703 -0.2710 -0.5632
  376SOL     OW 1501   0.650   2.538   0.065 -0.7742  0.5175  0.1994
  376SOL    HW1 1502   0.615   2.493   0.149 -2.5566  1.3011  3.9851
  376SOL    HW2 1503   0.630   2.483  -0.010  0.5604  0.3265  0.2040
  376SOL     MW 1504   0.643   2.525   0.066 -0.8333  0.5957  0.6995
  377SOL     OW 1505   1.344   1.994   0.849 -0.3099  0.1793 -0.1365
  377SOL    HW1 1506   1.250   1.984   0.825 -0.6296 -2.0794 -1.7068
  377SOL    HW2 1507   1.353   1.935   0.921 -2.6327  1.5646  0.4951
  377SOL     MW 1508   1.333   1.985   0.856 -0.6586  0.0641 -0.2603
  378SOL     OW 1509   1.045   2.810   1.607  0.2598  0.2871  0.7064
  378SOL    HW1 1510   0.986   2.735   1.608  0.6725 -0.8635  0.2775
  378SOL    HW2 1511   0.985   2.862   1.553 -0.4806 -1.9109 -1.0137
  378SOL     MW 1512   1.029   2.807   1.600  0.2166 -0.1547  0.4228
  379SOL     OW 1513   1.128   1.777   2.281  0.2904  0.1201 -0.6782
  379SOL    HW1 1514   1.035   1.785   2.294  0.2391  0.4863 -0.2933
  379SOL    HW2 1515   1.148   1.690   2.249 -0.2476 -0.0366  2.9286
  379SOL     MW 1516   1.118   1.767   2.278  0.2127  0.1477 -0.1516
  380SOL     OW 1517   0.809   0.071   1.566 -0.1793  0.0280  0.0691
  380SOL    HW1 1518   0.836   0.037   1.481  0.3328 -0.4553 -2.5670
  380SOL    HW2 1519   0.892   0.086   1.610 -1.1744  0.0692 -0.0472
  380SOL     MW 1520   0.823   0.069   1.560 -0.2430 -0.0303 -0.2941
  381SOL     OW 1521   0.804   1.992   0.784  0.2532 -0.3082  0.3139
  381SOL    HW1 1522   0.897   1.970   0.797  1.2683 -1.3915  1.8482
  381SOL    HW2 1523   0.787   2.067   0.843 -0.1048  0.7927 -1.4500
  381SOL     MW 1524   0.814   1.999   0.793  0.3399 -0.3059  0.2836
  382SOL     OW 1525   0.636   0.103   0.696 -0.4683  0.3407  0.0154
  382SOL    HW1 1526   0.641   0.085   0.786 -0.6824 -0.1269 -2.3436
  382SOL    HW2 1527   0.602   0.021   0.650 -1.5301  0.6043 -1.1133
  382SOL     MW 1528   0.632   0.090   0.702 -0.6366  0.3138 -0.4448
  383SOL     OW 1529   0.559   3.084   0.348  0.3891 -0.1278 -0.2458
  383SOL    HW1 1530   0.574   3.017   0.280  1.1283 -1.3960 -1.3614
  383SOL    HW2 1531   0.495   3.039   0.400  2.3057 -1.3948 -2.0436
  383SOL     MW 1532   0.552   3.069   0.346  0.7395 -0.4623 -0.6302
  384SOL     OW 1533   0.643   2.942   0.626  0.1275 -0.1474  0.2854
  384SOL    HW1 1534   0.713   2.913   0.676 -1.3472 -0.8113 -0.8344
  384SOL    HW2 1535   0.568   2.889   0.647  1.3485  2.3242  0.0384
  384SOL     MW 1536   0.642   2.931   0.635  0.0940  0.0911  0.1051
  385SOL     OW 1537   1.315   2.062   1.493 -0.3894 -0.2829  0.3076
  385SOL    HW1 1538   1.377   2.087   1.560 -0.5264 -2.2007  0.9115
  385SOL    HW2 1539   1.261   1.989   1.526  0.7367  1.6534  1.9596
  385SOL     MW 1540   1.316   2.055   1.506 -0.2589 -0.2805  0.6052
  386SOL     OW 1541   1.313   0.348   0.830 -0.1315 -0.3607 -0.4047
  386SOL    HW1 1542   1.269   0.336   0.748  0.3509  0.0160  3.1408
  386SOL    HW2 1543   1.246   0.320   0.892  1.7539 -3.4491  0.6439
  386SOL     MW 1544   1.298   0.343   0.827  0.1809 -0.7185  0.2014
  387SOL     OW 1545   0.877   2.157   1.473  0.3135 -0.2916 -0.1143
  387SOL    HW1 1546   0.956   2.188   1.427  1.9925 -0.8122  1.1792
  387SOL    HW2 1547   0.849   2.075   1.425  1.9034 -0.5903 -0.5497
  387SOL     MW 1548   0.884   2.150   1.461  0.7448 -0.3997 -0.0010
  388SOL     OW 1549   1.542   2.785   1.202  0.6482  0.7609  0.2036
  388SOL    HW1 1550   1.458   2.755   1.161  1.7303  0.5489 -3.4307
  388SOL    HW2 1551   1.603   2.721   1.170 -0.7585  0.9027  0.3483
  388SOL     MW 1552   1.539   2.773   1.192  0.6054  0.7517 -0.2568
  389SOL     OW 1553   0.398   0.012   3.039  0.1841  0.3029  0.3861
  389SOL    HW1 1554   0.491   0.019   3.051 -0.3574  4.5929  0.1705
  389SOL    HW2 1555   0.374   0.070   2.960 -0.4187  0.6623 -0.5547
  389SOL     MW 1556   0.407   0.021   3.030  0.0331  0.9163  0.2335
  390SOL     OW 1557   1.297   0.098   0.649  0.2369 -0.0640 -0.0287
  390SOL    HW1 1558   1.392   0.102   0.621 -1.7979 -1.1540  0.2505
  390SOL    HW2 1559   1.315   0.094   0.745  1.7960  1.9085  0.4531
  390SOL     MW 1560   1.312   0.098   0.658  0.1741  0.0524  0.0717
  391SOL     OW 1561   0.289   2.221   1.366  0.5402  0.2758 -0.5044
  391SOL    HW1 1562   0.259   2.157   1.432  0.3380 -1.8475  3.6431
  391SOL    HW2 1563   0.223   2.297   1.379 -0.6316  0.4299 -0.4124
  391SOL     MW 1564   0.276   2.223   1.376  0.3589  0.0160  0.0549
  392SOL     OW 1565   2.055   2.157   0.383 -0.9000  0.7087  0.2482
  392SOL    HW1 1566   2.129   2.121   0.435  2.7425  2.2629 -1.9647
  392SOL    HW2 1567   2.012   2.236   0.426  0.7944  1.9270 -2.6368
  392SOL     MW 1568   2.059   2.162   0.395 -0.1959  1.0745 -0.4244
  393SOL     OW 1569   0.171   3.015   2.730 -0.4881  0.0204  0.8536
  393SOL    HW1 1570   0.261   3.040   2.734  1.4385  0.3776 -2.6583
  393SOL    HW2 1571   0.111   3.088   2.730 -1.1192  0.6963  0.9826
  393SOL     MW 1572   0.175   3.028   2.730 -0.3171  0.1567  0.4073
  394SOL     OW 1573   0.904   1.753   1.522  0.2213  0.5489 -0.0379
  394SOL    HW1 1574   0.833   1.751   1.587 -2.3507  0.4668  0.4739
  394SOL    HW2 1575   0.869   1.820   1.460  0.0911  1.7862  0.9681
  394SOL     MW 1576   0.890   1.762   1.523 -0.1352  0.7013  0.1624
  395SOL     OW 1577   1.025   2.799   2.615  0.5926  0.0095 -0.4810
  395SOL    HW1 1578   1.078   2.880   2.627 -0.7164 -1.5433 -0.0590
  395SOL    HW2 1579   1.091   2.733   2.591 -0.9680  2.0276 -2.2414
  395SOL     MW 1580   1.041   2.801   2.613  0.2140  0.0709 -0.6576
  396SOL     OW 1581   0.826   1.883   2.395 -0.1107 -0.1330  0.3192
  396SOL    HW1 1582   0.889   1.897   2.470  0.3094 -2.6692  1.2798
  396SOL    HW2 1583   0.796   1.791   2.395  0.8201  1.1708  3.6531
  396SOL     MW 1584   0.830   1.873   2.405  0.0675 -0.2956  0.8858
  397SOL     OW 1585   1.042   2.340   1.266 -0.2994 -0.2651 -0.2055
  397SOL    HW1 1586   1.086   2.387   1.188 -0.6088  3.3662 -0.7702
  397SOL    HW2 1587   1.111   2.325   1.334 -0.9569 -1.3928  0.6132
  397SOL     MW 1588   1.057   2.345   1.265 -0.4270  0.0652 -0.1720
  398SOL     OW 1589   0.561   2.683   0.765 -0.5941  0.3354  0.0764
  398SOL    HW1 1590   0.496   2.619   0.777  0.6805  2.3316 -1.6288
  398SOL    HW2 1591   0.635   2.645   0.713  1.5319  0.6545 -0.3175
  398SOL     MW 1592   0.562   2.670   0.760 -0.1454  0.6409 -0.2006
  399SOL     OW 1593   0.246   2.102   0.404 -0.8308  0.0261 -0.2609
  399SOL    HW1 1594   0.181   2.173   0.410  0.3533 -0.7029 -2.0976
  399SOL    HW2 1595   0.303   2.121   0.326  1.5989 -0.0599 -1.8493
  399SOL     MW 1596   0.245   2.114   0.395 -0.3540 -0.0814 -0.7128
  400SOL     OW 1597   0.540   1.863   0.168 -0.2077  0.4854 -0.4141
  400SOL    HW1 1598   0.555   1.941   0.214 -2.2495 -1.3509  0.4319
  400SOL    HW2 1599   0.510   1.811   0.239 -3.0377  3.0275  0.5575
  400SOL     MW 1600   0.538   1.866   0.183 -0.8505  0.5785 -0.1743
  401SOL     OW 1601   0.876   2.054   0.136 -0.7064 -0.1838 -0.0211
  401SOL    HW1 1602   0.870   1.959   0.147 -0.4019  1.2262  0.3062
  401SOL    HW2 1603   0.870   2.091   0.218 -2.9938 -1.7214 -3.3291
  401SOL     MW 1604   0.875   2.046   0.148 -0.9680 -0.2007 -0.4144
  402SOL     OW 1605   0.656   2.961   1.695 -0.3733  0.4131  0.5884
  402SOL    HW1 1606   0.715   2.941   1.771  0.7054 -1.6167  1.0317
  402SOL    HW2 1607   0.692   3.044   1.648  0.2288  2.9368  1.4361
  402SOL     MW 1608   0.669   2.969   1.699 -0.1515  0.4782  0.7587
  403SOL     OW 1609   0.096   0.407   0.404  0.1269  0.3969 -0.1733
  403SOL    HW1 1610   0.171   0.440   0.449 -0.2116 -2.0292 -2.2312
  403SOL    HW2 1611   0.134   0.391   0.315  0.3807  1.8477 -1.5845
  403SOL     MW 1612   0.111   0.409   0.398  0.1157  0.2682 -0.6310
  404SOL     OW 1613   0.874   2.840   0.760 -0.4517  0.1952 -0.6605
  404SOL    HW1 1614   0.930   2.788   0.708 -2.4950  0.7771  0.1796
  404SOL    HW2 1615   0.882   2.930   0.723 -0.2860  0.0847 -1.0957
  404SOL     MW 1616   0.882   2.845   0.748 -0.6994  0.2574 -0.6071
  405SOL     OW 1617   0.493   2.372   1.499 -0.0408  0.1564 -0.3166
  405SOL    HW1 1618   0.471   2.460   1.464 -0.9527  0.4757 -2.1763
  405SOL    HW2 1619   0.428   2.315   1.445  2.4162 -1.1441 -0.0175
  405SOL     MW 1620   0.482   2.376   1.487  0.1630  0.0270 -0.5225
  406SOL     OW 1621   0.345   2.414   1.126  0.2982  0.1694 -0.6483
  406SOL    HW1 1622   0.250   2.422   1.126  1.2947  0.1322  1.0112
  406SOL    HW2 1623   0.363   2.319   1.104  0.2846  0.5691 -0.4862
  406SOL     MW 1624   0.335   2.402   1.123  0.4279  0.2173 -0.4080
  407SOL     OW 1625   3.092   2.713   1.153 -0.0438 -0.4576  0.7625
  407SOL    HW1 1626   3.141   2.728   1.237  0.3881 -1.4921  2.3110
  407SOL    HW2 1627   3.135   2.746   1.074 -0.0868  1.2620 -3.2133
  407SOL     MW 1628   3.104   2.720   1.153  0.0075 -0.3672  0.4422
  408SOL     OW 1629   2.081   2.066   0.779  1.0792 -0.1155  0.8151
  408SOL    HW1 1630   2.044   2.122   0.847 -0.0449  0.8673 -0.3136
  408SOL    HW2 1631   2.003   2.040   0.723  0.5577 -1.8996 -1.7000
  408SOL     MW 1632   2.066   2.070   0.781  0.8621 -0.2212  0.3343
  409SOL     OW 1633   1.382   0.099   0.910  0.4966  0.5580 -0.1815
  409SOL    HW1 1634   1.408   0.187   0.934 -1.3701  1.9903  1.7249
  409SOL    HW2 1635   1.435   0.037   0.958 -0.1678  0.2840 -0.4111
  409SOL     MW 1636   1.392   0.103   0.919  0.1626  0.7108  0.0398
  410SOL     OW 1637   1.164   2.455   1.046 -0.1781  0.6862  0.1023
  410SOL    HW1 1638   1.096   2.495   0.998  1.6479 -1.1948 -0.0732
  410SOL    HW2 1639   1.166   2.376   0.998  0.1714  0.5201 -0.7237
  410SOL     MW 1640   1.156   2.450   1.034  0.1089  0.4161 -0.0299
  411SOL     OW 1641   1.939   0.010   2.837  0.2748 -0.1030  0.1289
  411SOL    HW1 1642   1.867  -0.021   2.778 -0.8748  0.6582 -0.6862
  411SOL    HW2 1643   1.893   0.038   2.919 -1.3255  0.3933 -0.1626
  411SOL     MW 1644   1.923   0.009   2.840 -0.0880  0.0629 -0.0171
  412SOL     OW 1645   0.975   2.246   0.602  0.2666  0.0885  0.7719
  412SOL    HW1 1646   1.014   2.335   0.604 -2.5361 -0.4647 -1.4251
  412SOL    HW2 1647   0.878   2.269   0.576 -1.7383  0.3998 -0.4719
  412SOL     MW 1648   0.967   2.260   0.599 -0.3677  0.0566  0.3180
  413SOL     OW 1649   0.530   2.767   3.065 -0.0791  0.4044 -0.3543
  413SOL    HW1 1650   0.578   2.681   3.090  2.4558  0.8268  0.9474
  413SOL    HW2 1651   0.578   2.809   3.000 -1.8314 -0.1951  1.1016
  413SOL     MW 1652   0.542   2.761   3.060  0.0242  0.3810  0.0095
  414SOL     OW 1653   1.934   2.974   1.077 -0.1158 -0.6672 -0.0653
  414SOL    HW1 1654   1.874   2.957   1.001  0.6585 -0.2378  1.4997
  414SOL    HW2 1655   2.004   2.908   1.069  2.5845 -1.3092 -1.2071
  414SOL     MW 1656   1.936   2.963   1.066  0.3426 -0.6953 -0.0095
  415SOL     OW 1657   1.727   2.551   1.142 -0.4225  0.1847  0.4427
  415SOL    HW1 1658   1.663   2.489   1.188 -0.7179 -4.2854  0.5251
  415SOL    HW2 1659   1.755   2.604   1.216 -1.1445  2.0085  0.7571
  415SOL     MW 1660   1.722   2.550   1.158 -0.5567 -0.1645  0.4950
  416SOL     OW 1661   0.545   1.952   1.356  0.2695  0.1918 -0.0982
  416SOL    HW1 1662   0.495   2.000   1.290 -1.1485 -1.3019  0.1667
  416SOL    HW2 1663   0.554   1.855   1.334  1.9690 -2.0987  0.8130
  416SOL     MW 1664   0.539   1.945   1.344  0.3067 -0.3075  0.0570
  417SOL     OW 1665   0.992   3.019   2.056 -0.0647  0.2125  0.0911
  417SOL    HW1 1666   0.931   3.020   2.125  2.8477  0.4592 -4.4275
  417SOL    HW2 1667   0.947   2.970   1.984  1.4459 -0.1749  0.3058
  417SOL     MW 1668   0.978   3.013   2.056  0.5189  0.1940 -0.4767
  418SOL     OW 1669   0.651   2.943   0.142  0.2780 -0.5697 -0.3746
  418SOL    HW1 1670   0.740   2.957   0.102  1.2980  0.0185  2.4192
  418SOL    HW2 1671   0.604   2.881   0.081 -1.2174  0.4121  2.0423
  418SOL     MW 1672   0.656   2.936   0.128  0.2153 -0.3626  0.3129
  419SOL     OW 1673   0.453   2.631   1.409 -0.1031  0.5572  0.2107
  419SOL    HW1 1674   0.491   2.712   1.447  1.7737  2.6193  0.9396
  419SOL    HW2 1675   0.486   2.625   1.323  0.4547 -4.3658 -2.3259
  419SOL     MW 1676   0.462   2.641   1.403  0.2181  0.1797 -0.0278
  420SOL     OW 1677   0.879   2.196   0.984  0.4114 -0.1517  0.0821
  420SOL    HW1 1678   0.823   2.206   1.061  0.3894  0.2549 -0.0255
  420SOL    HW2 1679   0.898   2.288   0.963 -1.4225  3.4412  3.1591
  420SOL     MW 1680   0.874   2.209   0.992  0.1665  0.3760  0.4739
  421SOL     OW 1681   2.947   0.059   0.020  0.2270  0.0309 -0.2710
  421SOL    HW1 1682   2.891   0.033  -0.053 -0.6758  2.2801 -0.9450
  421SOL    HW2 1683   2.970  -0.029   0.045 -0.8923  0.3030  0.1354
  421SOL     MW 1684   2.943   0.044   0.014 -0.0398  0.3636 -0.3063
  422SOL     OW 1685   0.901   2.467   0.897 -0.0381  0.5681 -0.2686
  422SOL    HW1 1686   0.855   2.523   0.958  1.5775  1.2246  0.1345
  422SOL    HW2 1687   0.863   2.474   0.815 -1.6887  0.7128  0.5287
  422SOL     MW 1688   0.890   2.475   0.894 -0.0427  0.6738 -0.1102
  423SOL     OW 1689   1.529   0.132   0.486 -0.0311 -0.3092  0.1001
  423SOL    HW1 1690   1.519   0.092   0.399  1.6663  0.4468 -1.4981
  423SOL    HW2 1691   1.522   0.225   0.473 -1.9737  2.5752  2.0297
  423SOL     MW 1692   1.527   0.139   0.472 -0.0635  0.1711  0.1438
  424SOL     OW 1693   0.658   2.255   1.190  0.0906  0.3182 -0.1260
  424SOL    HW1 1694   0.568   2.212   1.195  1.7675 -0.1729 -2.0873
  424SOL    HW2 1695   0.685   2.266   1.279 -0.8821 -2.4431 -2.1105
  424SOL     MW 1696   0.650   2.251   1.202  0.1835 -0.1110 -0.6466
  425SOL     OW 1697   1.723   2.859   1.959 -0.0885 -0.0715  0.4881
  425SOL    HW1 1698   1.731   2.886   1.867  1.5004 -0.2566 -0.4296
  425SOL    HW2 1699   1.760   2.775   1.978  0.9587 -0.8233  0.3170
  425SOL     MW 1700   1.729   2.852   1.949  0.2593 -0.1951  0.3445
  426SOL     OW 1701   0.821   1.675   1.934  0.1927  0.0977 -0.0299
  426SOL    HW1 1702   0.799   1.714   1.845 -0.2262  0.8321 -0.7186
  426SOL    HW2 1703   0.795   1.744   2.004 -1.7001  3.4845  0.9649
  426SOL     MW 1704   0.815   1.689   1.931 -0.1123  0.6415  0.0105
  427SOL     OW 1705   0.346   1.571   1.892  0.2421  0.5185  0.1145
  427SOL    HW1 1706   0.414   1.499   1.901 -1.0082 -1.2588 -3.3224
  427SOL    HW2 1707   0.273   1.532   1.943  2.1992 -0.3178 -1.3700
  427SOL     MW 1708   0.345   1.556   1.900  0.3354  0.1737 -0.5348
  428SOL     OW 1709   0.578   2.571   1.164 -0.0049  0.2156 -0.0705
  428SOL    HW1 1710   0.647   2.543   1.223 -1.8172 -1.3563 -0.3823
  428SOL    HW2 1711   0.521   2.493   1.162  1.8434  0.0490  2.2493
  428SOL     MW 1712   0.579   2.557   1.172 -0.0001 -0.0138  0.1944
  429SOL     OW 1713   1.318   2.671   1.069 -0.0165  0.2781 -0.0129
  429SOL    HW1 1714   1.276   2.585   1.067 -1.3165 -0.7633 -0.6941
  429SOL    HW2 1715   1.283   2.734   1.002 -1.9997  2.0273  1.8207
  429SOL     MW 1716   1.308   2.668   1.060 -0.4497  0.3715  0.1392
  430SOL     OW 1717   1.184   2.731   0.698  0.0695 -0.1498  0.3127
  430SOL    HW1 1718   1.187   2.634   0.699  0.0709 -0.1817 -1.0319
  430SOL    HW2 1719   1.158   2.755   0.610 -0.1013 -0.9614 -2.6400
  430SOL     MW 1720   1.181   2.721   0.687  0.0472 -0.2611 -0.2543
  431SOL     OW 1721   0.298   1.880   1.109  0.2269 -0.4474  0.1089
  431SOL    HW1 1722   0.385   1.834   1.110 -2.2153 -0.2832 -1.6332
  431SOL    HW2 1723   0.282   1.917   1.019  0.4752  0.5230 -0.4844
  431SOL     MW 1724   0.308   1.879   1.097 -0.0626 -0.2977 -0.1993
  432SOL     OW 1725   0.046   0.045   1.086  0.3287 -0.7653 -0.2796
  432SOL    HW1 1726   0.059   0.055   1.184  2.0275  1.0506 -1.4321
  432SOL    HW2 1727  -0.039   0.005   1.084 -0.3394  0.4598 -2.1438
  432SOL     MW 1728   0.037   0.041   1.099  0.4647 -0.3640 -0.6776
  433SOL     OW 1729   0.616   2.839   1.469  0.1505 -0.6886  0.2499
  433SOL    HW1 1730   0.636   2.861   1.562 -0.2798 -0.1276  1.3574
  433SOL    HW2 1731   0.705   2.857   1.430  0.0800 -0.0386 -0.5794
  433SOL     MW 1732   0.630   2.844   1.476  0.0844 -0.5288  0.2866
  434SOL     OW 1733   1.580   2.841   1.467 -0.0748 -0.8003  0.3705
  434SOL    HW1 1734   1.483   2.864   1.477  0.7606 -1.6421  0.1128
  434SOL    HW2 1735   1.577   2.817   1.374  0.5987  2.5697 -1.9671
  434SOL     MW 1736   1.566   2.841   1.456  0.1243 -0.4667  0.0281
  435SOL     OW 1737   2.820   1.824   0.188 -0.3256 -0.6228  0.4153
  435SOL    HW1 1738   2.860   1.906   0.161 -3.6062  2.7945  1.0292
  435SOL    HW2 1739   2.817   1.772   0.107  1.6267  1.3878  0.3139
  435SOL     MW 1740   2.825   1.828   0.174 -0.5009  0.0933  0.4830
  436SOL     OW 1741   1.292   2.803   0.317  0.2874  0.5042  0.4372
  436SOL    HW1 1742   1.347   2.770   0.386  0.4666  2.1261 -0.6900
  436SOL    HW2 1743   1.272   2.887   0.351  1.4251 -1.5108 -2.0664
  436SOL     MW 1744   1.296   2.810   0.331  0.4611  0.4523 -0.0418
  437SOL     OW 1745   0.896   2.874   1.394 -0.1780 -0.1631  0.6016
  437SOL    HW1 1746   0.907   2.944   1.329 -0.7947  0.1926  0.7625
  437SOL    HW2 1747   0.900   2.793   1.342  0.4791  0.9516 -0.0092
  437SOL     MW 1748   0.898   2.873   1.378 -0.1727  0.0309  0.5423
  438SOL     OW 1749   0.868   2.609   1.940 -0.3053  0.2820  0.2469
  438SOL    HW1 1750   0.830   2.580   2.019 -1.8275  3.3312 -3.0195
  438SOL    HW2 1751   0.802   2.565   1.886  0.2870  0.7578  0.0905
  438SOL     MW 1752   0.854   2.600   1.943 -0.4280  0.7471 -0.2047
  439SOL     OW 1753   1.074   2.139   0.383  0.2104  0.2721  0.2244
  439SOL    HW1 1754   1.033   2.167   0.465 -2.4149  1.7660  1.2269
  439SOL    HW2 1755   1.117   2.214   0.342 -0.4989 -0.9202  0.8669
  439SOL     MW 1756   1.074   2.153   0.388 -0.2296  0.3119  0.4414
  440SOL     OW 1757   1.680   2.969   3.074  0.0900  0.9465  0.0928
  440SOL    HW1 1758   1.612   2.973   3.136 -0.9069  0.1451  0.0908
  440SOL    HW2 1759   1.738   2.897   3.102  1.9878 -1.4641  2.7032
  440SOL     MW 1760   1.678   2.960   3.086  0.2088  0.5227  0.4369
  441SOL     OW 1761   0.362   2.650   0.495 -0.0128 -0.2462 -0.3626
  441SOL    HW1 1762   0.310   2.642   0.420  0.5908  1.3185  1.3559
  441SOL    HW2 1763   0.369   2.749   0.508  1.7781  3.4046 -0.8745
  441SOL     MW 1764   0.356   2.662   0.487  0.3031  0.4419 -0.2034
  442SOL     OW 1765   3.067   2.347   0.627  0.2605  0.2933  0.3224
  442SOL    HW1 1766   3.100   2.436   0.615 -0.4359 -2.5804 -0.1319
  442SOL    HW2 1767   2.976   2.358   0.656  2.8387  0.1356  1.1666
  442SOL     MW 1768   3.059   2.361   0.629  0.5088 -0.1067  0.3738
  443SOL     OW 1769   1.421   1.776   1.924 -0.0218  0.6879  0.7420
  443SOL    HW1 1770   1.375   1.830   1.864  1.0169 -1.1119  2.1703
  443SOL    HW2 1771   1.349   1.709   1.938 -0.7945  1.9530  0.2441
  443SOL     MW 1772   1.405   1.774   1.918  0.0133  0.6174  0.8647
  444SOL     OW 1773   0.915   2.569   1.583 -0.5901  0.1666 -0.1095
  444SOL    HW1 1774   0.989   2.522   1.624 -1.2861 -2.0453 -0.2128
  444SOL    HW2 1775   0.844   2.572   1.646  0.6419 -2.5912 -0.8807
  444SOL     MW 1776   0.915   2.563   1.597 -0.5194 -0.4891 -0.2248
  445SOL     OW 1777   0.921   0.027   1.260 -0.2997 -0.5639  0.2783
  445SOL    HW1 1778   0.895   0.122   1.263 -0.1938  0.1982  2.0280
  445SOL    HW2 1779   0.998   0.039   1.209 -2.3760 -2.4746 -2.2586
  445SOL     MW 1780   0.928   0.041   1.253 -0.5597 -0.7154  0.1744
  446SOL     OW 1781   2.678   2.847   1.077 -0.3402  0.1355 -0.2453
  446SOL    HW1 1782   2.651   2.900   0.998  1.2433  0.3085  0.2387
  446SOL    HW2 1783   2.711   2.765   1.037  0.9894  0.7470  0.0089
  446SOL     MW 1784   2.679   2.843   1.061  0.0441  0.2390 -0.1479
  447SOL     OW 1785   3.094   2.057   1.681  0.3047 -0.1903  0.0915
  447SOL    HW1 1786   3.163   2.012   1.734  1.2567 -0.5812 -0.6131
  447SOL    HW2 1787   3.040   1.990   1.627  2.5948 -2.9104  1.8418
  447SOL     MW 1788   3.096   2.042   1.681  0.7325 -0.6008  0.2295
  448SOL     OW 1789   1.741   2.372   1.709  0.6351  0.2510  0.1474
  448SOL    HW1 1790   1.663   2.315   1.707  2.1070  1.3740  2.2326
  448SOL    HW2 1791   1.714   2.458   1.682 -2.4898  1.6532  1.2496
  448SOL     MW 1792   1.727   2.376   1.706  0.4170  0.5842  0.5679
  449SOL     OW 1793   0.759   2.853   0.408 -0.0168 -0.1189 -0.0955
  449SOL    HW1 1794   0.696   2.858   0.336 -1.3388 -2.1282  2.2704
  449SOL    HW2 1795   0.700   2.859   0.483 -2.1485 -0.1005  1.0141
  449SOL     MW 1796   0.743   2.854   0.409 -0.4725 -0.3815  0.3630
  450SOL     OW 1797   1.195   2.438   0.673  0.1006 -0.0721 -0.1916
  450SOL    HW1 1798   1.196   2.369   0.742  1.3463 -2.0324 -0.5764
  450SOL    HW2 1799   1.283   2.453   0.640  0.4041 -2.1649  0.3990
  450SOL     MW 1800   1.207   2.431   0.678  0.3050 -0.6069 -0.1644
  451SOL     OW 1801   0.582   2.014   1.654 -1.1191 -0.5894 -0.0971
  451SOL    HW1 1802   0.639   2.089   1.683  2.1291 -1.1690  0.5149
  451SOL    HW2 1803   0.571   2.009   1.560 -1.9937 -0.8110 -0.0730
  451SOL     MW 1804   0.588   2.023   1.646 -0.8059 -0.6951 -0.0131
  452SOL     OW 1805   0.259   2.716   0.029 -0.0404  0.0724 -0.5794
  452SOL    HW1 1806   0.342   2.731  -0.014 -0.5229  1.0023 -0.3008
  452SOL    HW2 1807   0.185   2.763  -0.025 -1.8898  1.1188  2.0035
  452SOL     MW 1808   0.260   2.724   0.016 -0.3481  0.3331 -0.2019
  453SOL     OW 1809   0.362   2.983   1.706 -0.4788 -1.1308  0.1608
  453SOL    HW1 1810   0.453   2.957   1.727 -1.2752  0.8945 -0.8259
  453SOL    HW2 1811   0.360   2.986   1.608  2.2297  0.9082 -1.5390
  453SOL     MW 1812   0.374   2.980   1.696 -0.2265 -0.5946 -0.1937
  454SOL     OW 1813   0.951   2.706   1.193 -0.3539  0.2728 -0.3741
  454SOL    HW1 1814   0.892   2.637   1.234  0.1942 -0.0237 -2.1071
  454SOL    HW2 1815   0.894   2.772   1.149 -1.3717  1.8638  0.6327
  454SOL     MW 1816   0.936   2.705   1.193 -0.4159  0.4436 -0.4699
  455SOL     OW 1817   1.539   2.919   0.191  0.2300 -0.2638  0.5169
  455SOL    HW1 1818   1.603   2.902   0.254 -0.6593  0.2682 -0.1058
  455SOL    HW2 1819   1.507   2.833   0.169  0.8472 -1.3756  0.2637
  455SOL     MW 1820   1.543   2.905   0.197  0.1941 -0.3403  0.4013
  456SOL     OW 1821   2.889   0.331   1.337 -0.0630 -0.4516  0.6437
  456SOL    HW1 1822   2.827   0.269   1.283 -0.6454 -1.5976 -0.1780
  456SOL    HW2 1823   2.969   0.357   1.290 -1.4764 -0.9875  0.5017
  456SOL     MW 1824   2.891   0.326   1.323 -0.3264 -0.6735  0.5166
  457SOL     OW 1825   0.958   1.548   2.951  0.3634 -0.0202 -1.0577
  457SOL    HW1 1826   0.888   1.562   3.014  2.3136 -0.8737 -1.0186
  457SOL    HW2 1827   1.023   1.503   3.006 -0.7280 -1.6379  2.2986
  457SOL     MW 1828   0.958   1.544   2.967  0.4767 -0.3462 -0.6097
  458SOL     OW 1829   1.471   1.394   0.559  0.3874 -0.0235  0.1002
  458SOL    HW1 1830   1.405   1.435   0.613  0.7984 -0.1179  1.3186
  458SOL    HW2 1831   1.428   1.357   0.483  0.4366  1.0356  2.5261
  458SOL     MW 1832   1.456   1.394   0.556  0.4481  0.1038  0.5810
  459SOL     OW 1833   1.493   0.112   0.220 -0.5856  0.1245 -0.1846
  459SOL    HW1 1834   1.470   0.017   0.198  1.3345 -2.6631  1.3018
  459SOL    HW2 1835   1.430   0.165   0.171 -0.5647 -0.3133  0.4696
  459SOL     MW 1836   1.482   0.106   0.210 -0.3295 -0.3010  0.0978
  460SOL     OW 1837   1.796   2.168   0.667 -0.5821 -0.2023 -0.4084
  460SOL    HW1 1838   1.701   2.162   0.694 -0.1815 -2.2211 -1.3097
  460SOL    HW2 1839   1.810   2.087   0.612  0.3975 -0.0513  0.3865
  460SOL     MW 1840   1.785   2.157   0.663 -0.4000 -0.4487 -0.4224
  461SOL     OW 1841   0.492   2.423   0.616 -0.9199  0.5701  0.1560
  461SOL    HW1 1842   0.457   2.502   0.574 -0.0980  1.1511  0.4999
  461SOL    HW2 1843   0.452   2.428   0.703  1.4400  0.5533  2.1400
  461SOL     MW 1844   0.482   2.434   0.622 -0.5001  0.6445  0.4631
  462SOL     OW 1845   0.367   0.223   1.254  0.1686  0.3027 -0.2394
  462SOL    HW1 1846   0.424   0.168   1.190  2.6889  0.8937  1.7900
  462SOL    HW2 1847   0.420   0.288   1.305  2.8748  3.5901  1.3243
  462SOL     MW 1848   0.381   0.224   1.252  0.8582  0.8144  0.2347
  463SOL     OW 1849   0.889  -0.001   0.681 -0.4474  0.0802 -0.1056
  463SOL    HW1 1850   0.913  -0.018   0.584  1.0343 -2.4037  0.6142
  463SOL    HW2 1851   0.795   0.030   0.682  0.1943 -1.3093  0.0289
  463SOL     MW 1852   0.880   0.001   0.668 -0.1672 -0.4309  0.0071
  464SOL     OW 1853   0.811   3.029   2.263  0.4271  0.1972 -0.1417
  464SOL    HW1 1854   0.759   2.949   2.269  1.4428 -1.7313  1.7583
  464SOL    HW2 1855   0.829   3.053   2.349  2.7426 -0.1930 -1.0017
  464SOL     MW 1856   0.807   3.022   2.275  0.8667 -0.1087 -0.0045
  465SOL     OW 1857   0.662   0.329   0.483  0.0939 -0.2288  0.1026
  465SOL    HW1 1858   0.628   0.294   0.568  1.1709 -0.5222  0.5109
  465SOL    HW2 1859   0.660   0.260   0.411 -1.9067 -1.7889  1.0767
  465SOL     MW 1860   0.658   0.316   0.485 -0.0280 -0.4734  0.2850
  466SOL     OW 1861   1.086   2.021   0.723 -0.0469  0.0308 -0.5412
  466SOL    HW1 1862   1.088   1.959   0.654 -0.1655  1.5203  0.7581
  466SOL    HW2 1863   1.051   2.107   0.693 -1.3027 -1.1154  0.7826
  466SOL     MW 1864   1.082   2.024   0.710 -0.2282  0.0761 -0.1951
  467SOL     OW 1865   1.282   2.261   0.879  0.1248 -0.0047 -0.4007
  467SOL    HW1 1866   1.373   2.291   0.895 -1.7133 -0.9772 -2.6651
  467SOL    HW2 1867   1.283   2.167   0.868  1.2992  0.0503 -0.9576
  467SOL     MW 1868   1.294   2.253   0.880  0.0372 -0.1257 -0.7729
  468SOL     OW 1869   0.362   2.584   1.980  0.1668  0.4074 -0.1662
  468SOL    HW1 1870   0.377   2.531   1.902  0.9432 -2.8422  1.0864
  468SOL    HW2 1871   0.351   2.672   1.940 -0.8084  1.4984 -0.5552
  468SOL     MW 1872   0.363   2.589   1.964  0.1406  0.1226 -0.0522
  469SOL     OW 1873   0.366   2.141   1.777  0.2273  0.3968  0.2567
  469SOL    HW1 1874   0.307   2.084   1.824 -1.8446 -0.4944 -0.7220
  469SOL    HW2 1875   0.436   2.084   1.736 -0.9166 -0.2786 -0.4354
  469SOL     MW 1876   0.367   2.126   1.778 -0.1970  0.1901  0.0362
  470SOL     OW 1877   3.026   2.552   0.097 -0.1780 -0.3943  0.3047
  470SOL    HW1 1878   2.953   2.511   0.149 -0.1264 -3.8807  1.1892
  470SOL    HW2 1879   2.998   2.577   0.010  0.1385 -0.5490 -0.4603
  470SOL     MW 1880   3.013   2.550   0.092 -0.1295 -0.8747  0.3205
  471SOL     OW 1881   1.230   2.738   1.417 -0.4680 -0.0601 -0.1953
  471SOL    HW1 1882   1.168   2.732   1.492 -0.6409 -3.0823  0.6395
  471SOL    HW2 1883   1.169   2.765   1.347 -1.4457 -1.2452  1.7214
  471SOL     MW 1884   1.214   2.741   1.418 -0.6198 -0.6152  0.1677
  472SOL     OW 1885   2.916   2.062   0.402  0.7736  0.2715 -0.0559
  472SOL    HW1 1886   2.950   2.049   0.315 -0.8009  2.9474  1.0757
  472SOL    HW2 1887   2.926   1.974   0.437 -0.7596 -0.5898 -0.1661
  472SOL     MW 1888   2.922   2.048   0.396  0.3636  0.5109  0.0789
  473SOL     OW 1889   0.837   2.524   1.326  0.5736  0.3578 -0.4962
  473SOL    HW1 1890   0.898   2.458   1.293  0.1608  3.5211  1.1878
  473SOL    HW2 1891   0.859   2.523   1.415 -1.6735 -1.3304  0.7749
  473SOL     MW 1892   0.848   2.515   1.333  0.2226  0.5524 -0.1063
  474SOL     OW 1893   0.767   2.250   1.708 -0.1586 -0.7428  0.5243
  474SOL    HW1 1894   0.853   2.273   1.747  1.5303 -0.1944 -0.3206
  474SOL    HW2 1895   0.782   2.224   1.610 -0.9660  0.1425  2.3661
  474SOL     MW 1896   0.780   2.250   1.700 -0.0423 -0.5536  0.6558
  475SOL     OW 1897   1.625   0.036   1.461 -0.2509  0.2009 -0.9529
  475SOL    HW1 1898   1.544   0.064   1.420  2.2378  0.3901 -0.3479
  475SOL    HW2 1899   1.609  -0.061   1.480  1.4717 -2.3581 -0.6587
  475SOL     MW 1900   1.612   0.027   1.458  0.3048 -0.1118 -0.8343
  476SOL     OW 1901   1.490   2.610   0.869 -0.0683 -0.3122  0.5288
  476SOL    HW1 1902   1.426   2.624   0.939  0.4670  1.6184 -0.2012
  476SOL    HW2 1903   1.519   2.691   0.831 -3.0824  1.3151 -0.3376
  476SOL     MW 1904   1.485   2.622   0.873 -0.3954  0.1573  0.3182
  477SOL     OW 1905   0.785   2.557   0.649 -0.0264  0.4064 -0.4333
  477SOL    HW1 1906   0.855   2.613   0.611 -0.5797  1.7472 -0.6782
  477SOL    HW2 1907   0.752   2.495   0.585 -1.1737  0.3984  2.2085
  477SOL     MW 1908   0.790   2.556   0.636 -0.2508  0.5822 -0.1171
  478SOL     OW 1909   0.140   2.678   0.904 -0.3904  0.3490  0.0482
  478SOL    HW1 1910   0.200   2.746   0.924  1.4471 -3.0070  0.6187
  478SOL    HW2 1911   0.194   2.624   0.849  0.4132 -4.9467 -1.2392
  478SOL     MW 1912   0.155   2.680   0.899 -0.0419 -0.7925 -0.0464
  479SOL     OW 1913   1.422   1.939   1.270  0.0397 -0.1522  0.0989
  479SOL    HW1 1914   1.390   1.977   1.351 -0.4648 -2.6741 -0.6807
  479SOL    HW2 1915   1.511   1.914   1.285  1.1373 -1.5612  0.0938
  479SOL     MW 1916   1.430   1.940   1.282  0.1180 -0.6708 -0.0046
  480SOL     OW 1917   1.845   2.397   1.380  0.5903 -0.3244  0.3046
  480SOL    HW1 1918   1.875   2.326   1.434  0.1053 -3.0123 -1.8109
  480SOL    HW2 1919   1.901   2.401   1.307  0.9322  2.9200  0.9547
  480SOL     MW 1920   1.856   2.388   1.378  0.5714 -0.2510  0.1112
  481SOL     OW 1921   1.194   0.051   1.152  0.3005 -0.6814  0.3421
  481SOL    HW1 1922   1.221   0.034   1.062  0.9345 -0.8922 -0.7066
  481SOL    HW2 1923   1.203   0.149   1.139 -0.8354  0.8554 -1.8829
  481SOL     MW 1924   1.199   0.061   1.139  0.2343 -0.5065 -0.0898
  482SOL     OW 1925   0.923   3.084   0.424  0.2370 -0.2355  0.1636
  482SOL    HW1 1926   0.839   3.049   0.401 -0.1590 -1.5117  2.6193
  482SOL    HW2 1927   0.925   3.179   0.403 -2.4818  0.0749 -1.3973
  482SOL     MW 1928   0.912   3.092   0.418 -0.1740 -0.3629  0.2816
  483SOL     OW 1929   0.352   2.929   0.509 -0.6567 -0.0005 -0.1724
  483SOL    HW1 1930   0.274   2.933   0.458  0.3761 -0.1026 -0.2465
  483SOL    HW2 1931   0.328   2.989   0.580 -1.7366  1.8655  0.5466
  483SOL     MW 1932   0.339   2.937   0.512 -0.6629  0.2323 -0.0873
  484SOL     OW 1933   1.677   1.859   1.363  0.0057  0.0277 -0.0113
  484SOL    HW1 1934   1.738   1.932   1.379  2.0044 -0.2044  1.3041
  484SOL    HW2 1935   1.637   1.835   1.447 -3.5203 -0.4193 -1.6449
  484SOL     MW 1936   1.680   1.865   1.376 -0.1958 -0.0619 -0.0533
  485SOL     OW 1937   0.530   2.388   0.287  0.2650 -0.3396  0.0315
  485SOL    HW1 1938   0.564   2.406   0.383 -1.4654  0.6104 -0.8090
  485SOL    HW2 1939   0.453   2.442   0.258  0.9539 -4.7637 -0.9677
  485SOL     MW 1940   0.525   2.397   0.296  0.1276 -0.7979 -0.2112
  486SOL     OW 1941   0.115   2.445   1.390 -0.0483 -0.1706 -0.0979
  486SOL    HW1 1942   0.142   2.525   1.344  2.5071 -2.6550  0.7203
  486SOL    HW2 1943   0.108   2.470   1.484  1.2623  0.4486  2.3399
  486SOL     MW 1944   0.118   2.458   1.396  0.4618 -0.4167  0.3317
  487SOL     OW 1945   1.275   1.599   1.096 -0.2067 -0.4457  0.3267
  487SOL    HW1 1946   1.258   1.695   1.082  0.5779  1.4381 -1.7084
  487SOL    HW2 1947   1.348   1.581   1.028  0.7692 -2.5412 -2.5721
  487SOL     MW 1948   1.283   1.609   1.085  0.0256 -0.4736 -0.3243
  488SOL     OW 1949   1.623   1.851   0.563  0.3238 -0.1537 -0.3631
  488SOL    HW1 1950   1.707   1.872   0.524 -0.2326  0.0136  0.8331
  488SOL    HW2 1951   1.555   1.882   0.506  0.5832  2.3962  0.0597
  488SOL     MW 1952   1.625   1.858   0.551  0.2847  0.2048 -0.1495
  489SOL     OW 1953   0.738   0.773   0.550 -0.4208 -0.1993  0.0035
  489SOL    HW1 1954   0.778   0.696   0.501  0.2141 -0.0343  2.5422
  489SOL    HW2 1955   0.731   0.754   0.645 -0.8091  0.6400 -0.0876
  489SOL     MW 1956   0.743   0.760   0.556 -0.3883 -0.0668  0.3264
  490SOL     OW 1957   1.411   2.109   0.479 -0.2750 -0.1065  0.4150
  490SOL    HW1 1958   1.449   2.189   0.431  1.2746 -0.7577 -0.5407
  490SOL    HW2 1959   1.321   2.125   0.473  0.6924 -0.4066  0.5397
  490SOL     MW 1960   1.404   2.122   0.472  0.0571 -0.2320  0.3053
  491SOL     OW 1961   1.200   3.024   0.478  0.0455  0.1553  0.2096
  491SOL    HW1 1962   1.254   3.080   0.535  0.1956  1.7138 -0.3228
  491SOL    HW2 1963   1.104   3.044   0.482 -2.1790 -3.2995 -0.1593
  491SOL     MW 1964   1.194   3.034   0.486 -0.2282 -0.0949  0.0907
  492SOL     OW 1965   1.526   2.158   0.702  0.0747  0.3047 -0.5675
  492SOL    HW1 1966   1.482   2.130   0.618  0.4061  3.3820 -1.1736
  492SOL    HW2 1967   1.470   2.105   0.766  0.2111  2.4184  2.6357
  492SOL     MW 1968   1.513   2.147   0.700  0.1365  0.9896 -0.2248
  493SOL     OW 1969   0.118   2.900   0.376 -0.2604 -0.1990  0.1161
  493SOL    HW1 1970   0.065   2.949   0.435  0.5221 -0.7856 -0.9055
  493SOL    HW2 1971   0.134   2.958   0.300 -0.8455 -0.9777  0.7450
  493SOL     MW 1972   0.113   2.914   0.374 -0.2344 -0.3791  0.0643
  494SOL     OW 1973   0.405   2.413   1.769 -0.1516 -0.1964 -0.1919
  494SOL    HW1 1974   0.371   2.318   1.792 -0.7240  1.0543 -0.6421
  494SOL    HW2 1975   0.438   2.388   1.679  0.7860 -2.1122 -0.7818
  494SOL     MW 1976   0.405   2.397   1.760 -0.1034 -0.2842 -0.3291
  495SOL     OW 1977   2.867   1.670   2.721 -0.0844  0.3431 -0.1900
  495SOL    HW1 1978   2.882   1.750   2.782 -2.3323  1.8111  0.4073
  495SOL    HW2 1979   2.897   1.604   2.790  1.1556  2.5869  1.7240
  495SOL     MW 1980   2.873   1.672   2.739 -0.2174  0.8328  0.1413
  496SOL     OW 1981   2.858   2.317   2.634  0.4515 -0.3613 -0.1516
  496SOL    HW1 1982   2.855   2.222   2.629 -2.9383  0.8066  0.2458
  496SOL    HW2 1983   2.945   2.346   2.656  0.0030 -0.2493  1.6444
  496SOL     MW 1984   2.869   2.308   2.636 -0.0550 -0.1924  0.1378
  497SOL     OW 1985   1.532   2.295   2.571  0.2129 -0.6230  0.8521
  497SOL    HW1 1986   1.490   2.261   2.493  0.1723 -0.2507 -0.1392
  497SOL    HW2 1987   1.504   2.237   2.637 -2.2052 -1.9799 -0.0070
  497SOL     MW 1988   1.523   2.283   2.570 -0.1115 -0.7529  0.6080
  498SOL     OW 1989   1.546   2.700   2.282 -0.1818 -0.6378  0.7271
  498SOL    HW1 1990   1.552   2.609   2.268 -2.9357 -0.4781 -0.1805
  498SOL    HW2 1991   1.615   2.713   2.343 -0.5381  3.4714 -0.6012
  498SOL     MW 1992   1.556   2.690   2.288 -0.5922 -0.0745  0.4321
  499SOL     OW 1993   0.904   0.175   0.011 -0.4764 -0.2711  0.4125
  499SOL    HW1 1994   0.842   0.192   0.082 -2.2527 -0.1902  0.5137
  499SOL    HW2 1995   0.905   0.078   0.007  1.9322  4.5785  0.0240
  499SOL     MW 1996   0.896   0.164   0.020 -0.3930  0.3794  0.3746
  500SOL     OW 1997   1.014   2.424   2.803  0.3350 -0.4649 -0.0580
  500SOL    HW1 1998   1.059   2.408   2.889  0.5948  1.4241  1.4288
  500SOL    HW2 1999   0.965   2.507   2.813 -1.4792 -0.2924 -0.1120
  500SOL     MW 2000   1.013   2.433   2.816  0.1299 -0.1929  0.1310
  501SOL     OW 2001   1.746   2.264   3.077  0.1048  0.1839 -0.1276
  501SOL    HW1 2002   1.720   2.343   3.128 -2.6034  0.5244 -0.3191
  501SOL    HW2 2003   1.831   2.245   3.120 -1.2283  2.7857  0.4711
  501SOL     MW 2004   1.754   2.272   3.089 -0.4284  0.5721 -0.0739
  502SOL     OW 2005   0.110   2.843   2.947  0.1364  1.2508 -0.1362
  502SOL    HW1 2006   0.041   2.772   2.930 -1.6286  1.3846  1.4571
  502SOL    HW2 2007   0.131   2.887   2.868 -0.2324 -0.7795  1.4907
  502SOL     MW 2008   0.104   2.839   2.934 -0.1451  1.0006  0.2887
  503SOL     OW 2009   1.153   2.610   2.051  0.1246 -0.4745 -0.0325
  503SOL    HW1 2010   1.224   2.636   1.995  1.3374  0.8523 -2.2799
  503SOL    HW2 2011   1.069   2.621   2.001  1.3830  3.4362 -0.7133
  503SOL     MW 2012   1.151   2.615   2.037  0.4507  0.2165 -0.4188
  504SOL     OW 2013   0.091   2.650   2.051 -0.2680 -0.1277  0.2653
  504SOL    HW1 2014   0.183   2.634   2.030  0.2190  2.9189 -0.4023
  504SOL    HW2 2015   0.063   2.569   2.096  1.0231 -2.0579 -0.6436
  504SOL     MW 2016   0.100   2.637   2.054 -0.0334  0.0196  0.0573
  505SOL     OW 2017   1.646   2.672   2.739  0.0137  0.2692  0.1912
  505SOL    HW1 2018   1.674   2.670   2.645  0.4547 -0.7789  0.8642
  505SOL    HW2 2019   1.597   2.757   2.750  0.9646  1.1197 -0.2538
  505SOL     MW 2020   1.643   2.683   2.728  0.1974  0.2431  0.2213
  506SOL     OW 2021   1.639   0.044   2.857 -0.2807  0.5288  0.1388
  506SOL    HW1 2022   1.656  -0.026   2.924 -1.3390  1.0601 -0.6216
  506SOL    HW2 2023   1.653  -0.013   2.776  1.5075 -1.5737 -1.3037
  506SOL     MW 2024   1.643   0.027   2.855 -0.1844  0.3215 -0.1519
  507SOL     OW 2025   0.924   2.690   2.855  0.1806 -0.2229 -0.3208
  507SOL    HW1 2026   0.956   2.712   2.765 -0.5339  1.0296 -0.9361
  507SOL    HW2 2027   0.831   2.672   2.845  1.0440 -0.0891  1.8374
  507SOL     MW 2028   0.916   2.691   2.842  0.2003 -0.0400 -0.1172
  508SOL     OW 2029   1.244   2.101   2.521 -0.1989  0.0838  0.1094
  508SOL    HW1 2030   1.287   2.083   2.605  1.2795 -0.2199 -0.7357
  508SOL    HW2 2031   1.192   2.184   2.545  2.5344 -1.8290 -2.7608
  508SOL     MW 2032   1.243   2.110   2.535  0.3568 -0.2086 -0.3808
  509SOL     OW 2033   0.669   2.592   2.789  0.2848 -0.1487 -0.2161
  509SOL    HW1 2034   0.670   2.559   2.703  5.8458  0.1908  3.7009
  509SOL    HW2 2035   0.589   2.643   2.801  0.0632 -5.1520  1.3932
  509SOL     MW 2036   0.659   2.594   2.779  0.9893 -0.7640  0.5130
  510SOL     OW 2037   1.571   2.601   1.634  0.1944  0.0652  0.8325
  510SOL    HW1 2038   1.576   2.670   1.565  0.7147 -1.4523 -4.2063
  510SOL    HW2 2039   1.508   2.628   1.710  1.6565  0.4972 -2.5334
  510SOL     MW 2040   1.564   2.614   1.635  0.4560 -0.0780 -0.2764
  511SOL     OW 2041   0.411   2.609   2.496  0.3734 -0.3055 -0.7324
  511SOL    HW1 2042   0.491   2.569   2.523  4.0562  1.0134  1.3612
  511SOL    HW2 2043   0.429   2.638   2.404  0.8449  0.8423  0.6404
  511SOL     MW 2044   0.424   2.607   2.487  0.9215  0.0199 -0.2751
  512SOL     OW 2045   0.990   2.029   2.877  0.0462 -0.0285 -0.3567
  512SOL    HW1 2046   0.908   2.056   2.918  0.1990 -0.6036 -0.6592
  512SOL    HW2 2047   1.004   1.952   2.930  1.2784  1.8062  0.4968
  512SOL     MW 2048   0.981   2.023   2.889  0.2290  0.1377 -0.2840
  513SOL     OW 2049   1.644   2.460   2.206 -0.6843 -0.2150  0.2823
  513SOL    HW1 2050   1.727   2.505   2.167  0.0967  0.7018 -3.0601
  513SOL    HW2 2051   1.686   2.399   2.262 -2.1764  0.7556  1.8883
  513SOL     MW 2052   1.660   2.458   2.208 -0.7781  0.0340  0.0532
  514SOL     OW 2053   0.261   2.431   2.661  0.5948  0.2617 -0.8244
  514SOL    HW1 2054   0.310   2.492   2.610 -1.2402  1.3695  1.4001
  514SOL    HW2 2055   0.305   2.403   2.741 -1.1082  2.4637 -0.6715
  514SOL     MW 2056   0.273   2.436   2.665  0.1280  0.6984 -0.5107
  515SOL     OW 2057   1.068   2.060   1.939  0.1841 -0.3196  0.3247
  515SOL    HW1 2058   1.042   2.141   1.901  1.6462 -0.4558 -2.7934
  515SOL    HW2 2059   1.151   2.073   1.983 -1.7946 -1.4069 -0.8808
  515SOL     MW 2060   1.076   2.072   1.940  0.1160 -0.4810 -0.2458
  516SOL     OW 2061   1.409   2.466   2.992  0.9434 -0.1875  0.3541
  516SOL    HW1 2062   1.423   2.463   2.897 -0.2996 -2.0405 -0.7657
  516SOL    HW2 2063   1.319   2.435   2.999  1.8061 -3.6641  1.3373
  516SOL     MW 2064   1.399   2.461   2.980  0.8933 -0.8907  0.3361
  517SOL     OW 2065   0.572   2.406   2.271 -0.3424  0.3190  0.1935
  517SOL    HW1 2066   0.498   2.454   2.300 -1.3205  0.7879  2.5471
  517SOL    HW2 2067   0.521   2.358   2.203 -2.8468  0.2247 -2.1083
  517SOL     MW 2068   0.555   2.406   2.266 -0.8019  0.3684  0.2004
  518SOL     OW 2069   1.861   0.072   0.025  0.1803  0.4191  0.1547
  518SOL    HW1 2070   1.826   0.139   0.081 -0.6396  1.3432 -1.8300
  518SOL    HW2 2071   1.807  -0.008   0.050 -1.0581 -0.8048 -0.0336
  518SOL     MW 2072   1.849   0.070   0.036 -0.0912  0.3795 -0.1320
  519SOL     OW 2073   0.698   2.507   1.735 -0.9254  0.3272  0.6986
  519SOL    HW1 2074   0.717   2.411   1.730  2.1521 -1.9897  1.0570
  519SOL    HW2 2075   0.605   2.512   1.716  0.4991 -1.2874 -1.0200
  519SOL     MW 2076   0.689   2.495   1.732 -0.3314 -0.1915  0.5192
  520SOL     OW 2077   1.187   2.203   2.932 -0.2964  0.0986  0.1111
  520SOL    HW1 2078   1.120   2.152   2.883  0.5517  1.1100 -3.0982
  520SOL    HW2 2079   1.225   2.141   2.997 -3.0303 -3.4967 -0.2699
  520SOL     MW 2080   1.183   2.188   2.934 -0.5452 -0.2424 -0.3626
  521SOL     OW 2081   1.752   2.039   2.215  0.3205 -0.0633 -0.3271
  521SOL    HW1 2082   1.768   2.020   2.123  0.0783  0.1402  2.4864
  521SOL    HW2 2083   1.731   1.951   2.245 -3.9154  0.0204 -1.7317
  521SOL     MW 2084   1.751   2.025   2.207 -0.2703 -0.0254 -0.1412
  522SOL     OW 2085   2.922   2.521   2.283 -0.0247 -0.0502  0.0804
  522SOL    HW1 2086   2.997   2.464   2.289 -1.8050  0.5484 -2.2971
  522SOL    HW2 2087   2.941   2.609   2.296  1.4156 -0.8585 -2.2252
  522SOL     MW 2088   2.934   2.525   2.286 -0.0696 -0.0779 -0.5375
  523SOL     OW 2089   0.910   1.481   2.117 -0.3755 -0.0669 -0.0707
  523SOL    HW1 2090   0.886   1.555   2.054  1.8580 -1.2641 -0.1236
  523SOL    HW2 2091   0.937   1.405   2.065  1.3937 -0.8885  0.5812
  523SOL     MW 2092   0.911   1.481   2.102  0.1526 -0.3333  0.0084
  524SOL     OW 2093   0.599   2.393   2.952 -0.1762  0.1206 -0.0152
  524SOL    HW1 2094   0.632   2.452   2.882  1.9037  0.7837 -0.3537
  524SOL    HW2 2095   0.660   2.314   2.950  1.8697 -2.3248  0.8568
  524SOL     MW 2096   0.611   2.390   2.943  0.3681 -0.1146  0.0552
  525SOL     OW 2097   0.449   2.226   2.103  0.1882 -0.0767 -0.8349
  525SOL    HW1 2098   0.431   2.150   2.159 -0.5799 -1.6384  0.4002
  525SOL    HW2 2099   0.515   2.190   2.051 -1.7179  1.6797 -1.2472
  525SOL     MW 2100   0.455   2.211   2.104 -0.1646 -0.0510 -0.7263
  526SOL     OW 2101   0.681   2.127   1.986 -0.5341 -0.1125  0.1750
  526SOL    HW1 2102   0.734   2.142   1.907  3.8359  2.2138 -1.8739
  526SOL    HW2 2103   0.743   2.151   2.046 -2.2311  1.3057 -0.8601
  526SOL     MW 2104   0.696   2.132   1.983 -0.1814  0.3815 -0.2319
  527SOL     OW 2105   1.322   1.971   2.092  0.0112  0.4763 -0.0738
  527SOL    HW1 2106   1.350   1.963   2.179 -1.6586 -0.0018 -0.6599
  527SOL    HW2 2107   1.331   1.880   2.068  1.6960 -0.9169  0.9364
  527SOL     MW 2108   1.327   1.958   2.100  0.0132  0.2294 -0.0178
  528SOL     OW 2109   0.671   2.954   2.932 -0.0606  0.7166 -0.0308
  528SOL    HW1 2110   0.669   3.051   2.932 -2.7392  2.1607 -1.6753
  528SOL    HW2 2111   0.633   2.927   2.842 -0.2343  2.0724 -1.7461
  528SOL     MW 2112   0.665   2.963   2.920 -0.4369  1.0860 -0.4741
  529SOL     OW 2113   0.976   2.298   1.855  1.3418 -0.5320 -0.5026
  529SOL    HW1 2114   1.006   2.317   1.948 -1.7545 -1.6231  2.8371
  529SOL    HW2 2115   1.022   2.362   1.798 -1.9523 -0.8407  2.3726
  529SOL     MW 2116   0.986   2.309   1.860  0.4987 -0.7167  0.3174
  530SOL     OW 2117   1.151   2.458   3.038 -0.1713 -0.3540 -0.2674
  530SOL    HW1 2118   1.073   2.498   3.089 -0.8083  2.3509 -1.4193
  530SOL    HW2 2119   1.157   2.364   3.055 -1.7743 -2.2943 -0.5264
  530SOL     MW 2120   1.142   2.451   3.047 -0.4669 -0.2531 -0.4535
  531SOL     OW 2121   0.995   1.909   2.624  0.1031 -0.0035 -0.4048
  531SOL    HW1 2122   1.001   1.969   2.696 -0.3377 -0.9957 -3.4054
  531SOL    HW2 2123   0.963   1.833   2.675 -0.0390 -1.1671 -1.1924
  531SOL     MW 2124   0.991   1.907   2.640  0.0262 -0.2879 -0.9046
  532SOL     OW 2125   1.712   0.288   2.847  0.2394  0.1663  0.0664
  532SOL    HW1 2126   1.681   0.202   2.866 -1.2429 -0.5056  0.9187
  532SOL    HW2 2127   1.803   0.291   2.900 -1.8603 -1.3199  1.6025
  532SOL     MW 2128   1.720   0.277   2.856 -0.2332 -0.1184  0.3815
  533SOL     OW 2129   1.771   2.650   2.983  0.3217  0.4944  0.0795
  533SOL    HW1 2130   1.736   2.577   3.035 -0.9876 -1.0209 -0.0068
  533SOL    HW2 2131   1.709   2.652   2.900  0.2704  2.8149 -2.8452
  533SOL     MW 2132   1.758   2.640   2.979  0.1422  0.6007 -0.3178
  534SOL     OW 2133   1.774   2.347   2.461  0.1962 -0.4571 -0.4229
  534SOL    HW1 2134   1.688   2.331   2.501 -2.0295 -0.4496 -1.0589
  534SOL    HW2 2135   1.834   2.379   2.538 -0.1205  2.0053  1.2488
  534SOL     MW 2136   1.770   2.349   2.476 -0.1393 -0.1313 -0.2862
  535SOL     OW 2137   1.832   2.330   1.946 -0.0709  0.2496 -0.0498
  535SOL    HW1 2138   1.786   2.355   1.862 -1.6031 -1.1088  0.0772
  535SOL    HW2 2139   1.925   2.359   1.944 -0.9968  3.1704 -0.4288
  535SOL     MW 2140   1.838   2.337   1.934 -0.3952  0.4557 -0.0830
  536SOL     OW 2141   0.460   1.841   2.015 -0.3739  0.1193  0.0992
  536SOL    HW1 2142   0.431   1.805   1.929  0.3188  0.0841 -0.0372
  536SOL    HW2 2143   0.540   1.888   1.990  1.3395  1.4532 -3.2698
  536SOL     MW 2144   0.467   1.843   2.000 -0.0564  0.2907 -0.3633
  537SOL     OW 2145   1.100   0.208   2.887 -0.3562 -0.1409 -0.1461
  537SOL    HW1 2146   1.038   0.187   2.962 -0.4209 -0.8395  1.9728
  537SOL    HW2 2147   1.091   0.302   2.890 -0.2823 -1.7119 -2.0761
  537SOL     MW 2148   1.091   0.218   2.898 -0.3550 -0.4404 -0.1212
  538SOL     OW 2149   1.382   0.069   2.971  0.1902 -0.2680 -0.0163
  538SOL    HW1 2150   1.318   0.124   2.924  0.4902  0.2276 -0.6021
  538SOL    HW2 2151   1.467   0.087   2.931 -0.2709  1.0624  0.3248
  538SOL     MW 2152   1.385   0.078   2.960  0.1690 -0.0271 -0.0486
  539SOL     OW 2153   0.774   2.748   2.525  0.0402 -0.3266  0.0917
  539SOL    HW1 2154   0.869   2.774   2.531  2.0026 -0.3554 -0.7412
  539SOL    HW2 2155   0.781   2.648   2.528  1.6975  0.8938  0.4945
  539SOL     MW 2156   0.788   2.738   2.526  0.5178 -0.1694  0.0350
  540SOL     OW 2157   0.329   2.298   2.895 -0.5403  0.3697  0.2216
  540SOL    HW1 2158   0.410   2.339   2.918  2.1539 -1.1958 -2.3441
  540SOL    HW2 2159   0.332   2.222   2.953  1.9927 -0.1387 -0.4006
  540SOL     MW 2160   0.340   2.294   2.905  0.1494  0.0961 -0.1990
  541SOL     OW 2161   0.151   2.902   2.187  0.0673 -0.0842  0.0449
  541SOL    HW1 2162   0.161   2.839   2.115 -1.7934 -1.2493 -0.4598
  541SOL    HW2 2163   0.222   2.885   2.253  2.1201  0.6972 -1.0772
  541SOL     MW 2164   0.162   2.891   2.186  0.0926 -0.1348 -0.1697
  542SOL     OW 2165   1.048   2.296   2.574  0.2437  0.2405  0.3776
  542SOL    HW1 2166   0.977   2.225   2.573 -2.3898 -0.4291  1.0653
  542SOL    HW2 2167   1.045   2.345   2.657  0.0524  0.9811 -0.9707
  542SOL     MW 2168   1.039   2.293   2.585 -0.1290  0.2499  0.2904
  543SOL     OW 2169   1.431   2.508   2.718 -0.1508 -0.2783  0.8805
  543SOL    HW1 2170   1.472   2.436   2.665  0.9211  0.0307 -1.4570
  543SOL    HW2 2171   1.506   2.569   2.725  2.0931 -0.0268  3.9649
  543SOL     MW 2172   1.446   2.507   2.712  0.2867 -0.2044  0.9791
  544SOL     OW 2173   0.597   0.244   2.698 -0.1604 -0.1657 -0.1637
  544SOL    HW1 2174   0.511   0.265   2.739  3.9909  0.8191 -0.7990
  544SOL    HW2 2175   0.569   0.190   2.624 -1.2535  1.7080  0.8901
  544SOL     MW 2176   0.582   0.239   2.694  0.2431  0.2115 -0.1085
  545SOL     OW 2177   1.526   2.186   2.270 -0.1123  0.5849  0.6097
  545SOL    HW1 2178   1.490   2.229   2.193  0.7222  0.1455  0.5304
  545SOL    HW2 2179   1.603   2.131   2.238 -0.1604 -2.5761 -1.0851
  545SOL     MW 2180   1.531   2.185   2.256 -0.0085  0.1099  0.3756
  546SOL     OW 2181   2.962   2.037   0.116  0.1094  0.2945  0.1882
  546SOL    HW1 2182   2.978   2.129   0.076  0.2345 -1.5566  0.6268
  546SOL    HW2 2183   3.051   2.003   0.093  2.9139  1.3455 -1.0100
  546SOL     MW 2184   2.975   2.045   0.107  0.4959  0.1889  0.0880
  547SOL     OW 2185   0.249   2.987   0.130  0.2781  0.1077 -0.6343
  547SOL    HW1 2186   0.303   3.023   0.056  5.1229 -0.4543 -3.6805
  547SOL    HW2 2187   0.248   2.894   0.108  0.3441 -0.4894 -0.3637
  547SOL     MW 2188   0.256   2.980   0.117  0.9260 -0.0452 -1.0005
  548SOL     OW 2189   0.299   2.544   0.245 -0.9495  0.0603  0.2007
  548SOL    HW1 2190   0.276   2.617   0.186  1.7927  1.4242  2.1705
  548SOL    HW2 2191   0.249   2.469   0.215  0.0198 -1.0119 -0.8467
  548SOL     MW 2192   0.290   2.544   0.233 -0.4598  0.0988  0.3224
  549SOL     OW 2193   0.781   1.885   2.122  0.3238  0.0957 -0.1076
  549SOL    HW1 2194   0.734   1.969   2.105  1.5530 -1.7932  2.0005
  549SOL    HW2 2195   0.821   1.900   2.207  0.2695  2.4571 -0.0961
  549SOL     MW 2196   0.780   1.898   2.131  0.4788  0.1580  0.1721
  550SOL     OW 2197   1.808   1.743   2.520 -0.1146 -0.1795  0.4530
  550SOL    HW1 2198   1.821   1.766   2.431 -0.1443  0.7097 -2.3076
  550SOL    HW2 2199   1.768   1.817   2.571 -0.5151  1.5104  2.0115
  550SOL     MW 2200   1.804   1.756   2.515 -0.1714  0.1608  0.2944
  551SOL     OW 2201   0.903   2.328   0.208 -0.3237 -0.3824 -0.1966
  551SOL    HW1 2202   0.996   2.356   0.223  0.6888 -1.4069  0.1876
  551SOL    HW2 2203   0.904   2.269   0.131  1.0575 -1.7217  0.4745
  551SOL     MW 2204   0.916   2.324   0.199 -0.0079 -0.6943 -0.0574
  552SOL     OW 2205   1.741   1.740   2.235  0.2422 -0.5549  0.3919
  552SOL    HW1 2206   1.662   1.700   2.268 -1.4029  0.5908  1.2526
  552SOL    HW2 2207   1.770   1.689   2.154 -0.7129 -2.7083 -3.9288
  552SOL     MW 2208   1.734   1.728   2.228 -0.1009 -0.6879 -0.0646
  553SOL     OW 2209   1.221   2.315   1.481 -0.8927 -0.1931 -0.0973
  553SOL    HW1 2210   1.256   2.225   1.496  3.0043 -0.0667 -1.5244
  553SOL    HW2 2211   1.284   2.374   1.442 -0.9474  2.9409 -0.9470
  553SOL     MW 2212   1.234   2.311   1.478 -0.3858  0.2371 -0.3977
  554SOL     OW 2213   0.567   2.878   2.680 -0.4935  0.6045  0.2243
  554SOL    HW1 2214   0.546   2.944   2.618  1.2836 -1.1928  0.5836
  554SOL    HW2 2215   0.640   2.833   2.632  0.2306 -1.0141 -1.5987
  554SOL     MW 2216   0.574   2.881   2.666 -0.1635  0.1538  0.0312
  555SOL     OW 2217   0.605   2.437   2.587 -0.0433  0.3437 -0.0095
  555SOL    HW1 2218   0.557   2.348   2.584  0.0131 -1.3495  2.5024
  555SOL    HW2 2219   0.684   2.421   2.528  3.4729 -0.4045 -2.0527
  555SOL     MW 2220   0.609   2.423   2.579  0.4281  0.0216  0.0523
  556SOL     OW 2221   0.916   1.761   0.146 -0.0737 -0.0726 -0.5861
  556SOL    HW1 2222   0.941   1.785   0.058 -0.6661 -0.0285 -0.1432
  556SOL    HW2 2223   0.995   1.788   0.192 -0.1574 -0.7417 -0.2735
  556SOL     MW 2224   0.930   1.768   0.140 -0.1629 -0.1551 -0.4864
  557SOL     OW 2225   0.971   2.705   0.492  0.1054 -0.2617 -0.4304
  557SOL    HW1 2226   0.997   2.667   0.412 -2.1486 -0.8430  1.8925
  557SOL    HW2 2227   0.900   2.763   0.472 -0.1261  0.6499  1.6267
  557SOL     MW 2228   0.965   2.708   0.479 -0.2226 -0.2181  0.1475
  558SOL     OW 2229   0.274   2.155   0.019  0.5441  0.0012 -0.3954
  558SOL    HW1 2230   0.221   2.078   0.017 -0.7786 -0.2684 -1.1473
  558SOL    HW2 2231   0.216   2.232   0.032 -0.9285 -0.2832  1.1094
  558SOL     MW 2232   0.260   2.155   0.021  0.1753 -0.0719 -0.2961
  559SOL     OW 2233   1.111   2.319   2.117 -0.2611 -0.0742  0.2219
  559SOL    HW1 2234   1.153   2.403   2.109  0.1825  1.5869  2.2044
  559SOL    HW2 2235   1.161   2.278   2.189 -1.4691  2.0782 -1.6226
  559SOL     MW 2236   1.123   2.325   2.125 -0.3619  0.4290  0.2401
  560SOL     OW 2237   1.925   2.855   0.080  0.1594 -0.2917  0.0957
  560SOL    HW1 2238   1.970   2.895   0.000  1.9401 -0.5732 -0.4071
  560SOL    HW2 2239   1.916   2.765   0.050  1.0054 -0.1916 -1.6042
  560SOL     MW 2240   1.930   2.848   0.065  0.5059 -0.3156 -0.1949
  561SOL     OW 2241   0.457   2.128   0.243  0.3551  0.5910 -0.5621
  561SOL    HW1 2242   0.415   2.125   0.152 -2.2999 -0.0151  0.9118
  561SOL    HW2 2243   0.506   2.212   0.246  1.7774 -3.3097  2.8298
  561SOL     MW 2244   0.458   2.139   0.231  0.1924 -0.0036  0.0799
  562SOL     OW 2245   0.842   2.181   2.231 -0.0516 -0.1907  0.1332
  562SOL    HW1 2246   0.851   2.275   2.227  0.4543  1.2303  1.5570
  562SOL    HW2 2247   0.933   2.148   2.237 -1.4280  2.0737 -0.5740
  562SOL     MW 2248   0.855   2.189   2.231 -0.1664  0.2956  0.2277
  563SOL     OW 2249   1.132   0.309   0.627 -0.0761  0.1582 -0.6233
  563SOL    HW1 2250   1.065   0.305   0.555  0.0559 -1.6646 -1.6763
  563SOL    HW2 2251   1.170   0.221   0.613 -1.6659 -1.0776 -0.8213
  563SOL     MW 2252   1.128   0.297   0.615 -0.2684 -0.2453 -0.7884
  564SOL     OW 2253   1.067   2.552   2.305  0.0335  0.8036 -0.4691
  564SOL    HW1 2254   1.100   2.581   2.214 -0.2848 -1.3707 -0.0277
  564SOL    HW2 2255   1.130   2.590   2.368  0.3388 -0.4442 -0.6962
  564SOL     MW 2256   1.080   2.561   2.302  0.0318  0.3521 -0.4408
  565SOL     OW 2257   2.879   2.700   2.632 -0.0422  0.2801  1.0075
  565SOL    HW1 2258   2.939   2.747   2.577  0.8682 -2.3420 -3.2430
  565SOL    HW2 2259   2.805   2.684   2.570  0.5936 -0.8454 -2.3352
  565SOL     MW 2260   2.877   2.704   2.617  0.1618 -0.2144  0.0056
  566SOL     OW 2261   2.142   1.865   2.429 -0.7465  0.2741 -0.0951
  566SOL    HW1 2262   2.168   1.827   2.344  0.8708  2.8849 -0.6792
  566SOL    HW2 2263   2.199   1.949   2.433 -1.2605 -2.0966  3.7970
  566SOL     MW 2264   2.153   1.871   2.418 -0.6009  0.3058  0.3414
  567SOL     OW 2265   1.134   2.971   3.005  0.4312  0.1427 -0.8417
  567SOL    HW1 2266   1.224   3.014   3.020  1.6311 -0.1720 -2.3076
  567SOL    HW2 2267   1.157   2.882   2.980  1.0018 -1.1664  3.8203
  567SOL     MW 2268   1.149   2.965   3.003  0.6648 -0.0716 -0.4200
  568SOL     OW 2269   1.606   2.088   2.913  0.3921  0.7824 -0.1986
  568SOL    HW1 2270   1.645   2.157   2.960 -2.9455  0.2025 -0.7335
  568SOL    HW2 2271   1.665   2.050   2.847 -0.1540  0.9169 -0.7366
  568SOL     MW 2272   1.619   2.092   2.911 -0.1203  0.7236 -0.3402
  569SOL     OW 2273   0.208   2.238   2.475  0.1078  0.1293 -0.0908
  569SOL    HW1 2274   0.166   2.263   2.390  2.6910  0.2893  2.1413
  569SOL    HW2 2275   0.220   2.318   2.533 -1.9353  1.2569  1.0976
  569SOL     MW 2276   0.204   2.252   2.471  0.1791  0.2992  0.3605
  570SOL     OW 2277   1.475   0.435   0.487  0.0136 -0.1635  0.0268
  570SOL    HW1 2278   1.388   0.420   0.515 -1.6395 -0.3014 -1.7466
  570SOL    HW2 2279   1.520   0.411   0.568 -2.2690 -2.1315  1.4329
  570SOL     MW 2280   1.470   0.430   0.502 -0.5057 -0.4413 -0.0217
  571SOL     OW 2281   1.488   2.396   1.990 -0.4263  0.0218 -0.1625
  571SOL    HW1 2282   1.555   2.412   2.058  3.0371  1.3390 -0.4212
  571SOL    HW2 2283   1.501   2.303   1.970  1.1480 -1.8173 -1.7827
  571SOL     MW 2284   1.498   2.386   1.996  0.2384 -0.0470 -0.4104
  572SOL     OW 2285   0.923   2.571   0.032  0.0038 -0.2280  0.1402
  572SOL    HW1 2286   0.934   2.602  -0.056 -0.7950  1.7167  1.9658
  572SOL    HW2 2287   0.832   2.546   0.047  0.9208 -0.1966  0.7092
  572SOL     MW 2288   0.912   2.572   0.022  0.0194  0.0327  0.4562
  573SOL     OW 2289   1.179   2.371   0.264  0.8730  0.0411 -0.1524
  573SOL    HW1 2290   1.260   2.362   0.213 -1.8904 -2.1432  2.4786
  573SOL    HW2 2291   1.160   2.461   0.267  1.3330  0.0548 -0.0450
  573SOL     MW 2292   1.187   2.382   0.258  0.5691 -0.2453  0.2089
  574SOL     OW 2293   1.071   2.628   0.253  0.4834  0.6923 -0.3144
  574SOL    HW1 2294   1.109   2.716   0.259 -1.1037 -1.4933 -1.5167
  574SOL    HW2 2295   1.001   2.638   0.191  1.2018 -0.6890  1.8859
  574SOL     MW 2296   1.067   2.641   0.245  0.3688  0.2217 -0.1827
  575SOL     OW 2297  -0.001   2.321   1.783  0.1933  0.6087  0.2385
  575SOL    HW1 2298  -0.013   2.231   1.744  0.8885  1.4083 -1.8416
  575SOL    HW2 2299   0.048   2.376   1.719  1.8791 -1.0934 -1.5108
  575SOL     MW 2300   0.004   2.317   1.769  0.5074  0.4896 -0.2668
  576SOL     OW 2301   2.891   1.806   2.029 -0.0034 -0.1774  0.3240
  576SOL    HW1 2302   2.912   1.878   1.964  0.6478 -0.1550 -1.9318
  576SOL    HW2 2303   2.798   1.786   2.012 -0.9854  0.5613 -0.2006
  576SOL     MW 2304   2.881   1.813   2.018 -0.0470 -0.0770 -0.0428
  577SOL     OW 2305   2.132   0.243   0.060 -0.2214 -0.7124  0.2685
  577SOL    HW1 2306   2.059   0.226   0.000  0.2419 -0.2481 -1.5046
  577SOL    HW2 2307   2.083   0.238   0.152 -0.6600  1.1934  1.1267
  577SOL     MW 2308   2.116   0.240   0.064 -0.2182 -0.3997  0.1478
  578SOL     OW 2309   1.915   2.036   2.436  0.3782 -0.4758 -0.3110
  578SOL    HW1 2310   1.858   2.042   2.364 -1.5301 -0.4022  1.0345
  578SOL    HW2 2311   1.994   1.994   2.407 -0.3067 -1.9837  0.8048
  578SOL     MW 2312   1.918   2.031   2.423  0.0360 -0.6650  0.0137
  579SOL     OW 2313   0.871   2.498   2.498 -0.4566  0.6142  0.0312
  579SOL    HW1 2314   0.928   2.421   2.517  2.0201  0.4149 -0.8753
  579SOL    HW2 2315   0.934   2.537   2.434  0.2961 -1.3779 -1.4442
  579SOL     MW 2316   0.887   2.493   2.492 -0.0305  0.3250 -0.2830
  580SOL     OW 2317   0.894   2.991   0.022  0.7619  0.1355  0.0093
  580SOL    HW1 2318   0.986   2.976  -0.011 -1.0255  0.1510 -0.6125
  580SOL    HW2 2319   0.841   2.976  -0.056  1.5519  1.6218 -1.6632
  580SOL     MW 2320   0.900   2.987   0.008  0.6303  0.3336 -0.2934
  581SOL     OW 2321   1.142   2.455   1.710  0.4876 -0.2332  0.0871
  581SOL    HW1 2322   1.210   2.510   1.748  3.2562 -0.8114  1.5362
  581SOL    HW2 2323   1.188   2.408   1.641 -0.2999  2.3962 -0.7987
  581SOL     MW 2324   1.157   2.456   1.706  0.7490  0.0374  0.1614
  582SOL     OW 2325   3.071   2.873   2.536 -0.0042  0.2549  0.5699
  582SOL    HW1 2326   3.030   2.946   2.584 -1.4394 -2.4665 -0.1003
  582SOL    HW2 2327   3.165   2.884   2.551 -1.4623  0.3260 -0.7529
  582SOL     MW 2328   3.078   2.884   2.544 -0.3859 -0.0948  0.3070
  583SOL     OW 2329   1.992   2.371   2.671  0.6181 -0.6030  0.9151
  583SOL    HW1 2330   2.055   2.379   2.599 -1.2885  1.4961 -2.3056
  583SOL    HW2 2331   1.980   2.276   2.691  2.2070 -0.0674  1.4239
  583SOL     MW 2332   1.999   2.359   2.664  0.5762 -0.2554  0.5573
  584SOL     OW 2333   0.171   1.876   2.120  0.0188 -0.3181 -0.1875
  584SOL    HW1 2334   0.260   1.832   2.106 -1.3586 -1.7485  3.6512
  584SOL    HW2 2335   0.182   1.960   2.161  0.7126  0.2259 -1.4321
  584SOL     MW 2336   0.184   1.882   2.123 -0.0714 -0.4351  0.1547
  585SOL     OW 2337   1.435   2.649   0.116  0.0651 -0.3118  0.5114
  585SOL    HW1 2338   1.407   2.613   0.032 -2.9338  0.8074 -3.3594
  585SOL    HW2 2339   1.356   2.665   0.167  1.6424  0.4683 -0.3354
  585SOL     MW 2340   1.421   2.646   0.111 -0.1225 -0.0612 -0.1111
  586SOL     OW 2341   1.418   2.805   2.481  0.1054 -0.1433  0.3964
  586SOL    HW1 2342   1.459   2.774   2.398  0.8452  2.0327 -1.6445
  586SOL    HW2 2343   1.460   2.883   2.517 -1.9934 -2.5281  0.3174
  586SOL     MW 2344   1.429   2.811   2.475 -0.0739 -0.1708  0.1167
  587SOL     OW 2345   1.306   1.567   2.189  0.1961  0.0997  0.1265
  587SOL    HW1 2346   1.299   1.490   2.248  2.5120 -0.4217 -0.3016
  587SOL    HW2 2347   1.297   1.537   2.098 -0.8072  2.9533 -0.2445
  587SOL     MW 2348   1.304   1.553   2.185  0.3693  0.4074  0.0211
  588SOL     OW 2349   1.391   2.140   2.751  0.5269  0.0556  0.3624
  588SOL    HW1 2350   1.461   2.112   2.808 -1.2135  1.1012 -2.7443
  588SOL    HW2 2351   1.320   2.189   2.789  1.4360  1.7540  1.4188
  588SOL     MW 2352   1.391   2.143   2.764  0.4172  0.4176  0.0919
  589SOL     OW 2353   1.287   2.062   0.069 -0.5517 -0.1027  0.0625
  589SOL    HW1 2354   1.337   2.128   0.119  1.1750 -1.0605  1.5904
  589SOL    HW2 2355   1.230   2.011   0.130  0.3173 -1.6895 -0.7513
  589SOL     MW 2356   1.286   2.064   0.084 -0.2092 -0.4384  0.1567
  590SOL     OW 2357   0.437   2.677   2.219 -0.4236  0.1566 -0.4429
  590SOL    HW1 2358   0.425   2.623   2.136  0.3044  0.7789  1.3568
  590SOL    HW2 2359   0.520   2.731   2.222 -0.0221  1.2974 -2.5876
  590SOL     MW 2360   0.447   2.677   2.209 -0.2745  0.3892 -0.4884
  591SOL     OW 2361   2.281   0.721   3.080 -0.0474 -0.3545  0.6488
  591SOL    HW1 2362   2.210   0.788   3.071  0.3230 -2.7825  1.5200
  591SOL    HW2 2363   2.357   0.755   3.025  2.2635  1.6266 -3.3311
  591SOL     MW 2364   2.282   0.734   3.072  0.3064 -0.4134  0.2386
  592SOL     OW 2365   1.799   2.940   0.828 -0.3376  0.7180  0.2784
  592SOL    HW1 2366   1.806   2.999   0.753 -0.6427 -0.4115 -1.0506
  592SOL    HW2 2367   1.848   2.862   0.805  0.6561  1.5150 -1.2623
  592SOL     MW 2368   1.807   2.938   0.815 -0.2467  0.6741 -0.1002
  593SOL     OW 2369   1.910   0.694   0.889  0.8177 -0.4109 -0.0371
  593SOL    HW1 2370   1.850   0.668   0.819  2.7620  1.4014 -1.2964
  593SOL    HW2 2371   1.942   0.609   0.919 -0.3890 -0.2755  0.8469
  593SOL     MW 2372   1.907   0.680   0.884  0.9150 -0.1539 -0.0866
  594SOL     OW 2373   2.804   1.168   1.358  0.7912  0.1875  0.5063
  594SOL    HW1 2374   2.896   1.195   1.373  2.7586 -0.5388 -0.7502
  594SOL    HW2 2375   2.802   1.119   1.273  0.3978 -0.6838 -0.4585
  594SOL     MW 2376   2.816   1.165   1.348  0.9989 -0.0233  0.2132
  595SOL     OW 2377   0.495   0.958   0.778  0.1606 -0.5116  0.4880
  595SOL    HW1 2378   0.512   1.010   0.699 -1.8693 -0.2848  3.2307
  595SOL    HW2 2379   0.498   1.020   0.853 -1.2007  4.4481 -0.8677
  595SOL     MW 2380   0.498   0.973   0.777 -0.2868  0.1727  0.6710
  596SOL     OW 2381   2.484   1.355   0.540 -0.3720 -0.5182  0.2344
  596SOL    HW1 2382   2.545   1.433   0.517  2.4051  1.9690  0.8048
  596SOL    HW2 2383   2.520   1.319   0.625 -0.3422  1.4151  2.2349
  596SOL     MW 2384   2.497   1.360   0.548 -0.0017  0.0650  0.5736
  597SOL     OW 2385   2.193   0.708   1.579 -0.2942  0.1985 -0.6921
  597SOL    HW1 2386   2.209   0.641   1.647  0.9628 -1.3664 -2.7367
  597SOL    HW2 2387   2.120   0.665   1.529 -0.5535  1.5563  1.6891
  597SOL     MW 2388   2.186   0.693   1.581 -0.1625  0.1712 -0.6477
  598SOL     OW 2389   2.609   0.976   2.847 -0.1129  0.0651 -0.3380
  598SOL    HW1 2390   2.630   0.986   2.750  1.7191  0.7505  1.2816
  598SOL    HW2 2391   2.675   1.032   2.887 -0.2136 -1.1143  0.0901
  598SOL     MW 2392   2.620   0.984   2.840  0.1155 -0.0000 -0.0678
  599SOL     OW 2393   2.959   0.413   2.063  0.0652  0.6752 -0.4123
  599SOL    HW1 2394   2.933   0.402   2.157 -0.3507  1.7817  0.2722
  599SOL    HW2 2395   2.995   0.505   2.048 -0.0207 -1.2056 -1.2041
  599SOL     MW 2396   2.960   0.424   2.074 -0.0010  0.5730 -0.4265
  600SOL     OW 2397   1.930   1.700   0.860 -0.1717 -0.9770 -0.0563
  600SOL    HW1 2398   1.951   1.745   0.940  4.4381 -2.4479 -2.2613
  600SOL    HW2 2399   1.844   1.739   0.829  2.7085 -1.1140 -4.8498
  600SOL     MW 2400   1.921   1.711   0.866  0.8166 -1.1892 -0.9797
  601SOL     OW 2401   2.537   0.790   0.835  0.1788  0.7412  0.1317
  601SOL    HW1 2402   2.539   0.794   0.935 -3.0341  3.1704  4.1124
  601SOL    HW2 2403   2.475   0.717   0.813  1.1295 -0.2000 -1.5565
  601SOL     MW 2404   2.529   0.781   0.845 -0.1197  0.9375  0.4342
  602SOL     OW 2405   2.321   1.940   0.837 -0.0216 -0.5001  0.1803
  602SOL    HW1 2406   2.295   1.847   0.850 -0.1974 -0.1852 -1.2566
  602SOL    HW2 2407   2.245   1.984   0.795 -1.8166  0.8704  0.0811
  602SOL     MW 2408   2.307   1.934   0.833 -0.2816 -0.2777 -0.0224
  603SOL     OW 2409   3.066   1.399   1.818  0.4273  0.2548 -0.0237
  603SOL    HW1 2410   3.101   1.426   1.904 -1.1191  0.7038  2.2020
  603SOL    HW2 2411   3.065   1.306   1.841  0.9218 -0.1168 -0.1636
  603SOL     MW 2412   3.070   1.390   1.832  0.2885  0.2650  0.2515
  604SOL     OW 2413   2.162   1.556   0.467  0.0750  0.5564  0.6158
  604SOL    HW1 2414   2.169   1.470   0.516 -0.5121 -0.7423 -1.3435
  604SOL    HW2 2415   2.085   1.602   0.507  2.3575 -1.3467 -0.3264
  604SOL     MW 2416   2.153   1.551   0.479  0.2987  0.1340  0.2330
  605SOL     OW 2417   2.614   1.559   0.826 -0.3291 -0.1626  0.1162
  605SOL    HW1 2418   2.589   1.642   0.777  1.1611  0.6412 -4.5302
  605SOL    HW2 2419   2.566   1.491   0.783  0.3467  1.7107 -0.4500
  605SOL     MW 2420   2.604   1.561   0.814 -0.0433  0.1906 -0.5716
  606SOL     OW 2421   2.589   1.850   1.895 -0.4909  0.0085  0.4233
  606SOL    HW1 2422   2.499   1.861   1.925 -0.5476 -0.9864 -0.1933
  606SOL    HW2 2423   2.591   1.757   1.867 -0.4210 -0.6017 -2.2334
  606SOL     MW 2424   2.578   1.839   1.895 -0.4891 -0.2032 -0.0085
  607SOL     OW 2425   2.361   1.040   3.047  0.3710  0.1825 -0.1489
  607SOL    HW1 2426   2.432   1.001   2.994 -0.0719  3.2015 -1.5063
  607SOL    HW2 2427   2.372   1.002   3.141  1.4103 -0.2355  1.4920
  607SOL     MW 2428   2.372   1.030   3.052  0.4497  0.5257 -0.1115
  608SOL     OW 2429   1.889   0.296   0.631 -0.5728 -0.2138  0.2524
  608SOL    HW1 2430   1.884   0.332   0.540  0.9249  0.8998  1.8757
  608SOL    HW2 2431   1.858   0.203   0.636  0.6693 -1.8609  1.4809
  608SOL     MW 2432   1.885   0.288   0.619 -0.2113 -0.2842  0.6287
  609SOL     OW 2433   2.081   2.015   3.049 -0.8763  0.4834  0.2608
  609SOL    HW1 2434   2.009   1.957   3.039 -0.8121  0.8805 -0.1215
  609SOL    HW2 2435   2.142   1.988   3.121 -1.3424 -1.0153 -1.0835
  609SOL     MW 2436   2.080   2.004   3.057 -0.9293  0.3381  0.0330
  610SOL     OW 2437   1.793   1.023   1.261  0.2659 -0.6142 -0.0499
  610SOL    HW1 2438   1.804   0.942   1.215 -1.2202 -0.2405  2.6153
  610SOL    HW2 2439   1.707   1.008   1.295 -0.4407  0.6138  0.6358
  610SOL     MW 2440   1.783   1.011   1.260 -0.0234 -0.4029  0.3922
  611SOL     OW 2441   2.537   1.772   0.689 -0.2219  0.3790 -0.5512
  611SOL    HW1 2442   2.468   1.835   0.696  1.8609  2.0053  2.5271
  611SOL    HW2 2443   2.514   1.747   0.602 -0.8770  1.0663  1.3324
  611SOL     MW 2444   2.525   1.777   0.679 -0.0335  0.6843  0.1034
  612SOL     OW 2445   2.798   2.832   0.414  0.0272 -0.0005  0.6007
  612SOL    HW1 2446   2.867   2.880   0.461 -0.0964 -0.2913 -0.1579
  612SOL    HW2 2447   2.839   2.813   0.331 -1.6091  1.1258  0.3842
  612SOL     MW 2448   2.812   2.836   0.409 -0.2050  0.1097  0.4721
  613SOL     OW 2449   1.495   1.027   0.946  0.2454  0.1344  0.3673
  613SOL    HW1 2450   1.466   1.113   0.979 -1.5074 -2.3714  1.1958
  613SOL    HW2 2451   1.512   0.983   1.027 -1.3972  0.1903  0.1679
  613SOL     MW 2452   1.493   1.033   0.961 -0.2026 -0.1889  0.4503
  614SOL     OW 2453   1.999   0.543   1.476  0.4515  0.6619 -0.7083
  614SOL    HW1 2454   2.014   0.467   1.533  1.9085  0.5303 -0.9401
  614SOL    HW2 2455   1.962   0.500   1.399 -0.1683 -1.0185  0.9576
  614SOL     MW 2456   1.996   0.527   1.474  0.5619  0.4228 -0.5191
  615SOL     OW 2457   2.374   0.721   0.300 -0.1538  0.0421 -0.1483
  615SOL    HW1 2458   2.457   0.674   0.316 -1.2232 -2.2902  0.1288
  615SOL    HW2 2459   2.361   0.687   0.209  0.3704 -1.7219  1.0717
  615SOL     MW 2460   2.383   0.710   0.290 -0.2257 -0.4984  0.0493
  616SOL     OW 2461   2.492   0.448   1.592 -0.1308 -0.3276 -0.5113
  616SOL    HW1 2462   2.485   0.360   1.561  0.0495  1.2506  1.2964
  616SOL    HW2 2463   2.479   0.508   1.517 -1.2195  1.7944  0.2488
  616SOL     MW 2464   2.489   0.444   1.578 -0.2507  0.1606 -0.1725
  617SOL     OW 2465   2.925   0.548   1.731 -0.2361  0.9343 -0.2910
  617SOL    HW1 2466   2.850   0.555   1.792  0.3413  1.6487  0.2906
  617SOL    HW2 2467   2.907   0.457   1.692  5.4327 -0.2866  1.5893
  617SOL     MW 2468   2.913   0.537   1.734  0.5880  0.8675  0.0338
  618SOL     OW 2469   2.747   0.349   1.897  1.0190  0.1925 -0.4831
  618SOL    HW1 2470   2.729   0.441   1.905  0.4663  0.4185 -0.9846
  618SOL    HW2 2471   2.823   0.344   1.951  0.5971  0.5584 -0.2907
  618SOL     MW 2472   2.755   0.360   1.905  0.8904  0.2706 -0.5238
  619SOL     OW 2473   2.681   0.660   0.118  0.0026  0.1905  0.4878
  619SOL    HW1 2474   2.731   0.741   0.123  1.2358  0.2815 -3.1015
  619SOL    HW2 2475   2.667   0.623   0.204  0.5003  1.2103  0.1432
  619SOL     MW 2476   2.686   0.666   0.130  0.2310  0.3371 -0.0313
  620SOL     OW 2477   2.305   1.033   1.001 -0.2625 -0.2198 -0.2027
  620SOL    HW1 2478   2.358   1.057   0.926  0.1546  5.1725  2.4966
  620SOL    HW2 2479   2.235   0.982   0.961 -2.0034 -0.2491 -2.4976
  620SOL     MW 2480   2.303   1.030   0.986 -0.4372  0.4878 -0.1493
  621SOL     OW 2481   1.513   2.137   1.959  0.3716 -0.3103  0.2612
  621SOL    HW1 2482   1.449   2.069   1.990  1.2250  1.6530 -0.4880
  621SOL    HW2 2483   1.607   2.104   1.960  0.4777  3.1603 -0.0702
  621SOL     MW 2484   1.517   2.123   1.963  0.4982  0.4066  0.1186
  622SOL     OW 2485   2.615   0.158   0.275  0.7885 -0.0494  0.0252
  622SOL    HW1 2486   2.708   0.181   0.275 -1.5213  0.2385 -0.6916
  622SOL    HW2 2487   2.606   0.066   0.295 -0.4753  0.7145 -3.1665
  622SOL     MW 2488   2.626   0.149   0.278  0.3170  0.0894 -0.4905
  623SOL     OW 2489   2.345   2.825   0.867 -0.7053  0.1077 -0.4054
  623SOL    HW1 2490   2.430   2.882   0.859 -1.7321  1.4328 -1.7620
  623SOL    HW2 2491   2.298   2.832   0.955 -2.4151 -1.1994 -0.7922
  623SOL     MW 2492   2.350   2.833   0.878 -1.0663  0.1101 -0.6354
  624SOL     OW 2493   2.167   1.739   3.007  0.4818  0.0350 -0.1786
  624SOL    HW1 2494   2.147   1.650   3.025 -0.8913 -0.7603  2.7114
  624SOL    HW2 2495   2.085   1.781   2.973  1.5268 -3.3489  0.3703
  624SOL     MW 2496   2.153   1.733   3.005  0.4385 -0.5164  0.2752
  625SOL     OW 2497   2.197   1.964   1.123  0.0546 -0.2422  0.2096
  625SOL    HW1 2498   2.273   1.938   1.183 -1.1742 -3.1195 -0.5837
  625SOL    HW2 2499   2.246   1.961   1.041  1.8085 -2.2924  1.5333
  625SOL     MW 2500   2.214   1.960   1.120  0.1239 -0.8924  0.2796
  626SOL     OW 2501   0.274   1.613   2.381  0.9707  0.0072  0.4039
  626SOL    HW1 2502   0.239   1.525   2.368 -0.7744  3.7560 -0.4835
  626SOL    HW2 2503   0.196   1.662   2.392  2.1978 -0.7232 -1.5877
  626SOL     MW 2504   0.259   1.608   2.381  0.9023  0.4055  0.0241
  627SOL     OW 2505   2.465   0.777   2.640  0.2501 -0.5588 -0.4656
  627SOL    HW1 2506   2.421   0.860   2.661  1.9385  0.6457  2.5921
  627SOL    HW2 2507   2.427   0.749   2.559  0.7539  2.6725 -1.9792
  627SOL     MW 2508   2.454   0.784   2.632  0.5393  0.0265 -0.2619
  628SOL     OW 2509   2.332   1.363   1.376  0.9266  0.3309 -0.7206
  628SOL    HW1 2510   2.279   1.314   1.308  0.6123  1.6416  0.1686
  628SOL    HW2 2511   2.429   1.346   1.359 -1.0905  0.4811 -1.6643
  628SOL     MW 2512   2.338   1.354   1.365  0.6190  0.5236 -0.7278
  629SOL     OW 2513   1.862   0.545   1.203 -0.2617 -0.1574  0.4004
  629SOL    HW1 2514   1.832   0.634   1.180 -1.9617  0.2376  1.7581
  629SOL    HW2 2515   1.791   0.521   1.261 -1.3805 -0.6791  2.2963
  629SOL     MW 2516   1.848   0.554   1.208 -0.6336 -0.1741  0.8297
  630SOL     OW 2517   2.447   1.798   3.003  0.0950 -0.2561 -0.6506
  630SOL    HW1 2518   2.472   1.853   2.929  1.1405 -1.3663  2.8966
  630SOL    HW2 2519   2.350   1.792   2.992 -1.1709 -0.6003 -1.2933
  630SOL     MW 2520   2.437   1.805   2.992  0.0659 -0.4480 -0.2674
  631SOL     OW 2521   1.964   1.839   1.587  0.4274 -0.0936  0.1103
  631SOL    HW1 2522   1.988   1.755   1.633  3.7345 -1.9769 -2.4886
  631SOL    HW2 2523   1.955   1.813   1.495  1.7889  0.1656 -2.0713
  631SOL     MW 2524   1.966   1.825   1.581  1.0434 -0.3079 -0.5204
  632SOL     OW 2525   0.144   1.995   1.468 -0.2958 -0.9003 -0.3389
  632SOL    HW1 2526   0.105   2.047   1.543 -1.1953  1.6952  1.1165
  632SOL    HW2 2527   0.113   1.910   1.486  1.3676 -0.5723 -1.3940
  632SOL     MW 2528   0.135   1.991   1.481 -0.1950 -0.5146 -0.2861
  633SOL     OW 2529   2.601   0.524   0.367 -0.1782 -0.5119 -0.2457
  633SOL    HW1 2530   2.666   0.521   0.445  2.3254  0.0839 -0.8765
  633SOL    HW2 2531   2.545   0.454   0.392  0.1202 -1.8045  0.2072
  633SOL     MW 2532   2.602   0.515   0.380  0.1915 -0.6038 -0.2692
  634SOL     OW 2533   2.697   3.072   0.616 -0.1129  0.1274 -0.1197
  634SOL    HW1 2534   2.727   3.163   0.609  0.6533  2.7440  0.9864
  634SOL    HW2 2535   2.647   3.053   0.535 -0.9152  0.6793 -0.3622
  634SOL     MW 2536   2.695   3.081   0.604 -0.1176  0.5454 -0.0058
  635SOL     OW 2537   2.623   0.118   1.840  0.0716  0.3447 -0.1629
  635SOL    HW1 2538   2.686   0.068   1.786  2.5904 -0.4924 -1.3927
  635SOL    HW2 2539   2.666   0.200   1.858  1.5442  1.5897 -2.2510
  635SOL     MW 2540   2.637   0.122   1.835  0.5982  0.3985 -0.6006
  636SOL     OW 2541   2.904   1.638   1.126 -0.4403 -1.3144 -0.1936
  636SOL    HW1 2542   2.837   1.676   1.182  1.0450 -1.4501 -0.0452
  636SOL    HW2 2543   2.945   1.723   1.092 -1.1127  1.6580  0.5012
  636SOL     MW 2544   2.901   1.654   1.129 -0.3330 -0.9402 -0.0823
  637SOL     OW 2545   2.880   1.481   0.705  0.5661  0.4117  0.3892
  637SOL    HW1 2546   2.925   1.564   0.687  1.3709  1.0537  1.0408
  637SOL    HW2 2547   2.804   1.501   0.765  0.7825  0.6344  2.3367
  637SOL     MW 2548   2.876   1.495   0.711  0.7009  0.5258  0.7321
  638SOL     OW 2549   2.791   0.488   0.567 -0.0737  0.4647  0.2812
  638SOL    HW1 2550   2.867   0.541   0.533  1.0557  1.4293 -2.3646
  638SOL    HW2 2551   2.776   0.520   0.656  1.2503  1.2721  1.9371
  638SOL     MW 2552   2.799   0.499   0.574  0.2500  0.6985  0.1506
  639SOL     OW 2553   1.774   0.051   0.601 -0.1795 -0.0967  0.8663
  639SOL    HW1 2554   1.682   0.070   0.567  1.1857  0.7096 -0.0777
  639SOL    HW2 2555   1.813  -0.011   0.534  2.8835 -1.5736  1.6508
  639SOL     MW 2556   1.767   0.046   0.587  0.4047 -0.1852  0.8452
  640SOL     OW 2557   0.374   1.303   0.122 -0.1651 -0.3643  0.2091
  640SOL    HW1 2558   0.395   1.302   0.028 -0.6952  1.2595  0.4524
  640SOL    HW2 2559   0.325   1.222   0.137  2.2281 -1.2128 -0.0267
  640SOL     MW 2560   0.370   1.292   0.112  0.0807 -0.2620  0.2101
  641SOL     OW 2561   2.186   0.413   0.319 -1.3708 -0.1051  0.1781
  641SOL    HW1 2562   2.196   0.454   0.235 -0.2450 -1.5027 -1.2274
  641SOL    HW2 2563   2.242   0.330   0.312  2.6216  1.3667  2.2050
  641SOL     MW 2564   2.195   0.407   0.307 -0.6955 -0.0953  0.2601
  642SOL     OW 2565   0.063   3.088   0.588  0.3688  0.0446 -0.0825
  642SOL    HW1 2566   0.015   3.165   0.548 -0.5358  1.0970  2.6440
  642SOL    HW2 2567  -0.003   3.039   0.641 -0.4606 -0.4989  0.8549
  642SOL     MW 2568   0.048   3.092   0.590  0.1400  0.1117  0.4009
  643SOL     OW 2569   2.068   0.331   1.643 -0.4103  0.0474 -0.2138
  643SOL    HW1 2570   1.978   0.319   1.666 -1.3971 -1.5286  0.6949
  643SOL    HW2 2571   2.100   0.263   1.589  0.4634  1.1429  2.1756
  643SOL     MW 2572   2.060   0.320   1.639 -0.4252 -0.0160  0.2214
  644SOL     OW 2573   2.737   2.027   1.037 -0.0959  0.3493 -0.1530
  644SOL    HW1 2574   2.714   1.941   1.073 -1.2196  1.5491  0.2565
  644SOL    HW2 2575   2.657   2.060   1.000  3.3842  1.7189  0.4848
  644SOL     MW 2576   2.723   2.020   1.037  0.2150  0.6883 -0.0148
  645SOL     OW 2577   2.865   0.827   0.670  0.2058 -0.5644  0.2525
  645SOL    HW1 2578   2.956   0.817   0.658  1.4289 -0.9077 -0.1992
  645SOL    HW2 2579   2.827   0.755   0.718  3.5880  0.8386  0.8438
  645SOL     MW 2580   2.872   0.816   0.675  0.8134 -0.4246  0.2709
  646SOL     OW 2581   0.182   2.303   0.784 -0.4403  0.6467  0.2282
  646SOL    HW1 2582   0.207   2.218   0.821  1.4791  0.0043  2.2387
  646SOL    HW2 2583   0.104   2.314   0.735  0.0168  2.1561  0.4781
  646SOL     MW 2584   0.175   2.293   0.783 -0.1267  0.7611  0.5264
  647SOL     OW 2585   2.668   0.489   2.975 -0.1523 -0.1446 -0.3727
  647SOL    HW1 2586   2.627   0.426   3.034  1.0324  1.0600  0.9668
  647SOL    HW2 2587   2.628   0.574   2.985 -0.4129 -0.3904  0.2301
  647SOL     MW 2588   2.657   0.492   2.984 -0.0304 -0.0181 -0.1164
  648SOL     OW 2589   2.137   0.736   1.203 -0.0054  0.3692  0.5577
  648SOL    HW1 2590   2.096   0.787   1.141 -0.8430 -0.2796  2.3142
  648SOL    HW2 2591   2.147   0.803   1.271 -0.5671 -2.4997 -0.5342
  648SOL     MW 2592   2.133   0.752   1.204 -0.1901 -0.0949  0.6454
  649SOL     OW 2593   2.344   2.719   1.279  0.2566 -0.0780 -0.3605
  649SOL    HW1 2594   2.412   2.774   1.314  1.4150 -0.9540 -1.7458
  649SOL    HW2 2595   2.376   2.629   1.269  1.4156 -3.7408  1.3404
  649SOL     MW 2596   2.358   2.714   1.282  0.5623 -0.6768 -0.3189
  650SOL     OW 2597   2.812   0.215   0.628  0.5079 -0.2620 -0.4562
  650SOL    HW1 2598   2.814   0.301   0.584 -1.8678  0.0616  0.2428
  650SOL    HW2 2599   2.898   0.170   0.615  0.0930 -0.9398  2.5521
  650SOL     MW 2600   2.824   0.220   0.621  0.1397 -0.3087  0.0329
  651SOL     OW 2601   2.975   0.403   0.831 -0.4481 -0.1363  0.6878
  651SOL    HW1 2602   3.062   0.451   0.840  0.1332 -0.8004  2.1878
  651SOL    HW2 2603   2.916   0.434   0.903 -0.4436  0.4280  0.4851
  651SOL     MW 2604   2.979   0.413   0.842 -0.3708 -0.1495  0.8590
  652SOL     OW 2605   2.435   1.495   2.959  0.0845  1.1449  0.1103
  652SOL    HW1 2606   2.499   1.502   2.889  0.1182 -0.7521  1.5638
  652SOL    HW2 2607   2.394   1.581   2.957  1.0732 -1.4525  1.2569
  652SOL     MW 2608   2.438   1.507   2.950  0.2194  0.5519  0.4533
  653SOL     OW 2609   1.908   0.428   0.389  0.4550  0.1814 -0.3020
  653SOL    HW1 2610   1.859   0.367   0.338  0.5229 -0.2663  0.6683
  653SOL    HW2 2611   1.999   0.414   0.370  0.4583  0.4329 -3.3305
  653SOL     MW 2612   1.914   0.418   0.380  0.4644  0.1555 -0.5736
  654SOL     OW 2613   2.411   1.048   0.736 -0.3185 -0.6988  0.2777
  654SOL    HW1 2614   2.337   1.037   0.677 -1.7074 -1.1663  0.7097
  654SOL    HW2 2615   2.445   0.960   0.752 -0.0111  0.8249  1.8868
  654SOL     MW 2616   2.406   1.035   0.730 -0.4612 -0.5594  0.5470
  655SOL     OW 2617   2.889   0.845   0.369 -0.1056 -0.4094 -0.6595
  655SOL    HW1 2618   2.869   0.901   0.444 -1.3724 -1.1532  0.0582
  655SOL    HW2 2619   2.943   0.768   0.404 -0.1772 -1.0924 -1.2664
  655SOL     MW 2620   2.894   0.842   0.383 -0.2822 -0.5977 -0.6448
  656SOL     OW 2621   1.848   2.726   1.315 -0.3233 -0.1838  0.1830
  656SOL    HW1 2622   1.903   2.777   1.252 -1.0733  0.5910  0.4002
  656SOL    HW2 2623   1.911   2.724   1.392  0.2563  0.0767  0.4582
  656SOL     MW 2624   1.863   2.732   1.317 -0.3458 -0.0472  0.2480
  657SOL     OW 2625   0.141   1.702   1.261  0.3980  0.5736 -0.6335
  657SOL    HW1 2626   0.218   1.744   1.221 -0.0078 -0.7965  1.2369
  657SOL    HW2 2627   0.138   1.618   1.216 -1.0054  0.7599 -2.1866
  657SOL     MW 2628   0.151   1.697   1.249  0.1593  0.4174 -0.5916
  658SOL     OW 2629   2.730   1.324   0.223  0.1188  0.2172 -0.0285
  658SOL    HW1 2630   2.673   1.258   0.258  2.1637  1.3225 -0.9960
  658SOL    HW2 2631   2.737   1.379   0.299  0.9978  1.1732 -1.4922
  658SOL     MW 2632   2.724   1.322   0.237  0.5046  0.4892 -0.3493
  659SOL     OW 2633   2.272   1.506   1.097  0.3245  0.3096  0.6008
  659SOL    HW1 2634   2.367   1.527   1.107  0.0460  1.9446  2.6851
  659SOL    HW2 2635   2.240   1.551   1.172  1.6155  1.1776  0.2021
  659SOL     MW 2636   2.281   1.515   1.108  0.4581  0.6399  0.8232
  660SOL     OW 2637   2.048   1.603   1.690  0.0891 -0.1295 -0.4779
  660SOL    HW1 2638   2.064   1.599   1.786  0.4310 -1.2110 -1.0536
  660SOL    HW2 2639   1.984   1.530   1.684  0.2234 -1.3803 -0.5550
  660SOL     MW 2640   2.042   1.593   1.702  0.1520 -0.4372 -0.5641
  661SOL     OW 2641   2.386   1.000   0.227  0.4896 -0.0293  0.2132
  661SOL    HW1 2642   2.468   1.048   0.258  2.7533  0.3583 -1.2725
  661SOL    HW2 2643   2.395   0.909   0.256 -0.0286 -2.1078 -0.4618
  661SOL     MW 2644   2.398   0.994   0.235  0.7199 -0.2524 -0.0719
  662SOL     OW 2645   2.585   2.964   0.855  0.5709 -0.1044 -0.1404
  662SOL    HW1 2646   2.556   3.041   0.897  0.1317 -1.2194 -1.8403
  662SOL    HW2 2647   2.630   2.998   0.778  2.8575 -0.7850  1.1363
  662SOL     MW 2648   2.587   2.978   0.850  0.8147 -0.3413 -0.1963
  663SOL     OW 2649   2.719   1.473   0.462 -0.7989  0.2378  0.4339
  663SOL    HW1 2650   2.680   1.558   0.433  0.2087 -0.6079 -0.3080
  663SOL    HW2 2651   2.778   1.504   0.534  1.7507 -0.4630  1.1678
  663SOL     MW 2652   2.722   1.488   0.468 -0.3295  0.0337  0.4328
  664SOL     OW 2653   2.509   1.533   1.612  0.1721 -0.1237  0.1763
  664SOL    HW1 2654   2.485   1.617   1.568  3.3522 -1.5544  0.2477
  664SOL    HW2 2655   2.426   1.486   1.621 -0.3543  1.0394  0.9650
  664SOL     MW 2656   2.495   1.538   1.607  0.5222 -0.1590  0.2898
  665SOL     OW 2657   2.844   0.876   2.014 -0.3977 -0.1296 -0.4662
  665SOL    HW1 2658   2.808   0.921   1.935  1.2733 -0.3838  2.8312
  665SOL    HW2 2659   2.926   0.829   1.990  1.4985 -0.4097  1.2239
  665SOL     MW 2660   2.850   0.876   2.000  0.0730 -0.2001  0.1919
  666SOL     OW 2661   2.755   3.016   1.702  0.2348 -0.4758  0.1070
  666SOL    HW1 2662   2.778   3.044   1.613 -1.5677  2.8855  3.4751
  666SOL    HW2 2663   2.696   2.942   1.692 -3.5312  0.5532 -1.5886
  666SOL     MW 2664   2.750   3.010   1.689 -0.4999  0.1035  0.3277
  667SOL     OW 2665   1.980   2.662   1.768 -0.2416  0.1563  0.2216
  667SOL    HW1 2666   2.029   2.593   1.811  1.2224  1.3472 -1.3890
  667SOL    HW2 2667   2.047   2.724   1.734  0.5281  1.1305  0.2664
  667SOL     MW 2668   1.995   2.661   1.769  0.0531  0.4420  0.0150
  668SOL     OW 2669   2.740   0.622   0.788  0.4210 -0.1969 -0.1446
  668SOL    HW1 2670   2.796   0.624   0.870  0.0225 -2.5258  0.6584
  668SOL    HW2 2671   2.656   0.681   0.801 -1.5486 -0.4917 -0.5627
  668SOL     MW 2672   2.736   0.630   0.800  0.1086 -0.5431 -0.0938
  669SOL     OW 2673   0.220   0.969   0.713 -0.3958  0.2965 -0.0483
  669SOL    HW1 2674   0.172   1.009   0.777  1.2210 -0.4284 -2.0812
  669SOL    HW2 2675   0.311   0.968   0.750 -0.1730  0.4303  2.9389
  669SOL     MW 2676   0.226   0.974   0.726 -0.1531  0.2185  0.0776
  670SOL     OW 2677   2.886   0.227   0.222  0.6764  0.0766  0.2998
  670SOL    HW1 2678   2.902   0.156   0.153 -1.3086 -0.4479  0.5287
  670SOL    HW2 2679   2.875   0.304   0.167 -1.7549  1.5962  1.4524
  670SOL     MW 2680   2.886   0.228   0.206  0.0938  0.2079  0.4820
  671SOL     OW 2681   2.048   2.951   1.471 -0.5922  0.3638  0.0193
  671SOL    HW1 2682   1.975   2.987   1.421  0.5028 -3.2964 -0.5054
  671SOL    HW2 2683   2.048   3.016   1.543  0.9654 -0.0271  0.8169
  671SOL     MW 2684   2.039   2.964   1.474 -0.2422 -0.1707  0.0553
  672SOL     OW 2685   1.909   1.669   1.335  0.0694  0.0615 -0.6283
  672SOL    HW1 2686   1.813   1.660   1.340  0.9770 -0.9242 -0.5260
  672SOL    HW2 2687   1.913   1.735   1.261 -1.4668  0.0988  1.6681
  672SOL     MW 2688   1.897   1.676   1.326 -0.0135 -0.0636 -0.3118
  673SOL     OW 2689   2.758   1.071   0.591 -0.5668  0.2323  0.3083
  673SOL    HW1 2690   2.788   0.990   0.638  2.2283  0.0636 -1.9415
  673SOL    HW2 2691   2.830   1.129   0.611 -0.5228  0.3622 -1.8900
  673SOL     MW 2692   2.771   1.068   0.600 -0.1922  0.2272 -0.2786
  674SOL     OW 2693   2.452   0.025   1.271 -0.1533 -0.4515  0.0343
  674SOL    HW1 2694   2.422   0.028   1.178  0.2469 -0.3750  0.2831
  674SOL    HW2 2695   2.499  -0.058   1.284 -0.2156  0.5597  2.5520
  674SOL     MW 2696   2.454   0.015   1.261 -0.1087 -0.3080  0.3993
  675SOL     OW 2697   3.021   0.860   1.065  0.1007 -0.2327 -0.4376
  675SOL    HW1 2698   3.093   0.895   1.118  0.0065  0.2857 -0.4953
  675SOL    HW2 2699   3.038   0.910   0.988  0.7048 -1.1956  2.7258
  675SOL     MW 2700   3.033   0.871   1.062  0.1680 -0.2914 -0.0278
  676SOL     OW 2701   2.844   1.489   1.681 -0.2116  0.4546 -0.2801
  676SOL    HW1 2702   2.800   1.392   1.671  1.2988 -1.8066  0.4247
  676SOL    HW2 2703   2.922   1.459   1.735 -0.9012 -0.0039  2.3784
  676SOL     MW 2704   2.849   1.473   1.686 -0.1033  0.0958  0.1637
  677SOL     OW 2705   2.408   0.634   1.961 -0.2369 -0.2480  0.0707
  677SOL    HW1 2706   2.351   0.570   1.926  0.1035  0.9487  0.6658
  677SOL    HW2 2707   2.361   0.705   2.010 -0.5561 -1.6638 -0.4756
  677SOL     MW 2708   2.394   0.635   1.963 -0.2341 -0.2769  0.0771
  678SOL     OW 2709   2.518   1.640   0.368 -0.1213  0.2092 -0.1143
  678SOL    HW1 2710   2.429   1.688   0.359 -0.0036 -0.2262 -0.4610
  678SOL    HW2 2711   2.529   1.601   0.274  0.6939 -1.8649 -1.6511
  678SOL     MW 2712   2.508   1.641   0.354  0.0017 -0.1219 -0.3628
  679SOL     OW 2713   2.262   0.497   1.204 -0.2415  0.1957  0.3100
  679SOL    HW1 2714   2.215   0.419   1.174  0.1185 -1.0669  1.0357
  679SOL    HW2 2715   2.196   0.566   1.194 -1.4795 -1.2916  1.1334
  679SOL     MW 2716   2.248   0.496   1.199 -0.3573 -0.1671  0.5144
  680SOL     OW 2717   2.319   0.162   1.511 -0.3667  0.4469  0.3234
  680SOL    HW1 2718   2.236   0.154   1.472  1.4485  1.9669  2.1873
  680SOL    HW2 2719   2.361   0.104   1.444 -1.7748  0.1075  2.3425
  680SOL     MW 2720   2.314   0.153   1.497 -0.3130  0.6027  0.8357
  681SOL     OW 2721   0.307   0.576   1.577 -0.5139  0.8135  0.0600
  681SOL    HW1 2722   0.270   0.504   1.625  1.4156  3.9345 -1.2710
  681SOL    HW2 2723   0.401   0.578   1.586 -1.6953 -0.4951  0.3625
  681SOL     MW 2724   0.314   0.567   1.584 -0.4152  1.0526 -0.0757
  682SOL     OW 2725   0.078   2.905   1.476  0.0099 -0.4518  0.1257
  682SOL    HW1 2726   0.106   2.991   1.434  0.7142  0.6159  2.2069
  682SOL    HW2 2727   0.016   2.918   1.548 -0.6111  0.2089 -0.2827
  682SOL     MW 2728   0.074   2.918   1.480  0.0209 -0.2237  0.3464
  683SOL     OW 2729   2.065   0.891   3.001 -0.2609  0.0825 -0.1682
  683SOL    HW1 2730   1.980   0.854   2.982  2.0759 -0.4602 -0.8071
  683SOL    HW2 2731   2.061   0.987   3.016 -0.2581  0.3943  0.1184
  683SOL     MW 2732   2.053   0.898   3.000  0.0478  0.0521 -0.2147
  684SOL     OW 2733   2.222   1.698   0.899  0.3089  0.2245 -0.4438
  684SOL    HW1 2734   2.126   1.676   0.897 -1.4080  0.7552  0.2458
  684SOL    HW2 2735   2.251   1.611   0.933 -1.8493 -3.2018 -1.1407
  684SOL     MW 2736   2.213   1.683   0.904 -0.2024 -0.1575 -0.4447
  685SOL     OW 2737   2.670   1.750   1.212 -0.2025 -0.2320 -0.0237
  685SOL    HW1 2738   2.674   1.700   1.295 -1.6497 -0.1895  0.3753
  685SOL    HW2 2739   2.634   1.684   1.148 -0.8911  0.4393 -0.1562
  685SOL     MW 2740   2.666   1.735   1.214 -0.4843 -0.1378  0.0115
  686SOL     OW 2741   2.924   0.745   1.552 -0.1792 -0.0630  0.3667
  686SOL    HW1 2742   2.940   0.678   1.618  1.6156  1.4120 -0.7502
  686SOL    HW2 2743   3.005   0.749   1.496 -1.3582 -1.1304 -0.6074
  686SOL     MW 2744   2.937   0.737   1.554 -0.0980 -0.0092  0.0908
  687SOL     OW 2745   2.067   0.246   1.128  0.5879 -0.8873 -0.0845
  687SOL    HW1 2746   2.129   0.195   1.083 -1.3213 -0.6239 -0.8678
  687SOL    HW2 2747   2.010   0.274   1.055  3.7051 -0.3997 -2.4631
  687SOL     MW 2748   2.067   0.243   1.113  0.7472 -0.7882 -0.5017
  688SOL     OW 2749   2.374   0.603   1.411  0.0589  0.0202  1.0093
  688SOL    HW1 2750   2.317   0.577   1.335  0.8808  1.9442 -1.3918
  688SOL    HW2 2751   2.315   0.643   1.471 -0.7824 -3.0633 -1.0452
  688SOL     MW 2752   2.359   0.605   1.409  0.0563 -0.1328  0.4214
  689SOL     OW 2753   2.549   0.730   2.980  0.1711  0.1882 -0.3272
  689SOL    HW1 2754   2.568   0.807   2.926  0.2123 -2.4627  0.4271
  689SOL    HW2 2755   2.612   0.721   3.064  0.0336 -1.0960 -0.6459
  689SOL     MW 2756   2.560   0.739   2.984  0.1584 -0.3310 -0.2697
  690SOL     OW 2757   2.074   0.942   1.908 -0.0415 -0.3749 -0.3687
  690SOL    HW1 2758   2.041   0.849   1.915 -0.2321  0.9838 -3.4276
  690SOL    HW2 2759   2.096   0.958   1.816  3.6913 -2.0818  0.7269
  690SOL     MW 2760   2.073   0.932   1.897  0.4259 -0.4209 -0.6277
  691SOL     OW 2761   2.426   0.251   0.867 -0.0992  0.0148  0.2697
  691SOL    HW1 2762   2.499   0.299   0.904 -0.3590  0.8028 -0.8090
  691SOL    HW2 2763   2.353   0.309   0.852  1.4465  1.1243  1.1621
  691SOL     MW 2764   2.426   0.265   0.870  0.0705  0.2652  0.2451
  692SOL     OW 2765   2.786   1.641   1.465 -0.6538  1.0471  0.2588
  692SOL    HW1 2766   2.794   1.589   1.548  0.2683 -0.6997 -0.5871
  692SOL    HW2 2767   2.826   1.724   1.495 -0.6233  0.1035 -4.8884
  692SOL     MW 2768   2.793   1.645   1.480 -0.5281  0.6921 -0.5320
  693SOL     OW 2769   2.307   0.468   0.087 -0.7477 -0.1573 -0.0010
  693SOL    HW1 2770   2.227   0.417   0.065 -1.9005 -1.5251  0.4332
  693SOL    HW2 2771   2.288   0.554   0.034 -2.5350 -1.4943  2.7618
  693SOL     MW 2772   2.294   0.472   0.077 -1.1356 -0.5142  0.4208
  694SOL     OW 2773   1.903   1.212   1.128 -0.6514  0.4441  0.4125
  694SOL    HW1 2774   2.000   1.198   1.142  0.4522 -0.7060  0.3062
  694SOL    HW2 2775   1.861   1.139   1.177  0.8540  1.4479 -0.7328
  694SOL     MW 2776   1.910   1.200   1.136 -0.3072  0.4248  0.2474
  695SOL     OW 2777   3.024   1.473   1.367  0.0613  0.3062 -0.2472
  695SOL    HW1 2778   3.015   1.460   1.273  0.3108  0.5379  1.7203
  695SOL    HW2 2779   2.957   1.534   1.388  1.7162 -1.5984  0.1019
  695SOL     MW 2780   3.014   1.479   1.357  0.3126  0.0854  0.0584
  696SOL     OW 2781   2.133   1.372   0.883  0.4125  0.1819 -0.2709
  696SOL    HW1 2782   2.173   1.405   0.969 -2.1016 -1.0025 -2.2904
  696SOL    HW2 2783   2.091   1.289   0.903 -0.8671  1.3308  1.4159
  696SOL     MW 2784   2.133   1.365   0.897 -0.0880  0.1772 -0.3148
  697SOL     OW 2785   2.938   1.094   2.175 -0.0177 -0.8055  0.5692
  697SOL    HW1 2786   2.866   1.146   2.180  2.4813 -0.7456 -0.6770
  697SOL    HW2 2787   2.911   1.012   2.131  2.2303  0.8591  1.0128
  697SOL     MW 2788   2.925   1.090   2.169  0.6086 -0.5780  0.4633
  698SOL     OW 2789   2.526   0.313   0.049  0.3573 -0.3439 -0.0862
  698SOL    HW1 2790   2.450   0.371   0.072 -1.3166 -1.6381 -0.3994
  698SOL    HW2 2791   2.557   0.261   0.130  1.0968 -2.3798  0.8132
  698SOL     MW 2792   2.520   0.314   0.063  0.2340 -0.7833 -0.0088
  699SOL     OW 2793   1.847   1.626   1.990 -0.0730 -0.2884  0.1669
  699SOL    HW1 2794   1.831   1.535   1.986  3.2894  3.6332 -0.9753
  699SOL    HW2 2795   1.940   1.625   1.999 -2.5552 -3.9350  0.1926
  699SOL     MW 2796   1.857   1.614   1.990  0.0431 -0.2521  0.0196
  700SOL     OW 2797   2.706   0.944   1.489 -0.0131  0.1649 -0.0310
  700SOL    HW1 2798   2.762   1.009   1.441 -2.8148  0.9225 -4.0624
  700SOL    HW2 2799   2.751   0.859   1.497  2.8888 -0.4245 -0.8681
  700SOL     MW 2800   2.719   0.942   1.484  0.0001  0.1871 -0.6734
  701SOL     OW 2801   1.615   1.240   2.480  0.0106 -0.1321 -0.4558
  701SOL    HW1 2802   1.714   1.251   2.468  0.8554  1.4986 -1.0349
  701SOL    HW2 2803   1.591   1.264   2.568  1.7109 -3.8242  0.5679
  701SOL     MW 2804   1.625   1.245   2.490  0.3464 -0.4041 -0.3971
  702SOL     OW 2805   2.203   0.429   0.873 -0.3089 -0.3323  0.0977
  702SOL    HW1 2806   2.166   0.373   0.800 -1.6474 -0.1857 -1.8203
  702SOL    HW2 2807   2.253   0.500   0.833 -1.4498  0.7190  0.0998
  702SOL     MW 2808   2.204   0.431   0.858 -0.6361 -0.1743 -0.1551
  703SOL     OW 2809   2.745   1.236   0.997  0.0664  0.1064  0.1110
  703SOL    HW1 2810   2.698   1.250   0.911 -1.3176 -0.5402 -0.2132
  703SOL    HW2 2811   2.756   1.146   1.009  0.3278 -0.3047 -0.3624
  703SOL     MW 2812   2.740   1.226   0.988 -0.0817 -0.0332  0.0058
  704SOL     OW 2813   3.094   1.275   0.209 -0.3957 -0.0685 -0.4865
  704SOL    HW1 2814   3.036   1.212   0.156 -3.3376 -0.8363  1.0266
  704SOL    HW2 2815   3.085   1.239   0.293 -2.1844  0.4025 -4.3674
  704SOL     MW 2816   3.085   1.262   0.213 -1.0198 -0.1077 -0.7989
  705SOL     OW 2817   2.217   1.640   1.329  0.0486  0.4356 -0.2257
  705SOL    HW1 2818   2.115   1.643   1.352 -1.9238  1.3699 -1.2511
  705SOL    HW2 2819   2.261   1.567   1.377  0.3555 -3.7280 -0.1029
  705SOL     MW 2820   2.210   1.631   1.338 -0.1711  0.0095 -0.3448
  706SOL     OW 2821   2.963   1.215   0.692  0.8018 -0.1678 -0.0349
  706SOL    HW1 2822   3.032   1.205   0.623 -1.0258  1.3658  0.5119
  706SOL    HW2 2823   2.942   1.312   0.691  0.2353 -1.3807 -0.1070
  706SOL     MW 2824   2.969   1.226   0.683  0.4859 -0.1255  0.0277
  707SOL     OW 2825   2.416   0.028   1.003  0.5582 -0.1086  0.5065
  707SOL    HW1 2826   2.416   0.111   0.957 -1.3629 -0.5508  1.9769
  707SOL    HW2 2827   2.337  -0.012   0.980  0.9923 -0.0962  2.5805
  707SOL     MW 2828   2.405   0.034   0.994  0.3620 -0.1653  0.9742
  708SOL     OW 2829   2.524   1.483   0.124 -0.6405 -0.3727  0.1907
  708SOL    HW1 2830   2.593   1.419   0.136  0.2035 -0.0341  1.4123
  708SOL    HW2 2831   2.509   1.478   0.031  0.3516 -0.0054 -2.7959
  708SOL     MW 2832   2.531   1.474   0.113 -0.3983 -0.2796 -0.0421
  709SOL     OW 2833   1.754   1.671   0.133  0.4741 -0.7764  0.8069
  709SOL    HW1 2834   1.723   1.656   0.042 -0.8271  0.6589 -3.7011
  709SOL    HW2 2835   1.668   1.692   0.176 -0.9110 -1.7777  0.6863
  709SOL     MW 2836   1.738   1.672   0.127  0.1197 -0.7191  0.1962
  710SOL     OW 2837   2.183   1.182   1.232  0.6246 -0.0793  0.6627
  710SOL    HW1 2838   2.255   1.164   1.171  0.7579 -0.0095  0.7660
  710SOL    HW2 2839   2.183   1.108   1.297 -1.0595 -3.1200  0.2165
  710SOL     MW 2840   2.192   1.170   1.232  0.4200 -0.4712  0.6174
  711SOL     OW 2841   2.354   0.120   1.782 -0.1181  0.0846 -0.1367
  711SOL    HW1 2842   2.447   0.119   1.792 -1.8188 -0.7225  0.0773
  711SOL    HW2 2843   2.335   0.132   1.690 -1.1555 -5.4570  2.4338
  711SOL     MW 2844   2.364   0.122   1.771 -0.4793 -0.7531  0.2307
  712SOL     OW 2845   1.916   0.531   0.032  0.2205 -0.2422  0.4770
  712SOL    HW1 2846   1.851   0.555  -0.034 -0.6762 -2.0653  0.7489
  712SOL    HW2 2847   1.903   0.601   0.099  1.3450 -2.6455 -1.1439
  712SOL     MW 2848   1.906   0.543   0.032  0.2506 -0.7998  0.2990
  713SOL     OW 2849   2.585   0.806   1.101 -0.1651 -0.1443 -0.1173
  713SOL    HW1 2850   2.615   0.720   1.143 -0.5826 -4.5024 -1.6119
  713SOL    HW2 2851   2.506   0.833   1.149  0.7439 -2.2983  0.7817
  713SOL     MW 2852   2.579   0.798   1.113 -0.1002 -1.0035 -0.1959
  714SOL     OW 2853   2.203   0.223   1.982 -0.3547 -0.1192  0.5214
  714SOL    HW1 2854   2.224   0.213   2.077  1.4573 -0.2260 -2.9594
  714SOL    HW2 2855   2.276   0.199   1.921  2.7013  2.1540  0.5544
  714SOL     MW 2856   2.215   0.219   1.987  0.2876  0.1666  0.0665
  715SOL     OW 2857   1.727   1.948   1.671  0.2187  0.2037 -0.0182
  715SOL    HW1 2858   1.817   1.915   1.660 -1.4892  3.0715  1.5994
  715SOL    HW2 2859   1.672   1.870   1.692 -1.1807  0.6017  0.6778
  715SOL     MW 2860   1.732   1.933   1.672 -0.1913  0.6346  0.2870
  716SOL     OW 2861   2.339   0.630   0.722 -0.2033  0.4905 -0.8580
  716SOL    HW1 2862   2.391   0.559   0.684 -0.1451  0.5021 -0.9702
  716SOL    HW2 2863   2.275   0.657   0.656 -2.8314  0.1403  0.7280
  716SOL     MW 2864   2.337   0.624   0.708 -0.5423  0.4458 -0.6635
  717SOL     OW 2865   2.890   1.502   2.926  0.2130  0.2769  0.2349
  717SOL    HW1 2866   2.984   1.493   2.935  0.3656  1.4271  0.7071
  717SOL    HW2 2867   2.861   1.571   2.989 -1.2570  1.0827 -0.1778
  717SOL     MW 2868   2.899   1.510   2.935  0.0392  0.5350  0.2427
  718SOL     OW 2869   2.607   1.371   1.353  0.6178  0.1282  0.0539
  718SOL    HW1 2870   2.631   1.420   1.425  0.0778  1.2840 -1.7630
  718SOL    HW2 2871   2.676   1.310   1.344  1.2395  1.9943 -0.8642
  718SOL     MW 2872   2.619   1.369   1.361  0.6285  0.5269 -0.3069
  719SOL     OW 2873   2.230   1.351   0.618 -0.6095 -0.0686  0.0226
  719SOL    HW1 2874   2.320   1.338   0.583 -0.4273  0.9965 -1.4930
  719SOL    HW2 2875   2.232   1.382   0.707 -0.1882 -2.8131  1.7264
  719SOL     MW 2876   2.242   1.353   0.625 -0.5299 -0.2902  0.0475
  720SOL     OW 2877   2.884   1.148   0.076 -0.6468 -0.2368 -0.7824
  720SOL    HW1 2878   2.839   1.067   0.112  0.2288 -2.3810 -0.2216
  720SOL    HW2 2879   2.840   1.225   0.125 -1.5673  1.1650  2.7958
  720SOL     MW 2880   2.873   1.148   0.087 -0.6527 -0.3347 -0.2363
  721SOL     OW 2881   2.435   0.897   1.354 -0.3459 -0.5273  0.2505
  721SOL    HW1 2882   2.432   0.802   1.378 -0.0004 -0.1704  1.3581
  721SOL    HW2 2883   2.523   0.924   1.368 -1.0435 -3.5978 -3.8072
  721SOL     MW 2884   2.446   0.888   1.359 -0.3924 -0.8853 -0.1387
  722SOL     OW 2885   2.575   1.148   0.370 -0.5687  0.3336 -0.1741
  722SOL    HW1 2886   2.530   1.220   0.410  1.0634  1.9272 -1.3371
  722SOL    HW2 2887   2.650   1.130   0.434  1.6562 -1.2707  1.9503
  722SOL     MW 2888   2.579   1.155   0.384 -0.0598  0.3322 -0.0472
  723SOL     OW 2889   2.261   1.412   1.634 -0.1097  0.1093  0.9709
  723SOL    HW1 2890   2.255   1.402   1.539  1.9587 -0.1670 -1.3402
  723SOL    HW2 2891   2.216   1.495   1.650  0.8054  0.7770 -1.0756
  723SOL     MW 2892   2.254   1.422   1.624  0.2840  0.1610  0.3960
  724SOL     OW 2893   2.481   0.404   0.629 -0.4909 -0.3090  0.1338
  724SOL    HW1 2894   2.458   0.325   0.677 -0.5786  1.6273  0.1519
  724SOL    HW2 2895   2.574   0.411   0.643  0.5108 -1.0500  0.1771
  724SOL     MW 2896   2.490   0.394   0.637 -0.3703 -0.1513  0.1419
  725SOL     OW 2897   2.553   0.524   1.172  0.3477  0.2703  0.6658
  725SOL    HW1 2898   2.603   0.548   1.251  0.5400  1.7363 -5.1397
  725SOL    HW2 2899   2.462   0.512   1.190  0.0697  3.0786  2.5919
  725SOL     MW 2900   2.547   0.526   1.185  0.3364  0.8343  0.1539
  726SOL     OW 2901   2.586   2.454   0.537  0.2759 -0.4346 -0.3697
  726SOL    HW1 2902   2.530   2.522   0.502  0.3286 -2.6053  0.2161
  726SOL    HW2 2903   2.525   2.393   0.567 -0.6889  3.6030 -1.2577
  726SOL     MW 2904   2.571   2.455   0.537  0.1556 -0.1883 -0.4096
  727SOL     OW 2905   2.889   0.302   1.626 -0.5252 -0.1841  0.3684
  727SOL    HW1 2906   2.884   0.299   1.533  0.1162  2.1176 -1.1469
  727SOL    HW2 2907   2.797   0.300   1.648 -0.1254  1.2411 -1.0620
  727SOL     MW 2908   2.876   0.301   1.617 -0.3878  0.3077 -0.0203
  728SOL     OW 2909   2.807   1.138   2.912 -0.2262  0.4996 -0.3103
  728SOL    HW1 2910   2.816   1.213   2.853  1.1183 -1.4682 -0.1386
  728SOL    HW2 2911   2.841   1.152   3.002  1.7610 -0.9849 -0.8678
  728SOL     MW 2912   2.813   1.150   2.916  0.2134  0.0441 -0.3612
  729SOL     OW 2913   2.554   1.551   1.092  0.0105 -0.2603  0.5531
  729SOL    HW1 2914   2.621   1.500   1.137  0.4193  1.0547  1.4000
  729SOL    HW2 2915   2.571   1.534   0.992  0.3623  0.2786  1.4276
  729SOL     MW 2916   2.565   1.542   1.085  0.1108 -0.0157  0.7802
  730SOL     OW 2917   2.143   1.181   0.236 -0.0292  0.3520  0.0879
  730SOL    HW1 2918   2.233   1.168   0.207  2.2489 -0.3957 -2.2686
  730SOL    HW2 2919   2.130   1.277   0.240 -1.3180 -0.8004 -0.5027
  730SOL     MW 2920   2.153   1.192   0.233  0.1013  0.1013 -0.3009
  731SOL     OW 2921   2.863   1.897   2.883  0.2755 -0.2336  0.4133
  731SOL    HW1 2922   2.783   1.920   2.821 -1.8574  1.0043 -3.1415
  731SOL    HW2 2923   2.918   1.978   2.872 -0.4852  0.8753 -0.4863
  731SOL     MW 2924   2.860   1.911   2.874 -0.1063  0.0760 -0.1744
  732SOL     OW 2925   2.171   0.937   1.381 -0.2939  0.4651 -0.0952
  732SOL    HW1 2926   2.140   0.922   1.470 -1.7411  0.8535  0.0805
  732SOL    HW2 2927   2.266   0.941   1.382  1.8718  2.6447 -2.9672
  732SOL     MW 2928   2.179   0.936   1.393 -0.1991  0.8039 -0.4510
  733SOL     OW 2929   2.330   2.805   3.024 -0.2489 -0.2752  0.8283
  733SOL    HW1 2930   2.246   2.851   3.023  1.9207  0.2405 -1.9906
  733SOL    HW2 2931   2.310   2.708   3.031 -0.9883 -0.4355 -0.5974
  733SOL     MW 2932   2.316   2.799   3.025 -0.0602 -0.2283  0.2683
  734SOL     OW 2933   1.502   0.367   2.457  0.1760  0.8494 -0.0026
  734SOL    HW1 2934   1.484   0.330   2.542  1.9842 -3.4029  0.5791
  734SOL    HW2 2935   1.517   0.284   2.403 -1.6264 -0.8003  0.2268
  734SOL     MW 2936   1.501   0.351   2.461  0.1768  0.0706  0.1044
  735SOL     OW 2937   2.944   0.942   2.586 -0.1507 -0.1017 -0.3048
  735SOL    HW1 2938   2.943   0.842   2.579 -2.4864  1.3316  1.3159
  735SOL    HW2 2939   2.994   0.955   2.665  1.1922 -1.6868 -0.1583
  735SOL     MW 2940   2.951   0.931   2.596 -0.2817 -0.1217 -0.0716
  736SOL     OW 2941   0.134   0.580   2.551  0.2089 -0.2851  0.1020
  736SOL    HW1 2942   0.168   0.652   2.496  1.6547  2.2952 -1.8799
  736SOL    HW2 2943   0.103   0.517   2.483  0.0092  1.5522 -1.6047
  736SOL     MW 2944   0.134   0.581   2.535  0.3733  0.2978 -0.3847
  737SOL     OW 2945   2.934   0.673   2.609  0.2828  0.1685 -0.6230
  737SOL    HW1 2946   2.887   0.635   2.534  2.3858  0.2471 -2.3673
  737SOL    HW2 2947   3.028   0.657   2.598  0.7885  1.5224 -1.3886
  737SOL     MW 2948   2.941   0.666   2.598  0.6270  0.3575 -0.9541
  738SOL     OW 2949   0.222   0.559   1.900  0.4047  0.6750 -0.0325
  738SOL    HW1 2950   0.298   0.606   1.927 -1.4802 -0.2136 -0.0191
  738SOL    HW2 2951   0.245   0.467   1.870  0.2315 -1.8773 -1.2389
  738SOL     MW 2952   0.235   0.553   1.899  0.1332  0.2210 -0.1899
  739SOL     OW 2953   2.424   1.045   2.130 -0.3532  0.2065  0.1298
  739SOL    HW1 2954   2.388   0.964   2.096 -3.0907  0.7720 -0.9294
  739SOL    HW2 2955   2.492   1.076   2.071  1.6326 -2.9453  1.1459
  739SOL     MW 2956   2.428   1.039   2.118 -0.4524 -0.1348  0.1241
  740SOL     OW 2957   0.186   1.774   2.990  0.5791 -0.4125  0.1604
  740SOL    HW1 2958   0.133   1.693   2.969 -0.2926  0.1267 -1.2962
  740SOL    HW2 2959   0.279   1.759   3.008  1.3614  1.7751 -0.0678
  740SOL     MW 2960   0.191   1.761   2.990  0.5673 -0.0527 -0.0619
  741SOL     OW 2961   2.265   1.292   2.697  0.1330 -0.3938  0.0738
  741SOL    HW1 2962   2.195   1.319   2.638  0.6215  0.7419 -2.1156
  741SOL    HW2 2963   2.247   1.335   2.782  1.0311 -0.2139  1.1352
  741SOL     MW 2964   2.253   1.301   2.701  0.3160 -0.2202 -0.0750
  742SOL     OW 2965   1.570   1.283   2.227  0.0187 -0.7344 -0.3254
  742SOL    HW1 2966   1.555   1.191   2.202  0.9069 -1.6462  0.5748
  742SOL    HW2 2967   1.602   1.284   2.317  1.2786  0.4765  0.8138
  742SOL     MW 2968   1.572   1.271   2.235  0.3021 -0.6949 -0.0563
  743SOL     OW 2969   2.536   1.262   2.803 -0.0806  0.5562 -0.0727
  743SOL    HW1 2970   2.445   1.279   2.766 -1.5960 -0.8698  2.2672
  743SOL    HW2 2971   2.543   1.170   2.807 -0.3716 -3.8649 -0.0107
  743SOL     MW 2972   2.525   1.252   2.798 -0.3189 -0.2153  0.2442
  744SOL     OW 2973   2.746   0.989   1.777  0.2191 -0.9683  0.0724
  744SOL    HW1 2974   2.695   1.065   1.817 -2.1121  0.0642  0.3650
  744SOL    HW2 2975   2.711   0.972   1.687 -0.8712 -1.7183  1.2239
  744SOL     MW 2976   2.735   0.997   1.771 -0.2323 -0.9311  0.2629
  745SOL     OW 2977   1.780   0.416   2.505 -0.5745 -0.1864  0.2928
  745SOL    HW1 2978   1.811   0.453   2.420  1.6463  1.2288  1.1519
  745SOL    HW2 2979   1.686   0.409   2.486  1.8217  0.4922 -0.5608
  745SOL     MW 2980   1.771   0.420   2.491  0.0346  0.0898  0.2935
  746SOL     OW 2981   1.479   1.435   1.684 -0.2353 -0.2504 -1.0286
  746SOL    HW1 2982   1.547   1.499   1.703  0.5749 -1.7204 -0.6794
  746SOL    HW2 2983   1.472   1.373   1.758 -3.6323  1.2812  2.0111
  746SOL     MW 2984   1.487   1.435   1.696 -0.5766 -0.2423 -0.5815
  747SOL     OW 2985   2.558   1.154   1.887 -0.9246  0.6521 -0.1701
  747SOL    HW1 2986   2.489   1.154   1.824  2.6992 -0.6932 -0.6927
  747SOL    HW2 2987   2.579   1.247   1.900 -0.8904  0.0988 -0.2086
  747SOL     MW 2988   2.552   1.167   1.880 -0.4420  0.4016 -0.2441
  748SOL     OW 2989   0.091   0.035   1.860 -0.0306  1.0080 -0.6094
  748SOL    HW1 2990   0.183   0.046   1.859  0.8116  0.3324 -0.1134
  748SOL    HW2 2991   0.059   0.096   1.928  0.4823  1.4779  2.1171
  748SOL     MW 2992   0.099   0.044   1.869  0.1482  0.9809 -0.1842
  749SOL     OW 2993   2.410   0.529   2.778  0.4871 -0.0221  0.3083
  749SOL    HW1 2994   2.438   0.617   2.764  2.4648  0.2390 -0.5779
  749SOL    HW2 2995   2.407   0.502   2.874 -0.8009 -2.5557  3.5790
  749SOL     MW 2996   2.413   0.537   2.789  0.5781 -0.3219  0.6229
  750SOL     OW 2997   2.047   3.096   1.952  0.2029  0.7195 -0.3202
  750SOL    HW1 2998   2.113   3.164   1.957  0.0661 -1.5146  1.5019
  750SOL    HW2 2999   2.098   3.016   1.961  3.3842 -0.9144 -0.4992
  750SOL     MW 3000   2.062   3.094   1.954  0.6046  0.2091 -0.1034
  751SOL     OW 3001   0.023   0.435   2.338  0.1090 -0.3982 -0.8630
  751SOL    HW1 3002  -0.036   0.363   2.333 -0.1513  1.5675  1.0215
  751SOL    HW2 3003   0.095   0.418   2.270 -0.2363 -0.1233 -4.2450
  751SOL     MW 3004   0.025   0.423   2.328  0.0291 -0.1026 -1.0605
  752SOL     OW 3005   2.135   0.866   2.714  0.2511  0.1575 -0.5497
  752SOL    HW1 3006   2.211   0.914   2.682  1.4563 -0.1476  1.5780
  752SOL    HW2 3007   2.134   0.879   2.809  2.6714 -1.9085 -0.5769
  752SOL     MW 3008   2.145   0.874   2.722  0.7294 -0.1554 -0.2726
  753SOL     OW 3009   2.864   0.320   2.323  0.3641 -0.6910 -0.4339
  753SOL    HW1 3010   2.790   0.261   2.302 -1.7643  2.0897  0.1925
  753SOL    HW2 3011   2.816   0.395   2.364 -0.9530 -1.0814 -2.2896
  753SOL     MW 3012   2.848   0.322   2.326 -0.0905 -0.3756 -0.5961
  754SOL     OW 3013   2.217   3.023   2.665  0.2858  0.0361  0.1586
  754SOL    HW1 3014   2.223   3.021   2.567 -0.1389  1.5400  1.4034
  754SOL    HW2 3015   2.291   2.971   2.701 -1.1954  1.8400 -1.5308
  754SOL     MW 3016   2.228   3.016   2.657  0.0343  0.4726  0.1000
  755SOL     OW 3017   2.765   1.568   2.489 -0.1982 -0.2417  0.0807
  755SOL    HW1 3018   2.774   1.475   2.497 -0.6001  0.3086 -0.0156
  755SOL    HW2 3019   2.772   1.597   2.577  1.3656  0.0144 -1.4248
  755SOL     MW 3020   2.767   1.560   2.501 -0.0449 -0.1353 -0.1307
  756SOL     OW 3021   2.257   1.292   3.003 -0.1507  0.0734 -0.3836
  756SOL    HW1 3022   2.327   1.349   3.023 -0.7891 -1.7730 -0.5061
  756SOL    HW2 3023   2.304   1.208   3.011  0.7709  1.0309  1.0615
  756SOL     MW 3024   2.272   1.288   3.007 -0.1133 -0.0439 -0.2091
  757SOL     OW 3025   2.125   0.957   1.664 -0.2978 -0.1110  0.3564
  757SOL    HW1 3026   2.160   0.866   1.648 -0.3166  0.5906  0.0841
  757SOL    HW2 3027   2.029   0.951   1.654  0.1567  0.9563  0.8103
  757SOL     MW 3028   2.117   0.944   1.661 -0.2403  0.1224  0.3803
  758SOL     OW 3029   2.229   1.770   2.685 -0.5542 -0.5952 -0.3661
  758SOL    HW1 3030   2.216   1.787   2.591  4.7233  0.3368 -0.6565
  758SOL    HW2 3031   2.329   1.758   2.686 -0.4998 -1.0867  0.1991
  758SOL     MW 3032   2.240   1.770   2.673  0.1493 -0.5371 -0.3298
  759SOL     OW 3033   1.560   1.326   2.722  0.2624 -0.6681 -0.1457
  759SOL    HW1 3034   1.565   1.418   2.687 -1.3033  2.4169  0.9204
  759SOL    HW2 3035   1.630   1.311   2.783 -2.6335  2.6826  0.4828
  759SOL     MW 3036   1.570   1.336   2.726 -0.3263  0.1811  0.0779
  760SOL     OW 3037   2.634   1.939   2.707 -0.7680 -0.5373  0.1688
  760SOL    HW1 3038   2.575   1.870   2.675 -4.8437 -2.3716 -0.8894
  760SOL    HW2 3039   2.695   1.942   2.634 -0.7548  1.9214 -1.5420
  760SOL     MW 3040   2.634   1.930   2.693 -1.3040 -0.4549 -0.1965
  761SOL     OW 3041   2.105   0.448   2.459 -0.0306  0.5504  0.7407
  761SOL    HW1 3042   2.043   0.369   2.483 -0.6737 -2.5046 -2.3163
  761SOL    HW2 3043   2.137   0.487   2.546  0.9478  0.6301 -0.0135
  761SOL     MW 3044   2.101   0.443   2.474  0.0137  0.1578  0.2378
  762SOL     OW 3045   3.088   0.184   2.044  0.6195  0.0810 -0.2795
  762SOL    HW1 3046   3.079   0.139   2.130 -2.6150 -2.2853  0.4521
  762SOL    HW2 3047   3.039   0.269   2.044 -1.5660  0.6322 -2.8375
  762SOL     MW 3048   3.080   0.189   2.055 -0.0956 -0.1585 -0.5205
  763SOL     OW 3049   2.379   1.142   2.373 -0.3580 -0.1474 -0.0524
  763SOL    HW1 3050   2.405   1.096   2.291  1.3516  1.2552 -1.4541
  763SOL    HW2 3051   2.447   1.203   2.399 -0.1044 -0.4445 -1.5366
  763SOL     MW 3052   2.391   1.144   2.366 -0.0990 -0.0016 -0.4332
  764SOL     OW 3053   0.343   0.184   2.828  0.5821  0.0988 -0.1818
  764SOL    HW1 3054   0.260   0.192   2.784 -0.5581 -1.8872  2.1752
  764SOL    HW2 3055   0.343   0.257   2.896  0.4769  0.9353  0.3369
  764SOL     MW 3056   0.332   0.194   2.831  0.4178 -0.0529  0.1976
  765SOL     OW 3057   2.685   0.115   2.302 -0.0401 -0.2711 -0.2369
  765SOL    HW1 3058   2.644   0.103   2.217 -1.9077 -1.9613 -1.0906
  765SOL    HW2 3059   2.734   0.034   2.308 -0.1995  0.9475  0.6497
  765SOL     MW 3060   2.686   0.103   2.291 -0.3075 -0.3333 -0.2325
  766SOL     OW 3061   1.849   3.023   2.148  0.2160  0.0456 -0.2987
  766SOL    HW1 3062   1.882   3.087   2.084 -0.5004 -0.6935  0.3311
  766SOL    HW2 3063   1.806   2.958   2.089  1.3681  0.8505 -1.5139
  766SOL     MW 3064   1.848   3.023   2.132  0.2735  0.0543 -0.3760
  767SOL     OW 3065   2.681   0.629   1.874 -0.0388  0.7936  0.7982
  767SOL    HW1 3066   2.716   0.702   1.918 -0.6422  2.1028 -1.0554
  767SOL    HW2 3067   2.588   0.649   1.886  1.2839 -0.1360 -2.3446
  767SOL     MW 3068   2.673   0.641   1.881  0.0561  0.8437  0.1389
  768SOL     OW 3069   0.060   1.551   2.953 -0.1888  0.1597  0.1548
  768SOL    HW1 3070   0.070   1.510   3.040 -0.3998 -1.3930 -0.6791
  768SOL    HW2 3071   0.094   1.489   2.888  1.9230  1.9461  2.2597
  768SOL     MW 3072   0.066   1.538   2.956  0.0620  0.1905  0.3225
  769SOL     OW 3073   2.366   0.655   2.361 -0.7142  0.4897 -0.5403
  769SOL    HW1 3074   2.291   0.623   2.314  1.8095  0.0594  1.4631
  769SOL    HW2 3075   2.433   0.613   2.308  0.9854  0.3370  1.2008
  769SOL     MW 3076   2.365   0.645   2.348 -0.1570  0.4128 -0.0463
  770SOL     OW 3077   0.006   1.649   2.579  0.0089 -0.0107  0.2826
  770SOL    HW1 3078  -0.080   1.658   2.627  1.9906  2.1715  1.8607
  770SOL    HW2 3079   0.042   1.562   2.609  0.0856  2.5746  2.8567
  770SOL     MW 3080  -0.001   1.639   2.589  0.2805  0.6184  0.8304
  771SOL     OW 3081   3.076   0.642   1.946 -0.2328  0.3218 -0.3087
  771SOL    HW1 3082   3.046   0.576   1.876 -0.9903 -1.0780  1.0785
  771SOL    HW2 3083   3.163   0.614   1.957 -2.3900  3.2989 -0.4073
  771SOL     MW 3084   3.084   0.630   1.938 -0.6174  0.5299 -0.1387
  772SOL     OW 3085   3.098   0.046   2.285  0.0461 -0.1765  0.1991
  772SOL    HW1 3086   3.010   0.010   2.317 -3.4408 -1.2132 -0.8253
  772SOL    HW2 3087   3.142  -0.032   2.248 -2.1224 -0.9382 -1.8260
  772SOL     MW 3088   3.092   0.031   2.285 -0.7001 -0.4138 -0.2033
  773SOL     OW 3089   2.429   2.851   2.770  0.4597 -0.5394 -0.2391
  773SOL    HW1 3090   2.402   2.770   2.723 -1.6283 -1.0626 -1.1739
  773SOL    HW2 3091   2.417   2.817   2.859  2.0301 -1.5769 -1.5453
  773SOL     MW 3092   2.424   2.836   2.776  0.3914 -0.7453 -0.5348
  774SOL     OW 3093   2.289   1.170   1.745 -0.4752 -0.3360 -0.7421
  774SOL    HW1 3094   2.263   1.240   1.681 -0.0012  2.6443 -1.1775
  774SOL    HW2 3095   2.231   1.098   1.725  2.1596  0.9923  2.3318
  774SOL     MW 3096   2.278   1.170   1.734 -0.0650  0.2325 -0.3940
  775SOL     OW 3097   2.247   3.007   2.394 -0.2134  0.4167  0.4517
  775SOL    HW1 3098   2.257   3.089   2.344 -2.6888  0.9712  2.9475
  775SOL    HW2 3099   2.320   2.949   2.372 -2.3580 -1.5956  0.9380
  775SOL     MW 3100   2.258   3.010   2.385 -0.8230  0.2244  0.8452
  776SOL     OW 3101   0.139   1.472   0.119  0.0635 -0.4063  1.0817
  776SOL    HW1 3102   0.226   1.430   0.118  0.7908 -1.3898 -1.7278
  776SOL    HW2 3103   0.078   1.398   0.139 -2.2980 -1.1220 -1.7155
  776SOL     MW 3104   0.142   1.456   0.121 -0.1521 -0.6305  0.3420
  777SOL     OW 3105   2.991   1.072   1.721  0.2904 -0.0959 -0.0851
  777SOL    HW1 3106   2.964   1.150   1.671  0.1975  1.5799 -0.3224
  777SOL    HW2 3107   2.913   1.018   1.749 -2.4592 -0.7114  0.6771
  777SOL     MW 3108   2.977   1.075   1.718 -0.0846  0.0440 -0.0159
  778SOL     OW 3109   2.825   0.456   2.756  0.2173 -0.4645  0.3676
  778SOL    HW1 3110   2.790   0.476   2.841  0.4754 -1.3755 -0.3089
  778SOL    HW2 3111   2.846   0.529   2.701 -0.2743  1.6667 -0.1135
  778SOL     MW 3112   2.823   0.468   2.760  0.1865 -0.3035  0.2149
  779SOL     OW 3113   2.108   0.550   2.188 -0.5582 -0.0047  0.3116
  779SOL    HW1 3114   2.081   0.637   2.175  0.4574 -2.3538  1.1410
  779SOL    HW2 3115   2.096   0.529   2.277 -2.3817  0.6092  1.5641
  779SOL     MW 3116   2.103   0.558   2.198 -0.6648 -0.2336  0.5862
  780SOL     OW 3117   0.107   0.242   2.700  0.6143 -0.6206  0.5700
  780SOL    HW1 3118   0.104   0.327   2.746 -1.7941 -1.1597 -1.5276
  780SOL    HW2 3119   0.037   0.240   2.633  1.9792  0.5043 -2.4806
  780SOL     MW 3120   0.097   0.253   2.697  0.4766 -0.5433 -0.1092
  781SOL     OW 3121   3.039   1.312   2.512 -0.2037  0.1294 -0.0254
  781SOL    HW1 3122   3.019   1.366   2.435 -1.3559  1.3535  1.2092
  781SOL    HW2 3123   3.062   1.225   2.480 -0.2495  0.3398  1.2476
  781SOL     MW 3124   3.039   1.307   2.498 -0.3617  0.3186  0.3054
  782SOL     OW 3125   0.689   1.524   3.087  0.5708 -0.6089  0.2093
  782SOL    HW1 3126   0.631   1.592   3.058  0.1555 -0.9330 -0.1237
  782SOL    HW2 3127   0.670   1.517   3.181  1.7498 -0.9891  4.1442
  782SOL     MW 3128   0.679   1.532   3.096  0.6715 -0.7018  0.6845
  783SOL     OW 3129   2.716   0.533   2.434 -0.0079 -0.3038  0.1552
  783SOL    HW1 3130   2.651   0.554   2.367  1.6287 -2.0888 -0.4319
  783SOL    HW2 3131   2.661   0.488   2.505  0.6515 -0.4134 -0.3892
  783SOL     MW 3132   2.700   0.530   2.435  0.2951 -0.5538  0.0059
  784SOL     OW 3133   0.167   0.828   2.783  0.1933  0.1381 -0.3204
  784SOL    HW1 3134   0.092   0.882   2.799  1.4712 -1.5128 -3.3883
  784SOL    HW2 3135   0.240   0.888   2.747  1.5112 -1.2723 -1.2567
  784SOL     MW 3136   0.166   0.843   2.780  0.5358 -0.2658 -0.8487
  785SOL     OW 3137   0.426   0.511   2.176 -0.4270  0.3005 -0.0392
  785SOL    HW1 3138   0.467   0.521   2.092 -0.2891  0.6232  0.5286
  785SOL    HW2 3139   0.345   0.458   2.165  0.5222  0.0115 -2.5146
  785SOL     MW 3140   0.421   0.505   2.163 -0.2836  0.3050 -0.2909
  786SOL     OW 3141   1.978   0.300   2.931 -0.2824  0.2179 -0.1724
  786SOL    HW1 3142   1.985   0.390   2.970  3.5154 -1.0264 -3.3397
  786SOL    HW2 3143   1.993   0.314   2.838 -0.4838  0.1865  1.1136
  786SOL     MW 3144   1.981   0.314   2.924  0.1921  0.0496 -0.4206
  787SOL     OW 3145   2.434   0.182   2.903 -0.8519  0.7535  0.0620
  787SOL    HW1 3146   2.505   0.120   2.868  2.6608 -0.1100 -1.4088
  787SOL    HW2 3147   2.480   0.237   2.959 -1.8278  1.2019 -1.7423
  787SOL     MW 3148   2.449   0.181   2.906 -0.5172  0.6987 -0.3702
  788SOL     OW 3149   2.858   2.992   2.337  0.4542 -0.3271 -0.0508
  788SOL    HW1 3150   2.821   2.960   2.424  2.9143 -0.7902  3.2676
  788SOL    HW2 3151   2.888   2.904   2.298 -0.7244 -0.5623 -2.0542
  788SOL     MW 3152   2.857   2.976   2.343  0.6233 -0.4192  0.1227
  789SOL     OW 3153   0.091   0.161   3.058  0.0170 -0.0426  0.0508
  789SOL    HW1 3154  -0.000   0.122   3.079 -3.0636 -0.4194 -1.9603
  789SOL    HW2 3155   0.068   0.226   2.993 -0.3355  1.2727  2.1114
  789SOL     MW 3156   0.076   0.164   3.052 -0.4360  0.0813  0.0573
  790SOL     OW 3157   0.011   1.069   2.389 -0.3531 -0.0206  0.5834
  790SOL    HW1 3158  -0.044   1.001   2.429 -0.0070 -2.6500  3.5633
  790SOL    HW2 3159  -0.026   1.092   2.303 -0.5984  0.6300  0.0575
  790SOL     MW 3160  -0.001   1.063   2.383 -0.3398 -0.2817  0.9072
  791SOL     OW 3161   2.599   0.391   2.618 -0.2925 -0.0384  0.2559
  791SOL    HW1 3162   2.522   0.419   2.661  0.7697  1.2715  0.2016
  791SOL    HW2 3163   2.676   0.414   2.677  0.5824  1.0378  1.3425
  791SOL     MW 3164   2.599   0.398   2.632 -0.0369  0.2764  0.3921
  792SOL     OW 3165   2.354   0.334   2.410 -0.1514  0.4228 -0.2299
  792SOL    HW1 3166   2.264   0.360   2.404  2.3741 -2.1533 -1.2839
  792SOL    HW2 3167   2.341   0.266   2.473 -2.4203  2.5941 -1.9726
  792SOL     MW 3168   2.340   0.329   2.418 -0.1175  0.3694 -0.5989
  793SOL     OW 3169   1.908   1.153   1.943 -0.9776 -0.1754  0.0860
  793SOL    HW1 3170   1.852   1.176   1.859  0.6680  0.3792 -0.8186
  793SOL    HW2 3171   1.956   1.070   1.926  0.7082 -0.2423 -1.1633
  793SOL     MW 3172   1.907   1.145   1.930 -0.5381 -0.1111 -0.1982
  794SOL     OW 3173   1.419   2.306   0.142  0.4659 -0.1650  0.3680
  794SOL    HW1 3174   1.466   2.330   0.069  0.1741  0.8145  1.2185
  794SOL    HW2 3175   1.473   2.324   0.219 -1.3759 -2.0225 -0.4578
  794SOL     MW 3176   1.432   2.312   0.143  0.1844 -0.2808  0.3713
  795SOL     OW 3177   2.343   1.028   2.625 -0.6148 -0.3147  0.6594
  795SOL    HW1 3178   2.329   1.125   2.657 -1.0266  0.1126  0.4981
  795SOL    HW2 3179   2.348   1.052   2.532 -0.9546  0.4683 -1.7668
  795SOL     MW 3180   2.342   1.044   2.617 -0.7140 -0.1550  0.3180
  796SOL     OW 3181   0.305   0.574   2.795  0.1490 -0.1021  0.2480
  796SOL    HW1 3182   0.287   0.671   2.780  1.1615  1.4446 -0.7329
  796SOL    HW2 3183   0.247   0.540   2.728  0.1621  4.5397  0.7149
  796SOL     MW 3184   0.295   0.582   2.784  0.2843  0.7144  0.1802
  797SOL     OW 3185   2.633   0.138   2.599 -0.3995  0.2592 -0.3177
  797SOL    HW1 3186   2.617   0.228   2.605  0.7936 -0.4379  1.8583
  797SOL    HW2 3187   2.640   0.139   2.511 -1.0319  2.0517 -0.0883
  797SOL     MW 3188   2.632   0.150   2.588 -0.3255  0.4037 -0.0003
  798SOL     OW 3189   2.301   0.136   2.222  0.2289  0.0469  0.1349
  798SOL    HW1 3190   2.331   0.219   2.264  0.5269  1.6698  0.9559
  798SOL    HW2 3191   2.364   0.109   2.151  0.7661  0.6489 -1.9746
  798SOL     MW 3192   2.313   0.144   2.218  0.3391  0.3405 -0.0351
  799SOL     OW 3193   2.543   2.933   3.098 -0.1975  0.3635 -0.8421
  799SOL    HW1 3194   2.469   2.877   3.071 -0.8851 -1.7083  2.8969
  799SOL    HW2 3195   2.539   3.020   3.064  0.8502 -1.3708  0.8618
  799SOL     MW 3196   2.533   2.937   3.090 -0.1500 -0.1387 -0.1239
  800SOL     OW 3197   1.976   3.093   1.684 -0.2008 -0.1884  0.5089
  800SOL    HW1 3198   1.892   3.051   1.677 -0.8434  0.6372 -0.1270
  800SOL    HW2 3199   2.000   3.096   1.774  2.9813 -0.2978  0.1841
  800SOL     MW 3200   1.968   3.088   1.695  0.1343 -0.0939  0.3821
  801SOL     OW 3201   2.798   1.285   2.651 -0.3410 -0.0131 -0.2076
  801SOL    HW1 3202   2.741   1.204   2.647 -0.6692  0.8523  2.3104
  801SOL    HW2 3203   2.881   1.278   2.601 -0.0316  0.7907 -0.6927
  801SOL     MW 3204   2.802   1.274   2.644 -0.3435  0.2072  0.0606
  802SOL     OW 3205   2.620   1.521   2.765  0.7777  0.0387 -0.2525
  802SOL    HW1 3206   2.625   1.423   2.741 -0.6475 -1.3165  1.7036
  802SOL    HW2 3207   2.705   1.539   2.809 -1.1586  1.4069 -1.7651
  802SOL     MW 3208   2.632   1.511   2.768  0.3342  0.0404 -0.1940
  803SOL     OW 3209   2.303   1.342   1.970  0.3000 -0.0929  0.1443
  803SOL    HW1 3210   2.262   1.302   2.050 -0.0441 -3.4530  1.5507
  803SOL    HW2 3211   2.297   1.268   1.908 -0.5113 -0.4912  0.0714
  803SOL     MW 3212   2.297   1.327   1.972  0.1476 -0.5888  0.3203
  804SOL     OW 3213   2.303   0.043   0.019  0.0709 -0.2136 -0.4072
  804SOL    HW1 3214   2.241   0.123   0.039  0.0829 -1.2330 -1.0996
  804SOL    HW2 3215   2.338   0.062  -0.070 -1.7853 -1.4786 -1.3706
  804SOL     MW 3216   2.300   0.056   0.010 -0.1724 -0.5150 -0.6256
  805SOL     OW 3217   2.685   1.047   2.571 -0.0281 -0.2787  0.3928
  805SOL    HW1 3218   2.643   0.986   2.509 -1.4311  2.9263 -2.0158
  805SOL    HW2 3219   2.769   1.002   2.593 -1.5847  0.2023  1.8920
  805SOL     MW 3220   2.690   1.033   2.565 -0.4186  0.2076  0.2728
  806SOL     OW 3221   2.537   0.509   2.193 -0.1530 -1.1548  0.2353
  806SOL    HW1 3222   2.509   0.421   2.213 -0.3620  1.0573 -1.7534
  806SOL    HW2 3223   2.505   0.519   2.101 -0.9782 -1.3078 -0.6352
  806SOL     MW 3224   2.529   0.499   2.184 -0.2895 -0.8831 -0.1420
  807SOL     OW 3225   0.025   1.172   1.983  0.4196 -0.2167 -0.2026
  807SOL    HW1 3226   0.024   1.083   1.945 -0.5486 -1.7687  1.3387
  807SOL    HW2 3227  -0.042   1.160   2.042 -0.0515  1.3621 -2.5991
  807SOL     MW 3228   0.016   1.159   1.986  0.2297 -0.2132 -0.3154
  808SOL     OW 3229   2.589   3.072   2.816 -0.6844 -0.4134 -0.2052
  808SOL    HW1 3230   2.542   2.985   2.799  1.1748  0.2728 -1.1388
  808SOL    HW2 3231   2.595   3.115   2.726 -1.3723 -2.0587 -1.6959
  808SOL     MW 3232   2.584   3.067   2.802 -0.5299 -0.5399 -0.5251
  809SOL     OW 3233   2.601   1.320   2.429 -0.5306 -0.4221 -0.1753
  809SOL    HW1 3234   2.657   1.291   2.504 -1.0040 -2.3718 -0.6312
  809SOL    HW2 3235   2.657   1.311   2.354  0.1314  2.8989  0.9767
  809SOL     MW 3236   2.616   1.315   2.429 -0.5057 -0.2412 -0.0835
  810SOL     OW 3237   2.190   1.283   2.230 -0.3411 -0.1229  0.0102
  810SOL    HW1 3238   2.260   1.233   2.278  1.2829 -0.4838  1.4749
  810SOL    HW2 3239   2.115   1.225   2.256  0.8864 -0.1675  1.4794
  810SOL     MW 3240   2.189   1.268   2.240  0.0351 -0.1764  0.3973
  811SOL     OW 3241   1.562   0.141   2.329  0.1359 -0.1989  0.1015
  811SOL    HW1 3242   1.621   0.079   2.372 -1.8311  1.7794  0.9233
  811SOL    HW2 3243   1.558   0.113   2.235 -1.2921  1.9899 -1.3775
  811SOL     MW 3244   1.569   0.129   2.322 -0.3121  0.3509  0.0148
  812SOL     OW 3245   1.473   2.860   2.057  0.1993  0.4950  0.9154
  812SOL    HW1 3246   1.554   2.857   2.012 -1.9830  0.9406  1.5236
  812SOL    HW2 3247   1.481   2.807   2.136  1.5394 -0.0845 -1.8975
  812SOL     MW 3248   1.485   2.852   2.061  0.0882  0.4774  0.6245
  813SOL     OW 3249   1.879   0.733   2.202  0.0094 -0.0793 -0.6105
  813SOL    HW1 3250   1.796   0.679   2.205  0.0531  2.3049 -2.3121
  813SOL    HW2 3251   1.892   0.772   2.290  1.9460  0.1110  1.0086
  813SOL     MW 3252   1.870   0.731   2.214  0.2707  0.2604 -0.6214
  814SOL     OW 3253   2.722   1.254   1.603  0.1893  0.0012 -0.9840
  814SOL    HW1 3254   2.647   1.194   1.609  0.0384  2.3838  1.7315
  814SOL    HW2 3255   2.759   1.236   1.521 -0.0524 -0.5651  1.8524
  814SOL     MW 3256   2.717   1.244   1.593  0.1375  0.2409 -0.2515
  815SOL     OW 3257   2.528   1.718   2.366 -0.6248 -0.9148 -0.7673
  815SOL    HW1 3258   2.469   1.656   2.334  0.0334  3.1333 -1.8899
  815SOL    HW2 3259   2.617   1.670   2.381  1.9248 -0.8629  0.0544
  815SOL     MW 3260   2.532   1.703   2.364 -0.2015 -0.3739 -0.8070
  816SOL     OW 3261   0.776   0.663   2.760  0.2843 -0.4337 -0.2510
  816SOL    HW1 3262   0.769   0.584   2.809 -1.3635  0.0752  0.2284
  816SOL    HW2 3263   0.688   0.685   2.716  0.8689 -1.3124  0.6574
  816SOL     MW 3264   0.764   0.655   2.760  0.1440 -0.4825 -0.0679
  817SOL     OW 3265   3.033   1.235   1.490  0.1380 -0.2941  0.2277
  817SOL    HW1 3266   3.124   1.205   1.496 -0.8510  0.8908 -0.6775
  817SOL    HW2 3267   3.029   1.326   1.453 -2.9834 -2.5822  0.4368
  817SOL     MW 3268   3.045   1.243   1.486 -0.4043 -0.4396  0.1359
  818SOL     OW 3269   1.900   1.011   2.659  0.3152  0.4983 -0.2269
  818SOL    HW1 3270   1.897   0.970   2.575  1.7480  1.9419 -0.2659
  818SOL    HW2 3271   1.973   0.966   2.700 -1.8802 -1.6719  0.6398
  818SOL     MW 3272   1.909   0.999   2.653  0.2146  0.4024 -0.1177
  819SOL     OW 3273   1.912   0.178   2.458 -0.6313  0.1642  0.2561
  819SOL    HW1 3274   1.850   0.243   2.468  1.0849 -2.4540 -1.5470
  819SOL    HW2 3275   1.963   0.173   2.537 -1.6097 -1.3842 -0.5833
  819SOL     MW 3276   1.910   0.186   2.470 -0.5339 -0.3855 -0.0926
  820SOL     OW 3277   2.489   1.731   2.629 -0.5981  0.2877 -0.2612
  820SOL    HW1 3278   2.524   1.653   2.679  0.0506  0.7125  1.4299
  820SOL    HW2 3279   2.508   1.719   2.535 -0.7463 -0.8284  0.1164
  820SOL     MW 3280   2.496   1.719   2.623 -0.5320  0.1965  0.0118
  821SOL     OW 3281   2.574   1.425   2.008 -0.5438 -0.6318 -0.4096
  821SOL    HW1 3282   2.611   1.465   1.926  0.4895 -2.7111 -3.6934
  821SOL    HW2 3283   2.478   1.431   2.008  2.1981 -2.4798 -1.5093
  821SOL     MW 3284   2.566   1.431   1.997 -0.0457 -1.1499 -0.9879
  822SOL     OW 3285   2.720   2.633   1.409  0.1198 -0.1860  0.9878
  822SOL    HW1 3286   2.786   2.655   1.477  2.0741  0.3881 -0.3105
  822SOL    HW2 3287   2.698   2.713   1.357 -0.9289  2.1174 -0.6157
  822SOL     MW 3288   2.726   2.646   1.411  0.2393  0.1937  0.6050
  823SOL     OW 3289   2.269   0.501   1.735 -0.5780 -0.1401  0.1180
  823SOL    HW1 3290   2.359   0.471   1.713  0.0673  0.9434  0.4072
  823SOL    HW2 3291   2.210   0.429   1.710 -0.8014  1.2624  2.5270
  823SOL     MW 3292   2.273   0.487   1.729 -0.5224  0.1879  0.4740
  824SOL     OW 3293   2.077   1.419   2.542 -0.0870  0.0766  0.8122
  824SOL    HW1 3294   2.130   1.454   2.471 -2.5968  0.6124 -0.5599
  824SOL    HW2 3295   2.035   1.490   2.593 -1.0744 -0.4673  0.8424
  824SOL     MW 3296   2.079   1.433   2.540 -0.5484  0.0755  0.6352
  825SOL     OW 3297   1.937   2.559   0.305  0.7975  0.3781 -0.3720
  825SOL    HW1 3298   1.942   2.516   0.389  0.8119 -0.1804  0.2658
  825SOL    HW2 3299   2.012   2.526   0.255  1.0578 -1.8490 -1.1371
  825SOL     MW 3300   1.948   2.549   0.309  0.8337  0.0106 -0.3888
  826SOL     OW 3301   1.898   2.357   0.510  0.2093  0.0623 -0.6230
  826SOL    HW1 3302   1.864   2.271   0.550  0.3422 -0.6928  1.3120
  826SOL    HW2 3303   1.855   2.411   0.576  1.2178  1.9585 -0.2737
  826SOL     MW 3304   1.888   2.353   0.524  0.3599  0.2129 -0.3216
  827SOL     OW 3305   1.938   2.213   0.945 -0.0625 -0.0469 -0.4594
  827SOL    HW1 3306   1.888   2.265   0.889  0.1264  2.5954 -0.8585
  827SOL    HW2 3307   1.869   2.151   0.975 -0.9337  2.1722 -3.0119
  827SOL     MW 3308   1.922   2.211   0.942 -0.1525  0.5945 -0.8489
  828SOL     OW 3309   0.070   2.601   0.600 -0.5024  0.1079 -0.5923
  828SOL    HW1 3310   0.157   2.597   0.557 -0.8842 -0.9226 -0.8946
  828SOL    HW2 3311   0.011   2.645   0.540 -1.6546 -3.9370  3.1571
  828SOL     MW 3312   0.074   2.606   0.587 -0.7048 -0.5617 -0.1375
  829SOL     OW 3313   2.925   2.949   1.180 -0.4832  0.1132  0.8048
  829SOL    HW1 3314   2.847   2.918   1.135 -0.1462  0.4030 -0.1469
  829SOL    HW2 3315   2.980   2.870   1.186  0.1600  0.8512  1.4259
  829SOL     MW 3316   2.922   2.935   1.175 -0.3539  0.2488  0.7612
  830SOL     OW 3317   2.510   2.851   2.050 -0.2126 -0.2481  0.3187
  830SOL    HW1 3318   2.424   2.853   2.007 -0.4706  0.9192  2.5354
  830SOL    HW2 3319   2.570   2.830   1.977  0.4644 -0.6530 -2.1027
  830SOL     MW 3320   2.507   2.849   2.035 -0.1573 -0.1475  0.2917
  831SOL     OW 3321   2.404   2.448   1.300  0.0162 -0.8198  0.2777
  831SOL    HW1 3322   2.372   2.393   1.377  1.3664  1.3099  1.3650
  831SOL    HW2 3323   2.477   2.395   1.261 -0.8144  2.3835  0.2449
  831SOL     MW 3324   2.409   2.434   1.305  0.0848 -0.1162  0.4168
  832SOL     OW 3325   2.407   2.181   1.904  0.7027  0.0181 -0.1144
  832SOL    HW1 3326   2.446   2.264   1.943  0.8030 -1.5461  2.2855
  832SOL    HW2 3327   2.486   2.145   1.861  1.7814  1.3613 -1.6426
  832SOL     MW 3328   2.423   2.187   1.903  0.8582 -0.0111  0.0006
  833SOL     OW 3329   1.779   2.459   0.884 -0.0299  0.0796  0.0271
  833SOL    HW1 3330   1.713   2.399   0.874  1.7489  3.0704  1.3432
  833SOL    HW2 3331   1.772   2.504   0.978  1.9212 -0.9973  0.5555
  833SOL     MW 3332   1.770   2.457   0.895  0.4622  0.3321  0.2704
  834SOL     OW 3333   2.183   2.479   0.577  0.9484  0.3707 -0.0363
  834SOL    HW1 3334   2.087   2.478   0.575  0.2208 -0.0242 -1.0911
  834SOL    HW2 3335   2.201   2.437   0.500 -2.5360 -0.2176  4.3366
  834SOL     MW 3336   2.173   2.473   0.566  0.3927  0.2409  0.4015
  835SOL     OW 3337   1.780   2.598   0.633  0.2203 -0.1455  0.1892
  835SOL    HW1 3338   1.730   2.562   0.710  1.9021  2.1768  0.4205
  835SOL    HW2 3339   1.861   2.638   0.681  1.6379  0.0559  0.7319
  835SOL     MW 3340   1.784   2.599   0.649  0.6293  0.1875  0.2913
  836SOL     OW 3341   1.938   2.192   1.600  0.1934  0.4467  0.2500
  836SOL    HW1 3342   1.996   2.161   1.669  2.7548  0.5958 -0.2995
  836SOL    HW2 3343   1.867   2.238   1.647 -1.0779 -0.2572  1.3783
  836SOL     MW 3344   1.936   2.194   1.615  0.3636  0.3735  0.3264
  837SOL     OW 3345   2.124   0.193   0.717  0.1708 -0.0390 -0.1666
  837SOL    HW1 3346   2.043   0.227   0.684 -0.5112  0.6816  0.7921
  837SOL    HW2 3347   2.151   0.133   0.652  0.9466  1.8265 -0.7991
  837SOL     MW 3348   2.117   0.190   0.704  0.1832  0.3022 -0.1236
  838SOL     OW 3349   2.941   2.155   0.910 -0.1813  0.1525 -0.6196
  838SOL    HW1 3350   2.864   2.110   0.955 -0.9554  0.2707  0.0187
  838SOL    HW2 3351   2.982   2.087   0.852 -1.4075  0.8637 -0.0546
  838SOL     MW 3352   2.936   2.140   0.909 -0.4452  0.2619 -0.4609
  839SOL     OW 3353   1.532   2.331   0.949  0.3559 -0.4539  0.1892
  839SOL    HW1 3354   1.539   2.417   0.983  1.3487 -0.7928 -0.4080
  839SOL    HW2 3355   1.537   2.270   1.026  0.3731  1.0710  2.3007
  839SOL     MW 3356   1.534   2.334   0.964  0.4891 -0.2974  0.3890
  840SOL     OW 3357   2.304   2.078   2.415 -0.2843  0.3544  0.0138
  840SOL    HW1 3358   2.274   2.135   2.342 -0.9929  2.7186 -2.0394
  840SOL    HW2 3359   2.345   2.138   2.484 -0.4507  3.1267 -1.2888
  840SOL     MW 3360   2.306   2.094   2.414 -0.3997  1.0321 -0.4290
  841SOL     OW 3361   2.127   2.454   0.107  0.2296 -0.2195 -0.2155
  841SOL    HW1 3362   2.186   2.467   0.033 -0.9321 -2.1011  0.3108
  841SOL    HW2 3363   2.072   2.373   0.093  2.4422 -2.5980  1.4305
  841SOL     MW 3364   2.128   2.445   0.096  0.3682 -0.7816  0.0711
  842SOL     OW 3365   2.650   1.916   1.606  1.1270 -0.1240  0.0186
  842SOL    HW1 3366   2.594   1.837   1.611  0.4465 -1.5262  0.9979
  842SOL    HW2 3367   2.609   1.975   1.548  0.7761 -1.7038 -1.9812
  842SOL     MW 3368   2.637   1.913   1.599  0.9910 -0.5174 -0.1160
  843SOL     OW 3369   2.601   2.740   1.785  0.5544  0.0522 -0.2056
  843SOL    HW1 3370   2.690   2.707   1.759 -0.0930 -2.0739  0.6970
  843SOL    HW2 3371   2.554   2.664   1.750 -2.1504 -1.3645 -1.8871
  843SOL     MW 3372   2.607   2.726   1.777  0.1121 -0.4152 -0.3084
  844SOL     OW 3373   2.601   2.295   1.204  0.3232 -0.0245  0.3935
  844SOL    HW1 3374   2.623   2.330   1.119  0.2558  0.4119 -2.4223
  844SOL    HW2 3375   2.669   2.329   1.266 -0.3807  0.0635 -4.3943
  844SOL     MW 3376   2.613   2.304   1.201  0.2214  0.0447 -0.6097
  845SOL     OW 3377   2.858   2.468   0.299  0.1392 -0.3334  0.3374
  845SOL    HW1 3378   2.805   2.390   0.312 -2.9787  0.7754 -0.4378
  845SOL    HW2 3379   2.882   2.488   0.386 -1.2493 -1.6140 -1.8063
  845SOL     MW 3380   2.854   2.460   0.313 -0.4554 -0.3560 -0.0477
  846SOL     OW 3381   1.532   2.873   0.777  0.0548  0.1999 -0.2115
  846SOL    HW1 3382   1.594   2.903   0.849 -0.3089  1.8688  0.3552
  846SOL    HW2 3383   1.450   2.894   0.813  0.1859 -0.7937 -0.5448
  846SOL     MW 3384   1.530   2.880   0.792  0.0241  0.2890 -0.1807
  847SOL     OW 3385   2.541   1.922   0.159 -0.8812 -0.4918 -0.3993
  847SOL    HW1 3386   2.637   1.901   0.169  2.6610  0.4203 -1.0975
  847SOL    HW2 3387   2.501   1.859   0.102  2.2200 -1.6338  1.4120
  847SOL     MW 3388   2.549   1.911   0.153 -0.0046 -0.5221 -0.2525
  848SOL     OW 3389   2.538   2.090   1.405  0.3561 -0.6336  0.2807
  848SOL    HW1 3390   2.562   2.154   1.341 -2.3054 -1.0951 -1.3637
  848SOL    HW2 3391   2.521   2.016   1.350  1.2672 -0.4788 -0.8912
  848SOL     MW 3392   2.539   2.088   1.389  0.1251 -0.6740 -0.0908
  849SOL     OW 3393   1.972   2.736   0.776 -0.1514 -0.5420 -0.5759
  849SOL    HW1 3394   2.022   2.698   0.845 -0.5300 -0.2617  0.6511
  849SOL    HW2 3395   2.038   2.748   0.704 -1.3422 -1.7263  0.1514
  849SOL     MW 3396   1.987   2.733   0.775 -0.3585 -0.6613 -0.3180
  850SOL     OW 3397   2.215   1.960   1.626 -0.1837 -0.1224 -0.2170
  850SOL    HW1 3398   2.127   1.935   1.595 -2.0718  2.9839 -0.5444
  850SOL    HW2 3399   2.195   2.033   1.683  0.2357  2.4235 -1.2669
  850SOL     MW 3400   2.201   1.966   1.630 -0.3775  0.6234 -0.3987
  851SOL     OW 3401   2.280   2.404   0.324  0.2657  0.0011 -0.0882
  851SOL    HW1 3402   2.236   2.413   0.239 -0.8316 -1.7897  2.1278
  851SOL    HW2 3403   2.323   2.490   0.334 -4.1665 -1.5897  1.7420
  851SOL     MW 3404   2.280   2.416   0.314 -0.4639 -0.4451  0.4457
  852SOL     OW 3405   2.377   2.152   0.278 -0.2947  0.0032  0.4206
  852SOL    HW1 3406   2.326   2.232   0.274  3.8344  0.1729  0.3777
  852SOL    HW2 3407   2.473   2.177   0.285  3.6008 -0.2988  1.4261
  852SOL     MW 3408   2.383   2.166   0.278  0.7641 -0.0143  0.5476
  853SOL     OW 3409   2.496   2.442   1.986  0.0900  0.2594  0.6254
  853SOL    HW1 3410   2.509   2.462   1.891  0.6318 -1.7845  0.3618
  853SOL    HW2 3411   2.581   2.438   2.020 -3.6191  0.4188  0.5985
  853SOL     MW 3412   2.509   2.444   1.978 -0.3279  0.0108  0.5871
  854SOL     OW 3413   2.810   2.326   0.732  0.3771  0.9387  0.1149
  854SOL    HW1 3414   2.730   2.285   0.706  1.0623 -0.1480 -0.2167
  854SOL    HW2 3415   2.840   2.270   0.807 -1.6607 -1.4290  0.3274
  854SOL     MW 3416   2.803   2.313   0.739  0.1986  0.4829  0.0992
  855SOL     OW 3417   2.715   2.245   0.375 -0.2779 -0.0509  0.2678
  855SOL    HW1 3418   2.698   2.302   0.455 -1.6917 -3.1501  3.0981
  855SOL    HW2 3419   2.782   2.188   0.410 -0.3765 -2.2172  1.9985
  855SOL     MW 3420   2.721   2.245   0.390 -0.4774 -0.7456  0.8696
  856SOL     OW 3421   2.190   1.954   0.188  0.1071 -0.2357 -0.2147
  856SOL    HW1 3422   2.107   1.961   0.233 -0.7129  0.4378 -0.3795
  856SOL    HW2 3423   2.249   2.010   0.237  0.4016 -0.7380  0.7764
  856SOL     MW 3424   2.187   1.963   0.201  0.0378 -0.2131 -0.1057
  857SOL     OW 3425   2.602   1.974   0.480  0.4692  0.4288  0.4911
  857SOL    HW1 3426   2.637   2.052   0.429  0.8667 -1.4313  0.8640
  857SOL    HW2 3427   2.519   1.941   0.424 -0.2924  1.7946 -0.7878
  857SOL     MW 3428   2.595   1.980   0.466  0.4211  0.3636  0.3715
  858SOL     OW 3429   2.843   2.649   1.697  0.2635  0.0461  0.0939
  858SOL    HW1 3430   2.932   2.687   1.710  0.1399  0.9106  1.9732
  858SOL    HW2 3431   2.836   2.571   1.744 -2.4971  2.5126 -1.3686
  858SOL     MW 3432   2.854   2.644   1.705 -0.1171  0.4856  0.1489
  859SOL     OW 3433   2.149   2.567   0.904  0.7100  0.5213  0.1375
  859SOL    HW1 3434   2.153   2.481   0.871  0.0360 -1.0896  0.0881
  859SOL    HW2 3435   2.239   2.594   0.887 -0.9870 -0.6863 -1.3208
  859SOL     MW 3436   2.161   2.559   0.897  0.3972  0.1494 -0.0614
  860SOL     OW 3437   2.645   2.601   0.189  0.6840 -0.0326 -0.3311
  860SOL    HW1 3438   2.722   2.555   0.217 -0.1774  3.0611 -2.2517
  860SOL    HW2 3439   2.676   2.670   0.129  2.0513  1.7542  5.9146
  860SOL     MW 3440   2.659   2.604   0.185  0.7508  0.6113  0.2395
  861SOL     OW 3441   1.542   2.135   1.150  0.0572  0.5345 -0.1462
  861SOL    HW1 3442   1.541   2.198   1.220  0.9204  0.2918  0.4795
  861SOL    HW2 3443   1.476   2.074   1.187 -0.0828 -1.1275 -1.6423
  861SOL     MW 3444   1.533   2.136   1.164  0.1526  0.2832 -0.2610
  862SOL     OW 3445   2.422   1.778   1.537  0.2824 -0.0694 -0.0337
  862SOL    HW1 3446   2.367   1.833   1.591  0.3084  3.6532 -2.1081
  862SOL    HW2 3447   2.423   1.821   1.453 -1.6033 -0.9235  1.8966
  862SOL     MW 3448   2.415   1.791   1.533  0.0371  0.3091 -0.0527
  863SOL     OW 3449   3.046   1.866   1.063 -0.5235 -0.6050 -0.4195
  863SOL    HW1 3450   3.105   1.845   1.139 -1.2502  0.1058  0.1744
  863SOL    HW2 3451   3.019   1.951   1.093  0.4282  0.2729 -3.8013
  863SOL     MW 3452   3.050   1.875   1.077 -0.4938 -0.3954 -0.7873
  864SOL     OW 3453   3.097   1.930   0.794 -0.3509 -0.1009 -0.4182
  864SOL    HW1 3454   3.076   1.909   0.887 -2.1720 -1.6879 -0.9715
  864SOL    HW2 3455   3.079   1.851   0.737 -1.8699  0.5921  2.6173
  864SOL     MW 3456   3.092   1.917   0.799 -0.7916 -0.2189 -0.0907
  865SOL     OW 3457   2.625   2.126   0.014 -0.1937 -0.0691 -0.1201
  865SOL    HW1 3458   2.600   2.045   0.063  0.8589 -0.0566 -0.6274
  865SOL    HW2 3459   2.584   2.121  -0.073  1.3576 -0.5513  0.8099
  865SOL     MW 3460   2.616   2.115   0.009  0.1499 -0.1311 -0.0643
  866SOL     OW 3461   2.679   2.313   1.648  0.2467  0.7157  0.1007
  866SOL    HW1 3462   2.675   2.235   1.707  2.3997  0.8721 -1.0107
  866SOL    HW2 3463   2.708   2.285   1.559 -2.4425 -3.0350 -2.2424
  866SOL     MW 3464   2.682   2.299   1.644  0.1759  0.2415 -0.3551
  867SOL     OW 3465   0.014   2.672   1.791  0.0891  0.6324  0.1988
  867SOL    HW1 3466   0.043   2.653   1.877  0.1281  0.5943  2.3250
  867SOL    HW2 3467   0.021   2.768   1.785 -0.9300  1.0775  0.5463
  867SOL     MW 3468   0.019   2.682   1.801 -0.0402  0.6861  0.5252
  868SOL     OW 3469   2.826   2.610   0.560  0.2349  0.2501  0.4176
  868SOL    HW1 3470   2.742   2.569   0.581  0.1752  0.2428  1.8261
  868SOL    HW2 3471   2.804   2.688   0.500 -0.6214 -1.2643 -0.7445
  868SOL     MW 3472   2.812   2.615   0.555  0.1141  0.0493  0.4501
  869SOL     OW 3473   2.031   2.370   1.148  0.9481  0.2156  0.7385
  869SOL    HW1 3474   2.123   2.369   1.117  1.3145 -0.6001  1.9829
  869SOL    HW2 3475   1.983   2.306   1.091 -0.3821  0.0864  1.1741
  869SOL     MW 3476   2.036   2.361   1.136  0.8209  0.0909  0.9602
  870SOL     OW 3477   2.155   3.088   0.476 -0.3883 -0.2298  0.0364
  870SOL    HW1 3478   2.219   3.145   0.431  1.3468  3.6105 -0.8848
  870SOL    HW2 3479   2.209   3.008   0.491  1.0322 -1.8215 -1.5289
  870SOL     MW 3480   2.170   3.085   0.472  0.0280  0.0669 -0.2917
  871SOL     OW 3481   2.497   2.112   0.947 -0.1459 -0.1524 -0.0116
  871SOL    HW1 3482   2.446   2.036   0.911  0.7221  2.0001  0.6222
  871SOL    HW2 3483   2.437   2.159   1.007  0.1179  1.9622 -0.8438
  871SOL     MW 3484   2.483   2.108   0.950  0.0034  0.4106 -0.0378
  872SOL     OW 3485   2.049   2.568   1.495 -0.4391 -0.0787  0.2981
  872SOL    HW1 3486   2.028   2.578   1.590 -1.0452 -1.1122  0.7806
  872SOL    HW2 3487   1.982   2.509   1.460 -0.4532 -0.8954  1.9910
  872SOL     MW 3488   2.037   2.561   1.503 -0.5209 -0.3228  0.5851
  873SOL     OW 3489   2.928   2.032   1.900  0.4439  0.5214  0.0224
  873SOL    HW1 3490   2.955   2.082   1.978  0.7157  0.6406  0.8075
  873SOL    HW2 3491   2.997   2.046   1.841  0.3166 -0.7181  1.8821
  873SOL     MW 3492   2.941   2.041   1.902  0.4630  0.3736  0.3714
  874SOL     OW 3493   2.312   1.509   2.377 -0.8259 -0.4996 -0.1186
  874SOL    HW1 3494   2.275   1.439   2.320  0.5369 -0.1402  2.5848
  874SOL    HW2 3495   2.384   1.457   2.410 -1.9216 -1.1922 -0.5444
  874SOL     MW 3496   2.316   1.493   2.374 -0.7907 -0.5435  0.1819
  875SOL     OW 3497   2.307   2.324   1.079  0.5540  0.0876  0.1086
  875SOL    HW1 3498   2.353   2.381   1.015  1.7785 -1.5668 -1.9466
  875SOL    HW2 3499   2.346   2.359   1.158  1.3142  0.1252 -1.8514
  875SOL     MW 3500   2.318   2.337   1.081  0.8159 -0.1257 -0.4212
  876SOL     OW 3501   3.040   2.331   1.232 -0.2315 -0.1617  0.0475
  876SOL    HW1 3502   3.078   2.368   1.154 -1.8092  0.5324  0.0954
  876SOL    HW2 3503   3.107   2.358   1.302  0.6880  1.5260 -1.2523
  876SOL     MW 3504   3.054   2.339   1.231 -0.3184  0.1525 -0.1176
  877SOL     OW 3505   3.037   2.704   0.330  0.0338 -0.1456 -0.3002
  877SOL    HW1 3506   3.107   2.764   0.317  1.7925 -0.3870  3.0713
  877SOL    HW2 3507   3.054   2.630   0.269 -0.9835  0.1094  0.0877
  877SOL     MW 3508   3.049   2.702   0.320  0.1316 -0.1438  0.1958
  878SOL     OW 3509   2.421   1.847   1.273 -0.8746 -0.1298 -0.3599
  878SOL    HW1 3510   2.370   1.770   1.252  1.9083 -1.2053 -0.5362
  878SOL    HW2 3511   2.510   1.822   1.257  1.2005  4.0627 -1.9993
  878SOL     MW 3512   2.426   1.833   1.268 -0.2336  0.2814 -0.5995
  879SOL     OW 3513   2.666   2.417   0.960 -0.4007 -0.5060 -0.2060
  879SOL    HW1 3514   2.726   2.488   0.986 -0.5566  0.5266 -0.2222
  879SOL    HW2 3515   2.712   2.386   0.884 -0.1593  0.4464  2.2951
  879SOL     MW 3516   2.680   2.423   0.954 -0.3894 -0.2441  0.1219
  880SOL     OW 3517   2.565   2.196   0.693  0.7166  0.5475 -0.3011
  880SOL    HW1 3518   2.532   2.168   0.784  1.2479 -2.5426  3.3450
  880SOL    HW2 3519   2.537   2.121   0.635 -2.4643 -1.2578  0.4210
  880SOL     MW 3520   2.557   2.182   0.697  0.3670 -0.0984  0.2753
  881SOL     OW 3521   2.937   2.689   0.788 -0.2683  0.5753  0.1273
  881SOL    HW1 3522   2.880   2.661   0.708 -0.8990  3.0560 -3.0696
  881SOL    HW2 3523   3.028   2.659   0.769  1.0308  0.8178  2.6013
  881SOL     MW 3524   2.941   2.681   0.775 -0.1801  0.9346  0.0319
  882SOL     OW 3525   2.261   2.883   1.924 -0.4438 -0.3126  0.2444
  882SOL    HW1 3526   2.264   2.875   1.829 -1.8899  2.3934 -0.7824
  882SOL    HW2 3527   2.215   2.810   1.955  1.6735  0.7071  1.8773
  882SOL     MW 3528   2.255   2.872   1.916 -0.3552  0.1790  0.3244
  883SOL     OW 3529   2.309   2.257   1.503 -0.5911 -0.2598 -0.1680
  883SOL    HW1 3530   2.370   2.184   1.518  2.2093 -1.0765  0.0550
  883SOL    HW2 3531   2.240   2.235   1.440  0.5063  0.0950 -3.4154
  883SOL     MW 3532   2.308   2.245   1.497 -0.0768 -0.3207 -0.5670
  884SOL     OW 3533   1.958   1.842   1.138  0.0191 -0.4209 -0.5676
  884SOL    HW1 3534   1.889   1.907   1.113 -0.4283 -1.4468 -2.7999
  884SOL    HW2 3535   2.038   1.891   1.106 -0.4520  2.1831 -0.9471
  884SOL     MW 3536   1.959   1.857   1.131 -0.1021 -0.2127 -0.9122
  885SOL     OW 3537   2.851   2.418   1.817  0.4596 -0.4667  0.2062
  885SOL    HW1 3538   2.939   2.382   1.798  0.8453 -1.7564  0.9273
  885SOL    HW2 3539   2.795   2.383   1.742  1.1193 -0.9113  0.2969
  885SOL     MW 3540   2.855   2.408   1.804  0.5975 -0.6955  0.3133
  886SOL     OW 3541   2.801   2.374   1.374 -0.2351 -0.4971  0.2381
  886SOL    HW1 3542   2.884   2.372   1.330 -0.4720  1.0845  1.0351
  886SOL    HW2 3543   2.778   2.466   1.389  2.4439 -2.1719  4.7578
  886SOL     MW 3544   2.809   2.386   1.370  0.0871 -0.5094  0.9396
  887SOL     OW 3545   2.313   2.590   1.562 -0.2629  0.1687 -0.4228
  887SOL    HW1 3546   2.360   2.633   1.492 -0.1728  0.1068  0.1088
  887SOL    HW2 3547   2.221   2.568   1.525 -1.1025 -2.8307 -0.9269
  887SOL     MW 3548   2.307   2.593   1.548 -0.3618 -0.2352 -0.4192
  888SOL     OW 3549   1.845   2.067   1.372  0.1054 -0.7479 -0.2051
  888SOL    HW1 3550   1.925   2.065   1.321  0.1079 -1.1665  2.3667
  888SOL    HW2 3551   1.881   2.095   1.458  0.6553 -1.5352  1.5772
  888SOL     MW 3552   1.860   2.071   1.377  0.1783 -0.9070  0.3693
  889SOL     OW 3553   2.308   2.001   2.098 -0.1365 -0.1901 -0.0458
  889SOL    HW1 3554   2.391   2.003   2.145 -1.7126  0.4329  1.0836
  889SOL    HW2 3555   2.321   2.085   2.053 -0.0358 -1.5315  0.8956
  889SOL     MW 3556   2.321   2.012   2.099 -0.3312 -0.2849  0.2275
  890SOL     OW 3557   0.126   2.362   0.128  0.3508 -0.0520  0.0439
  890SOL    HW1 3558   0.066   2.438   0.105  1.9555 -1.5449 -2.4510
  890SOL    HW2 3559   0.098   2.331   0.217 -0.5265  0.0131 -1.6197
  890SOL     MW 3560   0.115   2.368   0.137  0.4467 -0.2404 -0.5048
  891SOL     OW 3561   3.023   2.057   1.297  0.4282 -0.4538 -0.2119
  891SOL    HW1 3562   3.106   2.046   1.341 -0.2000 -1.2294 -0.2884
  891SOL    HW2 3563   3.009   2.148   1.270 -0.4399  1.1152  1.1577
  891SOL     MW 3564   3.032   2.068   1.299  0.2308 -0.3491 -0.0413
  892SOL     OW 3565   2.429   2.362   2.826 -0.4546  0.2091 -0.4637
  892SOL    HW1 3566   2.433   2.266   2.838 -0.3166  1.7311 -1.2888
  892SOL    HW2 3567   2.527   2.385   2.845  0.1351 -3.5531 -2.5623
  892SOL     MW 3568   2.443   2.352   2.830 -0.3586 -0.0864 -0.8494
  893SOL     OW 3569   1.588   2.360   1.290  0.0763  0.7559 -0.1419
  893SOL    HW1 3570   1.537   2.422   1.344  2.5096  0.7680 -0.6849
  893SOL    HW2 3571   1.680   2.365   1.320  0.7465  1.5242 -2.8799
  893SOL     MW 3572   1.593   2.369   1.301  0.4858  0.8588 -0.5748
  894SOL     OW 3573   2.830   1.810   0.479 -0.2345  0.6698 -0.0470
  894SOL    HW1 3574   2.741   1.847   0.500  3.7019  0.5919 -1.9562
  894SOL    HW2 3575   2.819   1.778   0.387  0.5951  1.2104 -3.1319
  894SOL     MW 3576   2.817   1.811   0.470  0.3943  0.7309 -0.7059
  895SOL     OW 3577   2.121   2.164   1.312  0.5574 -0.5982 -0.4017
  895SOL    HW1 3578   2.086   2.236   1.262 -1.4105  0.1639 -4.0511
  895SOL    HW2 3579   2.151   2.102   1.249 -2.6620  1.3118  0.9408
  895SOL     MW 3580   2.121   2.165   1.297 -0.1270 -0.2457 -0.7061
  896SOL     OW 3581   2.146   2.793   1.064  0.1939 -0.1201  0.4064
  896SOL    HW1 3582   2.200   2.780   1.142  1.8374  0.1576  1.4381
  896SOL    HW2 3583   2.130   2.704   1.016 -0.8666 -0.1309 -0.8083
  896SOL     MW 3584   2.151   2.780   1.068  0.2708 -0.0849  0.3822
  897SOL     OW 3585   2.997   2.913   0.116  0.1701 -0.6218  0.1421
  897SOL    HW1 3586   3.066   2.860   0.089 -1.6919 -2.1034 -0.2569
  897SOL    HW2 3587   2.930   2.848   0.083  1.5097 -1.0461  1.0919
  897SOL     MW 3588   2.997   2.897   0.108  0.1012 -0.8732  0.2147
  898SOL     OW 3589   2.078   0.163   1.396  0.8121 -0.6467  0.3317
  898SOL    HW1 3590   2.011   0.100   1.389  1.6538  0.0110  1.3106
  898SOL    HW2 3591   2.083   0.204   1.307  0.0938 -0.3134  0.1020
  898SOL     MW 3592   2.070   0.160   1.383  0.8284 -0.5159  0.4306
  899SOL     OW 3593   2.933   2.927   0.633 -0.5421 -0.1358 -0.1079
  899SOL    HW1 3594   2.938   2.864   0.704  0.0535 -2.1115  0.0970
  899SOL    HW2 3595   2.847   2.962   0.643  1.3650  0.1541  1.5320
  899SOL     MW 3596   2.922   2.923   0.644 -0.2119 -0.3582  0.1355
  900SOL     OW 3597   0.073   2.444   1.021  0.6050 -0.0690 -0.1290
  900SOL    HW1 3598   0.075   2.528   0.972 -0.1729  1.1074  1.9071
  900SOL    HW2 3599   0.052   2.373   0.957  0.2344  2.3518 -0.1196
  900SOL     MW 3600   0.070   2.446   1.006  0.4535  0.4056  0.1409
  901SOL     OW 3601   1.757   2.876   1.679 -0.3696  0.6823 -0.2097
  901SOL    HW1 3602   1.829   2.816   1.664  1.5610 -0.3497 -0.9460
  901SOL    HW2 3603   1.696   2.853   1.608  0.5118 -0.4071 -1.7610
  901SOL     MW 3604   1.758   2.865   1.668  0.0014  0.4024 -0.5115
  902SOL     OW 3605   2.652   2.102   1.811 -0.4267 -0.3587 -0.0463
  902SOL    HW1 3606   2.629   2.016   1.776  1.0111 -2.5254 -0.8549
  902SOL    HW2 3607   2.737   2.092   1.854  2.4774 -1.9198  0.4288
  902SOL     MW 3608   2.660   2.090   1.812  0.1461 -0.8505 -0.0903
  903SOL     OW 3609   1.606   2.764   0.514 -0.5271 -0.1654 -0.1979
  903SOL    HW1 3610   1.670   2.698   0.546  2.6949 -0.1482 -1.0967
  903SOL    HW2 3611   1.564   2.810   0.593 -0.1841 -0.4679  0.3976
  903SOL     MW 3612   1.609   2.761   0.528 -0.0567 -0.2031 -0.2379
  904SOL     OW 3613   2.493   2.488   1.717 -0.0887  0.4272 -0.5022
  904SOL    HW1 3614   2.431   2.517   1.651  1.2426 -2.3257  0.0674
  904SOL    HW2 3615   2.552   2.431   1.671 -1.7449 -1.2369  1.1163
  904SOL     MW 3616   2.493   2.484   1.702 -0.1315 -0.1556 -0.2135
  905SOL     OW 3617   2.334   2.569   2.156 -0.0026  0.0118 -0.1870
  905SOL    HW1 3618   2.398   2.547   2.089  2.8778  2.5574  0.2915
  905SOL    HW2 3619   2.308   2.479   2.184 -0.2864 -4.1339 -0.1203
  905SOL     MW 3620   2.339   2.554   2.151  0.3400 -0.1993 -0.1151
  906SOL     OW 3621   2.418   2.560   0.908 -0.0381 -0.8086  0.1008
  906SOL    HW1 3622   2.506   2.525   0.930 -0.7698  1.1647 -0.8533
  906SOL    HW2 3623   2.432   2.655   0.913 -2.4188 -3.1707  0.4761
  906SOL     MW 3624   2.431   2.568   0.911 -0.4488 -0.8599  0.0245
  907SOL     OW 3625   2.549   2.894   1.330  0.2478  0.2774 -0.4434
  907SOL    HW1 3626   2.609   2.949   1.381 -1.5968 -0.5323  2.3243
  907SOL    HW2 3627   2.588   2.889   1.242  2.7091  2.3467 -1.4904
  907SOL     MW 3628   2.562   2.901   1.325  0.3292  0.4436 -0.2163
  908SOL     OW 3629   2.754   2.366   0.010 -0.1900 -0.0344 -0.1100
  908SOL    HW1 3630   2.713   2.278   0.023  0.4440  3.4845  0.4751
  908SOL    HW2 3631   2.700   2.434   0.054  0.1992  1.3888  1.1779
  908SOL     MW 3632   2.741   2.363   0.017 -0.0550  0.6177  0.1371
  909SOL     OW 3633   1.686   0.181   1.151  0.5269 -0.0132 -0.1988
  909SOL    HW1 3634   1.669   0.245   1.077  0.8780 -0.4682  0.7720
  909SOL    HW2 3635   1.738   0.224   1.223  2.7378  1.4981  0.1634
  909SOL     MW 3636   1.690   0.195   1.150  0.8649  0.1261 -0.0230
  910SOL     OW 3637   2.266   1.785   0.392  0.4809 -0.0244 -0.4703
  910SOL    HW1 3638   2.228   1.701   0.423  0.2365  0.4445 -1.2535
  910SOL    HW2 3639   2.218   1.810   0.311  0.8020  0.4356  0.1135
  910SOL     MW 3640   2.255   1.777   0.386  0.4910  0.0981 -0.4966
  911SOL     OW 3641   2.184   2.199   1.733 -0.4621 -0.3168  0.2287
  911SOL    HW1 3642   2.255   2.213   1.797 -0.0332  0.4475 -0.9818
  911SOL    HW2 3643   2.221   2.224   1.647 -1.7110 -0.8059 -0.2020
  911SOL     MW 3644   2.198   2.204   1.730 -0.5703 -0.2805  0.0122
  912SOL     OW 3645   2.914   1.900   1.534  0.4938 -0.3737  0.3600
  912SOL    HW1 3646   2.937   1.944   1.445  1.2329 -0.2047 -0.9149
  912SOL    HW2 3647   2.819   1.913   1.557  2.5623  0.1241 -1.7243
  912SOL     MW 3648   2.905   1.908   1.526  0.8642 -0.2857 -0.0832
  913SOL     OW 3649   2.578   2.994   0.354  0.0566 -0.0291  0.2239
  913SOL    HW1 3650   2.649   2.932   0.368 -0.1836  1.5817  1.6080
  913SOL    HW2 3651   2.495   2.950   0.332 -2.0789 -1.4587  1.4532
  913SOL     MW 3652   2.576   2.980   0.353 -0.2568 -0.0052  0.5687
  914SOL     OW 3653   2.775   1.711   3.047 -0.0867  0.6081  0.5027
  914SOL    HW1 3654   2.803   1.793   3.003 -2.6041  1.7252 -2.2983
  914SOL    HW2 3655   2.679   1.739   3.046 -0.7623  2.8876  0.2347
  914SOL     MW 3656   2.766   1.726   3.041 -0.5080  1.0562  0.0978
  915SOL     OW 3657   1.746   0.238   0.235 -0.3214 -0.4196  0.0821
  915SOL    HW1 3658   1.816   0.188   0.281 -2.4694 -0.8472 -0.4122
  915SOL    HW2 3659   1.667   0.186   0.226 -0.5339  2.8069  0.9273
  915SOL     MW 3660   1.745   0.224   0.240 -0.6328 -0.0503  0.1284
  916SOL     OW 3661   1.772   2.066   1.939  0.6415 -0.3972 -0.4284
  916SOL    HW1 3662   1.794   2.160   1.933 -1.8245  0.4577 -0.0309
  916SOL    HW2 3663   1.781   2.018   1.855  2.0548  3.6502 -3.2784
  916SOL     MW 3664   1.776   2.072   1.927  0.5026  0.2496 -0.7520
  917SOL     OW 3665   2.439   2.280   2.552  0.5682 -0.6874  0.2811
  917SOL    HW1 3666   2.418   2.338   2.627 -0.3504 -2.0074  0.6419
  917SOL    HW2 3667   2.517   2.317   2.508  0.2119 -0.6636  2.3030
  917SOL     MW 3668   2.447   2.293   2.556  0.4000 -0.8584  0.5955
  918SOL     OW 3669   1.990   1.636   2.685  0.0344 -0.4361 -0.5300
  918SOL    HW1 3670   1.929   1.675   2.614  2.2884  0.8008 -0.8621
  918SOL    HW2 3671   2.085   1.670   2.671  0.7771  2.0370 -0.1995
  918SOL     MW 3672   1.995   1.645   2.674  0.4298  0.0534 -0.5302
  919SOL     OW 3673   0.073   2.339   2.245  0.3704 -0.5903  0.2706
  919SOL    HW1 3674  -0.006   2.289   2.236  0.2874  0.2648  1.2839
  919SOL    HW2 3675   0.133   2.327   2.168  0.8211  1.9604  0.7930
  919SOL     MW 3676   0.071   2.331   2.234  0.4189 -0.1410  0.4732
  920SOL     OW 3677   2.764   2.781   3.104 -0.2948  0.0615  0.0909
  920SOL    HW1 3678   2.705   2.856   3.110  1.2573  1.7770 -0.2191
  920SOL    HW2 3679   2.737   2.742   3.022 -0.3155  0.9436  1.5793
  920SOL     MW 3680   2.753   2.786   3.094 -0.0928  0.4042  0.2464
  921SOL     OW 3681   2.385   2.622   2.625  0.5376 -0.5831  0.1862
  921SOL    HW1 3682   2.460   2.628   2.567 -3.4481 -1.8478 -3.8494
  921SOL    HW2 3683   2.399   2.561   2.700 -0.4042  1.7751 -1.3092
  921SOL     MW 3684   2.397   2.615   2.627 -0.1126 -0.4389 -0.5436
  922SOL     OW 3685   2.040   2.836   0.316  0.7099  0.2637  0.1799
  922SOL    HW1 3686   1.995   2.864   0.231 -0.3820 -3.2174  1.0006
  922SOL    HW2 3687   2.016   2.736   0.322  1.6593 -0.7498 -1.9478
  922SOL     MW 3688   2.031   2.827   0.305  0.6911 -0.3293  0.0075
  923SOL     OW 3689   2.186   2.813   1.658 -0.5529  0.5494 -0.5286
  923SOL    HW1 3690   2.235   2.736   1.620  0.9789  0.7036  0.3909
  923SOL    HW2 3691   2.163   2.867   1.585  0.5547 -0.2760  0.5666
  923SOL     MW 3692   2.190   2.810   1.643 -0.2047  0.4608 -0.2628
  924SOL     OW 3693   1.223   2.623   2.514 -0.0976 -0.2517 -0.3436
  924SOL    HW1 3694   1.282   2.695   2.497  1.6005 -0.2224 -3.6976
  924SOL    HW2 3695   1.278   2.556   2.545  0.0349  0.8364 -2.9037
  924SOL     MW 3696   1.238   2.623   2.516  0.1440 -0.1043 -1.1239
  925SOL     OW 3697   2.949   0.249   2.595  0.0744  0.2149  0.6064
  925SOL    HW1 3698   2.908   0.271   2.511 -0.8070 -0.2583 -3.0496
  925SOL    HW2 3699   2.893   0.285   2.655  1.9657 -1.3143 -0.1415
  925SOL     MW 3700   2.937   0.256   2.592  0.2077 -0.0493  0.0253
  926SOL     OW 3701   2.747   2.407   2.088 -0.0091  0.1635  0.1865
  926SOL    HW1 3702   2.790   2.461   2.153  0.8328 -1.7402 -0.0261
  926SOL    HW2 3703   2.784   2.417   1.998  0.4683 -0.1115 -0.0610
  926SOL     MW 3704   2.758   2.415   2.084  0.1649 -0.1239  0.1258
  927SOL     OW 3705   2.304   0.159   0.292 -0.4394 -0.1330  0.1301
  927SOL    HW1 3706   2.396   0.148   0.333  2.3414 -1.1098 -1.1886
  927SOL    HW2 3707   2.319   0.099   0.217 -0.6526  0.8442 -0.0297
  927SOL     MW 3708   2.318   0.150   0.288 -0.1006 -0.1329 -0.0650
  928SOL     OW 3709   2.074   2.418   1.885  0.3707  0.4548  0.5288
  928SOL    HW1 3710   2.102   2.359   1.816 -2.9405 -1.3863 -0.8524
  928SOL    HW2 3711   2.121   2.392   1.959 -0.5757 -0.1109 -1.2364
  928SOL     MW 3712   2.084   2.407   1.886 -0.1910  0.1373  0.1137
  929SOL     OW 3713   2.677   2.369   2.435  0.3428  0.2697  0.5314
  929SOL    HW1 3714   2.743   2.393   2.370 -1.0458  2.1801 -3.7821
  929SOL    HW2 3715   2.732   2.352   2.511  2.3228 -1.4620  0.7216
  929SOL     MW 3716   2.693   2.370   2.436  0.4208  0.2932 -0.0126
  930SOL     OW 3717   1.998   2.831   2.699  0.3568 -0.2824  0.0977
  930SOL    HW1 3718   2.024   2.757   2.760  0.3310  0.7172 -1.3778
  930SOL    HW2 3719   2.081   2.883   2.676  1.0385  0.9916  0.4880
  930SOL     MW 3720   2.012   2.828   2.704  0.4433  0.0176 -0.0455
  931SOL     OW 3721   3.012   2.788   2.274  0.3854  0.2877 -0.4488
  931SOL    HW1 3722   3.044   2.795   2.366 -0.4298  1.6954 -0.1005
  931SOL    HW2 3723   3.080   2.793   2.212 -2.0387 -1.9028  2.3455
  931SOL     MW 3724   3.025   2.790   2.278 -0.0420  0.1844 -0.0341
  932SOL     OW 3725   2.843   1.993   2.511 -0.5017  0.1443  0.4718
  932SOL    HW1 3726   2.933   2.021   2.529 -0.1318 -0.9973  0.0692
  932SOL    HW2 3727   2.841   1.978   2.417  0.9178  3.1569 -0.9318
  932SOL     MW 3728   2.854   1.995   2.501 -0.2656  0.3912  0.2335
  933SOL     OW 3729   2.045   2.868   2.261 -0.4412  0.2057 -0.0869
  933SOL    HW1 3730   2.120   2.922   2.284 -0.8171 -1.5778 -1.2679
  933SOL    HW2 3731   1.988   2.925   2.207 -2.4838 -1.4326  0.2185
  933SOL     MW 3732   2.048   2.882   2.257 -0.7603 -0.2458 -0.2024
  934SOL     OW 3733   2.021   2.692   2.472  0.1440 -0.2392  0.5813
  934SOL    HW1 3734   2.018   2.739   2.558 -0.7907 -0.7244 -0.3771
  934SOL    HW2 3735   2.026   2.761   2.404  1.5959 -1.0331 -1.7294
  934SOL     MW 3736   2.022   2.708   2.474  0.2123 -0.4080  0.1499
  935SOL     OW 3737   2.652   1.607   1.818 -0.2208 -0.0059 -0.6716
  935SOL    HW1 3738   2.728   1.573   1.776 -1.4600  3.5121 -0.3752
  935SOL    HW2 3739   2.596   1.561   1.750  1.1804 -1.0672 -1.0746
  935SOL     MW 3740   2.655   1.597   1.804 -0.1994  0.3183 -0.6857
  936SOL     OW 3741   3.010   2.274   3.074 -0.2989  0.1718  0.4815
  936SOL    HW1 3742   3.069   2.316   3.135 -0.1071 -0.4150 -0.8273
  936SOL    HW2 3743   2.923   2.307   3.094 -1.0889  0.1329 -2.2487
  936SOL     MW 3744   3.006   2.284   3.085 -0.3778  0.0893 -0.0514
  937SOL     OW 3745   1.960   2.089   2.703 -0.7734 -0.2715 -0.2804
  937SOL    HW1 3746   2.042   2.062   2.759 -1.2796  3.1152  1.0885
  937SOL    HW2 3747   1.975   2.087   2.609 -0.6956  0.9247  0.9770
  937SOL     MW 3748   1.973   2.085   2.698 -0.8299  0.3332  0.0661
  938SOL     OW 3749   2.264   1.833   1.896 -0.2562  0.3046  0.5186
  938SOL    HW1 3750   2.237   1.885   1.823  0.1606 -3.4984 -0.2053
  938SOL    HW2 3751   2.288   1.892   1.971  0.7806  0.3888  3.4516
  938SOL     MW 3752   2.264   1.847   1.896 -0.0644 -0.1861  0.8100
  939SOL     OW 3753   2.809   1.978   2.245  0.0953 -0.2147  0.3034
  939SOL    HW1 3754   2.833   1.904   2.180  0.3632 -1.6805  0.2330
  939SOL    HW2 3755   2.716   1.992   2.241  0.6298 -0.6739  1.4983
  939SOL     MW 3756   2.800   1.970   2.236  0.2012 -0.4687  0.4518
  940SOL     OW 3757   2.317   0.179   2.651  0.0310 -0.2765 -0.5545
  940SOL    HW1 3758   2.299   0.083   2.644 -1.1878  1.3072  1.2156
  940SOL    HW2 3759   2.347   0.191   2.738  1.7470 -0.3454 -0.5876
  940SOL     MW 3760   2.319   0.168   2.662  0.0966 -0.0766 -0.3253
  941SOL     OW 3761   0.193   2.274   2.023  0.0340  0.2829  0.2638
  941SOL    HW1 3762   0.286   2.273   2.017 -0.4051  1.3741  0.3690
  941SOL    HW2 3763   0.160   2.301   1.940 -0.8948  1.2209 -4.0489
  941SOL     MW 3764   0.201   2.278   2.011 -0.1465  0.5506 -0.2914
  942SOL     OW 3765   2.931   2.219   2.140 -0.0769 -0.4771 -0.0999
  942SOL    HW1 3766   2.853   2.278   2.118 -0.5068  0.2164 -2.6521
  942SOL    HW2 3767   2.890   2.157   2.201  1.5124  0.0828  0.0034
  942SOL     MW 3768   2.915   2.219   2.145  0.0761 -0.3117 -0.4230
  943SOL     OW 3769   0.339   2.042   2.310 -0.7939  0.8415 -0.0924
  943SOL    HW1 3770   0.296   2.099   2.378  1.4273 -1.3405  0.4672
  943SOL    HW2 3771   0.441   2.035   2.317  0.2143 -2.0027 -1.5080
  943SOL     MW 3772   0.347   2.049   2.320 -0.3678  0.1783 -0.2053
  944SOL     OW 3773   2.096   2.698   2.052  0.3100  0.4295 -0.0136
  944SOL    HW1 3774   2.142   2.621   2.084  1.7548 -0.7523  1.0073
  944SOL    HW2 3775   2.082   2.755   2.125  1.3289  1.3064 -1.4294
  944SOL     MW 3776   2.101   2.695   2.066  0.6350  0.3893 -0.0657
  945SOL     OW 3777   2.739   2.677   2.850 -0.3228 -0.4207 -0.4216
  945SOL    HW1 3778   2.722   2.581   2.830 -0.2907  0.4853 -0.1012
  945SOL    HW2 3779   2.772   2.710   2.764 -2.2448  0.2509  0.9267
  945SOL     MW 3780   2.741   2.669   2.836 -0.5722 -0.2126 -0.2014
  946SOL     OW 3781   2.499   2.749   2.303 -0.5622  0.5985 -0.0703
  946SOL    HW1 3782   2.529   2.781   2.211  4.4249 -2.7293  2.0581
  946SOL    HW2 3783   2.427   2.686   2.282  0.9984 -0.5450  1.1494
  946SOL     MW 3784   2.493   2.745   2.288  0.3017  0.0085  0.3714
  947SOL     OW 3785   1.986   0.108   0.278 -0.0757  0.1724  0.3766
  947SOL    HW1 3786   1.967   0.051   0.211  0.1536  3.4492  1.8543
  947SOL    HW2 3787   2.039   0.062   0.341 -1.1890  0.3139 -0.7780
  947SOL     MW 3788   1.991   0.094   0.278 -0.1923  0.6234  0.4192
  948SOL     OW 3789   1.766   2.979   2.671 -0.4337 -0.7096  0.2150
  948SOL    HW1 3790   1.843   2.921   2.688 -0.6629  0.1618 -0.8811
  948SOL    HW2 3791   1.776   3.008   2.574 -0.1783  1.1973  1.5822
  948SOL     MW 3792   1.777   2.975   2.660 -0.4303 -0.3431  0.2508
  949SOL     OW 3793   2.532   1.988   2.278 -0.5168  0.4115 -0.3065
  949SOL    HW1 3794   2.528   1.895   2.311 -0.0321 -1.0730  0.5325
  949SOL    HW2 3795   2.470   2.034   2.339  1.3673  0.2788 -2.2385
  949SOL     MW 3796   2.524   1.982   2.291 -0.2042  0.1981 -0.4507
  950SOL     OW 3797   2.288   2.515   3.002 -0.2791  0.1918 -0.4153
  950SOL    HW1 3798   2.330   2.445   2.949  0.5444 -1.2768 -1.4353
  950SOL    HW2 3799   2.215   2.532   2.940 -0.5643  0.7736  1.0087
  950SOL     MW 3800   2.284   2.508   2.987 -0.2081  0.0748 -0.3620
  951SOL     OW 3801   2.991   2.134   2.839  0.4704  0.2136 -0.3621
  951SOL    HW1 3802   2.975   2.189   2.913 -2.0412 -3.1083  0.2063
  951SOL    HW2 3803   3.072   2.158   2.795 -0.9648 -1.0445  0.2402
  951SOL     MW 3804   2.999   2.144   2.843 -0.0503 -0.3907 -0.2076
  952SOL     OW 3805   0.004   1.669   2.160  0.2507 -0.6631  0.3686
  952SOL    HW1 3806  -0.070   1.728   2.125 -2.1406 -1.4549  0.5956
  952SOL    HW2 3807   0.071   1.743   2.153 -1.7793  0.6984 -1.9749
  952SOL     MW 3808   0.003   1.687   2.155 -0.3327 -0.5880  0.0894
  953SOL     OW 3809   1.910   1.790   2.924  0.1395 -0.0026 -0.4268
  953SOL    HW1 3810   1.836   1.748   2.964  0.7873  3.0519 -0.1533
  953SOL    HW2 3811   1.932   1.735   2.845  4.5266  1.5184  0.6550
  953SOL     MW 3812   1.903   1.777   2.919  0.8038  0.6011 -0.2480
  954SOL     OW 3813   2.473   2.096   2.869 -0.4366  0.2995  0.1806
  954SOL    HW1 3814   2.379   2.059   2.867 -2.4785  2.7399  0.2340
  954SOL    HW2 3815   2.529   2.048   2.804  0.7603  0.7478  1.7578
  954SOL     MW 3816   2.468   2.085   2.861 -0.5481  0.6806  0.3957
  955SOL     OW 3817   1.588   1.596   2.613  0.0479 -0.1776  0.7172
  955SOL    HW1 3818   1.532   1.607   2.525 -0.0126 -1.4141 -0.8751
  955SOL    HW2 3819   1.668   1.640   2.582 -0.4023 -0.1877  0.7323
  955SOL     MW 3820   1.591   1.603   2.597 -0.0195 -0.3421  0.5091
  956SOL     OW 3821   2.702   2.412   2.828  0.0630  0.1631  0.0832
  956SOL    HW1 3822   2.733   2.400   2.917 -2.2008  0.6317  1.0902
  956SOL    HW2 3823   2.754   2.362   2.770 -0.0001  0.3370  0.5740
  956SOL     MW 3824   2.713   2.404   2.832 -0.2440  0.2479  0.2808
  957SOL     OW 3825   2.308   2.864   0.380 -0.1033 -0.3567  0.3311
  957SOL    HW1 3826   2.221   2.850   0.337 -0.5075  1.5141  0.3370
  957SOL    HW2 3827   2.296   2.822   0.470  0.7130  0.3091 -1.1581
  957SOL     MW 3828   2.295   2.857   0.386 -0.0490 -0.0220  0.1354
  958SOL     OW 3829   2.051   2.604   2.859  0.1135 -0.5908  0.4669
  958SOL    HW1 3830   2.068   2.529   2.796  1.3195  0.4448 -1.7616
  958SOL    HW2 3831   1.957   2.606   2.885  0.8047 -0.5676 -1.1656
  958SOL     MW 3832   2.041   2.595   2.854  0.3638 -0.4511 -0.0425
  959SOL     OW 3833   2.434   2.627   0.375  0.5847 -0.3312 -0.0585
  959SOL    HW1 3834   2.506   2.619   0.315 -3.1965 -0.1064 -1.7013
  959SOL    HW2 3835   2.405   2.717   0.355 -1.2066 -2.0745  3.1745
  959SOL     MW 3836   2.440   2.638   0.364 -0.1505 -0.5316  0.1513
  960SOL     OW 3837   1.977   2.304   2.244 -0.0863 -0.0238 -0.6164
  960SOL    HW1 3838   1.937   2.237   2.186  1.9376 -2.1041 -2.0715
  960SOL    HW2 3839   1.915   2.309   2.318  0.2420  0.9544  0.1061
  960SOL     MW 3840   1.964   2.296   2.246  0.2241 -0.1692 -0.7131
  961SOL     OW 3841   2.244   2.331   2.262 -0.1363 -0.0824 -0.5685
  961SOL    HW1 3842   2.146   2.320   2.264 -1.3122  1.2361  1.4452
  961SOL    HW2 3843   2.262   2.360   2.349  0.3096 -1.8479 -2.6459
  961SOL     MW 3844   2.233   2.333   2.274 -0.2326 -0.1414 -0.5769
  962SOL     OW 3845   2.223   2.008   2.820  0.2890  0.8421  0.2545
  962SOL    HW1 3846   2.177   2.002   2.903  1.7576 -2.7425 -0.0127
  962SOL    HW2 3847   2.218   1.920   2.779  0.9294 -1.5873  0.7294
  962SOL     MW 3848   2.216   1.996   2.826  0.5672  0.0486  0.2819
  963SOL     OW 3849   1.828   2.612   2.058 -0.2581 -0.1800  0.0492
  963SOL    HW1 3850   1.920   2.645   2.050  2.6007  0.7776  0.4288
  963SOL    HW2 3851   1.818   2.559   1.982  2.0399 -0.6138  1.1183
  963SOL     MW 3852   1.839   2.609   2.047  0.4223 -0.1109  0.2404
  964SOL     OW 3853   1.753   1.925   2.734 -0.2673 -0.2212 -0.5025
  964SOL    HW1 3854   1.822   1.990   2.714 -0.9100 -2.3526 -0.2488
  964SOL    HW2 3855   1.797   1.857   2.795  2.9039 -0.6177 -0.9840
  964SOL     MW 3856   1.768   1.925   2.739  0.0663 -0.5548 -0.5326
  965SOL     OW 3857   2.236   2.753   0.617 -0.3018  0.0925 -0.2661
  965SOL    HW1 3858   2.257   2.664   0.598  0.6759 -0.3086  1.2853
  965SOL    HW2 3859   2.265   2.777   0.706  2.2653 -0.2285  1.1527
  965SOL     MW 3860   2.243   2.744   0.626  0.1659 -0.0028  0.1258
  966SOL     OW 3861   2.638   2.627   2.505  0.2710  0.1709 -0.2764
  966SOL    HW1 3862   2.603   2.671   2.430  2.1608 -0.9709  1.6769
  966SOL    HW2 3863   2.667   2.538   2.481  0.7266 -1.3968  1.9729
  966SOL     MW 3864   2.637   2.621   2.492  0.5805 -0.1866  0.2781
  967SOL     OW 3865   2.832   3.016   2.899 -0.3537  0.0430 -0.1052
  967SOL    HW1 3866   2.834   2.926   2.931 -0.5547 -1.4062  0.9501
  967SOL    HW2 3867   2.743   3.027   2.859  0.1697 -1.3997  0.1054
  967SOL     MW 3868   2.820   3.005   2.898 -0.3111 -0.3386  0.0618
  968SOL     OW 3869   3.021   2.657   2.898  0.4160 -0.2243 -0.1283
  968SOL    HW1 3870   2.938   2.672   2.865  1.5801 -0.7474 -3.4836
  968SOL    HW2 3871   3.060   2.598   2.833  1.9078  0.8835 -1.5947
  968SOL     MW 3872   3.015   2.651   2.885  0.7664 -0.1471 -0.7645
  969SOL     OW 3873   1.516   2.146   1.674 -0.4247  0.6461 -0.2375
  969SOL    HW1 3874   1.592   2.088   1.676 -0.6903 -1.1851  2.7378
  969SOL    HW2 3875   1.503   2.167   1.763  1.5987  0.1511 -2.1492
  969SOL     MW 3876   1.524   2.141   1.686 -0.1928  0.3392 -0.0972
  970SOL     OW 3877   1.625   1.710   1.765  0.2165 -0.2336 -0.1380
  970SOL    HW1 3878   1.702   1.669   1.810  2.1421  1.2337  1.7654
  970SOL    HW2 3879   1.560   1.720   1.836  3.3802  0.7603 -1.6908
  970SOL     MW 3880   1.627   1.706   1.780  0.8880  0.0911 -0.0917
  971SOL     OW 3881   1.766   3.072   2.411 -0.2106  0.1344  0.0867
  971SOL    HW1 3882   1.786   3.063   2.321  0.3428  1.0378 -2.3258
  971SOL    HW2 3883   1.828   3.144   2.432  3.1579 -0.2920  0.2388
  971SOL     MW 3884   1.777   3.080   2.402  0.3069  0.1973 -0.2115
  972SOL     OW 3885   0.264   2.870   2.464 -0.2249  0.4294 -0.2109
  972SOL    HW1 3886   0.316   2.795   2.492 -0.5421 -0.3084  3.0750
  972SOL    HW2 3887   0.309   2.943   2.499  1.4237 -1.9896  1.6565
  972SOL     MW 3888   0.277   2.870   2.472 -0.0492  0.0129  0.4691
  973SOL     OW 3889   2.499   0.053   2.069 -0.6478 -0.0332 -0.5928
  973SOL    HW1 3890   2.490  -0.039   2.072  1.2755 -0.8735  1.3622
  973SOL    HW2 3891   2.515   0.080   1.978 -0.5741  0.3601 -2.6721
  973SOL     MW 3892   2.500   0.044   2.057 -0.3843 -0.0922 -0.6092
  974SOL     OW 3893   2.050   0.219   2.685  0.0447  0.4168  0.1174
  974SOL    HW1 3894   2.145   0.213   2.675  1.6379  0.1284 -0.7359
  974SOL    HW2 3895   2.018   0.144   2.736 -0.4784  1.1056 -1.0867
  974SOL     MW 3896   2.058   0.209   2.690  0.1859  0.4696 -0.1540
  975SOL     OW 3897   2.180   2.474   2.493  0.0533 -0.0451 -0.0274
  975SOL    HW1 3898   2.253   2.518   2.531 -0.6160  0.6050 -3.0540
  975SOL    HW2 3899   2.122   2.551   2.465 -0.1981  2.4615  0.5234
  975SOL     MW 3900   2.182   2.490   2.494 -0.0682  0.3714 -0.3541
  976SOL     OW 3901   0.262   0.328   1.708  0.1819 -0.5170  0.1632
  976SOL    HW1 3902   0.317   0.261   1.754  1.1175  0.7194  0.2709
  976SOL    HW2 3903   0.196   0.282   1.661 -0.8466 -1.0619 -1.8852
  976SOL     MW 3904   0.261   0.313   1.708  0.1696 -0.4258 -0.0928
  977SOL     OW 3905   1.752   2.628   2.478 -0.3226 -0.3974  0.2112
  977SOL    HW1 3906   1.757   2.533   2.474 -1.7369 -0.2919 -1.5087
  977SOL    HW2 3907   1.844   2.652   2.474 -0.5922 -1.4550 -2.5758
  977SOL     MW 3908   1.765   2.619   2.477 -0.5448 -0.5230 -0.3834
   3.10000   3.10000   3.10000
