977 TIP4P/2005f water molecules t=   1.06000 step= 1060
 3908
    1SOL     OW    1   0.396   0.799   0.032  0.3197 -0.3333 -0.2804
    1SOL    HW1    2   0.398   0.845  -0.056  3.1934  0.4093 -0.7106
    1SOL    HW2    3   0.323   0.735   0.028 -2.3862 -0.2657  0.6446
    1SOL     MW    4   0.387   0.797   0.020  0.3419 -0.2264 -0.2151
    2SOL     OW    5   0.332   3.058   1.174  0.1045  0.2302  0.4323
    2SOL    HW1    6   0.385   3.133   1.138  1.7525  3.1197 -1.2955
    2SOL    HW2    7   0.243   3.086   1.198  0.2256 -2.6131  0.2673
    2SOL     MW    8   0.327   3.071   1.173  0.3379  0.2363  0.1826
    3SOL     OW    9   2.629   0.440   0.982 -0.3841 -0.2247  0.0140
    3SOL    HW1   10   2.660   0.503   0.917 -2.5158  3.5389 -3.3314
    3SOL    HW2   11   2.600   0.480   1.070 -0.9945  1.6457  0.2046
    3SOL     MW   12   2.629   0.454   0.985 -0.7459  0.5186 -0.4023
    4SOL     OW   13   2.931   1.671   0.563  0.3167  0.2687 -0.3680
    4SOL    HW1   14   2.873   1.730   0.518 -1.5665  1.6955 -0.1088
    4SOL    HW2   15   2.992   1.658   0.491  1.3541 -0.4187 -0.7529
    4SOL     MW   16   2.932   1.677   0.548  0.2051  0.3663 -0.3846
    5SOL     OW   17   1.765   1.487   0.525 -0.8086 -0.4417  0.3826
    5SOL    HW1   18   1.762   1.441   0.606 -2.2592  2.5554  2.2955
    5SOL    HW2   19   1.675   1.530   0.512 -1.2164  0.6214 -2.4479
    5SOL     MW   20   1.753   1.487   0.534 -1.0538  0.0940  0.2615
    6SOL     OW   21   0.803   1.373   0.580 -0.0104 -0.6244 -0.3870
    6SOL    HW1   22   0.735   1.415   0.637  0.3277  1.2634 -0.9779
    6SOL    HW2   23   0.843   1.305   0.635 -2.2385  1.3796  0.7280
    6SOL     MW   24   0.799   1.369   0.595 -0.2597 -0.1109 -0.3179
    7SOL     OW   25   2.070   1.026   0.001  0.1439 -0.3293  0.2372
    7SOL    HW1   26   2.123   1.053  -0.069 -1.3087 -1.0441  0.4037
    7SOL    HW2   27   2.120   1.038   0.080 -0.2241 -1.0225 -0.7466
    7SOL     MW   28   2.083   1.031   0.002 -0.0963 -0.5151  0.1294
    8SOL     OW   29   0.910   1.435   1.155 -0.4187  0.2095  0.9277
    8SOL    HW1   30   0.995   1.408   1.126 -0.9761 -1.1566 -0.9944
    8SOL    HW2   31   0.871   1.354   1.185  0.3067  1.8889  0.4474
    8SOL     MW   32   0.916   1.421   1.156 -0.3965  0.2508  0.6107
    9SOL     OW   33   1.019   0.537   1.398 -0.0624 -0.2658  0.3839
    9SOL    HW1   34   0.975   0.465   1.347 -2.2222 -0.6701 -1.6504
    9SOL    HW2   35   1.065   0.495   1.472 -0.0184  0.4822 -0.8439
    9SOL     MW   36   1.019   0.522   1.401 -0.3416 -0.2204 -0.0465
   10SOL     OW   37   0.203   0.765   0.457  0.1218 -0.0532  0.4775
   10SOL    HW1   38   0.295   0.802   0.438  0.5375  1.3613 -0.2846
   10SOL    HW2   39   0.167   0.795   0.545 -2.0983  0.3898 -1.2293
   10SOL     MW   40   0.211   0.774   0.466 -0.1163  0.1919  0.1517
   11SOL     OW   41   0.810   1.136   1.643  0.2159 -0.1541 -1.0905
   11SOL    HW1   42   0.830   1.101   1.732  0.4183  2.0976  1.7875
   11SOL    HW2   43   0.828   1.072   1.583  1.5872  2.3867 -0.3770
   11SOL     MW   44   0.815   1.123   1.647  0.4236  0.4782 -0.6166
   12SOL     OW   45   0.027   1.086   0.863 -0.5782  0.0412 -0.0156
   12SOL    HW1   46   0.062   1.143   0.932  2.8477  0.9676  2.1180
   12SOL    HW2   47   0.027   1.140   0.787  0.0343  2.7668  0.5653
   12SOL     MW   48   0.031   1.100   0.862 -0.0454  0.5230  0.3426
   13SOL     OW   49   1.846   1.442   1.337 -0.1937 -0.1099 -0.1812
   13SOL    HW1   50   1.901   1.393   1.277 -2.5457  3.1574 -1.2577
   13SOL    HW2   51   1.855   1.535   1.316 -1.1726 -0.1334 -0.5244
   13SOL     MW   52   1.854   1.448   1.326 -0.6332  0.3181 -0.3685
   14SOL     OW   53   0.582   0.393   1.865 -0.3209  0.4718 -0.2604
   14SOL    HW1   54   0.522   0.317   1.847 -0.0244  0.2604  2.0044
   14SOL    HW2   55   0.668   0.344   1.855 -1.1715 -0.6880 -0.3740
   14SOL     MW   56   0.585   0.377   1.862 -0.3940  0.2909  0.0234
   15SOL     OW   57   1.947   0.350   1.063  0.5818  0.0880 -0.0207
   15SOL    HW1   58   1.899   0.398   1.128 -0.5896  0.6188  0.0736
   15SOL    HW2   59   1.996   0.415   1.012  2.0284 -2.5330 -1.2912
   15SOL     MW   60   1.947   0.365   1.065  0.6181 -0.1877 -0.1759
   16SOL     OW   61   0.193   1.803   0.329 -0.3335 -0.0527 -0.0659
   16SOL    HW1   62   0.288   1.780   0.343  0.3286  0.6225 -0.6538
   16SOL    HW2   63   0.188   1.894   0.338  1.9068 -1.6824  1.0403
   16SOL     MW   64   0.205   1.812   0.332  0.0494 -0.1786  0.0025
   17SOL     OW   65   1.100   0.906   1.439 -0.5243  0.5783  0.6827
   17SOL    HW1   66   1.150   0.861   1.504  0.0599  4.2748 -0.7666
   17SOL    HW2   67   1.008   0.894   1.461  0.5456 -1.3401 -1.7951
   17SOL     MW   68   1.094   0.898   1.451 -0.3061  0.8129  0.1646
   18SOL     OW   69   0.041   1.572   0.421 -0.3385  0.1537 -0.2950
   18SOL    HW1   70   0.086   1.632   0.367 -3.8162 -1.7852  1.3359
   18SOL    HW2   71  -0.002   1.504   0.365  1.5463 -0.2986 -1.0945
   18SOL     MW   72   0.041   1.571   0.406 -0.5487 -0.1618 -0.1853
   19SOL     OW   73   0.115   1.279   1.028 -0.5129 -0.1625  0.0647
   19SOL    HW1   74   0.146   1.340   0.959 -1.7280 -2.2446  2.5979
   19SOL    HW2   75   0.029   1.316   1.054 -0.6521  1.6495  2.0580
   19SOL     MW   76   0.108   1.292   1.023 -0.6916 -0.1981  0.6619
   20SOL     OW   77   0.440   2.150   1.169 -0.1672  0.2204 -0.0000
   20SOL    HW1   78   0.396   2.073   1.129  0.6780 -1.6297 -1.9192
   20SOL    HW2   79   0.393   2.169   1.253  2.1293 -1.8768  0.3278
   20SOL     MW   80   0.428   2.143   1.175  0.2473 -0.3004 -0.2100
   21SOL     OW   81   0.456   0.866   0.405  0.0177  0.3075  0.3926
   21SOL    HW1   82   0.525   0.846   0.470 -1.5147 -1.5079  2.3137
   21SOL    HW2   83   0.498   0.831   0.328  0.1857  0.5836  2.4142
   21SOL     MW   84   0.471   0.859   0.403 -0.1623  0.1044  0.9128
   22SOL     OW   85   1.591   0.637   1.029  0.1177  0.0543 -0.0340
   22SOL    HW1   86   1.532   0.634   0.956  1.6311 -1.4499  2.4280
   22SOL    HW2   87   1.538   0.688   1.093 -0.3165 -0.6301  0.4493
   22SOL     MW   88   1.576   0.643   1.028  0.2601 -0.2345  0.3546
   23SOL     OW   89   3.059   0.708   0.660 -0.4559 -0.5141  0.1628
   23SOL    HW1   90   3.104   0.641   0.722 -0.1993 -2.4165  2.1612
   23SOL    HW2   91   3.111   0.783   0.692  1.1097 -0.9046  1.8796
   23SOL     MW   92   3.072   0.709   0.672 -0.2155 -0.8166  0.6530
   24SOL     OW   93   2.031   2.210   0.031 -0.2158 -0.2661  0.0094
   24SOL    HW1   94   2.023   2.194   0.127 -1.1217 -1.1383 -1.4525
   24SOL    HW2   95   2.056   2.131  -0.018  0.1208 -1.0662 -1.9258
   24SOL     MW   96   2.033   2.197   0.037 -0.2909 -0.4867 -0.4388
   25SOL     OW   97   0.226   1.424   0.566  0.2098  0.2097  0.2237
   25SOL    HW1   98   0.183   1.492   0.521 -0.0146 -2.2299  0.0764
   25SOL    HW2   99   0.312   1.461   0.585 -1.8754 -0.5548 -0.5281
   25SOL     MW  100   0.232   1.437   0.563 -0.0949 -0.2131  0.1051
   26SOL     OW  101   2.109   1.021   0.356 -0.1418  0.8636 -0.3423
   26SOL    HW1  102   2.058   1.078   0.407  1.6597  1.5964 -0.3870
   26SOL    HW2  103   2.166   1.089   0.317 -0.5368  1.1149  1.6060
   26SOL     MW  104   2.110   1.038   0.358  0.0438  0.9935 -0.0911
   27SOL     OW  105   2.005   1.436   0.241 -0.4127  0.1298 -0.3884
   27SOL    HW1  106   1.915   1.457   0.215 -2.0791  1.8441  1.8174
   27SOL    HW2  107   2.034   1.514   0.290  0.9035 -0.2118  0.7937
   27SOL     MW  108   1.997   1.449   0.244 -0.4589  0.3109  0.0586
   28SOL     OW  109   0.434   0.991   1.948 -0.4308  0.3417  0.1899
   28SOL    HW1  110   0.506   0.979   2.020  1.7784 -0.4995 -0.1189
   28SOL    HW2  111   0.359   0.949   1.986 -0.7623 -0.4802 -1.9723
   28SOL     MW  112   0.434   0.984   1.962 -0.1831  0.1223 -0.1362
   29SOL     OW  113   0.219   1.447   0.832 -0.2802  0.8654  0.6921
   29SOL    HW1  114   0.223   1.542   0.849 -2.3745 -0.2756 -0.7727
   29SOL    HW2  115   0.213   1.442   0.736  1.1243 -1.6563 -1.0407
   29SOL     MW  116   0.219   1.459   0.821 -0.3712  0.3822  0.2702
   30SOL     OW  117   0.816   1.194   1.227  0.0838  0.3766 -0.4610
   30SOL    HW1  118   0.742   1.186   1.284 -0.6607  0.3388  0.8557
   30SOL    HW2  119   0.895   1.193   1.292  1.4050  0.5401  1.0512
   30SOL     MW  120   0.817   1.193   1.243  0.1599  0.3932 -0.0878
   31SOL     OW  121   0.441   0.228   0.167  0.6644  0.7106 -0.2666
   31SOL    HW1  122   0.437   0.157   0.226 -0.2324  4.8988  1.4127
   31SOL    HW2  123   0.465   0.186   0.082 -0.0297 -4.1554 -0.0904
   31SOL     MW  124   0.444   0.214   0.164  0.4545  0.6212 -0.0217
   32SOL     OW  125   2.816   0.971   1.182 -0.3042  0.2405  0.0625
   32SOL    HW1  126   2.760   0.896   1.170  2.0029  0.9802  2.4932
   32SOL    HW2  127   2.900   0.940   1.146 -0.3428 -0.7052  0.5159
   32SOL     MW  128   2.819   0.957   1.176 -0.0049  0.2133  0.4430
   33SOL     OW  129   1.726   1.304   0.323 -0.1523 -0.1225 -0.1240
   33SOL    HW1  130   1.805   1.248   0.332  0.0488  1.4214  0.0820
   33SOL    HW2  131   1.744   1.373   0.383 -1.8274 -0.8591  1.0137
   33SOL     MW  132   1.739   1.306   0.332 -0.3468 -0.0160  0.0533
   34SOL     OW  133   1.225   1.888   1.109 -0.4499  0.0768 -0.6210
   34SOL    HW1  134   1.154   1.951   1.124 -1.3240  0.2593  0.7428
   34SOL    HW2  135   1.294   1.921   1.168  1.1716  0.1425 -0.0533
   34SOL     MW  136   1.225   1.901   1.119 -0.3513  0.1095 -0.3661
   35SOL     OW  137   0.422   0.151   1.834 -0.3999 -0.4654  0.5840
   35SOL    HW1  138   0.441   0.090   1.906 -0.7603  0.3015 -0.5528
   35SOL    HW2  139   0.473   0.124   1.757 -0.9124  0.2289  3.7324
   35SOL     MW  140   0.431   0.140   1.833 -0.5151 -0.2726  0.8494
   36SOL     OW  141   1.965   1.964   0.591 -0.0031 -0.0716  0.2933
   36SOL    HW1  142   1.974   1.953   0.497  4.2951  0.3456  0.7295
   36SOL    HW2  143   1.966   1.873   0.629 -1.9114  1.5816  2.7581
   36SOL     MW  144   1.966   1.951   0.584  0.3122  0.2016  0.6761
   37SOL     OW  145   1.803   1.977   0.965  0.1349 -0.0816 -0.2746
   37SOL    HW1  146   1.770   1.919   0.894  2.2359  2.6066  0.1677
   37SOL    HW2  147   1.726   2.018   1.001 -0.3777  0.0972 -1.5873
   37SOL     MW  148   1.788   1.975   0.961  0.3445  0.2966 -0.3895
   38SOL     OW  149   2.823   0.927   0.150 -0.0571  0.2916 -0.0744
   38SOL    HW1  150   2.825   0.914   0.246 -0.9367  1.0569  1.5397
   38SOL    HW2  151   2.901   0.887   0.116 -0.6239 -1.1641 -1.6428
   38SOL     MW  152   2.833   0.920   0.158 -0.2480  0.2005 -0.0684
   39SOL     OW  153   1.425   0.631   0.806  0.2435 -0.2141  0.0075
   39SOL    HW1  154   1.386   0.548   0.837  1.3592 -1.7140  1.0157
   39SOL    HW2  155   1.343   0.663   0.758 -0.1159 -2.0410 -0.0454
   39SOL     MW  156   1.409   0.624   0.803  0.3433 -0.6530  0.1335
   40SOL     OW  157   1.184   1.917   0.319 -0.1268  0.0336  0.0718
   40SOL    HW1  158   1.230   1.839   0.349  2.1361 -0.2513 -2.9700
   40SOL    HW2  159   1.185   1.976   0.395  0.1586  1.9031 -0.9615
   40SOL     MW  160   1.190   1.914   0.333  0.2094  0.2426 -0.4659
   41SOL     OW  161   0.587   0.538   1.634 -0.3425 -0.5043 -0.4815
   41SOL    HW1  162   0.663   0.597   1.644 -1.0161 -0.2667 -0.6038
   41SOL    HW2  163   0.572   0.507   1.726 -1.3301 -1.3822  1.4034
   41SOL     MW  164   0.595   0.541   1.648 -0.5617 -0.5888 -0.2489
   42SOL     OW  165   1.269   3.001   2.008  0.5331 -0.0994  0.1078
   42SOL    HW1  166   1.183   3.010   2.044  2.6837 -0.4834  1.4319
   42SOL    HW2  167   1.300   2.917   2.048  1.0830 -0.5407  1.6184
   42SOL     MW  168   1.262   2.991   2.018  0.8894 -0.2083  0.4818
   43SOL     OW  169   1.519   0.126   1.710  0.3095 -0.0688 -0.5358
   43SOL    HW1  170   1.563   0.074   1.638 -0.5213 -3.3372  0.0186
   43SOL    HW2  171   1.433   0.085   1.726  1.2643 -2.3992  0.2359
   43SOL     MW  172   1.513   0.113   1.703  0.3259 -0.8075 -0.3608
   44SOL     OW  173   1.091   0.799   1.037  0.7084  0.0625  0.0935
   44SOL    HW1  174   1.117   0.890   1.037 -2.1277  1.0886 -1.5081
   44SOL    HW2  175   1.117   0.766   1.122  0.6108  0.1384 -1.1893
   44SOL     MW  176   1.098   0.807   1.049  0.3213  0.2079 -0.2871
   45SOL     OW  177   1.219   0.757   0.643  0.1756  0.1264 -0.2213
   45SOL    HW1  178   1.158   0.830   0.631 -1.6505  0.1788 -1.4095
   45SOL    HW2  179   1.176   0.683   0.582  3.4574 -2.4794 -2.8470
   45SOL     MW  180   1.205   0.757   0.633  0.3677 -0.2105 -0.7245
   46SOL     OW  181   0.553   1.166   0.603 -0.2210 -0.5154 -0.3492
   46SOL    HW1  182   0.530   1.149   0.509 -0.1573 -2.9118  0.0015
   46SOL    HW2  183   0.623   1.105   0.609 -0.4787 -2.6719  0.0930
   46SOL     MW  184   0.559   1.156   0.591 -0.2466 -1.1161 -0.2446
   47SOL     OW  185   0.211   2.053   1.993  0.2111  0.3318 -0.2433
   47SOL    HW1  186   0.281   1.987   1.988  2.2026  0.6778  1.5509
   47SOL    HW2  187   0.197   2.061   2.083  2.2585  1.3098 -1.1121
   47SOL     MW  188   0.218   2.046   2.004  0.7440  0.5065 -0.1212
   48SOL     OW  189   1.061   0.482   1.045 -0.5409 -0.2095  0.6051
   48SOL    HW1  190   0.987   0.441   0.999  1.9918  2.6485 -0.2450
   48SOL    HW2  191   1.041   0.572   1.040  0.2158  2.8015  1.6102
   48SOL     MW  192   1.049   0.488   1.038 -0.1069  0.5648  0.6255
   49SOL     OW  193   1.743   0.707   1.528 -0.9899 -0.1088  0.4410
   49SOL    HW1  194   1.726   0.654   1.607  0.9506 -1.7067  1.9957
   49SOL    HW2  195   1.826   0.666   1.499 -2.6280  0.9818 -0.2663
   49SOL     MW  196   1.752   0.695   1.535 -0.9500 -0.1757  0.5528
   50SOL     OW  197   1.324   1.072   0.512  0.1325 -0.1632  0.2073
   50SOL    HW1  198   1.302   1.114   0.593  2.3763 -0.3742  0.7266
   50SOL    HW2  199   1.397   1.016   0.540 -1.2726 -1.0011 -0.0026
   50SOL     MW  200   1.331   1.070   0.527  0.2432 -0.3016  0.2481
   51SOL     OW  201   0.337   2.918   0.909  0.4018  0.0456 -0.1216
   51SOL    HW1  202   0.426   2.878   0.901  0.8131 -0.7722 -3.0348
   51SOL    HW2  203   0.319   2.946   0.999 -2.0702  1.0999  2.1946
   51SOL     MW  204   0.346   2.916   0.920  0.1299  0.0768 -0.2003
   52SOL     OW  205   0.778   1.727   0.415  0.0552 -0.4112 -0.2892
   52SOL    HW1  206   0.726   1.795   0.364  0.2363  0.9000  0.1968
   52SOL    HW2  207   0.805   1.659   0.354  2.0300  0.7032  0.1554
   52SOL     MW  208   0.775   1.727   0.400  0.3397 -0.0912 -0.1664
   53SOL     OW  209   0.440   2.093   0.503  0.1424  0.3061 -1.4537
   53SOL    HW1  210   0.367   2.100   0.444 -0.8984  2.5595 -0.5836
   53SOL    HW2  211   0.421   2.168   0.562 -2.0878  0.9607  1.5087
   53SOL     MW  212   0.428   2.104   0.503 -0.2891  0.6897 -0.9480
   54SOL     OW  213   1.999   0.942   0.789  0.1962  0.1122  0.1509
   54SOL    HW1  214   2.053   0.965   0.711 -2.0780  1.0551 -2.3190
   54SOL    HW2  215   1.980   0.850   0.777 -0.6228 -0.0295 -0.6409
   54SOL     MW  216   2.003   0.933   0.777 -0.2119  0.2179 -0.2795
   55SOL     OW  217   0.538   1.550   1.614  0.5363  0.1191 -0.0076
   55SOL    HW1  218   0.488   1.584   1.542 -1.7290  0.5605  1.1689
   55SOL    HW2  219   0.598   1.490   1.574 -1.0636 -0.2456 -1.7028
   55SOL     MW  220   0.540   1.546   1.599  0.0263  0.1293 -0.0760
   56SOL     OW  221   0.614   0.822   0.189  0.1983  0.1887 -0.0717
   56SOL    HW1  222   0.650   0.911   0.185 -3.3028  0.6857 -0.6394
   56SOL    HW2  223   0.549   0.817   0.119  1.3117 -0.3713  1.1880
   56SOL     MW  224   0.610   0.833   0.179 -0.1167  0.1804  0.0196
   57SOL     OW  225   1.160   1.260   1.177  0.5541 -0.1476 -0.0039
   57SOL    HW1  226   1.252   1.237   1.182 -1.6510 -1.0629  1.9115
   57SOL    HW2  227   1.113   1.238   1.258 -0.9128 -4.3103  1.4303
   57SOL     MW  228   1.166   1.254   1.188  0.0696 -0.8176  0.4380
   58SOL     OW  229   0.540   1.220   1.350 -0.5822  0.8563 -0.1462
   58SOL    HW1  230   0.508   1.309   1.336 -5.6376 -0.0081 -0.4824
   58SOL    HW2  231   0.518   1.214   1.441 -1.0314  3.2404 -0.6123
   58SOL     MW  232   0.533   1.231   1.360 -1.3085  1.0568 -0.2520
   59SOL     OW  233   1.544   1.695   0.357  0.1404 -0.1296 -0.0047
   59SOL    HW1  234   1.569   1.771   0.408 -1.2400 -0.2963 -1.8871
   59SOL    HW2  235   1.457   1.660   0.387 -2.1156 -2.5750 -0.2481
   59SOL     MW  236   1.536   1.700   0.368 -0.3394 -0.4743 -0.2852
   60SOL     OW  237   0.020   0.222   1.635  0.6402  0.0738  0.4436
   60SOL    HW1  238  -0.049   0.275   1.663 -1.0579 -0.5886  1.8706
   60SOL    HW2  239   0.032   0.138   1.683  0.4517 -1.3618  0.6624
   60SOL     MW  240   0.013   0.218   1.645  0.3913 -0.2030  0.6607
   61SOL     OW  241   2.042   1.446   3.064  0.4597 -0.8342 -0.4867
   61SOL    HW1  242   2.044   1.427   3.160  2.2278 -2.4561 -0.2048
   61SOL    HW2  243   2.118   1.393   3.029  0.4627 -2.3466  1.6074
   61SOL     MW  244   2.052   1.436   3.072  0.6934 -1.2477 -0.1732
   62SOL     OW  245   0.577   1.703   0.608 -0.2097  0.1139 -0.1378
   62SOL    HW1  246   0.648   1.724   0.544 -0.1486 -3.7485  0.1717
   62SOL    HW2  247   0.572   1.615   0.622  2.1586  4.6547 -0.9290
   62SOL     MW  248   0.586   1.695   0.601  0.1109  0.2034 -0.2013
   63SOL     OW  249   1.694   0.692   0.712 -0.1123  0.2151  0.1712
   63SOL    HW1  250   1.700   0.781   0.675 -0.0485 -1.6741 -0.8389
   63SOL    HW2  251   1.604   0.681   0.748 -0.6025 -0.1599 -0.3343
   63SOL     MW  252   1.683   0.702   0.712 -0.1686 -0.0837 -0.0288
   64SOL     OW  253   0.224   1.712   0.826  0.3039 -0.0937 -0.1905
   64SOL    HW1  254   0.264   1.765   0.763 -0.4277 -0.2843  0.0498
   64SOL    HW2  255   0.134   1.743   0.848 -0.0834  1.4803  1.0582
   64SOL     MW  256   0.218   1.723   0.821  0.1563  0.0888  0.0060
   65SOL     OW  257   1.585   2.309   0.391 -0.0887  0.2774  0.7453
   65SOL    HW1  258   1.655   2.251   0.416  0.5562 -1.1085  1.1616
   65SOL    HW2  259   1.560   2.343   0.479  1.6116  1.2541 -0.3318
   65SOL     MW  260   1.591   2.306   0.406  0.2207  0.2234  0.6581
   66SOL     OW  261   0.291   0.522   0.545 -0.3440  0.0778  0.1715
   66SOL    HW1  262   0.348   0.492   0.466  0.4371  0.7598 -2.3591
   66SOL    HW2  263   0.269   0.614   0.522  0.6163 -1.8024  0.7391
   66SOL     MW  264   0.296   0.531   0.532 -0.1142 -0.0803 -0.0875
   67SOL     OW  265   1.498   0.074   2.015 -0.2144  0.0390 -0.5634
   67SOL    HW1  266   1.523   0.084   1.927 -1.2824 -1.6349 -1.5687
   67SOL    HW2  267   1.432   0.001   2.027 -4.5279  0.7109  0.4748
   67SOL     MW  268   1.492   0.066   2.005 -0.9244 -0.0932 -0.5591
   68SOL     OW  269   0.707   0.037   2.962 -0.0256  0.2256  1.0858
   68SOL    HW1  270   0.710   0.114   2.897 -3.7639 -1.5640 -2.2201
   68SOL    HW2  271   0.768   0.062   3.035  2.1138 -1.2229 -0.5371
   68SOL     MW  272   0.715   0.051   2.963 -0.2365 -0.2016  0.4355
   69SOL     OW  273   1.052   0.203   1.950 -0.4231 -0.2678 -0.2091
   69SOL    HW1  274   1.138   0.244   1.969  0.2942 -2.5168 -0.9607
   69SOL    HW2  275   1.048   0.126   2.008  0.4407  0.3439  3.8421
   69SOL     MW  276   1.063   0.198   1.960 -0.2145 -0.4838  0.2263
   70SOL     OW  277   0.579   1.732   1.150  0.1103 -0.0685  0.3548
   70SOL    HW1  278   0.621   1.673   1.211 -1.3260  1.0452  0.3361
   70SOL    HW2  279   0.652   1.771   1.101  2.8455  1.5422  1.9208
   70SOL     MW  280   0.594   1.729   1.152  0.2817  0.2909  0.5590
   71SOL     OW  281   1.601   0.472   1.246 -0.0807 -0.4529 -0.0238
   71SOL    HW1  282   1.537   0.533   1.288 -0.3018 -0.4670  3.1286
   71SOL    HW2  283   1.587   0.495   1.153 -1.7746  1.1073  0.4704
   71SOL     MW  284   1.591   0.483   1.239 -0.3334 -0.2489  0.4573
   72SOL     OW  285   0.780   1.857   0.996  0.0956 -0.5133  0.0264
   72SOL    HW1  286   0.776   1.913   0.913 -0.0117 -3.5025 -0.1564
   72SOL    HW2  287   0.787   1.765   0.960  0.6919 -1.6666  0.4675
   72SOL     MW  288   0.780   1.852   0.980  0.1601 -1.0598  0.0605
   73SOL     OW  289   1.182   0.707   1.271  0.8858  0.5206 -0.0641
   73SOL    HW1  290   1.133   0.631   1.301 -1.9537  1.5087 -2.4905
   73SOL    HW2  291   1.150   0.784   1.328  0.5498  0.7813  1.4606
   73SOL     MW  292   1.171   0.707   1.282  0.4668  0.6854 -0.1831
   74SOL     OW  293   2.729   0.198   1.023  0.4821  0.0126  0.5637
   74SOL    HW1  294   2.802   0.182   0.960  0.4288  0.1310  1.3466
   74SOL    HW2  295   2.697   0.289   1.014  0.7925  1.6234  3.0053
   74SOL     MW  296   2.735   0.208   1.013  0.5161  0.2407  0.9892
   75SOL     OW  297   1.559   1.437   0.145 -0.6742  0.2735  0.0604
   75SOL    HW1  298   1.630   1.497   0.159 -0.4414  0.5611 -0.1417
   75SOL    HW2  299   1.571   1.373   0.220 -0.7509  1.9546  0.5304
   75SOL     MW  300   1.570   1.436   0.156 -0.6536  0.5333  0.0958
   76SOL     OW  301   2.937   0.552   0.469 -0.0617 -0.3624  0.2851
   76SOL    HW1  302   2.986   0.589   0.546  0.5102 -0.3213 -0.2285
   76SOL    HW2  303   3.006   0.514   0.414 -1.0797 -0.5847  1.8245
   76SOL     MW  304   2.953   0.552   0.472 -0.1206 -0.3863  0.4204
   77SOL     OW  305   0.822   0.565   0.478  0.1440  0.6667  0.0709
   77SOL    HW1  306   0.811   0.583   0.384  1.2642 -0.1258  0.6817
   77SOL    HW2  307   0.783   0.476   0.488 -2.0157 -0.6500  1.5079
   77SOL     MW  308   0.815   0.556   0.467  0.0068  0.3884  0.3411
   78SOL     OW  309   0.758   0.909   1.256 -0.1633 -0.4573 -0.4475
   78SOL    HW1  310   0.821   0.977   1.218  0.3248  2.2276 -0.1028
   78SOL    HW2  311   0.688   0.896   1.190  0.6669  0.7853 -1.1077
   78SOL     MW  312   0.757   0.916   1.242  0.0106  0.0609 -0.4891
   79SOL     OW  313   1.950   1.677   0.597 -0.1086 -0.2467  0.4844
   79SOL    HW1  314   1.893   1.620   0.547 -2.5062  0.0768 -0.8584
   79SOL    HW2  315   1.931   1.645   0.690 -3.0313 -0.3146  1.2480
   79SOL     MW  316   1.940   1.665   0.603 -0.8105 -0.2130  0.4080
   80SOL     OW  317   0.086   0.966   0.321  0.0775 -0.6996 -0.0457
   80SOL    HW1  318   0.007   0.921   0.338 -2.5075 -0.9969 -1.8634
   80SOL    HW2  319   0.143   0.896   0.353 -0.0144 -0.8020  2.0306
   80SOL     MW  320   0.083   0.950   0.328 -0.2757 -0.7523 -0.0116
   81SOL     OW  321   1.912   1.889   0.336 -0.2651 -0.0523 -0.4688
   81SOL    HW1  322   1.876   1.804   0.313  0.4756  0.9824 -3.6906
   81SOL    HW2  323   1.855   1.936   0.276  1.5046 -1.8881 -0.5068
   81SOL     MW  324   1.900   1.884   0.325  0.0662 -0.1580 -0.8989
   82SOL     OW  325   0.791   1.006   0.559  0.5614 -0.3867 -0.0342
   82SOL    HW1  326   0.782   1.032   0.463 -1.4331  1.4216 -2.3402
   82SOL    HW2  327   0.753   0.920   0.555  0.5214  1.2545  1.4695
   82SOL     MW  328   0.785   0.998   0.546  0.2930  0.0684 -0.1400
   83SOL     OW  329   0.073   0.670   1.436 -0.3249  0.5839 -0.0588
   83SOL    HW1  330   0.089   0.744   1.375  0.5037 -0.9645 -1.3024
   83SOL    HW2  331   0.153   0.616   1.447  0.4455  2.1169 -0.5919
   83SOL     MW  332   0.086   0.672   1.430 -0.1139  0.5819 -0.2932
   84SOL     OW  333   0.133   0.210   1.027 -0.4455 -0.5385 -0.1831
   84SOL    HW1  334   0.064   0.273   1.008  0.6409  1.5398  1.2660
   84SOL    HW2  335   0.092   0.132   1.061 -1.1792  1.8602  1.0921
   84SOL     MW  336   0.119   0.208   1.029 -0.3990  0.0522  0.1764
   85SOL     OW  337   0.473   0.439   0.778 -0.3944  0.2803 -0.4513
   85SOL    HW1  338   0.426   0.469   0.705 -0.0389  0.5824 -0.7224
   85SOL    HW2  339   0.430   0.353   0.790  0.8117  2.4062 -0.8319
   85SOL     MW  340   0.461   0.431   0.770 -0.1884  0.6007 -0.5373
   86SOL     OW  341   1.180   0.244   1.117 -0.0272 -0.3088 -0.3653
   86SOL    HW1  342   1.122   0.313   1.101  1.2733 -1.5522  0.3530
   86SOL    HW2  343   1.221   0.283   1.194 -1.0980  1.1550 -0.7190
   86SOL     MW  344   1.178   0.258   1.125  0.0031 -0.2797 -0.3172
   87SOL     OW  345   1.255   1.527   1.304 -0.5451  0.6572  0.0078
   87SOL    HW1  346   1.271   1.568   1.220 -0.6230  1.0252  1.3631
   87SOL    HW2  347   1.245   1.431   1.280  0.1682  1.7125 -0.8289
   87SOL     MW  348   1.256   1.520   1.290 -0.4613  0.8450  0.0762
   88SOL     OW  349   1.190   1.076   0.962  0.0616  0.1383 -0.3293
   88SOL    HW1  350   1.273   1.039   0.939 -1.6490 -2.3186 -1.4291
   88SOL    HW2  351   1.202   1.141   1.034 -0.3125  0.4488  2.2217
   88SOL     MW  352   1.202   1.079   0.969 -0.2134 -0.1449 -0.1378
   89SOL     OW  353   1.709   0.732   0.358  0.2808  0.0362 -0.1453
   89SOL    HW1  354   1.720   0.653   0.413  2.6776 -1.1176  0.3561
   89SOL    HW2  355   1.778   0.720   0.289  0.2811 -0.9712 -0.0906
   89SOL     MW  356   1.719   0.720   0.356  0.5971 -0.2490 -0.0720
   90SOL     OW  357   0.814   1.070   2.777  0.4276 -0.6674  0.4632
   90SOL    HW1  358   0.878   0.999   2.806  2.2075  2.4713  0.8460
   90SOL    HW2  359   0.824   1.118   2.856 -0.2938  0.4512  2.2895
   90SOL     MW  360   0.824   1.067   2.791  0.5672 -0.1057  0.7547
   91SOL     OW  361   2.165   0.681   0.418 -0.8253  0.4136 -0.0338
   91SOL    HW1  362   2.241   0.718   0.371  3.4124 -1.8664  0.9839
   91SOL    HW2  363   2.179   0.587   0.435 -1.3623 -0.1900  2.7545
   91SOL     MW  364   2.177   0.673   0.414 -0.3370  0.0332  0.4683
   92SOL     OW  365   1.737   0.923   0.566 -0.2657 -0.2167  0.3339
   92SOL    HW1  366   1.638   0.914   0.576  2.1160  2.3477  0.5943
   92SOL    HW2  367   1.759   0.861   0.496 -2.2233 -0.5152  1.3670
   92SOL     MW  368   1.727   0.914   0.558 -0.2097  0.0822  0.5046
   93SOL     OW  369   0.972   0.264   0.418  0.3688  0.0279  0.3170
   93SOL    HW1  370   0.879   0.270   0.443  0.6837 -0.2128 -0.8340
   93SOL    HW2  371   0.974   0.280   0.321  0.2738  0.6812 -0.6349
   93SOL     MW  372   0.960   0.267   0.408  0.3978  0.0824  0.0396
   94SOL     OW  373   1.841   1.382   1.667  0.0046 -0.0788  1.1029
   94SOL    HW1  374   1.863   1.343   1.585  2.9250 -1.8943 -0.7444
   94SOL    HW2  375   1.829   1.299   1.717  1.4713  0.2708 -0.5022
   94SOL     MW  376   1.842   1.366   1.663  0.5834 -0.2722  0.6474
   95SOL     OW  377   0.799   1.588   0.941 -0.2835  0.4980  0.5214
   95SOL    HW1  378   0.841   1.546   1.015  3.0805 -0.0548 -0.5469
   95SOL    HW2  379   0.706   1.562   0.943 -1.7066  2.0419 -0.3010
   95SOL     MW  380   0.792   1.579   0.951 -0.0274  0.6287  0.2720
   96SOL     OW  381   1.220   1.877   1.682  0.4569 -0.3605  0.1170
   96SOL    HW1  382   1.146   1.860   1.738  1.1855  2.4848 -0.6408
   96SOL    HW2  383   1.253   1.798   1.664  0.3332  4.1393  0.4942
   96SOL     MW  384   1.215   1.865   1.687  0.5367  0.6086  0.0668
   97SOL     OW  385   1.229   1.458   0.819 -0.6217  0.2197  0.7873
   97SOL    HW1  386   1.228   1.491   0.909 -4.0431 -1.2371  1.1081
   97SOL    HW2  387   1.133   1.481   0.792 -0.5174  1.0418  0.7900
   97SOL     MW  388   1.216   1.465   0.827 -1.0594  0.1359  0.8300
   98SOL     OW  389   1.432   1.279   1.042  0.2434  0.0925  0.2776
   98SOL    HW1  390   1.498   1.319   1.103 -0.7599 -0.1245  0.8629
   98SOL    HW2  391   1.449   1.322   0.959 -2.8102  2.6801 -0.6122
   98SOL     MW  392   1.443   1.290   1.039 -0.2919  0.4053  0.2374
   99SOL     OW  393   1.353   0.336   1.304  0.7394 -0.4839 -0.6963
   99SOL    HW1  394   1.443   0.364   1.268 -0.4329  1.7176 -3.6412
   99SOL    HW2  395   1.357   0.346   1.400  3.4625 -0.9283 -0.8819
   99SOL     MW  396   1.366   0.341   1.312  0.9440 -0.2521 -1.1093
  100SOL     OW  397   1.032   1.176   1.400  0.8784 -0.0793 -0.4148
  100SOL    HW1  398   1.021   1.228   1.482 -1.1649  3.9045 -1.4443
  100SOL    HW2  399   1.074   1.089   1.416  1.0382  0.6129  0.1150
  100SOL     MW  400   1.036   1.171   1.413  0.6299  0.5376 -0.4807
  101SOL     OW  401   0.498   1.142   0.344  0.2818  0.6086  0.3934
  101SOL    HW1  402   0.460   1.053   0.334 -1.8194  1.5187 -0.9633
  101SOL    HW2  403   0.588   1.142   0.310  3.5721  0.4851  1.0425
  101SOL     MW  404   0.505   1.130   0.338  0.4387  0.7124  0.3000
  102SOL     OW  405   2.879   0.672   1.028 -0.4165 -0.1384 -0.5128
  102SOL    HW1  406   2.946   0.735   1.043  0.6160 -2.3188  1.0989
  102SOL    HW2  407   2.835   0.670   1.118 -0.2318 -3.7664  2.8942
  102SOL     MW  408   2.882   0.680   1.042 -0.2559 -0.9048  0.1493
  103SOL     OW  409   1.680   0.287   1.867 -0.1428  0.3097  0.1684
  103SOL    HW1  410   1.629   0.233   1.802  2.1060  0.9100  2.1274
  103SOL    HW2  411   1.741   0.229   1.899 -2.3500 -0.7604  1.2574
  103SOL     MW  412   1.681   0.272   1.863 -0.1373  0.2477  0.5706
  104SOL     OW  413   0.142   1.545   1.571  0.0751 -0.7406  0.8669
  104SOL    HW1  414   0.162   1.463   1.613 -0.3358  4.2283  0.3329
  104SOL    HW2  415   0.050   1.559   1.586 -2.2989 -1.3841  3.6303
  104SOL     MW  416   0.133   1.536   1.579 -0.2923 -0.1699  1.1610
  105SOL     OW  417   0.065   1.228   0.422  0.0509  0.0666 -0.3974
  105SOL    HW1  418   0.099   1.147   0.401 -3.7094  2.5952 -1.2309
  105SOL    HW2  419   0.131   1.288   0.452 -0.5948  0.0039 -1.5035
  105SOL     MW  420   0.078   1.226   0.423 -0.5304  0.3920 -0.6533
  106SOL     OW  421   0.849   0.344   0.977  0.0212  0.0433  0.2306
  106SOL    HW1  422   0.783   0.409   0.948  0.0386  1.4747  0.8394
  106SOL    HW2  423   0.906   0.308   0.904  1.0148  0.2907  0.4413
  106SOL     MW  424   0.848   0.348   0.963  0.1546  0.2648  0.3387
  107SOL     OW  425   0.796   2.190   2.947 -0.5668 -0.1451 -0.5065
  107SOL    HW1  426   0.733   2.166   2.879 -1.0240 -0.2417 -0.2133
  107SOL    HW2  427   0.780   2.136   3.029  1.5368  4.1065  1.1875
  107SOL     MW  428   0.786   2.179   2.949 -0.3496  0.4031 -0.2443
  108SOL     OW  429   1.338   1.592   1.636 -0.5174  0.2088 -0.2791
  108SOL    HW1  430   1.257   1.574   1.578 -1.3723 -0.0049  0.9971
  108SOL    HW2  431   1.408   1.535   1.608  2.1665 -0.9937  1.5163
  108SOL     MW  432   1.336   1.582   1.625 -0.2761  0.0220  0.1262
  109SOL     OW  433   1.964   0.754   0.231  0.4452  0.1848  1.0648
  109SOL    HW1  434   1.988   0.842   0.258  2.5366 -2.2584  0.3239
  109SOL    HW2  435   2.038   0.715   0.279  0.3497  0.2323 -0.6353
  109SOL     MW  436   1.977   0.760   0.241  0.7086 -0.1313  0.7427
  110SOL     OW  437   0.355   1.860   0.640  0.3595 -0.9903  0.1840
  110SOL    HW1  438   0.416   1.793   0.609 -0.4700  0.3325  0.7154
  110SOL    HW2  439   0.357   1.929   0.576  0.5895 -1.8586 -0.6578
  110SOL     MW  440   0.363   1.860   0.627  0.2804 -0.9304  0.1431
  111SOL     OW  441   0.840   0.894   1.517 -0.4104 -0.2225 -0.1498
  111SOL    HW1  442   0.788   0.866   1.441 -1.5743 -0.3268 -0.4883
  111SOL    HW2  443   0.853   0.804   1.544 -1.1414  0.6135 -3.5794
  111SOL     MW  444   0.835   0.879   1.511 -0.6604 -0.1260 -0.6469
  112SOL     OW  445   1.314   1.113   1.621 -0.1110 -0.1378  0.3160
  112SOL    HW1  446   1.249   1.184   1.642 -0.9791 -0.7905  1.1628
  112SOL    HW2  447   1.263   1.030   1.613  0.0491  0.2998  1.5754
  112SOL     MW  448   1.299   1.112   1.623 -0.2044 -0.1662  0.5939
  113SOL     OW  449   1.274   3.100   1.737 -0.5295 -0.3738 -0.0760
  113SOL    HW1  450   1.274   3.051   1.821  0.7767  2.2092  4.3612
  113SOL    HW2  451   1.276   3.029   1.672  0.5228 -2.8674  0.7035
  113SOL     MW  452   1.274   3.084   1.740 -0.2184 -0.3620  0.6123
  114SOL     OW  453   0.298   2.861   1.925 -0.0445 -0.4359  0.0688
  114SOL    HW1  454   0.385   2.893   1.961 -2.4378  0.2349 -1.0462
  114SOL    HW2  455   0.298   2.884   1.831 -1.0837 -1.1262 -0.1062
  114SOL     MW  456   0.309   2.869   1.918 -0.4974 -0.4384 -0.1014
  115SOL     OW  457   0.507   0.854   1.128  0.3926  0.0394  0.1581
  115SOL    HW1  458   0.482   0.764   1.156  1.0328 -0.6140  0.9613
  115SOL    HW2  459   0.476   0.909   1.207 -1.0299 -1.0708  0.3723
  115SOL     MW  460   0.500   0.850   1.142  0.2893 -0.1933  0.2923
  116SOL     OW  461   0.788   1.092   0.980  0.5566 -0.4794 -0.1354
  116SOL    HW1  462   0.854   1.115   0.913 -1.4247  1.6020  3.0831
  116SOL    HW2  463   0.810   1.134   1.062  1.4176 -0.5850  3.2682
  116SOL     MW  464   0.800   1.101   0.982  0.4088 -0.2187  0.7383
  117SOL     OW  465   1.201   1.210   0.715 -0.5991 -0.1417  0.4457
  117SOL    HW1  466   1.212   1.173   0.803 -1.9799  0.8529 -1.5714
  117SOL    HW2  467   1.212   1.302   0.730  0.2380  0.0073 -2.2511
  117SOL     MW  468   1.204   1.217   0.729 -0.6708  0.0092 -0.1762
  118SOL     OW  469   3.040   2.980   1.698 -0.0283 -0.3493 -0.6390
  118SOL    HW1  470   3.111   3.021   1.750 -0.9181  2.5765 -2.1134
  118SOL    HW2  471   2.958   3.037   1.703 -1.0571  2.6597  1.9289
  118SOL     MW  472   3.039   2.993   1.706 -0.2814  0.4338 -0.4947
  119SOL     OW  473   0.475   1.474   1.255 -0.0227 -0.4041 -0.6278
  119SOL    HW1  474   0.521   1.505   1.180  0.6998 -1.2974 -1.1735
  119SOL    HW2  475   0.391   1.460   1.214 -0.1835 -0.3871 -0.4712
  119SOL     MW  476   0.470   1.476   1.240  0.0514 -0.5197 -0.6791
  120SOL     OW  477   0.276   0.721   0.964  0.6534  0.6999 -0.4050
  120SOL    HW1  478   0.267   0.669   1.045 -0.2189  2.0752  1.6062
  120SOL    HW2  479   0.357   0.774   0.978 -0.9158  3.1502  0.3916
  120SOL     MW  480   0.285   0.721   0.977  0.3313  1.2047 -0.0345
  121SOL     OW  481   1.731   1.120   1.757  0.0556 -0.0331 -0.3461
  121SOL    HW1  482   1.636   1.108   1.787 -0.1044  0.8018  0.3072
  121SOL    HW2  483   1.740   1.070   1.679  0.4410  1.2791  1.6868
  121SOL     MW  484   1.720   1.112   1.751  0.0853  0.2502  0.0083
  122SOL     OW  485   0.142   0.560   0.801 -0.2538 -0.4858 -0.1138
  122SOL    HW1  486   0.201   0.505   0.750  1.7736  1.1747  0.0737
  122SOL    HW2  487   0.203   0.623   0.844 -0.6860  0.8638  0.1865
  122SOL     MW  488   0.158   0.561   0.800 -0.0433 -0.0886 -0.0495
  123SOL     OW  489   1.893   1.153   0.510  0.3282 -0.2991 -0.1686
  123SOL    HW1  490   1.828   1.088   0.539 -0.2320 -0.0086  1.2063
  123SOL    HW2  491   1.864   1.229   0.554  2.7573 -0.7356  0.1694
  123SOL     MW  492   1.881   1.155   0.520  0.5748 -0.3184  0.0574
  124SOL     OW  493   0.669   0.553   0.931 -0.2429  0.2167  0.4120
  124SOL    HW1  494   0.604   0.522   0.870  1.7189 -0.0265 -1.4924
  124SOL    HW2  495   0.660   0.650   0.917 -2.0626  1.2476  0.7912
  124SOL     MW  496   0.659   0.561   0.921 -0.2241  0.3206  0.2107
  125SOL     OW  497   0.644   1.791   1.749 -0.0698  0.1299 -0.7617
  125SOL    HW1  498   0.574   1.729   1.728  1.3388 -1.2238  0.9135
  125SOL    HW2  499   0.619   1.873   1.714  1.3094 -3.7428  1.3917
  125SOL     MW  500   0.632   1.794   1.742  0.2980 -0.5597 -0.2566
  126SOL     OW  501   2.074   1.582   1.957  0.2729  0.2271  0.1499
  126SOL    HW1  502   2.140   1.647   1.981  1.8966 -0.2660 -0.9048
  126SOL    HW2  503   2.111   1.508   2.000  0.2412  0.0362 -0.0177
  126SOL     MW  504   2.087   1.581   1.966  0.4829  0.1369 -0.0114
  127SOL     OW  505   0.624   0.793   1.807 -0.3460 -0.1276 -0.0838
  127SOL    HW1  506   0.695   0.746   1.846 -0.0669  1.2214  0.2586
  127SOL    HW2  507   0.619   0.869   1.862 -0.1129 -0.8614 -1.2896
  127SOL     MW  508   0.633   0.797   1.820 -0.2784 -0.0464 -0.1977
  128SOL     OW  509   1.797   0.735   2.923 -0.6869 -0.2253 -0.1773
  128SOL    HW1  510   1.805   0.713   2.824 -3.6239  0.8265 -1.0706
  128SOL    HW2  511   1.766   0.825   2.927 -3.0776 -2.2271  1.7630
  128SOL     MW  512   1.794   0.744   2.910 -1.3898 -0.3507 -0.0391
  129SOL     OW  513   1.569   0.926   0.215  0.1180  0.6005 -0.3185
  129SOL    HW1  514   1.521   0.853   0.175 -0.2465  0.5148 -0.7486
  129SOL    HW2  515   1.608   0.889   0.293 -1.3096 -1.5492 -1.2664
  129SOL     MW  516   1.568   0.911   0.220 -0.1185  0.3056 -0.5003
  130SOL     OW  517   0.744   1.352   0.312  0.1644 -0.5640  0.2887
  130SOL    HW1  518   0.753   1.360   0.413 -1.5493 -0.2080 -0.0169
  130SOL    HW2  519   0.802   1.418   0.278  0.0235  1.0694 -2.1391
  130SOL     MW  520   0.753   1.362   0.321 -0.0803 -0.3015 -0.0719
  131SOL     OW  521   3.037   0.825   0.027 -0.5192  0.3373  0.0522
  131SOL    HW1  522   3.028   0.876  -0.051 -1.5826 -0.1797 -0.3741
  131SOL    HW2  523   3.123   0.791   0.027 -0.1051 -0.8483 -0.3289
  131SOL     MW  524   3.047   0.827   0.017 -0.6049  0.1127 -0.0544
  132SOL     OW  525   2.689   0.125   1.301 -0.2395 -0.2963  0.9017
  132SOL    HW1  526   2.706   0.123   1.199 -0.5280 -0.6388 -1.4013
  132SOL    HW2  527   2.594   0.107   1.306 -1.7827 -0.1087  1.3904
  132SOL     MW  528   2.678   0.122   1.288 -0.4812 -0.3167  0.6623
  133SOL     OW  529   1.055   0.155   1.700  0.3099  0.9067  0.4023
  133SOL    HW1  530   1.117   0.082   1.699 -2.7791 -0.5346 -0.3538
  133SOL    HW2  531   1.056   0.177   1.794  1.3428 -3.5575 -0.6497
  133SOL     MW  532   1.063   0.148   1.712  0.0386  0.1275  0.1637
  134SOL     OW  533   1.406   2.530   1.418 -0.1187 -0.3091 -0.4145
  134SOL    HW1  534   1.336   2.594   1.394  0.9130  0.7013 -0.6146
  134SOL    HW2  535   1.411   2.554   1.509  2.5336  0.7005 -0.0485
  134SOL     MW  536   1.398   2.542   1.427  0.3674 -0.0425 -0.3926
  135SOL     OW  537   2.997   0.969   2.899 -0.1561  0.0947  0.9069
  135SOL    HW1  538   3.085   1.002   2.917  3.2864  0.9768 -2.0939
  135SOL    HW2  539   2.938   1.044   2.911 -2.3639 -1.5310 -0.7167
  135SOL     MW  540   3.001   0.983   2.903  0.0068 -0.0034  0.2967
  136SOL     OW  541   0.168   2.008   0.804  0.0125  0.3037 -0.0050
  136SOL    HW1  542   0.095   1.947   0.789 -1.8790  0.4211 -1.5682
  136SOL    HW2  543   0.238   1.979   0.741  2.8451  0.8351  0.4014
  136SOL     MW  544   0.168   1.996   0.794  0.1367  0.3893 -0.1576
  137SOL     OW  545   0.728   2.045   0.526 -0.0843  0.0071 -0.3102
  137SOL    HW1  546   0.743   2.031   0.622 -2.0603 -1.0703  2.4603
  137SOL    HW2  547   0.631   2.045   0.512 -1.5489  0.3168  2.0097
  137SOL     MW  548   0.717   2.043   0.537 -0.5382 -0.0942  0.3614
  138SOL     OW  549   0.517   0.575   1.174 -0.1562  0.2479  0.2135
  138SOL    HW1  550   0.449   0.513   1.203  1.4177  0.0361 -1.2709
  138SOL    HW2  551   0.552   0.541   1.091  1.0696  0.0207  1.3994
  138SOL     MW  552   0.513   0.562   1.167  0.2132  0.1900  0.1741
  139SOL     OW  553   2.799   0.637   1.284  0.7683  0.1009 -0.2811
  139SOL    HW1  554   2.825   0.555   1.319 -0.4121 -0.7844 -2.8697
  139SOL    HW2  555   2.816   0.699   1.362 -0.0991 -1.0713  1.7814
  139SOL     MW  556   2.804   0.634   1.299  0.4981 -0.1706 -0.3505
  140SOL     OW  557   0.918   0.425   2.066  0.5061  0.1443 -0.0415
  140SOL    HW1  558   0.964   0.344   2.047 -1.3018  2.6155 -2.6700
  140SOL    HW2  559   0.920   0.429   2.165 -1.2311 -0.4174  1.0805
  140SOL     MW  560   0.925   0.415   2.077  0.0384  0.3962 -0.2403
  141SOL     OW  561   1.046   0.671   1.766  0.0955 -0.3522  0.5574
  141SOL    HW1  562   1.079   0.588   1.732  0.7516  1.1664 -0.2924
  141SOL    HW2  563   1.104   0.737   1.728  0.5876 -0.0286 -1.4684
  141SOL     MW  564   1.058   0.669   1.756  0.2470 -0.1091  0.1780
  142SOL     OW  565   0.932   1.174   0.728  0.5459 -0.3366  0.5595
  142SOL    HW1  566   0.901   1.098   0.674 -2.3074  2.7504  0.7453
  142SOL    HW2  567   1.022   1.197   0.713 -0.4269 -0.4552 -0.9743
  142SOL     MW  568   0.940   1.167   0.719  0.0411  0.0551  0.3817
  143SOL     OW  569   1.852   0.759   1.057  0.0141 -0.0576 -0.6075
  143SOL    HW1  570   1.892   0.763   0.968  0.3577  0.5449  0.3176
  143SOL    HW2  571   1.768   0.716   1.035 -0.6108  0.0238  1.4242
  143SOL     MW  572   1.846   0.754   1.042 -0.0230  0.0327 -0.2173
  144SOL     OW  573   0.281   1.236   1.649  0.2613  0.9205 -0.2686
  144SOL    HW1  574   0.365   1.190   1.655 -0.7305  0.7588  1.8009
  144SOL    HW2  575   0.264   1.241   1.745  2.0330 -0.1903 -0.1973
  144SOL     MW  576   0.290   1.231   1.663  0.3642  0.7526  0.0139
  145SOL     OW  577   0.225   0.489   1.164  0.2405  0.1458  0.2184
  145SOL    HW1  578   0.234   0.415   1.227 -1.2657 -0.9215  1.0345
  145SOL    HW2  579   0.156   0.450   1.120 -1.2428 -2.3889 -0.1430
  145SOL     MW  580   0.217   0.474   1.166 -0.1539 -0.3295  0.2784
  146SOL     OW  581   0.843   1.970   1.378  0.2444  0.4581  0.4131
  146SOL    HW1  582   0.859   1.980   1.286  0.8815  0.3472  0.8695
  146SOL    HW2  583   0.745   1.967   1.389 -1.0980 -3.0325  2.2589
  146SOL     MW  584   0.833   1.971   1.367  0.1513 -0.0171  0.7169
  147SOL     OW  585   0.430   0.455   2.990 -0.5500 -0.0158  0.2912
  147SOL    HW1  586   0.339   0.428   3.006 -1.0502 -0.6966 -0.9109
  147SOL    HW2  587   0.416   0.530   2.937 -0.7815 -0.8667  2.1401
  147SOL     MW  588   0.416   0.461   2.985 -0.6466 -0.2179  0.3765
  148SOL     OW  589   0.136   0.899   1.303 -0.3152  0.8133  0.4011
  148SOL    HW1  590   0.236   0.913   1.295 -2.4092  2.7252  0.3235
  148SOL    HW2  591   0.100   0.955   1.375  2.8880 -0.9005  1.4994
  148SOL     MW  592   0.144   0.908   1.311 -0.1689  0.8394  0.5358
  149SOL     OW  593   1.378   1.182   1.357  0.6331 -0.4470  0.1288
  149SOL    HW1  594   1.382   1.160   1.452  1.9667  0.7106  0.9034
  149SOL    HW2  595   1.458   1.237   1.335 -1.0038  0.2902 -2.9683
  149SOL     MW  596   1.389   1.187   1.367  0.5931 -0.1970 -0.1776
  150SOL     OW  597   1.779   1.351   0.756 -0.3309  0.3606  0.1891
  150SOL    HW1  598   1.827   1.281   0.801 -2.5447  0.3722 -1.9545
  150SOL    HW2  599   1.801   1.434   0.801  1.0006 -0.3280 -1.4394
  150SOL     MW  600   1.789   1.352   0.768 -0.4473  0.2713 -0.3086
  151SOL     OW  601   1.648   1.771   0.812  0.1121  0.3665  0.7489
  151SOL    HW1  602   1.630   1.799   0.726  3.0171 -1.4930  1.5391
  151SOL    HW2  603   1.577   1.702   0.822  0.4942 -2.3866 -0.4589
  151SOL     MW  604   1.636   1.766   0.802  0.5458 -0.2421  0.6938
  152SOL     OW  605   0.768   1.394   1.519  0.3514  0.7407  0.3605
  152SOL    HW1  606   0.810   1.309   1.524 -1.6065  0.8811  0.7628
  152SOL    HW2  607   0.830   1.458   1.551 -2.4644 -0.9618  2.4378
  152SOL     MW  608   0.782   1.391   1.524 -0.2785  0.5346  0.6876
  153SOL     OW  609   2.607   1.203   0.801  0.0994 -0.0320  0.0090
  153SOL    HW1  610   2.680   1.188   0.729  1.8843  0.6896 -0.0665
  153SOL    HW2  611   2.544   1.135   0.798 -2.7633  0.4856 -1.5166
  153SOL     MW  612   2.608   1.192   0.791 -0.0428  0.1315 -0.2023
  154SOL     OW  613   0.207   1.788   1.711 -0.5690 -0.1176  0.0737
  154SOL    HW1  614   0.201   1.703   1.659  2.4816 -0.5715 -2.4605
  154SOL    HW2  615   0.214   1.760   1.803 -3.1158 -0.1949  1.5727
  154SOL     MW  616   0.207   1.773   1.716 -0.5025 -0.1877 -0.0629
  155SOL     OW  617   1.203   0.687   0.223 -0.2571 -0.8232  0.7292
  155SOL    HW1  618   1.157   0.653   0.303 -0.5375 -1.3782 -1.4294
  155SOL    HW2  619   1.187   0.779   0.236 -0.4997  1.0932 -2.7815
  155SOL     MW  620   1.195   0.694   0.235 -0.3261 -0.6436 -0.0188
  156SOL     OW  621   1.487   3.042   1.107  0.0253  0.1373 -0.2807
  156SOL    HW1  622   1.573   3.086   1.118  0.3540  1.3864  3.6431
  156SOL    HW2  623   1.500   2.953   1.136  1.9812 -0.5362  1.0664
  156SOL     MW  624   1.500   3.036   1.112  0.3267  0.2132  0.4147
  157SOL     OW  625   1.468   1.187   0.107  0.1554 -0.2453 -0.4565
  157SOL    HW1  626   1.524   1.111   0.150  1.7134 -3.5215 -0.1192
  157SOL    HW2  627   1.518   1.268   0.096 -1.1559 -0.6655  0.1627
  157SOL     MW  628   1.482   1.187   0.111  0.1880 -0.7330 -0.3303
  158SOL     OW  629   0.505   1.646   2.218 -0.5569 -0.3432  0.0765
  158SOL    HW1  630   0.507   1.734   2.183 -1.3634 -1.3242  1.9700
  158SOL    HW2  631   0.421   1.647   2.263  2.3696  0.7199 -1.7097
  158SOL     MW  632   0.494   1.658   2.220 -0.2772 -0.3324  0.0906
  159SOL     OW  633   1.273   1.655   0.450 -0.0754  0.4690  0.7632
  159SOL    HW1  634   1.237   1.578   0.401  0.1529 -0.6433  0.7735
  159SOL    HW2  635   1.196   1.694   0.499  1.6135  1.8873 -0.8953
  159SOL     MW  636   1.258   1.650   0.450  0.1775  0.5094  0.5457
  160SOL     OW  637   0.533   1.127   1.639 -0.4108 -0.8030 -0.0371
  160SOL    HW1  638   0.527   1.033   1.622  1.0959  0.4965 -1.4786
  160SOL    HW2  639   0.628   1.141   1.662 -0.0752  1.6563 -2.2244
  160SOL     MW  640   0.545   1.116   1.639 -0.1677 -0.3071 -0.5159
  161SOL     OW  641   0.514   2.289   2.565 -0.3735 -0.1870  0.0600
  161SOL    HW1  642   0.432   2.328   2.583  1.4506  1.2470 -0.1984
  161SOL    HW2  643   0.504   2.218   2.505 -0.1080 -0.2882 -0.9191
  161SOL     MW  644   0.502   2.284   2.559 -0.0978 -0.0111 -0.1033
  162SOL     OW  645   1.093   1.780   1.891 -0.0328 -0.6973  0.2075
  162SOL    HW1  646   1.114   1.853   1.950 -2.5970 -0.6181 -1.1374
  162SOL    HW2  647   1.000   1.778   1.907  2.0339  3.1626 -0.2893
  162SOL     MW  648   1.084   1.790   1.901 -0.0985 -0.1776 -0.0355
  163SOL     OW  649   2.092   3.089   0.903  0.2386 -0.2987 -0.5114
  163SOL    HW1  650   2.075   3.165   0.838  1.2308  1.7021  0.1810
  163SOL    HW2  651   2.067   3.004   0.859  0.0073 -1.3955 -0.1914
  163SOL     MW  652   2.087   3.088   0.889  0.3390 -0.1794 -0.3778
  164SOL     OW  653   0.324   0.205   0.798  0.1060 -0.0601 -0.4675
  164SOL    HW1  654   0.254   0.208   0.863 -2.5632 -0.5614 -1.1486
  164SOL    HW2  655   0.310   0.129   0.746  1.4321 -0.7368 -1.9123
  164SOL     MW  656   0.313   0.195   0.800 -0.0712 -0.2155 -0.7480
  165SOL     OW  657   1.362   1.289   0.356 -0.0922  0.7087  0.0078
  165SOL    HW1  658   1.351   1.203   0.394  3.6898  2.6251  0.1561
  165SOL    HW2  659   1.394   1.251   0.273  0.1210 -0.8217 -0.6480
  165SOL     MW  660   1.365   1.272   0.350  0.4350  0.7596 -0.0592
  166SOL     OW  661   0.523   1.209   1.005 -0.5844  0.3724 -0.2155
  166SOL    HW1  662   0.530   1.166   1.089  1.0080 -2.0375  1.6337
  166SOL    HW2  663   0.619   1.203   0.982  1.2545 -0.6308  0.2578
  166SOL     MW  664   0.537   1.203   1.013 -0.1317 -0.0780  0.0909
  167SOL     OW  665   0.778   1.101   0.284  0.1484  0.9335 -0.2617
  167SOL    HW1  666   0.760   1.203   0.300  0.9003  2.1799 -0.4143
  167SOL    HW2  667   0.866   1.081   0.241  1.4528  2.6116 -1.1414
  167SOL     MW  668   0.787   1.112   0.281  0.4197  1.3193 -0.3979
  168SOL     OW  669   1.681   1.656   3.047  0.0850 -0.2555 -0.2629
  168SOL    HW1  670   1.599   1.706   3.063 -1.2354 -0.0686 -3.6314
  168SOL    HW2  671   1.658   1.570   3.016 -1.5489  2.9305  1.9042
  168SOL     MW  672   1.667   1.651   3.045 -0.3048  0.1895 -0.4214
  169SOL     OW  673   0.415   0.975   1.337  0.0436  0.3555 -0.0977
  169SOL    HW1  674   0.448   0.939   1.419 -0.3037 -0.6283 -2.0075
  169SOL    HW2  675   0.433   1.070   1.342  0.6769  0.4610  2.6454
  169SOL     MW  676   0.422   0.983   1.348  0.0814  0.2396  0.0123
  170SOL     OW  677   1.067   1.539   1.532  0.8590  0.5550 -0.2655
  170SOL    HW1  678   1.004   1.617   1.538  0.8343  0.6778  1.1499
  170SOL    HW2  679   1.097   1.533   1.444 -1.5240 -0.3054 -1.5718
  170SOL     MW  680   1.062   1.549   1.521  0.5413  0.4577 -0.2511
  171SOL     OW  681   0.510   1.440   0.648  0.3994 -0.4655 -0.7719
  171SOL    HW1  682   0.517   1.446   0.744 -0.3790  0.9856  0.7768
  171SOL    HW2  683   0.498   1.344   0.632 -1.2401 -2.5826 -0.1214
  171SOL     MW  684   0.510   1.428   0.658  0.0804 -0.5533 -0.4817
  172SOL     OW  685   0.881   0.323   1.260 -0.3538 -0.3408  0.4564
  172SOL    HW1  686   0.889   0.319   1.167  0.8023 -0.5152  1.5077
  172SOL    HW2  687   0.794   0.334   1.289 -0.5270 -1.1012 -2.7097
  172SOL     MW  688   0.871   0.324   1.251 -0.2241 -0.4642  0.1774
  173SOL     OW  689   0.447   1.689   0.364  0.2605  0.1826 -0.3452
  173SOL    HW1  690   0.461   1.601   0.322  1.6097  0.6482 -1.2771
  173SOL    HW2  691   0.476   1.685   0.455 -0.3880 -2.3981 -2.8908
  173SOL     MW  692   0.452   1.677   0.370  0.3530 -0.0965 -0.8040
  174SOL     OW  693   1.852   0.956   1.557  0.4857 -0.4913 -0.5919
  174SOL    HW1  694   1.819   0.864   1.541  0.6825 -2.5802 -1.6214
  174SOL    HW2  695   1.824   0.997   1.479 -0.5056 -1.0400  0.9965
  174SOL     MW  696   1.844   0.949   1.545  0.3809 -0.8393 -0.5182
  175SOL     OW  697   0.503   1.454   0.228  0.3186  0.1358  0.2646
  175SOL    HW1  698   0.428   1.406   0.205 -2.0674  0.7386 -2.3576
  175SOL    HW2  699   0.564   1.396   0.266 -1.7005  0.0263 -2.7711
  175SOL     MW  700   0.501   1.440   0.230 -0.2626  0.2009 -0.4819
  176SOL     OW  701   0.218   1.497   1.172  0.1038 -0.5811 -0.0702
  176SOL    HW1  702   0.190   1.429   1.110  0.3998 -0.7784 -2.2657
  176SOL    HW2  703   0.136   1.508   1.222  3.4157  2.9980 -1.9933
  176SOL     MW  704   0.204   1.489   1.170  0.5798 -0.1349 -0.6136
  177SOL     OW  705   0.665   0.470   1.370  0.3550 -0.4366 -0.8977
  177SOL    HW1  706   0.618   0.535   1.322 -2.4619 -4.8680 -0.2777
  177SOL    HW2  707   0.633   0.486   1.458  1.4037 -0.2999 -3.8411
  177SOL     MW  708   0.655   0.481   1.375  0.1217 -1.0033 -1.2043
  178SOL     OW  709   3.055   0.577   2.950  0.2083  0.0298 -0.4185
  178SOL    HW1  710   2.988   0.612   3.013 -0.1737 -0.5917  1.2521
  178SOL    HW2  711   3.016   0.553   2.868 -0.9692  2.0649  1.5215
  178SOL     MW  712   3.041   0.578   2.948  0.0025  0.2163  0.0579
  179SOL     OW  713   1.588   1.343   1.305  0.0681  0.7102 -0.0207
  179SOL    HW1  714   1.568   1.389   1.389 -0.0118 -2.2149 -0.1829
  179SOL    HW2  715   1.683   1.344   1.314  1.6090  3.8808 -1.6886
  179SOL     MW  716   1.598   1.349   1.317  0.2609  0.7426 -0.2622
  180SOL     OW  717   3.022   0.203   0.424 -0.1105  0.4600  0.3681
  180SOL    HW1  718   2.989   0.224   0.337  1.8630  0.6604 -0.2350
  180SOL    HW2  719   3.087   0.275   0.434 -0.3678  1.7377 -0.0654
  180SOL     MW  720   3.026   0.215   0.413  0.1159  0.6551  0.2313
  181SOL     OW  721   1.122   1.330   3.099  0.3528  0.3281  0.0045
  181SOL    HW1  722   1.184   1.404   3.119 -0.4545 -1.9329  1.8055
  181SOL    HW2  723   1.179   1.268   3.057  0.7918  0.2940 -0.3452
  181SOL     MW  724   1.138   1.332   3.096  0.3042  0.0253  0.1960
  182SOL     OW  725   0.477   0.845   1.579 -0.1442 -0.1681 -0.1663
  182SOL    HW1  726   0.385   0.810   1.602  1.1747  1.4996 -0.5247
  182SOL    HW2  727   0.535   0.818   1.653  1.6260  3.9051 -1.9745
  182SOL     MW  728   0.472   0.837   1.592  0.2634  0.5893 -0.4522
  183SOL     OW  729   1.601   1.570   1.144  0.1026  0.3824  0.0325
  183SOL    HW1  730   1.524   1.618   1.179 -2.3636 -1.1373 -0.6736
  183SOL    HW2  731   1.615   1.500   1.204  1.6136  1.9235 -0.6980
  183SOL     MW  732   1.592   1.567   1.157 -0.0234  0.3852 -0.1570
  184SOL     OW  733   0.838   0.658   1.960 -0.0370  0.1932 -0.0136
  184SOL    HW1  734   0.932   0.672   1.932 -0.5932  0.0852  1.9812
  184SOL    HW2  735   0.840   0.564   1.987  0.1461  0.6439 -0.8018
  184SOL     MW  736   0.851   0.647   1.960 -0.0862  0.2384  0.1456
  185SOL     OW  737   1.188   0.962   1.925 -0.1256 -0.3343 -0.4423
  185SOL    HW1  738   1.182   0.884   1.987 -1.7219  1.5554 -1.2634
  185SOL    HW2  739   1.223   1.032   1.975 -2.5738  0.9630 -1.8729
  185SOL     MW  740   1.192   0.961   1.940 -0.6592  0.0862 -0.7394
  186SOL     OW  741   0.362   1.698   1.424 -0.0724 -0.2126 -0.1887
  186SOL    HW1  742   0.401   1.630   1.363  0.8369 -0.1758 -0.2433
  186SOL    HW2  743   0.296   1.640   1.468  1.9663 -1.9984 -2.6848
  186SOL     MW  744   0.359   1.681   1.422  0.3165 -0.4433 -0.5252
  187SOL     OW  745   1.436   0.700   1.349 -0.5348  0.2610 -0.7272
  187SOL    HW1  746   1.419   0.714   1.442  1.5248  0.0689  0.3980
  187SOL    HW2  747   1.348   0.689   1.315 -0.2024  0.9080  3.8031
  187SOL     MW  748   1.422   0.700   1.357 -0.2192  0.3211  0.0190
  188SOL     OW  749   1.892   1.150   0.925 -0.1977  0.1616 -0.4028
  188SOL    HW1  750   1.920   1.149   1.018  0.9145  0.7391 -0.6088
  188SOL    HW2  751   1.921   1.062   0.892 -1.1433  1.4365 -4.1381
  188SOL     MW  752   1.900   1.138   0.933 -0.1757  0.4060 -0.9228
  189SOL     OW  753   0.653   0.837   0.841 -0.2713  0.1013  0.3662
  189SOL    HW1  754   0.566   0.878   0.855  2.7726  1.1297 -1.5212
  189SOL    HW2  755   0.713   0.895   0.891  0.2657  1.9666  1.5531
  189SOL     MW  756   0.650   0.850   0.850  0.2012  0.4831  0.2738
  190SOL     OW  757   1.924   0.232   2.175  0.0067  0.5546  0.3685
  190SOL    HW1  758   1.947   0.257   2.264 -0.7655 -0.7299 -0.0801
  190SOL    HW2  759   1.981   0.288   2.114  2.7625 -1.0787 -1.6916
  190SOL     MW  760   1.935   0.243   2.179  0.2684  0.1697  0.0375
  191SOL     OW  761   1.474   0.961   1.228  0.1631  0.4610 -0.1460
  191SOL    HW1  762   1.446   1.032   1.284  2.0821 -2.3151  0.2633
  191SOL    HW2  763   1.456   0.877   1.271 -1.4233  0.2269 -0.7223
  191SOL     MW  764   1.468   0.959   1.241  0.2069  0.0639 -0.1680
  192SOL     OW  765   0.608   2.116   2.765  0.3719 -0.1773 -0.0222
  192SOL    HW1  766   0.555   2.163   2.696 -4.4371 -2.1692 -2.1745
  192SOL    HW2  767   0.601   2.027   2.742 -0.0260 -0.2495  3.6980
  192SOL     MW  768   0.600   2.111   2.753 -0.3151 -0.4496  0.1846
  193SOL     OW  769   0.987   1.535   0.727  0.0089 -0.7263  0.0185
  193SOL    HW1  770   0.935   1.554   0.808  0.7304 -0.0375 -2.9617
  193SOL    HW2  771   0.922   1.478   0.671 -4.2673 -0.0597  1.7052
  193SOL     MW  772   0.971   1.530   0.730 -0.4601 -0.5475 -0.1522
  194SOL     OW  773   0.530   1.470   0.912  0.3999  0.4775  0.4604
  194SOL    HW1  774   0.527   1.378   0.944 -0.3501  0.2426  2.1463
  194SOL    HW2  775   0.440   1.503   0.922 -1.2962  0.6793  0.9631
  194SOL     MW  776   0.518   1.462   0.918  0.0772  0.4731  0.7492
  195SOL     OW  777   1.316   1.163   2.992 -0.3345 -0.0512  0.2215
  195SOL    HW1  778   1.360   1.173   3.075  0.4150  2.3042 -0.6470
  195SOL    HW2  779   1.272   1.082   2.987  0.3375 -1.1133 -2.5018
  195SOL     MW  780   1.316   1.154   3.002 -0.1469  0.1195 -0.2524
  196SOL     OW  781   2.189   1.024   0.615 -0.5919 -1.0872 -0.2263
  196SOL    HW1  782   2.170   0.990   0.529  2.7486  1.0061  1.8648
  196SOL    HW2  783   2.167   1.119   0.605 -1.1161  1.7424  1.9065
  196SOL     MW  784   2.184   1.032   0.602 -0.2203 -0.4377  0.3310
  197SOL     OW  785   0.641   1.292   2.117  0.2824  0.7682  0.1667
  197SOL    HW1  786   0.645   1.208   2.064 -0.9597  1.6238  0.9099
  197SOL    HW2  787   0.584   1.350   2.059  0.6383 -0.3434 -2.4537
  197SOL     MW  788   0.634   1.289   2.102  0.1655  0.7344 -0.0809
  198SOL     OW  789   2.933   1.390   1.077 -0.1045 -0.2143 -0.4390
  198SOL    HW1  790   2.893   1.451   1.014  1.6773 -0.7696 -2.6508
  198SOL    HW2  791   2.874   1.320   1.088 -0.3122  1.4101  0.1746
  198SOL     MW  792   2.920   1.389   1.070  0.1032 -0.0732 -0.6499
  199SOL     OW  793   0.495   1.417   1.882 -0.2979 -0.2205  0.3259
  199SOL    HW1  794   0.449   1.336   1.895 -0.6265 -2.1358  0.3196
  199SOL    HW2  795   0.538   1.419   1.798 -1.1187  3.6020 -2.7614
  199SOL     MW  796   0.495   1.407   1.873 -0.4496  0.0311 -0.0823
  200SOL     OW  797   1.899   2.946   1.338  0.1195 -0.6407  0.3738
  200SOL    HW1  798   1.930   2.941   1.249  3.5968 -1.5006  0.7842
  200SOL    HW2  799   1.836   3.018   1.341 -3.1474  0.3426  1.9269
  200SOL     MW  800   1.895   2.955   1.327  0.1472 -0.6244  0.6329
  201SOL     OW  801   1.043   0.254   0.815 -0.2715  0.5945 -0.2376
  201SOL    HW1  802   1.017   0.184   0.753  3.0443 -0.2083 -0.0901
  201SOL    HW2  803   1.123   0.293   0.799 -3.0035  1.0225 -1.8241
  201SOL     MW  804   1.050   0.250   0.805 -0.1945  0.5450 -0.4275
  202SOL     OW  805   1.508   1.541   0.877  0.1742 -0.0117  0.5808
  202SOL    HW1  806   1.521   1.467   0.821  2.9334  1.0187 -1.2189
  202SOL    HW2  807   1.571   1.529   0.948  1.0308  0.2115  0.3390
  202SOL     MW  808   1.518   1.530   0.879  0.6512  0.1537  0.3114
  203SOL     OW  809   3.029   0.414   1.329 -0.6012  0.3964  0.6849
  203SOL    HW1  810   3.091   0.333   1.317  0.8612 -1.6951 -0.9417
  203SOL    HW2  811   3.085   0.491   1.347 -1.9304  0.9091  1.0889
  203SOL     MW  812   3.045   0.413   1.330 -0.5836  0.1881  0.5236
  204SOL     OW  813   1.039   1.749   0.560 -0.1680  0.3575  0.0105
  204SOL    HW1  814   1.016   1.673   0.608 -1.8892  0.6604 -1.9888
  204SOL    HW2  815   0.954   1.780   0.529  0.3658  0.2513  0.5371
  204SOL     MW  816   1.025   1.743   0.562 -0.3247  0.3835 -0.1838
  205SOL     OW  817   1.388   0.021   1.356  0.1153  0.2447 -0.9549
  205SOL    HW1  818   1.399  -0.021   1.272 -0.4671  0.8047 -1.1808
  205SOL    HW2  819   1.344   0.100   1.326 -2.0961 -0.8054 -2.0634
  205SOL     MW  820   1.384   0.026   1.341 -0.2533  0.1800 -1.1310
  206SOL     OW  821   0.437   3.012   1.429  0.6526  0.5794 -0.6158
  206SOL    HW1  822   0.387   2.998   1.341  0.1422 -3.0621  1.4832
  206SOL    HW2  823   0.490   2.932   1.441 -0.6599 -0.4022  1.3662
  206SOL     MW  824   0.437   2.999   1.419  0.4121 -0.0306 -0.0773
  207SOL     OW  825   0.906   1.556   0.208  0.0586 -0.1396 -0.0575
  207SOL    HW1  826   0.927   1.642   0.242 -0.3719 -1.0742 -0.3205
  207SOL    HW2  827   0.989   1.508   0.227 -2.1623  1.4543  3.8451
  207SOL     MW  828   0.920   1.561   0.215 -0.2913 -0.0526  0.4227
  208SOL     OW  829   0.734   1.614   1.353  0.5935 -0.4151 -0.0900
  208SOL    HW1  830   0.783   1.652   1.425  0.2018 -1.6401  0.0592
  208SOL    HW2  831   0.737   1.523   1.383  0.7078 -3.0619 -1.9791
  208SOL     MW  832   0.741   1.607   1.366  0.5569 -0.9260 -0.3196
  209SOL     OW  833   1.557   0.474   2.970  0.1268 -0.7028 -0.6515
  209SOL    HW1  834   1.552   0.568   2.955  1.5860 -2.1005 -1.0870
  209SOL    HW2  835   1.632   0.446   2.910  2.4819  0.9403 -1.4617
  209SOL     MW  836   1.566   0.483   2.960  0.6301 -0.6704 -0.8159
  210SOL     OW  837   1.524   1.280   0.778 -0.0112 -0.2845  0.0658
  210SOL    HW1  838   1.615   1.286   0.754 -0.3690 -1.3335  2.5144
  210SOL    HW2  839   1.475   1.312   0.698 -2.3655  0.2986  0.6214
  210SOL     MW  840   1.529   1.285   0.764 -0.3690 -0.3460  0.4622
  211SOL     OW  841   1.719   0.263   0.943  0.2817 -0.8348  0.6239
  211SOL    HW1  842   1.720   0.323   0.869  0.7777 -2.1809  0.3081
  211SOL    HW2  843   1.798   0.296   0.988  0.2737 -0.0319  2.0922
  211SOL     MW  844   1.730   0.275   0.939  0.3461 -0.9065  0.7760
  212SOL     OW  845   0.296   1.020   0.151 -0.0620  0.0889 -0.1592
  212SOL    HW1  846   0.216   1.019   0.201 -1.0168  3.2782 -0.2057
  212SOL    HW2  847   0.323   0.931   0.133 -1.1738  1.1799  1.4091
  212SOL     MW  848   0.289   1.008   0.155 -0.3346  0.6537  0.0416
  213SOL     OW  849   0.550   1.695   3.052 -0.0141  0.5666 -0.8671
  213SOL    HW1  850   0.526   1.772   3.106  0.0751  1.9717  1.4892
  213SOL    HW2  851   0.570   1.720   2.961 -2.3663 -0.4593 -0.4622
  213SOL     MW  852   0.550   1.709   3.047 -0.3127  0.6167 -0.5028
  214SOL     OW  853   0.645   0.332   2.153  0.3439  0.8843 -0.1570
  214SOL    HW1  854   0.569   0.381   2.189  1.1408 -2.4015 -0.0274
  214SOL    HW2  855   0.685   0.378   2.077 -1.1754 -1.6808 -0.5838
  214SOL     MW  856   0.640   0.345   2.147  0.2486  0.1123 -0.1962
  215SOL     OW  857   0.503   0.731   2.649 -0.1800  0.5354  0.4645
  215SOL    HW1  858   0.519   0.712   2.549 -2.4414 -1.4548 -3.5868
  215SOL    HW2  859   0.434   0.662   2.664 -0.2900 -1.1898 -1.4189
  215SOL     MW  860   0.496   0.719   2.638 -0.4929  0.0452 -0.3185
  216SOL     OW  861   2.914   3.017   2.667  0.1316  0.0513  0.7421
  216SOL    HW1  862   2.841   3.018   2.724  1.0238  4.1959  2.2722
  216SOL    HW2  863   2.973   3.078   2.708  1.4985 -0.4869  1.7547
  216SOL     MW  864   2.912   3.025   2.680  0.4296  0.5271  1.0776
  217SOL     OW  865   1.030   1.076   0.136  0.4158  0.1914  0.0571
  217SOL    HW1  866   1.069   1.028   0.064 -0.0235 -0.4816 -2.4984
  217SOL    HW2  867   1.051   1.170   0.133  0.7557  0.2064  0.9118
  217SOL     MW  868   1.038   1.082   0.126  0.4027  0.1046 -0.1673
  218SOL     OW  869   0.929   1.309   2.555 -0.4800 -0.0387 -0.0756
  218SOL    HW1  870   0.966   1.224   2.553 -0.2593  0.1338 -0.3571
  218SOL    HW2  871   0.993   1.371   2.595 -1.1200  1.2902 -1.4606
  218SOL     MW  872   0.943   1.306   2.560 -0.5353  0.1594 -0.2955
  219SOL     OW  873   1.136   0.383   2.654 -0.0304 -0.5726 -0.1408
  219SOL    HW1  874   1.205   0.444   2.654 -1.3871 -0.9676 -1.8492
  219SOL    HW2  875   1.076   0.431   2.596  0.4262 -0.6717  1.4589
  219SOL     MW  876   1.137   0.397   2.646 -0.1492 -0.6378 -0.1551
  220SOL     OW  877   1.769   0.458   2.207 -0.2634 -0.6502 -0.1958
  220SOL    HW1  878   1.696   0.464   2.142 -1.6327 -1.1116 -3.2741
  220SOL    HW2  879   1.810   0.374   2.197 -0.2721  1.1797 -0.0754
  220SOL     MW  880   1.765   0.448   2.197 -0.4452 -0.4697 -0.5861
  221SOL     OW  881   0.376   1.312   2.962 -0.3934 -0.3101 -0.2109
  221SOL    HW1  882   0.445   1.247   2.940  0.6725  2.4714 -3.5151
  221SOL    HW2  883   0.369   1.370   2.889 -0.0565  0.1015  0.0919
  221SOL     MW  884   0.384   1.311   2.950 -0.2083  0.1112 -0.6069
  222SOL     OW  885   0.358   0.978   2.681  0.8746  0.2173  0.2541
  222SOL    HW1  886   0.343   1.011   2.591  2.1867  0.6692  0.5040
  222SOL    HW2  887   0.401   0.897   2.654 -0.6917 -1.3572 -0.7294
  222SOL     MW  888   0.362   0.972   2.665  0.8410  0.0692  0.1574
  223SOL     OW  889   0.048   2.024   2.518  0.5514  0.2370 -0.0508
  223SOL    HW1  890   0.095   1.983   2.592  1.7889  0.2750 -0.9978
  223SOL    HW2  891   0.052   2.120   2.528  1.7843 -0.1526  2.0346
  223SOL     MW  892   0.055   2.031   2.529  0.8774  0.1906  0.0994
  224SOL     OW  893   1.535   0.742   2.597  0.7677  0.2011  0.0746
  224SOL    HW1  894   1.547   0.795   2.675 -0.7405  0.2183 -2.4657
  224SOL    HW2  895   1.529   0.809   2.534  3.8467  1.2350  1.0070
  224SOL     MW  896   1.536   0.758   2.599  0.9749  0.3398 -0.1375
  225SOL     OW  897   2.892   1.431   2.305 -0.2699  0.5830  0.4590
  225SOL    HW1  898   2.947   1.499   2.276  1.9351  1.5481  1.5270
  225SOL    HW2  899   2.829   1.481   2.356  0.0938 -1.7562  1.0277
  225SOL     MW  900   2.891   1.447   2.308  0.0690  0.4017  0.6749
  226SOL     OW  901   0.458   1.508   2.721 -0.1066  0.0280 -0.0581
  226SOL    HW1  902   0.537   1.468   2.682  2.0730  0.2641 -0.8884
  226SOL    HW2  903   0.458   1.606   2.709 -1.2396 -0.7882  1.5634
  226SOL     MW  904   0.469   1.515   2.714  0.0315 -0.0486  0.0463
  227SOL     OW  905   0.545   1.116   2.835 -0.3025 -0.3680  0.0393
  227SOL    HW1  906   0.632   1.106   2.797 -0.1373 -1.7525  2.3666
  227SOL    HW2  907   0.488   1.082   2.767 -0.1244  4.0405 -0.4601
  227SOL     MW  908   0.549   1.110   2.821 -0.2572  0.0310  0.2805
  228SOL     OW  909   0.741   1.005   2.036 -0.3424  1.1320  0.1234
  228SOL    HW1  910   0.815   1.056   2.002  0.4281  1.6120 -0.9993
  228SOL    HW2  911   0.777   0.926   2.080 -1.0215  0.3366 -0.5607
  228SOL     MW  912   0.756   1.001   2.038 -0.3303  1.0904 -0.1150
  229SOL     OW  913   0.183   0.624   3.094  0.2310  0.3469  0.4637
  229SOL    HW1  914   0.111   0.606   3.030  2.0326 -1.9275  0.9939
  229SOL    HW2  915   0.180   0.548   3.153 -0.8641  1.3173 -0.5594
  229SOL     MW  916   0.173   0.612   3.093  0.3242  0.1749  0.3987
  230SOL     OW  917   1.677   1.305   2.013  0.2187 -0.1651 -0.3596
  230SOL    HW1  918   1.616   1.295   2.088 -0.5151  0.7923  0.5206
  230SOL    HW2  919   1.738   1.233   2.017 -1.3577 -1.5940 -3.5312
  230SOL     MW  920   1.677   1.294   2.023 -0.0861 -0.2273 -0.6619
  231SOL     OW  921   2.717   1.241   2.198 -0.1507 -0.3940 -0.5299
  231SOL    HW1  922   2.778   1.319   2.201  4.4094  3.6746 -2.5012
  231SOL    HW2  923   2.648   1.281   2.136 -1.1296 -0.2005  0.3656
  231SOL     MW  924   2.716   1.257   2.190  0.3218  0.1684 -0.6718
  232SOL     OW  925   2.213   0.870   2.010  0.0989  0.1627 -0.4348
  232SOL    HW1  926   2.142   0.875   1.945 -0.7121  2.7471  0.1087
  232SOL    HW2  927   2.174   0.892   2.099 -0.0655  1.7806  1.2129
  232SOL     MW  928   2.199   0.874   2.013 -0.0298  0.7172 -0.1457
  233SOL     OW  929   2.057   0.441   2.065 -0.1142  0.4059  0.1654
  233SOL    HW1  930   2.148   0.416   2.039 -1.9557  0.0286  1.6273
  233SOL    HW2  931   2.075   0.505   2.138  2.3498 -0.3505  0.5981
  233SOL     MW  932   2.071   0.446   2.071 -0.0321  0.2563  0.4154
  234SOL     OW  933   0.229   1.057   2.468  0.0426 -0.0910  0.7126
  234SOL    HW1  934   0.136   1.053   2.469  1.2146  2.4957  0.8136
  234SOL    HW2  935   0.246   1.143   2.505 -0.7195  0.5353 -0.9494
  234SOL     MW  936   0.219   1.068   2.473  0.0967  0.3329  0.5067
  235SOL     OW  937   1.119   3.059   2.738  0.5457  0.2559  1.0444
  235SOL    HW1  938   1.151   3.011   2.814 -0.2031  0.3946 -0.0762
  235SOL    HW2  939   1.071   3.136   2.768  1.5606  0.4164  0.4751
  235SOL     MW  940   1.117   3.063   2.752  0.5808  0.2954  0.8215
  236SOL     OW  941   2.925   0.587   0.141 -0.3178  1.4373 -0.0258
  236SOL    HW1  942   2.846   0.642   0.148 -2.2323  1.5187 -1.1277
  236SOL    HW2  943   2.998   0.641   0.130  0.5066 -0.2813 -1.1997
  236SOL     MW  944   2.925   0.601   0.140 -0.4616  1.2213 -0.3261
  237SOL     OW  945   2.008   1.115   2.175  0.4667  0.3066  0.3708
  237SOL    HW1  946   1.968   1.089   2.093 -0.2681 -0.0591  1.2043
  237SOL    HW2  947   2.064   1.038   2.213  0.8122 -0.9189  1.6928
  237SOL     MW  948   2.010   1.102   2.169  0.4153  0.0967  0.6552
  238SOL     OW  949   1.077   1.828   2.946  0.2227 -0.1552 -0.6179
  238SOL    HW1  950   1.053   1.737   2.919 -2.1683  0.6320  2.3834
  238SOL    HW2  951   1.174   1.826   2.961 -1.4721  1.4905  0.4049
  238SOL     MW  952   1.087   1.815   2.944 -0.3164  0.1658 -0.0870
  239SOL     OW  953   1.303   1.400   2.366  0.3685  0.8371 -0.5305
  239SOL    HW1  954   1.303   1.443   2.450 -2.0139 -1.5903 -0.9356
  239SOL    HW2  955   1.293   1.308   2.394  1.9150 -1.7764  2.8364
  239SOL     MW  956   1.302   1.394   2.381  0.2582  0.1720 -0.1397
  240SOL     OW  957   0.672   0.869   2.322 -0.2368  0.3256 -0.0335
  240SOL    HW1  958   0.711   0.946   2.362  0.1295  2.8970  0.5444
  240SOL    HW2  959   0.742   0.818   2.283 -1.4642  1.2138 -0.3045
  240SOL     MW  960   0.686   0.872   2.322 -0.3504  0.7820  0.0070
  241SOL     OW  961   0.676   0.398   0.011 -0.2402  0.0488 -0.4648
  241SOL    HW1  962   0.679   0.466   0.079  0.6896 -1.3671 -0.2615
  241SOL    HW2  963   0.605   0.428  -0.045  0.8755 -3.2470  0.2026
  241SOL     MW  964   0.667   0.411   0.012  0.0297 -0.5729 -0.3499
  242SOL     OW  965   1.501   1.721   2.326 -0.0967  0.1591  0.0712
  242SOL    HW1  966   1.461   1.806   2.350 -0.2953  0.5825 -2.1702
  242SOL    HW2  967   1.431   1.689   2.263 -1.3471 -0.6027 -0.0273
  242SOL     MW  968   1.486   1.728   2.321 -0.2879  0.1145 -0.2375
  243SOL     OW  969   1.037   0.177   2.479  0.0173 -0.1546 -0.7095
  243SOL    HW1  970   1.113   0.166   2.424 -0.8983  0.1330  1.5747
  243SOL    HW2  971   1.079   0.223   2.551  1.6541 -0.8647 -0.9635
  243SOL     MW  972   1.053   0.182   2.481  0.1124 -0.2104 -0.4417
  244SOL     OW  973   0.240   0.782   2.398 -0.1522  0.5910 -0.6231
  244SOL    HW1  974   0.246   0.878   2.399  0.3554 -0.2677 -1.7348
  244SOL    HW2  975   0.328   0.743   2.390  0.3089  2.1102 -0.0114
  244SOL     MW  976   0.252   0.790   2.397 -0.0244  0.6781 -0.6890
  245SOL     OW  977   1.258   0.195   2.317 -0.8573 -0.3321 -0.4945
  245SOL    HW1  978   1.334   0.131   2.315 -0.7894 -0.9552  1.7227
  245SOL    HW2  979   1.288   0.265   2.380  0.4864  2.2522  0.7919
  245SOL     MW  980   1.272   0.196   2.325 -0.6711 -0.0733 -0.0322
  246SOL     OW  981   1.259   1.160   2.093 -0.4720 -0.3240 -0.2626
  246SOL    HW1  982   1.215   1.105   2.164 -0.1546 -0.0897  1.0853
  246SOL    HW2  983   1.338   1.195   2.137  4.2039 -2.1785  1.2642
  246SOL     MW  984   1.263   1.157   2.108  0.1868 -0.5377  0.1167
  247SOL     OW  985   0.741   0.589   0.211  0.3484  0.0533  0.0875
  247SOL    HW1  986   0.714   0.680   0.215  0.6288 -1.3729 -3.1199
  247SOL    HW2  987   0.822   0.592   0.151 -0.0815 -1.5986  0.2170
  247SOL     MW  988   0.748   0.602   0.204  0.3287 -0.3528 -0.3186
  248SOL     OW  989   0.305   1.316   2.562 -0.1253 -0.5957  0.7442
  248SOL    HW1  990   0.356   1.315   2.481  0.3555  0.7807  2.0574
  248SOL    HW2  991   0.363   1.379   2.610  0.2096 -3.0409  0.5398
  248SOL     MW  992   0.319   1.324   2.558 -0.0177 -0.7367  0.8905
  249SOL     OW  993   0.169   1.877   2.722  0.0475 -0.2116 -0.2358
  249SOL    HW1  994   0.142   1.789   2.678 -1.0381  1.1919 -1.9091
  249SOL    HW2  995   0.201   1.843   2.807 -1.6235  1.9863 -1.0689
  249SOL     MW  996   0.169   1.861   2.728 -0.3162  0.2636 -0.5665
  250SOL     OW  997   2.197   0.944   2.276 -0.0739 -0.3318  0.7825
  250SOL    HW1  998   2.239   0.858   2.295 -3.6053  0.9661 -1.8918
  250SOL    HW2  999   2.264   1.008   2.303  1.3133 -1.3006 -1.2483
  250SOL     MW 1000   2.211   0.941   2.282 -0.3568 -0.2884  0.1617
  251SOL     OW 1001   0.163   0.925   1.971  0.5560  0.3128 -0.1973
  251SOL    HW1 1002   0.115   0.845   1.999  2.2989  1.7887 -1.1736
  251SOL    HW2 1003   0.162   0.924   1.874 -1.0635  0.2309 -3.7072
  251SOL     MW 1004   0.157   0.914   1.962  0.5723  0.4967 -0.7892
  252SOL     OW 1005   1.740   1.015   2.863  0.0610  0.4933  0.7538
  252SOL    HW1 1006   1.762   1.046   2.954  0.0339 -0.2953  2.3930
  252SOL    HW2 1007   1.817   1.020   2.804  0.1394  0.0171 -0.3036
  252SOL     MW 1008   1.753   1.020   2.867  0.0678  0.3264  0.8305
  253SOL     OW 1009   1.186   1.785   2.555 -0.1538  0.0954  0.1519
  253SOL    HW1 1010   1.174   1.789   2.454 -2.2971 -0.1311  0.9383
  253SOL    HW2 1011   1.111   1.841   2.576  1.4325  0.8411 -0.4805
  253SOL     MW 1012   1.175   1.793   2.545 -0.2273  0.1639  0.1722
  254SOL     OW 1013   1.065   1.024   2.245  0.0522  0.2703 -0.1223
  254SOL    HW1 1014   1.000   0.969   2.198  0.2309  0.3164 -1.9416
  254SOL    HW2 1015   1.018   1.113   2.260 -0.9044  2.7287  0.9044
  254SOL     MW 1016   1.050   1.029   2.241 -0.0504  0.6008 -0.2269
  255SOL     OW 1017   0.794   2.565   2.118  0.7612 -0.3206  0.4286
  255SOL    HW1 1018   0.719   2.515   2.153 -0.1608  0.0756 -2.1651
  255SOL    HW2 1019   0.862   2.501   2.131 -2.3470 -1.8008 -0.2118
  255SOL     MW 1020   0.793   2.550   2.124  0.2295 -0.4636  0.0019
  256SOL     OW 1021   1.359   2.691   2.953 -0.0691  0.5697 -0.3109
  256SOL    HW1 1022   1.343   2.608   2.916 -0.3672  0.9723 -1.5934
  256SOL    HW2 1023   1.412   2.735   2.888  1.5669 -2.4322  0.1283
  256SOL     MW 1024   1.364   2.686   2.939  0.1074  0.2267 -0.4221
  257SOL     OW 1025   0.186   1.899   0.046  0.3158  0.4137 -0.3154
  257SOL    HW1 1026   0.210   1.852   0.124  0.1794  2.5816 -1.3958
  257SOL    HW2 1027   0.217   1.854  -0.033 -0.2827 -1.6335 -0.4153
  257SOL     MW 1028   0.193   1.887   0.046  0.2188  0.4296 -0.4711
  258SOL     OW 1029   0.820   1.045   2.471  0.2986  0.3465  0.0630
  258SOL    HW1 1030   0.845   1.120   2.416 -3.4875 -1.6122  1.6432
  258SOL    HW2 1031   0.821   1.066   2.566 -0.7523  1.6528  1.7778
  258SOL     MW 1032   0.823   1.057   2.476 -0.3396  0.2604  0.4978
  259SOL     OW 1033   0.853   0.381   2.336  0.7864 -0.2375 -0.4313
  259SOL    HW1 1034   0.782   0.367   2.275 -0.0298  0.6848  1.9461
  259SOL    HW2 1035   0.849   0.296   2.384 -4.1890 -0.9373 -3.0845
  259SOL     MW 1036   0.843   0.368   2.334  0.0222 -0.2081 -0.4677
  260SOL     OW 1037   0.514   0.122   1.585  0.4211 -0.4859  0.1633
  260SOL    HW1 1038   0.483   0.070   1.508  0.1175 -0.0341 -1.3341
  260SOL    HW2 1039   0.615   0.118   1.587 -0.3329 -1.8012  0.6195
  260SOL     MW 1040   0.523   0.114   1.575  0.2816 -0.5998  0.0259
  261SOL     OW 1041   1.150   0.723   2.036 -0.0035  0.0892 -0.0390
  261SOL    HW1 1042   1.166   0.709   2.127 -0.6718 -0.3956  1.0784
  261SOL    HW2 1043   1.203   0.647   1.996  4.0586 -0.0608  3.0250
  261SOL     MW 1044   1.159   0.711   2.042  0.4443  0.0054  0.5127
  262SOL     OW 1045   1.033   0.302   0.161 -0.1771 -0.2961  0.3334
  262SOL    HW1 1046   1.125   0.275   0.147  0.7073 -0.8556  1.7314
  262SOL    HW2 1047   0.970   0.238   0.124  0.7491  1.2816 -0.0505
  262SOL     MW 1048   1.037   0.290   0.154  0.0618 -0.1618  0.4672
  263SOL     OW 1049   0.399   0.014   2.441  0.1844  0.0573  0.1141
  263SOL    HW1 1050   0.320   0.073   2.429 -0.7665 -0.1697  0.0593
  263SOL    HW2 1051   0.472   0.048   2.388 -1.0312 -0.0605 -2.4596
  263SOL     MW 1052   0.398   0.026   2.433 -0.1014  0.0118 -0.2327
  264SOL     OW 1053   1.460   1.362   1.839  0.1660 -0.1318 -0.0901
  264SOL    HW1 1054   1.449   1.267   1.846  1.1127 -1.1038 -0.7198
  264SOL    HW2 1055   1.549   1.372   1.881  0.0098 -1.1105 -1.2615
  264SOL     MW 1056   1.470   1.351   1.846  0.2703 -0.3891 -0.3277
  265SOL     OW 1057   0.750   2.814   2.261  0.0604 -0.1149 -0.2730
  265SOL    HW1 1058   0.796   2.752   2.203 -1.7555 -0.9845 -2.2445
  265SOL    HW2 1059   0.743   2.772   2.345 -3.0798 -1.7691  0.7378
  265SOL     MW 1060   0.755   2.801   2.264 -0.5935 -0.4479 -0.3997
  266SOL     OW 1061   0.896   0.762   2.222 -1.2397  0.0507  0.1111
  266SOL    HW1 1062   0.865   0.714   2.149 -0.0718  0.1264  0.8668
  266SOL    HW2 1063   0.990   0.739   2.219 -0.9886 -0.8843  0.8032
  266SOL     MW 1064   0.904   0.753   2.212 -1.0525 -0.0627  0.3021
  267SOL     OW 1065   1.420   1.778   2.701 -0.0060 -0.3024 -0.1491
  267SOL    HW1 1066   1.453   1.709   2.644 -0.2403 -2.0123 -0.4418
  267SOL    HW2 1067   1.355   1.837   2.654 -1.9186  0.2572 -3.5388
  267SOL     MW 1068   1.416   1.776   2.687 -0.2892 -0.4541 -0.6349
  268SOL     OW 1069   0.188   0.827   1.660  0.1372  0.3499 -0.3161
  268SOL    HW1 1070   0.166   0.908   1.617 -0.1223 -1.4439  1.0470
  268SOL    HW2 1071   0.142   0.750   1.626 -1.9694 -0.9018  1.3702
  268SOL     MW 1072   0.179   0.828   1.649 -0.1750 -0.0519  0.0863
  269SOL     OW 1073   1.403   1.984   2.383  0.0499  0.1076 -0.3609
  269SOL    HW1 1074   1.474   2.039   2.361 -1.7255  1.8605 -0.5562
  269SOL    HW2 1075   1.319   2.036   2.400 -3.1417  1.9252  1.2619
  269SOL     MW 1076   1.401   1.998   2.383 -0.6054  0.5787 -0.1725
  270SOL     OW 1077   1.118   0.418   1.615 -0.2012 -0.4562  0.0580
  270SOL    HW1 1078   1.070   0.334   1.633 -0.6837 -1.5009 -0.7035
  270SOL    HW2 1079   1.207   0.395   1.604 -0.6402  1.6333 -0.6364
  270SOL     MW 1080   1.123   0.404   1.616 -0.3228 -0.3183 -0.1341
  271SOL     OW 1081   0.854   0.006   2.585  0.0362  0.1110  0.3527
  271SOL    HW1 1082   0.905  -0.065   2.624 -0.7204  1.6335  1.1755
  271SOL    HW2 1083   0.921   0.070   2.561 -0.9841 -3.1078  0.8172
  271SOL     MW 1084   0.869   0.005   2.587 -0.1983 -0.1128  0.5225
  272SOL     OW 1085   1.501   2.837   2.760  0.4483 -0.4424  0.2934
  272SOL    HW1 1086   1.456   2.866   2.685  0.0603  0.2749 -0.0191
  272SOL    HW2 1087   1.555   2.915   2.791  4.3039  1.2709 -0.7093
  272SOL     MW 1088   1.503   2.851   2.754  0.9058 -0.1217  0.1199
  273SOL     OW 1089   1.481   0.950   2.801  0.5586 -0.5570  0.0859
  273SOL    HW1 1090   1.567   0.984   2.832 -2.3582  0.3488 -2.5687
  273SOL    HW2 1091   1.445   1.019   2.745  0.9065 -1.4819 -0.9565
  273SOL     MW 1092   1.487   0.964   2.798  0.2197 -0.5595 -0.4019
  274SOL     OW 1093   1.468   0.695   0.103 -0.0768  0.2708  0.1368
  274SOL    HW1 1094   1.519   0.619   0.134  1.4945  1.8560  1.6578
  274SOL    HW2 1095   1.391   0.711   0.165 -1.8710 -0.4908 -0.3167
  274SOL     MW 1096   1.464   0.687   0.115 -0.1062  0.3794  0.2776
  275SOL     OW 1097   1.684   0.560   1.781 -0.8173 -0.3769  0.2807
  275SOL    HW1 1098   1.762   0.585   1.831  0.0483 -0.1693 -0.4016
  275SOL    HW2 1099   1.676   0.463   1.777  0.6408 -0.2752 -1.6536
  275SOL     MW 1100   1.693   0.551   1.787 -0.5107 -0.3361 -0.0645
  276SOL     OW 1101   0.299   1.222   1.914 -0.1658  0.0176  0.7771
  276SOL    HW1 1102   0.347   1.143   1.937  0.5478 -0.9212  1.4964
  276SOL    HW2 1103   0.230   1.217   1.982 -5.0816  0.7867 -1.0718
  276SOL     MW 1104   0.296   1.211   1.926 -0.7203 -0.0048  0.6280
  277SOL     OW 1105   1.918   1.197   2.441 -0.1394 -1.1220  0.5346
  277SOL    HW1 1106   1.962   1.266   2.493 -1.3791 -1.2770 -1.4638
  277SOL    HW2 1107   1.938   1.205   2.345 -1.3468  3.1243  1.7836
  277SOL     MW 1108   1.927   1.207   2.435 -0.4622 -0.5822  0.4357
  278SOL     OW 1109   1.406   0.662   1.698 -0.3465  0.9209 -0.2576
  278SOL    HW1 1110   1.373   0.620   1.781 -1.0619  1.4765 -1.7994
  278SOL    HW2 1111   1.500   0.659   1.722  0.9065  2.2875  2.4195
  278SOL     MW 1112   1.414   0.656   1.712 -0.2756  1.1745 -0.1078
  279SOL     OW 1113   0.583   0.087   2.250  0.0433  0.7302  0.1468
  279SOL    HW1 1114   0.671   0.048   2.243  1.0941 -0.6606  0.3239
  279SOL    HW2 1115   0.603   0.177   2.233  1.7151 -1.4625 -2.7493
  279SOL     MW 1116   0.597   0.094   2.247  0.4025  0.2574 -0.2119
  280SOL     OW 1117   1.496   0.982   2.134 -0.6004 -0.2593  0.2838
  280SOL    HW1 1118   1.544   0.909   2.097 -1.0000 -1.3893  1.9116
  280SOL    HW2 1119   1.463   0.944   2.216  1.4071  1.1429 -2.3045
  280SOL     MW 1120   1.498   0.967   2.140 -0.3883 -0.2234  0.1571
  281SOL     OW 1121   1.333   1.339   2.767  0.6228 -0.2753 -0.5874
  281SOL    HW1 1122   1.420   1.357   2.745 -1.4014 -1.4117 -2.7408
  281SOL    HW2 1123   1.335   1.293   2.849 -0.0023 -0.6396 -0.1893
  281SOL     MW 1124   1.344   1.335   2.775  0.2732 -0.4733 -0.8190
  282SOL     OW 1125   1.088   1.303   1.671 -0.2204 -0.5624 -0.1194
  282SOL    HW1 1126   1.070   1.389   1.628 -0.9991 -1.6818 -2.1528
  282SOL    HW2 1127   1.020   1.282   1.732 -3.5303  2.9166 -0.8206
  282SOL     MW 1128   1.077   1.312   1.673 -0.7598 -0.2511 -0.4802
  283SOL     OW 1129   0.797   1.238   2.985 -0.3470  0.5454  0.3695
  283SOL    HW1 1130   0.865   1.243   3.047 -0.4610  3.5373 -2.0593
  283SOL    HW2 1131   0.761   1.332   2.991  0.2347  1.4009  0.9772
  283SOL     MW 1132   0.801   1.251   2.994 -0.2853  1.0531  0.1292
  284SOL     OW 1133   0.492   0.675   2.384 -0.4330  0.1350  0.2973
  284SOL    HW1 1134   0.563   0.745   2.357  0.2743 -0.8849  1.7916
  284SOL    HW2 1135   0.468   0.611   2.318 -1.1988 -0.1692 -3.3718
  284SOL     MW 1136   0.499   0.676   2.372 -0.4407 -0.0397  0.0103
  285SOL     OW 1137   0.986   0.851   2.817  0.0213 -0.5694 -0.1859
  285SOL    HW1 1138   1.032   0.886   2.741  0.4960 -1.0569 -0.8926
  285SOL    HW2 1139   0.916   0.790   2.789  1.4887 -0.3208  1.3491
  285SOL     MW 1140   0.982   0.848   2.804  0.2775 -0.6009 -0.0766
  286SOL     OW 1141   1.123   1.509   2.628 -0.1319  0.4958  1.0323
  286SOL    HW1 1142   1.198   1.476   2.681  0.3825 -3.0082  2.5025
  286SOL    HW2 1143   1.145   1.597   2.603 -1.4359 -1.6667  3.8065
  286SOL     MW 1144   1.136   1.516   2.632 -0.2361 -0.2519  1.5923
  287SOL     OW 1145   1.127   0.922   0.333  0.0726  0.2783  0.3470
  287SOL    HW1 1146   1.168   0.973   0.400 -0.8108  1.9263  1.9221
  287SOL    HW2 1147   1.089   0.986   0.273 -1.7203 -2.9521  0.4331
  287SOL     MW 1148   1.127   0.937   0.334 -0.2805  0.0695  0.5661
  288SOL     OW 1149   1.545   0.564   2.089  0.4364 -0.2140 -0.4342
  288SOL    HW1 1150   1.510   0.583   2.176 -2.3273  3.5560 -1.5099
  288SOL    HW2 1151   1.584   0.641   2.052  2.4242 -1.4497 -1.0855
  288SOL     MW 1152   1.545   0.577   2.095  0.3340  0.1204 -0.6621
  289SOL     OW 1153   1.055   1.008   2.592  0.7100 -0.1149  0.4511
  289SOL    HW1 1154   1.092   0.921   2.588 -1.0106  1.9567 -0.0351
  289SOL    HW2 1155   1.002   1.007   2.510  0.0489  0.0182 -0.8479
  289SOL     MW 1156   1.053   0.997   2.581  0.3958  0.1759  0.2155
  290SOL     OW 1157   0.845   0.640   1.585 -0.1822 -0.0683 -0.3119
  290SOL    HW1 1158   0.892   0.613   1.505 -0.1006  1.1790 -1.2320
  290SOL    HW2 1159   0.919   0.662   1.651 -2.0694  0.8877  0.6820
  290SOL     MW 1160   0.861   0.640   1.583 -0.4204  0.2224 -0.3022
  291SOL     OW 1161   0.201   0.377   0.099 -0.1047  0.0535  0.8221
  291SOL    HW1 1162   0.275   0.318   0.118  0.3630  0.9804 -3.2363
  291SOL    HW2 1163   0.163   0.344   0.017  0.0543  0.1517 -0.7340
  291SOL     MW 1164   0.206   0.365   0.091 -0.0220  0.1888  0.0813
  292SOL     OW 1165   0.994   0.555   0.069 -0.2200 -0.2489 -0.0138
  292SOL    HW1 1166   1.058   0.606   0.111 -2.1074  1.2826 -3.3554
  292SOL    HW2 1167   1.015   0.458   0.081  1.5334  0.8855 -3.4318
  292SOL     MW 1168   1.005   0.549   0.076 -0.2377  0.1028 -0.9057
  293SOL     OW 1169   0.157   0.146   2.413 -0.0213 -0.3525  0.3522
  293SOL    HW1 1170   0.096   0.097   2.357  1.3544  0.2108  1.6385
  293SOL    HW2 1171   0.130   0.142   2.503  0.2447  1.0808  1.6001
  293SOL     MW 1172   0.145   0.139   2.418  0.1953 -0.0891  0.6866
  294SOL     OW 1173   1.452   0.605   2.348 -0.1549 -0.3415 -0.2412
  294SOL    HW1 1174   1.504   0.657   2.417 -0.6945  2.5983 -1.6379
  294SOL    HW2 1175   1.418   0.523   2.384 -0.8351  3.1954 -1.9258
  294SOL     MW 1176   1.455   0.601   2.362 -0.3158  0.5130 -0.6478
  295SOL     OW 1177   0.935   0.566   2.551 -0.0926  0.0923  0.0554
  295SOL    HW1 1178   0.903   0.514   2.480  0.0846 -0.6214 -0.3455
  295SOL    HW2 1179   0.866   0.618   2.580  3.3634 -2.5988 -0.9755
  295SOL     MW 1180   0.922   0.566   2.545  0.3868 -0.3569 -0.1335
  296SOL     OW 1181   1.299   0.285   2.037 -0.6495  0.0135  0.5003
  296SOL    HW1 1182   1.364   0.213   2.017  1.2295  0.5474 -0.1074
  296SOL    HW2 1183   1.292   0.278   2.133 -1.0032 -0.1189 -1.6866
  296SOL     MW 1184   1.307   0.275   2.047 -0.4483  0.0665  0.1316
  297SOL     OW 1185   1.387   0.391   1.595  0.1241  0.4097 -0.0318
  297SOL    HW1 1186   1.399   0.473   1.643 -0.2807  2.7561 -0.3646
  297SOL    HW2 1187   1.404   0.319   1.654  2.0978 -2.5993 -0.8006
  297SOL     MW 1188   1.391   0.392   1.609  0.3311  0.3223 -0.1771
  298SOL     OW 1189   1.641   0.810   1.979  0.2168 -0.2362 -0.0242
  298SOL    HW1 1190   1.626   0.861   1.900  0.1576 -1.5693 -0.8693
  298SOL    HW2 1191   1.710   0.831   2.042  0.0645 -1.2489 -2.5198
  298SOL     MW 1192   1.648   0.819   1.977  0.1889 -0.5457 -0.4649
  299SOL     OW 1193   0.570   1.080   0.065 -0.1610  0.7129 -0.5954
  299SOL    HW1 1194   0.603   1.111  -0.023  0.0502 -1.6243  1.5414
  299SOL    HW2 1195   0.479   1.101   0.089 -0.7843  0.6708  2.2642
  299SOL     MW 1196   0.563   1.087   0.056 -0.2154  0.3990  0.0638
  300SOL     OW 1197   1.308   1.157   2.534  0.0090  0.0574  0.3769
  300SOL    HW1 1198   1.221   1.125   2.560 -0.5475 -1.7293 -0.7797
  300SOL    HW2 1199   1.327   1.220   2.607 -0.5418  1.8800 -0.3964
  300SOL     MW 1200   1.299   1.161   2.547 -0.1371  0.0621  0.1223
  301SOL     OW 1201   1.491   0.887   0.643  0.0315 -0.4843 -0.3551
  301SOL    HW1 1202   1.491   0.906   0.740  1.2950  1.8188 -1.5815
  301SOL    HW2 1203   1.433   0.810   0.632 -1.3247 -2.2070 -0.7694
  301SOL     MW 1204   1.484   0.880   0.654  0.0193 -0.4078 -0.5716
  302SOL     OW 1205   0.126   1.534   1.990  0.0146  0.5030 -0.7182
  302SOL    HW1 1206   0.174   1.482   2.050 -0.2688 -0.7191  1.0169
  302SOL    HW2 1207   0.056   1.581   2.043  0.1936  1.5111 -3.3206
  302SOL     MW 1208   0.123   1.534   2.005  0.0008  0.4748 -0.8326
  303SOL     OW 1209   0.421   1.794   2.610 -0.6527  0.4117  0.3778
  303SOL    HW1 1210   0.396   1.778   2.517 -0.4807  2.6141 -0.6047
  303SOL    HW2 1211   0.345   1.830   2.657  4.1894  0.4984  1.7910
  303SOL     MW 1212   0.408   1.797   2.604  0.0089  0.7137  0.4346
  304SOL     OW 1213   0.553   2.068   2.385  0.2892 -0.2323  0.1230
  304SOL    HW1 1214   0.597   2.102   2.305  0.5310 -1.3345  1.2386
  304SOL    HW2 1215   0.573   1.972   2.393  0.6958  0.8997  0.5508
  304SOL     MW 1216   0.561   2.060   2.375  0.3747 -0.2284  0.3266
  305SOL     OW 1217   1.117   0.557   0.483  0.3049  0.1323  0.2372
  305SOL    HW1 1218   1.020   0.549   0.479  0.1224 -0.3180  1.0619
  305SOL    HW2 1219   1.138   0.466   0.500  1.3104  2.0691  0.0637
  305SOL     MW 1220   1.107   0.544   0.485  0.4135  0.3284  0.3231
  306SOL     OW 1221   1.166   1.469   0.289 -0.1222  0.1337 -0.5699
  306SOL    HW1 1222   1.213   1.385   0.312  1.8811  0.9113 -1.4718
  306SOL    HW2 1223   1.213   1.503   0.213 -0.5201 -2.1445  0.6027
  306SOL     MW 1224   1.178   1.463   0.282  0.0897 -0.0643 -0.5342
  307SOL     OW 1225   1.331   0.527   1.927  0.7221 -0.3376 -0.7184
  307SOL    HW1 1226   1.282   0.451   1.971 -1.0279 -0.5163 -0.1678
  307SOL    HW2 1227   1.400   0.556   1.991  0.4274  1.4208 -0.5561
  307SOL     MW 1228   1.334   0.520   1.942  0.4523 -0.1292 -0.6243
  308SOL     OW 1229   2.169   0.525   2.736 -0.3998  0.3110  0.2168
  308SOL    HW1 1230   2.260   0.511   2.762  2.3348  0.7331  1.1915
  308SOL    HW2 1231   2.161   0.610   2.706  0.3357 -1.8905 -1.6326
  308SOL     MW 1232   2.180   0.534   2.735  0.0580  0.0763  0.1014
  309SOL     OW 1233   0.482   0.456   0.343  0.2750  0.1762 -0.2362
  309SOL    HW1 1234   0.577   0.469   0.345 -0.7944 -0.4100 -2.2752
  309SOL    HW2 1235   0.469   0.384   0.278 -1.7437 -1.4962  0.5298
  309SOL     MW 1236   0.493   0.448   0.335 -0.1325 -0.1218 -0.4041
  310SOL     OW 1237   0.433   0.650   1.965 -0.1688 -0.4638  0.4053
  310SOL    HW1 1238   0.476   0.577   1.923  0.5775 -2.5354 -3.6860
  310SOL    HW2 1239   0.471   0.724   1.913  0.1874  1.1878 -0.3758
  310SOL     MW 1240   0.444   0.650   1.953 -0.0233 -0.5192 -0.2376
  311SOL     OW 1241   1.900   0.615   1.948 -0.5120 -1.1137  1.0564
  311SOL    HW1 1242   1.883   0.655   2.034 -3.3379 -0.4692 -2.2678
  311SOL    HW2 1243   1.973   0.560   1.966  0.4323  1.4154 -0.1135
  311SOL     MW 1244   1.907   0.613   1.962 -0.7602 -0.6950  0.4634
  312SOL     OW 1245   1.837   2.514   0.133  0.4878  0.0984  0.5175
  312SOL    HW1 1246   1.917   2.528   0.187 -0.0377 -0.5521  1.0102
  312SOL    HW2 1247   1.769   2.535   0.190 -0.6080 -0.2859  0.5855
  312SOL     MW 1248   1.838   2.519   0.148  0.2739 -0.0381  0.5915
  313SOL     OW 1249   0.148   1.101   2.976  0.3057  0.9482  0.4485
  313SOL    HW1 1250   0.130   1.114   3.069 -1.6865  0.4562  0.0638
  313SOL    HW2 1251   0.201   1.176   2.944 -1.4455 -0.3824 -1.0607
  313SOL     MW 1252   0.153   1.113   2.984 -0.1882  0.7077  0.1986
  314SOL     OW 1253   2.189   2.973   2.956 -0.3399  0.3731 -0.4129
  314SOL    HW1 1254   2.117   3.007   2.905  2.6324  2.3408 -1.4585
  314SOL    HW2 1255   2.217   3.050   3.008  1.2156 -1.6406 -1.5349
  314SOL     MW 1256   2.183   2.988   2.956  0.2575  0.3670 -0.6989
  315SOL     OW 1257   1.531   1.932   3.089  0.2517  0.3644 -1.0190
  315SOL    HW1 1258   1.456   1.995   3.123 -0.4036 -1.7843  1.8774
  315SOL    HW2 1259   1.583   1.987   3.027 -1.6183 -1.1928  0.4031
  315SOL     MW 1260   1.528   1.948   3.086 -0.0815 -0.1246 -0.4492
  316SOL     OW 1261   1.299   0.611   2.713  0.2211 -0.5168 -0.2011
  316SOL    HW1 1262   1.373   0.647   2.672 -0.0835 -3.6249  1.3901
  316SOL    HW2 1263   1.281   0.655   2.795 -3.0403 -2.1173  1.2393
  316SOL     MW 1264   1.307   0.621   2.718 -0.2494 -1.1380  0.1989
  317SOL     OW 1265   0.676   1.417   2.569 -0.3244  0.2992  1.0568
  317SOL    HW1 1266   0.753   1.361   2.586 -1.0966 -0.0984 -0.6650
  317SOL    HW2 1267   0.707   1.476   2.491  0.3211  2.2764 -2.8326
  317SOL     MW 1268   0.690   1.417   2.561 -0.3411  0.5076  0.3164
  318SOL     OW 1269   1.311   0.342   2.949  0.4299 -0.3304  0.6076
  318SOL    HW1 1270   1.237   0.408   2.942 -1.0339  0.9373  0.6129
  318SOL    HW2 1271   1.387   0.395   2.966  0.0549 -0.7924  1.3992
  318SOL     MW 1272   1.311   0.357   2.951  0.1873 -0.2241  0.7127
  319SOL     OW 1273   0.788   0.451   2.860  0.0849  0.2927 -0.2039
  319SOL    HW1 1274   0.763   0.378   2.799  0.7641 -0.2763 -2.5441
  319SOL    HW2 1275   0.794   0.418   2.953  2.5426  1.2266  0.3958
  319SOL     MW 1276   0.785   0.437   2.864  0.4988  0.3408 -0.4335
  320SOL     OW 1277   1.058   1.359   2.042  0.1143  0.0399 -0.0215
  320SOL    HW1 1278   1.122   1.302   2.085  0.4995 -0.7375  0.9273
  320SOL    HW2 1279   1.111   1.418   1.986  0.6453  1.0514 -0.5127
  320SOL     MW 1280   1.073   1.359   2.041  0.2352  0.0708  0.0389
  321SOL     OW 1281   1.136   0.931   3.024 -0.1886  0.7749  0.2299
  321SOL    HW1 1282   1.062   0.897   2.974  0.4212  0.3705 -0.4201
  321SOL    HW2 1283   1.204   0.870   3.024 -1.0143  2.4787 -3.2838
  321SOL     MW 1284   1.135   0.918   3.017 -0.2171  0.9463 -0.3194
  322SOL     OW 1285   1.221   0.866   1.681 -0.5482 -0.6866 -0.1426
  322SOL    HW1 1286   1.296   0.805   1.683  2.0982 -0.1332  0.0726
  322SOL    HW2 1287   1.213   0.912   1.774  0.4635  1.1732  0.2229
  322SOL     MW 1288   1.230   0.864   1.694 -0.0655 -0.3682 -0.0660
  323SOL     OW 1289   1.198   1.544   1.886  0.1148  0.0679 -0.5845
  323SOL    HW1 1290   1.245   1.527   1.805 -0.1787  1.4327  0.0471
  323SOL    HW2 1291   1.163   1.631   1.897 -1.2832 -0.3186  0.2784
  323SOL     MW 1292   1.200   1.553   1.877 -0.1084  0.1970 -0.3873
  324SOL     OW 1293   1.486   0.954   2.432  0.0065  0.8959  0.2713
  324SOL    HW1 1294   1.401   0.992   2.451  2.1948 -5.0052 -0.3103
  324SOL    HW2 1295   1.542   1.031   2.435 -0.0217 -1.5809 -0.2951
  324SOL     MW 1296   1.482   0.969   2.435  0.2915 -0.2095  0.1198
  325SOL     OW 1297   1.088   0.504   2.912  0.1632  0.5058 -0.4329
  325SOL    HW1 1298   1.063   0.535   3.002 -1.0773 -0.9614 -0.2205
  325SOL    HW2 1299   1.025   0.525   2.851  0.3869 -1.0184 -0.6236
  325SOL     MW 1300   1.076   0.511   2.916  0.0290  0.1111 -0.4301
  326SOL     OW 1301   0.459   1.359   2.300 -0.4039 -0.0582 -0.0428
  326SOL    HW1 1302   0.533   1.322   2.252  1.5057 -1.2522 -0.5516
  326SOL    HW2 1303   0.475   1.455   2.283 -1.4973 -1.2962 -1.5901
  326SOL     MW 1304   0.471   1.366   2.292 -0.2962 -0.3790 -0.3140
  327SOL     OW 1305   1.919   0.782   2.439  0.0664 -0.0543 -0.2667
  327SOL    HW1 1306   1.900   0.738   2.528  0.2467 -1.4515  0.4139
  327SOL    HW2 1307   1.973   0.856   2.465 -4.6463 -0.0430 -0.1273
  327SOL     MW 1308   1.924   0.786   2.454 -0.5316 -0.2371 -0.1585
  328SOL     OW 1309   0.207   1.393   2.209  0.6470 -0.3098  0.1115
  328SOL    HW1 1310   0.174   1.303   2.199  1.2596 -2.1788  0.9475
  328SOL    HW2 1311   0.296   1.387   2.240 -1.8360  0.3164  0.4387
  328SOL     MW 1312   0.215   1.381   2.212  0.4002 -0.4738  0.2650
  329SOL     OW 1313   0.141   0.252   1.393 -0.4836 -0.2627  0.8610
  329SOL    HW1 1314   0.120   0.234   1.484  1.8035  1.5691 -0.3949
  329SOL    HW2 1315   0.239   0.260   1.384  1.3274 -2.0616  2.4356
  329SOL     MW 1316   0.151   0.250   1.404  0.0571 -0.2584  0.9031
  330SOL     OW 1317   0.374   0.009   2.101 -0.0664 -0.3004 -0.3968
  330SOL    HW1 1318   0.443   0.038   2.167  2.4033 -1.0836 -0.0677
  330SOL    HW2 1319   0.321  -0.052   2.156 -1.3339  0.3634  1.1397
  330SOL     MW 1320   0.376   0.005   2.117  0.0922 -0.3161 -0.1506
  331SOL     OW 1321   0.884   1.245   2.272 -0.6304  0.0465  0.7831
  331SOL    HW1 1322   0.801   1.263   2.229  2.0882 -0.2440 -1.3618
  331SOL    HW2 1323   0.911   1.328   2.307  0.6333  0.7593 -1.3720
  331SOL     MW 1324   0.877   1.258   2.271 -0.1050  0.1022  0.2158
  332SOL     OW 1325   1.350   1.775   2.976  0.0275 -0.7082 -0.4464
  332SOL    HW1 1326   1.390   1.766   2.885 -0.6243  0.1966 -0.8893
  332SOL    HW2 1327   1.403   1.844   3.020 -0.6203 -3.1635  1.0107
  332SOL     MW 1328   1.362   1.783   2.970 -0.1440 -0.9128 -0.3126
  333SOL     OW 1329   1.741   1.402   2.963 -0.6945  0.3409 -0.1198
  333SOL    HW1 1330   1.830   1.425   2.987 -2.8252 -3.7424 -2.6880
  333SOL    HW2 1331   1.732   1.320   3.006  0.0995  0.0119 -0.2664
  333SOL     MW 1332   1.752   1.394   2.972 -0.8709 -0.2413 -0.4780
  334SOL     OW 1333   1.340   0.021   2.595 -0.3490  0.0809 -0.4780
  334SOL    HW1 1334   1.258   0.005   2.645 -1.4008 -0.1450 -1.9593
  334SOL    HW2 1335   1.392   0.087   2.640  0.0782 -0.4110 -0.9327
  334SOL     MW 1336   1.336   0.027   2.607 -0.4314 -0.0138 -0.7334
  335SOL     OW 1337   1.362   0.756   2.964 -0.1260  0.2569 -0.2025
  335SOL    HW1 1338   1.402   0.732   3.051 -1.5448 -1.9572  0.4006
  335SOL    HW2 1339   1.408   0.823   2.915 -1.4942  1.0283 -0.4269
  335SOL     MW 1340   1.373   0.762   2.969 -0.4937  0.0665 -0.1525
  336SOL     OW 1341   0.950   1.136   1.891 -0.0911  0.4134 -0.4420
  336SOL    HW1 1342   0.989   1.195   1.955 -0.2625 -0.8283 -3.4337
  336SOL    HW2 1343   1.007   1.067   1.865  0.5307  0.0030  1.2059
  336SOL     MW 1344   0.963   1.135   1.896 -0.0317  0.1954 -0.6193
  337SOL     OW 1345   0.633   1.814   2.804  1.0818 -0.2108  0.8731
  337SOL    HW1 1346   0.568   1.814   2.737  0.5058  1.2317  0.0783
  337SOL    HW2 1347   0.692   1.749   2.769 -1.0898 -0.4526 -0.5414
  337SOL     MW 1348   0.632   1.805   2.790  0.7193 -0.0524  0.5816
  338SOL     OW 1349   1.136   0.753   2.546  0.3094 -0.9805  0.3194
  338SOL    HW1 1350   1.052   0.700   2.550  0.1641  0.2594 -2.5588
  338SOL    HW2 1351   1.206   0.713   2.604  0.5755 -0.2541 -0.5637
  338SOL     MW 1352   1.134   0.741   2.554  0.3254 -0.7211 -0.1769
  339SOL     OW 1353   1.477   1.051   1.815  0.2328  0.6527 -0.0884
  339SOL    HW1 1354   1.410   1.062   1.748 -0.3226 -1.7660 -2.0548
  339SOL    HW2 1355   1.446   1.035   1.904  0.9131  0.1004 -0.7336
  339SOL     MW 1356   1.464   1.051   1.818  0.2493  0.2607 -0.4330
  340SOL     OW 1357   1.307   1.536   0.051 -0.0238 -0.2031 -0.1760
  340SOL    HW1 1358   1.329   1.603  -0.019  0.0584 -0.0403 -1.3259
  340SOL    HW2 1359   1.391   1.496   0.079  2.4393 -0.8282  1.5957
  340SOL     MW 1360   1.321   1.539   0.045  0.3120 -0.2641 -0.0940
  341SOL     OW 1361   0.105   1.401   2.768 -0.5736 -0.7340  0.2502
  341SOL    HW1 1362   0.182   1.372   2.717 -2.6833 -1.8788 -0.4609
  341SOL    HW2 1363   0.025   1.377   2.721 -2.5715 -1.2947  0.8809
  341SOL     MW 1364   0.104   1.394   2.755 -1.1156 -0.9590  0.2396
  342SOL     OW 1365   1.304   0.302   0.122  0.1748 -0.0543  0.0961
  342SOL    HW1 1366   1.339   0.387   0.160  0.3139  0.2972  0.1596
  342SOL    HW2 1367   1.308   0.314   0.025  3.2338 -2.0485 -2.4249
  342SOL     MW 1368   1.309   0.315   0.114  0.5968 -0.2710 -0.2281
  343SOL     OW 1369   0.262   0.265   2.137  0.2814  0.5936 -0.6682
  343SOL    HW1 1370   0.295   0.182   2.112  0.4732  1.6624 -2.2278
  343SOL    HW2 1371   0.191   0.274   2.072  0.0203 -4.7061 -0.8655
  343SOL     MW 1372   0.257   0.255   2.125  0.2723  0.0354 -0.9000
  344SOL     OW 1373   1.717   2.006   0.171  0.0055 -0.4565  0.3919
  344SOL    HW1 1374   1.729   2.087   0.128  0.1869  1.2484  1.6785
  344SOL    HW2 1375   1.647   1.967   0.122 -0.7809  0.3327  1.4728
  344SOL     MW 1376   1.709   2.012   0.159 -0.0744 -0.1274  0.7043
  345SOL     OW 1377   0.750   1.581   2.341 -0.2812  0.0784 -0.5925
  345SOL    HW1 1378   0.669   1.612   2.293 -1.4220 -1.3395  1.4323
  345SOL    HW2 1379   0.819   1.569   2.277  2.7366  1.5446  2.0623
  345SOL     MW 1380   0.748   1.583   2.326 -0.0336  0.0848  0.0249
  346SOL     OW 1381   1.764   1.092   0.034 -0.2045  0.4995 -0.3187
  346SOL    HW1 1382   1.851   1.118   0.067 -2.1545 -0.7001  3.2938
  346SOL    HW2 1383   1.735   1.024   0.097  1.2204  0.7679 -1.0970
  346SOL     MW 1384   1.772   1.086   0.047 -0.2738  0.3766  0.0553
  347SOL     OW 1385   1.203   0.675   2.289 -0.3152 -0.4955  0.2371
  347SOL    HW1 1386   1.296   0.649   2.298  0.7529  0.4605  0.9471
  347SOL    HW2 1387   1.177   0.699   2.378 -0.2111  0.0675  2.2982
  347SOL     MW 1388   1.212   0.675   2.302 -0.1605 -0.2951  0.6027
  348SOL     OW 1389   1.373   2.676   1.922 -0.4280 -0.6168 -0.6966
  348SOL    HW1 1390   1.424   2.597   1.957 -1.1729 -1.1912 -1.3510
  348SOL    HW2 1391   1.413   2.737   1.990  1.2743 -0.5926  2.9413
  348SOL     MW 1392   1.385   2.674   1.936 -0.3017 -0.6894 -0.3029
  349SOL     OW 1393   1.447   0.252   2.716 -0.0084 -0.1524  0.2369
  349SOL    HW1 1394   1.384   0.280   2.783 -0.1997  0.6671  2.5061
  349SOL    HW2 1395   1.522   0.220   2.755 -2.0347  1.6012 -1.9814
  349SOL     MW 1396   1.449   0.251   2.730 -0.3010  0.1871  0.2436
  350SOL     OW 1397   1.843   0.657   2.671  0.0633 -0.2966 -0.2864
  350SOL    HW1 1398   1.770   0.614   2.619  1.5002  0.2544  0.7411
  350SOL    HW2 1399   1.897   0.585   2.689 -1.7920 -1.0337 -0.3225
  350SOL     MW 1400   1.841   0.642   2.666  0.0081 -0.3212 -0.1556
  351SOL     OW 1401   0.100   1.064   1.532  0.3120  0.2667  0.2315
  351SOL    HW1 1402   0.029   1.065   1.595  0.6316  4.5294 -0.6527
  351SOL    HW2 1403   0.161   1.130   1.566 -3.8363 -0.9860 -1.4103
  351SOL     MW 1404   0.099   1.073   1.544 -0.1932  0.6638 -0.1018
  352SOL     OW 1405   0.810   1.650   2.704 -0.1078  0.0706  0.1644
  352SOL    HW1 1406   0.885   1.625   2.766 -1.7322 -2.6340  1.2153
  352SOL    HW2 1407   0.779   1.567   2.660 -2.0089 -1.4222 -0.5508
  352SOL     MW 1408   0.816   1.636   2.706 -0.5729 -0.4832  0.2087
  353SOL     OW 1409   3.060   2.510   2.644  0.1272  0.1981  0.3036
  353SOL    HW1 1410   3.161   2.510   2.646  3.0481 -0.1731 -0.1275
  353SOL    HW2 1411   3.039   2.606   2.638  0.3470 -0.6425 -0.6413
  353SOL     MW 1412   3.071   2.523   2.644  0.5416  0.0382  0.1220
  354SOL     OW 1413   0.247   2.481   0.808  0.4737  0.0572  0.3441
  354SOL    HW1 1414   0.303   2.493   0.882 -2.0301  0.8435  0.2079
  354SOL    HW2 1415   0.185   2.411   0.822 -2.4117  0.7211 -0.5506
  354SOL     MW 1416   0.246   2.474   0.820 -0.2374  0.2485  0.2081
  355SOL     OW 1417   0.030   2.255   0.390 -0.4361  0.1005 -0.1367
  355SOL    HW1 1418  -0.050   2.200   0.392 -0.9007  1.1980 -1.9028
  355SOL    HW2 1419   0.029   2.291   0.479 -3.6933 -1.1807 -1.7047
  355SOL     MW 1420   0.019   2.252   0.402 -0.9271  0.0763 -0.5766
  356SOL     OW 1421   0.848   2.821   0.992 -0.3410  0.0791 -0.4964
  356SOL    HW1 1422   0.859   2.875   0.904 -0.2780 -0.3014 -0.6626
  356SOL    HW2 1423   0.757   2.801   0.994  0.1844 -0.5813 -2.7128
  356SOL     MW 1424   0.838   2.826   0.980 -0.2634 -0.0582 -0.8107
  357SOL     OW 1425   1.778   2.911   0.402 -0.2359  0.4088 -0.1290
  357SOL    HW1 1426   1.720   2.842   0.434 -0.0777  0.3605 -2.7584
  357SOL    HW2 1427   1.871   2.885   0.387 -1.4170 -0.9850 -2.8175
  357SOL     MW 1428   1.783   2.899   0.404 -0.3709  0.2186 -0.8306
  358SOL     OW 1429   0.455   0.159   1.058  0.1810 -0.2086 -0.4180
  358SOL    HW1 1430   0.542   0.115   1.057  1.8548 -1.4491  1.5092
  358SOL    HW2 1431   0.432   0.159   0.965  1.3312  1.2936  0.1016
  358SOL     MW 1432   0.464   0.153   1.045  0.5536 -0.1741 -0.0952
  359SOL     OW 1433   0.846   2.908   1.856  0.2039 -1.0895 -0.6177
  359SOL    HW1 1434   0.839   2.813   1.844 -2.4910 -0.5198  2.2329
  359SOL    HW2 1435   0.884   2.932   1.774  1.1605  0.3149  0.0450
  359SOL     MW 1436   0.850   2.899   1.843 -0.0254 -0.8290 -0.1541
  360SOL     OW 1437   0.575   2.771   0.918  0.2006  0.1742 -0.0240
  360SOL    HW1 1438   0.565   2.718   0.842  0.8601  0.6016 -0.1760
  360SOL    HW2 1439   0.594   2.712   0.993 -0.0997 -0.1532 -0.0626
  360SOL     MW 1440   0.576   2.756   0.918  0.2480  0.1874 -0.0491
  361SOL     OW 1441   0.188   2.648   1.343  0.5508 -0.1598  0.4740
  361SOL    HW1 1442   0.180   2.730   1.392  0.5029  1.3151  0.5677
  361SOL    HW2 1443   0.284   2.626   1.346  1.4007 -1.5318  0.2558
  361SOL     MW 1444   0.199   2.656   1.350  0.6566 -0.1463  0.4575
  362SOL     OW 1445   1.495   2.391   0.638  0.1763 -0.0265  0.1054
  362SOL    HW1 1446   1.499   2.336   0.717  2.2374 -2.0086  0.2961
  362SOL    HW2 1447   1.541   2.470   0.663 -1.7001 -0.1773 -1.5507
  362SOL     MW 1448   1.501   2.394   0.652  0.2006 -0.3079 -0.0880
  363SOL     OW 1449   0.299   3.072   0.665 -0.0682 -0.0048 -0.0734
  363SOL    HW1 1450   0.283   3.028   0.746 -1.0340 -0.6341 -1.8414
  363SOL    HW2 1451   0.206   3.090   0.638 -2.4106 -1.0664 -1.5559
  363SOL     MW 1452   0.285   3.069   0.672 -0.5047 -0.2279 -0.5022
  364SOL     OW 1453   0.725   0.166   0.199  0.9220  0.2604 -0.2095
  364SOL    HW1 1454   0.657   0.100   0.235  0.9375 -0.1354 -1.0983
  364SOL    HW2 1455   0.690   0.218   0.124 -0.1669  0.8871 -1.3170
  364SOL     MW 1456   0.712   0.164   0.194  0.7804  0.2909 -0.4729
  365SOL     OW 1457   0.976   2.024   1.113  0.0497  0.7589  0.7486
  365SOL    HW1 1458   0.959   2.102   1.060  0.0257 -2.9021  0.9998
  365SOL    HW2 1459   0.921   1.952   1.080  0.9862 -1.2912  1.0254
  365SOL     MW 1460   0.967   2.025   1.102  0.1701  0.0054  0.8182
  366SOL     OW 1461   2.849   2.686   1.024  0.5316  0.2905  0.1869
  366SOL    HW1 1462   2.934   2.676   1.079  0.2112  1.6926 -1.5475
  366SOL    HW2 1463   2.881   2.703   0.932 -0.3486  2.2643  0.2684
  366SOL     MW 1464   2.865   2.687   1.019  0.3732  0.7359 -0.0312
  367SOL     OW 1465   1.228   2.963   0.866 -0.1461  0.6999  0.2056
  367SOL    HW1 1466   1.229   3.045   0.818 -0.4915  1.4774 -1.2191
  367SOL    HW2 1467   1.210   2.895   0.797 -0.4145 -0.0854 -0.6484
  367SOL     MW 1468   1.226   2.965   0.851 -0.2271  0.6988 -0.0951
  368SOL     OW 1469   1.663   0.413   0.703  0.4045  0.5835  0.1504
  368SOL    HW1 1470   1.726   0.348   0.667 -0.1636 -2.8007  0.3417
  368SOL    HW2 1471   1.695   0.499   0.693 -1.8806  0.2732 -0.9163
  368SOL     MW 1472   1.675   0.416   0.697  0.0280  0.0960  0.0349
  369SOL     OW 1473   0.131   2.481   1.760  0.0233 -0.8545  0.9496
  369SOL    HW1 1474   0.233   2.497   1.766  1.6122  0.9514 -1.1035
  369SOL    HW2 1475   0.096   2.576   1.758 -0.1752  1.7649  2.2192
  369SOL     MW 1476   0.140   2.495   1.761  0.2067 -0.2706  0.8462
  370SOL     OW 1477   0.719   0.095   1.032  0.1573 -0.0118 -0.0588
  370SOL    HW1 1478   0.731   0.187   1.003 -1.3028 -1.4628  0.5056
  370SOL    HW2 1479   0.810   0.068   1.025 -2.6343 -0.5969 -3.2333
  370SOL     MW 1480   0.733   0.104   1.027 -0.4037 -0.2805 -0.4032
  371SOL     OW 1481   1.310   2.925   1.523  0.3226 -0.0472  0.3122
  371SOL    HW1 1482   1.244   2.865   1.482  1.0925 -1.4018 -2.0729
  371SOL    HW2 1483   1.322   3.002   1.463  1.2254  0.5138  1.1893
  371SOL     MW 1484   1.303   2.927   1.510  0.5433 -0.1519  0.1132
  372SOL     OW 1485   0.739   2.295   0.457  0.1350 -0.4726 -0.5450
  372SOL    HW1 1486   0.735   2.204   0.483  0.0815  3.1297  1.6019
  372SOL    HW2 1487   0.783   2.299   0.366 -2.6060 -0.9486  1.2115
  372SOL     MW 1488   0.745   2.284   0.448 -0.2337 -0.0601 -0.0300
  373SOL     OW 1489   2.765   2.996   1.444  0.2672 -0.1109 -0.2810
  373SOL    HW1 1490   2.850   2.959   1.430  0.4205 -0.2717 -2.0295
  373SOL    HW2 1491   2.758   3.069   1.383  0.3345  2.4217  0.1838
  373SOL     MW 1492   2.775   3.001   1.434  0.2963  0.2020 -0.4503
  374SOL     OW 1493   1.533   0.466   0.233  0.2666 -0.5125 -0.1217
  374SOL    HW1 1494   1.571   0.381   0.235 -1.2048  0.0600 -0.2368
  374SOL    HW2 1495   1.494   0.470   0.319 -0.6165  0.5303  0.1124
  374SOL     MW 1496   1.533   0.455   0.245 -0.0440 -0.2993 -0.1060
  375SOL     OW 1497   0.968   2.119   2.279  0.4043 -0.3674 -0.5408
  375SOL    HW1 1498   1.036   2.120   2.347  0.9617  0.6782  2.7831
  375SOL    HW2 1499   1.012   2.074   2.200 -1.7033  1.8636 -0.9219
  375SOL     MW 1500   0.983   2.113   2.277  0.1997  0.0649 -0.1525
  376SOL     OW 1501   0.756   2.562   0.081 -0.4283 -0.6793  0.2151
  376SOL    HW1 1502   0.686   2.525   0.148  2.3735 -0.8828  1.7936
  376SOL    HW2 1503   0.747   2.487   0.017  0.4804 -1.6292 -1.6396
  376SOL     MW 1504   0.746   2.547   0.081  0.0613 -0.8315  0.1786
  377SOL     OW 1505   1.284   2.012   0.875  0.0173  0.1846 -0.2161
  377SOL    HW1 1506   1.197   2.004   0.836  1.8245  0.0926  2.1189
  377SOL    HW2 1507   1.287   1.951   0.945  0.4587  0.8173 -0.8410
  377SOL     MW 1508   1.273   2.003   0.879  0.3140  0.2560  0.0095
  378SOL     OW 1509   0.897   2.822   1.569 -0.3491  0.7001  0.0545
  378SOL    HW1 1510   0.875   2.727   1.567 -1.2100 -1.5457  0.4055
  378SOL    HW2 1511   0.890   2.853   1.474  1.7226 -1.4956 -1.0730
  378SOL     MW 1512   0.893   2.814   1.556 -0.1894  0.1141 -0.0480
  379SOL     OW 1513   1.152   1.777   2.273 -0.3612  0.3101 -0.4859
  379SOL    HW1 1514   1.062   1.746   2.257  1.5381 -3.1290 -2.2322
  379SOL    HW2 1515   1.211   1.716   2.225  0.1894 -0.9780  1.1699
  379SOL     MW 1516   1.148   1.765   2.265 -0.0380 -0.3136 -0.4979
  380SOL     OW 1517   0.802   0.108   1.628 -0.0058 -0.2124  0.2006
  380SOL    HW1 1518   0.817   0.158   1.546  0.7258  2.3330 -1.5186
  380SOL    HW2 1519   0.891   0.104   1.663 -0.7446  0.2242 -1.1689
  380SOL     MW 1520   0.816   0.114   1.622 -0.0067  0.1810 -0.2069
  381SOL     OW 1521   0.808   2.044   0.799 -0.1845 -0.6251  0.4937
  381SOL    HW1 1522   0.891   2.026   0.759 -1.7593  1.1040 -0.9315
  381SOL    HW2 1523   0.836   2.122   0.858 -0.6023  1.6668 -5.8510
  381SOL     MW 1524   0.823   2.052   0.801 -0.4474 -0.0946 -0.5314
  382SOL     OW 1525   0.694   0.073   0.720  0.8711 -0.0181 -0.2190
  382SOL    HW1 1526   0.708   0.052   0.807  0.5497  0.8583  0.7807
  382SOL    HW2 1527   0.674  -0.018   0.685  2.2337 -0.6192  0.5473
  382SOL     MW 1528   0.693   0.058   0.727  1.0085  0.0183  0.0140
  383SOL     OW 1529   0.531   3.083   0.281 -0.4279  0.0180 -0.3786
  383SOL    HW1 1530   0.570   3.015   0.228  2.0025 -0.1693  3.8253
  383SOL    HW2 1531   0.490   3.024   0.338  0.7455 -0.0221 -2.2144
  383SOL     MW 1532   0.531   3.066   0.281  0.0476 -0.0120 -0.0661
  384SOL     OW 1533   0.701   2.917   0.616  0.6161 -0.3243 -0.5244
  384SOL    HW1 1534   0.788   2.918   0.658  1.0143  1.0696  0.6035
  384SOL    HW2 1535   0.650   2.857   0.672  0.0521  0.4897  0.2547
  384SOL     MW 1536   0.706   2.909   0.629  0.5942 -0.0330 -0.2728
  385SOL     OW 1537   1.387   2.097   1.522  0.2053 -0.5043  0.2970
  385SOL    HW1 1538   1.470   2.102   1.577 -0.0166  0.6648 -0.7578
  385SOL    HW2 1539   1.334   2.041   1.577 -1.6582  1.7917 -2.4525
  385SOL     MW 1540   1.391   2.090   1.537 -0.0698 -0.0471 -0.2050
  386SOL     OW 1541   1.308   0.413   0.897  0.0136 -0.4056 -0.0041
  386SOL    HW1 1542   1.227   0.430   0.949  2.5655 -0.9710  0.4387
  386SOL    HW2 1543   1.342   0.336   0.947 -0.1013 -0.8665 -0.1354
  386SOL     MW 1544   1.302   0.405   0.911  0.3351 -0.5410  0.0370
  387SOL     OW 1545   0.811   2.198   1.529  0.1058  0.0203  0.5220
  387SOL    HW1 1546   0.837   2.281   1.494  3.0336 -0.3925 -0.1882
  387SOL    HW2 1547   0.840   2.129   1.469 -0.8972  0.2995  0.4229
  387SOL     MW 1548   0.819   2.200   1.517  0.3598  0.0027  0.4152
  388SOL     OW 1549   1.534   2.782   1.190 -0.6328 -0.6949 -0.3968
  388SOL    HW1 1550   1.445   2.764   1.150 -0.5801  0.8527 -2.3981
  388SOL    HW2 1551   1.593   2.708   1.200  1.0064  0.1411  0.3983
  388SOL     MW 1552   1.530   2.770   1.186 -0.4096 -0.3804 -0.5559
  389SOL     OW 1553   0.434   0.096   3.029 -0.1735  0.0727  0.2304
  389SOL    HW1 1554   0.518   0.061   3.014 -1.3561  1.1233 -0.5228
  389SOL    HW2 1555   0.413   0.119   2.944  1.7716 -1.0932  1.5212
  389SOL     MW 1556   0.442   0.095   3.016 -0.0729  0.0575  0.3014
  390SOL     OW 1557   1.294   0.085   0.703 -0.3939 -0.0719  0.0236
  390SOL    HW1 1558   1.346   0.067   0.625  1.8715  0.3798 -0.8280
  390SOL    HW2 1559   1.361   0.117   0.769 -0.6621 -3.7821 -1.8278
  390SOL     MW 1560   1.310   0.087   0.702 -0.1304 -0.5018 -0.3331
  391SOL     OW 1561   0.343   2.224   1.416  0.9397  0.9977  0.1362
  391SOL    HW1 1562   0.307   2.129   1.415 -1.4680  1.6163  0.3809
  391SOL    HW2 1563   0.269   2.281   1.431  0.2885  0.2512  0.0654
  391SOL     MW 1564   0.328   2.219   1.418  0.5361  0.9808  0.1592
  392SOL     OW 1565   2.044   2.212   0.319 -0.6352  0.2580  0.0681
  392SOL    HW1 1566   2.130   2.219   0.360  1.2243  0.1113 -1.5531
  392SOL    HW2 1567   1.974   2.264   0.367 -1.9317 -0.7315  2.3404
  392SOL     MW 1568   2.046   2.220   0.331 -0.5609  0.1081  0.1540
  393SOL     OW 1569   0.207   2.985   2.788  0.4399 -0.9928  0.5083
  393SOL    HW1 1570   0.268   2.967   2.720 -0.6691  2.3367  1.9269
  393SOL    HW2 1571   0.213   3.081   2.807  0.5160  1.5043  0.4396
  393SOL     MW 1572   0.216   2.995   2.782  0.3036 -0.2240  0.6864
  394SOL     OW 1573   0.862   1.740   1.562 -0.3114  0.4382 -0.0374
  394SOL    HW1 1574   0.792   1.740   1.627 -1.5121 -1.5213 -0.7922
  394SOL    HW2 1575   0.867   1.829   1.514  0.3987 -1.3988 -0.3945
  394SOL     MW 1576   0.853   1.752   1.564 -0.3761 -0.0627 -0.1841
  395SOL     OW 1577   0.992   2.837   2.652 -0.6105 -0.6158  0.1146
  395SOL    HW1 1578   1.042   2.913   2.686 -3.4986 -1.5965  1.8070
  395SOL    HW2 1579   1.049   2.786   2.587  2.7173  1.7345 -1.9539
  395SOL     MW 1580   1.006   2.840   2.648 -0.5525 -0.4351  0.0650
  396SOL     OW 1581   0.721   1.841   2.379 -0.2954 -0.2354 -0.4097
  396SOL    HW1 1582   0.781   1.859   2.454  0.2499 -0.2861  1.5525
  396SOL    HW2 1583   0.730   1.748   2.362 -1.3565  3.9442 -2.5610
  396SOL     MW 1584   0.730   1.831   2.387 -0.3635  0.3093 -0.4347
  397SOL     OW 1585   1.011   2.313   1.301  0.2993  0.1918  0.2208
  397SOL    HW1 1586   1.056   2.351   1.228 -0.7838  0.0056  1.2904
  397SOL    HW2 1587   1.092   2.299   1.355 -1.8000  1.2103  1.3982
  397SOL     MW 1588   1.028   2.317   1.298 -0.1206  0.3016  0.5173
  398SOL     OW 1589   0.529   2.648   0.677 -0.3585  0.3937 -0.2221
  398SOL    HW1 1590   0.453   2.604   0.632  0.4963  0.6005  1.4712
  398SOL    HW2 1591   0.598   2.579   0.668 -1.6066 -0.9509  1.7515
  398SOL     MW 1592   0.528   2.633   0.670 -0.4104  0.2435  0.2617
  399SOL     OW 1593   0.240   2.082   0.319  0.0157 -0.0123  0.0298
  399SOL    HW1 1594   0.172   2.146   0.346 -1.0316 -1.2362  0.5847
  399SOL    HW2 1595   0.287   2.123   0.243  1.8444  4.1970 -1.7954
  399SOL     MW 1596   0.237   2.096   0.313  0.1188  0.3816 -0.1378
  400SOL     OW 1597   0.497   1.945   0.101  0.2337  0.0536 -0.4815
  400SOL    HW1 1598   0.464   2.035   0.092 -0.0263  0.4988 -0.8017
  400SOL    HW2 1599   0.506   1.925   0.192 -0.0063 -0.1385 -0.9913
  400SOL     MW 1600   0.494   1.954   0.112  0.1677  0.0870 -0.5910
  401SOL     OW 1601   0.754   2.056   0.076 -0.1056  0.6196 -0.5613
  401SOL    HW1 1602   0.808   1.974   0.098  0.5234  0.5195  0.3804
  401SOL    HW2 1603   0.670   2.010   0.073 -0.0244 -0.7370  2.6700
  401SOL     MW 1604   0.750   2.039   0.078 -0.0119  0.4274 -0.0108
  402SOL     OW 1605   0.595   2.964   1.787  0.0090  0.1847 -0.6152
  402SOL    HW1 1606   0.676   2.933   1.828 -1.4201  1.4499  1.1053
  402SOL    HW2 1607   0.629   3.042   1.747 -0.9832 -1.0355 -0.5957
  402SOL     MW 1608   0.610   2.971   1.787 -0.3105  0.1906 -0.3856
  403SOL     OW 1609   0.064   0.445   0.368  0.2986 -0.0668  0.5733
  403SOL    HW1 1610   0.136   0.446   0.434 -0.1051  0.3055 -0.1336
  403SOL    HW2 1611   0.112   0.443   0.281  1.6771 -1.7849  1.5115
  403SOL     MW 1612   0.080   0.445   0.365  0.4272 -0.2444  0.6038
  404SOL     OW 1613   0.931   2.929   0.763  0.2395 -0.1550  0.5641
  404SOL    HW1 1614   1.001   2.862   0.745 -0.2526  0.2537 -1.0104
  404SOL    HW2 1615   0.962   2.996   0.699  0.0887  0.9816 -0.9887
  404SOL     MW 1616   0.944   2.929   0.752  0.1547  0.0489  0.1515
  405SOL     OW 1617   0.524   2.398   1.542  0.3364 -0.1823  0.4007
  405SOL    HW1 1618   0.519   2.471   1.484 -0.7367 -0.7441 -1.4793
  405SOL    HW2 1619   0.457   2.336   1.502 -4.3419 -1.9317  1.3190
  405SOL     MW 1620   0.514   2.400   1.529 -0.4224 -0.4873  0.2738
  406SOL     OW 1621   0.385   2.405   1.066 -0.9456 -0.2264  0.2463
  406SOL    HW1 1622   0.293   2.402   1.093 -2.3681 -0.2086  1.2620
  406SOL    HW2 1623   0.421   2.322   1.095  0.3425 -0.6645  1.8656
  406SOL     MW 1624   0.378   2.393   1.073 -0.9634 -0.2819  0.5940
  407SOL     OW 1625   0.000   2.665   1.148 -0.0445 -0.5751 -0.5214
  407SOL    HW1 1626   0.064   2.667   1.225  0.4363  0.0529  1.2340
  407SOL    HW2 1627   0.047   2.701   1.077 -1.3684  2.6629  1.0089
  407SOL     MW 1628   0.015   2.670   1.149 -0.1557 -0.0650 -0.0879
  408SOL     OW 1629   2.171   2.149   0.680  0.7024  0.6391 -0.5362
  408SOL    HW1 1630   2.093   2.169   0.733  0.2320 -0.2008 -4.5848
  408SOL    HW2 1631   2.135   2.071   0.630 -0.5484 -0.3764  0.4671
  408SOL     MW 1632   2.156   2.141   0.681  0.4753  0.3943 -0.9380
  409SOL     OW 1633   1.457   0.142   0.913 -0.3239  0.1566  0.9021
  409SOL    HW1 1634   1.542   0.181   0.920 -0.4445 -0.4258  0.8029
  409SOL    HW2 1635   1.451   0.081   0.989 -1.3467 -2.5647 -2.0812
  409SOL     MW 1636   1.468   0.139   0.924 -0.4747 -0.2793  0.4954
  410SOL     OW 1637   1.112   2.472   1.104  0.0632 -0.2780  0.6215
  410SOL    HW1 1638   1.049   2.522   1.051  0.4847 -0.2795  2.5107
  410SOL    HW2 1639   1.140   2.405   1.038 -0.5067 -2.3441 -1.9089
  410SOL     MW 1640   1.108   2.470   1.088  0.0436 -0.5508  0.5369
  411SOL     OW 1641   1.979   0.059   2.897 -0.1957  0.7272 -0.4405
  411SOL    HW1 1642   1.918   0.019   2.840  1.5653 -0.2639 -0.6792
  411SOL    HW2 1643   1.926   0.112   2.958  1.0981 -1.2712  0.0228
  411SOL     MW 1644   1.964   0.060   2.897  0.2074  0.3328 -0.4109
  412SOL     OW 1645   1.015   2.266   0.604  0.7471 -0.4112 -0.0385
  412SOL    HW1 1646   1.034   2.354   0.576 -1.4234 -0.9308 -0.9228
  412SOL    HW2 1647   0.931   2.252   0.549 -3.4339 -0.8609 -1.2384
  412SOL     MW 1648   1.006   2.276   0.593 -0.0909 -0.5391 -0.3135
  413SOL     OW 1649   0.577   2.746   3.056  0.4912 -0.0299 -0.5124
  413SOL    HW1 1650   0.641   2.671   3.080  2.3720 -1.5837  0.8788
  413SOL    HW2 1651   0.609   2.780   2.971 -0.9643 -2.9678  3.3181
  413SOL     MW 1652   0.589   2.741   3.048  0.5473 -0.6225  0.1765
  414SOL     OW 1653   1.920   2.955   1.064 -0.4001  0.5751  0.1044
  414SOL    HW1 1654   1.848   2.985   1.012  0.0271  1.8832  3.0498
  414SOL    HW2 1655   1.998   3.003   1.030 -0.5477 -0.8661 -2.1339
  414SOL     MW 1656   1.921   2.965   1.053 -0.3632  0.5575  0.1977
  415SOL     OW 1657   1.814   2.640   1.082  0.5641  0.5479 -0.0344
  415SOL    HW1 1658   1.842   2.642   1.178 -0.9436  1.8489  1.6478
  415SOL    HW2 1659   1.836   2.730   1.060 -0.3768  0.6225  0.9736
  415SOL     MW 1660   1.820   2.652   1.092  0.2410  0.7294  0.3206
  416SOL     OW 1661   0.571   1.964   1.377 -0.3733  0.6165 -0.2885
  416SOL    HW1 1662   0.515   1.997   1.308 -1.9276  0.4298  0.1244
  416SOL    HW2 1663   0.559   1.867   1.381  0.8242  2.5346 -1.0554
  416SOL     MW 1664   0.562   1.956   1.369 -0.4204  0.8450 -0.3352
  417SOL     OW 1665   0.999   3.060   2.076 -0.1680  0.2561 -0.0123
  417SOL    HW1 1666   0.958   3.076   2.161 -1.5242 -2.1853 -4.2940
  417SOL    HW2 1667   0.932   3.005   2.025 -3.0051 -1.4871 -1.4945
  417SOL     MW 1668   0.985   3.055   2.080 -0.7213 -0.2960 -0.7728
  418SOL     OW 1669   0.728   2.919   0.125 -0.2578  0.3998 -0.2223
  418SOL    HW1 1670   0.815   2.899   0.086 -0.5673 -1.1674 -0.0380
  418SOL    HW2 1671   0.667   2.855   0.077  1.8169 -0.9321  1.6531
  418SOL     MW 1672   0.731   2.908   0.113 -0.0249  0.0173  0.0494
  419SOL     OW 1673   0.451   2.617   1.361  0.2858 -0.0988 -0.9079
  419SOL    HW1 1674   0.509   2.685   1.408 -2.9099 -0.5558 -0.8415
  419SOL    HW2 1675   0.482   2.624   1.265 -1.9176 -4.0028 -0.7927
  419SOL     MW 1676   0.462   2.627   1.354 -0.4266 -0.6742 -0.8839
  420SOL     OW 1677   0.853   2.237   0.974 -0.0446 -0.1351  0.7647
  420SOL    HW1 1678   0.783   2.233   1.042 -1.3439  1.3854 -1.2025
  420SOL    HW2 1679   0.892   2.323   0.972 -0.4913  2.8844 -0.0538
  420SOL     MW 1680   0.849   2.248   0.983 -0.2750  0.4639  0.3971
  421SOL     OW 1681   2.950   0.133   3.064  0.3130  0.2839 -0.6770
  421SOL    HW1 1682   2.889   0.083   3.009  1.9123  2.4263  1.1629
  421SOL    HW2 1683   2.989   0.062   3.115 -1.3612  0.9807 -0.9608
  421SOL     MW 1684   2.947   0.117   3.064  0.3031  0.6585 -0.4717
  422SOL     OW 1685   0.885   2.529   0.893  0.0723 -0.1756  0.6563
  422SOL    HW1 1686   0.888   2.624   0.893  0.0511 -0.0781  1.7548
  422SOL    HW2 1687   0.847   2.510   0.808  1.1331 -0.2437 -2.6588
  422SOL     MW 1688   0.880   2.539   0.882  0.2095 -0.1718  0.3638
  423SOL     OW 1689   1.443   0.091   0.472 -0.1971 -0.4976 -0.4463
  423SOL    HW1 1690   1.432   0.062   0.381  3.0808  0.6161 -2.6016
  423SOL    HW2 1691   1.450   0.188   0.472  1.9492 -2.0328 -0.0157
  423SOL     MW 1692   1.442   0.100   0.460  0.5186 -0.5532 -0.6738
  424SOL     OW 1693   0.698   2.281   1.195  0.0713  0.1806 -0.0836
  424SOL    HW1 1694   0.607   2.250   1.208 -3.4267 -0.4333 -0.2639
  424SOL    HW2 1695   0.756   2.246   1.265 -0.3484  0.0468  0.3300
  424SOL     MW 1696   0.693   2.272   1.206 -0.4456  0.0819 -0.0528
  425SOL     OW 1697   1.744   2.813   2.063 -0.3225 -0.1844 -0.1675
  425SOL    HW1 1698   1.738   2.828   1.972 -2.6770  0.5637  0.7465
  425SOL    HW2 1699   1.761   2.718   2.054  1.7590 -0.5375 -2.1276
  425SOL     MW 1700   1.745   2.803   2.050 -0.3585 -0.1322 -0.3055
  426SOL     OW 1701   0.798   1.693   1.952  0.5884 -0.1928  0.2806
  426SOL    HW1 1702   0.736   1.723   1.888 -0.5523 -2.3853  0.5541
  426SOL    HW2 1703   0.805   1.765   2.013  1.6390 -1.8559  2.8903
  426SOL     MW 1704   0.791   1.706   1.951  0.5765 -0.7015  0.6610
  427SOL     OW 1705   0.358   1.648   1.899  0.6364  0.4516 -0.4075
  427SOL    HW1 1706   0.402   1.574   1.864  0.3959 -0.0037  3.3744
  427SOL    HW2 1707   0.283   1.605   1.941 -1.3462 -0.4750 -0.9132
  427SOL     MW 1708   0.354   1.633   1.900  0.3431  0.2693  0.0248
  428SOL     OW 1709   0.596   2.596   1.128  0.4060  0.1423 -0.2609
  428SOL    HW1 1710   0.661   2.553   1.176  2.0294  1.4407  2.0815
  428SOL    HW2 1711   0.541   2.522   1.113  1.5472  0.6121  0.0805
  428SOL     MW 1712   0.597   2.580   1.132  0.7708  0.3756  0.0932
  429SOL     OW 1713   1.259   2.784   1.098 -0.2095 -0.2970  1.2466
  429SOL    HW1 1714   1.177   2.782   1.152 -2.0805  0.2821 -0.5790
  429SOL    HW2 1715   1.250   2.864   1.043  0.0744  0.3318  1.9621
  429SOL     MW 1716   1.247   2.795   1.098 -0.4189 -0.1376  1.1001
  430SOL     OW 1717   1.135   2.751   0.717  0.0412 -0.2899 -0.3797
  430SOL    HW1 1718   1.147   2.655   0.720  1.0046  0.6198 -1.8562
  430SOL    HW2 1719   1.082   2.766   0.631 -2.3937 -0.0506 -0.9625
  430SOL     MW 1720   1.130   2.740   0.706 -0.1530 -0.1383 -0.6514
  431SOL     OW 1721   0.348   1.924   1.065 -0.5186 -0.4469  0.3039
  431SOL    HW1 1722   0.425   1.872   1.047  0.9591  0.7988  0.7652
  431SOL    HW2 1723   0.294   1.929   0.986 -2.7331  0.9286 -1.7295
  431SOL     MW 1724   0.351   1.918   1.052 -0.6158 -0.1011  0.0965
  432SOL     OW 1725   0.075   0.026   1.221  0.1337  0.1657  0.5123
  432SOL    HW1 1726   0.099   0.089   1.288 -1.4304  0.3743 -3.3073
  432SOL    HW2 1727   0.007  -0.038   1.253 -0.9765  0.9957  0.0777
  432SOL     MW 1728   0.069   0.026   1.234 -0.2192  0.3027 -0.0490
  433SOL     OW 1729   0.621   2.805   1.510  0.1008  0.1813 -0.0001
  433SOL    HW1 1730   0.593   2.792   1.601 -1.4993  1.1918 -4.2919
  433SOL    HW2 1731   0.712   2.840   1.508 -0.5622  0.3934  1.0458
  433SOL     MW 1732   0.629   2.808   1.522 -0.1978  0.3426 -0.4284
  434SOL     OW 1733   1.589   2.852   1.511 -0.4230 -0.4868  0.0272
  434SOL    HW1 1734   1.491   2.871   1.513 -0.5275 -1.4562  0.2183
  434SOL    HW2 1735   1.613   2.813   1.426  1.9409  2.7528 -1.7318
  434SOL     MW 1736   1.579   2.850   1.500 -0.1249 -0.1872 -0.1797
  435SOL     OW 1737   2.848   1.789   0.214  0.3755 -0.0883  0.6940
  435SOL    HW1 1738   2.912   1.861   0.181 -1.1435 -0.8055 -0.8908
  435SOL    HW2 1739   2.808   1.765   0.132 -0.6609  1.3541 -2.1719
  435SOL     MW 1740   2.851   1.795   0.199  0.0383  0.0074  0.1068
  436SOL     OW 1741   1.322   2.704   0.407  0.2756 -0.1586  0.8219
  436SOL    HW1 1742   1.378   2.688   0.479 -0.1886 -2.5982  1.9514
  436SOL    HW2 1743   1.297   2.796   0.432  1.9489  1.8306 -2.1754
  436SOL     MW 1744   1.326   2.714   0.420  0.4351 -0.2180  0.5754
  437SOL     OW 1745   0.850   2.957   1.344  0.2717  0.0910 -0.2541
  437SOL    HW1 1746   0.889   3.044   1.344 -1.1853  1.1769  0.3969
  437SOL    HW2 1747   0.885   2.915   1.267 -1.4311 -0.1130  0.8124
  437SOL     MW 1748   0.859   2.963   1.334 -0.1452  0.2073 -0.0275
  438SOL     OW 1749   0.820   2.637   1.860 -0.3429 -0.1084 -0.9223
  438SOL    HW1 1750   0.791   2.624   1.948  1.3931 -0.4733 -3.4262
  438SOL    HW2 1751   0.804   2.544   1.830 -0.8912 -1.2371 -0.9545
  438SOL     MW 1752   0.814   2.623   1.868 -0.1862 -0.3055 -1.2569
  439SOL     OW 1753   1.235   2.181   0.436  0.2373 -0.0044 -0.4858
  439SOL    HW1 1754   1.157   2.201   0.492  1.8556 -0.7598  1.1344
  439SOL    HW2 1755   1.219   2.225   0.351 -0.2893 -1.4921  0.0010
  439SOL     MW 1756   1.222   2.189   0.432  0.3813 -0.3003 -0.2078
  440SOL     OW 1757   1.765   3.009   3.071  0.3316  0.3944  0.1427
  440SOL    HW1 1758   1.700   2.988   3.141 -1.1718  0.2304 -2.0019
  440SOL    HW2 1759   1.846   2.970   3.101 -2.5903  2.4561 -0.5577
  440SOL     MW 1760   1.767   3.001   3.084 -0.2523  0.6448 -0.2327
  441SOL     OW 1761   0.308   2.624   0.463 -0.3442  0.2415  0.2840
  441SOL    HW1 1762   0.278   2.606   0.379 -0.2198 -0.0674  1.2860
  441SOL    HW2 1763   0.362   2.706   0.461  2.6238 -1.5162  1.7875
  441SOL     MW 1764   0.311   2.632   0.452  0.0638 -0.0312  0.6146
  442SOL     OW 1765   3.068   2.432   0.611  0.7647 -0.3040  0.2922
  442SOL    HW1 1766   3.083   2.522   0.623 -1.1091  2.8749  2.5128
  442SOL    HW2 1767   2.985   2.413   0.653  1.8799 -0.6661  1.4173
  442SOL     MW 1768   3.059   2.441   0.618  0.6646  0.0677  0.7336
  443SOL     OW 1769   1.413   1.807   1.913 -0.1318 -0.1117 -0.0931
  443SOL    HW1 1770   1.356   1.835   1.840  2.7385  3.0539  0.6219
  443SOL    HW2 1771   1.356   1.748   1.958 -1.5633  1.9588 -2.1303
  443SOL     MW 1772   1.398   1.803   1.909  0.0580  0.5792 -0.2676
  444SOL     OW 1773   0.875   2.545   1.562 -0.1505  0.4810 -0.5971
  444SOL    HW1 1774   0.947   2.496   1.596 -1.0330 -0.1127 -2.3915
  444SOL    HW2 1775   0.803   2.514   1.618 -0.9166  0.0602  1.8809
  444SOL     MW 1776   0.875   2.534   1.574 -0.3680  0.3472 -0.5069
  445SOL     OW 1777   1.027   0.087   1.354  0.6042 -0.0008  0.3148
  445SOL    HW1 1778   1.024   0.182   1.363 -2.2160 -0.4348 -1.8969
  445SOL    HW2 1779   1.064   0.074   1.263 -0.5014  1.5733 -1.2020
  445SOL     MW 1780   1.032   0.098   1.343  0.0863  0.1496 -0.1772
  446SOL     OW 1781   2.737   2.920   1.111  0.2387 -0.0465  0.2890
  446SOL    HW1 1782   2.690   2.967   1.042 -1.7069  1.5711  0.8239
  446SOL    HW2 1783   2.774   2.836   1.070  2.4141 -0.1099 -0.5769
  446SOL     MW 1784   2.736   2.915   1.096  0.2690  0.1585  0.2453
  447SOL     OW 1785   0.088   2.020   1.640  0.1987 -0.1882  0.1980
  447SOL    HW1 1786   0.127   1.945   1.687  0.0009 -2.1641 -1.3966
  447SOL    HW2 1787   0.014   1.996   1.581 -0.9854  0.4647 -0.9229
  447SOL     MW 1788   0.084   2.007   1.639  0.0164 -0.3628 -0.1603
  448SOL     OW 1789   1.737   2.410   1.602 -0.1624  0.5331  0.1366
  448SOL    HW1 1790   1.701   2.320   1.605 -0.9748 -1.7715  1.4863
  448SOL    HW2 1791   1.666   2.464   1.574  3.2776 -0.1389 -1.6582
  448SOL     MW 1792   1.723   2.406   1.599  0.1843  0.1404  0.0779
  449SOL     OW 1793   0.793   2.841   0.376 -0.3474  0.6113 -0.2244
  449SOL    HW1 1794   0.747   2.862   0.288 -0.9791  0.2003 -0.6620
  449SOL    HW2 1795   0.727   2.875   0.445 -2.6783  0.5423  1.3679
  449SOL     MW 1796   0.778   2.848   0.373 -0.7383  0.5480 -0.0720
  450SOL     OW 1797   1.206   2.479   0.704 -0.2170  0.2145  0.6041
  450SOL    HW1 1798   1.193   2.411   0.762  2.6039 -1.5791  0.0567
  450SOL    HW2 1799   1.302   2.473   0.692 -0.7737 -1.9401  0.5141
  450SOL     MW 1800   1.217   2.469   0.710  0.0818 -0.3064  0.5200
  451SOL     OW 1801   0.571   2.098   1.640 -0.5356  0.1306  0.0973
  451SOL    HW1 1802   0.650   2.154   1.625  2.6507 -1.4850  0.6858
  451SOL    HW2 1803   0.567   2.058   1.555  0.3080 -0.6565 -1.6866
  451SOL     MW 1804   0.581   2.100   1.627 -0.0039 -0.1864 -0.0605
  452SOL     OW 1805   0.304   2.707   3.100 -0.2941 -0.0846  0.2102
  452SOL    HW1 1806   0.394   2.709   3.061  0.7312  0.6326 -1.1701
  452SOL    HW2 1807   0.232   2.732   3.039 -1.0896  0.6521 -0.0560
  452SOL     MW 1808   0.306   2.711   3.087 -0.2638  0.1072 -0.0071
  453SOL     OW 1809   0.348   2.947   1.682 -0.1279  0.6954 -0.1711
  453SOL    HW1 1810   0.432   2.942   1.727 -2.0852 -0.7978  0.0858
  453SOL    HW2 1811   0.381   2.978   1.593  0.9202  2.1567 -2.0096
  453SOL     MW 1812   0.364   2.951   1.676 -0.2479  0.6912 -0.3798
  454SOL     OW 1813   1.009   2.776   1.206 -0.2763 -0.3261  0.4461
  454SOL    HW1 1814   0.962   2.693   1.192 -3.2139 -0.2524  0.4551
  454SOL    HW2 1815   0.966   2.824   1.136  4.8910  0.0215 -0.6754
  454SOL     MW 1816   0.998   2.771   1.195  0.0179 -0.2705  0.2993
  455SOL     OW 1817   1.614   2.940   0.173  0.2603 -0.0616 -0.4939
  455SOL    HW1 1818   1.677   2.928   0.246  0.9708  1.3678  1.2224
  455SOL    HW2 1819   1.581   2.841   0.172 -0.0372 -0.9433  0.6726
  455SOL     MW 1820   1.618   2.925   0.183  0.3148  0.0107 -0.1135
  456SOL     OW 1821   2.762   0.365   1.448 -0.3656  0.2046  0.8615
  456SOL    HW1 1822   2.728   0.297   1.391  0.9714 -1.0847 -1.1991
  456SOL    HW2 1823   2.857   0.368   1.419  1.5643  2.0256 -1.6160
  456SOL     MW 1824   2.770   0.356   1.437  0.0654  0.2748  0.2628
  457SOL     OW 1825   0.978   1.578   2.909  0.0138 -0.3017 -0.0502
  457SOL    HW1 1826   0.896   1.572   2.970 -4.2360 -0.8344 -0.9329
  457SOL    HW2 1827   1.034   1.505   2.928  1.4624  1.4786  0.5002
  457SOL     MW 1828   0.975   1.568   2.919 -0.3558 -0.1371 -0.0941
  458SOL     OW 1829   1.473   1.457   0.553  0.0473  0.7374  0.1159
  458SOL    HW1 1830   1.397   1.511   0.575 -0.0114 -0.4480 -1.0625
  458SOL    HW2 1831   1.447   1.390   0.489 -1.6707  2.1619 -2.2193
  458SOL     MW 1832   1.460   1.455   0.547 -0.1871  0.7689 -0.3477
  459SOL     OW 1833   1.446   0.089   0.204 -0.1858 -0.0342 -0.2368
  459SOL    HW1 1834   1.439   0.027   0.133  0.0773  0.7307 -0.4163
  459SOL    HW2 1835   1.393   0.167   0.186  1.7891 -0.2232  1.9839
  459SOL     MW 1836   1.438   0.091   0.192  0.1095  0.0418  0.0325
  460SOL     OW 1837   1.776   2.189   0.621 -0.7482 -0.5429  0.0626
  460SOL    HW1 1838   1.691   2.153   0.644 -1.1078 -0.3361  1.0291
  460SOL    HW2 1839   1.831   2.110   0.614 -2.0466 -2.1919  2.5478
  460SOL     MW 1840   1.772   2.174   0.623 -0.9669 -0.7332  0.5180
  461SOL     OW 1841   0.372   2.377   0.574 -0.3024  0.1108  0.0080
  461SOL    HW1 1842   0.348   2.433   0.503  0.5024  2.1640  0.9877
  461SOL    HW2 1843   0.340   2.425   0.655  0.2775 -0.1601 -0.0081
  461SOL     MW 1844   0.365   2.391   0.575 -0.1197  0.3459  0.1351
  462SOL     OW 1845   0.412   0.311   1.311  0.0478 -0.2104 -0.0012
  462SOL    HW1 1846   0.429   0.254   1.237 -1.7757  1.0687 -2.0994
  462SOL    HW2 1847   0.498   0.340   1.350  1.6466 -0.3803  1.4455
  462SOL     MW 1848   0.425   0.308   1.306  0.0182 -0.0641 -0.0872
  463SOL     OW 1849   0.961   0.071   0.635  0.3403  0.0782  0.4342
  463SOL    HW1 1850   0.965   0.118   0.555  0.2287 -0.4528  0.6157
  463SOL    HW2 1851   0.866   0.066   0.654 -1.3350 -1.0174  0.6632
  463SOL     MW 1852   0.949   0.076   0.627  0.1045 -0.1364  0.4883
  464SOL     OW 1853   0.845   3.066   2.307 -0.1554  0.5402 -0.1018
  464SOL    HW1 1854   0.816   2.972   2.291  1.5070  1.9203 -0.0508
  464SOL    HW2 1855   0.861   3.064   2.404 -1.7282 -1.7783  2.7072
  464SOL     MW 1856   0.843   3.053   2.318 -0.1436  0.4164  0.2756
  465SOL     OW 1857   0.703   0.306   0.477  0.0233 -0.3783  0.2515
  465SOL    HW1 1858   0.634   0.280   0.537 -1.0251  0.7333  0.1780
  465SOL    HW2 1859   0.673   0.265   0.398  0.5577  0.9347 -1.3128
  465SOL     MW 1860   0.690   0.297   0.474 -0.0445 -0.0584  0.0354
  466SOL     OW 1861   1.063   2.000   0.703 -0.0265  0.6082  0.0504
  466SOL    HW1 1862   1.070   1.932   0.638  0.9228  0.7898 -0.3427
  466SOL    HW2 1863   1.073   2.085   0.664  2.7682  1.1015 -0.3066
  466SOL     MW 1864   1.065   2.002   0.689  0.4675  0.6972 -0.0485
  467SOL     OW 1865   1.247   2.274   0.930 -0.5384 -0.5454  0.0473
  467SOL    HW1 1866   1.340   2.309   0.932 -0.4748  0.6940 -1.5903
  467SOL    HW2 1867   1.262   2.182   0.913 -0.8572  0.9259 -1.3744
  467SOL     MW 1868   1.261   2.266   0.928 -0.5721 -0.1877 -0.3563
  468SOL     OW 1869   0.384   2.617   1.998 -0.2255  0.1678  0.1427
  468SOL    HW1 1870   0.425   2.580   1.916 -0.6376  0.9527  2.0727
  468SOL    HW2 1871   0.329   2.691   1.971  1.3077  0.0436  2.4638
  468SOL     MW 1872   0.382   2.622   1.984 -0.0776  0.2550  0.7036
  469SOL     OW 1873   0.370   2.198   1.789 -0.1417 -0.2628  0.3356
  469SOL    HW1 1874   0.289   2.142   1.789  0.0570  1.6796  1.6576
  469SOL    HW2 1875   0.444   2.141   1.752  1.5452 -0.6179 -0.2980
  469SOL     MW 1876   0.369   2.183   1.784  0.1071 -0.0534  0.4265
  470SOL     OW 1877   3.028   2.590   0.093 -0.8853  0.1598  0.5289
  470SOL    HW1 1878   2.960   2.581   0.161  2.3470  2.6506  1.1920
  470SOL    HW2 1879   3.002   2.596   0.002 -2.1644 -2.5103  0.6486
  470SOL     MW 1880   3.016   2.590   0.090 -0.6276  0.1362  0.6322
  471SOL     OW 1881   1.142   2.697   1.446  0.4202 -0.2973  0.6894
  471SOL    HW1 1882   1.089   2.749   1.500  1.4924 -1.2179  0.4578
  471SOL    HW2 1883   1.089   2.693   1.363 -0.2879  2.4515 -2.7080
  471SOL     MW 1884   1.128   2.704   1.442  0.4682 -0.0561  0.2105
  472SOL     OW 1885   2.889   2.117   0.390 -0.2243  0.3843 -0.5624
  472SOL    HW1 1886   2.880   2.089   0.298 -2.7013  1.7595  1.0367
  472SOL    HW2 1887   2.864   2.043   0.445  0.3843  0.5614  0.9017
  472SOL     MW 1888   2.885   2.104   0.385 -0.4708  0.5891 -0.1583
  473SOL     OW 1889   0.852   2.557   1.278 -0.2656  0.3802 -0.7811
  473SOL    HW1 1890   0.897   2.477   1.250 -0.1474  2.7308 -0.8793
  473SOL    HW2 1891   0.872   2.552   1.374  0.0211 -0.5436  0.3375
  473SOL     MW 1892   0.861   2.546   1.287 -0.2122  0.5685 -0.6465
  474SOL     OW 1893   0.881   2.120   1.792  0.3148 -0.1996  0.3631
  474SOL    HW1 1894   0.952   2.167   1.832 -2.1877  1.3993 -3.9389
  474SOL    HW2 1895   0.878   2.147   1.699 -1.0252 -0.5607 -0.2808
  474SOL     MW 1896   0.890   2.130   1.785 -0.1922 -0.0363 -0.2894
  475SOL     OW 1897   1.657   0.008   1.457  0.2628  0.1247  0.7050
  475SOL    HW1 1898   1.582   0.018   1.406 -0.1219 -0.6447  1.5303
  475SOL    HW2 1899   1.656  -0.088   1.479 -2.9937  0.0994  3.8242
  475SOL     MW 1900   1.647  -0.003   1.453 -0.2176  0.0198  1.2254
  476SOL     OW 1901   1.400   2.601   0.936 -0.2844  0.0277  0.5261
  476SOL    HW1 1902   1.336   2.655   0.983  3.5941 -0.4440 -0.5397
  476SOL    HW2 1903   1.450   2.675   0.895  1.3380 -2.6433 -0.4943
  476SOL     MW 1904   1.398   2.618   0.937  0.4414 -0.3869  0.2509
  477SOL     OW 1905   0.783   2.526   0.633  0.3081 -0.3660 -0.1131
  477SOL    HW1 1906   0.847   2.577   0.583 -3.5071  0.5976 -0.0819
  477SOL    HW2 1907   0.767   2.448   0.576 -0.6716 -1.7252  2.5965
  477SOL     MW 1908   0.789   2.523   0.619 -0.3246 -0.4182  0.2485
  478SOL     OW 1909   0.140   2.727   0.938  0.3532  0.0408  0.2438
  478SOL    HW1 1910   0.204   2.797   0.952  0.9076 -3.3992 -1.0804
  478SOL    HW2 1911   0.169   2.667   0.868 -0.0196 -0.3772 -4.2844
  478SOL     MW 1912   0.152   2.729   0.931  0.3771 -0.4682 -0.5284
  479SOL     OW 1913   1.434   1.986   1.275  0.4188  0.2269  0.3594
  479SOL    HW1 1914   1.404   2.025   1.360 -2.7870  1.3263 -0.5928
  479SOL    HW2 1915   1.519   1.939   1.304 -0.8051 -1.3646 -1.1990
  479SOL     MW 1916   1.441   1.985   1.290 -0.1656  0.1619  0.0281
  480SOL     OW 1917   1.879   2.359   1.334 -0.0630  0.6570 -0.2082
  480SOL    HW1 1918   1.851   2.284   1.382  1.9582  0.8339 -1.3109
  480SOL    HW2 1919   1.943   2.329   1.268 -0.5852 -0.9337 -2.1194
  480SOL     MW 1920   1.884   2.345   1.332  0.1348  0.4705 -0.6058
  481SOL     OW 1921   1.004   0.027   1.057 -0.7774  0.7272 -0.8480
  481SOL    HW1 1922   1.022  -0.031   0.986  0.3768  1.6592 -0.4431
  481SOL    HW2 1923   1.067   0.097   1.062  0.4551  2.3139 -0.4764
  481SOL     MW 1924   1.015   0.029   1.048 -0.4625  1.0596 -0.7455
  482SOL     OW 1925   1.007   3.016   0.304  0.5937 -0.1015 -0.6327
  482SOL    HW1 1926   0.929   2.976   0.347  1.9255  0.5034 -0.1033
  482SOL    HW2 1927   0.974   3.076   0.240  2.8105  1.3438  0.8773
  482SOL     MW 1928   0.992   3.019   0.302  1.0619  0.1690 -0.3636
  483SOL     OW 1929   0.414   2.911   0.449  0.2840  0.0455  0.5566
  483SOL    HW1 1930   0.330   2.918   0.407 -1.3496  0.3855  1.9093
  483SOL    HW2 1931   0.402   2.957   0.531  0.5567  0.0655  0.0783
  483SOL     MW 1932   0.402   2.918   0.454  0.1045  0.0930  0.6720
  484SOL     OW 1933   1.674   1.878   1.376 -0.2718 -0.2998 -0.1373
  484SOL    HW1 1934   1.747   1.942   1.362 -0.5750 -0.9370 -1.5412
  484SOL    HW2 1935   1.641   1.898   1.464 -0.1723  1.8831  0.1599
  484SOL     MW 1936   1.680   1.889   1.386 -0.2987 -0.0959 -0.2833
  485SOL     OW 1937   0.543   2.428   0.227 -0.3096 -0.6370 -0.5040
  485SOL    HW1 1938   0.580   2.416   0.316  1.0538 -0.5422  3.1576
  485SOL    HW2 1939   0.452   2.461   0.224  1.4805 -1.2735 -0.7640
  485SOL     MW 1940   0.535   2.430   0.238  0.1064 -0.7085 -0.0552
  486SOL     OW 1941   0.121   2.376   1.484  0.2192 -0.0252  0.1766
  486SOL    HW1 1942   0.128   2.455   1.428  0.2420 -0.7891  1.7570
  486SOL    HW2 1943   0.114   2.418   1.569 -0.9891 -0.9078  1.6974
  486SOL     MW 1944   0.121   2.392   1.488  0.0628 -0.2425  0.5858
  487SOL     OW 1945   1.276   1.637   1.026 -0.2458  0.4427  0.0173
  487SOL    HW1 1946   1.272   1.731   1.050  3.2594 -0.1991  1.1894
  487SOL    HW2 1947   1.350   1.622   0.978  0.0632  0.2166  2.6422
  487SOL     MW 1948   1.285   1.648   1.023  0.2574  0.3282  0.5183
  488SOL     OW 1949   1.673   1.867   0.553 -0.5188 -0.0049 -0.2198
  488SOL    HW1 1950   1.757   1.918   0.561  0.6697  0.4457 -0.9123
  488SOL    HW2 1951   1.603   1.928   0.576  1.2229  2.3962 -3.3373
  488SOL     MW 1952   1.675   1.882   0.557 -0.1322  0.3713 -0.7225
  489SOL     OW 1953   0.666   0.764   0.556 -0.3014 -0.0683  0.5168
  489SOL    HW1 1954   0.717   0.687   0.537 -0.7388  0.7575  1.0948
  489SOL    HW2 1955   0.659   0.760   0.647 -2.6307 -0.7599 -0.3286
  489SOL     MW 1956   0.672   0.753   0.566 -0.6665 -0.0506  0.4815
  490SOL     OW 1957   1.453   2.018   0.422  0.0532  0.1880  0.1538
  490SOL    HW1 1958   1.491   1.988   0.335  1.6245 -1.3727 -2.5109
  490SOL    HW2 1959   1.404   2.099   0.399  0.8177  2.0133 -0.6253
  490SOL     MW 1960   1.452   2.025   0.408  0.3614  0.2229 -0.3006
  491SOL     OW 1961   1.201   2.931   0.472  0.2090 -0.2570 -0.1384
  491SOL    HW1 1962   1.170   2.995   0.538  1.1128  1.7044  0.1551
  491SOL    HW2 1963   1.145   2.948   0.397 -1.2511  0.1197  2.0426
  491SOL     MW 1964   1.190   2.942   0.471  0.1356  0.0515  0.1881
  492SOL     OW 1965   1.503   2.067   0.702  0.1959  0.5224  0.6879
  492SOL    HW1 1966   1.437   2.079   0.633 -1.7620 -1.6816 -0.5218
  492SOL    HW2 1967   1.458   2.030   0.775  1.1105 -1.0961  2.6473
  492SOL     MW 1968   1.488   2.063   0.702  0.0583  0.0181  0.7868
  493SOL     OW 1969   0.174   2.963   0.336  0.6528  0.4354 -0.5362
  493SOL    HW1 1970   0.127   3.015   0.407 -1.5726  0.3126 -0.5326
  493SOL    HW2 1971   0.199   3.016   0.257  0.9919  1.7822 -1.7159
  493SOL     MW 1972   0.171   2.977   0.335  0.4039  0.5969 -0.6913
  494SOL     OW 1973   0.425   2.461   1.775  0.6165  0.2919  0.8136
  494SOL    HW1 1974   0.392   2.372   1.797 -1.5139  1.0203 -0.3056
  494SOL    HW2 1975   0.449   2.453   1.683  2.3752  1.3900 -1.6114
  494SOL     MW 1976   0.424   2.449   1.766  0.5674  0.5329  0.3460
  495SOL     OW 1977   2.930   1.690   2.615  0.1851 -0.0451 -0.2075
  495SOL    HW1 1978   2.921   1.781   2.594  0.4950 -0.0888  1.2347
  495SOL    HW2 1979   2.916   1.695   2.709  3.1138 -2.2774 -0.7619
  495SOL     MW 1980   2.927   1.703   2.625  0.6124 -0.3454 -0.0904
  496SOL     OW 1981   2.878   2.323   2.679  0.2212  0.4472  0.2018
  496SOL    HW1 1982   2.919   2.242   2.692 -0.5766 -0.7413  2.0968
  496SOL    HW2 1983   2.965   2.379   2.659  0.8350 -1.0497  0.3250
  496SOL     MW 1984   2.895   2.320   2.678  0.1969  0.0929  0.4680
  497SOL     OW 1985   1.592   2.268   2.646  0.0509 -0.3531  0.2300
  497SOL    HW1 1986   1.561   2.209   2.580 -1.3772  0.7363  0.1406
  497SOL    HW2 1987   1.582   2.212   2.723 -2.4940  0.3992 -0.0667
  497SOL     MW 1988   1.587   2.253   2.647 -0.4733 -0.1101  0.1791
  498SOL     OW 1989   1.523   2.730   2.376 -0.0595  0.6067  0.0094
  498SOL    HW1 1990   1.523   2.631   2.364 -1.3069 -2.7279 -1.5387
  498SOL    HW2 1991   1.598   2.739   2.431 -2.8457 -0.0357  0.8825
  498SOL     MW 1992   1.533   2.719   2.382 -0.5917  0.0820 -0.0797
  499SOL     OW 1993   0.912   0.082   0.043  0.2191  0.3632 -0.2892
  499SOL    HW1 1994   0.838   0.085   0.100  0.8449  0.4513  0.5395
  499SOL    HW2 1995   0.933  -0.015   0.015 -1.3745 -1.9867  1.2262
  499SOL     MW 1996   0.905   0.070   0.047  0.0914  0.0648  0.0201
  500SOL     OW 1997   1.118   2.513   2.748  0.6420  0.2214  0.8411
  500SOL    HW1 1998   1.154   2.452   2.817  0.1915 -1.9103  0.1747
  500SOL    HW2 1999   1.044   2.555   2.797 -1.7967 -0.6002  1.6145
  500SOL     MW 2000   1.113   2.510   2.764  0.2608 -0.1682  0.8552
  501SOL     OW 2001   1.741   2.243   3.071  0.6774  0.0568 -0.1718
  501SOL    HW1 2002   1.718   2.322   3.111 -0.2705 -4.5314 -0.5732
  501SOL    HW2 2003   1.838   2.235   3.089  2.2942 -2.7953 -2.9758
  501SOL     MW 2004   1.751   2.252   3.078  0.7656 -0.9248 -0.5947
  502SOL     OW 2005   0.056   2.805   2.951  0.4270  0.1399 -0.3455
  502SOL    HW1 2006  -0.022   2.767   2.902  1.3806  1.6180  2.7235
  502SOL    HW2 2007   0.095   2.871   2.890 -2.8884  0.5593  1.7614
  502SOL     MW 2008   0.051   2.808   2.936  0.1154  0.3903  0.3374
  503SOL     OW 2009   1.101   2.668   2.025 -0.2470  0.1940  0.8996
  503SOL    HW1 2010   1.182   2.669   1.974 -2.0110  2.1243  2.4050
  503SOL    HW2 2011   1.035   2.653   1.955  1.4332 -0.3279  1.1795
  503SOL     MW 2012   1.103   2.666   2.009 -0.2581  0.3798  1.1351
  504SOL     OW 2013   0.011   2.694   2.080 -0.6047  0.0536  0.1307
  504SOL    HW1 2014   0.050   2.608   2.061  2.3899  2.5303 -1.2000
  504SOL    HW2 2015  -0.081   2.678   2.099 -2.3628  0.2421  0.0963
  504SOL     MW 2016   0.004   2.680   2.080 -0.4416  0.4052 -0.0494
  505SOL     OW 2017   1.656   2.628   2.806  0.4135 -0.2497  0.6181
  505SOL    HW1 2018   1.701   2.639   2.722 -0.2160 -0.3728  2.1787
  505SOL    HW2 2019   1.602   2.706   2.812  0.3462 -0.7826 -0.4022
  505SOL     MW 2020   1.655   2.640   2.796  0.3215 -0.3363  0.6894
  506SOL     OW 2021   1.604   3.082   2.858 -0.1173  0.1080 -0.0502
  506SOL    HW1 2022   1.637   3.101   2.945 -1.4161 -0.3275  0.0766
  506SOL    HW2 2023   1.681   3.076   2.800 -2.4940  0.5927  2.0672
  506SOL     MW 2024   1.619   3.084   2.862 -0.6022  0.1145  0.2459
  507SOL     OW 2025   0.919   2.660   2.852 -0.6166  0.1865 -0.2683
  507SOL    HW1 2026   0.948   2.719   2.783  0.0415  0.2873  0.7271
  507SOL    HW2 2027   0.826   2.684   2.849 -1.3031 -1.5339  2.0143
  507SOL     MW 2028   0.910   2.671   2.843 -0.6204 -0.0272  0.1642
  508SOL     OW 2029   1.178   2.117   2.504 -0.3078 -0.5079  0.0188
  508SOL    HW1 2030   1.239   2.093   2.576 -2.0173  1.1557 -0.5790
  508SOL    HW2 2031   1.121   2.184   2.546 -2.8763  3.9359  0.1129
  508SOL     MW 2032   1.179   2.123   2.519 -0.8722  0.2979 -0.0476
  509SOL     OW 2033   0.612   2.606   2.762  0.1147  0.0074 -0.3608
  509SOL    HW1 2034   0.645   2.563   2.681  1.0055 -1.5557  0.3177
  509SOL    HW2 2035   0.541   2.554   2.793  0.5009  0.2345  0.9291
  509SOL     MW 2036   0.607   2.594   2.755  0.2832 -0.1689 -0.1011
  510SOL     OW 2037   1.492   2.601   1.676  0.1998  0.1501  0.0513
  510SOL    HW1 2038   1.558   2.665   1.679 -3.5112 -2.5132  0.1523
  510SOL    HW2 2039   1.437   2.616   1.755  0.2759 -0.0299  1.9727
  510SOL     MW 2040   1.493   2.611   1.687 -0.2798 -0.2251  0.3181
  511SOL     OW 2041   0.434   2.632   2.429 -0.3182 -0.1599  0.1609
  511SOL    HW1 2042   0.519   2.565   2.427  1.3585 -1.9142 -0.2384
  511SOL    HW2 2043   0.431   2.684   2.348  2.6600  0.3958  2.2098
  511SOL     MW 2044   0.445   2.630   2.418  0.2960 -0.3180  0.3785
  512SOL     OW 2045   0.976   2.023   2.809  0.3275  0.3931  0.5260
  512SOL    HW1 2046   0.890   2.051   2.851 -2.1857 -0.8447 -0.0302
  512SOL    HW2 2047   1.014   1.946   2.855  0.1691  1.8219 -1.0463
  512SOL     MW 2048   0.970   2.016   2.821 -0.0250  0.4183  0.2452
  513SOL     OW 2049   1.617   2.493   2.266 -0.6863 -0.0185 -0.0346
  513SOL    HW1 2050   1.691   2.514   2.209 -2.8166 -0.6407 -2.5880
  513SOL    HW2 2051   1.653   2.479   2.353 -0.0156 -1.6795 -1.1720
  513SOL     MW 2052   1.632   2.494   2.270 -0.8789 -0.3197 -0.5216
  514SOL     OW 2053   0.230   2.498   2.628 -0.1944  0.4174  0.3561
  514SOL    HW1 2054   0.281   2.538   2.548 -4.2643  0.6135 -1.6446
  514SOL    HW2 2055   0.291   2.494   2.699  0.2862  0.3581 -0.0275
  514SOL     MW 2056   0.245   2.503   2.627 -0.6680  0.4354  0.0415
  515SOL     OW 2057   1.163   2.006   2.034 -0.3830 -0.1103  0.8270
  515SOL    HW1 2058   1.144   2.080   1.980 -1.0894  1.3493 -0.5386
  515SOL    HW2 2059   1.256   2.013   2.062 -0.1141 -0.0254 -0.9088
  515SOL     MW 2060   1.172   2.016   2.031 -0.4408  0.0935  0.4178
  516SOL     OW 2061   1.464   2.479   0.017  0.4041  0.1658 -0.3427
  516SOL    HW1 2062   1.475   2.419  -0.061  0.1069 -0.5017  1.9149
  516SOL    HW2 2063   1.418   2.556  -0.013 -1.5583 -1.4555  0.3754
  516SOL     MW 2064   1.459   2.481   0.003  0.1060 -0.1362  0.0499
  517SOL     OW 2065   0.563   2.438   2.179  0.0210 -0.2345 -0.9929
  517SOL    HW1 2066   0.514   2.507   2.138 -0.8329 -1.6981 -0.6472
  517SOL    HW2 2067   0.501   2.357   2.156 -0.0084 -4.2103  1.2554
  517SOL     MW 2068   0.548   2.436   2.171 -0.0955 -0.9522 -0.6506
  518SOL     OW 2069   1.792   0.197   3.077 -0.8866  0.1770 -0.1864
  518SOL    HW1 2070   1.751   0.227   3.157 -0.4251  1.6935  1.6221
  518SOL    HW2 2071   1.799   0.099   3.092  0.8312 -0.9228 -0.9816
  518SOL     MW 2072   1.788   0.188   3.090 -0.5991  0.2320 -0.0527
  519SOL     OW 2073   0.719   2.405   1.756 -0.2159 -0.1993  0.2921
  519SOL    HW1 2074   0.747   2.317   1.789 -0.8900 -1.0480 -1.0032
  519SOL    HW2 2075   0.625   2.401   1.753 -0.8528 -1.8242  0.9730
  519SOL     MW 2076   0.710   2.393   1.760 -0.3889 -0.5257  0.2110
  520SOL     OW 2077   1.163   2.125   2.989  0.1203 -0.3670  0.0727
  520SOL    HW1 2078   1.091   2.095   2.930  1.6646  1.0096 -3.1668
  520SOL    HW2 2079   1.177   2.062   3.065 -0.7653 -2.6664  1.0504
  520SOL     MW 2080   1.156   2.113   2.991  0.2072 -0.4887 -0.2257
  521SOL     OW 2081   1.723   2.006   2.161 -0.4031  0.7863 -0.1686
  521SOL    HW1 2082   1.805   2.037   2.119  3.0030 -0.6898  0.9567
  521SOL    HW2 2083   1.680   1.952   2.092 -0.5858 -0.8198  0.3143
  521SOL     MW 2084   1.728   2.003   2.146  0.0222  0.3796  0.0436
  522SOL     OW 2085   2.895   2.520   2.250 -0.8288  0.3027 -0.7729
  522SOL    HW1 2086   2.968   2.452   2.255  4.1066 -0.4580  0.3416
  522SOL    HW2 2087   2.938   2.596   2.285 -3.5422 -1.8803  0.1171
  522SOL     MW 2088   2.910   2.521   2.255 -0.5356 -0.0857 -0.5084
  523SOL     OW 2089   0.947   1.589   2.160  0.0203 -0.1503  0.5511
  523SOL    HW1 2090   0.879   1.609   2.094 -0.2112 -0.2595 -1.6597
  523SOL    HW2 2091   0.979   1.505   2.137  0.0715  0.8761  3.3128
  523SOL     MW 2092   0.942   1.581   2.148 -0.0035 -0.0293  0.6238
  524SOL     OW 2093   0.670   2.431   2.950  0.8796  0.2618 -0.3238
  524SOL    HW1 2094   0.707   2.488   2.879  0.0295 -2.8827  1.7928
  524SOL    HW2 2095   0.720   2.348   2.959 -0.1875  3.0812 -0.2708
  524SOL     MW 2096   0.681   2.428   2.942  0.6267  0.2189 -0.0376
  525SOL     OW 2097   0.389   2.260   2.051 -0.7977 -0.0387  0.3810
  525SOL    HW1 2098   0.354   2.194   2.119 -1.6982 -2.3849  2.0746
  525SOL    HW2 2099   0.380   2.209   1.961 -1.3556 -2.3300 -0.0185
  525SOL     MW 2100   0.383   2.244   2.048 -0.9901 -0.6505  0.5517
  526SOL     OW 2101   0.697   1.986   1.967  0.0622  0.5375 -0.1236
  526SOL    HW1 2102   0.753   2.005   1.897  1.2608 -0.7326  0.0281
  526SOL    HW2 2103   0.687   2.072   2.013 -1.9185  1.1549 -2.4275
  526SOL     MW 2104   0.703   2.000   1.964 -0.0410  0.4514 -0.4075
  527SOL     OW 2105   1.429   2.020   2.076  0.7872 -0.1096  0.0984
  527SOL    HW1 2106   1.412   1.964   2.148 -0.3272  1.8548 -0.0498
  527SOL    HW2 2107   1.429   1.944   2.011  0.1054 -1.0263 -0.4501
  527SOL     MW 2108   1.427   2.002   2.077  0.5502  0.0287  0.0065
  528SOL     OW 2109   0.719   2.860   2.858 -0.0878  0.2407  0.1795
  528SOL    HW1 2110   0.702   2.952   2.879 -1.4165 -0.4544 -0.4108
  528SOL    HW2 2111   0.669   2.843   2.776  1.1434 -0.6265  0.2712
  528SOL     MW 2112   0.710   2.870   2.850 -0.1007  0.0346  0.1137
  529SOL     OW 2113   1.088   2.245   1.895  0.1404  0.2338 -0.4156
  529SOL    HW1 2114   1.034   2.277   1.971  0.0729  3.3938 -1.5410
  529SOL    HW2 2115   1.108   2.322   1.848 -1.7375 -3.9987 -0.7927
  529SOL     MW 2116   1.084   2.259   1.899 -0.1163  0.0923 -0.6138
  530SOL     OW 2117   1.146   2.393   2.985 -0.0265  0.3778 -0.6937
  530SOL    HW1 2118   1.060   2.399   3.026 -0.2200 -2.4202 -3.0326
  530SOL    HW2 2119   1.166   2.301   3.005  0.7999  0.9244  1.4131
  530SOL     MW 2120   1.137   2.382   2.993  0.0570  0.0808 -0.7243
  531SOL     OW 2121   0.910   1.874   2.580 -0.5744 -0.3611 -0.1800
  531SOL    HW1 2122   0.918   1.945   2.649 -1.0427  1.4968  1.2584
  531SOL    HW2 2123   0.893   1.798   2.636  1.4028  0.7811  0.0218
  531SOL     MW 2124   0.909   1.874   2.597 -0.3753  0.0348  0.0364
  532SOL     OW 2125   1.753   0.330   2.828  0.2916 -0.2609  0.3446
  532SOL    HW1 2126   1.752   0.263   2.898 -1.4054  1.2271  1.3518
  532SOL    HW2 2127   1.824   0.387   2.850 -2.5592 -1.3222 -1.4248
  532SOL     MW 2128   1.762   0.329   2.840 -0.3084 -0.2046  0.2440
  533SOL     OW 2129   1.900   2.654   3.005  0.8706 -0.1731 -0.3263
  533SOL    HW1 2130   1.887   2.610   3.088  0.1556 -0.1684  1.3197
  533SOL    HW2 2131   1.820   2.662   2.963  4.5884  1.5338  1.9002
  533SOL     MW 2132   1.888   2.649   3.010  1.2668  0.0527  0.1847
  534SOL     OW 2133   1.776   2.401   2.472  0.0456  0.3060  0.0626
  534SOL    HW1 2134   1.708   2.345   2.517 -0.9801 -0.2885  0.3528
  534SOL    HW2 2135   1.857   2.407   2.522 -2.4669  0.2684  2.4200
  534SOL     MW 2136   1.778   2.395   2.485 -0.4212  0.2226  0.4119
  535SOL     OW 2137   1.885   2.363   1.834  0.6737 -0.2874  0.2225
  535SOL    HW1 2138   1.820   2.405   1.777  1.0564 -0.4059  0.7883
  535SOL    HW2 2139   1.965   2.418   1.829 -1.0891  0.2297 -2.6484
  535SOL     MW 2140   1.887   2.376   1.826  0.4917 -0.2348 -0.0816
  536SOL     OW 2141   0.441   1.852   2.051  0.0936 -0.6483 -0.0506
  536SOL    HW1 2142   0.407   1.780   2.000 -1.5906  0.8467 -0.4510
  536SOL    HW2 2143   0.523   1.885   2.011 -2.3608 -0.6896  0.4555
  536SOL     MW 2144   0.448   1.847   2.039 -0.4525 -0.4565 -0.0367
  537SOL     OW 2145   1.020   0.190   2.851  0.1056  0.1713  0.0139
  537SOL    HW1 2146   0.980   0.164   2.932  1.2984  1.8827 -1.2482
  537SOL    HW2 2147   1.037   0.283   2.859  1.5586  2.7927 -1.1620
  537SOL     MW 2148   1.017   0.199   2.863  0.4547  0.7430 -0.3078
  538SOL     OW 2149   1.358   0.039   2.991  0.1879  0.3975  0.1077
  538SOL    HW1 2150   1.314   0.112   2.946 -0.4540  0.5645  2.4247
  538SOL    HW2 2151   1.431   0.009   2.935 -0.0236  1.0758  0.2538
  538SOL     MW 2152   1.362   0.044   2.978  0.0753  0.5090  0.4327
  539SOL     OW 2153   0.748   2.766   2.528  0.0245  0.0647 -0.4797
  539SOL    HW1 2154   0.834   2.789   2.570 -1.8675  1.6349 -0.4506
  539SOL    HW2 2155   0.729   2.673   2.555 -1.2686 -0.3955  1.5110
  539SOL     MW 2156   0.757   2.757   2.537 -0.3958  0.2112 -0.2132
  540SOL     OW 2157   0.411   2.414   2.836  0.0966 -0.1273  0.6295
  540SOL    HW1 2158   0.495   2.392   2.876  0.2584  1.5093  0.0822
  540SOL    HW2 2159   0.345   2.397   2.903 -2.2321  1.8083 -1.2299
  540SOL     MW 2160   0.413   2.409   2.850 -0.1893  0.3440  0.3120
  541SOL     OW 2161   0.197   2.944   2.218 -0.2770 -0.1409 -0.4974
  541SOL    HW1 2162   0.239   2.889   2.147 -1.9265 -1.9965 -0.3419
  541SOL    HW2 2163   0.230   2.905   2.301  1.1378  0.5311  3.0605
  541SOL     MW 2164   0.207   2.931   2.219 -0.3080 -0.2971 -0.0075
  542SOL     OW 2165   1.008   2.290   2.641  0.0137 -0.2200  0.4775
  542SOL    HW1 2166   0.987   2.211   2.699  0.2814 -1.9512  1.1332
  542SOL    HW2 2167   1.067   2.352   2.683 -0.5840  2.9073 -3.3118
  542SOL     MW 2168   1.013   2.288   2.654 -0.0298 -0.0358  0.0640
  543SOL     OW 2169   1.460   2.441   2.834  0.4898 -0.1712  0.4769
  543SOL    HW1 2170   1.459   2.405   2.748 -2.5726  1.5495  1.2553
  543SOL    HW2 2171   1.537   2.507   2.831  0.6581  0.9992  2.1385
  543SOL     MW 2172   1.470   2.445   2.822  0.1079  0.2102  0.7988
  544SOL     OW 2173   0.716   0.217   2.753  0.3966  0.0766  0.5366
  544SOL    HW1 2174   0.614   0.226   2.749 -3.7713  1.5207  0.7981
  544SOL    HW2 2175   0.730   0.161   2.678 -1.9312 -0.7166  0.2981
  544SOL     MW 2176   0.705   0.211   2.742 -0.4604  0.1625  0.5396
  545SOL     OW 2177   1.580   2.197   2.314  0.2611 -0.1077 -0.1859
  545SOL    HW1 2178   1.588   2.288   2.293  3.1344  0.1378  1.1945
  545SOL    HW2 2179   1.647   2.154   2.264  0.3612  0.9342  1.2226
  545SOL     MW 2180   1.590   2.203   2.305  0.6534  0.0621  0.1820
  546SOL     OW 2181   3.016   1.985   0.117  0.1537  0.0516 -0.0877
  546SOL    HW1 2182   2.996   2.048   0.050 -0.1537  1.5929 -0.6407
  546SOL    HW2 2183   3.109   1.962   0.108  2.9764  1.7131  1.0015
  546SOL     MW 2184   3.026   1.990   0.107  0.4855  0.4742 -0.0170
  547SOL     OW 2185   0.279   3.052   0.090 -0.0770  0.1272 -0.7857
  547SOL    HW1 2186   0.339   3.098   0.030 -3.4946  0.0918  1.9119
  547SOL    HW2 2187   0.291   2.963   0.067 -3.9811  2.6656 -0.4937
  547SOL     MW 2188   0.289   3.046   0.079 -1.0430  0.4575 -0.3913
  548SOL     OW 2189   0.291   2.518   0.206  0.4462 -0.1524 -0.2349
  548SOL    HW1 2190   0.296   2.594   0.139 -0.5669 -2.7045 -0.9632
  548SOL    HW2 2191   0.201   2.484   0.195 -0.1887 -2.4335 -1.0144
  548SOL     MW 2192   0.280   2.523   0.195  0.2288 -0.7901 -0.4338
  549SOL     OW 2193   0.856   1.883   2.139 -0.0544  0.6182  0.4059
  549SOL    HW1 2194   0.787   1.930   2.092  2.9520  0.3395  1.1481
  549SOL    HW2 2195   0.812   1.873   2.228  0.3788 -2.7748  1.2444
  549SOL     MW 2196   0.841   1.888   2.144  0.3994  0.1338  0.6144
  550SOL     OW 2197   1.782   1.732   2.603 -0.0979  0.9050  0.1390
  550SOL    HW1 2198   1.802   1.740   2.504  0.8104 -1.0818 -0.7454
  550SOL    HW2 2199   1.773   1.824   2.625  0.1691  0.4370 -0.5995
  550SOL     MW 2200   1.783   1.745   2.593  0.0572  0.5811 -0.0751
  551SOL     OW 2201   0.853   2.259   0.223 -0.6540  0.1579 -0.0897
  551SOL    HW1 2202   0.948   2.252   0.208 -0.6527 -1.9269  0.3532
  551SOL    HW2 2203   0.824   2.186   0.168  0.0528  2.1541 -0.4187
  551SOL     MW 2204   0.862   2.248   0.214 -0.5606  0.1462 -0.0747
  552SOL     OW 2205   1.782   1.692   2.347 -0.5212 -0.0871  0.9161
  552SOL    HW1 2206   1.685   1.710   2.360  0.0296  0.8304 -0.3117
  552SOL    HW2 2207   1.814   1.654   2.260  1.9092 -2.5604 -3.7353
  552SOL     MW 2208   1.774   1.689   2.337 -0.1279 -0.2924  0.1404
  553SOL     OW 2209   1.235   2.318   1.481  0.9792  0.1879  0.0877
  553SOL    HW1 2210   1.296   2.250   1.506 -1.3357  0.5964 -1.2674
  553SOL    HW2 2211   1.292   2.381   1.438  3.1511 -3.1311 -1.2011
  553SOL     MW 2212   1.250   2.318   1.479  0.9603 -0.1961 -0.2611
  554SOL     OW 2213   0.537   2.907   2.637  0.0423 -0.2617  0.0291
  554SOL    HW1 2214   0.518   2.996   2.600 -0.7678  4.0319 -0.0401
  554SOL    HW2 2215   0.599   2.866   2.575 -1.3050  1.1605 -1.8980
  554SOL     MW 2216   0.543   2.913   2.624 -0.2423  0.4924 -0.2343
  555SOL     OW 2217   0.687   2.495   2.523  0.3847  0.5183  0.0084
  555SOL    HW1 2218   0.648   2.404   2.531  1.3901  1.8035 -1.2186
  555SOL    HW2 2219   0.775   2.465   2.480  0.8563 -1.7026 -0.8828
  555SOL     MW 2220   0.694   2.479   2.519  0.5795  0.3948 -0.2711
  556SOL     OW 2221   0.955   1.868   0.140  0.2981  0.3344 -0.0554
  556SOL    HW1 2222   0.983   1.845   0.049 -0.7233 -2.3985 -0.2308
  556SOL    HW2 2223   1.023   1.910   0.190  0.9856  0.5832  0.8317
  556SOL     MW 2224   0.968   1.870   0.135  0.2540  0.0067  0.0385
  557SOL     OW 2225   0.956   2.676   0.508 -0.0292  0.2301  0.3316
  557SOL    HW1 2226   1.008   2.622   0.446 -3.7956  2.4642  0.5392
  557SOL    HW2 2227   0.886   2.727   0.455 -1.4783  2.5221  1.2781
  557SOL     MW 2228   0.954   2.676   0.493 -0.7173  0.8273  0.4838
  558SOL     OW 2229   0.236   2.316   3.024  0.0257  0.4756 -0.3267
  558SOL    HW1 2230   0.203   2.227   3.015 -1.8310  1.6650 -2.0824
  558SOL    HW2 2231   0.188   2.365   3.090 -2.3010  1.7637 -0.5121
  558SOL     MW 2232   0.226   2.310   3.032 -0.5263  0.8025 -0.5828
  559SOL     OW 2233   0.983   2.339   2.118 -0.4612  0.0471  0.0149
  559SOL    HW1 2234   1.071   2.372   2.141 -0.7231 -2.0777 -0.2559
  559SOL    HW2 2235   0.964   2.282   2.197 -1.4806  1.1614 -3.4749
  559SOL     MW 2236   0.992   2.336   2.132 -0.6303 -0.0862 -0.4813
  560SOL     OW 2237   1.999   2.874   0.026 -0.4425  0.0563 -0.1226
  560SOL    HW1 2238   2.072   2.910  -0.030 -0.1831 -0.6837  1.9911
  560SOL    HW2 2239   1.970   2.791  -0.018 -0.7110 -1.5693 -1.4672
  560SOL     MW 2240   2.005   2.868   0.013 -0.4437 -0.2558 -0.0211
  561SOL     OW 2241   0.413   2.208   0.116  0.3095  0.1261 -0.8321
  561SOL    HW1 2242   0.355   2.266   0.058  0.1599  2.2569 -1.8328
  561SOL    HW2 2243   0.483   2.265   0.160  2.9796 -0.9597 -2.6319
  561SOL     MW 2244   0.415   2.223   0.114  0.6421  0.2640 -1.2016
  562SOL     OW 2245   0.682   2.174   2.165 -0.8835  0.1237 -0.0231
  562SOL    HW1 2246   0.666   2.268   2.174 -0.4648 -1.1059 -0.0007
  562SOL    HW2 2247   0.769   2.164   2.208  1.7538  1.2919  1.9131
  562SOL     MW 2248   0.691   2.185   2.172 -0.4803  0.1156  0.2353
  563SOL     OW 2249   1.189   0.305   0.555 -0.2156 -0.1571 -0.0877
  563SOL    HW1 2250   1.111   0.287   0.497  1.1255  0.4220  1.3195
  563SOL    HW2 2251   1.203   0.235   0.616 -2.9212  1.1680  1.2969
  563SOL     MW 2252   1.180   0.294   0.555 -0.3956  0.0942  0.2807
  564SOL     OW 2253   1.081   2.548   2.281  0.3951 -0.3164  0.4993
  564SOL    HW1 2254   1.083   2.613   2.215  1.2847 -3.7722 -0.4123
  564SOL    HW2 2255   1.121   2.587   2.367  0.0959  1.4079  1.2796
  564SOL     MW 2256   1.086   2.561   2.284  0.4730 -0.5448  0.4820
  565SOL     OW 2257   2.838   2.727   2.659  0.1433  0.0050  0.0221
  565SOL    HW1 2258   2.816   2.815   2.636 -2.6057 -1.2606 -0.3484
  565SOL    HW2 2259   2.785   2.683   2.587  1.0167 -2.8334 -0.2972
  565SOL     MW 2260   2.828   2.733   2.646 -0.1041 -0.5365 -0.0689
  566SOL     OW 2261   2.189   1.861   2.315 -0.3584 -0.0300  0.2546
  566SOL    HW1 2262   2.244   1.818   2.251 -1.9471  0.6403 -0.6341
  566SOL    HW2 2263   2.213   1.953   2.330  0.4378 -2.4411 -1.6717
  566SOL     MW 2264   2.199   1.868   2.308 -0.4630 -0.2597 -0.1168
  567SOL     OW 2265   1.198   2.927   2.971 -0.0948  0.1261  0.4108
  567SOL    HW1 2266   1.267   2.992   2.969 -0.9532 -1.3689 -0.7288
  567SOL    HW2 2267   1.263   2.856   2.978 -1.8385  2.0945 -2.5349
  567SOL     MW 2268   1.216   2.926   2.972 -0.4381  0.1885 -0.1282
  568SOL     OW 2269   1.574   2.108   2.885 -0.5952 -0.5609  0.3630
  568SOL    HW1 2270   1.630   2.179   2.926 -3.2179  0.0881  1.0455
  568SOL    HW2 2271   1.652   2.055   2.842  1.7538 -0.3925 -0.6426
  568SOL     MW 2272   1.592   2.111   2.885 -0.6313 -0.4531  0.3203
  569SOL     OW 2273   0.170   2.286   2.455  0.1522 -0.4439 -0.2129
  569SOL    HW1 2274   0.110   2.326   2.396 -0.9992  1.2762  0.7336
  569SOL    HW2 2275   0.174   2.353   2.525 -0.8070 -0.1662 -0.6023
  569SOL     MW 2276   0.162   2.300   2.457 -0.1263 -0.1803 -0.1394
  570SOL     OW 2277   1.449   0.379   0.472  0.5400  0.4265 -0.3289
  570SOL    HW1 2278   1.353   0.365   0.500 -2.4512 -1.8524 -1.3400
  570SOL    HW2 2279   1.502   0.396   0.552 -0.1916  2.6574  0.1318
  570SOL     MW 2280   1.443   0.380   0.487  0.0488  0.4202 -0.4015
  571SOL     OW 2281   1.507   2.460   2.003 -0.0028  0.4181  0.0979
  571SOL    HW1 2282   1.543   2.451   2.090 -2.5983 -2.7043  0.4148
  571SOL    HW2 2283   1.521   2.377   1.956  0.7258 -1.8498 -0.1706
  571SOL     MW 2284   1.514   2.448   2.009 -0.2491 -0.2931  0.1043
  572SOL     OW 2285   1.014   2.620   0.099  1.1886 -0.1764  0.1738
  572SOL    HW1 2286   1.029   2.650   0.011  1.4461  0.5077  0.4600
  572SOL    HW2 2287   0.917   2.594   0.090  0.1904 -4.3295 -3.6532
  572SOL     MW 2288   1.003   2.621   0.086  1.0909 -0.6341 -0.2934
  573SOL     OW 2289   1.132   2.299   0.220 -0.4031 -0.7576 -0.2478
  573SOL    HW1 2290   1.209   2.309   0.164 -0.0476  1.2224 -2.7838
  573SOL    HW2 2291   1.113   2.387   0.264 -2.4829  0.1794  0.2094
  573SOL     MW 2292   1.139   2.312   0.218 -0.6306 -0.3727 -0.5221
  574SOL     OW 2293   1.121   2.545   0.338  0.5298 -0.4695  0.3425
  574SOL    HW1 2294   1.187   2.607   0.357  0.3202 -1.5732  1.9653
  574SOL    HW2 2295   1.080   2.563   0.254 -0.0079 -0.2148  2.9019
  574SOL     MW 2296   1.124   2.555   0.330  0.4312 -0.5816  0.8943
  575SOL     OW 2297   0.032   2.234   1.807 -0.6503 -0.1727 -0.3277
  575SOL    HW1 2298   0.064   2.167   1.742 -0.7684  0.9084 -0.0902
  575SOL    HW2 2299   0.060   2.323   1.785 -2.0443 -1.3343  1.8896
  575SOL     MW 2300   0.040   2.237   1.796 -0.8498 -0.1834 -0.0038
  576SOL     OW 2301   2.772   1.822   2.116 -0.3806 -0.6791 -0.2132
  576SOL    HW1 2302   2.810   1.883   2.055 -1.9339  2.4082  1.6189
  576SOL    HW2 2303   2.699   1.783   2.071  0.7543 -1.1273  1.1304
  576SOL     MW 2304   2.767   1.825   2.102 -0.4358 -0.3309  0.2058
  577SOL     OW 2305   2.030   0.213   0.099  0.0591  0.0862  0.2260
  577SOL    HW1 2306   1.948   0.243   0.050 -1.8091  0.5784 -1.1297
  577SOL    HW2 2307   1.995   0.175   0.179  0.4948 -2.2570 -1.6757
  577SOL     MW 2308   2.015   0.212   0.103 -0.1299 -0.1580 -0.2037
  578SOL     OW 2309   1.937   1.994   2.359  0.5814 -0.0385  0.0569
  578SOL    HW1 2310   1.851   1.968   2.322 -3.8350  2.5738  1.0196
  578SOL    HW2 2311   1.996   1.921   2.346 -0.0007  1.0754  0.6218
  578SOL     MW 2312   1.934   1.981   2.353 -0.0781  0.4531  0.2584
  579SOL     OW 2313   0.904   2.374   2.417  0.5694 -0.2501 -0.0829
  579SOL    HW1 2314   0.936   2.348   2.507  0.7187  0.0781 -1.6408
  579SOL    HW2 2315   0.961   2.445   2.384 -0.1736 -1.6034  0.9004
  579SOL     MW 2316   0.916   2.380   2.425  0.4911 -0.3854 -0.1587
  580SOL     OW 2317   0.933   2.915   3.024 -0.8488 -0.5832 -0.4185
  580SOL    HW1 2318   1.026   2.912   2.999 -0.2449  3.6578  1.3614
  580SOL    HW2 2319   0.877   2.878   2.955  1.7713 -0.5559  0.2152
  580SOL     MW 2320   0.938   2.910   3.012 -0.4234 -0.0200 -0.1001
  581SOL     OW 2321   1.132   2.443   1.700 -0.1321  0.4397  0.7396
  581SOL    HW1 2322   1.193   2.504   1.733 -0.2479 -5.3614  0.7274
  581SOL    HW2 2323   1.169   2.408   1.614 -1.6238 -1.5765 -3.2518
  581SOL     MW 2324   1.145   2.446   1.693 -0.3442 -0.5917  0.2113
  582SOL     OW 2325   0.030   2.819   2.594  0.5400 -0.6494  0.7303
  582SOL    HW1 2326  -0.021   2.885   2.635  0.5312  1.0815 -2.3444
  582SOL    HW2 2327   0.120   2.844   2.592  0.5857 -0.4616 -1.9655
  582SOL     MW 2328   0.035   2.831   2.600  0.5449 -0.3963 -0.0310
  583SOL     OW 2329   1.988   2.411   2.631 -0.5678 -0.5227  0.2554
  583SOL    HW1 2330   2.077   2.423   2.591  0.7416  2.1029 -0.3286
  583SOL    HW2 2331   1.968   2.315   2.644  2.3016  1.1808 -0.7264
  583SOL     MW 2332   1.997   2.400   2.628 -0.0165  0.0485  0.0488
  584SOL     OW 2333   0.176   1.856   2.225 -0.7089  0.3041 -0.3005
  584SOL    HW1 2334   0.239   1.860   2.158 -0.0295  0.7880  0.1586
  584SOL    HW2 2335   0.213   1.924   2.281 -2.3800  1.2988  1.3424
  584SOL     MW 2336   0.189   1.865   2.223 -0.8397  0.4992 -0.0232
  585SOL     OW 2337   1.537   2.677   0.231  0.6619  0.2016 -0.0326
  585SOL    HW1 2338   1.530   2.602   0.169  0.8489 -0.7150 -1.6669
  585SOL    HW2 2339   1.470   2.674   0.300 -0.8970  0.3187  2.5971
  585SOL     MW 2340   1.527   2.667   0.232  0.4809  0.0961  0.0987
  586SOL     OW 2341   1.329   2.846   2.541  0.0736  0.2506 -0.4191
  586SOL    HW1 2342   1.411   2.823   2.485 -1.4119 -0.7495 -3.3479
  586SOL    HW2 2343   1.319   2.938   2.538 -0.6067 -2.3302  1.4049
  586SOL     MW 2344   1.339   2.855   2.533 -0.2121 -0.2219 -0.5648
  587SOL     OW 2345   1.333   1.570   2.165  0.2134  0.1286 -0.2485
  587SOL    HW1 2346   1.320   1.502   2.234 -1.2545  0.1530 -0.7451
  587SOL    HW2 2347   1.333   1.521   2.080  2.1035 -0.3666 -1.9816
  587SOL     MW 2348   1.331   1.555   2.163  0.2691  0.0665 -0.5427
  588SOL     OW 2349   1.339   2.063   2.724 -0.2147  0.3226 -0.1206
  588SOL    HW1 2350   1.412   2.025   2.769 -3.5532  0.2449 -0.2754
  588SOL    HW2 2351   1.316   2.130   2.787  0.9686 -1.6758 -1.9986
  588SOL     MW 2352   1.345   2.067   2.739 -0.4990  0.0487 -0.3888
  589SOL     OW 2353   1.310   2.042   0.092  0.9935 -0.4905 -0.1665
  589SOL    HW1 2354   1.349   2.130   0.118  0.2479  1.2816  0.3042
  589SOL    HW2 2355   1.268   2.007   0.172 -0.1360 -1.7576 -0.4983
  589SOL     MW 2356   1.310   2.049   0.106  0.7461 -0.4239 -0.1482
  590SOL     OW 2357   0.469   2.774   2.209  0.6055 -0.2746 -0.2548
  590SOL    HW1 2358   0.447   2.712   2.142  1.6218 -0.4828  0.8873
  590SOL    HW2 2359   0.560   2.785   2.204 -0.1099 -1.7745 -0.6578
  590SOL     MW 2360   0.478   2.767   2.200  0.6452 -0.4999 -0.1573
  591SOL     OW 2361   2.236   0.640   3.098 -0.2949  0.0625  0.0364
  591SOL    HW1 2362   2.169   0.677   3.044  0.8940 -3.1079 -0.2328
  591SOL    HW2 2363   2.315   0.670   3.073  0.1736 -2.4590 -2.5758
  591SOL     MW 2364   2.237   0.649   3.088 -0.0763 -0.6885 -0.3437
  592SOL     OW 2365   1.786   2.958   0.789 -0.1339  0.0293 -0.3407
  592SOL    HW1 2366   1.796   3.038   0.731 -1.3665 -1.0005  0.8620
  592SOL    HW2 2367   1.873   2.914   0.773 -0.1436 -1.4495 -1.7924
  592SOL     MW 2368   1.799   2.963   0.779 -0.2978 -0.3017 -0.3736
  593SOL     OW 2369   1.939   0.665   0.807 -0.0855 -0.4590 -0.1404
  593SOL    HW1 2370   1.843   0.665   0.776 -0.5531 -0.6023 -1.2150
  593SOL    HW2 2371   1.973   0.576   0.800 -1.2835 -0.5474 -0.1984
  593SOL     MW 2372   1.931   0.653   0.802 -0.3053 -0.4896 -0.2898
  594SOL     OW 2373   2.791   1.163   1.379  0.1163 -0.1772  0.6499
  594SOL    HW1 2374   2.874   1.215   1.416 -2.5760  2.1438  2.3877
  594SOL    HW2 2375   2.823   1.126   1.299 -1.9078  0.7626 -0.5858
  594SOL     MW 2376   2.806   1.165   1.373 -0.5060  0.2530  0.7162
  595SOL     OW 2377   0.434   1.020   0.797  0.8426 -0.0203 -0.5419
  595SOL    HW1 2378   0.463   1.069   0.722 -4.4166  0.9471 -0.0193
  595SOL    HW2 2379   0.436   1.075   0.870 -0.3191 -2.3801 -2.0437
  595SOL     MW 2380   0.438   1.034   0.797 -0.0046 -0.2040 -0.6711
  596SOL     OW 2381   2.463   1.340   0.578  0.7478  0.1734  0.2356
  596SOL    HW1 2382   2.522   1.403   0.537 -0.3920 -0.1193  0.6967
  596SOL    HW2 2383   2.508   1.290   0.649 -2.2235  1.6861  1.5011
  596SOL     MW 2384   2.477   1.342   0.582  0.2054  0.3343  0.4634
  597SOL     OW 2385   2.185   0.685   1.617 -0.0326 -0.8416 -0.0506
  597SOL    HW1 2386   2.211   0.603   1.662  2.0480 -1.6314  0.0228
  597SOL    HW2 2387   2.123   0.651   1.552 -0.4720 -0.2310 -1.1604
  597SOL     MW 2388   2.181   0.670   1.614  0.1839 -0.8652 -0.1874
  598SOL     OW 2389   2.595   1.020   2.804  0.0436  0.1958 -0.9259
  598SOL    HW1 2390   2.607   1.003   2.708  1.2650  0.5571 -1.4304
  598SOL    HW2 2391   2.680   1.074   2.823 -1.2283  1.2788  1.9297
  598SOL     MW 2392   2.608   1.025   2.794  0.0369  0.3864 -0.6157
  599SOL     OW 2393   2.958   0.399   2.081 -0.0276 -0.5043 -0.5467
  599SOL    HW1 2394   3.031   0.400   2.146  0.7566 -1.1118 -0.8079
  599SOL    HW2 2395   2.965   0.490   2.045 -2.7357  0.7560 -3.7761
  599SOL     MW 2396   2.968   0.411   2.085 -0.2815 -0.4182 -1.0072
  600SOL     OW 2397   1.857   1.597   0.833  0.5439 -0.0438  0.4251
  600SOL    HW1 2398   1.906   1.600   0.917 -0.9060 -0.4201  1.0507
  600SOL    HW2 2399   1.784   1.662   0.837 -1.5932  0.2480 -1.5588
  600SOL     MW 2400   1.854   1.606   0.844  0.0707 -0.0549  0.2459
  601SOL     OW 2401   2.507   0.757   0.817  0.4735 -0.5349  0.4941
  601SOL    HW1 2402   2.496   0.800   0.910 -0.3950 -0.8679  2.8985
  601SOL    HW2 2403   2.438   0.692   0.798 -2.5646 -2.0916 -0.3498
  601SOL     MW 2404   2.497   0.754   0.827 -0.0419 -0.7842  0.7000
  602SOL     OW 2405   2.307   1.941   0.786 -0.0430  0.5582 -0.4979
  602SOL    HW1 2406   2.266   1.863   0.749  2.1394 -0.1769 -0.0067
  602SOL    HW2 2407   2.261   2.019   0.757 -0.7121  0.1171 -1.5787
  602SOL     MW 2408   2.296   1.941   0.778  0.1566  0.4030 -0.5757
  603SOL     OW 2409   0.032   1.354   1.832  0.3353  0.1164  0.2524
  603SOL    HW1 2410   0.073   1.434   1.870  0.7713  0.4249 -3.0552
  603SOL    HW2 2411   0.032   1.292   1.902  0.0132 -0.2811 -0.0074
  603SOL     MW 2412   0.037   1.357   1.846  0.3503  0.1047 -0.2183
  604SOL     OW 2413   2.153   1.542   0.494 -0.1600 -0.0012 -0.0086
  604SOL    HW1 2414   2.162   1.445   0.503 -0.0859 -0.7684  1.0006
  604SOL    HW2 2415   2.072   1.574   0.533 -2.3427 -0.8004  1.2549
  604SOL     MW 2416   2.144   1.533   0.500 -0.4382 -0.2079  0.2912
  605SOL     OW 2417   2.561   1.479   0.870 -0.5210  0.1541 -0.8945
  605SOL    HW1 2418   2.546   1.522   0.789  4.7024  0.0910  1.6685
  605SOL    HW2 2419   2.593   1.395   0.842 -0.9145  2.3564  1.3741
  605SOL     MW 2420   2.563   1.473   0.856  0.1162  0.4363 -0.2570
  606SOL     OW 2421   2.567   1.640   2.013 -0.3482  0.0086  0.2692
  606SOL    HW1 2422   2.472   1.654   1.994 -1.4858 -0.9508 -0.7934
  606SOL    HW2 2423   2.611   1.611   1.933  1.5794  0.6753 -0.7843
  606SOL     MW 2424   2.560   1.638   2.000 -0.2440 -0.0300 -0.0100
  607SOL     OW 2425   2.426   1.107   2.997 -0.0482 -0.0486 -0.1835
  607SOL    HW1 2426   2.499   1.070   2.945  0.8468  0.7873  0.4757
  607SOL    HW2 2427   2.446   1.087   3.094 -0.9559 -0.7902 -0.6381
  607SOL     MW 2428   2.438   1.100   3.003 -0.0499 -0.0362 -0.1565
  608SOL     OW 2429   1.852   0.276   0.585 -0.1980 -0.2998 -0.3768
  608SOL    HW1 2430   1.873   0.342   0.518 -2.0972  2.3805  2.6539
  608SOL    HW2 2431   1.826   0.194   0.546  0.4612 -0.1878 -1.0354
  608SOL     MW 2432   1.851   0.274   0.571 -0.3616  0.0686 -0.0638
  609SOL     OW 2433   2.052   1.964   3.011 -0.1445 -0.5672 -0.6183
  609SOL    HW1 2434   1.971   1.915   2.979 -0.2325  1.0535 -0.9309
  609SOL    HW2 2435   2.099   1.925   3.089 -1.0397  0.0795  2.4601
  609SOL     MW 2436   2.048   1.953   3.017 -0.2742 -0.2681 -0.2534
  610SOL     OW 2437   1.749   0.997   1.266 -0.3016  0.2270 -0.1644
  610SOL    HW1 2438   1.786   0.926   1.213  2.1261 -1.2466 -1.5371
  610SOL    HW2 2439   1.652   0.999   1.249  0.5969 -4.3155 -3.5604
  610SOL     MW 2440   1.741   0.988   1.257  0.1373 -0.5667 -0.7936
  611SOL     OW 2441   2.538   1.697   0.689  0.0147 -0.2207 -0.1603
  611SOL    HW1 2442   2.533   1.784   0.727  0.3849  1.5763  1.9324
  611SOL    HW2 2443   2.457   1.682   0.640 -2.3612 -2.2953  2.8137
  611SOL     MW 2444   2.527   1.707   0.688 -0.2499 -0.2574  0.5082
  612SOL     OW 2445   2.858   2.880   0.394  0.7217  0.1854 -0.0734
  612SOL    HW1 2446   2.887   2.907   0.484 -0.0901  0.6110  0.5692
  612SOL    HW2 2447   2.946   2.863   0.350 -0.4641  2.5985 -0.3351
  612SOL     MW 2448   2.873   2.881   0.400  0.4582  0.5599 -0.0231
  613SOL     OW 2449   1.467   1.016   0.889 -0.0548  0.4190  0.3038
  613SOL    HW1 2450   1.487   1.107   0.856 -1.0048  1.4913 -0.8099
  613SOL    HW2 2451   1.499   1.024   0.983  1.3644 -2.3968 -0.1642
  613SOL     MW 2452   1.474   1.029   0.897  0.0071  0.1890  0.0951
  614SOL     OW 2453   1.991   0.579   1.452  0.2476  0.3575 -0.2150
  614SOL    HW1 2454   1.973   0.495   1.507  0.3460 -1.8205  2.8576
  614SOL    HW2 2455   1.953   0.561   1.362 -0.8163 -4.4857  1.0775
  614SOL     MW 2456   1.984   0.565   1.448  0.1202 -0.5689  0.3610
  615SOL     OW 2457   2.360   0.752   0.238 -0.8017  0.1878  0.1907
  615SOL    HW1 2458   2.432   0.695   0.271 -2.8676  0.8021  0.3388
  615SOL    HW2 2459   2.302   0.716   0.166 -2.1855  0.0805  0.2748
  615SOL     MW 2460   2.362   0.740   0.233 -1.2568  0.2547  0.2213
  616SOL     OW 2461   2.508   0.409   1.655 -0.2707 -0.1158 -0.2200
  616SOL    HW1 2462   2.577   0.373   1.607 -0.6091 -0.1676  1.4622
  616SOL    HW2 2463   2.470   0.480   1.602  0.3179  3.3293  0.7350
  616SOL     MW 2464   2.512   0.414   1.642 -0.2377  0.3319  0.1280
  617SOL     OW 2465   2.796   0.622   1.712  0.1758  0.1084 -0.1662
  617SOL    HW1 2466   2.735   0.614   1.791  0.5588  1.5024  2.9311
  617SOL    HW2 2467   2.797   0.543   1.659 -1.4776  1.5822 -0.3488
  617SOL     MW 2468   2.788   0.611   1.716  0.0082  0.4868  0.2183
  618SOL     OW 2469   2.722   0.355   1.917  0.5814  0.0555 -0.0335
  618SOL    HW1 2470   2.684   0.442   1.939  3.3544  3.6166 -1.6387
  618SOL    HW2 2471   2.787   0.339   1.985 -0.8590 -1.2326 -0.6925
  618SOL     MW 2472   2.726   0.365   1.929  0.7572  0.3554 -0.3322
  619SOL     OW 2473   2.659   0.700   0.065  0.6652  0.4111 -0.1402
  619SOL    HW1 2474   2.690   0.783   0.105  0.5890  2.2447 -0.9116
  619SOL    HW2 2475   2.634   0.654   0.142  0.8178  0.1749 -0.1694
  619SOL     MW 2476   2.659   0.705   0.081  0.6753  0.6218 -0.2458
  620SOL     OW 2477   2.207   1.059   0.941  0.0864  0.1277 -0.0926
  620SOL    HW1 2478   2.283   1.055   0.885  0.2683 -0.8308 -1.4917
  620SOL    HW2 2479   2.149   0.999   0.895 -0.3418 -1.7000  0.6893
  620SOL     MW 2480   2.209   1.051   0.928  0.0539 -0.2399 -0.1740
  621SOL     OW 2481   1.556   2.203   1.911  0.2953  0.1593  0.2744
  621SOL    HW1 2482   1.502   2.148   1.970  2.9744  0.9748 -3.6765
  621SOL    HW2 2483   1.639   2.159   1.922 -1.0813 -2.0496  3.6204
  621SOL     MW 2484   1.560   2.190   1.921  0.4672 -0.0246  0.1946
  622SOL     OW 2485   2.614   0.188   0.227 -0.8901 -0.1248  0.4387
  622SOL    HW1 2486   2.703   0.230   0.226 -1.9474  0.5661 -1.7292
  622SOL    HW2 2487   2.627   0.094   0.249 -1.0796 -1.0731 -1.1051
  622SOL     MW 2488   2.627   0.181   0.230 -1.0546 -0.1587 -0.0511
  623SOL     OW 2489   2.398   2.775   0.820  0.1536  0.0609  0.1561
  623SOL    HW1 2490   2.451   2.855   0.815  2.0301 -2.5663  2.5560
  623SOL    HW2 2491   2.363   2.800   0.909 -1.4364  0.4161  1.6917
  623SOL     MW 2492   2.400   2.789   0.831  0.1914 -0.2389  0.6754
  624SOL     OW 2493   2.148   1.689   3.006 -0.1739  0.2402  0.1398
  624SOL    HW1 2494   2.107   1.608   3.016  0.0740  0.7451  1.2126
  624SOL    HW2 2495   2.075   1.743   2.968  1.8453 -2.1544  0.3156
  624SOL     MW 2496   2.133   1.685   3.002  0.1252 -0.0091  0.3045
  625SOL     OW 2497   2.194   1.897   1.033 -0.2860 -0.6942  0.2732
  625SOL    HW1 2498   2.277   1.873   1.074  2.2140 -1.0861 -0.6033
  625SOL    HW2 2499   2.222   1.918   0.941 -0.6667 -3.2513 -0.0898
  625SOL     MW 2500   2.209   1.897   1.026 -0.0064 -1.0833  0.1096
  626SOL     OW 2501   0.300   1.679   2.377 -0.4658  0.3811  0.7296
  626SOL    HW1 2502   0.250   1.632   2.442  2.2741  0.5576 -0.7791
  626SOL    HW2 2503   0.233   1.725   2.328 -0.3937  0.5156  0.2236
  626SOL     MW 2504   0.285   1.679   2.379 -0.0948  0.4221  0.4637
  627SOL     OW 2505   2.444   0.698   2.550 -0.0469 -0.0270  0.1804
  627SOL    HW1 2506   2.462   0.788   2.569  2.1944 -1.7557  1.4971
  627SOL    HW2 2507   2.429   0.689   2.456  2.6988 -1.1826  0.2070
  627SOL     MW 2508   2.445   0.709   2.540  0.6111 -0.4075  0.3576
  628SOL     OW 2509   2.328   1.376   1.299 -1.0624 -1.0021 -0.5040
  628SOL    HW1 2510   2.296   1.305   1.240 -0.0894  2.1760 -1.0499
  628SOL    HW2 2511   2.390   1.428   1.254 -0.0692 -0.3745 -0.2470
  628SOL     MW 2512   2.332   1.373   1.285 -0.8030 -0.5000 -0.5421
  629SOL     OW 2513   1.856   0.538   1.235 -0.0192  0.0800  0.5853
  629SOL    HW1 2514   1.859   0.612   1.179 -1.1318 -1.1000 -1.1672
  629SOL    HW2 2515   1.759   0.516   1.249 -1.5604 -0.4761 -0.9350
  629SOL     MW 2516   1.844   0.545   1.230 -0.3694 -0.1490  0.1535
  630SOL     OW 2517   2.363   1.850   3.081 -0.3645  0.6810  0.3024
  630SOL    HW1 2518   2.343   1.927   3.028 -0.4068  1.2934 -3.8503
  630SOL    HW2 2519   2.283   1.797   3.062  0.5070 -0.5267  0.4300
  630SOL     MW 2520   2.350   1.853   3.071 -0.2551  0.6024 -0.2287
  631SOL     OW 2521   2.056   1.804   1.542  0.1768 -0.9777 -0.0249
  631SOL    HW1 2522   2.062   1.717   1.584  2.4273 -2.1056  1.3012
  631SOL    HW2 2523   2.002   1.793   1.464 -0.5792  2.8272 -2.4233
  631SOL     MW 2524   2.050   1.791   1.537  0.3739 -0.6245 -0.1664
  632SOL     OW 2525   0.209   1.983   1.400  0.0439  0.0083  0.5945
  632SOL    HW1 2526   0.170   1.973   1.492  2.5280 -0.7822  0.8107
  632SOL    HW2 2527   0.264   1.899   1.382  1.5476 -0.5842 -2.7896
  632SOL     MW 2528   0.211   1.971   1.410  0.5700 -0.1741  0.1765
  633SOL     OW 2529   2.561   0.577   0.302  0.5720  0.2940  0.0427
  633SOL    HW1 2530   2.630   0.595   0.365 -1.8509  1.7881 -0.9076
  633SOL    HW2 2531   2.540   0.487   0.314 -1.3606  2.4354  0.7142
  633SOL     MW 2532   2.567   0.567   0.312 -0.0027  0.7737  0.0059
  634SOL     OW 2533   2.674   0.017   0.649 -0.2364 -0.1550  0.2269
  634SOL    HW1 2534   2.724   0.102   0.652  0.6229  0.8884 -2.9870
  634SOL    HW2 2535   2.626   0.022   0.564  0.1340  2.1090  1.0805
  634SOL     MW 2536   2.674   0.029   0.638 -0.0741  0.2814 -0.0845
  635SOL     OW 2537   2.582   0.127   1.842 -0.3733 -0.2668  0.2965
  635SOL    HW1 2538   2.652   0.075   1.793 -3.4569 -0.1181  0.1593
  635SOL    HW2 2539   2.611   0.220   1.855 -3.1593  0.7984  1.3785
  635SOL     MW 2540   2.595   0.132   1.838 -1.1478 -0.1066  0.4211
  636SOL     OW 2541   2.830   1.605   0.930  0.0855  0.0531 -1.0630
  636SOL    HW1 2542   2.747   1.647   0.928  0.2003  0.5714  0.1456
  636SOL    HW2 2543   2.881   1.659   0.986  0.6853 -2.8251  1.6461
  636SOL     MW 2544   2.826   1.618   0.937  0.1798 -0.2583 -0.5461
  637SOL     OW 2545   2.872   1.451   0.702 -0.0605  0.1902 -0.5511
  637SOL    HW1 2546   2.916   1.516   0.646 -2.4288  1.2267 -0.2067
  637SOL    HW2 2547   2.854   1.501   0.779 -0.7902  3.3590 -2.5554
  637SOL     MW 2548   2.876   1.466   0.704 -0.4692  0.7450 -0.7701
  638SOL     OW 2549   2.676   0.526   0.549 -0.2433  0.1046 -0.7681
  638SOL    HW1 2550   2.761   0.508   0.508 -0.3611  0.2508  2.5141
  638SOL    HW2 2551   2.700   0.559   0.636  0.3629 -1.0070  0.4431
  638SOL     MW 2552   2.690   0.528   0.555 -0.1788 -0.0228 -0.1752
  639SOL     OW 2553   1.724   0.038   0.592 -0.1727  0.1598 -0.4870
  639SOL    HW1 2554   1.644   0.074   0.570  0.3150 -0.2935  3.6646
  639SOL    HW2 2555   1.729  -0.048   0.544 -0.2514 -1.2408  0.5688
  639SOL     MW 2556   1.714   0.032   0.583 -0.1187 -0.0848  0.2001
  640SOL     OW 2557   0.286   1.308   0.143 -0.6843 -0.2588  0.1543
  640SOL    HW1 2558   0.325   1.306   0.053  0.1738  1.8918 -1.3834
  640SOL    HW2 2559   0.291   1.214   0.165 -1.2809 -0.2396 -0.7729
  640SOL     MW 2560   0.292   1.296   0.134 -0.6498  0.0275 -0.1709
  641SOL     OW 2561   2.206   0.404   0.430  0.8251 -0.1581 -0.0702
  641SOL    HW1 2562   2.239   0.376   0.346  1.0110  1.0282  3.2307
  641SOL    HW2 2563   2.261   0.357   0.492 -0.1062  2.4387 -0.6041
  641SOL     MW 2564   2.217   0.394   0.427  0.7267  0.3410  0.2949
  642SOL     OW 2565   0.058   3.090   0.551 -0.5375  0.3197 -0.0351
  642SOL    HW1 2566  -0.006   3.151   0.500  1.2182  0.3215 -0.8802
  642SOL    HW2 2567   0.002   3.033   0.605 -1.8094 -1.9877  0.5054
  642SOL     MW 2568   0.042   3.091   0.552 -0.4737  0.0155 -0.0753
  643SOL     OW 2569   1.999   0.376   1.665  0.2609 -0.1775  0.0010
  643SOL    HW1 2570   1.943   0.349   1.738 -1.9803 -0.9913  2.4959
  643SOL    HW2 2571   2.023   0.296   1.615  2.9461 -1.6480  4.1476
  643SOL     MW 2572   1.995   0.362   1.668  0.3195 -0.4789  0.8773
  644SOL     OW 2573   2.731   1.944   1.066 -0.2329 -0.4090 -0.2801
  644SOL    HW1 2574   2.690   1.867   1.112 -4.1255 -0.6993 -2.7023
  644SOL    HW2 2575   2.661   2.005   1.043  0.5698 -0.9712  0.6834
  644SOL     MW 2576   2.716   1.942   1.069 -0.6406 -0.5215 -0.4726
  645SOL     OW 2577   2.807   0.850   0.658  0.2176 -0.0865 -0.1615
  645SOL    HW1 2578   2.879   0.801   0.691 -0.7097 -0.6106  0.0946
  645SOL    HW2 2579   2.742   0.786   0.652  0.6530  1.7501 -0.9927
  645SOL     MW 2580   2.808   0.835   0.662  0.1527  0.0867 -0.2374
  646SOL     OW 2581   0.063   2.267   0.842 -0.2504 -0.2465  0.0224
  646SOL    HW1 2582   0.102   2.182   0.817  1.7452  0.6449 -1.3525
  646SOL    HW2 2583  -0.018   2.262   0.791 -3.6857 -0.0600  2.3423
  646SOL     MW 2584   0.058   2.255   0.832 -0.4404 -0.1043  0.1471
  647SOL     OW 2585   2.716   0.486   2.908  0.3246  0.6708  0.2379
  647SOL    HW1 2586   2.734   0.464   3.002 -1.3321 -0.0027  0.5484
  647SOL    HW2 2587   2.623   0.510   2.908 -0.3705 -3.0741  2.2393
  647SOL     MW 2588   2.706   0.487   2.920  0.0143  0.0878  0.5430
  648SOL     OW 2589   2.154   0.724   1.178  0.5111 -0.4345 -0.0694
  648SOL    HW1 2590   2.187   0.648   1.213 -0.2488  1.7991 -1.3044
  648SOL    HW2 2591   2.166   0.795   1.245  3.4557  0.4651  0.7373
  648SOL     MW 2592   2.160   0.723   1.191  0.7993 -0.0211 -0.1259
  649SOL     OW 2593   2.385   2.668   1.307 -0.1823  0.5221  0.0372
  649SOL    HW1 2594   2.475   2.699   1.303  0.0575  1.8843 -0.6287
  649SOL    HW2 2595   2.389   2.574   1.286 -0.0500 -2.4951  2.7012
  649SOL     MW 2596   2.397   2.660   1.303 -0.1332  0.3038  0.3008
  650SOL     OW 2597   2.853   0.252   0.668 -0.0754 -0.0664  0.5118
  650SOL    HW1 2598   2.902   0.320   0.716  1.5861  0.2824 -1.0850
  650SOL    HW2 2599   2.911   0.223   0.588 -0.7868  0.4050 -0.0147
  650SOL     MW 2600   2.867   0.257   0.664  0.0500  0.0418  0.2317
  651SOL     OW 2601   3.058   0.429   0.983  0.0302  0.2657  0.2785
  651SOL    HW1 2602   3.125   0.472   0.919 -1.7973 -0.0892 -3.2755
  651SOL    HW2 2603   3.009   0.502   1.020  0.3961 -0.0467  0.9975
  651SOL     MW 2604   3.060   0.444   0.979 -0.1626  0.1777 -0.0956
  652SOL     OW 2605   2.437   1.539   3.034  0.5134 -0.2093 -0.0675
  652SOL    HW1 2606   2.489   1.561   2.960 -0.6575  2.4656 -1.8974
  652SOL    HW2 2607   2.381   1.609   3.058 -0.7112  1.7776  0.2884
  652SOL     MW 2608   2.436   1.551   3.027  0.1973  0.4058 -0.2620
  653SOL     OW 2609   1.837   0.463   0.392 -0.0354  0.2946 -0.3454
  653SOL    HW1 2610   1.753   0.432   0.377  1.1640  0.1370  0.5831
  653SOL    HW2 2611   1.893   0.463   0.312 -0.4533 -2.3511 -2.1580
  653SOL     MW 2612   1.833   0.459   0.379  0.0677 -0.0753 -0.4621
  654SOL     OW 2613   2.420   1.023   0.761 -0.1640  0.4640 -0.0617
  654SOL    HW1 2614   2.351   1.022   0.689 -0.4504 -0.9247 -1.1124
  654SOL    HW2 2615   2.447   0.926   0.770  0.5698  0.3851 -0.2276
  654SOL     MW 2616   2.414   1.010   0.753 -0.1050  0.2704 -0.2222
  655SOL     OW 2617   2.929   0.815   0.376 -0.6080  0.8167  0.0947
  655SOL    HW1 2618   2.892   0.849   0.457 -1.2206 -0.3345  0.2688
  655SOL    HW2 2619   2.953   0.724   0.402  1.3597 -1.6193  0.4128
  655SOL     MW 2620   2.927   0.807   0.390 -0.4292  0.3434  0.1596
  656SOL     OW 2621   1.838   2.651   1.350 -0.8800 -0.2657 -0.1830
  656SOL    HW1 2622   1.873   2.742   1.368  1.9452  2.1036 -0.5708
  656SOL    HW2 2623   1.898   2.581   1.387 -1.0944 -2.0989 -0.7075
  656SOL     MW 2624   1.850   2.654   1.357 -0.5355 -0.1950 -0.3034
  657SOL     OW 2625   0.156   1.775   1.168  0.3071  0.3923 -0.5036
  657SOL    HW1 2626   0.229   1.839   1.143  1.8445  1.5115 -1.0570
  657SOL    HW2 2627   0.189   1.682   1.150  0.0337  1.8703 -0.9700
  657SOL     MW 2628   0.170   1.771   1.162  0.4738  0.7350 -0.6382
  658SOL     OW 2629   2.660   1.332   0.258 -0.1118 -0.3476 -0.1329
  658SOL    HW1 2630   2.631   1.254   0.311 -2.1681 -3.0474 -0.0680
  658SOL    HW2 2631   2.687   1.407   0.316 -0.4946  0.9490 -0.8323
  658SOL     MW 2632   2.659   1.331   0.273 -0.4336 -0.5328 -0.2166
  659SOL     OW 2633   2.250   1.517   0.976  0.2552  0.3206 -0.3024
  659SOL    HW1 2634   2.316   1.467   1.020 -0.7916 -2.1455 -1.8673
  659SOL    HW2 2635   2.204   1.574   1.049 -2.3623  1.0501  1.5449
  659SOL     MW 2636   2.253   1.518   0.992 -0.2283  0.0914 -0.2651
  660SOL     OW 2637   2.067   1.547   1.670  0.1776 -0.3669  0.1223
  660SOL    HW1 2638   2.059   1.566   1.768 -1.4621  1.0572  0.2674
  660SOL    HW2 2639   1.990   1.485   1.654  2.5183 -2.6434 -1.1564
  660SOL     MW 2640   2.055   1.541   1.681  0.2701 -0.4794 -0.0273
  661SOL     OW 2641   2.469   1.009   0.194  0.3918 -0.1482 -0.1625
  661SOL    HW1 2642   2.496   1.048   0.281 -1.0087 -0.1054 -1.8236
  661SOL    HW2 2643   2.417   0.930   0.209  2.4387 -0.6898 -0.3629
  661SOL     MW 2644   2.466   1.004   0.207  0.4771 -0.2140 -0.4081
  662SOL     OW 2645   2.554   3.036   0.902 -0.0746  0.7350 -0.0934
  662SOL    HW1 2646   2.506   3.100   0.950  3.2481  0.5181 -1.0497
  662SOL    HW2 2647   2.591   3.070   0.821  0.4491 -0.7345  0.0085
  662SOL     MW 2648   2.552   3.049   0.898  0.4329  0.5125 -0.2061
  663SOL     OW 2649   2.676   1.495   0.478  0.4637  0.3104 -0.5070
  663SOL    HW1 2650   2.680   1.587   0.451 -0.9834 -2.1473 -0.2729
  663SOL    HW2 2651   2.729   1.498   0.561 -0.0474 -2.4526 -0.7863
  663SOL     MW 2652   2.683   1.508   0.485  0.2053 -0.3784 -0.5129
  664SOL     OW 2653   2.545   1.534   1.550  0.5304 -0.0742 -0.2165
  664SOL    HW1 2654   2.519   1.624   1.532 -0.9416 -0.5110 -0.1934
  664SOL    HW2 2655   2.457   1.483   1.546 -0.8048  1.3325  0.0867
  664SOL     MW 2656   2.530   1.539   1.547  0.1600  0.0538 -0.1735
  665SOL     OW 2657   2.834   0.846   2.029 -0.6711 -0.1575  0.1768
  665SOL    HW1 2658   2.823   0.905   1.956  0.4957  1.4800  1.6631
  665SOL    HW2 2659   2.878   0.768   2.000  0.8050  1.0929  1.5162
  665SOL     MW 2660   2.838   0.844   2.016 -0.3224  0.2235  0.5496
  666SOL     OW 2661   2.773   3.078   1.714  0.3016  0.4407 -0.2890
  666SOL    HW1 2662   2.730   3.076   1.629 -2.0382  0.4972  1.1588
  666SOL    HW2 2663   2.743   2.995   1.749 -0.2543  1.0187 -1.6801
  666SOL     MW 2664   2.764   3.067   1.707 -0.0804  0.5245 -0.2815
  667SOL     OW 2665   1.965   2.653   1.802  0.9186 -0.0831 -0.1471
  667SOL    HW1 2666   2.002   2.660   1.889  1.8579 -0.1021 -1.0767
  667SOL    HW2 2667   2.024   2.714   1.753 -0.5402  1.1169 -1.9986
  667SOL     MW 2668   1.977   2.662   1.807  0.8501  0.0727 -0.5140
  668SOL     OW 2669   2.728   0.608   0.808 -0.3396 -0.6240 -0.7106
  668SOL    HW1 2670   2.788   0.625   0.885  2.8252 -0.7738  1.2826
  668SOL    HW2 2671   2.653   0.663   0.836 -3.0257 -1.2888  0.1305
  668SOL     MW 2672   2.726   0.617   0.822 -0.2764 -0.7315 -0.3367
  669SOL     OW 2673   0.158   0.904   0.705 -0.4699 -0.5114 -0.2078
  669SOL    HW1 2674   0.113   0.980   0.740  0.2357  2.0300  2.7995
  669SOL    HW2 2675   0.238   0.920   0.749  1.7016 -2.8124 -0.2770
  669SOL     MW 2676   0.163   0.916   0.716 -0.0903 -0.4797  0.1799
  670SOL     OW 2677   2.853   0.305   0.206  0.0945 -0.1064  0.5077
  670SOL    HW1 2678   2.881   0.255   0.132 -0.1236  0.1494 -2.5509
  670SOL    HW2 2679   2.876   0.392   0.186 -0.9215 -1.7219 -1.6983
  670SOL     MW 2680   2.859   0.310   0.194 -0.0683 -0.2858 -0.1869
  671SOL     OW 2681   2.051   3.064   1.556  0.0715  0.2220  0.6984
  671SOL    HW1 2682   2.021   3.016   1.476 -0.4126  0.5438 -0.3731
  671SOL    HW2 2683   1.968   3.074   1.608 -2.3580  0.1855 -0.9079
  671SOL     MW 2684   2.036   3.059   1.552 -0.3129  0.2596  0.3451
  672SOL     OW 2685   1.896   1.721   1.319  0.2324 -0.4217 -0.2035
  672SOL    HW1 2686   1.810   1.758   1.341  0.2442  0.2696 -0.7876
  672SOL    HW2 2687   1.911   1.740   1.229  0.1526 -1.9854  1.9044
  672SOL     MW 2688   1.886   1.728   1.310  0.2234 -0.5368 -0.0024
  673SOL     OW 2689   2.791   1.107   0.617 -0.0511  0.1905  0.0104
  673SOL    HW1 2690   2.804   1.018   0.659 -0.9957  2.8308  1.8620
  673SOL    HW2 2691   2.873   1.154   0.623  0.0565 -1.1225  0.1392
  673SOL     MW 2692   2.804   1.101   0.623 -0.1615  0.3656  0.2717
  674SOL     OW 2693   2.442   3.054   1.306  0.0444  0.0214 -0.0351
  674SOL    HW1 2694   2.405   3.068   1.218  1.2316  0.5053 -2.8288
  674SOL    HW2 2695   2.483   2.968   1.308  2.0914  0.8559 -3.1080
  674SOL     MW 2696   2.443   3.044   1.295  0.4711  0.1954 -0.8092
  675SOL     OW 2697   3.070   0.869   1.076  0.1490  0.0939 -0.0347
  675SOL    HW1 2698   3.130   0.886   1.146  1.0717 -1.7066  1.5109
  675SOL    HW2 2699   3.108   0.914   1.006 -0.4499 -0.1324  1.0494
  675SOL     MW 2700   3.083   0.877   1.076  0.1918 -0.1735  0.3123
  676SOL     OW 2701   2.941   1.488   1.669  0.2472 -0.0425 -0.4315
  676SOL    HW1 2702   2.918   1.408   1.633  0.8463  2.0388  0.7922
  676SOL    HW2 2703   3.000   1.469   1.739 -0.3461 -0.4799 -0.0375
  676SOL     MW 2704   2.946   1.475   1.674  0.2480  0.1744 -0.2180
  677SOL     OW 2705   2.368   0.589   2.012 -0.0011 -0.1123 -0.4765
  677SOL    HW1 2706   2.341   0.540   1.937  2.7152 -1.1596  0.6686
  677SOL    HW2 2707   2.340   0.675   1.999  1.6106 -0.5739 -1.8261
  677SOL     MW 2708   2.361   0.594   2.000  0.5699 -0.3114 -0.5035
  678SOL     OW 2709   2.521   1.696   0.322 -0.3098 -0.3777  0.6396
  678SOL    HW1 2710   2.437   1.722   0.365  0.2866  1.1067 -1.3892
  678SOL    HW2 2711   2.494   1.627   0.256  0.0710  1.1628 -0.0427
  678SOL     MW 2712   2.506   1.690   0.319 -0.1809  0.0214  0.2819
  679SOL     OW 2713   2.232   0.437   1.289  0.3769  0.5745 -0.0236
  679SOL    HW1 2714   2.206   0.356   1.242  2.1193  0.9641 -2.4185
  679SOL    HW2 2715   2.157   0.449   1.346  0.5605 -1.1172  0.0601
  679SOL     MW 2716   2.219   0.427   1.290  0.6310  0.4027 -0.3285
  680SOL     OW 2717   2.370   0.177   1.468  0.3590  0.1016 -0.1339
  680SOL    HW1 2718   2.279   0.182   1.448 -2.4369 -0.9468  0.5516
  680SOL    HW2 2719   2.398   0.089   1.422 -0.2124  1.7488 -1.4245
  680SOL     MW 2720   2.362   0.166   1.459 -0.0852  0.1806 -0.2138
  681SOL     OW 2721   0.294   0.496   1.514  0.3874  0.1603  0.1418
  681SOL    HW1 2722   0.289   0.454   1.594 -1.6259  0.5156  1.9673
  681SOL    HW2 2723   0.384   0.531   1.500 -0.9064  0.4181 -0.1899
  681SOL     MW 2724   0.305   0.495   1.523 -0.0489  0.2412  0.3389
  682SOL     OW 2725   0.145   2.864   1.508  0.2892 -0.6027  0.3388
  682SOL    HW1 2726   0.201   2.918   1.562 -1.3692  1.0958  1.2893
  682SOL    HW2 2727   0.055   2.899   1.521  0.0143  1.7022 -2.1424
  682SOL     MW 2728   0.141   2.875   1.517  0.0341 -0.0745  0.1368
  683SOL     OW 2729   2.053   0.789   2.981  0.5185  0.0063 -0.1042
  683SOL    HW1 2730   1.961   0.749   2.970 -0.6232 -0.1218  0.1810
  683SOL    HW2 2731   2.032   0.868   3.031  0.8414 -0.8753 -0.2097
  683SOL     MW 2732   2.038   0.794   2.986  0.4104 -0.1269 -0.0805
  684SOL     OW 2733   2.229   1.658   0.719 -0.1043 -0.2682  0.0355
  684SOL    HW1 2734   2.225   1.602   0.644 -0.9750 -1.2035  0.3618
  684SOL    HW2 2735   2.234   1.596   0.792 -0.2359  0.1761 -1.1347
  684SOL     MW 2736   2.229   1.642   0.719 -0.2366 -0.3330 -0.0759
  685SOL     OW 2737   2.610   1.735   1.209  0.3853  0.2734 -0.4008
  685SOL    HW1 2738   2.679   1.715   1.272 -0.9330  0.4955  1.0506
  685SOL    HW2 2739   2.587   1.653   1.173  0.8467  1.5938  1.9294
  685SOL     MW 2740   2.616   1.721   1.212  0.2723  0.4769  0.0982
  686SOL     OW 2741   2.895   0.765   1.504  0.1227 -0.7741 -0.8103
  686SOL    HW1 2742   2.874   0.717   1.583 -3.4054  1.1089  0.8301
  686SOL    HW2 2743   2.985   0.739   1.479  2.7070  1.8868  0.2718
  686SOL     MW 2744   2.904   0.755   1.511 -0.0018 -0.1746 -0.4511
  687SOL     OW 2745   2.153   0.208   1.175 -0.4724  0.6506  0.8784
  687SOL    HW1 2746   2.207   0.150   1.119  3.3269  1.6055  1.2971
  687SOL    HW2 2747   2.075   0.219   1.124 -1.0428 -1.2699  2.8192
  687SOL     MW 2748   2.150   0.202   1.161 -0.0464  0.5232  1.1897
  688SOL     OW 2749   2.406   0.581   1.455 -0.3399 -0.4703  0.4432
  688SOL    HW1 2750   2.342   0.512   1.420 -0.5285 -3.8230  0.8636
  688SOL    HW2 2751   2.350   0.636   1.521 -3.0667  0.7799  2.5317
  688SOL     MW 2752   2.390   0.579   1.459 -0.7246 -0.7477  0.7742
  689SOL     OW 2753   2.470   0.742   2.971  0.1040 -0.4147 -0.4996
  689SOL    HW1 2754   2.451   0.830   2.940  1.5631 -1.2203  2.1462
  689SOL    HW2 2755   2.529   0.745   3.049  1.0828 -0.1712 -0.0895
  689SOL     MW 2756   2.475   0.754   2.977  0.4257 -0.4889 -0.0964
  690SOL     OW 2757   1.996   0.855   1.854 -0.3449 -0.2901  0.0964
  690SOL    HW1 2758   1.981   0.764   1.879 -1.0192 -0.7774  0.6650
  690SOL    HW2 2759   2.020   0.875   1.765 -0.2874 -0.8455  1.8978
  690SOL     MW 2760   1.997   0.846   1.846 -0.4263 -0.4276  0.4091
  691SOL     OW 2761   2.407   0.313   0.893 -0.1851 -0.8668 -0.5178
  691SOL    HW1 2762   2.467   0.365   0.944  2.8961  0.0183  0.5689
  691SOL    HW2 2763   2.319   0.345   0.914  0.0095 -1.8265  2.6521
  691SOL     MW 2764   2.403   0.324   0.902  0.2471 -0.8766  0.0438
  692SOL     OW 2765   2.839   1.699   1.416  0.1773 -0.4691  0.7114
  692SOL    HW1 2766   2.815   1.626   1.477  0.2465 -0.6848  0.1887
  692SOL    HW2 2767   2.866   1.780   1.470 -1.2973  0.1206 -0.0846
  692SOL     MW 2768   2.839   1.700   1.431 -0.0082 -0.4198  0.5374
  693SOL     OW 2769   2.256   0.398   0.140 -0.0124 -0.1369 -0.1455
  693SOL    HW1 2770   2.177   0.357   0.120 -0.6650 -0.0852  0.0815
  693SOL    HW2 2771   2.257   0.482   0.087  0.5203  1.3481  0.1168
  693SOL     MW 2772   2.246   0.404   0.130 -0.0282  0.0658 -0.0809
  694SOL     OW 2773   1.943   1.208   1.199 -0.2721  0.3555  0.4360
  694SOL    HW1 2774   2.036   1.193   1.179  0.3521 -2.0291 -1.5261
  694SOL    HW2 2775   1.915   1.119   1.216 -0.2374  0.4693 -0.9331
  694SOL     MW 2776   1.952   1.194   1.198 -0.1852  0.0559 -0.0035
  695SOL     OW 2777   3.040   1.544   1.284  0.5854 -0.0174  0.1480
  695SOL    HW1 2778   2.996   1.497   1.207  1.4917  0.4601 -0.8966
  695SOL    HW2 2779   2.981   1.608   1.319  1.1677  1.3737 -0.3535
  695SOL     MW 2780   3.027   1.546   1.279  0.7818  0.2291 -0.0560
  696SOL     OW 2781   2.113   1.361   0.830 -0.7619  0.2895  0.4944
  696SOL    HW1 2782   2.164   1.419   0.890 -2.1055 -0.9876 -2.9419
  696SOL    HW2 2783   2.093   1.289   0.890 -0.6347  1.6806 -1.7022
  696SOL     MW 2784   2.117   1.360   0.846 -0.9224  0.3045 -0.2488
  697SOL     OW 2785   2.908   1.060   2.219 -0.0432  0.1048 -0.6463
  697SOL    HW1 2786   2.844   1.128   2.221  1.9840 -0.8616 -0.1153
  697SOL    HW2 2787   2.870   1.001   2.157 -1.4136  0.1776  0.0121
  697SOL     MW 2788   2.895   1.061   2.211  0.0434 -0.0131 -0.4894
  698SOL     OW 2789   2.538   0.343   0.010 -0.8108 -0.0410  0.4143
  698SOL    HW1 2790   2.452   0.380   0.040 -1.6047  2.8412 -1.9463
  698SOL    HW2 2791   2.558   0.274   0.074  1.2107 -1.2184 -1.3534
  698SOL     MW 2792   2.529   0.339   0.022 -0.6488  0.1840 -0.1304
  699SOL     OW 2793   1.811   1.567   2.071  0.4234 -0.0066 -0.1329
  699SOL    HW1 2794   1.767   1.485   2.051  2.0537 -1.4583 -1.9690
  699SOL    HW2 2795   1.901   1.570   2.047 -0.6384 -2.9849  1.9129
  699SOL     MW 2796   1.817   1.557   2.065  0.4984 -0.5911 -0.1052
  700SOL     OW 2797   2.675   0.926   1.471  0.7002 -0.0788  0.1330
  700SOL    HW1 2798   2.714   1.014   1.448 -0.4783  0.0553  1.8079
  700SOL    HW2 2799   2.758   0.873   1.489  0.2243 -1.1713  1.5508
  700SOL     MW 2800   2.691   0.931   1.470  0.4819 -0.2052  0.5411
  701SOL     OW 2801   1.646   1.196   2.494 -0.1423  0.0037  0.5532
  701SOL    HW1 2802   1.739   1.196   2.463 -1.4130 -0.2792  1.1405
  701SOL    HW2 2803   1.647   1.237   2.579 -0.8629  0.3570  1.5048
  701SOL     MW 2804   1.659   1.202   2.501 -0.4051  0.0130  0.7563
  702SOL     OW 2805   2.142   0.413   0.852  0.1227 -0.0489  0.2378
  702SOL    HW1 2806   2.140   0.353   0.778 -2.0535  0.9414  3.2561
  702SOL    HW2 2807   2.202   0.484   0.821  0.8751 -0.3662 -3.4505
  702SOL     MW 2808   2.150   0.414   0.838 -0.0652  0.0399  0.1494
  703SOL     OW 2809   2.722   1.193   1.071 -0.2209 -0.1846  0.0375
  703SOL    HW1 2810   2.693   1.184   0.975  2.0075  1.6714  0.3107
  703SOL    HW2 2811   2.733   1.101   1.107  0.5698 -2.8772  0.3025
  703SOL     MW 2812   2.720   1.180   1.063  0.1774 -0.2950  0.1085
  704SOL     OW 2813   3.051   1.173   0.058  0.6626 -0.0913 -0.1620
  704SOL    HW1 2814   2.957   1.193   0.034 -0.1539 -0.9547 -0.7310
  704SOL    HW2 2815   3.035   1.142   0.152  1.0847  0.6074 -1.2314
  704SOL     MW 2816   3.037   1.171   0.068  0.6106 -0.1131 -0.3782
  705SOL     OW 2817   2.170   1.627   1.232 -0.1485 -0.1170 -0.2739
  705SOL    HW1 2818   2.099   1.655   1.285  0.2947 -0.2961 -4.0097
  705SOL    HW2 2819   2.209   1.543   1.262 -0.9720  0.4012  1.6799
  705SOL     MW 2820   2.166   1.620   1.243 -0.1987 -0.0723 -0.5090
  706SOL     OW 2821   3.032   1.230   0.654 -0.0281 -0.3812  0.5706
  706SOL    HW1 2822   3.068   1.247   0.563  1.6403  1.5677 -0.9180
  706SOL    HW2 2823   3.007   1.317   0.680  1.0628 -2.4645 -1.6710
  706SOL     MW 2824   3.034   1.244   0.646  0.3360 -0.3990  0.0784
  707SOL     OW 2825   2.343   0.065   1.037 -0.4633 -0.3301 -0.5031
  707SOL    HW1 2826   2.383   0.145   1.008  1.4206  1.6438 -0.3972
  707SOL    HW2 2827   2.275   0.039   0.971 -0.9136 -0.9787  0.9841
  707SOL     MW 2828   2.339   0.072   1.024 -0.2741 -0.1552 -0.2929
  708SOL     OW 2829   2.405   1.422   0.193 -0.0872 -0.0477 -0.3759
  708SOL    HW1 2830   2.489   1.411   0.236  0.7188  0.4291  2.1665
  708SOL    HW2 2831   2.417   1.439   0.100 -0.3357 -1.6056  1.2845
  708SOL     MW 2832   2.418   1.423   0.186 -0.0136 -0.1903  0.1787
  709SOL     OW 2833   1.775   1.634   0.205 -0.1849 -0.0219 -0.0885
  709SOL    HW1 2834   1.764   1.663   0.116 -0.7692  1.6438 -1.1656
  709SOL    HW2 2835   1.690   1.655   0.245  0.8832 -0.0940  1.2085
  709SOL     MW 2836   1.762   1.640   0.199 -0.1211  0.1884 -0.0595
  710SOL     OW 2837   2.213   1.181   1.168  0.2713 -0.4065 -0.3589
  710SOL    HW1 2838   2.227   1.120   1.092  0.0413 -1.2430  2.7844
  710SOL    HW2 2839   2.213   1.120   1.246  0.8697  0.5481  2.8644
  710SOL     MW 2840   2.215   1.165   1.168  0.3199 -0.3909  0.4811
  711SOL     OW 2841   2.334   0.162   1.739  0.1288  0.5046 -0.1623
  711SOL    HW1 2842   2.426   0.150   1.771 -1.1450  0.1835  1.0296
  711SOL    HW2 2843   2.353   0.187   1.649 -0.1244  2.3610  3.2244
  711SOL     MW 2844   2.349   0.163   1.731 -0.0727  0.7072  0.4418
  712SOL     OW 2845   1.911   0.508   0.107 -0.0991  0.1534 -0.5612
  712SOL    HW1 2846   1.849   0.506   0.041  1.2377 -0.0217 -0.2720
  712SOL    HW2 2847   1.934   0.602   0.126  0.4332 -2.9463  2.1119
  712SOL     MW 2848   1.906   0.520   0.101  0.1475 -0.2786 -0.1704
  713SOL     OW 2849   2.560   0.842   1.082 -0.0975 -0.1396  0.0193
  713SOL    HW1 2850   2.503   0.777   1.119 -1.4454 -3.5005 -1.9388
  713SOL    HW2 2851   2.544   0.918   1.140  1.3743 -1.7430 -2.2747
  713SOL     MW 2852   2.550   0.844   1.095 -0.0812 -0.7946 -0.5417
  714SOL     OW 2853   2.223   0.213   1.998 -0.1001 -0.4510 -1.0808
  714SOL    HW1 2854   2.254   0.154   2.065  1.3472 -1.4439  0.8884
  714SOL    HW2 2855   2.283   0.187   1.925  1.6825 -3.9294  0.4648
  714SOL     MW 2856   2.235   0.202   1.997  0.3260 -1.0410 -0.6170
  715SOL     OW 2857   1.751   1.867   1.683  0.1517  0.1315  0.5610
  715SOL    HW1 2858   1.839   1.845   1.665 -1.7630  1.9735  1.1929
  715SOL    HW2 2859   1.735   1.849   1.773 -0.8029 -1.1932  0.0611
  715SOL     MW 2860   1.761   1.862   1.692 -0.2269  0.1998  0.5784
  716SOL     OW 2861   2.309   0.595   0.728  0.1577  0.3102  0.1506
  716SOL    HW1 2862   2.359   0.528   0.677  0.5212  1.0030 -0.1094
  716SOL    HW2 2863   2.256   0.641   0.665 -1.6289  0.5541  2.4243
  716SOL     MW 2864   2.309   0.592   0.713 -0.0301  0.4338  0.4163
  717SOL     OW 2865   2.860   1.620   2.866  0.2406  0.3530 -0.0869
  717SOL    HW1 2866   2.936   1.590   2.915 -1.3330 -0.5868 -2.7494
  717SOL    HW2 2867   2.813   1.658   2.940  1.0633  1.7878  0.1946
  717SOL     MW 2868   2.864   1.621   2.882  0.1415  0.4183 -0.4010
  718SOL     OW 2869   2.668   1.426   1.334 -0.5350  0.7623  0.3294
  718SOL    HW1 2870   2.631   1.443   1.418  2.4132  1.0408 -0.0771
  718SOL    HW2 2871   2.718   1.346   1.332  1.6427  1.1632 -2.8719
  718SOL     MW 2872   2.670   1.418   1.345  0.1413  0.8520 -0.1466
  719SOL     OW 2873   2.189   1.302   0.585  0.2338  0.1703 -0.2471
  719SOL    HW1 2874   2.287   1.310   0.590 -1.8284 -1.2690  1.4499
  719SOL    HW2 2875   2.163   1.306   0.681  1.5752 -0.8124  1.3993
  719SOL     MW 2876   2.198   1.304   0.598  0.1387 -0.1492  0.1940
  720SOL     OW 2877   2.764   1.194   0.038  0.2942 -0.4653  0.4829
  720SOL    HW1 2878   2.747   1.100   0.046  1.4514 -1.3348 -0.5037
  720SOL    HW2 2879   2.746   1.251   0.116  0.6451  0.5494  0.4298
  720SOL     MW 2880   2.759   1.189   0.049  0.4932 -0.4461  0.3457
  721SOL     OW 2881   2.442   0.845   1.356 -0.0068  0.1914 -0.5004
  721SOL    HW1 2882   2.428   0.749   1.349 -1.6778 -1.0670  0.9073
  721SOL    HW2 2883   2.529   0.859   1.398 -1.2453 -0.5880 -0.3626
  721SOL     MW 2884   2.452   0.834   1.361 -0.3907 -0.0775 -0.2965
  722SOL     OW 2885   2.596   1.115   0.399  0.4288 -0.5641  0.0168
  722SOL    HW1 2886   2.531   1.168   0.446  1.3868 -0.2371  1.1813
  722SOL    HW2 2887   2.667   1.094   0.464 -2.4571  2.3273  0.2498
  722SOL     MW 2888   2.597   1.119   0.414  0.1744 -0.1394  0.2012
  723SOL     OW 2889   2.339   1.382   1.594 -0.0872  0.1578  0.1618
  723SOL    HW1 2890   2.326   1.367   1.499  2.0606 -1.8180  1.0929
  723SOL    HW2 2891   2.261   1.422   1.628  2.7011  0.5564 -3.3616
  723SOL     MW 2892   2.327   1.385   1.586  0.5641 -0.0503 -0.1803
  724SOL     OW 2893   2.432   0.366   0.600 -0.5356 -0.3762 -0.1315
  724SOL    HW1 2894   2.449   0.314   0.677  0.4525  0.6178 -1.8206
  724SOL    HW2 2895   2.516   0.411   0.578  0.6427  0.0164  1.0063
  724SOL     MW 2896   2.445   0.365   0.607 -0.2498 -0.1932 -0.2043
  725SOL     OW 2897   2.539   0.579   1.200  0.1127  0.2829 -0.0402
  725SOL    HW1 2898   2.617   0.612   1.236  0.0799 -0.6236 -0.5885
  725SOL    HW2 2899   2.496   0.541   1.280 -1.0809  2.0343  2.2728
  725SOL     MW 2900   2.543   0.579   1.215 -0.0491  0.3944  0.1926
  726SOL     OW 2901   2.561   2.455   0.563  0.1397  0.2598  0.2438
  726SOL    HW1 2902   2.503   2.502   0.507  1.1062  0.2423 -0.2075
  726SOL    HW2 2903   2.504   2.425   0.630 -2.2068 -0.6201  0.5510
  726SOL     MW 2904   2.546   2.457   0.564 -0.0423  0.1414  0.2248
  727SOL     OW 2905   2.918   0.363   1.702 -0.6253 -0.2522  0.4150
  727SOL    HW1 2906   2.860   0.346   1.629  0.0389  0.6667  2.8978
  727SOL    HW2 2907   2.876   0.343   1.787  0.3428 -2.9584 -1.2722
  727SOL     MW 2908   2.905   0.358   1.704 -0.4099 -0.4881  0.5200
  728SOL     OW 2909   2.799   1.179   2.863 -0.5159 -0.2731  0.1521
  728SOL    HW1 2910   2.809   1.262   2.812  3.3193 -0.6793  2.4375
  728SOL    HW2 2911   2.779   1.200   2.953 -1.4705  0.6694 -0.8481
  728SOL     MW 2912   2.797   1.193   2.868 -0.1358 -0.2023  0.3216
  729SOL     OW 2913   2.518   1.483   1.127 -0.1045 -0.2843  0.8483
  729SOL    HW1 2914   2.571   1.429   1.183 -0.3527  0.4674 -1.5821
  729SOL    HW2 2915   2.536   1.459   1.037 -0.6519  1.2646  0.8500
  729SOL     MW 2916   2.527   1.473   1.123 -0.2095  0.0192  0.5278
  730SOL     OW 2917   2.268   1.182   0.175  0.3336  0.0128  0.0370
  730SOL    HW1 2918   2.346   1.119   0.186  0.3683  2.3422 -1.4161
  730SOL    HW2 2919   2.302   1.272   0.171 -0.8665 -1.4139  5.3871
  730SOL     MW 2920   2.283   1.186   0.176  0.1798  0.1319  0.5512
  731SOL     OW 2921   2.759   1.904   2.854  0.2119  0.5356  0.0183
  731SOL    HW1 2922   2.687   1.936   2.799 -0.1100  0.6259  0.0676
  731SOL    HW2 2923   2.843   1.939   2.818 -1.7168 -1.5820 -0.1940
  731SOL     MW 2924   2.760   1.913   2.842 -0.0850  0.2681 -0.0032
  732SOL     OW 2925   2.219   0.991   1.365  0.3081 -0.5659 -0.2869
  732SOL    HW1 2926   2.186   0.979   1.454 -0.6595 -2.5335 -0.6104
  732SOL    HW2 2927   2.303   0.951   1.369 -1.1717  0.8485 -0.0314
  732SOL     MW 2928   2.226   0.984   1.377 -0.0148 -0.6389 -0.2959
  733SOL     OW 2929   2.357   2.757   3.010  0.1631 -0.0871 -0.3900
  733SOL    HW1 2930   2.273   2.801   3.000  0.6834 -0.9653 -0.3950
  733SOL    HW2 2931   2.351   2.660   2.995 -1.9080 -0.0158 -0.9782
  733SOL     MW 2932   2.345   2.750   3.007 -0.0415 -0.1936 -0.4683
  734SOL     OW 2933   1.433   0.336   2.456 -0.2885 -0.8009  0.9521
  734SOL    HW1 2934   1.434   0.306   2.546 -0.3873  2.1195  0.6569
  734SOL    HW2 2935   1.472   0.268   2.398 -1.5241 -0.8274  0.7425
  734SOL     MW 2936   1.438   0.323   2.460 -0.4646 -0.4191  0.8855
  735SOL     OW 2937   2.923   0.897   2.627 -0.2970  0.5643  0.2710
  735SOL    HW1 2938   2.932   0.800   2.625  0.5031 -3.0385  1.6094
  735SOL    HW2 2939   2.961   0.922   2.712  0.5676  1.6025 -0.2119
  735SOL     MW 2940   2.929   0.888   2.638 -0.0774  0.2259  0.3839
  736SOL     OW 2941   0.084   0.579   2.494 -0.0186  0.0223  0.5491
  736SOL    HW1 2942   0.132   0.655   2.463  0.0317 -3.3154  0.5227
  736SOL    HW2 2943   0.083   0.522   2.415  0.8879 -1.1006  1.9107
  736SOL     MW 2944   0.090   0.581   2.479  0.1076 -0.5662  0.7253
  737SOL     OW 2945   2.923   0.629   2.567 -0.2396  0.1564  0.0214
  737SOL    HW1 2946   2.865   0.589   2.501  1.4335  0.3295  1.2597
  737SOL    HW2 2947   3.019   0.605   2.535  1.7601  0.7460  1.6165
  737SOL     MW 2948   2.928   0.621   2.554  0.2450  0.2570  0.3952
  738SOL     OW 2949   0.146   0.595   1.896 -0.4045 -0.7380  0.3221
  738SOL    HW1 2950   0.214   0.658   1.869  0.6157 -1.5172 -2.1635
  738SOL    HW2 2951   0.180   0.514   1.861 -1.2757 -0.7925 -0.9868
  738SOL     MW 2952   0.159   0.592   1.888 -0.3848 -0.8480 -0.1786
  739SOL     OW 2953   2.465   1.009   2.058  0.2015 -0.2262  0.3388
  739SOL    HW1 2954   2.380   0.973   2.035  0.4879 -2.5934 -2.5926
  739SOL    HW2 2955   2.522   1.023   1.983  0.1554  2.0001  0.0064
  739SOL     MW 2956   2.461   1.006   2.045  0.2332 -0.2448 -0.0918
  740SOL     OW 2957   0.266   1.725   2.938 -0.3523 -0.6978  0.1737
  740SOL    HW1 2958   0.189   1.672   2.969 -0.3342  0.2764  2.4184
  740SOL    HW2 2959   0.338   1.689   2.985 -0.8553 -0.6140 -1.7371
  740SOL     MW 2960   0.266   1.713   2.949 -0.4163 -0.5582  0.2178
  741SOL     OW 2961   2.231   1.155   2.746  0.1845 -0.5409 -0.0519
  741SOL    HW1 2962   2.134   1.171   2.747 -1.5121 -2.4457  2.4962
  741SOL    HW2 2963   2.265   1.206   2.825  0.3525  0.8906  1.4098
  741SOL     MW 2964   2.223   1.164   2.756 -0.0172 -0.6034  0.4771
  742SOL     OW 2965   1.495   1.237   2.218  0.1905  0.3833  0.0469
  742SOL    HW1 2966   1.488   1.140   2.206 -0.2423  0.5262  3.2428
  742SOL    HW2 2967   1.525   1.249   2.305 -0.9529 -0.7351  0.4338
  742SOL     MW 2968   1.498   1.226   2.228 -0.0174  0.2546  0.5197
  743SOL     OW 2969   2.466   1.307   2.705 -0.7644 -0.6050 -0.4547
  743SOL    HW1 2970   2.375   1.284   2.702 -4.0418  1.1456  0.7149
  743SOL    HW2 2971   2.507   1.232   2.757 -1.8202  2.4213  0.7123
  743SOL     MW 2972   2.459   1.294   2.711 -1.3361  0.0252 -0.1464
  744SOL     OW 2973   2.768   0.975   1.778  0.0608  0.3718  0.1976
  744SOL    HW1 2974   2.746   1.061   1.804 -2.9827 -0.5010  1.9605
  744SOL    HW2 2975   2.727   0.963   1.693 -1.0976 -0.4968 -0.9290
  744SOL     MW 2976   2.760   0.985   1.770 -0.4936  0.1420  0.2815
  745SOL     OW 2977   1.692   0.458   2.474  0.0387  0.1177  0.1603
  745SOL    HW1 2978   1.692   0.461   2.378  0.8555  1.0428 -2.7720
  745SOL    HW2 2979   1.600   0.444   2.502 -1.2655  1.6426 -3.2420
  745SOL     MW 2980   1.680   0.457   2.465 -0.0256  0.4410 -0.6755
  746SOL     OW 2981   1.582   1.435   1.566  0.0607 -0.0760 -0.6873
  746SOL    HW1 2982   1.676   1.444   1.587  1.5762  0.4696 -0.4847
  746SOL    HW2 2983   1.558   1.378   1.638 -0.8320  1.1182  1.6793
  746SOL     MW 2984   1.591   1.429   1.578  0.1429  0.1536 -0.3483
  747SOL     OW 2985   2.536   1.174   1.796  0.5400  0.2379  0.1532
  747SOL    HW1 2986   2.438   1.170   1.783 -1.2391 -0.0045  2.5085
  747SOL    HW2 2987   2.537   1.252   1.855 -1.8611 -0.7289 -1.8843
  747SOL     MW 2988   2.524   1.183   1.802 -0.0115  0.0783  0.1951
  748SOL     OW 2989   0.135   0.022   1.807 -0.0790 -0.2135  0.2759
  748SOL    HW1 2990   0.231   0.013   1.814 -1.6097  2.9673  0.5580
  748SOL    HW2 2991   0.100   0.055   1.892 -0.2366 -0.9005 -2.3378
  748SOL     MW 2992   0.143   0.025   1.819 -0.3018  0.1155 -0.0317
  749SOL     OW 2993   2.426   0.546   2.761  0.0430  0.2153 -0.8670
  749SOL    HW1 2994   2.429   0.594   2.673  2.8078 -2.9663 -1.5707
  749SOL    HW2 2995   2.450   0.625   2.820  0.5616 -1.1089 -2.1792
  749SOL     MW 2996   2.429   0.563   2.757  0.4762 -0.3792 -1.1330
  750SOL     OW 2997   2.039   0.009   1.981 -0.3005  0.2262  0.1063
  750SOL    HW1 2998   2.108   0.075   2.001  0.6267 -0.5165  2.8487
  750SOL    HW2 2999   2.092  -0.067   1.964 -0.2231  3.0829 -0.8323
  750SOL     MW 3000   2.055   0.007   1.982 -0.1679  0.5052  0.3443
  751SOL     OW 3001   0.045   0.382   2.289  0.0401 -0.2194  0.3816
  751SOL    HW1 3002  -0.030   0.325   2.325  2.1643  0.0443 -1.4872
  751SOL    HW2 3003   0.130   0.331   2.295 -0.7549 -0.1581 -0.3699
  751SOL     MW 3004   0.046   0.368   2.294  0.2155 -0.1765  0.0359
  752SOL     OW 3005   2.139   0.820   2.654 -0.0303  0.0026 -0.2254
  752SOL    HW1 3006   2.214   0.874   2.629  0.3303 -2.3130 -1.3117
  752SOL    HW2 3007   2.142   0.823   2.750  0.8158  0.6173  1.0522
  752SOL     MW 3008   2.149   0.828   2.664  0.1289 -0.2218 -0.2002
  753SOL     OW 3009   2.933   0.265   2.398  0.3671  0.4235  0.0119
  753SOL    HW1 3010   2.872   0.220   2.338 -2.6059 -0.5303  0.1618
  753SOL    HW2 3011   2.900   0.353   2.398  0.7167  0.6904 -0.7347
  753SOL     MW 3012   2.921   0.271   2.390  0.0210  0.3329 -0.0668
  754SOL     OW 3013   2.235   2.997   2.618 -0.0035  0.2144 -0.9228
  754SOL    HW1 3014   2.265   2.982   2.531  0.8369  0.1853 -0.5234
  754SOL    HW2 3015   2.297   2.945   2.670  1.2568 -1.0542  0.8165
  754SOL     MW 3016   2.247   2.988   2.613  0.2737  0.0432 -0.6406
  755SOL     OW 3017   2.724   1.551   2.475 -0.1315 -1.3974 -0.3194
  755SOL    HW1 3018   2.717   1.458   2.505 -0.3181 -0.4398 -1.2651
  755SOL    HW2 3019   2.795   1.600   2.519  0.8513  0.1457 -0.0487
  755SOL     MW 3020   2.733   1.545   2.485 -0.0264 -1.0674 -0.4085
  756SOL     OW 3021   2.255   1.338   2.956 -0.1773 -0.5366  0.5432
  756SOL    HW1 3022   2.321   1.411   2.962 -0.7465  0.2609 -3.1756
  756SOL    HW2 3023   2.289   1.266   3.012  2.9002  0.1627  2.1386
  756SOL     MW 3024   2.268   1.338   2.964  0.1537 -0.3392  0.2630
  757SOL     OW 3025   2.126   0.949   1.604  0.5222 -0.1427 -0.4885
  757SOL    HW1 3026   2.159   0.856   1.607 -0.2683 -1.3694  0.5395
  757SOL    HW2 3027   2.025   0.949   1.589  0.3202 -0.9584  0.4589
  757SOL     MW 3028   2.117   0.937   1.603  0.3913 -0.4121 -0.2278
  758SOL     OW 3029   2.190   1.770   2.607 -0.0295 -0.1192 -0.1895
  758SOL    HW1 3030   2.175   1.764   2.514  0.5372  1.3250  0.9508
  758SOL    HW2 3031   2.283   1.761   2.625 -1.5060 -1.2266  0.5099
  758SOL     MW 3032   2.200   1.768   2.597 -0.1496 -0.0748  0.0532
  759SOL     OW 3033   1.617   1.350   2.718  0.2907 -0.2540 -0.1869
  759SOL    HW1 3034   1.630   1.427   2.661 -0.0985 -2.2548 -0.8522
  759SOL    HW2 3035   1.649   1.372   2.807 -0.2554  1.8284  1.9857
  759SOL     MW 3036   1.623   1.363   2.722  0.1673 -0.2432  0.0120
  760SOL     OW 3037   2.535   2.003   2.692  0.1310  0.2127  0.1098
  760SOL    HW1 3038   2.539   1.909   2.656  0.4164  2.6507  1.0990
  760SOL    HW2 3039   2.560   2.059   2.610  0.3865 -1.1063  0.1944
  760SOL     MW 3040   2.539   1.998   2.677  0.2024  0.3603  0.2515
  761SOL     OW 3041   2.130   0.418   2.483 -0.0556  0.1389 -0.0584
  761SOL    HW1 3042   2.044   0.381   2.456  0.8159  0.6371  1.0998
  761SOL    HW2 3043   2.126   0.436   2.577 -0.5479 -1.2529  2.4884
  761SOL     MW 3044   2.118   0.415   2.492 -0.0056  0.0210  0.4305
  762SOL     OW 3045   3.084   0.133   1.999 -0.0092  0.1880  0.3729
  762SOL    HW1 3046   3.082   0.091   2.083 -0.8964  0.0191 -0.0424
  762SOL    HW2 3047   3.048   0.219   2.019  2.3886  0.2744 -0.3268
  762SOL     MW 3048   3.079   0.139   2.013  0.1901  0.1771  0.2258
  763SOL     OW 3049   2.430   1.072   2.329  0.3091 -0.0470 -0.2380
  763SOL    HW1 3050   2.469   1.046   2.240  0.2492  0.1414 -0.9769
  763SOL    HW2 3051   2.480   1.141   2.373  1.5911 -2.5178  0.6017
  763SOL     MW 3052   2.441   1.077   2.323  0.4703 -0.3481 -0.2247
  764SOL     OW 3053   0.461   0.253   2.769 -0.2841  0.5467 -0.1364
  764SOL    HW1 3054   0.371   0.236   2.751  1.4839 -0.1952  0.1415
  764SOL    HW2 3055   0.467   0.334   2.819 -1.7669  0.4539  1.9104
  764SOL     MW 3056   0.450   0.262   2.773 -0.2464  0.4365  0.1703
  765SOL     OW 3057   2.741   0.093   2.281  0.4229  0.0276  0.2108
  765SOL    HW1 3058   2.659   0.089   2.225  0.6136  1.1507  0.3111
  765SOL    HW2 3059   2.768  -0.002   2.295 -0.7577 -1.6829  1.7475
  765SOL     MW 3060   2.733   0.080   2.275  0.2923 -0.0499  0.4268
  766SOL     OW 3061   1.841   3.018   2.200 -0.1512 -0.0926  0.4351
  766SOL    HW1 3062   1.863   3.072   2.127 -0.2934 -1.6083 -0.2938
  766SOL    HW2 3063   1.819   2.934   2.154  1.5148  0.8103  1.1811
  766SOL     MW 3064   1.841   3.014   2.184  0.0498 -0.1735  0.4373
  767SOL     OW 3065   2.642   0.613   1.945 -0.5582 -0.0689 -0.0467
  767SOL    HW1 3066   2.681   0.690   1.988  0.2967 -1.7595  1.4898
  767SOL    HW2 3067   2.548   0.608   1.971 -0.4845 -1.2389  0.1201
  767SOL     MW 3068   2.635   0.622   1.954 -0.4357 -0.4463  0.1780
  768SOL     OW 3069   0.018   1.562   2.999  0.0488 -0.0890  0.1816
  768SOL    HW1 3070   0.035   1.521   3.082  1.2507  2.9394  0.3536
  768SOL    HW2 3071   0.057   1.492   2.940 -0.6028 -0.1184 -1.1142
  768SOL     MW 3072   0.025   1.548   3.002  0.1214  0.3067  0.0333
  769SOL     OW 3073   2.350   0.715   2.295 -0.3554  0.6436  0.2204
  769SOL    HW1 3074   2.262   0.672   2.299 -1.6818 -2.0797  1.1484
  769SOL    HW2 3075   2.395   0.655   2.238  1.2153 -1.3532  1.7169
  769SOL     MW 3076   2.344   0.701   2.288 -0.3232  0.0208  0.5403
  770SOL     OW 3077   0.090   1.652   2.630 -0.1683 -0.0216 -0.4043
  770SOL    HW1 3078  -0.010   1.652   2.621 -0.2003 -0.6411 -1.4598
  770SOL    HW2 3079   0.128   1.569   2.665  1.5001 -2.6960  0.8158
  770SOL     MW 3080   0.082   1.641   2.633  0.0476 -0.4562 -0.3826
  771SOL     OW 3081   2.973   0.639   1.925 -0.6308 -0.1305 -0.5042
  771SOL    HW1 3082   2.923   0.621   1.845 -1.1569  0.2122  3.3150
  771SOL    HW2 3083   3.065   0.634   1.904 -0.2503  1.0981 -1.8568
  771SOL     MW 3084   2.978   0.636   1.912 -0.6500  0.0768 -0.1788
  772SOL     OW 3085   3.076   3.099   2.235  0.2938 -0.5185  0.3564
  772SOL    HW1 3086   2.998   3.064   2.267  1.9047  0.9800 -1.6399
  772SOL    HW2 3087   3.137   3.026   2.237 -2.7238  0.1243 -4.4614
  772SOL     MW 3088   3.073   3.085   2.240  0.1082 -0.2360 -0.5427
  773SOL     OW 3089   2.436   2.818   2.750  0.1526  0.1643  0.0696
  773SOL    HW1 3090   2.428   2.735   2.702  0.3331 -0.4804  3.1652
  773SOL    HW2 3091   2.416   2.810   2.847  2.0830 -1.0684  1.5516
  773SOL     MW 3092   2.432   2.806   2.756  0.4311 -0.0834  0.6736
  774SOL     OW 3093   2.280   1.140   1.732  0.2801  0.0341 -0.0684
  774SOL    HW1 3094   2.275   1.209   1.666 -0.3854 -0.0001 -0.1189
  774SOL    HW2 3095   2.220   1.073   1.695 -2.8471  1.2496 -4.0807
  774SOL     MW 3096   2.271   1.140   1.719 -0.2203  0.1900 -0.6045
  775SOL     OW 3097   2.317   2.925   2.350  0.2977 -0.1933 -0.4984
  775SOL    HW1 3098   2.343   3.001   2.300  3.6048 -2.3766  1.8769
  775SOL    HW2 3099   2.384   2.859   2.336  0.0739 -1.6652 -4.1746
  775SOL     MW 3100   2.330   2.926   2.341  0.7045 -0.6756 -0.6700
  776SOL     OW 3101   0.033   1.422   0.128 -0.4602  0.0403 -0.5621
  776SOL    HW1 3102   0.117   1.404   0.151 -2.6458  0.9710 -2.0071
  776SOL    HW2 3103   0.003   1.330   0.106 -0.9628 -0.9743 -1.1422
  776SOL     MW 3104   0.040   1.407   0.128 -0.8149  0.0293 -0.8293
  777SOL     OW 3105   3.006   1.087   1.736  0.3929 -0.2963  0.4572
  777SOL    HW1 3106   2.956   1.172   1.735  0.1154 -0.5803 -0.6867
  777SOL    HW2 3107   2.931   1.021   1.739  0.1434 -1.1086 -1.0113
  777SOL     MW 3108   2.989   1.090   1.736  0.3234 -0.4410  0.1125
  778SOL     OW 3109   2.909   0.421   2.743  0.3978 -0.4850 -0.0572
  778SOL    HW1 3110   2.835   0.440   2.806  0.0592 -1.5475 -0.6543
  778SOL    HW2 3111   2.911   0.497   2.688 -0.6055 -0.8799  3.4732
  778SOL     MW 3112   2.899   0.434   2.744  0.2208 -0.6773  0.3298
  779SOL     OW 3113   2.087   0.619   2.283 -0.1729  0.3861  0.0784
  779SOL    HW1 3114   2.031   0.669   2.340  3.5593 -0.6995  1.5238
  779SOL    HW2 3115   2.115   0.533   2.336 -1.0944 -3.3249 -0.1465
  779SOL     MW 3116   2.083   0.614   2.298  0.1980 -0.2468  0.2394
  780SOL     OW 3117   0.168   0.183   2.751  0.9210 -0.2285 -0.3221
  780SOL    HW1 3118   0.128   0.233   2.821  1.2839 -1.6703 -2.1969
  780SOL    HW2 3119   0.085   0.178   2.706  0.7752 -0.9248  0.0863
  780SOL     MW 3120   0.152   0.189   2.754  0.9497 -0.5106 -0.5156
  781SOL     OW 3121   3.039   1.321   2.504 -0.0006  0.0658  0.1408
  781SOL    HW1 3122   2.993   1.362   2.428 -0.3457  0.6595  0.6814
  781SOL    HW2 3123   3.060   1.232   2.464 -0.4324 -2.9474 -3.3238
  781SOL     MW 3124   3.036   1.315   2.488 -0.1031 -0.2534 -0.2450
  782SOL     OW 3125   0.757   1.500   3.042  0.0616  0.0741 -0.1103
  782SOL    HW1 3126   0.666   1.537   3.041  0.8313  0.3786 -0.3031
  782SOL    HW2 3127   0.770   1.491   3.142  2.5147 -2.2541  0.9562
  782SOL     MW 3128   0.747   1.504   3.055  0.4868 -0.1929  0.0050
  783SOL     OW 3129   2.767   0.468   2.415 -0.3981 -0.0705  0.2998
  783SOL    HW1 3130   2.725   0.483   2.330 -1.5881 -0.6036  0.0010
  783SOL    HW2 3131   2.700   0.416   2.460 -0.5107  1.4831 -1.6033
  783SOL     MW 3132   2.753   0.463   2.410 -0.5699  0.0642  0.0093
  784SOL     OW 3133   0.230   0.843   2.870  0.6011  0.7725 -0.0873
  784SOL    HW1 3134   0.213   0.912   2.929  1.7750 -1.1825 -2.0782
  784SOL    HW2 3135   0.276   0.891   2.806  0.0128 -2.2286  0.2623
  784SOL     MW 3136   0.234   0.858   2.869  0.6784  0.1186 -0.3038
  785SOL     OW 3137   0.422   0.479   2.203  0.4294 -0.1133 -0.3202
  785SOL    HW1 3138   0.397   0.532   2.126 -1.3499  1.0978  1.5535
  785SOL    HW2 3139   0.378   0.393   2.176 -1.2011 -0.1999 -1.2367
  785SOL     MW 3140   0.413   0.475   2.189 -0.0205  0.0351 -0.1939
  786SOL     OW 3141   1.973   0.451   2.941  0.0069  0.6199 -0.3870
  786SOL    HW1 3142   2.012   0.445   3.022 -2.8881  3.0622 -0.2556
  786SOL    HW2 3143   2.042   0.452   2.865  1.1477  0.3420  1.5141
  786SOL     MW 3144   1.987   0.450   2.942 -0.2246  0.9054 -0.1188
  787SOL     OW 3145   2.427   0.163   2.919 -0.3681  0.1612  0.2854
  787SOL    HW1 3146   2.496   0.102   2.868 -0.6587  0.4478  1.2100
  787SOL    HW2 3147   2.480   0.239   2.948  0.4208 -0.6109 -1.7983
  787SOL     MW 3148   2.443   0.165   2.916 -0.3024  0.0972  0.1324
  788SOL     OW 3149   2.879   2.973   2.383  0.3691 -0.4367 -0.6614
  788SOL    HW1 3150   2.917   2.993   2.463  1.1742  0.0321 -3.0036
  788SOL    HW2 3151   2.916   2.884   2.368 -0.6426  0.9931 -0.5553
  788SOL     MW 3152   2.889   2.964   2.391  0.3418 -0.1862 -0.9564
  789SOL     OW 3153   0.051   0.301   2.972 -0.1263  0.1975 -0.5503
  789SOL    HW1 3154  -0.023   0.262   3.015 -0.3835  0.6263  0.7169
  789SOL    HW2 3155   0.024   0.398   2.966 -4.7061  1.9552 -1.4350
  789SOL     MW 3156   0.038   0.309   2.977 -0.7645  0.4860 -0.4998
  790SOL     OW 3157   3.042   1.049   2.437 -0.2035  0.2806 -0.0690
  790SOL    HW1 3158   3.011   0.976   2.502 -2.2698 -0.5784 -0.3932
  790SOL    HW2 3159   2.996   1.033   2.348 -1.9077  0.6285 -2.0771
  790SOL     MW 3160   3.032   1.037   2.434 -0.7010  0.2132 -0.3767
  791SOL     OW 3161   2.615   0.358   2.623 -0.6057 -0.5663  0.1367
  791SOL    HW1 3162   2.554   0.425   2.658  0.4250 -0.4976 -0.7112
  791SOL    HW2 3163   2.685   0.362   2.688  1.7886 -2.5055  0.5215
  791SOL     MW 3164   2.616   0.367   2.636 -0.1538 -0.8131  0.0756
  792SOL     OW 3165   2.356   0.274   2.408  0.3805 -0.4134 -0.2525
  792SOL    HW1 3166   2.277   0.326   2.416 -0.1010 -0.2885  0.9370
  792SOL    HW2 3167   2.347   0.224   2.495  0.0660 -2.5710  0.3844
  792SOL     MW 3168   2.344   0.275   2.420  0.2755 -0.6816 -0.0115
  793SOL     OW 3169   1.853   1.040   1.967 -0.0865  0.6324  0.2483
  793SOL    HW1 3170   1.803   1.067   1.895 -0.3465  1.0898  0.1738
  793SOL    HW2 3171   1.899   0.966   1.928  1.1713 -0.1893 -3.5900
  793SOL     MW 3172   1.852   1.034   1.953  0.0451  0.5843 -0.2679
  794SOL     OW 3173   1.413   2.283   0.177  0.4236 -0.0569 -0.1227
  794SOL    HW1 3174   1.438   2.361   0.118  0.2570  0.1103  1.0958
  794SOL    HW2 3175   1.460   2.303   0.256 -1.3491 -1.5729 -1.7107
  794SOL     MW 3176   1.422   2.296   0.180  0.1678 -0.2348 -0.1714
  795SOL     OW 3177   2.357   0.967   2.567  0.2009  0.1167 -0.9650
  795SOL    HW1 3178   2.309   1.034   2.617 -0.0100 -0.1569 -1.8221
  795SOL    HW2 3179   2.380   1.008   2.480 -0.1729 -0.5884  0.7747
  795SOL     MW 3180   2.354   0.982   2.562  0.1238 -0.0124 -0.8486
  796SOL     OW 3181   0.255   0.598   2.744  0.2698  0.0233 -0.3125
  796SOL    HW1 3182   0.239   0.677   2.792 -0.2785 -3.1366  2.4456
  796SOL    HW2 3183   0.187   0.593   2.675 -0.4210  0.0750 -1.9529
  796SOL     MW 3184   0.244   0.608   2.741  0.1063 -0.3868 -0.1650
  797SOL     OW 3185   2.566   0.109   2.495  0.2030  0.3760 -0.4245
  797SOL    HW1 3186   2.566   0.202   2.547  0.2387  0.1495 -1.0379
  797SOL    HW2 3187   2.639   0.115   2.433 -1.5735 -1.0366  1.4423
  797SOL     MW 3188   2.576   0.122   2.494 -0.0267  0.1597 -0.2591
  798SOL     OW 3189   2.312   0.066   2.218  0.1401 -0.1999  0.0793
  798SOL    HW1 3190   2.340   0.137   2.282  0.8711  1.5742 -2.4982
  798SOL    HW2 3191   2.399   0.053   2.164  2.7591  0.3852  0.9593
  798SOL     MW 3192   2.327   0.073   2.219  0.5821  0.1114 -0.1446
  799SOL     OW 3193   2.473   2.942   0.096 -0.3084 -0.2160  0.4408
  799SOL    HW1 3194   2.441   2.865   0.049 -1.6285 -3.2006  3.0703
  799SOL    HW2 3195   2.412   3.009   0.076  0.1113 -1.1815  1.4738
  799SOL     MW 3196   2.460   2.941   0.087 -0.4272 -0.7372  0.9240
  800SOL     OW 3197   1.882   0.027   1.762 -0.2229 -0.0922  0.4584
  800SOL    HW1 3198   1.827  -0.050   1.775 -0.0973 -0.3997  0.2903
  800SOL    HW2 3199   1.945   0.026   1.832  1.6714 -1.3746 -1.0468
  800SOL     MW 3200   1.883   0.017   1.773  0.0436 -0.3019  0.2377
  801SOL     OW 3201   2.790   1.281   2.578  0.6464 -0.0426  0.5391
  801SOL    HW1 3202   2.786   1.180   2.567 -0.2964 -0.6327  1.0517
  801SOL    HW2 3203   2.885   1.293   2.567 -1.7183  0.4167  0.1621
  801SOL     MW 3204   2.802   1.270   2.575  0.2100 -0.0598  0.5570
  802SOL     OW 3205   2.597   1.532   2.807 -0.4464  0.2732  0.9267
  802SOL    HW1 3206   2.566   1.452   2.755 -1.3532  0.8121 -0.1193
  802SOL    HW2 3207   2.697   1.535   2.803 -0.0745 -2.0508  3.5188
  802SOL     MW 3208   2.606   1.522   2.800 -0.5170  0.0377  1.1307
  803SOL     OW 3209   2.313   1.418   2.000  0.3138  0.1098 -0.0665
  803SOL    HW1 3210   2.285   1.356   2.061  0.3279  1.2207  1.6521
  803SOL    HW2 3211   2.302   1.375   1.916 -0.5722 -1.8559 -0.9876
  803SOL     MW 3212   2.308   1.404   1.997  0.1988 -0.0030  0.0387
  804SOL     OW 3213   2.296   0.065   0.024 -0.1189 -0.2361  0.2369
  804SOL    HW1 3214   2.221   0.129   0.020  1.4211  2.1479 -0.6459
  804SOL    HW2 3215   2.352   0.095  -0.050 -1.0182  0.6264  0.1096
  804SOL     MW 3216   2.293   0.077   0.014 -0.0343  0.1923  0.1036
  805SOL     OW 3217   2.679   0.995   2.557 -0.0166 -0.2179 -0.1785
  805SOL    HW1 3218   2.656   0.986   2.465 -0.0030  1.0628  0.0373
  805SOL    HW2 3219   2.766   0.953   2.575  0.6634  0.1195 -0.9688
  805SOL     MW 3220   2.688   0.988   2.547  0.0749 -0.0044 -0.2543
  806SOL     OW 3221   2.531   0.418   2.240 -0.1757 -0.6424 -0.6796
  806SOL    HW1 3222   2.490   0.360   2.304  1.8931  0.0466  0.9419
  806SOL    HW2 3223   2.475   0.419   2.165  2.6924 -0.4701 -1.3994
  806SOL     MW 3224   2.518   0.410   2.238  0.4757 -0.5287 -0.5607
  807SOL     OW 3225   0.104   1.162   2.088 -0.0552  0.6606  0.4470
  807SOL    HW1 3226   0.117   1.072   2.062 -0.5757  1.2377 -1.3636
  807SOL    HW2 3227   0.024   1.178   2.131  1.0692  2.7363  4.0215
  807SOL     MW 3228   0.095   1.153   2.090  0.0245  1.0106  0.6797
  808SOL     OW 3229   2.543   3.075   2.727  0.6265 -0.0911  0.1905
  808SOL    HW1 3230   2.499   2.989   2.718  1.7974 -0.9462  2.8588
  808SOL    HW2 3231   2.541   3.125   2.643  0.6504  3.0418 -0.7400
  808SOL     MW 3232   2.537   3.070   2.715  0.7841  0.2094  0.4198
  809SOL     OW 3233   2.562   1.283   2.430  0.2580  0.1121  0.4619
  809SOL    HW1 3234   2.608   1.304   2.506  1.2285 -1.5010 -1.5684
  809SOL    HW2 3235   2.629   1.276   2.364  2.5093 -0.0564  0.4125
  809SOL     MW 3236   2.577   1.285   2.431  0.6830 -0.1230  0.1876
  810SOL     OW 3237   2.239   1.247   2.251 -0.1170  0.3859 -0.0128
  810SOL    HW1 3238   2.307   1.184   2.269  2.7251 -1.0887 -0.8553
  810SOL    HW2 3239   2.152   1.200   2.229 -1.8239  0.0541 -3.2376
  810SOL     MW 3240   2.236   1.233   2.251  0.0328  0.1476 -0.5495
  811SOL     OW 3241   1.540   0.172   2.292 -0.0327  0.1940 -0.2450
  811SOL    HW1 3242   1.585   0.088   2.316 -0.0018 -4.1500 -0.8245
  811SOL    HW2 3243   1.550   0.164   2.195  0.0905 -0.9936 -1.9127
  811SOL     MW 3244   1.547   0.160   2.283 -0.0124 -0.5358 -0.5415
  812SOL     OW 3245   1.469   2.855   2.141 -0.2746 -0.0866  0.3316
  812SOL    HW1 3246   1.565   2.828   2.134  1.2556 -1.0559  0.0566
  812SOL    HW2 3247   1.442   2.805   2.217 -2.3039  0.2820 -1.8351
  812SOL     MW 3248   1.478   2.845   2.150 -0.3405 -0.1658  0.0095
  813SOL     OW 3249   1.827   0.754   2.182  0.3031  0.0175  0.4248
  813SOL    HW1 3250   1.827   0.659   2.202 -0.8015 -0.4235  0.1220
  813SOL    HW2 3251   1.851   0.790   2.267 -0.9698 -0.1223 -0.2178
  813SOL     MW 3252   1.830   0.746   2.196 -0.0106 -0.0592  0.3001
  814SOL     OW 3253   2.757   1.261   1.632 -0.1853 -0.2776  0.7524
  814SOL    HW1 3254   2.687   1.230   1.688 -1.9636  1.2766  0.6931
  814SOL    HW2 3255   2.748   1.223   1.545  1.1627  1.7630 -1.9970
  814SOL     MW 3256   2.747   1.252   1.628 -0.2421  0.1967  0.3818
  815SOL     OW 3257   2.482   1.666   2.397  0.0934  0.0573  0.3107
  815SOL    HW1 3258   2.403   1.606   2.403 -1.4542 -3.2782  2.1889
  815SOL    HW2 3259   2.560   1.611   2.428  2.7923 -2.2204  1.7523
  815SOL     MW 3260   2.482   1.651   2.402  0.2453 -0.6833  0.7487
  816SOL     OW 3261   0.775   0.674   2.726 -0.4168 -0.2587  0.4932
  816SOL    HW1 3262   0.772   0.598   2.788 -1.2697 -0.1592 -2.1477
  816SOL    HW2 3263   0.679   0.695   2.718 -2.4223 -0.7732 -3.3937
  816SOL     MW 3264   0.762   0.667   2.733 -0.7939 -0.3135 -0.3681
  817SOL     OW 3265   3.044   1.288   1.448 -0.3502 -0.1883 -0.8606
  817SOL    HW1 3266   3.120   1.231   1.447  0.3219 -0.0138  1.3576
  817SOL    HW2 3267   3.071   1.368   1.396  1.3216  0.3628 -0.3616
  817SOL     MW 3268   3.058   1.291   1.441 -0.0409 -0.0926 -0.5021
  818SOL     OW 3269   1.940   1.072   2.690  0.0053 -0.3715  0.0702
  818SOL    HW1 3270   1.894   1.105   2.610  1.1321  0.9112 -0.5976
  818SOL    HW2 3271   2.004   1.012   2.652  0.3241  0.1568 -1.6850
  818SOL     MW 3272   1.942   1.068   2.674  0.1961 -0.1326 -0.2495
  819SOL     OW 3273   1.890   0.262   2.451  0.3495  0.7368  0.1527
  819SOL    HW1 3274   1.803   0.291   2.481  2.0870 -2.1030  0.0788
  819SOL    HW2 3275   1.934   0.239   2.534 -0.1494  2.6114 -0.5573
  819SOL     MW 3276   1.885   0.263   2.466  0.5129  0.6094  0.0493
  820SOL     OW 3277   2.454   1.739   2.669  0.2178 -0.0747  0.3603
  820SOL    HW1 3278   2.506   1.680   2.729 -1.0814  2.4498  1.3190
  820SOL    HW2 3279   2.491   1.718   2.579 -1.4777 -0.2840  0.5980
  820SOL     MW 3280   2.466   1.728   2.665 -0.1773  0.2308  0.5181
  821SOL     OW 3281   2.579   1.358   2.004  0.0901 -0.0761  0.3901
  821SOL    HW1 3282   2.641   1.414   1.962 -0.0889 -1.6571  0.5190
  821SOL    HW2 3283   2.497   1.410   2.023 -1.8637 -1.3954 -0.2862
  821SOL     MW 3284   2.577   1.372   2.001 -0.1913 -0.4588  0.3178
  822SOL     OW 3285   2.811   2.590   1.482  0.3852  0.2909  0.0222
  822SOL    HW1 3286   2.829   2.643   1.561 -0.9123 -0.3989 -0.8479
  822SOL    HW2 3287   2.753   2.641   1.423  0.2253  2.2954 -2.7110
  822SOL     MW 3288   2.806   2.603   1.484  0.1929  0.4643 -0.4532
  823SOL     OW 3289   2.250   0.457   1.756 -0.1577  0.4890  0.5313
  823SOL    HW1 3290   2.323   0.399   1.734 -0.5066 -0.2700 -1.5008
  823SOL    HW2 3291   2.170   0.405   1.727  2.2314 -0.0068 -1.4043
  823SOL     MW 3292   2.249   0.442   1.750  0.1114  0.3234  0.0078
  824SOL     OW 3293   2.075   1.333   2.613 -0.0635  0.3290 -0.1124
  824SOL    HW1 3294   2.158   1.336   2.565  1.0795  1.7219 -0.8498
  824SOL    HW2 3295   2.071   1.426   2.643  0.2259  3.6139 -1.3744
  824SOL     MW 3296   2.085   1.345   2.611  0.1255  0.9462 -0.3762
  825SOL     OW 3297   2.045   2.577   0.295  0.0832  0.4994 -0.5116
  825SOL    HW1 3298   2.020   2.516   0.363  0.9351 -0.9843  0.0929
  825SOL    HW2 3299   2.118   2.549   0.239 -0.3573  1.4046 -2.2579
  825SOL     MW 3300   2.051   2.565   0.296  0.1375  0.4231 -0.6622
  826SOL     OW 3301   1.921   2.391   0.525  0.3362 -0.3857  0.1577
  826SOL    HW1 3302   1.871   2.313   0.562 -0.3193 -1.9663 -0.0115
  826SOL    HW2 3303   1.882   2.465   0.575 -1.3890 -0.0062  1.1518
  826SOL     MW 3304   1.909   2.391   0.537  0.0221 -0.5441  0.2665
  827SOL     OW 3305   1.938   2.196   0.869 -0.3621 -0.3600 -0.3256
  827SOL    HW1 3306   1.890   2.277   0.853 -1.7382 -3.2394 -3.7003
  827SOL    HW2 3307   1.871   2.129   0.888  3.4592  0.1588 -1.4618
  827SOL     MW 3308   1.923   2.198   0.870 -0.0395 -0.6715 -0.9207
  828SOL     OW 3309   0.060   2.691   0.611  0.2545 -0.2515 -0.7370
  828SOL    HW1 3310   0.141   2.643   0.615  0.6247  1.9492  0.7953
  828SOL    HW2 3311   0.065   2.722   0.524  2.6532 -3.9475 -0.9132
  828SOL     MW 3312   0.072   2.689   0.600  0.6198 -0.4488 -0.5580
  829SOL     OW 3313   2.963   2.920   1.271  0.1026  0.0579 -0.0574
  829SOL    HW1 3314   2.897   2.926   1.205  1.1930 -0.0469  0.0605
  829SOL    HW2 3315   3.023   2.849   1.256  1.6283  0.4039 -0.7199
  829SOL     MW 3316   2.962   2.911   1.260  0.4478  0.0897 -0.1293
  830SOL     OW 3317   2.492   2.832   2.039  0.1919 -0.2242  0.4477
  830SOL    HW1 3318   2.402   2.866   2.015 -0.3601  3.2098  1.5415
  830SOL    HW2 3319   2.537   2.815   1.957  0.8430 -1.2705  2.5035
  830SOL     MW 3320   2.486   2.834   2.025  0.2050  0.0908  0.8633
  831SOL     OW 3321   2.421   2.396   1.270 -0.0010  0.3016 -0.2397
  831SOL    HW1 3322   2.385   2.342   1.345  0.0537  0.3221  1.7176
  831SOL    HW2 3323   2.517   2.381   1.276 -1.3715  0.4231 -2.4669
  831SOL     MW 3324   2.429   2.387   1.280 -0.1746  0.3203 -0.2753
  832SOL     OW 3325   2.449   2.236   1.894 -0.4709  0.2563 -0.4845
  832SOL    HW1 3326   2.449   2.338   1.916 -1.6803  0.4146  1.0741
  832SOL    HW2 3327   2.542   2.211   1.880 -0.5243 -1.1880  0.8732
  832SOL     MW 3328   2.461   2.246   1.895 -0.6375  0.0866 -0.0997
  833SOL     OW 3329   1.768   2.431   0.914 -0.1671 -0.1728  0.7971
  833SOL    HW1 3330   1.676   2.414   0.925  1.3177 -0.9161  0.0993
  833SOL    HW2 3331   1.774   2.509   0.966  1.7736  1.3921  2.0054
  833SOL     MW 3332   1.756   2.439   0.922  0.2848 -0.0644  0.8645
  834SOL     OW 3333   2.229   2.460   0.548  0.0888 -0.2335 -0.0742
  834SOL    HW1 3334   2.155   2.398   0.549 -1.0193 -0.8987 -1.5278
  834SOL    HW2 3335   2.277   2.418   0.476  0.3730 -3.1544 -0.8102
  834SOL     MW 3336   2.226   2.447   0.539 -0.0199 -0.7066 -0.3631
  835SOL     OW 3337   1.796   2.581   0.691  0.9982 -0.4409 -0.3350
  835SOL    HW1 3338   1.790   2.531   0.787  0.4232  0.0850 -2.5518
  835SOL    HW2 3339   1.857   2.653   0.720  0.2921 -1.1444 -0.1149
  835SOL     MW 3340   1.803   2.584   0.708  0.8292 -0.4643 -0.5985
  836SOL     OW 3341   1.960   2.119   1.634 -0.4771 -0.0052  0.8363
  836SOL    HW1 3342   2.051   2.126   1.664  0.4745  0.6281 -1.7210
  836SOL    HW2 3343   1.936   2.205   1.663 -0.0390  0.7027 -0.0547
  836SOL     MW 3344   1.968   2.131   1.642 -0.2937  0.1718  0.3813
  837SOL     OW 3345   2.082   0.186   0.684 -0.0144 -0.3156 -0.1848
  837SOL    HW1 3346   1.999   0.240   0.669 -1.1629  2.8518  3.0892
  837SOL    HW2 3347   2.110   0.140   0.600  0.0049 -0.7369 -2.1043
  837SOL     MW 3348   2.075   0.187   0.671 -0.1634  0.0467 -0.0061
  838SOL     OW 3349   2.932   2.044   0.911 -0.6612 -0.5202  0.1864
  838SOL    HW1 3350   2.850   2.023   0.954  0.8501 -0.2332  1.7932
  838SOL    HW2 3351   2.942   1.975   0.842 -1.6446 -0.3030  0.1517
  838SOL     MW 3352   2.923   2.032   0.908 -0.5915 -0.4537  0.3938
  839SOL     OW 3353   1.514   2.347   0.925 -0.2938 -0.4984  0.2803
  839SOL    HW1 3354   1.474   2.427   0.961  1.8813 -1.0183 -0.0655
  839SOL    HW2 3355   1.531   2.284   0.999 -1.3283  1.7061  1.4903
  839SOL     MW 3356   1.511   2.349   0.939 -0.1433 -0.2761  0.3943
  840SOL     OW 3357   2.312   2.096   2.405 -0.6963  0.2492 -0.1290
  840SOL    HW1 3358   2.269   2.166   2.350  2.1203 -0.9901 -2.2420
  840SOL    HW2 3359   2.388   2.141   2.437  0.4851 -2.9510 -4.3478
  840SOL     MW 3360   2.316   2.111   2.402 -0.1688 -0.3366 -0.9644
  841SOL     OW 3361   2.212   2.416   0.107 -0.0549  0.3568 -0.2425
  841SOL    HW1 3362   2.255   2.426   0.022 -3.7027  2.5613  0.4404
  841SOL    HW2 3363   2.137   2.361   0.083 -0.7233 -3.7488  0.4665
  841SOL     MW 3364   2.208   2.410   0.093 -0.6244  0.1060 -0.0589
  842SOL     OW 3365   2.661   1.992   1.579  0.3950 -0.3000  0.4737
  842SOL    HW1 3366   2.613   1.908   1.582 -1.4392  4.6183 -1.7856
  842SOL    HW2 3367   2.630   2.032   1.502  1.2986 -1.7106 -2.5738
  842SOL     MW 3368   2.651   1.986   1.569  0.2723  0.1628 -0.2265
  843SOL     OW 3369   2.673   2.831   1.801  0.1741  0.3028  0.2318
  843SOL    HW1 3370   2.755   2.784   1.782 -0.2121  3.5892  2.1126
  843SOL    HW2 3371   2.614   2.775   1.753  2.0271  0.1574  1.7715
  843SOL     MW 3372   2.676   2.818   1.792  0.3677  0.7173  0.6831
  844SOL     OW 3373   2.675   2.314   1.219 -0.2260  0.2052  0.3990
  844SOL    HW1 3374   2.708   2.364   1.141  0.3533 -2.6684  1.5428
  844SOL    HW2 3375   2.734   2.316   1.289 -0.4910  0.6670 -1.0856
  844SOL     MW 3376   2.687   2.321   1.218 -0.1845 -0.1130  0.3540
  845SOL     OW 3377   2.844   2.467   0.278  0.2218  0.3608  0.1950
  845SOL    HW1 3378   2.792   2.382   0.300  2.4460  0.2707 -0.2493
  845SOL    HW2 3379   2.869   2.484   0.367  1.2426  2.0464 -1.2427
  845SOL     MW 3380   2.841   2.458   0.293  0.6500  0.5713 -0.0533
  846SOL     OW 3381   1.518   2.852   0.828  0.1990 -0.0549  0.0894
  846SOL    HW1 3382   1.610   2.878   0.832 -1.0934 -1.2408  1.4198
  846SOL    HW2 3383   1.473   2.931   0.851  2.1207  1.0750  1.7547
  846SOL     MW 3384   1.524   2.866   0.831  0.2820 -0.0623  0.4846
  847SOL     OW 3385   2.518   1.952   0.168 -0.3768  0.4566 -0.0854
  847SOL    HW1 3386   2.554   1.888   0.235  1.8329 -0.0501 -1.3472
  847SOL    HW2 3387   2.452   1.911   0.113  5.4777 -1.2935  0.2369
  847SOL     MW 3388   2.514   1.938   0.169  0.6872  0.1588 -0.2094
  848SOL     OW 3389   2.541   2.092   1.336  0.3777  0.8665 -0.1744
  848SOL    HW1 3390   2.602   2.141   1.288 -0.7314 -2.8741  1.8324
  848SOL    HW2 3391   2.513   2.017   1.281  2.1699 -0.9682  0.0648
  848SOL     MW 3392   2.545   2.088   1.322  0.4679  0.1309  0.1220
  849SOL     OW 3393   2.003   2.783   0.757 -0.0085  0.8800  0.0343
  849SOL    HW1 3394   2.045   2.728   0.824  1.5701  0.0129 -0.3290
  849SOL    HW2 3395   2.076   2.775   0.695  1.5674 -0.7637  3.6639
  849SOL     MW 3396   2.019   2.775   0.758  0.4077  0.5487  0.4652
  850SOL     OW 3397   2.285   1.919   1.721 -0.4537 -0.5802 -0.2232
  850SOL    HW1 3398   2.224   1.881   1.650  2.7812  1.2938 -1.7770
  850SOL    HW2 3399   2.263   2.013   1.733  0.0931 -0.5677 -0.4220
  850SOL     MW 3400   2.274   1.927   1.714  0.0452 -0.3313 -0.4544
  851SOL     OW 3401   2.369   2.370   0.314 -0.0214 -0.5623 -0.3359
  851SOL    HW1 3402   2.317   2.400   0.237  2.3764 -0.9933 -0.2882
  851SOL    HW2 3403   2.446   2.418   0.313 -2.0804 -0.3126  1.1601
  851SOL     MW 3404   2.372   2.380   0.303  0.0233 -0.5863 -0.1322
  852SOL     OW 3405   2.339   2.088   0.335  0.0972 -0.3724  0.4176
  852SOL    HW1 3406   2.348   2.182   0.323  2.2060 -1.0931  1.7704
  852SOL    HW2 3407   2.401   2.058   0.266 -0.0391 -0.2811  0.8208
  852SOL     MW 3408   2.348   2.097   0.324  0.3574 -0.4554  0.6493
  853SOL     OW 3409   2.468   2.506   1.969  0.3472  0.2184 -0.2915
  853SOL    HW1 3410   2.454   2.530   1.877  1.2237 -0.8987 -2.0964
  853SOL    HW2 3411   2.558   2.480   1.977 -1.0911  0.3708  0.2496
  853SOL     MW 3412   2.478   2.506   1.958  0.2731  0.0911 -0.4582
  854SOL     OW 3413   2.879   2.296   0.784  0.0366 -0.7989 -0.1384
  854SOL    HW1 3414   2.792   2.268   0.749 -0.6577 -0.7351 -0.8817
  854SOL    HW2 3415   2.920   2.217   0.828  0.6720  0.9994 -0.6904
  854SOL     MW 3416   2.873   2.282   0.785  0.0288 -0.5532 -0.3093
  855SOL     OW 3417   2.676   2.279   0.359  0.0990  0.1121 -0.1362
  855SOL    HW1 3418   2.654   2.330   0.433 -0.7123  1.1915  0.0021
  855SOL    HW2 3419   2.730   2.209   0.388 -2.2541 -1.0726  0.0266
  855SOL     MW 3420   2.680   2.277   0.372 -0.3185  0.0982 -0.0965
  856SOL     OW 3421   2.140   1.882   0.173 -0.0356  0.2729  0.5346
  856SOL    HW1 3422   2.061   1.877   0.221  2.7465  0.0212 -0.1481
  856SOL    HW2 3423   2.190   1.954   0.204 -0.9187 -0.5206 -1.3114
  856SOL     MW 3424   2.136   1.891   0.183  0.2149  0.1350  0.2009
  857SOL     OW 3425   2.497   1.985   0.525  0.1362  0.2366  0.5647
  857SOL    HW1 3426   2.426   2.015   0.464 -3.9875  1.1018 -2.6859
  857SOL    HW2 3427   2.455   1.904   0.548 -2.4633 -0.9091 -1.1895
  857SOL     MW 3428   2.482   1.978   0.520 -0.7508  0.1996 -0.0956
  858SOL     OW 3429   2.868   2.658   1.767 -0.2811  0.0248 -0.1891
  858SOL    HW1 3430   2.964   2.674   1.794  0.9829  0.4168  4.0751
  858SOL    HW2 3431   2.840   2.571   1.788  1.1921  1.0341 -0.2344
  858SOL     MW 3432   2.877   2.649   1.774  0.0800  0.2097  0.3675
  859SOL     OW 3433   2.114   2.563   0.940  0.5878 -0.2075 -0.1366
  859SOL    HW1 3434   2.081   2.498   1.005  0.5128  0.6386  1.0199
  859SOL    HW2 3435   2.208   2.544   0.933 -0.4777 -2.3709 -2.2926
  859SOL     MW 3436   2.122   2.552   0.947  0.4373 -0.3813 -0.2685
  860SOL     OW 3437   2.664   2.611   0.118 -0.0306  0.2774 -0.0373
  860SOL    HW1 3438   2.730   2.561   0.181 -0.8891  3.5877  1.3941
  860SOL    HW2 3439   2.706   2.696   0.099 -2.8987 -1.4680  0.3450
  860SOL     MW 3440   2.679   2.616   0.124 -0.5223  0.4839  0.2020
  861SOL     OW 3441   1.576   2.132   1.103  0.0193  0.4614 -0.7988
  861SOL    HW1 3442   1.620   2.186   1.166 -1.2259  1.1507  0.1968
  861SOL    HW2 3443   1.520   2.079   1.164  0.6329 -0.3504 -1.0214
  861SOL     MW 3444   1.575   2.132   1.119 -0.0640  0.4452 -0.6968
  862SOL     OW 3445   2.473   1.797   1.564  0.2177  0.2779 -0.0436
  862SOL    HW1 3446   2.429   1.842   1.635  0.3626  0.3312 -0.0172
  862SOL    HW2 3447   2.439   1.833   1.481  0.5186 -3.3163 -2.6845
  862SOL     MW 3448   2.463   1.808   1.562  0.2765 -0.1893 -0.3886
  863SOL     OW 3449   3.015   1.797   1.020  0.1933 -0.5166  0.4121
  863SOL    HW1 3450   3.088   1.792   1.084 -0.4902 -0.8008 -1.5386
  863SOL    HW2 3451   2.966   1.876   1.045 -1.5480 -0.3997 -1.1284
  863SOL     MW 3452   3.018   1.807   1.032 -0.1266 -0.5387 -0.0485
  864SOL     OW 3453   3.045   1.841   0.742  0.1196 -0.1484 -0.2100
  864SOL    HW1 3454   3.024   1.820   0.833 -3.4259 -0.3138  0.4261
  864SOL    HW2 3455   2.991   1.779   0.683 -1.7482 -1.1033 -1.4098
  864SOL     MW 3456   3.035   1.830   0.746 -0.5946 -0.2962 -0.2844
  865SOL     OW 3457   2.489   2.199   0.003 -0.3187  0.1018  0.2030
  865SOL    HW1 3458   2.507   2.139   0.076 -1.7563 -1.1174  0.2623
  865SOL    HW2 3459   2.436   2.159  -0.065 -0.0560  1.5351 -2.5925
  865SOL     MW 3460   2.484   2.185   0.004 -0.4737  0.1300 -0.1580
  866SOL     OW 3461   2.660   2.371   1.698 -0.0566 -0.1614  0.1277
  866SOL    HW1 3462   2.647   2.280   1.725 -0.8206 -0.2432 -0.7253
  866SOL    HW2 3463   2.704   2.366   1.608  2.0706  0.1280  0.5514
  866SOL     MW 3464   2.664   2.359   1.690  0.1232 -0.1340  0.0710
  867SOL     OW 3465   0.031   2.726   1.789  0.0839 -0.5182 -0.2801
  867SOL    HW1 3466   0.038   2.754   1.888  1.4457  0.0610 -2.1318
  867SOL    HW2 3467  -0.002   2.806   1.741 -1.8440 -0.8036  0.5718
  867SOL     MW 3468   0.028   2.740   1.796  0.0092 -0.4794 -0.4120
  868SOL     OW 3469   2.803   2.610   0.541 -0.7490  0.1503 -0.1625
  868SOL    HW1 3470   2.719   2.563   0.541 -1.5326 -0.0971 -0.0816
  868SOL    HW2 3471   2.795   2.664   0.462 -1.7888  0.6119 -1.2288
  868SOL     MW 3472   2.790   2.611   0.531 -0.9896  0.1786 -0.2925
  869SOL     OW 3473   2.066   2.326   1.105  0.5072 -0.2908 -0.3694
  869SOL    HW1 3474   2.151   2.319   1.066 -0.0827  1.6049 -0.3936
  869SOL    HW2 3475   1.995   2.293   1.047  0.2095  0.6268  0.7442
  869SOL     MW 3476   2.068   2.321   1.092  0.3901  0.0804 -0.2257
  870SOL     OW 3477   2.139   0.060   0.452  0.2681  0.1241 -0.0848
  870SOL    HW1 3478   2.214   0.102   0.402 -3.6259  0.7323 -1.5372
  870SOL    HW2 3479   2.170  -0.026   0.471  0.2015  0.7433 -2.3080
  870SOL     MW 3480   2.153   0.054   0.448 -0.2544  0.2861 -0.5698
  871SOL     OW 3481   2.508   2.065   0.971 -0.1682 -0.7477 -0.0958
  871SOL    HW1 3482   2.453   2.041   0.895  0.5020 -0.0556 -0.4697
  871SOL    HW2 3483   2.445   2.127   1.006 -1.6942 -3.4906  0.0010
  871SOL     MW 3484   2.493   2.070   0.966 -0.2811 -1.0183 -0.1323
  872SOL     OW 3485   2.018   2.534   1.558 -0.0505 -0.3468  0.3918
  872SOL    HW1 3486   1.984   2.545   1.648  0.5744 -1.0778  0.2133
  872SOL    HW2 3487   1.964   2.463   1.529  0.2397 -1.0651 -1.8204
  872SOL     MW 3488   2.007   2.526   1.566  0.0702 -0.5380  0.0764
  873SOL     OW 3489   2.917   2.011   1.970 -0.1019  0.0783 -0.0144
  873SOL    HW1 3490   2.910   2.080   2.039  1.8604  1.4177  0.1176
  873SOL    HW2 3491   2.997   2.025   1.929 -0.8913  1.6105  1.4975
  873SOL     MW 3492   2.926   2.022   1.973  0.0529  0.4572  0.2025
  874SOL     OW 3493   2.305   1.435   2.465  0.0895  0.1263  0.0940
  874SOL    HW1 3494   2.268   1.391   2.382  0.6295 -1.0660  0.5502
  874SOL    HW2 3495   2.379   1.377   2.492  1.3080 -1.8321 -2.7801
  874SOL     MW 3496   2.310   1.421   2.458  0.3215 -0.2894 -0.2250
  875SOL     OW 3497   2.341   2.277   1.032 -0.3659  0.4251 -0.5835
  875SOL    HW1 3498   2.381   2.334   0.966 -0.0196 -0.4360 -1.3751
  875SOL    HW2 3499   2.376   2.305   1.119  0.3856 -1.9687 -0.1825
  875SOL     MW 3500   2.351   2.288   1.035 -0.2210 -0.0044 -0.6350
  876SOL     OW 3501   3.056   2.280   1.295  0.3794 -0.1171  0.4450
  876SOL    HW1 3502   3.121   2.303   1.221 -0.2180  1.6546 -1.4111
  876SOL    HW2 3503   3.095   2.324   1.372 -1.3245  1.6402  0.8719
  876SOL     MW 3504   3.069   2.289   1.295  0.0757  0.3485  0.2565
  877SOL     OW 3505   0.005   2.754   0.314  0.3020  0.5016 -0.1762
  877SOL    HW1 3506   0.057   2.834   0.297 -0.8801  0.7691 -0.3954
  877SOL    HW2 3507  -0.031   2.727   0.230 -1.6754 -0.7868  0.2160
  877SOL     MW 3508   0.007   2.761   0.301 -0.1148  0.3669 -0.1534
  878SOL     OW 3509   2.387   1.821   1.313  0.0332  0.4103 -0.0180
  878SOL    HW1 3510   2.309   1.757   1.304 -0.3135 -0.5168 -1.7309
  878SOL    HW2 3511   2.455   1.769   1.271  0.1210 -2.2428 -1.7491
  878SOL     MW 3512   2.386   1.806   1.306 -0.0010 -0.0621 -0.4724
  879SOL     OW 3513   2.722   2.435   0.975  0.5519  0.2393 -0.2197
  879SOL    HW1 3514   2.757   2.527   0.980  1.0660 -1.4655  1.2394
  879SOL    HW2 3515   2.781   2.399   0.912 -0.3143  1.1369  1.3491
  879SOL     MW 3516   2.735   2.442   0.967  0.5054  0.1328  0.1798
  880SOL     OW 3517   2.615   2.163   0.734  0.0298  0.1670  0.2758
  880SOL    HW1 3518   2.588   2.128   0.815 -2.5264 -1.0281  1.6476
  880SOL    HW2 3519   2.578   2.115   0.660  1.5099 -2.6704  0.9334
  880SOL     MW 3520   2.607   2.152   0.735 -0.1121 -0.3650  0.5436
  881SOL     OW 3521   2.904   2.739   0.763  0.3444  0.2349  0.2449
  881SOL    HW1 3522   2.864   2.688   0.690 -1.6435 -1.1862 -1.8118
  881SOL    HW2 3523   3.003   2.732   0.746  1.2248  1.3550 -0.8846
  881SOL     MW 3524   2.912   2.731   0.751  0.1983  0.1952 -0.1755
  882SOL     OW 3525   2.229   2.895   1.955  0.0871  0.5120 -0.0662
  882SOL    HW1 3526   2.213   2.881   1.854 -1.1746 -1.0428  2.1964
  882SOL    HW2 3527   2.203   2.807   1.988 -0.8254 -3.6068  1.1607
  882SOL     MW 3528   2.223   2.882   1.946 -0.1997 -0.2366  0.3942
  883SOL     OW 3529   2.307   2.207   1.444 -0.0269 -0.1655 -0.2772
  883SOL    HW1 3530   2.386   2.157   1.416  0.2559  1.1476  0.1023
  883SOL    HW2 3531   2.232   2.177   1.389 -0.5140  1.4094  0.0933
  883SOL     MW 3532   2.307   2.197   1.433 -0.0539  0.2155 -0.1782
  884SOL     OW 3533   1.944   1.747   1.054 -0.0422  0.0701  0.1157
  884SOL    HW1 3534   1.895   1.820   1.021  1.9892 -0.7542 -0.7079
  884SOL    HW2 3535   2.037   1.779   1.046 -3.2201 -0.7569 -2.9164
  884SOL     MW 3536   1.950   1.761   1.049 -0.1935 -0.1478 -0.3930
  885SOL     OW 3537   2.890   2.372   1.848 -0.1747  0.3799 -0.1954
  885SOL    HW1 3538   2.976   2.348   1.819  0.3655 -2.6676  1.5129
  885SOL    HW2 3539   2.827   2.361   1.782  0.6793 -0.3820  0.1072
  885SOL     MW 3540   2.893   2.368   1.836  0.0093 -0.1227  0.0699
  886SOL     OW 3541   2.814   2.309   1.451 -0.3603 -0.4224  0.0918
  886SOL    HW1 3542   2.886   2.262   1.409 -2.7451  1.3018  1.2675
  886SOL    HW2 3543   2.835   2.406   1.459 -0.5636 -0.6031  1.2475
  886SOL     MW 3544   2.826   2.316   1.447 -0.7018 -0.2188  0.3994
  887SOL     OW 3545   2.285   2.618   1.565 -0.0769  0.3029  0.6995
  887SOL    HW1 3546   2.309   2.661   1.480  2.2079 -3.0817 -2.8965
  887SOL    HW2 3547   2.195   2.583   1.557  0.8991  0.3108  2.4344
  887SOL     MW 3548   2.276   2.619   1.553  0.3533 -0.1426  0.4539
  888SOL     OW 3549   1.875   2.073   1.384  0.7284  0.7770 -0.1541
  888SOL    HW1 3550   1.959   2.065   1.340  0.7014  1.1704 -1.1658
  888SOL    HW2 3551   1.909   2.088   1.472  0.2729  0.2921  0.5121
  888SOL     MW 3552   1.891   2.074   1.390  0.6647  0.7649 -0.1997
  889SOL     OW 3553   2.296   2.049   2.064  0.1101 -0.1200  0.0000
  889SOL    HW1 3554   2.352   2.011   2.133  1.9593 -1.4696  0.9420
  889SOL    HW2 3555   2.363   2.092   2.009 -1.0010  1.4638 -2.0480
  889SOL     MW 3556   2.312   2.049   2.066  0.2075 -0.0891 -0.1459
  890SOL     OW 3557   0.066   2.366   0.134 -0.2256 -0.4435  0.8938
  890SOL    HW1 3558   0.017   2.450   0.116  0.3075 -1.8617 -1.4114
  890SOL    HW2 3559   0.037   2.324   0.215 -1.0040  0.9423  0.0853
  890SOL     MW 3560   0.056   2.371   0.142 -0.2580 -0.4478  0.4830
  891SOL     OW 3561   3.023   2.006   1.300  0.3764  0.4340  0.0977
  891SOL    HW1 3562   3.114   2.004   1.307 -1.7277  0.5220 -0.2316
  891SOL    HW2 3563   3.021   2.098   1.272 -1.8981 -3.6047 -0.8268
  891SOL     MW 3564   3.034   2.018   1.297 -0.2013 -0.0872 -0.0677
  892SOL     OW 3565   2.447   2.320   2.751  0.4060 -0.0232  0.0586
  892SOL    HW1 3566   2.410   2.243   2.792 -0.9313  1.2209 -0.1963
  892SOL    HW2 3567   2.540   2.337   2.794  1.7783 -2.3571  3.9528
  892SOL     MW 3568   2.454   2.312   2.762  0.4106 -0.1670  0.5388
  893SOL     OW 3569   1.616   2.398   1.237 -0.3155  0.5484 -0.0619
  893SOL    HW1 3570   1.549   2.443   1.293  1.7993  0.3331  0.2313
  893SOL    HW2 3571   1.701   2.430   1.266 -0.8217  0.4146  1.1227
  893SOL     MW 3572   1.618   2.408   1.248 -0.1033  0.5023  0.1331
  894SOL     OW 3573   2.737   1.896   0.440 -0.5759 -0.6399 -0.0941
  894SOL    HW1 3574   2.648   1.904   0.475  1.4220  0.0480 -1.7731
  894SOL    HW2 3575   2.734   1.874   0.342 -1.5456  1.0977 -2.9129
  894SOL     MW 3576   2.725   1.894   0.432 -0.4402 -0.3198 -0.6876
  895SOL     OW 3577   2.120   2.086   1.227 -0.2498  0.1683  0.1570
  895SOL    HW1 3578   2.121   2.168   1.166 -1.4483  0.4592  1.7179
  895SOL    HW2 3579   2.135   2.017   1.162 -1.4971  1.3444  1.8809
  895SOL     MW 3580   2.122   2.088   1.211 -0.5725  0.3619  0.5904
  896SOL     OW 3581   2.277   2.798   1.085  1.1552  0.2181 -0.0627
  896SOL    HW1 3582   2.311   2.740   1.145 -1.1392  1.2243  1.2758
  896SOL    HW2 3583   2.195   2.741   1.056 -1.4265 -0.3114  2.5843
  896SOL     MW 3584   2.270   2.783   1.089  0.5118  0.2810  0.4631
  897SOL     OW 3585   3.024   2.985   0.026  0.6783  1.0148 -0.5826
  897SOL    HW1 3586   3.081   2.927  -0.030  0.8596 -2.8235 -4.1889
  897SOL    HW2 3587   2.943   2.937   0.023 -0.5978  0.0470 -0.7881
  897SOL     MW 3588   3.021   2.971   0.018  0.5338  0.3807 -1.0855
  898SOL     OW 3589   2.094   0.205   1.451  0.1723 -0.1449  0.2342
  898SOL    HW1 3590   2.088   0.119   1.499 -1.9995 -0.5225  0.4469
  898SOL    HW2 3591   2.100   0.177   1.356 -3.1050 -1.6486  0.6441
  898SOL     MW 3592   2.094   0.190   1.445 -0.5467 -0.3931  0.3164
  899SOL     OW 3593   2.898   2.980   0.642  0.4682 -0.4769 -0.1785
  899SOL    HW1 3594   2.897   2.897   0.696  1.2463 -2.4217  0.8184
  899SOL    HW2 3595   2.806   3.019   0.636  0.3499  2.0159 -0.5978
  899SOL     MW 3596   2.886   2.974   0.649  0.5553 -0.4046 -0.1023
  900SOL     OW 3597   0.117   2.408   1.098  0.0492  0.4221 -0.3127
  900SOL    HW1 3598   0.063   2.487   1.109  0.4687 -1.3534 -1.8614
  900SOL    HW2 3599   0.087   2.363   1.019  1.7218  0.2062 -0.9521
  900SOL     MW 3600   0.106   2.413   1.089  0.3252  0.1594 -0.6014
  901SOL     OW 3601   1.735   2.831   1.774 -0.5037  0.0650 -0.0847
  901SOL    HW1 3602   1.816   2.770   1.782 -0.1600 -0.3898  1.6089
  901SOL    HW2 3603   1.710   2.827   1.682  0.4511  1.3468 -0.8640
  901SOL     MW 3604   1.743   2.822   1.763 -0.3324  0.1741  0.0359
  902SOL     OW 3605   2.690   2.133   1.830  0.2810  0.0311 -0.5088
  902SOL    HW1 3606   2.672   2.081   1.754 -0.9465  1.4351 -0.7058
  902SOL    HW2 3607   2.776   2.106   1.867  1.2450  0.4251 -0.6123
  902SOL     MW 3608   2.699   2.123   1.825  0.2462  0.2683 -0.5485
  903SOL     OW 3609   1.597   2.737   0.561 -0.2201 -0.3659  0.3713
  903SOL    HW1 3610   1.668   2.678   0.597 -0.2977 -1.5218 -0.6574
  903SOL    HW2 3611   1.575   2.777   0.641  0.1528 -0.1932 -0.5655
  903SOL     MW 3612   1.604   2.735   0.576 -0.1812 -0.4956  0.1120
  904SOL     OW 3613   2.517   2.631   1.715  0.1640 -1.2978 -0.1638
  904SOL    HW1 3614   2.447   2.637   1.650  0.8826  0.6299 -2.2659
  904SOL    HW2 3615   2.560   2.551   1.704  1.9017  1.0010  0.8714
  904SOL     MW 3616   2.514   2.621   1.705  0.4881 -0.7401 -0.3046
  905SOL     OW 3617   2.291   2.551   2.175 -0.2888  0.0236 -0.1552
  905SOL    HW1 3618   2.359   2.521   2.111  0.7183  0.4237  2.6171
  905SOL    HW2 3619   2.265   2.469   2.219 -0.9267 -1.7994 -0.5423
  905SOL     MW 3620   2.297   2.536   2.172 -0.2401 -0.1641  0.1595
  906SOL     OW 3621   2.437   2.482   0.863 -0.0365  0.0395 -0.5083
  906SOL    HW1 3622   2.524   2.490   0.903 -2.9457 -2.0916  2.1179
  906SOL    HW2 3623   2.424   2.568   0.819 -2.4110 -3.9676  3.6260
  906SOL     MW 3624   2.447   2.494   0.863 -0.7336 -0.7704  0.3837
  907SOL     OW 3625   2.624   2.786   1.351  0.1132  0.2276  0.3485
  907SOL    HW1 3626   2.660   2.853   1.408 -1.3641  1.3141 -0.1786
  907SOL    HW2 3627   2.642   2.826   1.264  0.5845 -0.5204 -0.0988
  907SOL     MW 3628   2.632   2.800   1.347 -0.0195  0.2723  0.2199
  908SOL     OW 3629   2.737   2.340   3.072 -1.0166 -0.2196 -0.3469
  908SOL    HW1 3630   2.657   2.304   3.100  4.3004 -0.3648  2.9713
  908SOL    HW2 3631   2.733   2.433   3.100 -0.5139 -0.3314 -0.8307
  908SOL     MW 3632   2.726   2.348   3.080 -0.2487 -0.2535  0.0271
  909SOL     OW 3633   1.715   0.095   1.168  0.0183 -0.6921 -0.0126
  909SOL    HW1 3634   1.716   0.158   1.092  1.1432  1.0343  2.0922
  909SOL    HW2 3635   1.718   0.153   1.245  2.7844  2.5924  1.7734
  909SOL     MW 3636   1.716   0.111   1.168  0.5317 -0.0310  0.5008
  910SOL     OW 3637   2.296   1.752   0.447 -0.5978  0.6169 -0.4189
  910SOL    HW1 3638   2.252   1.668   0.461 -0.5957  0.2683 -0.3844
  910SOL    HW2 3639   2.233   1.803   0.401  0.5923 -0.1809 -2.7345
  910SOL     MW 3640   2.282   1.747   0.443 -0.4405  0.4657 -0.7198
  911SOL     OW 3641   2.246   2.189   1.709  0.6280 -0.0097 -0.2391
  911SOL    HW1 3642   2.321   2.203   1.769  2.2521 -0.6790  0.5827
  911SOL    HW2 3643   2.276   2.213   1.620 -0.5458 -0.7455 -1.2403
  911SOL     MW 3644   2.260   2.194   1.705  0.6874 -0.1951 -0.2628
  912SOL     OW 3645   2.946   1.929   1.536 -0.3019 -0.2239 -0.2798
  912SOL    HW1 3646   2.973   1.943   1.444 -1.8865 -0.1213  2.7216
  912SOL    HW2 3647   2.856   1.966   1.539  0.9568  2.1734  0.4221
  912SOL     MW 3648   2.938   1.936   1.525 -0.3449  0.1059  0.2088
  913SOL     OW 3649   2.628   3.040   0.365 -0.2464  0.1315 -0.0584
  913SOL    HW1 3650   2.705   2.982   0.352 -0.3900 -0.1235  0.3917
  913SOL    HW2 3651   2.560   2.975   0.342  4.3871  0.1515 -0.0413
  913SOL     MW 3652   2.629   3.023   0.360  0.3460  0.1005  0.0032
  914SOL     OW 3653   2.718   1.751   3.076 -0.0726 -0.3773 -0.7166
  914SOL    HW1 3654   2.743   1.819   3.008  1.2711  2.0324 -0.9841
  914SOL    HW2 3655   2.629   1.779   3.113 -0.6753 -0.0701  1.4618
  914SOL     MW 3656   2.710   1.763   3.072  0.0252 -0.0188 -0.4645
  915SOL     OW 3657   1.696   0.235   0.239  0.4935  0.1393 -0.2335
  915SOL    HW1 3658   1.762   0.185   0.295  0.8323 -1.8141  0.3002
  915SOL    HW2 3659   1.615   0.174   0.236  3.6780 -3.9527 -1.0393
  915SOL     MW 3660   1.694   0.220   0.246  0.9584 -0.6583 -0.2694
  916SOL     OW 3661   1.806   2.107   1.894 -0.1443  0.4208 -0.1366
  916SOL    HW1 3662   1.851   2.189   1.909 -2.1086 -1.4948  1.6599
  916SOL    HW2 3663   1.845   2.069   1.817 -0.0632 -0.0789  0.0702
  916SOL     MW 3664   1.817   2.113   1.886 -0.3928  0.1021  0.1277
  917SOL     OW 3665   2.548   2.208   2.498 -0.1524  0.6957 -0.1943
  917SOL    HW1 3666   2.515   2.249   2.579  0.2248 -0.8271  2.4167
  917SOL    HW2 3667   2.625   2.259   2.465 -0.0174  1.6067 -1.4507
  917SOL     MW 3668   2.554   2.220   2.505 -0.0848  0.6150 -0.0156
  918SOL     OW 3669   1.999   1.611   2.716 -0.0083 -0.0188  0.3452
  918SOL    HW1 3670   1.928   1.658   2.667  2.0688  0.4610 -0.3489
  918SOL    HW2 3671   2.083   1.656   2.698 -0.6091 -1.7951  1.1600
  918SOL     MW 3672   2.001   1.623   2.707  0.1865 -0.1899  0.3611
  919SOL     OW 3673   3.085   2.340   2.272 -0.3558 -0.2715 -0.5113
  919SOL    HW1 3674   3.042   2.258   2.255  1.8588 -0.8633 -0.1187
  919SOL    HW2 3675   3.136   2.370   2.200  1.3751  1.0125  0.7306
  919SOL     MW 3676   3.086   2.333   2.260  0.1648 -0.1802 -0.2956
  920SOL     OW 3677   2.712   2.852   3.103 -0.1795 -0.0140  0.3310
  920SOL    HW1 3678   2.630   2.898   3.116 -0.6820 -1.8809  0.0014
  920SOL    HW2 3679   2.681   2.787   3.037 -0.5729  2.0908 -0.7671
  920SOL     MW 3680   2.697   2.849   3.096 -0.2977  0.0174  0.1426
  921SOL     OW 3681   2.447   2.574   2.607 -0.5987 -0.6403 -0.0789
  921SOL    HW1 3682   2.532   2.603   2.578  0.7907  2.5829 -1.5591
  921SOL    HW2 3683   2.470   2.496   2.665 -0.8473  0.9375  1.2596
  921SOL     MW 3684   2.461   2.568   2.611 -0.4482 -0.0068 -0.0976
  922SOL     OW 3685   2.054   2.863   0.302 -0.1227 -0.3952 -0.0736
  922SOL    HW1 3686   2.029   2.879   0.210 -1.6352 -3.2634  0.4642
  922SOL    HW2 3687   2.045   2.770   0.313  0.9159  1.6855 -0.9164
  922SOL     MW 3688   2.049   2.853   0.292 -0.1852 -0.4991 -0.1139
  923SOL     OW 3689   2.145   2.825   1.706 -0.0648  0.0733 -0.1818
  923SOL    HW1 3690   2.199   2.770   1.651 -2.7716  0.1213 -1.3727
  923SOL    HW2 3691   2.133   2.903   1.654 -2.0068  0.8000 -0.1651
  923SOL     MW 3692   2.150   2.828   1.692 -0.6781  0.1755 -0.3368
  924SOL     OW 3693   1.165   2.651   2.522 -0.5540  0.7508  0.3732
  924SOL    HW1 3694   1.234   2.718   2.515 -0.0191  3.3525 -0.7797
  924SOL    HW2 3695   1.171   2.607   2.604 -0.7088 -0.6357 -1.9716
  924SOL     MW 3696   1.175   2.654   2.532 -0.5039  0.9111 -0.0883
  925SOL     OW 3697   3.018   0.191   2.650  0.7576 -0.1629  0.1026
  925SOL    HW1 3698   2.983   0.197   2.556  2.0491  0.5657  0.0376
  925SOL    HW2 3699   2.970   0.261   2.689 -1.0281  0.2790  1.1845
  925SOL     MW 3700   3.007   0.201   2.642  0.6924 -0.0084  0.2368
  926SOL     OW 3701   2.726   2.397   2.066 -0.5111  0.6805 -0.2961
  926SOL    HW1 3702   2.798   2.439   2.112  0.7490 -1.2951 -2.6316
  926SOL    HW2 3703   2.772   2.384   1.980  2.6976 -3.0832 -0.8120
  926SOL     MW 3704   2.742   2.401   2.061  0.0785 -0.0768 -0.6723
  927SOL     OW 3705   2.336   0.128   0.282  0.3435 -0.3012  1.0542
  927SOL    HW1 3706   2.429   0.154   0.283 -2.6705 -1.9320  0.6781
  927SOL    HW2 3707   2.320   0.107   0.187 -1.1375 -0.2580 -0.9810
  927SOL     MW 3708   2.346   0.128   0.269 -0.2496 -0.5107  0.7361
  928SOL     OW 3709   2.170   2.423   1.841 -0.0592 -0.4563 -1.3361
  928SOL    HW1 3710   2.161   2.385   1.928 -0.9458 -0.8815  1.3269
  928SOL    HW2 3711   2.205   2.357   1.783 -0.1679  0.2232  0.2801
  928SOL     MW 3712   2.173   2.410   1.845 -0.1905 -0.4228 -0.7715
  929SOL     OW 3713   2.751   2.395   2.447 -0.3542 -0.6044  0.4171
  929SOL    HW1 3714   2.808   2.416   2.374 -0.2990  4.3690 -0.6763
  929SOL    HW2 3715   2.805   2.372   2.523 -1.9240  1.4894  1.6129
  929SOL     MW 3716   2.766   2.395   2.447 -0.5541  0.3280  0.4306
  930SOL     OW 3717   2.012   2.882   2.720 -0.3448  0.1202  0.8901
  930SOL    HW1 3718   2.056   2.822   2.782  2.1211 -2.5133  0.9588
  930SOL    HW2 3719   2.085   2.923   2.677 -1.2188 -2.9719 -2.0048
  930SOL     MW 3720   2.027   2.879   2.723 -0.1348 -0.6352  0.5172
  931SOL     OW 3721   3.020   2.741   2.337  0.2973  0.0265  0.2908
  931SOL    HW1 3722   3.057   2.750   2.425 -1.0618 -1.1447  0.4565
  931SOL    HW2 3723   3.087   2.745   2.265  1.0697  2.6584 -2.4068
  931SOL     MW 3724   3.034   2.743   2.339  0.2199  0.2192 -0.0433
  932SOL     OW 3725   2.873   1.965   2.560  0.6081  0.2572  0.0612
  932SOL    HW1 3726   2.967   1.984   2.542  0.3915 -1.7065  1.6222
  932SOL    HW2 3727   2.825   1.983   2.478  0.9765 -1.7868 -2.0810
  932SOL     MW 3728   2.879   1.970   2.547  0.6281 -0.2716 -0.0154
  933SOL     OW 3729   2.059   2.845   2.272  0.6155 -0.6581 -0.1285
  933SOL    HW1 3730   2.148   2.868   2.301  0.4723  2.1238 -1.2001
  933SOL    HW2 3731   2.014   2.930   2.251 -0.4379  2.5043 -0.5853
  933SOL     MW 3732   2.064   2.860   2.273  0.4576  0.1262 -0.3302
  934SOL     OW 3733   2.027   2.704   2.493  0.0629  0.0351  0.4357
  934SOL    HW1 3734   2.025   2.767   2.567 -0.2831  2.7928 -1.6561
  934SOL    HW2 3735   2.025   2.762   2.412  1.5711 -0.4388  1.5354
  934SOL     MW 3736   2.027   2.720   2.492  0.2163  0.3364  0.3048
  935SOL     OW 3737   2.682   1.519   1.800  0.1727 -0.3691  0.1437
  935SOL    HW1 3738   2.760   1.524   1.741  1.0286  1.2187 -0.4588
  935SOL    HW2 3739   2.620   1.515   1.733 -2.1070 -0.2319  2.8818
  935SOL     MW 3740   2.684   1.519   1.783 -0.0152 -0.1415  0.4254
  936SOL     OW 3741   2.990   2.214   3.051  0.5404 -0.4799  0.1363
  936SOL    HW1 3742   3.058   2.255   3.104  0.6858  0.0603 -0.3026
  936SOL    HW2 3743   2.905   2.255   3.060 -0.1359  0.0111  0.1638
  936SOL     MW 3744   2.988   2.225   3.059  0.4703 -0.3438  0.0821
  937SOL     OW 3745   1.943   2.132   2.615  0.5906  0.0051 -0.1266
  937SOL    HW1 3746   2.030   2.106   2.651 -2.0260 -0.1859  0.9856
  937SOL    HW2 3747   1.936   2.091   2.530  0.5676 -0.9621 -0.5245
  937SOL     MW 3748   1.954   2.123   2.609  0.2423 -0.1477 -0.0323
  938SOL     OW 3749   2.279   1.775   1.971  0.3763 -0.0864  0.2749
  938SOL    HW1 3750   2.279   1.792   1.876 -0.3451 -1.5336  0.0504
  938SOL    HW2 3751   2.274   1.862   2.009 -0.8755  1.4198  0.8153
  938SOL     MW 3752   2.278   1.789   1.963  0.1160 -0.0786  0.3166
  939SOL     OW 3753   2.733   1.976   2.327  0.1474 -0.0111 -0.4284
  939SOL    HW1 3754   2.771   1.901   2.276 -0.8749  0.9001  0.4198
  939SOL    HW2 3755   2.633   1.978   2.303 -4.0586  2.6930 -0.5728
  939SOL     MW 3756   2.725   1.966   2.317 -0.5424  0.4659 -0.3355
  940SOL     OW 3757   2.281   0.169   2.653 -0.3582  0.0341  1.0126
  940SOL    HW1 3758   2.284   0.081   2.611  1.8020  1.6322 -1.3469
  940SOL    HW2 3759   2.318   0.169   2.747  2.0874  0.1598  2.5469
  940SOL     MW 3760   2.286   0.158   2.660  0.2495  0.2615  0.9037
  941SOL     OW 3761   0.127   2.443   2.066  0.0127  0.0523 -0.0309
  941SOL    HW1 3762   0.224   2.448   2.061 -3.5625  0.8548  1.9237
  941SOL    HW2 3763   0.101   2.394   1.995  0.6546 -1.3337  1.5467
  941SOL     MW 3764   0.136   2.437   2.056 -0.3744 -0.0247  0.4351
  942SOL     OW 3765   2.852   2.174   2.177 -0.0323  0.4443  0.1942
  942SOL    HW1 3766   2.779   2.233   2.167  1.9319  1.6396 -0.8243
  942SOL    HW2 3767   2.820   2.102   2.226 -0.5195  0.9882 -1.9217
  942SOL     MW 3768   2.838   2.173   2.182  0.1626  0.6737 -0.2193
  943SOL     OW 3769   0.314   2.119   2.264 -0.3944  0.1940 -0.2834
  943SOL    HW1 3770   0.271   2.164   2.335 -1.4527 -2.3094 -0.3175
  943SOL    HW2 3771   0.403   2.088   2.297  1.0389  1.9815  1.4297
  943SOL     MW 3772   0.320   2.121   2.278 -0.3449  0.0996 -0.0619
  944SOL     OW 3773   2.093   2.690   2.051 -0.3208 -0.8997 -1.1053
  944SOL    HW1 3774   2.161   2.637   2.100  0.4879 -2.7673  1.5024
  944SOL    HW2 3775   2.079   2.756   2.125  0.5141  3.6804 -0.4229
  944SOL     MW 3776   2.100   2.692   2.067 -0.1039 -0.5418 -0.6712
  945SOL     OW 3777   2.671   2.691   2.894  0.3301 -0.2202  0.3767
  945SOL    HW1 3778   2.669   2.598   2.881  0.4226  0.7735  1.7006
  945SOL    HW2 3779   2.622   2.733   2.824  0.3380 -0.7357 -1.7644
  945SOL     MW 3780   2.664   2.684   2.883  0.3433 -0.1571  0.2689
  946SOL     OW 3781   2.475   2.711   2.283 -0.2630 -0.2552 -0.9078
  946SOL    HW1 3782   2.477   2.747   2.195  0.8462 -1.8695  3.1102
  946SOL    HW2 3783   2.417   2.636   2.263 -1.2389 -3.3181 -0.0793
  946SOL     MW 3784   2.468   2.706   2.269 -0.2454 -0.8723 -0.2683
  947SOL     OW 3785   1.909   0.077   0.311 -0.2190  0.2000 -0.3006
  947SOL    HW1 3786   1.869  -0.008   0.326  1.2893  4.3352  0.6215
  947SOL    HW2 3787   1.995   0.066   0.363  0.0412 -2.1796  0.2687
  947SOL     MW 3788   1.915   0.064   0.320  0.0143  0.4316 -0.1039
  948SOL     OW 3789   1.807   3.050   2.685 -0.5184 -0.4278  0.0865
  948SOL    HW1 3790   1.872   2.979   2.675 -2.6561 -3.0676 -0.9998
  948SOL    HW2 3791   1.774   3.067   2.590 -0.9551  0.7007  0.7830
  948SOL     MW 3792   1.811   3.042   2.671 -0.8581 -0.6272  0.0351
  949SOL     OW 3793   2.473   1.927   2.276  0.1245  0.0988 -0.0552
  949SOL    HW1 3794   2.481   1.843   2.321  0.2931  1.7009 -0.4777
  949SOL    HW2 3795   2.406   1.975   2.332 -0.4953 -1.4763  0.7295
  949SOL     MW 3796   2.465   1.922   2.290  0.0650  0.1023 -0.0074
  950SOL     OW 3797   2.279   2.455   2.944  0.7645  0.2960 -0.5911
  950SOL    HW1 3798   2.334   2.413   2.875  1.2056 -0.7416 -1.5783
  950SOL    HW2 3799   2.204   2.503   2.900 -1.2162  0.5515 -1.7654
  950SOL     MW 3800   2.276   2.456   2.929  0.5613  0.1928 -0.8763
  951SOL     OW 3801   3.010   2.070   2.808 -0.1907 -0.2650  0.1766
  951SOL    HW1 3802   3.003   2.110   2.898  0.4904  1.1213  1.2425
  951SOL    HW2 3803   3.094   2.025   2.806  1.5235 -0.1622  1.1783
  951SOL     MW 3804   3.020   2.069   2.820  0.1253 -0.0685  0.4494
  952SOL     OW 3805   3.034   1.660   2.152  0.1560  0.4619  0.3942
  952SOL    HW1 3806   2.971   1.723   2.116 -0.3922 -0.8447  1.6004
  952SOL    HW2 3807   3.091   1.712   2.206 -1.5422  1.3330  0.8124
  952SOL     MW 3808   3.033   1.675   2.154 -0.1404  0.4044  0.6085
  953SOL     OW 3809   1.875   1.778   2.885  0.3652 -0.2771 -0.0167
  953SOL    HW1 3810   1.809   1.726   2.938  0.6435  2.0557  1.3620
  953SOL    HW2 3811   1.916   1.709   2.821  1.4526  0.8203 -2.0935
  953SOL     MW 3812   1.872   1.762   2.883  0.5454  0.1754 -0.1088
  954SOL     OW 3813   2.373   2.072   2.881  0.0756 -0.0742 -0.0658
  954SOL    HW1 3814   2.290   2.056   2.843  2.1289 -1.7623  2.6615
  954SOL    HW2 3815   2.430   2.025   2.811  1.5417  3.2321 -1.1404
  954SOL     MW 3816   2.370   2.064   2.867  0.5400  0.1393  0.1523
  955SOL     OW 3817   1.549   1.573   2.574 -0.0306  0.0475 -0.3045
  955SOL    HW1 3818   1.534   1.590   2.476  0.1545 -0.6253 -1.0035
  955SOL    HW2 3819   1.633   1.619   2.598 -1.4962  1.4543 -0.4280
  955SOL     MW 3820   1.558   1.582   2.564 -0.1996  0.1444 -0.4130
  956SOL     OW 3821   2.676   2.423   2.834 -0.0309 -0.2365 -0.2212
  956SOL    HW1 3822   2.708   2.397   2.920 -0.6796  0.7769 -2.9472
  956SOL    HW2 3823   2.739   2.389   2.764  3.3732 -1.7674  0.7781
  956SOL     MW 3824   2.689   2.415   2.836  0.3326 -0.3047 -0.4491
  957SOL     OW 3825   2.321   2.826   0.357  0.2460 -0.1966  0.0361
  957SOL    HW1 3826   2.233   2.848   0.328 -0.2307  1.3502  3.4433
  957SOL    HW2 3827   2.305   2.810   0.457 -1.3516 -0.1296  1.0856
  957SOL     MW 3828   2.307   2.826   0.367 -0.0276  0.0163  0.6241
  958SOL     OW 3829   2.100   2.626   2.831 -0.5568 -0.0212 -0.1107
  958SOL    HW1 3830   2.080   2.573   2.755  1.0293  0.3439  1.2711
  958SOL    HW2 3831   2.029   2.629   2.892  2.6485  1.1703  0.7329
  958SOL     MW 3832   2.088   2.619   2.829  0.0754  0.1842  0.1829
  959SOL     OW 3833   2.508   2.631   0.336  0.2370  0.6372 -0.0613
  959SOL    HW1 3834   2.558   2.638   0.261  1.9233  0.2088  0.7875
  959SOL    HW2 3835   2.444   2.707   0.337 -0.1131  1.2911 -0.0715
  959SOL     MW 3836   2.506   2.642   0.326  0.4133  0.6670  0.0494
  960SOL     OW 3837   1.933   2.297   2.258 -0.1430  0.1516  0.4464
  960SOL    HW1 3838   1.922   2.201   2.258 -0.3830  2.1617  0.7552
  960SOL    HW2 3839   1.871   2.326   2.324  2.9891  0.9776  0.2505
  960SOL     MW 3840   1.923   2.288   2.267  0.2386  0.5258  0.4613
  961SOL     OW 3841   2.195   2.320   2.281  0.1372  0.2477  0.7482
  961SOL    HW1 3842   2.102   2.300   2.269  2.2311 -3.1046  1.4374
  961SOL    HW2 3843   2.213   2.340   2.378 -0.5791 -1.8980  4.2565
  961SOL     MW 3844   2.185   2.320   2.292  0.3189 -0.4777  1.3020
  962SOL     OW 3845   2.147   2.026   2.750 -0.4710 -0.2059  0.0205
  962SOL    HW1 3846   2.124   2.020   2.839  1.2498  0.0834  1.4206
  962SOL    HW2 3847   2.177   1.937   2.722 -2.2293 -0.8818 -0.1039
  962SOL     MW 3848   2.148   2.014   2.758 -0.4759 -0.2569  0.1888
  963SOL     OW 3849   1.805   2.544   2.083  0.1088 -0.2091 -0.1457
  963SOL    HW1 3850   1.889   2.548   2.129  1.4427 -0.4143  2.5364
  963SOL    HW2 3851   1.806   2.472   2.022  1.8196  2.0280 -1.1305
  963SOL     MW 3852   1.816   2.535   2.081  0.5105  0.0590  0.0782
  964SOL     OW 3853   1.755   1.961   2.738  0.1438  0.0598 -0.4938
  964SOL    HW1 3854   1.828   2.012   2.699 -2.7257  0.0685 -1.4942
  964SOL    HW2 3855   1.788   1.885   2.797 -0.2561 -1.4338 -1.1854
  964SOL     MW 3856   1.769   1.958   2.741 -0.2876 -0.1361 -0.7171
  965SOL     OW 3857   2.233   2.742   0.621 -0.0053 -0.3326  0.2752
  965SOL    HW1 3858   2.238   2.648   0.598  0.9742  1.0633 -1.4701
  965SOL    HW2 3859   2.301   2.750   0.694  2.2485 -0.7623 -1.2851
  965SOL     MW 3860   2.243   2.731   0.628  0.4213 -0.2051 -0.1609
  966SOL     OW 3861   2.654   2.643   2.473 -0.4956 -0.7667 -0.2738
  966SOL    HW1 3862   2.590   2.678   2.412 -0.0444 -0.2750  0.6711
  966SOL    HW2 3863   2.689   2.555   2.454  1.1410  0.6249 -1.0026
  966SOL     MW 3864   2.651   2.636   2.463 -0.2202 -0.5182 -0.2453
  967SOL     OW 3865   2.764   3.053   2.891  0.1528  0.3350  0.4985
  967SOL    HW1 3866   2.746   2.988   2.957 -0.7666 -0.2742 -0.8402
  967SOL    HW2 3867   2.686   3.081   2.836 -0.3710  0.8564  0.5047
  967SOL     MW 3868   2.751   3.048   2.892 -0.0376  0.3234  0.3227
  968SOL     OW 3869   2.955   2.621   2.895 -0.5566  0.0880 -0.0267
  968SOL    HW1 3870   2.876   2.654   2.861  0.9238  1.5061  0.8541
  968SOL    HW2 3871   2.998   2.581   2.820  0.8727 -2.2944  0.7659
  968SOL     MW 3872   2.950   2.620   2.881 -0.1727 -0.0392  0.1941
  969SOL     OW 3873   1.621   2.162   1.636 -0.1683  0.3293  0.1138
  969SOL    HW1 3874   1.691   2.098   1.648  0.5487 -2.0337  1.1754
  969SOL    HW2 3875   1.585   2.175   1.724  2.5839  0.1377 -1.2615
  969SOL     MW 3876   1.626   2.155   1.649  0.2894 -0.0077  0.0724
  970SOL     OW 3877   1.693   1.795   1.959  0.2949 -0.1876  0.0360
  970SOL    HW1 3878   1.735   1.719   2.010  1.3152 -0.6553  2.8616
  970SOL    HW2 3879   1.600   1.773   1.926 -0.9632  0.9317  1.9453
  970SOL     MW 3880   1.686   1.782   1.961  0.2635 -0.1016  0.6608
  971SOL     OW 3881   1.743  -0.001   2.432  0.1384  0.1369  0.4224
  971SOL    HW1 3882   1.778  -0.031   2.351  0.8691  0.8601  1.9705
  971SOL    HW2 3883   1.786   0.085   2.447 -1.0317 -2.2088  1.4564
  971SOL     MW 3884   1.753   0.006   2.423  0.0804 -0.0772  0.7630
  972SOL     OW 3885   0.278   2.886   2.459  0.0772  0.3630  0.1721
  972SOL    HW1 3886   0.349   2.825   2.476 -1.2850 -0.8979 -0.5164
  972SOL    HW2 3887   0.324   2.972   2.461 -0.7535  0.9111 -0.7872
  972SOL     MW 3888   0.293   2.890   2.461 -0.2121  0.2690 -0.0453
  973SOL     OW 3889   2.538   0.014   2.099  0.1351  0.2701 -0.4088
  973SOL    HW1 3890   2.542  -0.083   2.083  0.0114 -2.1537 -2.1645
  973SOL    HW2 3891   2.544   0.058   2.010 -1.5577  2.0338  1.8004
  973SOL     MW 3892   2.539   0.007   2.085 -0.1046  0.1830 -0.3489
  974SOL     OW 3893   2.018   0.239   2.679  0.2685  0.3870 -0.2725
  974SOL    HW1 3894   2.102   0.198   2.677  0.0153  1.2555  0.1127
  974SOL    HW2 3895   1.978   0.221   2.765 -0.2499  1.8544  0.8440
  974SOL     MW 3896   2.024   0.231   2.690  0.1667  0.6952 -0.0743
  975SOL     OW 3897   2.220   2.491   2.506  0.4269  0.1027 -0.2508
  975SOL    HW1 3898   2.312   2.516   2.516  0.4859  1.5878  0.4990
  975SOL    HW2 3899   2.169   2.572   2.493 -1.0117  0.2935 -1.5283
  975SOL     MW 3900   2.225   2.505   2.505  0.2448  0.3238 -0.3204
  976SOL     OW 3901   0.227   0.368   1.771  0.1693 -0.0451  0.4230
  976SOL    HW1 3902   0.281   0.286   1.776 -0.9521  1.8154  1.9860
  976SOL    HW2 3903   0.142   0.329   1.734 -0.9726 -0.0954 -0.4768
  976SOL     MW 3904   0.223   0.352   1.767 -0.1293  0.1938  0.5105
  977SOL     OW 3905   1.748   2.664   2.562  0.2537  0.4697  0.2778
  977SOL    HW1 3906   1.743   2.572   2.529 -2.2937  2.2274  0.6164
  977SOL    HW2 3907   1.836   2.678   2.537  0.7926  0.4466 -0.5052
  977SOL     MW 3908   1.759   2.653   2.555 -0.0113  0.6985  0.2191
   3.10000   3.10000   3.10000
