977 TIP4P/2005f water molecules t=   0.91000 step= 910
 3908
    1SOL     OW    1   0.362   0.809   3.073  0.3993 -0.1734  0.4402
    1SOL    HW1    2   0.366   0.827   2.977  1.9016 -1.1096  1.5520
    1SOL    HW2    3   0.286   0.755   3.077  0.8734  3.5026 -1.5802
    1SOL     MW    4   0.353   0.804   3.061  0.6600  0.1881  0.3203
    2SOL     OW    5   0.321   3.014   1.163  0.1038  0.6841 -0.0012
    2SOL    HW1    6   0.347   3.102   1.140 -0.3732  2.3906 -0.9733
    2SOL    HW2    7   0.225   3.028   1.168 -0.7649 -1.0375  1.0067
    2SOL     MW    8   0.312   3.028   1.160 -0.0738  0.6821  0.0035
    3SOL     OW    9   2.639   0.417   0.947  0.1330 -0.5135 -0.4327
    3SOL    HW1   10   2.702   0.475   0.908 -4.0152  0.6251  2.9437
    3SOL    HW2   11   2.637   0.457   1.041 -0.6508  2.3658  3.4256
    3SOL     MW   12   2.647   0.430   0.954 -0.5177  0.0166  0.5219
    4SOL     OW   13   2.993   1.672   0.613 -0.4709 -0.5135 -0.3519
    4SOL    HW1   14   2.930   1.736   0.568 -1.7370  0.6773  0.7894
    4SOL    HW2   15   3.048   1.619   0.548  0.3820 -2.5478 -1.7516
    4SOL     MW   16   2.992   1.673   0.598 -0.5255 -0.6248 -0.3860
    5SOL     OW   17   1.737   1.511   0.512  0.0188  0.2095 -0.0076
    5SOL    HW1   18   1.776   1.462   0.587  0.3997 -1.2717  0.5340
    5SOL    HW2   19   1.648   1.491   0.507  2.3633 -1.1618  0.8169
    5SOL     MW   20   1.730   1.502   0.522  0.3784 -0.1669  0.1726
    6SOL     OW   21   0.801   1.438   0.607 -0.6442 -0.3652  0.1391
    6SOL    HW1   22   0.711   1.465   0.628 -0.7941 -0.9244 -1.6195
    6SOL    HW2   23   0.832   1.366   0.659  3.4569  0.0942  0.9781
    6SOL     MW   24   0.793   1.432   0.617 -0.1229 -0.3784  0.0178
    7SOL     OW   25   2.046   1.116   3.048  0.0863 -0.8432 -0.1700
    7SOL    HW1   26   2.086   1.188   2.995  0.3319 -1.8531 -0.8143
    7SOL    HW2   27   2.107   1.113   3.121 -0.5677 -1.4899 -0.9292
    7SOL     MW   28   2.059   1.125   3.051  0.0324 -1.0618 -0.3552
    8SOL     OW   29   0.912   1.406   1.044 -0.0192  0.0183  0.3785
    8SOL    HW1   30   1.010   1.394   1.059  2.4978  2.7039  1.2503
    8SOL    HW2   31   0.867   1.339   1.100 -1.2395 -0.7664  2.0086
    8SOL     MW   32   0.919   1.396   1.053  0.1519  0.2691  0.7086
    9SOL     OW   33   1.019   0.520   1.405 -0.0592  0.3184  0.2452
    9SOL    HW1   34   0.972   0.453   1.355  1.2151 -1.6622 -2.5263
    9SOL    HW2   35   1.059   0.479   1.486  1.2735 -0.0359  2.2004
    9SOL     MW   36   1.018   0.506   1.409  0.2847  0.0104  0.1375
   10SOL     OW   37   0.266   0.772   0.456 -0.5886 -0.5085 -0.2033
   10SOL    HW1   38   0.350   0.800   0.410 -0.4016  3.1930  0.5364
   10SOL    HW2   39   0.245   0.845   0.514  0.3904  2.4344 -1.1214
   10SOL     MW   40   0.275   0.785   0.458 -0.4347  0.3682 -0.2268
   11SOL     OW   41   0.806   1.141   1.731 -0.0784  0.5455  0.1408
   11SOL    HW1   42   0.837   1.119   1.819  2.5094 -2.4775 -2.4997
   11SOL    HW2   43   0.813   1.067   1.667  0.2859  1.1891  0.8395
   11SOL     MW   44   0.811   1.128   1.734  0.3111  0.2316 -0.1154
   12SOL     OW   45   0.059   1.090   0.870  0.4409 -0.4581 -0.4951
   12SOL    HW1   46   0.081   1.178   0.915  0.3919  3.7623 -0.0109
   12SOL    HW2   47   0.010   1.119   0.791 -1.2812 -0.0206 -0.1831
   12SOL     MW   48   0.056   1.105   0.865  0.2073  0.1564 -0.3900
   13SOL     OW   49   1.852   1.437   1.348  0.5873  0.0163 -0.6960
   13SOL    HW1   50   1.869   1.375   1.274  1.2409  0.0731  1.2014
   13SOL    HW2   51   1.885   1.524   1.324  2.1581 -0.0250  1.0969
   13SOL     MW   52   1.858   1.440   1.335  0.8808  0.0184 -0.2091
   14SOL     OW   53   0.647   0.412   1.881 -0.3343  0.4412  0.2296
   14SOL    HW1   54   0.590   0.342   1.858  0.3810  0.0810 -0.6571
   14SOL    HW2   55   0.720   0.390   1.945 -0.4497  3.5052 -0.1186
   14SOL     MW   56   0.649   0.400   1.886 -0.2551  0.7979  0.0667
   15SOL     OW   57   1.953   0.367   1.011 -0.2558 -0.7835 -0.3599
   15SOL    HW1   58   1.928   0.426   1.085 -1.6170  0.9486 -2.3058
   15SOL    HW2   59   2.020   0.409   0.953 -0.4533  1.0956 -0.0766
   15SOL     MW   60   1.959   0.380   1.013 -0.4615 -0.3070 -0.5792
   16SOL     OW   61   0.171   1.820   0.324  0.4829 -0.1734 -0.2477
   16SOL    HW1   62   0.248   1.777   0.360 -0.6008  0.4966  2.0218
   16SOL    HW2   63   0.182   1.911   0.351 -0.0272 -0.6681 -2.3958
   16SOL     MW   64   0.183   1.826   0.332  0.2726 -0.1503 -0.2317
   17SOL     OW   65   1.132   0.907   1.461  0.1978  0.0133 -0.8444
   17SOL    HW1   66   1.183   0.888   1.536 -0.1540  0.5348 -1.1466
   17SOL    HW2   67   1.039   0.902   1.493  2.1925 -0.2824  0.4856
   17SOL     MW   68   1.127   0.904   1.475  0.4146  0.0431 -0.7088
   18SOL     OW   69   0.048   1.577   0.406 -0.3803  0.3463  0.1819
   18SOL    HW1   70   0.078   1.666   0.375  0.0981 -0.2876  0.4136
   18SOL    HW2   71   0.049   1.535   0.324 -2.8139 -0.7537  0.9731
   18SOL     MW   72   0.052   1.583   0.391 -0.6383  0.1175  0.3168
   19SOL     OW   73   0.125   1.302   1.014 -0.2273 -0.5654  0.6726
   19SOL    HW1   74   0.169   1.351   0.947 -4.4870  0.6801  1.4608
   19SOL    HW2   75   0.038   1.348   1.013 -0.9144  3.7596 -1.5433
   19SOL     MW   76   0.119   1.314   1.005 -0.8800  0.1696  0.4843
   20SOL     OW   77   0.454   2.129   1.174  0.1624 -0.2128  0.7021
   20SOL    HW1   78   0.396   2.053   1.136  0.2970 -2.0311 -0.6890
   20SOL    HW2   79   0.402   2.168   1.245  1.1373 -1.8356 -2.6637
   20SOL     MW   80   0.440   2.124   1.178  0.3088 -0.6668  0.0744
   21SOL     OW   81   0.506   0.829   0.358 -0.6686  0.1064  0.5890
   21SOL    HW1   82   0.558   0.791   0.430 -0.6909 -0.8971  2.4350
   21SOL    HW2   83   0.548   0.814   0.274 -1.5731  2.8476  0.8144
   21SOL     MW   84   0.518   0.822   0.357 -0.7909  0.3357  0.8623
   22SOL     OW   85   1.539   0.714   1.059  0.6188 -0.2011 -0.0488
   22SOL    HW1   86   1.481   0.682   0.983  0.8854 -1.4942 -0.2219
   22SOL    HW2   87   1.511   0.800   1.092  0.9862  2.5355 -1.4140
   22SOL     MW   88   1.527   0.721   1.053  0.7025 -0.0107 -0.2518
   23SOL     OW   89   0.013   0.773   0.659 -0.1498  0.1000  0.0753
   23SOL    HW1   90   0.063   0.702   0.701 -0.4768 -1.5346 -1.7022
   23SOL    HW2   91   0.069   0.850   0.671 -4.0149  0.8996 -0.4131
   23SOL     MW   92   0.027   0.774   0.666 -0.7029 -0.0101 -0.2236
   24SOL     OW   93   1.995   2.230   0.093  0.0621 -0.1402 -0.8605
   24SOL    HW1   94   2.030   2.203   0.180  1.1546 -0.5756  1.9131
   24SOL    HW2   95   2.014   2.149   0.040  1.7275 -2.0483  0.0318
   24SOL     MW   96   2.002   2.216   0.098  0.4260 -0.4494 -0.3768
   25SOL     OW   97   0.263   1.413   0.509  0.4510 -0.1628  0.3997
   25SOL    HW1   98   0.203   1.480   0.474  1.4833 -0.7583 -0.5496
   25SOL    HW2   99   0.333   1.406   0.452 -1.7253  2.9457  2.2269
   25SOL     MW  100   0.265   1.421   0.497  0.3001  0.1688  0.5155
   26SOL     OW  101   2.035   0.988   0.349  0.0380  0.2130 -0.0097
   26SOL    HW1  102   1.972   1.028   0.405 -0.3645  0.1736 -0.0700
   26SOL    HW2  103   2.069   1.048   0.285  1.8248  0.7050 -0.6752
   26SOL     MW  104   2.031   1.001   0.348  0.2206  0.2727 -0.1055
   27SOL     OW  105   2.045   1.414   0.266 -0.2418  0.0208 -0.1415
   27SOL    HW1  106   1.956   1.445   0.271  0.5628  1.0925  2.3452
   27SOL    HW2  107   2.102   1.470   0.324  0.1406 -1.7407 -0.0473
   27SOL     MW  108   2.041   1.426   0.275 -0.0852 -0.0702  0.1990
   28SOL     OW  109   0.432   0.976   1.988  0.7129 -0.0595 -0.4277
   28SOL    HW1  110   0.487   1.012   2.063  0.3122 -0.4282  1.6009
   28SOL    HW2  111   0.359   0.936   2.039  5.0278  0.2280 -0.0211
   28SOL     MW  112   0.430   0.975   2.005  1.2294 -0.0702 -0.1064
   29SOL     OW  113   0.260   1.435   0.807  0.5709  0.1760 -0.0336
   29SOL    HW1  114   0.221   1.524   0.814  0.7349  0.2441 -1.7047
   29SOL    HW2  115   0.258   1.416   0.716  1.3173 -1.8182  1.4494
   29SOL     MW  116   0.255   1.444   0.796  0.6910 -0.0781 -0.0584
   30SOL     OW  117   0.834   1.177   1.218 -0.1393  0.2026 -0.1978
   30SOL    HW1  118   0.745   1.195   1.252  1.3688 -0.8061 -0.2277
   30SOL    HW2  119   0.896   1.196   1.291 -0.1656  0.4789  3.7000
   30SOL     MW  120   0.830   1.182   1.232  0.0562  0.1060  0.3125
   31SOL     OW  121   0.396   0.137   0.189 -0.3632 -0.3066 -0.4676
   31SOL    HW1  122   0.412   0.056   0.233  0.9909  2.4808  2.7125
   31SOL    HW2  123   0.446   0.120   0.109 -3.0212 -1.9672  2.1914
   31SOL     MW  124   0.405   0.124   0.184 -0.5352 -0.1579  0.3028
   32SOL     OW  125   2.801   0.982   1.117  0.6130 -0.1866  0.2597
   32SOL    HW1  126   2.735   0.929   1.078 -0.8865  1.2656  0.6010
   32SOL    HW2  127   2.889   0.954   1.101 -0.0341 -2.2758 -2.2932
   32SOL     MW  128   2.804   0.971   1.109  0.3298 -0.2706 -0.0321
   33SOL     OW  129   1.764   1.294   0.328 -0.2724 -0.2679 -0.1908
   33SOL    HW1  130   1.808   1.233   0.388 -0.3180 -0.2984  2.7261
   33SOL    HW2  131   1.754   1.378   0.373 -1.2784  0.0695 -1.6726
   33SOL     MW  132   1.769   1.297   0.342 -0.4111 -0.2274 -0.0015
   34SOL     OW  133   1.236   1.855   1.070  0.0482 -0.3400  0.3524
   34SOL    HW1  134   1.144   1.872   1.081 -1.0690 -0.5846  1.0006
   34SOL    HW2  135   1.280   1.884   1.148 -1.0042  2.4607 -2.5001
   34SOL     MW  136   1.230   1.861   1.082 -0.2381 -0.0028  0.0615
   35SOL     OW  137   0.448   0.223   1.821 -0.6183 -0.1733 -0.3124
   35SOL    HW1  138   0.450   0.164   1.897 -0.0824  1.6874  0.7834
   35SOL    HW2  139   0.461   0.170   1.744 -0.3888 -0.8487 -1.7662
   35SOL     MW  140   0.450   0.208   1.821 -0.5173 -0.0169 -0.3596
   36SOL     OW  141   1.945   1.972   0.529 -0.0143  0.3529  0.3532
   36SOL    HW1  142   1.961   1.956   0.433 -0.7542 -0.2162  2.0988
   36SOL    HW2  143   1.973   1.890   0.580 -0.4664 -0.4815 -0.0294
   36SOL     MW  144   1.951   1.959   0.523 -0.1716  0.1677  0.5330
   37SOL     OW  145   1.771   1.995   0.990  0.7946  0.0621 -0.1367
   37SOL    HW1  146   1.717   1.949   0.923 -3.0485 -0.8051  0.0312
   37SOL    HW2  147   1.708   2.045   1.038  0.7822  0.9214  0.1748
   37SOL     MW  148   1.756   1.996   0.987  0.2859  0.0611 -0.0734
   38SOL     OW  149   2.822   0.903   0.113  0.4203 -0.5278  0.0025
   38SOL    HW1  150   2.862   0.903   0.199  0.8348  1.2613  0.4524
   38SOL    HW2  151   2.894   0.897   0.045  0.6221  1.6814  1.0208
   38SOL     MW  152   2.836   0.903   0.115  0.5016 -0.0003  0.1962
   39SOL     OW  153   1.445   0.618   0.793 -0.0452  0.1282 -0.0574
   39SOL    HW1  154   1.414   0.529   0.802 -0.3068 -0.5965 -0.1985
   39SOL    HW2  155   1.372   0.668   0.756 -2.5506  2.7890  0.2308
   39SOL     MW  156   1.431   0.613   0.789 -0.4103  0.3837 -0.0380
   40SOL     OW  157   1.155   1.904   0.317 -0.1501  0.5075  0.8071
   40SOL    HW1  158   1.235   1.863   0.351 -0.2269  0.8232  0.9050
   40SOL    HW2  159   1.160   1.989   0.362  1.1275 -2.4891  3.1560
   40SOL     MW  160   1.166   1.910   0.327  0.0083  0.1538  1.1300
   41SOL     OW  161   0.574   0.561   1.627 -0.7651  0.2176  1.0167
   41SOL    HW1  162   0.658   0.598   1.601 -2.1832  2.8540 -0.3735
   41SOL    HW2  163   0.580   0.536   1.715 -1.6646  0.0261 -1.5406
   41SOL     MW  164   0.586   0.563   1.635 -1.0709  0.5402  0.4959
   42SOL     OW  165   1.292   3.002   1.989 -0.4197  0.1399  0.1337
   42SOL    HW1  166   1.216   3.039   2.038  1.3601 -0.8456  0.3357
   42SOL    HW2  167   1.326   2.930   2.044  2.8335 -1.1019 -0.0044
   42SOL     MW  168   1.287   2.997   2.003  0.2443 -0.1540  0.1421
   43SOL     OW  169   1.577   0.109   1.702 -0.6998  0.2850 -0.0509
   43SOL    HW1  170   1.593   0.092   1.606  0.6485  0.3137  1.7880
   43SOL    HW2  171   1.488   0.072   1.709 -0.3858  0.7635 -1.5040
   43SOL     MW  172   1.567   0.102   1.690 -0.4805  0.3519 -0.0000
   44SOL     OW  173   1.049   0.795   1.010 -0.0448  0.3251 -0.3106
   44SOL    HW1  174   1.090   0.882   1.012  0.1396 -0.0308  2.6817
   44SOL    HW2  175   1.025   0.777   1.099  0.0508  2.0260  0.9125
   44SOL     MW  176   1.052   0.804   1.022 -0.0079  0.5025  0.2456
   45SOL     OW  177   1.228   0.758   0.666 -0.3864  0.4513 -0.0020
   45SOL    HW1  178   1.152   0.814   0.667 -1.2486 -2.9916 -2.8790
   45SOL    HW2  179   1.200   0.691   0.608  0.1700  0.8641 -1.2071
   45SOL     MW  180   1.214   0.757   0.659 -0.4268  0.0515 -0.5406
   46SOL     OW  181   0.545   1.172   0.628  0.0131  0.2847 -0.4521
   46SOL    HW1  182   0.492   1.157   0.550  0.1248  1.6027  0.0435
   46SOL    HW2  183   0.636   1.132   0.612 -1.1458  2.2364  2.6490
   46SOL     MW  184   0.550   1.165   0.615 -0.1251  0.7161  0.0224
   47SOL     OW  185   0.165   1.981   1.934  0.2029 -0.2133  0.4180
   47SOL    HW1  186   0.247   1.931   1.939  1.0114  1.5171 -0.6436
   47SOL    HW2  187   0.142   2.018   2.021 -1.5242  0.2212 -1.0876
   47SOL     MW  188   0.173   1.980   1.946  0.0817  0.0724  0.0793
   48SOL     OW  189   1.086   0.501   0.964 -0.2895  0.6485  0.3541
   48SOL    HW1  190   1.004   0.454   0.983 -1.7920 -0.8332 -0.2691
   48SOL    HW2  191   1.071   0.590   0.972 -2.1774 -2.4668  0.4399
   48SOL     MW  192   1.073   0.507   0.967 -0.7369  0.0420  0.2832
   49SOL     OW  193   1.821   0.729   1.567 -0.4635 -0.2839 -0.3384
   49SOL    HW1  194   1.764   0.665   1.616  0.0341  1.1328  0.0680
   49SOL    HW2  195   1.881   0.681   1.515  0.0001 -1.0489 -0.7889
   49SOL     MW  196   1.821   0.714   1.567 -0.3367 -0.1979 -0.3442
   50SOL     OW  197   1.256   1.065   0.516  0.7158 -0.2078 -0.3968
   50SOL    HW1  198   1.202   1.089   0.593 -0.9055 -1.2739  2.5511
   50SOL    HW2  199   1.330   1.019   0.555  0.2250 -1.6825  1.1635
   50SOL     MW  200   1.259   1.062   0.532  0.4372 -0.5430  0.1980
   51SOL     OW  201   0.298   2.896   0.920  0.5004 -0.4863 -0.2889
   51SOL    HW1  202   0.379   2.843   0.929 -1.0627  3.6518  0.4568
   51SOL    HW2  203   0.294   2.947   1.005  1.4646 -1.6486 -0.3490
   51SOL     MW  204   0.308   2.896   0.933  0.4214 -0.0936 -0.1984
   52SOL     OW  205   0.794   1.802   0.477 -0.1709  0.1303  0.1970
   52SOL    HW1  206   0.803   1.897   0.486  1.3836 -1.8527  0.8296
   52SOL    HW2  207   0.787   1.789   0.381 -3.5469  0.6202  0.2027
   52SOL     MW  208   0.794   1.813   0.465 -0.4112 -0.0667  0.2812
   53SOL     OW  209   0.449   2.114   0.578  0.3025  0.0843 -0.8891
   53SOL    HW1  210   0.366   2.092   0.531  0.4046 -2.0614  1.1319
   53SOL    HW2  211   0.441   2.208   0.592 -0.2120 -0.3376  0.9894
   53SOL     MW  212   0.437   2.123   0.573  0.2481 -0.2545 -0.3746
   54SOL     OW  213   2.055   0.945   0.811 -0.7644 -0.3154 -0.3100
   54SOL    HW1  214   2.106   0.951   0.730 -0.1476  1.5423  0.8159
   54SOL    HW2  215   2.056   0.852   0.832 -1.1921 -1.1649 -2.8939
   54SOL     MW  216   2.062   0.933   0.803 -0.7394 -0.1824 -0.5023
   55SOL     OW  217   0.532   1.551   1.641 -0.3491  0.3450 -0.6112
   55SOL    HW1  218   0.449   1.566   1.594  0.6392  1.6156 -0.4718
   55SOL    HW2  219   0.580   1.485   1.595 -2.6078  0.6641 -1.5243
   55SOL     MW  220   0.527   1.544   1.629 -0.5167  0.5548 -0.7133
   56SOL     OW  221   0.591   0.789   0.103  0.1628 -0.2010  0.5536
   56SOL    HW1  222   0.616   0.878   0.092 -0.7213  0.5954  1.4697
   56SOL    HW2  223   0.503   0.780   0.058 -0.7825 -1.5777 -0.8291
   56SOL     MW  224   0.582   0.799   0.096 -0.0785 -0.2775  0.4921
   57SOL     OW  225   1.167   1.251   1.114 -0.2339  0.6540  0.2118
   57SOL    HW1  226   1.254   1.279   1.078 -0.4170 -1.3461 -1.9369
   57SOL    HW2  227   1.175   1.193   1.186 -0.8042  3.2278 -1.6140
   57SOL     MW  228   1.179   1.247   1.119 -0.3333  0.7297 -0.3126
   58SOL     OW  229   0.550   1.166   1.332  0.4378 -0.0091  0.1261
   58SOL    HW1  230   0.520   1.254   1.294 -2.3360  0.7697 -1.1988
   58SOL    HW2  231   0.544   1.169   1.424 -0.2931 -0.9677 -0.5821
   58SOL     MW  232   0.545   1.178   1.339 -0.0246 -0.0328 -0.1422
   59SOL     OW  233   1.553   1.710   0.351 -0.2877  0.0709  0.2876
   59SOL    HW1  234   1.595   1.770   0.413  0.1905  2.1766 -0.2346
   59SOL    HW2  235   1.458   1.710   0.373  2.1380  1.1707 -1.0961
   59SOL     MW  236   1.546   1.718   0.362  0.0955  0.4938  0.0361
   60SOL     OW  237   0.048   0.209   1.573  0.6683  0.5744  0.3546
   60SOL    HW1  238  -0.034   0.247   1.603  3.7089 -0.2970 -2.8070
   60SOL    HW2  239   0.072   0.147   1.644  3.4929 -1.0247  0.2507
   60SOL     MW  240   0.040   0.205   1.587  1.4421  0.2484 -0.0763
   61SOL     OW  241   2.034   1.505   3.087  0.5982 -0.5424 -0.1311
   61SOL    HW1  242   2.057   1.493   3.182  1.7014  1.2414  0.6110
   61SOL    HW2  243   2.102   1.445   3.050 -0.5147 -0.8862 -2.5275
   61SOL     MW  244   2.046   1.496   3.095  0.5969 -0.3524 -0.3494
   62SOL     OW  245   0.591   1.736   0.628 -0.2863 -0.1800 -0.3960
   62SOL    HW1  246   0.683   1.748   0.581  2.6835 -0.0240 -0.5334
   62SOL    HW2  247   0.582   1.641   0.632 -0.6829  0.6762  0.6360
   62SOL     MW  248   0.602   1.725   0.623  0.0532 -0.0465 -0.2780
   63SOL     OW  249   1.711   0.683   0.723  0.0655  0.2561 -0.6150
   63SOL    HW1  250   1.710   0.753   0.658  2.2348 -0.0102 -1.0273
   63SOL    HW2  251   1.627   0.686   0.770 -1.7341  0.2098 -2.6581
   63SOL     MW  252   1.700   0.692   0.720  0.1143  0.2148 -0.9389
   64SOL     OW  253   0.170   1.701   0.811 -0.1940 -0.1954  0.4180
   64SOL    HW1  254   0.229   1.747   0.743  2.5408  0.4396  1.0625
   64SOL    HW2  255   0.088   1.760   0.812  1.1190 -0.4314  0.8657
   64SOL     MW  256   0.167   1.715   0.803  0.3401 -0.1428  0.5621
   65SOL     OW  257   1.588   2.292   0.385  0.5578 -0.0290 -0.2190
   65SOL    HW1  258   1.649   2.233   0.424 -3.7172 -0.8233  3.3838
   65SOL    HW2  259   1.568   2.356   0.454  0.2067  0.9571  1.2220
   65SOL     MW  260   1.593   2.293   0.399 -0.0526 -0.0037  0.4465
   66SOL     OW  261   0.279   0.510   0.533 -0.2162 -0.2524 -0.0133
   66SOL    HW1  262   0.343   0.465   0.463  1.5431  1.7567  1.5847
   66SOL    HW2  263   0.289   0.602   0.510 -0.9715  2.4171 -2.8948
   66SOL     MW  264   0.289   0.516   0.520 -0.0837  0.3649 -0.1826
   67SOL     OW  265   1.556   0.056   2.046 -0.3421  0.2677 -0.3983
   67SOL    HW1  266   1.577   0.079   1.953  3.0100 -0.2240  0.3504
   67SOL    HW2  267   1.525  -0.038   2.049  0.1241 -1.9907  0.9760
   67SOL     MW  268   1.554   0.047   2.034  0.1617 -0.0951 -0.1182
   68SOL     OW  269   0.720   0.072   2.923  0.4838 -0.3666 -0.1817
   68SOL    HW1  270   0.761   0.138   2.867  0.5877  1.0049  0.2692
   68SOL    HW2  271   0.768   0.087   3.005  0.1618  0.1038 -2.8144
   68SOL     MW  272   0.732   0.083   2.927  0.4550 -0.1236 -0.4695
   69SOL     OW  273   1.039   0.248   1.985  0.4982 -0.1567 -0.5015
   69SOL    HW1  274   1.133   0.256   1.993 -1.5184  1.1632 -0.4062
   69SOL    HW2  275   1.030   0.161   2.027 -0.4614 -3.4976 -1.6152
   69SOL     MW  276   1.050   0.238   1.992  0.1055 -0.4234 -0.6358
   70SOL     OW  277   0.536   1.737   1.131  0.3048  0.2349 -0.0481
   70SOL    HW1  278   0.571   1.747   1.220 -0.3937 -0.2020  1.3199
   70SOL    HW2  279   0.598   1.770   1.069 -1.4574 -1.2223 -0.4342
   70SOL     MW  280   0.549   1.742   1.134 -0.0198 -0.0150  0.0815
   71SOL     OW  281   1.579   0.501   1.246  0.2359 -0.3137 -0.2015
   71SOL    HW1  282   1.519   0.551   1.299  0.0878 -0.2993 -0.3698
   71SOL    HW2  283   1.574   0.546   1.162  0.8666 -1.6299 -0.6448
   71SOL     MW  284   1.571   0.514   1.242  0.2995 -0.4855 -0.2822
   72SOL     OW  285   0.754   1.849   0.959 -0.0667 -0.1498 -0.3072
   72SOL    HW1  286   0.761   1.925   0.896 -1.9708  0.9519 -0.2288
   72SOL    HW2  287   0.752   1.763   0.908 -1.5798 -4.5129  0.6842
   72SOL     MW  288   0.755   1.847   0.944 -0.5176 -0.5801 -0.1661
   73SOL     OW  289   1.182   0.717   1.273  0.6652 -0.4792 -0.6512
   73SOL    HW1  290   1.136   0.642   1.315 -0.8365  1.4516  0.4233
   73SOL    HW2  291   1.179   0.791   1.340  1.2954 -0.1167  0.9393
   73SOL     MW  292   1.176   0.717   1.288  0.5502 -0.1766 -0.2995
   74SOL     OW  293   2.713   0.137   0.972 -0.1907 -0.0025 -0.3318
   74SOL    HW1  294   2.770   0.107   0.906 -0.7176  1.1330  0.3142
   74SOL    HW2  295   2.711   0.232   0.953 -1.6278 -0.9161 -0.0586
   74SOL     MW  296   2.720   0.145   0.961 -0.4498  0.0268 -0.2105
   75SOL     OW  297   1.610   1.368   0.109 -0.0073  0.5368 -0.1494
   75SOL    HW1  298   1.650   1.456   0.115  1.1924  1.5882 -1.6554
   75SOL    HW2  299   1.643   1.327   0.191 -0.5258  0.2168 -2.8400
   75SOL     MW  300   1.620   1.374   0.121  0.0825  0.6333 -0.7031
   76SOL     OW  301   2.998   0.580   0.481 -0.5315 -0.6825  0.1207
   76SOL    HW1  302   3.037   0.643   0.543 -1.2446 -1.0523  0.7998
   76SOL    HW2  303   3.072   0.527   0.441  1.6330  1.1580 -3.7954
   76SOL     MW  304   3.013   0.582   0.484 -0.3400 -0.4884 -0.3064
   77SOL     OW  305   0.814   0.525   0.468 -0.2055  0.3869  0.3661
   77SOL    HW1  306   0.776   0.544   0.380 -0.9610  2.1518 -0.3367
   77SOL    HW2  307   0.760   0.451   0.498  1.5686  1.4456 -0.8430
   77SOL     MW  308   0.802   0.518   0.460 -0.0711  0.7595  0.1139
   78SOL     OW  309   0.723   0.904   1.306  0.3773 -0.2572 -0.4313
   78SOL    HW1  310   0.710   0.996   1.291 -2.5229  0.3020  0.8339
   78SOL    HW2  311   0.672   0.861   1.234 -2.1739 -2.0993 -1.3967
   78SOL     MW  312   0.715   0.911   1.295 -0.3420 -0.4265 -0.3917
   79SOL     OW  313   1.960   1.685   0.593  0.3253 -0.2558  0.2324
   79SOL    HW1  314   1.883   1.651   0.544  1.6313 -0.1378 -0.3979
   79SOL    HW2  315   1.932   1.677   0.688  1.7464  1.2328  0.3942
   79SOL     MW  316   1.946   1.679   0.599  0.6851 -0.0438  0.1706
   80SOL     OW  317   0.077   0.942   0.336  0.4555  0.0591 -0.2314
   80SOL    HW1  318  -0.016   0.904   0.330 -0.8154  0.1753  1.6881
   80SOL    HW2  319   0.130   0.867   0.362  1.4500 -0.0587  0.2000
   80SOL     MW  320   0.072   0.927   0.339  0.4190  0.0589  0.0788
   81SOL     OW  321   1.927   1.893   0.271 -0.3612 -0.7143  0.3265
   81SOL    HW1  322   1.876   1.811   0.272  0.5207 -2.0250  1.6125
   81SOL    HW2  323   1.866   1.955   0.231 -0.8444  2.3084 -0.4613
   81SOL     MW  324   1.912   1.890   0.266 -0.3086 -0.4884  0.3923
   82SOL     OW  325   0.799   1.013   0.546 -0.4830 -0.1634  0.4627
   82SOL    HW1  326   0.786   1.033   0.446 -0.6465 -2.1574 -0.6970
   82SOL    HW2  327   0.757   0.929   0.562  0.8191  0.9609  1.0090
   82SOL     MW  328   0.791   1.004   0.535 -0.3327 -0.2782  0.3817
   83SOL     OW  329   0.066   0.646   1.464 -0.0950 -0.1527 -0.4424
   83SOL    HW1  330   0.082   0.711   1.388 -0.1215 -0.9058  0.8837
   83SOL    HW2  331   0.156   0.615   1.476  1.0048 -0.0759 -1.1013
   83SOL     MW  332   0.080   0.650   1.456  0.0467 -0.2420 -0.3544
   84SOL     OW  333   0.125   0.256   1.017 -0.5631 -0.6543  0.4741
   84SOL    HW1  334   0.043   0.298   0.974 -0.4791 -1.3487  2.7895
   84SOL    HW2  335   0.092   0.181   1.066  2.7465 -0.2435  1.5323
   84SOL     MW  336   0.110   0.252   1.018 -0.1153 -0.6918  0.9192
   85SOL     OW  337   0.465   0.445   0.723  0.2981  0.1637  0.4618
   85SOL    HW1  338   0.411   0.473   0.651 -0.9210 -0.3122 -0.7706
   85SOL    HW2  339   0.447   0.351   0.741  0.2550 -1.9129  0.8937
   85SOL     MW  340   0.455   0.436   0.716  0.1315 -0.1731  0.3562
   86SOL     OW  341   1.165   0.265   1.129  0.4429 -0.2537  0.1067
   86SOL    HW1  342   1.142   0.339   1.079 -0.5625  1.2458  1.5694
   86SOL    HW2  343   1.189   0.295   1.218 -2.6048 -1.1346  1.2916
   86SOL     MW  344   1.165   0.278   1.134 -0.0919 -0.1721  0.4560
   87SOL     OW  345   1.269   1.471   1.331  0.6099  0.1144 -0.6176
   87SOL    HW1  346   1.267   1.523   1.249 -0.3679  2.2742  0.4037
   87SOL    HW2  347   1.247   1.381   1.300  0.3890 -0.0943 -0.5888
   87SOL     MW  348   1.266   1.466   1.316  0.4518  0.3718 -0.4790
   88SOL     OW  349   1.188   1.025   0.980 -0.2492  0.2230  0.3268
   88SOL    HW1  350   1.279   1.009   0.956 -0.4108 -1.0562  1.9984
   88SOL    HW2  351   1.193   1.104   1.035 -0.1028 -0.7554 -2.5855
   88SOL     MW  352   1.200   1.034   0.984 -0.2512 -0.0749  0.1631
   89SOL     OW  353   1.761   0.702   0.367 -0.1639  0.3044 -0.5132
   89SOL    HW1  354   1.735   0.611   0.397 -1.4707  0.1492  2.7233
   89SOL    HW2  355   1.842   0.701   0.320 -0.6058 -0.1204 -0.3914
   89SOL     MW  356   1.768   0.690   0.365 -0.3946  0.2278 -0.0701
   90SOL     OW  357   0.736   1.146   2.734  0.8042 -0.2371 -0.4564
   90SOL    HW1  358   0.803   1.087   2.717  0.8232  0.7589  1.5712
   90SOL    HW2  359   0.736   1.159   2.826 -2.7933 -1.5685  1.9584
   90SOL     MW  360   0.745   1.140   2.744  0.3320 -0.2814  0.1298
   91SOL     OW  361   2.185   0.669   0.435  0.4440  0.1669 -0.0790
   91SOL    HW1  362   2.260   0.681   0.377 -0.1415 -0.3927 -0.6081
   91SOL    HW2  363   2.161   0.580   0.419  0.9865  0.5090  0.6399
   91SOL     MW  364   2.192   0.659   0.425  0.4383  0.1382 -0.0540
   92SOL     OW  365   1.721   0.904   0.546  0.0308 -0.1821  0.6933
   92SOL    HW1  366   1.623   0.910   0.557  1.3245  1.5582 -1.6878
   92SOL    HW2  367   1.742   0.835   0.484 -3.7439  1.1892  1.3880
   92SOL     MW  368   1.711   0.896   0.539 -0.2965  0.2284  0.4708
   93SOL     OW  369   0.962   0.238   0.395  0.5566 -0.0134 -0.4932
   93SOL    HW1  370   0.893   0.301   0.415  0.7700  0.0329  3.2748
   93SOL    HW2  371   1.004   0.265   0.313  1.6575 -0.6450 -0.0456
   93SOL     MW  372   0.959   0.250   0.387  0.7300 -0.0906  0.0630
   94SOL     OW  373   1.808   1.429   1.647  0.8877 -0.3744  0.1617
   94SOL    HW1  374   1.819   1.422   1.555  3.5626  0.4854 -0.8621
   94SOL    HW2  375   1.784   1.339   1.685 -0.4822 -1.6523  1.2856
   94SOL     MW  376   1.807   1.416   1.640  1.0599 -0.4296  0.1749
   95SOL     OW  377   0.736   1.566   0.913  0.2963  0.2513  0.2584
   95SOL    HW1  378   0.794   1.526   0.976 -0.5052  2.2703  0.9120
   95SOL    HW2  379   0.646   1.531   0.919 -0.9801  1.9868  0.1715
   95SOL     MW  380   0.732   1.556   0.922  0.0222  0.7466  0.3332
   96SOL     OW  381   1.276   1.869   1.667  0.2829  0.0366 -0.9142
   96SOL    HW1  382   1.196   1.836   1.715 -4.1182 -1.1730 -1.3240
   96SOL    HW2  383   1.307   1.790   1.642 -2.7155  2.4810  1.3906
   96SOL     MW  384   1.269   1.854   1.670 -0.6934  0.1995 -0.6641
   97SOL     OW  385   1.262   1.439   0.735 -0.0190  0.7000  0.4218
   97SOL    HW1  386   1.290   1.468   0.819 -0.4919  0.1362  1.5227
   97SOL    HW2  387   1.175   1.476   0.716 -1.0467 -0.7440 -1.7803
   97SOL     MW  388   1.254   1.447   0.743 -0.2170  0.4351  0.2765
   98SOL     OW  389   1.441   1.290   1.042 -0.5254 -0.6297 -0.2086
   98SOL    HW1  390   1.506   1.342   1.099  1.1340  1.6827 -0.5296
   98SOL    HW2  391   1.485   1.267   0.958  1.1044 -2.7914  1.2935
   98SOL     MW  392   1.456   1.294   1.039 -0.0914 -0.6098 -0.0528
   99SOL     OW  393   1.351   0.347   1.342 -0.5840 -0.2957  0.0842
   99SOL    HW1  394   1.433   0.359   1.292 -2.2729 -1.3557 -0.0673
   99SOL    HW2  395   1.371   0.382   1.426  4.0142 -2.5436 -1.1168
   99SOL     MW  396   1.364   0.353   1.346 -0.2002 -0.7322 -0.0943
  100SOL     OW  397   1.007   1.182   1.441  0.0214 -0.1465  0.2572
  100SOL    HW1  398   1.038   1.202   1.532  0.8700  0.0729  0.6581
  100SOL    HW2  399   0.994   1.086   1.449 -0.5994  0.8074  1.9802
  100SOL     MW  400   1.010   1.172   1.454  0.0514  0.0083  0.5375
  101SOL     OW  401   0.482   1.099   0.343 -0.0992  0.3620  0.4180
  101SOL    HW1  402   0.495   1.004   0.344  0.6718 -2.3307  0.8418
  101SOL    HW2  403   0.503   1.124   0.256 -1.0742  1.3910 -1.4425
  101SOL     MW  404   0.486   1.090   0.332 -0.1261  0.1425  0.2284
  102SOL     OW  405   2.932   0.643   1.083 -0.0151  0.1358 -0.0552
  102SOL    HW1  406   2.974   0.731   1.077 -0.5441 -1.4302  1.5283
  102SOL    HW2  407   2.921   0.622   1.178  0.9185  2.1537 -0.2075
  102SOL     MW  408   2.936   0.652   1.095  0.0383  0.1954  0.1336
  103SOL     OW  409   1.801   0.267   1.796 -0.4089  0.6543  0.2468
  103SOL    HW1  410   1.740   0.192   1.758 -1.0415  0.7611 -0.6385
  103SOL    HW2  411   1.795   0.268   1.891 -0.3502  0.7322 -3.1873
  103SOL     MW  412   1.792   0.258   1.803 -0.4846  0.6787 -0.3231
  104SOL     OW  413   0.118   1.633   1.493  0.9873 -0.4593 -0.1253
  104SOL    HW1  414   0.066   1.692   1.556  2.3935 -1.3320  1.3227
  104SOL    HW2  415   0.056   1.578   1.450 -0.3036 -3.6396 -1.7521
  104SOL     MW  416   0.103   1.633   1.496  1.0025 -0.9940 -0.1489
  105SOL     OW  417   0.020   1.209   0.433  0.1679  0.6225  0.0633
  105SOL    HW1  418   0.050   1.119   0.405 -0.8219 -1.4434 -1.9383
  105SOL    HW2  419   0.108   1.258   0.441  0.9075 -0.5690  1.9915
  105SOL     MW  420   0.036   1.204   0.430  0.1349  0.1927  0.0536
  106SOL     OW  421   0.853   0.361   1.001  0.2501 -0.3215 -0.4029
  106SOL    HW1  422   0.800   0.422   0.944 -0.9808 -0.3841  0.8291
  106SOL    HW2  423   0.897   0.302   0.936 -1.4116  0.6900 -1.7141
  106SOL     MW  424   0.851   0.361   0.985 -0.1316 -0.1963 -0.4134
  107SOL     OW  425   0.794   2.168   2.991  0.3535  0.6152  0.0783
  107SOL    HW1  426   0.719   2.136   2.938 -0.9235 -0.6991  2.7841
  107SOL    HW2  427   0.806   2.110   3.070  1.1764  0.9977  1.5388
  107SOL     MW  428   0.786   2.156   2.995  0.2936  0.4923  0.6280
  108SOL     OW  429   1.320   1.578   1.636  0.4604  0.8600  0.3514
  108SOL    HW1  430   1.265   1.549   1.556 -0.5906 -2.2231  0.2305
  108SOL    HW2  431   1.396   1.522   1.611  0.8268  1.4554  1.3639
  108SOL     MW  432   1.323   1.567   1.622  0.3700  0.5318  0.4690
  109SOL     OW  433   1.962   0.777   0.171 -0.0776  0.4940  0.6236
  109SOL    HW1  434   1.911   0.858   0.181 -0.5267  2.7836  3.1630
  109SOL    HW2  435   2.039   0.781   0.225  0.3970  2.0700  1.3515
  109SOL     MW  436   1.965   0.788   0.180 -0.0742  1.0040  1.0547
  110SOL     OW  437   0.383   1.902   0.722 -0.7053 -0.2636 -0.9552
  110SOL    HW1  438   0.458   1.852   0.690 -0.8974 -2.9866 -0.8492
  110SOL    HW2  439   0.412   1.992   0.702 -0.1715  0.3038 -0.1814
  110SOL     MW  440   0.396   1.907   0.715 -0.6602 -0.5480 -0.8391
  111SOL     OW  441   0.860   0.930   1.541 -0.0070 -0.5359  0.2926
  111SOL    HW1  442   0.819   0.924   1.451 -2.0898  0.2419 -2.5108
  111SOL    HW2  443   0.829   0.849   1.586  0.1118 -1.8841 -3.0591
  111SOL     MW  444   0.851   0.919   1.535 -0.2661 -0.6112 -0.5195
  112SOL     OW  445   1.343   1.109   1.612  0.3644  0.2649 -0.1682
  112SOL    HW1  446   1.262   1.161   1.636 -2.2283  0.1195 -0.5028
  112SOL    HW2  447   1.326   1.016   1.624 -0.7068  0.6296  2.1953
  112SOL     MW  448   1.330   1.103   1.617 -0.1190  0.2939  0.0995
  113SOL     OW  449   1.287   0.028   1.719  0.0545 -0.4485 -0.2128
  113SOL    HW1  450   1.308   0.001   1.810  0.6463 -3.4804  0.3776
  113SOL    HW2  451   1.302  -0.038   1.652 -3.2879 -1.9325 -2.5936
  113SOL     MW  452   1.291   0.016   1.722 -0.3085 -1.0444 -0.4490
  114SOL     OW  453   0.263   2.858   1.942  0.2365 -0.2378  0.3681
  114SOL    HW1  454   0.325   2.928   1.952  2.2363  0.8983 -1.0527
  114SOL    HW2  455   0.257   2.845   1.845  1.5637  1.1966  1.3900
  114SOL     MW  456   0.270   2.865   1.931  0.6754  0.1014  0.3155
  115SOL     OW  457   0.490   0.846   1.106  0.2414  0.3550 -0.3240
  115SOL    HW1  458   0.518   0.755   1.080  1.2802 -0.1499 -0.0197
  115SOL    HW2  459   0.455   0.837   1.192  0.2818  0.2448  1.9128
  115SOL     MW  460   0.489   0.833   1.114  0.3838  0.2738  0.0113
  116SOL     OW  461   0.778   1.072   0.933  0.1476  0.4138 -0.2847
  116SOL    HW1  462   0.802   1.136   0.864 -1.5437 -0.8165 -2.1015
  116SOL    HW2  463   0.837   1.080   1.012  1.9643 -0.0192  2.0973
  116SOL     MW  464   0.789   1.082   0.935  0.1642  0.1944 -0.2101
  117SOL     OW  465   1.169   1.183   0.751  0.3550 -0.2710 -0.3275
  117SOL    HW1  466   1.173   1.145   0.838 -0.4986  1.0847  0.7047
  117SOL    HW2  467   1.221   1.260   0.755 -1.3711 -1.3609  0.2567
  117SOL     MW  468   1.176   1.188   0.763  0.0147 -0.2359 -0.1142
  118SOL     OW  469   3.050   2.981   1.731  0.6737  0.0975 -0.4512
  118SOL    HW1  470   3.103   3.060   1.757 -0.1474  1.0326 -0.7389
  118SOL    HW2  471   2.956   2.998   1.751 -2.0487 -2.1997 -2.5693
  118SOL     MW  472   3.045   2.994   1.737  0.2061 -0.0822 -0.7686
  119SOL     OW  473   0.442   1.469   1.263 -0.5802  0.5241  0.8554
  119SOL    HW1  474   0.471   1.524   1.188 -3.2839  0.1102 -1.4358
  119SOL    HW2  475   0.344   1.471   1.268 -0.2656  1.6384 -1.4734
  119SOL     MW  476   0.433   1.477   1.254 -0.8954  0.6166  0.2458
  120SOL     OW  477   0.249   0.695   0.976 -0.1408 -0.2627 -0.1141
  120SOL    HW1  478   0.226   0.629   1.043  0.1404  0.6265  0.5035
  120SOL    HW2  479   0.278   0.772   1.026 -0.6020  1.2448  0.9599
  120SOL     MW  480   0.250   0.696   0.991 -0.1646  0.0535  0.1091
  121SOL     OW  481   1.729   1.200   1.731 -0.0629 -0.6260  0.2035
  121SOL    HW1  482   1.634   1.180   1.732 -4.6495 -2.5030 -0.4400
  121SOL    HW2  483   1.759   1.127   1.678 -1.3061  1.0922  0.2110
  121SOL     MW  484   1.720   1.188   1.724 -0.8321 -0.6469  0.1196
  122SOL     OW  485   0.135   0.548   0.797  0.3906  0.4592 -0.1366
  122SOL    HW1  486   0.200   0.527   0.731 -0.9431  0.4525 -0.4671
  122SOL    HW2  487   0.188   0.594   0.868  0.0632 -2.6046 -0.9289
  122SOL     MW  488   0.150   0.551   0.798  0.1715  0.0541 -0.2848
  123SOL     OW  489   1.876   1.126   0.519  0.6939  0.1910 -0.5207
  123SOL    HW1  490   1.822   1.061   0.562  0.1993  0.6912  1.6589
  123SOL    HW2  491   1.943   1.153   0.576 -0.6721 -0.8064 -1.6551
  123SOL     MW  492   1.878   1.121   0.532  0.4484  0.1254 -0.3828
  124SOL     OW  493   0.686   0.533   0.860 -0.0017  0.3239  0.5396
  124SOL    HW1  494   0.610   0.505   0.798  0.0817 -0.4686  0.9242
  124SOL    HW2  495   0.689   0.628   0.863  0.3718 -0.3373 -1.3789
  124SOL     MW  496   0.676   0.542   0.852  0.0586  0.1321  0.3372
  125SOL     OW  497   0.674   1.790   1.721 -0.4848 -0.3476 -0.4470
  125SOL    HW1  498   0.629   1.713   1.684  1.8409  2.4515 -1.6664
  125SOL    HW2  499   0.623   1.870   1.700 -3.3666  0.6576 -2.8235
  125SOL     MW  500   0.661   1.791   1.713 -0.5582  0.1543 -0.9215
  126SOL     OW  501   2.082   1.587   1.939 -0.4040  0.3494  0.3050
  126SOL    HW1  502   2.129   1.671   1.940 -1.0993 -0.2453 -0.3687
  126SOL    HW2  503   2.146   1.517   1.945 -0.4984  2.7859 -0.0651
  126SOL     MW  504   2.096   1.589   1.940 -0.5082  0.5924  0.1673
  127SOL     OW  505   0.698   0.788   1.838 -0.4526  0.4379 -0.1609
  127SOL    HW1  506   0.760   0.723   1.878  0.5619 -1.6249 -1.1744
  127SOL    HW2  507   0.684   0.860   1.906 -0.3550 -0.4403  2.6250
  127SOL     MW  508   0.704   0.789   1.853 -0.3059  0.0499  0.0729
  128SOL     OW  509   1.796   0.724   2.941  0.1400 -0.4358 -0.1732
  128SOL    HW1  510   1.821   0.679   2.859 -2.0161 -0.3215 -0.3331
  128SOL    HW2  511   1.760   0.807   2.902 -1.0458  0.5466 -1.7655
  128SOL     MW  512   1.795   0.729   2.925 -0.3010 -0.2911 -0.4044
  129SOL     OW  513   1.612   0.946   0.191 -0.3816 -0.3199 -0.4628
  129SOL    HW1  514   1.564   0.869   0.166  1.0655  1.6860 -0.7804
  129SOL    HW2  515   1.662   0.915   0.268 -1.7979  2.3013 -0.2693
  129SOL     MW  516   1.613   0.932   0.198 -0.3776  0.2906 -0.4792
  130SOL     OW  517   0.757   1.368   0.351  0.0422  0.8805 -0.6870
  130SOL    HW1  518   0.768   1.374   0.448  3.3386  0.8214  2.2308
  130SOL    HW2  519   0.821   1.424   0.304 -0.8762 -4.6000 -0.1854
  130SOL     MW  520   0.767   1.376   0.357  0.3560  0.1496 -0.2359
  131SOL     OW  521   3.039   0.817   3.093  0.1001 -0.1373  0.4182
  131SOL    HW1  522   3.027   0.876   3.011  1.9218  1.2248  1.9808
  131SOL    HW2  523   3.124   0.766   3.090  0.9604  0.4016 -0.4644
  131SOL     MW  524   3.048   0.818   3.082  0.4540  0.1136  0.5079
  132SOL     OW  525   2.681   0.127   1.245 -0.2812 -0.3853  0.5128
  132SOL    HW1  526   2.689   0.114   1.145  1.9879 -1.2180 -0.7521
  132SOL    HW2  527   2.588   0.124   1.273  1.6399 -0.9114 -0.2681
  132SOL     MW  528   2.670   0.125   1.236  0.2716 -0.5646  0.2429
  133SOL     OW  529   1.011   0.142   1.728  0.4171  0.5190  0.0374
  133SOL    HW1  530   1.088   0.085   1.724  1.6706  1.8897  0.0217
  133SOL    HW2  531   0.995   0.165   1.822 -1.0403 -0.3718 -0.6759
  133SOL     MW  532   1.019   0.138   1.740  0.3902  0.5823 -0.0588
  134SOL     OW  533   1.371   2.520   1.460 -0.6869 -0.0703 -0.2342
  134SOL    HW1  534   1.311   2.593   1.445  1.5336  1.8140 -1.1121
  134SOL    HW2  535   1.443   2.549   1.521 -0.5195  1.2724  0.5563
  134SOL     MW  536   1.373   2.533   1.466 -0.3718  0.3554 -0.2457
  135SOL     OW  537   3.019   0.967   2.876  0.2920  0.0900  0.0519
  135SOL    HW1  538   3.060   1.047   2.903 -3.5844 -1.2256 -2.7265
  135SOL    HW2  539   2.929   0.989   2.851  0.5462  0.9103  1.0660
  135SOL     MW  540   3.013   0.980   2.876 -0.1859  0.0246 -0.1809
  136SOL     OW  541   0.187   2.029   0.848 -0.1208  0.0788 -0.4537
  136SOL    HW1  542   0.106   1.974   0.842 -0.9557 -0.0424 -1.5843
  136SOL    HW2  543   0.248   1.984   0.793 -0.4930 -0.7707  1.0298
  136SOL     MW  544   0.185   2.016   0.840 -0.2801 -0.0493 -0.4072
  137SOL     OW  545   0.706   2.062   0.514 -0.5891 -0.2839 -0.7626
  137SOL    HW1  546   0.746   2.050   0.603 -0.0791  2.0747 -2.0025
  137SOL    HW2  547   0.613   2.056   0.529  4.8499 -2.6327 -2.2977
  137SOL     MW  548   0.699   2.060   0.528  0.1958 -0.2826 -1.1288
  138SOL     OW  549   0.556   0.567   1.132 -0.2295 -0.2725 -0.0115
  138SOL    HW1  550   0.465   0.534   1.123  0.6597  1.1015  0.7365
  138SOL    HW2  551   0.606   0.531   1.057 -1.3104  1.9800  0.4972
  138SOL     MW  552   0.551   0.558   1.121 -0.2548  0.2060  0.1543
  139SOL     OW  553   2.779   0.601   1.351  0.0760  0.4204  0.2487
  139SOL    HW1  554   2.803   0.505   1.358  1.6350 -2.3492  0.2994
  139SOL    HW2  555   2.846   0.648   1.398 -2.3315  2.3519 -1.9144
  139SOL     MW  556   2.791   0.594   1.358 -0.0360  0.3099 -0.0300
  140SOL     OW  557   0.833   0.388   2.083  0.0927 -0.2763 -0.0233
  140SOL    HW1  558   0.914   0.345   2.050 -0.8657  4.0011 -1.8626
  140SOL    HW2  559   0.843   0.384   2.179  2.4389 -0.5370 -1.9634
  140SOL     MW  560   0.845   0.382   2.091  0.2758  0.2536 -0.5220
  141SOL     OW  561   1.072   0.660   1.729  0.0277 -0.0614 -0.1401
  141SOL    HW1  562   1.107   0.574   1.703  0.8253  0.3004  0.1281
  141SOL    HW2  563   1.149   0.723   1.725 -1.5813  0.7869 -0.8158
  141SOL     MW  564   1.087   0.657   1.725 -0.0793  0.0983 -0.1939
  142SOL     OW  565   0.893   1.221   0.713  0.8425  0.2542  0.0788
  142SOL    HW1  566   0.860   1.147   0.656 -0.7668 -0.0994  1.3819
  142SOL    HW2  567   0.987   1.201   0.714 -0.1189 -0.0656 -0.5182
  142SOL     MW  568   0.901   1.208   0.706  0.5034  0.1653  0.1720
  143SOL     OW  569   1.816   0.778   1.097  0.0626  0.7336  0.2309
  143SOL    HW1  570   1.856   0.773   1.011 -2.4550  1.4188  0.6822
  143SOL    HW2  571   1.736   0.731   1.087 -0.3416  0.2655  0.7590
  143SOL     MW  572   1.811   0.771   1.084 -0.3229  0.7623  0.3601
  144SOL     OW  573   0.237   1.174   1.587  0.4024  0.3809  0.0707
  144SOL    HW1  574   0.312   1.168   1.532  0.6120  0.0879  0.7832
  144SOL    HW2  575   0.263   1.195   1.678  1.6573 -0.8441  1.4759
  144SOL     MW  576   0.250   1.176   1.591  0.5956  0.1806  0.3501
  145SOL     OW  577   0.222   0.475   1.153 -0.2468 -0.0140  0.8039
  145SOL    HW1  578   0.268   0.446   1.232  0.0654 -1.6261  4.9116
  145SOL    HW2  579   0.185   0.389   1.100 -0.4005 -0.9535 -1.3960
  145SOL     MW  580   0.224   0.460   1.157 -0.2259 -0.3507  1.0556
  146SOL     OW  581   0.863   1.936   1.332  0.6878  0.4205  0.4896
  146SOL    HW1  582   0.920   1.940   1.252 -2.2694  1.0909 -0.4071
  146SOL    HW2  583   0.780   1.902   1.293  1.7297 -2.0384 -1.2374
  146SOL     MW  584   0.860   1.932   1.316  0.4351  0.1845  0.1434
  147SOL     OW  585   0.421   0.426   2.958  0.6726  0.3287 -0.5989
  147SOL    HW1  586   0.376   0.456   3.037  1.8691  1.6190  0.9764
  147SOL    HW2  587   0.388   0.482   2.885 -1.0878  0.2116 -0.5177
  147SOL     MW  588   0.410   0.438   2.959  0.5982  0.4835 -0.3804
  148SOL     OW  589   0.139   0.826   1.279 -0.1004  0.0489  0.4655
  148SOL    HW1  590   0.230   0.854   1.267  2.4199 -0.6426  0.7947
  148SOL    HW2  591   0.103   0.893   1.343 -1.1838 -1.2186  0.5127
  148SOL     MW  592   0.146   0.839   1.286  0.0892 -0.2096  0.5151
  149SOL     OW  593   1.347   1.117   1.339 -0.7614  0.1193  0.1468
  149SOL    HW1  594   1.347   1.104   1.437 -2.1554  2.6846  1.0558
  149SOL    HW2  595   1.394   1.199   1.336 -2.5001  0.8437  0.2745
  149SOL     MW  596   1.353   1.126   1.351 -1.1747  0.5533  0.2836
  150SOL     OW  597   1.840   1.352   0.727 -0.2954 -0.7371 -0.5181
  150SOL    HW1  598   1.866   1.277   0.776  0.8465  1.7052  1.0776
  150SOL    HW2  599   1.870   1.429   0.775 -0.0550 -1.0596 -1.5627
  150SOL     MW  600   1.847   1.353   0.740 -0.1130 -0.4574 -0.4454
  151SOL     OW  601   1.678   1.780   0.803 -0.2822  0.5896 -0.6898
  151SOL    HW1  602   1.698   1.784   0.708  0.5488  0.4438 -0.0663
  151SOL    HW2  603   1.593   1.729   0.824 -2.7705 -1.7966  3.6732
  151SOL     MW  604   1.669   1.773   0.793 -0.5009  0.2555 -0.0319
  152SOL     OW  605   0.746   1.387   1.498  0.1307 -0.7742  0.2273
  152SOL    HW1  606   0.768   1.297   1.474  0.4793  0.4165 -1.8497
  152SOL    HW2  607   0.834   1.422   1.509 -0.5670 -0.6830 -1.3598
  152SOL     MW  608   0.760   1.380   1.497  0.0846 -0.6051 -0.2562
  153SOL     OW  609   2.618   1.212   0.775  0.5854  0.4471 -0.0759
  153SOL    HW1  610   2.677   1.176   0.706 -1.1293  2.3426  1.5826
  153SOL    HW2  611   2.545   1.145   0.766  0.4519 -0.4228 -2.0111
  153SOL     MW  612   2.616   1.198   0.765  0.3416  0.5824 -0.1124
  154SOL     OW  613   0.257   1.814   1.705 -0.8603 -0.0749 -0.1411
  154SOL    HW1  614   0.344   1.834   1.667  1.4011  0.7608  0.0368
  154SOL    HW2  615   0.284   1.762   1.783 -1.0363 -0.2614 -0.0373
  154SOL     MW  616   0.272   1.810   1.710 -0.5852  0.0107 -0.1039
  155SOL     OW  617   1.241   0.697   0.244 -0.4932 -0.1320 -0.2585
  155SOL    HW1  618   1.219   0.633   0.315 -0.0658 -1.2320  2.5459
  155SOL    HW2  619   1.208   0.787   0.272 -1.3321 -0.3903  0.5581
  155SOL     MW  620   1.234   0.701   0.257 -0.5475 -0.3112  0.2192
  156SOL     OW  621   1.492   3.081   1.129 -0.5622  0.1062 -0.1427
  156SOL    HW1  622   1.577   3.132   1.148  1.0443 -0.1112 -0.6671
  156SOL    HW2  623   1.526   2.991   1.147  0.8649 -0.1957 -0.1770
  156SOL     MW  624   1.508   3.076   1.134 -0.1619  0.0377 -0.2164
  157SOL     OW  625   1.447   1.164   0.097 -0.1996 -0.1089 -0.1784
  157SOL    HW1  626   1.494   1.091   0.153  0.7407 -0.8928  0.4426
  157SOL    HW2  627   1.513   1.236   0.079  1.9667  0.6094 -0.4202
  157SOL     MW  628   1.462   1.164   0.102  0.2103 -0.1176 -0.1284
  158SOL     OW  629   0.544   1.659   2.210 -0.4965  0.0517  0.3227
  158SOL    HW1  630   0.516   1.733   2.160  0.2808 -2.2721 -1.0193
  158SOL    HW2  631   0.467   1.643   2.259 -0.2130 -0.4572 -0.3243
  158SOL     MW  632   0.530   1.666   2.210 -0.3565 -0.3220  0.0603
  159SOL     OW  633   1.279   1.677   0.408  0.3347  0.2170 -0.0232
  159SOL    HW1  634   1.251   1.594   0.366  2.4027  0.1281  1.1043
  159SOL    HW2  635   1.203   1.702   0.462 -1.8024 -2.7163  1.1990
  159SOL     MW  636   1.265   1.669   0.409  0.3256 -0.1818  0.2868
  160SOL     OW  637   0.557   1.149   1.622 -0.3569 -0.7787  0.5445
  160SOL    HW1  638   0.535   1.064   1.658  0.5381  0.8230 -0.0646
  160SOL    HW2  639   0.635   1.177   1.666  1.4071 -1.4427  1.6019
  160SOL     MW  640   0.565   1.141   1.632 -0.0060 -0.6550  0.6037
  161SOL     OW  641   0.476   2.226   2.567  0.3160  0.8177 -0.0375
  161SOL    HW1  642   0.382   2.225   2.570  2.5969  2.1176 -0.1585
  161SOL    HW2  643   0.497   2.174   2.490 -2.4700 -2.8902 -2.2307
  161SOL     MW  644   0.466   2.219   2.557  0.2494  0.5000 -0.3428
  162SOL     OW  645   1.062   1.767   1.847 -0.4267 -0.3857  0.3909
  162SOL    HW1  646   1.071   1.850   1.896  1.9135 -0.5742 -1.7775
  162SOL    HW2  647   0.972   1.737   1.867  1.8889 -2.8225 -1.7804
  162SOL     MW  648   1.052   1.774   1.856  0.1876 -0.7321 -0.1816
  163SOL     OW  649   2.162   3.094   0.936 -0.3320  0.2423 -0.0667
  163SOL    HW1  650   2.136   3.159   0.874 -1.4619 -1.4218 -1.7225
  163SOL    HW2  651   2.089   3.041   0.923  0.6298 -1.1073 -0.1420
  163SOL     MW  652   2.149   3.095   0.926 -0.3542 -0.1553 -0.2951
  164SOL     OW  653   0.358   0.184   0.869 -0.0382 -0.3711 -0.4363
  164SOL    HW1  654   0.271   0.212   0.887 -0.3882  0.8788 -2.3797
  164SOL    HW2  655   0.351   0.117   0.802  0.1159  1.6427  0.6615
  164SOL     MW  656   0.345   0.179   0.862 -0.0640  0.0595 -0.5478
  165SOL     OW  657   1.339   1.266   0.327 -0.0160 -0.1398  0.0730
  165SOL    HW1  658   1.311   1.192   0.384 -1.5886  1.0704  3.1596
  165SOL    HW2  659   1.374   1.236   0.240  2.0376  1.0394 -0.1143
  165SOL     MW  660   1.340   1.252   0.323  0.0475  0.1755  0.4555
  166SOL     OW  661   0.541   1.163   1.045 -0.3569 -0.0224  0.2626
  166SOL    HW1  662   0.540   1.099   1.112  0.2087  3.1269 -0.2303
  166SOL    HW2  663   0.613   1.155   0.984 -2.0246  1.9885 -1.0287
  166SOL     MW  664   0.550   1.153   1.046 -0.5023  0.6585  0.0272
  167SOL     OW  665   0.787   1.005   0.262  0.1195  0.2103  0.0886
  167SOL    HW1  666   0.714   1.056   0.248  1.5025 -3.5547  0.5215
  167SOL    HW2  667   0.852   1.060   0.221  1.6059  1.0282 -0.5105
  167SOL     MW  668   0.786   1.019   0.255  0.4981 -0.1785  0.0667
  168SOL     OW  669   1.718   1.656   3.036 -0.0963 -0.0417  0.5787
  168SOL    HW1  670   1.683   1.702   2.959 -0.3247 -1.4851 -1.0497
  168SOL    HW2  671   1.734   1.568   3.008  1.6310 -3.6958  1.6718
  168SOL     MW  672   1.715   1.651   3.022  0.1014 -0.7143  0.5080
  169SOL     OW  673   0.411   0.916   1.362 -0.0072  0.6216 -0.4126
  169SOL    HW1  674   0.427   0.876   1.452  1.4559 -0.7076 -3.0953
  169SOL    HW2  675   0.439   1.007   1.362  1.8703 -1.4423  1.1807
  169SOL     MW  676   0.417   0.923   1.374  0.4336  0.1739 -0.5564
  170SOL     OW  677   1.016   1.493   1.502  0.8207 -0.4997  0.2449
  170SOL    HW1  678   0.995   1.587   1.522 -1.9575  0.6942  0.8129
  170SOL    HW2  679   1.085   1.499   1.440 -2.7380 -0.0735 -3.3973
  170SOL     MW  680   1.022   1.507   1.497 -0.0154 -0.2859 -0.1607
  171SOL     OW  681   0.547   1.455   0.652 -0.2285  0.2210 -1.0925
  171SOL    HW1  682   0.544   1.430   0.740  0.3063 -1.0912 -0.4303
  171SOL    HW2  683   0.533   1.365   0.618 -0.6930  1.0567  3.2621
  171SOL     MW  684   0.545   1.440   0.659 -0.2192  0.1581 -0.4306
  172SOL     OW  685   0.857   0.327   1.278 -0.2155 -0.3049 -0.0093
  172SOL    HW1  686   0.843   0.327   1.182  0.0431 -0.5705 -2.5291
  172SOL    HW2  687   0.766   0.356   1.311 -0.7680 -3.6805 -1.3747
  172SOL     MW  688   0.843   0.331   1.269 -0.2543 -0.7853 -0.5219
  173SOL     OW  689   0.453   1.725   0.369 -0.2762 -0.0089 -0.0628
  173SOL    HW1  690   0.489   1.638   0.361 -0.1790  1.0486  2.2050
  173SOL    HW2  691   0.501   1.752   0.448  0.5014 -1.6164  2.5298
  173SOL     MW  692   0.464   1.717   0.378 -0.1608 -0.0815  0.5784
  174SOL     OW  693   1.815   1.004   1.565 -0.2657  0.3307 -0.0285
  174SOL    HW1  694   1.797   0.909   1.583  1.4387 -1.8628 -0.8520
  174SOL    HW2  695   1.805   1.012   1.471  0.4878 -0.5344  1.4120
  174SOL     MW  696   1.811   0.993   1.555  0.0586 -0.0729  0.0529
  175SOL     OW  697   0.525   1.478   0.267  0.1174 -0.2454 -0.3933
  175SOL    HW1  698   0.469   1.409   0.226  1.9050  1.8984 -0.6391
  175SOL    HW2  699   0.605   1.431   0.290  1.4819 -0.1533 -1.5928
  175SOL     MW  700   0.529   1.463   0.265  0.5333  0.0496 -0.5840
  176SOL     OW  701   0.170   1.462   1.215  0.2366  0.1032  0.3922
  176SOL    HW1  702   0.137   1.397   1.154 -0.8638  1.1244 -0.2045
  176SOL    HW2  703   0.085   1.500   1.256 -1.8735  3.7134 -0.5618
  176SOL     MW  704   0.155   1.458   1.212 -0.1870  0.7143  0.1876
  177SOL     OW  705   0.618   0.447   1.372  0.2592 -0.1824 -0.2240
  177SOL    HW1  706   0.615   0.501   1.293  0.2529 -1.5111  0.9618
  177SOL    HW2  707   0.582   0.499   1.452  0.3130 -0.9154  2.6081
  177SOL     MW  708   0.613   0.461   1.372  0.2654 -0.4544  0.3061
  178SOL     OW  709   3.071   0.486   2.948 -0.1927  0.7286  0.3174
  178SOL    HW1  710   3.007   0.500   3.021 -1.2246  3.3424 -0.8218
  178SOL    HW2  711   3.007   0.491   2.873 -1.5448 -1.2707 -0.5834
  178SOL     MW  712   3.054   0.489   2.947 -0.5073  0.8096  0.0482
  179SOL     OW  713   1.591   1.339   1.360 -0.1226 -0.1625 -0.0767
  179SOL    HW1  714   1.559   1.357   1.452 -0.0782  0.4541 -0.1534
  179SOL    HW2  715   1.685   1.368   1.360  0.4719 -0.6914 -0.5864
  179SOL     MW  716   1.599   1.345   1.372 -0.0383 -0.1509 -0.1541
  180SOL     OW  717   3.075   0.193   0.438 -0.2912  0.4338 -0.2586
  180SOL    HW1  718   3.005   0.191   0.367 -0.6144 -0.3851 -0.4062
  180SOL    HW2  719   3.133   0.272   0.426  1.0257 -0.5904  2.0933
  180SOL     MW  720   3.073   0.203   0.427 -0.1601  0.1906  0.0322
  181SOL     OW  721   1.121   1.325   3.084  0.1103 -0.8542 -0.1226
  181SOL    HW1  722   1.202   1.383   3.106 -3.2626  1.6277  0.2361
  181SOL    HW2  723   1.164   1.244   3.047  1.3931 -0.5815 -0.5679
  181SOL     MW  724   1.137   1.322   3.082 -0.1655 -0.4907 -0.1340
  182SOL     OW  725   0.458   0.876   1.651  0.0309  0.3850 -0.4006
  182SOL    HW1  726   0.365   0.845   1.654  0.2043  2.1876  1.7441
  182SOL    HW2  727   0.482   0.849   1.735 -1.0843  0.6462 -1.4736
  182SOL     MW  728   0.449   0.868   1.662 -0.0933  0.6573 -0.2592
  183SOL     OW  729   1.583   1.506   1.152  0.3013  0.2871 -0.4223
  183SOL    HW1  730   1.560   1.583   1.200 -0.5378 -0.0510 -1.7896
  183SOL    HW2  731   1.576   1.436   1.224  0.4085  0.5295 -1.7453
  183SOL     MW  732   1.579   1.507   1.168  0.2047  0.2745 -0.7772
  184SOL     OW  733   0.918   0.633   1.962 -0.4066  0.2513 -0.3880
  184SOL    HW1  734   0.967   0.638   1.883 -0.9100 -0.0213  0.6584
  184SOL    HW2  735   0.875   0.547   1.963  0.3248 -1.2421  2.7984
  184SOL     MW  736   0.919   0.622   1.952 -0.3766  0.0183  0.1705
  185SOL     OW  737   1.250   1.025   1.928 -0.6293 -0.1790  0.4411
  185SOL    HW1  738   1.267   0.937   1.972 -0.8905 -0.6343  4.2188
  185SOL    HW2  739   1.271   1.096   1.995  1.2582 -1.5032 -0.6013
  185SOL     MW  740   1.255   1.023   1.943 -0.4147 -0.4138  0.8020
  186SOL     OW  741   0.375   1.688   1.434 -0.2878 -0.0015  0.2505
  186SOL    HW1  742   0.426   1.624   1.385  2.2634  0.3894  0.8540
  186SOL    HW2  743   0.283   1.658   1.444  0.3662  0.7674 -0.4636
  186SOL     MW  744   0.369   1.676   1.429  0.1351  0.1515  0.2359
  187SOL     OW  745   1.442   0.702   1.407 -0.2841 -0.0743 -0.1182
  187SOL    HW1  746   1.425   0.680   1.497  0.8934 -0.8769 -0.1453
  187SOL    HW2  747   1.360   0.709   1.361 -0.6362 -0.1475 -0.4798
  187SOL     MW  748   1.429   0.700   1.413 -0.1752 -0.1898 -0.1695
  188SOL     OW  749   1.898   1.164   0.894 -0.2181 -0.1419  0.9392
  188SOL    HW1  750   1.917   1.158   0.995  1.7392  0.9264  0.5659
  188SOL    HW2  751   1.942   1.086   0.853  1.5783  0.7869 -0.8459
  188SOL     MW  752   1.907   1.153   0.902  0.2772  0.1216  0.6544
  189SOL     OW  753   0.655   0.827   0.862 -0.3359 -0.1990 -0.1032
  189SOL    HW1  754   0.575   0.876   0.847 -0.2809  0.5380 -2.6497
  189SOL    HW2  755   0.706   0.894   0.910  3.9469  1.2250 -1.1679
  189SOL     MW  756   0.651   0.843   0.866  0.2364  0.0861 -0.5797
  190SOL     OW  757   1.863   0.269   2.119  0.4984  0.2597  0.8440
  190SOL    HW1  758   1.876   0.207   2.192  1.2238 -0.1020 -0.3851
  190SOL    HW2  759   1.946   0.319   2.102  1.0735  0.5085  0.3967
  190SOL     MW  760   1.876   0.268   2.126  0.6700  0.2448  0.6228
  191SOL     OW  761   1.514   0.933   1.239  0.3212 -0.0807  0.2109
  191SOL    HW1  762   1.452   1.001   1.281 -0.6730  0.7879 -2.3188
  191SOL    HW2  763   1.513   0.849   1.289  0.3269  0.2714 -0.5963
  191SOL     MW  764   1.506   0.931   1.251  0.1908  0.0804 -0.2294
  192SOL     OW  765   0.609   2.099   2.802 -0.0957  0.3011 -0.0626
  192SOL    HW1  766   0.549   2.126   2.730  2.8588  0.2893 -1.2015
  192SOL    HW2  767   0.592   2.005   2.803  0.2178 -2.9453 -1.9755
  192SOL     MW  768   0.599   2.090   2.793  0.3355 -0.1288 -0.4653
  193SOL     OW  769   0.996   1.574   0.749  0.0383 -0.0927 -0.7942
  193SOL    HW1  770   0.951   1.587   0.837 -1.3899  1.2969  3.4707
  193SOL    HW2  771   0.930   1.523   0.696  0.9755 -0.7312 -0.9421
  193SOL     MW  772   0.981   1.569   0.754 -0.0265  0.0064 -0.2510
  194SOL     OW  773   0.512   1.427   0.945  0.1161  0.6513 -0.3444
  194SOL    HW1  774   0.505   1.340   0.987  1.9898 -0.4283  0.3869
  194SOL    HW2  775   0.422   1.465   0.934  0.1469 -0.2999  2.1308
  194SOL     MW  776   0.499   1.420   0.949  0.3673  0.3834  0.0787
  195SOL     OW  777   1.286   1.145   2.982  0.5602  0.0398  0.2206
  195SOL    HW1  778   1.347   1.143   3.060 -0.6458 -0.0475 -0.1789
  195SOL    HW2  779   1.234   1.061   3.001 -1.7272 -2.7487  0.8942
  195SOL     MW  780   1.287   1.134   2.995  0.0993 -0.3396  0.2568
  196SOL     OW  781   2.198   1.005   0.575  0.1766 -0.3078 -0.1758
  196SOL    HW1  782   2.169   0.982   0.483  0.9129 -1.4019 -1.5441
  196SOL    HW2  783   2.194   1.099   0.585 -0.0946  0.5527  1.8253
  196SOL     MW  784   2.193   1.014   0.564  0.2379 -0.3386 -0.0923
  197SOL     OW  785   0.673   1.226   2.083 -0.9304 -0.3766  0.7276
  197SOL    HW1  786   0.688   1.134   2.068  0.2354  2.4823 -1.0587
  197SOL    HW2  787   0.650   1.272   2.003  1.0375  3.4015 -0.7070
  197SOL     MW  788   0.672   1.220   2.070 -0.5170  0.4991  0.3026
  198SOL     OW  789   2.956   1.371   1.107 -0.0031 -0.1774 -0.6343
  198SOL    HW1  790   2.919   1.461   1.098 -0.4864  2.5657 -0.5295
  198SOL    HW2  791   2.885   1.328   1.060 -1.2839  3.1567  2.9158
  198SOL     MW  792   2.942   1.377   1.100 -0.2358  0.6245 -0.1521
  199SOL     OW  793   0.540   1.373   1.896  0.4108  0.0912  0.1681
  199SOL    HW1  794   0.457   1.331   1.871  1.9308  2.8200  0.0839
  199SOL    HW2  795   0.553   1.437   1.832 -0.7598  2.0425  1.7448
  199SOL     MW  796   0.531   1.376   1.885  0.4569  0.7087  0.3650
  200SOL     OW  797   1.871   3.029   1.306  0.0709 -0.5314  0.1727
  200SOL    HW1  798   1.854   2.992   1.217 -0.9713  0.8240  1.4660
  200SOL    HW2  799   1.787   3.058   1.337  2.0312 -3.0002 -0.7695
  200SOL     MW  800   1.858   3.028   1.298  0.1920 -0.6783  0.2190
  201SOL     OW  801   1.014   0.193   0.846  0.5697 -0.0613 -0.1894
  201SOL    HW1  802   0.975   0.155   0.762 -1.6568  0.5652 -1.6662
  201SOL    HW2  803   1.094   0.234   0.815 -1.6615 -1.8157  1.0049
  201SOL     MW  804   1.019   0.193   0.831 -0.0185 -0.2101 -0.2267
  202SOL     OW  805   1.515   1.553   0.887 -0.2126  0.1212 -0.3089
  202SOL    HW1  806   1.526   1.467   0.840  0.4829 -0.3668 -2.1086
  202SOL    HW2  807   1.574   1.556   0.961  0.1825  0.3068 -0.8496
  202SOL     MW  808   1.524   1.542   0.891 -0.0687  0.0813 -0.6177
  203SOL     OW  809   3.069   0.465   1.277  0.1443 -0.7767  0.2709
  203SOL    HW1  810   3.140   0.463   1.218  2.9541  2.6007  1.1153
  203SOL    HW2  811   3.107   0.520   1.346  0.1242  0.0612 -1.7597
  203SOL     MW  812   3.083   0.472   1.278  0.5123 -0.2205  0.1144
  204SOL     OW  813   1.055   1.743   0.548 -0.4747 -0.3083 -0.3417
  204SOL    HW1  814   1.035   1.680   0.624  1.5820  3.5273 -0.0244
  204SOL    HW2  815   0.973   1.745   0.494  1.0164  0.3968 -2.8882
  204SOL     MW  816   1.041   1.735   0.551 -0.0066  0.2908 -0.6358
  205SOL     OW  817   1.359   0.058   1.369  0.1849  0.1401 -0.0358
  205SOL    HW1  818   1.387   0.036   1.282 -2.2843  1.8570 -1.1981
  205SOL    HW2  819   1.334   0.151   1.355 -2.1385  0.5865 -1.5826
  205SOL     MW  820   1.359   0.068   1.356 -0.4474  0.4255 -0.3932
  206SOL     OW  821   0.417   3.005   1.440  0.5751 -0.2218 -0.3384
  206SOL    HW1  822   0.401   3.012   1.340 -2.2525  1.7437  0.8303
  206SOL    HW2  823   0.493   2.956   1.466 -0.0682 -2.6513 -0.4268
  206SOL     MW  824   0.425   2.999   1.431  0.1172 -0.2830 -0.1959
  207SOL     OW  825   0.918   1.525   0.198 -0.0392  0.2211  0.3997
  207SOL    HW1  826   0.935   1.621   0.195  1.3214  0.8794 -2.4479
  207SOL    HW2  827   1.008   1.495   0.190  0.3729 -3.6151 -1.1565
  207SOL     MW  828   0.932   1.534   0.197  0.1947 -0.1982 -0.1813
  208SOL     OW  829   0.691   1.663   1.366 -0.1941  0.2189  0.2752
  208SOL    HW1  830   0.755   1.689   1.431  0.0723 -0.6295 -0.1614
  208SOL    HW2  831   0.701   1.572   1.354 -0.9058  1.6900  0.2889
  208SOL     MW  832   0.701   1.654   1.373 -0.2529  0.3011  0.2194
  209SOL     OW  833   1.546   0.511   3.013 -0.0319 -0.3724  0.2344
  209SOL    HW1  834   1.565   0.600   2.981 -1.5977  1.3980 -0.7703
  209SOL    HW2  835   1.616   0.456   2.994 -0.2108  0.2280  0.4331
  209SOL     MW  836   1.557   0.515   3.006 -0.2621 -0.0596  0.1281
  210SOL     OW  837   1.577   1.305   0.803 -0.6609 -0.4909  0.4842
  210SOL    HW1  838   1.676   1.297   0.799 -0.1477 -1.1026 -1.3835
  210SOL    HW2  839   1.554   1.323   0.711 -0.2873  0.9179  1.3126
  210SOL     MW  840   1.587   1.306   0.791 -0.5439 -0.3857  0.3470
  211SOL     OW  841   1.650   0.353   0.957  0.4808 -0.6337 -0.3603
  211SOL    HW1  842   1.651   0.363   0.857  0.4673  1.2516 -1.6219
  211SOL    HW2  843   1.741   0.362   0.978  0.2004  1.3973  1.9668
  211SOL     MW  844   1.662   0.355   0.946  0.4420 -0.1170 -0.2198
  212SOL     OW  845   0.246   1.029   0.117  0.3134 -0.3771  0.1043
  212SOL    HW1  846   0.192   1.014   0.197 -1.0427  0.5648 -1.7707
  212SOL    HW2  847   0.265   0.945   0.080 -0.6581 -2.2241  2.5107
  212SOL     MW  848   0.242   1.016   0.123  0.0063 -0.4965  0.1744
  213SOL     OW  849   0.529   1.727   3.031  0.3990 -0.3844 -0.4423
  213SOL    HW1  850   0.544   1.800   3.099 -1.3648 -0.0761  4.2861
  213SOL    HW2  851   0.559   1.765   2.947 -1.7375  1.1294 -0.0356
  213SOL     MW  852   0.535   1.741   3.029 -0.1156 -0.1440  0.2352
  214SOL     OW  853   0.578   0.287   2.235  0.8818  0.3738 -0.5560
  214SOL    HW1  854   0.520   0.363   2.209  2.4017 -0.0838 -2.0608
  214SOL    HW2  855   0.660   0.335   2.257 -1.0912  0.3744  0.9521
  214SOL     MW  856   0.581   0.304   2.235  0.8220  0.3135 -0.5555
  215SOL     OW  857   0.524   0.706   2.663 -0.4560  0.0508  0.1163
  215SOL    HW1  858   0.543   0.710   2.572  2.6039  2.1297  2.0293
  215SOL    HW2  859   0.443   0.660   2.679  1.0376  2.7585  0.4577
  215SOL     MW  860   0.516   0.700   2.653  0.1448  0.6824  0.4137
  216SOL     OW  861   2.896   3.055   2.647  0.3537 -0.2597  0.7724
  216SOL    HW1  862   2.885   3.043   2.744 -2.9508 -1.9870 -3.0415
  216SOL    HW2  863   2.929   3.146   2.637 -1.0503 -2.3426 -0.0192
  216SOL     MW  864   2.899   3.065   2.659 -0.2675 -0.7624  0.1647
  217SOL     OW  865   0.965   1.090   0.064  0.3294 -0.2776  0.1221
  217SOL    HW1  866   1.018   1.018   0.020 -0.0187  0.3198 -0.2255
  217SOL    HW2  867   1.027   1.164   0.073  2.8715  0.0509  1.4691
  217SOL     MW  868   0.980   1.090   0.059  0.6189 -0.1555  0.2540
  218SOL     OW  869   0.968   1.316   2.537  0.2584 -0.1809  0.4426
  218SOL    HW1  870   0.971   1.229   2.573 -0.7371 -0.7961  0.2736
  218SOL    HW2  871   1.055   1.348   2.555 -0.0148 -0.8735  2.5696
  218SOL     MW  872   0.980   1.309   2.544  0.0910 -0.3535  0.7009
  219SOL     OW  873   1.124   0.433   2.640  0.4969 -0.6889 -0.1323
  219SOL    HW1  874   1.195   0.478   2.685  1.7441  1.0401  1.1966
  219SOL    HW2  875   1.062   0.492   2.607 -0.7884  0.3815  0.6983
  219SOL     MW  876   1.125   0.446   2.641  0.4918 -0.3196  0.1526
  220SOL     OW  877   1.747   0.479   2.227  0.0655 -0.4191 -0.3299
  220SOL    HW1  878   1.671   0.495   2.161 -2.5163  0.8492 -1.8961
  220SOL    HW2  879   1.788   0.390   2.197 -2.4527 -3.4661  0.2377
  220SOL     MW  880   1.742   0.469   2.215 -0.6074 -0.6537 -0.4616
  221SOL     OW  881   0.406   1.352   2.941  0.2178 -0.6886 -0.0162
  221SOL    HW1  882   0.439   1.270   2.902 -2.5815  2.2256  1.1460
  221SOL    HW2  883   0.414   1.405   2.862  0.2922 -0.7261  2.0240
  221SOL     MW  884   0.411   1.348   2.925 -0.1418 -0.3090  0.4063
  222SOL     OW  885   0.368   0.930   2.662 -0.4766  0.1222  0.6121
  222SOL    HW1  886   0.325   0.956   2.578  0.6100 -0.7958  1.9162
  222SOL    HW2  887   0.417   0.851   2.639  1.3234 -1.6640 -0.6750
  222SOL     MW  888   0.369   0.923   2.648 -0.0957 -0.2346  0.6143
  223SOL     OW  889   0.009   2.034   2.531  0.2491 -0.2212 -0.4470
  223SOL    HW1  890   0.063   1.993   2.599 -1.8102 -0.5130 -0.0808
  223SOL    HW2  891   0.046   2.126   2.524 -1.1313  0.6713 -1.2613
  223SOL     MW  892   0.021   2.041   2.539 -0.2047 -0.1420 -0.5061
  224SOL     OW  893   1.500   0.807   2.636 -0.2177 -0.3960  0.0171
  224SOL    HW1  894   1.474   0.863   2.708 -2.1572 -2.6453 -1.5765
  224SOL    HW2  895   1.490   0.857   2.548  3.4054  0.7821 -2.8327
  224SOL     MW  896   1.495   0.821   2.634  0.0045 -0.5374 -0.5691
  225SOL     OW  897   2.903   1.446   2.308 -0.4428 -0.0713 -0.4126
  225SOL    HW1  898   2.963   1.507   2.269 -2.0613 -1.2747  3.4061
  225SOL    HW2  899   2.835   1.494   2.361 -1.6222  2.5395  0.6565
  225SOL     MW  900   2.902   1.460   2.310 -0.8119  0.1144  0.2323
  226SOL     OW  901   0.481   1.469   2.702  0.0253  0.8549 -0.0682
  226SOL    HW1  902   0.565   1.472   2.647 -0.7701 -3.8046  0.0148
  226SOL    HW2  903   0.435   1.552   2.690 -1.9956 -1.0325 -0.7627
  226SOL     MW  904   0.486   1.480   2.693 -0.3463 -0.0089 -0.1489
  227SOL     OW  905   0.483   1.114   2.846  0.0762 -0.1011 -0.4284
  227SOL    HW1  906   0.567   1.117   2.801  2.3541  0.4574 -1.0209
  227SOL    HW2  907   0.423   1.069   2.782 -1.0789 -0.4859  0.6379
  227SOL     MW  908   0.486   1.108   2.831  0.2243 -0.0782 -0.3659
  228SOL     OW  909   0.704   0.959   2.044  0.4024  0.2074 -0.1904
  228SOL    HW1  910   0.794   0.999   2.043 -0.2836 -0.3892 -1.3370
  228SOL    HW2  911   0.698   0.906   2.131  1.0184 -1.9597  1.8784
  228SOL     MW  912   0.715   0.957   2.056  0.3932 -0.1573 -0.0687
  229SOL     OW  913   0.180   0.616   0.030 -0.3966  0.0477 -0.2993
  229SOL    HW1  914   0.140   0.568  -0.042  0.0880  3.3718 -0.0101
  229SOL    HW2  915   0.200   0.544   0.090 -0.2955  0.4322 -0.6341
  229SOL     MW  916   0.177   0.600   0.028 -0.3194  0.5370 -0.3053
  230SOL     OW  917   1.709   1.353   2.030 -0.8713  0.0269  0.1460
  230SOL    HW1  918   1.651   1.333   2.104 -1.4294 -0.8782 -0.2244
  230SOL    HW2  919   1.757   1.270   2.021 -1.9759 -0.2220  1.9432
  230SOL     MW  920   1.708   1.340   2.039 -1.0907 -0.1254  0.3343
  231SOL     OW  921   2.744   1.254   2.190  0.0022  0.0919 -0.1400
  231SOL    HW1  922   2.809   1.303   2.233 -2.1973 -0.8859 -0.9764
  231SOL    HW2  923   2.701   1.296   2.122 -3.1836 -0.3488  0.2583
  231SOL     MW  924   2.747   1.266   2.187 -0.7084 -0.0953 -0.1978
  232SOL     OW  925   2.297   0.829   2.021 -0.0603  0.2314 -0.2408
  232SOL    HW1  926   2.233   0.846   1.957 -0.8999 -0.3661  0.5601
  232SOL    HW2  927   2.262   0.858   2.103  2.4414  0.8517 -2.4466
  232SOL     MW  928   2.284   0.835   2.023  0.1590  0.2344 -0.4262
  233SOL     OW  929   2.057   0.447   2.023 -0.6397 -0.5277  0.6054
  233SOL    HW1  930   2.125   0.383   1.997  2.5069  1.5370 -1.7059
  233SOL    HW2  931   2.087   0.472   2.109 -2.0333 -0.2496  0.5325
  233SOL     MW  932   2.070   0.442   2.031 -0.4084 -0.2186  0.2908
  234SOL     OW  933   0.291   1.071   2.426  0.0667 -0.0767 -0.3891
  234SOL    HW1  934   0.194   1.068   2.403 -0.8697  0.2588  0.1528
  234SOL    HW2  935   0.298   1.163   2.451  0.2626 -1.2142 -0.1569
  234SOL     MW  936   0.279   1.083   2.427 -0.0310 -0.1825 -0.2870
  235SOL     OW  937   1.108   3.065   2.697  0.2701 -0.0852 -0.0351
  235SOL    HW1  938   1.120   2.992   2.758  1.1265  1.0221  3.9523
  235SOL    HW2  939   1.088   3.139   2.753 -0.9220 -1.4350 -0.6733
  235SOL     MW  940   1.107   3.065   2.713  0.2258 -0.1172  0.4068
  236SOL     OW  941   2.918   0.571   0.045  0.3661 -0.1515  0.9652
  236SOL    HW1  942   2.826   0.609   0.034  0.2478  0.2883  0.5936
  236SOL    HW2  943   2.966   0.650   0.058 -0.6470  0.8357 -0.9475
  236SOL     MW  944   2.912   0.586   0.045  0.2168  0.0368  0.6638
  237SOL     OW  945   2.001   1.105   2.176  0.1022  0.0729  0.3600
  237SOL    HW1  946   1.978   1.055   2.103  0.9740  2.3815 -0.6381
  237SOL    HW2  947   2.035   1.036   2.232 -0.9985 -0.1151 -0.4083
  237SOL     MW  948   2.003   1.089   2.174  0.0720  0.3527  0.1270
  238SOL     OW  949   1.044   1.816   2.971  0.2035  0.2484  0.0185
  238SOL    HW1  950   1.006   1.727   2.951 -1.4068 -0.1721  0.9276
  238SOL    HW2  951   1.128   1.788   2.998 -3.0365  1.7710 -1.4597
  238SOL     MW  952   1.050   1.800   2.972 -0.4365  0.3938 -0.0566
  239SOL     OW  953   1.257   1.355   2.375  0.4731 -0.1318  0.2233
  239SOL    HW1  954   1.218   1.407   2.448 -3.5224 -0.8008  0.8810
  239SOL    HW2  955   1.290   1.275   2.423  2.4355  0.2361 -1.0479
  239SOL     MW  956   1.256   1.352   2.391  0.2048 -0.1715  0.1424
  240SOL     OW  957   0.700   0.820   2.282 -0.6842 -0.3231  0.0617
  240SOL    HW1  958   0.704   0.871   2.361  0.8053  1.6197 -1.7590
  240SOL    HW2  959   0.789   0.787   2.272 -0.4418  0.7525 -2.3766
  240SOL     MW  960   0.712   0.823   2.291 -0.4557  0.0751 -0.5002
  241SOL     OW  961   0.638   0.378   0.011  0.1540 -0.2437  0.4432
  241SOL    HW1  962   0.648   0.443   0.080  1.0004 -1.6665  0.3084
  241SOL    HW2  963   0.559   0.401  -0.043 -0.6168  4.0534 -0.9410
  241SOL     MW  964   0.629   0.390   0.013  0.1639  0.1355  0.2428
  242SOL     OW  965   1.512   1.679   2.340 -0.1615 -0.0841 -0.2452
  242SOL    HW1  966   1.485   1.770   2.359  1.0553  2.0978  0.4257
  242SOL    HW2  967   1.441   1.636   2.296 -1.3725 -1.6347  1.3057
  242SOL     MW  968   1.499   1.685   2.337 -0.1608 -0.0008  0.0479
  243SOL     OW  969   1.037   0.230   2.491  0.4847 -0.6852  0.4409
  243SOL    HW1  970   1.101   0.226   2.412  0.1625  0.5425 -1.7831
  243SOL    HW2  971   1.067   0.304   2.546  0.6088  0.5876  0.5285
  243SOL     MW  972   1.049   0.239   2.488  0.4586 -0.3553  0.1591
  244SOL     OW  973   0.279   0.791   2.424 -0.1606  0.3851  0.3547
  244SOL    HW1  974   0.288   0.874   2.381 -1.9698 -0.4039  0.2160
  244SOL    HW2  975   0.360   0.743   2.415  1.2416  0.8622  2.0845
  244SOL     MW  976   0.291   0.795   2.417 -0.2143  0.3439  0.5647
  245SOL     OW  977   1.239   0.223   2.327 -0.3988 -0.0003 -0.0669
  245SOL    HW1  978   1.305   0.164   2.371 -1.7603 -2.1403  0.1175
  245SOL    HW2  979   1.268   0.302   2.372 -1.9135 -3.4728 -0.1002
  245SOL     MW  980   1.252   0.225   2.339 -0.7783 -0.7408 -0.0470
  246SOL     OW  981   1.220   1.207   2.132  0.3408 -0.0285  0.1012
  246SOL    HW1  982   1.153   1.142   2.166  1.6297  2.0136 -2.1089
  246SOL    HW2  983   1.226   1.260   2.207  0.3147  1.3143  3.2914
  246SOL     MW  984   1.212   1.206   2.146  0.5074  0.4181  0.2305
  247SOL     OW  985   0.746   0.563   0.194  0.0865  0.5442  0.0934
  247SOL    HW1  986   0.689   0.633   0.178 -1.7981  0.2045  0.6327
  247SOL    HW2  987   0.835   0.594   0.166  1.8121 -1.7018  0.6055
  247SOL     MW  988   0.750   0.576   0.188  0.0655  0.2030  0.2321
  248SOL     OW  989   0.362   1.333   2.480 -1.0847  0.6572  0.2714
  248SOL    HW1  990   0.401   1.358   2.396 -0.4025  0.6950  0.1365
  248SOL    HW2  991   0.429   1.356   2.549 -2.2914  0.1403  2.2919
  248SOL     MW  992   0.376   1.339   2.478 -1.1539  0.5939  0.5202
  249SOL     OW  993   0.182   1.908   2.735 -0.1197  0.4137 -0.4482
  249SOL    HW1  994   0.140   1.839   2.689 -0.0522 -0.6641  0.3241
  249SOL    HW2  995   0.206   1.867   2.823  1.7547 -0.5448  2.0342
  249SOL     MW  996   0.180   1.893   2.740  0.1365  0.1450 -0.0188
  250SOL     OW  997   2.177   0.888   2.292 -0.1628 -0.4035 -0.3747
  250SOL    HW1  998   2.201   0.791   2.307 -0.3717  1.2218 -1.5978
  250SOL    HW2  999   2.253   0.938   2.319 -1.6750  0.1941 -0.7995
  250SOL     MW 1000   2.190   0.882   2.298 -0.3899 -0.1102 -0.5921
  251SOL     OW 1001   0.155   0.874   1.980 -0.0136 -0.3345  0.2475
  251SOL    HW1 1002   0.079   0.809   1.993 -2.7234 -0.7272 -0.5450
  251SOL    HW2 1003   0.179   0.875   1.884 -2.0946  1.7220 -0.3406
  251SOL     MW 1004   0.148   0.866   1.969 -0.6457 -0.1149  0.0653
  252SOL     OW 1005   1.714   0.996   2.839 -0.1395  0.4608  0.0439
  252SOL    HW1 1006   1.743   1.025   2.929  1.1182 -1.5702  3.0472
  252SOL    HW2 1007   1.790   1.010   2.781  0.2971 -0.2924 -0.9745
  252SOL     MW 1008   1.728   1.002   2.843  0.0840  0.0935  0.3058
  253SOL     OW 1009   1.248   1.784   2.553  0.0383 -0.2442  0.3973
  253SOL    HW1 1010   1.256   1.790   2.455 -4.8050  2.1577 -1.6099
  253SOL    HW2 1011   1.154   1.805   2.573 -0.0837  1.8017 -1.3457
  253SOL     MW 1012   1.237   1.788   2.542 -0.6168  0.3427 -0.0975
  254SOL     OW 1013   1.067   1.000   2.254  0.2087  0.0290 -0.3151
  254SOL    HW1 1014   1.057   0.912   2.217  0.3989  0.4136 -0.8649
  254SOL    HW2 1015   0.991   1.047   2.236  0.8104  0.4712 -0.9468
  254SOL     MW 1016   1.056   0.994   2.247  0.3132  0.1381 -0.4710
  255SOL     OW 1017   0.757   2.586   2.145  0.1388  0.1510 -0.1990
  255SOL    HW1 1018   0.694   2.532   2.190 -0.5631  0.4825 -0.4409
  255SOL    HW2 1019   0.846   2.575   2.178  1.9511 -0.5240 -0.3389
  255SOL     MW 1020   0.761   2.577   2.155  0.2853  0.1057 -0.2493
  256SOL     OW 1021   1.311   2.663   2.945  0.3218 -0.1242  0.5254
  256SOL    HW1 1022   1.341   2.592   2.879  0.4316 -0.5025  0.1584
  256SOL    HW2 1023   1.377   2.729   2.930  2.0985 -2.5297 -0.4237
  256SOL     MW 1024   1.324   2.662   2.934  0.5707 -0.4915  0.3517
  257SOL     OW 1025   0.113   1.907   0.063 -0.3377 -0.4453  0.0482
  257SOL    HW1 1026   0.155   1.881   0.148  2.8937 -1.9707  0.1106
  257SOL    HW2 1027   0.161   1.848   0.006  0.0608  1.2136  0.0182
  257SOL     MW 1028   0.125   1.896   0.067  0.1412 -0.4277  0.0525
  258SOL     OW 1029   0.749   1.020   2.454  0.3332  0.1684 -0.2699
  258SOL    HW1 1030   0.767   1.103   2.400 -0.6946  1.5108 -0.4112
  258SOL    HW2 1031   0.698   1.066   2.517  0.7027  1.6436 -1.1231
  258SOL     MW 1032   0.745   1.037   2.456  0.2463  0.5401 -0.4011
  259SOL     OW 1033   0.843   0.357   2.368 -0.1185  0.0324 -0.1431
  259SOL    HW1 1034   0.778   0.373   2.431 -0.2119  1.1855 -2.2529
  259SOL    HW2 1035   0.909   0.294   2.402 -0.1252 -0.1053  0.2223
  259SOL     MW 1036   0.843   0.351   2.381 -0.1317  0.1664 -0.3733
  260SOL     OW 1037   0.482   0.136   1.573 -0.0471  0.3043 -0.3551
  260SOL    HW1 1038   0.462   0.062   1.510 -0.2375 -0.2194 -0.3521
  260SOL    HW2 1039   0.553   0.184   1.538  2.3731 -0.6261 -2.1500
  260SOL     MW 1040   0.489   0.133   1.560  0.2471  0.1125 -0.5915
  261SOL     OW 1041   1.236   0.766   2.013 -1.5844 -0.1500  0.0086
  261SOL    HW1 1042   1.237   0.749   2.106 -2.5984  1.1007  0.1965
  261SOL    HW2 1043   1.232   0.683   1.974  2.2565  1.4649 -0.6220
  261SOL     MW 1044   1.236   0.753   2.020 -1.2114  0.2281 -0.0498
  262SOL     OW 1045   1.040   0.338   0.168  0.3013  0.0608 -0.2616
  262SOL    HW1 1046   1.137   0.346   0.156 -0.4504 -0.4970  0.2106
  262SOL    HW2 1047   1.017   0.268   0.105  0.5710 -0.3791 -2.0008
  262SOL     MW 1048   1.050   0.330   0.158  0.2377 -0.0708 -0.4287
  263SOL     OW 1049   0.406   3.090   2.500  0.1175 -0.0464  0.2627
  263SOL    HW1 1050   0.322   3.136   2.486 -2.5254 -1.6140  1.9197
  263SOL    HW2 1051   0.462   3.109   2.422 -0.1561 -0.8598 -1.8141
  263SOL     MW 1052   0.402   3.099   2.488 -0.2673 -0.3605  0.2073
  264SOL     OW 1053   1.472   1.340   1.884  0.0661  0.0537  0.0568
  264SOL    HW1 1054   1.425   1.353   1.967 -0.2136  0.9776 -0.1485
  264SOL    HW2 1055   1.564   1.339   1.911  2.8659  1.1945 -0.1268
  264SOL     MW 1056   1.478   1.342   1.899  0.3986  0.3261  0.0055
  265SOL     OW 1057   0.703   2.803   2.288  0.1623  0.3759 -0.2857
  265SOL    HW1 1058   0.732   2.727   2.227  3.3956 -1.0617  2.3191
  265SOL    HW2 1059   0.713   2.775   2.379  1.3858  0.8825  0.4809
  265SOL     MW 1060   0.708   2.789   2.292  0.7503  0.2531  0.1591
  266SOL     OW 1061   0.979   0.730   2.223  0.5706  0.3597  0.2726
  266SOL    HW1 1062   0.952   0.671   2.148  0.6193  0.5971  1.2549
  266SOL    HW2 1063   1.055   0.688   2.268 -1.1532 -0.0455  0.6014
  266SOL     MW 1064   0.985   0.717   2.219  0.3496  0.3376  0.4456
  267SOL     OW 1065   1.439   1.774   2.787 -0.0012  0.1552 -0.3398
  267SOL    HW1 1066   1.455   1.707   2.722  1.9033  2.2554 -0.6028
  267SOL    HW2 1067   1.379   1.833   2.733 -0.4730  0.7068  1.1110
  267SOL     MW 1068   1.433   1.773   2.771  0.1878  0.5051 -0.1831
  268SOL     OW 1069   0.185   0.815   1.684 -0.1316 -0.3235 -0.9749
  268SOL    HW1 1070   0.116   0.848   1.631  0.1616  1.4229 -0.0698
  268SOL    HW2 1071   0.166   0.724   1.701  0.6247 -1.7378 -0.3295
  268SOL     MW 1072   0.174   0.808   1.679  0.0069 -0.2797 -0.7703
  269SOL     OW 1073   1.414   1.937   2.370 -0.4307 -0.2071  0.3480
  269SOL    HW1 1074   1.497   1.988   2.378  0.4164  0.0214 -0.6841
  269SOL    HW2 1075   1.359   1.991   2.420  2.0185  0.2107 -1.9620
  269SOL     MW 1076   1.418   1.951   2.378  0.0042 -0.1218 -0.0930
  270SOL     OW 1077   1.110   0.412   1.638  0.2492  0.2314  0.2514
  270SOL    HW1 1078   1.062   0.336   1.670 -0.0828 -2.0992  1.6119
  270SOL    HW2 1079   1.203   0.397   1.653  1.1335 -0.0523  1.7375
  270SOL     MW 1080   1.116   0.400   1.645  0.3221 -0.1135  0.6270
  271SOL     OW 1081   0.889   0.014   2.544 -0.2084  0.3318 -0.1396
  271SOL    HW1 1082   0.958  -0.034   2.599  0.2862 -0.0894  0.6053
  271SOL    HW2 1083   0.940   0.099   2.518  0.4099  1.8182 -0.4747
  271SOL     MW 1084   0.905   0.019   2.548 -0.0616  0.4723 -0.0855
  272SOL     OW 1085   1.493   2.876   2.830  0.0255 -0.3439 -0.1464
  272SOL    HW1 1086   1.446   2.926   2.763 -0.9868 -1.3670  1.7494
  272SOL    HW2 1087   1.546   2.942   2.868  1.3181  0.8470  0.6667
  272SOL     MW 1088   1.494   2.891   2.826  0.0625 -0.3218  0.2110
  273SOL     OW 1089   1.452   0.993   2.817  0.0574  0.0461  0.0270
  273SOL    HW1 1090   1.548   1.002   2.816  0.4077 -1.6690 -1.6397
  273SOL    HW2 1091   1.417   1.076   2.844  0.6416  1.1939  0.9973
  273SOL     MW 1092   1.460   1.006   2.820  0.1807 -0.0288 -0.0649
  274SOL     OW 1093   1.480   0.729   0.119  0.0747 -0.4163  0.4982
  274SOL    HW1 1094   1.519   0.640   0.119  0.0305  1.0052 -3.9624
  274SOL    HW2 1095   1.387   0.719   0.154  3.5755  1.7466  0.1493
  274SOL     MW 1096   1.473   0.716   0.124  0.5308  0.0566 -0.1364
  275SOL     OW 1097   1.725   0.552   1.761  0.0216 -0.3287 -0.3708
  275SOL    HW1 1098   1.806   0.598   1.784  0.3116 -1.1700  1.1919
  275SOL    HW2 1099   1.753   0.462   1.747 -0.0664 -2.8815 -0.0507
  275SOL     MW 1100   1.740   0.546   1.762  0.0483 -0.7765 -0.1224
  276SOL     OW 1101   0.308   1.218   1.894  0.4928  0.0533  0.2800
  276SOL    HW1 1102   0.354   1.131   1.908 -0.0718 -0.7232  1.4687
  276SOL    HW2 1103   0.224   1.210   1.939 -0.8744 -3.2986  0.5830
  276SOL     MW 1104   0.303   1.206   1.902  0.2379 -0.4914  0.4768
  277SOL     OW 1105   1.883   1.285   2.417 -0.2872 -0.3921 -0.5767
  277SOL    HW1 1106   1.952   1.313   2.483  3.5164 -3.5641  1.3053
  277SOL    HW2 1107   1.918   1.317   2.338  0.0403  0.8019  0.5392
  277SOL     MW 1108   1.896   1.293   2.416  0.2578 -0.6531 -0.1812
  278SOL     OW 1109   1.449   0.615   1.733 -0.0084 -0.4334  0.2911
  278SOL    HW1 1110   1.394   0.574   1.808 -0.5115  2.8171  0.0562
  278SOL    HW2 1111   1.542   0.597   1.748  1.6842 -1.0045 -1.8302
  278SOL     MW 1112   1.454   0.607   1.745  0.1486 -0.0799 -0.0198
  279SOL     OW 1113   0.554   0.028   2.278  0.3248  0.2039 -0.5614
  279SOL    HW1 1114   0.644   0.004   2.274  1.7544  0.1275 -1.0152
  279SOL    HW2 1115   0.552   0.121   2.260 -2.4459  0.1791  0.6654
  279SOL     MW 1116   0.566   0.037   2.275  0.1478  0.1906 -0.4594
  280SOL     OW 1117   1.454   0.964   2.124  0.7489 -0.1109  0.6610
  280SOL    HW1 1118   1.529   0.907   2.093  0.1497 -2.8031 -1.1315
  280SOL    HW2 1119   1.461   0.962   2.220  0.2649  0.2111 -0.0757
  280SOL     MW 1120   1.465   0.956   2.132  0.6060 -0.4236  0.3273
  281SOL     OW 1121   1.288   1.330   2.782  0.0370  0.8788 -0.2598
  281SOL    HW1 1122   1.381   1.333   2.762 -3.0061  0.5143  1.4907
  281SOL    HW2 1123   1.277   1.261   2.850  0.4049  0.8305  1.2373
  281SOL     MW 1124   1.299   1.321   2.789 -0.3160  0.8243  0.1687
  282SOL     OW 1125   1.103   1.291   1.692 -0.3339  0.4644  0.5359
  282SOL    HW1 1126   1.053   1.368   1.645 -1.4433 -0.8178 -0.5622
  282SOL    HW2 1127   1.091   1.313   1.784  1.9141  0.3424  0.6260
  282SOL     MW 1128   1.095   1.304   1.698 -0.1837  0.2791  0.4029
  283SOL     OW 1129   0.783   1.203   2.997  1.0025 -0.1277  0.1008
  283SOL    HW1 1130   0.848   1.161   3.055  4.7923 -1.5866  0.2224
  283SOL    HW2 1131   0.772   1.297   3.025  0.2672  1.7211  0.7505
  283SOL     MW 1132   0.790   1.210   3.008  1.4055 -0.0762  0.2026
  284SOL     OW 1133   0.514   0.645   2.387  0.4205  0.4061 -0.2411
  284SOL    HW1 1134   0.571   0.712   2.343 -0.9091 -2.1226 -0.5464
  284SOL    HW2 1135   0.477   0.600   2.310  3.1455  2.3509  0.2077
  284SOL     MW 1136   0.517   0.648   2.371  0.6046  0.3290 -0.2221
  285SOL     OW 1137   0.938   0.937   2.823  0.5440  0.2203  0.1591
  285SOL    HW1 1138   0.971   0.954   2.734  0.6189  0.4962  0.3973
  285SOL    HW2 1139   0.874   0.863   2.815 -1.5207 -1.9656 -1.1663
  285SOL     MW 1140   0.934   0.929   2.810  0.2814 -0.0317  0.0156
  286SOL     OW 1141   1.179   1.499   2.589 -0.0027 -0.5536 -0.3264
  286SOL    HW1 1142   1.202   1.466   2.676 -1.0823  0.9554  1.5367
  286SOL    HW2 1143   1.214   1.580   2.563 -0.6199 -0.5796  1.9856
  286SOL     MW 1144   1.187   1.505   2.597 -0.2266 -0.3579  0.2245
  287SOL     OW 1145   1.100   0.946   0.284  0.5497 -0.2182  0.0181
  287SOL    HW1 1146   1.152   0.991   0.357 -2.1842  1.3178  1.4174
  287SOL    HW2 1147   1.013   0.987   0.285  0.1007 -2.3253  1.3988
  287SOL     MW 1148   1.096   0.958   0.293  0.1297 -0.2935  0.3849
  288SOL     OW 1149   1.534   0.571   2.104  0.1497 -0.2277 -0.2720
  288SOL    HW1 1150   1.505   0.612   2.188 -0.2704 -0.0515  1.7091
  288SOL    HW2 1151   1.578   0.642   2.051 -2.1404  0.7130  1.0403
  288SOL     MW 1152   1.536   0.586   2.108 -0.2079 -0.0803  0.1625
  289SOL     OW 1153   0.988   1.046   2.569  1.0784 -0.1635  0.1381
  289SOL    HW1 1154   1.041   0.973   2.538  0.0978 -0.5283 -1.6748
  289SOL    HW2 1155   0.904   1.041   2.519  1.6302 -0.4193  1.0323
  289SOL     MW 1156   0.984   1.035   2.558  1.0218 -0.2454  0.0169
  290SOL     OW 1157   0.817   0.645   1.603 -0.1657  0.2976  0.0226
  290SOL    HW1 1158   0.862   0.633   1.517  1.4023  1.8631  1.5631
  290SOL    HW2 1159   0.891   0.645   1.661 -1.9964 -1.4951  1.0577
  290SOL     MW 1160   0.833   0.644   1.599 -0.2004  0.2676  0.3624
  291SOL     OW 1161   0.215   0.334   0.119  0.1755  0.8649  0.1324
  291SOL    HW1 1162   0.273   0.257   0.137  1.7918 -1.2862 -2.3419
  291SOL    HW2 1163   0.164   0.288   0.050 -2.1699  2.2856 -3.0901
  291SOL     MW 1164   0.216   0.318   0.112  0.0793  0.7685 -0.6193
  292SOL     OW 1165   1.014   0.599   0.095 -0.0844 -0.1465 -0.1492
  292SOL    HW1 1166   1.083   0.651   0.134  2.7455 -0.1403  1.3194
  292SOL    HW2 1167   1.024   0.518   0.149 -1.0451 -0.2855 -0.1003
  292SOL     MW 1168   1.024   0.595   0.107  0.1622 -0.1640  0.0510
  293SOL     OW 1169   0.182   0.125   2.437 -0.2385  0.1662  0.1204
  293SOL    HW1 1170   0.118   0.113   2.367  0.1293  0.3926 -1.9304
  293SOL    HW2 1171   0.140   0.180   2.505 -1.4850  0.8947 -1.9228
  293SOL     MW 1172   0.168   0.131   2.437 -0.3544  0.2922 -0.4198
  294SOL     OW 1173   1.503   0.642   2.368 -0.0215 -0.2412 -0.2133
  294SOL    HW1 1174   1.545   0.683   2.437 -2.7409 -3.0888  1.6968
  294SOL    HW2 1175   1.472   0.561   2.405 -0.2901 -0.8969  3.0932
  294SOL     MW 1176   1.505   0.637   2.382 -0.4158 -0.7034  0.4750
  295SOL     OW 1177   0.915   0.609   2.525 -0.2655 -0.2714  0.1172
  295SOL    HW1 1178   0.884   0.535   2.480  0.6774 -1.6073 -0.7708
  295SOL    HW2 1179   0.853   0.614   2.602 -0.9856  3.5360  0.3155
  295SOL     MW 1180   0.903   0.600   2.529 -0.2361  0.0547  0.0262
  296SOL     OW 1181   1.305   0.250   2.055  0.3010  0.3905  0.1283
  296SOL    HW1 1182   1.360   0.173   2.043 -0.5420  1.7304 -0.7233
  296SOL    HW2 1183   1.285   0.262   2.151 -0.2873  0.1849 -0.7238
  296SOL     MW 1184   1.310   0.242   2.066  0.1121  0.5401 -0.0965
  297SOL     OW 1185   1.391   0.363   1.631 -0.8204 -0.0885 -0.1436
  297SOL    HW1 1186   1.433   0.442   1.668 -0.0341  0.8953  1.6382
  297SOL    HW2 1187   1.449   0.288   1.653  0.8391 -0.0437  0.9964
  297SOL     MW 1188   1.404   0.364   1.639 -0.4977  0.0472  0.2419
  298SOL     OW 1189   1.652   0.805   1.987  0.2556 -0.3675 -0.2865
  298SOL    HW1 1190   1.627   0.866   1.915  0.0639 -0.4291  0.0720
  298SOL    HW2 1191   1.712   0.862   2.038  0.2764 -0.9610  0.9937
  298SOL     MW 1192   1.657   0.821   1.984  0.2330 -0.4539 -0.0703
  299SOL     OW 1193   0.589   1.100   0.040 -0.3289 -0.0406  0.0489
  299SOL    HW1 1194   0.665   1.138  -0.010  0.4388 -3.7012  2.4386
  299SOL    HW2 1195   0.535   1.070  -0.031 -1.7791  1.3240  1.0148
  299SOL     MW 1196   0.592   1.101   0.024 -0.4190 -0.3435  0.4916
  300SOL     OW 1197   1.293   1.153   2.546  0.4263 -0.2749 -0.7537
  300SOL    HW1 1198   1.202   1.137   2.545  3.4197  1.3955 -0.2594
  300SOL    HW2 1199   1.301   1.197   2.633 -2.6089 -0.4062  0.0644
  300SOL     MW 1200   1.282   1.157   2.557  0.4208 -0.0719 -0.5805
  301SOL     OW 1201   1.447   0.917   0.650  0.5400 -0.1652 -0.2823
  301SOL    HW1 1202   1.464   0.937   0.746  1.6139  0.2412 -1.3760
  301SOL    HW2 1203   1.385   0.842   0.652  4.7431  0.0645  0.7561
  301SOL     MW 1204   1.441   0.910   0.663  1.2362 -0.0813 -0.2896
  302SOL     OW 1205   0.136   1.477   2.026 -0.3729  0.3985 -0.5467
  302SOL    HW1 1206   0.134   1.410   2.092 -0.9065  1.9128  0.2322
  302SOL    HW2 1207   0.083   1.552   2.071 -1.4270  0.0814  1.0405
  302SOL     MW 1208   0.129   1.478   2.041 -0.5824  0.5565 -0.2345
  303SOL     OW 1209   0.377   1.726   2.638  0.2963  0.0444 -0.3300
  303SOL    HW1 1210   0.338   1.695   2.557 -2.9240  0.7973 -1.4190
  303SOL    HW2 1211   0.314   1.786   2.671  1.0122  2.6471 -1.1984
  303SOL     MW 1212   0.364   1.730   2.632 -0.0341  0.4871 -0.5882
  304SOL     OW 1213   0.565   2.072   2.353 -0.6054  0.0203  0.0498
  304SOL    HW1 1214   0.631   2.130   2.306 -2.5021  0.0429  0.8421
  304SOL    HW2 1215   0.599   1.981   2.351 -2.0470 -0.6782 -1.5611
  304SOL     MW 1216   0.578   2.067   2.347 -1.0459 -0.0689 -0.0582
  305SOL     OW 1217   1.124   0.586   0.489  0.1507 -0.0334 -0.7586
  305SOL    HW1 1218   1.035   0.614   0.486 -0.5562  0.2140 -0.4053
  305SOL    HW2 1219   1.134   0.499   0.533  1.1489 -3.5974 -2.3527
  305SOL     MW 1220   1.113   0.578   0.495  0.1891 -0.4710 -0.9223
  306SOL     OW 1221   1.180   1.478   0.274 -0.6261 -0.1506 -0.3150
  306SOL    HW1 1222   1.195   1.391   0.316 -2.3845 -0.3810  0.5402
  306SOL    HW2 1223   1.243   1.490   0.207 -2.0299  0.6765 -1.6797
  306SOL     MW 1224   1.190   1.468   0.271 -1.0434 -0.0718 -0.3822
  307SOL     OW 1225   1.327   0.510   1.949  0.0672  0.0577  0.1856
  307SOL    HW1 1226   1.302   0.425   1.981 -1.4381 -1.4939  1.6366
  307SOL    HW2 1227   1.394   0.528   2.022 -1.2522 -2.0925  0.5634
  307SOL     MW 1228   1.333   0.501   1.963 -0.3055 -0.4308  0.4269
  308SOL     OW 1229   2.139   0.550   2.728  0.3109 -0.5258  0.2518
  308SOL    HW1 1230   2.232   0.538   2.753 -2.1194  2.2819 -2.4754
  308SOL    HW2 1231   2.142   0.642   2.701 -2.5227  0.2278 -1.7606
  308SOL     MW 1232   2.152   0.560   2.728 -0.3837 -0.0559 -0.3735
  309SOL     OW 1233   0.447   0.407   0.373  0.0130  0.6272  0.0810
  309SOL    HW1 1234   0.522   0.388   0.431  1.0435 -0.8224 -2.9666
  309SOL    HW2 1235   0.424   0.324   0.335  1.9354  1.3230 -1.5871
  309SOL     MW 1236   0.454   0.394   0.375  0.4026  0.5277 -0.5412
  310SOL     OW 1237   0.501   0.625   1.940 -0.3939 -0.6615  0.1699
  310SOL    HW1 1238   0.564   0.544   1.937  0.5303  2.5507  1.3406
  310SOL    HW2 1239   0.556   0.695   1.920 -0.1071 -1.8730 -1.2312
  310SOL     MW 1240   0.517   0.623   1.937 -0.2341 -0.3975  0.1395
  311SOL     OW 1241   1.934   0.692   1.896 -0.2212 -0.4618 -0.0476
  311SOL    HW1 1242   1.896   0.716   1.978 -1.4444  0.3702  0.1478
  311SOL    HW2 1243   1.985   0.608   1.905  1.3538 -1.1608  1.7237
  311SOL     MW 1244   1.936   0.684   1.908 -0.1747 -0.4442  0.2119
  312SOL     OW 1245   1.765   2.561   0.124  0.2490 -0.4546  0.6475
  312SOL    HW1 1246   1.846   2.563   0.181  1.2961  2.3285 -0.9558
  312SOL    HW2 1247   1.694   2.621   0.165 -1.7547  0.9187 -0.6874
  312SOL     MW 1248   1.766   2.569   0.137  0.1227  0.0938  0.2599
  313SOL     OW 1249   0.085   1.142   2.988  0.1184 -1.0960  0.3504
  313SOL    HW1 1250   0.103   1.113   3.076 -0.1835 -0.0397 -0.6229
  313SOL    HW2 1251   0.154   1.203   2.967 -0.0266  1.0443 -0.9704
  313SOL     MW 1252   0.096   1.146   2.997  0.0595 -0.6742  0.0477
  314SOL     OW 1253   2.149   2.935   2.987  0.5122 -0.3509 -0.1929
  314SOL    HW1 1254   2.097   3.001   2.940  0.2166 -2.2335  0.7402
  314SOL    HW2 1255   2.206   3.006   3.020 -0.7371  0.6966 -3.1781
  314SOL     MW 1256   2.150   2.953   2.986  0.3084 -0.4610 -0.4636
  315SOL     OW 1257   1.523   1.973   3.101  0.1701  0.0564  0.3342
  315SOL    HW1 1258   1.440   2.015   3.114  0.1890 -1.3384  1.0826
  315SOL    HW2 1259   1.554   2.018   3.027 -1.0922 -0.5306  3.1716
  315SOL     MW 1260   1.516   1.984   3.093  0.0060 -0.2051  0.8073
  316SOL     OW 1261   1.286   0.682   2.714 -0.3282 -0.2595  0.0364
  316SOL    HW1 1262   1.370   0.704   2.675 -0.2503  1.6255  0.9333
  316SOL    HW2 1263   1.293   0.698   2.808  1.6319  0.8933  1.8637
  316SOL     MW 1264   1.298   0.687   2.722 -0.0593  0.1413  0.3959
  317SOL     OW 1265   0.727   1.454   2.584 -0.0118 -0.4340  0.1437
  317SOL    HW1 1266   0.809   1.399   2.580 -0.4509 -1.1790  0.5159
  317SOL    HW2 1267   0.724   1.516   2.504 -1.4651  0.4007 -0.4244
  317SOL     MW 1268   0.737   1.455   2.573 -0.2615 -0.4222  0.1179
  318SOL     OW 1269   1.322   0.357   2.902 -0.3738  0.0148  0.4217
  318SOL    HW1 1270   1.225   0.393   2.920 -1.6315 -2.6377 -0.0725
  318SOL    HW2 1271   1.388   0.423   2.938 -0.3360 -0.0838  0.0132
  318SOL     MW 1272   1.318   0.370   2.909 -0.5348 -0.3482  0.3026
  319SOL     OW 1273   0.781   0.418   2.868  0.1880  0.2201  0.4185
  319SOL    HW1 1274   0.748   0.368   2.793  0.7588 -0.6389  2.2752
  319SOL    HW2 1275   0.724   0.391   2.942  1.4226  0.3068 -1.7824
  319SOL     MW 1276   0.769   0.407   2.868  0.4262  0.1182  0.3731
  320SOL     OW 1277   1.086   1.347   1.948 -0.3586  0.1068  0.5005
  320SOL    HW1 1278   1.127   1.284   2.009 -4.0534 -2.5150 -1.8088
  320SOL    HW2 1279   1.136   1.429   1.945  0.6207  0.7806  1.6171
  320SOL     MW 1280   1.098   1.349   1.955 -0.7169 -0.1502  0.3432
  321SOL     OW 1281   1.110   0.909   3.022  0.8323  0.0108  0.4801
  321SOL    HW1 1282   1.058   0.914   2.942 -4.0080 -0.3007  3.2088
  321SOL    HW2 1283   1.154   0.826   3.011  0.3746 -0.2078 -2.3045
  321SOL     MW 1284   1.109   0.899   3.010  0.1333 -0.0591  0.4727
  322SOL     OW 1285   1.284   0.842   1.689 -0.3374  0.3704 -0.3379
  322SOL    HW1 1286   1.357   0.782   1.720 -1.0025  0.7481 -0.5042
  322SOL    HW2 1287   1.281   0.903   1.766  0.5857  0.2672  0.3747
  322SOL     MW 1288   1.293   0.843   1.703 -0.3034  0.4066 -0.2658
  323SOL     OW 1289   1.245   1.557   1.910 -0.2529  0.2442 -0.0586
  323SOL    HW1 1290   1.288   1.524   1.825 -0.5659 -0.2146 -1.7926
  323SOL    HW2 1291   1.174   1.621   1.880  0.4915  1.9918  2.5168
  323SOL     MW 1292   1.242   1.561   1.895 -0.1959  0.4142  0.0524
  324SOL     OW 1293   1.494   0.960   2.414 -0.7431  0.3351  0.4017
  324SOL    HW1 1294   1.420   1.012   2.428  5.1472 -2.1995  0.4697
  324SOL    HW2 1295   1.559   1.017   2.457 -1.4296  0.4637 -1.8429
  324SOL     MW 1296   1.493   0.974   2.421 -0.0565  0.0177  0.1145
  325SOL     OW 1297   1.076   0.419   2.962 -0.0369  0.5233  0.6415
  325SOL    HW1 1298   1.034   0.463   3.035 -0.7302  0.0168  0.2583
  325SOL    HW2 1299   1.011   0.455   2.893 -1.2237  1.6472 -1.1166
  325SOL     MW 1300   1.062   0.430   2.963 -0.2850  0.6047  0.3590
  326SOL     OW 1301   0.477   1.373   2.220  0.8213  0.2627  0.1993
  326SOL    HW1 1302   0.536   1.308   2.181  1.6813 -0.7619 -1.4952
  326SOL    HW2 1303   0.488   1.457   2.170 -0.0943 -1.3600 -1.8538
  326SOL     MW 1304   0.486   1.376   2.208  0.8140 -0.0865 -0.2952
  327SOL     OW 1305   1.930   0.793   2.423 -0.0096 -0.2072 -0.1830
  327SOL    HW1 1306   1.932   0.747   2.505  0.1992  1.8223 -0.9854
  327SOL    HW2 1307   2.020   0.830   2.406 -0.0285 -0.7070  0.5007
  327SOL     MW 1308   1.942   0.792   2.431  0.0154 -0.0054 -0.1987
  328SOL     OW 1309   0.157   1.301   2.210  0.2780  0.2692  0.6688
  328SOL    HW1 1310   0.109   1.229   2.163 -0.1374  1.2510  1.3387
  328SOL    HW2 1311   0.243   1.271   2.215 -1.6125  1.6784 -0.7079
  328SOL     MW 1312   0.162   1.287   2.204 -0.0263  0.5847  0.5756
  329SOL     OW 1313   0.154   0.186   1.313  0.3870  0.8641  0.0871
  329SOL    HW1 1314   0.117   0.182   1.401  0.6685  0.9746 -1.3757
  329SOL    HW2 1315   0.243   0.213   1.310 -3.7487  2.9357 -1.6418
  329SOL     MW 1316   0.161   0.189   1.324 -0.1215  1.1520 -0.3340
  330SOL     OW 1317   0.379   3.094   2.055  0.8291  0.2696  0.2240
  330SOL    HW1 1318   0.448   3.107   2.125  0.9823  2.2188  2.5545
  330SOL    HW2 1319   0.309   3.050   2.105 -2.9220  0.4339  1.8464
  330SOL     MW 1320   0.379   3.090   2.071  0.3544  0.5484  0.7455
  331SOL     OW 1321   0.868   1.214   2.279 -0.2723  0.1037 -0.4105
  331SOL    HW1 1322   0.793   1.264   2.243 -2.3183  3.3852  0.7154
  331SOL    HW2 1323   0.926   1.278   2.325  4.4042 -0.4231  1.0964
  331SOL     MW 1324   0.866   1.229   2.281  0.0748  0.4671 -0.0632
  332SOL     OW 1325   1.329   1.770   3.034 -0.1972 -0.2875 -0.3090
  332SOL    HW1 1326   1.353   1.757   2.942  1.3070 -0.2408 -1.3302
  332SOL    HW2 1327   1.386   1.851   3.048  2.3861 -1.2208 -1.4770
  332SOL     MW 1328   1.340   1.779   3.024  0.3421 -0.4045 -0.5978
  333SOL     OW 1329   1.747   1.391   2.963  0.1621 -0.0523  0.7708
  333SOL    HW1 1330   1.843   1.374   2.961 -1.8565  0.7302  1.4772
  333SOL    HW2 1331   1.713   1.365   3.046  0.6527 -1.3893  2.1236
  333SOL     MW 1332   1.755   1.385   2.974 -0.0395 -0.1254  1.0425
  334SOL     OW 1333   1.396  -0.002   2.623 -0.3790  0.0275 -0.2866
  334SOL    HW1 1334   1.304   0.007   2.644  2.1403  2.6224  2.4415
  334SOL    HW2 1335   1.436   0.077   2.655  2.1216 -1.9886  1.4482
  334SOL     MW 1336   1.389   0.009   2.630  0.2833  0.1039  0.3023
  335SOL     OW 1337   1.356   0.770   2.976  0.0942 -0.3403 -0.8832
  335SOL    HW1 1338   1.395   0.760   3.062 -1.1816  0.0482 -1.0636
  335SOL    HW2 1339   1.398   0.847   2.941  2.7279  1.7235  0.7531
  335SOL     MW 1340   1.366   0.779   2.983  0.2734 -0.0167 -0.6911
  336SOL     OW 1341   0.953   1.058   1.979 -0.4116  0.2611  0.0529
  336SOL    HW1 1342   0.968   1.150   1.984  3.6661  0.4313  0.1399
  336SOL    HW2 1343   1.040   1.018   1.996  0.6072  0.2683 -3.3407
  336SOL     MW 1344   0.967   1.065   1.982  0.2608  0.2845 -0.3834
  337SOL     OW 1345   0.600   1.821   2.779 -0.7141  0.7047  0.6522
  337SOL    HW1 1346   0.536   1.771   2.723  4.4439 -1.5496  0.2893
  337SOL    HW2 1347   0.684   1.778   2.762  1.5009  1.2062  0.3699
  337SOL     MW 1348   0.603   1.809   2.769  0.2587  0.4734  0.5671
  338SOL     OW 1349   1.119   0.792   2.512 -0.0593  0.3701  0.2590
  338SOL    HW1 1350   1.052   0.719   2.506 -0.1410 -2.7157  1.5198
  338SOL    HW2 1351   1.178   0.754   2.586  1.0423 -2.5353  1.0897
  338SOL     MW 1352   1.118   0.778   2.521  0.0753 -0.4204  0.5350
  339SOL     OW 1353   1.530   1.027   1.811 -0.3315  0.4357  0.2234
  339SOL    HW1 1354   1.469   1.053   1.744  1.7470  2.2546 -0.5812
  339SOL    HW2 1355   1.485   1.059   1.893 -2.3187 -3.5655 -0.0024
  339SOL     MW 1356   1.516   1.035   1.813 -0.3194  0.1478  0.0874
  340SOL     OW 1357   1.347   1.509   0.074 -0.7882  0.9691  0.2311
  340SOL    HW1 1358   1.342   1.585   0.022  0.1188 -0.0280 -1.7831
  340SOL    HW2 1359   1.436   1.500   0.102  0.2258 -0.3421  1.4310
  340SOL     MW 1360   1.358   1.518   0.071 -0.5347  0.6645  0.1237
  341SOL     OW 1361   0.152   1.422   2.724  0.5113 -0.1400  0.8127
  341SOL    HW1 1362   0.235   1.410   2.673 -0.9362  2.2235 -0.8832
  341SOL    HW2 1363   0.085   1.373   2.678 -1.7189  0.0800  2.3685
  341SOL     MW 1364   0.154   1.414   2.712  0.0261  0.2008  0.7942
  342SOL     OW 1365   1.288   0.348   0.089 -0.2187  0.1210  0.0073
  342SOL    HW1 1366   1.366   0.385   0.130  0.5361  0.4580 -2.2656
  342SOL    HW2 1367   1.297   0.360  -0.006 -0.2030  1.0561  0.2361
  342SOL     MW 1368   1.300   0.355   0.082 -0.1171  0.2889 -0.2624
  343SOL     OW 1369   0.223   0.302   2.147 -0.1564 -0.5046 -0.0067
  343SOL    HW1 1370   0.285   0.233   2.154  1.2980 -1.2260  3.2203
  343SOL    HW2 1371   0.140   0.259   2.116 -0.4525  0.5270 -4.4224
  343SOL     MW 1372   0.220   0.287   2.144 -0.0036 -0.4637 -0.1635
  344SOL     OW 1373   1.710   2.072   0.182  0.4886 -0.0315 -0.3390
  344SOL    HW1 1374   1.709   2.158   0.135 -2.1004 -0.8446 -1.3634
  344SOL    HW2 1375   1.621   2.033   0.158  0.7252  0.5773  2.0115
  344SOL     MW 1376   1.698   2.078   0.173  0.1782 -0.0585 -0.1640
  345SOL     OW 1377   0.758   1.592   2.358  0.4695 -0.0853 -0.1236
  345SOL    HW1 1378   0.678   1.619   2.316  2.9844  0.2724  1.0492
  345SOL    HW2 1379   0.827   1.569   2.299 -0.5127  3.1092  0.4149
  345SOL     MW 1380   0.757   1.592   2.345  0.6718  0.3834  0.1022
  346SOL     OW 1381   1.773   1.054   0.001 -0.2938 -0.3100  0.5912
  346SOL    HW1 1382   1.826   1.126   0.034  1.0883 -2.0333 -0.3560
  346SOL    HW2 1383   1.716   1.023   0.070 -1.4549 -1.5127 -0.8998
  346SOL     MW 1384   1.772   1.059   0.014 -0.2647 -0.6961  0.2695
  347SOL     OW 1385   1.260   0.733   2.292 -0.9091 -0.4153 -0.6238
  347SOL    HW1 1386   1.345   0.713   2.324 -0.8010  0.4648  0.8364
  347SOL    HW2 1387   1.216   0.783   2.362 -0.5400  0.7529  0.4294
  347SOL     MW 1388   1.265   0.737   2.305 -0.8462 -0.1451 -0.2922
  348SOL     OW 1389   1.430   2.672   1.896 -0.1255  0.1217  0.4225
  348SOL    HW1 1390   1.450   2.587   1.937  0.4513  1.2693 -1.6790
  348SOL    HW2 1391   1.433   2.744   1.962 -1.3779  0.4312 -0.2436
  348SOL     MW 1392   1.433   2.670   1.910 -0.2146  0.3139  0.0573
  349SOL     OW 1393   1.501   0.285   2.694 -0.1748  0.0964  0.2856
  349SOL    HW1 1394   1.434   0.319   2.754 -2.0053 -0.1592 -3.0660
  349SOL    HW2 1395   1.570   0.256   2.753  0.8880 -3.1920  1.3711
  349SOL     MW 1396   1.502   0.285   2.710 -0.2761 -0.3712 -0.0134
  350SOL     OW 1397   1.873   0.638   2.687 -0.4951  0.4420  0.5519
  350SOL    HW1 1398   1.827   0.562   2.643 -1.2764 -0.8341 -2.5933
  350SOL    HW2 1399   1.954   0.609   2.724 -1.1122  2.5818 -2.5014
  350SOL     MW 1400   1.878   0.624   2.686 -0.6796  0.5559 -0.2660
  351SOL     OW 1401   0.053   0.982   1.482  0.5019  0.5834 -0.0739
  351SOL    HW1 1402  -0.000   1.022   1.558 -3.2017 -0.7860 -0.8748
  351SOL    HW2 1403   0.128   1.037   1.488  0.1899 -0.6528 -3.2374
  351SOL     MW 1404   0.056   0.995   1.493 -0.0279  0.2396 -0.5970
  352SOL     OW 1405   0.825   1.681   2.707 -0.1934 -0.7277 -1.2347
  352SOL    HW1 1406   0.887   1.652   2.777  0.7861 -1.4874  0.7460
  352SOL    HW2 1407   0.799   1.602   2.661  1.6530  1.4715  1.1457
  352SOL     MW 1408   0.829   1.667   2.710  0.1794 -0.5378 -0.6593
  353SOL     OW 1409   3.070   2.484   2.641  0.1500 -0.0896 -0.2319
  353SOL    HW1 1410   3.164   2.507   2.633 -2.2071  1.2042  1.0995
  353SOL    HW2 1411   3.027   2.568   2.638 -0.1314  1.4500 -0.8389
  353SOL     MW 1412   3.076   2.498   2.639 -0.1981  0.2842 -0.1363
  354SOL     OW 1413   0.286   2.529   0.814 -0.0418 -0.2289 -0.3944
  354SOL    HW1 1414   0.347   2.505   0.884  1.4817  0.6633  0.5469
  354SOL    HW2 1415   0.220   2.458   0.807 -2.2366  0.6269  0.8789
  354SOL     MW 1416   0.285   2.516   0.822 -0.1304  0.0017 -0.1022
  355SOL     OW 1417   0.068   2.278   0.382  0.5429 -0.1099 -0.1335
  355SOL    HW1 1418  -0.004   2.215   0.397  0.5641  0.8163 -1.4878
  355SOL    HW2 1419   0.065   2.329   0.462  0.6297  1.4786 -0.7910
  355SOL     MW 1420   0.058   2.277   0.395  0.5571  0.2219 -0.3990
  356SOL     OW 1421   0.804   2.820   0.973 -0.1556 -0.8635 -0.5217
  356SOL    HW1 1422   0.834   2.850   0.884 -0.1641  2.7173 -0.5598
  356SOL    HW2 1423   0.709   2.801   0.974  2.7273 -1.6374  0.3413
  356SOL     MW 1424   0.795   2.822   0.961  0.2237 -0.4931 -0.4129
  357SOL     OW 1425   1.791   2.930   0.418 -0.4642  0.3152 -0.2215
  357SOL    HW1 1426   1.736   2.866   0.472  1.1564 -2.4595  1.6201
  357SOL    HW2 1427   1.875   2.882   0.411  2.1320 -3.7601  0.7840
  357SOL     MW 1428   1.795   2.915   0.424  0.0922 -0.5886  0.1541
  358SOL     OW 1429   0.481   0.123   1.110 -0.5753  0.0993 -0.0622
  358SOL    HW1 1430   0.571   0.104   1.084  0.6499  2.6744 -1.2248
  358SOL    HW2 1431   0.433   0.151   1.024  0.3851 -0.6518  1.8397
  358SOL     MW 1432   0.486   0.124   1.095 -0.2870  0.3400  0.0354
  359SOL     OW 1433   0.879   2.953   1.855 -0.2972  0.2635  0.2032
  359SOL    HW1 1434   0.862   2.860   1.880  0.1669  2.2478  0.5327
  359SOL    HW2 1435   0.924   2.930   1.777 -0.2691 -2.1754  1.9137
  359SOL     MW 1436   0.882   2.938   1.848 -0.2323  0.2035  0.4723
  360SOL     OW 1437   0.532   2.742   0.973 -0.1750  0.5044 -0.1596
  360SOL    HW1 1438   0.528   2.706   0.883 -0.5067 -1.1067 -2.2055
  360SOL    HW2 1439   0.542   2.664   1.032  3.2392 -1.8050  0.2841
  360SOL     MW 1440   0.532   2.727   0.969  0.2317 -0.0129 -0.3710
  361SOL     OW 1441   0.152   2.687   1.322 -0.2228 -0.2692  0.2334
  361SOL    HW1 1442   0.109   2.742   1.390  0.3834  1.4180 -0.5662
  361SOL    HW2 1443   0.246   2.702   1.331 -2.0717 -0.8030  0.2917
  361SOL     MW 1444   0.158   2.696   1.332 -0.3868 -0.1170  0.1356
  362SOL     OW 1445   1.486   2.438   0.611  0.4294 -0.3346 -0.2277
  362SOL    HW1 1446   1.468   2.375   0.680 -1.0502  0.8794  0.1560
  362SOL    HW2 1447   1.484   2.525   0.660 -1.7810  0.3849  0.0058
  362SOL     MW 1448   1.484   2.441   0.627 -0.0575 -0.0795 -0.1462
  363SOL     OW 1449   0.321   3.070   0.699  0.7393 -0.0545 -0.2402
  363SOL    HW1 1450   0.307   3.007   0.775 -0.7496 -1.0141  0.0611
  363SOL    HW2 1451   0.237   3.085   0.663  1.5018 -0.7674 -0.3657
  363SOL     MW 1452   0.308   3.064   0.704  0.6435 -0.2752 -0.2170
  364SOL     OW 1453   0.688   0.169   0.214  0.5960  0.3974 -0.3466
  364SOL    HW1 1454   0.626   0.102   0.253 -1.0278 -1.7647 -0.0096
  364SOL    HW2 1455   0.644   0.243   0.177  2.7905  0.9394  0.9827
  364SOL     MW 1456   0.674   0.170   0.214  0.6713  0.1837 -0.1268
  365SOL     OW 1457   0.966   1.979   1.084  0.0077  0.3374  0.3910
  365SOL    HW1 1458   0.967   2.058   1.040  0.1873 -1.6193  1.5375
  365SOL    HW2 1459   0.886   1.936   1.048 -0.8373  1.0101  0.1596
  365SOL     MW 1460   0.955   1.984   1.073 -0.0801  0.1680  0.5117
  366SOL     OW 1461   2.826   2.634   1.009 -0.2349  0.3041 -0.0340
  366SOL    HW1 1462   2.916   2.638   1.053  1.3686 -0.1659 -1.8656
  366SOL    HW2 1463   2.863   2.664   0.929 -2.0898 -0.0848 -0.0584
  366SOL     MW 1464   2.843   2.638   1.004 -0.2681  0.1908 -0.2789
  367SOL     OW 1465   1.259   2.939   0.876  0.2032  0.0791 -1.0758
  367SOL    HW1 1466   1.240   3.007   0.809 -0.6434 -2.2083 -0.5058
  367SOL    HW2 1467   1.221   2.860   0.832  0.6376 -0.6376  1.9680
  367SOL     MW 1468   1.252   2.938   0.862  0.1488 -0.3173 -0.5990
  368SOL     OW 1469   1.648   0.406   0.692  0.1457  0.2758  0.0092
  368SOL    HW1 1470   1.732   0.361   0.665  2.6994 -0.1921  0.6489
  368SOL    HW2 1471   1.667   0.502   0.691 -0.4395 -2.6298  0.3562
  368SOL     MW 1472   1.661   0.413   0.688  0.4054 -0.1693  0.1394
  369SOL     OW 1473   0.125   2.517   1.657 -0.5492 -0.1238  0.4269
  369SOL    HW1 1474   0.210   2.516   1.705 -0.9847 -0.5391  0.3278
  369SOL    HW2 1475   0.076   2.591   1.675  1.1052 -3.8612 -2.6997
  369SOL     MW 1476   0.130   2.527   1.665 -0.3883 -0.6717  0.0013
  370SOL     OW 1477   0.742   0.075   0.949 -0.2011  0.4487  0.7273
  370SOL    HW1 1478   0.822   0.111   0.983 -0.5616  0.5714  1.5213
  370SOL    HW2 1479   0.742  -0.024   0.947 -1.7780  0.3290  1.9850
  370SOL     MW 1480   0.752   0.067   0.953 -0.4567  0.4491  0.9980
  371SOL     OW 1481   1.337   2.937   1.498  0.3348 -0.5636  0.7247
  371SOL    HW1 1482   1.267   2.879   1.468 -0.0226 -1.4059  1.7488
  371SOL    HW2 1483   1.326   3.020   1.441 -0.2776 -0.8557 -3.3236
  371SOL     MW 1484   1.326   2.941   1.487  0.2068 -0.7133  0.3257
  372SOL     OW 1485   0.760   2.310   0.478 -0.4344 -0.7932  0.1409
  372SOL    HW1 1486   0.717   2.224   0.484  3.6334 -1.8918  0.4555
  372SOL    HW2 1487   0.796   2.315   0.392  0.1071 -0.9732 -1.8574
  372SOL     MW 1488   0.759   2.299   0.468  0.1738 -0.9619 -0.0812
  373SOL     OW 1489   2.750   3.036   1.437  0.1042 -0.3186 -0.5928
  373SOL    HW1 1490   2.824   3.006   1.390  0.1846 -0.2313  1.6768
  373SOL    HW2 1491   2.706   3.098   1.379  1.4728 -2.1699 -1.2994
  373SOL     MW 1492   2.754   3.041   1.423  0.2954 -0.5514 -0.3865
  374SOL     OW 1493   1.498   0.458   0.209 -0.2720  0.4394 -0.0819
  374SOL    HW1 1494   1.567   0.398   0.200 -1.1517  1.4080  3.6385
  374SOL    HW2 1495   1.458   0.448   0.295 -1.0673  0.8761  1.0126
  374SOL     MW 1496   1.501   0.449   0.219 -0.4930  0.6249  0.5534
  375SOL     OW 1497   1.028   2.078   2.309 -0.6284  0.1354  0.1260
  375SOL    HW1 1498   1.101   2.065   2.364 -0.1221 -1.1040  1.9609
  375SOL    HW2 1499   1.048   2.034   2.229  0.3353 -2.2072  2.8298
  375SOL     MW 1500   1.040   2.070   2.305 -0.4345 -0.3372  0.7248
  376SOL     OW 1501   0.634   2.585   0.064  0.8256 -0.2650  0.2744
  376SOL    HW1 1502   0.660   2.540   0.150 -1.1677  1.0789 -3.9523
  376SOL    HW2 1503   0.613   2.515   0.005 -0.9540  1.9279  2.7977
  376SOL     MW 1504   0.635   2.570   0.068  0.3278  0.2016  0.0496
  377SOL     OW 1505   1.294   2.017   0.859 -0.3034  0.4747  0.2927
  377SOL    HW1 1506   1.210   2.010   0.812  0.3596 -0.4099  0.5964
  377SOL    HW2 1507   1.266   1.978   0.945 -0.4748  4.2153  1.5947
  377SOL     MW 1508   1.279   2.011   0.864 -0.2386  0.8515  0.5046
  378SOL     OW 1509   0.997   2.798   1.638 -0.6424 -0.2621 -0.0446
  378SOL    HW1 1510   0.949   2.714   1.630  0.1662  0.3100 -1.0650
  378SOL    HW2 1511   0.957   2.857   1.575 -2.9798 -0.8836 -1.9936
  378SOL     MW 1512   0.986   2.795   1.628 -0.8441 -0.2686 -0.4364
  379SOL     OW 1513   1.154   1.777   2.268  0.0396 -0.1380  0.0600
  379SOL    HW1 1514   1.080   1.787   2.208  0.3540 -0.1236 -1.0409
  379SOL    HW2 1515   1.198   1.694   2.244  3.4838  2.1128  1.3278
  379SOL     MW 1516   1.150   1.768   2.257  0.5355  0.1609  0.0820
  380SOL     OW 1517   0.768   0.057   1.567 -0.1969  0.3334 -0.3340
  380SOL    HW1 1518   0.805   0.063   1.476  3.9355 -0.9146 -1.7188
  380SOL    HW2 1519   0.838   0.101   1.620 -0.6696  0.7747  3.4313
  380SOL     MW 1520   0.782   0.064   1.562  0.2860  0.2270 -0.0199
  381SOL     OW 1521   0.813   2.052   0.769 -0.2199 -0.3444  0.4770
  381SOL    HW1 1522   0.898   2.024   0.726 -1.3260  1.3794  0.4866
  381SOL    HW2 1523   0.836   2.117   0.834  1.2738  1.3083 -0.8391
  381SOL     MW 1524   0.827   2.057   0.772 -0.1688  0.1011  0.3046
  382SOL     OW 1525   0.629   0.116   0.693  0.5855  0.2376  0.1901
  382SOL    HW1 1526   0.644   0.113   0.797  1.2040 -1.6920  1.2120
  382SOL    HW2 1527   0.591   0.033   0.663  0.1504  2.5012 -0.1615
  382SOL     MW 1528   0.626   0.105   0.703  0.6097  0.2816  0.2785
  383SOL     OW 1529   0.572   3.052   0.322 -0.0563 -0.8313 -0.6306
  383SOL    HW1 1530   0.623   2.996   0.267  1.3526  0.1897 -1.8629
  383SOL    HW2 1531   0.520   2.995   0.375  1.7446  3.3940  0.2413
  383SOL     MW 1532   0.571   3.037   0.321  0.3672 -0.1391 -0.6782
  384SOL     OW 1533   0.631   2.934   0.619  0.4797 -0.7663 -0.4699
  384SOL    HW1 1534   0.725   2.930   0.646  1.5553  4.1420  1.6190
  384SOL    HW2 1535   0.596   2.847   0.645  0.8946 -2.2149  1.6590
  384SOL     MW 1536   0.639   2.922   0.626  0.6764 -0.3098  0.0866
  385SOL     OW 1537   1.341   2.100   1.524 -0.0954  0.2426  0.3374
  385SOL    HW1 1538   1.429   2.140   1.548  1.9276  0.0078  1.0713
  385SOL    HW2 1539   1.321   2.027   1.581  1.4494  1.6162 -0.0032
  385SOL     MW 1540   1.350   2.096   1.535  0.3754  0.3929  0.3893
  386SOL     OW 1541   1.300   0.372   0.849  0.1210  0.4701  0.2942
  386SOL    HW1 1542   1.223   0.421   0.880  0.3861  2.8393  2.1385
  386SOL    HW2 1543   1.335   0.303   0.908  1.3728 -2.0994  0.1404
  386SOL     MW 1544   1.294   0.369   0.861  0.3212  0.4436  0.5173
  387SOL     OW 1545   0.864   2.172   1.485 -0.3724  0.0709 -0.0913
  387SOL    HW1 1546   0.940   2.212   1.448 -1.6657 -0.6894  0.0703
  387SOL    HW2 1547   0.858   2.088   1.441 -1.1059  1.8619 -0.4081
  387SOL     MW 1548   0.873   2.166   1.475 -0.6398  0.2069 -0.1118
  388SOL     OW 1549   1.565   2.812   1.235 -0.0732 -0.1228  0.3223
  388SOL    HW1 1550   1.487   2.764   1.210  2.9735  0.3842 -0.8218
  388SOL    HW2 1551   1.630   2.762   1.191 -0.3057  0.8344 -1.0640
  388SOL     MW 1552   1.563   2.799   1.226  0.2981  0.0704 -0.0115
  389SOL     OW 1553   0.461   0.054   3.047 -0.0369  0.3205  0.2426
  389SOL    HW1 1554   0.554   0.062   3.010 -1.1767 -0.0219  0.5807
  389SOL    HW2 1555   0.397   0.095   2.983  0.2802  1.0110 -0.7790
  389SOL     MW 1556   0.465   0.061   3.033 -0.1454  0.3664  0.1525
  390SOL     OW 1557   1.287   0.100   0.654  0.1828  0.3130  0.5652
  390SOL    HW1 1558   1.375   0.094   0.618  0.7036  0.0043 -2.2421
  390SOL    HW2 1559   1.306   0.133   0.742 -1.1282 -1.3073 -0.6041
  390SOL     MW 1560   1.301   0.103   0.661  0.0786  0.0585  0.0405
  391SOL     OW 1561   0.315   2.190   1.393  0.2985  0.3003  0.3215
  391SOL    HW1 1562   0.249   2.112   1.407 -1.9086 -0.1536 -0.4780
  391SOL    HW2 1563   0.256   2.266   1.411  2.0980  1.8738  0.4514
  391SOL     MW 1564   0.299   2.190   1.398  0.2447  0.4480  0.2331
  392SOL     OW 1565   2.060   2.177   0.357  0.4426 -0.0180 -0.4185
  392SOL    HW1 1566   2.156   2.188   0.361  1.0349 -1.1105 -4.5459
  392SOL    HW2 1567   2.024   2.249   0.403  0.1990  1.4600  1.0310
  392SOL     MW 1568   2.068   2.188   0.364  0.4886  0.0329 -0.7718
  393SOL     OW 1569   0.150   3.035   2.756  0.2140 -0.4757  0.1462
  393SOL    HW1 1570   0.214   3.003   2.686 -0.8026 -3.1282 -1.7198
  393SOL    HW2 1571   0.144   3.130   2.751  0.1454 -1.6789  2.0785
  393SOL     MW 1572   0.158   3.043   2.746  0.0708 -0.9844  0.1549
  394SOL     OW 1573   0.894   1.756   1.542 -0.8651  0.8293  0.4843
  394SOL    HW1 1574   0.827   1.782   1.602 -0.2707 -0.8440 -2.5788
  394SOL    HW2 1575   0.886   1.819   1.470 -2.5336  1.8834  0.1347
  394SOL     MW 1576   0.884   1.767   1.540 -1.0068  0.7476  0.0340
  395SOL     OW 1577   1.035   2.796   2.590  0.2602 -0.3907 -0.1461
  395SOL    HW1 1578   1.094   2.871   2.601 -0.1011  3.5193  1.2288
  395SOL    HW2 1579   1.092   2.734   2.547  0.8476 -0.0493  0.7825
  395SOL     MW 1580   1.050   2.798   2.586  0.2900  0.1702  0.1578
  396SOL     OW 1581   0.741   1.859   2.394 -0.3727  0.1782  0.0910
  396SOL    HW1 1582   0.823   1.890   2.435 -0.5531 -1.9814 -0.8449
  396SOL    HW2 1583   0.752   1.760   2.406  1.9700 -2.0550  0.1894
  396SOL     MW 1584   0.753   1.850   2.401 -0.0874 -0.4013 -0.0195
  397SOL     OW 1585   1.010   2.316   1.246  0.1016 -0.3513  0.0289
  397SOL    HW1 1586   1.060   2.363   1.169  1.3287  0.5822  0.8121
  397SOL    HW2 1587   1.077   2.309   1.320 -1.5924 -0.0161  1.0669
  397SOL     MW 1588   1.026   2.321   1.246  0.0400 -0.1839  0.2692
  398SOL     OW 1589   0.532   2.671   0.717 -0.1753 -0.4559 -0.6833
  398SOL    HW1 1590   0.451   2.626   0.695  0.6020  3.0464  0.5902
  398SOL    HW2 1591   0.604   2.610   0.685  0.8356 -2.0143  0.1807
  398SOL     MW 1592   0.531   2.657   0.710  0.0606 -0.1994 -0.4013
  399SOL     OW 1593   0.246   2.080   0.387  0.3342 -0.6197  0.5019
  399SOL    HW1 1594   0.184   2.150   0.392  1.7582  2.1468 -1.9811
  399SOL    HW2 1595   0.292   2.108   0.313 -2.8737  0.7247 -0.7261
  399SOL     MW 1596   0.244   2.093   0.378  0.0988 -0.0773  0.0123
  400SOL     OW 1597   0.524   1.896   0.183 -1.0456 -0.1826  0.4393
  400SOL    HW1 1598   0.489   1.984   0.206 -0.1881  1.8824 -1.7861
  400SOL    HW2 1599   0.489   1.844   0.258 -2.8106  1.7235 -0.7017
  400SOL     MW 1600   0.515   1.901   0.196 -1.1653  0.3414 -0.0049
  401SOL     OW 1601   0.777   2.010   0.112  0.5635  0.3392 -0.2218
  401SOL    HW1 1602   0.839   1.937   0.148  2.0311 -0.9419  0.8659
  401SOL    HW2 1603   0.688   1.997   0.154 -0.8533  0.5887  0.5640
  401SOL     MW 1604   0.774   1.998   0.123  0.5702  0.2031  0.0254
  402SOL     OW 1605   0.620   3.011   1.763 -0.0976 -0.4451  0.8662
  402SOL    HW1 1606   0.705   3.009   1.805 -1.4359 -0.3933  1.1254
  402SOL    HW2 1607   0.625   3.086   1.700  1.1006 -0.2801  2.6404
  402SOL     MW 1608   0.632   3.020   1.760 -0.1161 -0.4165  1.1345
  403SOL     OW 1609   0.108   0.416   0.374 -0.3653 -0.3942 -0.4818
  403SOL    HW1 1610   0.164   0.465   0.434 -4.3999  0.9980  0.8230
  403SOL    HW2 1611   0.157   0.395   0.294  0.4803  1.0762  0.0918
  403SOL     MW 1612   0.122   0.420   0.371 -0.7861 -0.0165 -0.2339
  404SOL     OW 1613   0.879   2.880   0.705  0.3095  0.5397  0.0629
  404SOL    HW1 1614   0.925   2.814   0.655 -1.5975  0.3847  0.9222
  404SOL    HW2 1615   0.916   2.965   0.682 -1.9716  1.6297 -0.3726
  404SOL     MW 1616   0.890   2.882   0.695 -0.2431  0.6631  0.1188
  405SOL     OW 1617   0.515   2.375   1.478 -0.2986 -0.0913  0.2026
  405SOL    HW1 1618   0.486   2.460   1.446  3.0846 -0.6621  1.9434
  405SOL    HW2 1619   0.450   2.314   1.457 -0.9086 -0.6479  0.0158
  405SOL     MW 1620   0.502   2.378   1.471  0.0673 -0.2400  0.4076
  406SOL     OW 1621   0.382   2.378   1.042 -0.4381  0.3735 -0.9860
  406SOL    HW1 1622   0.298   2.377   1.089  2.6563  0.8532 -0.0415
  406SOL    HW2 1623   0.410   2.286   1.040  0.2298 -1.2088  0.2667
  406SOL     MW 1624   0.374   2.365   1.048  0.0583  0.2280 -0.6961
  407SOL     OW 1625   3.065   2.705   1.151  0.3596 -0.1244  0.2513
  407SOL    HW1 1626   3.137   2.699   1.224  0.7868  1.0445  0.8061
  407SOL    HW2 1627   3.118   2.716   1.068  1.5078 -0.2823  1.7766
  407SOL     MW 1628   3.082   2.706   1.149  0.5674  0.0090  0.5258
  408SOL     OW 1629   2.135   2.075   0.780  0.3567  0.1422 -0.4057
  408SOL    HW1 1630   2.076   2.085   0.855 -2.0653 -3.9762  0.1940
  408SOL    HW2 1631   2.085   2.087   0.697  2.6626  1.5108 -0.4035
  408SOL     MW 1632   2.121   2.078   0.779  0.3414 -0.2206 -0.3263
  409SOL     OW 1633   1.440   0.124   0.890  0.7064 -0.3399  0.1006
  409SOL    HW1 1634   1.504   0.192   0.869  0.8715  1.4711  1.2276
  409SOL    HW2 1635   1.464   0.078   0.969 -1.1113  0.5393  1.5346
  409SOL     MW 1636   1.451   0.127   0.898  0.4884  0.0151  0.4385
  410SOL     OW 1637   1.108   2.465   1.049 -0.3443  0.1245  0.2200
  410SOL    HW1 1638   1.031   2.488   0.996 -2.9026 -0.4273 -1.0088
  410SOL    HW2 1639   1.160   2.401   0.998  0.2439  0.7298  0.2829
  410SOL     MW 1640   1.105   2.460   1.035 -0.6042  0.1315  0.0662
  411SOL     OW 1641   1.970   0.037   2.879  0.0293 -0.1226  0.2710
  411SOL    HW1 1642   1.915   0.017   2.807  0.3189  0.4309  1.8533
  411SOL    HW2 1643   1.918   0.080   2.947  0.5210  1.3144 -2.3145
  411SOL     MW 1644   1.956   0.040   2.879  0.1324  0.1400  0.1387
  412SOL     OW 1645   0.998   2.256   0.616 -0.1427 -0.2015 -0.1185
  412SOL    HW1 1646   1.061   2.330   0.613  0.8335  2.5409 -2.3867
  412SOL    HW2 1647   0.912   2.271   0.575  3.4211  3.6384 -0.1506
  412SOL     MW 1648   0.995   2.268   0.610  0.4563  0.6670 -0.4220
  413SOL     OW 1649   0.519   2.807   3.052 -0.3468  0.4772 -0.2732
  413SOL    HW1 1650   0.558   2.727   3.085  2.0726  0.4945  0.9419
  413SOL    HW2 1651   0.579   2.848   2.994  2.6318 -2.0302 -4.3856
  413SOL     MW 1652   0.532   2.802   3.049  0.3654  0.1487 -0.6555
  414SOL     OW 1653   1.929   2.859   1.064 -0.2159 -0.6131  0.1689
  414SOL    HW1 1654   1.894   2.908   0.990  0.3335 -0.4967 -0.7750
  414SOL    HW2 1655   2.030   2.860   1.067 -1.0141 -1.3854  1.6952
  414SOL     MW 1656   1.938   2.865   1.054 -0.2487 -0.6996  0.2457
  415SOL     OW 1657   1.762   2.632   1.101  0.7864  0.1698  0.1231
  415SOL    HW1 1658   1.744   2.570   1.168 -0.4026  2.8878 -1.9035
  415SOL    HW2 1659   1.835   2.691   1.125 -0.8797  2.9359 -1.4045
  415SOL     MW 1660   1.769   2.632   1.113  0.4097  0.8933 -0.3459
  416SOL     OW 1661   0.508   1.937   1.350  0.1569 -0.1742 -0.1092
  416SOL    HW1 1662   0.486   2.007   1.287 -0.0522  1.1197  2.3511
  416SOL    HW2 1663   0.430   1.874   1.360 -1.2337 -2.9072  3.8298
  416SOL     MW 1664   0.495   1.938   1.343 -0.0542 -0.3641  0.7351
  417SOL     OW 1665   1.041   3.073   2.073 -0.2194  0.1713  0.7088
  417SOL    HW1 1666   0.974   3.046   2.140  2.3083  1.6916 -0.9457
  417SOL    HW2 1667   0.994   3.036   1.990 -1.0240  1.0709 -4.1593
  417SOL     MW 1668   1.026   3.064   2.071  0.0080  0.4906 -0.1518
  418SOL     OW 1669   0.718   2.888   0.142  0.6692  0.4157  0.0883
  418SOL    HW1 1670   0.794   2.900   0.084  0.0238  1.4883 -1.0509
  418SOL    HW2 1671   0.640   2.867   0.086  0.0037 -1.5123  2.6865
  418SOL     MW 1672   0.718   2.887   0.127  0.4962  0.3028  0.2808
  419SOL     OW 1673   0.441   2.658   1.408 -0.2812 -0.0266 -0.4693
  419SOL    HW1 1674   0.505   2.711   1.468  1.4771  0.2117 -0.1985
  419SOL    HW2 1675   0.479   2.654   1.320 -2.2676  0.5275  2.0969
  419SOL     MW 1676   0.454   2.665   1.404 -0.3113  0.0779 -0.0950
  420SOL     OW 1677   0.889   2.238   0.961  0.5214  0.7529  0.2552
  420SOL    HW1 1678   0.857   2.254   1.052 -0.6655  1.9939 -0.3233
  420SOL    HW2 1679   0.860   2.321   0.921 -4.6800  1.5371 -1.5102
  420SOL     MW 1680   0.881   2.251   0.968 -0.3215  1.0201 -0.0540
  421SOL     OW 1681   2.954   0.046   0.010 -0.0443 -0.2172 -0.9757
  421SOL    HW1 1682   2.882   0.031  -0.054 -0.6400  1.5428 -2.6504
  421SOL    HW2 1683   2.969  -0.040   0.052  0.0173  2.1417  0.9545
  421SOL     MW 1684   2.946   0.033   0.007 -0.1148  0.3262 -0.9420
  422SOL     OW 1685   0.892   2.559   0.884 -0.2692  0.6672 -0.0776
  422SOL    HW1 1686   0.871   2.638   0.932  0.6916 -0.1536  0.2742
  422SOL    HW2 1687   0.839   2.553   0.801 -0.5773  0.8126  2.3331
  422SOL     MW 1688   0.882   2.568   0.879 -0.1831  0.5781  0.2869
  423SOL     OW 1689   1.507   0.116   0.497 -0.7707 -0.4795  0.1092
  423SOL    HW1 1690   1.496   0.054   0.423  0.1090  0.9043 -0.6762
  423SOL    HW2 1691   1.455   0.200   0.482 -2.2024  0.5646 -0.0321
  423SOL     MW 1692   1.499   0.119   0.485 -0.8436 -0.1591 -0.0130
  424SOL     OW 1693   0.692   2.268   1.180  0.2658  0.0277  0.3558
  424SOL    HW1 1694   0.610   2.225   1.185  1.7709  0.3257  0.4767
  424SOL    HW2 1695   0.738   2.239   1.254  2.4655 -1.0155 -0.9798
  424SOL     MW 1696   0.687   2.259   1.190  0.7546 -0.0706  0.1955
  425SOL     OW 1697   1.732   2.822   1.994  0.4822 -0.0873  0.4748
  425SOL    HW1 1698   1.723   2.846   1.899 -0.3503 -0.9922  0.4063
  425SOL    HW2 1699   1.764   2.732   2.013  2.4941 -0.9889  0.0413
  425SOL     MW 1700   1.735   2.813   1.984  0.6378 -0.3257  0.4086
  426SOL     OW 1701   0.802   1.699   1.950  0.0746  0.0714  0.2806
  426SOL    HW1 1702   0.740   1.732   1.876  0.7686  2.6026  0.9391
  426SOL    HW2 1703   0.814   1.770   2.015 -1.7459 -0.2764 -3.5427
  426SOL     MW 1704   0.795   1.713   1.949 -0.0740  0.3595 -0.1369
  427SOL     OW 1705   0.379   1.627   1.907  0.0946  0.5358  0.3570
  427SOL    HW1 1706   0.422   1.553   1.950  0.2594 -0.6246  1.1344
  427SOL    HW2 1707   0.289   1.594   1.903 -1.7835  3.1611  0.8699
  427SOL     MW 1708   0.373   1.613   1.913 -0.1315  0.7291  0.5272
  428SOL     OW 1709   0.586   2.569   1.177 -0.5223  1.0098 -0.4327
  428SOL    HW1 1710   0.676   2.530   1.211  0.5508 -2.9222  1.5698
  428SOL    HW2 1711   0.544   2.491   1.145  2.6841  0.3767  0.4133
  428SOL     MW 1712   0.593   2.554   1.177  0.0424  0.4075 -0.0568
  429SOL     OW 1713   1.328   2.749   1.108 -0.6126  0.7730 -0.2304
  429SOL    HW1 1714   1.257   2.690   1.139  1.3962 -0.6818 -0.1000
  429SOL    HW2 1715   1.295   2.812   1.045 -0.8216  0.7728 -1.2154
  429SOL     MW 1716   1.314   2.750   1.104 -0.3751  0.5811 -0.3431
  430SOL     OW 1717   1.155   2.716   0.730 -0.0592  0.5874  0.3738
  430SOL    HW1 1718   1.155   2.629   0.767  1.4489  1.9285  1.2597
  430SOL    HW2 1719   1.120   2.705   0.641 -0.9771 -0.8251 -2.1367
  430SOL     MW 1720   1.151   2.703   0.723  0.0187  0.5780  0.1595
  431SOL     OW 1721   0.331   1.924   1.082  0.5303 -0.3250  0.1937
  431SOL    HW1 1722   0.403   1.869   1.052  3.3309  1.4022 -0.6663
  431SOL    HW2 1723   0.286   1.957   1.001  0.1772  0.6205 -2.5731
  431SOL     MW 1724   0.334   1.921   1.068  0.8532  0.0276 -0.2848
  432SOL     OW 1725   0.045   3.082   1.160  0.2288  0.0404  0.8969
  432SOL    HW1 1726   0.071   3.137   1.234 -1.6908  0.2592 -0.4044
  432SOL    HW2 1727  -0.031   3.044   1.201 -0.7223  0.9477 -2.3869
  432SOL     MW 1728   0.038   3.084   1.175 -0.1499  0.1890  0.2920
  433SOL     OW 1729   0.613   2.854   1.536  0.4501  0.1921  0.3360
  433SOL    HW1 1730   0.641   2.848   1.630 -1.9777 -0.1863 -1.0628
  433SOL    HW2 1731   0.700   2.869   1.499  0.5499  1.2258 -1.1221
  433SOL     MW 1732   0.628   2.855   1.544  0.1429  0.2786 -0.0409
  434SOL     OW 1733   1.608   2.841   1.501 -0.5616 -0.0802  0.7447
  434SOL    HW1 1734   1.520   2.874   1.518  1.3356  1.4172  0.1459
  434SOL    HW2 1735   1.623   2.811   1.409  1.6258 -1.9190  0.7795
  434SOL     MW 1736   1.599   2.841   1.491 -0.0227 -0.1252  0.6703
  435SOL     OW 1737   2.822   1.819   0.227  0.5976 -0.1521  0.1274
  435SOL    HW1 1738   2.893   1.880   0.191 -0.2488  2.0491 -0.2802
  435SOL    HW2 1739   2.779   1.771   0.149 -0.6167 -2.0582 -0.9008
  435SOL     MW 1740   2.825   1.821   0.212  0.3257 -0.1132 -0.0620
  436SOL     OW 1741   1.340   2.782   0.377  0.2576 -0.5372  0.7265
  436SOL    HW1 1742   1.425   2.779   0.428  0.4171  0.8361  0.5521
  436SOL    HW2 1743   1.291   2.864   0.416  0.9084  0.5833  0.5044
  436SOL     MW 1744   1.345   2.793   0.389  0.3645 -0.2081  0.6742
  437SOL     OW 1745   0.875   2.885   1.400 -0.7722  0.5273 -0.1457
  437SOL    HW1 1746   0.841   2.976   1.390 -1.8037  0.8142  1.0811
  437SOL    HW2 1747   0.908   2.862   1.314 -1.2747  3.6103 -1.2809
  437SOL     MW 1748   0.875   2.894   1.387 -0.9746  0.9719 -0.1337
  438SOL     OW 1749   0.854   2.660   1.916 -0.1895  0.4119  0.2554
  438SOL    HW1 1750   0.819   2.635   1.997  3.2498 -0.9831  0.6618
  438SOL    HW2 1751   0.804   2.603   1.855  1.0247 -0.1087 -1.8788
  438SOL     MW 1752   0.843   2.649   1.919  0.4245  0.1592  0.0275
  439SOL     OW 1753   1.139   2.144   0.434  0.6614 -0.4427 -0.1447
  439SOL    HW1 1754   1.075   2.192   0.500  1.7668  0.9387  0.2877
  439SOL    HW2 1755   1.152   2.214   0.364 -0.6906  0.5890  1.0212
  439SOL     MW 1756   1.132   2.160   0.434  0.6288 -0.1243  0.0662
  440SOL     OW 1757   1.712   2.992   0.003  0.1450 -0.2831  0.6577
  440SOL    HW1 1758   1.671   2.961   0.078  1.0461 -0.3310 -2.4469
  440SOL    HW2 1759   1.789   2.936  -0.013  0.1191  0.8984 -1.4035
  440SOL     MW 1760   1.717   2.980   0.011  0.2604 -0.1335 -0.0239
  441SOL     OW 1761   0.320   2.650   0.496  0.5371 -0.4259 -0.4453
  441SOL    HW1 1762   0.298   2.631   0.409  1.5355 -0.0134 -0.3305
  441SOL    HW2 1763   0.337   2.749   0.496  0.9411 -0.7437  0.0324
  441SOL     MW 1764   0.319   2.661   0.485  0.7222 -0.4134 -0.3671
  442SOL     OW 1765   3.071   2.392   0.619  0.3681  0.1457  0.5245
  442SOL    HW1 1766   3.096   2.480   0.620 -0.3626  1.6144 -1.4081
  442SOL    HW2 1767   2.984   2.387   0.653  0.8038  0.6726 -0.2830
  442SOL     MW 1768   3.063   2.403   0.624  0.3292  0.4090  0.1630
  443SOL     OW 1769   1.418   1.809   1.925  0.0091 -0.2647  0.7443
  443SOL    HW1 1770   1.394   1.851   1.843  0.0268 -1.0741 -0.0103
  443SOL    HW2 1771   1.351   1.745   1.930 -2.5824  2.5776  0.1869
  443SOL     MW 1772   1.406   1.806   1.915 -0.3305  0.0035  0.5712
  444SOL     OW 1773   0.884   2.543   1.594  0.1532 -0.3327 -0.3988
  444SOL    HW1 1774   0.959   2.491   1.627  0.6141 -1.6074  0.2496
  444SOL    HW2 1775   0.805   2.507   1.641 -2.2118 -0.5677  2.2048
  444SOL     MW 1776   0.884   2.531   1.605 -0.0980 -0.5319  0.0303
  445SOL     OW 1777   0.915   0.071   1.331  0.5985  0.7057  0.3778
  445SOL    HW1 1778   0.881   0.156   1.297 -0.6537  0.3259  0.2329
  445SOL    HW2 1779   0.993   0.063   1.282 -1.8507  3.5103  0.9755
  445SOL     MW 1780   0.921   0.081   1.320  0.1102  1.0256  0.4375
  446SOL     OW 1781   2.723   2.888   1.082  0.0166  0.0964  0.1893
  446SOL    HW1 1782   2.679   2.924   1.006  2.3693  1.0451  1.7067
  446SOL    HW2 1783   2.749   2.800   1.050  1.1027  1.2484 -0.5275
  446SOL     MW 1784   2.721   2.881   1.067  0.4703  0.3735  0.2949
  447SOL     OW 1785   0.038   2.039   1.675  0.8034  0.1148 -0.2849
  447SOL    HW1 1786   0.072   1.971   1.738  1.7735 -3.4170  0.2766
  447SOL    HW2 1787  -0.020   1.996   1.613 -0.3363 -1.3805 -0.4330
  447SOL     MW 1788   0.035   2.024   1.675  0.7810 -0.5484 -0.2303
  448SOL     OW 1789   1.704   2.383   1.672 -0.3463  0.4683 -0.7099
  448SOL    HW1 1790   1.645   2.309   1.652  0.9266  2.7816  0.0241
  448SOL    HW2 1791   1.651   2.464   1.655 -2.7675  1.6114 -2.2130
  448SOL     MW 1792   1.689   2.384   1.667 -0.4978  0.9244 -0.8114
  449SOL     OW 1793   0.766   2.828   0.417  0.0099  0.0890  0.0361
  449SOL    HW1 1794   0.734   2.838   0.327 -0.5029 -2.8090 -0.8752
  449SOL    HW2 1795   0.705   2.876   0.473 -0.2406 -1.1631  0.1728
  449SOL     MW 1796   0.754   2.836   0.413 -0.0908 -0.4586 -0.0661
  450SOL     OW 1797   1.212   2.440   0.674  0.2559 -0.0871  0.7112
  450SOL    HW1 1798   1.210   2.389   0.749 -1.0878  1.8343 -2.4985
  450SOL    HW2 1799   1.304   2.458   0.643  0.7850 -1.1494  0.7532
  450SOL     MW 1800   1.224   2.436   0.680  0.1484  0.0262  0.2933
  451SOL     OW 1801   0.538   2.024   1.625  0.2669  0.3241 -0.0868
  451SOL    HW1 1802   0.608   2.091   1.630  2.9325  2.4890  0.5333
  451SOL    HW2 1803   0.530   2.006   1.530  1.3228 -2.1598  0.0077
  451SOL     MW 1804   0.546   2.030   1.613  0.7579  0.2820  0.0075
  452SOL     OW 1805   0.252   2.722   0.016 -0.0783  0.6026 -0.0704
  452SOL    HW1 1806   0.336   2.722  -0.027  1.8605  1.4141 -0.9977
  452SOL    HW2 1807   0.188   2.758  -0.046  2.6737 -0.9865  0.4640
  452SOL     MW 1808   0.255   2.726   0.002  0.5406  0.5000 -0.1223
  453SOL     OW 1809   0.359   2.895   1.683 -0.2092 -0.3620  0.1534
  453SOL    HW1 1810   0.450   2.885   1.714  0.8249  0.3444 -1.0467
  453SOL    HW2 1811   0.360   2.960   1.618 -1.3413 -0.9964  1.9498
  453SOL     MW 1812   0.371   2.902   1.679 -0.2221 -0.3525  0.2321
  454SOL     OW 1813   1.003   2.756   1.184  0.3863 -0.4182  0.1244
  454SOL    HW1 1814   0.937   2.697   1.221 -0.6052 -0.2475  2.1547
  454SOL    HW2 1815   0.962   2.799   1.105 -0.3402 -1.5733 -0.7277
  454SOL     MW 1816   0.989   2.754   1.178  0.1596 -0.5481  0.2798
  455SOL     OW 1817   1.591   2.911   0.238  0.3278 -0.1084  0.0597
  455SOL    HW1 1818   1.665   2.890   0.293 -0.3385  0.3303 -2.9284
  455SOL    HW2 1819   1.547   2.825   0.206 -0.1686 -0.6081  1.4981
  455SOL     MW 1820   1.595   2.897   0.241  0.1744 -0.1165 -0.1448
  456SOL     OW 1821   2.834   0.324   1.366 -0.0994  0.3213  0.3945
  456SOL    HW1 1822   2.774   0.256   1.325  0.1648  2.6385  1.6556
  456SOL    HW2 1823   2.922   0.330   1.321  0.5074 -0.5993  0.7812
  456SOL     MW 1824   2.838   0.316   1.355  0.0155  0.5056  0.6119
  457SOL     OW 1825   0.957   1.578   2.917  0.2225  0.4350  0.0592
  457SOL    HW1 1826   0.895   1.529   2.973  1.7406 -3.3100 -0.6071
  457SOL    HW2 1827   1.009   1.501   2.898  0.6288  2.2586  0.3838
  457SOL     MW 1828   0.955   1.561   2.922  0.4764  0.1815  0.0141
  458SOL     OW 1829   1.492   1.404   0.554  0.3673  0.2766 -0.1327
  458SOL    HW1 1830   1.406   1.448   0.570  0.8012  1.9123 -1.9247
  458SOL    HW2 1831   1.470   1.338   0.488  1.0657 -1.2675 -1.5270
  458SOL     MW 1832   1.478   1.401   0.547  0.5167  0.2887 -0.5531
  459SOL     OW 1833   1.487   0.057   0.239 -0.4559 -0.1983 -0.0166
  459SOL    HW1 1834   1.497  -0.035   0.212  1.7412 -0.4011 -0.1630
  459SOL    HW2 1835   1.403   0.074   0.202  0.2258 -1.2225  1.2709
  459SOL     MW 1836   1.477   0.047   0.231 -0.0760 -0.3602  0.1339
  460SOL     OW 1837   1.781   2.196   0.609 -0.3772  0.4541 -0.1263
  460SOL    HW1 1838   1.711   2.160   0.663  2.0362 -3.1330 -0.2145
  460SOL    HW2 1839   1.826   2.118   0.567 -1.0200  0.5816 -1.3688
  460SOL     MW 1840   1.778   2.181   0.611 -0.1436 -0.0024 -0.3019
  461SOL     OW 1841   0.406   2.386   0.582 -0.3617  0.1772 -0.1431
  461SOL    HW1 1842   0.351   2.438   0.526 -1.0054 -1.3257  0.0642
  461SOL    HW2 1843   0.362   2.382   0.664 -3.0688 -2.2526 -0.3097
  461SOL     MW 1844   0.393   2.393   0.586 -0.8038 -0.3417 -0.1378
  462SOL     OW 1845   0.392   0.287   1.311  0.3959  0.8882  0.0331
  462SOL    HW1 1846   0.436   0.226   1.257 -0.3635  1.5510  2.5885
  462SOL    HW2 1847   0.460   0.345   1.351  0.6306 -0.6506 -2.6914
  462SOL     MW 1848   0.406   0.286   1.309  0.3267  0.7726  0.0108
  463SOL     OW 1849   0.909   0.060   0.645 -0.0354  0.3723  0.1051
  463SOL    HW1 1850   0.930   0.050   0.549  2.2995  0.4676 -1.3320
  463SOL    HW2 1851   0.814   0.061   0.659 -0.3579  0.2096  0.0272
  463SOL     MW 1852   0.899   0.059   0.634  0.2301  0.3634 -0.0948
  464SOL     OW 1853   0.857   3.034   2.274 -0.1437 -0.5503  0.2123
  464SOL    HW1 1854   0.805   2.952   2.277 -2.0178  1.3921 -3.1572
  464SOL    HW2 1855   0.882   3.053   2.366  0.7712 -0.8835  4.2623
  464SOL     MW 1856   0.854   3.026   2.287 -0.2702 -0.3380  0.3021
  465SOL     OW 1857   0.666   0.301   0.505 -0.1699 -0.1020  0.0338
  465SOL    HW1 1858   0.655   0.263   0.593 -0.2943 -2.5715 -0.9782
  465SOL    HW2 1859   0.673   0.232   0.441 -2.3225 -1.1739 -0.4170
  465SOL     MW 1860   0.665   0.287   0.508 -0.4703 -0.5693 -0.1592
  466SOL     OW 1861   1.071   1.981   0.692  0.1268 -0.0972  0.2858
  466SOL    HW1 1862   1.071   1.902   0.634 -3.5313 -0.7892 -0.7274
  466SOL    HW2 1863   1.118   2.053   0.652  1.3167  0.7588 -2.1534
  466SOL     MW 1864   1.078   1.980   0.679 -0.1988 -0.0756 -0.1697
  467SOL     OW 1865   1.277   2.293   0.893 -0.4387 -0.0718 -0.2054
  467SOL    HW1 1866   1.366   2.311   0.910 -0.7949 -2.4469 -1.6855
  467SOL    HW2 1867   1.274   2.197   0.885 -1.0084 -0.2303  2.6354
  467SOL     MW 1868   1.288   2.283   0.894 -0.5609 -0.4061 -0.0259
  468SOL     OW 1869   0.385   2.617   1.979  0.1096  0.5798  0.3836
  468SOL    HW1 1870   0.391   2.568   1.901  0.7899  0.9043  2.3921
  468SOL    HW2 1871   0.342   2.694   1.944 -0.0965 -0.1660  0.4199
  468SOL     MW 1872   0.380   2.621   1.964  0.1722  0.5242  0.6534
  469SOL     OW 1873   0.380   2.173   1.801 -0.0037  0.3662 -0.1013
  469SOL    HW1 1874   0.291   2.143   1.831  0.4293 -1.9158 -1.5179
  469SOL    HW2 1875   0.419   2.103   1.747  0.9175 -0.6034 -0.8107
  469SOL     MW 1876   0.373   2.160   1.798  0.1749 -0.0628 -0.3818
  470SOL     OW 1877   3.035   2.562   0.098 -0.1672  0.7030 -0.2411
  470SOL    HW1 1878   2.972   2.526   0.164  0.3766  1.5510 -1.0612
  470SOL    HW2 1879   2.992   2.546   0.014  2.3631  2.4651 -2.4787
  470SOL     MW 1880   3.021   2.555   0.096  0.2384  1.0474 -0.6446
  471SOL     OW 1881   1.167   2.732   1.421 -0.1881 -0.7450 -0.1674
  471SOL    HW1 1882   1.096   2.741   1.484  0.4603 -1.2279  1.0016
  471SOL    HW2 1883   1.127   2.762   1.337  0.6379  2.0239  2.1469
  471SOL     MW 1884   1.152   2.738   1.418  0.0064 -0.4434  0.2922
  472SOL     OW 1885   2.951   2.104   0.403  0.3265 -0.0454 -0.5186
  472SOL    HW1 1886   2.969   2.062   0.313  2.0274 -0.2422 -2.0156
  472SOL    HW2 1887   2.906   2.034   0.455 -2.5896  1.3517 -0.7247
  472SOL     MW 1888   2.948   2.089   0.398  0.1662  0.1130 -0.7433
  473SOL     OW 1889   0.854   2.534   1.306  0.5583  0.4362  0.3581
  473SOL    HW1 1890   0.908   2.453   1.295  1.1404  0.6805 -1.7972
  473SOL    HW2 1891   0.840   2.537   1.401  2.3075  2.1299 -0.6752
  473SOL     MW 1892   0.859   2.524   1.317  0.8659  0.6919 -0.0626
  474SOL     OW 1893   0.820   2.173   1.760  0.2518 -0.1096  0.3054
  474SOL    HW1 1894   0.917   2.185   1.787  1.6980 -1.2153  0.2793
  474SOL    HW2 1895   0.820   2.138   1.673 -0.7872 -0.2277  3.4631
  474SOL     MW 1896   0.833   2.170   1.752  0.3055 -0.2711  0.7185
  475SOL     OW 1897   1.618   3.102   1.463  0.6986  0.3928 -0.4667
  475SOL    HW1 1898   1.538   3.123   1.418  0.1915  0.5502  4.1906
  475SOL    HW2 1899   1.632   3.008   1.458 -2.2502  1.3993 -0.6354
  475SOL     MW 1900   1.609   3.092   1.456  0.2426  0.5464  0.1255
  476SOL     OW 1901   1.461   2.608   0.875 -0.3963 -0.1700 -0.3031
  476SOL    HW1 1902   1.392   2.635   0.943 -0.4861  1.9994  5.4076
  476SOL    HW2 1903   1.488   2.694   0.835 -1.3573  1.3618  2.0332
  476SOL     MW 1904   1.455   2.623   0.879 -0.5350  0.3184  0.7586
  477SOL     OW 1905   0.753   2.532   0.635  0.3861  0.1808  0.2743
  477SOL    HW1 1906   0.833   2.574   0.615 -1.8840  0.1035 -2.2488
  477SOL    HW2 1907   0.743   2.456   0.577 -1.6990 -0.5220  1.0965
  477SOL     MW 1908   0.762   2.527   0.625 -0.1885  0.0778  0.0499
  478SOL     OW 1909   0.107   2.696   0.928 -0.0219  0.1395  0.0730
  478SOL    HW1 1910   0.158   2.779   0.907  5.4640  1.8167  2.9222
  478SOL    HW2 1911   0.185   2.632   0.897  0.0411 -1.1951 -0.7735
  478SOL     MW 1912   0.124   2.699   0.921  0.7102  0.1847  0.3372
  479SOL     OW 1913   1.416   1.956   1.291  0.1159  0.5070  0.2361
  479SOL    HW1 1914   1.368   1.994   1.367  1.2026 -1.8626 -1.6412
  479SOL    HW2 1915   1.498   1.916   1.329  1.7411 -1.1550  0.7524
  479SOL     MW 1916   1.420   1.956   1.306  0.4737 -0.0250  0.0565
  480SOL     OW 1917   1.892   2.338   1.357 -0.0468 -0.0932 -0.2073
  480SOL    HW1 1918   1.877   2.249   1.389 -0.6135 -0.5286 -0.3612
  480SOL    HW2 1919   1.952   2.323   1.278  0.8769  0.3102 -0.6076
  480SOL     MW 1920   1.898   2.324   1.351  0.0003 -0.0974 -0.2805
  481SOL     OW 1921   1.170   3.083   1.128 -1.3756 -0.6236 -0.2364
  481SOL    HW1 1922   1.192   3.037   1.044  3.2964  1.8360 -1.5221
  481SOL    HW2 1923   1.169   3.178   1.103 -2.6102 -1.8169  0.8053
  481SOL     MW 1924   1.173   3.089   1.113 -0.9221 -0.4565 -0.2686
  482SOL     OW 1925   0.934   3.057   0.376  0.3448 -0.3096 -0.8335
  482SOL    HW1 1926   0.856   2.997   0.381 -1.0738 -0.0099  0.3133
  482SOL    HW2 1927   0.906   3.147   0.350  1.2734  0.7601 -1.0489
  482SOL     MW 1928   0.920   3.061   0.373  0.2802 -0.1290 -0.7106
  483SOL     OW 1929   0.357   2.922   0.465 -0.0988 -0.3238  0.0579
  483SOL    HW1 1930   0.268   2.928   0.420 -0.0442 -1.3446  1.2797
  483SOL    HW2 1931   0.342   2.975   0.548 -0.8606  0.7488  0.2252
  483SOL     MW 1932   0.343   2.930   0.470 -0.1921 -0.3169  0.2411
  484SOL     OW 1933   1.686   1.811   1.386 -0.2322  0.0159  0.3580
  484SOL    HW1 1934   1.743   1.889   1.372  0.4474 -1.1243 -2.6465
  484SOL    HW2 1935   1.682   1.815   1.482  0.2313  2.0642  0.1765
  484SOL     MW 1936   1.693   1.822   1.397 -0.0813  0.1357 -0.0624
  485SOL     OW 1937   0.531   2.433   0.306 -0.1060  0.5815 -0.2030
  485SOL    HW1 1938   0.570   2.413   0.393  2.7917  0.2290  3.5316
  485SOL    HW2 1939   0.463   2.498   0.327 -1.6166 -1.1365 -2.1168
  485SOL     MW 1940   0.527   2.439   0.320  0.0770  0.3083  0.0372
  486SOL     OW 1941   0.125   2.418   1.408  0.0844  0.1507  0.8645
  486SOL    HW1 1942   0.131   2.487   1.343 -0.1374 -1.5769 -0.9388
  486SOL    HW2 1943   0.102   2.463   1.492 -2.5757 -2.4379 -0.5217
  486SOL     MW 1944   0.123   2.433   1.411 -0.2959 -0.4188  0.4437
  487SOL     OW 1945   1.271   1.576   1.069 -0.2915  0.0574  0.1062
  487SOL    HW1 1946   1.255   1.670   1.046  0.3529  0.0620  0.4443
  487SOL    HW2 1947   1.359   1.563   1.026  3.4337 -1.8586 -2.2168
  487SOL     MW 1948   1.281   1.587   1.060  0.2850 -0.1948 -0.1557
  488SOL     OW 1949   1.674   1.869   0.552  0.5363  0.2465  0.3457
  488SOL    HW1 1950   1.754   1.910   0.513 -0.9219  0.8818  2.5266
  488SOL    HW2 1951   1.640   1.940   0.606 -1.9993  1.1243 -0.7950
  488SOL     MW 1952   1.680   1.884   0.554  0.0093  0.4462  0.4830
  489SOL     OW 1953   0.686   0.759   0.580 -0.2298 -0.1907 -0.6800
  489SOL    HW1 1954   0.740   0.685   0.555  2.9445 -0.7471  2.0712
  489SOL    HW2 1955   0.688   0.774   0.672  0.0131 -0.0627 -1.4162
  489SOL     MW 1956   0.693   0.751   0.589  0.2210 -0.2472 -0.4141
  490SOL     OW 1957   1.420   2.076   0.423 -0.0741 -0.8370 -0.8099
  490SOL    HW1 1958   1.476   2.144   0.391  2.7923  0.1433 -0.0220
  490SOL    HW2 1959   1.340   2.124   0.448  1.8857 -0.1324 -1.6598
  490SOL     MW 1960   1.417   2.091   0.422  0.5627 -0.6147 -0.8181
  491SOL     OW 1961   1.192   2.993   0.477 -0.4612 -0.3467 -0.1521
  491SOL    HW1 1962   1.187   3.063   0.538  0.7082 -3.7674  1.5999
  491SOL    HW2 1963   1.106   2.984   0.434  2.2444  0.6087  0.1206
  491SOL     MW 1964   1.180   3.001   0.479  0.0501 -0.6720  0.1150
  492SOL     OW 1965   1.543   2.091   0.666  0.4085 -0.6255 -0.2173
  492SOL    HW1 1966   1.506   2.075   0.581  0.7341 -0.5599  2.2827
  492SOL    HW2 1967   1.475   2.067   0.731  2.4834 -1.7658  4.1191
  492SOL     MW 1968   1.529   2.086   0.664  0.7252 -0.7673  0.6847
  493SOL     OW 1969   0.118   2.913   0.355 -0.0330 -0.0386 -0.0584
  493SOL    HW1 1970   0.081   2.984   0.412 -1.1756  0.2234 -1.2964
  493SOL    HW2 1971   0.154   2.962   0.280 -1.6355 -0.9752  1.0400
  493SOL     MW 1972   0.118   2.929   0.352 -0.3952 -0.1276 -0.0768
  494SOL     OW 1973   0.383   2.442   1.729 -0.0261  0.3427 -0.3199
  494SOL    HW1 1974   0.352   2.351   1.754 -0.4261 -1.6699 -2.2528
  494SOL    HW2 1975   0.441   2.425   1.653  4.7943  0.1839 -0.8228
  494SOL     MW 1976   0.387   2.428   1.722  0.5571  0.0562 -0.6413
  495SOL     OW 1977   2.911   1.703   2.703  0.2117  0.0573 -0.7100
  495SOL    HW1 1978   2.868   1.783   2.733  1.3344  0.3069  0.1301
  495SOL    HW2 1979   2.909   1.655   2.789  0.1734  1.8022  1.7986
  495SOL     MW 1980   2.905   1.707   2.718  0.3548  0.3204 -0.2682
  496SOL     OW 1981   2.874   2.319   2.661  0.1041 -0.3631  0.1163
  496SOL    HW1 1982   2.896   2.234   2.703 -0.9853  0.8798  0.6614
  496SOL    HW2 1983   2.957   2.386   2.648 -1.2405  1.7262 -1.2933
  496SOL     MW 1984   2.888   2.317   2.665 -0.2171  0.0766  0.0022
  497SOL     OW 1985   1.568   2.283   2.599  0.3552 -0.0540  0.2043
  497SOL    HW1 1986   1.491   2.242   2.563  0.1380  1.0803  1.2587
  497SOL    HW2 1987   1.566   2.251   2.692 -0.0805 -0.4717  2.0004
  497SOL     MW 1988   1.558   2.273   2.607  0.2690  0.0406  0.5804
  498SOL     OW 1989   1.549   2.724   2.344 -0.3321 -0.0341  0.2549
  498SOL    HW1 1990   1.524   2.636   2.313 -0.5594  3.6418  0.5423
  498SOL    HW2 1991   1.626   2.714   2.406  0.1382  2.6949  5.4058
  498SOL     MW 1992   1.556   2.711   2.348 -0.3000  0.8110  0.9725
  499SOL     OW 1993   0.892   0.126   0.032 -0.1198 -0.8977  0.1646
  499SOL    HW1 1994   0.814   0.141   0.084 -2.3614  0.4336 -0.0380
  499SOL    HW2 1995   0.902   0.026   0.020  0.6984 -0.5415  0.0474
  499SOL     MW 1996   0.883   0.115   0.037 -0.3076 -0.6751  0.1224
  500SOL     OW 1997   1.071   2.442   2.785  0.7025  0.2652 -0.1044
  500SOL    HW1 1998   1.123   2.424   2.863  1.1625  3.3059 -0.4369
  500SOL    HW2 1999   1.019   2.518   2.809  2.7751 -1.2190 -0.1123
  500SOL     MW 2000   1.071   2.450   2.799  1.0366  0.4706 -0.1493
  501SOL     OW 2001   1.719   2.305  -0.003 -0.2362 -0.0932  0.4409
  501SOL    HW1 2002   1.719   2.397   0.023  1.1284  1.0013  0.0540
  501SOL    HW2 2003   1.806   2.288   0.027 -1.8627  3.9674  0.6043
  501SOL     MW 2004   1.730   2.315   0.005 -0.2707  0.5870  0.4114
  502SOL     OW 2005   0.077   2.872   2.954  0.4163 -0.2149 -0.4619
  502SOL    HW1 2006   0.022   2.796   2.923 -1.4246 -1.3997 -0.3934
  502SOL    HW2 2007   0.095   2.930   2.877 -0.8583  1.2431 -2.2305
  502SOL     MW 2008   0.072   2.869   2.939  0.0052 -0.1789 -0.6862
  503SOL     OW 2009   1.158   2.620   1.986 -0.6388  0.3489 -0.0505
  503SOL    HW1 2010   1.245   2.631   1.961 -2.6967  0.8681 -2.1819
  503SOL    HW2 2011   1.098   2.639   1.918  1.4564 -0.0690 -0.5008
  503SOL     MW 2012   1.161   2.624   1.974 -0.6339  0.3622 -0.3911
  504SOL     OW 2013   0.077   2.634   2.084 -0.6330  1.0623  0.4096
  504SOL    HW1 2014   0.159   2.579   2.067 -0.1222 -0.0426 -1.4811
  504SOL    HW2 2015   0.012   2.569   2.060 -0.9688  3.0004  1.0637
  504SOL     MW 2016   0.079   2.618   2.078 -0.6099  1.1722  0.2464
  505SOL     OW 2017   1.652   2.662   2.763 -0.2279 -0.0071 -0.0772
  505SOL    HW1 2018   1.693   2.638   2.681 -0.7828 -0.1660 -0.4666
  505SOL    HW2 2019   1.598   2.738   2.742  1.1852  2.0487  0.4263
  505SOL     MW 2020   1.650   2.669   2.750 -0.1146  0.2432 -0.0621
  506SOL     OW 2021   1.638   3.099   2.876  0.1186  0.0831 -0.2660
  506SOL    HW1 2022   1.684   3.053   2.949 -2.0743  0.4409  0.2369
  506SOL    HW2 2023   1.693   3.068   2.794  0.3065 -3.5489 -0.8489
  506SOL     MW 2024   1.651   3.089   2.875 -0.1459 -0.3489 -0.2765
  507SOL     OW 2025   0.944   2.714   2.846 -0.0359  0.3412  0.5087
  507SOL    HW1 2026   0.979   2.751   2.767 -2.4328 -1.0067 -2.3195
  507SOL    HW2 2027   0.848   2.723   2.836 -0.5795 -1.3370  0.4262
  507SOL     MW 2028   0.936   2.720   2.834 -0.4239 -0.0581  0.1247
  508SOL     OW 2029   1.248   2.111   2.506 -0.2978  0.2026 -0.4195
  508SOL    HW1 2030   1.300   2.098   2.595 -1.5212 -0.3888  1.3691
  508SOL    HW2 2031   1.194   2.184   2.516  2.3450 -2.4127  0.5034
  508SOL     MW 2032   1.248   2.119   2.519 -0.1105 -0.2205 -0.0617
  509SOL     OW 2033   0.649   2.586   2.801 -0.8571 -0.0798  0.2593
  509SOL    HW1 2034   0.624   2.534   2.726  0.6529 -3.2969 -0.8963
  509SOL    HW2 2035   0.581   2.648   2.811  1.2345 -0.8880 -0.0718
  509SOL     MW 2036   0.637   2.587   2.792 -0.3819 -0.6109  0.0632
  510SOL     OW 2037   1.535   2.601   1.652 -0.1211  0.2002  0.8229
  510SOL    HW1 2038   1.569   2.682   1.597 -3.1731  2.4474 -1.4476
  510SOL    HW2 2039   1.522   2.633   1.746  2.4878 -2.7262 -0.8113
  510SOL     MW 2040   1.538   2.616   1.657 -0.1796  0.1106  0.3077
  511SOL     OW 2041   0.423   2.626   2.458 -0.0456  0.7068 -0.6024
  511SOL    HW1 2042   0.505   2.576   2.483  4.1326 -1.8034 -2.9527
  511SOL    HW2 2043   0.441   2.653   2.371 -0.4154  0.8565  2.0138
  511SOL     MW 2044   0.436   2.623   2.450  0.4569  0.3954 -0.5673
  512SOL     OW 2045   0.976   2.026   2.820 -0.0566 -0.4250 -0.1045
  512SOL    HW1 2046   0.902   2.070   2.872 -2.6487 -1.1367 -2.9774
  512SOL    HW2 2047   0.988   1.946   2.872 -0.8950  0.3339 -0.6806
  512SOL     MW 2048   0.968   2.021   2.834 -0.5092 -0.4188 -0.5596
  513SOL     OW 2049   1.636   2.465   2.213 -0.1676  0.2090  0.3783
  513SOL    HW1 2050   1.710   2.512   2.176 -1.7052 -0.7222  0.7099
  513SOL    HW2 2051   1.686   2.405   2.265 -0.2242  2.1548 -0.4275
  513SOL     MW 2052   1.653   2.463   2.215 -0.3779  0.3429  0.3157
  514SOL     OW 2053   0.231   2.488   2.607 -0.2388 -0.0234 -0.2650
  514SOL    HW1 2054   0.305   2.543   2.585  2.0437 -0.5932  0.1596
  514SOL    HW2 2055   0.253   2.441   2.689 -0.4585  1.7177 -3.7761
  514SOL     MW 2056   0.244   2.489   2.615  0.0334  0.1311 -0.6722
  515SOL     OW 2057   1.118   2.016   1.992  0.1930  0.1067  0.6143
  515SOL    HW1 2058   1.119   2.106   1.963  3.1297 -1.3199 -2.9519
  515SOL    HW2 2059   1.200   2.001   2.029  0.5430 -0.8741  0.6006
  515SOL     MW 2060   1.129   2.026   1.993  0.6267 -0.2110  0.1420
  516SOL     OW 2061   1.463   2.457   3.061  0.5133  0.0019  0.2846
  516SOL    HW1 2062   1.493   2.447   2.972  0.7096 -0.2092  2.3188
  516SOL    HW2 2063   1.370   2.449   3.047  2.1312  0.8264  0.2804
  516SOL     MW 2064   1.455   2.455   3.048  0.7527  0.0828  0.5524
  517SOL     OW 2065   0.553   2.432   2.253  0.1064  0.5870  0.3307
  517SOL    HW1 2066   0.477   2.455   2.310 -1.7052 -1.8686  1.2398
  517SOL    HW2 2067   0.502   2.393   2.174 -1.7119  3.1273 -1.2327
  517SOL     MW 2068   0.537   2.430   2.250 -0.3725  0.5982  0.2444
  518SOL     OW 2069   1.804   0.146   3.070 -0.5511  0.2536 -0.2161
  518SOL    HW1 2070   1.791   0.207   3.144  2.1491 -1.4755  1.5264
  518SOL    HW2 2071   1.752   0.068   3.093 -1.2804  1.2728  1.0973
  518SOL     MW 2072   1.796   0.143   3.083 -0.2911  0.1599  0.1871
  519SOL     OW 2073   0.694   2.444   1.769  0.2696 -1.0202 -0.3127
  519SOL    HW1 2074   0.728   2.355   1.761  2.0110  0.4174 -1.6936
  519SOL    HW2 2075   0.601   2.444   1.784  2.0607 -1.3719  1.2691
  519SOL     MW 2076   0.686   2.432   1.770  0.7357 -0.8769 -0.2862
  520SOL     OW 2077   1.167   2.169   2.972  0.2321 -0.6200  0.0497
  520SOL    HW1 2078   1.087   2.133   2.931 -0.5810 -0.2166 -0.1299
  520SOL    HW2 2079   1.174   2.127   3.056 -1.4607  0.5000 -0.2490
  520SOL     MW 2080   1.158   2.159   2.978 -0.0986 -0.4190 -0.0134
  521SOL     OW 2081   1.737   2.012   2.185 -0.0379 -0.3674  0.0512
  521SOL    HW1 2082   1.752   2.023   2.095  1.0704  2.3022  0.7912
  521SOL    HW2 2083   1.715   1.917   2.185 -2.9169  1.5074 -2.1785
  521SOL     MW 2084   1.736   2.001   2.173 -0.2715  0.2322 -0.1454
  522SOL     OW 2085   2.939   2.509   2.257 -0.3567  0.5543 -0.3213
  522SOL    HW1 2086   3.023   2.454   2.275 -0.8415 -1.0317  1.7544
  522SOL    HW2 2087   2.947   2.595   2.297 -3.5457 -3.4840  1.1196
  522SOL     MW 2088   2.951   2.513   2.264 -0.8414 -0.1878  0.1427
  523SOL     OW 2089   0.932   1.511   2.129  0.3081  0.3184  0.2424
  523SOL    HW1 2090   0.866   1.545   2.073  1.6067 -0.6366  2.9755
  523SOL    HW2 2091   0.973   1.440   2.079 -0.4500 -0.9732 -1.1894
  523SOL     MW 2092   0.929   1.506   2.115  0.3794  0.0220  0.4141
  524SOL     OW 2093   0.607   2.378   2.974  0.4730  0.0060 -0.5526
  524SOL    HW1 2094   0.655   2.434   2.916  1.2202 -1.7952 -0.0570
  524SOL    HW2 2095   0.672   2.305   2.972  0.5936  0.5018  0.3136
  524SOL     MW 2096   0.622   2.376   2.966  0.5875 -0.1663 -0.3730
  525SOL     OW 2097   0.424   2.271   2.055  0.1814  0.5148 -0.3147
  525SOL    HW1 2098   0.402   2.202   2.123  2.5410  0.0549  0.9251
  525SOL    HW2 2099   0.439   2.229   1.965 -2.8657  0.0015 -6.5385
  525SOL     MW 2100   0.423   2.256   2.052  0.0907  0.3864 -0.9723
  526SOL     OW 2101   0.659   2.076   1.990 -0.3495 -0.4850 -0.5967
  526SOL    HW1 2102   0.721   2.083   1.916 -1.7722 -0.5817  3.5356
  526SOL    HW2 2103   0.690   2.137   2.056  0.9905 -0.2661  0.1744
  526SOL     MW 2104   0.671   2.085   1.989 -0.3604 -0.4689  0.0503
  527SOL     OW 2105   1.383   2.006   2.090  0.7562 -0.2326 -0.3113
  527SOL    HW1 2106   1.381   1.970   2.181  1.9068 -0.6744  2.4399
  527SOL    HW2 2107   1.379   1.930   2.028 -0.4279  0.4526  0.3440
  527SOL     MW 2108   1.382   1.991   2.094  0.7518 -0.2005  0.1381
  528SOL     OW 2109   0.716   2.910   2.867 -0.1107 -0.8740 -0.6025
  528SOL    HW1 2110   0.737   3.004   2.869 -0.2939  0.4962 -1.3101
  528SOL    HW2 2111   0.652   2.920   2.790 -1.7512 -3.0123 -1.8684
  528SOL     MW 2112   0.710   2.924   2.857 -0.3513 -0.9753 -0.8629
  529SOL     OW 2113   1.044   2.276   1.848  0.4561  0.0011  0.5720
  529SOL    HW1 2114   1.037   2.312   1.939  0.4064  0.1384  1.2220
  529SOL    HW2 2115   1.098   2.336   1.803  0.1125  0.0019 -4.7903
  529SOL     MW 2116   1.050   2.289   1.854  0.4042  0.0193 -0.0497
  530SOL     OW 2117   1.176   2.419   3.054 -0.8043  0.1546  0.1664
  530SOL    HW1 2118   1.136   2.495   3.095 -0.1195  1.8978 -0.0846
  530SOL    HW2 2119   1.120   2.344   3.032  0.8308 -1.2135 -0.7539
  530SOL     MW 2120   1.163   2.419   3.056 -0.4982  0.2041  0.0118
  531SOL     OW 2121   0.975   1.863   2.583 -0.4630 -0.3056 -0.3928
  531SOL    HW1 2122   0.978   1.933   2.646 -2.6930 -0.4037 -0.9790
  531SOL    HW2 2123   0.921   1.792   2.623  0.8846 -0.9853 -1.4186
  531SOL     MW 2124   0.968   1.863   2.597 -0.5794 -0.4082 -0.6055
  532SOL     OW 2125   1.718   0.315   2.898 -0.6806 -0.0526 -0.3782
  532SOL    HW1 2126   1.732   0.245   2.968  0.9921  1.8218 -1.3979
  532SOL    HW2 2127   1.810   0.340   2.887  2.8801  3.3119 -2.1684
  532SOL     MW 2128   1.732   0.309   2.906  0.0098  0.6386 -0.7490
  533SOL     OW 2129   1.798   2.664   2.989  0.6956  0.3540  0.0950
  533SOL    HW1 2130   1.745   2.636   3.058 -0.3964 -0.0572 -0.4345
  533SOL    HW2 2131   1.734   2.665   2.911  2.1775 -0.0587 -2.3431
  533SOL     MW 2132   1.783   2.660   2.988  0.7471  0.2453 -0.2966
  534SOL     OW 2133   1.798   2.351   2.465  0.2350  0.2545  0.0541
  534SOL    HW1 2134   1.732   2.291   2.506 -0.4806 -2.3942 -0.3575
  534SOL    HW2 2135   1.855   2.375   2.542  1.3352 -0.0035  2.9281
  534SOL     MW 2136   1.797   2.346   2.480  0.2858 -0.1290  0.3790
  535SOL     OW 2137   1.852   2.351   1.898  1.0036  0.2025 -0.6033
  535SOL    HW1 2138   1.814   2.370   1.808  0.1709  0.5082  0.2846
  535SOL    HW2 2139   1.941   2.386   1.904 -0.1145 -0.3736  3.0118
  535SOL     MW 2140   1.858   2.358   1.887  0.7462  0.1668 -0.0092
  536SOL     OW 2141   0.441   1.888   2.020 -0.3392 -0.0508  0.1055
  536SOL    HW1 2142   0.457   1.809   1.973  1.2505  0.5502 -0.0356
  536SOL    HW2 2143   0.510   1.957   1.999  2.5074  0.2739  0.6554
  536SOL     MW 2144   0.452   1.886   2.011  0.2461  0.0713  0.1595
  537SOL     OW 2145   1.032   0.165   2.893 -0.7814  0.0293  0.0286
  537SOL    HW1 2146   0.992   0.153   2.985 -0.4264 -1.9153  1.0589
  537SOL    HW2 2147   1.056   0.255   2.901  1.1176  0.3871  4.0313
  537SOL     MW 2148   1.030   0.175   2.906 -0.4840 -0.1801  0.6927
  538SOL     OW 2149   1.367   0.075   2.971 -0.0420 -0.0680  0.3196
  538SOL    HW1 2150   1.358   0.171   2.984  0.4036  0.2326 -0.5465
  538SOL    HW2 2151   1.454   0.063   2.929 -1.3018  1.5639 -1.1963
  538SOL     MW 2152   1.378   0.086   2.967 -0.1494  0.1870  0.0053
  539SOL     OW 2153   0.762   2.782   2.551 -0.3958  0.2152 -0.1047
  539SOL    HW1 2154   0.866   2.779   2.547  0.3889 -0.3697 -0.4670
  539SOL    HW2 2155   0.741   2.721   2.622  1.1622 -1.5230  0.7993
  539SOL     MW 2156   0.773   2.774   2.560 -0.0867 -0.0913 -0.0332
  540SOL     OW 2157   0.356   2.389   2.841  0.4582  0.4704 -0.0518
  540SOL    HW1 2158   0.452   2.372   2.857 -0.6960 -1.3024  0.1962
  540SOL    HW2 2159   0.312   2.336   2.909  1.1346 -0.5922 -1.3538
  540SOL     MW 2160   0.363   2.380   2.852  0.3952  0.0963 -0.1908
  541SOL     OW 2161   0.183   2.924   2.214 -0.0836 -0.0638  0.1364
  541SOL    HW1 2162   0.214   2.863   2.150  1.7379  0.7407 -0.2160
  541SOL    HW2 2163   0.213   2.889   2.295 -0.0969 -0.5006 -1.0192
  541SOL     MW 2164   0.191   2.912   2.217  0.1550 -0.0152 -0.0626
  542SOL     OW 2165   1.004   2.249   2.581 -0.3643 -0.4229  0.0521
  542SOL    HW1 2166   0.956   2.166   2.609  0.6307 -0.6160  2.4154
  542SOL    HW2 2167   1.020   2.303   2.661 -0.7336 -0.3485  1.8635
  542SOL     MW 2168   1.000   2.245   2.595 -0.2818 -0.4386  0.6029
  543SOL     OW 2169   1.455   2.482   2.761 -0.5480 -0.5267  0.6178
  543SOL    HW1 2170   1.484   2.428   2.690  1.9829  2.8763 -0.5161
  543SOL    HW2 2171   1.525   2.552   2.759  0.5260  1.1835  0.6486
  543SOL     MW 2172   1.468   2.484   2.752 -0.0724  0.1479  0.4723
  544SOL     OW 2173   0.680   0.239   2.677  0.7167 -0.5050 -0.0029
  544SOL    HW1 2174   0.590   0.225   2.690  4.6049  1.6550 -1.1064
  544SOL    HW2 2175   0.714   0.154   2.654 -0.3364 -1.6561  3.1298
  544SOL     MW 2176   0.673   0.226   2.675  1.0908 -0.3719  0.2649
  545SOL     OW 2177   1.586   2.162   2.317  0.4223 -0.1433 -0.3700
  545SOL    HW1 2178   1.523   2.192   2.254 -0.9755 -1.7241  1.6834
  545SOL    HW2 2179   1.658   2.115   2.268 -0.2492  0.1986  0.8542
  545SOL     MW 2180   1.587   2.160   2.302  0.1493 -0.3067  0.0624
  546SOL     OW 2181   2.976   2.009   0.130  0.9451 -0.0610 -0.0938
  546SOL    HW1 2182   2.980   2.089   0.070 -0.7994 -0.5458  1.6593
  546SOL    HW2 2183   3.056   1.963   0.091  1.0401 -0.5849 -1.3676
  546SOL     MW 2184   2.987   2.014   0.117  0.7274 -0.1941 -0.0306
  547SOL     OW 2185   0.287   2.986   0.143  0.8672  0.4628 -0.3911
  547SOL    HW1 2186   0.325   3.041   0.081 -2.6970 -3.5435 -1.9759
  547SOL    HW2 2187   0.298   2.892   0.107 -0.9881 -0.0031 -1.4385
  547SOL     MW 2188   0.293   2.981   0.130  0.1522 -0.1272 -0.7384
  548SOL     OW 2189   0.277   2.563   0.247 -0.1597 -0.0313  0.1505
  548SOL    HW1 2190   0.268   2.640   0.188 -0.3517  0.5431  1.6622
  548SOL    HW2 2191   0.276   2.489   0.192  3.6025 -0.0410  0.5736
  548SOL     MW 2192   0.276   2.563   0.232  0.3113  0.0432  0.4058
  549SOL     OW 2193   0.839   1.889   2.131  0.7025 -0.3467  0.3269
  549SOL    HW1 2194   0.763   1.928   2.094 -0.8045 -0.9153  0.6109
  549SOL    HW2 2195   0.810   1.866   2.218 -2.7311 -0.5077 -1.0407
  549SOL     MW 2196   0.825   1.891   2.138  0.0506 -0.4429  0.1839
  550SOL     OW 2197   1.797   1.707   2.540  0.2078  0.2079  0.3385
  550SOL    HW1 2198   1.817   1.723   2.444 -0.7670  0.0596  0.3977
  550SOL    HW2 2199   1.807   1.783   2.602  0.2991  1.2221 -0.8914
  550SOL     MW 2200   1.801   1.719   2.536  0.0912  0.3221  0.1841
  551SOL     OW 2201   0.878   2.253   0.212  0.0634 -0.6617 -0.0262
  551SOL    HW1 2202   0.972   2.258   0.192  0.1312  0.9263 -0.0837
  551SOL    HW2 2203   0.841   2.169   0.184 -0.7862 -1.2808 -4.1520
  551SOL     MW 2204   0.886   2.243   0.206 -0.0398 -0.5339 -0.5782
  552SOL     OW 2205   1.765   1.738   2.261 -0.0302  0.0812  0.7275
  552SOL    HW1 2206   1.681   1.700   2.286  3.9409  3.4407 -2.1898
  552SOL    HW2 2207   1.787   1.696   2.170  0.5452 -1.5297 -0.1817
  552SOL     MW 2208   1.757   1.727   2.252  0.5696  0.3119  0.2227
  553SOL     OW 2209   1.187   2.313   1.451  0.2797 -0.1751 -0.6113
  553SOL    HW1 2210   1.211   2.221   1.462 -2.0964  1.9540  0.2392
  553SOL    HW2 2211   1.264   2.370   1.455  1.1542 -0.5528  2.3594
  553SOL     MW 2212   1.201   2.308   1.453  0.0815  0.0560 -0.1071
  554SOL     OW 2213   0.553   2.922   2.667 -0.0303  0.2590 -0.5484
  554SOL    HW1 2214   0.518   2.989   2.606  0.4730 -0.5921  0.9890
  554SOL    HW2 2215   0.623   2.891   2.609 -1.1628  1.2398  0.7578
  554SOL     MW 2216   0.558   2.927   2.651 -0.1133  0.2761 -0.1732
  555SOL     OW 2217   0.630   2.459   2.570 -0.2082  0.1187 -0.3293
  555SOL    HW1 2218   0.599   2.373   2.584  0.3358  1.5784 -1.1012
  555SOL    HW2 2219   0.707   2.442   2.515 -0.3874  3.2245  1.6990
  555SOL     MW 2220   0.636   2.446   2.565 -0.1601  0.7211 -0.1635
  556SOL     OW 2221   0.937   1.808   0.162  0.2760  0.7012  0.3257
  556SOL    HW1 2222   0.978   1.804   0.077 -1.7296  1.7429 -2.5458
  556SOL    HW2 2223   1.005   1.839   0.222  0.0085 -0.9513 -0.4710
  556SOL     MW 2224   0.952   1.811   0.159 -0.0239  0.6206 -0.1583
  557SOL     OW 2225   0.978   2.680   0.500  0.0298 -0.3100 -0.0236
  557SOL    HW1 2226   1.028   2.629   0.433  2.0754  1.3602  0.1388
  557SOL    HW2 2227   0.902   2.728   0.456 -0.2209  0.2542  2.6976
  557SOL     MW 2228   0.975   2.679   0.485  0.2666 -0.0152  0.3569
  558SOL     OW 2229   0.265   2.173   3.060  0.2539  0.7576 -0.6527
  558SOL    HW1 2230   0.213   2.096   3.038  0.8332 -0.5198 -2.9609
  558SOL    HW2 2231   0.203   2.224   3.109 -1.2761  1.8173 -1.0705
  558SOL     MW 2232   0.250   2.169   3.063  0.1285  0.7289 -1.0124
  559SOL     OW 2233   1.027   2.315   2.129 -0.5653  0.6300 -0.2649
  559SOL    HW1 2234   1.095   2.383   2.141  0.1788  1.5172  2.4881
  559SOL    HW2 2235   1.044   2.240   2.191  0.4943 -3.6268  0.8240
  559SOL     MW 2236   1.038   2.314   2.138 -0.3273  0.1854  0.2420
  560SOL     OW 2237   1.951   2.853   0.045  0.6151 -0.1577 -0.6162
  560SOL    HW1 2238   2.025   2.877  -0.010 -1.1784  2.2454 -3.1691
  560SOL    HW2 2239   1.922   2.776   0.003  1.9325 -1.4807 -1.3272
  560SOL     MW 2240   1.957   2.846   0.032  0.5523 -0.0152 -1.0468
  561SOL     OW 2241   0.426   2.187   0.208 -0.1036  0.7372 -0.4284
  561SOL    HW1 2242   0.384   2.187   0.123 -2.5280 -0.1694 -4.0116
  561SOL    HW2 2243   0.477   2.269   0.223  1.3431 -2.3489  2.1795
  561SOL     MW 2244   0.427   2.198   0.199 -0.2326  0.2104 -0.5571
  562SOL     OW 2245   0.779   2.221   2.212 -0.5329 -0.0565 -0.4175
  562SOL    HW1 2246   0.831   2.300   2.189 -1.7379  0.9322 -1.0441
  562SOL    HW2 2247   0.839   2.162   2.252 -0.1159  2.0894  2.1704
  562SOL     MW 2248   0.794   2.224   2.214 -0.6368  0.3571 -0.1588
  563SOL     OW 2249   1.165   0.337   0.567  0.8424  0.0301 -0.3336
  563SOL    HW1 2250   1.095   0.307   0.508 -1.5081  0.9845  2.1401
  563SOL    HW2 2251   1.192   0.255   0.612  0.6982 -1.0240 -1.9754
  563SOL     MW 2252   1.159   0.322   0.565  0.5133  0.0170 -0.2238
  564SOL     OW 2253   1.034   2.624   2.229  0.3269  0.2065 -0.5473
  564SOL    HW1 2254   1.062   2.646   2.139  1.0181 -1.7954  2.9116
  564SOL    HW2 2255   1.115   2.615   2.276 -2.3066 -0.9903 -0.0293
  564SOL     MW 2256   1.049   2.625   2.223  0.0706 -0.2155 -0.0226
  565SOL     OW 2257   2.902   2.720   2.660 -0.3312  0.7891  0.3205
  565SOL    HW1 2258   2.950   2.776   2.596  1.6413  0.4940 -0.0019
  565SOL    HW2 2259   2.821   2.708   2.617  0.9570  0.1655 -0.8453
  565SOL     MW 2260   2.898   2.726   2.646  0.0990  0.6679  0.1241
  566SOL     OW 2261   2.155   1.886   2.373 -0.1045  0.3364 -0.4098
  566SOL    HW1 2262   2.150   1.840   2.290 -0.0399 -0.6960 -0.0606
  566SOL    HW2 2263   2.215   1.964   2.363 -1.4178 -1.4092  1.3241
  566SOL     MW 2264   2.162   1.891   2.361 -0.2693 -0.0301 -0.1349
  567SOL     OW 2265   1.181   2.904   2.948  0.0840 -0.4571 -0.5638
  567SOL    HW1 2266   1.249   2.975   2.967  2.0499 -2.0517 -1.4931
  567SOL    HW2 2267   1.205   2.814   2.942  0.2056 -3.2360 -0.1000
  567SOL     MW 2268   1.193   2.901   2.950  0.3594 -1.0342 -0.6252
  568SOL     OW 2269   1.605   2.134   2.886 -0.1755  0.4966 -0.2308
  568SOL    HW1 2270   1.631   2.217   2.928  0.4488  0.8400  0.1612
  568SOL    HW2 2271   1.688   2.094   2.844 -0.8272 -1.0817  1.7265
  568SOL     MW 2272   1.620   2.140   2.886 -0.1791  0.3337  0.0792
  569SOL     OW 2273   0.172   2.239   2.482  0.1791  0.1778  0.5108
  569SOL    HW1 2274   0.121   2.265   2.400 -3.1291 -0.8716 -0.5165
  569SOL    HW2 2275   0.200   2.330   2.509  2.5912  0.6587 -0.3616
  569SOL     MW 2276   0.169   2.254   2.475  0.0609  0.1028  0.2601
  570SOL     OW 2277   1.423   0.380   0.484 -0.4437 -0.2220  0.0417
  570SOL    HW1 2278   1.341   0.403   0.529 -1.2262 -0.5545  2.9152
  570SOL    HW2 2279   1.487   0.388   0.559 -1.6253  2.0420  2.1665
  570SOL     MW 2280   1.421   0.384   0.500 -0.7029  0.0328  0.7012
  571SOL     OW 2281   1.482   2.419   1.982  0.3510  0.2763  0.2678
  571SOL    HW1 2282   1.539   2.420   2.060  0.6680  0.4062  2.2475
  571SOL    HW2 2283   1.502   2.327   1.955  0.4256  2.0584 -0.3686
  571SOL     MW 2284   1.492   2.407   1.989  0.4026  0.5285  0.4450
  572SOL     OW 2285   0.940   2.639   0.037  0.5234  0.8208  0.1191
  572SOL    HW1 2286   0.951   2.661  -0.055  3.3757 -2.1297  0.6951
  572SOL    HW2 2287   0.844   2.644   0.052  0.8797  0.7768 -3.2800
  572SOL     MW 2288   0.928   2.642   0.027  0.9467  0.4257 -0.2533
  573SOL     OW 2289   1.165   2.330   0.256 -0.0920 -0.9182 -0.5413
  573SOL    HW1 2290   1.244   2.318   0.214 -1.9080  0.6052  0.0669
  573SOL    HW2 2291   1.153   2.430   0.249 -2.1840  0.3963 -0.4741
  573SOL     MW 2292   1.174   2.342   0.249 -0.6076 -0.5438 -0.4522
  574SOL     OW 2293   1.133   2.613   0.267  0.1389 -0.2669  0.6705
  574SOL    HW1 2294   1.189   2.683   0.291 -3.4891  0.4238 -0.7494
  574SOL    HW2 2295   1.070   2.645   0.205 -2.2678  0.8194 -1.0418
  574SOL     MW 2296   1.132   2.626   0.262 -0.6573 -0.0324  0.2572
  575SOL     OW 2297   0.039   2.304   1.793  0.6483  0.2504  0.0262
  575SOL    HW1 2298   0.039   2.218   1.755 -1.9945  1.7210 -0.3820
  575SOL    HW2 2299   0.059   2.357   1.716  1.5903  0.4730 -1.4122
  575SOL     MW 2300   0.041   2.300   1.778  0.4239  0.4738 -0.2175
  576SOL     OW 2301   2.831   1.827   2.073 -0.6266  0.1717  0.5516
  576SOL    HW1 2302   2.870   1.892   2.009 -2.7011  0.6876  1.0419
  576SOL    HW2 2303   2.737   1.809   2.056 -0.8992  0.2101  1.3272
  576SOL     MW 2304   2.823   1.833   2.063 -0.9363  0.2448  0.7186
  577SOL     OW 2305   2.089   0.203   0.092 -0.7013 -0.0777  0.5972
  577SOL    HW1 2306   2.028   0.203   0.015  1.2467  0.4011  0.6651
  577SOL    HW2 2307   2.037   0.171   0.162  0.2314 -0.7614 -0.6345
  577SOL     MW 2308   2.074   0.199   0.091 -0.3213 -0.1047  0.4436
  578SOL     OW 2309   1.912   2.028   2.392  0.6351 -0.3329 -0.3535
  578SOL    HW1 2310   1.858   2.013   2.314  1.5586 -0.1965  0.2549
  578SOL    HW2 2311   2.003   1.993   2.380  1.9821  1.3061 -1.2264
  578SOL     MW 2312   1.917   2.022   2.380  0.9347 -0.0987 -0.3884
  579SOL     OW 2313   0.878   2.459   2.428 -0.1632 -0.2218 -0.8185
  579SOL    HW1 2314   0.938   2.384   2.457 -0.0027 -2.1029 -0.3479
  579SOL    HW2 2315   0.941   2.517   2.387 -0.0500 -0.8859  1.1639
  579SOL     MW 2316   0.895   2.457   2.426 -0.1271 -0.5576 -0.4949
  580SOL     OW 2317   0.928   2.974   3.051 -0.0764 -0.3110  0.2943
  580SOL    HW1 2318   1.021   2.949   3.032  0.6955 -0.4286 -1.3006
  580SOL    HW2 2319   0.875   2.907   3.005  1.6366 -1.4739  3.0307
  580SOL     MW 2320   0.933   2.962   3.042  0.2515 -0.4799  0.4449
  581SOL     OW 2321   1.193   2.478   1.697 -0.5386  0.0382  0.1751
  581SOL    HW1 2322   1.231   2.569   1.698  1.5104 -1.8294 -1.5794
  581SOL    HW2 2323   1.202   2.450   1.610 -2.3987  3.6052  0.7064
  581SOL     MW 2324   1.199   2.486   1.686 -0.5137  0.2624  0.0137
  582SOL     OW 2325   0.002   2.863   2.544  0.3547  0.1603  0.5770
  582SOL    HW1 2326  -0.026   2.926   2.609 -0.9643  0.2072  2.6968
  582SOL    HW2 2327   0.095   2.872   2.555  1.5289 -1.2565  1.0135
  582SOL     MW 2328   0.011   2.873   2.554  0.3356 -0.0204  0.9142
  583SOL     OW 2329   2.038   2.367   2.682 -0.4194  0.2131  0.2291
  583SOL    HW1 2330   2.118   2.366   2.627 -2.2211  1.5351 -2.2560
  583SOL    HW2 2331   2.006   2.272   2.686  0.0886 -2.2983  0.7958
  583SOL     MW 2332   2.044   2.354   2.676 -0.5901  0.0561 -0.0240
  584SOL     OW 2333   0.239   1.819   2.211  0.0869  0.2352  0.4306
  584SOL    HW1 2334   0.320   1.832   2.165  3.1499 -2.3888  1.2954
  584SOL    HW2 2335   0.219   1.904   2.245  1.7251 -0.3330 -0.6035
  584SOL     MW 2336   0.247   1.832   2.210  0.7072 -0.1860  0.4083
  585SOL     OW 2337   1.506   2.664   0.158  1.3135  0.0962  0.0831
  585SOL    HW1 2338   1.477   2.605   0.088  1.1537  1.1454  1.6558
  585SOL    HW2 2339   1.446   2.663   0.235  2.8104 -0.2825 -1.3296
  585SOL     MW 2340   1.494   2.656   0.159  1.4899  0.1847  0.1042
  586SOL     OW 2341   1.359   2.846   2.524 -0.5698  0.2340  0.1578
  586SOL    HW1 2342   1.419   2.827   2.446  1.7002 -1.4603 -1.4972
  586SOL    HW2 2343   1.374   2.938   2.556 -0.3459 -1.0424 -1.0195
  586SOL     MW 2344   1.369   2.855   2.518 -0.2407 -0.1579 -0.2159
  587SOL     OW 2345   1.323   1.553   2.181  0.3691  0.0389  0.2296
  587SOL    HW1 2346   1.287   1.477   2.231  0.0013  1.5682  2.4096
  587SOL    HW2 2347   1.317   1.529   2.086  0.1980 -2.0639  0.4295
  587SOL     MW 2348   1.317   1.540   2.175  0.2980 -0.0368  0.5436
  588SOL     OW 2349   1.371   2.115   2.751 -0.2194 -0.3361 -0.2376
  588SOL    HW1 2350   1.451   2.076   2.789 -2.9747  1.5349 -0.7430
  588SOL    HW2 2351   1.312   2.142   2.828 -0.3424 -1.2267  1.3139
  588SOL     MW 2352   1.374   2.113   2.766 -0.5991 -0.2068 -0.0995
  589SOL     OW 2353   1.254   2.040   0.104  0.0562 -0.1942  0.2898
  589SOL    HW1 2354   1.299   2.116   0.143 -1.3727  1.6055 -0.9456
  589SOL    HW2 2355   1.220   1.988   0.179 -1.6511  0.5898 -1.5224
  589SOL     MW 2356   1.255   2.043   0.119 -0.3576  0.1467 -0.1123
  590SOL     OW 2357   0.433   2.767   2.200  0.3833  0.2149 -0.2348
  590SOL    HW1 2358   0.438   2.712   2.127  2.6076  2.4505  1.0420
  590SOL    HW2 2359   0.515   2.809   2.220  0.5212 -2.9868  1.2757
  590SOL     MW 2360   0.445   2.766   2.193  0.6950  0.0874  0.1329
  591SOL     OW 2361   2.273   0.679   3.102 -0.7589 -0.6851  0.0892
  591SOL    HW1 2362   2.206   0.727   3.046 -1.8107 -0.1858 -0.2612
  591SOL    HW2 2363   2.361   0.725   3.064  3.5968  1.9827 -1.1653
  591SOL     MW 2364   2.276   0.692   3.089 -0.3230 -0.2673 -0.1226
  592SOL     OW 2365   1.773   2.955   0.821 -0.9902  0.0406 -0.0485
  592SOL    HW1 2366   1.780   3.036   0.764 -0.1655  2.2411 -2.5466
  592SOL    HW2 2367   1.836   2.892   0.778  0.4603  1.9862 -2.1887
  592SOL     MW 2368   1.782   2.958   0.808 -0.6900  0.5876 -0.6605
  593SOL     OW 2369   1.929   0.701   0.860  0.5629 -0.6280 -0.2110
  593SOL    HW1 2370   1.848   0.690   0.808 -0.6850  1.2287 -1.0715
  593SOL    HW2 2371   1.975   0.619   0.845  4.4330  2.2642 -4.0887
  593SOL     MW 2372   1.924   0.689   0.851  0.9089 -0.0014 -0.8361
  594SOL     OW 2373   2.821   1.143   1.352  0.0096 -0.1085  0.2360
  594SOL    HW1 2374   2.913   1.158   1.385  0.1310 -1.2282  1.6542
  594SOL    HW2 2375   2.810   1.098   1.267  0.2389  0.1596  1.6812
  594SOL     MW 2376   2.832   1.139   1.346  0.0559 -0.2209  0.6138
  595SOL     OW 2377   0.462   1.006   0.810 -0.8383  0.0173  0.3072
  595SOL    HW1 2378   0.492   1.083   0.760  1.5852  1.9026  1.9258
  595SOL    HW2 2379   0.444   1.057   0.894 -0.1379  2.2431  3.4771
  595SOL     MW 2380   0.464   1.023   0.814 -0.4261  0.5597  0.9390
  596SOL     OW 2381   2.447   1.331   0.595  0.0452 -0.3276  0.4009
  596SOL    HW1 2382   2.515   1.386   0.553 -1.6309  2.6417 -0.6875
  596SOL    HW2 2383   2.497   1.309   0.673  1.0614 -0.7556  2.2338
  596SOL     MW 2384   2.463   1.335   0.600 -0.0419  0.0077  0.4991
  597SOL     OW 2385   2.191   0.737   1.607  0.4408  0.0155  0.0173
  597SOL    HW1 2386   2.214   0.675   1.679  1.3865 -1.0548 -0.4451
  597SOL    HW2 2387   2.109   0.694   1.568  0.2552 -1.3046  0.4571
  597SOL     MW 2388   2.183   0.723   1.612  0.5411 -0.2999  0.0144
  598SOL     OW 2389   2.598   1.011   2.870  0.1534  0.0267  0.0246
  598SOL    HW1 2390   2.597   0.979   2.780  1.3460  0.9448 -0.5868
  598SOL    HW2 2391   2.683   1.058   2.874  2.9349 -0.9943  0.8077
  598SOL     MW 2392   2.609   1.013   2.859  0.6777  0.0131  0.0472
  599SOL     OW 2393   2.971   0.423   2.058 -0.0332 -0.5440  0.4197
  599SOL    HW1 2394   3.017   0.434   2.145 -0.9424 -0.1122  1.7915
  599SOL    HW2 2395   2.999   0.502   2.002 -0.3893 -0.2797  1.0121
  599SOL     MW 2396   2.981   0.435   2.062 -0.2002 -0.4522  0.6789
  600SOL     OW 2397   1.895   1.616   0.852 -0.2883 -0.2491 -0.6719
  600SOL    HW1 2398   1.927   1.651   0.936 -0.0754 -1.8966 -0.9558
  600SOL    HW2 2399   1.804   1.649   0.836 -0.7060  0.3203  3.2151
  600SOL     MW 2400   1.887   1.625   0.861 -0.3153 -0.3913 -0.1965
  601SOL     OW 2401   2.479   0.778   0.831 -0.8651 -0.3712 -0.2960
  601SOL    HW1 2402   2.463   0.786   0.925  1.7722 -0.7343  3.4818
  601SOL    HW2 2403   2.411   0.727   0.786  0.4876  1.2870  0.0924
  601SOL     MW 2404   2.468   0.772   0.837 -0.3386 -0.2004  0.2537
  602SOL     OW 2405   2.351   1.914   0.846 -0.0922  0.4789 -0.7835
  602SOL    HW1 2406   2.307   1.828   0.829  0.5497  0.0072 -2.8105
  602SOL    HW2 2407   2.290   1.977   0.805 -2.1124  1.1302  0.0832
  602SOL     MW 2408   2.337   1.911   0.838 -0.2741  0.5026 -0.9366
  603SOL     OW 2409   3.085   1.371   1.807  0.2926 -0.2595  0.3060
  603SOL    HW1 2410   3.152   1.395   1.872 -1.6874 -1.3174  1.7610
  603SOL    HW2 2411   3.072   1.281   1.834  1.5267  0.8810 -0.8606
  603SOL     MW 2412   3.092   1.363   1.819  0.1942 -0.2486  0.3441
  604SOL     OW 2413   2.169   1.588   0.453 -0.0501  0.4317  0.0571
  604SOL    HW1 2414   2.180   1.499   0.488 -1.6433 -0.3446 -1.8298
  604SOL    HW2 2415   2.085   1.623   0.503 -1.6524 -1.1857 -0.9336
  604SOL     MW 2416   2.159   1.581   0.464 -0.4717  0.1159 -0.3226
  605SOL     OW 2417   2.612   1.524   0.831 -0.3390 -0.2808  0.4936
  605SOL    HW1 2418   2.569   1.597   0.771 -0.7138  0.7664  1.2128
  605SOL    HW2 2419   2.617   1.438   0.791 -0.0559 -0.6230 -2.7755
  605SOL     MW 2420   2.607   1.523   0.818 -0.3511 -0.1878  0.1572
  606SOL     OW 2421   2.546   1.777   1.992  0.7814 -1.0335  0.4790
  606SOL    HW1 2422   2.452   1.780   1.983 -0.3304 -0.6648 -0.3922
  606SOL    HW2 2423   2.568   1.698   1.946  0.2777 -0.9546 -0.8254
  606SOL     MW 2424   2.537   1.767   1.985  0.5683 -0.9745  0.1919
  607SOL     OW 2425   2.390   1.119   3.043 -0.1104  0.6537  0.1133
  607SOL    HW1 2426   2.464   1.082   2.999 -1.3808 -1.8174 -0.6603
  607SOL    HW2 2427   2.410   1.090   3.136 -0.3251 -0.8391  2.4752
  607SOL     MW 2428   2.402   1.110   3.050 -0.3064  0.1307  0.3228
  608SOL     OW 2429   1.875   0.264   0.633  0.0221 -0.0576  0.2274
  608SOL    HW1 2430   1.856   0.304   0.542 -1.0822 -0.7346  1.2860
  608SOL    HW2 2431   1.843   0.171   0.632 -1.5515 -1.1771 -1.6551
  608SOL     MW 2432   1.868   0.257   0.621 -0.3313 -0.2946  0.1187
  609SOL     OW 2433   2.037   2.004   3.040  0.1377  0.3448 -0.0588
  609SOL    HW1 2434   1.964   1.947   3.046  3.0079  0.7602 -1.3620
  609SOL    HW2 2435   2.102   1.978   3.119 -1.6045 -0.5514  1.8235
  609SOL     MW 2436   2.036   1.993   3.052  0.2865  0.2813  0.0176
  610SOL     OW 2437   1.764   1.007   1.300  0.1737 -0.2560 -0.4373
  610SOL    HW1 2438   1.797   0.957   1.232 -0.1123 -0.4658  1.1913
  610SOL    HW2 2439   1.672   1.001   1.277  1.6919  0.3073 -0.9836
  610SOL     MW 2440   1.756   1.000   1.288  0.3363 -0.2093 -0.2945
  611SOL     OW 2441   2.527   1.742   0.695  0.2019 -0.8525  0.4250
  611SOL    HW1 2442   2.500   1.827   0.725  3.2808 -0.8540 -2.6284
  611SOL    HW2 2443   2.494   1.757   0.610 -0.0469 -0.0231 -0.1631
  611SOL     MW 2444   2.519   1.755   0.688  0.5753 -0.7432 -0.0555
  612SOL     OW 2445   2.789   2.830   0.417 -0.1797  0.4030  0.2781
  612SOL    HW1 2446   2.830   2.889   0.479 -1.0221  0.7873 -2.4719
  612SOL    HW2 2447   2.852   2.826   0.341  0.4641  0.6925 -0.2116
  612SOL     MW 2448   2.802   2.837   0.415 -0.2059  0.4919 -0.1493
  613SOL     OW 2449   1.473   0.984   0.937 -0.2288  0.3611 -0.7939
  613SOL    HW1 2450   1.557   1.027   0.914 -1.4678  0.4679  1.0035
  613SOL    HW2 2451   1.477   1.004   1.034  2.2894  0.9721 -0.1288
  613SOL     MW 2452   1.484   0.992   0.947 -0.0601  0.4558 -0.4690
  614SOL     OW 2453   2.012   0.556   1.469 -0.1342  0.0064 -0.2056
  614SOL    HW1 2454   1.998   0.467   1.507  2.3596  0.3471 -2.6890
  614SOL    HW2 2455   1.963   0.543   1.392  0.7481  3.9157  1.2616
  614SOL     MW 2456   2.004   0.543   1.464  0.3112  0.5671 -0.3397
  615SOL     OW 2457   2.397   0.740   0.254 -0.2138  0.0616  0.3459
  615SOL    HW1 2458   2.453   0.667   0.235  0.7068  1.7938 -3.8304
  615SOL    HW2 2459   2.337   0.728   0.180 -1.8580 -2.0114 -1.3202
  615SOL     MW 2460   2.396   0.729   0.242 -0.3093  0.0166 -0.4250
  616SOL     OW 2461   2.519   0.406   1.643  0.7719  0.0494  0.1252
  616SOL    HW1 2462   2.474   0.318   1.642  2.5950 -1.3992  2.1905
  616SOL    HW2 2463   2.490   0.448   1.562  0.7104  0.2415  0.0386
  616SOL     MW 2464   2.509   0.400   1.632  1.0043 -0.1164  0.3863
  617SOL     OW 2465   2.860   0.651   1.746 -0.5772  0.5310  0.3967
  617SOL    HW1 2466   2.785   0.640   1.801 -0.7640  0.8544  2.1917
  617SOL    HW2 2467   2.840   0.578   1.685 -1.6002 -0.1104  1.0561
  617SOL     MW 2468   2.847   0.640   1.745 -0.7368  0.4891  0.7205
  618SOL     OW 2469   2.711   0.373   1.898 -0.2822 -0.8529  0.3211
  618SOL    HW1 2470   2.679   0.444   1.952  0.9279  0.7297  2.5210
  618SOL    HW2 2471   2.802   0.367   1.928  1.1776 -0.7382 -0.8349
  618SOL     MW 2472   2.719   0.382   1.909  0.0700 -0.6290  0.4589
  619SOL     OW 2473   2.671   0.641   0.085 -0.0834  0.6477 -0.3346
  619SOL    HW1 2474   2.716   0.725   0.109  1.6596 -0.2644 -1.5835
  619SOL    HW2 2475   2.662   0.580   0.160  2.3664 -1.1511 -0.8329
  619SOL     MW 2476   2.675   0.644   0.098  0.4698  0.2901 -0.5651
  620SOL     OW 2477   2.235   1.056   1.008 -0.7601  0.4250  0.1429
  620SOL    HW1 2478   2.291   1.058   0.926  1.5551  1.6149  2.1374
  620SOL    HW2 2479   2.148   1.028   0.978  1.8995  0.3620  0.0841
  620SOL     MW 2480   2.230   1.053   0.993 -0.1037  0.5737  0.3983
  621SOL     OW 2481   1.546   2.162   1.923  0.1542  0.3531 -0.1463
  621SOL    HW1 2482   1.488   2.100   1.979 -1.9515  0.9161  1.9914
  621SOL    HW2 2483   1.638   2.140   1.951  4.8780  2.1304 -1.1638
  621SOL     MW 2484   1.551   2.151   1.934  0.4996  0.6619  0.0015
  622SOL     OW 2485   2.628   0.165   0.243  0.1578  0.2241 -0.1300
  622SOL    HW1 2486   2.721   0.188   0.232 -0.3457  1.1359 -1.7308
  622SOL    HW2 2487   2.621   0.073   0.272  0.0378 -0.2120 -1.0054
  622SOL     MW 2488   2.639   0.156   0.246  0.0755  0.2869 -0.4567
  623SOL     OW 2489   2.345   2.796   0.843  0.1451 -0.9921 -0.0948
  623SOL    HW1 2490   2.405   2.871   0.857 -1.3898 -1.4258  0.0510
  623SOL    HW2 2491   2.295   2.786   0.924  0.3261 -3.6194 -4.2444
  623SOL     MW 2492   2.346   2.804   0.856 -0.0335 -1.3960 -0.6231
  624SOL     OW 2493   2.181   1.721   2.990 -0.2021 -0.1987 -0.2729
  624SOL    HW1 2494   2.147   1.650   3.042  0.4801  2.8307  0.0881
  624SOL    HW2 2495   2.115   1.794   2.974  1.7331 -0.1225  0.4092
  624SOL     MW 2496   2.168   1.721   2.994  0.1433  0.2110 -0.1353
  625SOL     OW 2497   2.195   1.930   1.083  0.5366 -0.7257  0.7145
  625SOL    HW1 2498   2.264   1.884   1.126 -2.7393  0.2191 -0.6903
  625SOL    HW2 2499   2.234   1.930   0.993  1.2988  1.0282  1.5228
  625SOL     MW 2500   2.209   1.924   1.077  0.2049 -0.3696  0.6358
  626SOL     OW 2501   0.309   1.602   2.342  0.4261 -0.2518 -0.3247
  626SOL    HW1 2502   0.245   1.535   2.349  1.2883  3.1230  1.8915
  626SOL    HW2 2503   0.267   1.687   2.327 -1.5050 -1.9489  0.6085
  626SOL     MW 2504   0.295   1.604   2.341  0.2851 -0.0304  0.0909
  627SOL     OW 2505   2.454   0.712   2.560 -0.5366 -0.3138 -0.6405
  627SOL    HW1 2506   2.385   0.765   2.599 -2.2105 -0.7783 -2.8083
  627SOL    HW2 2507   2.418   0.694   2.473  1.1160  2.1072 -0.8078
  627SOL     MW 2508   2.440   0.717   2.554 -0.5394 -0.0557 -0.9486
  628SOL     OW 2509   2.339   1.416   1.366 -0.1723 -0.1651 -0.4944
  628SOL    HW1 2510   2.290   1.369   1.301  1.6431  0.4864  0.0527
  628SOL    HW2 2511   2.431   1.392   1.347  2.7550 -0.0376 -0.5875
  628SOL     MW 2512   2.345   1.407   1.355  0.4535 -0.0623 -0.4345
  629SOL     OW 2513   1.858   0.511   1.238  0.1576 -0.0396  0.3860
  629SOL    HW1 2514   1.873   0.603   1.214  1.9591  0.4132  2.3259
  629SOL    HW2 2515   1.759   0.506   1.247 -3.0689  0.0714  2.8927
  629SOL     MW 2516   1.847   0.522   1.236 -0.0304  0.0348  0.9727
  630SOL     OW 2517   2.428   1.844   2.979 -0.6437 -0.1573  0.4927
  630SOL    HW1 2518   2.415   1.932   2.934  1.0913 -0.1040  2.2404
  630SOL    HW2 2519   2.339   1.802   2.983 -2.5918  1.2953  0.7033
  630SOL     MW 2520   2.415   1.850   2.973 -0.6718  0.0414  0.7511
  631SOL     OW 2521   1.992   1.807   1.587  0.2390  0.2604  0.9534
  631SOL    HW1 2522   1.998   1.720   1.623  0.0392  0.7451 -1.6243
  631SOL    HW2 2523   1.997   1.804   1.490 -0.2406 -1.2328 -1.8241
  631SOL     MW 2524   1.993   1.795   1.579  0.1494  0.1274  0.2468
  632SOL     OW 2525   0.181   1.962   1.422  0.1816 -0.3640 -0.4456
  632SOL    HW1 2526   0.161   1.963   1.513 -1.9427 -0.9452 -1.1088
  632SOL    HW2 2527   0.178   1.862   1.402  1.1176 -1.1737 -0.1827
  632SOL     MW 2528   0.178   1.949   1.431  0.0248 -0.5475 -0.4984
  633SOL     OW 2529   2.562   0.490   0.326 -0.2180 -0.0397 -0.0450
  633SOL    HW1 2530   2.590   0.492   0.414 -0.4096 -1.8695  0.1731
  633SOL    HW2 2531   2.541   0.396   0.319 -2.2212 -0.2568 -2.0896
  633SOL     MW 2532   2.563   0.478   0.336 -0.5076 -0.3098 -0.2860
  634SOL     OW 2533   2.652   0.017   0.657 -0.3473  0.6075  0.2263
  634SOL    HW1 2534   2.694   0.103   0.672 -1.1423 -0.0018  3.5808
  634SOL    HW2 2535   2.603   0.017   0.577 -0.7451  1.4392  2.3665
  634SOL     MW 2536   2.651   0.029   0.648 -0.5046  0.6369  0.9513
  635SOL     OW 2537   2.613   0.132   1.841 -0.0021 -0.1320  0.3024
  635SOL    HW1 2538   2.693   0.087   1.824 -1.8908 -1.4214  2.1026
  635SOL    HW2 2539   2.642   0.222   1.855  4.4607  1.9057  0.7851
  635SOL     MW 2540   2.627   0.138   1.841  0.3375 -0.0333  0.6036
  636SOL     OW 2541   2.841   1.599   1.071  0.0695  0.2545 -0.6605
  636SOL    HW1 2542   2.756   1.638   1.063 -0.1888 -2.4207  0.2767
  636SOL    HW2 2543   2.901   1.677   1.058 -2.3770 -0.8520 -4.2404
  636SOL     MW 2544   2.838   1.615   1.068 -0.2874 -0.2444 -1.0092
  637SOL     OW 2545   2.875   1.442   0.753  0.2416  0.1967  0.0222
  637SOL    HW1 2546   2.928   1.519   0.760 -0.8005 -1.4982 -0.9291
  637SOL    HW2 2547   2.802   1.461   0.815 -1.7346  2.0127 -0.6593
  637SOL     MW 2548   2.872   1.455   0.762 -0.1567  0.2127 -0.1932
  638SOL     OW 2549   2.723   0.517   0.581 -0.4396  0.3642  0.5278
  638SOL    HW1 2550   2.804   0.539   0.530  1.8479 -1.6081  0.7538
  638SOL    HW2 2551   2.722   0.578   0.658 -2.2913  0.5296 -1.6185
  638SOL     MW 2552   2.733   0.528   0.585 -0.3821  0.1258  0.2744
  639SOL     OW 2553   1.762   0.019   0.612  0.1051 -0.3214 -0.1641
  639SOL    HW1 2554   1.674   0.042   0.603  0.6071 -0.9267  0.3815
  639SOL    HW2 2555   1.786  -0.023   0.527 -1.0001 -0.8845 -2.1312
  639SOL     MW 2556   1.753   0.017   0.600  0.0255 -0.4755 -0.3516
  640SOL     OW 2557   0.341   1.295   0.137 -0.5678  0.1744  0.3498
  640SOL    HW1 2558   0.384   1.306   0.048  1.5151  1.1618  0.6016
  640SOL    HW2 2559   0.327   1.197   0.143  2.2978 -2.7852 -1.7807
  640SOL     MW 2560   0.345   1.283   0.126  0.0851 -0.0858  0.1019
  641SOL     OW 2561   2.165   0.392   0.369 -0.0782 -0.1579  0.4532
  641SOL    HW1 2562   2.227   0.395   0.291  0.9226 -0.1121 -0.5295
  641SOL    HW2 2563   2.211   0.335   0.436  1.3223 -2.5006 -0.6979
  641SOL     MW 2564   2.179   0.385   0.368  0.2386 -0.4610  0.1716
  642SOL     OW 2565   0.084   3.080   0.565 -0.3203  0.2159 -0.2611
  642SOL    HW1 2566   0.054   3.169   0.528 -3.0867  0.7765 -0.5808
  642SOL    HW2 2567  -0.005   3.043   0.591 -0.0574  1.5962  0.8539
  642SOL     MW 2568   0.069   3.087   0.564 -0.6506  0.4720 -0.1562
  643SOL     OW 2569   1.980   0.337   1.615 -0.2891 -0.1294 -0.1419
  643SOL    HW1 2570   1.917   0.313   1.684 -1.5367  2.4579  2.0625
  643SOL    HW2 2571   2.005   0.248   1.573 -0.0239 -0.6482 -0.0542
  643SOL     MW 2572   1.975   0.322   1.618 -0.4187  0.1435  0.1605
  644SOL     OW 2573   2.751   2.026   1.045  0.1486 -0.5336  0.1253
  644SOL    HW1 2574   2.707   1.973   1.108  1.1683  0.4893  1.5802
  644SOL    HW2 2575   2.673   2.062   0.996 -0.9950  1.7754 -0.4215
  644SOL     MW 2576   2.735   2.024   1.047  0.1323 -0.0940  0.2451
  645SOL     OW 2577   2.853   0.830   0.637 -0.1599  0.4592 -0.6880
  645SOL    HW1 2578   2.946   0.817   0.652  1.0859  0.4440  0.3393
  645SOL    HW2 2579   2.813   0.771   0.699  1.0045 -1.7005  0.1512
  645SOL     MW 2580   2.860   0.820   0.647  0.1581  0.1722 -0.4418
  646SOL     OW 2581   0.131   2.321   0.814 -1.0448 -0.0320 -0.0192
  646SOL    HW1 2582   0.147   2.221   0.799 -1.3722  0.5646 -4.0406
  646SOL    HW2 2583   0.062   2.351   0.750 -2.2106 -2.7371  3.4202
  646SOL     MW 2584   0.124   2.312   0.804 -1.2418 -0.3102 -0.0960
  647SOL     OW 2585   2.670   0.469   2.932  0.4519 -0.1950 -0.5500
  647SOL    HW1 2586   2.637   0.396   2.985  0.2503 -0.2151 -3.5887
  647SOL    HW2 2587   2.626   0.548   2.959  0.1791  0.5226 -2.1651
  647SOL     MW 2588   2.660   0.470   2.943  0.3893 -0.1029 -1.1640
  648SOL     OW 2589   2.081   0.739   1.192  0.2635 -0.1874 -0.3578
  648SOL    HW1 2590   2.152   0.698   1.138  2.0857  1.6306  0.1829
  648SOL    HW2 2591   2.123   0.803   1.239 -1.1832 -1.1982  0.8862
  648SOL     MW 2592   2.096   0.742   1.191  0.3131 -0.0809 -0.1223
  649SOL     OW 2593   2.391   2.671   1.268  0.0325 -0.0782 -0.0178
  649SOL    HW1 2594   2.475   2.716   1.281  2.3018  1.5067 -0.2038
  649SOL    HW2 2595   2.400   2.579   1.282 -0.5117 -2.4526  0.3676
  649SOL     MW 2596   2.403   2.665   1.272  0.2601 -0.1823  0.0085
  650SOL     OW 2597   2.846   0.215   0.621  0.2893  0.3412 -0.5024
  650SOL    HW1 2598   2.861   0.305   0.652 -1.5156 -0.2826  3.0593
  650SOL    HW2 2599   2.919   0.185   0.564  1.1220 -2.6738 -1.1866
  650SOL     MW 2600   2.858   0.223   0.618  0.1611 -0.1389 -0.1228
  651SOL     OW 2601   3.009   0.423   0.912  0.6874  0.0526  0.3711
  651SOL    HW1 2602   3.085   0.463   0.871  2.3207  2.4524  3.6169
  651SOL    HW2 2603   2.982   0.491   0.974  0.6050 -0.7201  1.8899
  651SOL     MW 2604   3.015   0.437   0.915  0.8920  0.2673  0.9997
  652SOL     OW 2605   2.467   1.500   2.998 -0.0804  0.3251  0.5005
  652SOL    HW1 2606   2.509   1.489   2.909  3.6577 -0.9854  0.2978
  652SOL    HW2 2607   2.428   1.594   2.991 -0.8033  3.8625  1.7761
  652SOL     MW 2608   2.468   1.511   2.986  0.3175  0.6189  0.6421
  653SOL     OW 2609   1.800   0.411   0.402 -0.5993  0.3069 -0.3478
  653SOL    HW1 2610   1.769   0.387   0.317 -1.0164 -1.6295  0.8174
  653SOL    HW2 2611   1.892   0.443   0.392  2.2395 -0.3019  1.5109
  653SOL     MW 2612   1.808   0.412   0.389 -0.2798 -0.0289  0.0512
  654SOL     OW 2613   2.402   1.022   0.780  0.3295 -0.5207 -0.0940
  654SOL    HW1 2614   2.334   1.020   0.710  0.1135  1.6937  1.3952
  654SOL    HW2 2615   2.442   0.934   0.801  0.4995  2.8331 -0.8405
  654SOL     MW 2616   2.398   1.010   0.774  0.3234  0.2139  0.0040
  655SOL     OW 2617   2.917   0.838   0.362  0.1182  0.2048  0.2318
  655SOL    HW1 2618   2.877   0.856   0.448 -0.7140  0.3141  1.1822
  655SOL    HW2 2619   2.915   0.743   0.363  1.9861  2.5193  0.6688
  655SOL     MW 2620   2.911   0.828   0.374  0.2549  0.5246  0.4148
  656SOL     OW 2621   1.879   2.733   1.330  0.2737  0.2213 -0.3499
  656SOL    HW1 2622   1.936   2.807   1.338 -1.2681 -0.6042 -0.5129
  656SOL    HW2 2623   1.914   2.670   1.389 -1.8683  4.9194 -0.2379
  656SOL     MW 2624   1.891   2.734   1.339 -0.2123  0.7322 -0.3566
  657SOL     OW 2625   0.155   1.749   1.171  0.6842  0.5455 -0.1570
  657SOL    HW1 2626   0.229   1.806   1.152 -0.5453  0.8204  0.0083
  657SOL    HW2 2627   0.190   1.668   1.144 -1.8739 -0.5776  0.0594
  657SOL     MW 2628   0.169   1.746   1.165  0.1845  0.4336 -0.1067
  658SOL     OW 2629   2.692   1.368   0.250 -0.2764  0.1046  0.2167
  658SOL    HW1 2630   2.664   1.289   0.314  0.9662 -1.0157  0.3959
  658SOL    HW2 2631   2.738   1.421   0.311 -1.0616  0.1835 -0.3799
  658SOL     MW 2632   2.694   1.364   0.266 -0.2161 -0.0328  0.1617
  659SOL     OW 2633   2.285   1.535   1.073 -0.5071  0.4269 -0.3734
  659SOL    HW1 2634   2.384   1.521   1.087  2.2228 -0.1260 -1.3771
  659SOL    HW2 2635   2.269   1.598   1.144  2.4022 -1.7533 -1.2721
  659SOL     MW 2636   2.296   1.541   1.084  0.2369  0.0663 -0.6244
  660SOL     OW 2637   2.022   1.574   1.681  0.4977 -0.5022 -0.8685
  660SOL    HW1 2638   2.045   1.580   1.778 -2.8538  1.2039 -0.8119
  660SOL    HW2 2639   1.939   1.517   1.684  0.5250  1.8823  1.7002
  660SOL     MW 2640   2.014   1.567   1.694  0.0591  0.0375 -0.5222
  661SOL     OW 2641   2.444   1.015   0.189  0.5051  0.6855  0.0540
  661SOL    HW1 2642   2.506   1.042   0.258  0.4345 -0.7687  0.4918
  661SOL    HW2 2643   2.413   0.924   0.220  0.6869 -1.2089 -1.4004
  661SOL     MW 2644   2.448   1.007   0.202  0.5198  0.2437 -0.0802
  662SOL     OW 2645   2.564   2.971   0.862  0.0126  0.5149  0.3599
  662SOL    HW1 2646   2.532   3.041   0.922  1.0163 -0.7279  0.6155
  662SOL    HW2 2647   2.590   3.023   0.785 -1.3289  1.5754  1.0741
  662SOL     MW 2648   2.563   2.987   0.860 -0.0320  0.4909  0.4879
  663SOL     OW 2649   2.657   1.485   0.509 -0.5209 -0.1082  0.1949
  663SOL    HW1 2650   2.661   1.565   0.467  0.2970 -2.2208 -0.1427
  663SOL    HW2 2651   2.725   1.498   0.575  0.0064  1.0926  0.5063
  663SOL     MW 2652   2.666   1.497   0.513 -0.3434 -0.2285  0.1914
  664SOL     OW 2653   2.537   1.513   1.567  0.0721 -0.3325 -0.4652
  664SOL    HW1 2654   2.527   1.606   1.549  2.3226 -1.3279  1.4781
  664SOL    HW2 2655   2.453   1.473   1.544  0.4198  1.7713 -1.1362
  664SOL     MW 2656   2.524   1.520   1.561  0.4149 -0.1863 -0.2973
  665SOL     OW 2657   2.854   0.858   2.020 -0.0504  0.0502 -0.5748
  665SOL    HW1 2658   2.808   0.899   1.950 -0.0554 -2.8377  2.3373
  665SOL    HW2 2659   2.891   0.784   1.973 -0.9765  0.4946  0.7734
  665SOL     MW 2660   2.853   0.854   2.004 -0.1733 -0.2722 -0.0127
  666SOL     OW 2661   2.760   3.028   1.712  0.1150  0.5656  0.3804
  666SOL    HW1 2662   2.756   3.043   1.618  0.7029  0.8574  0.6153
  666SOL    HW2 2663   2.709   2.955   1.734  1.3415  3.8171  1.9028
  666SOL     MW 2664   2.753   3.020   1.702  0.3544  1.0331  0.6123
  667SOL     OW 2665   1.955   2.698   1.767  0.4828 -0.3991  0.4600
  667SOL    HW1 2666   2.003   2.664   1.839  0.2931 -0.3361 -0.9721
  667SOL    HW2 2667   2.020   2.747   1.713  0.4634  0.8625  0.1541
  667SOL     MW 2668   1.970   2.700   1.769  0.4552 -0.2244  0.2307
  668SOL     OW 2669   2.760   0.651   0.827 -0.0843  0.0187 -0.0478
  668SOL    HW1 2670   2.823   0.670   0.901  0.3127 -0.2913 -0.4029
  668SOL    HW2 2671   2.681   0.691   0.859  4.3117 -1.3665 -1.2273
  668SOL     MW 2672   2.758   0.659   0.841  0.5481 -0.2050 -0.2502
  669SOL     OW 2673   0.203   0.964   0.686 -0.2049 -0.2145  0.2428
  669SOL    HW1 2674   0.150   1.013   0.751 -3.7182  1.3215  0.9689
  669SOL    HW2 2675   0.282   0.958   0.740 -2.9339 -1.8899 -0.5632
  669SOL     MW 2676   0.207   0.970   0.702 -1.0285 -0.2329  0.2322
  670SOL     OW 2677   2.885   0.226   0.201 -0.3720  0.3198 -0.0421
  670SOL    HW1 2678   2.917   0.153   0.142 -1.1631 -2.0937  2.3227
  670SOL    HW2 2679   2.924   0.304   0.156  0.4218  2.6985  2.3649
  670SOL     MW 2680   2.894   0.227   0.188 -0.3717  0.3152  0.5875
  671SOL     OW 2681   2.026   3.001   1.517  0.2842  1.1050  0.6219
  671SOL    HW1 2682   1.959   3.016   1.448  0.9698 -0.6105 -2.3542
  671SOL    HW2 2683   2.008   3.061   1.593  0.7489 -0.6527  0.8421
  671SOL     MW 2684   2.015   3.011   1.518  0.4360  0.6467  0.2583
  672SOL     OW 2685   1.906   1.703   1.303  0.3015  0.4620  0.0260
  672SOL    HW1 2686   1.823   1.741   1.334  0.4102 -0.9514  3.2767
  672SOL    HW2 2687   1.917   1.738   1.211 -2.0609  2.9819 -1.1982
  672SOL     MW 2688   1.897   1.713   1.295  0.0041  0.6080  0.2934
  673SOL     OW 2689   2.768   1.102   0.575 -0.3444 -0.3029  0.2271
  673SOL    HW1 2690   2.799   1.014   0.594 -0.1493  1.3023  0.1653
  673SOL    HW2 2691   2.838   1.162   0.601  2.7480  0.3476  3.1736
  673SOL     MW 2692   2.782   1.098   0.581  0.0894 -0.0053  0.6077
  674SOL     OW 2693   2.439   0.016   1.277 -0.1501 -0.7923 -0.4922
  674SOL    HW1 2694   2.438   0.040   1.181 -0.3354  1.0710  1.8711
  674SOL    HW2 2695   2.444  -0.078   1.279  2.7766 -0.6240  0.2015
  674SOL     MW 2696   2.440   0.007   1.264  0.2116 -0.5243 -0.0889
  675SOL     OW 2697   3.061   0.888   1.073  0.0599  0.5116 -0.0327
  675SOL    HW1 2698   3.129   0.871   1.142 -3.1690  1.3256 -1.1304
  675SOL    HW2 2699   3.099   0.947   1.006  2.3644 -0.0106  0.9070
  675SOL     MW 2700   3.075   0.894   1.073 -0.0621  0.5501 -0.0536
  676SOL     OW 2701   2.890   1.513   1.651  0.7239 -0.2061  0.5574
  676SOL    HW1 2702   2.833   1.434   1.642 -0.1166 -1.1392 -2.3031
  676SOL    HW2 2703   2.948   1.465   1.706 -3.0881 -2.2799 -0.1148
  676SOL     MW 2704   2.890   1.496   1.657  0.1101 -0.6028  0.0913
  677SOL     OW 2705   2.415   0.553   1.997 -0.0406 -0.1582  0.0152
  677SOL    HW1 2706   2.366   0.533   1.913 -2.7589  0.6390 -0.7077
  677SOL    HW2 2707   2.385   0.638   2.019 -0.8191 -0.4515 -2.6069
  677SOL     MW 2708   2.405   0.561   1.989 -0.5020 -0.0917 -0.4261
  678SOL     OW 2709   2.576   1.676   0.306 -0.2183  0.4754 -0.2224
  678SOL    HW1 2710   2.496   1.712   0.355 -2.1419 -1.6629  1.9449
  678SOL    HW2 2711   2.530   1.611   0.249 -1.7714 -2.0067 -1.2108
  678SOL     MW 2712   2.560   1.672   0.305 -0.6770 -0.1342 -0.0669
  679SOL     OW 2713   2.226   0.466   1.246 -0.3758 -0.0865  0.3130
  679SOL    HW1 2714   2.202   0.384   1.199 -3.4886 -0.7961  1.2546
  679SOL    HW2 2715   2.142   0.483   1.289  0.4775 -2.7229  3.0090
  679SOL     MW 2716   2.212   0.457   1.246 -0.6739 -0.5280  0.7929
  680SOL     OW 2717   2.338   0.179   1.522  0.2910 -0.1347  0.0026
  680SOL    HW1 2718   2.237   0.189   1.501  3.3787  0.5852 -0.2595
  680SOL    HW2 2719   2.367   0.129   1.451 -0.6090  0.8582  1.0771
  680SOL     MW 2720   2.329   0.174   1.510  0.5796  0.0913  0.1098
  681SOL     OW 2721   0.304   0.553   1.543  0.8608 -0.7392  0.0882
  681SOL    HW1 2722   0.283   0.476   1.591  1.7488  3.0768 -1.6958
  681SOL    HW2 2723   0.379   0.590   1.590  0.5588 -1.0460 -0.1558
  681SOL     MW 2724   0.311   0.548   1.556  0.9381 -0.2762 -0.1794
  682SOL     OW 2725   0.068   2.891   1.499 -0.0377  0.2254  0.1740
  682SOL    HW1 2726   0.154   2.930   1.509  0.3455 -3.2207 -0.4163
  682SOL    HW2 2727   0.009   2.906   1.576  0.1059 -0.8734  1.0114
  682SOL     MW 2728   0.072   2.898   1.510  0.0318 -0.3742  0.2066
  683SOL     OW 2729   2.043   0.826   2.996  0.5535  0.1978  0.0216
  683SOL    HW1 2730   1.953   0.794   3.012 -0.4043 -0.2876 -0.8268
  683SOL    HW2 2731   2.041   0.920   2.993  2.6936  0.6640  1.5577
  683SOL     MW 2732   2.031   0.834   2.997  0.7095  0.1953  0.1123
  684SOL     OW 2733   2.218   1.679   0.821  0.0173 -0.2262 -0.6568
  684SOL    HW1 2734   2.155   1.617   0.784 -0.0310  0.3901  1.4534
  684SOL    HW2 2735   2.256   1.632   0.899 -0.4711  0.0231  1.2316
  684SOL     MW 2736   2.215   1.665   0.826 -0.0535 -0.1120 -0.1292
  685SOL     OW 2737   2.632   1.744   1.202 -0.4110  0.2516  0.2501
  685SOL    HW1 2738   2.697   1.730   1.270  0.3059  1.7693 -0.1669
  685SOL    HW2 2739   2.604   1.657   1.168  0.6607  1.3263  0.6348
  685SOL     MW 2740   2.637   1.730   1.206 -0.1750  0.5936  0.2459
  686SOL     OW 2741   2.894   0.790   1.511 -0.2464  0.6844  0.0391
  686SOL    HW1 2742   2.877   0.768   1.603  3.6434 -1.6579 -0.2317
  686SOL    HW2 2743   2.988   0.797   1.510  0.1675  0.2065  1.0950
  686SOL     MW 2744   2.904   0.788   1.523  0.3215  0.3123  0.1427
  687SOL     OW 2745   2.137   0.224   1.152  0.8032 -0.6501  0.6831
  687SOL    HW1 2746   2.174   0.148   1.106 -0.0715  1.6135 -0.1392
  687SOL    HW2 2747   2.072   0.256   1.089  0.3283 -2.5399 -1.0015
  687SOL     MW 2748   2.134   0.218   1.137  0.6251 -0.6008  0.3524
  688SOL     OW 2749   2.394   0.585   1.454  0.0270  0.1327  0.3274
  688SOL    HW1 2750   2.331   0.551   1.382 -1.1868  0.1332 -3.6948
  688SOL    HW2 2751   2.338   0.634   1.519  1.4689  1.6596  3.2995
  688SOL     MW 2752   2.378   0.587   1.453  0.0571  0.3342  0.1889
  689SOL     OW 2753   2.520   0.760   2.998  0.0610  0.3351  0.3462
  689SOL    HW1 2754   2.556   0.843   2.969 -2.4538 -0.1020 -0.4888
  689SOL    HW2 2755   2.568   0.717   3.068 -2.7615  0.1011 -4.3259
  689SOL     MW 2756   2.531   0.766   3.004 -0.6432  0.2466 -0.3804
  690SOL     OW 2757   2.039   0.935   1.897 -0.0783 -0.4927  0.1792
  690SOL    HW1 2758   1.991   0.852   1.872  1.2127 -1.4971 -2.7159
  690SOL    HW2 2759   2.065   0.972   1.808 -1.8647  4.1322 -0.9942
  690SOL     MW 2760   2.036   0.929   1.882 -0.1437 -0.0150 -0.3576
  691SOL     OW 2761   2.390   0.300   0.904  0.2360  0.3651  0.1249
  691SOL    HW1 2762   2.464   0.352   0.932 -1.0952  3.5023 -0.5651
  691SOL    HW2 2763   2.312   0.357   0.891 -0.8809  0.1421  1.3760
  691SOL     MW 2764   2.390   0.314   0.906 -0.0870  0.7496  0.1989
  692SOL     OW 2765   2.837   1.700   1.419  0.6616  0.0097 -1.0394
  692SOL    HW1 2766   2.866   1.653   1.501  0.8443 -2.0907 -1.2550
  692SOL    HW2 2767   2.866   1.792   1.438  0.8930  2.4810 -1.2063
  692SOL     MW 2768   2.845   1.706   1.432  0.7163  0.0586 -1.0899
  693SOL     OW 2769   2.298   0.408   0.116  0.2259  0.0631  0.4221
  693SOL    HW1 2770   2.227   0.350   0.077  1.9103 -1.0811  1.0243
  693SOL    HW2 2771   2.295   0.478   0.057 -2.0567 -0.1143  1.3230
  693SOL     MW 2772   2.288   0.409   0.103  0.1469 -0.1113  0.6204
  694SOL     OW 2773   1.946   1.184   1.167  0.1464 -0.0579  0.8759
  694SOL    HW1 2774   2.035   1.204   1.194 -1.3790 -0.9991  1.5828
  694SOL    HW2 2775   1.907   1.114   1.216 -1.9380 -0.6365 -0.5114
  694SOL     MW 2776   1.953   1.177   1.177 -0.3299 -0.2584  0.7861
  695SOL     OW 2777   3.011   1.498   1.343  0.0175  0.6201  0.2503
  695SOL    HW1 2778   2.982   1.451   1.266 -0.7733  2.4412  0.2671
  695SOL    HW2 2779   2.943   1.563   1.345  1.8873 -0.8480  1.3328
  695SOL     MW 2780   2.998   1.500   1.333  0.1599  0.6667  0.3954
  696SOL     OW 2781   2.151   1.338   0.850 -0.2954 -0.8333 -0.7013
  696SOL    HW1 2782   2.203   1.379   0.912 -0.6460  0.4782  0.7623
  696SOL    HW2 2783   2.069   1.308   0.893  0.8472 -0.4314  2.9271
  696SOL     MW 2784   2.147   1.339   0.864 -0.1909 -0.6073 -0.0295
  697SOL     OW 2785   2.931   1.056   2.196  0.2918 -0.4850  0.5164
  697SOL    HW1 2786   2.876   1.132   2.158 -2.0265  0.5043  2.0703
  697SOL    HW2 2787   2.907   0.977   2.151  0.7014  0.9956  1.5224
  697SOL     MW 2788   2.920   1.056   2.185  0.0400 -0.1591  0.8541
  698SOL     OW 2789   2.512   0.297   0.014  0.1497  0.0232 -0.1153
  698SOL    HW1 2790   2.442   0.346   0.065  0.6176 -0.8417  1.0358
  698SOL    HW2 2791   2.554   0.241   0.080 -0.8046  2.2456 -1.3206
  698SOL     MW 2792   2.508   0.296   0.030  0.0855  0.2023 -0.1225
  699SOL     OW 2793   1.826   1.635   2.023  0.0672 -0.1475 -0.0538
  699SOL    HW1 2794   1.793   1.541   1.998  0.9391 -1.2763 -1.9187
  699SOL    HW2 2795   1.924   1.606   2.021 -1.4944 -2.1099  1.2911
  699SOL     MW 2796   1.835   1.619   2.020 -0.0238 -0.5554 -0.1224
  700SOL     OW 2797   2.662   0.968   1.489  0.0400  0.4117  0.3186
  700SOL    HW1 2798   2.712   1.031   1.434 -1.9367  1.0537 -0.1057
  700SOL    HW2 2799   2.715   0.884   1.478  2.0966  0.9918 -2.8775
  700SOL     MW 2800   2.675   0.966   1.480  0.0506  0.5730 -0.1591
  701SOL     OW 2801   1.636   1.192   2.476  0.5944 -0.1069 -0.8588
  701SOL    HW1 2802   1.723   1.218   2.450 -0.8539  0.1162  1.1544
  701SOL    HW2 2803   1.624   1.213   2.570  0.1627 -3.8571  1.9047
  701SOL     MW 2804   1.646   1.198   2.485  0.3464 -0.5723 -0.2286
  702SOL     OW 2805   2.167   0.443   0.820 -0.1703  0.9435 -0.0493
  702SOL    HW1 2806   2.154   0.366   0.754  2.1752  1.0565 -0.0761
  702SOL    HW2 2807   2.215   0.518   0.782 -0.0830 -0.0813 -0.4790
  702SOL     MW 2808   2.172   0.443   0.806  0.1507  0.8232 -0.1095
  703SOL     OW 2809   2.751   1.224   1.021 -0.0747 -0.3695  0.1040
  703SOL    HW1 2810   2.700   1.226   0.939 -1.3158 -1.4648 -2.1133
  703SOL    HW2 2811   2.771   1.126   1.039 -1.8771 -0.9031  2.4923
  703SOL     MW 2812   2.747   1.212   1.012 -0.4762 -0.5844  0.1265
  704SOL     OW 2813   3.048   1.209   0.137 -0.2587 -0.7641 -1.1701
  704SOL    HW1 2814   2.963   1.220   0.101 -1.6664  1.0305  2.7600
  704SOL    HW2 2815   3.024   1.217   0.233 -2.9050 -2.5023  1.1963
  704SOL     MW 2816   3.033   1.212   0.145 -0.7936 -0.7567 -0.3393
  705SOL     OW 2817   2.185   1.654   1.300 -0.1392  0.1980 -0.5962
  705SOL    HW1 2818   2.093   1.663   1.323 -4.0179  3.1209  0.8340
  705SOL    HW2 2819   2.212   1.563   1.318 -2.7814 -3.2935 -0.9266
  705SOL     MW 2820   2.176   1.643   1.306 -0.9995  0.1230 -0.4511
  706SOL     OW 2821   2.987   1.223   0.677  0.2157  0.1738  0.0378
  706SOL    HW1 2822   3.035   1.230   0.588  4.3615 -0.3080 -0.6410
  706SOL    HW2 2823   2.953   1.311   0.699  2.0491 -0.6683 -2.1541
  706SOL     MW 2824   2.989   1.235   0.668  1.0046 -0.0009 -0.3410
  707SOL     OW 2825   2.422   0.042   1.022 -0.2864  0.0793  0.1915
  707SOL    HW1 2826   2.436   0.110   0.963 -0.1001 -0.1858  0.5783
  707SOL    HW2 2827   2.329   0.004   1.005 -2.4650  2.5889  2.5178
  707SOL     MW 2828   2.412   0.046   1.012 -0.5492  0.3754  0.5495
  708SOL     OW 2829   2.443   1.447   0.171 -0.4055  0.0752  0.4372
  708SOL    HW1 2830   2.531   1.410   0.186  1.0047 -2.3486  1.8893
  708SOL    HW2 2831   2.446   1.449   0.076 -0.4244  0.5271 -0.0009
  708SOL     MW 2832   2.455   1.442   0.161 -0.2220 -0.1850  0.5710
  709SOL     OW 2833   1.774   1.636   0.195  0.3706  0.5033  0.2174
  709SOL    HW1 2834   1.758   1.686   0.109 -3.0773  0.9249  2.5756
  709SOL    HW2 2835   1.690   1.654   0.238  0.1519 -1.5638  1.1562
  709SOL     MW 2836   1.761   1.645   0.189 -0.1132  0.2862  0.6524
  710SOL     OW 2837   2.199   1.241   1.197 -0.0296 -0.4557 -0.0261
  710SOL    HW1 2838   2.233   1.214   1.109  0.3090  1.4319 -1.9137
  710SOL    HW2 2839   2.203   1.153   1.245  1.8495 -1.0503 -0.8448
  710SOL     MW 2840   2.204   1.226   1.192  0.2630 -0.2851 -0.3831
  711SOL     OW 2841   2.350   0.123   1.783 -0.1066  0.1400 -0.1466
  711SOL    HW1 2842   2.440   0.111   1.812 -0.2428 -0.6391  1.6614
  711SOL    HW2 2843   2.339   0.105   1.686 -3.7276  0.4055 -1.3203
  711SOL     MW 2844   2.361   0.119   1.774 -0.6023  0.0722 -0.0629
  712SOL     OW 2845   1.939   0.523   0.089 -0.3402 -0.4777  0.4601
  712SOL    HW1 2846   1.860   0.545   0.034 -1.2404 -0.2101  2.1180
  712SOL    HW2 2847   1.952   0.614   0.124  1.5398  1.9825  1.9869
  712SOL     MW 2848   1.930   0.538   0.086 -0.2109 -0.1178  0.8803
  713SOL     OW 2849   2.555   0.846   1.081  0.1152 -0.0420 -0.3576
  713SOL    HW1 2850   2.567   0.764   1.125  0.8291  1.0863 -2.0380
  713SOL    HW2 2851   2.495   0.879   1.153 -2.1918 -3.0565 -0.2072
  713SOL     MW 2852   2.548   0.840   1.096 -0.0950 -0.2908 -0.5594
  714SOL     OW 2853   2.219   0.231   2.008  0.2340 -0.4729  0.0218
  714SOL    HW1 2854   2.229   0.177   2.087  1.2171  2.0031 -1.6634
  714SOL    HW2 2855   2.252   0.178   1.932 -2.1643  0.7130 -1.7314
  714SOL     MW 2856   2.225   0.217   2.008  0.0473  0.0102 -0.4318
  715SOL     OW 2857   1.748   1.931   1.645  0.4766 -0.7793 -0.2543
  715SOL    HW1 2858   1.839   1.901   1.622  3.5081  0.8852  0.2649
  715SOL    HW2 2859   1.717   1.876   1.721  0.7691 -1.1795  1.7241
  715SOL     MW 2860   1.756   1.920   1.652  0.9152 -0.6125  0.0752
  716SOL     OW 2861   2.313   0.619   0.697 -0.5242 -0.3873  0.1400
  716SOL    HW1 2862   2.379   0.549   0.679 -0.0180  1.4829 -0.0513
  716SOL    HW2 2863   2.278   0.652   0.612 -0.1878 -0.4819  0.3519
  716SOL     MW 2864   2.317   0.614   0.683 -0.4130 -0.1530  0.1427
  717SOL     OW 2865   2.870   1.549   2.934 -0.2541  0.1530 -0.0708
  717SOL    HW1 2866   2.965   1.547   2.954  1.2094 -0.9890 -1.3978
  717SOL    HW2 2867   2.815   1.583   3.005  0.3771  0.3989  0.0387
  717SOL     MW 2868   2.876   1.554   2.946  0.0223  0.0347 -0.2314
  718SOL     OW 2869   2.691   1.387   1.329  0.2748 -0.0870 -0.0714
  718SOL    HW1 2870   2.688   1.406   1.422  0.3437  0.0451 -0.7783
  718SOL    HW2 2871   2.748   1.305   1.323 -0.1889  0.7302  0.8598
  718SOL     MW 2872   2.698   1.379   1.341  0.2227  0.0382 -0.0418
  719SOL     OW 2873   2.178   1.282   0.587 -0.0356  0.2525 -0.2635
  719SOL    HW1 2874   2.270   1.303   0.579  1.3712  0.0851 -0.4623
  719SOL    HW2 2875   2.165   1.325   0.674  0.5668 -0.4052 -0.2582
  719SOL     MW 2876   2.188   1.291   0.597  0.2295  0.1437 -0.2890
  720SOL     OW 2877   2.769   1.209   0.017 -0.6710  0.3383 -0.0845
  720SOL    HW1 2878   2.723   1.134   0.054 -1.4421 -2.3008  0.2908
  720SOL    HW2 2879   2.737   1.280   0.077 -2.0267  2.7000  0.9621
  720SOL     MW 2880   2.758   1.208   0.030 -0.9516  0.3017  0.1031
  721SOL     OW 2881   2.453   0.860   1.370 -0.2271 -0.5583  0.0804
  721SOL    HW1 2882   2.462   0.788   1.430  0.0287  0.8448  0.6972
  721SOL    HW2 2883   2.523   0.926   1.400 -0.9945  1.3600  0.7151
  721SOL     MW 2884   2.463   0.859   1.382 -0.2946 -0.1201  0.2455
  722SOL     OW 2885   2.599   1.147   0.383 -0.2656 -0.4154 -0.3242
  722SOL    HW1 2886   2.512   1.179   0.418  0.1017  1.6922  0.3940
  722SOL    HW2 2887   2.659   1.135   0.465 -1.4370 -1.5191 -0.6732
  722SOL     MW 2888   2.596   1.150   0.398 -0.3717 -0.2829 -0.2755
  723SOL     OW 2889   2.237   1.396   1.619 -0.0969 -0.1817 -0.0255
  723SOL    HW1 2890   2.271   1.409   1.526 -2.6503  2.4119 -0.7491
  723SOL    HW2 2891   2.185   1.479   1.634 -2.7670 -0.3661  0.1738
  723SOL     MW 2892   2.235   1.409   1.609 -0.7861  0.1362 -0.0947
  724SOL     OW 2893   2.443   0.388   0.640  0.1340 -0.3497 -0.0359
  724SOL    HW1 2894   2.424   0.354   0.724  0.4345  1.2851  0.9380
  724SOL    HW2 2895   2.540   0.394   0.637  0.2853 -0.6477 -2.2595
  724SOL     MW 2896   2.454   0.384   0.650  0.1936 -0.1734 -0.2008
  725SOL     OW 2897   2.563   0.583   1.209 -0.9931  1.0993 -0.2638
  725SOL    HW1 2898   2.647   0.587   1.255  0.9247 -1.5913 -1.1838
  725SOL    HW2 2899   2.498   0.554   1.271 -0.8351 -2.9865  1.1932
  725SOL     MW 2900   2.566   0.580   1.223 -0.7192  0.2052 -0.1929
  726SOL     OW 2901   2.590   2.447   0.545  0.2966  0.0731  0.1895
  726SOL    HW1 2902   2.545   2.515   0.490 -0.8399  0.5707  0.9806
  726SOL    HW2 2903   2.526   2.410   0.600 -1.5872  2.9724 -4.5118
  726SOL     MW 2904   2.575   2.451   0.545 -0.1019  0.5213 -0.3264
  727SOL     OW 2905   2.870   0.312   1.641 -0.0313  0.3471  0.3063
  727SOL    HW1 2906   2.839   0.333   1.550 -1.3067  4.6007  0.7754
  727SOL    HW2 2907   2.795   0.336   1.693  0.1254 -0.6027 -0.2852
  727SOL     MW 2908   2.856   0.318   1.636 -0.1789  0.7830  0.2901
  728SOL     OW 2909   2.819   1.170   2.848 -0.2247  0.1125 -0.3040
  728SOL    HW1 2910   2.799   1.234   2.775  1.5072  0.0732 -0.2110
  728SOL    HW2 2911   2.824   1.220   2.935  1.3398 -0.2066 -0.4021
  728SOL     MW 2912   2.817   1.185   2.850  0.2102  0.0652 -0.3047
  729SOL     OW 2913   2.559   1.509   1.098 -0.0346 -0.5702 -0.4381
  729SOL    HW1 2914   2.619   1.442   1.139  0.3154 -2.8195  1.0510
  729SOL    HW2 2915   2.587   1.518   1.004 -0.5447  0.8575  0.5359
  729SOL     MW 2916   2.571   1.501   1.091 -0.0557 -0.6786 -0.1131
  730SOL     OW 2917   2.164   1.182   0.215  0.4350 -0.4098  0.1689
  730SOL    HW1 2918   2.255   1.177   0.238  3.2923  0.5291  0.6717
  730SOL    HW2 2919   2.138   1.272   0.229  0.1075  0.0548 -2.9380
  730SOL     MW 2920   2.172   1.193   0.220  0.7688 -0.2246 -0.1747
  731SOL     OW 2921   2.819   1.912   2.878 -0.1707  0.1892  0.0424
  731SOL    HW1 2922   2.754   1.932   2.805 -2.3701  1.6717 -1.0369
  731SOL    HW2 2923   2.888   1.977   2.852  2.1895  1.2076 -1.5660
  731SOL     MW 2924   2.819   1.923   2.865 -0.1495  0.5192 -0.3122
  732SOL     OW 2925   2.209   0.986   1.331  0.1165  0.8073 -0.2674
  732SOL    HW1 2926   2.173   0.995   1.417 -0.0327  0.7048 -1.8344
  732SOL    HW2 2927   2.294   0.945   1.341  1.3818  2.1302  2.0132
  732SOL     MW 2928   2.215   0.982   1.344  0.2638  0.9683 -0.1733
  733SOL     OW 2929   2.352   2.748   3.052 -0.0203 -0.9725 -0.5168
  733SOL    HW1 2930   2.278   2.802   3.012 -0.7453  2.3865 -0.1190
  733SOL    HW2 2931   2.323   2.660   3.029 -0.8274 -0.0274 -0.3604
  733SOL     MW 2932   2.339   2.743   3.044 -0.2224 -0.4046 -0.4436
  734SOL     OW 2933   1.456   0.388   2.443  0.0066  0.5375 -0.1301
  734SOL    HW1 2934   1.473   0.356   2.530 -0.0765  2.0195 -0.1721
  734SOL    HW2 2935   1.505   0.318   2.392  0.8266 -1.7966  1.7549
  734SOL     MW 2936   1.465   0.375   2.448  0.1038  0.4250  0.1130
  735SOL     OW 2937   2.916   0.888   2.602 -0.2159 -0.4643  0.1289
  735SOL    HW1 2938   2.906   0.794   2.589  0.6186  0.2570 -0.9772
  735SOL    HW2 2939   2.994   0.889   2.663  0.3762 -0.9188 -0.3567
  735SOL     MW 2940   2.925   0.876   2.608 -0.0276 -0.4291 -0.0811
  736SOL     OW 2941   0.127   0.570   2.520 -0.0259  0.0416 -0.2146
  736SOL    HW1 2942   0.181   0.638   2.487 -2.2360  1.5089 -2.2809
  736SOL    HW2 2943   0.106   0.513   2.447  0.7795 -0.6546  1.3240
  736SOL     MW 2944   0.132   0.571   2.506 -0.2112  0.1433 -0.2842
  737SOL     OW 2945   2.946   0.623   2.544 -0.7856 -0.1407  0.1644
  737SOL    HW1 2946   2.899   0.604   2.461  0.1955  0.0306  0.2859
  737SOL    HW2 2947   3.039   0.598   2.544 -1.9323 -2.0555  0.7937
  737SOL     MW 2948   2.952   0.617   2.533 -0.8074 -0.3707  0.2634
  738SOL     OW 2949   0.201   0.594   1.884  0.4248 -0.2231 -0.2208
  738SOL    HW1 2950   0.286   0.613   1.921 -1.1412  1.0438 -2.8797
  738SOL    HW2 2951   0.210   0.513   1.832 -0.6295  1.7470  0.0167
  738SOL     MW 2952   0.214   0.586   1.882  0.0791  0.2040 -0.5403
  739SOL     OW 2953   2.435   1.074   2.079  0.1072 -0.4411 -0.5318
  739SOL    HW1 2954   2.412   0.979   2.059 -1.8330  0.1738 -1.4788
  739SOL    HW2 2955   2.480   1.090   1.996  1.4534 -0.6547 -0.3928
  739SOL     MW 2956   2.438   1.063   2.066  0.0288 -0.3882 -0.6384
  740SOL     OW 2957   0.244   1.759   2.970  0.1338 -0.2954  0.7879
  740SOL    HW1 2958   0.180   1.684   2.975  0.7397 -0.1398 -1.3897
  740SOL    HW2 2959   0.332   1.740   3.008  1.0442 -1.0566  0.4823
  740SOL     MW 2960   0.247   1.747   2.976  0.3339 -0.3753  0.4603
  741SOL     OW 2961   2.270   1.236   2.717  0.0420 -0.5174  0.3467
  741SOL    HW1 2962   2.192   1.263   2.672  0.1941 -0.9620 -0.9129
  741SOL    HW2 2963   2.255   1.260   2.807 -2.9747 -3.1566  0.5769
  741SOL     MW 2964   2.257   1.243   2.723 -0.3360 -0.9243  0.2109
  742SOL     OW 2965   1.522   1.265   2.211 -0.0756 -0.1282  0.1444
  742SOL    HW1 2966   1.496   1.176   2.183 -3.7886  0.8039 -0.3476
  742SOL    HW2 2967   1.549   1.253   2.303 -1.4344 -1.6709 -0.7381
  742SOL     MW 2968   1.522   1.252   2.220 -0.7448 -0.2088 -0.0369
  743SOL     OW 2969   2.536   1.264   2.781  0.2075 -0.4597 -0.4245
  743SOL    HW1 2970   2.440   1.247   2.767 -2.6338 -0.1416 -0.3045
  743SOL    HW2 2971   2.568   1.170   2.806 -1.0705  1.7825 -1.0823
  743SOL     MW 2972   2.528   1.250   2.782 -0.3360 -0.1219 -0.4955
  744SOL     OW 2973   2.754   0.954   1.748  0.9677  0.1645 -0.1423
  744SOL    HW1 2974   2.672   0.991   1.790  0.3355  0.4572 -2.0705
  744SOL    HW2 2975   2.728   0.948   1.653 -0.3443 -1.1175 -1.4556
  744SOL     MW 2976   2.740   0.958   1.741  0.7112  0.0340 -0.5700
  745SOL     OW 2977   1.731   0.442   2.500 -0.1045  0.1594 -0.1528
  745SOL    HW1 2978   1.721   0.452   2.406  3.3379 -2.9689  1.6272
  745SOL    HW2 2979   1.638   0.462   2.523 -0.6150  1.1410 -1.9949
  745SOL     MW 2980   1.717   0.446   2.491  0.2823 -0.1238 -0.1610
  746SOL     OW 2981   1.537   1.436   1.617 -0.3635  0.2230 -0.5932
  746SOL    HW1 2982   1.624   1.472   1.636  2.7559 -2.8670 -0.1903
  746SOL    HW2 2983   1.514   1.377   1.690  1.3737 -1.3847  0.0319
  746SOL     MW 2984   1.545   1.433   1.629  0.2773 -0.3968 -0.4576
  747SOL     OW 2985   2.532   1.118   1.832  0.0422  0.5613 -0.1390
  747SOL    HW1 2986   2.453   1.154   1.801  0.1513 -1.8964 -3.2894
  747SOL    HW2 2987   2.566   1.181   1.895 -0.9196  0.1077  1.1976
  747SOL     MW 2988   2.526   1.131   1.836 -0.0703  0.1772 -0.3783
  748SOL     OW 2989   0.120   0.069   1.824 -0.1942 -0.1313 -0.0975
  748SOL    HW1 2990   0.184   0.014   1.872  2.2063 -1.2952  0.5026
  748SOL    HW2 2991   0.065   0.105   1.894  0.5601  0.5058  1.4949
  748SOL     MW 2992   0.121   0.066   1.840  0.2221 -0.2008  0.1918
  749SOL     OW 2993   2.418   0.566   2.807  0.5321  0.1358 -0.5489
  749SOL    HW1 2994   2.434   0.609   2.724 -0.4718  2.3311  1.1492
  749SOL    HW2 2995   2.448   0.622   2.880 -0.5319  1.5289  3.2625
  749SOL     MW 2996   2.424   0.579   2.806  0.2593  0.6093  0.1781
  750SOL     OW 2997   2.069   0.015   1.951  0.0917  0.4967 -0.2860
  750SOL    HW1 2998   2.115   0.093   1.967 -0.7409 -1.0061  1.5513
  750SOL    HW2 2999   2.140  -0.050   1.934  1.0313  0.1431 -0.3160
  750SOL     MW 3000   2.085   0.016   1.951  0.1058  0.2518 -0.0475
  751SOL     OW 3001   0.012   0.414   2.310 -0.1706 -0.5841 -0.8036
  751SOL    HW1 3002  -0.051   0.339   2.325  2.3099 -0.8824  2.0380
  751SOL    HW2 3003   0.090   0.373   2.274 -1.1095 -2.0727 -0.6995
  751SOL     MW 3004   0.014   0.399   2.307  0.0328 -0.8199 -0.4149
  752SOL     OW 3005   2.110   0.843   2.719  0.1764 -0.4776  0.1095
  752SOL    HW1 3006   2.181   0.906   2.699  1.6339 -0.4352  1.0442
  752SOL    HW2 3007   2.090   0.857   2.809 -1.5426  0.2694 -0.6906
  752SOL     MW 3008   2.116   0.853   2.728  0.1419 -0.3734  0.1272
  753SOL     OW 3009   2.893   0.249   2.355  0.2270 -0.3787  0.2686
  753SOL    HW1 3010   2.831   0.178   2.326  1.5206  0.0308 -1.7255
  753SOL    HW2 3011   2.831   0.325   2.349 -2.6337  0.7293  0.1111
  753SOL     MW 3012   2.876   0.250   2.350  0.0202 -0.1785 -0.0153
  754SOL     OW 3013   2.236   3.006   2.673  0.0934 -0.0559  0.1080
  754SOL    HW1 3014   2.235   3.006   2.570 -1.9422 -3.6631 -1.1747
  754SOL    HW2 3015   2.301   2.941   2.703  1.1956  0.8405  1.1155
  754SOL     MW 3016   2.245   2.998   2.663 -0.0298 -0.4136  0.0717
  755SOL     OW 3017   2.730   1.582   2.446  0.3072  0.0363 -0.3548
  755SOL    HW1 3018   2.705   1.514   2.509  0.9881 -0.0699 -0.0910
  755SOL    HW2 3019   2.789   1.628   2.503 -1.9301  0.2396 -1.4254
  755SOL     MW 3020   2.735   1.579   2.462  0.1018  0.0491 -0.4613
  756SOL     OW 3021   2.244   1.337   3.023 -0.7069  0.6957  0.0655
  756SOL    HW1 3022   2.316   1.400   3.019  0.9360 -0.4399 -0.1110
  756SOL    HW2 3023   2.304   1.260   3.050  0.1748  0.1497 -1.0794
  756SOL     MW 3024   2.262   1.335   3.026 -0.3738  0.4738 -0.1089
  757SOL     OW 3025   2.094   0.982   1.626 -0.4406 -0.3161 -0.6708
  757SOL    HW1 3026   2.121   0.892   1.625 -1.5125  0.4948 -1.9136
  757SOL    HW2 3027   2.003   0.982   1.598  1.6463  0.1833 -2.0203
  757SOL     MW 3028   2.085   0.971   1.622 -0.3066 -0.1432 -1.0128
  758SOL     OW 3029   2.179   1.794   2.659  0.0287 -0.2777 -0.6007
  758SOL    HW1 3030   2.173   1.800   2.564 -0.6120 -1.6259 -0.2133
  758SOL    HW2 3031   2.264   1.751   2.656 -1.9780  0.1605  0.5992
  758SOL     MW 3032   2.190   1.789   2.646 -0.3206 -0.3978 -0.3913
  759SOL     OW 3033   1.555   1.316   2.717  0.1420  0.6902 -0.2871
  759SOL    HW1 3034   1.547   1.392   2.661  2.4377 -1.6789 -1.5259
  759SOL    HW2 3035   1.619   1.339   2.787  0.0295  1.1175  3.7577
  759SOL     MW 3036   1.562   1.329   2.719  0.4300  0.4340  0.0831
  760SOL     OW 3037   2.577   1.956   2.712 -0.3700 -0.0215  0.1036
  760SOL    HW1 3038   2.547   1.883   2.656 -1.6706 -4.1711 -5.1122
  760SOL    HW2 3039   2.591   2.028   2.653 -1.4084  1.4516 -0.6946
  760SOL     MW 3040   2.575   1.956   2.697 -0.6786 -0.3746 -0.6899
  761SOL     OW 3041   2.078   0.417   2.462  0.0678  0.1470 -0.1246
  761SOL    HW1 3042   1.993   0.375   2.477 -4.5954 -0.3028 -1.4889
  761SOL    HW2 3043   2.102   0.446   2.548  0.6612 -1.5626 -2.3840
  761SOL     MW 3044   2.070   0.416   2.475 -0.4692 -0.1379 -0.6027
  762SOL     OW 3045   3.095   0.182   2.023  0.0804 -0.1302 -0.5875
  762SOL    HW1 3046   3.071   0.123   2.093 -1.9786  1.3445 -0.7442
  762SOL    HW2 3047   3.050   0.269   2.023 -2.0996 -1.1934  0.8541
  762SOL     MW 3048   3.086   0.186   2.032 -0.4789 -0.0759 -0.4179
  763SOL     OW 3049   2.402   1.082   2.348  0.3180 -0.9673 -0.2455
  763SOL    HW1 3050   2.429   1.087   2.251  1.6106  0.3763  0.2014
  763SOL    HW2 3051   2.454   1.159   2.377 -2.3492  1.6274 -1.8087
  763SOL     MW 3052   2.413   1.093   2.339  0.1366 -0.4477 -0.3927
  764SOL     OW 3053   0.373   0.222   2.778  0.0231  0.4662 -0.3206
  764SOL    HW1 3054   0.280   0.236   2.764 -0.5229 -2.3332  2.8952
  764SOL    HW2 3055   0.405   0.298   2.833  2.6727  1.0626 -1.9121
  764SOL     MW 3056   0.365   0.234   2.783  0.3007  0.1755 -0.1063
  765SOL     OW 3057   2.691   0.098   2.280  0.4401  0.2671 -0.3908
  765SOL    HW1 3058   2.647   0.062   2.201  1.7863 -0.5344 -0.5591
  765SOL    HW2 3059   2.735   0.018   2.316  1.3431  1.0081 -0.6465
  765SOL     MW 3060   2.691   0.083   2.274  0.7369  0.2591 -0.4467
  766SOL     OW 3061   1.845   3.028   2.136 -0.1265 -0.1945  0.8935
  766SOL    HW1 3062   1.896   3.097   2.092  0.0782  0.3794 -0.2560
  766SOL    HW2 3063   1.812   2.971   2.065 -1.0045  1.0198 -0.5298
  766SOL     MW 3064   1.848   3.030   2.121 -0.2153  0.0415  0.5541
  767SOL     OW 3065   2.666   0.646   1.943 -0.4443  0.1968  0.2809
  767SOL    HW1 3066   2.681   0.666   2.036 -0.5271  0.2116 -0.0565
  767SOL    HW2 3067   2.572   0.617   1.943 -3.4001  0.1173 -1.0950
  767SOL     MW 3068   2.655   0.645   1.955 -0.8452  0.1883  0.0548
  768SOL     OW 3069   0.088   1.553   2.978 -0.3093  0.6331 -0.3731
  768SOL    HW1 3070   0.101   1.513   3.065 -0.2703 -2.2930 -0.8158
  768SOL    HW2 3071   0.128   1.492   2.909  0.4701 -0.6937 -0.2917
  768SOL     MW 3072   0.095   1.540   2.980 -0.2013  0.0720 -0.4207
  769SOL     OW 3073   2.348   0.682   2.324  0.4836  0.6343  0.3060
  769SOL    HW1 3074   2.271   0.640   2.294  3.5964  1.1210  1.6710
  769SOL    HW2 3075   2.413   0.642   2.266  0.9572 -1.4316  2.7730
  769SOL     MW 3076   2.347   0.671   2.312  0.9568  0.4259  0.8116
  770SOL     OW 3077   0.073   1.700   2.591  0.7096  0.2097  0.0644
  770SOL    HW1 3078  -0.018   1.686   2.629 -1.5944 -2.2145  0.2902
  770SOL    HW2 3079   0.119   1.626   2.627 -1.4361  2.0524 -1.4404
  770SOL     MW 3080   0.067   1.688   2.601  0.1225  0.1330 -0.1043
  771SOL     OW 3081   3.046   0.652   1.929 -0.8638 -0.3901 -0.1107
  771SOL    HW1 3082   2.993   0.637   1.841 -2.3183 -0.5793 -1.0856
  771SOL    HW2 3083   3.140   0.637   1.911 -3.1678  0.7474 -0.2930
  771SOL     MW 3084   3.052   0.648   1.915 -1.3597 -0.2650 -0.2634
  772SOL     OW 3085   3.078   0.019   2.248 -0.3579  0.1316 -0.2367
  772SOL    HW1 3086   2.994  -0.019   2.284 -1.0469 -1.7998  0.1342
  772SOL    HW2 3087   3.147  -0.045   2.255 -0.6943  0.5634  0.6190
  772SOL     MW 3088   3.076   0.005   2.254 -0.4932 -0.0663 -0.0749
  773SOL     OW 3089   2.411   2.795   2.766 -0.0526 -0.3057  0.1924
  773SOL    HW1 3090   2.420   2.714   2.711 -1.6123  2.2412  0.2368
  773SOL    HW2 3091   2.403   2.754   2.852  0.9955  0.2464 -0.5453
  773SOL     MW 3092   2.411   2.779   2.770 -0.1201  0.1031  0.1010
  774SOL     OW 3093   2.276   1.184   1.773  0.1538  0.4487  0.4085
  774SOL    HW1 3094   2.273   1.257   1.710  0.3694  2.0464  1.8754
  774SOL    HW2 3095   2.224   1.113   1.741 -0.7049 -2.3273  0.4240
  774SOL     MW 3096   2.269   1.185   1.761  0.0690  0.2933  0.6041
  775SOL     OW 3097   2.253   2.977   2.403  1.0493 -0.5184 -0.3205
  775SOL    HW1 3098   2.257   3.055   2.349 -1.2553  1.2365 -1.8895
  775SOL    HW2 3099   2.323   2.928   2.362 -1.1114 -2.7076 -1.0299
  775SOL     MW 3100   2.263   2.981   2.390  0.4602 -0.5757 -0.6211
  776SOL     OW 3101   0.101   1.444   0.161 -0.0985  0.1582  0.7410
  776SOL    HW1 3102   0.196   1.420   0.169 -2.0111  0.0013  0.1872
  776SOL    HW2 3103   0.048   1.363   0.151  2.8597  0.9576 -2.4095
  776SOL     MW 3104   0.107   1.430   0.161  0.0394  0.2430  0.2522
  777SOL     OW 3105   2.986   1.067   1.688 -0.5670  0.4836  0.0290
  777SOL    HW1 3106   2.960   1.153   1.656 -0.9232 -1.1978  0.5678
  777SOL    HW2 3107   2.909   1.015   1.707 -1.3710 -0.5177 -0.5500
  777SOL     MW 3108   2.973   1.071   1.686 -0.7201  0.1296  0.0237
  778SOL     OW 3109   2.889   0.450   2.747  0.0490  0.0428 -0.3608
  778SOL    HW1 3110   2.824   0.476   2.814  2.0227 -0.5762 -2.3401
  778SOL    HW2 3111   2.895   0.522   2.672  0.7691  0.9459  1.2425
  778SOL     MW 3112   2.881   0.463   2.746  0.4044  0.0803 -0.4104
  779SOL     OW 3113   2.095   0.591   2.257 -0.4100  0.1575  0.7230
  779SOL    HW1 3114   2.029   0.639   2.210 -2.4560  1.6457  1.0659
  779SOL    HW2 3115   2.059   0.542   2.324  1.8076  0.2070 -1.0662
  779SOL     MW 3116   2.081   0.591   2.259 -0.3874  0.3604  0.5321
  780SOL     OW 3117   0.087   0.213   2.771  0.3110 -0.0946 -0.5876
  780SOL    HW1 3118   0.069   0.194   2.863 -0.2661 -0.4304  0.3998
  780SOL    HW2 3119   0.007   0.228   2.721  1.4242  1.8417 -0.9572
  780SOL     MW 3120   0.074   0.213   2.776  0.3818  0.1165 -0.5061
  781SOL     OW 3121   3.058   1.322   2.565 -0.2968 -0.1651 -0.2143
  781SOL    HW1 3122   3.039   1.391   2.499 -2.8746  0.4698  1.6066
  781SOL    HW2 3123   3.069   1.238   2.521  0.3464 -0.7198  0.2478
  781SOL     MW 3124   3.057   1.320   2.551 -0.5520 -0.1545  0.0870
  782SOL     OW 3125   0.768   1.453   3.060  0.1227  0.2505  0.1021
  782SOL    HW1 3126   0.691   1.502   3.052  1.6411 -0.3102 -0.3550
  782SOL    HW2 3127   0.793   1.461   3.156 -0.2055  1.1012  1.8600
  782SOL     MW 3128   0.761   1.460   3.072  0.2797  0.2888  0.2737
  783SOL     OW 3129   2.747   0.483   2.394  0.3328 -0.4754  0.2185
  783SOL    HW1 3130   2.686   0.498   2.323  1.3569 -0.9464  0.1234
  783SOL    HW2 3131   2.689   0.448   2.461  1.5397  0.9647  0.1552
  783SOL     MW 3132   2.731   0.480   2.393  0.6271 -0.3476  0.1976
  784SOL     OW 3133   0.198   0.826   2.833  0.2134 -0.1682  0.5570
  784SOL    HW1 3134   0.129   0.879   2.861  2.2178 -1.0772  3.3593
  784SOL    HW2 3135   0.248   0.880   2.768  1.9736  1.5966 -3.4181
  784SOL     MW 3136   0.196   0.840   2.828  0.7101 -0.0553  0.4023
  785SOL     OW 3137   0.425   0.508   2.176  0.1470  0.0153 -0.1575
  785SOL    HW1 3138   0.446   0.554   2.092 -1.7508  0.7660 -0.3881
  785SOL    HW2 3139   0.351   0.451   2.162 -1.3042 -0.5050 -2.7674
  785SOL     MW 3140   0.418   0.507   2.163 -0.2949  0.0457 -0.5323
  786SOL     OW 3141   2.001   0.381   2.943  0.5872  0.1184 -0.4798
  786SOL    HW1 3142   2.034   0.445   2.993  0.5598 -1.3124 -1.1542
  786SOL    HW2 3143   2.038   0.395   2.856 -2.8524  3.3695 -0.6737
  786SOL     MW 3144   2.010   0.391   2.938  0.1298  0.3586 -0.5944
  787SOL     OW 3145   2.422   0.222   2.878 -0.0892 -0.2666 -0.0671
  787SOL    HW1 3146   2.470   0.147   2.854 -0.9457  3.0241 -0.5781
  787SOL    HW2 3147   2.452   0.252   2.968  0.9485  1.7097  2.9874
  787SOL     MW 3148   2.432   0.216   2.887 -0.0653  0.4283  0.2685
  788SOL     OW 3149   2.843   3.001   2.377  0.0977 -0.6527  0.1910
  788SOL    HW1 3150   2.847   2.999   2.469  1.6207  4.1813 -3.9936
  788SOL    HW2 3151   2.889   2.917   2.357  1.1268 -1.9037 -4.1203
  788SOL     MW 3152   2.850   2.990   2.387  0.4344 -0.1800 -0.9300
  789SOL     OW 3153   0.037   0.222   3.049 -1.1854 -0.2494  0.0672
  789SOL    HW1 3154  -0.012   0.143   3.082 -1.6296  2.2719  0.6300
  789SOL    HW2 3155  -0.028   0.283   3.024  0.0617  4.0438  0.4960
  789SOL     MW 3156   0.022   0.219   3.050 -1.0795  0.6497  0.1980
  790SOL     OW 3157   3.082   1.069   2.439 -0.5863 -0.1915  0.0080
  790SOL    HW1 3158   3.040   0.986   2.483  0.3106 -1.2152  3.0801
  790SOL    HW2 3159   3.036   1.082   2.355 -2.1263  0.2454  0.0153
  790SOL     MW 3160   3.070   1.060   2.434 -0.6711 -0.2689  0.4143
  791SOL     OW 3161   2.619   0.380   2.616  0.4372 -0.5461 -0.4752
  791SOL    HW1 3162   2.551   0.435   2.658 -0.7228  0.0303  0.8998
  791SOL    HW2 3163   2.697   0.404   2.662 -0.4438  2.5588  1.0075
  791SOL     MW 3164   2.620   0.390   2.628  0.1679 -0.0604 -0.0982
  792SOL     OW 3165   2.331   0.322   2.401 -0.1460 -0.5790 -0.6483
  792SOL    HW1 3166   2.237   0.346   2.394 -0.0335  2.7652  1.5121
  792SOL    HW2 3167   2.330   0.278   2.485 -3.6152 -0.5116  1.0164
  792SOL     MW 3168   2.319   0.319   2.411 -0.5889 -0.1289 -0.1436
  793SOL     OW 3169   1.799   1.083   1.961 -0.7791 -0.9061 -0.1513
  793SOL    HW1 3170   1.774   1.123   1.875  1.2449 -0.9011  0.2701
  793SOL    HW2 3171   1.885   1.043   1.942  3.5889 -2.2531 -0.5502
  793SOL     MW 3172   1.807   1.083   1.947  0.0643 -1.0832 -0.1483
  794SOL     OW 3173   1.422   2.250   0.177  0.0966  0.2020  0.4940
  794SOL    HW1 3174   1.465   2.297   0.101 -0.7531  1.4276 -0.8437
  794SOL    HW2 3175   1.474   2.280   0.247 -0.8035 -0.0251 -0.1733
  794SOL     MW 3176   1.435   2.261   0.176 -0.1343  0.3338  0.2295
  795SOL     OW 3177   2.341   0.963   2.636  0.0632 -0.7733 -0.0729
  795SOL    HW1 3178   2.343   1.053   2.676 -0.7539 -0.9156  1.0014
  795SOL    HW2 3179   2.370   0.986   2.549  1.4301 -2.7006  1.4000
  795SOL     MW 3180   2.345   0.978   2.630  0.1357 -1.0464  0.2632
  796SOL     OW 3181   0.278   0.574   2.742 -0.0581 -0.1583  0.2417
  796SOL    HW1 3182   0.254   0.663   2.755 -0.0072 -0.4983 -0.0936
  796SOL    HW2 3183   0.215   0.551   2.669  0.2455  0.5931 -1.4877
  796SOL     MW 3184   0.267   0.583   2.734 -0.0114 -0.1040 -0.0307
  797SOL     OW 3185   2.598   0.122   2.541 -0.4436  0.0697  0.1839
  797SOL    HW1 3186   2.615   0.213   2.564  1.2716  4.2137  0.8109
  797SOL    HW2 3187   2.619   0.128   2.441  0.1294  1.7433  0.6592
  797SOL     MW 3188   2.603   0.135   2.531 -0.1417  0.8373  0.3293
  798SOL     OW 3189   2.312   0.100   2.232  0.5548 -0.4093  0.0093
  798SOL    HW1 3190   2.348   0.159   2.301  1.8895 -3.7559  1.3127
  798SOL    HW2 3191   2.387   0.094   2.169  0.4155 -1.0965 -0.5103
  798SOL     MW 3192   2.327   0.107   2.233  0.7125 -0.9415  0.1127
  799SOL     OW 3193   2.516   2.975   0.002 -0.1011  0.4174  0.7235
  799SOL    HW1 3194   2.458   2.899  -0.025  0.2176  0.7881 -2.9276
  799SOL    HW2 3195   2.461   3.047   0.013  0.1101  0.1705  0.5518
  799SOL     MW 3196   2.501   2.974  -0.000 -0.0312  0.4337  0.2191
  800SOL     OW 3197   1.926   0.039   1.723 -0.2427 -0.4312 -0.0329
  800SOL    HW1 3198   1.855  -0.025   1.731 -1.2386 -0.1577  0.2458
  800SOL    HW2 3199   1.970   0.022   1.806 -1.2536  0.1722  2.9221
  800SOL     MW 3200   1.922   0.029   1.735 -0.5075 -0.3155  0.3938
  801SOL     OW 3201   2.782   1.306   2.573  0.1837 -0.1827 -0.8441
  801SOL    HW1 3202   2.755   1.216   2.568 -0.1899 -1.4543  1.9455
  801SOL    HW2 3203   2.881   1.317   2.579 -1.3341  0.7362 -1.2168
  801SOL     MW 3204   2.791   1.295   2.573 -0.0658 -0.2293 -0.5252
  802SOL     OW 3205   2.619   1.521   2.767  0.1658  0.7510  0.0395
  802SOL    HW1 3206   2.602   1.425   2.757  1.9329 -1.1812 -1.0967
  802SOL    HW2 3207   2.704   1.538   2.810 -2.8974  0.9106  2.3015
  802SOL     MW 3208   2.628   1.511   2.771 -0.0052  0.5171  0.1880
  803SOL     OW 3209   2.246   1.371   1.960 -0.0287  0.2158 -0.0773
  803SOL    HW1 3210   2.259   1.315   2.040  0.0802  1.6205  1.5713
  803SOL    HW2 3211   2.239   1.308   1.886  3.8828 -3.0328  0.3570
  803SOL     MW 3212   2.247   1.356   1.961  0.5017 -0.0275  0.1975
  804SOL     OW 3213   2.305   0.046   3.074  0.4337  0.1193 -0.0692
  804SOL    HW1 3214   2.240   0.107   3.110 -1.8675  1.0720  1.3375
  804SOL    HW2 3215   2.339   0.090   2.999  2.6447  0.2077 -0.2978
  804SOL     MW 3216   2.301   0.060   3.069  0.4218  0.2566  0.0863
  805SOL     OW 3217   2.668   1.036   2.572  0.4819 -0.3491 -0.1520
  805SOL    HW1 3218   2.633   1.015   2.486 -1.4243  1.9532 -0.5060
  805SOL    HW2 3219   2.752   0.984   2.573  0.5532 -0.0524 -0.5895
  805SOL     MW 3220   2.674   1.027   2.561  0.2398 -0.0062 -0.2564
  806SOL     OW 3221   2.513   0.495   2.231  0.0977  0.2931  0.3379
  806SOL    HW1 3222   2.451   0.436   2.278  0.2027 -1.0827 -0.0096
  806SOL    HW2 3223   2.487   0.477   2.141 -0.1392 -0.5155  2.1522
  806SOL     MW 3224   2.501   0.485   2.226  0.0803  0.0049  0.5314
  807SOL     OW 3225   0.053   1.109   2.060  0.2541  0.5425  0.3632
  807SOL    HW1 3226   0.087   1.022   2.050  2.1856  1.7585  4.4206
  807SOL    HW2 3227  -0.032   1.083   2.106 -2.8682 -0.1407  1.4502
  807SOL     MW 3228   0.046   1.094   2.065  0.0970  0.6128  1.0420
  808SOL     OW 3229   2.554   3.090   2.762  0.0874 -0.4360 -0.2580
  808SOL    HW1 3230   2.524   3.003   2.747  1.0721 -0.9685 -1.1543
  808SOL    HW2 3231   2.571   3.127   2.674 -2.1229 -0.9322 -1.0817
  808SOL     MW 3232   2.553   3.083   2.748 -0.0744 -0.5717 -0.4850
  809SOL     OW 3233   2.554   1.297   2.410 -0.0951  0.5707  0.2096
  809SOL    HW1 3234   2.588   1.314   2.501 -0.5520 -0.2053  2.0277
  809SOL    HW2 3235   2.624   1.263   2.355 -1.0146  1.6127  1.4984
  809SOL     MW 3236   2.568   1.295   2.415 -0.2767  0.6058  0.6195
  810SOL     OW 3237   2.213   1.285   2.258 -0.0397  0.4518  0.3849
  810SOL    HW1 3238   2.270   1.210   2.289  1.3909 -0.2579 -1.4692
  810SOL    HW2 3239   2.137   1.238   2.218 -0.1600 -2.5381 -2.7163
  810SOL     MW 3240   2.211   1.269   2.256  0.1332 -0.0364 -0.2689
  811SOL     OW 3241   1.556   0.147   2.315 -0.1748  0.2437 -0.3158
  811SOL    HW1 3242   1.621   0.087   2.349  3.3878 -0.3576  2.6327
  811SOL    HW2 3243   1.550   0.130   2.220 -2.5502  0.4838 -0.3730
  811SOL     MW 3244   1.564   0.137   2.307 -0.0181  0.1961  0.0657
  812SOL     OW 3245   1.500   2.879   2.118 -0.3757 -0.0979  0.4248
  812SOL    HW1 3246   1.583   2.863   2.056  1.5869 -1.8495  0.3554
  812SOL    HW2 3247   1.526   2.833   2.198 -2.0159 -0.5990  2.4533
  812SOL     MW 3248   1.514   2.871   2.120 -0.3331 -0.3951  0.6833
  813SOL     OW 3249   1.874   0.741   2.156 -0.0331  0.5678  0.1052
  813SOL    HW1 3250   1.821   0.656   2.176  0.8243  0.4167  2.5765
  813SOL    HW2 3251   1.887   0.778   2.247  2.0007  0.3842  0.6748
  813SOL     MW 3252   1.869   0.735   2.171  0.3484  0.5236  0.5064
  814SOL     OW 3253   2.743   1.271   1.597  0.3701 -0.1551  0.1308
  814SOL    HW1 3254   2.673   1.228   1.642 -1.1198  0.8468 -2.0116
  814SOL    HW2 3255   2.758   1.219   1.509  0.9118  0.3469 -0.0752
  814SOL     MW 3256   2.736   1.259   1.591  0.2450  0.0433 -0.1791
  815SOL     OW 3257   2.475   1.671   2.321 -0.2806 -0.3398  0.3465
  815SOL    HW1 3258   2.403   1.621   2.369 -0.4496  2.6002 -1.8508
  815SOL    HW2 3259   2.551   1.613   2.332  1.9081 -2.4872  1.2428
  815SOL     MW 3260   2.475   1.656   2.329 -0.0141 -0.2353  0.1748
  816SOL     OW 3261   0.779   0.672   2.758 -0.0522  0.2125 -0.8881
  816SOL    HW1 3262   0.776   0.581   2.791  0.4086 -1.5261  2.1059
  816SOL    HW2 3263   0.691   0.706   2.760  1.3389  0.0029  0.0731
  816SOL     MW 3264   0.767   0.664   2.762  0.1921 -0.0446 -0.3662
  817SOL     OW 3265   3.067   1.267   1.494 -0.5775  0.0657 -0.2333
  817SOL    HW1 3266   3.152   1.269   1.539 -1.3549  0.6899  1.3500
  817SOL    HW2 3267   3.047   1.349   1.458 -0.5864 -0.2769 -0.7640
  817SOL     MW 3268   3.076   1.278   1.495 -0.6813  0.1028 -0.0944
  818SOL     OW 3269   1.923   1.050   2.679  0.0060  0.3306  0.0039
  818SOL    HW1 3270   1.901   1.093   2.596  1.3138  1.6299 -1.5810
  818SOL    HW2 3271   1.992   0.985   2.662 -0.9274 -1.0143  1.4756
  818SOL     MW 3272   1.929   1.047   2.666  0.0554  0.3246 -0.0110
  819SOL     OW 3273   1.894   0.195   2.464 -0.4348  0.5601  0.2478
  819SOL    HW1 3274   1.813   0.248   2.484  0.4828 -1.6408 -1.7436
  819SOL    HW2 3275   1.949   0.194   2.551  2.9477 -0.6891 -0.4262
  819SOL     MW 3276   1.891   0.202   2.478  0.1325  0.1049 -0.1039
  820SOL     OW 3277   2.448   1.712   2.609 -0.1596  0.5286  0.1642
  820SOL    HW1 3278   2.512   1.665   2.664 -3.2211  0.1685  0.1054
  820SOL    HW2 3279   2.487   1.743   2.526 -0.2566  1.6475  0.5747
  820SOL     MW 3280   2.462   1.710   2.605 -0.5763  0.6287  0.2106
  821SOL     OW 3281   2.577   1.345   1.962  0.3568 -0.8227 -0.0267
  821SOL    HW1 3282   2.640   1.407   1.915 -1.9831 -0.8402 -1.0364
  821SOL    HW2 3283   2.501   1.407   1.980  1.5183  1.9488  0.1861
  821SOL     MW 3284   2.575   1.361   1.958  0.2013 -0.4594 -0.1318
  822SOL     OW 3285   2.753   2.598   1.487  0.3219  0.0903  0.4707
  822SOL    HW1 3286   2.795   2.626   1.564 -0.5882  1.0937 -1.4354
  822SOL    HW2 3287   2.714   2.676   1.441 -0.0445 -0.2683 -1.8328
  822SOL     MW 3288   2.753   2.612   1.491  0.1535  0.1754 -0.0847
  823SOL     OW 3289   2.271   0.506   1.756 -0.1694 -0.0993  0.6617
  823SOL    HW1 3290   2.352   0.477   1.710 -1.2219 -1.9358 -1.8365
  823SOL    HW2 3291   2.207   0.433   1.768 -1.6427  1.9914  1.7126
  823SOL     MW 3292   2.273   0.492   1.751 -0.5027 -0.0658  0.4707
  824SOL     OW 3293   2.085   1.390   2.576 -0.2563 -0.3206  0.0483
  824SOL    HW1 3294   2.141   1.435   2.510  1.1758 -2.4690 -0.6379
  824SOL    HW2 3295   2.048   1.461   2.630  0.8051 -0.4397 -3.2041
  824SOL     MW 3296   2.087   1.406   2.574  0.0727 -0.6198 -0.4713
  825SOL     OW 3297   1.976   2.561   0.269  0.5869  0.3284 -0.2786
  825SOL    HW1 3298   1.939   2.502   0.334 -0.8133  0.8644 -0.6166
  825SOL    HW2 3299   2.027   2.500   0.210  1.4234  0.5037 -1.9014
  825SOL     MW 3300   1.978   2.545   0.270  0.5126  0.4222 -0.5373
  826SOL     OW 3301   1.899   2.422   0.493 -0.2291  0.4252  0.7192
  826SOL    HW1 3302   1.858   2.337   0.505 -0.7786 -1.6907  0.1008
  826SOL    HW2 3303   1.850   2.469   0.562 -1.5550  1.2110  0.7497
  826SOL     MW 3304   1.887   2.417   0.504 -0.4765  0.2497  0.6417
  827SOL     OW 3305   1.940   2.203   0.973 -0.3663 -0.7493 -0.5216
  827SOL    HW1 3306   1.888   2.255   0.907  0.2820 -2.8048 -1.0550
  827SOL    HW2 3307   1.882   2.123   0.968 -2.6341 -1.1365 -2.7404
  827SOL     MW 3308   1.925   2.200   0.964 -0.5799 -1.0716 -0.8847
  828SOL     OW 3309   0.062   2.636   0.578 -0.6418  0.6459  0.2237
  828SOL    HW1 3310   0.150   2.639   0.541 -0.4413 -0.4109  0.4333
  828SOL    HW2 3311  -0.002   2.669   0.520 -2.3666  3.2606  2.1028
  828SOL     MW 3312   0.065   2.641   0.565 -0.8429  0.8515  0.4993
  829SOL     OW 3313   2.936   2.940   1.248  0.2013  0.2064  0.4210
  829SOL    HW1 3314   2.868   2.954   1.179 -1.2941 -0.1544  0.9611
  829SOL    HW2 3315   2.980   2.860   1.213  1.1678 -1.4222  2.9718
  829SOL     MW 3316   2.933   2.931   1.234  0.1315 -0.0561  0.8288
  830SOL     OW 3317   2.504   2.860   2.011  0.2589 -0.1401  0.4068
  830SOL    HW1 3318   2.413   2.849   1.980  2.5817 -2.0699 -0.6971
  830SOL    HW2 3319   2.565   2.832   1.943 -2.1370  1.1240  1.5503
  830SOL     MW 3320   2.500   2.855   1.998  0.2493 -0.2279  0.4120
  831SOL     OW 3321   2.416   2.392   1.312 -0.0152 -0.3920  0.2550
  831SOL    HW1 3322   2.356   2.333   1.356 -0.8312  0.7568 -0.7213
  831SOL    HW2 3323   2.497   2.342   1.281  1.2921  0.8485 -0.1365
  831SOL     MW 3324   2.419   2.378   1.314  0.0496 -0.0768  0.0745
  832SOL     OW 3325   2.435   2.198   1.907  0.3802  0.2604 -0.0397
  832SOL    HW1 3326   2.451   2.289   1.949  0.4391  0.8338 -2.0303
  832SOL    HW2 3327   2.525   2.156   1.902 -0.0403 -1.3421 -0.6778
  832SOL     MW 3328   2.449   2.204   1.912  0.3325  0.1246 -0.3865
  833SOL     OW 3329   1.792   2.465   0.880  0.4980 -0.4342 -0.3777
  833SOL    HW1 3330   1.722   2.401   0.909 -1.6488  1.8875  0.0581
  833SOL    HW2 3331   1.787   2.537   0.957 -0.8990 -2.5901  2.9026
  833SOL     MW 3332   1.782   2.466   0.894  0.0305 -0.4123  0.1126
  834SOL     OW 3333   2.241   2.486   0.615  0.1117  0.0686  0.1322
  834SOL    HW1 3334   2.177   2.424   0.640  0.4730  0.7741 -0.3524
  834SOL    HW2 3335   2.266   2.458   0.520 -0.9002 -3.2750 -3.4539
  834SOL     MW 3336   2.236   2.474   0.606  0.0259 -0.2795 -0.4049
  835SOL     OW 3337   1.732   2.618   0.656 -0.4403 -0.2683  0.0053
  835SOL    HW1 3338   1.730   2.557   0.729  1.0981  0.5828  0.3325
  835SOL    HW2 3339   1.814   2.679   0.667  1.7759  1.6025 -1.2381
  835SOL     MW 3340   1.743   2.618   0.667  0.0551  0.0908 -0.1156
  836SOL     OW 3341   1.953   2.192   1.622  0.5946 -0.2731 -0.0132
  836SOL    HW1 3342   2.021   2.231   1.675  0.3368 -3.3623  1.7634
  836SOL    HW2 3343   1.872   2.227   1.656  1.2255 -0.8983 -0.4735
  836SOL     MW 3344   1.951   2.202   1.633  0.6438 -0.7632  0.1605
  837SOL     OW 3345   2.121   0.209   0.687 -0.5252 -0.0350  0.3757
  837SOL    HW1 3346   2.032   0.227   0.663  1.3046  1.9329 -1.3678
  837SOL    HW2 3347   2.162   0.162   0.610 -2.1132 -0.4838 -0.0077
  837SOL     MW 3348   2.115   0.205   0.673 -0.4933  0.1655  0.0951
  838SOL     OW 3349   2.935   2.137   0.880  0.3287 -0.2783  0.4701
  838SOL    HW1 3350   2.880   2.098   0.953 -1.5790  0.5730 -2.0060
  838SOL    HW2 3351   2.953   2.055   0.831 -0.7487 -1.3901  0.8328
  838SOL     MW 3352   2.930   2.121   0.883 -0.0651 -0.3127  0.1913
  839SOL     OW 3353   1.546   2.351   0.922  0.0089 -0.1855  0.0313
  839SOL    HW1 3354   1.535   2.448   0.923  0.3676  1.0225 -0.3598
  839SOL    HW2 3355   1.558   2.313   1.007  1.0915  2.4002 -0.4290
  839SOL     MW 3356   1.546   2.359   0.934  0.1991  0.3151 -0.0810
  840SOL     OW 3357   2.317   2.096   2.399  0.2560  0.0291 -0.0527
  840SOL    HW1 3358   2.278   2.161   2.334  0.4982  1.7544  2.5406
  840SOL    HW2 3359   2.392   2.128   2.449 -0.5068 -1.6066 -0.0016
  840SOL     MW 3360   2.322   2.109   2.397  0.1873  0.0409  0.2962
  841SOL     OW 3361   2.171   2.426   0.111  0.0606 -0.1372  0.6077
  841SOL    HW1 3362   2.232   2.459   0.049  0.7500  0.2563 -1.0544
  841SOL    HW2 3363   2.132   2.344   0.080 -0.1273 -0.1999  0.2861
  841SOL     MW 3364   2.174   2.419   0.099  0.1267 -0.0935  0.3460
  842SOL     OW 3365   2.670   1.974   1.576 -0.3869  0.7144 -0.6621
  842SOL    HW1 3366   2.651   1.881   1.575  0.8978 -1.6041  0.1315
  842SOL    HW2 3367   2.619   2.008   1.509 -2.2178 -1.1139 -0.2431
  842SOL     MW 3368   2.661   1.967   1.567 -0.4589  0.1673 -0.5022
  843SOL     OW 3369   2.663   2.768   1.798  0.3169 -0.1732 -0.0033
  843SOL    HW1 3370   2.742   2.728   1.759  2.7076  2.0055  1.0340
  843SOL    HW2 3371   2.598   2.701   1.781  3.5903  0.7320 -0.5349
  843SOL     MW 3372   2.665   2.754   1.791  1.0642  0.2337  0.0634
  844SOL     OW 3373   2.635   2.245   1.227  0.4280 -0.4514 -0.0020
  844SOL    HW1 3374   2.647   2.299   1.140 -0.2693  0.7312 -2.5016
  844SOL    HW2 3375   2.702   2.294   1.281  0.7205  2.6335  2.3496
  844SOL     MW 3376   2.646   2.259   1.222  0.3746  0.1116 -0.0215
  845SOL     OW 3377   2.868   2.472   0.290  0.3504  0.3493 -0.2657
  845SOL    HW1 3378   2.830   2.390   0.317  1.9222  0.0962 -1.0282
  845SOL    HW2 3379   2.894   2.520   0.369  3.8113 -1.6521  2.0702
  845SOL     MW 3380   2.866   2.467   0.304  1.0144  0.0518 -0.0581
  846SOL     OW 3381   1.521   2.853   0.778 -0.0549  0.1810  0.3238
  846SOL    HW1 3382   1.610   2.879   0.810  1.2004  1.2485  1.5433
  846SOL    HW2 3383   1.470   2.924   0.811  1.1576 -0.7184 -0.2633
  846SOL     MW 3384   1.526   2.866   0.787  0.2707  0.2032  0.4073
  847SOL     OW 3385   2.495   1.909   0.149 -0.0672  0.6110 -0.4574
  847SOL    HW1 3386   2.536   1.842   0.198 -0.1895  3.0684 -1.3930
  847SOL    HW2 3387   2.469   1.884   0.062 -1.8623  1.2052  3.2328
  847SOL     MW 3388   2.497   1.897   0.144 -0.3202  1.0136 -0.0940
  848SOL     OW 3389   2.517   2.057   1.370  0.2317 -0.4427 -0.1849
  848SOL    HW1 3390   2.559   2.132   1.317  1.9617  0.1249 -0.2151
  848SOL    HW2 3391   2.458   2.007   1.310  0.7340  3.3558 -2.4074
  848SOL     MW 3392   2.515   2.061   1.355  0.5262  0.1334 -0.4821
  849SOL     OW 3393   1.951   2.760   0.740  0.8208 -0.5668  0.0394
  849SOL    HW1 3394   1.968   2.708   0.820 -0.5167  0.2941 -1.0335
  849SOL    HW2 3395   2.034   2.756   0.696 -0.6350  1.2846  1.1488
  849SOL     MW 3396   1.964   2.752   0.745  0.4522 -0.2089  0.0442
  850SOL     OW 3397   2.225   1.928   1.680  0.1635 -0.1071 -0.0622
  850SOL    HW1 3398   2.135   1.917   1.647 -1.6197  2.1643 -0.4823
  850SOL    HW2 3399   2.224   2.021   1.701 -2.9222 -0.9653  2.2501
  850SOL     MW 3400   2.213   1.939   1.678 -0.4789  0.0794  0.1874
  851SOL     OW 3401   2.320   2.382   0.351  0.5204 -0.3617  0.1968
  851SOL    HW1 3402   2.264   2.392   0.272  1.0140 -1.0692  0.4824
  851SOL    HW2 3403   2.392   2.457   0.332  2.4390 -0.5069  0.3653
  851SOL     MW 3404   2.322   2.393   0.338  0.8387 -0.4742  0.2567
  852SOL     OW 3405   2.345   2.089   0.305 -0.3620  0.2631 -0.2677
  852SOL    HW1 3406   2.343   2.179   0.329 -1.1495 -0.7835 -0.4784
  852SOL    HW2 3407   2.415   2.066   0.242  3.3033 -3.4414  0.2482
  852SOL     MW 3408   2.354   2.098   0.300  0.0177 -0.3637 -0.2274
  853SOL     OW 3409   2.496   2.453   1.992  0.1781  0.5573 -0.2843
  853SOL    HW1 3410   2.505   2.497   1.904 -0.9154 -1.4511  0.5924
  853SOL    HW2 3411   2.584   2.449   2.034 -1.0737 -4.1844 -0.8846
  853SOL     MW 3412   2.509   2.458   1.986 -0.1313 -0.3333 -0.2478
  854SOL     OW 3413   2.827   2.356   0.754  0.0021 -0.0975  0.2859
  854SOL    HW1 3414   2.760   2.309   0.705 -0.3060 -1.4060 -1.4330
  854SOL    HW2 3415   2.857   2.283   0.812 -0.5518 -1.3301 -2.1891
  854SOL     MW 3416   2.822   2.341   0.755 -0.1116 -0.4328 -0.2674
  855SOL     OW 3417   2.702   2.226   0.376 -0.7316  0.2532  0.2610
  855SOL    HW1 3418   2.657   2.266   0.452  0.2278 -1.1209 -2.3479
  855SOL    HW2 3419   2.789   2.185   0.394 -1.1528 -2.4873 -1.5324
  855SOL     MW 3420   2.708   2.226   0.388 -0.6606 -0.2897 -0.3198
  856SOL     OW 3421   2.170   1.946   0.155 -0.2145 -0.0937  0.3919
  856SOL    HW1 3422   2.097   1.923   0.215 -1.9926 -0.1776 -1.4564
  856SOL    HW2 3423   2.232   1.989   0.215 -1.8573 -0.0741  1.0287
  856SOL     MW 3424   2.169   1.948   0.171 -0.6659 -0.1022  0.2321
  857SOL     OW 3425   2.528   1.994   0.503 -0.9288  0.4401  0.2901
  857SOL    HW1 3426   2.546   2.069   0.446 -2.5615 -2.9788  1.5299
  857SOL    HW2 3427   2.451   1.956   0.472 -1.6611  1.7024 -1.2200
  857SOL     MW 3428   2.520   1.999   0.492 -1.2408  0.1556  0.2544
  858SOL     OW 3429   2.900   2.646   1.745 -0.1721  0.4402  0.2869
  858SOL    HW1 3430   2.978   2.688   1.777  0.4238 -1.4248 -0.2805
  858SOL    HW2 3431   2.905   2.557   1.779 -0.8587 -0.8131 -1.1792
  858SOL     MW 3432   2.911   2.640   1.754 -0.1840  0.0288  0.0186
  859SOL     OW 3433   2.089   2.561   0.964 -0.5731 -0.0623  0.2023
  859SOL    HW1 3434   2.074   2.491   1.025 -0.2586 -0.3034 -0.8083
  859SOL    HW2 3435   2.150   2.531   0.895 -0.9835 -0.6870  1.2982
  859SOL     MW 3436   2.095   2.548   0.963 -0.5857 -0.1765  0.2136
  860SOL     OW 3437   2.684   2.612   0.150 -0.5126  0.2120 -0.3913
  860SOL    HW1 3438   2.760   2.574   0.207  1.1835  0.4073  0.2674
  860SOL    HW2 3439   2.708   2.703   0.117  3.4135  2.3906 -1.8272
  860SOL     MW 3440   2.697   2.619   0.153  0.2292  0.5252 -0.4938
  861SOL     OW 3441   1.579   2.131   1.168  0.3810 -0.2024 -0.4058
  861SOL    HW1 3442   1.595   2.195   1.236  1.2739 -1.9261 -0.0664
  861SOL    HW2 3443   1.511   2.071   1.197 -0.7075  0.6138 -1.4058
  861SOL     MW 3444   1.572   2.132   1.181  0.3552 -0.3221 -0.4929
  862SOL     OW 3445   2.464   1.789   1.542  0.3212  0.2783  0.2896
  862SOL    HW1 3446   2.421   1.848   1.611  0.2711  0.0508  0.5997
  862SOL    HW2 3447   2.416   1.804   1.459 -1.4915  3.4692  0.9918
  862SOL     MW 3448   2.452   1.798   1.540  0.0754  0.6693  0.4232
  863SOL     OW 3449   2.999   1.826   1.049 -0.5865 -0.1663  0.0242
  863SOL    HW1 3450   3.085   1.801   1.089 -2.9293  1.4176  0.3777
  863SOL    HW2 3451   2.967   1.888   1.118 -2.9879 -1.3477 -0.1084
  863SOL     MW 3452   3.006   1.830   1.064 -1.2124 -0.1132  0.0533
  864SOL     OW 3453   3.060   1.869   0.803  0.0109 -0.5722 -0.4563
  864SOL    HW1 3454   3.026   1.841   0.892 -1.0550 -1.6652 -3.0829
  864SOL    HW2 3455   3.028   1.798   0.741  1.1552 -3.4030  0.2846
  864SOL     MW 3456   3.051   1.856   0.807  0.0212 -1.0899 -0.7051
  865SOL     OW 3457   2.585   2.150   0.024 -0.6646 -0.0579  0.4226
  865SOL    HW1 3458   2.618   2.069   0.069  0.3134  0.2335 -0.5331
  865SOL    HW2 3459   2.511   2.122  -0.028 -1.2355  0.2837 -0.9300
  865SOL     MW 3460   2.580   2.135   0.023 -0.6109  0.0256  0.1180
  866SOL     OW 3461   2.677   2.370   1.677 -0.2010  0.7820 -0.2038
  866SOL    HW1 3462   2.657   2.294   1.731 -2.1937  1.6623 -0.1903
  866SOL    HW2 3463   2.704   2.332   1.594  0.3020 -0.4986  3.5222
  866SOL     MW 3464   2.678   2.355   1.673 -0.3975  0.7292  0.2896
  867SOL     OW 3465   0.038   2.735   1.818 -0.1345  0.2709 -0.1372
  867SOL    HW1 3466   0.074   2.735   1.911 -0.5770  0.4204 -0.0720
  867SOL    HW2 3467   0.019   2.825   1.795  1.0453 -1.7042  0.1056
  867SOL     MW 3468   0.040   2.747   1.827 -0.0372  0.0300 -0.0965
  868SOL     OW 3469   2.859   2.595   0.555 -0.0819  0.3726 -0.0058
  868SOL    HW1 3470   2.780   2.543   0.581 -0.5896 -0.6581 -1.3100
  868SOL    HW2 3471   2.828   2.670   0.502  0.4781 -0.3816  0.7906
  868SOL     MW 3472   2.845   2.598   0.552 -0.0750  0.1371 -0.0728
  869SOL     OW 3473   2.071   2.357   1.143  0.1467  0.0666  0.3086
  869SOL    HW1 3474   2.157   2.343   1.097  1.3798 -1.0310  1.5408
  869SOL    HW2 3475   2.010   2.301   1.088 -0.7140  1.0191  2.1175
  869SOL     MW 3476   2.074   2.347   1.129  0.1958  0.0475  0.7098
  870SOL     OW 3477   2.174   0.027   0.465  0.5551  0.2049 -0.6424
  870SOL    HW1 3478   2.245   0.051   0.411 -1.2391 -2.0138  0.9805
  870SOL    HW2 3479   2.184  -0.069   0.462  1.4856  0.4496  0.4606
  870SOL     MW 3480   2.185   0.018   0.457  0.4411 -0.0556 -0.2827
  871SOL     OW 3481   2.524   2.130   0.944  0.3135 -0.8603  0.4736
  871SOL    HW1 3482   2.475   2.071   0.892 -0.3408  0.0653 -2.3050
  871SOL    HW2 3483   2.464   2.190   0.994 -0.3025 -1.8976  0.9774
  871SOL     MW 3484   2.510   2.130   0.944  0.1459 -0.8751  0.1735
  872SOL     OW 3485   1.978   2.544   1.526  0.0872 -0.5731  0.1681
  872SOL    HW1 3486   1.933   2.536   1.610  0.4093 -0.5862 -0.8110
  872SOL    HW2 3487   1.941   2.471   1.469 -0.9578 -2.2647  1.2788
  872SOL     MW 3488   1.967   2.533   1.529 -0.0082 -0.7980  0.1855
  873SOL     OW 3489   2.930   2.034   1.941  0.4930 -0.1344  0.2604
  873SOL    HW1 3490   2.933   2.074   2.029 -1.9320  1.2808  1.1528
  873SOL    HW2 3491   3.011   2.052   1.894 -2.7470 -3.1265 -1.0494
  873SOL     MW 3492   2.941   2.042   1.947 -0.2544 -0.3425  0.2053
  874SOL     OW 3493   2.274   1.495   2.412 -0.0262 -0.2821  0.6295
  874SOL    HW1 3494   2.260   1.431   2.332  1.4600 -1.4399 -1.5995
  874SOL    HW2 3495   2.327   1.437   2.470  0.5839  0.0745 -0.7383
  874SOL     MW 3496   2.279   1.479   2.409  0.2504 -0.3878  0.1550
  875SOL     OW 3497   2.351   2.323   1.056  0.0319  0.3395 -0.5970
  875SOL    HW1 3498   2.376   2.400   1.000 -0.3891  0.4636 -1.3896
  875SOL    HW2 3499   2.373   2.359   1.142  1.0907 -0.8936  0.6436
  875SOL     MW 3500   2.357   2.338   1.060  0.1161  0.1932 -0.5379
  876SOL     OW 3501   3.041   2.254   1.264  0.3401 -0.7140  0.4323
  876SOL    HW1 3502   3.079   2.323   1.209 -1.5645 -2.4059 -0.2972
  876SOL    HW2 3503   3.095   2.273   1.340 -1.1039 -0.7281  1.6634
  876SOL     MW 3504   3.053   2.265   1.267 -0.1017 -0.9391  0.4985
  877SOL     OW 3505   3.030   2.723   0.321  0.4302 -0.0474  0.5130
  877SOL    HW1 3506   3.093   2.794   0.323  0.3909 -1.5004 -0.1913
  877SOL    HW2 3507   3.054   2.673   0.240 -0.8231 -1.5509 -0.0209
  877SOL     MW 3508   3.041   2.726   0.311  0.2597 -0.4375  0.3497
  878SOL     OW 3509   2.382   1.841   1.285 -0.4210 -0.0256 -0.3852
  878SOL    HW1 3510   2.305   1.792   1.292 -1.0855  4.4043  1.7295
  878SOL    HW2 3511   2.458   1.794   1.261 -1.6485 -0.2244 -0.3798
  878SOL     MW 3512   2.382   1.828   1.283 -0.6706  0.5327 -0.1055
  879SOL     OW 3513   2.672   2.398   1.009  0.0507  0.1693  0.2611
  879SOL    HW1 3514   2.726   2.473   1.036  1.6318  1.0556 -0.5907
  879SOL    HW2 3515   2.702   2.377   0.926 -0.8446  0.1920  0.4864
  879SOL     MW 3516   2.683   2.405   1.001  0.1412  0.2892  0.1784
  880SOL     OW 3517   2.620   2.180   0.692  0.1968 -0.3525 -0.5685
  880SOL    HW1 3518   2.577   2.156   0.780 -2.1729  0.6291  2.9540
  880SOL    HW2 3519   2.580   2.117   0.633  2.2033 -1.6170 -2.3307
  880SOL     MW 3520   2.609   2.169   0.696  0.1489 -0.3898 -0.3362
  881SOL     OW 3521   2.925   2.732   0.775 -0.5728 -0.1758 -0.2420
  881SOL    HW1 3522   2.887   2.674   0.699 -1.1429  1.5448 -2.1453
  881SOL    HW2 3523   3.015   2.734   0.748 -0.8417 -0.5515 -2.0778
  881SOL     MW 3524   2.932   2.725   0.762 -0.6835  0.0016 -0.7354
  882SOL     OW 3525   2.227   2.867   1.934 -0.2239 -0.4074  0.3693
  882SOL    HW1 3526   2.216   2.847   1.839 -1.5003 -0.2041  1.2925
  882SOL    HW2 3527   2.179   2.809   1.988 -3.5444  2.5686  0.5063
  882SOL     MW 3528   2.219   2.857   1.928 -0.8304  0.0121  0.5092
  883SOL     OW 3529   2.313   2.183   1.480 -0.4654 -0.3049  0.1804
  883SOL    HW1 3530   2.384   2.118   1.456 -2.2859  0.6733 -1.4640
  883SOL    HW2 3531   2.247   2.168   1.412  2.1875  1.7390 -0.8468
  883SOL     MW 3532   2.314   2.172   1.468 -0.3556  0.0938 -0.1721
  884SOL     OW 3533   1.961   1.790   1.063 -0.4455  0.2845 -0.1756
  884SOL    HW1 3534   1.893   1.847   1.030 -0.5589 -1.4528 -0.0876
  884SOL    HW2 3535   2.046   1.842   1.041  3.1605  0.8597 -0.6712
  884SOL     MW 3536   1.964   1.804   1.055  0.0153  0.1312 -0.2294
  885SOL     OW 3537   2.885   2.389   1.850 -0.1007 -0.2070  0.8064
  885SOL    HW1 3538   2.978   2.374   1.825 -0.9894  0.3331  1.6746
  885SOL    HW2 3539   2.833   2.370   1.768  0.9689 -3.3027  1.8274
  885SOL     MW 3540   2.890   2.385   1.836 -0.0768 -0.5442  1.0556
  886SOL     OW 3541   2.798   2.355   1.402  0.0330 -0.5840  0.1466
  886SOL    HW1 3542   2.891   2.348   1.379  1.8100  1.2539  0.3804
  886SOL    HW2 3543   2.791   2.449   1.426  0.4334  0.2147  1.0447
  886SOL     MW 3544   2.810   2.366   1.402  0.3203 -0.2362  0.2959
  887SOL     OW 3545   2.239   2.637   1.503 -0.0768 -0.2568  0.2368
  887SOL    HW1 3546   2.280   2.632   1.418  1.2895  2.9143 -1.2786
  887SOL    HW2 3547   2.143   2.618   1.501 -0.2656 -1.1697 -1.0287
  887SOL     MW 3548   2.231   2.634   1.491  0.0786  0.0411 -0.1301
  888SOL     OW 3549   1.876   2.015   1.401 -0.3956  0.1078 -0.1715
  888SOL    HW1 3550   1.954   1.996   1.345  1.1684 -1.6037  1.2023
  888SOL    HW2 3551   1.911   2.053   1.480 -0.3901 -1.7317 -1.1480
  888SOL     MW 3552   1.891   2.017   1.404 -0.1885 -0.3607 -0.1191
  889SOL     OW 3553   2.287   2.021   2.079  0.0367 -0.1441 -0.0772
  889SOL    HW1 3554   2.348   2.024   2.147  0.1501  0.1015 -2.6517
  889SOL    HW2 3555   2.323   2.092   2.027  0.9063 -0.4995  1.9085
  889SOL     MW 3556   2.300   2.031   2.081  0.1664 -0.1586 -0.1549
  890SOL     OW 3557   0.092   2.348   0.101 -0.4884 -0.0633  0.1748
  890SOL    HW1 3558   0.050   2.436   0.101 -0.9297 -0.4279  1.3509
  890SOL    HW2 3559   0.070   2.326   0.194 -1.0348 -2.7668  0.6137
  890SOL     MW 3560   0.083   2.357   0.113 -0.6187 -0.4681  0.3879
  891SOL     OW 3561   3.018   1.991   1.261  0.0834  0.1193  0.0747
  891SOL    HW1 3562   3.110   1.960   1.263  1.3855 -0.4081  0.3065
  891SOL    HW2 3563   3.013   2.093   1.255 -1.4998 -0.2001  1.4536
  891SOL     MW 3564   3.029   2.001   1.261  0.0463  0.0075  0.2872
  892SOL     OW 3565   2.434   2.336   2.787  0.2722 -0.4452 -0.6149
  892SOL    HW1 3566   2.431   2.249   2.824  3.4278 -0.1625  0.9578
  892SOL    HW2 3567   2.521   2.355   2.811 -0.6679 -2.3808 -0.9417
  892SOL     MW 3568   2.445   2.327   2.795  0.5645 -0.6633 -0.4505
  893SOL     OW 3569   1.634   2.367   1.305  0.5822  0.0142 -0.3548
  893SOL    HW1 3570   1.571   2.429   1.348 -1.7068  0.7688 -0.3461
  893SOL    HW2 3571   1.725   2.377   1.332  0.9970 -0.0155 -0.6714
  893SOL     MW 3572   1.638   2.376   1.314  0.3349  0.1098 -0.3954
  894SOL     OW 3573   2.799   1.882   0.492 -0.4776 -0.0079  0.0807
  894SOL    HW1 3574   2.714   1.907   0.512  2.0264 -3.3545 -1.7465
  894SOL    HW2 3575   2.792   1.851   0.406  0.3114  1.0962  2.9645
  894SOL     MW 3576   2.787   1.881   0.483 -0.0431 -0.3037  0.2201
  895SOL     OW 3577   2.140   2.109   1.264  0.0021  0.2101 -0.1692
  895SOL    HW1 3578   2.110   2.186   1.209  0.0034 -1.2885 -2.2239
  895SOL    HW2 3579   2.168   2.044   1.194 -1.1613  3.0572  0.4115
  895SOL     MW 3580   2.140   2.111   1.248 -0.1513  0.3880 -0.3637
  896SOL     OW 3581   2.194   2.790   1.073  0.7135  0.4226 -0.2121
  896SOL    HW1 3582   2.222   2.758   1.165  1.9768 -0.4935  2.3258
  896SOL    HW2 3583   2.165   2.702   1.027 -0.0501 -3.3715 -0.3359
  896SOL     MW 3584   2.194   2.774   1.079  0.7794 -0.1989  0.1064
  897SOL     OW 3585   2.996   2.911   0.119 -0.5580  0.5740 -0.4411
  897SOL    HW1 3586   3.081   2.894   0.064 -0.4660 -0.3320  0.8784
  897SOL    HW2 3587   2.926   2.880   0.065  1.8342 -0.4812  3.2381
  897SOL     MW 3588   2.998   2.904   0.105 -0.2302  0.3152  0.2185
  898SOL     OW 3589   2.086   0.162   1.438 -0.6536 -0.1566  0.1685
  898SOL    HW1 3590   2.084   0.066   1.444  1.1731  2.2440  1.1388
  898SOL    HW2 3591   2.105   0.180   1.345 -0.7118  0.5209 -0.3720
  898SOL     MW 3592   2.088   0.152   1.427 -0.4203  0.2495  0.2252
  899SOL     OW 3593   2.904   2.963   0.626  0.1326 -0.2067 -0.1068
  899SOL    HW1 3594   2.891   2.888   0.686 -1.8684 -0.5296 -2.2285
  899SOL    HW2 3595   2.821   3.004   0.632  1.1881 -1.3593  1.3718
  899SOL     MW 3596   2.892   2.959   0.635  0.0078 -0.4014 -0.1916
  900SOL     OW 3597   0.113   2.406   1.084  0.2114 -0.1032 -0.2084
  900SOL    HW1 3598   0.080   2.496   1.065 -0.8662 -1.7226  0.8867
  900SOL    HW2 3599   0.094   2.361   1.002  1.5150 -1.2115  1.1625
  900SOL     MW 3600   0.106   2.412   1.071  0.2412 -0.4631  0.1169
  901SOL     OW 3601   1.741   2.901   1.728 -0.4932  0.4937  0.1139
  901SOL    HW1 3602   1.806   2.827   1.722  1.4860 -0.3135 -0.3649
  901SOL    HW2 3603   1.698   2.896   1.642  0.4877 -1.1105  0.7352
  901SOL     MW 3604   1.744   2.891   1.716 -0.1026  0.1755  0.1327
  902SOL     OW 3605   2.675   2.113   1.815 -0.3750 -0.1765  0.4030
  902SOL    HW1 3606   2.666   2.054   1.745  1.6591  0.9684  1.3586
  902SOL    HW2 3607   2.755   2.094   1.861 -0.2725 -0.1780 -0.8500
  902SOL     MW 3608   2.684   2.103   1.812 -0.0931 -0.0256  0.3638
  903SOL     OW 3609   1.582   2.780   0.515 -0.5830  0.1566  0.1958
  903SOL    HW1 3610   1.641   2.702   0.554  0.3599 -0.6629  1.1399
  903SOL    HW2 3611   1.527   2.813   0.589  0.1871  0.0614 -1.2694
  903SOL     MW 3612   1.583   2.774   0.530 -0.3570  0.0359  0.1271
  904SOL     OW 3613   2.486   2.556   1.726 -0.3542  0.8107  0.2322
  904SOL    HW1 3614   2.433   2.531   1.647  0.5346 -0.3910  0.5378
  904SOL    HW2 3615   2.568   2.518   1.694  0.9819  3.1323 -2.5186
  904SOL     MW 3616   2.490   2.548   1.711 -0.0607  0.9584 -0.0904
  905SOL     OW 3617   2.336   2.575   2.178 -0.2185  0.3385 -0.1105
  905SOL    HW1 3618   2.407   2.561   2.115  1.5780 -1.7251  0.6437
  905SOL    HW2 3619   2.302   2.484   2.174 -0.5233 -0.5921  1.4852
  905SOL     MW 3620   2.341   2.561   2.169 -0.0217 -0.0566  0.1995
  906SOL     OW 3621   2.421   2.521   0.874 -0.1038  0.2218  0.1239
  906SOL    HW1 3622   2.518   2.528   0.898 -0.8782 -0.6806 -0.7027
  906SOL    HW2 3623   2.396   2.617   0.852  0.2392 -0.3125 -0.1266
  906SOL     MW 3624   2.431   2.534   0.874 -0.1608  0.0322 -0.0182
  907SOL     OW 3625   2.614   2.814   1.346  0.4792 -0.6849  0.1230
  907SOL    HW1 3626   2.643   2.894   1.388 -2.3889  0.0828 -0.7486
  907SOL    HW2 3627   2.661   2.815   1.263  1.9185  1.1808 -1.0573
  907SOL     MW 3628   2.624   2.825   1.341  0.2907 -0.3375 -0.1477
  908SOL     OW 3629   2.753   2.384   3.085  0.5029 -0.1254 -0.2493
  908SOL    HW1 3630   2.695   2.306   3.115 -1.3200 -3.7591 -0.6578
  908SOL    HW2 3631   2.716   2.462   3.133  0.4697  1.0476 -2.1383
  908SOL     MW 3632   2.741   2.384   3.095  0.2580 -0.4501 -0.5525
  909SOL     OW 3633   1.722   0.144   1.128  0.2400  0.2030 -0.2077
  909SOL    HW1 3634   1.696   0.215   1.069 -2.1423  0.0060  0.2110
  909SOL    HW2 3635   1.781   0.177   1.193 -2.9857  0.0703 -2.6844
  909SOL     MW 3636   1.727   0.158   1.129 -0.4999  0.1595 -0.4793
  910SOL     OW 3637   2.358   1.799   0.422  0.6684 -0.7940  0.6826
  910SOL    HW1 3638   2.304   1.721   0.446  2.1720 -1.0451 -1.9963
  910SOL    HW2 3639   2.329   1.825   0.335 -1.3953  0.8719  1.3847
  910SOL     MW 3640   2.347   1.792   0.414  0.5945 -0.6074  0.4217
  911SOL     OW 3641   2.221   2.242   1.729  0.3937  0.0102 -0.6038
  911SOL    HW1 3642   2.300   2.252   1.781 -1.9215 -0.0692  2.1575
  911SOL    HW2 3643   2.249   2.230   1.637  1.8586  0.5146 -1.1740
  911SOL     MW 3644   2.235   2.242   1.723  0.2815  0.0663 -0.3147
  912SOL     OW 3645   2.939   1.932   1.517 -0.3090 -0.0125 -0.2916
  912SOL    HW1 3646   2.942   1.973   1.425 -0.9198  1.8312 -0.4428
  912SOL    HW2 3647   2.851   1.959   1.555 -1.2971 -1.0654  1.6619
  912SOL     MW 3648   2.928   1.941   1.510 -0.5199  0.0919 -0.0538
  913SOL     OW 3649   2.593   3.023   0.369  0.8401  0.1190 -0.1476
  913SOL    HW1 3650   2.666   2.968   0.395  0.9556  1.1885  1.1376
  913SOL    HW2 3651   2.514   2.974   0.346  4.3010 -0.5789 -0.4199
  913SOL     MW 3652   2.592   3.010   0.370  1.3120  0.1680 -0.0140
  914SOL     OW 3653   2.694   1.744   3.049 -0.1119 -0.0172  0.0962
  914SOL    HW1 3654   2.751   1.795   2.983 -5.1159  2.1793 -2.0992
  914SOL    HW2 3655   2.604   1.766   3.014 -3.8229  0.2994  0.4234
  914SOL     MW 3656   2.690   1.753   3.036 -1.2617  0.3144 -0.1503
  915SOL     OW 3657   1.705   0.225   0.223 -0.1212  0.0603 -0.1536
  915SOL    HW1 3658   1.773   0.178   0.265  0.7403  0.9240 -1.5178
  915SOL    HW2 3659   1.625   0.169   0.236  1.3773  0.7154 -1.1537
  915SOL     MW 3660   1.703   0.212   0.230  0.1902  0.2607 -0.4655
  916SOL     OW 3661   1.816   2.085   1.938 -0.2410  0.4749 -0.0715
  916SOL    HW1 3662   1.838   2.182   1.948  1.5717  0.2560  0.5398
  916SOL    HW2 3663   1.835   2.067   1.847 -0.2690  0.6732 -0.3414
  916SOL     MW 3664   1.821   2.096   1.927 -0.0056  0.4722 -0.0264
  917SOL     OW 3665   2.522   2.184   2.546  0.6599 -0.1125 -0.3448
  917SOL    HW1 3666   2.486   2.234   2.620 -2.3285  0.1890 -1.5598
  917SOL    HW2 3667   2.586   2.241   2.513 -1.0095 -0.2359  0.8212
  917SOL     MW 3668   2.526   2.198   2.551  0.0454 -0.0890 -0.3513
  918SOL     OW 3669   1.982   1.616   2.716  0.5376  0.7029  0.6177
  918SOL    HW1 3670   1.902   1.630   2.663  1.3775 -1.6331  1.6828
  918SOL    HW2 3671   2.046   1.678   2.685 -2.0744  1.6971 -1.5286
  918SOL     MW 3672   1.980   1.626   2.705  0.3038  0.5259  0.4750
  919SOL     OW 3673   0.039   2.316   2.270 -0.2189 -0.2280 -0.0221
  919SOL    HW1 3674  -0.022   2.245   2.242 -0.8724 -1.7361  0.1485
  919SOL    HW2 3675   0.093   2.330   2.191  0.2389  1.0230 -0.9562
  919SOL     MW 3676   0.038   2.308   2.256 -0.2447 -0.2619 -0.1228
  920SOL     OW 3677   2.747   2.824   3.100 -0.3336  0.2007 -0.0410
  920SOL    HW1 3678   2.653   2.853   3.105 -0.7237  1.5618 -3.0321
  920SOL    HW2 3679   2.743   2.757   3.026 -0.5864  1.0718 -0.5048
  920SOL     MW 3680   2.734   2.819   3.091 -0.4184  0.4952 -0.4968
  921SOL     OW 3681   2.432   2.575   2.600 -0.2654  0.0707 -0.2202
  921SOL    HW1 3682   2.507   2.587   2.544 -0.8740 -1.3934  2.7194
  921SOL    HW2 3683   2.445   2.497   2.654  2.5428 -1.7967  2.4705
  921SOL     MW 3684   2.444   2.566   2.600  0.0248 -0.3688  0.5227
  922SOL     OW 3685   2.024   2.845   0.325  0.2453 -0.1642  0.4237
  922SOL    HW1 3686   2.004   2.866   0.233 -1.8020 -0.2417  1.0389
  922SOL    HW2 3687   2.007   2.749   0.323  0.5816  1.3471  0.3646
  922SOL     MW 3688   2.019   2.835   0.313  0.0196  0.0249  0.4971
  923SOL     OW 3689   2.161   2.844   1.671 -0.4228 -0.0907  0.0535
  923SOL    HW1 3690   2.198   2.773   1.619  0.1962  1.5991  0.5388
  923SOL    HW2 3691   2.118   2.901   1.610 -0.5372  0.0494  0.3117
  923SOL     MW 3692   2.160   2.842   1.656 -0.3562  0.1508  0.1516
  924SOL     OW 3693   1.214   2.604   2.493 -0.3653  0.4218 -0.2194
  924SOL    HW1 3694   1.283   2.666   2.497 -1.2234 -1.5617  1.8990
  924SOL    HW2 3695   1.225   2.553   2.570  0.3872  1.5924  1.1115
  924SOL     MW 3696   1.224   2.605   2.503 -0.3793  0.3145  0.2357
  925SOL     OW 3697   2.965   0.221   2.604 -0.3575 -0.2896  0.3309
  925SOL    HW1 3698   2.936   0.231   2.502  2.4241  1.1585 -1.0551
  925SOL    HW2 3699   2.919   0.285   2.651  2.6402  0.5432  2.4881
  925SOL     MW 3700   2.955   0.231   2.597  0.4050  0.0113  0.4326
  926SOL     OW 3701   2.759   2.384   2.089 -0.4594  0.0315 -0.1936
  926SOL    HW1 3702   2.823   2.424   2.152  2.4763  0.6947 -2.8774
  926SOL    HW2 3703   2.809   2.391   2.002  4.0951 -1.2137 -0.7326
  926SOL     MW 3704   2.774   2.391   2.086  0.5289 -0.0453 -0.6188
  927SOL     OW 3705   2.366   0.141   0.311 -0.2871 -0.1061  0.0900
  927SOL    HW1 3706   2.461   0.141   0.303  2.7585 -0.7470 -1.7662
  927SOL    HW2 3707   2.338   0.116   0.224  0.7292  1.0121 -2.0490
  927SOL     MW 3708   2.375   0.138   0.298  0.2488 -0.0431 -0.4371
  928SOL     OW 3709   2.101   2.437   1.932  0.0113 -0.3006  0.1328
  928SOL    HW1 3710   2.171   2.480   1.888 -3.9681  0.8189  0.5242
  928SOL    HW2 3711   2.140   2.354   1.954  0.5382 -0.4684 -1.6427
  928SOL     MW 3712   2.115   2.431   1.929 -0.4443 -0.1750 -0.0498
  929SOL     OW 3713   2.712   2.380   2.445  0.1008 -0.0480  0.1889
  929SOL    HW1 3714   2.782   2.348   2.385  2.5514  1.9770 -0.8478
  929SOL    HW2 3715   2.765   2.368   2.521  1.5051  1.0533 -1.3018
  929SOL     MW 3716   2.729   2.374   2.447  0.6094  0.3645 -0.1445
  930SOL     OW 3717   2.010   2.827   2.695 -0.2233  0.5863 -0.2777
  930SOL    HW1 3718   2.028   2.750   2.748  0.0536 -0.3929 -0.4895
  930SOL    HW2 3719   2.096   2.884   2.688 -0.9765  2.1062  0.0967
  930SOL     MW 3720   2.024   2.824   2.701 -0.2862  0.6577 -0.2562
  931SOL     OW 3721   3.017   2.774   2.301 -0.0488  0.2342 -0.0706
  931SOL    HW1 3722   3.077   2.761   2.368 -0.1215  0.1251 -2.7406
  931SOL    HW2 3723   3.073   2.781   2.221 -1.2151 -1.9963  2.0160
  931SOL     MW 3724   3.032   2.773   2.299 -0.2123 -0.0745 -0.1476
  932SOL     OW 3725   2.825   1.996   2.553 -0.0435 -0.3603  0.0067
  932SOL    HW1 3726   2.922   2.011   2.562  0.6773  2.1991 -1.2855
  932SOL    HW2 3727   2.812   1.995   2.457  1.5551 -1.3625  0.8207
  932SOL     MW 3728   2.836   1.998   2.541  0.2625 -0.1549 -0.0564
  933SOL     OW 3729   2.016   2.881   2.288 -0.3893  0.2750  0.4110
  933SOL    HW1 3730   2.089   2.932   2.312  0.8274 -1.2915 -1.7824
  933SOL    HW2 3731   1.944   2.938   2.261 -0.0963 -1.0872 -0.5749
  933SOL     MW 3732   2.016   2.895   2.288 -0.1901 -0.1114 -0.0085
  934SOL     OW 3733   2.005   2.677   2.482  0.3779 -0.4376 -0.2074
  934SOL    HW1 3734   2.030   2.735   2.556  0.5660  0.2273  0.5364
  934SOL    HW2 3735   1.990   2.744   2.412  0.2869 -0.0236 -0.1504
  934SOL     MW 3736   2.006   2.694   2.482  0.3907 -0.2952 -0.1017
  935SOL     OW 3737   2.662   1.586   1.799  0.0698 -0.2171  0.5660
  935SOL    HW1 3738   2.759   1.584   1.767  3.1912 -0.0890 -3.4022
  935SOL    HW2 3739   2.603   1.556   1.726 -1.1924  1.3081  0.9120
  935SOL     MW 3740   2.667   1.582   1.785  0.3151  0.0011  0.0881
  936SOL     OW 3741   2.969   2.232   3.066  0.2971 -0.4920 -0.1135
  936SOL    HW1 3742   3.042   2.273   3.118 -0.1068 -0.4319  1.8648
  936SOL    HW2 3743   2.894   2.297   3.085 -3.3658 -0.8006  1.2854
  936SOL     MW 3744   2.968   2.246   3.076 -0.2395 -0.5248  0.3321
  937SOL     OW 3745   1.950   2.115   2.650 -0.1270  0.6330 -0.7497
  937SOL    HW1 3746   2.034   2.078   2.691  0.4054 -0.0237 -2.0243
  937SOL    HW2 3747   1.956   2.104   2.552 -0.6216 -1.5183 -2.1331
  937SOL     MW 3748   1.962   2.109   2.642 -0.1220  0.2625 -1.1004
  938SOL     OW 3749   2.242   1.802   1.931 -0.3400 -0.6485  0.8590
  938SOL    HW1 3750   2.234   1.848   1.846 -1.7717  0.1664 -0.0118
  938SOL    HW2 3751   2.241   1.874   1.992 -0.4794 -1.0390  2.6275
  938SOL     MW 3752   2.241   1.818   1.928 -0.5473 -0.5925  0.9774
  939SOL     OW 3753   2.756   1.976   2.301 -0.3304 -0.1236  0.3700
  939SOL    HW1 3754   2.793   1.922   2.233 -3.0950 -1.8176  3.2270
  939SOL    HW2 3755   2.663   1.953   2.301 -0.7190 -2.9083 -0.4256
  939SOL     MW 3756   2.749   1.966   2.292 -0.7464 -0.7146  0.6420
  940SOL     OW 3757   2.321   0.189   2.632 -0.3123 -0.0991  0.3136
  940SOL    HW1 3758   2.346   0.100   2.635  0.9716 -1.9698  1.4551
  940SOL    HW2 3759   2.351   0.224   2.711 -0.2736 -0.9206  0.6256
  940SOL     MW 3760   2.328   0.182   2.643 -0.1378 -0.4543  0.5054
  941SOL     OW 3761   0.186   2.366   2.050 -0.2011  0.3651 -0.2511
  941SOL    HW1 3762   0.277   2.334   2.037  2.6013 -0.7073  0.7436
  941SOL    HW2 3763   0.152   2.344   1.961  0.3323 -1.2728  1.6196
  941SOL     MW 3764   0.194   2.359   2.037  0.2390  0.0075  0.1270
  942SOL     OW 3765   2.892   2.170   2.170 -0.6089 -0.4122  0.1786
  942SOL    HW1 3766   2.839   2.249   2.147  1.8704  1.9236  1.0156
  942SOL    HW2 3767   2.836   2.117   2.220  0.8385  0.7224  0.0990
  942SOL     MW 3768   2.878   2.173   2.173 -0.0908  0.0457  0.2785
  943SOL     OW 3769   0.311   2.105   2.257  0.4351 -0.0959  0.4474
  943SOL    HW1 3770   0.266   2.141   2.336  0.6938 -0.8213  3.2955
  943SOL    HW2 3771   0.402   2.094   2.288  0.0102 -0.7042 -1.1328
  943SOL     MW 3772   0.317   2.108   2.271  0.4132 -0.2719  0.6147
  944SOL     OW 3773   2.085   2.711   2.094  0.1767  0.0598  0.0791
  944SOL    HW1 3774   2.137   2.643   2.137 -0.5877 -0.1401  0.8996
  944SOL    HW2 3775   2.082   2.795   2.155 -1.6011  1.3189 -1.8498
  944SOL     MW 3776   2.091   2.713   2.107 -0.1588  0.1996 -0.0671
  945SOL     OW 3777   2.659   2.667   2.869 -0.3148  0.2541  0.1627
  945SOL    HW1 3778   2.682   2.577   2.839 -2.9965  1.8322  0.3341
  945SOL    HW2 3779   2.617   2.709   2.795 -1.3852 -0.3297  0.9546
  945SOL     MW 3780   2.657   2.660   2.855 -0.8099  0.3853  0.2898
  946SOL     OW 3781   2.439   2.799   2.308 -0.3256  0.5711 -0.2004
  946SOL    HW1 3782   2.487   2.816   2.224  0.2988 -1.4297 -2.0070
  946SOL    HW2 3783   2.381   2.728   2.290  2.0455  3.7759  1.1195
  946SOL     MW 3784   2.438   2.792   2.295  0.0697  0.7300 -0.2647
  947SOL     OW 3785   1.942   0.096   0.322 -0.3735 -0.6958  0.1196
  947SOL    HW1 3786   1.938   0.010   0.286 -3.6203  2.9519  1.9997
  947SOL    HW2 3787   2.003   0.098   0.394 -1.7486  0.8474  1.0981
  947SOL     MW 3788   1.949   0.085   0.327 -0.9833 -0.0109  0.4967
  948SOL     OW 3789   1.814   3.001   2.683  0.5778  0.9636 -0.0542
  948SOL    HW1 3790   1.867   2.919   2.683  1.4925  1.7450  0.8650
  948SOL    HW2 3791   1.798   3.019   2.591  1.2829  0.4454 -1.3470
  948SOL     MW 3792   1.819   2.993   2.671  0.7915  0.9983 -0.1035
  949SOL     OW 3793   2.499   1.926   2.290 -0.6274 -0.2533 -0.2615
  949SOL    HW1 3794   2.481   1.826   2.304  1.5439  1.8181  2.4036
  949SOL    HW2 3795   2.435   1.982   2.331 -1.7671  1.7778 -0.3042
  949SOL     MW 3796   2.488   1.920   2.297 -0.4913  0.2880  0.0845
  950SOL     OW 3797   2.263   2.511   2.949  0.1911  0.1956  0.0284
  950SOL    HW1 3798   2.313   2.458   2.886  3.4380  1.2848 -0.3703
  950SOL    HW2 3799   2.181   2.532   2.907 -0.6381 -1.8404  1.3861
  950SOL     MW 3800   2.259   2.507   2.936  0.5101  0.0707  0.1549
  951SOL     OW 3801   3.002   2.106   2.823 -0.2732 -0.5967  0.0652
  951SOL    HW1 3802   2.991   2.115   2.923 -2.9376 -0.6358  2.1607
  951SOL    HW2 3803   3.094   2.098   2.807 -1.1760  0.9701 -0.1535
  951SOL     MW 3804   3.013   2.106   2.834 -0.7438 -0.3951  0.3128
  952SOL     OW 3805   3.061   1.663   2.156 -0.5507 -0.2182 -0.2359
  952SOL    HW1 3806   2.991   1.713   2.113 -1.3724 -1.1002 -1.0026
  952SOL    HW2 3807   3.133   1.724   2.162 -0.7499 -1.0193 -0.3836
  952SOL     MW 3808   3.061   1.678   2.151 -0.6854 -0.4403 -0.3565
  953SOL     OW 3809   1.917   1.792   2.909 -0.0943 -0.7129 -0.1927
  953SOL    HW1 3810   1.858   1.745   2.965  0.3034 -0.3156 -0.1662
  953SOL    HW2 3811   1.950   1.732   2.838  0.5962 -0.2438 -0.0602
  953SOL     MW 3812   1.914   1.778   2.907  0.0493 -0.5986 -0.1717
  954SOL     OW 3813   2.388   2.090   2.885 -0.5892 -0.2405 -0.0265
  954SOL    HW1 3814   2.299   2.067   2.866 -0.0253 -1.6561  0.0049
  954SOL    HW2 3815   2.457   2.045   2.826  0.8682 -0.1705  1.1349
  954SOL     MW 3816   2.385   2.081   2.875 -0.3225 -0.4180  0.1309
  955SOL     OW 3817   1.541   1.577   2.597 -0.8485 -0.2697 -0.4366
  955SOL    HW1 3818   1.498   1.574   2.517 -1.8570 -0.1696  1.5050
  955SOL    HW2 3819   1.619   1.634   2.570 -0.6759 -0.4426 -1.6580
  955SOL     MW 3820   1.546   1.584   2.583 -0.9588 -0.2793 -0.3416
  956SOL     OW 3821   2.688   2.408   2.820 -0.5819  0.1164  0.1268
  956SOL    HW1 3822   2.713   2.400   2.912  2.3234  2.0200  0.3603
  956SOL    HW2 3823   2.760   2.380   2.764  0.2119  0.3750 -0.7745
  956SOL     MW 3824   2.701   2.403   2.825 -0.0938  0.4017  0.0387
  957SOL     OW 3825   2.360   2.845   0.366 -0.1114 -0.1872 -0.7555
  957SOL    HW1 3826   2.288   2.840   0.310  0.1437  0.7625  0.7562
  957SOL    HW2 3827   2.338   2.842   0.462  1.4164 -0.2465  1.1022
  957SOL     MW 3828   2.348   2.844   0.371  0.1239 -0.0697 -0.3109
  958SOL     OW 3829   2.036   2.593   2.838  0.1153  0.1951 -0.1240
  958SOL    HW1 3830   2.007   2.515   2.781 -2.5764  1.1239 -2.6569
  958SOL    HW2 3831   1.957   2.614   2.885 -0.1435  0.5389 -0.0178
  958SOL     MW 3832   2.022   2.585   2.836 -0.2740  0.3630 -0.4442
  959SOL     OW 3833   2.478   2.595   0.340  0.1723 -0.1238  0.0060
  959SOL    HW1 3834   2.552   2.611   0.281  1.1737 -0.0593 -0.8268
  959SOL    HW2 3835   2.437   2.683   0.354 -3.5068  0.3521  3.1449
  959SOL     MW 3836   2.482   2.609   0.334 -0.1810 -0.0525  0.3103
  960SOL     OW 3837   1.937   2.256   2.214 -0.6252 -0.5547  0.2118
  960SOL    HW1 3838   1.966   2.167   2.215 -0.1927  1.1688 -0.2019
  960SOL    HW2 3839   1.911   2.264   2.305 -1.1784 -0.6290  1.7610
  960SOL     MW 3840   1.937   2.246   2.226 -0.6411 -0.3371  0.3616
  961SOL     OW 3841   2.196   2.329   2.254  0.0804 -0.1909  0.4082
  961SOL    HW1 3842   2.099   2.334   2.232 -0.5282 -2.1449 -1.6468
  961SOL    HW2 3843   2.208   2.380   2.342 -1.6065 -0.5001 -1.7120
  961SOL     MW 3844   2.185   2.336   2.262 -0.2225 -0.4895 -0.1427
  962SOL     OW 3845   2.156   2.033   2.797 -0.3149  0.1941 -0.2473
  962SOL    HW1 3846   2.126   2.013   2.882 -1.5486  1.5470 -1.0825
  962SOL    HW2 3847   2.176   1.946   2.751 -1.2435 -3.4574  0.5328
  962SOL     MW 3848   2.155   2.019   2.802 -0.6002 -0.1092 -0.2546
  963SOL     OW 3849   1.830   2.589   2.072  0.1730 -0.3485 -0.3522
  963SOL    HW1 3850   1.926   2.619   2.077 -0.0854 -1.5358 -0.3404
  963SOL    HW2 3851   1.830   2.506   2.024 -0.5831  0.0049  0.7134
  963SOL     MW 3852   1.842   2.582   2.066  0.0391 -0.4585 -0.2100
  964SOL     OW 3853   1.774   1.928   2.723 -0.1427 -0.6232  0.1530
  964SOL    HW1 3854   1.828   2.000   2.691  2.3812  2.5507 -1.4128
  964SOL    HW2 3855   1.839   1.878   2.777  2.4863  3.7235 -0.1185
  964SOL     MW 3856   1.790   1.931   2.726  0.5372  0.3691 -0.0894
  965SOL     OW 3857   2.222   2.770   0.618 -0.2922  0.0050 -0.0427
  965SOL    HW1 3858   2.235   2.678   0.596  0.8567  1.8794  1.8936
  965SOL    HW2 3859   2.273   2.783   0.701  1.0240 -2.0585  1.1062
  965SOL     MW 3860   2.231   2.759   0.626  0.0331 -0.0199  0.3644
  966SOL     OW 3861   2.680   2.675   2.479  0.3325  0.0130 -0.6040
  966SOL    HW1 3862   2.624   2.736   2.435  1.5298  1.0874  0.5979
  966SOL    HW2 3863   2.670   2.587   2.440 -0.0328  0.5442  0.2568
  966SOL     MW 3864   2.671   2.671   2.468  0.4423  0.2249 -0.3318
  967SOL     OW 3865   2.777   3.039   2.899  0.3492  0.6997  0.1315
  967SOL    HW1 3866   2.758   2.960   2.949 -1.1896 -0.1430  0.5437
  967SOL    HW2 3867   2.696   3.054   2.843 -0.8605  0.4434 -1.1698
  967SOL     MW 3868   2.763   3.031   2.898 -0.0134  0.5547  0.0142
  968SOL     OW 3869   3.032   2.635   2.917 -0.4228 -0.1586 -0.2759
  968SOL    HW1 3870   2.972   2.655   2.837 -0.1735 -1.6662  1.8914
  968SOL    HW2 3871   3.079   2.550   2.899 -2.9974 -1.9533 -0.7997
  968SOL     MW 3872   3.030   2.627   2.904 -0.7296 -0.5943 -0.0590
  969SOL     OW 3873   1.569   2.134   1.642  0.6593 -1.0744 -0.6011
  969SOL    HW1 3874   1.634   2.061   1.638  0.8492  1.6804 -0.6048
  969SOL    HW2 3875   1.553   2.127   1.739 -1.3703 -0.9794 -0.7709
  969SOL     MW 3876   1.576   2.124   1.654  0.4165 -0.6984 -0.6240
  970SOL     OW 3877   1.665   1.763   1.839  0.5807  0.7550  0.3355
  970SOL    HW1 3878   1.720   1.723   1.902 -1.6873  1.4131  2.3245
  970SOL    HW2 3879   1.579   1.768   1.876  0.5751 -2.2994  2.0040
  970SOL     MW 3880   1.661   1.758   1.852  0.2807  0.4389  0.8180
  971SOL     OW 3881   1.761   3.089   2.398  0.4546 -0.0871 -0.0001
  971SOL    HW1 3882   1.765   3.067   2.305 -2.3581  1.3192  2.3756
  971SOL    HW2 3883   1.819   3.163   2.416 -0.2018 -0.2017  0.1465
  971SOL     MW 3884   1.769   3.096   2.388 -0.0031  0.0833  0.3327
  972SOL     OW 3885   0.265   2.872   2.471 -0.0950 -0.6896  0.4662
  972SOL    HW1 3886   0.330   2.799   2.472 -0.7765 -2.0899 -0.2688
  972SOL    HW2 3887   0.315   2.957   2.470  3.1306 -0.0892 -1.9492
  972SOL     MW 3888   0.280   2.873   2.471  0.2407 -0.7952  0.0506
  973SOL     OW 3889   2.526   0.018   2.067 -0.0797  0.1229  0.3208
  973SOL    HW1 3890   2.526  -0.073   2.041 -1.7282 -1.8100 -0.1992
  973SOL    HW2 3891   2.539   0.070   1.985 -1.4975  0.6144  0.0910
  973SOL     MW 3892   2.527   0.013   2.052 -0.4843 -0.0673  0.2219
  974SOL     OW 3893   2.056   0.211   2.689 -0.1385 -0.2031  0.1650
  974SOL    HW1 3894   2.146   0.195   2.662 -0.2194 -1.3034  0.8280
  974SOL    HW2 3895   2.055   0.163   2.774  2.0893  0.1238 -1.0452
  974SOL     MW 3896   2.068   0.203   2.697  0.1448 -0.3051  0.0928
  975SOL     OW 3897   2.201   2.465   2.494  0.3257  0.6196 -0.3327
  975SOL    HW1 3898   2.262   2.521   2.545  1.2772  1.2181  0.4776
  975SOL    HW2 3899   2.119   2.521   2.494  2.3743  2.1612 -0.4997
  975SOL     MW 3900   2.198   2.480   2.501  0.7216  0.9020 -0.2478
  976SOL     OW 3901   0.209   0.348   1.736 -0.7185 -0.3266 -0.1609
  976SOL    HW1 3902   0.288   0.290   1.752  0.0204  0.6943  1.2540
  976SOL    HW2 3903   0.154   0.308   1.665  1.8733  0.8912  3.5698
  976SOL     MW 3904   0.212   0.335   1.728 -0.2790 -0.0312  0.5180
  977SOL     OW 3905   1.738   2.611   2.512  0.5427  0.0895  0.4426
  977SOL    HW1 3906   1.731   2.519   2.487 -3.3513  0.9506 -1.1167
  977SOL    HW2 3907   1.826   2.636   2.497 -1.1841 -0.4846 -0.5036
  977SOL     MW 3908   1.748   2.602   2.507 -0.1989  0.1274  0.1121
   3.10000   3.10000   3.10000
