977 TIP4P/2005f water molecules t=   0.16000 step= 160
 3908
    1SOL     OW    1   0.223   0.751   0.041 -0.1118  0.9875  0.1190
    1SOL    HW1    2   0.216   0.805  -0.036 -0.5552  0.9098  1.6918
    1SOL    HW2    3   0.226   0.660   0.008  0.1738 -1.6265  1.5271
    1SOL     MW    4   0.223   0.746   0.027 -0.1326  0.6324  0.5123
    2SOL     OW    5   0.371   3.023   1.134  0.2521 -0.2492 -0.0696
    2SOL    HW1    6   0.423   3.101   1.113 -1.5096 -1.7892 -1.7117
    2SOL    HW2    7   0.284   3.060   1.153 -0.4350  1.3219  0.4644
    2SOL     MW    8   0.366   3.038   1.133 -0.0710 -0.2451 -0.2158
    3SOL     OW    9   2.723   0.387   0.881 -1.0835  0.3443  0.6233
    3SOL    HW1   10   2.717   0.473   0.824 -1.0954  0.1087 -2.1104
    3SOL    HW2   11   2.732   0.431   0.968  0.6602 -1.5687 -0.5831
    3SOL     MW   12   2.723   0.404   0.885 -0.8550  0.0608  0.1035
    4SOL     OW   13   0.005   1.753   0.666 -0.2875  1.0556 -0.2977
    4SOL    HW1   14  -0.060   1.795   0.607  2.0989  0.1098  1.4207
    4SOL    HW2   15   0.074   1.719   0.612  0.0283  1.5950 -1.5727
    4SOL     MW   16   0.005   1.754   0.651  0.0690  1.0019 -0.2392
    5SOL     OW   17   1.683   1.462   0.510  0.2886  0.2503 -0.1177
    5SOL    HW1   18   1.730   1.420   0.586 -0.3556 -0.1906  0.8227
    5SOL    HW2   19   1.593   1.455   0.546  3.6407 -0.7003  1.6398
    5SOL     MW   20   1.677   1.456   0.525  0.6459  0.0667  0.2383
    6SOL     OW   21   0.837   1.364   0.581 -0.3020  0.1835  0.2941
    6SOL    HW1   22   0.745   1.360   0.616 -2.9396  0.3261 -2.0339
    6SOL    HW2   23   0.884   1.278   0.603 -0.2241 -0.2891  0.5694
    6SOL     MW   24   0.831   1.352   0.588 -0.6398  0.1400  0.0233
    7SOL     OW   25   1.960   1.061   3.083  0.5005  0.5757  0.4662
    7SOL    HW1   26   1.965   1.144   3.034 -1.3094  0.2550 -0.9732
    7SOL    HW2   27   1.995   1.073   3.171 -0.1174 -2.4199  1.0988
    7SOL     MW   28   1.965   1.074   3.088  0.1802  0.1381  0.3597
    8SOL     OW   29   0.990   1.292   1.070 -0.5203 -0.6255  0.0019
    8SOL    HW1   30   1.091   1.294   1.077  3.7370 -2.2775 -0.0209
    8SOL    HW2   31   0.967   1.204   1.095 -0.9193  0.6591  0.4225
    8SOL     MW   32   1.000   1.281   1.075 -0.0112 -0.6740  0.0544
    9SOL     OW   33   0.998   0.497   1.414 -0.1248 -0.5035 -0.3786
    9SOL    HW1   34   0.938   0.429   1.431  0.7829 -0.2295  0.5994
    9SOL    HW2   35   1.062   0.486   1.483 -0.6089  1.1217 -0.6996
    9SOL     MW   36   0.999   0.487   1.425 -0.0689 -0.2529 -0.2919
   10SOL     OW   37   0.298   0.878   0.472 -0.1504 -0.1118  0.5813
   10SOL    HW1   38   0.395   0.882   0.454 -0.2640  2.5525  1.8361
   10SOL    HW2   39   0.271   0.932   0.546  0.7213  1.1287  1.8148
   10SOL     MW   40   0.308   0.886   0.480 -0.0504  0.4034  0.9096
   11SOL     OW   41   0.922   1.090   1.530 -0.0021  0.0108 -0.0934
   11SOL    HW1   42   0.939   1.081   1.623  1.8435  2.8217 -0.4748
   11SOL    HW2   43   0.841   1.028   1.524  1.2872 -0.9725  1.1385
   11SOL     MW   44   0.913   1.080   1.541  0.4116  0.2519  0.0188
   12SOL     OW   45   3.063   1.097   0.846  0.0251 -0.0983  0.5964
   12SOL    HW1   46   3.092   1.169   0.896  1.0878 -1.2072 -2.1698
   12SOL    HW2   47   3.025   1.131   0.765  0.5337  1.2672 -1.4773
   12SOL     MW   48   3.062   1.111   0.842  0.2324 -0.0644 -0.0422
   13SOL     OW   49   1.909   1.435   1.438  0.1385  0.5565  0.2094
   13SOL    HW1   50   1.946   1.388   1.364 -2.5078 -1.8259 -1.0315
   13SOL    HW2   51   1.912   1.526   1.413  0.5292  1.1682 -2.5144
   13SOL     MW   52   1.915   1.441   1.425 -0.1591  0.3229 -0.3137
   14SOL     OW   53   0.590   0.357   1.767  0.0070 -0.1593  0.2906
   14SOL    HW1   54   0.576   0.271   1.721 -0.4311 -0.3670  0.3496
   14SOL    HW2   55   0.661   0.348   1.829  0.8468 -1.2725  1.1706
   14SOL     MW   56   0.598   0.344   1.769  0.0600 -0.3336  0.4145
   15SOL     OW   57   1.989   0.552   0.912 -0.5077 -0.8576  0.0080
   15SOL    HW1   58   2.004   0.529   1.004  0.3556  0.6515 -0.0663
   15SOL    HW2   59   2.067   0.524   0.865 -0.8147 -2.1355  0.6343
   15SOL     MW   60   2.001   0.545   0.918 -0.4343 -0.8271  0.0808
   16SOL     OW   61   0.188   1.797   0.270  0.4196  0.4202  0.0487
   16SOL    HW1   62   0.267   1.742   0.292 -0.0809 -0.0817  0.7283
   16SOL    HW2   63   0.201   1.876   0.311 -0.1860  1.1552 -1.6574
   16SOL     MW   64   0.200   1.800   0.278  0.2737  0.4509 -0.0867
   17SOL     OW   65   1.122   0.794   1.472 -0.9145  0.5072 -0.5814
   17SOL    HW1   66   1.148   0.832   1.560  0.5043 -1.1585  0.8544
   17SOL    HW2   67   1.029   0.783   1.481 -1.1969  0.9369 -0.7663
   17SOL     MW   68   1.113   0.798   1.485 -0.7646  0.3441 -0.4164
   18SOL     OW   69  -0.000   1.560   0.380  0.1340 -0.0038  0.3497
   18SOL    HW1   70   0.063   1.614   0.337 -0.3122 -0.6832  1.2138
   18SOL    HW2   71   0.005   1.475   0.342  0.7832 -1.6536 -1.8503
   18SOL     MW   72   0.009   1.556   0.369  0.1608 -0.3111  0.1735
   19SOL     OW   73   0.083   1.248   1.031  0.6634 -0.0013 -0.0132
   19SOL    HW1   74   0.131   1.315   0.973 -1.9254  2.1086 -0.9574
   19SOL    HW2   75  -0.004   1.290   1.059  1.9735  0.6192  1.9276
   19SOL     MW   76   0.078   1.262   1.027  0.4947  0.3590  0.1183
   20SOL     OW   77   0.497   2.199   1.303 -0.5550 -0.4043 -0.1947
   20SOL    HW1   78   0.450   2.133   1.242 -1.0516 -0.2465 -3.1936
   20SOL    HW2   79   0.418   2.228   1.359 -1.0283 -0.2035  0.1789
   20SOL     MW   80   0.480   2.194   1.303 -0.6830 -0.3570 -0.5411
   21SOL     OW   81   0.561   0.901   0.344 -0.1849 -0.1966 -0.0507
   21SOL    HW1   82   0.636   0.844   0.380  1.9699 -0.1716 -0.1907
   21SOL    HW2   83   0.539   0.859   0.263 -2.0670 -2.1032  0.4107
   21SOL     MW   84   0.568   0.888   0.338 -0.1489 -0.4449 -0.0083
   22SOL     OW   85   1.569   0.605   1.132 -0.3090 -0.3140 -0.5943
   22SOL    HW1   86   1.620   0.555   1.062 -1.3435 -0.9060  0.1470
   22SOL    HW2   87   1.515   0.663   1.085  2.4869  0.0273 -0.6409
   22SOL     MW   88   1.569   0.606   1.116 -0.0766 -0.3471 -0.5026
   23SOL     OW   89   3.057   0.738   0.716  0.3061  0.4347  0.2948
   23SOL    HW1   90   3.104   0.651   0.706  0.3916 -0.7262 -0.5175
   23SOL    HW2   91   3.119   0.811   0.726 -3.6867 -0.5454 -3.3003
   23SOL     MW   92   3.071   0.736   0.716 -0.2095  0.1522 -0.2867
   24SOL     OW   93   2.088   2.185   0.024 -0.1214 -1.7199  0.4047
   24SOL    HW1   94   2.050   2.171   0.112  0.8917  0.4633  1.4723
   24SOL    HW2   95   2.118   2.102  -0.004  0.1473  0.9782  0.4450
   24SOL     MW   96   2.087   2.172   0.032  0.0477 -1.0758  0.5508
   25SOL     OW   97   0.186   1.435   0.588  0.0913 -0.6744  0.2150
   25SOL    HW1   98   0.107   1.455   0.541 -0.9496  3.8422  0.1026
   25SOL    HW2   99   0.256   1.471   0.533  1.8190 -0.4295 -1.7595
   25SOL     MW  100   0.185   1.442   0.574  0.1819 -0.0462 -0.0603
   26SOL     OW  101   2.040   0.999   0.406  0.1967 -0.5622 -0.7632
   26SOL    HW1  102   1.961   1.042   0.430  0.3976 -1.5051 -0.3799
   26SOL    HW2  103   2.063   1.051   0.321  1.9300  1.5679  1.5094
   26SOL     MW  104   2.033   1.011   0.398  0.4519 -0.4056 -0.4128
   27SOL     OW  105   1.974   1.456   0.236 -0.3057 -0.4411 -0.1569
   27SOL    HW1  106   1.908   1.387   0.260  1.3845 -2.3276 -0.3568
   27SOL    HW2  107   1.995   1.499   0.321 -1.1851  1.2657 -1.6002
   27SOL     MW  108   1.968   1.453   0.251 -0.1987 -0.4648 -0.3737
   28SOL     OW  109   0.359   0.954   1.914  0.4148  0.2266 -0.5188
   28SOL    HW1  110   0.268   0.911   1.924 -0.9491  0.0900 -0.1643
   28SOL    HW2  111   0.401   0.898   1.848  1.6352 -1.4278 -1.3591
   28SOL     MW  112   0.352   0.941   1.907  0.3959 -0.0097 -0.5829
   29SOL     OW  113   0.210   1.439   0.884  0.2078  0.8455 -0.5534
   29SOL    HW1  114   0.245   1.523   0.907 -2.0114 -1.4962  1.1585
   29SOL    HW2  115   0.225   1.432   0.789 -0.4290  1.4598 -3.2294
   29SOL     MW  116   0.217   1.449   0.875 -0.1690  0.6175 -0.6806
   30SOL     OW  117   0.932   1.023   1.155  0.4175  0.3527  0.0243
   30SOL    HW1  118   0.851   1.047   1.205  1.5336  4.4497 -0.2989
   30SOL    HW2  119   1.002   1.025   1.224  0.4121 -1.6036 -0.1544
   30SOL     MW  120   0.931   1.026   1.170  0.5640  0.6351 -0.0420
   31SOL     OW  121   0.477   0.259   0.215 -0.2252  0.0254  0.4360
   31SOL    HW1  122   0.486   0.193   0.287 -0.5549 -0.0253 -2.1038
   31SOL    HW2  123   0.442   0.197   0.145  1.3225  0.4452 -0.6153
   31SOL     MW  124   0.474   0.242   0.215 -0.0645  0.0741 -0.0378
   32SOL     OW  125   2.688   1.036   1.109  0.4132 -0.3834  0.3823
   32SOL    HW1  126   2.661   0.946   1.111 -0.8849  0.0600 -3.1303
   32SOL    HW2  127   2.784   1.029   1.105  1.1860  0.2922 -2.0031
   32SOL     MW  128   2.697   1.023   1.109  0.3439 -0.2357 -0.3959
   33SOL     OW  129   1.786   1.264   0.342 -0.3804 -0.3138 -0.1341
   33SOL    HW1  130   1.761   1.177   0.387 -0.8890  0.2595  0.5654
   33SOL    HW2  131   1.754   1.331   0.405  1.0418  0.1301 -1.0622
   33SOL     MW  132   1.779   1.261   0.356 -0.2598 -0.1796 -0.1643
   34SOL     OW  133   1.269   1.846   1.123 -0.0029  0.0750 -0.2479
   34SOL    HW1  134   1.182   1.885   1.147  0.6649  3.5739  0.9389
   34SOL    HW2  135   1.312   1.857   1.209 -2.3139  1.2545  0.2711
   34SOL     MW  136   1.263   1.853   1.138 -0.2197  0.6923 -0.0228
   35SOL     OW  137   0.369   0.030   1.862 -0.0044 -0.6188 -0.4050
   35SOL    HW1  138   0.358  -0.033   1.934  0.1146  3.1249  0.4737
   35SOL    HW2  139   0.402  -0.018   1.786  0.3369  1.5843 -2.4282
   35SOL     MW  140   0.372   0.015   1.862  0.0564  0.1658 -0.5560
   36SOL     OW  141   1.869   1.924   0.507  0.2591 -0.2556 -0.0455
   36SOL    HW1  142   1.880   1.903   0.412 -0.2940  0.4727  1.1361
   36SOL    HW2  143   1.866   1.836   0.546 -2.0776 -0.2024 -1.7974
   36SOL     MW  144   1.870   1.910   0.500 -0.1222 -0.1525 -0.1208
   37SOL     OW  145   1.783   1.996   0.957 -0.4971  0.2231 -0.2857
   37SOL    HW1  146   1.724   1.919   0.924 -1.9358 -1.1985 -1.9163
   37SOL    HW2  147   1.722   2.031   1.034 -0.5723 -1.9134  0.8134
   37SOL     MW  148   1.767   1.991   0.963 -0.6969 -0.2464 -0.3559
   38SOL     OW  149   2.854   0.906   0.224  0.1899 -0.1016  0.0939
   38SOL    HW1  150   2.905   0.917   0.310  0.7250  4.3988  0.6749
   38SOL    HW2  151   2.924   0.864   0.166  1.2727 -1.6024 -0.2299
   38SOL     MW  152   2.870   0.902   0.228  0.4034  0.2942  0.1278
   39SOL     OW  153   1.455   0.678   0.841  0.2589 -0.0454  0.0613
   39SOL    HW1  154   1.438   0.589   0.881 -2.0072  1.2224 -0.2470
   39SOL    HW2  155   1.396   0.726   0.903 -1.0531 -1.6490  1.9363
   39SOL     MW  156   1.445   0.673   0.855 -0.2132 -0.0897  0.2680
   40SOL     OW  157   1.301   1.888   0.251 -0.0181 -0.3219  0.3260
   40SOL    HW1  158   1.305   1.806   0.294 -1.2523  1.6210  0.8107
   40SOL    HW2  159   1.292   1.953   0.322  0.8029  0.8399 -0.8144
   40SOL     MW  160   1.300   1.886   0.266 -0.0726  0.0877  0.2395
   41SOL     OW  161   0.614   0.557   1.563 -0.2775 -0.1120  0.2385
   41SOL    HW1  162   0.704   0.605   1.559 -0.6826 -0.0448 -3.1184
   41SOL    HW2  163   0.620   0.491   1.626 -1.3761  1.0702  1.0786
   41SOL     MW  164   0.627   0.555   1.571 -0.4759  0.0528 -0.0936
   42SOL     OW  165   1.389   3.074   1.954 -0.1698 -0.0128 -0.0778
   42SOL    HW1  166   1.296   3.066   1.988 -1.6893  0.8808 -0.4707
   42SOL    HW2  167   1.425   2.992   1.985 -3.6009  1.2316 -1.6096
   42SOL     MW  168   1.381   3.062   1.963 -0.8230  0.2693 -0.3317
   43SOL     OW  169   1.584   0.191   1.573 -0.2775  0.5369  0.2747
   43SOL    HW1  170   1.637   0.127   1.528  0.7295 -1.5739  1.2867
   43SOL    HW2  171   1.516   0.137   1.617  1.7422  0.5287  0.7369
   43SOL     MW  172   1.582   0.176   1.573  0.1219  0.2573  0.4692
   44SOL     OW  173   1.315   0.754   1.055 -0.4097  0.1414  0.1353
   44SOL    HW1  174   1.293   0.850   1.052  0.1199  0.3103  1.2973
   44SOL    HW2  175   1.328   0.734   1.149  0.1516 -0.4144  1.0922
   44SOL     MW  176   1.314   0.764   1.067 -0.2658  0.0904  0.4149
   45SOL     OW  177   1.041   0.785   0.805  0.2767 -0.4388  0.3625
   45SOL    HW1  178   1.040   0.738   0.886  1.8764  1.6873 -0.7147
   45SOL    HW2  179   1.066   0.719   0.732  2.0965 -2.1355  0.7708
   45SOL     MW  180   1.044   0.770   0.806  0.7279 -0.3822  0.2742
   46SOL     OW  181   0.598   1.123   0.604 -0.1898 -0.2755  0.0447
   46SOL    HW1  182   0.595   1.138   0.511  0.3362  0.0384 -0.1198
   46SOL    HW2  183   0.686   1.079   0.619  1.6042 -0.4078 -1.4672
   46SOL     MW  184   0.610   1.119   0.594  0.1163 -0.2516 -0.1765
   47SOL     OW  185   0.101   1.905   1.837  0.6200  0.3861  0.1449
   47SOL    HW1  186   0.168   1.850   1.804  0.1132  1.4984  3.1163
   47SOL    HW2  187   0.115   1.897   1.930 -1.4426  0.0530  1.3843
   47SOL     MW  188   0.112   1.897   1.845  0.2810  0.4889  0.7005
   48SOL     OW  189   1.063   0.649   1.045  0.2523  0.3030  0.0627
   48SOL    HW1  190   1.028   0.681   1.131  1.3537 -2.2112  1.3325
   48SOL    HW2  191   1.148   0.702   1.040 -1.2003 -1.5215  0.3379
   48SOL     MW  192   1.070   0.660   1.056  0.2060 -0.2695  0.2665
   49SOL     OW  193   1.846   0.778   1.583  0.1582  0.0924 -0.2050
   49SOL    HW1  194   1.785   0.738   1.647 -1.9864 -0.1701  2.3816
   49SOL    HW2  195   1.905   0.700   1.565 -1.7139  1.1206  0.7163
   49SOL     MW  196   1.846   0.762   1.589 -0.3718  0.1935  0.2578
   50SOL     OW  197   1.308   1.009   0.591  0.5675 -0.2666 -0.2497
   50SOL    HW1  198   1.293   1.038   0.677 -1.2974  1.4366 -1.3378
   50SOL    HW2  199   1.331   0.911   0.598 -0.9290  0.8805  0.9328
   50SOL     MW  200   1.309   1.000   0.603  0.1240  0.1094 -0.2373
   51SOL     OW  201   0.303   2.888   0.925  0.1381 -0.4034  0.0123
   51SOL    HW1  202   0.396   2.851   0.913 -0.9627  1.6194 -0.9417
   51SOL    HW2  203   0.315   2.947   1.002  3.4262  0.5304 -0.6503
   51SOL     MW  204   0.317   2.891   0.933  0.4267 -0.0133 -0.2010
   52SOL     OW  205   0.823   1.890   0.417  0.2295 -0.2446 -0.4918
   52SOL    HW1  206   0.775   1.950   0.474 -0.5700 -0.5030 -1.5945
   52SOL    HW2  207   0.775   1.873   0.339  0.1033 -3.7728  1.8891
   52SOL     MW  208   0.810   1.895   0.414  0.1074 -0.7442 -0.3231
   53SOL     OW  209   0.343   2.037   0.607  0.1936  0.5187 -0.1121
   53SOL    HW1  210   0.316   2.036   0.516 -2.1302  0.8850  1.9146
   53SOL    HW2  211   0.369   2.143   0.621  0.9504  0.6224 -0.1751
   53SOL     MW  212   0.343   2.051   0.597 -0.0132  0.5807  0.1470
   54SOL     OW  213   2.203   0.845   0.851  0.2588 -0.4594  0.7811
   54SOL    HW1  214   2.217   0.827   0.757  0.2790  1.2210 -0.4732
   54SOL    HW2  215   2.108   0.846   0.862 -0.2314 -0.3585  1.1473
   54SOL     MW  216   2.192   0.842   0.840  0.1968 -0.2244  0.6639
   55SOL     OW  217   0.507   1.440   1.523 -0.2062  0.2618 -0.0486
   55SOL    HW1  218   0.505   1.497   1.448  0.1562  1.6439 -0.3206
   55SOL    HW2  219   0.599   1.409   1.515  1.2978 -2.2345 -1.1257
   55SOL     MW  220   0.519   1.443   1.512  0.0401  0.1148 -0.2266
   56SOL     OW  221   0.467   0.802   0.112  0.2954 -0.4396  0.0489
   56SOL    HW1  222   0.491   0.868   0.051  2.6226  0.6233  1.4585
   56SOL    HW2  223   0.376   0.773   0.094  1.3348 -1.3302 -1.1653
   56SOL     MW  224   0.458   0.807   0.102  0.7396 -0.4169  0.0747
   57SOL     OW  225   1.262   1.227   1.137 -0.0484 -0.1548 -0.3412
   57SOL    HW1  226   1.348   1.269   1.156 -1.0619  0.0794  0.0423
   57SOL    HW2  227   1.243   1.164   1.212 -0.5716  0.1715  0.5710
   57SOL     MW  228   1.271   1.224   1.149 -0.2512 -0.0808 -0.1702
   58SOL     OW  229   0.691   1.090   1.259 -0.0338  0.4192  0.1683
   58SOL    HW1  230   0.633   1.160   1.231  0.5634 -1.5849  0.7307
   58SOL    HW2  231   0.662   1.074   1.349  0.3696 -0.9442 -0.6348
   58SOL     MW  232   0.680   1.097   1.267  0.0982 -0.0251  0.1366
   59SOL     OW  233   1.547   1.588   0.271 -0.3790  0.3227 -0.1755
   59SOL    HW1  234   1.592   1.522   0.328  1.3234 -1.4971  0.9862
   59SOL    HW2  235   1.483   1.615   0.337  1.2549 -0.6401  1.8111
   59SOL     MW  236   1.544   1.583   0.287  0.0612 -0.0444  0.2399
   60SOL     OW  237   0.015   0.156   1.703 -0.0405 -0.3345 -0.2771
   60SOL    HW1  238  -0.076   0.183   1.685 -1.0255  1.5390 -2.1009
   60SOL    HW2  239   0.020   0.060   1.704 -1.1006  1.3585  0.1183
   60SOL     MW  240   0.003   0.147   1.701 -0.3103  0.1360 -0.4655
   61SOL     OW  241   2.016   1.463   3.054 -0.2650  0.0540 -0.0420
   61SOL    HW1  242   2.026   1.463   3.147 -0.4272 -0.5616 -1.0409
   61SOL    HW2  243   2.051   1.375   3.016  1.5507 -1.6968  2.1891
   61SOL     MW  244   2.022   1.452   3.061 -0.0468 -0.2582  0.1206
   62SOL     OW  245   0.601   1.654   0.557  0.1976  0.4115 -0.7776
   62SOL    HW1  246   0.653   1.625   0.488  0.0420 -2.1236  1.4097
   62SOL    HW2  247   0.591   1.582   0.624 -0.2296 -0.7257  0.9087
   62SOL     MW  248   0.606   1.640   0.557  0.1207 -0.0730 -0.2665
   63SOL     OW  249   1.718   0.755   0.737 -0.2116 -0.6999 -0.0050
   63SOL    HW1  250   1.685   0.736   0.650 -1.9191  2.2856 -0.2060
   63SOL    HW2  251   1.650   0.753   0.801  0.6124  1.1667  1.1674
   63SOL     MW  252   1.705   0.752   0.734 -0.3282 -0.0597  0.1231
   64SOL     OW  253   0.297   1.693   0.990 -0.2146 -0.3547  0.5961
   64SOL    HW1  254   0.365   1.710   0.919  3.3327 -0.4893 -0.1686
   64SOL    HW2  255   0.251   1.771   1.009 -0.7595 -0.4485 -0.3900
   64SOL     MW  256   0.300   1.705   0.983  0.1816 -0.3848  0.3651
   65SOL     OW  257   1.518   2.213   0.318 -0.2820 -0.2533 -0.1270
   65SOL    HW1  258   1.587   2.190   0.253  1.3303  1.1847  0.1040
   65SOL    HW2  259   1.541   2.283   0.383 -2.3532  2.4628  4.0638
   65SOL     MW  260   1.530   2.219   0.318 -0.3426  0.2948  0.4564
   66SOL     OW  261   0.297   0.584   0.523 -0.0374  0.0302  0.3681
   66SOL    HW1  262   0.361   0.548   0.459 -1.4025  0.8967  3.2995
   66SOL    HW2  263   0.293   0.677   0.509  2.3242 -1.1523 -1.4150
   66SOL     MW  264   0.305   0.592   0.513  0.0941 -0.0115  0.5196
   67SOL     OW  265   1.541   0.199   2.006 -0.5847 -0.3665  0.5446
   67SOL    HW1  266   1.582   0.232   1.927  1.2968 -0.2907 -1.4835
   67SOL    HW2  267   1.493   0.120   1.977 -1.5552 -1.7038 -0.2427
   67SOL     MW  268   1.540   0.193   1.992 -0.4645 -0.5329  0.1731
   68SOL     OW  269   0.688   0.091   2.985 -0.6970 -0.2202  0.5061
   68SOL    HW1  270   0.741   0.079   2.905  0.7401  0.0388 -1.7936
   68SOL    HW2  271   0.672   0.187   2.991  1.2823  2.7934 -0.2548
   68SOL     MW  272   0.693   0.102   2.975 -0.2462  0.2116  0.1023
   69SOL     OW  273   1.012   0.168   1.961  0.3127  0.7148  0.2417
   69SOL    HW1  274   1.068   0.212   2.024  1.4631  1.1128 -0.2050
   69SOL    HW2  275   1.040   0.071   1.965 -1.6960 -1.1939 -0.8947
   69SOL     MW  276   1.023   0.161   1.970  0.1995  0.5154  0.0328
   70SOL     OW  277   0.570   1.796   1.142 -0.1197  0.0504 -0.4197
   70SOL    HW1  278   0.585   1.711   1.186  1.4418 -1.0305 -1.3444
   70SOL    HW2  279   0.644   1.804   1.072 -0.4193 -0.5031  0.4207
   70SOL     MW  280   0.582   1.786   1.138  0.0468 -0.1652 -0.4308
   71SOL     OW  281   1.793   0.702   1.297  0.0702  0.3126 -0.5273
   71SOL    HW1  282   1.775   0.680   1.388  0.2724 -2.1959 -1.5430
   71SOL    HW2  283   1.708   0.692   1.257 -0.9490 -0.0518 -1.9618
   71SOL     MW  284   1.780   0.698   1.304 -0.0376 -0.0665 -0.8506
   72SOL     OW  285   0.820   1.838   1.021 -0.3550 -0.3992 -0.4931
   72SOL    HW1  286   0.811   1.901   0.949 -1.7824  0.9585 -0.8209
   72SOL    HW2  287   0.851   1.758   0.985  0.8468  0.1684 -0.1263
   72SOL     MW  288   0.823   1.835   1.006 -0.3848 -0.1452 -0.4879
   73SOL     OW  289   1.314   0.664   1.315 -0.5981  0.4399 -0.0371
   73SOL    HW1  290   1.294   0.572   1.302 -0.1619  0.2162 -1.2777
   73SOL    HW2  291   1.236   0.700   1.362 -0.5298  0.9351 -1.0455
   73SOL     MW  292   1.301   0.657   1.320 -0.5315  0.4757 -0.3339
   74SOL     OW  293   2.770   0.101   1.008 -0.3271 -0.0776 -0.2641
   74SOL    HW1  294   2.764   0.022   0.958  1.1290 -0.1467 -0.4128
   74SOL    HW2  295   2.785   0.174   0.946 -0.3750 -0.4629  1.3555
   74SOL     MW  296   2.771   0.100   0.993 -0.1413 -0.1376 -0.0700
   75SOL     OW  297   1.673   1.297   0.093  0.2434  0.5366  0.0011
   75SOL    HW1  298   1.716   1.276   0.181  0.2900 -0.3989  0.4818
   75SOL    HW2  299   1.666   1.209   0.053  0.3686 -2.1022 -2.3689
   75SOL     MW  300   1.678   1.282   0.099  0.2661  0.0650 -0.2481
   76SOL     OW  301   2.939   0.633   0.479 -0.5359  0.2057  0.5756
   76SOL    HW1  302   2.973   0.675   0.559  0.9744  0.2721 -2.2721
   76SOL    HW2  303   3.017   0.601   0.425  2.1963  0.8454  1.2269
   76SOL     MW  304   2.954   0.634   0.482  0.0238  0.2989  0.2858
   77SOL     OW  305   0.897   0.429   0.525  0.1644 -0.3265 -0.0077
   77SOL    HW1  306   0.841   0.503   0.544 -1.4332 -0.3941  1.4436
   77SOL    HW2  307   0.820   0.365   0.518 -0.6452  0.2368 -1.3052
   77SOL     MW  308   0.879   0.430   0.526 -0.1532 -0.2611  0.0126
   78SOL     OW  309   0.838   0.756   1.227 -0.5309 -0.1469 -0.1192
   78SOL    HW1  310   0.763   0.732   1.172  0.7792  2.2420  1.2378
   78SOL    HW2  311   0.857   0.848   1.206  0.4450 -0.4219  0.8047
   78SOL     MW  312   0.830   0.765   1.217 -0.2293  0.1320  0.1818
   79SOL     OW  313   1.824   1.665   0.599  0.2181  0.0143  0.1690
   79SOL    HW1  314   1.767   1.606   0.551  1.1326  0.8145 -0.5711
   79SOL    HW2  315   1.821   1.652   0.693 -2.6821  0.4811 -1.4019
   79SOL     MW  316   1.816   1.655   0.605 -0.0439  0.1815 -0.1359
   80SOL     OW  317   0.155   1.009   0.253  0.1630 -0.4166 -0.2896
   80SOL    HW1  318   0.080   0.955   0.290 -2.5037 -0.8444  1.5285
   80SOL    HW2  319   0.231   1.002   0.317  0.7455 -1.1269  0.9088
   80SOL     MW  320   0.155   1.001   0.267 -0.1120 -0.5667  0.1084
   81SOL     OW  321   1.941   1.900   0.245  0.4513 -0.4054  0.8642
   81SOL    HW1  322   1.873   1.831   0.231 -1.3801 -0.3330 -2.2022
   81SOL    HW2  323   1.897   1.986   0.215  2.5553 -1.5805 -0.5943
   81SOL     MW  324   1.926   1.903   0.239  0.4872 -0.5509  0.2672
   82SOL     OW  325   0.849   0.915   0.550 -0.7168 -0.2998  0.0734
   82SOL    HW1  326   0.934   0.907   0.501 -0.0399 -0.1430 -0.0354
   82SOL    HW2  327   0.819   0.828   0.540 -3.3187  2.5587 -0.6431
   82SOL     MW  328   0.857   0.902   0.542 -0.9708  0.0980 -0.0355
   83SOL     OW  329   0.094   0.637   1.387  0.0018 -0.1958 -0.0996
   83SOL    HW1  330   0.119   0.712   1.342  0.4221 -0.8312  0.7388
   83SOL    HW2  331   0.182   0.598   1.397  2.5486  2.8029 -0.8502
   83SOL     MW  332   0.109   0.642   1.382  0.3933  0.1160 -0.0880
   84SOL     OW  333   0.039   0.292   1.073 -0.2654  0.1506 -0.3679
   84SOL    HW1  334  -0.024   0.292   0.998 -0.0421  1.1187 -0.7908
   84SOL    HW2  335   0.050   0.198   1.095  0.6769 -0.9228  0.9196
   84SOL     MW  336   0.032   0.279   1.066 -0.1116  0.1367 -0.2539
   85SOL     OW  337   0.432   0.422   0.724 -0.3658  0.3465  0.1126
   85SOL    HW1  338   0.378   0.460   0.656 -2.5054  0.3253 -3.8800
   85SOL    HW2  339   0.396   0.331   0.737  1.0397 -0.3914  2.2652
   85SOL     MW  340   0.420   0.415   0.717 -0.4626  0.2464 -0.1302
   86SOL     OW  341   1.147   0.411   1.181  0.2419  0.2832 -0.7830
   86SOL    HW1  342   1.103   0.492   1.136 -1.2085  0.9587  0.4875
   86SOL    HW2  343   1.088   0.394   1.254  1.6733  1.9744  0.2592
   86SOL     MW  344   1.134   0.419   1.185  0.2394  0.5955 -0.4779
   87SOL     OW  345   1.262   1.427   1.357  0.0064  0.6781 -0.4092
   87SOL    HW1  346   1.285   1.478   1.281 -0.7256  0.1869 -1.1789
   87SOL    HW2  347   1.225   1.344   1.323 -1.5016  0.1543 -1.3452
   87SOL     MW  348   1.260   1.423   1.342 -0.2891  0.5442 -0.6343
   88SOL     OW  349   1.361   0.999   1.000  0.1389  0.2173  0.0715
   88SOL    HW1  350   1.452   0.979   1.003 -2.8648 -1.3527 -1.4578
   88SOL    HW2  351   1.350   1.076   1.053  0.1872 -1.4444  1.5044
   88SOL     MW  352   1.371   1.007   1.007 -0.2510 -0.2091  0.0588
   89SOL     OW  353   1.774   0.575   0.285 -0.6171  0.0925 -0.0304
   89SOL    HW1  354   1.842   0.508   0.307 -0.0084  0.1704 -0.9063
   89SOL    HW2  355   1.837   0.641   0.242  0.8568 -0.7911 -0.4181
   89SOL     MW  356   1.791   0.575   0.282 -0.3423 -0.0138 -0.1971
   90SOL     OW  357   0.727   1.251   2.830 -0.4801 -0.3493 -0.1345
   90SOL    HW1  358   0.784   1.213   2.761  0.7345  1.0603  0.0421
   90SOL    HW2  359   0.748   1.211   2.911 -0.9828  2.0600 -3.0521
   90SOL     MW  360   0.737   1.241   2.832 -0.3861  0.1545 -0.4962
   91SOL     OW  361   1.999   0.728   0.469  1.1967 -0.0839  0.2588
   91SOL    HW1  362   1.996   0.811   0.421 -0.8909 -2.1106  2.9308
   91SOL    HW2  363   1.916   0.687   0.463 -0.6529  0.7445  0.8812
   91SOL     MW  364   1.987   0.734   0.462  0.6772 -0.2420  0.6934
   92SOL     OW  365   1.661   0.743   0.452  0.0063  0.2992 -0.2867
   92SOL    HW1  366   1.566   0.749   0.461 -1.0632  1.4598  1.7072
   92SOL    HW2  367   1.689   0.690   0.371 -0.3400  0.0675 -0.6188
   92SOL     MW  368   1.652   0.737   0.442 -0.1805  0.4217 -0.0674
   93SOL     OW  369   1.034   0.222   0.376  0.1307  0.6031 -0.5329
   93SOL    HW1  370   0.991   0.299   0.416  0.7320 -0.6329 -0.4362
   93SOL    HW2  371   1.002   0.214   0.284  0.8238 -0.0477 -1.2829
   93SOL     MW  372   1.024   0.231   0.369  0.3015  0.3542 -0.6191
   94SOL     OW  373   1.966   1.265   1.693 -0.2839 -0.2935 -0.2443
   94SOL    HW1  374   1.928   1.292   1.610 -0.2024 -2.1838 -1.2543
   94SOL    HW2  375   1.890   1.206   1.717 -1.0349 -0.8377 -1.2874
   94SOL     MW  376   1.951   1.261   1.685 -0.3722 -0.6147 -0.5152
   95SOL     OW  377   0.930   1.552   1.008 -0.0344 -0.0728 -0.0692
   95SOL    HW1  378   0.971   1.471   1.027 -0.1910  1.9644  0.7111
   95SOL    HW2  379   0.859   1.552   1.063 -1.8014 -0.7625 -2.6186
   95SOL     MW  380   0.926   1.541   1.018 -0.2882  0.1050 -0.3026
   96SOL     OW  381   1.255   1.785   1.660  0.4633  0.3042 -0.4101
   96SOL    HW1  382   1.168   1.786   1.695  2.6712 -3.3423 -3.6267
   96SOL    HW2  383   1.261   1.717   1.593  0.3418  3.3096 -0.3010
   96SOL     MW  384   1.245   1.776   1.656  0.7385  0.2196 -0.8201
   97SOL     OW  385   1.284   1.446   0.820  0.4094  0.1064 -0.4734
   97SOL    HW1  386   1.306   1.502   0.900 -0.3269  0.8732  1.1222
   97SOL    HW2  387   1.201   1.478   0.784  2.0028 -1.6570  1.3170
   97SOL     MW  388   1.276   1.458   0.826  0.5225 -0.0251 -0.0266
   98SOL     OW  389   1.519   1.283   1.165  0.0961  0.2897  0.1448
   98SOL    HW1  390   1.541   1.356   1.222 -1.8018  0.9502 -0.0933
   98SOL    HW2  391   1.567   1.296   1.083  1.2505 -1.5028  0.2063
   98SOL     MW  392   1.528   1.294   1.162 -0.0020  0.1404  0.1215
   99SOL     OW  393   1.506   0.338   1.254  0.6771 -0.9006  0.3387
   99SOL    HW1  394   1.523   0.436   1.233  1.4328 -0.0733  0.4345
   99SOL    HW2  395   1.488   0.352   1.344  0.0253 -2.9745 -2.9498
   99SOL     MW  396   1.506   0.353   1.263  0.6908 -1.0651 -0.0826
  100SOL     OW  397   1.134   1.059   1.337 -0.6137 -0.5402  0.2895
  100SOL    HW1  398   1.079   1.101   1.404  1.0494 -0.6807 -0.7984
  100SOL    HW2  399   1.146   0.967   1.374  0.5951  0.4682 -1.1052
  100SOL     MW  400   1.128   1.053   1.351 -0.2348 -0.4257 -0.0381
  101SOL     OW  401   0.626   1.167   0.331 -0.2091  0.3631  0.1679
  101SOL    HW1  402   0.620   1.065   0.329  1.4984 -0.5409 -0.2498
  101SOL    HW2  403   0.618   1.192   0.238 -0.8457 -1.1142 -1.3451
  101SOL     MW  404   0.624   1.157   0.319 -0.0678  0.0489 -0.0869
  102SOL     OW  405   2.951   0.589   0.928  0.4453 -0.1068  0.4399
  102SOL    HW1  406   3.013   0.660   0.897 -0.8025 -1.8161  2.9232
  102SOL    HW2  407   2.975   0.576   1.022 -0.0096 -1.6333  1.0370
  102SOL     MW  408   2.963   0.597   0.936  0.2206 -0.5337  0.8463
  103SOL     OW  409   1.627   0.368   1.797  0.3840  0.5449  0.6885
  103SOL    HW1  410   1.638   0.332   1.710 -0.4197  0.4605 -3.0504
  103SOL    HW2  411   1.719   0.355   1.830 -1.1598  1.9909  0.7863
  103SOL     MW  412   1.640   0.362   1.790  0.0743  0.7246  0.2081
  104SOL     OW  413   0.092   1.837   1.512  0.0175 -0.1058 -0.1392
  104SOL    HW1  414   0.163   1.786   1.470  1.4687  1.4475 -1.7989
  104SOL    HW2  415   0.063   1.797   1.586  1.1276  1.6653 -2.5887
  104SOL     MW  416   0.098   1.825   1.516  0.3555  0.3328 -0.6814
  105SOL     OW  417   0.162   1.167   0.524 -0.1583  0.2526 -0.6009
  105SOL    HW1  418   0.136   1.193   0.439  0.7458 -2.2361 -0.4055
  105SOL    HW2  419   0.203   1.245   0.568  1.1935  2.0653 -1.5258
  105SOL     MW  420   0.164   1.181   0.519  0.1394  0.1634 -0.6972
  106SOL     OW  421   0.864   0.344   0.931  0.2493 -0.5227 -0.1094
  106SOL    HW1  422   0.807   0.415   0.894  0.6686  0.0922  1.0979
  106SOL    HW2  423   0.948   0.361   0.893  4.3905  0.5851  1.3305
  106SOL     MW  424   0.868   0.355   0.921  0.8510 -0.2954  0.2399
  107SOL     OW  425   0.797   2.213   3.058 -0.0520  0.1151 -0.2908
  107SOL    HW1  426   0.750   2.150   3.005  0.9255 -0.6034  2.6791
  107SOL    HW2  427   0.873   2.160   3.088  0.3918  1.1905  1.6244
  107SOL     MW  428   0.801   2.198   3.055  0.1356  0.1622  0.3538
  108SOL     OW  429   1.409   1.583   1.527  0.0738 -0.0795 -0.2263
  108SOL    HW1  430   1.350   1.516   1.478 -1.7941 -1.0761 -2.1361
  108SOL    HW2  431   1.461   1.529   1.586  1.0713 -3.2827  0.3922
  108SOL     MW  432   1.408   1.567   1.528 -0.0410 -0.6336 -0.3967
  109SOL     OW  433   1.954   0.741   0.151  0.0037 -0.4031 -0.4138
  109SOL    HW1  434   1.931   0.753   0.061  0.3075  0.4236 -2.1296
  109SOL    HW2  435   2.036   0.791   0.159  0.4387 -0.6251 -1.4206
  109SOL     MW  436   1.961   0.749   0.140  0.1012 -0.3233 -0.7730
  110SOL     OW  437   0.409   1.774   0.728 -0.4827  0.1932 -0.2873
  110SOL    HW1  438   0.488   1.758   0.674 -0.8526  1.2912  1.3369
  110SOL    HW2  439   0.366   1.855   0.694  0.6934 -0.1428  0.1802
  110SOL     MW  440   0.414   1.783   0.716 -0.3763  0.2937 -0.0113
  111SOL     OW  441   0.698   0.941   1.520  0.1745 -0.2229 -0.1058
  111SOL    HW1  442   0.748   0.856   1.502  1.3633  0.2746 -0.3570
  111SOL    HW2  443   0.625   0.903   1.575  1.3938  1.0704  2.1501
  111SOL     MW  444   0.695   0.924   1.525  0.4922  0.0134  0.1587
  112SOL     OW  445   1.292   1.126   1.604 -0.1423 -0.2893  0.1894
  112SOL    HW1  446   1.209   1.182   1.627 -1.3002  0.6516 -1.8217
  112SOL    HW2  447   1.273   1.039   1.633  1.1767 -1.1831  1.3188
  112SOL     MW  448   1.278   1.122   1.611 -0.1210 -0.2831  0.0731
  113SOL     OW  449   1.357   0.067   1.690  0.7953  0.4356 -0.4321
  113SOL    HW1  450   1.380   0.037   1.774 -1.0487  0.8871 -2.9373
  113SOL    HW2  451   1.349  -0.002   1.629  0.1714  0.4858 -0.3182
  113SOL     MW  452   1.359   0.054   1.693  0.4697  0.5018 -0.7476
  114SOL     OW  453   0.454   2.811   1.863 -0.2211 -0.0189 -0.0404
  114SOL    HW1  454   0.446   2.871   1.939 -1.2030  0.4313  1.4387
  114SOL    HW2  455   0.434   2.871   1.788  2.3190  1.1859  0.4096
  114SOL     MW  456   0.451   2.827   1.863 -0.0155  0.1995  0.2142
  115SOL     OW  457   0.398   0.849   1.052  0.4459 -0.0389  0.3937
  115SOL    HW1  458   0.466   0.783   1.075  0.1106  0.8623  1.2753
  115SOL    HW2  459   0.372   0.891   1.132 -1.2812 -0.4834 -1.6747
  115SOL     MW  460   0.404   0.846   1.066  0.1738  0.0214  0.2371
  116SOL     OW  461   0.791   0.985   0.901  0.6696  0.2821 -0.0992
  116SOL    HW1  462   0.845   1.003   0.825  0.3578  2.3368 -1.2802
  116SOL    HW2  463   0.864   0.988   0.962 -0.4133  0.1475 -1.5411
  116SOL     MW  464   0.808   0.988   0.899  0.4856  0.5354 -0.4453
  117SOL     OW  465   1.213   1.132   0.829  0.1219 -1.0334  0.0303
  117SOL    HW1  466   1.274   1.077   0.885  0.2954  2.5721 -1.9500
  117SOL    HW2  467   1.241   1.220   0.864  0.7764 -0.0321  0.6572
  117SOL     MW  468   1.225   1.137   0.841  0.2312 -0.4256 -0.1483
  118SOL     OW  469   3.091   2.981   1.733 -0.1244  0.5866  0.6143
  118SOL    HW1  470   3.113   3.011   1.819  2.3828 -1.8133 -0.1536
  118SOL    HW2  471   2.996   2.976   1.719  1.1074  0.2813 -0.3104
  118SOL     MW  472   3.081   2.985   1.742  0.3689  0.2297  0.3910
  119SOL     OW  473   0.520   1.322   1.236  0.1631 -0.2225 -0.1073
  119SOL    HW1  474   0.502   1.362   1.146  2.0438  0.8315  0.4697
  119SOL    HW2  475   0.433   1.297   1.267  3.0168 -0.5646 -1.8803
  119SOL     MW  476   0.506   1.324   1.228  0.7878 -0.1286 -0.2651
  120SOL     OW  477   0.185   0.604   0.950  0.4566  0.2365 -0.0185
  120SOL    HW1  478   0.190   0.561   1.034 -1.1844 -0.6722  1.7032
  120SOL    HW2  479   0.241   0.684   0.959 -0.0709  1.8038 -1.5385
  120SOL     MW  480   0.193   0.609   0.962  0.1705  0.3234  0.0081
  121SOL     OW  481   1.785   1.056   1.735 -0.4771  0.0973 -0.1942
  121SOL    HW1  482   1.725   1.039   1.658  0.3498  2.3730  0.7660
  121SOL    HW2  483   1.829   0.973   1.726  1.4197 -2.0049  1.0862
  121SOL     MW  484   1.783   1.043   1.724 -0.1178  0.1202  0.1014
  122SOL     OW  485   0.096   0.499   0.707  0.2109  0.4566 -0.2839
  122SOL    HW1  486   0.168   0.515   0.647  0.0399  1.6373  0.6407
  122SOL    HW2  487   0.123   0.542   0.793 -2.4808  0.6254  0.4394
  122SOL     MW  488   0.109   0.507   0.710 -0.1668  0.6347 -0.0664
  123SOL     OW  489   1.753   1.030   0.483  0.6716  0.0372  0.0850
  123SOL    HW1  490   1.743   0.938   0.451 -0.7025 -0.1802 -0.9579
  123SOL    HW2  491   1.786   1.031   0.570 -2.0511 -1.4886  0.0744
  123SOL     MW  492   1.756   1.018   0.490  0.1311 -0.1928 -0.0540
  124SOL     OW  493   0.661   0.515   0.839 -0.2334 -0.2325 -0.7310
  124SOL    HW1  494   0.586   0.469   0.802 -1.0773  1.3184  0.0771
  124SOL    HW2  495   0.652   0.599   0.796 -0.6116 -0.2390  0.7702
  124SOL     MW  496   0.650   0.520   0.829 -0.3946 -0.0288 -0.4263
  125SOL     OW  497   0.648   1.682   1.665  0.7728  0.3942  0.1593
  125SOL    HW1  498   0.564   1.641   1.631 -3.3871 -0.8480 -1.5520
  125SOL    HW2  499   0.630   1.774   1.673  1.0150 -0.5918 -0.1558
  125SOL     MW  500   0.635   1.689   1.662  0.2559  0.1002 -0.1081
  126SOL     OW  501   2.117   1.601   2.019 -0.3401  0.0599 -0.0020
  126SOL    HW1  502   2.169   1.674   1.988  1.2710 -1.1339  0.4835
  126SOL    HW2  503   2.185   1.529   2.008 -1.1726  0.3897 -0.5366
  126SOL     MW  504   2.133   1.601   2.014 -0.2374 -0.0541 -0.0085
  127SOL     OW  505   0.607   0.704   1.891 -0.0220  0.4079  0.0012
  127SOL    HW1  506   0.674   0.641   1.925  2.4362  2.4071  0.8375
  127SOL    HW2  507   0.623   0.787   1.936 -0.9053  1.2670  3.0586
  127SOL     MW  508   0.618   0.706   1.902  0.1858  0.7850  0.5150
  128SOL     OW  509   1.726   0.764   2.872  0.6898  0.0562  0.0146
  128SOL    HW1  510   1.752   0.721   2.792 -0.7204  0.1727  1.3728
  128SOL    HW2  511   1.712   0.853   2.833  0.1017 -0.0928 -1.2817
  128SOL     MW  512   1.728   0.770   2.856  0.4261  0.0519  0.0227
  129SOL     OW  513   1.520   0.916   0.217 -0.7293  0.9214  0.1185
  129SOL    HW1  514   1.468   0.863   0.151  0.0292 -0.5880 -2.4952
  129SOL    HW2  515   1.529   0.866   0.298 -0.5799 -2.7846  0.0874
  129SOL     MW  516   1.514   0.902   0.219 -0.6095  0.2333 -0.2304
  130SOL     OW  517   0.761   1.510   0.363 -0.4281 -0.3517  0.4315
  130SOL    HW1  518   0.788   1.452   0.430 -0.4016 -0.5629  1.8335
  130SOL    HW2  519   0.848   1.535   0.316  1.1602  0.2201  0.7668
  130SOL     MW  520   0.776   1.506   0.366 -0.2150 -0.3041  0.6607
  131SOL     OW  521   3.059   0.816   0.056  0.5077 -0.0361 -0.3572
  131SOL    HW1  522   3.049   0.885  -0.024 -0.4002 -1.5807 -2.2130
  131SOL    HW2  523   3.154   0.801   0.059  2.3837  0.3354  0.0512
  131SOL     MW  524   3.070   0.823   0.045  0.6354 -0.1909 -0.5482
  132SOL     OW  525   2.682   0.139   1.265 -0.0292  0.8164 -0.0513
  132SOL    HW1  526   2.701   0.124   1.168  0.9543  0.2473  0.0407
  132SOL    HW2  527   2.588   0.141   1.275 -0.3034  1.0245 -0.2543
  132SOL     MW  528   2.672   0.137   1.253  0.0644  0.7687 -0.0660
  133SOL     OW  529   1.135   0.205   1.707 -0.3981  0.2204  0.0310
  133SOL    HW1  530   1.215   0.152   1.711 -3.2398 -2.0481  2.7328
  133SOL    HW2  531   1.107   0.198   1.799  0.9750 -1.4344  1.4556
  133SOL     MW  532   1.142   0.197   1.720 -0.5918 -0.2972  0.5755
  134SOL     OW  533   1.380   2.510   1.409 -0.2143 -0.1401  0.1540
  134SOL    HW1  534   1.322   2.581   1.396  3.9427 -0.8253  1.8863
  134SOL    HW2  535   1.421   2.530   1.493 -1.0668 -0.5167 -1.5945
  134SOL     MW  536   1.378   2.522   1.418  0.2217 -0.2802  0.1519
  135SOL     OW  537   3.046   1.002   2.963  0.1942 -0.3559 -0.4368
  135SOL    HW1  538   3.125   1.061   2.950  0.0430  0.8371  1.2167
  135SOL    HW2  539   2.982   1.077   2.962  2.6660 -1.4456  0.7641
  135SOL     MW  540   3.048   1.020   2.962  0.5003 -0.3422 -0.0602
  136SOL     OW  541   0.260   2.049   0.857  0.3708 -0.4615  0.5215
  136SOL    HW1  542   0.179   1.996   0.874  1.2512 -0.0875 -3.1913
  136SOL    HW2  543   0.283   2.031   0.769  0.2071 -2.7446  1.2647
  136SOL     MW  544   0.252   2.040   0.848  0.4654 -0.7134  0.1297
  137SOL     OW  545   0.666   2.059   0.583 -0.1349 -0.7483 -0.3784
  137SOL    HW1  546   0.712   2.052   0.670 -1.8807 -1.0803  0.8791
  137SOL    HW2  547   0.583   2.029   0.606  0.9784  0.6146  1.7766
  137SOL     MW  548   0.661   2.054   0.598 -0.2183 -0.6123  0.0718
  138SOL     OW  549   0.554   0.599   1.079  0.5685 -0.4140 -0.1382
  138SOL    HW1  550   0.463   0.572   1.062 -1.6772  1.5584 -1.2323
  138SOL    HW2  551   0.602   0.553   1.011  0.7599 -0.0084  4.0476
  138SOL     MW  552   0.548   0.589   1.068  0.2975 -0.1002  0.2697
  139SOL     OW  553   2.738   0.559   1.425  0.7755  0.1830  0.0021
  139SOL    HW1  554   2.775   0.474   1.413 -1.1182  0.5369  0.3586
  139SOL    HW2  555   2.815   0.626   1.423 -0.2013  0.0829 -0.8576
  139SOL     MW  556   2.753   0.557   1.423  0.3968  0.2165 -0.0643
  140SOL     OW  557   0.851   0.300   2.148  0.1577 -0.1844 -1.1634
  140SOL    HW1  558   0.894   0.245   2.072 -2.2559  2.2256 -3.2898
  140SOL    HW2  559   0.907   0.289   2.225  3.8402 -0.2505  2.2487
  140SOL     MW  560   0.864   0.292   2.148  0.3251  0.1249 -0.9938
  141SOL     OW  561   1.006   0.656   1.765 -0.2843 -0.4431 -0.2046
  141SOL    HW1  562   1.067   0.588   1.732  0.3047  0.4427 -0.2168
  141SOL    HW2  563   1.071   0.722   1.756  1.7927 -1.4953  0.7798
  141SOL     MW  564   1.022   0.656   1.760  0.0674 -0.4651 -0.0763
  142SOL     OW  565   0.956   1.123   0.695 -0.5754  0.3454  0.2697
  142SOL    HW1  566   0.956   1.039   0.652  1.5566  3.4954  1.9984
  142SOL    HW2  567   1.043   1.121   0.742 -1.5266  0.6399  0.2779
  142SOL     MW  568   0.968   1.112   0.696 -0.4196  0.7999  0.4989
  143SOL     OW  569   1.902   0.912   1.157 -0.1644  0.1795 -0.8216
  143SOL    HW1  570   1.904   0.891   1.062 -0.3494  0.0535 -0.3172
  143SOL    HW2  571   1.855   0.838   1.199 -0.4964 -2.0144 -1.4118
  143SOL     MW  572   1.896   0.900   1.150 -0.2326 -0.1266 -0.8329
  144SOL     OW  573   0.189   1.193   1.553 -0.2504 -0.9753  0.4240
  144SOL    HW1  574   0.279   1.155   1.543  0.5165 -0.4612  1.8852
  144SOL    HW2  575   0.176   1.199   1.650  0.6506 -0.2187  0.3225
  144SOL     MW  576   0.199   1.189   1.564 -0.0303 -0.8076  0.6034
  145SOL     OW  577   0.265   0.442   1.160 -0.0089  0.4036 -0.1378
  145SOL    HW1  578   0.310   0.372   1.212 -0.4410  1.1548  0.7399
  145SOL    HW2  579   0.197   0.394   1.121  2.2393  1.4121 -1.5502
  145SOL     MW  580   0.262   0.426   1.162  0.2307  0.6357 -0.2084
  146SOL     OW  581   0.868   1.936   1.386  0.0689 -0.4546 -0.2162
  146SOL    HW1  582   0.908   1.939   1.293 -0.7417 -1.1667 -0.1023
  146SOL    HW2  583   0.771   1.942   1.384  0.5974  0.1954  1.1426
  146SOL     MW  584   0.861   1.937   1.373  0.0317 -0.4628 -0.0219
  147SOL     OW  585   0.396   0.412   2.835 -0.3529 -0.4786 -0.5017
  147SOL    HW1  586   0.359   0.445   2.914 -3.6960  0.2157  0.9555
  147SOL    HW2  587   0.361   0.473   2.768  0.5426  1.4298  1.8304
  147SOL     MW  588   0.386   0.425   2.837 -0.6759 -0.1352 -0.0018
  148SOL     OW  589   0.025   0.886   1.282 -0.5341  0.6917 -0.0221
  148SOL    HW1  590   0.112   0.907   1.249  1.4832 -5.2667 -1.2885
  148SOL    HW2  591   0.025   0.898   1.374 -0.3641 -0.3082 -1.7939
  148SOL     MW  592   0.037   0.891   1.290 -0.2455 -0.2264 -0.4229
  149SOL     OW  593   1.443   1.095   1.374  0.4801 -0.2871  0.5663
  149SOL    HW1  594   1.371   1.109   1.443  0.2709  1.0639 -0.7131
  149SOL    HW2  595   1.495   1.174   1.382  1.8386 -2.5556  1.2525
  149SOL     MW  596   1.441   1.107   1.384  0.6318 -0.4082  0.4880
  150SOL     OW  597   1.818   1.360   0.733 -0.3532  0.1856  0.0395
  150SOL    HW1  598   1.854   1.271   0.720 -0.7346 -1.9887  0.9991
  150SOL    HW2  599   1.870   1.404   0.797  0.0032 -1.4723  0.9351
  150SOL     MW  600   1.830   1.354   0.740 -0.3565 -0.3200  0.2842
  151SOL     OW  601   1.623   1.782   0.812 -0.3476 -0.1598  0.1394
  151SOL    HW1  602   1.569   1.818   0.748  1.0569  0.5328 -0.7482
  151SOL    HW2  603   1.558   1.735   0.864 -1.0063  0.1030 -0.1223
  151SOL     MW  604   1.607   1.781   0.810 -0.2492 -0.0337 -0.0122
  152SOL     OW  605   0.761   1.323   1.513 -0.0692  0.0203  0.5848
  152SOL    HW1  606   0.791   1.229   1.517 -0.6834 -1.0637 -0.1854
  152SOL    HW2  607   0.846   1.360   1.512 -3.0661 -0.8245  1.5672
  152SOL     MW  608   0.776   1.316   1.513 -0.5457 -0.2342  0.6128
  153SOL     OW  609   2.657   1.196   0.726  0.0021  0.0650  0.1835
  153SOL    HW1  610   2.716   1.172   0.652  0.7323 -0.1456  0.0289
  153SOL    HW2  611   2.589   1.135   0.716  2.2736  1.4804  2.9057
  153SOL     MW  612   2.656   1.185   0.715  0.3981  0.2240  0.5222
  154SOL     OW  613   0.308   1.763   1.708  0.1696  0.4462  0.5036
  154SOL    HW1  614   0.300   1.746   1.613 -0.9823 -0.2113 -2.9888
  154SOL    HW2  615   0.353   1.688   1.750 -1.3686 -0.8995  0.5864
  154SOL     MW  616   0.313   1.751   1.701 -0.1853  0.1819  0.0537
  155SOL     OW  617   1.108   0.737   0.237 -0.0090  0.5163 -0.0524
  155SOL    HW1  618   1.145   0.685   0.307 -1.2346  1.0141  0.6772
  155SOL    HW2  619   1.086   0.823   0.281 -1.8111 -0.7377  1.0214
  155SOL     MW  620   1.110   0.742   0.252 -0.4085  0.4165  0.1856
  156SOL     OW  621   1.576   3.045   0.989 -0.4510  0.7507  0.4023
  156SOL    HW1  622   1.656   3.092   1.001  0.4336 -1.6339 -1.2960
  156SOL    HW2  623   1.565   3.001   1.074  2.7163  1.0525  2.6465
  156SOL     MW  624   1.585   3.045   1.002  0.0836  0.4759  0.4743
  157SOL     OW  625   1.407   1.185   0.100 -0.2038  0.0870  0.6119
  157SOL    HW1  626   1.398   1.136   0.179  2.9941 -1.7539  1.0073
  157SOL    HW2  627   1.493   1.231   0.110  0.7607  0.4803  3.1852
  157SOL     MW  628   1.417   1.184   0.112  0.3454 -0.1040  1.0036
  158SOL     OW  629   0.388   1.658   2.291  0.2638  0.1849  0.2862
  158SOL    HW1  630   0.346   1.741   2.272  1.0530  1.4617  0.1114
  158SOL    HW2  631   0.318   1.609   2.346  1.8123 -2.4749  0.1796
  158SOL     MW  632   0.373   1.662   2.296  0.5722  0.0024  0.2491
  159SOL     OW  633   1.259   1.656   0.419  0.3295 -0.1901  0.3963
  159SOL    HW1  634   1.233   1.570   0.394  0.3608  3.2589 -0.7460
  159SOL    HW2  635   1.179   1.683   0.471 -0.9265  1.0467  1.4683
  159SOL     MW  636   1.245   1.649   0.423  0.1679  0.4281  0.3870
  160SOL     OW  637   0.407   1.054   1.578 -0.1936 -0.1529 -0.0323
  160SOL    HW1  638   0.426   0.966   1.617 -0.2567 -1.0614 -2.1070
  160SOL    HW2  639   0.456   1.122   1.628  2.0415  0.0715 -1.4227
  160SOL     MW  640   0.416   1.052   1.590  0.0930 -0.2432 -0.4895
  161SOL     OW  641   0.590   2.121   2.683  0.0633 -0.4015  0.8338
  161SOL    HW1  642   0.534   2.155   2.753  2.4308 -0.3070 -0.0049
  161SOL    HW2  643   0.536   2.069   2.617 -1.8727 -3.8607 -0.3660
  161SOL     MW  644   0.576   2.118   2.684  0.1202 -0.8454  0.5648
  162SOL     OW  645   1.016   1.703   1.841 -0.0489 -0.1039 -0.0347
  162SOL    HW1  646   1.006   1.797   1.877  3.3286  1.6460  0.6068
  162SOL    HW2  647   0.938   1.653   1.846  1.6804  2.4802 -0.5145
  162SOL     MW  648   1.004   1.709   1.847  0.6249  0.4679 -0.0133
  163SOL     OW  649   2.182   0.143   1.007  0.1643 -0.0853 -0.2472
  163SOL    HW1  650   2.185   0.176   0.915  1.0770 -0.8502  0.2550
  163SOL    HW2  651   2.105   0.091   1.011 -1.1434 -2.5986 -1.5888
  163SOL     MW  652   2.172   0.140   0.996  0.1122 -0.5178 -0.3580
  164SOL     OW  653   0.303   0.182   0.851  0.0168  0.0631  0.1934
  164SOL    HW1  654   0.227   0.216   0.888 -2.2333 -1.8891 -2.1944
  164SOL    HW2  655   0.279   0.101   0.806  1.9802 -1.0528 -0.0491
  164SOL     MW  656   0.290   0.176   0.850 -0.0210 -0.3417 -0.1537
  165SOL     OW  657   1.375   1.186   0.406 -0.3463 -0.0321  0.3835
  165SOL    HW1  658   1.348   1.118   0.468  0.9178 -0.4541  0.0740
  165SOL    HW2  659   1.467   1.171   0.394  1.4566  0.3458 -1.2126
  165SOL     MW  660   1.384   1.175   0.413  0.0584 -0.0379  0.1320
  166SOL     OW  661   0.537   1.093   0.981 -0.4394  0.0753 -0.1025
  166SOL    HW1  662   0.497   1.019   1.029  3.1013 -2.0101  0.3412
  166SOL    HW2  663   0.635   1.071   0.980  0.9273  0.7973  0.1480
  166SOL     MW  664   0.544   1.080   0.987  0.2081 -0.1046 -0.0109
  167SOL     OW  665   0.945   1.168   0.332 -0.5017 -0.2237 -0.6973
  167SOL    HW1  666   0.858   1.194   0.351  3.6557 -0.0679 -0.0492
  167SOL    HW2  667   0.948   1.156   0.233  0.3394 -0.6933  0.4341
  167SOL     MW  668   0.934   1.170   0.321  0.1578 -0.2651 -0.4625
  168SOL     OW  669   1.681   1.776   2.908 -0.3352 -0.3999 -0.1885
  168SOL    HW1  670   1.631   1.849   2.956 -0.6168 -0.4105 -0.1541
  168SOL    HW2  671   1.615   1.707   2.904  0.4005  2.1092 -0.2511
  168SOL     MW  672   1.666   1.777   2.914 -0.2753 -0.0702 -0.1922
  169SOL     OW  673   0.329   0.971   1.324 -0.0248 -0.0375  0.4850
  169SOL    HW1  674   0.360   0.994   1.417  0.2462 -0.8740  0.8773
  169SOL    HW2  675   0.302   1.061   1.293  1.2774  1.8276 -2.3211
  169SOL     MW  676   0.329   0.986   1.332  0.1828  0.0982  0.1666
  170SOL     OW  677   1.023   1.452   1.494  0.0862  0.2584 -0.1864
  170SOL    HW1  678   0.953   1.516   1.502 -2.1886 -0.2405 -0.4577
  170SOL    HW2  679   1.096   1.489   1.438  0.8785  1.5253 -0.7247
  170SOL     MW  680   1.024   1.465   1.488 -0.1094  0.3597 -0.2932
  171SOL     OW  681   0.583   1.388   0.699  0.7477  0.2253  0.2353
  171SOL    HW1  682   0.571   1.390   0.793 -2.1164 -1.5898  0.7316
  171SOL    HW2  683   0.558   1.294   0.674 -1.0129  0.5858  1.2717
  171SOL     MW  684   0.578   1.375   0.708  0.1376  0.0334  0.4375
  172SOL     OW  685   0.843   0.327   1.219 -0.4339  0.5678  0.2851
  172SOL    HW1  686   0.861   0.338   1.130  0.2258  0.0793  1.4794
  172SOL    HW2  687   0.753   0.350   1.234  0.2614  1.6004 -1.0727
  172SOL     MW  688   0.834   0.331   1.209 -0.2551  0.6396  0.2635
  173SOL     OW  689   0.419   1.680   0.349  0.4057  0.2878  0.1099
  173SOL    HW1  690   0.411   1.585   0.324  0.5519  0.7958 -1.1370
  173SOL    HW2  691   0.486   1.688   0.419  1.7789 -0.6859  0.4921
  173SOL     MW  692   0.427   1.668   0.355  0.6062  0.2263 -0.0042
  174SOL     OW  693   2.021   0.974   1.515  0.3268  0.2863 -0.1470
  174SOL    HW1  694   1.970   0.895   1.541  0.2089 -0.5157 -2.1799
  174SOL    HW2  695   1.953   1.023   1.465 -1.4959  3.8586 -1.0975
  174SOL     MW  696   2.006   0.970   1.512  0.0708  0.6518 -0.5406
  175SOL     OW  697   0.383   1.348   0.372  0.2697  0.1675 -0.0732
  175SOL    HW1  698   0.386   1.374   0.280  1.4591 -1.6122 -1.1476
  175SOL    HW2  699   0.466   1.308   0.383  1.1485  0.1868 -2.9277
  175SOL     MW  700   0.394   1.346   0.361  0.5426 -0.0647 -0.5915
  176SOL     OW  701   0.234   1.214   1.253  0.7306 -0.5782  0.3566
  176SOL    HW1  702   0.163   1.217   1.192  1.3759  1.3701 -0.8258
  176SOL    HW2  703   0.192   1.234   1.344  1.9742  1.2274  0.2188
  176SOL     MW  704   0.219   1.217   1.257  0.9798 -0.0829  0.1824
  177SOL     OW  705   0.594   0.436   1.291  0.2998  0.3721 -0.4589
  177SOL    HW1  706   0.582   0.482   1.211 -0.8390 -0.3369 -0.7797
  177SOL    HW2  707   0.590   0.492   1.368 -0.2081  1.7073 -1.4860
  177SOL     MW  708   0.592   0.450   1.290  0.0826  0.4548 -0.6367
  178SOL     OW  709   3.100   0.429   2.991 -0.4735  0.6264 -0.3133
  178SOL    HW1  710   3.035   0.449   3.059  1.8090 -1.1106 -1.8661
  178SOL    HW2  711   3.045   0.439   2.911 -3.0571  1.1005 -2.2777
  178SOL     MW  712   3.084   0.433   2.990 -0.5133  0.4598 -0.7773
  179SOL     OW  713   1.654   1.320   1.447 -0.1111  0.1115  0.0975
  179SOL    HW1  714   1.628   1.357   1.530 -0.0953  1.6605 -3.1713
  179SOL    HW2  715   1.738   1.361   1.426  1.7193 -3.0574 -1.7636
  179SOL     MW  716   1.662   1.330   1.455  0.1325 -0.1022 -0.5794
  180SOL     OW  717   3.004   0.293   0.488  0.4350 -0.1710 -0.3502
  180SOL    HW1  718   2.960   0.312   0.398  2.5159  0.3420 -0.0450
  180SOL    HW2  719   3.044   0.372   0.515 -1.8179 -2.5873 -0.5781
  180SOL     MW  720   3.003   0.306   0.479  0.4123 -0.4221 -0.3400
  181SOL     OW  721   1.158   1.383   3.050 -0.3748  0.1830  0.8032
  181SOL    HW1  722   1.198   1.416   3.133  0.0492  1.3421 -0.4304
  181SOL    HW2  723   1.223   1.412   2.983 -0.9331 -0.3120 -2.8093
  181SOL     MW  724   1.172   1.391   3.052 -0.3925  0.2706  0.1638
  182SOL     OW  725   0.475   0.811   1.660  0.1172  0.1289 -0.5880
  182SOL    HW1  726   0.384   0.788   1.670  2.2696  3.3481  1.6367
  182SOL    HW2  727   0.514   0.748   1.717  0.1271 -0.6033  0.5996
  182SOL     MW  728   0.468   0.800   1.669  0.4025  0.4570 -0.1378
  183SOL     OW  729   1.585   1.535   1.301  0.2519  0.3950  0.1409
  183SOL    HW1  730   1.550   1.604   1.358 -1.2512 -1.0710 -1.3609
  183SOL    HW2  731   1.603   1.455   1.360  0.8347 -0.6681  2.2840
  183SOL     MW  732   1.582   1.534   1.316  0.1304  0.0613  0.2255
  184SOL     OW  733   0.781   0.524   1.986  0.1343  0.4793  0.2037
  184SOL    HW1  734   0.866   0.540   1.944 -1.2510 -0.0027  0.6009
  184SOL    HW2  735   0.793   0.449   2.058  2.3570 -3.6035  1.2369
  184SOL     MW  736   0.794   0.516   1.990  0.2448 -0.1230  0.3924
  185SOL     OW  737   1.137   0.931   1.959 -0.1406 -0.5083 -0.1247
  185SOL    HW1  738   1.129   0.863   2.023  0.3568  0.1127 -1.3228
  185SOL    HW2  739   1.166   1.015   2.015  1.0903  0.7137  1.1715
  185SOL     MW  740   1.140   0.933   1.975  0.0874 -0.2651 -0.1117
  186SOL     OW  741   0.346   1.722   1.422 -0.1273 -0.3037 -0.0843
  186SOL    HW1  742   0.404   1.779   1.368 -0.1376 -1.2573 -4.1034
  186SOL    HW2  743   0.303   1.669   1.356  0.3279 -1.1292 -1.3730
  186SOL     MW  744   0.348   1.723   1.406 -0.0686 -0.5384 -0.7846
  187SOL     OW  745   1.551   0.681   1.499  0.1819 -0.2657 -0.1855
  187SOL    HW1  746   1.514   0.673   1.586  1.8941 -1.1844 -0.5480
  187SOL    HW2  747   1.478   0.706   1.448  0.3098 -1.3628  1.3227
  187SOL     MW  748   1.537   0.683   1.504  0.4247 -0.5317 -0.0343
  188SOL     OW  749   1.924   1.095   0.697 -0.0218  0.2956  0.0687
  188SOL    HW1  750   1.902   1.022   0.758  0.7145 -0.3456 -0.4087
  188SOL    HW2  751   2.021   1.102   0.691  1.3950 -0.3391 -0.5245
  188SOL     MW  752   1.934   1.086   0.705  0.2623  0.1273 -0.0726
  189SOL     OW  753   0.611   0.775   0.762  0.1551 -0.0822  0.2904
  189SOL    HW1  754   0.548   0.850   0.758  1.4415  2.7968 -1.4046
  189SOL    HW2  755   0.698   0.796   0.799 -0.4573 -1.9561 -1.5527
  189SOL     MW  756   0.614   0.788   0.766  0.2440  0.0504 -0.1764
  190SOL     OW  757   1.836   0.384   1.967 -0.5188  0.0209 -0.2843
  190SOL    HW1  758   1.890   0.311   1.957 -2.6686  0.0384 -0.1750
  190SOL    HW2  759   1.902   0.454   1.951 -0.9852  0.2421 -2.4224
  190SOL     MW  760   1.851   0.383   1.964 -0.8640  0.0524 -0.5520
  191SOL     OW  761   1.637   0.963   1.524 -0.7413  0.3398 -0.1681
  191SOL    HW1  762   1.551   0.984   1.488  0.3571 -1.3405  0.1033
  191SOL    HW2  763   1.642   0.867   1.524 -1.5259  0.7445  0.4141
  191SOL     MW  764   1.626   0.953   1.519 -0.6999  0.1715 -0.0555
  192SOL     OW  765   0.712   2.021   2.892  0.9767 -0.5222  0.4826
  192SOL    HW1  766   0.669   2.042   2.805  0.7526  0.8689 -0.3041
  192SOL    HW2  767   0.685   1.930   2.911 -3.0293  0.4801  1.8714
  192SOL     MW  768   0.703   2.012   2.883  0.4186 -0.2064  0.5620
  193SOL     OW  769   0.991   1.541   0.712  0.5461  0.1579  0.1686
  193SOL    HW1  770   0.944   1.532   0.799 -0.3513 -1.9589  1.9207
  193SOL    HW2  771   0.930   1.491   0.655  0.8342  0.5082  2.1778
  193SOL     MW  772   0.977   1.533   0.716  0.4657 -0.0752  0.6649
  194SOL     OW  773   0.502   1.381   0.967 -0.2258 -0.2187 -0.0875
  194SOL    HW1  774   0.503   1.287   0.965 -1.4175  3.9734 -0.3947
  194SOL    HW2  775   0.409   1.399   0.951  0.3052 -1.7846 -2.3959
  194SOL     MW  776   0.490   1.371   0.964 -0.3130  0.1278 -0.4326
  195SOL     OW  777   1.320   1.153   2.929 -0.2152  0.4731 -0.3798
  195SOL    HW1  778   1.361   1.159   3.017 -1.4213 -1.5302  0.7814
  195SOL    HW2  779   1.232   1.111   2.945 -0.1350 -1.8750 -0.9944
  195SOL     MW  780   1.314   1.148   2.943 -0.3638 -0.1010 -0.3077
  196SOL     OW  781   2.214   1.031   0.603  0.1887  0.1375  0.0845
  196SOL    HW1  782   2.183   1.014   0.513 -0.8864  1.2143  2.9328
  196SOL    HW2  783   2.213   1.125   0.614 -0.3623 -0.3942  1.3372
  196SOL     MW  784   2.210   1.041   0.593 -0.0259  0.2094  0.6256
  197SOL     OW  785   0.567   1.223   2.018  0.5941 -0.1893  0.4927
  197SOL    HW1  786   0.562   1.133   2.007 -0.6641  0.1648 -0.4184
  197SOL    HW2  787   0.539   1.270   1.938 -2.1000  1.8369 -0.3748
  197SOL     MW  788   0.563   1.218   2.006  0.0727  0.1248  0.2580
  198SOL     OW  789   2.958   1.375   1.082  0.0352  0.1896  0.5217
  198SOL    HW1  790   2.951   1.470   1.055 -0.2727  0.9284 -1.6909
  198SOL    HW2  791   2.880   1.339   1.031 -3.5982  0.1925 -2.0022
  198SOL     MW  792   2.947   1.383   1.072 -0.4848  0.2874 -0.1032
  199SOL     OW  793   0.455   1.270   1.756  0.6471 -0.5128  0.2044
  199SOL    HW1  794   0.362   1.258   1.780 -1.1550  1.3602 -1.0864
  199SOL    HW2  795   0.463   1.319   1.672  2.5315 -0.4892 -3.0825
  199SOL     MW  796   0.444   1.275   1.748  0.6579 -0.2626 -0.3996
  200SOL     OW  797   1.945   3.039   1.298 -0.1759  0.0227 -0.0351
  200SOL    HW1  798   1.937   3.064   1.204 -2.0746 -0.0820 -1.0954
  200SOL    HW2  799   1.851   3.039   1.324 -1.8869  0.1122 -0.1389
  200SOL     MW  800   1.931   3.042   1.289 -0.6522  0.0207 -0.1887
  201SOL     OW  801   1.093   0.315   0.775  0.3056  0.1368  0.4528
  201SOL    HW1  802   1.078   0.232   0.820  3.0183  3.2904 -0.3806
  201SOL    HW2  803   1.032   0.323   0.704 -0.9645 -1.5915  0.0019
  201SOL     MW  804   1.083   0.305   0.772  0.4959  0.3249  0.2833
  202SOL     OW  805   1.595   1.572   1.012 -0.0604  0.1509  0.0407
  202SOL    HW1  806   1.627   1.489   0.981 -1.0565  0.0430  2.0507
  202SOL    HW2  807   1.613   1.565   1.107 -0.3819 -0.3411  0.6662
  202SOL     MW  808   1.601   1.560   1.020 -0.2342  0.0718  0.3884
  203SOL     OW  809   3.008   0.502   1.224 -0.0150  0.0526  0.0980
  203SOL    HW1  810   3.052   0.425   1.183 -0.9748  0.3911  1.6459
  203SOL    HW2  811   3.081   0.552   1.265  4.0557  4.4859  0.4227
  203SOL     MW  812   3.023   0.498   1.224  0.3955  0.6822  0.3451
  204SOL     OW  813   1.053   1.764   0.571 -0.1125  0.1241 -1.0107
  204SOL    HW1  814   1.024   1.682   0.622  0.7805 -0.3888  0.8819
  204SOL    HW2  815   0.983   1.786   0.508 -0.6496 -0.5978 -0.3430
  204SOL     MW  816   1.040   1.756   0.570 -0.0655 -0.0388 -0.6729
  205SOL     OW  817   1.397   0.033   1.262 -0.3344 -0.2403  0.9418
  205SOL    HW1  818   1.370   0.024   1.170  0.3071  1.6026  1.0009
  205SOL    HW2  819   1.408   0.123   1.286 -1.3106 -1.1595  0.9700
  205SOL     MW  820   1.395   0.044   1.253 -0.3785 -0.1184  0.9533
  206SOL     OW  821   0.512   3.094   1.345  0.5489 -0.2070  0.4688
  206SOL    HW1  822   0.462   3.056   1.273  1.0741  0.6897  0.2002
  206SOL    HW2  823   0.551   3.019   1.389 -0.7087  2.6281 -0.0638
  206SOL     MW  824   0.511   3.079   1.341  0.4523  0.2853  0.3631
  207SOL     OW  825   0.990   1.584   0.217  0.1409 -0.5450 -0.1156
  207SOL    HW1  826   1.020   1.677   0.204 -3.1973 -0.6414 -2.3432
  207SOL    HW2  827   1.063   1.539   0.266 -2.1991 -1.0858  0.2447
  207SOL     MW  828   1.004   1.591   0.221 -0.6083 -0.6291 -0.3620
  208SOL     OW  829   0.632   1.556   1.276  0.3177  0.2349 -0.3880
  208SOL    HW1  830   0.712   1.578   1.326 -0.3733  1.7864 -0.0387
  208SOL    HW2  831   0.625   1.463   1.269  0.1658 -2.2129 -0.6207
  208SOL     MW  832   0.641   1.547   1.282  0.2065  0.1166 -0.3726
  209SOL     OW  833   1.484   0.515   2.811 -0.5487 -0.4581  0.2246
  209SOL    HW1  834   1.498   0.595   2.761 -1.6222 -1.2539 -2.7583
  209SOL    HW2  835   1.564   0.463   2.798  1.9015 -1.3616  2.3450
  209SOL     MW  836   1.496   0.519   2.803 -0.3671 -0.6823  0.1108
  210SOL     OW  837   1.635   1.315   0.912 -0.3920 -0.1272 -0.1165
  210SOL    HW1  838   1.705   1.310   0.849 -1.2457 -0.3693  0.0468
  210SOL    HW2  839   1.555   1.304   0.860 -0.1977 -1.1986  2.2646
  210SOL     MW  840   1.634   1.313   0.896 -0.4790 -0.3005  0.2192
  211SOL     OW  841   1.717   0.482   0.923  0.5317 -0.3542 -0.0411
  211SOL    HW1  842   1.688   0.453   0.831 -0.9398  0.2111  2.0047
  211SOL    HW2  843   1.808   0.513   0.913 -0.7349 -0.3583  1.0530
  211SOL     MW  844   1.725   0.482   0.910  0.1705 -0.2802  0.3732
  212SOL     OW  845   0.264   1.114   0.029 -0.4302  0.1394  0.3566
  212SOL    HW1  846   0.229   1.078   0.115  1.4042 -0.6677 -1.2903
  212SOL    HW2  847   0.340   1.049   0.009 -0.5439  0.3894  1.5115
  212SOL     MW  848   0.269   1.100   0.038 -0.2032  0.0659  0.2917
  213SOL     OW  849   0.525   1.684   3.074  0.1908 -0.1268  0.1958
  213SOL    HW1  850   0.551   1.746   3.148  1.7882  1.9121  1.0206
  213SOL    HW2  851   0.570   1.709   2.991  0.1602 -0.7800 -1.3230
  213SOL     MW  852   0.534   1.696   3.073  0.3975  0.0560  0.1042
  214SOL     OW  853   0.615   0.256   2.252 -0.0305 -0.0421 -0.2607
  214SOL    HW1  854   0.550   0.318   2.212 -0.6194  1.5229 -1.1144
  214SOL    HW2  855   0.701   0.269   2.212  2.4045 -0.0057  0.1530
  214SOL     MW  856   0.618   0.266   2.241  0.2131  0.1692 -0.3187
  215SOL     OW  857   0.502   0.676   2.627 -0.2973  0.5151  0.6116
  215SOL    HW1  858   0.506   0.689   2.531 -0.7892 -0.6603 -0.5141
  215SOL    HW2  859   0.416   0.628   2.635  1.8272  1.9160  0.8435
  215SOL     MW  860   0.491   0.671   2.615 -0.0819  0.5448  0.4936
  216SOL     OW  861   3.076   0.000   2.791  0.0418 -0.2331 -0.6413
  216SOL    HW1  862   2.998  -0.033   2.841  3.7376 -1.3027 -1.1628
  216SOL    HW2  863   3.061   0.091   2.773  0.3181 -0.2398 -0.9295
  216SOL     MW  864   3.063   0.008   2.795  0.5659 -0.3751 -0.7481
  217SOL     OW  865   0.973   1.166   0.046 -0.1675  0.3314 -0.4709
  217SOL    HW1  866   1.018   1.102  -0.021  1.3587  1.4839 -3.4534
  217SOL    HW2  867   1.036   1.247   0.047  1.8597 -0.4651  1.3073
  217SOL     MW  868   0.987   1.168   0.037  0.3013  0.3784 -0.6298
  218SOL     OW  869   0.921   1.331   2.472 -0.2415  0.2554  0.4425
  218SOL    HW1  870   0.891   1.256   2.523 -0.8220  0.4896  1.3304
  218SOL    HW2  871   0.997   1.378   2.522 -0.1036  0.2233 -3.6531
  218SOL     MW  872   0.927   1.327   2.485 -0.2999  0.2821  0.0193
  219SOL     OW  873   1.026   0.413   2.562 -0.3209  0.1796 -0.4891
  219SOL    HW1  874   1.013   0.499   2.524  0.3772  2.9649  0.4739
  219SOL    HW2  875   0.941   0.396   2.606 -1.9452 -1.2828 -0.1908
  219SOL     MW  876   1.013   0.422   2.562 -0.4431  0.3541 -0.3227
  220SOL     OW  877   1.733   0.544   2.184  0.1263 -0.2323  0.3043
  220SOL    HW1  878   1.659   0.597   2.163 -0.0758  3.0106  1.8591
  220SOL    HW2  879   1.751   0.498   2.102  3.2300  2.0956  1.3495
  220SOL     MW  880   1.725   0.545   2.170  0.5091  0.5027  0.6473
  221SOL     OW  881   0.400   1.438   2.926  0.0488 -0.4976 -0.4557
  221SOL    HW1  882   0.348   1.353   2.911  0.4781 -0.4061  2.6773
  221SOL    HW2  883   0.419   1.478   2.838  1.5936  1.3158 -1.2845
  221SOL     MW  884   0.396   1.432   2.912  0.3093 -0.2463 -0.1517
  222SOL     OW  885   0.391   0.947   2.666 -0.3231 -0.2740  0.3624
  222SOL    HW1  886   0.329   0.960   2.586 -1.0196 -0.5524 -2.9466
  222SOL    HW2  887   0.438   0.866   2.653 -0.6996 -2.2370 -2.0093
  222SOL     MW  888   0.389   0.938   2.654 -0.4647 -0.5698 -0.3871
  223SOL     OW  889   3.069   2.020   2.670 -0.2581  0.3358  0.1639
  223SOL    HW1  890   3.141   1.959   2.700 -0.1644 -2.6562  1.8878
  223SOL    HW2  891   3.095   2.082   2.607 -0.3010 -3.1418  0.0252
  223SOL     MW  892   3.082   2.020   2.666 -0.2514 -0.5178  0.3730
  224SOL     OW  893   1.546   0.806   2.611  0.0008  0.6682  0.5139
  224SOL    HW1  894   1.496   0.850   2.682  1.9764 -0.4791 -0.5485
  224SOL    HW2  895   1.592   0.878   2.560 -0.8001  1.3605  0.2024
  224SOL     MW  896   1.545   0.822   2.614  0.1558  0.6081  0.3327
  225SOL     OW  897   2.982   1.450   2.264 -0.2541 -0.1047 -0.4057
  225SOL    HW1  898   3.018   1.485   2.182 -0.7127 -0.5501 -0.2779
  225SOL    HW2  899   2.918   1.517   2.294 -2.9830  0.1778  0.8408
  225SOL     MW  900   2.978   1.463   2.257 -0.6747 -0.1262 -0.2243
  226SOL     OW  901   0.444   1.508   2.665 -0.3213  0.0559 -0.3181
  226SOL    HW1  902   0.522   1.467   2.634  1.6522 -0.0706  1.2332
  226SOL    HW2  903   0.435   1.592   2.619  0.2024  0.4268  0.6128
  226SOL     MW  904   0.453   1.513   2.655  0.0082  0.0882  0.0094
  227SOL     OW  905   0.406   1.176   2.829 -0.1944  0.3555  0.2525
  227SOL    HW1  906   0.471   1.248   2.836  0.4715  1.5869 -1.0514
  227SOL    HW2  907   0.414   1.128   2.742  0.3235  2.9667  0.9537
  227SOL     MW  908   0.416   1.179   2.819 -0.0382  0.8625  0.1730
  228SOL     OW  909   0.680   0.957   2.002  0.1597  0.7210  0.0997
  228SOL    HW1  910   0.770   0.952   1.987 -0.7563 -0.4294  1.9386
  228SOL    HW2  911   0.675   0.931   2.098 -1.1846  0.6018 -0.5694
  228SOL     MW  912   0.691   0.953   2.013 -0.1385  0.5535  0.2541
  229SOL     OW  913   0.252   0.501   3.064  0.2846 -0.6466 -0.0895
  229SOL    HW1  914   0.156   0.500   3.043 -3.5137  1.5429 -1.6106
  229SOL    HW2  915   0.260   0.444   3.143 -3.0591 -2.3831  1.1510
  229SOL     MW  916   0.241   0.494   3.072 -0.6577 -0.5869 -0.1265
  230SOL     OW  917   1.757   1.367   2.112  0.5058 -0.7292 -0.1010
  230SOL    HW1  918   1.717   1.349   2.196 -0.2127  0.9675  0.3974
  230SOL    HW2  919   1.778   1.280   2.074 -0.7250  1.4857  0.9828
  230SOL     MW  920   1.754   1.353   2.118  0.2486 -0.2131  0.1078
  231SOL     OW  921   2.812   1.231   2.226  0.1713  0.2919 -0.6475
  231SOL    HW1  922   2.887   1.301   2.227 -0.1274 -1.9745  3.1305
  231SOL    HW2  923   2.760   1.255   2.148 -1.8778 -4.0061  0.6145
  231SOL     MW  924   2.815   1.244   2.216 -0.1385 -0.5742  0.0175
  232SOL     OW  925   2.299   0.994   2.106  0.2334 -0.6060  0.2691
  232SOL    HW1  926   2.222   1.023   2.051 -4.6436 -0.8520  0.2175
  232SOL    HW2  927   2.253   0.966   2.180  3.7100 -0.4618 -0.1125
  232SOL     MW  928   2.283   0.994   2.108  0.0486 -0.6194  0.2119
  233SOL     OW  929   2.058   0.560   1.919  0.4196 -0.4038  0.5211
  233SOL    HW1  930   2.113   0.581   1.844  0.5996  0.5481  0.8081
  233SOL    HW2  931   2.122   0.555   1.996 -1.3768 -1.1507  2.0802
  233SOL     MW  932   2.074   0.562   1.919  0.2063 -0.3767  0.7647
  234SOL     OW  933   0.214   0.961   2.471 -0.1233 -0.2463 -0.3087
  234SOL    HW1  934   0.113   0.953   2.469 -1.7242 -1.1484  1.4036
  234SOL    HW2  935   0.230   1.052   2.431 -0.1166 -0.4677 -2.8681
  234SOL     MW  936   0.203   0.972   2.465 -0.3336 -0.3945 -0.4205
  235SOL     OW  937   1.012   3.015   2.816 -0.1140  0.1094 -0.2407
  235SOL    HW1  938   1.080   2.964   2.866 -0.7717 -1.4213 -0.2137
  235SOL    HW2  939   1.016   3.098   2.861 -0.9021 -1.5292  0.7929
  235SOL     MW  940   1.021   3.019   2.828 -0.3048 -0.3087 -0.1008
  236SOL     OW  941   2.926   0.516   0.094  0.0881 -0.7021 -0.4426
  236SOL    HW1  942   2.861   0.538   0.024 -0.3283 -1.6640  0.8060
  236SOL    HW2  943   2.969   0.604   0.114  2.9144  3.2728  1.5751
  236SOL     MW  944   2.923   0.530   0.088  0.4060 -0.3046 -0.0117
  237SOL     OW  945   1.752   0.890   2.183 -0.0347  0.0012 -0.1638
  237SOL    HW1  946   1.776   0.971   2.141 -3.7920  0.6528 -0.3681
  237SOL    HW2  947   1.802   0.886   2.270 -0.5598  0.3589  3.3622
  237SOL     MW  948   1.762   0.900   2.189 -0.5997  0.1344  0.2744
  238SOL     OW  949   1.108   1.772   2.975 -0.0963 -0.1203  0.1077
  238SOL    HW1  950   1.063   1.689   2.961  3.6289 -1.4774  0.9048
  238SOL    HW2  951   1.199   1.757   2.955  1.0353  0.4500  0.8695
  238SOL     MW  952   1.114   1.759   2.971  0.5445 -0.2241  0.3134
  239SOL     OW  953   1.247   1.403   2.322 -0.2722 -0.0206 -0.0237
  239SOL    HW1  954   1.203   1.415   2.410  0.1910 -3.0020  1.8209
  239SOL    HW2  955   1.326   1.345   2.335  0.1266 -2.6433 -2.5987
  239SOL     MW  956   1.251   1.397   2.335 -0.1585 -0.7600 -0.1200
  240SOL     OW  957   0.633   0.817   2.248  0.3406  0.6197 -0.2329
  240SOL    HW1  958   0.605   0.885   2.312  3.0772  2.8150  1.0086
  240SOL    HW2  959   0.723   0.791   2.271  1.8345 -0.3032 -1.5170
  240SOL     MW  960   0.641   0.822   2.259  0.8988  0.7876 -0.2385
  241SOL     OW  961   0.678   0.368   3.008 -0.2028  0.4493 -0.6167
  241SOL    HW1  962   0.689   0.401   3.096 -2.8339 -0.0467 -0.6675
  241SOL    HW2  963   0.598   0.418   2.989  1.3623  0.8757  0.6564
  241SOL     MW  964   0.669   0.379   3.017 -0.3435  0.4401 -0.4555
  242SOL     OW  965   1.433   1.692   2.361  0.0548 -0.1594  0.5668
  242SOL    HW1  966   1.430   1.776   2.396 -2.4641 -2.2789 -0.2225
  242SOL    HW2  967   1.350   1.675   2.315 -0.0835  0.2994  1.1881
  242SOL     MW  968   1.422   1.701   2.359 -0.2958 -0.3785  0.5446
  243SOL     OW  969   1.054   0.215   2.345 -0.5077  0.3306  0.1340
  243SOL    HW1  970   1.146   0.202   2.324  0.8731  1.1012  2.0286
  243SOL    HW2  971   1.057   0.270   2.422 -2.2000 -1.2739  2.3221
  243SOL     MW  972   1.067   0.221   2.353 -0.5488  0.2206  0.6727
  244SOL     OW  973   0.221   0.754   2.285  0.1149 -0.4009 -0.8284
  244SOL    HW1  974   0.234   0.826   2.346  1.6709  0.3809 -1.0035
  244SOL    HW2  975   0.304   0.715   2.294 -2.5949  0.9163  0.3648
  244SOL     MW  976   0.233   0.758   2.294 -0.0373 -0.1239 -0.6941
  245SOL     OW  977   1.342   0.141   2.300  0.1862 -0.2615 -0.2517
  245SOL    HW1  978   1.336   0.045   2.298  0.1884 -1.4588 -0.7843
  245SOL    HW2  979   1.438   0.152   2.306  0.6262 -0.7002 -1.3871
  245SOL     MW  980   1.354   0.130   2.300  0.2446 -0.4773 -0.4717
  246SOL     OW  981   1.174   1.124   2.128  0.6048  0.2362  0.3831
  246SOL    HW1  982   1.108   1.111   2.203  0.2501  1.1324 -1.0161
  246SOL    HW2  983   1.263   1.145   2.175  1.6019 -0.5262  0.0691
  246SOL     MW  984   1.177   1.125   2.144  0.6895  0.2538  0.1571
  247SOL     OW  985   0.658   0.528   0.123  0.0579 -0.2994  0.3092
  247SOL    HW1  986   0.632   0.614   0.088 -0.5304 -0.7923  3.2707
  247SOL    HW2  987   0.753   0.536   0.138 -0.1379 -1.1217 -2.0481
  247SOL     MW  988   0.667   0.540   0.120 -0.0455 -0.4729  0.3889
  248SOL     OW  989   0.379   1.209   2.395 -0.0297  0.1980 -0.0070
  248SOL    HW1  990   0.392   1.261   2.316  0.3292  0.1225 -2.0772
  248SOL    HW2  991   0.393   1.283   2.460  5.6396  0.0528  1.7698
  248SOL     MW  992   0.383   1.226   2.393  0.7656  0.1689 -0.0457
  249SOL     OW  993   0.148   1.797   2.720  0.1443 -0.3713 -0.0392
  249SOL    HW1  994   0.071   1.744   2.701 -1.0742  0.8863 -0.3043
  249SOL    HW2  995   0.180   1.777   2.807 -1.6629 -0.7210 -0.7795
  249SOL     MW  996   0.142   1.788   2.729 -0.2549 -0.2515 -0.1719
  250SOL     OW  997   2.158   0.932   2.328  0.4799  0.1668  0.2021
  250SOL    HW1  998   2.225   0.859   2.328  2.7918  3.0742  0.5860
  250SOL    HW2  999   2.190   0.987   2.402 -1.1457  1.9140 -0.2425
  250SOL     MW 1000   2.171   0.930   2.337  0.5704  0.7809  0.1941
  251SOL     OW 1001   0.136   0.836   2.041  0.4799  0.4175 -0.0142
  251SOL    HW1 1002   0.147   0.825   2.132  1.5668 -0.9938 -0.2480
  251SOL    HW2 1003   0.089   0.757   2.011  1.1075 -2.2279 -3.3849
  251SOL     MW 1004   0.132   0.824   2.049  0.7061 -0.1177 -0.4898
  252SOL     OW 1005   1.691   1.030   2.799 -0.2074  0.3084  0.3171
  252SOL    HW1 1006   1.695   1.062   2.890 -3.6083 -0.2720  0.5775
  252SOL    HW2 1007   1.780   1.048   2.764  2.8612  0.5329  2.5429
  252SOL     MW 1008   1.703   1.036   2.807 -0.2512  0.2614  0.6451
  253SOL     OW 1009   1.155   1.742   2.556 -0.0418 -0.3054 -0.5316
  253SOL    HW1 1010   1.132   1.774   2.468  1.0525 -1.5151 -0.4182
  253SOL    HW2 1011   1.067   1.752   2.601 -1.2875  0.3205 -1.1840
  253SOL     MW 1012   1.140   1.747   2.550 -0.0618 -0.3824 -0.6027
  254SOL     OW 1013   0.975   1.048   2.308 -0.0812  0.0013  0.0807
  254SOL    HW1 1014   0.941   0.959   2.286 -0.0715  1.0062  0.9662
  254SOL    HW2 1015   0.904   1.104   2.284  2.0283 -2.5897  1.1240
  254SOL     MW 1016   0.961   1.044   2.302  0.1984 -0.2080  0.3352
  255SOL     OW 1017   0.745   2.379   2.280  0.4014  0.3233  0.3213
  255SOL    HW1 1018   0.654   2.351   2.283 -1.1789 -0.7133 -0.9792
  255SOL    HW2 1019   0.773   2.414   2.363  0.1995  0.1914 -1.2455
  255SOL     MW 1020   0.737   2.380   2.291  0.1662  0.1691 -0.0570
  256SOL     OW 1021   1.188   2.865   2.927 -0.1403  0.0077 -0.2033
  256SOL    HW1 1022   1.230   2.774   2.913  2.8331  1.5918 -0.1766
  256SOL    HW2 1023   1.257   2.914   2.881  1.8696 -1.6641  0.5463
  256SOL     MW 1024   1.203   2.860   2.919  0.5172 -0.0039 -0.1008
  257SOL     OW 1025   0.094   1.866   0.011 -0.4434 -0.4810  0.3723
  257SOL    HW1 1026   0.121   1.825   0.090 -1.2329  1.0736 -0.9318
  257SOL    HW2 1027   0.128   1.798  -0.047  2.0636 -1.6736  2.7549
  257SOL     MW 1028   0.102   1.852   0.014 -0.2168 -0.4333  0.5146
  258SOL     OW 1029   0.606   1.038   2.399  0.4115 -0.0827  0.2146
  258SOL    HW1 1030   0.642   1.097   2.332  1.5321 -2.1396 -1.1202
  258SOL    HW2 1031   0.520   1.071   2.421  4.4874 -0.6454 -0.9366
  258SOL     MW 1032   0.599   1.050   2.393  1.0971 -0.4284 -0.1134
  259SOL     OW 1033   0.595   0.387   2.488  0.1817  0.5631  0.0316
  259SOL    HW1 1034   0.504   0.430   2.474 -2.8372  2.3706 -1.4265
  259SOL    HW2 1035   0.612   0.344   2.405  0.8585 -0.1587  0.0154
  259SOL     MW 1036   0.585   0.387   2.475 -0.1273  0.7064 -0.1629
  260SOL     OW 1037   0.600   0.160   1.591 -0.0273 -0.2522 -0.1362
  260SOL    HW1 1038   0.531   0.188   1.529  0.2790  0.0716 -1.2175
  260SOL    HW2 1039   0.690   0.164   1.557  3.6289  2.2974  0.4187
  260SOL     MW 1040   0.603   0.164   1.579  0.4955  0.1269 -0.2057
  261SOL     OW 1041   1.091   0.694   2.104  0.4284  0.4291  0.0953
  261SOL    HW1 1042   1.132   0.664   2.186  0.3803 -0.2858  0.3194
  261SOL    HW2 1043   1.160   0.679   2.042  0.3175 -0.1518 -0.7868
  261SOL     MW 1044   1.106   0.688   2.106  0.4075  0.2581  0.0085
  262SOL     OW 1045   1.128   0.372   0.111 -0.5997 -0.3764 -0.3917
  262SOL    HW1 1046   1.193   0.317   0.156  2.8018  1.2795 -0.6359
  262SOL    HW2 1047   1.153   0.380   0.020 -0.4209  0.0915 -2.2895
  262SOL     MW 1048   1.140   0.366   0.105 -0.1273 -0.0962 -0.6743
  263SOL     OW 1049   0.426   2.992   2.517 -0.1461  0.0154  0.3587
  263SOL    HW1 1050   0.375   3.072   2.534 -0.5561  3.2539 -1.2728
  263SOL    HW2 1051   0.483   3.016   2.446 -0.7151  2.5605 -2.1861
  263SOL     MW 1052   0.427   3.006   2.510 -0.2752  0.7785 -0.1923
  264SOL     OW 1053   1.511   1.344   1.977  0.5474  0.4084 -0.2232
  264SOL    HW1 1054   1.462   1.371   2.053  2.5377  0.8803 -0.2460
  264SOL    HW2 1055   1.602   1.362   2.011 -1.4377 -0.4386  1.1956
  264SOL     MW 1056   1.517   1.350   1.992  0.5481  0.3589 -0.0390
  265SOL     OW 1057   0.719   2.740   2.215 -0.7219  0.5409 -0.0328
  265SOL    HW1 1058   0.791   2.686   2.196 -0.1952 -1.3902  1.4547
  265SOL    HW2 1059   0.717   2.756   2.312 -0.6126 -0.1204 -0.2702
  265SOL     MW 1060   0.728   2.735   2.225 -0.6380  0.1989  0.1321
  266SOL     OW 1061   0.899   0.788   2.281  0.4345 -0.4339  0.0235
  266SOL    HW1 1062   0.953   0.740   2.215  3.7349 -4.5097 -0.0218
  266SOL    HW2 1063   0.887   0.721   2.350 -0.7014 -1.5910  1.5224
  266SOL     MW 1064   0.904   0.773   2.282  0.7201 -1.1243  0.2153
  267SOL     OW 1065   1.400   1.815   2.679 -0.7479  0.9099  0.2577
  267SOL    HW1 1066   1.473   1.746   2.671  1.7790 -3.2419  0.0727
  267SOL    HW2 1067   1.322   1.784   2.635  2.3325  0.7328 -0.0314
  267SOL     MW 1068   1.399   1.802   2.672 -0.0080  0.3388  0.1952
  268SOL     OW 1069   0.208   0.744   1.656 -0.3389  0.1360  0.3841
  268SOL    HW1 1070   0.118   0.789   1.634  1.2725  0.5493  0.7047
  268SOL    HW2 1071   0.197   0.646   1.647  1.5842 -3.2465 -3.2712
  268SOL     MW 1072   0.194   0.737   1.652  0.1275 -0.2558 -0.0558
  269SOL     OW 1073   1.407   1.949   2.433  0.0072  0.0872  0.3776
  269SOL    HW1 1074   1.428   1.903   2.522  0.0011  1.2348 -1.0957
  269SOL    HW2 1075   1.339   2.014   2.449 -0.5232  1.5043 -1.1689
  269SOL     MW 1076   1.401   1.952   2.447 -0.0636  0.4255 -0.0209
  270SOL     OW 1077   1.174   0.467   1.615  0.2125 -0.1804 -0.2884
  270SOL    HW1 1078   1.152   0.380   1.649  0.0594 -0.1717  0.6959
  270SOL    HW2 1079   1.263   0.450   1.583 -3.0528 -0.8248  1.8467
  270SOL     MW 1080   1.183   0.453   1.615 -0.2385 -0.2643  0.1232
  271SOL     OW 1081   0.870   3.094   2.437 -0.1592 -0.0355 -0.5628
  271SOL    HW1 1082   0.895   3.023   2.494 -3.2904 -0.3969  1.3516
  271SOL    HW2 1083   0.941   3.154   2.427 -1.8359 -1.5171 -2.6709
  271SOL     MW 1084   0.882   3.092   2.443 -0.7935 -0.2787 -0.5884
  272SOL     OW 1085   1.368   3.005   2.766 -0.2739 -0.0283  0.2915
  272SOL    HW1 1086   1.302   3.032   2.707  2.9530  0.8345 -1.1442
  272SOL    HW2 1087   1.353   3.068   2.848  1.4440  3.5135  0.8918
  272SOL     MW 1088   1.357   3.017   2.769  0.3785  0.5529  0.1813
  273SOL     OW 1089   1.431   0.926   2.825  0.2516 -0.2605  0.2916
  273SOL    HW1 1090   1.517   0.965   2.845 -0.0034 -0.2406  0.8736
  273SOL    HW2 1091   1.379   1.007   2.833  2.6166  0.9776  0.7257
  273SOL     MW 1092   1.436   0.942   2.829  0.5300 -0.0945  0.4257
  274SOL     OW 1093   1.334   0.708   0.103  0.1389  0.2832 -0.5521
  274SOL    HW1 1094   1.373   0.643   0.161 -1.1560 -1.8347 -0.5913
  274SOL    HW2 1095   1.240   0.715   0.149  1.3127  1.1823 -0.6523
  274SOL     MW 1096   1.327   0.700   0.117  0.1229  0.1224 -0.5705
  275SOL     OW 1097   1.687   0.638   1.781  0.0226 -0.5365  0.7135
  275SOL    HW1 1098   1.757   0.682   1.839  0.2035 -0.3038  2.3955
  275SOL    HW2 1099   1.675   0.543   1.802 -0.9474  1.0177 -0.4497
  275SOL     MW 1100   1.695   0.631   1.792 -0.0815 -0.3007  0.7820
  276SOL     OW 1101   0.189   1.165   1.820  0.0839 -0.4497  0.3360
  276SOL    HW1 1102   0.248   1.088   1.828  1.8871 -1.6920 -2.3073
  276SOL    HW2 1103   0.137   1.165   1.906  0.6034 -0.2803  2.1439
  276SOL     MW 1104   0.190   1.155   1.833  0.3904 -0.5913  0.2258
  277SOL     OW 1105   1.936   1.377   2.720  0.8241  0.0625 -0.7920
  277SOL    HW1 1106   1.969   1.468   2.698  1.7087 -1.2189  2.7976
  277SOL    HW2 1107   2.017   1.320   2.714 -1.8671 -0.4414  4.4264
  277SOL     MW 1108   1.951   1.382   2.716  0.5857 -0.1731  0.3702
  278SOL     OW 1109   1.425   0.705   1.768 -0.0585 -0.7202 -0.2540
  278SOL    HW1 1110   1.383   0.654   1.843 -1.0159  0.1025  2.4569
  278SOL    HW2 1111   1.521   0.704   1.786  3.1118  1.4188 -1.1279
  278SOL     MW 1112   1.432   0.698   1.780  0.2334 -0.3294 -0.0116
  279SOL     OW 1113   0.591   3.071   2.262 -0.1869 -0.3150 -0.1731
  279SOL    HW1 1114   0.653   3.061   2.192 -0.6011 -0.4714  1.3586
  279SOL    HW2 1115   0.568   3.164   2.255  4.4325  0.0561 -0.4592
  279SOL     MW 1116   0.596   3.082   2.252  0.3680 -0.2866 -0.0088
  280SOL     OW 1117   1.430   1.156   2.226 -0.1197  0.3066 -0.9041
  280SOL    HW1 1118   1.449   1.085   2.155  1.1629 -1.3692  0.0928
  280SOL    HW2 1119   1.462   1.122   2.315  0.2378  0.3001  0.7181
  280SOL     MW 1120   1.437   1.142   2.228  0.0967  0.0847 -0.5585
  281SOL     OW 1121   1.308   1.407   2.834 -0.3671  0.1238  0.5778
  281SOL    HW1 1122   1.403   1.397   2.827 -0.4362 -2.0218  1.9524
  281SOL    HW2 1123   1.293   1.313   2.857 -0.5179  1.3990  0.1711
  281SOL     MW 1124   1.318   1.393   2.836 -0.3961  0.0090  0.7055
  282SOL     OW 1125   1.102   1.281   1.734 -0.0355 -0.3119 -0.7319
  282SOL    HW1 1126   1.059   1.323   1.659 -0.6750  0.7790  1.6435
  282SOL    HW2 1127   1.037   1.221   1.775 -4.2872  1.3960 -2.6809
  282SOL     MW 1128   1.088   1.279   1.730 -0.6808  0.0573 -0.6756
  283SOL     OW 1129   0.695   1.214  -0.002  0.0083  0.6177 -0.7158
  283SOL    HW1 1130   0.786   1.202   0.028 -0.0531 -0.0587 -0.6011
  283SOL    HW2 1131   0.699   1.311   0.006  1.9757  1.5633  0.0055
  283SOL     MW 1132   0.708   1.225   0.003  0.2597  0.6532 -0.6055
  284SOL     OW 1133   0.467   0.615   2.333 -0.7089 -0.3764 -0.1485
  284SOL    HW1 1134   0.520   0.687   2.290  1.0228  1.0758 -1.0540
  284SOL    HW2 1135   0.446   0.545   2.271 -1.1503  0.9442 -0.7501
  284SOL     MW 1136   0.471   0.615   2.319 -0.5387 -0.0105 -0.3474
  285SOL     OW 1137   0.927   0.910   2.784  0.6783 -0.1769  0.0484
  285SOL    HW1 1138   0.902   0.978   2.716 -2.8986  0.7218 -2.3119
  285SOL    HW2 1139   0.862   0.836   2.785  1.0226  3.0991  0.4332
  285SOL     MW 1140   0.915   0.909   2.775  0.2518  0.3739 -0.2122
  286SOL     OW 1141   1.160   1.464   2.593 -0.0788 -0.0002 -0.3301
  286SOL    HW1 1142   1.211   1.458   2.671  1.1032  0.8345  0.3863
  286SOL    HW2 1143   1.165   1.556   2.584  0.1367  0.5224 -0.2739
  286SOL     MW 1144   1.168   1.475   2.602  0.1056  0.1789 -0.2281
  287SOL     OW 1145   1.076   0.943   0.412 -0.1693  0.2985 -0.0165
  287SOL    HW1 1146   1.149   0.982   0.458  0.2189 -2.1948 -0.8430
  287SOL    HW2 1147   1.035   1.024   0.379 -0.1828  2.9956 -0.3246
  287SOL     MW 1148   1.080   0.959   0.414 -0.1198  0.3254 -0.1662
  288SOL     OW 1149   1.502   0.675   2.159  0.0543 -0.5896 -0.2020
  288SOL    HW1 1150   1.460   0.678   2.247 -0.2619 -0.2435  0.9729
  288SOL    HW2 1151   1.509   0.765   2.138  0.2361 -1.7352 -1.7122
  288SOL     MW 1152   1.498   0.688   2.168  0.0366 -0.6951 -0.2462
  289SOL     OW 1153   0.831   1.098   2.587  0.5209  0.9803  0.2377
  289SOL    HW1 1154   0.894   1.057   2.525  3.3367  1.8887  2.4834
  289SOL    HW2 1155   0.742   1.100   2.562  1.6906  3.1599  1.3494
  289SOL     MW 1156   0.827   1.093   2.575  1.0468  1.3877  0.6807
  290SOL     OW 1157   0.856   0.690   1.545  0.3653  0.3030 -0.0635
  290SOL    HW1 1158   0.899   0.618   1.492  1.1253 -1.9298  0.0355
  290SOL    HW2 1159   0.906   0.679   1.631  1.4990 -1.7044  2.3180
  290SOL     MW 1160   0.869   0.679   1.550  0.6151 -0.2565  0.2638
  291SOL     OW 1161   0.228   0.375   0.206 -0.3701 -0.1151 -0.1543
  291SOL    HW1 1162   0.315   0.338   0.224 -1.9037  0.2125  0.0844
  291SOL    HW2 1163   0.174   0.305   0.166 -1.4040  0.5287  1.6524
  291SOL     MW 1164   0.232   0.361   0.203 -0.7088  0.0130  0.1155
  292SOL     OW 1165   0.929   0.573   0.078  0.0483 -0.2008 -0.4198
  292SOL    HW1 1166   0.979   0.639   0.125 -1.5726  1.4887 -0.2877
  292SOL    HW2 1167   0.985   0.494   0.095  1.4793  1.1910 -0.5040
  292SOL     MW 1168   0.943   0.571   0.087  0.0233  0.2058 -0.4135
  293SOL     OW 1169   0.236   0.101   2.493 -0.1970 -0.4971 -0.4230
  293SOL    HW1 1170   0.158   0.063   2.449 -0.0456  0.4184 -0.8119
  293SOL    HW2 1171   0.210   0.156   2.570  0.2674  2.3543 -0.0971
  293SOL     MW 1172   0.222   0.103   2.497 -0.1158 -0.0001 -0.4313
  294SOL     OW 1173   1.426   0.630   2.428 -0.2888 -0.1262 -0.1007
  294SOL    HW1 1174   1.463   0.704   2.475  2.3659 -0.9957  0.6408
  294SOL    HW2 1175   1.487   0.568   2.466  2.7687  1.5070 -1.2524
  294SOL     MW 1176   1.439   0.631   2.439  0.4649 -0.0255 -0.1548
  295SOL     OW 1177   0.778   0.623   2.508  0.0938  0.6513  0.0125
  295SOL    HW1 1178   0.726   0.541   2.490  2.5012 -1.5821 -0.3163
  295SOL    HW2 1179   0.740   0.648   2.597  2.3891  2.5925 -2.5598
  295SOL     MW 1180   0.766   0.616   2.517  0.7142  0.6127 -0.3702
  296SOL     OW 1181   1.269   0.297   2.067  0.2690  0.3686 -0.1645
  296SOL    HW1 1182   1.322   0.265   1.992  1.0183 -1.4023  0.6053
  296SOL    HW2 1183   1.302   0.263   2.151  0.4178 -0.2386 -2.2134
  296SOL     MW 1184   1.280   0.288   2.068  0.3875  0.0548 -0.3332
  297SOL     OW 1185   1.451   0.404   1.497 -0.2640 -0.1714 -0.3187
  297SOL    HW1 1186   1.504   0.479   1.519 -1.8156 -0.1373  1.1666
  297SOL    HW2 1187   1.487   0.324   1.532  0.2874 -0.3688  0.0071
  297SOL     MW 1188   1.463   0.403   1.505 -0.3960 -0.1929 -0.0797
  298SOL     OW 1189   1.479   0.956   2.063  0.1112  0.0165 -0.3888
  298SOL    HW1 1190   1.467   0.986   1.972  0.0230  0.5823 -0.6690
  298SOL    HW2 1191   1.573   0.954   2.082 -1.3574 -0.0376  0.2035
  298SOL     MW 1192   1.490   0.960   2.054 -0.0942  0.0840 -0.3476
  299SOL     OW 1193   0.522   1.003   3.032  0.3382  0.4875  0.2678
  299SOL    HW1 1194   0.602   1.056   3.044 -0.5784 -2.6213 -2.8622
  299SOL    HW2 1195   0.473   1.040   2.958 -3.8800 -0.0379  2.3898
  299SOL     MW 1196   0.526   1.015   3.024 -0.3393  0.0080  0.1348
  300SOL     OW 1197   1.193   1.105   2.538  0.3361  0.5652 -0.5431
  300SOL    HW1 1198   1.122   1.102   2.468  1.8094 -0.5012 -0.8645
  300SOL    HW2 1199   1.181   1.029   2.600  1.8124  0.8078  2.6494
  300SOL     MW 1200   1.182   1.094   2.537  0.7253  0.4565 -0.1643
  301SOL     OW 1201   1.397   0.746   0.554 -0.2981  0.2857  0.4528
  301SOL    HW1 1202   1.413   0.734   0.650  0.3455 -1.4502  1.5771
  301SOL    HW2 1203   1.334   0.684   0.529  0.4402 -0.5528  1.3140
  301SOL     MW 1204   1.391   0.736   0.563 -0.1158 -0.0539  0.7148
  302SOL     OW 1205   0.130   1.479   1.937  0.0387 -0.8933 -0.1305
  302SOL    HW1 1206   0.151   1.436   2.020 -1.2634 -0.2111  0.5354
  302SOL    HW2 1207   0.070   1.550   1.968  1.2086 -0.6680 -1.5326
  302SOL     MW 1208   0.125   1.483   1.952  0.0212 -0.7736 -0.2277
  303SOL     OW 1209   0.424   1.808   2.622  0.0441 -0.4801 -0.6076
  303SOL    HW1 1210   0.429   1.873   2.555  2.1121 -0.8438 -1.7538
  303SOL    HW2 1211   0.335   1.816   2.648  0.9604  1.8163 -1.5930
  303SOL     MW 1212   0.413   1.817   2.617  0.4379 -0.2251 -0.8888
  304SOL     OW 1213   0.505   2.027   2.444 -0.5473  1.2285  0.3032
  304SOL    HW1 1214   0.507   2.112   2.394 -0.6441  0.2006 -4.3315
  304SOL    HW2 1215   0.583   1.975   2.435 -1.8292 -1.4602 -0.3956
  304SOL     MW 1216   0.515   2.032   2.436 -0.7292  0.7381 -0.4005
  305SOL     OW 1217   1.183   0.569   0.466  0.0409 -0.1606  0.4770
  305SOL    HW1 1218   1.095   0.526   0.487 -0.7748  1.0150 -0.9145
  305SOL    HW2 1219   1.232   0.493   0.481 -0.4333  0.0852  1.4082
  305SOL     MW 1220   1.178   0.553   0.471 -0.1293  0.0270  0.4163
  306SOL     OW 1221   1.222   1.413   0.289  0.3076  0.0275 -0.1435
  306SOL    HW1 1222   1.248   1.337   0.338  0.4112  0.3362  0.4546
  306SOL    HW2 1223   1.289   1.418   0.214  0.6586 -1.7853  1.7991
  306SOL     MW 1224   1.235   1.404   0.286  0.3676 -0.1710  0.1917
  307SOL     OW 1225   1.311   0.599   1.990 -0.3503  0.4936  0.4917
  307SOL    HW1 1226   1.280   0.511   2.012  0.2210 -0.8188  0.5656
  307SOL    HW2 1227   1.385   0.613   2.051  1.4986 -1.7251  3.4534
  307SOL     MW 1228   1.317   0.589   2.001 -0.0310  0.0277  0.8922
  308SOL     OW 1229   2.148   0.580   2.744  0.2968  0.9141 -0.0515
  308SOL    HW1 1230   2.103   0.490   2.748 -0.1558 -2.9574 -0.6148
  308SOL    HW2 1231   2.243   0.574   2.740  2.4298  1.6829 -0.0140
  308SOL     MW 1232   2.155   0.567   2.744  0.5185  0.5048 -0.1209
  309SOL     OW 1233   0.519   0.498   0.384  0.9021 -0.3158  0.2343
  309SOL    HW1 1234   0.564   0.422   0.413  1.5346  0.8858 -1.4004
  309SOL    HW2 1235   0.547   0.508   0.293  3.8497  0.0523  0.0296
  309SOL     MW 1236   0.529   0.490   0.376  1.3744 -0.1087 -0.0084
  310SOL     OW 1237   0.420   0.508   1.914 -0.1864 -0.2568  0.2382
  310SOL    HW1 1238   0.482   0.453   1.862  1.1797 -0.9458 -1.6167
  310SOL    HW2 1239   0.467   0.593   1.911  2.6855  1.1664 -0.0630
  310SOL     MW 1240   0.434   0.512   1.907  0.3728 -0.1599 -0.0463
  311SOL     OW 1241   1.867   0.776   1.940  1.1775  0.2423  0.0716
  311SOL    HW1 1242   1.841   0.768   2.031  0.3239 -1.5984 -2.6619
  311SOL    HW2 1243   1.941   0.721   1.925 -1.3426  3.5717  1.3350
  311SOL     MW 1244   1.874   0.768   1.950  0.7324  0.4387 -0.1224
  312SOL     OW 1245   1.711   2.599   3.071 -0.2511 -0.7909  0.1792
  312SOL    HW1 1246   1.773   2.621   3.138 -0.7390  0.2563 -0.1034
  312SOL    HW2 1247   1.621   2.591   3.113 -1.5836 -0.7260  3.2081
  312SOL     MW 1248   1.707   2.601   3.085 -0.4913 -0.6442  0.5416
  313SOL     OW 1249   0.120   1.210   2.926 -0.7043  0.4231 -0.4851
  313SOL    HW1 1250   0.192   1.180   2.984 -1.9504 -2.3852 -2.1041
  313SOL    HW2 1251   0.138   1.195   2.831  0.0458 -0.4663  2.5332
  313SOL     MW 1252   0.132   1.204   2.921 -0.7697 -0.0647 -0.3005
  314SOL     OW 1253   2.161   3.030   2.977 -0.2024  0.3979 -0.1205
  314SOL    HW1 1254   2.106   3.096   2.936  2.1119 -1.1517  1.8068
  314SOL    HW2 1255   2.211   3.087   3.032  0.2320 -0.0879  0.4836
  314SOL     MW 1256   2.160   3.046   2.979  0.1603  0.1293  0.2135
  315SOL     OW 1257   1.580   1.990   3.030  0.0697  0.2003  0.4647
  315SOL    HW1 1258   1.491   2.006   3.075 -0.7290  1.0801  1.4152
  315SOL    HW2 1259   1.582   2.040   2.943 -0.1821 -0.9593 -0.1171
  315SOL     MW 1260   1.568   1.999   3.024 -0.0689  0.1634  0.5133
  316SOL     OW 1261   1.238   0.658   2.691  0.1623  0.6449 -0.0334
  316SOL    HW1 1262   1.291   0.578   2.693  0.5027  0.3872  1.0883
  316SOL    HW2 1263   1.229   0.675   2.788 -0.4270 -0.3022 -1.4861
  316SOL     MW 1264   1.244   0.650   2.704  0.1295  0.4859 -0.0771
  317SOL     OW 1265   0.660   1.371   2.600  0.2821  0.2392 -0.2410
  317SOL    HW1 1266   0.693   1.332   2.678 -1.3692 -0.0906  0.6115
  317SOL    HW2 1267   0.733   1.379   2.539 -0.6058 -2.0319  3.3656
  317SOL     MW 1268   0.674   1.367   2.602 -0.0529 -0.1039  0.3474
  318SOL     OW 1269   1.269   0.382   2.931  0.2236 -0.5355  0.0099
  318SOL    HW1 1270   1.190   0.437   2.902 -0.3931 -0.4989 -1.4223
  318SOL    HW2 1271   1.339   0.441   2.904 -2.4054 -2.1529 -1.5359
  318SOL     MW 1272   1.268   0.397   2.924 -0.2046 -0.7441 -0.3830
  319SOL     OW 1273   0.773   0.400   2.737  0.6652  0.3474  0.2495
  319SOL    HW1 1274   0.714   0.362   2.673 -0.5197 -0.1108 -1.0436
  319SOL    HW2 1275   0.740   0.358   2.816  0.3545  1.0285  0.0582
  319SOL     MW 1276   0.761   0.389   2.739  0.4679  0.3768  0.0537
  320SOL     OW 1277   1.020   1.310   2.016 -0.1407  0.2770  0.2215
  320SOL    HW1 1278   1.078   1.267   2.078 -1.0060 -1.2047  0.2096
  320SOL    HW2 1279   1.073   1.371   1.968 -2.1074  0.2289 -0.8152
  320SOL     MW 1280   1.035   1.312   2.018 -0.5143  0.0752  0.0832
  321SOL     OW 1281   1.102   0.972   2.965 -0.0881  0.0332  0.0839
  321SOL    HW1 1282   1.034   0.968   2.894  4.4958 -1.5873  0.7514
  321SOL    HW2 1283   1.156   0.889   2.959  0.3557 -2.6719  0.8607
  321SOL     MW 1284   1.100   0.961   2.955  0.5753 -0.5375  0.2744
  322SOL     OW 1285   1.213   0.888   1.718 -0.2807  0.1084  0.0713
  322SOL    HW1 1286   1.281   0.823   1.734 -1.9161 -1.9550  0.4470
  322SOL    HW2 1287   1.187   0.914   1.806 -0.0505 -0.8879  1.4906
  322SOL     MW 1288   1.219   0.883   1.732 -0.4661 -0.2953  0.3082
  323SOL     OW 1289   1.194   1.506   1.902 -0.1440 -0.1833 -0.5662
  323SOL    HW1 1290   1.204   1.435   1.837  2.3855  1.7327  2.4284
  323SOL    HW2 1291   1.150   1.578   1.858 -1.2697 -2.0493  0.5923
  323SOL     MW 1292   1.189   1.506   1.887  0.0412 -0.1767 -0.0182
  324SOL     OW 1293   1.501   1.098   2.482  0.3355  0.1020  0.2013
  324SOL    HW1 1294   1.416   1.088   2.529 -1.3074  1.0853  4.8384
  324SOL    HW2 1295   1.554   1.129   2.553 -1.4626 -2.1735  0.1833
  324SOL     MW 1296   1.497   1.100   2.497 -0.1185 -0.0685  0.8108
  325SOL     OW 1297   0.995   0.474   2.929  0.1214  0.5154  0.3257
  325SOL    HW1 1298   0.953   0.530   2.993  2.0196 -1.3939 -3.3750
  325SOL    HW2 1299   0.939   0.467   2.851 -0.2327  2.5865  1.9586
  325SOL     MW 1300   0.982   0.480   2.927  0.3252  0.5367  0.0529
  326SOL     OW 1301   0.391   1.357   2.169  0.0662  0.6662 -0.0758
  326SOL    HW1 1302   0.459   1.310   2.117  1.2684  3.4002  1.2506
  326SOL    HW2 1303   0.410   1.450   2.165  0.7824 -1.5304 -0.3754
  326SOL     MW 1304   0.403   1.363   2.162  0.3193  0.7371  0.0597
  327SOL     OW 1305   1.905   0.834   2.415 -0.0964 -0.6796  0.1846
  327SOL    HW1 1306   1.908   0.784   2.498  1.6839  0.4760  1.6411
  327SOL    HW2 1307   1.995   0.871   2.404 -2.6219  0.7714  1.1370
  327SOL     MW 1308   1.918   0.832   2.424 -0.1947 -0.3357  0.5024
  328SOL     OW 1309   0.123   1.304   2.189 -0.2901  1.1559 -0.0909
  328SOL    HW1 1310   0.077   1.243   2.131 -0.0485 -0.2958  1.8911
  328SOL    HW2 1311   0.216   1.287   2.189 -2.0062  2.4034  1.8573
  328SOL     MW 1312   0.129   1.294   2.181 -0.4847  1.1289  0.4276
  329SOL     OW 1313   0.142   0.167   1.389  0.0138 -0.1206 -0.7718
  329SOL    HW1 1314   0.093   0.244   1.415  1.4132  3.2414  2.5665
  329SOL    HW2 1315   0.233   0.201   1.393  1.5504  0.0292 -0.2589
  329SOL     MW 1316   0.148   0.182   1.393  0.4012  0.3428 -0.2637
  330SOL     OW 1317   0.401   2.949   2.095  0.1031  0.1232  0.3414
  330SOL    HW1 1318   0.475   2.974   2.153 -0.3597 -0.3964 -1.1583
  330SOL    HW2 1319   0.333   2.939   2.161  0.4849 -0.1971  2.9894
  330SOL     MW 1320   0.402   2.951   2.112  0.0924  0.0124  0.4929
  331SOL     OW 1321   0.723   1.204   2.221  0.4813  0.8443  0.0609
  331SOL    HW1 1322   0.662   1.206   2.151 -0.5893 -1.5852  3.2186
  331SOL    HW2 1323   0.767   1.285   2.196  2.4103 -1.0655  0.6023
  331SOL     MW 1324   0.721   1.215   2.208  0.5946  0.2718  0.5490
  332SOL     OW 1325   1.363   1.736   2.932  0.6648 -0.4400  0.2543
  332SOL    HW1 1326   1.390   1.759   2.837  2.0957  0.8465 -1.6903
  332SOL    HW2 1327   1.368   1.823   2.972  1.9714  0.7045 -0.6354
  332SOL     MW 1328   1.367   1.750   2.925  1.0260 -0.1192 -0.1196
  333SOL     OW 1329   1.741   1.493   3.027 -0.0202 -0.2169 -0.2494
  333SOL    HW1 1330   1.835   1.490   3.055  1.5480 -1.4243 -1.4657
  333SOL    HW2 1331   1.695   1.429   3.085 -1.7765 -1.9987 -0.5142
  333SOL     MW 1332   1.747   1.484   3.039 -0.0450 -0.6113 -0.4448
  334SOL     OW 1333   1.177   3.067   2.597  0.5629 -0.0387  0.3315
  334SOL    HW1 1334   1.110   3.068   2.674  1.1918 -1.2302  0.8730
  334SOL    HW2 1335   1.214   3.156   2.599 -1.3074 -0.2406 -0.3990
  334SOL     MW 1336   1.173   3.079   2.607  0.3991 -0.2225  0.3065
  335SOL     OW 1337   1.264   0.740   2.958  0.1753 -0.5477 -0.0006
  335SOL    HW1 1338   1.292   0.721   3.046 -1.3366  0.0520  0.7203
  335SOL    HW2 1339   1.328   0.800   2.927  0.5192  1.8084  1.0751
  335SOL     MW 1340   1.276   0.745   2.966  0.0212 -0.1577  0.2364
  336SOL     OW 1341   0.936   1.069   1.849 -0.3503 -0.1098 -0.3624
  336SOL    HW1 1342   0.909   1.142   1.910 -1.2493 -0.3099  1.7128
  336SOL    HW2 1343   0.998   1.020   1.899 -0.5768  0.0178  3.0064
  336SOL     MW 1344   0.940   1.072   1.864 -0.4988 -0.1194  0.3559
  337SOL     OW 1345   0.600   1.764   2.824 -0.8094 -0.2009  0.1108
  337SOL    HW1 1346   0.527   1.794   2.772 -0.6782 -1.4893 -0.3371
  337SOL    HW2 1347   0.637   1.692   2.765  2.1710 -1.9756 -3.7835
  337SOL     MW 1348   0.595   1.758   2.809 -0.3989 -0.6051 -0.4621
  338SOL     OW 1349   1.047   0.788   2.536  0.2701  0.0497 -0.1757
  338SOL    HW1 1350   0.964   0.778   2.581  0.2692 -3.6452 -4.7983
  338SOL    HW2 1351   1.117   0.771   2.602  2.3519 -0.1803  2.2396
  338SOL     MW 1352   1.045   0.785   2.551  0.5446 -0.4682 -0.4669
  339SOL     OW 1353   1.441   1.088   1.842  0.7861 -0.1680 -0.0863
  339SOL    HW1 1354   1.375   1.121   1.780 -0.4237 -0.2953  0.5202
  339SOL    HW2 1355   1.455   1.172   1.892  1.3933  2.7242 -0.4755
  339SOL     MW 1356   1.434   1.104   1.840  0.7066  0.1968 -0.0576
  340SOL     OW 1357   1.345   1.564   0.077 -0.6314  0.4553 -0.3151
  340SOL    HW1 1358   1.366   1.604  -0.010 -1.5673  0.3317  0.9727
  340SOL    HW2 1359   1.424   1.577   0.126  0.8992 -0.4827  0.8800
  340SOL     MW 1360   1.358   1.571   0.072 -0.5529  0.3152  0.0125
  341SOL     OW 1361   0.154   1.272   2.662 -0.2875  0.4093  0.9790
  341SOL    HW1 1362   0.228   1.328   2.655 -0.8928 -2.0650 -0.6298
  341SOL    HW2 1363   0.112   1.263   2.576 -1.0947  2.5362  0.7643
  341SOL     MW 1364   0.158   1.278   2.649 -0.4739  0.3635  0.7384
  342SOL     OW 1365   1.412   0.270   0.081  0.2339 -0.1327  0.2155
  342SOL    HW1 1366   1.431   0.345   0.140 -0.5030  4.1795 -0.6326
  342SOL    HW2 1367   1.421   0.317  -0.003  1.7423  0.2494  0.1906
  342SOL     MW 1368   1.416   0.286   0.078  0.3357  0.4866  0.1003
  343SOL     OW 1369   0.195   0.295   2.288 -0.0937 -0.4739  0.2817
  343SOL    HW1 1370   0.233   0.230   2.347 -0.9751 -1.5660  2.6114
  343SOL    HW2 1371   0.143   0.255   2.215 -1.4730  1.1083  0.5616
  343SOL     MW 1372   0.193   0.281   2.286 -0.3920 -0.4092  0.6260
  344SOL     OW 1373   1.684   2.161   0.099  0.0958 -0.4251  0.1454
  344SOL    HW1 1374   1.726   2.230   0.043  3.3000  2.3828  0.0126
  344SOL    HW2 1375   1.650   2.093   0.033 -1.3235 -2.4523 -0.5275
  344SOL     MW 1376   1.685   2.161   0.083  0.3313 -0.3221  0.0391
  345SOL     OW 1377   0.671   1.592   2.362 -0.2471  0.2177 -0.1480
  345SOL    HW1 1378   0.580   1.607   2.337  0.5979  1.0643  2.6984
  345SOL    HW2 1379   0.714   1.539   2.286  0.7720  0.1366 -0.9952
  345SOL     MW 1380   0.665   1.587   2.348 -0.0012  0.3187  0.1158
  346SOL     OW 1381   1.682   1.026   0.003 -0.1008 -0.0162 -0.1554
  346SOL    HW1 1382   1.773   1.014  -0.014 -1.7596  0.5346 -0.9222
  346SOL    HW2 1383   1.646   0.967   0.065 -0.9710  1.2025  1.6205
  346SOL     MW 1384   1.689   1.016   0.009 -0.4345  0.2172 -0.0222
  347SOL     OW 1385   1.163   0.663   2.343 -0.3887  0.1337  0.3188
  347SOL    HW1 1386   1.254   0.652   2.385  0.8002 -1.5104  1.3823
  347SOL    HW2 1387   1.113   0.715   2.406  1.7377 -1.3514 -1.0814
  347SOL     MW 1388   1.168   0.669   2.357  0.0487 -0.2792  0.2744
  348SOL     OW 1389   1.336   2.659   1.884  0.8417 -0.4949 -0.1647
  348SOL    HW1 1390   1.373   2.593   1.943 -1.5564  1.4425 -1.6786
  348SOL    HW2 1391   1.366   2.739   1.930 -0.6475  1.7293  0.6513
  348SOL     MW 1392   1.345   2.661   1.898  0.3288  0.0542 -0.2568
  349SOL     OW 1393   1.347   0.195   2.684  0.3345 -0.3052 -0.1509
  349SOL    HW1 1394   1.331   0.225   2.773 -1.2226 -0.4392  0.6333
  349SOL    HW2 1395   1.440   0.167   2.691  1.0040 -2.6678  1.4670
  349SOL     MW 1396   1.357   0.195   2.697  0.2174 -0.6346  0.1661
  350SOL     OW 1397   1.883   0.644   2.643 -0.5233  0.0675  0.0410
  350SOL    HW1 1398   1.846   0.572   2.589 -3.1993  0.3220 -0.3960
  350SOL    HW2 1399   1.971   0.612   2.670  1.6389  0.5263 -0.8067
  350SOL     MW 1400   1.889   0.630   2.640 -0.5911  0.1616 -0.1285
  351SOL     OW 1401   0.027   0.958   1.569 -0.6523 -0.4153 -0.0007
  351SOL    HW1 1402  -0.036   0.997   1.629  1.1860  1.6470 -0.7137
  351SOL    HW2 1403   0.094   1.026   1.568 -0.0836 -0.0210  1.6035
  351SOL     MW 1404   0.028   0.972   1.577 -0.3348 -0.0912  0.1168
  352SOL     OW 1405   0.802   1.562   2.717 -0.4259  0.1453  0.2715
  352SOL    HW1 1406   0.812   1.538   2.804 -1.1287  0.8506  0.7310
  352SOL    HW2 1407   0.753   1.490   2.671 -0.2823  0.3777  0.0876
  352SOL     MW 1408   0.797   1.550   2.722 -0.4997  0.2690  0.3079
  353SOL     OW 1409   3.070   2.430   2.763 -0.4573  0.2229 -0.3091
  353SOL    HW1 1410   3.159   2.423   2.732 -2.5116 -1.8207  2.3091
  353SOL    HW2 1411   3.035   2.516   2.741 -1.1340  0.3605 -0.1345
  353SOL     MW 1412   3.077   2.440   2.756 -0.8177 -0.0286  0.0594
  354SOL     OW 1413   0.366   2.450   0.898  0.5726 -0.5750  0.1100
  354SOL    HW1 1414   0.391   2.443   0.997  1.3343  1.3442 -1.0638
  354SOL    HW2 1415   0.276   2.414   0.892 -0.6199  0.3688 -1.9619
  354SOL     MW 1416   0.357   2.445   0.910  0.5157 -0.1973 -0.3182
  355SOL     OW 1417   0.086   2.255   0.367 -0.2078 -0.3335 -0.2292
  355SOL    HW1 1418   0.004   2.202   0.357 -0.8564 -0.5521 -1.2471
  355SOL    HW2 1419   0.063   2.306   0.445  1.8787  1.3480  0.9470
  355SOL     MW 1420   0.072   2.255   0.376 -0.0181 -0.1405 -0.2083
  356SOL     OW 1421   0.713   2.941   0.980  0.6564  0.2137  0.1973
  356SOL    HW1 1422   0.795   2.909   0.943 -1.2163 -1.1909 -1.8419
  356SOL    HW2 1423   0.647   2.866   0.960  1.2333  0.7503  1.1469
  356SOL     MW 1424   0.715   2.927   0.972  0.4854  0.0992  0.0535
  357SOL     OW 1425   1.780   2.971   0.375  0.2658  0.0744  0.0624
  357SOL    HW1 1426   1.732   2.895   0.414 -2.1501 -0.9881  1.4095
  357SOL    HW2 1427   1.864   2.924   0.352 -0.0835 -1.1021  0.9013
  357SOL     MW 1428   1.785   2.955   0.377 -0.0990 -0.2210  0.3508
  358SOL     OW 1429   0.477   0.153   1.049 -0.9207  0.4011  0.2628
  358SOL    HW1 1430   0.563   0.127   1.002  1.4047 -1.0859 -0.0997
  358SOL    HW2 1431   0.410   0.165   0.980 -0.9236 -0.3927  0.7738
  358SOL     MW 1432   0.479   0.151   1.033 -0.6143  0.1002  0.2824
  359SOL     OW 1433   0.888   2.743   1.909 -0.0516  0.5668 -0.2258
  359SOL    HW1 1434   0.858   2.662   1.957  2.0389  2.4665 -1.7503
  359SOL    HW2 1435   0.971   2.712   1.867 -1.3405 -1.5097  0.4912
  359SOL     MW 1436   0.895   2.728   1.910  0.0541  0.5435 -0.3323
  360SOL     OW 1437   0.538   2.739   0.919  0.4344  0.6319 -0.3029
  360SOL    HW1 1438   0.543   2.671   0.853  2.8993  1.0441  1.4700
  360SOL    HW2 1439   0.546   2.689   1.006 -1.1158  1.0375 -0.6269
  360SOL     MW 1440   0.540   2.724   0.922  0.5551  0.7398 -0.1117
  361SOL     OW 1441   0.181   2.749   1.375  0.0470  0.4269  0.1617
  361SOL    HW1 1442   0.169   2.832   1.409  3.5652 -2.0745 -3.3799
  361SOL    HW2 1443   0.271   2.728   1.393 -0.6033  0.0100  1.8862
  361SOL     MW 1444   0.191   2.757   1.382  0.4254  0.0419 -0.0780
  362SOL     OW 1445   1.497   2.408   0.607  0.3162  0.0045 -0.3161
  362SOL    HW1 1446   1.509   2.328   0.653  0.4147 -0.6148 -2.1943
  362SOL    HW2 1447   1.485   2.482   0.669 -0.7014  0.8959  0.0688
  362SOL     MW 1448   1.497   2.407   0.621  0.1949  0.0404 -0.5131
  363SOL     OW 1449   0.264   3.054   0.696 -0.6648 -0.5142  0.6746
  363SOL    HW1 1450   0.241   3.002   0.766 -2.8325  0.3450  0.6770
  363SOL    HW2 1451   0.188   3.050   0.637 -1.6024 -1.9847 -0.8931
  363SOL     MW 1452   0.251   3.047   0.698 -1.0745 -0.5949  0.4681
  364SOL     OW 1453   0.750   0.164   0.224  0.3445  0.1883 -0.5204
  364SOL    HW1 1454   0.735   0.070   0.228 -0.6040  1.5409 -0.4953
  364SOL    HW2 1455   0.661   0.198   0.194 -1.9351  0.9205 -0.3332
  364SOL     MW 1456   0.736   0.156   0.221 -0.0814  0.4633 -0.4924
  365SOL     OW 1457   1.028   1.979   1.149 -0.4832 -0.2219  0.4091
  365SOL    HW1 1458   1.035   2.070   1.112  0.3833  0.1380  2.3557
  365SOL    HW2 1459   0.965   1.945   1.092  0.7120  3.0807  1.7526
  365SOL     MW 1460   1.020   1.987   1.136 -0.2112  0.2613  0.8432
  366SOL     OW 1461   2.868   2.640   1.004 -0.3063  0.3050  0.1720
  366SOL    HW1 1462   2.941   2.648   1.063  1.7528 -2.3166  1.5134
  366SOL    HW2 1463   2.909   2.645   0.915  1.1342 -1.0689 -0.6104
  366SOL     MW 1464   2.883   2.641   1.000  0.1555 -0.2221  0.2457
  367SOL     OW 1465   1.282   2.947   0.869  0.0311  0.1046  0.3622
  367SOL    HW1 1466   1.195   2.968   0.882 -0.0375 -3.0409  1.0487
  367SOL    HW2 1467   1.282   2.907   0.784 -0.0487 -2.1527 -1.7530
  367SOL     MW 1468   1.270   2.945   0.859  0.0115 -0.6082  0.1737
  368SOL     OW 1469   1.703   0.443   0.667 -0.1301  0.3268  0.2831
  368SOL    HW1 1470   1.763   0.365   0.653 -0.1839 -1.5042 -0.9373
  368SOL    HW2 1471   1.768   0.509   0.682 -0.8493 -4.8850 -2.5213
  368SOL     MW 1472   1.720   0.441   0.667 -0.2321 -0.6025 -0.2480
  369SOL     OW 1473   0.143   2.463   1.744 -0.3619  0.4380  0.1096
  369SOL    HW1 1474   0.232   2.427   1.762  0.2443 -0.1458 -0.3541
  369SOL    HW2 1475   0.137   2.549   1.778  1.6716 -3.1770  0.4185
  369SOL     MW 1476   0.154   2.469   1.751 -0.0136 -0.1160  0.0892
  370SOL     OW 1477   0.693   0.096   0.870 -0.4858  0.0533  0.1313
  370SOL    HW1 1478   0.763   0.158   0.898 -0.0444  1.6510 -0.7223
  370SOL    HW2 1479   0.722   0.003   0.894 -1.8266  0.9640 -0.0897
  370SOL     MW 1480   0.706   0.092   0.877 -0.6045  0.3842 -0.0105
  371SOL     OW 1481   1.358   2.990   1.506 -0.5162 -0.1532  0.6314
  371SOL    HW1 1482   1.288   2.925   1.476 -0.2620 -1.6731 -2.9614
  371SOL    HW2 1483   1.365   3.043   1.429  1.0722 -2.7362 -2.5896
  371SOL     MW 1484   1.350   2.988   1.492 -0.2731 -0.6945 -0.2676
  372SOL     OW 1485   0.781   2.276   0.477  0.3703 -0.3456  0.5897
  372SOL    HW1 1486   0.719   2.207   0.487 -2.7164  1.0311 -2.0553
  372SOL    HW2 1487   0.799   2.278   0.385 -2.7243  1.4352 -0.2638
  372SOL     MW 1488   0.775   2.267   0.466 -0.4453  0.0710  0.1281
  373SOL     OW 1489   2.788   2.979   1.398  0.1160 -0.0655  0.3556
  373SOL    HW1 1490   2.865   2.967   1.338  1.8982 -0.0210  1.5055
  373SOL    HW2 1491   2.748   3.055   1.359 -1.0327 -1.1765  0.0002
  373SOL     MW 1492   2.793   2.987   1.385  0.1996 -0.2062  0.4604
  374SOL     OW 1493   1.475   0.517   0.239  0.1371  0.0844 -0.3415
  374SOL    HW1 1494   1.547   0.529   0.174 -0.7737  0.2924  1.1303
  374SOL    HW2 1495   1.521   0.479   0.313  0.4367 -0.6026  2.3116
  374SOL     MW 1496   1.491   0.513   0.240  0.0564  0.0212  0.2027
  375SOL     OW 1497   1.117   2.108   2.257 -0.1438 -0.2863 -0.2661
  375SOL    HW1 1498   1.150   2.126   2.346 -0.1683  1.6318  0.0350
  375SOL    HW2 1499   1.099   2.011   2.239 -1.8528 -0.5139  0.9710
  375SOL     MW 1500   1.119   2.098   2.267 -0.3725 -0.0632 -0.0632
  376SOL     OW 1501   0.691   2.536   0.152 -0.2160  0.0937 -0.3266
  376SOL    HW1 1502   0.737   2.456   0.178  0.8356 -2.4176 -1.7879
  376SOL    HW2 1503   0.610   2.505   0.106  0.1270 -0.3036 -0.5363
  376SOL     MW 1504   0.686   2.521   0.149 -0.0320 -0.2900 -0.5470
  377SOL     OW 1505   1.306   2.095   0.910 -0.6691 -0.2593  0.5618
  377SOL    HW1 1506   1.239   2.062   0.850  0.8910 -0.0012  0.9917
  377SOL    HW2 1507   1.286   2.047   0.996 -1.7900 -2.5187 -0.7785
  377SOL     MW 1508   1.295   2.084   0.914 -0.6111 -0.5233  0.4417
  378SOL     OW 1509   0.972   2.827   1.499 -0.1337  0.0094 -0.3367
  378SOL    HW1 1510   0.919   2.753   1.536  1.6777 -1.0713  1.7518
  378SOL    HW2 1511   0.931   2.861   1.422 -0.4694  0.5514  1.0552
  378SOL     MW 1512   0.960   2.821   1.493  0.0610 -0.0617  0.1225
  379SOL     OW 1513   1.033   1.837   2.302  0.0514  0.2665  0.6331
  379SOL    HW1 1514   0.941   1.849   2.286 -0.7027  0.8888  1.0517
  379SOL    HW2 1515   1.060   1.775   2.238  0.2582  1.1482  3.0883
  379SOL     MW 1516   1.025   1.830   2.292 -0.0208  0.4649  1.0123
  380SOL     OW 1517   0.910   0.236   1.535 -0.2096  0.0167  0.7961
  380SOL    HW1 1518   0.947   0.191   1.458  2.6941 -0.9162 -2.1659
  380SOL    HW2 1519   0.971   0.219   1.606 -0.3717 -0.0649  1.3268
  380SOL     MW 1520   0.923   0.228   1.534  0.1521 -0.1171  0.4753
  381SOL     OW 1521   0.838   2.025   0.828  0.4693  0.4500  0.1520
  381SOL    HW1 1522   0.926   2.007   0.791 -1.7741  2.0348  0.3222
  381SOL    HW2 1523   0.858   2.088   0.905 -0.3431  0.0755  2.5713
  381SOL     MW 1524   0.853   2.031   0.833  0.0661  0.6097  0.4937
  382SOL     OW 1525   0.681   0.021   0.603  0.2768  0.3227  0.5188
  382SOL    HW1 1526   0.663   0.062   0.686 -0.5602  0.5059  0.0704
  382SOL    HW2 1527   0.651  -0.072   0.611  0.9903  0.2250  2.2721
  382SOL     MW 1528   0.675   0.014   0.615  0.2605  0.3340  0.6909
  383SOL     OW 1529   0.487   0.005   0.362 -1.3033 -0.7596  0.1392
  383SOL    HW1 1530   0.468  -0.039   0.442 -0.6724  2.4373 -1.9924
  383SOL    HW2 1531   0.406   0.002   0.322  1.5314  0.1381 -0.0445
  383SOL     MW 1532   0.473  -0.001   0.368 -0.8461 -0.2193 -0.1663
  384SOL     OW 1533   0.632   2.858   0.587 -0.3842 -0.1591  0.0947
  384SOL    HW1 1534   0.635   2.776   0.641  0.1510 -0.2371  1.1921
  384SOL    HW2 1535   0.544   2.842   0.541  0.8772 -1.1650  0.2132
  384SOL     MW 1536   0.620   2.845   0.588 -0.1471 -0.3021  0.2551
  385SOL     OW 1537   1.317   2.034   1.536 -0.3347 -0.1244  0.5292
  385SOL    HW1 1538   1.392   2.067   1.586 -1.6357  1.7866 -1.2853
  385SOL    HW2 1539   1.280   1.960   1.584 -0.7812  0.7109 -1.5782
  385SOL     MW 1540   1.322   2.029   1.549 -0.5652  0.2379  0.0118
  386SOL     OW 1541   1.321   0.435   0.922  1.0661 -0.2697 -0.4218
  386SOL    HW1 1542   1.253   0.390   0.876  0.5843 -0.9229 -1.3874
  386SOL    HW2 1543   1.294   0.432   1.014 -0.1600  0.8264 -0.6251
  386SOL     MW 1544   1.308   0.429   0.928  0.8408 -0.2112 -0.5760
  387SOL     OW 1545   0.878   2.195   1.447  0.4991 -0.3814  1.2049
  387SOL    HW1 1546   0.953   2.248   1.402 -0.8655  0.4342 -0.3543
  387SOL    HW2 1547   0.893   2.105   1.423  2.4933 -1.0815 -1.0248
  387SOL     MW 1548   0.890   2.190   1.438  0.5822 -0.3662  0.7050
  388SOL     OW 1549   1.586   2.861   1.217 -0.2892  0.1126 -0.1678
  388SOL    HW1 1550   1.496   2.830   1.196  0.9947  0.6365 -0.9687
  388SOL    HW2 1551   1.645   2.800   1.166  0.2265 -0.4400 -2.5032
  388SOL     MW 1552   1.581   2.849   1.207 -0.0517  0.1088 -0.5816
  389SOL     OW 1553   0.433   0.109   3.081 -0.4478  0.9055  0.6352
  389SOL    HW1 1554   0.524   0.085   3.054 -0.3283  0.9479 -0.3222
  389SOL    HW2 1555   0.394   0.021   3.111  1.1833  0.2400 -0.7512
  389SOL     MW 1556   0.440   0.094   3.081 -0.2168  0.8233  0.3260
  390SOL     OW 1557   1.383   0.061   0.636  0.0186 -0.7452 -0.3696
  390SOL    HW1 1558   1.474   0.086   0.617  0.1733  0.3229 -0.6881
  390SOL    HW2 1559   1.366   0.066   0.729  0.8743 -0.5963  0.0891
  390SOL     MW 1560   1.392   0.065   0.645  0.1519 -0.5847 -0.3511
  391SOL     OW 1561   0.267   2.312   1.422 -0.3566  0.7277 -0.0252
  391SOL    HW1 1562   0.232   2.237   1.474  1.5644 -0.8892 -0.9493
  391SOL    HW2 1563   0.202   2.388   1.433  2.3424 -0.3182 -2.7410
  391SOL     MW 1564   0.254   2.312   1.431  0.2530  0.3763 -0.5055
  392SOL     OW 1565   1.991   2.176   0.288 -0.5923  0.4524  0.0414
  392SOL    HW1 1566   1.939   2.237   0.337  0.1157 -1.2983  3.4591
  392SOL    HW2 1567   2.047   2.138   0.361  2.2952  1.3832  1.6010
  392SOL     MW 1568   1.992   2.179   0.304 -0.1179  0.3443  0.6981
  393SOL     OW 1569   0.219   3.000   2.955 -0.0597  0.3990 -0.1769
  393SOL    HW1 1570   0.281   3.068   2.931 -0.7393 -1.8400  3.3754
  393SOL    HW2 1571   0.148   3.021   2.899  0.9894  2.0973  1.9647
  393SOL     MW 1572   0.218   3.012   2.945 -0.0110  0.3276  0.5744
  394SOL     OW 1573   0.814   1.661   1.443  0.5031 -0.2788 -0.5566
  394SOL    HW1 1574   0.763   1.666   1.529 -0.8874 -3.0195  1.0865
  394SOL    HW2 1575   0.850   1.743   1.433  2.4297  1.1210 -0.8447
  394SOL     MW 1576   0.812   1.673   1.453  0.5738 -0.4557 -0.3778
  395SOL     OW 1577   0.918   2.848   2.608  0.3712 -0.0774 -0.1857
  395SOL    HW1 1578   0.956   2.900   2.686 -1.6200  1.3216  1.4521
  395SOL    HW2 1579   1.003   2.799   2.582  0.2327  1.9089  0.9429
  395SOL     MW 1580   0.935   2.848   2.615  0.0902  0.3692  0.1793
  396SOL     OW 1581   0.751   1.855   2.360  0.1579  0.5042 -0.1717
  396SOL    HW1 1582   0.797   1.867   2.445  3.4926 -0.6662 -0.1445
  396SOL    HW2 1583   0.731   1.760   2.374  0.5106  1.2960  0.1081
  396SOL     MW 1584   0.755   1.844   2.373  0.6444  0.4542 -0.1312
  397SOL     OW 1585   1.040   2.346   1.292 -0.1373  0.1063  0.1167
  397SOL    HW1 1586   1.059   2.410   1.217  1.0655  3.5950  0.0146
  397SOL    HW2 1587   1.097   2.358   1.365 -0.3128 -1.9483 -1.5145
  397SOL     MW 1588   1.050   2.356   1.292 -0.0017  0.2955 -0.1120
  398SOL     OW 1589   0.568   2.605   0.671 -0.1241  0.1928 -0.1192
  398SOL    HW1 1590   0.495   2.566   0.627 -0.6651 -2.6041 -1.2989
  398SOL    HW2 1591   0.645   2.550   0.641 -1.5787 -1.7268  0.6308
  398SOL     MW 1592   0.568   2.592   0.661 -0.3874 -0.4295 -0.1759
  399SOL     OW 1593   0.260   2.045   0.343  0.1371  0.1105 -0.2593
  399SOL    HW1 1594   0.207   2.119   0.335  0.5542 -0.0808  0.7888
  399SOL    HW2 1595   0.326   2.052   0.278  1.3145  0.9747 -0.2737
  399SOL     MW 1596   0.262   2.056   0.333  0.3475  0.1993 -0.1229
  400SOL     OW 1597   0.610   1.838   0.205  0.4798  0.3742 -0.0564
  400SOL    HW1 1598   0.568   1.926   0.186  0.3315 -0.6759 -2.1415
  400SOL    HW2 1599   0.540   1.786   0.247  0.1625 -2.1164 -0.6458
  400SOL     MW 1600   0.595   1.843   0.208  0.4184 -0.0930 -0.4092
  401SOL     OW 1601   1.014   2.103   0.063  0.3057 -0.0900 -0.3912
  401SOL    HW1 1602   1.024   2.011   0.057 -0.9427  1.2432  0.3717
  401SOL    HW2 1603   1.057   2.113   0.150  1.5853 -0.6692  1.8557
  401SOL     MW 1604   1.021   2.092   0.074  0.3098  0.0095  0.0059
  402SOL     OW 1605   0.693   2.738   1.734  0.3748  0.8527  0.0133
  402SOL    HW1 1606   0.604   2.734   1.765 -0.7100  4.2823  0.9918
  402SOL    HW2 1607   0.744   2.760   1.812 -0.4384 -0.7505 -0.9592
  402SOL     MW 1608   0.688   2.740   1.748  0.1244  1.0937  0.0141
  403SOL     OW 1609   0.081   0.568   0.347  0.0752 -0.2466  0.0050
  403SOL    HW1 1610   0.162   0.579   0.399  1.0872  2.1171 -3.7200
  403SOL    HW2 1611   0.109   0.534   0.266 -0.9074 -2.3039 -1.2216
  403SOL     MW 1612   0.095   0.565   0.343  0.0790 -0.2061 -0.6483
  404SOL     OW 1613   0.979   2.905   0.872 -0.1243  0.0819 -0.2638
  404SOL    HW1 1614   1.002   2.824   0.824  0.1441 -1.4392 -2.5481
  404SOL    HW2 1615   0.957   2.971   0.804  0.5084 -0.9289  0.5787
  404SOL     MW 1616   0.979   2.903   0.857 -0.0054 -0.2522 -0.4540
  405SOL     OW 1617   0.455   2.456   1.572  0.2766  0.2449 -0.6404
  405SOL    HW1 1618   0.460   2.536   1.530 -0.9768 -3.4833  1.1319
  405SOL    HW2 1619   0.384   2.413   1.518 -1.0586  1.3645 -0.9616
  405SOL     MW 1620   0.446   2.460   1.559 -0.0649 -0.0993 -0.4489
  406SOL     OW 1621   0.404   2.411   1.164  0.3027  0.1063  0.0664
  406SOL    HW1 1622   0.307   2.402   1.150  1.3643  0.3260 -1.4901
  406SOL    HW2 1623   0.431   2.340   1.220  1.5161  1.2954  0.2693
  406SOL     MW 1624   0.395   2.400   1.169  0.6028  0.2922 -0.1122
  407SOL     OW 1625  -0.004   2.693   1.180  0.5156 -0.2139  0.0643
  407SOL    HW1 1626   0.054   2.719   1.255 -1.1025 -3.5755 -1.0714
  407SOL    HW2 1627   0.059   2.689   1.110 -2.8816 -2.0711  0.5692
  407SOL     MW 1628   0.012   2.696   1.181 -0.1461 -0.9025 -0.0189
  408SOL     OW 1629   2.084   2.078   0.536  0.7309  0.6549 -0.3417
  408SOL    HW1 1630   2.050   2.126   0.614 -0.7181  0.8551  2.8969
  408SOL    HW2 1631   2.018   2.007   0.530  0.3492 -3.2779 -1.3292
  408SOL     MW 1632   2.071   2.075   0.546  0.4893  0.1624 -0.0447
  409SOL     OW 1633   1.401   0.177   0.900 -0.7647  0.5659  0.0179
  409SOL    HW1 1634   1.391   0.274   0.902 -0.6729 -1.0021  0.3307
  409SOL    HW2 1635   1.476   0.144   0.945 -1.9148 -0.0657 -0.0888
  409SOL     MW 1636   1.409   0.185   0.906 -0.9043  0.2757  0.0451
  410SOL     OW 1637   1.069   2.501   1.061 -0.4390 -0.2589  0.1260
  410SOL    HW1 1638   0.991   2.503   1.006  1.7132  0.5847  3.2261
  410SOL    HW2 1639   1.154   2.497   1.017  0.2109 -0.9454  1.3691
  410SOL     MW 1640   1.070   2.501   1.048 -0.0693 -0.2382  0.6991
  411SOL     OW 1641   1.958   0.099   2.883  0.1586 -0.1845  0.2336
  411SOL    HW1 1642   1.909   0.084   2.802 -1.9379  0.3320  2.7987
  411SOL    HW2 1643   1.891   0.139   2.938 -0.1608  0.6533 -1.0938
  411SOL     MW 1644   1.943   0.102   2.880 -0.1602 -0.0058  0.3969
  412SOL     OW 1645   1.036   2.207   0.563  0.0281 -0.1059  0.0901
  412SOL    HW1 1646   1.066   2.292   0.608  0.5715  0.0752 -0.3515
  412SOL    HW2 1647   0.937   2.216   0.562  1.0053 -1.9784 -1.2253
  412SOL     MW 1648   1.027   2.220   0.568  0.2287 -0.3291 -0.1417
  413SOL     OW 1649   0.525   2.773   0.120  0.0230  0.5029  0.4550
  413SOL    HW1 1650   0.592   2.714   0.154  1.8348 -1.6314 -0.7841
  413SOL    HW2 1651   0.571   2.819   0.045  0.9418 -1.0832  2.5918
  413SOL     MW 1652   0.540   2.772   0.115  0.3833  0.0120  0.5734
  414SOL     OW 1653   1.995   3.022   1.018 -0.0102  0.1057  0.2729
  414SOL    HW1 1654   1.937   2.976   0.960  1.8184  1.4894  1.9770
  414SOL    HW2 1655   2.064   2.962   1.028 -1.1694  0.4195  0.6127
  414SOL     MW 1656   1.996   3.008   1.012  0.0781  0.3297  0.5425
  415SOL     OW 1657   1.749   2.695   1.087  0.1538  0.0342 -0.7405
  415SOL    HW1 1658   1.710   2.631   1.143  0.2053 -1.7060 -0.2884
  415SOL    HW2 1659   1.838   2.714   1.126  0.7163  1.0993  0.8807
  415SOL     MW 1660   1.756   2.689   1.099  0.2348 -0.0548 -0.4670
  416SOL     OW 1661   0.575   1.951   1.382  0.5706  0.2316  0.1620
  416SOL    HW1 1662   0.539   2.039   1.365 -1.0706 -0.8434  0.2669
  416SOL    HW2 1663   0.590   1.905   1.296  0.3307 -2.8106  0.4755
  416SOL     MW 1664   0.573   1.957   1.368  0.3224 -0.3116  0.2172
  417SOL     OW 1665   1.091   2.990   1.977  0.1513 -0.0972 -0.3362
  417SOL    HW1 1666   1.041   2.965   2.054  1.0424  0.4598 -0.5901
  417SOL    HW2 1667   1.058   2.930   1.911  1.2392  1.4887 -1.3959
  417SOL     MW 1668   1.080   2.979   1.978  0.4124  0.1855 -0.5095
  418SOL     OW 1669   0.732   2.988   0.179  0.5106  0.6764  0.3973
  418SOL    HW1 1670   0.790   2.955   0.105 -1.0743 -0.7057 -1.3504
  418SOL    HW2 1671   0.653   2.935   0.189 -1.4306  1.0724 -1.1648
  418SOL     MW 1672   0.729   2.977   0.171  0.0453  0.5463 -0.0394
  419SOL     OW 1673   0.466   2.682   1.407 -0.0740  0.2292 -0.0560
  419SOL    HW1 1674   0.541   2.744   1.429  0.4800  2.2575  0.2894
  419SOL    HW2 1675   0.483   2.655   1.317  0.2164 -0.6239 -0.0899
  419SOL     MW 1676   0.478   2.687   1.398  0.0374  0.3843 -0.0149
  420SOL     OW 1677   0.902   2.218   1.002  0.3892 -0.1427 -0.2467
  420SOL    HW1 1678   0.840   2.218   1.075 -1.8073  1.2460  0.8784
  420SOL    HW2 1679   0.884   2.307   0.967 -3.6371 -1.2671  0.2824
  420SOL     MW 1680   0.891   2.230   1.007 -0.4319 -0.1079 -0.0285
  421SOL     OW 1681   2.952   0.099   0.051  0.0465 -0.0299  0.0797
  421SOL    HW1 1682   2.911   0.064  -0.032  0.6600 -0.5650 -3.5665
  421SOL    HW2 1683   2.953   0.027   0.110 -0.7628 -0.5279 -3.5985
  421SOL     MW 1684   2.946   0.085   0.048  0.0206 -0.1662 -0.8867
  422SOL     OW 1685   0.864   2.489   0.883  0.5604 -0.4277  0.3440
  422SOL    HW1 1686   0.774   2.518   0.901  0.7938 -1.0499 -0.7674
  422SOL    HW2 1687   0.872   2.485   0.779  2.1217  1.1724 -1.0485
  422SOL     MW 1688   0.853   2.492   0.872  0.7972 -0.2987  0.0136
  423SOL     OW 1689   1.615   0.099   0.520 -0.1324  0.3999 -0.5179
  423SOL    HW1 1690   1.614   0.067   0.430  1.5932  0.0555  0.0098
  423SOL    HW2 1691   1.619   0.191   0.505  0.2343 -0.0657  1.4228
  423SOL     MW 1692   1.616   0.107   0.506  0.1437  0.2930 -0.1922
  424SOL     OW 1693   0.744   2.184   1.212 -0.4763 -0.0353  0.4525
  424SOL    HW1 1694   0.653   2.190   1.231  1.8003 -1.0093 -2.1766
  424SOL    HW2 1695   0.795   2.200   1.296  0.5855  3.2015 -2.2675
  424SOL     MW 1696   0.739   2.186   1.225 -0.0358  0.2632 -0.2533
  425SOL     OW 1697   1.751   2.781   2.067  0.0870 -0.1457 -0.0933
  425SOL    HW1 1698   1.753   2.773   1.971 -0.3967  0.6202 -0.8918
  425SOL    HW2 1699   1.747   2.686   2.099 -3.1461  0.2162 -0.7571
  425SOL     MW 1700   1.751   2.767   2.058 -0.4034  0.0031 -0.2862
  426SOL     OW 1701   0.766   1.598   1.916 -0.5422 -0.7509  0.0885
  426SOL    HW1 1702   0.706   1.590   1.842  2.8585 -2.8258  0.9375
  426SOL    HW2 1703   0.739   1.688   1.944 -0.6380  1.0389  0.5449
  426SOL     MW 1704   0.755   1.609   1.910 -0.1062 -0.7885  0.2607
  427SOL     OW 1705   0.409   1.527   1.842 -0.2661  0.4516 -0.0444
  427SOL    HW1 1706   0.419   1.438   1.815  2.9853 -3.8106  1.4470
  427SOL    HW2 1707   0.328   1.522   1.891 -0.6007 -1.0053 -0.5716
  427SOL     MW 1708   0.400   1.515   1.845  0.1188 -0.3030  0.0828
  428SOL     OW 1709   0.582   2.626   1.156 -0.2578 -0.0627  0.1982
  428SOL    HW1 1710   0.662   2.598   1.210  1.7676 -1.0722 -1.2679
  428SOL    HW2 1711   0.538   2.538   1.141 -1.6132  2.2451  0.5604
  428SOL     MW 1712   0.587   2.611   1.161 -0.1694  0.1086  0.0526
  429SOL     OW 1713   1.350   2.739   1.040 -0.4554 -1.0818  0.0726
  429SOL    HW1 1714   1.274   2.720   1.098  0.7953  1.2216  0.0792
  429SOL    HW2 1715   1.340   2.818   0.987  0.4616 -0.8637 -0.2063
  429SOL     MW 1716   1.338   2.746   1.041 -0.1694 -0.7491  0.0366
  430SOL     OW 1717   1.145   2.733   0.686  0.3820  0.4595  0.1935
  430SOL    HW1 1718   1.179   2.643   0.694 -0.8354 -0.3430  1.2454
  430SOL    HW2 1719   1.132   2.746   0.588 -0.8385 -3.0502 -1.9159
  430SOL     MW 1720   1.148   2.723   0.674  0.0603 -0.1094  0.0540
  431SOL     OW 1721   0.388   2.001   1.142 -0.2298 -0.3676 -0.1443
  431SOL    HW1 1722   0.432   1.914   1.152 -2.0653  2.1665  1.9152
  431SOL    HW2 1723   0.355   2.008   1.055 -0.9816  1.0104 -0.7277
  431SOL     MW 1724   0.390   1.991   1.132 -0.5712  0.1486  0.0504
  432SOL     OW 1725   0.106   0.050   1.150  0.3667 -0.1460 -0.1121
  432SOL    HW1 1726   0.125   0.091   1.238 -0.9596  3.1658  2.2184
  432SOL    HW2 1727   0.034  -0.015   1.153  1.0994  0.3841 -0.0403
  432SOL     MW 1728   0.099   0.047   1.162  0.2884  0.3609  0.2049
  433SOL     OW 1729   0.654   2.874   1.448 -0.3619 -0.6083  0.1036
  433SOL    HW1 1730   0.687   2.831   1.529 -2.5441  2.1308 -1.0209
  433SOL    HW2 1731   0.728   2.895   1.386 -0.8727  1.5107 -0.1287
  433SOL     MW 1732   0.668   2.871   1.450 -0.7172  0.0327 -0.0754
  434SOL     OW 1733   1.592   2.850   1.505 -0.5497 -0.1238 -0.3168
  434SOL    HW1 1734   1.507   2.894   1.499 -0.7166 -2.2502  0.8089
  434SOL    HW2 1735   1.605   2.835   1.414 -1.9084  0.5456  1.0080
  434SOL     MW 1736   1.583   2.854   1.492 -0.7510 -0.3160  0.0065
  435SOL     OW 1737   2.840   1.794   0.239 -0.0880 -0.1538 -0.1780
  435SOL    HW1 1738   2.902   1.857   0.203  0.0449  1.0069 -0.2489
  435SOL    HW2 1739   2.829   1.738   0.166 -1.5882  0.7444  1.2609
  435SOL     MW 1740   2.846   1.795   0.225 -0.2684  0.1178  0.0025
  436SOL     OW 1741   1.483   2.799   0.319 -0.4748 -0.2081 -0.0372
  436SOL    HW1 1742   1.545   2.777   0.398 -0.6094 -0.9099  0.0248
  436SOL    HW2 1743   1.430   2.871   0.358  0.0145  1.3109 -0.9586
  436SOL     MW 1744   1.484   2.806   0.335 -0.4280 -0.1003 -0.1506
  437SOL     OW 1745   0.827   2.943   1.243  0.2376  0.1932  0.1091
  437SOL    HW1 1746   0.865   3.027   1.242 -1.7837  1.2215  1.8216
  437SOL    HW2 1747   0.788   2.944   1.152 -1.3279  0.1982 -0.6440
  437SOL     MW 1748   0.826   2.954   1.231 -0.2357  0.3295  0.2357
  438SOL     OW 1749   0.824   2.527   2.058  0.4932  0.0035 -0.3449
  438SOL    HW1 1750   0.821   2.475   2.139 -0.4978  1.1017 -3.4898
  438SOL    HW2 1751   0.752   2.481   2.010  2.5817  0.9648 -1.5767
  438SOL     MW 1752   0.814   2.514   2.063  0.6380  0.2752 -0.9223
  439SOL     OW 1753   1.147   2.167   0.314  0.0649 -0.4978 -0.5154
  439SOL    HW1 1754   1.092   2.169   0.400 -0.9186  1.1702  0.0938
  439SOL    HW2 1755   1.137   2.262   0.285  2.0489  0.7290 -2.5627
  439SOL     MW 1756   1.138   2.180   0.321  0.1969 -0.1159 -0.7051
  440SOL     OW 1757   1.608   3.048   2.994 -0.1360  0.1587  0.1492
  440SOL    HW1 1758   1.610   3.025   3.084  1.2695  1.4889 -2.0376
  440SOL    HW2 1759   1.651   2.970   2.959  0.5799 -0.3190  0.9907
  440SOL     MW 1760   1.614   3.034   3.001  0.1439  0.2712 -0.0283
  441SOL     OW 1761   0.314   2.627   0.553 -0.2580 -0.6189  0.0016
  441SOL    HW1 1762   0.283   2.591   0.472  0.0788  1.9491  1.5611
  441SOL    HW2 1763   0.312   2.724   0.535 -0.6162  0.3803 -0.0362
  441SOL     MW 1764   0.309   2.635   0.540 -0.2608 -0.1483  0.2024
  442SOL     OW 1765   3.097   2.343   0.657 -0.1351 -0.7409  0.5284
  442SOL    HW1 1766   3.094   2.441   0.655 -0.2742  1.7186 -0.6474
  442SOL    HW2 1767   3.011   2.300   0.675 -0.5461 -0.1359 -2.0405
  442SOL     MW 1768   3.085   2.350   0.659 -0.2077 -0.3366  0.0343
  443SOL     OW 1769   1.406   1.741   1.889 -0.5055 -0.0183 -1.3068
  443SOL    HW1 1770   1.375   1.766   1.806  1.1966  1.6801  0.0114
  443SOL    HW2 1771   1.363   1.655   1.899  4.3571  1.7065  0.5693
  443SOL     MW 1772   1.396   1.733   1.879  0.3606  0.4334 -0.8854
  444SOL     OW 1773   0.863   2.600   1.586 -0.2818 -0.5002  0.2794
  444SOL    HW1 1774   0.949   2.575   1.637  2.7155  1.1017  2.2633
  444SOL    HW2 1775   0.791   2.619   1.656  2.7964  1.6899  0.3328
  444SOL     MW 1776   0.865   2.599   1.602  0.5198  0.0002  0.5482
  445SOL     OW 1777   0.972   0.098   1.289 -0.1512  0.1607  0.7744
  445SOL    HW1 1778   0.922   0.176   1.265  0.7534  0.7404  3.0652
  445SOL    HW2 1779   1.049   0.112   1.231  1.2849  0.1470 -1.8435
  445SOL     MW 1780   0.976   0.110   1.278  0.1576  0.2354  0.7313
  446SOL     OW 1781   2.719   2.881   1.039  0.0908  0.2082  0.1042
  446SOL    HW1 1782   2.663   2.899   0.966  2.6461  1.3090  0.4534
  446SOL    HW2 1783   2.761   2.793   1.022 -1.4983  2.2012 -0.0370
  446SOL     MW 1784   2.717   2.872   1.027  0.2183  0.6164  0.1317
  447SOL     OW 1785   3.017   2.028   1.685 -0.2391  0.1737 -0.0426
  447SOL    HW1 1786   3.064   1.970   1.750 -2.0760 -1.2240 -0.1763
  447SOL    HW2 1787   2.980   1.964   1.622 -1.9235 -1.7735 -1.3140
  447SOL     MW 1788   3.018   2.012   1.686 -0.7037 -0.2676 -0.2280
  448SOL     OW 1789   1.683   2.388   1.690 -0.1248 -0.1901  0.0256
  448SOL    HW1 1790   1.635   2.304   1.690  2.8834 -2.3423  0.7882
  448SOL    HW2 1791   1.619   2.464   1.673 -1.4673 -3.6874  1.0478
  448SOL     MW 1792   1.668   2.387   1.688  0.0950 -0.9355  0.2611
  449SOL     OW 1793   0.844   2.877   0.410 -0.0732 -0.4130 -0.1051
  449SOL    HW1 1794   0.804   2.939   0.348 -1.5983 -0.5823  2.5237
  449SOL    HW2 1795   0.780   2.862   0.479  0.9742  0.1246  1.9819
  449SOL     MW 1796   0.830   2.883   0.411 -0.1363 -0.3644  0.5171
  450SOL     OW 1797   1.206   2.432   0.656  0.5671 -0.0335  0.5751
  450SOL    HW1 1798   1.211   2.393   0.749 -1.8321 -1.4019  2.6018
  450SOL    HW2 1799   1.294   2.439   0.617  0.7795  1.1569  1.3289
  450SOL     MW 1800   1.218   2.428   0.663  0.2786 -0.0570  0.9420
  451SOL     OW 1801   0.634   1.957   1.654 -0.3802 -0.1821  0.0144
  451SOL    HW1 1802   0.726   1.980   1.649  2.3842  1.4255 -0.1849
  451SOL    HW2 1803   0.597   1.979   1.565  0.5277 -1.4905 -1.0369
  451SOL     MW 1804   0.641   1.963   1.641  0.1043 -0.1426 -0.1506
  452SOL     OW 1805   0.300   2.683   0.033 -0.7569  0.1588  0.7552
  452SOL    HW1 1806   0.389   2.708   0.056 -0.6710 -0.5737 -2.1314
  452SOL    HW2 1807   0.294   2.714  -0.057 -0.9596 -0.1146 -0.5520
  452SOL     MW 1808   0.311   2.690   0.024 -0.7723  0.0260  0.2018
  453SOL     OW 1809   0.419   3.009   1.626 -0.1820  0.0183 -0.2904
  453SOL    HW1 1810   0.500   3.026   1.587  0.3542 -0.5711  2.8004
  453SOL    HW2 1811   0.352   3.014   1.558 -0.0881  0.5412  1.3075
  453SOL     MW 1812   0.421   3.012   1.612 -0.0989  0.0096  0.3282
  454SOL     OW 1813   1.096   2.738   1.192 -0.8700  0.1066  0.2654
  454SOL    HW1 1814   1.066   2.655   1.147  1.5994 -2.1339  0.6347
  454SOL    HW2 1815   1.029   2.806   1.172 -0.1198 -0.8057 -1.6011
  454SOL     MW 1816   1.083   2.736   1.183 -0.4452 -0.3094  0.0679
  455SOL     OW 1817   1.638   2.933   0.145 -0.3182  0.0120 -0.3081
  455SOL    HW1 1818   1.692   2.961   0.219 -2.6672  0.9858 -1.5674
  455SOL    HW2 1819   1.576   2.875   0.191 -0.8170 -2.1392 -2.1522
  455SOL     MW 1820   1.637   2.929   0.161 -0.6939 -0.1433 -0.7176
  456SOL     OW 1821   2.888   0.296   1.381  0.4663  0.1535 -0.3950
  456SOL    HW1 1822   2.810   0.240   1.348 -1.1878 -3.1077  0.9687
  456SOL    HW2 1823   2.910   0.370   1.324  1.7600  0.7072  1.0919
  456SOL     MW 1824   2.881   0.298   1.369  0.4188 -0.2037 -0.0189
  457SOL     OW 1825   0.944   1.542   2.983  0.1887  0.3695  0.0788
  457SOL    HW1 1826   0.870   1.526   3.048 -0.0922 -2.1091 -0.5574
  457SOL    HW2 1827   1.009   1.479   3.009 -2.1281  2.4874  1.1613
  457SOL     MW 1828   0.943   1.532   2.995 -0.1540  0.3219  0.1377
  458SOL     OW 1829   1.450   1.382   0.628 -0.2244  0.3746  0.0780
  458SOL    HW1 1830   1.389   1.418   0.696 -1.6876 -1.9351 -2.9401
  458SOL    HW2 1831   1.399   1.348   0.559  1.0494  2.1998  1.1549
  458SOL     MW 1832   1.435   1.382   0.628 -0.2494  0.3107 -0.1781
  459SOL     OW 1833   1.589   0.116   0.233 -0.8235  0.2253  0.3148
  459SOL    HW1 1834   1.585   0.030   0.199  1.7357  0.5252 -1.3945
  459SOL    HW2 1835   1.533   0.171   0.177  0.7460 -0.5896  1.6293
  459SOL     MW 1836   1.581   0.112   0.221 -0.2787  0.1574  0.2627
  460SOL     OW 1837   1.731   2.128   0.597  0.2751 -0.8024 -0.0421
  460SOL    HW1 1838   1.642   2.122   0.648  0.6571 -1.9557 -2.4706
  460SOL    HW2 1839   1.790   2.046   0.594  0.1187  1.9873 -0.4516
  460SOL     MW 1840   1.727   2.116   0.603  0.3048 -0.5865 -0.4165
  461SOL     OW 1841   0.374   2.305   0.643  0.1349 -0.2851 -0.4759
  461SOL    HW1 1842   0.322   2.371   0.606  1.7933 -1.7183  1.3539
  461SOL    HW2 1843   0.392   2.326   0.738  0.3464 -0.1737  0.1509
  461SOL     MW 1844   0.369   2.316   0.650  0.3816 -0.4595 -0.1518
  462SOL     OW 1845   0.389   0.269   1.350 -0.6010 -0.4059 -0.1729
  462SOL    HW1 1846   0.428   0.192   1.312  1.9331  1.3189 -0.6382
  462SOL    HW2 1847   0.460   0.338   1.332  2.2362  2.7008  0.2752
  462SOL     MW 1848   0.403   0.268   1.343  0.1077  0.2316 -0.1751
  463SOL     OW 1849   0.931   0.004   0.682  0.3211  0.0821 -0.1093
  463SOL    HW1 1850   0.988  -0.021   0.609  0.1764  1.0819  2.5038
  463SOL    HW2 1851   0.842  -0.003   0.650  2.2987  0.7963  0.8182
  463SOL     MW 1852   0.927  -0.000   0.669  0.5629  0.3082  0.3578
  464SOL     OW 1853   0.856   2.987   2.169 -0.1325  0.1878 -0.5605
  464SOL    HW1 1854   0.797   2.913   2.164 -2.2593 -0.7060  2.1523
  464SOL    HW2 1855   0.829   3.022   2.254  0.3052 -0.9679  0.2205
  464SOL     MW 1856   0.845   2.982   2.180 -0.3553 -0.0826 -0.0996
  465SOL     OW 1857   0.686   0.267   0.481 -0.4569 -0.3632 -0.5015
  465SOL    HW1 1858   0.662   0.191   0.538 -0.0639  2.8468  0.6952
  465SOL    HW2 1859   0.709   0.227   0.395 -0.3894 -1.7590  0.3431
  465SOL     MW 1860   0.686   0.252   0.477 -0.3962 -0.1238 -0.2322
  466SOL     OW 1861   1.104   1.995   0.715 -0.0688 -0.0521  0.3388
  466SOL    HW1 1862   1.100   1.914   0.658  0.1110  1.1798  0.3856
  466SOL    HW2 1863   1.097   2.067   0.647 -1.0095 -0.8499 -0.7885
  466SOL     MW 1864   1.102   1.994   0.698 -0.1692  0.0052  0.1962
  467SOL     OW 1865   1.272   2.376   0.914 -0.1746  0.5962 -0.7029
  467SOL    HW1 1866   1.357   2.400   0.941 -0.4842 -1.3292  1.4674
  467SOL    HW2 1867   1.271   2.279   0.945  1.9394 -2.5559  0.4604
  467SOL     MW 1868   1.283   2.366   0.921  0.0635 -0.0738 -0.2631
  468SOL     OW 1869   0.322   2.617   1.994 -0.0762 -0.4748  0.3931
  468SOL    HW1 1870   0.334   2.533   1.950 -0.3160  0.1564 -2.0802
  468SOL    HW2 1871   0.371   2.684   1.943  1.7014  0.1472 -0.7574
  468SOL     MW 1872   0.330   2.615   1.981  0.1267 -0.3095 -0.0851
  469SOL     OW 1873   0.403   2.068   1.775 -0.5009 -0.2248  0.2626
  469SOL    HW1 1874   0.345   2.056   1.696 -0.1880 -1.7053  0.1901
  469SOL    HW2 1875   0.483   2.023   1.739 -0.6538 -1.5554 -0.9640
  469SOL     MW 1876   0.406   2.060   1.760 -0.4798 -0.5957  0.0912
  470SOL     OW 1877   3.067   2.571   0.183  0.1464 -0.5826 -0.0268
  470SOL    HW1 1878   2.989   2.532   0.226  0.2605 -2.2948  0.2772
  470SOL    HW2 1879   3.043   2.564   0.090  0.4331 -3.8419 -0.6365
  470SOL     MW 1880   3.054   2.565   0.176  0.1993 -1.2386 -0.0671
  471SOL     OW 1881   1.243   2.753   1.411 -0.1188  0.7250 -0.3850
  471SOL    HW1 1882   1.167   2.756   1.468 -0.4074 -2.2343 -0.3291
  471SOL    HW2 1883   1.197   2.755   1.331 -1.2643 -0.4483  1.5185
  471SOL     MW 1884   1.227   2.754   1.408 -0.3080  0.1798 -0.1265
  472SOL     OW 1885   2.956   2.100   0.386  0.1073 -0.1642 -0.8215
  472SOL    HW1 1886   2.978   2.080   0.296 -1.3082  0.7078  3.5092
  472SOL    HW2 1887   2.930   2.022   0.436  2.7407  0.9304  0.0935
  472SOL     MW 1888   2.956   2.087   0.380  0.2680  0.0953 -0.1294
  473SOL     OW 1889   0.797   2.517   1.329 -0.1521 -0.1119 -0.2547
  473SOL    HW1 1890   0.857   2.450   1.306  0.4181  1.4033 -0.8931
  473SOL    HW2 1891   0.814   2.540   1.424 -1.1128 -0.8107  1.5788
  473SOL     MW 1892   0.807   2.511   1.339 -0.2036 -0.0042 -0.0970
  474SOL     OW 1893   0.821   2.151   1.724  0.3277  0.4180 -0.5113
  474SOL    HW1 1894   0.913   2.120   1.747  1.0839  1.6944  2.0094
  474SOL    HW2 1895   0.830   2.187   1.639  1.8225  3.2397 -1.0758
  474SOL     MW 1896   0.834   2.152   1.716  0.6247  0.9587 -0.2532
  475SOL     OW 1897   1.683   3.086   1.408  0.0596 -0.1963  0.6867
  475SOL    HW1 1898   1.609   3.077   1.349  1.8824  0.6424  0.2295
  475SOL    HW2 1899   1.678   3.019   1.478  2.9046  0.1796 -0.3058
  475SOL     MW 1900   1.672   3.076   1.410  0.6755 -0.0360  0.4954
  476SOL     OW 1901   1.468   2.613   0.801 -0.1768  0.2804 -0.1135
  476SOL    HW1 1902   1.425   2.641   0.878  2.7829 -0.3947 -1.5305
  476SOL    HW2 1903   1.499   2.692   0.753  1.3457 -1.6254  0.4208
  476SOL     MW 1904   1.467   2.627   0.805  0.4145 -0.0601 -0.2300
  477SOL     OW 1905   0.835   2.518   0.611  0.1715  0.1999 -0.2045
  477SOL    HW1 1906   0.901   2.554   0.544  3.8288  0.1914 -3.5126
  477SOL    HW2 1907   0.817   2.431   0.572  0.5709 -0.5037 -2.7099
  477SOL     MW 1908   0.841   2.511   0.597  0.7068  0.1060 -0.9716
  478SOL     OW 1909   0.196   2.634   1.006  0.6311 -0.3521  0.2285
  478SOL    HW1 1910   0.221   2.720   0.972 -0.2759  0.5308 -1.1019
  478SOL    HW2 1911   0.260   2.584   0.958 -0.6730  1.7713 -2.5291
  478SOL     MW 1912   0.208   2.639   0.995  0.3394  0.0446 -0.3108
  479SOL     OW 1913   1.438   1.913   1.328  0.1506 -0.1778  0.2012
  479SOL    HW1 1914   1.389   1.956   1.405  0.9055 -0.1625  0.2167
  479SOL    HW2 1915   1.516   1.871   1.364 -0.7128  0.6122 -1.8103
  479SOL     MW 1916   1.441   1.913   1.343  0.1363 -0.0715 -0.0622
  480SOL     OW 1917   1.842   2.404   1.355 -0.1939 -0.8185 -0.3690
  480SOL    HW1 1918   1.857   2.341   1.430 -4.8012  1.5586 -0.6404
  480SOL    HW2 1919   1.885   2.371   1.276 -0.9181 -0.5614 -1.4883
  480SOL     MW 1920   1.849   2.391   1.354 -0.8974 -0.4710 -0.5525
  481SOL     OW 1921   1.165   0.152   1.070  0.5838 -0.2810 -0.4314
  481SOL    HW1 1922   1.234   0.147   1.001 -0.6396  3.0505  0.1384
  481SOL    HW2 1923   1.184   0.236   1.114  0.4403  0.5499 -2.4783
  481SOL     MW 1924   1.177   0.163   1.067  0.4035  0.2682 -0.6263
  482SOL     OW 1925   1.052   3.041   0.431 -0.3279  0.1096  0.3301
  482SOL    HW1 1926   0.969   2.989   0.432  0.2939 -1.9367  2.4429
  482SOL    HW2 1927   1.035   3.136   0.423  1.4010 -0.2294 -1.2050
  482SOL     MW 1928   1.039   3.047   0.430 -0.0177 -0.2051  0.4063
  483SOL     OW 1929   0.361   2.888   0.491 -0.2147 -0.6851  0.0425
  483SOL    HW1 1930   0.309   2.935   0.420 -0.5148 -2.0001  2.6778
  483SOL    HW2 1931   0.324   2.925   0.572 -1.1616  1.2136 -0.8266
  483SOL     MW 1932   0.349   2.899   0.492 -0.3792 -0.6081  0.2756
  484SOL     OW 1933   1.682   1.847   1.449  0.2829  0.0291  0.0349
  484SOL    HW1 1934   1.731   1.920   1.403 -1.7630  2.0441 -0.9085
  484SOL    HW2 1935   1.681   1.875   1.539 -0.1325 -0.3790  1.2077
  484SOL     MW 1936   1.688   1.860   1.455 -0.0418  0.2411  0.0652
  485SOL     OW 1937   0.501   2.307   0.316  0.8426  0.1698 -0.1237
  485SOL    HW1 1938   0.574   2.328   0.373  1.6399  0.5601 -1.6083
  485SOL    HW2 1939   0.420   2.359   0.329 -1.3052  1.0852  3.3210
  485SOL     MW 1940   0.500   2.317   0.325  0.6644  0.3421  0.1349
  486SOL     OW 1941   0.100   2.509   1.485 -0.0611  0.3328 -0.1297
  486SOL    HW1 1942   0.096   2.603   1.475 -1.2606  0.1228 -0.6286
  486SOL    HW2 1943   0.092   2.497   1.582 -1.0530 -0.9973  2.9739
  486SOL     MW 1944   0.098   2.520   1.497 -0.3502  0.1296  0.2140
  487SOL     OW 1945   1.335   1.582   1.114  0.3452 -0.3352  0.0066
  487SOL    HW1 1946   1.300   1.672   1.116 -0.1585  0.6763 -3.4810
  487SOL    HW2 1947   1.427   1.592   1.082 -2.6903  1.8335 -2.1963
  487SOL     MW 1948   1.343   1.595   1.110 -0.1217  0.0844 -0.7442
  488SOL     OW 1949   1.429   1.820   0.578  0.2298  0.2682  0.2219
  488SOL    HW1 1950   1.382   1.898   0.549  1.5633  0.7976 -0.0295
  488SOL    HW2 1951   1.370   1.746   0.548  1.0462 -2.1004 -1.0638
  488SOL     MW 1952   1.415   1.821   0.570  0.5134  0.0255  0.0191
  489SOL     OW 1953   0.693   0.692   0.523 -0.3345  0.1549  0.4216
  489SOL    HW1 1954   0.620   0.638   0.487  0.9292  0.3003 -1.9645
  489SOL    HW2 1955   0.655   0.738   0.597  0.2822  1.9598 -0.8610
  489SOL     MW 1956   0.679   0.691   0.528 -0.0864  0.4122 -0.0624
  490SOL     OW 1957   1.323   2.060   0.501 -0.1486 -0.2633 -0.2550
  490SOL    HW1 1958   1.408   2.081   0.458 -0.3821 -0.2930 -1.4776
  490SOL    HW2 1959   1.262   2.119   0.457  1.3657  0.3853  0.1398
  490SOL     MW 1960   1.326   2.071   0.489  0.0204 -0.1817 -0.3642
  491SOL     OW 1961   1.339   3.015   0.417 -0.0248  0.1604  0.2642
  491SOL    HW1 1962   1.359   3.053   0.504  3.5680  2.7684 -0.6193
  491SOL    HW2 1963   1.247   3.001   0.435  2.4440  0.0581  0.5319
  491SOL     MW 1964   1.330   3.018   0.431  0.7750  0.4910  0.1830
  492SOL     OW 1965   1.481   2.130   0.717 -0.4008  0.0171  0.6529
  492SOL    HW1 1966   1.422   2.102   0.647  1.1057 -0.0733  1.6632
  492SOL    HW2 1967   1.427   2.136   0.792  0.7374  1.1319 -2.5120
  492SOL     MW 1968   1.466   2.127   0.717 -0.0518  0.1523  0.3686
  493SOL     OW 1969   0.215   3.060   0.325  0.8282  0.3068 -0.1857
  493SOL    HW1 1970   0.132   3.091   0.360 -1.6614 -1.7935  2.5553
  493SOL    HW2 1971   0.198   3.014   0.241  0.8145 -0.3316 -0.3307
  493SOL     MW 1972   0.202   3.058   0.319  0.4979 -0.0545  0.1568
  494SOL     OW 1973   0.394   2.340   1.815  0.4399  0.5869  0.3296
  494SOL    HW1 1974   0.406   2.241   1.799  1.1949 -1.3518  1.1705
  494SOL    HW2 1975   0.451   2.377   1.747 -4.2445 -1.3278 -1.1361
  494SOL     MW 1976   0.404   2.332   1.804 -0.0785  0.0785  0.2471
  495SOL     OW 1977   2.802   1.592   2.677  0.7922  0.0605  0.5917
  495SOL    HW1 1978   2.793   1.654   2.748 -1.0784 -1.7220  1.0677
  495SOL    HW2 1979   2.742   1.520   2.699 -2.1089 -0.2371 -1.9405
  495SOL     MW 1980   2.793   1.590   2.689  0.1626 -0.2139  0.3204
  496SOL     OW 1981   2.839   2.279   2.713  0.1225 -0.0697 -0.3512
  496SOL    HW1 1982   2.843   2.187   2.739  0.9597  2.0955 -1.4000
  496SOL    HW2 1983   2.922   2.310   2.747 -2.1254 -1.2191 -0.8885
  496SOL     MW 1984   2.850   2.271   2.721 -0.0636  0.0644 -0.5604
  497SOL     OW 1985   1.508   2.422   2.578  0.5366  0.7774  0.2894
  497SOL    HW1 1986   1.527   2.367   2.504 -0.6254  0.4804  2.3851
  497SOL    HW2 1987   1.457   2.362   2.637  1.6792 -2.2720 -0.3239
  497SOL     MW 1988   1.504   2.407   2.576  0.5340  0.3359  0.4850
  498SOL     OW 1989   1.455   2.744   2.332 -0.4440  0.2626  0.1377
  498SOL    HW1 1990   1.412   2.657   2.336  0.4312 -1.3227 -2.0812
  498SOL    HW2 1991   1.525   2.738   2.400 -0.3556 -0.4090  1.1224
  498SOL     MW 1992   1.458   2.731   2.342 -0.3169 -0.0352 -0.0252
  499SOL     OW 1993   0.986   0.066   0.094 -0.1150  0.0058 -0.2480
  499SOL    HW1 1994   0.907   0.079   0.141  1.1471 -0.7213  1.1071
  499SOL    HW2 1995   1.009  -0.024   0.086  2.8930  1.4847  0.6902
  499SOL     MW 1996   0.978   0.056   0.099  0.4484  0.1050  0.0546
  500SOL     OW 1997   1.041   2.529   2.712  0.5091  0.0305  0.0527
  500SOL    HW1 1998   1.091   2.501   2.785 -2.0228 -2.3912 -1.0578
  500SOL    HW2 1999   0.972   2.590   2.742  0.1365 -2.8259  1.1869
  500SOL     MW 2000   1.038   2.533   2.726  0.1259 -0.6659  0.0558
  501SOL     OW 2001   1.834   2.295   2.950  0.2069 -0.2483  0.6059
  501SOL    HW1 2002   1.831   2.386   2.978 -0.5724  0.7735 -1.4009
  501SOL    HW2 2003   1.925   2.279   2.936  0.9167  1.9370  1.7984
  501SOL     MW 2004   1.846   2.305   2.952  0.1977  0.1749  0.4984
  502SOL     OW 2005   0.322   2.766   2.846 -0.1346 -0.0833 -0.2352
  502SOL    HW1 2006   0.385   2.771   2.777  1.0300 -0.8261  0.7448
  502SOL    HW2 2007   0.297   2.859   2.870  2.0552 -2.1086  0.8449
  502SOL     MW 2008   0.327   2.779   2.840  0.3080 -0.4485  0.0366
  503SOL     OW 2009   1.128   2.507   2.063  0.2241  0.0695 -0.3651
  503SOL    HW1 2010   1.163   2.576   2.011 -0.7649 -1.3033  0.4876
  503SOL    HW2 2011   1.053   2.481   2.000  2.7076  2.4045 -1.9043
  503SOL     MW 2012   1.123   2.513   2.048  0.4213  0.1965 -0.4556
  504SOL     OW 2013   0.053   2.657   2.206 -0.0728  0.3789 -0.1645
  504SOL    HW1 2014   0.124   2.626   2.150  1.5201  0.0257  2.8070
  504SOL    HW2 2015   0.021   2.586   2.253  0.6804  2.2386 -2.7164
  504SOL     MW 2016   0.058   2.644   2.205  0.2367  0.5777 -0.1091
  505SOL     OW 2017   1.576   2.820   2.737  0.0313  0.1887  0.7423
  505SOL    HW1 2018   1.606   2.819   2.640  1.4334  0.3543 -1.8534
  505SOL    HW2 2019   1.514   2.896   2.748 -0.6353  0.4770  0.3974
  505SOL     MW 2020   1.572   2.830   2.726  0.1283  0.2486  0.3544
  506SOL     OW 2021   1.614   0.121   2.746  0.1902 -0.5261  0.0781
  506SOL    HW1 2022   1.578   0.054   2.811  1.0938  0.1842 -0.6532
  506SOL    HW2 2023   1.687   0.076   2.712 -1.8178  3.1917  1.1289
  506SOL     MW 2024   1.619   0.106   2.750  0.0445  0.0581  0.1202
  507SOL     OW 2025   0.844   2.679   2.829  0.3567  0.5158 -0.2049
  507SOL    HW1 2026   0.835   2.758   2.777 -0.5859  0.3905 -0.6548
  507SOL    HW2 2027   0.759   2.636   2.829  1.4953 -0.1246  0.8451
  507SOL     MW 2028   0.832   2.684   2.822  0.3826  0.4147 -0.1258
  508SOL     OW 2029   1.222   2.125   2.507  0.3664 -0.7978 -0.1494
  508SOL    HW1 2030   1.263   2.181   2.580  0.9166  1.1069  0.9376
  508SOL    HW2 2031   1.162   2.062   2.550 -2.0588  0.6331  0.6298
  508SOL     MW 2032   1.220   2.124   2.522  0.1190 -0.3577  0.0968
  509SOL     OW 2033   0.593   2.547   2.848  0.3255 -0.4668  0.0782
  509SOL    HW1 2034   0.573   2.474   2.780 -1.8084  0.8169 -2.7896
  509SOL    HW2 2035   0.511   2.599   2.852 -1.0498  2.8410 -0.6633
  509SOL     MW 2036   0.579   2.544   2.840 -0.1375  0.1390 -0.3980
  510SOL     OW 2037   1.519   2.598   1.636 -0.4459 -0.4121 -0.2922
  510SOL    HW1 2038   1.546   2.683   1.606 -0.0471 -1.3152  0.8851
  510SOL    HW2 2039   1.473   2.607   1.720 -0.3710  0.1553  0.1591
  510SOL     MW 2040   1.516   2.611   1.643 -0.3834 -0.4564 -0.0773
  511SOL     OW 2041   0.359   2.534   2.503 -0.6880 -0.6930 -0.4314
  511SOL    HW1 2042   0.441   2.510   2.547  1.1287  1.4812  1.8951
  511SOL    HW2 2043   0.394   2.538   2.411  1.1769 -2.4385 -0.2723
  511SOL     MW 2044   0.375   2.532   2.497 -0.2022 -0.6365 -0.1035
  512SOL     OW 2045   0.969   1.967   2.834  0.6626  0.0791  0.2230
  512SOL    HW1 2046   0.881   1.985   2.867 -2.3227 -0.9871 -0.8358
  512SOL    HW2 2047   1.001   1.896   2.891 -0.8616  1.4252  0.0949
  512SOL     MW 2048   0.962   1.960   2.846  0.0677  0.1161  0.0664
  513SOL     OW 2049   1.499   2.462   2.274 -0.2368  0.9000  0.2193
  513SOL    HW1 2050   1.584   2.508   2.263 -1.3178  1.8659 -2.3589
  513SOL    HW2 2051   1.516   2.370   2.299  1.4496 -0.9810 -2.4262
  513SOL     MW 2052   1.513   2.456   2.276 -0.1569  0.7793 -0.4699
  514SOL     OW 2053   0.247   2.372   2.695  0.4773 -0.4041 -0.1075
  514SOL    HW1 2054   0.296   2.412   2.625 -0.6984  0.8495 -0.0305
  514SOL    HW2 2055   0.308   2.315   2.741 -0.7509  0.8384 -1.8782
  514SOL     MW 2056   0.261   2.369   2.692  0.1601 -0.0748 -0.3310
  515SOL     OW 2057   1.075   2.006   1.868 -0.0964 -0.0454 -0.4553
  515SOL    HW1 2058   1.093   2.097   1.867 -1.0162 -3.4016 -1.6400
  515SOL    HW2 2059   1.152   1.972   1.914  2.0462  1.1475  2.8058
  515SOL     MW 2060   1.088   2.013   1.874  0.0650 -0.3308 -0.1814
  516SOL     OW 2061   1.303   2.635   2.912 -0.0552  0.1620  0.3996
  516SOL    HW1 2062   1.319   2.638   2.815 -1.3747 -1.8294 -0.5356
  516SOL    HW2 2063   1.251   2.550   2.923 -0.1815  2.5147  2.8994
  516SOL     MW 2064   1.298   2.624   2.901 -0.2460  0.2097  0.6060
  517SOL     OW 2065   0.494   2.264   2.289  0.5316  0.1124 -0.8736
  517SOL    HW1 2066   0.461   2.351   2.293 -0.3195 -2.5988 -0.3690
  517SOL    HW2 2067   0.462   2.232   2.201  1.9815 -0.3868 -0.0342
  517SOL     MW 2068   0.486   2.271   2.278  0.6106 -0.3112 -0.6963
  518SOL     OW 2069   1.730   0.189   3.045  0.6814 -0.5013  0.0972
  518SOL    HW1 2070   1.778   0.193   3.125 -0.5174  2.1790 -0.3113
  518SOL    HW2 2071   1.671   0.114   3.030  0.2752 -0.1513 -3.0194
  518SOL     MW 2072   1.728   0.180   3.053  0.4696 -0.1015 -0.3679
  519SOL     OW 2073   0.603   2.350   1.977 -0.1558 -0.2860 -0.2478
  519SOL    HW1 2074   0.647   2.262   1.972 -0.5509 -2.0783 -1.4595
  519SOL    HW2 2075   0.529   2.340   1.916  0.9274 -0.8262  1.3466
  519SOL     MW 2076   0.599   2.337   1.968 -0.0650 -0.5938 -0.1973
  520SOL     OW 2077   1.174   2.137   2.883  0.1947  0.3390 -0.0249
  520SOL    HW1 2078   1.098   2.080   2.883  0.1691  2.9835 -0.3675
  520SOL    HW2 2079   1.219   2.116   2.963 -0.5757  1.0383  1.0093
  520SOL     MW 2080   1.170   2.127   2.894  0.0897  0.7802  0.0663
  521SOL     OW 2081   1.744   2.052   2.191  0.4361 -0.2693 -0.0339
  521SOL    HW1 2082   1.781   2.074   2.102  3.3162 -0.8262  1.3075
  521SOL    HW2 2083   1.741   1.951   2.203 -1.1080  0.5817 -1.0189
  521SOL     MW 2084   1.748   2.042   2.181  0.6124 -0.2305  0.0132
  522SOL     OW 2085   2.829   2.570   2.177 -0.0140  0.0406  0.4057
  522SOL    HW1 2086   2.905   2.527   2.213 -0.0169 -1.3989  0.3570
  522SOL    HW2 2087   2.834   2.668   2.162 -2.6910  3.9187  0.8498
  522SOL     MW 2088   2.840   2.577   2.179 -0.3676  0.3623  0.4579
  523SOL     OW 2089   0.802   1.454   2.159 -0.3481 -0.4119 -0.3023
  523SOL    HW1 2090   0.775   1.512   2.082  0.1272 -0.3861 -0.5553
  523SOL    HW2 2091   0.892   1.430   2.148  1.8905  1.7504  1.8815
  523SOL     MW 2092   0.810   1.458   2.147  0.0100 -0.1232 -0.0476
  524SOL     OW 2093   0.555   2.364   3.071  0.2362  0.3652  0.4834
  524SOL    HW1 2094   0.586   2.432   3.002 -1.3997 -0.6468 -1.2816
  524SOL    HW2 2095   0.638   2.313   3.088 -2.1615  2.1769 -0.1913
  524SOL     MW 2096   0.570   2.366   3.064 -0.2960  0.4707  0.1615
  525SOL     OW 2097   0.299   2.165   2.111  0.0162  0.0070  0.1141
  525SOL    HW1 2098   0.271   2.105   2.188  0.5081  0.7743 -1.0762
  525SOL    HW2 2099   0.351   2.108   2.056  0.9707  0.8344  1.0771
  525SOL     MW 2100   0.303   2.150   2.114  0.2071  0.2174  0.0841
  526SOL     OW 2101   0.711   2.096   1.966  0.6290  0.6853  0.7528
  526SOL    HW1 2102   0.744   2.119   1.882 -0.3515  4.9232 -1.8588
  526SOL    HW2 2103   0.788   2.110   2.032 -0.1437  0.8490 -0.1650
  526SOL     MW 2104   0.726   2.101   1.964  0.3977  1.2661  0.2872
  527SOL     OW 2105   1.282   1.913   2.054 -0.2026  0.1044 -0.3409
  527SOL    HW1 2106   1.254   1.859   2.131 -0.2501 -0.9853 -0.9748
  527SOL    HW2 2107   1.326   1.844   2.005  2.2941  0.3786  0.1917
  527SOL     MW 2108   1.284   1.897   2.058  0.1206 -0.0032 -0.3543
  528SOL     OW 2109   0.581   2.893   2.980 -0.1356 -0.3530  0.8969
  528SOL    HW1 2110   0.615   2.972   2.945  1.0113 -0.9167 -1.0740
  528SOL    HW2 2111   0.547   2.858   2.901 -0.3798  1.7032  1.0118
  528SOL     MW 2112   0.581   2.899   2.965 -0.0165 -0.1561  0.6520
  529SOL     OW 2113   1.110   2.280   1.803  0.0593 -0.0551  0.1299
  529SOL    HW1 2114   1.186   2.269   1.865  1.4131  0.5447  0.7998
  529SOL    HW2 2115   1.140   2.276   1.708 -2.4796 -2.1697 -1.6864
  529SOL     MW 2116   1.124   2.278   1.799 -0.0970 -0.2549 -0.0213
  530SOL     OW 2117   1.157   2.406   2.953 -0.8450 -1.0675  0.2217
  530SOL    HW1 2118   1.074   2.431   3.000 -1.3900 -0.2698  1.4098
  530SOL    HW2 2119   1.155   2.313   2.933  1.1418  1.7691 -0.5825
  530SOL     MW 2120   1.146   2.397   2.956 -0.6547 -0.5880  0.2724
  531SOL     OW 2121   0.883   1.800   2.614 -0.0386 -0.2026  0.0088
  531SOL    HW1 2122   0.914   1.839   2.688  0.2541 -2.2568  0.2727
  531SOL    HW2 2123   0.849   1.718   2.650 -1.0948  0.2121 -0.6615
  531SOL     MW 2124   0.882   1.794   2.628 -0.1393 -0.4189 -0.0448
  532SOL     OW 2125   1.750   0.354   2.813  0.1069 -0.4031  0.0288
  532SOL    HW1 2126   1.701   0.282   2.767 -0.9087 -0.1855 -1.7646
  532SOL    HW2 2127   1.762   0.313   2.902 -1.5412  0.7465  0.8066
  532SOL     MW 2128   1.745   0.339   2.819 -0.2446 -0.2227 -0.1052
  533SOL     OW 2129   1.774   2.818   2.921 -0.2392 -0.1398  0.1388
  533SOL    HW1 2130   1.743   2.739   2.971 -0.3672 -0.2358  3.2781
  533SOL    HW2 2131   1.732   2.803   2.836  1.2383 -1.5395  0.0707
  533SOL     MW 2132   1.764   2.806   2.916 -0.0611 -0.3372  0.5440
  534SOL     OW 2133   1.739   2.512   2.500 -0.4394 -0.7415  0.0310
  534SOL    HW1 2134   1.656   2.469   2.523  1.7011  3.2826 -2.0507
  534SOL    HW2 2135   1.792   2.489   2.572 -1.8959  1.6225 -0.4191
  534SOL     MW 2136   1.735   2.503   2.513 -0.3492  0.1013 -0.3030
  535SOL     OW 2137   1.785   2.385   1.924 -0.4842 -0.1449 -0.4711
  535SOL    HW1 2138   1.753   2.387   1.836  1.2702  0.2598  1.5664
  535SOL    HW2 2139   1.874   2.415   1.909 -0.9156  2.7171 -0.9462
  535SOL     MW 2140   1.793   2.389   1.910 -0.3096  0.2861 -0.2650
  536SOL     OW 2141   0.418   1.882   2.000  0.3273 -0.3430  0.5175
  536SOL    HW1 2142   0.404   1.928   1.912  2.5392  0.7999  0.0268
  536SOL    HW2 2143   0.513   1.871   2.012  1.6592 -1.0081 -0.0070
  536SOL     MW 2144   0.429   1.886   1.990  0.7949 -0.2800  0.3836
  537SOL     OW 2145   1.021   0.194   2.941 -0.7182  0.2613 -0.4921
  537SOL    HW1 2146   0.995   0.167   3.029  2.7312  1.5061  0.7326
  537SOL    HW2 2147   1.017   0.288   2.947  0.2653 -2.5074  0.3939
  537SOL     MW 2148   1.017   0.203   2.953 -0.1333  0.0603 -0.2136
  538SOL     OW 2149   1.254   0.072   2.993  0.2814 -0.6031  0.5009
  538SOL    HW1 2150   1.178   0.125   2.971 -0.0843 -0.7302 -1.2313
  538SOL    HW2 2151   1.290   0.110   3.081  1.4243  2.5311 -1.0579
  538SOL     MW 2152   1.249   0.084   3.001  0.3840 -0.2063  0.0666
  539SOL     OW 2153   0.713   2.718   2.487  0.8003 -0.4690  0.4825
  539SOL    HW1 2154   0.777   2.781   2.522  1.9332 -0.9072 -0.5050
  539SOL    HW2 2155   0.746   2.626   2.493  0.3192  0.2977  3.1525
  539SOL     MW 2156   0.726   2.714   2.493  0.8863 -0.4257  0.7045
  540SOL     OW 2157   0.401   2.227   2.870  0.0298 -0.5731 -0.2404
  540SOL    HW1 2158   0.460   2.270   2.943  3.3052  0.1458 -0.1460
  540SOL    HW2 2159   0.352   2.164   2.918 -0.1322 -0.2771  0.3308
  540SOL     MW 2160   0.402   2.225   2.886  0.4406 -0.4392 -0.1526
  541SOL     OW 2161   0.198   2.910   2.272  0.1149  0.0136  0.6601
  541SOL    HW1 2162   0.136   2.838   2.252 -0.3634  0.9051  0.0678
  541SOL    HW2 2163   0.242   2.870   2.350 -1.3070 -0.1766 -0.5841
  541SOL     MW 2164   0.196   2.895   2.280 -0.1358  0.1061  0.4178
  542SOL     OW 2165   0.844   2.348   2.742  0.0620 -0.3621  0.0575
  542SOL    HW1 2166   0.827   2.320   2.831 -0.4287  3.9773 -2.8045
  542SOL    HW2 2167   0.914   2.409   2.750 -0.3059 -1.4270 -0.8888
  542SOL     MW 2168   0.851   2.352   2.755 -0.0513  0.0699 -0.4449
  543SOL     OW 2169   1.365   2.658   2.625  0.0331 -0.8573 -0.6826
  543SOL    HW1 2170   1.402   2.574   2.594  2.3448 -1.4866 -0.7110
  543SOL    HW2 2171   1.445   2.706   2.639 -1.0491 -0.6041 -1.9271
  543SOL     MW 2172   1.380   2.653   2.623  0.1953 -0.9069 -0.8506
  544SOL     OW 2173   0.702   0.117   2.667  0.0411 -0.0649 -0.7542
  544SOL    HW1 2174   0.620   0.118   2.624  0.3813  0.6770  0.6744
  544SOL    HW2 2175   0.765   0.078   2.597  0.9355 -5.0442 -0.9597
  544SOL     MW 2176   0.699   0.112   2.652  0.2040 -0.6240 -0.5929
  545SOL     OW 2177   1.541   2.190   2.389  0.3875  0.6673 -0.2924
  545SOL    HW1 2178   1.504   2.101   2.412 -0.8446 -1.3939 -1.8591
  545SOL    HW2 2179   1.627   2.162   2.342  2.4961 -1.6662 -2.7121
  545SOL     MW 2180   1.548   2.174   2.386  0.5032  0.0875 -0.8184
  546SOL     OW 2181   3.014   1.997   0.146 -0.0805  0.6398  0.2289
  546SOL    HW1 2182   2.980   2.076   0.093  1.1036  2.5753  1.6725
  546SOL    HW2 2183   3.079   1.957   0.087  1.3523  1.0500 -1.1343
  546SOL     MW 2184   3.018   2.002   0.131  0.2648  0.9493  0.2395
  547SOL     OW 2185   0.151   2.910   0.108 -0.3623  0.4121 -0.0884
  547SOL    HW1 2186   0.160   2.954   0.023 -0.4772  2.5758  1.1476
  547SOL    HW2 2187   0.200   2.826   0.093 -1.5822 -0.3924  1.2556
  547SOL     MW 2188   0.159   2.905   0.095 -0.5384  0.5915  0.2520
  548SOL     OW 2189   0.262   2.530   0.283  0.0045 -0.3179  0.3513
  548SOL    HW1 2190   0.292   2.566   0.196  0.2391 -0.9384 -1.0364
  548SOL    HW2 2191   0.167   2.521   0.270 -2.0599 -1.9217 -1.2117
  548SOL     MW 2192   0.253   2.534   0.270 -0.2369 -0.6114 -0.0381
  549SOL     OW 2193   0.696   1.834   2.065 -0.3742 -0.1615 -0.1792
  549SOL    HW1 2194   0.707   1.933   2.029 -0.8649  1.4080 -3.0589
  549SOL    HW2 2195   0.691   1.835   2.165 -1.3865 -3.6814  0.9877
  549SOL     MW 2196   0.697   1.847   2.074 -0.5725 -0.4188 -0.4052
  550SOL     OW 2197   1.791   1.747   2.496  0.4195 -0.9885  0.1790
  550SOL    HW1 2198   1.770   1.741   2.400  3.4202 -1.2095 -3.1567
  550SOL    HW2 2199   1.806   1.844   2.516  1.6795  2.3320  2.3854
  550SOL     MW 2200   1.790   1.759   2.486  0.9817 -0.5795  0.0300
  551SOL     OW 2201   0.854   2.335   0.213  0.5026 -1.1293  0.1866
  551SOL    HW1 2202   0.935   2.388   0.205  1.1998  1.6894  1.3346
  551SOL    HW2 2203   0.852   2.282   0.130 -0.2088 -0.3854 -2.2412
  551SOL     MW 2204   0.864   2.335   0.201  0.5007 -0.6592  0.0178
  552SOL     OW 2205   1.684   1.739   2.246  0.3069 -0.3660  0.1328
  552SOL    HW1 2206   1.600   1.694   2.266 -0.2726 -1.8088  1.4075
  552SOL    HW2 2207   1.735   1.684   2.179  2.8944 -3.9947  0.3403
  552SOL     MW 2208   1.679   1.726   2.240  0.5718 -1.0352  0.3284
  553SOL     OW 2209   1.187   2.295   1.531 -0.1569  0.0896 -0.0518
  553SOL    HW1 2210   1.216   2.207   1.500  0.8921 -0.3541  2.2230
  553SOL    HW2 2211   1.259   2.354   1.517  0.0239 -2.2836 -1.0255
  553SOL     MW 2212   1.200   2.291   1.525  0.0053 -0.2821  0.1198
  554SOL     OW 2213   0.538   2.825   2.717 -0.2215 -0.6547  0.1614
  554SOL    HW1 2214   0.518   2.908   2.670  0.7003 -1.9030  0.6153
  554SOL    HW2 2215   0.573   2.764   2.646  0.8680  1.9372 -0.6507
  554SOL     MW 2216   0.540   2.828   2.702  0.0439 -0.4774  0.1142
  555SOL     OW 2217   0.574   2.396   2.604  0.0631 -0.1249 -0.5256
  555SOL    HW1 2218   0.579   2.301   2.611 -2.8626  0.8950  0.7597
  555SOL    HW2 2219   0.661   2.419   2.574  1.4894  2.3561  0.0307
  555SOL     MW 2220   0.586   2.387   2.601 -0.1347  0.3370 -0.2826
  556SOL     OW 2221   1.058   1.845   0.129  0.3346  0.0286  0.0902
  556SOL    HW1 2222   1.079   1.806   0.042  1.2748 -1.9734  1.2159
  556SOL    HW2 2223   1.144   1.873   0.165 -1.6760  1.8029  0.1211
  556SOL     MW 2224   1.072   1.844   0.122  0.1934 -0.0014  0.2428
  557SOL     OW 2225   1.037   2.688   0.436  0.0905  0.8371  0.4331
  557SOL    HW1 2226   1.087   2.685   0.354  1.0537  1.5056 -2.0845
  557SOL    HW2 2227   0.967   2.753   0.417 -0.3940 -0.6428 -1.3546
  557SOL     MW 2228   1.034   2.696   0.423  0.1536  0.7300 -0.1349
  558SOL     OW 2229   0.254   2.093   3.076  0.1925  0.0732  0.2799
  558SOL    HW1 2230   0.194   2.020   3.076  1.6993  3.5235 -0.5091
  558SOL    HW2 2231   0.198   2.162   3.105 -1.0849  2.3203 -1.5802
  558SOL     MW 2232   0.239   2.093   3.080  0.2227  0.8249 -0.0696
  559SOL     OW 2233   1.247   2.247   2.042 -0.4399  0.6286  0.3468
  559SOL    HW1 2234   1.245   2.340   2.073 -1.1826  0.0307  0.6071
  559SOL    HW2 2235   1.225   2.195   2.120  0.7657 -2.5090  1.0779
  559SOL     MW 2236   1.244   2.252   2.056 -0.3788  0.1357  0.4776
  560SOL     OW 2237   1.951   2.976   0.047  0.4408  0.1587  0.3052
  560SOL    HW1 2238   2.017   2.986  -0.016 -1.1471 -1.0786 -0.2701
  560SOL    HW2 2239   1.876   2.934   0.012 -0.6405 -0.0698  2.2478
  560SOL     MW 2240   1.950   2.972   0.034  0.0886 -0.0347  0.4856
  561SOL     OW 2241   0.468   2.073   0.156  0.1445 -0.0252 -0.0166
  561SOL    HW1 2242   0.389   2.100   0.103 -2.6840  2.2695 -3.7985
  561SOL    HW2 2243   0.496   2.148   0.213  0.2978 -3.2423 -2.9223
  561SOL     MW 2244   0.461   2.087   0.156 -0.2084 -0.1469 -0.8990
  562SOL     OW 2245   0.851   2.136   2.202  0.1985  0.1586  0.6862
  562SOL    HW1 2246   0.838   2.230   2.231  2.4585  1.8008  0.5590
  562SOL    HW2 2247   0.949   2.134   2.203 -2.0979  0.4122 -1.4375
  562SOL     MW 2248   0.862   2.149   2.206  0.1937  0.4088  0.3892
  563SOL     OW 2249   1.271   0.286   0.482 -0.2607 -0.3117  0.3161
  563SOL    HW1 2250   1.189   0.251   0.447  1.7626  3.0845 -1.7909
  563SOL    HW2 2251   1.304   0.213   0.539  2.7956  1.3877 -0.3263
  563SOL     MW 2252   1.265   0.271   0.485  0.4095  0.3607 -0.0466
  564SOL     OW 2253   0.998   2.573   2.324 -0.4003  0.3963  0.2183
  564SOL    HW1 2254   1.028   2.571   2.230  2.4683  1.9412  1.7669
  564SOL    HW2 2255   1.077   2.608   2.366  0.4773  0.5694 -0.3430
  564SOL     MW 2256   1.012   2.578   2.317  0.0940  0.6230  0.3486
  565SOL     OW 2257   2.919   2.674   2.716  0.4217 -0.3612  0.0103
  565SOL    HW1 2258   2.980   2.735   2.678 -0.5467 -0.1372  0.4319
  565SOL    HW2 2259   2.854   2.640   2.644  0.2483 -1.1188 -1.0422
  565SOL     MW 2260   2.918   2.677   2.702  0.2710 -0.4316 -0.0729
  566SOL     OW 2261   2.181   2.033   2.368  0.4358 -0.1714 -0.0503
  566SOL    HW1 2262   2.195   2.021   2.275  0.1986 -1.2347 -0.8722
  566SOL    HW2 2263   2.251   2.091   2.403 -0.1139  2.7281 -0.6858
  566SOL     MW 2264   2.192   2.039   2.360  0.3320  0.0709 -0.2426
  567SOL     OW 2265   1.165   2.888   0.104  0.3404  0.4037 -0.5981
  567SOL    HW1 2266   1.231   2.939   0.145 -0.2064  1.3909 -0.0834
  567SOL    HW2 2267   1.194   2.883   0.013  1.7552  1.6325 -1.4754
  567SOL     MW 2268   1.178   2.894   0.097  0.4549  0.6960 -0.6459
  568SOL     OW 2269   1.632   2.118   2.797 -0.1201  0.1706  0.0581
  568SOL    HW1 2270   1.693   2.164   2.853 -1.7029  1.1308 -1.2788
  568SOL    HW2 2271   1.688   2.090   2.718 -1.2245 -0.4390 -0.4202
  568SOL     MW 2272   1.648   2.120   2.794 -0.4747  0.2169 -0.1814
  569SOL     OW 2273   0.056   2.216   2.479  1.0409 -0.4819 -0.4753
  569SOL    HW1 2274   0.018   2.286   2.420 -0.6485  1.6401 -1.9593
  569SOL    HW2 2275   0.091   2.262   2.560 -1.0825  0.2626  2.6376
  569SOL     MW 2276   0.055   2.231   2.482  0.5379 -0.1037 -0.2604
  570SOL     OW 2277   1.534   0.356   0.455 -0.4794 -0.4127 -0.1023
  570SOL    HW1 2278   1.440   0.338   0.468  0.4071  1.4339  1.4718
  570SOL    HW2 2279   1.569   0.395   0.531  0.4151  1.5231 -0.4550
  570SOL     MW 2280   1.526   0.359   0.467 -0.2444  0.0863  0.0588
  571SOL     OW 2281   1.444   2.458   2.012  0.0329 -0.3680  0.5874
  571SOL    HW1 2282   1.450   2.477   2.104  2.1877  1.2368 -1.9610
  571SOL    HW2 2283   1.457   2.367   1.998  1.5091  1.5809 -1.9017
  571SOL     MW 2284   1.447   2.449   2.023  0.5120  0.1009 -0.0773
  572SOL     OW 2285   0.911   2.525   3.069  0.2861  0.0804  0.0985
  572SOL    HW1 2286   0.892   2.563   2.988  3.6557  0.6664  0.3438
  572SOL    HW2 2287   0.837   2.540   3.129 -1.0040  1.5500 -1.6494
  572SOL     MW 2288   0.899   2.532   3.066  0.5605  0.3516 -0.0998
  573SOL     OW 2289   1.112   2.423   0.183 -0.2612 -0.1862 -0.4831
  573SOL    HW1 2290   1.180   2.366   0.157 -2.3861  1.1023  0.6211
  573SOL    HW2 2291   1.159   2.508   0.172  0.5168 -0.4382  1.2441
  573SOL     MW 2292   1.127   2.427   0.178 -0.4389 -0.0495 -0.1095
  574SOL     OW 2293   1.253   2.665   0.236 -0.2803 -0.2657 -0.5166
  574SOL    HW1 2294   1.331   2.710   0.266 -0.0135 -0.3331 -1.6274
  574SOL    HW2 2295   1.208   2.727   0.177  3.7936 -0.5508  1.6378
  574SOL     MW 2296   1.258   2.679   0.232  0.2924 -0.3122 -0.3789
  575SOL     OW 2297   3.070   2.285   1.821 -0.1549  0.6526 -0.0384
  575SOL    HW1 2298   3.060   2.202   1.769  1.5709 -2.7749 -1.6085
  575SOL    HW2 2299   3.117   2.351   1.761 -1.2273  0.2627 -2.1830
  575SOL     MW 2300   3.075   2.283   1.806 -0.0687  0.1489 -0.5285
  576SOL     OW 2301   2.828   1.822   2.071 -0.1911  0.0124 -0.6425
  576SOL    HW1 2302   2.827   1.894   2.009  2.0284  1.0444  1.8167
  576SOL    HW2 2303   2.744   1.782   2.051 -1.8194  1.7629  1.6404
  576SOL     MW 2304   2.817   1.826   2.060 -0.1131  0.3796 -0.0168
  577SOL     OW 2305   2.064   0.309   0.061 -0.3460 -0.6752 -0.2536
  577SOL    HW1 2306   2.016   0.385   0.030 -0.3943  2.1523  1.2555
  577SOL    HW2 2307   1.997   0.253   0.102  2.1551  0.4225 -0.5252
  577SOL     MW 2308   2.049   0.312   0.062 -0.0224 -0.1573 -0.0903
  578SOL     OW 2309   1.918   2.189   2.345  0.5719  0.0896  0.0384
  578SOL    HW1 2310   1.869   2.145   2.266  0.9733 -2.4649  0.1558
  578SOL    HW2 2311   2.005   2.139   2.341  1.3624  0.8291  1.4639
  578SOL     MW 2312   1.923   2.176   2.334  0.7292 -0.1499  0.2420
  579SOL     OW 2313   0.825   2.486   2.505  0.1084 -0.1839 -0.1773
  579SOL    HW1 2314   0.874   2.443   2.582 -0.5565 -0.2541  1.7092
  579SOL    HW2 2315   0.892   2.510   2.443  0.9348 -0.4398  0.4249
  579SOL     MW 2316   0.840   2.483   2.507  0.1297 -0.2269  0.1511
  580SOL     OW 2317   0.878   2.855   3.086  0.4216  0.0846  0.5031
  580SOL    HW1 2318   0.964   2.814   3.108 -0.6537  0.3053  2.0281
  580SOL    HW2 2319   0.850   2.826   3.001  0.2636 -1.6910 -2.3240
  580SOL     MW 2320   0.886   2.846   3.078  0.2589 -0.1205  0.3313
  581SOL     OW 2321   1.102   2.581   1.730  0.1820 -0.7131 -0.6070
  581SOL    HW1 2322   1.180   2.619   1.771 -0.8792 -0.3553  0.9886
  581SOL    HW2 2323   1.101   2.486   1.763 -0.1046  1.0868  1.3377
  581SOL     MW 2324   1.112   2.574   1.740  0.0041 -0.4284 -0.1399
  582SOL     OW 2325   3.082   2.885   2.618  0.3757  0.0914  0.2601
  582SOL    HW1 2326   3.079   2.972   2.669  0.4488  1.1501 -0.9547
  582SOL    HW2 2327   3.163   2.840   2.638 -3.0957 -1.6849 -0.3414
  582SOL     MW 2328   3.092   2.891   2.628 -0.0726 -0.0033  0.0205
  583SOL     OW 2329   1.953   2.507   2.697 -0.2214 -0.4321 -0.4221
  583SOL    HW1 2330   1.989   2.550   2.610  2.0637 -0.8179 -1.1224
  583SOL    HW2 2331   1.963   2.414   2.673  0.6148 -0.0986  0.1866
  583SOL     MW 2332   1.959   2.500   2.682  0.1904 -0.4390 -0.4342
  584SOL     OW 2333   0.159   1.847   2.099 -0.2749 -0.0001 -0.2305
  584SOL    HW1 2334   0.252   1.850   2.062  1.2462 -2.4835  2.3945
  584SOL    HW2 2335   0.173   1.899   2.180 -0.6763  0.5283 -0.8480
  584SOL     MW 2336   0.173   1.854   2.105 -0.1272 -0.2581  0.0344
  585SOL     OW 2337   1.454   2.582   0.040  0.4386  0.5071 -0.5198
  585SOL    HW1 2338   1.416   2.622  -0.043 -0.0561  0.9472  3.3845
  585SOL    HW2 2339   1.393   2.598   0.108 -0.0888  1.4783  0.7072
  585SOL     MW 2340   1.441   2.590   0.038  0.3037  0.6933  0.1573
  586SOL     OW 2341   1.302   2.974   2.371  0.4404  0.1532  0.3656
  586SOL    HW1 2342   1.382   2.927   2.402  2.2228  0.5492 -0.1528
  586SOL    HW2 2343   1.256   3.010   2.445  0.1291  1.5143 -0.6523
  586SOL     MW 2344   1.306   2.972   2.385  0.6345  0.3850  0.1629
  587SOL     OW 2345   1.190   1.631   2.180  0.0074  0.0321  0.2871
  587SOL    HW1 2346   1.185   1.545   2.223 -1.0080  0.2241 -0.1993
  587SOL    HW2 2347   1.167   1.610   2.086 -0.6980 -0.9126  2.9506
  587SOL     MW 2348   1.187   1.617   2.173 -0.2197 -0.0672  0.5743
  588SOL     OW 2349   1.377   2.250   2.727  0.0785 -0.1067 -0.2540
  588SOL    HW1 2350   1.448   2.191   2.735  0.8214 -1.7370 -1.2031
  588SOL    HW2 2351   1.313   2.200   2.788 -1.9457  0.3029  1.4305
  588SOL     MW 2352   1.378   2.236   2.736 -0.0905 -0.2678 -0.1570
  589SOL     OW 2353   1.341   2.054   0.023  0.1076 -0.0815  0.6259
  589SOL    HW1 2354   1.353   2.146   0.046  1.0980 -0.5189  0.0747
  589SOL    HW2 2355   1.316   1.998   0.100 -0.6198 -3.6813  0.4735
  589SOL     MW 2356   1.339   2.059   0.036  0.1423 -0.6141  0.5331
  590SOL     OW 2357   0.490   2.550   2.242 -0.1223  0.5500 -0.3153
  590SOL    HW1 2358   0.423   2.577   2.182  0.5069 -1.6875 -0.4785
  590SOL    HW2 2359   0.559   2.619   2.243 -0.6504 -0.2085  1.1210
  590SOL     MW 2360   0.490   2.563   2.234 -0.1090  0.1547 -0.1473
  591SOL     OW 2361   2.199   0.672   3.039  0.2614 -0.6125  0.2011
  591SOL    HW1 2362   2.111   0.679   2.994  2.3373 -1.9429 -1.0126
  591SOL    HW2 2363   2.267   0.670   2.971 -0.3651 -1.2919  1.3887
  591SOL     MW 2364   2.197   0.673   3.024  0.4527 -0.8776  0.1976
  592SOL     OW 2365   1.824   2.894   0.851  0.3605 -0.3181  0.0968
  592SOL    HW1 2366   1.831   2.935   0.762  0.7408  0.5473  0.7806
  592SOL    HW2 2367   1.890   2.818   0.846  2.3010  2.2985 -1.9143
  592SOL     MW 2368   1.834   2.890   0.839  0.6667  0.1413 -0.0784
  593SOL     OW 2369   1.927   0.809   0.907  0.0524  0.0428 -0.5230
  593SOL    HW1 2370   1.862   0.793   0.842 -1.5437  1.9271  0.6044
  593SOL    HW2 2371   1.956   0.718   0.926  4.7909  0.7035 -1.2240
  593SOL     MW 2372   1.922   0.795   0.901  0.4670  0.3786 -0.4668
  594SOL     OW 2373   2.741   1.122   1.403 -0.6179 -0.1547 -0.1434
  594SOL    HW1 2374   2.817   1.162   1.361  1.2430  0.3954 -1.9636
  594SOL    HW2 2375   2.681   1.100   1.330 -1.9787  1.1079  0.0629
  594SOL     MW 2376   2.743   1.125   1.388 -0.5519  0.0845 -0.3563
  595SOL     OW 2377   0.425   0.969   0.762 -0.5827 -0.2327  0.1631
  595SOL    HW1 2378   0.495   1.012   0.701  3.1586  1.1179 -2.0085
  595SOL    HW2 2379   0.454   1.015   0.838  0.5337 -0.4551 -0.8237
  595SOL     MW 2380   0.438   0.981   0.764  0.0582 -0.0838 -0.2536
  596SOL     OW 2381   2.437   1.321   0.578  0.3037 -0.0487 -0.4313
  596SOL    HW1 2382   2.471   1.413   0.565  3.7837  1.4112  0.2774
  596SOL    HW2 2383   2.496   1.280   0.640 -0.2078  1.4292  0.1135
  596SOL     MW 2384   2.449   1.328   0.585  0.6954  0.3389 -0.2659
  597SOL     OW 2385   2.236   0.669   1.734 -0.3007 -0.5301 -0.3039
  597SOL    HW1 2386   2.287   0.605   1.776 -3.0131  0.3601 -1.8740
  597SOL    HW2 2387   2.259   0.665   1.644 -1.4089  1.5919 -0.7441
  597SOL     MW 2388   2.246   0.660   1.728 -0.8048 -0.1326 -0.5691
  598SOL     OW 2389   2.612   1.018   2.858 -0.1721 -0.0512  0.3136
  598SOL    HW1 2390   2.655   0.958   2.801 -5.0738 -0.9045 -0.1458
  598SOL    HW2 2391   2.683   1.046   2.911 -0.2004 -0.4167  0.3308
  598SOL     MW 2392   2.627   1.014   2.857 -0.8226 -0.2120  0.2552
  599SOL     OW 2393   2.927   0.344   2.045  0.1371  0.0246 -0.2240
  599SOL    HW1 2394   2.896   0.321   2.134  2.0201  1.9080  0.2260
  599SOL    HW2 2395   2.983   0.421   2.043 -0.0805  0.2232 -1.5619
  599SOL     MW 2396   2.931   0.351   2.057  0.3569  0.2993 -0.3412
  600SOL     OW 2397   1.858   1.665   0.883  0.3988  0.1957 -0.8591
  600SOL    HW1 2398   1.886   1.678   0.970  1.3972  0.5377 -1.2171
  600SOL    HW2 2399   1.770   1.712   0.877  0.5068  0.9940  0.2587
  600SOL     MW 2400   1.850   1.673   0.893  0.5448  0.3462 -0.7588
  601SOL     OW 2401   2.488   0.768   0.892  0.2173  0.7246  0.0923
  601SOL    HW1 2402   2.514   0.795   0.979  0.0582  2.0187 -2.0075
  601SOL    HW2 2403   2.389   0.759   0.890 -0.3075  0.6579  0.6484
  601SOL     MW 2404   2.478   0.770   0.903  0.1271  0.8865 -0.1113
  602SOL     OW 2405   2.274   1.938   0.697  0.2986  0.2394  0.0706
  602SOL    HW1 2406   2.221   1.862   0.726 -0.2583  0.3572 -0.1728
  602SOL    HW2 2407   2.224   1.978   0.622 -0.9404  0.3299  1.2681
  602SOL     MW 2408   2.261   1.933   0.690  0.0616  0.2669  0.1965
  603SOL     OW 2409   2.990   1.392   1.843 -0.0909  0.7257  0.1105
  603SOL    HW1 2410   3.073   1.426   1.874 -1.6633  2.9019 -3.6305
  603SOL    HW2 2411   3.006   1.307   1.803  0.9307 -1.4492 -2.2917
  603SOL     MW 2412   3.003   1.385   1.842 -0.1636  0.7259 -0.7001
  604SOL     OW 2413   2.051   1.531   0.501  0.2378  0.6666  0.2456
  604SOL    HW1 2414   2.064   1.460   0.559  0.5390  0.1198 -1.2552
  604SOL    HW2 2415   2.003   1.598   0.546  0.0246  3.2087  2.0440
  604SOL     MW 2416   2.047   1.530   0.515  0.2494  0.9299  0.2848
  605SOL     OW 2417   2.655   1.541   0.812 -0.1679  0.2129  0.5680
  605SOL    HW1 2418   2.598   1.608   0.780  1.5969 -1.4562  1.6172
  605SOL    HW2 2419   2.622   1.505   0.891  1.2082 -0.6017 -1.3746
  605SOL     MW 2420   2.643   1.545   0.818  0.2465 -0.1148  0.4501
  606SOL     OW 2421   2.540   1.824   1.930 -0.1609 -0.4590  1.1320
  606SOL    HW1 2422   2.442   1.831   1.950  0.3193  2.2578  1.1560
  606SOL    HW2 2423   2.559   1.736   1.885  0.9224 -0.8757 -0.8069
  606SOL     MW 2424   2.530   1.813   1.927  0.0454 -0.1556  0.8794
  607SOL     OW 2425   2.352   1.021   2.958  0.0952 -0.0122  0.1809
  607SOL    HW1 2426   2.447   1.012   2.943  2.2246  1.5762  2.1841
  607SOL    HW2 2427   2.337   1.011   3.047 -1.1757  0.3487  0.1194
  607SOL     MW 2428   2.363   1.018   2.968  0.2084  0.2450  0.4371
  608SOL     OW 2429   1.897   0.255   0.633  0.2698  0.0766 -0.2373
  608SOL    HW1 2430   1.904   0.289   0.543  0.0415  2.5933 -1.5290
  608SOL    HW2 2431   1.870   0.162   0.634 -0.1253 -0.5363  1.7861
  608SOL     MW 2432   1.894   0.247   0.621  0.1875  0.3278 -0.1408
  609SOL     OW 2433   2.124   1.918   3.017  0.2286  0.0095 -0.5607
  609SOL    HW1 2434   2.048   1.869   2.985 -1.4772 -1.6519  0.4853
  609SOL    HW2 2435   2.143   1.891   3.108  1.4830  1.6409  1.1031
  609SOL     MW 2436   2.117   1.908   3.024  0.1690  0.0056 -0.2032
  610SOL     OW 2437   1.814   1.084   1.362 -0.0031  0.3366  0.0698
  610SOL    HW1 2438   1.831   1.008   1.304  0.8572 -0.6453  2.8219
  610SOL    HW2 2439   1.742   1.053   1.429  1.2213 -0.1446 -0.3270
  610SOL     MW 2440   1.806   1.070   1.363  0.2719  0.1435  0.3806
  611SOL     OW 2441   2.491   1.744   0.722 -0.3511 -0.4351  0.1067
  611SOL    HW1 2442   2.448   1.820   0.690  1.0705 -4.4520  0.0090
  611SOL    HW2 2443   2.510   1.685   0.651 -2.2619  0.8072  2.4593
  611SOL     MW 2444   2.488   1.746   0.708 -0.4157 -0.8012  0.4042
  612SOL     OW 2445   2.780   2.780   0.424 -0.0907  0.5681 -0.0482
  612SOL    HW1 2446   2.826   2.837   0.494 -0.0656 -0.0693  1.1956
  612SOL    HW2 2447   2.846   2.778   0.355  0.3852  1.6058  0.3833
  612SOL     MW 2448   2.795   2.787   0.424 -0.0246  0.6209  0.1728
  613SOL     OW 2449   1.627   1.006   1.102  0.2361 -0.0779 -0.1802
  613SOL    HW1 2450   1.581   1.074   1.160 -0.6699 -1.5961  2.1761
  613SOL    HW2 2451   1.715   1.008   1.134 -0.0650  0.4078  1.1992
  613SOL     MW 2452   1.632   1.015   1.114  0.0768 -0.2141  0.3127
  614SOL     OW 2453   1.979   0.544   1.539  0.2692  0.3676 -0.1128
  614SOL    HW1 2454   1.993   0.457   1.586  1.0726 -0.7354 -3.0655
  614SOL    HW2 2455   2.003   0.529   1.450 -1.5343 -1.2548 -0.1938
  614SOL     MW 2456   1.984   0.531   1.534  0.1372  0.0080 -0.5131
  615SOL     OW 2457   2.236   0.830   0.178 -0.1874  0.0208  0.5418
  615SOL    HW1 2458   2.281   0.781   0.251 -2.3592 -0.3723  1.2262
  615SOL    HW2 2459   2.216   0.765   0.110 -0.1365  0.8498  0.9129
  615SOL     MW 2460   2.239   0.815   0.179 -0.4672  0.0783  0.6811
  616SOL     OW 2461   2.623   0.392   1.630 -0.3004  0.4430  0.0821
  616SOL    HW1 2462   2.576   0.334   1.566  1.3954 -0.3544 -0.2197
  616SOL    HW2 2463   2.620   0.477   1.585  3.1761  0.0570 -3.5187
  616SOL     MW 2464   2.616   0.395   1.615  0.3820  0.2868 -0.4328
  617SOL     OW 2465   2.909   0.555   1.762 -0.3461  0.1633 -0.2224
  617SOL    HW1 2466   2.822   0.586   1.806  1.1538  1.1646  1.2709
  617SOL    HW2 2467   2.896   0.463   1.730  0.8012 -0.5017 -2.5240
  617SOL     MW 2468   2.896   0.547   1.763  0.0031  0.2077 -0.3291
  618SOL     OW 2469   2.646   0.365   1.944 -0.3390  0.3043  0.1628
  618SOL    HW1 2470   2.627   0.458   1.939 -0.8357 -0.8405 -0.0466
  618SOL    HW2 2471   2.739   0.364   1.961 -1.2322 -1.0648  1.4880
  618SOL     MW 2472   2.656   0.377   1.946 -0.5224 -0.0274  0.3100
  619SOL     OW 2473   2.591   0.883   0.129  0.1097  0.5389  0.1965
  619SOL    HW1 2474   2.679   0.889   0.163 -0.2682  0.0010 -0.8198
  619SOL    HW2 2475   2.537   0.869   0.202  0.5697  0.9768 -1.1493
  619SOL     MW 2476   2.596   0.882   0.143  0.1205  0.5257 -0.1152
  620SOL     OW 2477   2.295   1.111   0.921 -0.0419 -0.7358 -0.0127
  620SOL    HW1 2478   2.361   1.117   0.854 -0.9075  0.0556 -1.2074
  620SOL    HW2 2479   2.260   1.028   0.902 -1.4350  2.8218 -1.8163
  620SOL     MW 2480   2.299   1.101   0.910 -0.3399 -0.1620 -0.4083
  621SOL     OW 2481   1.507   2.131   1.991 -0.5010 -0.1792 -0.1358
  621SOL    HW1 2482   1.423   2.087   2.009 -0.7946 -0.2657 -0.0645
  621SOL    HW2 2483   1.548   2.145   2.078  1.6703 -0.1408  0.6332
  621SOL     MW 2484   1.502   2.127   2.005 -0.2533 -0.1856 -0.0250
  622SOL     OW 2485   2.625   0.202   0.147  0.4208 -0.0529  0.1912
  622SOL    HW1 2486   2.697   0.248   0.202 -0.9264  0.6358  0.4313
  622SOL    HW2 2487   2.642   0.112   0.116  0.0661 -1.5438 -1.9551
  622SOL     MW 2488   2.637   0.196   0.150  0.1962 -0.1587 -0.0603
  623SOL     OW 2489   2.389   2.766   0.839 -0.0920  0.2671  0.4562
  623SOL    HW1 2490   2.442   2.847   0.837  1.0810 -1.4156 -1.5567
  623SOL    HW2 2491   2.319   2.792   0.899  0.9147  2.3812 -3.0733
  623SOL     MW 2492   2.387   2.780   0.847  0.1956  0.3240 -0.2751
  624SOL     OW 2493   2.210   1.627   2.961  0.3883  0.2039  0.5960
  624SOL    HW1 2494   2.126   1.580   2.973  1.0497  1.8527 -0.4735
  624SOL    HW2 2495   2.199   1.723   2.972  0.6653 -0.2116  2.8669
  624SOL     MW 2496   2.197   1.634   2.964  0.5121  0.3666  0.7546
  625SOL     OW 2497   2.203   1.917   1.063  0.1004 -0.1344 -0.2094
  625SOL    HW1 2498   2.266   1.901   1.132  0.3336 -0.5038  0.3943
  625SOL    HW2 2499   2.238   1.878   0.987  0.0923 -2.1737 -0.0567
  625SOL     MW 2500   2.216   1.910   1.062  0.1301 -0.4522 -0.1096
  626SOL     OW 2501   0.146   1.576   2.388  0.2501 -0.4895 -0.0211
  626SOL    HW1 2502   0.083   1.514   2.348 -1.2798  2.0953 -2.4921
  626SOL    HW2 2503   0.095   1.595   2.465 -3.0579 -0.8528  0.6872
  626SOL     MW 2504   0.131   1.570   2.393 -0.3882 -0.1964 -0.2537
  627SOL     OW 2505   2.430   0.835   2.558 -0.1957  0.4474 -0.5675
  627SOL    HW1 2506   2.380   0.921   2.552 -1.7660 -2.1343 -1.0545
  627SOL    HW2 2507   2.421   0.794   2.467 -1.2487 -0.9265 -0.7442
  627SOL     MW 2508   2.422   0.841   2.545 -0.5418 -0.0745 -0.6550
  628SOL     OW 2509   2.337   1.369   1.383 -0.0857  0.1106 -0.2383
  628SOL    HW1 2510   2.313   1.299   1.316  0.5490  2.0366 -1.4854
  628SOL    HW2 2511   2.429   1.394   1.376 -0.5875 -2.8282  1.5530
  628SOL     MW 2512   2.346   1.363   1.373 -0.0681 -0.0230 -0.1665
  629SOL     OW 2513   2.016   0.568   1.202 -0.5377 -0.0283 -0.3425
  629SOL    HW1 2514   2.064   0.648   1.195 -1.1344 -2.1978  1.2284
  629SOL    HW2 2515   1.929   0.603   1.232  0.3250  0.8736  0.3880
  629SOL     MW 2516   2.011   0.583   1.205 -0.5026 -0.1956 -0.0389
  630SOL     OW 2517   2.498   1.814   3.096  0.3713  0.6082  0.2531
  630SOL    HW1 2518   2.469   1.882   3.031  0.9633 -1.9633 -1.8700
  630SOL    HW2 2519   2.429   1.757   3.112  1.3804 -2.9296  0.6085
  630SOL     MW 2520   2.485   1.816   3.090  0.5825 -0.1978  0.0199
  631SOL     OW 2521   1.977   1.791   1.611 -0.1478  0.4098  0.2336
  631SOL    HW1 2522   1.994   1.699   1.651  1.0496 -0.7097 -1.2562
  631SOL    HW2 2523   1.970   1.768   1.517 -0.4357 -1.1406 -3.7260
  631SOL     MW 2524   1.978   1.776   1.604 -0.0278  0.0575 -0.4854
  632SOL     OW 2525   0.221   2.074   1.573  0.3773 -0.3299  0.1410
  632SOL    HW1 2526   0.163   2.098   1.641 -3.0641 -1.1517 -1.1520
  632SOL    HW2 2527   0.181   1.988   1.541  2.1549  1.8141 -0.4101
  632SOL     MW 2528   0.208   2.066   1.577  0.1577 -0.1554 -0.1023
  633SOL     OW 2529   2.424   0.710   0.371 -0.0882 -0.0747  0.1163
  633SOL    HW1 2530   2.511   0.702   0.413  0.2065 -0.9835  1.0689
  633SOL    HW2 2531   2.382   0.621   0.354 -1.1043 -2.5659 -0.5364
  633SOL     MW 2532   2.430   0.697   0.374 -0.1834 -0.5233  0.1559
  634SOL     OW 2533   2.630   3.078   0.605 -0.1464  0.0612  0.2727
  634SOL    HW1 2534   2.653   3.170   0.586  2.1268 -0.8143  0.8960
  634SOL    HW2 2535   2.626   3.033   0.520 -1.2188  2.6566  1.1741
  634SOL     MW 2536   2.632   3.084   0.591  0.0120  0.2881  0.4739
  635SOL     OW 2537   2.587   0.115   1.825 -0.1803  0.1258 -0.5605
  635SOL    HW1 2538   2.668   0.095   1.781 -0.6203 -0.9744 -0.9277
  635SOL    HW2 2539   2.608   0.201   1.855  0.9497 -0.6582  0.7658
  635SOL     MW 2540   2.600   0.124   1.823 -0.0892 -0.1228 -0.4340
  636SOL     OW 2541   2.913   1.637   1.013 -0.1203 -0.5238 -0.4838
  636SOL    HW1 2542   2.873   1.706   0.961 -1.1667 -0.5825 -0.4743
  636SOL    HW2 2543   2.941   1.676   1.096  1.5638  0.9633 -3.4408
  636SOL     MW 2544   2.911   1.651   1.017 -0.0362 -0.3353 -0.8727
  637SOL     OW 2545   2.902   1.496   0.701 -0.3221  0.0619  0.1548
  637SOL    HW1 2546   2.943   1.580   0.712  2.9231  0.7419  2.7758
  637SOL    HW2 2547   2.818   1.512   0.743  1.7570  0.3198  1.4542
  637SOL     MW 2548   2.896   1.509   0.708  0.3804  0.1856  0.6721
  638SOL     OW 2549   2.652   0.684   0.525 -0.2963  0.3089  0.4539
  638SOL    HW1 2550   2.737   0.672   0.477  0.5078 -0.4238 -1.2327
  638SOL    HW2 2551   2.667   0.657   0.618  2.3703 -1.6131 -0.8011
  638SOL     MW 2552   2.665   0.679   0.531  0.1616 -0.0414  0.0658
  639SOL     OW 2553   1.836   3.077   0.621 -0.7706  0.2826  0.3946
  639SOL    HW1 2554   1.739   3.097   0.620 -3.0348  2.4925  0.3077
  639SOL    HW2 2555   1.843   3.030   0.532 -0.7593 -3.6732 -0.3186
  639SOL     MW 2556   1.824   3.073   0.609 -1.0678  0.0523  0.2891
  640SOL     OW 2557   0.386   1.367   0.093 -0.0751 -0.2090 -0.0382
  640SOL    HW1 2558   0.419   1.393   0.007  0.4685 -3.0698 -0.5327
  640SOL    HW2 2559   0.344   1.277   0.083 -0.8144 -0.1609  0.5197
  640SOL     MW 2560   0.385   1.358   0.080 -0.1009 -0.5801 -0.0298
  641SOL     OW 2561   2.309   0.432   0.381 -0.4748 -0.1612  0.0767
  641SOL    HW1 2562   2.349   0.395   0.300 -0.7745  3.2300 -1.2013
  641SOL    HW2 2563   2.378   0.416   0.450  2.4768 -0.0473  0.2467
  641SOL     MW 2564   2.323   0.425   0.379 -0.1249  0.3013 -0.0695
  642SOL     OW 2565   3.096   0.013   0.501  0.6117  0.2765  0.3085
  642SOL    HW1 2566   3.060   0.101   0.501  0.1385 -0.1415 -0.0604
  642SOL    HW2 2567   3.022  -0.041   0.527  0.5068  1.3577 -1.0183
  642SOL     MW 2568   3.081   0.017   0.505  0.5355  0.3640  0.0848
  643SOL     OW 2569   2.034   0.295   1.636 -0.3438  0.1900  0.5218
  643SOL    HW1 2570   2.112   0.263   1.678 -0.9790 -2.3815 -2.1792
  643SOL    HW2 2571   2.036   0.248   1.555 -0.7744 -0.0011  2.0745
  643SOL     MW 2572   2.045   0.284   1.631 -0.4844 -0.1745  0.3703
  644SOL     OW 2573   2.712   1.863   0.944  0.1287  0.0034  0.7181
  644SOL    HW1 2574   2.667   1.812   1.010  0.4684  3.2316  0.1453
  644SOL    HW2 2575   2.651   1.889   0.871  1.0227  0.1465 -0.5727
  644SOL     MW 2576   2.698   1.860   0.943  0.2915  0.4482  0.4722
  645SOL     OW 2577   2.751   0.906   0.633  0.3214 -0.5848  0.1441
  645SOL    HW1 2578   2.817   0.865   0.686 -0.3466  0.2490 -1.4654
  645SOL    HW2 2579   2.710   0.835   0.584 -0.5196  0.9428 -0.3498
  645SOL     MW 2580   2.754   0.891   0.634  0.1223 -0.2732 -0.1334
  646SOL     OW 2581   0.146   2.297   0.869  0.4709 -0.3618 -0.1542
  646SOL    HW1 2582   0.191   2.216   0.851 -2.3764 -1.0564 -2.2102
  646SOL    HW2 2583   0.082   2.317   0.799  3.7322 -1.8966  1.5106
  646SOL     MW 2584   0.144   2.289   0.857  0.5256 -0.6559 -0.2058
  647SOL     OW 2585   2.747   0.559   2.994  0.2587 -0.3361 -0.4821
  647SOL    HW1 2586   2.675   0.516   3.024  2.1511  2.1400  1.3606
  647SOL    HW2 2587   2.719   0.652   2.977  1.1825 -0.6516 -1.1299
  647SOL     MW 2588   2.734   0.566   2.996  0.6303 -0.0511 -0.3244
  648SOL     OW 2589   2.220   0.743   1.099  0.0147  0.1130  0.3602
  648SOL    HW1 2590   2.228   0.757   1.002 -0.6800  0.7119 -2.6666
  648SOL    HW2 2591   2.183   0.825   1.133 -1.1354  0.1420 -1.0980
  648SOL     MW 2592   2.217   0.756   1.090 -0.2287  0.1958 -0.2315
  649SOL     OW 2593   2.375   2.685   1.200  0.0550  0.0909  0.1170
  649SOL    HW1 2594   2.453   2.730   1.232  0.2422  0.2301 -0.6321
  649SOL    HW2 2595   2.403   2.592   1.205 -0.3416  0.6961 -0.8702
  649SOL     MW 2596   2.389   2.678   1.205  0.0274  0.1891 -0.1121
  650SOL     OW 2597   2.762   0.248   0.612 -0.3480 -0.1229 -0.1685
  650SOL    HW1 2598   2.779   0.266   0.701 -1.0112  0.0499 -1.4634
  650SOL    HW2 2599   2.848   0.255   0.571 -0.6432  1.3431  0.5167
  650SOL     MW 2600   2.775   0.251   0.619 -0.4744  0.0934 -0.2489
  651SOL     OW 2601   2.990   0.301   0.841 -0.2651 -0.0174  0.3051
  651SOL    HW1 2602   3.063   0.347   0.792 -1.1624  2.2119  1.1774
  651SOL    HW2 2603   2.928   0.369   0.864 -0.7945 -0.4796  1.3232
  651SOL     MW 2604   2.991   0.316   0.838 -0.4533  0.2157  0.5545
  652SOL     OW 2605   2.386   1.423   2.972 -0.5665 -0.4336 -0.8265
  652SOL    HW1 2606   2.467   1.434   2.920  2.1984  1.5341 -0.1659
  652SOL    HW2 2607   2.340   1.503   2.952  1.1101  1.0169 -0.1779
  652SOL     MW 2608   2.391   1.435   2.963  0.0195  0.0174 -0.6538
  653SOL     OW 2609   1.974   0.364   0.385 -0.0825 -0.0241 -0.6503
  653SOL    HW1 2610   1.937   0.296   0.328  1.0178  3.0143 -1.7954
  653SOL    HW2 2611   2.070   0.375   0.364  0.0130 -1.3867  1.2883
  653SOL     MW 2612   1.982   0.356   0.375  0.0752  0.1970 -0.5456
  654SOL     OW 2613   2.466   1.024   0.708 -0.5306  0.1201  0.1745
  654SOL    HW1 2614   2.383   1.016   0.658  0.6028  0.6404 -0.7184
  654SOL    HW2 2615   2.484   0.941   0.746  3.1358 -1.2243 -2.9577
  654SOL     MW 2616   2.457   1.012   0.707  0.1027  0.0113 -0.3566
  655SOL     OW 2617   3.067   0.919   0.442 -0.2373  0.1219 -0.0588
  655SOL    HW1 2618   3.125   0.937   0.517 -0.7825 -0.3998  0.9257
  655SOL    HW2 2619   3.051   0.822   0.449 -2.2550 -1.2616 -0.3154
  655SOL     MW 2620   3.073   0.908   0.453 -0.5754 -0.1295  0.0372
  656SOL     OW 2621   1.988   2.755   1.206  0.4988  0.8633 -0.6200
  656SOL    HW1 2622   1.970   2.848   1.230  1.0042  3.1337  2.8996
  656SOL    HW2 2623   1.990   2.706   1.288  0.9777  2.1272  2.9710
  656SOL     MW 2624   1.986   2.761   1.220  0.6287  1.3296  0.3182
  657SOL     OW 2625   0.210   1.577   1.255  0.5821 -0.4061 -0.5796
  657SOL    HW1 2626   0.123   1.542   1.250  0.9561  1.5252 -2.7404
  657SOL    HW2 2627   0.245   1.582   1.168  0.2639 -1.8870  1.7067
  657SOL     MW 2628   0.203   1.573   1.243  0.5895 -0.3466 -0.5630
  658SOL     OW 2629   2.685   1.369   0.248  0.1402  0.4087  0.5719
  658SOL    HW1 2630   2.618   1.320   0.297  0.1840 -0.8335  0.7098
  658SOL    HW2 2631   2.732   1.426   0.305 -1.2567  0.1760 -1.9927
  658SOL     MW 2632   2.683   1.370   0.262 -0.0383  0.2141  0.2517
  659SOL     OW 2633   2.206   1.560   1.029 -0.1478  0.0741  0.7794
  659SOL    HW1 2634   2.286   1.506   1.026  2.8284 -2.0828  1.0474
  659SOL    HW2 2635   2.195   1.569   1.125  2.0963 -0.5589 -2.3423
  659SOL     MW 2636   2.215   1.554   1.041  0.5410 -0.2940  0.4029
  660SOL     OW 2637   2.013   1.521   1.747 -0.1537 -0.0465 -0.7477
  660SOL    HW1 2638   2.046   1.534   1.839 -3.0591 -3.0046 -1.7407
  660SOL    HW2 2639   1.993   1.432   1.753  0.9655  5.1124 -1.6154
  660SOL     MW 2640   2.015   1.511   1.760 -0.3893  0.2439 -0.9932
  661SOL     OW 2641   2.342   1.077   0.146 -0.0028  0.9479  0.3555
  661SOL    HW1 2642   2.408   1.120   0.208  1.3887  2.1530 -0.9455
  661SOL    HW2 2643   2.324   0.993   0.179 -0.0084  0.9991  0.0184
  661SOL     MW 2644   2.348   1.072   0.158  0.1800  1.1136  0.1394
  662SOL     OW 2645   2.534   3.008   0.863 -0.2526  0.4665 -0.0897
  662SOL    HW1 2646   2.506   3.084   0.919  0.0685  4.4411 -1.0824
  662SOL    HW2 2647   2.548   3.045   0.775  0.1644 -1.0696  0.1292
  662SOL     MW 2648   2.532   3.023   0.858 -0.1553  0.7882 -0.1918
  663SOL     OW 2649   2.813   1.549   0.460 -0.4943  0.0078 -0.0019
  663SOL    HW1 2650   2.901   1.580   0.423  2.5346  2.2119 -1.1937
  663SOL    HW2 2651   2.829   1.520   0.550  0.7768 -0.7919  0.2465
  663SOL     MW 2652   2.827   1.549   0.467  0.0731  0.1931 -0.1264
  664SOL     OW 2653   2.464   1.580   1.603  0.5172 -0.4134 -0.8788
  664SOL    HW1 2654   2.442   1.670   1.621 -1.5373 -0.2411  0.4899
  664SOL    HW2 2655   2.387   1.525   1.615 -1.6912 -0.2402  2.9988
  664SOL     MW 2656   2.451   1.584   1.607 -0.0452 -0.3678 -0.1866
  665SOL     OW 2657   2.884   0.806   2.021  0.5312 -0.5435  0.1898
  665SOL    HW1 2658   2.845   0.853   1.948  0.3099 -1.3486  0.6409
  665SOL    HW2 2659   2.935   0.738   1.978  3.4984 -0.9731  1.2952
  665SOL     MW 2660   2.885   0.804   2.006  0.8935 -0.7064  0.3952
  666SOL     OW 2661   2.822   2.986   1.694  0.1745 -0.4934 -0.1319
  666SOL    HW1 2662   2.795   3.027   1.612  0.8279 -0.9468  2.0387
  666SOL    HW2 2663   2.761   2.912   1.722  0.5385 -0.1026 -2.4885
  666SOL     MW 2664   2.810   2.982   1.687  0.3088 -0.5017 -0.1564
  667SOL     OW 2665   1.940   2.675   1.657  0.2905  0.5996 -0.1628
  667SOL    HW1 2666   1.965   2.604   1.712 -0.0763  0.3127 -1.6602
  667SOL    HW2 2667   2.009   2.743   1.666 -0.8550 -0.5891  1.4164
  667SOL     MW 2668   1.952   2.675   1.666  0.0909  0.4049 -0.1520
  668SOL     OW 2669   2.706   0.652   0.794  0.2505  0.1916  0.3034
  668SOL    HW1 2670   2.790   0.664   0.834  0.8793 -2.6958 -1.6049
  668SOL    HW2 2671   2.631   0.707   0.829  1.6437 -1.3768  0.4018
  668SOL     MW 2672   2.707   0.661   0.804  0.5173 -0.3963  0.0646
  669SOL     OW 2673   0.152   0.928   0.714 -0.0929 -0.6045 -0.0990
  669SOL    HW1 2674   0.124   1.001   0.774 -0.4074  0.8231 -0.2394
  669SOL    HW2 2675   0.247   0.921   0.727  3.1371 -1.4020 -0.0458
  669SOL     MW 2676   0.161   0.937   0.724  0.2918 -0.5214 -0.1105
  670SOL     OW 2677   2.848   0.289   0.255  0.0940 -0.4434  0.1593
  670SOL    HW1 2678   2.887   0.207   0.227  2.1841  1.6727  0.2356
  670SOL    HW2 2679   2.889   0.356   0.202 -1.3056  0.1184  0.0073
  670SOL     MW 2680   2.858   0.287   0.245  0.1851 -0.0901  0.1493
  671SOL     OW 2681   2.176  -0.002   1.610  0.5980  0.5986  0.1878
  671SOL    HW1 2682   2.155   0.073   1.553 -2.8204 -0.4416  0.8133
  671SOL    HW2 2683   2.095  -0.027   1.659 -1.0330  2.6790 -2.1349
  671SOL     MW 2684   2.162   0.005   1.609 -0.0683  0.7358 -0.0361
  672SOL     OW 2685   1.897   1.706   1.355 -0.3255  0.3111  0.5606
  672SOL    HW1 2686   1.813   1.741   1.375 -0.6485 -0.6448 -1.1984
  672SOL    HW2 2687   1.917   1.742   1.265 -0.2948 -0.2005 -2.3258
  672SOL     MW 2688   1.889   1.715   1.346 -0.3641  0.1175 -0.0523
  673SOL     OW 2689   2.770   1.130   0.480  0.1219 -0.2758 -0.3253
  673SOL    HW1 2690   2.773   1.048   0.530  1.1217  0.8937 -0.0036
  673SOL    HW2 2691   2.863   1.145   0.503  0.4594 -1.6851  2.0216
  673SOL     MW 2692   2.782   1.121   0.490  0.2983 -0.3074  0.0268
  674SOL     OW 2693   2.415   0.021   1.285  0.5017 -0.3959 -0.1371
  674SOL    HW1 2694   2.408   0.051   1.193  1.9622 -1.4954 -0.3696
  674SOL    HW2 2695   2.434  -0.074   1.282  1.4566  2.0325  1.4567
  674SOL     MW 2696   2.417   0.012   1.272  0.8204 -0.2206  0.0425
  675SOL     OW 2697   2.960   1.016   1.100 -0.2665  0.8038 -0.0555
  675SOL    HW1 2698   3.024   0.975   1.157  0.7902  1.5515  2.1193
  675SOL    HW2 2699   3.002   1.016   1.010  2.6716 -2.0459 -1.8019
  675SOL     MW 2700   2.974   1.011   1.096  0.2606  0.5265  0.0010
  676SOL     OW 2701   2.849   1.501   1.641 -0.2856 -0.4925  0.2134
  676SOL    HW1 2702   2.781   1.435   1.638  0.8602  2.7745 -2.8219
  676SOL    HW2 2703   2.910   1.468   1.704  2.9610 -1.1182 -0.4851
  676SOL     MW 2704   2.848   1.488   1.649  0.2939 -0.1440 -0.2793
  677SOL     OW 2705   2.474   0.847   1.834  0.1376 -0.2006  0.5504
  677SOL    HW1 2706   2.386   0.859   1.801 -1.1642  1.0212 -2.4334
  677SOL    HW2 2707   2.463   0.891   1.912  0.1955  1.6443 -1.5103
  677SOL     MW 2708   2.461   0.854   1.840 -0.0266  0.2040 -0.1152
  678SOL     OW 2709   2.508   1.587   0.482  0.2522 -0.0922 -0.9310
  678SOL    HW1 2710   2.451   1.647   0.433 -3.8180 -0.5878  1.1075
  678SOL    HW2 2711   2.595   1.605   0.453  0.2993  0.8301  0.6551
  678SOL     MW 2712   2.512   1.598   0.472 -0.2786 -0.0359 -0.4528
  679SOL     OW 2713   2.394   0.501   1.184 -0.1188 -0.4866 -0.1425
  679SOL    HW1 2714   2.338   0.422   1.195 -0.3964  0.5086  1.5589
  679SOL    HW2 2715   2.347   0.558   1.124  0.0315  0.5332 -1.4223
  679SOL     MW 2716   2.380   0.498   1.177 -0.1356 -0.2208 -0.0869
  680SOL     OW 2717   2.417   0.253   1.480 -0.6406  0.0233 -0.2421
  680SOL    HW1 2718   2.394   0.240   1.572  1.1561 -1.2163 -2.0728
  680SOL    HW2 2719   2.400   0.171   1.441  1.7196  1.5646  2.0063
  680SOL     MW 2720   2.412   0.240   1.487 -0.0921  0.0631 -0.1870
  681SOL     OW 2721   0.269   0.491   1.560  0.0338 -0.2578  0.3018
  681SOL    HW1 2722   0.265   0.398   1.597 -0.0130  0.4225  1.2492
  681SOL    HW2 2723   0.363   0.512   1.565 -1.4000  0.0428  0.0523
  681SOL     MW 2724   0.281   0.482   1.565 -0.1616 -0.1284  0.3939
  682SOL     OW 2725   0.111   3.006   1.479 -0.6899  0.2690  0.0616
  682SOL    HW1 2726   0.085   3.103   1.464  2.7171 -2.1113 -0.7024
  682SOL    HW2 2727   0.073   2.985   1.564 -2.0744 -2.7335 -2.1429
  682SOL     MW 2728   0.102   3.016   1.489 -0.4230 -0.4412 -0.3301
  683SOL     OW 2729   1.970   0.807   2.971  0.2430 -0.0316  0.2829
  683SOL    HW1 2730   1.882   0.789   2.921 -0.3127 -0.7606 -0.3853
  683SOL    HW2 2731   1.971   0.901   3.004 -0.5384  2.0837  1.0945
  683SOL     MW 2732   1.958   0.817   2.969  0.0666  0.1513  0.3019
  684SOL     OW 2733   2.110   1.739   0.789  0.0776  0.0136  0.0735
  684SOL    HW1 2734   2.026   1.734   0.829 -0.1970  0.6286  0.2794
  684SOL    HW2 2735   2.171   1.674   0.826  0.6265 -0.7678 -2.8886
  684SOL     MW 2736   2.107   1.730   0.799  0.1138 -0.0084 -0.2902
  685SOL     OW 2737   2.635   1.727   1.190 -0.2849  0.0455 -0.0324
  685SOL    HW1 2738   2.702   1.737   1.256 -2.7564 -0.4427 -0.0292
  685SOL    HW2 2739   2.627   1.632   1.177  0.1191  2.1992  0.1457
  685SOL     MW 2740   2.643   1.716   1.197 -0.5577  0.2653 -0.0084
  686SOL     OW 2741   2.954   0.715   1.518 -0.5816 -0.0566  0.5153
  686SOL    HW1 2742   2.962   0.659   1.592  1.3998  0.2287 -0.3143
  686SOL    HW2 2743   3.032   0.691   1.466 -3.0515  0.7955  0.1434
  686SOL     MW 2744   2.966   0.704   1.521 -0.6461  0.0935  0.3568
  687SOL     OW 2745   2.182   0.337   1.201 -0.1411  0.2952 -0.6854
  687SOL    HW1 2746   2.198   0.287   1.121  1.1997 -0.0055 -1.5080
  687SOL    HW2 2747   2.122   0.406   1.186  0.4138 -0.6617  0.1743
  687SOL     MW 2748   2.176   0.339   1.188  0.1090  0.1292 -0.6805
  688SOL     OW 2749   2.357   0.528   1.476 -0.2965  0.1810 -0.7628
  688SOL    HW1 2750   2.352   0.435   1.481  2.7320  1.4912  1.0496
  688SOL    HW2 2751   2.367   0.544   1.384  0.2284  0.5912  0.4058
  688SOL     MW 2752   2.358   0.518   1.464  0.1724  0.4080 -0.3695
  689SOL     OW 2753   2.558   0.759   2.988 -0.3644 -0.0927  0.0469
  689SOL    HW1 2754   2.587   0.848   2.970 -0.9973 -2.2730  0.1467
  689SOL    HW2 2755   2.544   0.771   3.082  1.0095 -1.4928  2.2602
  689SOL     MW 2756   2.560   0.773   2.998 -0.2666 -0.5651  0.3521
  690SOL     OW 2757   2.052   1.021   1.985 -0.5212 -0.1411  0.3131
  690SOL    HW1 2758   2.017   0.932   1.996  1.3521 -1.9565 -0.8482
  690SOL    HW2 2759   2.079   1.020   1.895 -2.4417  0.3047  1.9325
  690SOL     MW 2760   2.051   1.009   1.975 -0.5274 -0.3218  0.3735
  691SOL     OW 2761   2.437   0.345   0.849 -0.1177 -0.3820 -0.1645
  691SOL    HW1 2762   2.498   0.390   0.907 -0.2355 -2.9938 -1.2400
  691SOL    HW2 2763   2.365   0.405   0.835  0.1965  0.0025 -0.7209
  691SOL     MW 2764   2.435   0.359   0.855 -0.0918 -0.6759 -0.3798
  692SOL     OW 2765   2.788   1.653   1.436 -0.6310  0.2297  0.1663
  692SOL    HW1 2766   2.789   1.600   1.515 -0.5612 -3.1713  0.3245
  692SOL    HW2 2767   2.806   1.749   1.461 -1.3600 -2.0815  0.5586
  692SOL     MW 2768   2.790   1.659   1.449 -0.7180 -0.5240  0.2389
  693SOL     OW 2769   2.301   0.457   0.072 -0.6147  0.5425 -0.7280
  693SOL    HW1 2770   2.222   0.410   0.093 -1.1232 -1.3301  1.2288
  693SOL    HW2 2771   2.282   0.533   0.016  0.0908 -0.9730 -0.4707
  693SOL     MW 2772   2.288   0.461   0.067 -0.5887  0.0955 -0.4359
  694SOL     OW 2773   1.977   1.298   1.210  0.3224  0.1865  0.1421
  694SOL    HW1 2774   2.058   1.259   1.186 -1.4286  1.1660 -1.2812
  694SOL    HW2 2775   1.915   1.227   1.232 -0.3620  1.1237  1.1779
  694SOL     MW 2776   1.979   1.284   1.210  0.0010  0.4394  0.0910
  695SOL     OW 2777   3.039   1.524   1.325 -0.6320 -0.6989 -0.3750
  695SOL    HW1 2778   3.015   1.466   1.249  1.0612 -0.1766 -2.1400
  695SOL    HW2 2779   2.961   1.575   1.341 -1.6224 -0.3552 -0.0584
  695SOL     MW 2780   3.025   1.523   1.317 -0.5393 -0.5847 -0.5661
  696SOL     OW 2781   2.017   1.379   0.942 -0.0130  0.3300 -0.0669
  696SOL    HW1 2782   2.071   1.459   0.958  1.9134  0.8550 -4.6068
  696SOL    HW2 2783   2.004   1.345   1.030 -1.7604  1.3251  0.9480
  696SOL     MW 2784   2.022   1.385   0.956  0.0106  0.5305 -0.5320
  697SOL     OW 2785   2.874   0.939   2.260  0.0898 -0.9449  0.2621
  697SOL    HW1 2786   2.849   1.031   2.249  0.1625  1.4466 -3.0840
  697SOL    HW2 2787   2.879   0.898   2.173  0.1827 -1.9363  3.4865
  697SOL     MW 2788   2.871   0.946   2.247  0.1117 -0.7601  0.2461
  698SOL     OW 2789   2.546   0.375   3.069 -0.3425 -0.9020  0.5833
  698SOL    HW1 2790   2.460   0.408   3.101  1.6631 -1.0408 -1.7908
  698SOL    HW2 2791   2.568   0.300   3.125  1.3550 -1.7528 -0.5118
  698SOL     MW 2792   2.538   0.369   3.081  0.1461 -1.0326  0.1256
  699SOL     OW 2793   1.845   1.621   2.066  0.3197  0.1634  0.1814
  699SOL    HW1 2794   1.825   1.531   2.100 -0.4539  1.3213 -1.2244
  699SOL    HW2 2795   1.941   1.634   2.063 -0.0168  0.3254 -0.5371
  699SOL     MW 2796   1.855   1.611   2.070  0.1733  0.3376 -0.0989
  700SOL     OW 2797   2.735   0.882   1.533  0.3182 -0.0535 -0.6349
  700SOL    HW1 2798   2.721   0.972   1.492  0.4768 -0.5245 -2.3794
  700SOL    HW2 2799   2.821   0.845   1.505  0.4465 -2.4820  1.1252
  700SOL     MW 2800   2.744   0.889   1.524  0.3560 -0.4361 -0.6328
  701SOL     OW 2801   1.667   1.271   2.626 -0.0645 -0.5047 -0.0928
  701SOL    HW1 2802   1.759   1.300   2.634  0.5766 -0.0196  0.7324
  701SOL    HW2 2803   1.626   1.321   2.702 -1.0179 -0.1026  1.0450
  701SOL     MW 2804   1.674   1.282   2.637 -0.1057 -0.3876  0.1662
  702SOL     OW 2805   2.217   0.480   0.764 -0.4311 -0.5440  0.6393
  702SOL    HW1 2806   2.188   0.395   0.741  3.8194  1.7127  1.8996
  702SOL    HW2 2807   2.217   0.540   0.689  1.2269  1.1409  1.6861
  702SOL     MW 2808   2.213   0.477   0.751  0.3485 -0.0240  0.9437
  703SOL     OW 2809   2.661   1.275   0.980 -0.3873  0.6043 -0.4822
  703SOL    HW1 2810   2.675   1.257   0.882 -0.3706 -3.8329 -0.7026
  703SOL    HW2 2811   2.670   1.188   1.018 -0.7183 -0.4760 -1.0671
  703SOL     MW 2812   2.664   1.261   0.972 -0.4287 -0.1237 -0.5884
  704SOL     OW 2813   0.016   1.296   0.257  0.0326 -0.4302  0.3790
  704SOL    HW1 2814  -0.073   1.273   0.235 -0.5237  0.2293  1.2374
  704SOL    HW2 2815   0.052   1.205   0.240  0.4659 -1.1052 -0.2384
  704SOL     MW 2816   0.009   1.281   0.252  0.0164 -0.4323  0.4108
  705SOL     OW 2817   2.208   1.598   1.321 -0.6618 -0.4660 -0.2281
  705SOL    HW1 2818   2.120   1.608   1.358  0.5185 -1.0688 -1.6326
  705SOL    HW2 2819   2.257   1.529   1.357 -0.8543  0.4273 -2.6391
  705SOL     MW 2820   2.203   1.590   1.330 -0.5314 -0.4276 -0.7315
  706SOL     OW 2821   3.001   1.235   0.619  0.1787  0.3626 -0.9178
  706SOL    HW1 2822   3.085   1.233   0.578 -0.1625 -1.8020 -1.8687
  706SOL    HW2 2823   2.965   1.314   0.664 -2.6891  0.5860 -2.0530
  706SOL     MW 2824   3.008   1.245   0.619 -0.2447  0.1065 -1.1930
  707SOL     OW 2825   2.443   0.122   1.024 -0.7283 -0.0457 -0.1398
  707SOL    HW1 2826   2.456   0.196   0.960  0.7337 -0.4218  0.7480
  707SOL    HW2 2827   2.348   0.126   1.027 -0.9320  2.2221  2.3645
  707SOL     MW 2828   2.432   0.132   1.016 -0.5623  0.2039  0.3078
  708SOL     OW 2829   2.535   1.522   0.073 -0.1633  0.1726  0.0186
  708SOL    HW1 2830   2.582   1.472   0.139  1.4811 -0.8462 -1.4624
  708SOL    HW2 2831   2.490   1.463   0.008 -2.6431 -2.0552 -0.8812
  708SOL     MW 2832   2.535   1.508   0.073 -0.2735 -0.2558 -0.2955
  709SOL     OW 2833   1.765   1.713   0.138 -0.2792  0.6456  0.0642
  709SOL    HW1 2834   1.762   1.706   0.037 -0.6323 -0.1179  0.0161
  709SOL    HW2 2835   1.683   1.675   0.165 -1.7330 -0.1250 -2.6420
  709SOL     MW 2836   1.754   1.707   0.128 -0.5176  0.4432 -0.2992
  710SOL     OW 2837   2.238   1.193   1.180  0.0380  0.0628 -0.6494
  710SOL    HW1 2838   2.260   1.162   1.095  0.2601 -0.4676  3.4375
  710SOL    HW2 2839   2.250   1.108   1.222  1.5701 -1.7820 -0.1763
  710SOL     MW 2840   2.242   1.178   1.174  0.2694 -0.2506 -0.0478
  711SOL     OW 2841   2.353   0.162   1.734  0.2898  0.5158 -0.5504
  711SOL    HW1 2842   2.437   0.117   1.748 -3.0230  0.4836 -1.1790
  711SOL    HW2 2843   2.298   0.099   1.694  1.2341  0.6836  1.5681
  711SOL     MW 2844   2.357   0.148   1.730 -0.0227  0.5337 -0.3538
  712SOL     OW 2845   1.594   0.623   3.092 -0.0349 -0.7056  0.6226
  712SOL    HW1 2846   1.644   0.667   3.021 -1.1758  1.6642 -1.5056
  712SOL    HW2 2847   1.503   0.629   3.065  2.2055 -0.9912  0.4506
  712SOL     MW 2848   1.589   0.629   3.079  0.1101 -0.4306  0.3191
  713SOL     OW 2849   2.593   0.783   1.145 -0.0563  0.2385 -0.4858
  713SOL    HW1 2850   2.647   0.696   1.137 -2.1223 -1.3063  1.0746
  713SOL    HW2 2851   2.536   0.781   1.223  1.6242 -1.3711 -0.6098
  713SOL     MW 2852   2.592   0.771   1.154 -0.1072 -0.1777 -0.2963
  714SOL     OW 2853   2.266   0.175   2.011  0.1307  0.2319 -0.1712
  714SOL    HW1 2854   2.325   0.126   2.069  0.8230 -0.5832 -1.6056
  714SOL    HW2 2855   2.310   0.173   1.922 -0.0050 -1.1828  1.6404
  714SOL     MW 2856   2.280   0.169   2.007  0.2041 -0.0623 -0.1215
  715SOL     OW 2857   1.775   1.947   1.737  0.3119  0.3584  0.0677
  715SOL    HW1 2858   1.862   1.925   1.708 -1.4095 -1.7160 -0.0303
  715SOL    HW2 2859   1.734   1.860   1.762 -1.5406 -1.9170 -2.4608
  715SOL     MW 2860   1.781   1.933   1.737 -0.1597 -0.2155 -0.2789
  716SOL     OW 2861   2.261   0.716   0.596  0.5158  0.3917 -0.2048
  716SOL    HW1 2862   2.315   0.700   0.516  1.1386 -0.3608 -3.0094
  716SOL    HW2 2863   2.175   0.733   0.551  1.0989 -1.4762 -0.4385
  716SOL     MW 2864   2.257   0.716   0.579  0.6749  0.0459 -0.6057
  717SOL     OW 2865   2.863   1.423   2.942 -0.4842  0.0064 -0.3756
  717SOL    HW1 2866   2.952   1.432   2.904  2.5853 -0.4021 -0.8776
  717SOL    HW2 2867   2.868   1.482   3.017 -2.6213  1.2476  0.7114
  717SOL     MW 2868   2.876   1.432   2.947 -0.3612  0.1162 -0.2984
  718SOL     OW 2869   2.579   1.472   1.307  0.2926 -0.2731  0.4527
  718SOL    HW1 2870   2.616   1.520   1.378  2.3883 -2.8475 -0.3651
  718SOL    HW2 2871   2.645   1.420   1.272 -0.5954  0.6527  0.6372
  718SOL     MW 2872   2.593   1.472   1.312  0.4519 -0.4906  0.3691
  719SOL     OW 2873   2.140   1.313   0.689  0.1736 -0.4443 -0.3933
  719SOL    HW1 2874   2.211   1.378   0.694  0.3265  1.2349  2.2586
  719SOL    HW2 2875   2.128   1.286   0.783 -0.0961  0.6652  0.8401
  719SOL     MW 2876   2.148   1.318   0.702  0.1582 -0.0764  0.1193
  720SOL     OW 2877   2.887   1.191   0.165  0.9780 -0.0092  0.3689
  720SOL    HW1 2878   2.870   1.100   0.194  1.2784  3.9082  1.2166
  720SOL    HW2 2879   2.800   1.234   0.184 -1.5433 -2.6502  0.2825
  720SOL     MW 2880   2.874   1.184   0.172  0.6850  0.1592  0.4694
  721SOL     OW 2881   2.481   0.782   1.397  0.3484 -0.1371  0.2788
  721SOL    HW1 2882   2.473   0.704   1.446  0.6393  3.2828  2.6527
  721SOL    HW2 2883   2.562   0.807   1.432  0.2360  0.5146 -2.0154
  721SOL     MW 2884   2.490   0.775   1.408  0.3719  0.4001  0.2893
  722SOL     OW 2885   2.531   1.191   0.371  0.2409  0.2925  0.1955
  722SOL    HW1 2886   2.485   1.243   0.443  0.6351 -1.2479  1.9974
  722SOL    HW2 2887   2.623   1.161   0.399  2.6390  1.7280 -2.1532
  722SOL     MW 2888   2.537   1.194   0.384  0.6093  0.2786  0.1233
  723SOL     OW 2889   2.260   1.399   1.649  0.2656  0.2176  0.8926
  723SOL    HW1 2890   2.257   1.386   1.553 -0.7113 -0.2763 -0.5902
  723SOL    HW2 2891   2.169   1.417   1.674  0.6777  1.1156  0.9180
  723SOL     MW 2892   2.248   1.399   1.639  0.1911  0.2709  0.7003
  724SOL     OW 2893   2.509   0.368   0.557  0.5270 -0.0540  0.2116
  724SOL    HW1 2894   2.475   0.355   0.648 -0.1831  1.4669  3.0271
  724SOL    HW2 2895   2.603   0.348   0.564  1.5696 -1.6051 -1.4683
  724SOL     MW 2896   2.517   0.364   0.570  0.5709 -0.0580  0.3614
  725SOL     OW 2897   2.686   0.517   1.124  0.8767  0.2604  0.0223
  725SOL    HW1 2898   2.710   0.494   1.216 -0.5461 -1.6395 -1.1170
  725SOL    HW2 2899   2.590   0.517   1.135 -1.8850  0.5549  0.9489
  725SOL     MW 2900   2.676   0.514   1.138  0.3246  0.0486 -0.0058
  726SOL     OW 2901   2.563   2.387   0.549  0.3531 -0.2405 -0.1686
  726SOL    HW1 2902   2.508   2.458   0.522 -1.9660 -0.9273 -1.3720
  726SOL    HW2 2903   2.532   2.365   0.634 -3.9718  0.7941 -0.3839
  726SOL     MW 2904   2.552   2.394   0.557 -0.5235 -0.1946 -0.3558
  727SOL     OW 2905   2.875   0.307   1.670 -0.7610  0.5421  0.2779
  727SOL    HW1 2906   2.895   0.318   1.573 -1.0834 -2.1639 -0.9884
  727SOL    HW2 2907   2.783   0.321   1.677  1.2966  2.5510  0.1603
  727SOL     MW 2908   2.866   0.310   1.658 -0.5321  0.4501  0.0953
  728SOL     OW 2909   2.833   1.161   2.985  0.8226  0.1873 -0.2380
  728SOL    HW1 2910   2.857   1.244   2.943  1.1416  1.7286  0.4478
  728SOL    HW2 2911   2.856   1.175   3.082  0.0848 -0.6904 -2.0546
  728SOL     MW 2912   2.839   1.174   2.992  0.7674  0.2748 -0.3872
  729SOL     OW 2913   2.479   1.465   1.040  0.2612 -0.0359  0.9983
  729SOL    HW1 2914   2.460   1.462   1.134  0.2033 -0.1072 -1.5051
  729SOL    HW2 2915   2.515   1.382   1.023  0.0974  0.2725 -0.3339
  729SOL     MW 2916   2.481   1.453   1.050  0.2319 -0.0046  0.4923
  730SOL     OW 2917   2.078   1.187   0.197  0.3447 -0.4171  0.4012
  730SOL    HW1 2918   2.166   1.177   0.159  0.7997  0.7817 -2.1289
  730SOL    HW2 2919   2.082   1.277   0.234 -0.6421  1.4757  2.5888
  730SOL     MW 2920   2.090   1.197   0.197  0.2745 -0.0092  0.3560
  731SOL     OW 2921   2.776   1.780   2.885 -0.5884 -0.4837  0.1710
  731SOL    HW1 2922   2.688   1.812   2.878  0.1267 -0.6981  0.7783
  731SOL    HW2 2923   2.814   1.868   2.896  1.0762 -0.4733 -1.1260
  731SOL     MW 2924   2.770   1.796   2.885 -0.2744 -0.5106  0.0800
  732SOL     OW 2925   2.220   0.931   1.317 -0.0945 -0.2484  0.4633
  732SOL    HW1 2926   2.164   0.951   1.392  0.1039 -0.8611  3.8878
  732SOL    HW2 2927   2.284   0.867   1.344  0.4083  5.7796  1.3993
  732SOL     MW 2928   2.221   0.925   1.330 -0.0019  0.4661  1.0386
  733SOL     OW 2929   2.367   2.869   2.987 -0.0620  0.3670 -0.0003
  733SOL    HW1 2930   2.293   2.933   2.969 -0.5512  0.8001 -2.6428
  733SOL    HW2 2931   2.324   2.788   3.021 -1.5972 -0.9142  2.4842
  733SOL     MW 2932   2.351   2.867   2.989 -0.3291  0.2551 -0.0212
  734SOL     OW 2933   1.505   0.368   2.525 -0.2150 -0.4644 -0.2073
  734SOL    HW1 2934   1.431   0.336   2.583  1.0477 -0.6145  0.0511
  734SOL    HW2 2935   1.514   0.305   2.453 -1.1437 -0.4386 -4.7788
  734SOL     MW 2936   1.497   0.356   2.523 -0.1709 -0.4808 -0.7764
  735SOL     OW 2937   2.981   0.867   2.716  0.5702  0.0284 -0.1597
  735SOL    HW1 2938   2.889   0.859   2.681  1.5724  0.4956  1.3108
  735SOL    HW2 2939   2.965   0.904   2.800  0.0206  1.5809 -2.2938
  735SOL     MW 2940   2.967   0.871   2.722  0.6299  0.2948 -0.2473
  736SOL     OW 2941   0.056   0.621   2.472  0.2326 -0.1773  0.2746
  736SOL    HW1 2942   0.097   0.655   2.391  0.4896 -2.2985 -0.8145
  736SOL    HW2 2943   0.036   0.526   2.450  1.7734 -2.4394  0.5729
  736SOL     MW 2944   0.058   0.613   2.458  0.4698 -0.7556  0.1703
  737SOL     OW 2945   2.883   0.616   2.556 -0.3590  0.0808 -0.2612
  737SOL    HW1 2946   2.838   0.581   2.482  0.5621 -1.4291  1.3789
  737SOL    HW2 2947   2.973   0.641   2.522 -0.3998 -0.2639 -1.7157
  737SOL     MW 2948   2.889   0.614   2.542 -0.2428 -0.1639 -0.2367
  738SOL     OW 2949   0.165   0.435   1.923 -0.0262  0.4046  0.2139
  738SOL    HW1 2950   0.254   0.448   1.922 -0.9378 -2.2430 -1.0518
  738SOL    HW2 2951   0.162   0.372   1.853  0.0119 -1.2719  0.9150
  738SOL     MW 2952   0.176   0.429   1.913 -0.1414 -0.1659  0.1394
  739SOL     OW 2953   2.551   1.022   2.199  0.0068 -0.2155 -0.3541
  739SOL    HW1 2954   2.462   1.020   2.165 -0.5837 -1.6697  1.4852
  739SOL    HW2 2955   2.608   1.079   2.151 -2.5461 -0.1920 -0.8528
  739SOL     MW 2956   2.546   1.029   2.188 -0.4080 -0.4043 -0.1773
  740SOL     OW 2957   0.254   1.702   2.965 -0.1057 -0.0399  0.4822
  740SOL    HW1 2958   0.215   1.616   2.983 -0.9559 -1.0419 -0.1964
  740SOL    HW2 2959   0.346   1.678   2.982 -0.7226 -0.7665 -1.2734
  740SOL     MW 2960   0.261   1.688   2.969 -0.2992 -0.2680  0.1610
  741SOL     OW 2961   2.216   1.272   2.714 -0.3364 -0.6759  0.2289
  741SOL    HW1 2962   2.237   1.362   2.682  0.4432 -1.3828  0.2738
  741SOL    HW2 2963   2.204   1.287   2.815 -1.0894  0.4798  1.4642
  741SOL     MW 2964   2.217   1.286   2.723 -0.3329 -0.6167  0.3978
  742SOL     OW 2965   1.599   1.374   2.343  0.4112 -0.1807  0.3681
  742SOL    HW1 2966   1.552   1.309   2.296 -1.2156  1.3270  2.3153
  742SOL    HW2 2967   1.610   1.334   2.430 -1.6577 -0.9310 -2.8261
  742SOL     MW 2968   1.594   1.361   2.348 -0.0764 -0.0808  0.2036
  743SOL     OW 2969   2.502   1.215   2.708  0.6079  0.3112  0.0467
  743SOL    HW1 2970   2.414   1.232   2.689  2.2347  1.6880  1.6409
  743SOL    HW2 2971   2.504   1.139   2.771 -1.3706 -1.6982  0.4405
  743SOL     MW 2972   2.491   1.207   2.714  0.5615  0.2278  0.3090
  744SOL     OW 2973   2.777   0.926   1.800 -0.0260 -0.4108 -0.4585
  744SOL    HW1 2974   2.684   0.947   1.812 -1.3102  0.3976 -0.1111
  744SOL    HW2 2975   2.772   0.901   1.705  2.1785  0.2416 -0.6427
  744SOL     MW 2976   2.764   0.926   1.789  0.0954 -0.2181 -0.4370
  745SOL     OW 2977   1.744   0.498   2.443 -0.0261  0.2122 -0.4834
  745SOL    HW1 2978   1.719   0.497   2.344 -2.2958 -1.3214  3.3366
  745SOL    HW2 2979   1.679   0.436   2.490 -0.2344 -0.7862 -3.0712
  745SOL     MW 2980   1.732   0.489   2.436 -0.3530 -0.1219 -0.3208
  746SOL     OW 2981   1.568   1.458   1.712 -0.5023  0.4981 -0.3836
  746SOL    HW1 2982   1.639   1.521   1.730  1.5852  0.9922  1.1289
  746SOL    HW2 2983   1.560   1.413   1.799  0.8341  0.4205  2.9061
  746SOL     MW 2984   1.577   1.460   1.726 -0.0505  0.5530  0.2500
  747SOL     OW 2985   2.594   1.135   1.901 -0.3214 -0.3385 -0.1917
  747SOL    HW1 2986   2.515   1.138   1.842 -1.2242  2.5719 -2.3195
  747SOL    HW2 2987   2.611   1.229   1.923  0.0344  2.2392 -1.9891
  747SOL     MW 2988   2.586   1.148   1.896 -0.3936  0.3856 -0.7096
  748SOL     OW 2989   0.104  -0.005   1.951 -0.3668  0.2973 -1.2526
  748SOL    HW1 2990   0.187   0.036   1.910  1.5716 -0.3084 -2.0947
  748SOL    HW2 2991   0.058   0.059   2.005 -1.2309 -2.0087  1.0809
  748SOL     MW 2992   0.109   0.008   1.952 -0.2250 -0.0869 -1.0559
  749SOL     OW 2993   2.420   0.654   2.762 -0.0485  0.1027 -0.0304
  749SOL    HW1 2994   2.403   0.723   2.694 -1.8796 -1.6348  1.0962
  749SOL    HW2 2995   2.479   0.698   2.836  0.0778  0.2712 -2.3938
  749SOL     MW 2996   2.426   0.669   2.763 -0.2734 -0.1043 -0.1936
  750SOL     OW 2997   2.123   3.001   1.953  0.2295  0.1458 -0.2962
  750SOL    HW1 2998   2.159   3.093   1.949 -0.3179 -1.0458 -0.9350
  750SOL    HW2 2999   2.182   2.940   1.901 -2.9659  1.4107  0.2024
  750SOL     MW 3000   2.136   3.005   1.946 -0.2644  0.1555 -0.3147
  751SOL     OW 3001   3.088   0.365   2.449 -0.4124 -0.1386  0.8367
  751SOL    HW1 3002   3.008   0.360   2.388 -1.6877  0.5506 -1.7758
  751SOL    HW2 3003   3.163   0.338   2.394 -3.7882 -2.0437  0.3495
  751SOL     MW 3004   3.087   0.361   2.434 -1.0261 -0.2990  0.4277
  752SOL     OW 3005   2.126   0.931   2.809 -0.5176 -0.5858 -0.3982
  752SOL    HW1 3006   2.210   0.940   2.854 -0.4113  1.0300  0.6113
  752SOL    HW2 3007   2.083   0.866   2.868 -1.4829  2.1818  2.1276
  752SOL     MW 3008   2.131   0.923   2.822 -0.6310 -0.0075  0.0683
  753SOL     OW 3009   2.872   0.291   2.312 -0.2796 -0.5909 -0.6505
  753SOL    HW1 3010   2.836   0.201   2.336 -1.4131  1.1606 -0.8608
  753SOL    HW2 3011   2.805   0.355   2.341  1.3994 -1.5865 -1.4111
  753SOL     MW 3012   2.859   0.288   2.319 -0.2076 -0.4912 -0.7786
  754SOL     OW 3013   2.253   3.000   2.615 -0.4700 -0.1626 -0.0201
  754SOL    HW1 3014   2.293   2.978   2.530 -1.4902  1.6841 -0.7436
  754SOL    HW2 3015   2.316   2.968   2.684  0.7998 -1.6195 -1.0719
  754SOL     MW 3016   2.267   2.993   2.613 -0.4371 -0.1112 -0.2543
  755SOL     OW 3017   2.770   1.618   2.399  0.3063  0.1774  0.2695
  755SOL    HW1 3018   2.726   1.529   2.387 -0.4918 -0.4790 -0.4009
  755SOL    HW2 3019   2.771   1.628   2.493  2.2325 -1.6332 -1.7895
  755SOL     MW 3020   2.765   1.608   2.410  0.4551 -0.1481 -0.0906
  756SOL     OW 3021   2.167   1.260   2.967 -0.3191  0.0569  0.6348
  756SOL    HW1 3022   2.245   1.310   2.988 -0.8560  1.8859 -0.8182
  756SOL    HW2 3023   2.198   1.171   2.958 -0.3116  1.9154  0.2456
  756SOL     MW 3024   2.182   1.254   2.968 -0.3889  0.5435  0.3918
  757SOL     OW 3025   2.193   0.942   1.754 -0.1637 -0.1014  0.5337
  757SOL    HW1 3026   2.183   0.845   1.770  0.0460 -0.9611 -1.6089
  757SOL    HW2 3027   2.134   0.953   1.673 -0.0443 -2.5260  0.5542
  757SOL     MW 3028   2.184   0.930   1.745 -0.1202 -0.5348  0.2537
  758SOL     OW 3029   2.212   1.834   2.581  0.8148  0.1402  1.1789
  758SOL    HW1 3030   2.185   1.893   2.504  1.4491 -0.3209  1.5341
  758SOL    HW2 3031   2.305   1.821   2.566 -0.9101  1.7225 -1.7305
  758SOL     MW 3032   2.221   1.840   2.569  0.6709  0.2882  0.8419
  759SOL     OW 3033   1.582   1.465   2.804 -0.1937  0.0592  0.1853
  759SOL    HW1 3034   1.607   1.527   2.729  0.0680  0.8048 -1.6276
  759SOL    HW2 3035   1.660   1.476   2.860  1.9714  0.1969  2.0116
  759SOL     MW 3036   1.596   1.475   2.802  0.1265  0.1758  0.1871
  760SOL     OW 3037   2.597   1.925   2.717 -0.0193 -0.1078  0.3072
  760SOL    HW1 3038   2.546   1.848   2.701 -0.0744 -0.2414  0.1342
  760SOL    HW2 3039   2.652   1.933   2.642 -0.6696  1.3658  2.1570
  760SOL     MW 3040   2.598   1.916   2.705 -0.1124  0.0690  0.5284
  761SOL     OW 3041   2.279   0.452   2.419 -0.7805  0.2981  0.0313
  761SOL    HW1 3042   2.193   0.408   2.435  1.8407 -1.1739  3.6017
  761SOL    HW2 3043   2.336   0.437   2.492 -1.4395  0.4615  0.2800
  761SOL     MW 3044   2.275   0.445   2.431 -0.5216  0.1255  0.5352
  762SOL     OW 3045   0.027   0.179   2.110 -0.1087  0.3188  0.4260
  762SOL    HW1 3046  -0.004   0.113   2.174  2.1918  1.3361  1.4287
  762SOL    HW2 3047  -0.047   0.239   2.093 -1.4355 -0.4056 -1.9605
  762SOL     MW 3048   0.013   0.178   2.116  0.0198  0.3574  0.2434
  763SOL     OW 3049   2.459   1.208   2.365  0.1609 -0.4050 -0.3671
  763SOL    HW1 3050   2.513   1.144   2.313  0.7626 -0.5018  3.5931
  763SOL    HW2 3051   2.526   1.260   2.402 -0.7755 -1.3154 -0.9944
  763SOL     MW 3052   2.475   1.207   2.363  0.1167 -0.5379  0.0726
  764SOL     OW 3053   0.388   0.076   2.815 -0.2406  0.5811  0.3339
  764SOL    HW1 3054   0.341   0.141   2.766  1.8954  3.2701 -3.0977
  764SOL    HW2 3055   0.416   0.118   2.897 -0.6750 -1.0405 -0.2082
  764SOL     MW 3056   0.385   0.090   2.819 -0.0161  0.7219 -0.1904
  765SOL     OW 3057   2.754   0.039   2.311 -0.3601  1.0708 -0.3495
  765SOL    HW1 3058   2.730   0.025   2.218  1.0042  0.0033 -2.7663
  765SOL    HW2 3059   2.778  -0.047   2.342  2.4952  1.8403  0.0303
  765SOL     MW 3060   2.754   0.026   2.303  0.1967  1.0315 -0.6183
  766SOL     OW 3061   1.905   2.983   2.161 -0.0389  0.2451 -0.2010
  766SOL    HW1 3062   1.962   3.001   2.093  0.9752  1.1769 -0.3179
  766SOL    HW2 3063   1.833   2.937   2.112  1.2103  2.6209 -2.2920
  766SOL     MW 3064   1.903   2.980   2.146  0.2597  0.6815 -0.4923
  767SOL     OW 3065   2.680   0.648   1.872  0.4825  0.1610 -0.3349
  767SOL    HW1 3066   2.723   0.695   1.946  1.3218 -0.6363 -1.1347
  767SOL    HW2 3067   2.629   0.719   1.833 -1.6086  0.6560  1.3341
  767SOL     MW 3068   2.679   0.663   1.877  0.3174  0.1211 -0.2202
  768SOL     OW 3069   0.056   1.469   2.947 -0.6351  0.1084  0.6843
  768SOL    HW1 3070   0.095   1.474   3.039  1.6322 -3.1397  3.2303
  768SOL    HW2 3071   0.071   1.376   2.926 -1.6197  2.6227 -2.0237
  768SOL     MW 3072   0.063   1.458   2.956 -0.4658  0.0116  0.6629
  769SOL     OW 3073   2.389   0.708   2.324 -0.3355 -0.0645 -0.4807
  769SOL    HW1 3074   2.350   0.620   2.314  2.9514  1.0754  1.0373
  769SOL    HW2 3075   2.451   0.717   2.255 -1.8311  1.3543  3.4031
  769SOL     MW 3076   2.392   0.698   2.313 -0.0991  0.2731  0.2320
  770SOL     OW 3077   0.007   1.576   2.659  0.3532 -0.2217 -0.3820
  770SOL    HW1 3078  -0.089   1.566   2.643 -1.3440 -0.1497 -0.7946
  770SOL    HW2 3079   0.035   1.528   2.734 -1.2014  1.9759 -0.4256
  770SOL     MW 3080  -0.002   1.568   2.667 -0.0758  0.0777 -0.4422
  771SOL     OW 3081   3.068   0.604   1.983 -0.6503  0.3905 -0.2860
  771SOL    HW1 3082   3.037   0.610   1.890 -0.4315  1.0368 -0.4054
  771SOL    HW2 3083   3.151   0.540   1.964  2.4811  1.5093  0.5383
  771SOL     MW 3084   3.075   0.596   1.968 -0.2083  0.6234 -0.1930
  772SOL     OW 3085   0.021   0.012   2.336  0.9508 -0.3537 -0.1442
  772SOL    HW1 3086  -0.072  -0.014   2.363 -1.4193 -1.2150 -0.7689
  772SOL    HW2 3087   0.075  -0.066   2.325 -0.9367  0.3847  1.3708
  772SOL     MW 3088   0.016  -0.002   2.338  0.3891 -0.3699 -0.0267
  773SOL     OW 3089   2.468   2.932   2.758  0.0693 -0.0449 -0.2353
  773SOL    HW1 3090   2.518   2.860   2.717  2.4906 -0.5330  0.9363
  773SOL    HW2 3091   2.438   2.887   2.840 -0.8413 -1.2768  0.1019
  773SOL     MW 3092   2.470   2.917   2.763  0.2687 -0.2719 -0.0362
  774SOL     OW 3093   2.381   1.155   1.735  0.2804  0.1113 -0.1077
  774SOL    HW1 3094   2.338   1.242   1.711 -1.8183  0.4369  1.8024
  774SOL    HW2 3095   2.308   1.097   1.741 -1.3087  0.1671 -4.0059
  774SOL     MW 3096   2.366   1.159   1.732 -0.2062  0.1616 -0.3700
  775SOL     OW 3097   2.337   2.863   2.376 -0.0207  0.1070 -0.2593
  775SOL    HW1 3098   2.374   2.931   2.320 -1.4418  0.2511 -0.8902
  775SOL    HW2 3099   2.406   2.797   2.353  2.6455 -0.4024 -0.4571
  775SOL     MW 3100   2.351   2.863   2.366  0.1436  0.0588 -0.3687
  776SOL     OW 3101   0.140   1.486   0.098 -0.2314 -0.3752  0.3159
  776SOL    HW1 3102   0.229   1.454   0.118  1.2209  1.9734  0.8567
  776SOL    HW2 3103   0.081   1.427   0.143  1.2320 -0.0236  1.3964
  776SOL     MW 3104   0.144   1.474   0.107  0.1533 -0.0189  0.5298
  777SOL     OW 3105   2.944   1.125   1.717 -0.3925  0.1383  0.7214
  777SOL    HW1 3106   2.888   1.185   1.656 -1.0166  3.8413 -1.8803
  777SOL    HW2 3107   2.891   1.059   1.753  1.7892  0.5480 -2.5023
  777SOL     MW 3108   2.929   1.124   1.713 -0.1870  0.6809 -0.0472
  778SOL     OW 3109   2.936   0.500   2.784  0.1842  0.4909 -0.2525
  778SOL    HW1 3110   2.859   0.527   2.834 -2.5243 -3.9285 -1.5676
  778SOL    HW2 3111   2.924   0.544   2.696 -0.1448  0.6638 -1.4402
  778SOL     MW 3112   2.924   0.509   2.779 -0.2166 -0.0694 -0.5827
  779SOL     OW 3113   2.228   0.488   2.116  0.4281 -0.7386  0.0401
  779SOL    HW1 3114   2.164   0.528   2.182 -0.4887 -2.3788  2.6972
  779SOL    HW2 3115   2.263   0.403   2.156 -1.0213 -1.3049 -0.5707
  779SOL     MW 3116   2.224   0.482   2.130  0.1159 -1.0297  0.3101
  780SOL     OW 3117   0.219   0.265   2.706  0.1616  0.3443  0.4983
  780SOL    HW1 3118   0.140   0.293   2.762  0.4301 -1.6299  1.3500
  780SOL    HW2 3119   0.299   0.306   2.748 -0.6236 -0.3545  3.0514
  780SOL     MW 3120   0.219   0.274   2.719  0.0934 -0.0083  0.9475
  781SOL     OW 3121   0.020   1.245   2.448 -0.3186  0.3801  0.0881
  781SOL    HW1 3122   0.061   1.278   2.365 -0.5071  1.8512  0.3697
  781SOL    HW2 3123  -0.001   1.156   2.427  1.9467 -0.9864 -0.0544
  781SOL     MW 3124   0.022   1.238   2.434 -0.0446  0.3939  0.1065
  782SOL     OW 3125   0.697   1.490   0.047 -0.4606 -0.4513  0.2102
  782SOL    HW1 3126   0.625   1.560   0.027 -1.6771  1.3503 -1.0345
  782SOL    HW2 3127   0.729   1.526   0.129 -0.6017  0.7058 -0.3267
  782SOL     MW 3128   0.692   1.504   0.055 -0.6397 -0.0609 -0.0249
  783SOL     OW 3129   2.705   0.500   2.368  0.4155  0.0379 -0.0988
  783SOL    HW1 3130   2.676   0.572   2.313 -0.2996 -3.6066 -0.1302
  783SOL    HW2 3131   2.640   0.493   2.442  3.8356 -0.0065  0.6969
  783SOL     MW 3132   2.692   0.509   2.371  0.7724 -0.4488  0.0020
  784SOL     OW 3133   0.178   0.827   2.824  0.5292  0.3839  0.3523
  784SOL    HW1 3134   0.095   0.864   2.789  0.2877  2.3881 -1.2002
  784SOL    HW2 3135   0.243   0.870   2.769 -0.2933  0.8053 -0.0427
  784SOL     MW 3136   0.176   0.838   2.812  0.3888  0.7040  0.0954
  785SOL     OW 3137   0.418   0.397   2.160 -0.5205 -0.1486  0.0937
  785SOL    HW1 3138   0.409   0.438   2.074 -2.0377 -0.8665 -0.1172
  785SOL    HW2 3139   0.330   0.365   2.190 -1.5347 -0.9436 -1.3499
  785SOL     MW 3140   0.405   0.398   2.152 -0.8545 -0.3482 -0.1246
  786SOL     OW 3141   1.877   0.489   3.080 -0.1898 -0.1571  0.8848
  786SOL    HW1 3142   1.864   0.516   3.167 -1.5505 -0.5093  2.3036
  786SOL    HW2 3143   1.795   0.506   3.045  2.3819  0.0205  0.8208
  786SOL     MW 3144   1.865   0.495   3.087 -0.0300 -0.1801  1.0635
  787SOL     OW 3145   2.416   0.203   2.923  0.2988  0.2987  0.0575
  787SOL    HW1 3146   2.486   0.138   2.907  2.6656 -0.5428 -2.4210
  787SOL    HW2 3147   2.459   0.280   2.970  0.7067  2.4966  0.4950
  787SOL     MW 3148   2.431   0.205   2.927  0.6649  0.4777 -0.2118
  788SOL     OW 3149   2.907   2.921   2.429 -0.6380  0.9017  0.7240
  788SOL    HW1 3150   2.976   2.898   2.500  1.6373 -0.2624 -0.6874
  788SOL    HW2 3151   2.897   2.856   2.362 -0.7367  1.5734  1.5233
  788SOL     MW 3152   2.915   2.909   2.430 -0.3508  0.8367  0.6432
  789SOL     OW 3153   0.106   0.184   0.042 -0.1939 -0.2759 -0.3065
  789SOL    HW1 3154   0.020   0.133   0.042  2.0305  0.5363  0.8784
  789SOL    HW2 3155   0.089   0.263  -0.012  4.3666 -0.4826 -0.3644
  789SOL     MW 3156   0.092   0.187   0.035  0.7013 -0.1960 -0.1578
  790SOL     OW 3157   3.037   0.985   2.471  0.3108  0.6576  0.0427
  790SOL    HW1 3158   3.010   0.940   2.546  2.4845 -0.7012 -1.5014
  790SOL    HW2 3159   2.995   0.945   2.388  0.3713  0.1296  1.1578
  790SOL     MW 3160   3.028   0.974   2.470  0.6056  0.4087 -0.0139
  791SOL     OW 3161   2.541   0.475   2.593  0.0805 -0.6657  0.1093
  791SOL    HW1 3162   2.505   0.542   2.661 -0.3990 -1.0668  2.1869
  791SOL    HW2 3163   2.554   0.390   2.639 -1.1438 -0.6149  4.1191
  791SOL     MW 3164   2.538   0.472   2.608 -0.1443 -0.7119  0.9124
  792SOL     OW 3165   2.459   0.203   2.459 -0.1898 -0.0160  0.0325
  792SOL    HW1 3166   2.453   0.288   2.422 -0.4606 -0.5584  2.3555
  792SOL    HW2 3167   2.388   0.186   2.526 -1.6642 -1.6956  0.9439
  792SOL     MW 3168   2.449   0.212   2.463 -0.4201 -0.3092  0.4593
  793SOL     OW 3169   1.782   1.115   2.018 -0.2869 -0.2789 -0.6768
  793SOL    HW1 3170   1.760   1.104   1.924  0.4169  0.3897 -2.5468
  793SOL    HW2 3171   1.877   1.096   2.017 -1.8405  0.4452 -2.1607
  793SOL     MW 3172   1.792   1.111   2.005 -0.3990 -0.0951 -1.1193
  794SOL     OW 3173   1.376   2.318   0.110 -0.0788  0.1869 -0.2882
  794SOL    HW1 3174   1.424   2.392   0.057 -3.0780  0.9440  1.6763
  794SOL    HW2 3175   1.431   2.280   0.177  0.2645 -2.7610  2.5637
  794SOL     MW 3176   1.389   2.323   0.112 -0.4292 -0.1021  0.3473
  795SOL     OW 3177   2.284   1.072   2.523  0.1946  0.6171  0.3358
  795SOL    HW1 3178   2.240   1.138   2.577 -0.0576  0.3291  1.5763
  795SOL    HW2 3179   2.351   1.108   2.472 -0.4549  0.2441 -0.7595
  795SOL     MW 3180   2.287   1.086   2.524  0.0757  0.5299  0.3550
  796SOL     OW 3181   0.253   0.592   2.668  0.0452 -0.1563 -0.1495
  796SOL    HW1 3182   0.231   0.668   2.719 -1.3282  0.6488 -1.8790
  796SOL    HW2 3183   0.173   0.578   2.611  0.5263  0.1179 -1.6125
  796SOL     MW 3184   0.240   0.600   2.667 -0.0725 -0.0139 -0.5707
  797SOL     OW 3185   2.722   0.215   2.622 -0.5074  0.1149 -0.4389
  797SOL    HW1 3186   2.705   0.173   2.540 -3.5980 -2.1483 -1.1186
  797SOL    HW2 3187   2.814   0.227   2.642 -1.6538 -2.2588  2.0002
  797SOL     MW 3188   2.732   0.211   2.614 -1.0665 -0.4969 -0.2068
  798SOL     OW 3189   2.431   0.018   2.265 -0.4822 -0.1015 -0.1182
  798SOL    HW1 3190   2.455   0.081   2.341  0.9632  1.0041 -0.8903
  798SOL    HW2 3191   2.502   0.026   2.198  1.5182  0.0998 -0.2235
  798SOL     MW 3192   2.443   0.028   2.266 -0.0275  0.0709 -0.2340
  799SOL     OW 3193   2.562   3.039   0.094  0.0700 -0.4896  0.2783
  799SOL    HW1 3194   2.480   3.028   0.041 -0.3901 -0.5891  1.8728
  799SOL    HW2 3195   2.537   3.044   0.190 -0.3998  0.3608 -0.7605
  799SOL     MW 3196   2.548   3.038   0.100 -0.0527 -0.3905  0.3516
  800SOL     OW 3197   1.939   2.996   1.765  0.0475  0.5343  0.1430
  800SOL    HW1 3198   1.857   2.954   1.792 -0.0872 -1.6152  1.7148
  800SOL    HW2 3199   2.003   2.993   1.839 -0.1801 -0.3152  4.0551
  800SOL     MW 3200   1.937   2.990   1.778 -0.0003  0.1386  0.8665
  801SOL     OW 3201   2.889   1.224   2.610 -0.3427 -0.2987  0.2852
  801SOL    HW1 3202   2.910   1.136   2.630 -1.1361  1.4582 -1.0254
  801SOL    HW2 3203   2.962   1.246   2.551 -0.6405 -0.4054  0.1342
  801SOL     MW 3204   2.901   1.215   2.605 -0.4867 -0.0810  0.0924
  802SOL     OW 3205   2.617   1.441   2.800 -0.8617  0.6203 -0.4740
  802SOL    HW1 3206   2.585   1.350   2.768 -1.7821  2.3423  1.8777
  802SOL    HW2 3207   2.686   1.421   2.874  0.7392 -3.2472  2.5014
  802SOL     MW 3208   2.622   1.427   2.806 -0.7719  0.3372  0.2289
  803SOL     OW 3209   2.316   1.419   2.002 -0.1372 -0.3871  0.1989
  803SOL    HW1 3210   2.299   1.396   2.091 -0.7973  0.2097 -0.1182
  803SOL    HW2 3211   2.306   1.338   1.954  1.1862 -1.0235  1.1576
  803SOL     MW 3212   2.312   1.405   2.008 -0.0497 -0.3923  0.2836
  804SOL     OW 3213   2.272   0.131   0.042  0.3691 -0.5229 -0.2182
  804SOL    HW1 3214   2.195   0.186   0.037  0.0002  1.8480 -0.5485
  804SOL    HW2 3215   2.325   0.170  -0.034 -1.3750 -0.2060  1.7398
  804SOL     MW 3216   2.269   0.143   0.032  0.0903 -0.1683 -0.0035
  805SOL     OW 3217   2.716   0.844   2.649 -0.2681  0.5174  0.0355
  805SOL    HW1 3218   2.633   0.859   2.603  0.2198  0.0627 -1.0574
  805SOL    HW2 3219   2.725   0.750   2.626 -0.0651 -1.1141 -0.4838
  805SOL     MW 3220   2.706   0.833   2.640 -0.1769  0.2421 -0.1773
  806SOL     OW 3221   2.667   0.724   2.217 -0.3536  0.0210  0.4884
  806SOL    HW1 3222   2.745   0.749   2.168  0.9454 -1.9099  0.5417
  806SOL    HW2 3223   2.659   0.803   2.269 -0.2333  0.8141  0.8569
  806SOL     MW 3224   2.676   0.738   2.217 -0.1663 -0.1291  0.5441
  807SOL     OW 3225   0.028   1.086   2.034  0.8001  0.0039 -0.5698
  807SOL    HW1 3226   0.054   0.990   2.041  0.7909  0.0009 -0.1355
  807SOL    HW2 3227  -0.060   1.081   2.013  0.4704 -4.0528  2.2837
  807SOL     MW 3228   0.020   1.073   2.032  0.7554 -0.5318 -0.1360
  808SOL     OW 3229   2.609   0.048   2.823  0.4247  0.2623 -0.3004
  808SOL    HW1 3230   2.544  -0.022   2.798  2.8269 -1.9079  1.4860
  808SOL    HW2 3231   2.624   0.107   2.753  1.2293 -2.2432  4.2280
  808SOL     MW 3232   2.602   0.046   2.810  0.8478 -0.3546  0.5328
  809SOL     OW 3233   2.680   1.351   2.426  0.2955  0.0834  0.3489
  809SOL    HW1 3234   2.719   1.319   2.503 -0.4706  0.6626 -1.6586
  809SOL    HW2 3235   2.727   1.302   2.351 -1.1348 -2.4292  1.6196
  809SOL     MW 3236   2.692   1.341   2.426  0.0057 -0.1717  0.2517
  810SOL     OW 3237   2.231   1.310   2.247 -0.2910  0.3756  0.1204
  810SOL    HW1 3238   2.306   1.268   2.292  0.0001  0.0339 -1.3370
  810SOL    HW2 3239   2.156   1.263   2.277 -1.5659  2.4620 -0.1897
  810SOL     MW 3240   2.231   1.298   2.257 -0.4208  0.6058 -0.1128
  811SOL     OW 3241   1.614   0.173   2.293 -0.4353 -0.2201  0.7729
  811SOL    HW1 3242   1.701   0.137   2.314 -1.4487 -0.3797 -2.3553
  811SOL    HW2 3243   1.594   0.162   2.193 -2.0044 -2.0358  1.1049
  811SOL     MW 3244   1.623   0.167   2.283 -0.7760 -0.4807  0.4040
  812SOL     OW 3245   1.474   2.840   2.047 -0.1725  0.7637  0.3310
  812SOL    HW1 3246   1.567   2.821   2.049 -0.8121  2.9823  0.3063
  812SOL    HW2 3247   1.448   2.834   2.140 -0.7650 -1.1644 -0.8631
  812SOL     MW 3248   1.483   2.837   2.060 -0.3351  0.8020  0.1702
  813SOL     OW 3249   2.024   0.631   2.247 -0.2150 -0.0096 -0.3207
  813SOL    HW1 3250   1.939   0.599   2.210  2.9452 -0.7208  1.0136
  813SOL    HW2 3251   1.994   0.678   2.326 -2.8857  1.0109  1.0938
  813SOL     MW 3252   2.009   0.633   2.252 -0.1504  0.0312  0.0420
  814SOL     OW 3253   2.704   1.283   1.643 -0.3446 -0.7722 -0.0157
  814SOL    HW1 3254   2.647   1.224   1.695  0.3565 -0.4090  0.8717
  814SOL    HW2 3255   2.731   1.229   1.568  1.4168 -0.3606 -0.8578
  814SOL     MW 3256   2.700   1.268   1.640 -0.0197 -0.6700 -0.0097
  815SOL     OW 3257   2.515   1.764   2.412 -0.5537  0.0450  0.5022
  815SOL    HW1 3258   2.495   1.690   2.348  0.9599 -1.5578 -0.9272
  815SOL    HW2 3259   2.611   1.755   2.411 -0.2480 -0.0803  0.6694
  815SOL     MW 3260   2.525   1.753   2.403 -0.3136 -0.1830  0.3356
  816SOL     OW 3261   0.730   0.671   2.806  0.0387 -0.5008 -0.5182
  816SOL    HW1 3262   0.751   0.576   2.795  3.0791 -2.4457  4.9982
  816SOL    HW2 3263   0.644   0.696   2.777 -0.1033  1.4991  2.4016
  816SOL     MW 3264   0.722   0.662   2.801  0.4211 -0.4935  0.5949
  817SOL     OW 3265   2.993   1.261   1.444  0.1186 -0.0196  0.3661
  817SOL    HW1 3266   3.082   1.245   1.469  0.3180 -2.0413 -1.3900
  817SOL    HW2 3267   2.991   1.357   1.418 -1.1362  1.9884 -2.9745
  817SOL     MW 3268   3.005   1.271   1.444 -0.0206 -0.0214 -0.3064
  818SOL     OW 3269   1.940   1.043   2.638  0.0319  0.1659 -0.1302
  818SOL    HW1 3270   1.941   0.961   2.603 -5.0393  0.7853  2.5216
  818SOL    HW2 3271   2.011   1.049   2.699 -1.1509 -0.9713 -1.5958
  818SOL     MW 3272   1.950   1.033   2.641 -0.7932  0.0975  0.0263
  819SOL     OW 3273   1.993   0.359   2.447 -0.9914  0.2148  0.4366
  819SOL    HW1 3274   1.924   0.423   2.426  0.6821  0.8746 -0.7540
  819SOL    HW2 3275   1.988   0.331   2.534  1.7561  1.0166 -0.7932
  819SOL     MW 3276   1.984   0.364   2.455 -0.4081  0.4077  0.1173
  820SOL     OW 3277   2.475   1.679   2.668 -0.2244 -0.2809 -0.0706
  820SOL    HW1 3278   2.520   1.605   2.708 -2.2303 -0.9607 -1.0602
  820SOL    HW2 3279   2.510   1.694   2.583 -0.6966  0.0240  1.2747
  820SOL     MW 3280   2.486   1.671   2.662 -0.5514 -0.3304 -0.0237
  821SOL     OW 3281   2.600   1.386   1.989 -0.5872 -0.2081 -0.0245
  821SOL    HW1 3282   2.621   1.463   1.937 -1.5148  1.0272 -1.2493
  821SOL    HW2 3283   2.507   1.398   2.022  0.2585  0.4191 -0.3011
  821SOL     MW 3284   2.591   1.398   1.986 -0.5980  0.0376 -0.2226
  822SOL     OW 3285   2.940   2.736   1.505 -0.1854  0.4362 -0.1592
  822SOL    HW1 3286   2.946   2.702   1.598 -0.6879  1.8480 -2.0935
  822SOL    HW2 3287   2.924   2.828   1.515 -0.5235 -1.4625 -1.0045
  822SOL     MW 3288   2.939   2.744   1.519 -0.2963  0.3720 -0.5259
  823SOL     OW 3289   2.362   0.472   1.859 -0.0909 -0.0252  0.0670
  823SOL    HW1 3290   2.429   0.415   1.840 -0.8104  1.2231 -1.0742
  823SOL    HW2 3291   2.320   0.443   1.944 -1.2676  0.5394 -0.1267
  823SOL     MW 3292   2.365   0.461   1.868 -0.3411  0.2140 -0.1091
  824SOL     OW 3293   2.284   1.492   2.585  0.3512  0.1965  1.1764
  824SOL    HW1 3294   2.353   1.542   2.625  0.5629 -0.8690  0.8790
  824SOL    HW2 3295   2.208   1.549   2.577 -1.5250  0.4887  0.7147
  824SOL     MW 3296   2.283   1.506   2.589  0.1316  0.0945  1.0762
  825SOL     OW 3297   1.872   2.615   0.235 -0.3047 -0.5062 -0.0429
  825SOL    HW1 3298   1.850   2.565   0.319 -3.0433  2.3071  1.6829
  825SOL    HW2 3299   1.918   2.556   0.178  0.5868  2.3700  1.7849
  825SOL     MW 3300   1.875   2.601   0.238 -0.5484  0.2445  0.4260
  826SOL     OW 3301   1.842   2.336   0.449 -0.2575  1.0083  0.1913
  826SOL    HW1 3302   1.787   2.269   0.496  1.5680 -0.4671 -1.8226
  826SOL    HW2 3303   1.804   2.420   0.485 -0.2771  0.0488  1.9024
  826SOL     MW 3304   1.830   2.338   0.460 -0.0192  0.6870  0.1514
  827SOL     OW 3305   1.959   2.215   0.774 -0.3704  0.6509  0.6169
  827SOL    HW1 3306   1.872   2.234   0.728 -2.9695 -0.8089  2.4403
  827SOL    HW2 3307   1.941   2.182   0.857 -0.7223  2.2272  1.3559
  827SOL     MW 3308   1.945   2.213   0.779 -0.7597  0.6663  0.9550
  828SOL     OW 3309   0.056   2.631   0.595 -0.0349  0.2918 -0.4572
  828SOL    HW1 3310   0.154   2.635   0.589  0.9896  3.3531  1.9368
  828SOL    HW2 3311   0.013   2.680   0.523  0.4608 -0.9987 -1.5025
  828SOL     MW 3312   0.063   2.638   0.585  0.1657  0.5254 -0.2793
  829SOL     OW 3313   2.991   2.956   1.170  0.0734 -0.4885 -0.0169
  829SOL    HW1 3314   2.911   2.945   1.116 -2.4848 -1.4361 -2.4778
  829SOL    HW2 3315   3.024   2.874   1.189 -1.4383 -1.3308  0.5802
  829SOL     MW 3316   2.985   2.944   1.166 -0.4636 -0.7246 -0.2628
  830SOL     OW 3317   2.537   2.832   2.010  0.2034  0.0311 -0.0592
  830SOL    HW1 3318   2.449   2.802   1.984 -0.9230  1.0894  0.6187
  830SOL    HW2 3319   2.601   2.811   1.939 -1.4833  0.6540  0.4145
  830SOL     MW 3320   2.534   2.825   1.997 -0.1677  0.2529  0.0928
  831SOL     OW 3321   2.417   2.421   1.208  0.2203  0.5658 -0.6430
  831SOL    HW1 3322   2.369   2.370   1.273 -1.4526 -1.3535 -1.6281
  831SOL    HW2 3323   2.505   2.388   1.205 -0.9453  0.2512 -4.2507
  831SOL     MW 3324   2.423   2.410   1.216 -0.1542  0.2711 -1.2490
  832SOL     OW 3325   2.339   2.194   1.827  0.3328 -0.0886 -0.0073
  832SOL    HW1 3326   2.386   2.268   1.872  0.1365  2.3170  1.5442
  832SOL    HW2 3327   2.416   2.139   1.811  0.2867 -1.1925 -1.8061
  832SOL     MW 3328   2.356   2.197   1.831  0.3008  0.0832 -0.0399
  833SOL     OW 3329   1.733   2.511   0.878  0.3606  0.1970 -0.1098
  833SOL    HW1 3330   1.643   2.477   0.896  0.0908 -0.1788  2.3790
  833SOL    HW2 3331   1.752   2.573   0.945  1.0084 -2.6422 -4.7989
  833SOL     MW 3332   1.724   2.515   0.889  0.4105 -0.2272 -0.4001
  834SOL     OW 3333   2.113   2.436   0.554 -0.1095 -0.1818  0.1041
  834SOL    HW1 3334   2.088   2.351   0.595 -1.8495 -1.3550 -0.5666
  834SOL    HW2 3335   2.161   2.406   0.475  0.1506 -0.4442 -1.7816
  834SOL     MW 3336   2.116   2.421   0.549 -0.3047 -0.3712 -0.2332
  835SOL     OW 3337   1.803   2.583   0.607 -0.0400 -0.0715 -0.0873
  835SOL    HW1 3338   1.766   2.551   0.693 -0.4729 -0.1368  3.5007
  835SOL    HW2 3339   1.891   2.595   0.640 -2.7374 -2.5341 -1.1703
  835SOL     MW 3340   1.810   2.580   0.623 -0.4530 -0.4050  0.2432
  836SOL     OW 3341   1.869   2.237   1.558 -0.2488 -0.6409  0.0485
  836SOL    HW1 3342   1.950   2.238   1.606 -0.5886  0.3498  2.5111
  836SOL    HW2 3343   1.813   2.302   1.598 -0.0439 -1.4338 -1.7401
  836SOL     MW 3344   1.872   2.245   1.569 -0.2666 -0.6148  0.1374
  837SOL     OW 3345   2.157   0.213   0.733 -0.5512 -0.5429  0.2796
  837SOL    HW1 3346   2.067   0.206   0.701 -0.8464 -0.3171 -1.7212
  837SOL    HW2 3347   2.225   0.177   0.673 -1.5028  1.8660  1.1293
  837SOL     MW 3348   2.154   0.207   0.720 -0.7157 -0.1953  0.1277
  838SOL     OW 3349   2.915   2.055   0.938 -0.4282 -0.3686 -0.1964
  838SOL    HW1 3350   2.858   1.979   0.940  0.8419 -1.8455 -2.6236
  838SOL    HW2 3351   3.000   2.020   0.928 -0.6990 -2.2694 -0.2643
  838SOL     MW 3352   2.918   2.041   0.937 -0.2964 -0.8142 -0.5256
  839SOL     OW 3353   1.502   2.354   1.040  0.1457 -0.3906  0.1302
  839SOL    HW1 3354   1.520   2.396   1.122  1.8913 -0.2311 -0.6332
  839SOL    HW2 3355   1.532   2.268   1.038  0.9565 -0.1471 -1.9844
  839SOL     MW 3356   1.508   2.349   1.050  0.4830 -0.3375 -0.2496
  840SOL     OW 3357   2.368   2.235   2.439 -0.3648 -0.8196  0.3362
  840SOL    HW1 3358   2.315   2.290   2.387  0.5076  0.1098  4.3175
  840SOL    HW2 3359   2.337   2.264   2.534 -1.5885 -0.4191  1.2237
  840SOL     MW 3360   2.357   2.246   2.445 -0.4111 -0.6441  0.9786
  841SOL     OW 3361   2.063   2.467   0.096 -0.0519 -0.2016  0.3583
  841SOL    HW1 3362   2.144   2.517   0.077 -0.7471  1.6365  1.4786
  841SOL    HW2 3363   2.081   2.380   0.056 -3.7079 -0.4948  0.5675
  841SOL     MW 3364   2.076   2.462   0.088 -0.6260  0.0022  0.5337
  842SOL     OW 3365   2.663   2.069   1.537  0.4656 -0.3620  0.3783
  842SOL    HW1 3366   2.612   2.031   1.609 -0.4703  0.3472 -1.5993
  842SOL    HW2 3367   2.598   2.074   1.469 -0.3028  3.1585  1.2492
  842SOL     MW 3368   2.648   2.065   1.537  0.2407  0.1961  0.2323
  843SOL     OW 3369   2.675   2.771   1.774 -0.0541  0.1122  0.1688
  843SOL    HW1 3370   2.752   2.720   1.755 -0.9256 -0.5591 -0.4216
  843SOL    HW2 3371   2.617   2.767   1.705  1.8904  1.5429  1.1725
  843SOL     MW 3372   2.677   2.764   1.763  0.0874  0.2124  0.2233
  844SOL     OW 3373   2.669   2.346   1.217 -1.0414  0.3168 -0.4203
  844SOL    HW1 3374   2.698   2.334   1.126  1.7457 -1.8225 -0.9061
  844SOL    HW2 3375   2.732   2.404   1.268  1.2135  1.4926 -0.6316
  844SOL     MW 3376   2.681   2.352   1.212 -0.3762  0.1897 -0.5123
  845SOL     OW 3377   2.864   2.483   0.323  0.3321 -0.0651 -0.6147
  845SOL    HW1 3378   2.838   2.387   0.322 -0.3821 -0.6755 -2.0876
  845SOL    HW2 3379   2.869   2.509   0.417 -1.6579 -0.8513 -2.2626
  845SOL     MW 3380   2.861   2.474   0.335 -0.0247 -0.2494 -1.0265
  846SOL     OW 3381   1.543   2.886   0.745  0.4731 -0.1659  0.4386
  846SOL    HW1 3382   1.627   2.871   0.796  0.3658  3.9361  2.1930
  846SOL    HW2 3383   1.511   2.933   0.820  0.7790  0.5027  0.6300
  846SOL     MW 3384   1.550   2.890   0.762  0.4993  0.4635  0.6953
  847SOL     OW 3385   2.614   1.979   0.170  0.0256 -0.8062 -0.3238
  847SOL    HW1 3386   2.677   1.939   0.226  0.5204 -0.2818 -0.3597
  847SOL    HW2 3387   2.584   1.908   0.109 -2.1647 -2.5999 -3.6021
  847SOL     MW 3388   2.619   1.964   0.169 -0.1981 -0.9737 -0.7611
  848SOL     OW 3389   2.545   2.139   1.312  0.0889  0.2529 -0.0487
  848SOL    HW1 3390   2.598   2.215   1.274 -2.2379  2.2575 -0.1600
  848SOL    HW2 3391   2.540   2.088   1.234  0.3525 -0.3542 -1.5061
  848SOL     MW 3392   2.552   2.143   1.296 -0.1833  0.4373 -0.2556
  849SOL     OW 3393   1.998   2.683   0.797 -0.3825 -0.1944  0.1323
  849SOL    HW1 3394   2.028   2.605   0.837 -2.9374  0.5267 -0.0124
  849SOL    HW2 3395   2.073   2.708   0.740 -2.5056  2.6889  0.1363
  849SOL     MW 3396   2.012   2.676   0.795 -0.9997  0.2812  0.1137
  850SOL     OW 3397   2.185   1.926   1.690 -0.1877  0.3615 -0.4657
  850SOL    HW1 3398   2.106   1.873   1.668 -0.4868  1.5736 -0.9227
  850SOL    HW2 3399   2.159   2.017   1.661 -1.2702  1.2077  0.5701
  850SOL     MW 3400   2.171   1.931   1.683 -0.3700  0.6331 -0.3893
  851SOL     OW 3401   2.238   2.371   0.329 -0.5961 -0.1985  0.0387
  851SOL    HW1 3402   2.172   2.379   0.256 -1.0651 -0.4044 -0.8617
  851SOL    HW2 3403   2.288   2.451   0.321 -2.2055 -0.0711  2.8227
  851SOL     MW 3404   2.236   2.383   0.318 -0.8704 -0.2088  0.2872
  852SOL     OW 3405   2.341   2.101   0.295 -0.5325  0.3497 -0.0317
  852SOL    HW1 3406   2.312   2.181   0.334  0.9608 -0.8923  0.2062
  852SOL    HW2 3407   2.396   2.132   0.222  0.2511 -0.9699  0.1107
  852SOL     MW 3408   2.344   2.115   0.291 -0.2321  0.0117  0.0185
  853SOL     OW 3409   2.440   2.418   1.908  0.1904  0.2985  0.2120
  853SOL    HW1 3410   2.464   2.462   1.822 -1.9997  3.2677 -1.2806
  853SOL    HW2 3411   2.520   2.395   1.963 -0.3162  1.7943  1.8118
  853SOL     MW 3412   2.453   2.421   1.904 -0.1654  0.8876  0.2262
  854SOL     OW 3413   2.867   2.230   0.734  0.5616 -0.3531  0.1318
  854SOL    HW1 3414   2.804   2.188   0.676  1.0689  1.0238  0.1695
  854SOL    HW2 3415   2.897   2.155   0.793 -1.3517 -0.4300  1.0051
  854SOL     MW 3416   2.862   2.214   0.734  0.3761 -0.1816  0.2520
  855SOL     OW 3417   2.722   2.248   0.333  0.4434  0.1645 -0.5139
  855SOL    HW1 3418   2.663   2.277   0.399 -2.7610 -0.1985  0.2928
  855SOL    HW2 3419   2.785   2.186   0.375 -0.5099  1.1123 -0.8633
  855SOL     MW 3420   2.723   2.243   0.347 -0.1051  0.2416 -0.4536
  856SOL     OW 3421   2.205   1.893   0.171 -0.1166 -0.2048  0.1734
  856SOL    HW1 3422   2.121   1.914   0.214  1.2093  1.8005 -0.0517
  856SOL    HW2 3423   2.266   1.961   0.209  0.4742 -0.9105  2.0663
  856SOL     MW 3424   2.202   1.904   0.182  0.1363 -0.0333  0.3934
  857SOL     OW 3425   2.488   1.906   0.459  0.2738  0.1477  0.0099
  857SOL    HW1 3426   2.472   1.977   0.389  1.3872  1.1293 -0.3226
  857SOL    HW2 3427   2.408   1.849   0.457 -2.8997 -0.0848 -0.3354
  857SOL     MW 3428   2.476   1.908   0.450  0.0020  0.2465 -0.0795
  858SOL     OW 3429   2.929   2.658   1.777  0.3520 -0.1308 -0.0274
  858SOL    HW1 3430   3.014   2.651   1.821 -2.3410  0.3894 -0.5366
  858SOL    HW2 3431   2.881   2.580   1.812  0.2980 -1.1232  1.8079
  858SOL     MW 3432   2.934   2.647   1.787 -0.0105 -0.1931  0.1476
  859SOL     OW 3433   2.072   2.426   0.903 -0.2066  0.3464  0.3720
  859SOL    HW1 3434   2.030   2.367   0.835  1.2197 -0.6644 -0.1994
  859SOL    HW2 3435   2.166   2.406   0.896 -2.5892  1.6340 -0.8708
  859SOL     MW 3436   2.079   2.416   0.893 -0.3328  0.3830  0.1327
  860SOL     OW 3437   2.668   2.607   0.186 -0.1200  0.5181  0.0318
  860SOL    HW1 3438   2.735   2.560   0.229 -3.1966  1.2993 -0.8917
  860SOL    HW2 3439   2.706   2.680   0.147 -1.7326 -0.2180  0.9806
  860SOL     MW 3440   2.682   2.611   0.187 -0.7387  0.5241  0.0351
  861SOL     OW 3441   1.620   2.072   1.151 -0.6778  0.0396 -0.3772
  861SOL    HW1 3442   1.671   2.081   1.240 -0.4780 -0.0232  0.5845
  861SOL    HW2 3443   1.550   2.006   1.172  1.2902 -0.0675  0.7381
  861SOL     MW 3444   1.618   2.064   1.165 -0.3918  0.0172 -0.1031
  862SOL     OW 3445   2.420   1.865   1.576 -0.7179  0.4210 -0.3173
  862SOL    HW1 3446   2.337   1.892   1.620  0.3772 -1.3511  1.1861
  862SOL    HW2 3447   2.400   1.864   1.482 -0.2127 -1.1031  1.2424
  862SOL     MW 3448   2.407   1.868   1.570 -0.5067 -0.0139  0.0869
  863SOL     OW 3449   3.037   1.796   1.218  0.5928  0.3080 -0.6632
  863SOL    HW1 3450   3.059   1.766   1.305  1.6940  2.0825 -0.6873
  863SOL    HW2 3451   3.054   1.889   1.233  2.3857  1.9196  0.6719
  863SOL     MW 3452   3.042   1.804   1.231  0.9746  0.7547 -0.4902
  864SOL     OW 3453   0.053   1.874   0.918 -0.6066 -0.1605  0.1721
  864SOL    HW1 3454   0.001   1.818   0.975 -1.9962  1.6934 -3.2929
  864SOL    HW2 3455   0.050   1.822   0.839  0.3947 -1.5331 -0.3820
  864SOL     MW 3456   0.046   1.859   0.915 -0.6578 -0.0970 -0.3582
  865SOL     OW 3457   2.485   2.171   0.040  0.2299 -0.1918  0.3480
  865SOL    HW1 3458   2.532   2.107   0.099  0.8519  3.1200 -1.6397
  865SOL    HW2 3459   2.462   2.126  -0.047 -0.7046  2.9570  1.7336
  865SOL     MW 3460   2.488   2.157   0.036  0.1886  0.6606  0.2685
  866SOL     OW 3461   2.730   2.346   1.583 -0.1325 -0.3680 -0.0069
  866SOL    HW1 3462   2.710   2.252   1.580 -0.1946  0.9046  2.0547
  866SOL    HW2 3463   2.778   2.362   1.501  0.3858 -0.4735 -1.8221
  866SOL     MW 3464   2.734   2.336   1.572 -0.0723 -0.2140  0.0256
  867SOL     OW 3465   0.093   2.713   1.859 -0.5563 -0.1152 -0.1175
  867SOL    HW1 3466   0.185   2.709   1.888  0.5869 -0.4193  0.1698
  867SOL    HW2 3467   0.085   2.808   1.837  0.4295  1.4158  1.8108
  867SOL     MW 3468   0.104   2.725   1.860 -0.2754  0.0467  0.1748
  868SOL     OW 3469   2.794   2.540   0.580  0.1845 -0.5048 -0.1143
  868SOL    HW1 3470   2.723   2.477   0.576 -1.1540  2.8227  2.0563
  868SOL    HW2 3471   2.752   2.611   0.530 -1.0796 -3.5406  1.1161
  868SOL     MW 3472   2.779   2.541   0.573 -0.1589 -0.4663  0.3344
  869SOL     OW 3473   1.895   2.342   1.088 -0.0801  0.5953 -0.6316
  869SOL    HW1 3474   1.965   2.391   1.042  1.4429  1.0595  0.7407
  869SOL    HW2 3475   1.813   2.373   1.067  2.5786 -2.6224  0.4797
  869SOL     MW 3476   1.894   2.352   1.079  0.4716  0.2320 -0.3039
  870SOL     OW 3477   2.308   0.084   0.531 -0.1821 -0.8136 -0.0355
  870SOL    HW1 3478   2.352   0.112   0.445 -2.5395 -0.5643 -2.2648
  870SOL    HW2 3479   2.367   0.028   0.581 -1.0712 -0.6124 -0.5787
  870SOL     MW 3480   2.322   0.080   0.526 -0.6105 -0.7542 -0.4013
  871SOL     OW 3481   2.463   2.115   0.808 -0.2301 -0.6939  0.3751
  871SOL    HW1 3482   2.384   2.055   0.798  1.5574 -0.1695 -1.6325
  871SOL    HW2 3483   2.430   2.196   0.855 -0.3381 -0.1726  2.6556
  871SOL     MW 3484   2.448   2.118   0.813 -0.0085 -0.5559  0.4111
  872SOL     OW 3485   2.010   2.582   1.410  0.1364 -0.1965 -1.0320
  872SOL    HW1 3486   1.989   2.609   1.502  0.9033 -0.8502 -0.6800
  872SOL    HW2 3487   1.942   2.512   1.391 -1.1124 -0.6749 -1.9509
  872SOL     MW 3488   1.998   2.576   1.420  0.0728 -0.3459 -1.1068
  873SOL     OW 3489   2.838   2.046   1.888 -0.2125 -0.1706 -0.0725
  873SOL    HW1 3490   2.863   2.120   1.953  0.3831 -0.2823  0.7481
  873SOL    HW2 3491   2.909   2.043   1.825  1.1153  0.0462  1.9431
  873SOL     MW 3492   2.850   2.056   1.889  0.0413 -0.1567  0.3017
  874SOL     OW 3493   2.451   1.512   2.282  0.1950 -0.1139  0.2106
  874SOL    HW1 3494   2.362   1.476   2.307 -1.8114 -1.2066  1.9197
  874SOL    HW2 3495   2.498   1.431   2.308 -0.9620  0.2989  2.1560
  874SOL     MW 3496   2.445   1.496   2.289 -0.2223 -0.2036  0.6928
  875SOL     OW 3497   2.338   2.359   0.933 -0.1424 -1.1272  0.2888
  875SOL    HW1 3498   2.405   2.416   0.890  0.6811  1.0499 -1.9552
  875SOL    HW2 3499   2.352   2.364   1.029  1.8461 -1.1800 -0.4309
  875SOL     MW 3500   2.349   2.367   0.940  0.2286 -0.8470 -0.1023
  876SOL     OW 3501   3.042   2.354   1.343 -0.0139  0.6392  0.3514
  876SOL    HW1 3502   3.112   2.350   1.276  2.7283 -1.3253 -2.0314
  876SOL    HW2 3503   3.084   2.410   1.407  0.4933  0.0866 -0.0438
  876SOL     MW 3504   3.057   2.361   1.343  0.4148  0.3071 -0.0151
  877SOL     OW 3505   3.069   2.791   0.382  0.0244 -0.1171  0.1248
  877SOL    HW1 3506   3.045   2.879   0.346 -1.8631 -1.1453 -0.4506
  877SOL    HW2 3507   3.094   2.736   0.308 -2.4464 -1.8728  0.5987
  877SOL     MW 3508   3.070   2.795   0.368 -0.5506 -0.4844  0.1114
  878SOL     OW 3509   2.372   1.839   1.288 -0.4843  0.4693  0.5528
  878SOL    HW1 3510   2.325   1.756   1.297  1.2458 -2.1578 -0.1068
  878SOL    HW2 3511   2.459   1.823   1.261  0.8901  0.2226 -0.6383
  878SOL     MW 3512   2.377   1.826   1.286 -0.0747  0.0901  0.3087
  879SOL     OW 3513   2.732   2.396   0.941  1.1827  0.3674 -0.2948
  879SOL    HW1 3514   2.799   2.456   0.970 -1.5192 -0.2537 -2.3309
  879SOL    HW2 3515   2.768   2.342   0.871 -0.8031 -0.4903 -0.5727
  879SOL     MW 3516   2.745   2.397   0.936  0.5642  0.1723 -0.6001
  880SOL     OW 3517   2.644   2.000   0.651 -0.0218  0.2163  0.2807
  880SOL    HW1 3518   2.588   2.055   0.705 -0.3894  1.0338  1.7870
  880SOL    HW2 3519   2.581   1.965   0.585 -2.0622 -0.5484  2.8085
  880SOL     MW 3520   2.628   2.003   0.650 -0.3395  0.2233  0.8130
  881SOL     OW 3521   2.933   2.706   0.744  0.3603 -0.1666  0.6066
  881SOL    HW1 3522   2.879   2.647   0.688 -1.3891 -2.3171 -1.3374
  881SOL    HW2 3523   3.023   2.688   0.714 -0.2362  2.5328  0.0034
  881SOL     MW 3524   2.938   2.696   0.732  0.0508 -0.0942  0.2705
  882SOL     OW 3525   2.279   2.820   1.861  0.5436 -0.9365 -0.2259
  882SOL    HW1 3526   2.238   2.809   1.774 -0.5898  1.1460  0.4160
  882SOL    HW2 3527   2.218   2.770   1.915  1.5693 -0.8673  0.0507
  882SOL     MW 3528   2.265   2.812   1.857  0.5294 -0.6526 -0.1048
  883SOL     OW 3529   2.292   2.220   1.360  0.0016  0.1032  0.0008
  883SOL    HW1 3530   2.378   2.182   1.337 -2.4425  0.5419  0.3984
  883SOL    HW2 3531   2.225   2.183   1.301 -1.1833 -1.8087 -1.7130
  883SOL     MW 3532   2.295   2.210   1.349 -0.4772 -0.0911 -0.1729
  884SOL     OW 3533   1.925   1.811   1.103 -0.3532  0.5278  0.6202
  884SOL    HW1 3534   1.868   1.885   1.072  2.1332  0.1016  1.2253
  884SOL    HW2 3535   2.014   1.835   1.078 -1.1187  2.8715  1.9925
  884SOL     MW 3536   1.929   1.824   1.096 -0.1262  0.7808  0.8811
  885SOL     OW 3537   2.817   2.427   1.826  0.0247 -0.0618  0.3644
  885SOL    HW1 3538   2.905   2.380   1.841  0.1615  3.3437  0.3609
  885SOL    HW2 3539   2.787   2.394   1.737 -2.2497  0.0816  1.7904
  885SOL     MW 3540   2.825   2.417   1.816 -0.2574  0.4065  0.5521
  886SOL     OW 3541   2.843   2.527   1.329 -0.3165  0.2573  0.0685
  886SOL    HW1 3542   2.922   2.477   1.298 -1.1739 -4.9476  2.6429
  886SOL    HW2 3543   2.876   2.591   1.389 -1.5807  1.7105 -0.8469
  886SOL     MW 3544   2.858   2.529   1.333 -0.5964 -0.2377  0.2874
  887SOL     OW 3545   2.293   2.615   1.455  0.0904 -0.1350 -0.0474
  887SOL    HW1 3546   2.309   2.637   1.366 -0.2591 -0.3803  1.4521
  887SOL    HW2 3547   2.203   2.580   1.450 -0.1683  1.5815  1.4080
  887SOL     MW 3548   2.283   2.614   1.442  0.0101  0.0591  0.3425
  888SOL     OW 3549   1.820   2.057   1.360 -0.5268  0.2317  0.3397
  888SOL    HW1 3550   1.899   2.072   1.303 -0.0723  0.1112  0.9466
  888SOL    HW2 3551   1.843   2.108   1.443 -0.5695  1.9367 -0.4299
  888SOL     MW 3552   1.834   2.066   1.364 -0.4725  0.4407  0.3183
  889SOL     OW 3553   2.297   2.082   2.104  0.3522  0.2025  0.3328
  889SOL    HW1 3554   2.381   2.078   2.148 -0.5829 -2.9882 -0.6591
  889SOL    HW2 3555   2.307   2.120   2.014  1.9256 -1.9263 -1.1963
  889SOL     MW 3556   2.309   2.087   2.098  0.4364 -0.4994  0.0002
  890SOL     OW 3557   0.095   2.303   0.076 -0.0131 -0.2178  0.0767
  890SOL    HW1 3558   0.131   2.385   0.053  2.4235 -1.4921  1.5135
  890SOL    HW2 3559   0.080   2.313   0.171 -0.4736  1.0962  0.6786
  890SOL     MW 3560   0.098   2.315   0.086  0.2476 -0.2125  0.3457
  891SOL     OW 3561   3.041   2.062   1.335  0.1352 -0.1424 -0.2809
  891SOL    HW1 3562   3.101   2.046   1.403 -0.1801 -0.7775 -0.0803
  891SOL    HW2 3563   3.061   2.157   1.315  0.5603 -0.3186 -0.1319
  891SOL     MW 3564   3.052   2.072   1.341  0.1497 -0.2495 -0.2348
  892SOL     OW 3565   2.338   2.366   2.954 -0.1997  0.0999  0.5890
  892SOL    HW1 3566   2.346   2.318   3.039  0.1176  0.0554  0.0674
  892SOL    HW2 3567   2.419   2.346   2.913 -0.7987  0.5551  0.8497
  892SOL     MW 3568   2.350   2.357   2.960 -0.2369  0.1541  0.5546
  893SOL     OW 3569   1.600   2.513   1.245  0.0280  0.2665 -0.3884
  893SOL    HW1 3570   1.521   2.536   1.290 -1.1259  1.7776 -0.3970
  893SOL    HW2 3571   1.652   2.463   1.303  0.2950  1.2515  0.7392
  893SOL     MW 3572   1.597   2.509   1.258 -0.0890  0.5959 -0.2408
  894SOL     OW 3573   2.899   1.877   0.529 -0.0620  0.5585 -0.5996
  894SOL    HW1 3574   2.809   1.906   0.573 -4.0900  1.8033  0.4663
  894SOL    HW2 3575   2.871   1.852   0.448  0.5316  0.4623  2.7539
  894SOL     MW 3576   2.883   1.878   0.524 -0.5152  0.7100 -0.0165
  895SOL     OW 3577   2.054   2.116   1.203  0.3851 -0.0218 -0.6055
  895SOL    HW1 3578   1.999   2.171   1.149  0.3664 -1.4381  0.0074
  895SOL    HW2 3579   2.104   2.060   1.142  1.6925  0.8469  0.9718
  895SOL     MW 3580   2.053   2.115   1.188  0.5551 -0.0940 -0.3165
  896SOL     OW 3581   2.191   2.803   1.025 -0.3635  0.0442  1.1790
  896SOL    HW1 3582   2.257   2.761   1.081  0.2507  0.6021 -0.9625
  896SOL    HW2 3583   2.104   2.780   1.072 -1.9163 -3.2369 -0.1426
  896SOL     MW 3584   2.188   2.795   1.038 -0.4874 -0.3151  0.7221
  897SOL     OW 3585   2.990   2.960   0.161 -0.2043  0.0995 -0.8645
  897SOL    HW1 3586   3.071   2.914   0.137  1.1803 -2.1128  2.1968
  897SOL    HW2 3587   2.920   2.917   0.107  0.2584  3.9507 -1.0034
  897SOL     MW 3588   2.992   2.948   0.151  0.0394  0.3157 -0.4789
  898SOL     OW 3589   2.075   0.156   1.396 -0.1472  0.3367  0.2621
  898SOL    HW1 3590   2.062   0.064   1.369  2.1121 -1.3137  1.3606
  898SOL    HW2 3591   2.094   0.208   1.318 -0.6049  0.2685 -0.9597
  898SOL     MW 3592   2.076   0.151   1.382  0.0905  0.1099  0.2458
  899SOL     OW 3593   2.902   2.959   0.611 -0.0154 -0.2265  0.6148
  899SOL    HW1 3594   2.930   2.908   0.686  2.4829  1.9735  0.9068
  899SOL    HW2 3595   2.818   3.000   0.634 -0.7578 -0.9548  0.6519
  899SOL     MW 3596   2.895   2.957   0.624  0.2162 -0.0323  0.6582
  900SOL     OW 3597   0.137   2.381   1.126 -0.1274 -0.4075 -0.3171
  900SOL    HW1 3598   0.131   2.478   1.118 -0.3061  0.3052  0.5871
  900SOL    HW2 3599   0.114   2.343   1.040  1.1698 -1.0087  0.4075
  900SOL     MW 3600   0.133   2.389   1.114  0.0202 -0.3928 -0.1022
  901SOL     OW 3601   1.732   2.827   1.794 -0.1668 -0.3696 -0.2751
  901SOL    HW1 3602   1.798   2.786   1.733  1.1280  0.5289 -0.8912
  901SOL    HW2 3603   1.669   2.851   1.728  1.1737 -1.8535  2.3422
  901SOL     MW 3604   1.732   2.825   1.777  0.1809 -0.4468 -0.0111
  902SOL     OW 3605   2.563   2.054   1.807  0.1467 -0.2284 -0.7323
  902SOL    HW1 3606   2.554   1.964   1.846 -3.4867 -0.9487  1.1674
  902SOL    HW2 3607   2.656   2.063   1.824 -0.0485  0.2157  1.9351
  902SOL     MW 3608   2.574   2.044   1.814 -0.3584 -0.2648 -0.1297
  903SOL     OW 3609   1.650   2.790   0.521  0.1014 -0.2957 -0.4049
  903SOL    HW1 3610   1.696   2.705   0.561 -1.7449  0.4099 -1.4680
  903SOL    HW2 3611   1.609   2.847   0.590  2.0962  2.4744  0.4875
  903SOL     MW 3612   1.651   2.786   0.535  0.1210  0.1629 -0.4274
  904SOL     OW 3613   2.505   2.523   1.644 -0.0808 -0.1856  0.6487
  904SOL    HW1 3614   2.432   2.571   1.594 -1.4801 -1.1452 -2.0502
  904SOL    HW2 3615   2.536   2.458   1.580 -0.8296  0.4872  0.1786
  904SOL     MW 3616   2.499   2.521   1.629 -0.3642 -0.2235  0.2306
  905SOL     OW 3617   2.371   2.572   2.118  0.0341  0.0241 -0.0555
  905SOL    HW1 3618   2.386   2.522   2.038 -0.4028  0.2428  0.0115
  905SOL    HW2 3619   2.322   2.519   2.188 -2.8880  1.9333  0.2834
  905SOL     MW 3620   2.366   2.559   2.117 -0.4091  0.3049 -0.0019
  906SOL     OW 3621   2.512   2.536   0.813  0.1553 -0.1119  0.2055
  906SOL    HW1 3622   2.595   2.511   0.850 -0.2399  0.9772  1.0183
  906SOL    HW2 3623   2.490   2.627   0.849 -0.7499  2.0581  0.3533
  906SOL     MW 3624   2.520   2.545   0.822 -0.0163  0.3181  0.3323
  907SOL     OW 3625   2.567   2.850   1.279  0.3170 -0.4678 -0.1968
  907SOL    HW1 3626   2.634   2.874   1.343 -1.8428  0.8893 -0.3741
  907SOL    HW2 3627   2.609   2.862   1.194  0.2540  2.2687  0.0955
  907SOL     MW 3628   2.581   2.855   1.276  0.0237  0.0723 -0.1816
  908SOL     OW 3629   2.678   2.375   0.012  0.3235  0.3586 -0.0872
  908SOL    HW1 3630   2.638   2.296   0.034  0.9090  1.1761 -0.2091
  908SOL    HW2 3631   2.648   2.432   0.088 -0.6754 -0.2941  2.2502
  908SOL     MW 3632   2.669   2.372   0.025  0.2689  0.3803  0.2051
  909SOL     OW 3633   1.691   0.225   1.029 -0.9078  0.7044  0.1639
  909SOL    HW1 3634   1.718   0.301   0.976 -2.8689 -1.5243 -0.1170
  909SOL    HW2 3635   1.624   0.258   1.090 -2.4479  0.3192 -2.3668
  909SOL     MW 3636   1.686   0.240   1.030 -1.3698  0.3595 -0.2070
  910SOL     OW 3637   2.255   1.702   0.402 -0.4414  0.2378 -0.3770
  910SOL    HW1 3638   2.192   1.636   0.436  1.8944  0.7322  0.0056
  910SOL    HW2 3639   2.225   1.730   0.314 -3.0391  2.3511  1.1927
  910SOL     MW 3640   2.243   1.697   0.395 -0.4759  0.5818 -0.1194
  911SOL     OW 3641   2.160   2.196   1.611  0.0614  0.3350  0.1958
  911SOL    HW1 3642   2.231   2.206   1.673  0.4327 -0.3741  0.2253
  911SOL    HW2 3643   2.199   2.208   1.527  1.8104  1.0067  3.2857
  911SOL     MW 3644   2.174   2.199   1.608  0.3411  0.3301  0.6074
  912SOL     OW 3645   2.870   1.911   1.491 -0.0410 -0.2225  0.2049
  912SOL    HW1 3646   2.916   1.964   1.422 -1.1556  1.4756 -2.7528
  912SOL    HW2 3647   2.799   1.979   1.519  0.9317  2.9111  0.8043
  912SOL     MW 3648   2.866   1.927   1.485 -0.0597  0.4150 -0.1062
  913SOL     OW 3649   2.562   2.951   0.375 -0.0909 -0.0514  0.1516
  913SOL    HW1 3650   2.625   2.878   0.381  2.2293  0.8771  0.7504
  913SOL    HW2 3651   2.473   2.916   0.369  0.4676  0.6385 -0.1642
  913SOL     MW 3652   2.559   2.937   0.375  0.2889  0.1621  0.1889
  914SOL     OW 3653   2.797   1.635   0.019  0.0739  0.1872 -0.3996
  914SOL    HW1 3654   2.793   1.695  -0.050  2.0313 -2.9867 -3.0957
  914SOL    HW2 3655   2.711   1.608   0.037  3.4722  1.7281 -1.1310
  914SOL     MW 3656   2.785   1.639   0.013  0.7806 -0.0283 -0.8518
  915SOL     OW 3657   1.871   0.179   0.221 -0.1889  0.2075 -0.3738
  915SOL    HW1 3658   1.933   0.111   0.254  0.1922  1.4921  3.6425
  915SOL    HW2 3659   1.780   0.151   0.250  1.2145 -1.6329  2.7322
  915SOL     MW 3660   1.867   0.166   0.229  0.0466  0.1341  0.5659
  916SOL     OW 3661   1.812   2.120   1.950 -0.1121 -0.4370 -0.0046
  916SOL    HW1 3662   1.784   2.213   1.945 -1.0254  1.5141 -2.3072
  916SOL    HW2 3663   1.772   2.065   1.883  0.6168 -0.7912 -0.5660
  916SOL     MW 3664   1.803   2.125   1.941 -0.1364 -0.2263 -0.3825
  917SOL     OW 3665   2.274   2.333   2.669  0.3374 -0.1198 -0.0865
  917SOL    HW1 3666   2.284   2.351   2.763  3.4466 -1.6440 -0.5382
  917SOL    HW2 3667   2.280   2.422   2.630  0.0683  0.0131 -2.5782
  917SOL     MW 3668   2.276   2.347   2.676  0.7121 -0.3034 -0.4749
  918SOL     OW 3669   2.019   1.651   2.629  0.6240  0.0226  0.4400
  918SOL    HW1 3670   1.958   1.686   2.561 -1.9179 -0.2867  1.0287
  918SOL    HW2 3671   2.087   1.718   2.631  0.2656 -1.7749  1.3294
  918SOL     MW 3672   2.020   1.665   2.620  0.2413 -0.2554  0.6350
  919SOL     OW 3673   3.039   2.388   2.273  0.3077  0.1105 -0.1628
  919SOL    HW1 3674   2.963   2.352   2.243  4.4680 -0.5807  0.2343
  919SOL    HW2 3675   3.096   2.374   2.182  0.9878  0.9975 -0.7952
  919SOL     MW 3676   3.037   2.382   2.257  0.9463  0.1363 -0.1938
  920SOL     OW 3677   2.767   2.836   0.013  0.0030  0.1029 -0.1349
  920SOL    HW1 3678   2.680   2.879   0.032 -1.1889  2.0734 -1.3715
  920SOL    HW2 3679   2.753   2.760  -0.047 -0.0174  0.0618 -1.5331
  920SOL     MW 3680   2.753   2.832   0.008 -0.1569  0.3575 -0.4825
  921SOL     OW 3681   2.527   2.671   2.698 -0.2404 -0.1650  0.4577
  921SOL    HW1 3682   2.599   2.635   2.652 -2.0554  1.1769 -2.1208
  921SOL    HW2 3683   2.522   2.614   2.783 -1.3464 -0.2704  3.1633
  921SOL     MW 3684   2.536   2.659   2.703 -0.6258 -0.0019  0.4744
  922SOL     OW 3685   2.017   2.870   0.278  0.2950  0.0663 -1.1259
  922SOL    HW1 3686   1.994   2.905   0.192  1.4968 -2.4369  0.9229
  922SOL    HW2 3687   1.996   2.780   0.266  1.8318 -1.6633  0.2604
  922SOL     MW 3688   2.011   2.863   0.265  0.6563 -0.4922 -0.6727
  923SOL     OW 3689   2.170   2.822   1.617 -0.2319 -0.3347  0.4710
  923SOL    HW1 3690   2.212   2.754   1.568 -2.8133 -0.8997  1.6618
  923SOL    HW2 3691   2.191   2.907   1.570  3.9224  0.1300 -0.0801
  923SOL     MW 3692   2.178   2.824   1.604 -0.0244 -0.3479  0.5554
  924SOL     OW 3693   1.157   2.739   2.461 -0.2884  0.0837  0.1219
  924SOL    HW1 3694   1.177   2.822   2.424  0.2842 -0.0219  1.0623
  924SOL    HW2 3695   1.225   2.717   2.524 -1.5613  0.2172  1.1161
  924SOL     MW 3696   1.168   2.747   2.464 -0.3808  0.0874  0.3771
  925SOL     OW 3697   3.005   0.257   2.705 -0.3964 -0.6460 -0.3794
  925SOL    HW1 3698   3.027   0.274   2.618 -0.1804 -0.2762  2.0417
  925SOL    HW2 3699   2.973   0.339   2.749 -0.8465 -2.0715 -0.1319
  925SOL     MW 3700   3.004   0.270   2.699 -0.4273 -0.7853 -0.0273
  926SOL     OW 3701   2.666   2.387   2.041 -0.2446 -0.5318  0.9049
  926SOL    HW1 3702   2.687   2.458   2.099 -3.5329  0.9571  0.4936
  926SOL    HW2 3703   2.714   2.407   1.952  1.4753  1.7166  0.8152
  926SOL     MW 3704   2.675   2.399   2.037 -0.4515 -0.0387  0.8388
  927SOL     OW 3705   2.410   0.161   0.290 -0.6992  0.1440  0.5299
  927SOL    HW1 3706   2.500   0.188   0.262 -0.0460 -0.4214 -2.3111
  927SOL    HW2 3707   2.355   0.151   0.207  1.7180 -0.0269  2.9814
  927SOL     MW 3708   2.414   0.163   0.275 -0.2941  0.0468  0.4785
  928SOL     OW 3709   2.039   2.484   1.836 -0.3672  0.7645 -0.1619
  928SOL    HW1 3710   2.088   2.412   1.786  1.5969  1.1530 -0.0268
  928SOL    HW2 3711   2.093   2.534   1.901  1.1960  3.0622 -0.6010
  928SOL     MW 3712   2.052   2.481   1.838  0.0982  1.1189 -0.2020
  929SOL     OW 3713   2.730   2.333   2.460  0.3903  0.2624 -0.1012
  929SOL    HW1 3714   2.704   2.249   2.423  0.7400 -0.1599 -2.6797
  929SOL    HW2 3715   2.774   2.319   2.542 -1.3679  0.8479 -3.2966
  929SOL     MW 3716   2.732   2.320   2.466  0.2045  0.2839 -0.8630
  930SOL     OW 3717   2.002   2.874   2.660 -0.1651 -0.1110 -0.4246
  930SOL    HW1 3718   2.032   2.852   2.745  1.4668  3.6448 -1.6141
  930SOL    HW2 3719   2.090   2.903   2.620 -0.3457 -0.1608 -2.1734
  930SOL     MW 3720   2.018   2.875   2.666  0.0264  0.3780 -0.8123
  931SOL     OW 3721   2.930   2.829   2.154  0.0431 -0.0696  0.1312
  931SOL    HW1 3722   3.000   2.761   2.168  0.1427 -1.6728 -2.5644
  931SOL    HW2 3723   2.977   2.911   2.132  0.1233  0.6049  2.5946
  931SOL     MW 3724   2.945   2.831   2.153  0.0668 -0.1921  0.1006
  932SOL     OW 3725   2.806   1.914   2.540  0.3515  0.0272 -0.6021
  932SOL    HW1 3726   2.889   1.925   2.587 -0.5017  0.4111 -1.5701
  932SOL    HW2 3727   2.827   1.949   2.455  0.2131 -0.2455  1.8250
  932SOL     MW 3728   2.820   1.920   2.535  0.2207  0.0419 -0.4096
  933SOL     OW 3729   2.080   2.792   2.266 -0.2834 -0.0121  0.0513
  933SOL    HW1 3730   2.172   2.816   2.285 -2.0122 -0.6542 -2.2113
  933SOL    HW2 3731   2.023   2.867   2.243  2.8466 -1.0566 -2.6854
  933SOL     MW 3732   2.085   2.805   2.265 -0.0985 -0.2346 -0.6083
  934SOL     OW 3733   2.017   2.668   2.489 -0.8924  0.0418 -0.0706
  934SOL    HW1 3734   2.014   2.738   2.554 -2.5719  0.1310  1.8253
  934SOL    HW2 3735   2.052   2.712   2.406 -0.7063  0.2618 -4.7964
  934SOL     MW 3736   2.021   2.683   2.487 -1.0894  0.0826 -0.4440
  935SOL     OW 3737   2.631   1.588   1.813 -0.0437  0.0975 -0.3492
  935SOL    HW1 3738   2.714   1.589   1.764  1.0603  0.8931 -1.9270
  935SOL    HW2 3739   2.567   1.566   1.750  0.3281  0.7864 -0.7357
  935SOL     MW 3740   2.634   1.585   1.798  0.1510  0.2933 -0.6083
  936SOL     OW 3741   2.936   2.218  -0.001  0.3243  0.1929 -0.2013
  936SOL    HW1 3742   3.018   2.273   0.006  2.1556 -0.8418  1.8934
  936SOL    HW2 3743   2.869   2.280   0.025  4.0296  2.6924 -2.3510
  936SOL     MW 3744   2.938   2.233   0.003  1.0548  0.3862 -0.2085
  937SOL     OW 3745   1.978   2.258   2.617 -0.0991 -0.2510 -0.4623
  937SOL    HW1 3746   2.068   2.223   2.632  1.9830 -1.4653  0.7382
  937SOL    HW2 3747   1.951   2.223   2.534  1.6366 -2.2380  0.3886
  937SOL     MW 3748   1.986   2.249   2.608  0.4046 -0.6733 -0.1916
  938SOL     OW 3749   2.254   1.845   1.950 -0.2910  0.1695 -0.9038
  938SOL    HW1 3750   2.252   1.872   1.859  2.3019  0.7734  0.8898
  938SOL    HW2 3751   2.249   1.929   2.002  2.0625 -3.1022  1.0301
  938SOL     MW 3752   2.253   1.859   1.945  0.3616 -0.1825 -0.4120
  939SOL     OW 3753   2.793   2.001   2.257  0.4707 -0.6772  0.3626
  939SOL    HW1 3754   2.808   1.922   2.207  0.7400  0.5604  1.6361
  939SOL    HW2 3755   2.699   2.025   2.248 -2.1330 -0.4794  0.8768
  939SOL     MW 3756   2.783   1.994   2.249  0.1627 -0.4878  0.5984
  940SOL     OW 3757   2.282   0.182   2.671 -0.3802 -0.1488  0.4376
  940SOL    HW1 3758   2.262   0.086   2.655  0.2098  2.0085  0.8893
  940SOL    HW2 3759   2.334   0.188   2.756  1.1504  0.3970  0.8766
  940SOL     MW 3760   2.286   0.170   2.680 -0.1004  0.2079  0.5551
  941SOL     OW 3761   0.096   2.356   2.044  0.6908  0.2959  0.7057
  941SOL    HW1 3762   0.155   2.289   2.067 -0.3043 -2.4845 -1.6467
  941SOL    HW2 3763   0.052   2.322   1.965  0.8927  3.4148  1.7875
  941SOL     MW 3764   0.098   2.343   2.036  0.5862  0.3406  0.5381
  942SOL     OW 3765   2.870   2.237   2.106 -0.3417  0.2372  0.5312
  942SOL    HW1 3766   2.793   2.290   2.096  0.3340  2.2150  1.6387
  942SOL    HW2 3767   2.853   2.166   2.169  0.9733 -0.3139 -0.7760
  942SOL     MW 3768   2.857   2.235   2.113 -0.0791  0.4254  0.5049
  943SOL     OW 3769   0.224   2.016   2.317  0.2231  0.0105  0.0807
  943SOL    HW1 3770   0.149   2.067   2.361 -1.0478  1.3284  0.5654
  943SOL    HW2 3771   0.301   2.031   2.371  0.2425 -2.1574  0.3090
  943SOL     MW 3772   0.224   2.025   2.330  0.0580 -0.1017  0.1748
  944SOL     OW 3773   2.125   2.657   2.031 -0.5656  0.0244 -0.3091
  944SOL    HW1 3774   2.207   2.618   2.069  1.2726 -1.2570 -1.5871
  944SOL    HW2 3775   2.084   2.709   2.102 -1.3448  0.0801 -2.5025
  944SOL     MW 3776   2.130   2.659   2.045 -0.4258 -0.1373 -0.7671
  945SOL     OW 3777   2.769   2.628   2.933 -0.1977 -0.1553  0.3175
  945SOL    HW1 3778   2.709   2.558   2.920  0.5495 -1.7357 -0.1445
  945SOL    HW2 3779   2.819   2.647   2.849 -2.3215 -0.7392  1.8862
  945SOL     MW 3780   2.768   2.621   2.920 -0.3793 -0.4409  0.4635
  946SOL     OW 3781   2.535   2.709   2.292  0.0819  0.0958  0.0567
  946SOL    HW1 3782   2.587   2.772   2.250 -1.9310 -1.1269 -0.0514
  946SOL    HW2 3783   2.481   2.672   2.222  2.0618  1.6582  1.2799
  946SOL     MW 3784   2.535   2.713   2.278  0.0776  0.1407  0.2038
  947SOL     OW 3785   2.060   0.053   0.404 -0.1183  0.1477 -0.5076
  947SOL    HW1 3786   2.071  -0.036   0.417  1.7784  0.3159  2.8104
  947SOL    HW2 3787   2.142   0.081   0.430 -0.2789 -1.2257 -1.2386
  947SOL     MW 3788   2.072   0.045   0.409  0.1108 -0.0113 -0.1663
  948SOL     OW 3789   1.823   3.099   2.638  0.5308 -0.1802 -0.3494
  948SOL    HW1 3790   1.886   3.029   2.657  2.3269 -1.3581 -0.1840
  948SOL    HW2 3791   1.851   3.119   2.550 -0.2191 -2.7998  0.6237
  948SOL     MW 3792   1.835   3.093   2.629  0.6689 -0.6813 -0.1992
  949SOL     OW 3793   2.526   2.064   2.279  0.4225  0.3695  0.1649
  949SOL    HW1 3794   2.501   1.974   2.307 -0.9554 -2.7125  0.0272
  949SOL    HW2 3795   2.479   2.117   2.341 -0.9507 -1.1714 -0.7716
  949SOL     MW 3796   2.517   2.059   2.291  0.0595 -0.2404  0.0232
  950SOL     OW 3797   2.252   2.616   3.055  0.2150  0.1498  0.2315
  950SOL    HW1 3798   2.281   2.535   3.011 -0.2151  1.6747 -1.5421
  950SOL    HW2 3799   2.175   2.638   2.996 -1.6627  1.6989  0.5556
  950SOL     MW 3800   2.246   2.608   3.042 -0.0895  0.5554  0.0403
  951SOL     OW 3801   2.867   2.058   2.874  0.5944  0.0935 -0.2613
  951SOL    HW1 3802   2.894   2.120   2.944 -1.1685 -0.5082 -3.4543
  951SOL    HW2 3803   2.952   2.045   2.824 -0.7664 -0.2458 -0.0291
  951SOL     MW 3804   2.882   2.065   2.877  0.1823 -0.0306 -0.6519
  952SOL     OW 3805   3.056   1.642   2.061  0.9067 -0.3185  0.2972
  952SOL    HW1 3806   2.973   1.691   2.043 -0.4014 -0.6679  0.1528
  952SOL    HW2 3807   3.129   1.707   2.071  0.7144 -1.7916  1.4043
  952SOL     MW 3808   3.055   1.657   2.060  0.7087 -0.5589  0.4242
  953SOL     OW 3809   1.938   1.852   2.825  0.2771  0.1805 -0.2280
  953SOL    HW1 3810   1.849   1.823   2.855  0.4502 -0.5266 -1.3990
  953SOL    HW2 3811   1.953   1.778   2.764 -1.1822 -2.0663 -1.1989
  953SOL     MW 3812   1.928   1.838   2.821  0.1074 -0.2093 -0.5106
  954SOL     OW 3813   2.434   2.023   2.931  0.1864 -0.0325 -0.0139
  954SOL    HW1 3814   2.352   2.048   2.882  1.5738 -2.5417 -1.2286
  954SOL    HW2 3815   2.502   2.005   2.856  0.7249  1.3989 -0.0364
  954SOL     MW 3816   2.432   2.024   2.914  0.4405 -0.1747 -0.1771
  955SOL     OW 3817   1.572   1.640   2.588  0.4217 -0.1927 -0.2198
  955SOL    HW1 3818   1.521   1.615   2.510 -0.8169 -0.9772  0.2617
  955SOL    HW2 3819   1.657   1.662   2.553 -1.5274  1.6449 -1.2060
  955SOL     MW 3820   1.577   1.639   2.573  0.0011 -0.0538 -0.2864
  956SOL     OW 3821   2.600   2.406   2.855  0.4281  0.5326  0.1728
  956SOL    HW1 3822   2.614   2.397   2.946 -0.0716 -0.2590  0.8156
  956SOL    HW2 3823   2.658   2.341   2.817  0.6637  2.1995  0.1232
  956SOL     MW 3824   2.609   2.396   2.862  0.3933  0.6481  0.2511
  957SOL     OW 3825   2.274   2.836   0.388 -0.3551 -0.1579 -0.0496
  957SOL    HW1 3826   2.182   2.836   0.371  2.6922  0.0544  2.2485
  957SOL    HW2 3827   2.274   2.803   0.482  0.9997  1.5141  1.1144
  957SOL     MW 3828   2.262   2.832   0.398  0.2257  0.0907  0.4072
  958SOL     OW 3829   2.041   2.697   2.882 -0.1257  0.4225 -0.6256
  958SOL    HW1 3830   2.036   2.620   2.827  0.2714 -1.4963  0.7817
  958SOL    HW2 3831   1.948   2.722   2.883  0.9223 -0.5385 -2.4157
  958SOL     MW 3832   2.028   2.690   2.875  0.0650  0.0426 -0.6761
  959SOL     OW 3833   2.436   2.592   0.363 -0.4980  0.2395 -0.0319
  959SOL    HW1 3834   2.507   2.613   0.298  0.3259  0.3767 -0.7202
  959SOL    HW2 3835   2.380   2.670   0.362 -1.0910 -2.5243  1.6493
  959SOL     MW 3836   2.438   2.605   0.354 -0.4675 -0.1071  0.0991
  960SOL     OW 3837   1.971   2.465   2.283 -0.1915 -0.5044  0.3164
  960SOL    HW1 3838   1.944   2.380   2.306  1.3591  1.3792  1.9296
  960SOL    HW2 3839   1.946   2.521   2.352  1.2956  1.6353 -2.7122
  960SOL     MW 3840   1.964   2.461   2.295  0.2093  0.0264  0.1296
  961SOL     OW 3841   2.234   2.460   2.330 -0.0787 -0.0708  0.1568
  961SOL    HW1 3842   2.138   2.473   2.317 -1.0676  0.3675  0.2428
  961SOL    HW2 3843   2.272   2.497   2.411 -1.7467 -1.2597 -0.0925
  961SOL     MW 3844   2.227   2.466   2.339 -0.4293 -0.1698  0.1353
  962SOL     OW 3845   2.191   2.054   2.770 -0.2740 -0.0290  0.3114
  962SOL    HW1 3846   2.146   2.020   2.850 -0.5298  1.1742  2.3180
  962SOL    HW2 3847   2.196   1.976   2.707 -1.5327 -2.0353 -0.8619
  962SOL     MW 3848   2.186   2.040   2.772 -0.4738 -0.1349  0.4214
  963SOL     OW 3849   1.747   2.539   2.139  0.1038  0.5766  0.0890
  963SOL    HW1 3850   1.828   2.524   2.181  1.4581  0.7618  0.6069
  963SOL    HW2 3851   1.734   2.475   2.071  0.0992 -0.9744  0.6799
  963SOL     MW 3852   1.756   2.528   2.136  0.2819  0.3964  0.2353
  964SOL     OW 3853   1.808   2.007   2.617 -0.1124 -0.2498  0.5479
  964SOL    HW1 3854   1.864   2.085   2.610 -1.4328  0.4265 -1.5946
  964SOL    HW2 3855   1.837   1.964   2.697  0.0391  0.7779 -2.8836
  964SOL     MW 3856   1.820   2.012   2.627 -0.2666 -0.0250 -0.1876
  965SOL     OW 3857   2.217   2.680   0.612 -0.8200  0.1498  0.3684
  965SOL    HW1 3858   2.165   2.601   0.581  0.2874 -2.7502 -2.2759
  965SOL    HW2 3859   2.266   2.659   0.688 -1.0331 -0.6243 -1.0809
  965SOL     MW 3860   2.216   2.667   0.618 -0.7020 -0.3349 -0.1717
  966SOL     OW 3861   2.743   2.598   2.529  0.0975  0.2384  0.1591
  966SOL    HW1 3862   2.702   2.651   2.463  1.9706 -2.1453 -1.6005
  966SOL    HW2 3863   2.729   2.512   2.494 -0.5239  0.9106  1.5612
  966SOL     MW 3864   2.736   2.594   2.516  0.2626  0.0126  0.1119
  967SOL     OW 3865   2.864   3.041   2.943  0.5772 -0.2270 -0.7781
  967SOL    HW1 3866   2.846   2.961   2.994 -0.1562  1.0976  1.7730
  967SOL    HW2 3867   2.781   3.044   2.896  0.7754 -2.3285  2.9141
  967SOL     MW 3868   2.851   3.031   2.943  0.5066 -0.3295  0.0456
  968SOL     OW 3869   3.019   2.528   3.027 -0.1433  0.3961 -0.7616
  968SOL    HW1 3870   2.922   2.529   3.006 -2.9527  2.3607 -1.3944
  968SOL    HW2 3871   3.056   2.476   2.953 -2.9060  0.1164  1.7756
  968SOL     MW 3872   3.011   2.521   3.015 -0.8785  0.6184 -0.5104
  969SOL     OW 3873   1.556   2.133   1.725  0.1392  0.1970 -0.1129
  969SOL    HW1 3874   1.626   2.059   1.720  0.1977 -1.2947  0.8067
  969SOL    HW2 3875   1.549   2.135   1.820  1.9951 -2.3343  1.4444
  969SOL     MW 3876   1.565   2.124   1.737  0.3918 -0.3338  0.2139
  970SOL     OW 3877   1.700   1.698   1.827 -0.0096  0.1498  0.3027
  970SOL    HW1 3878   1.739   1.663   1.906 -0.5928 -0.6826 -0.0645
  970SOL    HW2 3879   1.607   1.700   1.843  0.4486  0.9386  1.8024
  970SOL     MW 3880   1.693   1.693   1.839 -0.0261  0.1440  0.4521
  971SOL     OW 3881   1.864   0.088   2.392 -0.3890  0.2518  0.3605
  971SOL    HW1 3882   1.883   0.045   2.302 -1.3572 -1.4998 -1.0494
  971SOL    HW2 3883   1.892   0.182   2.389  2.1889  2.5617  1.0917
  971SOL     MW 3884   1.871   0.095   2.380 -0.1766  0.3254  0.2709
  972SOL     OW 3885   0.238   2.788   2.521  0.1542  0.5993 -0.5727
  972SOL    HW1 3886   0.255   2.694   2.523 -2.5032  3.7335  1.5319
  972SOL    HW2 3887   0.315   2.836   2.555  0.7510 -0.5845  0.7731
  972SOL     MW 3888   0.251   2.782   2.526 -0.1177  0.8567 -0.1175
  973SOL     OW 3889   2.600   3.097   2.074 -0.4639  0.1797 -0.0349
  973SOL    HW1 3890   2.568   3.018   2.039  3.3570 -0.5522  1.3937
  973SOL    HW2 3891   2.592   3.154   1.998  2.1013 -0.3345  0.2142
  973SOL     MW 3892   2.595   3.095   2.060  0.3787  0.0153  0.1864
  974SOL     OW 3893   2.048   0.315   2.718  0.1551  0.3377  0.0332
  974SOL    HW1 3894   2.126   0.262   2.705  1.6030  2.6471 -1.4873
  974SOL    HW2 3895   1.991   0.261   2.773  1.6458 -3.9701  2.1407
  974SOL     MW 3896   2.051   0.301   2.724  0.5428  0.0740  0.1106
  975SOL     OW 3897   2.316   2.575   2.560 -0.3099 -0.2280 -0.5609
  975SOL    HW1 3898   2.402   2.605   2.595 -2.0965 -1.0696 -1.1360
  975SOL    HW2 3899   2.258   2.649   2.549  1.9071  1.6016  1.0428
  975SOL     MW 3900   2.320   2.589   2.563 -0.2531 -0.0976 -0.4252
  976SOL     OW 3901   0.260   0.253   1.688 -0.0634 -0.1249  0.1999
  976SOL    HW1 3902   0.315   0.186   1.737 -0.9064 -0.8252 -0.9522
  976SOL    HW2 3903   0.168   0.220   1.690 -1.9303  0.1157  3.0333
  976SOL     MW 3904   0.255   0.240   1.694 -0.4209 -0.1856  0.4217
  977SOL     OW 3905   1.675   2.781   2.486 -0.0257 -0.3355 -0.5364
  977SOL    HW1 3906   1.716   2.689   2.486 -2.0150  0.7733 -2.2591
  977SOL    HW2 3907   1.753   2.831   2.469 -0.6432 -0.4928  0.7577
  977SOL     MW 3908   1.690   2.776   2.483 -0.3697 -0.2100 -0.5929
   3.10000   3.10000   3.10000
