977 TIP4P/2005f water molecules t=   1.12000 step= 1120
 3908
    1SOL     OW    1   0.414   0.783   0.004  0.1199 -0.0339 -0.9166
    1SOL    HW1    2   0.369   0.821  -0.069  0.7854  1.2618  1.6360
    1SOL    HW2    3   0.346   0.723   0.042 -0.6539 -1.6369  1.2611
    1SOL     MW    4   0.399   0.780  -0.000  0.1056 -0.0745 -0.2925
    2SOL     OW    5   0.333   3.046   1.169 -0.2724 -0.1293 -0.3447
    2SOL    HW1    6   0.380   3.112   1.116  2.3231  1.1977 -2.1723
    2SOL    HW2    7   0.244   3.079   1.195 -0.9451 -3.0698 -0.6147
    2SOL     MW    8   0.327   3.059   1.165 -0.0187 -0.3422 -0.6214
    3SOL     OW    9   2.589   0.420   0.989 -0.3417 -0.6191  0.1370
    3SOL    HW1   10   2.622   0.462   0.920 -4.1884 -2.0538  1.5418
    3SOL    HW2   11   2.582   0.476   1.069 -2.5400 -0.8699 -2.3508
    3SOL     MW   12   2.592   0.433   0.991 -1.1393 -0.8415 -0.0059
    4SOL     OW   13   2.936   1.704   0.531  0.1279  0.5884 -0.2829
    4SOL    HW1   14   2.876   1.770   0.490 -0.3021  2.3414 -1.1955
    4SOL    HW2   15   2.997   1.692   0.461  0.2542 -0.6475  0.9581
    4SOL     MW   16   2.936   1.711   0.516  0.0878  0.6566 -0.2396
    5SOL     OW   17   1.717   1.494   0.525 -0.3165  0.2446 -0.0316
    5SOL    HW1   18   1.734   1.443   0.604 -0.8475 -0.0756  1.9660
    5SOL    HW2   19   1.618   1.500   0.514  0.4309  2.4928 -0.8704
    5SOL     MW   20   1.706   1.488   0.534 -0.2879  0.4990  0.1213
    6SOL     OW   21   0.801   1.349   0.587 -0.0569 -0.5608  0.2853
    6SOL    HW1   22   0.716   1.371   0.625 -0.3921 -0.9813 -0.3177
    6SOL    HW2   23   0.844   1.290   0.651  1.5351  1.5348  1.6589
    6SOL     MW   24   0.796   1.344   0.600  0.1089 -0.3398  0.3870
    7SOL     OW   25   2.080   1.025   0.021  0.0010  0.2776  0.1052
    7SOL    HW1   26   2.067   1.100  -0.039  0.1135  0.8465  0.5754
    7SOL    HW2   27   2.143   1.055   0.085  0.5234 -1.5752  1.7769
    7SOL     MW   28   2.087   1.039   0.022  0.0848  0.1082  0.3878
    8SOL     OW   29   0.910   1.456   1.174  0.3456  0.3522  0.2211
    8SOL    HW1   30   1.005   1.463   1.188 -0.0170 -0.5802 -0.1366
    8SOL    HW2   31   0.888   1.368   1.196 -0.6959  1.2198  0.4601
    8SOL     MW   32   0.919   1.445   1.179  0.1603  0.3437  0.2055
    9SOL     OW   33   1.003   0.522   1.392 -0.1217 -0.1984  0.0139
    9SOL    HW1   34   0.953   0.452   1.344  0.0653  0.2601 -0.4517
    9SOL    HW2   35   1.058   0.481   1.459  1.5411  1.1388 -2.4715
    9SOL     MW   36   1.004   0.508   1.395  0.1224  0.0385 -0.3755
   10SOL     OW   37   0.222   0.774   0.481  0.1304  0.1418  0.3023
   10SOL    HW1   38   0.310   0.818   0.463  0.9309  0.8838 -1.6398
   10SOL    HW2   39   0.183   0.812   0.565  2.0880  1.2659 -0.2475
   10SOL     MW   40   0.229   0.785   0.490  0.4943  0.3880 -0.0265
   11SOL     OW   41   0.807   1.144   1.603 -0.1214 -0.3091 -0.3791
   11SOL    HW1   42   0.831   1.101   1.684 -4.0446  4.4651 -0.2046
   11SOL    HW2   43   0.808   1.077   1.539 -2.1006 -1.0122  0.1692
   11SOL     MW   44   0.811   1.129   1.605 -0.9002  0.2281 -0.2837
   12SOL     OW   45   0.015   1.062   0.888 -0.1542 -0.6607  0.3029
   12SOL    HW1   46   0.043   1.106   0.966 -0.2512  0.5352  1.1353
   12SOL    HW2   47  -0.021   1.134   0.844 -1.8131  0.6940  0.8574
   12SOL     MW   48   0.014   1.077   0.892 -0.3859 -0.3242  0.4859
   13SOL     OW   49   1.851   1.434   1.342  0.4623 -0.3803  0.6728
   13SOL    HW1   50   1.876   1.376   1.273 -2.4452  2.3115 -0.5598
   13SOL    HW2   51   1.862   1.526   1.310  0.4671 -1.7331 -1.4395
   13SOL     MW   52   1.856   1.439   1.329  0.0793 -0.2037  0.2315
   14SOL     OW   53   0.561   0.389   1.867 -0.4039 -0.2720 -0.0291
   14SOL    HW1   54   0.506   0.312   1.849  1.3555  0.7734  0.3317
   14SOL    HW2   55   0.633   0.378   1.812 -1.6715 -0.7947 -1.5687
   14SOL     MW   56   0.563   0.378   1.857 -0.3390 -0.2031 -0.1846
   15SOL     OW   57   1.971   0.352   1.053  0.1491 -0.1386  0.1465
   15SOL    HW1   58   1.936   0.434   1.087 -0.6048  0.8520  0.8732
   15SOL    HW2   59   2.045   0.376   0.995 -1.3654 -1.5238 -0.2129
   15SOL     MW   60   1.976   0.366   1.050 -0.1502 -0.1906  0.1949
   16SOL     OW   61   0.189   1.796   0.311 -0.2011 -0.1710 -0.7479
   16SOL    HW1   62   0.287   1.778   0.322 -1.0078  0.1139  2.1033
   16SOL    HW2   63   0.175   1.889   0.334  1.8907  2.8223  0.6466
   16SOL     MW   64   0.200   1.806   0.315 -0.0315  0.2615 -0.1877
   17SOL     OW   65   1.072   0.930   1.447 -0.7069  0.0498  0.0751
   17SOL    HW1   66   1.115   0.892   1.522 -1.2512  1.3703 -0.9300
   17SOL    HW2   67   0.978   0.902   1.447  0.1574 -1.0132 -3.1705
   17SOL     MW   68   1.065   0.922   1.457 -0.6647  0.0838 -0.4858
   18SOL     OW   69   0.042   1.573   0.385  0.4700  0.1882 -0.8909
   18SOL    HW1   70   0.100   1.637   0.347 -1.4854 -3.7717 -1.7678
   18SOL    HW2   71   0.008   1.523   0.313  3.7085  0.6630  0.4776
   18SOL     MW   72   0.045   1.575   0.370  0.6393 -0.2717 -0.8261
   19SOL     OW   73   0.078   1.289   1.039 -0.5293 -0.1315 -0.0863
   19SOL    HW1   74   0.113   1.316   0.949  2.0439 -0.0833  2.9210
   19SOL    HW2   75  -0.016   1.316   1.037 -0.9719  0.4743  0.6212
   19SOL     MW   76   0.071   1.296   1.027 -0.2482 -0.0452  0.4038
   20SOL     OW   77   0.451   2.162   1.181 -0.0616  0.3033  0.1176
   20SOL    HW1   78   0.413   2.092   1.130 -1.1835  0.5563 -1.8404
   20SOL    HW2   79   0.385   2.182   1.252 -0.7643 -0.0701 -1.5724
   20SOL     MW   80   0.437   2.156   1.184 -0.3023  0.2874 -0.3637
   21SOL     OW   81   0.461   0.876   0.423  0.6293  0.1973 -0.0093
   21SOL    HW1   82   0.514   0.836   0.495  0.2540  0.5910  0.0773
   21SOL    HW2   83   0.500   0.842   0.344 -1.4759  0.1150 -0.9935
   21SOL     MW   84   0.473   0.866   0.422  0.3021  0.2384 -0.1277
   22SOL     OW   85   1.581   0.652   1.039 -0.6226  0.3499 -0.3647
   22SOL    HW1   86   1.531   0.645   0.960  0.1522  2.8854  1.4878
   22SOL    HW2   87   1.545   0.727   1.078  0.5436 -0.1144 -0.2913
   22SOL     MW   88   1.569   0.661   1.034 -0.3665  0.6232 -0.1106
   23SOL     OW   89   3.038   0.690   0.698 -0.3519 -0.1950  0.6314
   23SOL    HW1   90   3.083   0.615   0.746  0.1440 -1.2072  1.7389
   23SOL    HW2   91   3.116   0.745   0.697 -0.4725  1.3239  2.3985
   23SOL     MW   92   3.054   0.687   0.704 -0.3024 -0.1281  1.0107
   24SOL     OW   93   2.022   2.199   0.038  0.1171  0.2280  0.6157
   24SOL    HW1   94   2.061   2.194   0.124  1.6376 -0.8400 -1.1032
   24SOL    HW2   95   2.033   2.113  -0.015  0.3148 -0.1866 -2.3077
   24SOL     MW   96   2.029   2.187   0.042  0.3438  0.0324  0.0032
   25SOL     OW   97   0.225   1.420   0.562 -0.6279 -0.0366 -0.4036
   25SOL    HW1   98   0.177   1.483   0.515  1.4708  0.1844  0.3829
   25SOL    HW2   99   0.314   1.448   0.556  2.4507 -0.2088  1.9235
   25SOL     MW  100   0.230   1.432   0.555  0.0552 -0.0302  0.0072
   26SOL     OW  101   2.086   1.055   0.329 -0.4722 -0.3311 -0.5286
   26SOL    HW1  102   2.016   1.106   0.370 -0.1054  0.2189 -0.8026
   26SOL    HW2  103   2.132   1.132   0.285 -3.1292 -0.2231  0.5202
   26SOL     MW  104   2.083   1.072   0.329 -0.7744 -0.2443 -0.4264
   27SOL     OW  105   1.984   1.449   0.224 -0.1620  0.3046 -0.1221
   27SOL    HW1  106   1.907   1.505   0.205 -0.2395 -1.2042 -1.0545
   27SOL    HW2  107   2.032   1.494   0.293 -1.6036  3.3254 -2.0435
   27SOL     MW  108   1.980   1.462   0.230 -0.3624  0.5041 -0.4986
   28SOL     OW  109   0.442   0.994   1.957 -0.0885 -0.1866  0.1404
   28SOL    HW1  110   0.469   1.004   2.042  1.5085  1.2522 -3.1435
   28SOL    HW2  111   0.354   0.957   1.957  1.3168 -1.6954  0.6120
   28SOL     MW  112   0.434   0.990   1.968  0.3076 -0.1959 -0.2307
   29SOL     OW  113   0.205   1.446   0.867 -0.0837  0.0937  0.0358
   29SOL    HW1  114   0.186   1.540   0.874  1.5905 -1.2510 -1.0311
   29SOL    HW2  115   0.210   1.427   0.770  1.2367 -2.0378 -0.4786
   29SOL     MW  116   0.203   1.456   0.855  0.3114 -0.3649 -0.1729
   30SOL     OW  117   0.804   1.200   1.243 -0.1713  0.1141  0.1607
   30SOL    HW1  118   0.727   1.199   1.304 -1.8097  0.3689  1.8001
   30SOL    HW2  119   0.882   1.176   1.302  0.6518 -0.9586  3.0579
   30SOL     MW  120   0.804   1.196   1.258 -0.2789  0.0062  0.7593
   31SOL     OW  121   0.446   0.257   0.157 -0.3446 -0.0191 -0.2457
   31SOL    HW1  122   0.444   0.167   0.189 -0.0328 -2.0198  1.5394
   31SOL    HW2  123   0.451   0.250   0.061  0.5602 -1.0346  0.0832
   31SOL     MW  124   0.446   0.245   0.149 -0.1841 -0.4171  0.0332
   32SOL     OW  125   2.823   0.963   1.186 -0.0665  0.1157 -0.0432
   32SOL    HW1  126   2.756   0.911   1.139 -0.6977 -2.9077 -0.4583
   32SOL    HW2  127   2.904   0.930   1.148 -1.3110  0.7227 -1.2178
   32SOL     MW  128   2.825   0.952   1.175 -0.3140 -0.2031 -0.2529
   33SOL     OW  129   1.705   1.302   0.324 -0.5355  0.1479  0.1003
   33SOL    HW1  130   1.756   1.240   0.373  0.3510 -1.6962 -0.6649
   33SOL    HW2  131   1.710   1.376   0.385 -0.9344 -0.0242  2.0430
   33SOL     MW  132   1.712   1.303   0.338 -0.4711 -0.1181  0.2557
   34SOL     OW  133   1.213   1.915   1.104  0.1079  0.3515  0.0158
   34SOL    HW1  134   1.131   1.959   1.130 -1.1661 -1.1722 -0.0436
   34SOL    HW2  135   1.278   1.957   1.162 -0.2613  0.9314  1.8962
   34SOL     MW  136   1.211   1.926   1.116 -0.1089  0.2270  0.2561
   35SOL     OW  137   0.384   0.154   1.856 -0.2328 -0.0938 -0.4238
   35SOL    HW1  138   0.391   0.094   1.932  0.1914 -0.8602 -2.3171
   35SOL    HW2  139   0.437   0.114   1.786 -2.0935  1.0227  0.9763
   35SOL     MW  140   0.392   0.141   1.857 -0.4223 -0.0476 -0.4889
   36SOL     OW  141   1.966   1.963   0.603 -0.0235 -0.2397 -0.4563
   36SOL    HW1  142   1.974   1.964   0.505  2.9733  0.4318 -1.2520
   36SOL    HW2  143   1.959   1.872   0.623 -0.8155  0.7441  1.8105
   36SOL     MW  144   1.966   1.951   0.593  0.2674 -0.0213 -0.2622
   37SOL     OW  145   1.793   1.973   0.962 -0.2265  0.2330  0.1504
   37SOL    HW1  146   1.748   1.905   0.906  0.7944  1.1391  2.9677
   37SOL    HW2  147   1.722   2.031   0.996 -1.7648 -1.4216  1.0526
   37SOL     MW  148   1.778   1.971   0.959 -0.2947  0.1342  0.6411
   38SOL     OW  149   2.803   0.938   0.154  0.0397  0.2426  0.0373
   38SOL    HW1  150   2.804   0.933   0.253 -1.5129 -3.1149  0.6118
   38SOL    HW2  151   2.888   0.902   0.130 -0.4973 -3.2096  0.7539
   38SOL     MW  152   2.815   0.932   0.164 -0.2360 -0.6559  0.2076
   39SOL     OW  153   1.434   0.613   0.810 -0.3545 -0.1658  0.2112
   39SOL    HW1  154   1.397   0.525   0.830  1.0528 -0.7760  1.2338
   39SOL    HW2  155   1.364   0.647   0.760  2.4054 -3.6954 -1.5410
   39SOL     MW  156   1.420   0.606   0.806  0.1953 -0.7120  0.1150
   40SOL     OW  157   1.183   1.922   0.304 -0.5378 -0.1943  0.3333
   40SOL    HW1  158   1.203   1.852   0.371 -0.7483 -2.8584 -0.5117
   40SOL    HW2  159   1.190   2.007   0.354  4.1429  1.6926 -1.2844
   40SOL     MW  160   1.186   1.924   0.320  0.0520 -0.2968  0.0084
   41SOL     OW  161   0.564   0.511   1.580 -0.2264 -0.1446 -0.7418
   41SOL    HW1  162   0.648   0.558   1.585  0.2479 -0.4642 -2.2843
   41SOL    HW2  163   0.531   0.527   1.671  1.0472 -1.3488 -3.1555
   41SOL     MW  164   0.571   0.519   1.592  0.0042 -0.3456 -1.2638
   42SOL     OW  165   1.276   3.003   2.018 -0.4441 -0.1065  0.0960
   42SOL    HW1  166   1.185   3.008   2.044 -2.5596 -0.1304  0.5956
   42SOL    HW2  167   1.322   2.955   2.088 -0.7119  0.8402  0.7529
   42SOL     MW  168   1.270   2.997   2.030 -0.7586  0.0152  0.2486
   43SOL     OW  169   1.526   0.119   1.699 -0.2053  0.4420  0.8059
   43SOL    HW1  170   1.563   0.082   1.617 -1.7290  0.1628 -0.4303
   43SOL    HW2  171   1.440   0.073   1.712 -1.9115 -1.7255 -3.1603
   43SOL     MW  172   1.519   0.108   1.690 -0.6315  0.1192  0.1195
   44SOL     OW  173   1.117   0.796   1.005  0.3930 -0.2915 -0.6347
   44SOL    HW1  174   1.150   0.886   0.989  0.2686  0.0917 -4.0082
   44SOL    HW2  175   1.105   0.792   1.098  0.9306  0.7813  1.3070
   44SOL     MW  176   1.120   0.808   1.015  0.4475 -0.0994 -0.8236
   45SOL     OW  177   1.237   0.759   0.630 -0.3389  0.0002  0.2288
   45SOL    HW1  178   1.168   0.817   0.656 -0.0806 -0.8642  0.4222
   45SOL    HW2  179   1.184   0.702   0.566 -0.2102 -2.0329 -2.9991
   45SOL     MW  180   1.221   0.759   0.625 -0.2879 -0.3821 -0.1715
   46SOL     OW  181   0.570   1.141   0.594  0.5697 -0.4226 -0.1610
   46SOL    HW1  182   0.556   1.147   0.499  0.3904  0.8240  1.0942
   46SOL    HW2  183   0.665   1.120   0.596  2.3389 -2.2095  0.0438
   46SOL     MW  184   0.581   1.139   0.582  0.7794 -0.4939  0.0316
   47SOL     OW  185   0.231   2.020   1.971  0.3976 -0.9626 -0.3309
   47SOL    HW1  186   0.315   1.973   1.993  0.1237 -0.6735 -1.0896
   47SOL    HW2  187   0.220   2.078   2.051  0.7284 -0.8534  0.8791
   47SOL     MW  188   0.240   2.021   1.985  0.4051 -0.9100 -0.2714
   48SOL     OW  189   1.077   0.513   1.080  0.4172  0.4334  0.3341
   48SOL    HW1  190   0.997   0.487   1.047  0.0366  1.8538  1.2358
   48SOL    HW2  191   1.099   0.600   1.036  1.7973  0.2131 -1.5383
   48SOL     MW  192   1.069   0.521   1.070  0.5490  0.5917  0.2061
   49SOL     OW  193   1.697   0.689   1.566 -0.5084 -0.0026  0.4021
   49SOL    HW1  194   1.685   0.632   1.647  0.5964 -1.0566  1.2994
   49SOL    HW2  195   1.762   0.634   1.524  0.6247 -2.1759  0.1570
   49SOL     MW  196   1.704   0.674   1.571 -0.2132 -0.4284  0.4881
   50SOL     OW  197   1.319   1.084   0.511 -0.2629  0.6933 -0.2624
   50SOL    HW1  198   1.275   1.128   0.584 -0.9253  0.6180 -1.0762
   50SOL    HW2  199   1.371   1.023   0.559 -2.3608 -0.0547  0.0294
   50SOL     MW  200   1.320   1.082   0.527 -0.6271  0.5847 -0.3313
   51SOL     OW  201   0.354   2.935   0.910 -0.0148  0.3363  0.2218
   51SOL    HW1  202   0.439   2.883   0.895  0.9172  0.6015 -1.0769
   51SOL    HW2  203   0.349   2.962   1.008 -0.4557  3.0149  0.3522
   51SOL     MW  204   0.365   2.932   0.921  0.0500  0.7247  0.0676
   52SOL     OW  205   0.798   1.717   0.413  0.8043  0.5422  0.0823
   52SOL    HW1  206   0.775   1.805   0.391 -1.3224 -1.6131 -0.5537
   52SOL    HW2  207   0.844   1.676   0.337  0.0426 -1.2305  0.9591
   52SOL     MW  208   0.801   1.724   0.400  0.4232  0.0239  0.1141
   53SOL     OW  209   0.454   2.119   0.463  0.1680  0.5720 -0.0531
   53SOL    HW1  210   0.383   2.127   0.403 -0.3068  1.1292 -1.3379
   53SOL    HW2  211   0.425   2.185   0.531 -1.9481 -1.4736 -0.0132
   53SOL     MW  212   0.441   2.129   0.464 -0.1739  0.3757 -0.2174
   54SOL     OW  213   1.995   0.926   0.801 -0.1763 -0.5057  0.2078
   54SOL    HW1  214   2.018   0.946   0.710 -0.5975  1.3468  0.1640
   54SOL    HW2  215   1.992   0.828   0.801  1.0604 -2.0668 -1.1845
   54SOL     MW  216   1.997   0.915   0.789 -0.0687 -0.4672  0.0183
   55SOL     OW  217   0.543   1.564   1.611 -0.3170  0.0428 -0.1261
   55SOL    HW1  218   0.485   1.589   1.537  0.9711  1.3989 -1.5264
   55SOL    HW2  219   0.594   1.494   1.571 -0.4054 -0.5053 -1.4387
   55SOL     MW  220   0.542   1.558   1.596 -0.1587  0.1494 -0.4841
   56SOL     OW  221   0.615   0.845   0.185  0.0210  0.0644 -0.0025
   56SOL    HW1  222   0.652   0.932   0.186 -1.4475 -0.0311  1.6950
   56SOL    HW2  223   0.564   0.845   0.103  1.6048  3.3472  1.0662
   56SOL     MW  224   0.613   0.857   0.174  0.0362  0.4849  0.3624
   57SOL     OW  225   1.193   1.266   1.170  0.3884  0.5434 -0.5443
   57SOL    HW1  226   1.282   1.268   1.142 -0.6111  0.2908 -0.7527
   57SOL    HW2  227   1.176   1.216   1.247  0.9362  0.1595  0.5172
   57SOL     MW  228   1.202   1.259   1.176  0.3288  0.4594 -0.4318
   58SOL     OW  229   0.520   1.241   1.353  0.1284 -0.3827 -0.0115
   58SOL    HW1  230   0.510   1.337   1.343  2.0777 -0.8722  2.3904
   58SOL    HW2  231   0.539   1.240   1.449 -1.4560  2.2084  0.6427
   58SOL     MW  232   0.521   1.254   1.364  0.1765 -0.1054  0.3917
   59SOL     OW  233   1.547   1.693   0.361 -0.3323  0.1718  0.1016
   59SOL    HW1  234   1.592   1.727   0.441  0.9343  0.8802  0.1730
   59SOL    HW2  235   1.454   1.715   0.369  2.2251 -0.8994 -0.9650
   59SOL     MW  236   1.541   1.701   0.373  0.1722  0.1239 -0.0297
   60SOL     OW  237   0.049   0.225   1.672 -0.7001  0.5026  0.0244
   60SOL    HW1  238  -0.039   0.237   1.671  2.8386 -2.6435  0.9713
   60SOL    HW2  239   0.072   0.144   1.725 -0.3966 -0.3269  0.4381
   60SOL     MW  240   0.041   0.216   1.679 -0.1931 -0.0219  0.2039
   61SOL     OW  241   2.017   1.416   3.059 -0.9106 -0.2246 -0.2352
   61SOL    HW1  242   2.026   1.411   3.158  1.2505 -2.0665  0.6071
   61SOL    HW2  243   2.095   1.370   3.022  0.2576  0.3536  0.6186
   61SOL     MW  244   2.028   1.409   3.067 -0.4713 -0.3914 -0.0114
   62SOL     OW  245   0.593   1.683   0.591  0.1029 -0.4666 -0.4558
   62SOL    HW1  246   0.678   1.695   0.545 -0.1067 -5.4619  0.4716
   62SOL    HW2  247   0.581   1.595   0.588  2.5030  0.1296 -1.6273
   62SOL     MW  248   0.602   1.673   0.584  0.3919 -1.0470 -0.4880
   63SOL     OW  249   1.690   0.690   0.712  0.3363  0.1514 -0.3028
   63SOL    HW1  250   1.711   0.778   0.677 -1.4118  0.5681  1.1886
   63SOL    HW2  251   1.595   0.694   0.726  1.2391 -0.4880  2.8098
   63SOL     MW  252   1.680   0.702   0.709  0.2247  0.1220  0.3047
   64SOL     OW  253   0.221   1.732   0.843 -0.1678  0.3871  0.5068
   64SOL    HW1  254   0.288   1.766   0.789 -0.2466 -0.4951  0.8825
   64SOL    HW2  255   0.142   1.775   0.821  0.1213 -1.3250  0.4630
   64SOL     MW  256   0.220   1.742   0.833 -0.1401  0.0448  0.5506
   65SOL     OW  257   1.590   2.308   0.413 -0.0256 -0.3163  0.3836
   65SOL    HW1  258   1.656   2.256   0.458 -0.1691  1.4041 -0.9215
   65SOL    HW2  259   1.536   2.329   0.490  1.5486 -1.5220 -0.6941
   65SOL     MW  260   1.591   2.304   0.429  0.1631 -0.2484  0.0692
   66SOL     OW  261   0.297   0.517   0.536  0.1369 -0.1997 -0.1649
   66SOL    HW1  262   0.374   0.506   0.471  2.8977  1.6559 -1.9821
   66SOL    HW2  263   0.263   0.605   0.518  1.8884  0.4284 -0.7544
   66SOL     MW  264   0.303   0.527   0.525  0.7322  0.1280 -0.4825
   67SOL     OW  265   1.475   0.093   1.984 -0.1601  0.8502 -0.3669
   67SOL    HW1  266   1.490   0.114   1.887  0.6385 -0.2451 -2.2865
   67SOL    HW2  267   1.441   0.004   1.996  0.7108 -2.4607 -1.0978
   67SOL     MW  268   1.472   0.084   1.973  0.0602  0.2688 -0.7166
   68SOL     OW  269   0.696   0.038   2.983  0.5479 -0.0761 -0.0380
   68SOL    HW1  270   0.711   0.096   2.902 -0.5946 -0.6099 -3.0058
   68SOL    HW2  271   0.780   0.044   3.036 -0.3722 -1.0557  0.3878
   68SOL     MW  272   0.709   0.046   2.979  0.2757 -0.2757 -0.3734
   69SOL     OW  273   1.024   0.199   1.977 -0.4527  0.1143  0.0029
   69SOL    HW1  274   1.115   0.227   1.999 -1.8618 -0.2360  2.3785
   69SOL    HW2  275   1.018   0.109   2.009  0.4685 -1.9571  0.0424
   69SOL     MW  276   1.035   0.191   1.984 -0.5170 -0.2052  0.3215
   70SOL     OW  277   0.583   1.746   1.174 -0.3738  0.3228  0.2163
   70SOL    HW1  278   0.624   1.698   1.246 -1.1133  2.1525 -1.4298
   70SOL    HW2  279   0.651   1.802   1.132  0.6567  1.3428  0.7708
   70SOL     MW  280   0.597   1.747   1.178 -0.3354  0.6988  0.0723
   71SOL     OW  281   1.592   0.469   1.244  0.0233  0.2021  0.2041
   71SOL    HW1  282   1.543   0.549   1.273  0.1581  0.7532 -0.6226
   71SOL    HW2  283   1.599   0.496   1.152  2.2414  0.6567 -0.0130
   71SOL     MW  284   1.587   0.483   1.236  0.3337  0.3348  0.0663
   72SOL     OW  285   0.794   1.858   1.021  0.2225  0.4483  0.5401
   72SOL    HW1  286   0.781   1.892   0.930  2.0029  1.7959  2.9127
   72SOL    HW2  287   0.820   1.766   1.006 -0.5841 -1.6872 -0.5041
   72SOL     MW  288   0.796   1.851   1.007  0.3510  0.3443  0.7154
   73SOL     OW  289   1.175   0.744   1.295 -0.3533  0.3713  0.2924
   73SOL    HW1  290   1.118   0.668   1.304 -1.5982 -0.7092  1.4582
   73SOL    HW2  291   1.136   0.823   1.347  0.2719 -0.1556  2.5420
   73SOL     MW  292   1.163   0.745   1.303 -0.4351  0.1592  0.7430
   74SOL     OW  293   2.757   0.194   1.085  0.3733  0.0979  1.3052
   74SOL    HW1  294   2.811   0.154   1.017  0.7997 -2.0552 -0.2898
   74SOL    HW2  295   2.712   0.276   1.055 -0.3729  0.1372  1.6324
   74SOL     MW  296   2.758   0.199   1.072  0.3311 -0.1810  1.1379
   75SOL     OW  297   1.549   1.457   0.144  0.4516  0.1025 -0.3505
   75SOL    HW1  298   1.596   1.539   0.122  1.4328  0.1337  2.4686
   75SOL    HW2  299   1.600   1.415   0.212 -2.4185 -1.3161 -2.4063
   75SOL     MW  300   1.562   1.463   0.150  0.2024 -0.0805 -0.2498
   76SOL     OW  301   2.940   0.540   0.481  0.1890 -0.1068  0.0110
   76SOL    HW1  302   2.971   0.597   0.552  1.1439  1.4425 -1.5860
   76SOL    HW2  303   3.017   0.516   0.432 -0.4942  0.3261 -0.2929
   76SOL     MW  304   2.954   0.544   0.484  0.2248  0.1548 -0.2398
   77SOL     OW  305   0.834   0.577   0.479  0.2851 -0.2340 -0.1430
   77SOL    HW1  306   0.807   0.577   0.387 -1.2043  1.6623  0.5632
   77SOL    HW2  307   0.795   0.492   0.509 -0.8858  0.6433 -0.8303
   77SOL     MW  308   0.826   0.566   0.471 -0.0659  0.1319 -0.1405
   78SOL     OW  309   0.755   0.900   1.228  0.1892  0.0605 -0.5963
   78SOL    HW1  310   0.794   0.969   1.183 -0.3811 -2.5675  0.0378
   78SOL    HW2  311   0.676   0.874   1.177 -1.1589  1.9927 -1.4626
   78SOL     MW  312   0.749   0.906   1.216 -0.0639 -0.0313 -0.6270
   79SOL     OW  313   1.914   1.667   0.607 -0.5830  0.1894  0.1034
   79SOL    HW1  314   1.845   1.624   0.557 -1.2732 -2.9827 -1.0416
   79SOL    HW2  315   1.908   1.629   0.696 -0.2610 -3.4824 -0.9147
   79SOL     MW  316   1.904   1.657   0.612 -0.6316 -0.7136 -0.1820
   80SOL     OW  317   0.063   0.934   0.315 -0.2863 -0.2979  0.0868
   80SOL    HW1  318  -0.024   0.914   0.354 -1.3227 -0.7439  0.8555
   80SOL    HW2  319   0.113   0.876   0.369 -2.1390 -1.9670 -2.3077
   80SOL     MW  320   0.058   0.924   0.327 -0.6675 -0.5770 -0.1277
   81SOL     OW  321   1.895   1.857   0.308 -0.3778 -0.6115  0.1866
   81SOL    HW1  322   1.845   1.776   0.284 -0.2080  1.1061 -3.0758
   81SOL    HW2  323   1.835   1.925   0.263 -0.4610 -1.3463  0.6724
   81SOL     MW  324   1.881   1.855   0.299 -0.3663 -0.4819 -0.1797
   82SOL     OW  325   0.809   1.006   0.546  0.1077 -0.0971 -0.2610
   82SOL    HW1  326   0.794   1.022   0.447 -1.9607  0.7750 -0.4117
   82SOL    HW2  327   0.763   0.927   0.556  1.8222 -0.0061  1.4035
   82SOL     MW  328   0.801   0.998   0.534  0.0610  0.0299 -0.0613
   83SOL     OW  329   0.070   0.681   1.444  0.2912 -0.0570  0.1200
   83SOL    HW1  330   0.083   0.756   1.383  2.6454 -0.1298  0.1163
   83SOL    HW2  331   0.150   0.630   1.454  2.4151  2.0381  1.4360
   83SOL     MW  332   0.082   0.684   1.437  0.8820  0.2098  0.2931
   84SOL     OW  333   0.107   0.198   0.995 -0.3928 -0.2150 -0.6368
   84SOL    HW1  334   0.053   0.280   0.998  1.6637  2.2260  0.2285
   84SOL    HW2  335   0.076   0.139   1.062  0.2464 -1.1159 -0.7882
   84SOL     MW  336   0.096   0.201   1.005 -0.0372 -0.0118 -0.5426
   85SOL     OW  337   0.455   0.462   0.745  0.0134  0.1629 -0.1657
   85SOL    HW1  338   0.402   0.485   0.663 -1.7749  0.0694 -1.9028
   85SOL    HW2  339   0.433   0.374   0.756 -0.0004  3.7799  1.1885
   85SOL     MW  340   0.445   0.454   0.735 -0.2244  0.6278 -0.2162
   86SOL     OW  341   1.171   0.234   1.108 -0.0461  0.1637  0.0997
   86SOL    HW1  342   1.124   0.314   1.103  0.3781  1.8410  0.9418
   86SOL    HW2  343   1.254   0.268   1.138 -1.1451  0.3819  0.4365
   86SOL     MW  344   1.176   0.249   1.111 -0.1351  0.4138  0.2552
   87SOL     OW  345   1.215   1.548   1.283 -0.5223 -0.3476 -0.4709
   87SOL    HW1  346   1.246   1.583   1.200 -3.1805 -1.3715 -1.8702
   87SOL    HW2  347   1.236   1.460   1.284 -0.8259  2.2024 -2.0985
   87SOL     MW  348   1.222   1.541   1.273 -0.9131 -0.1462 -0.8703
   88SOL     OW  349   1.190   1.063   0.957 -0.1371 -0.3629  0.6232
   88SOL    HW1  350   1.285   1.055   0.929  0.9821 -2.0286 -4.0198
   88SOL    HW2  351   1.187   1.125   1.034  2.2883  0.6109 -0.0682
   88SOL     MW  352   1.202   1.070   0.963  0.3306 -0.4542 -0.0806
   89SOL     OW  353   1.744   0.745   0.362  0.2340  0.5921  0.1539
   89SOL    HW1  354   1.736   0.651   0.386  2.5303  1.0148 -0.3421
   89SOL    HW2  355   1.835   0.756   0.320  1.0113  0.4137  1.4224
   89SOL     MW  356   1.755   0.734   0.360  0.6396  0.6243  0.2558
   90SOL     OW  357   0.816   1.064   2.800 -0.1312  0.1347  0.0852
   90SOL    HW1  358   0.866   0.983   2.797 -1.7418  3.8750  0.2237
   90SOL    HW2  359   0.841   1.090   2.885  0.2662 -1.3888  0.4351
   90SOL     MW  360   0.826   1.056   2.811 -0.2913  0.4272  0.1496
   91SOL     OW  361   2.152   0.669   0.464  0.1420 -0.1961  1.4733
   91SOL    HW1  362   2.233   0.705   0.423  2.4596 -2.1323 -1.2067
   91SOL    HW2  363   2.156   0.573   0.453  0.6593 -1.4280 -1.8295
   91SOL     MW  364   2.163   0.661   0.457  0.5161 -0.6141  0.6839
   92SOL     OW  365   1.751   0.913   0.565 -0.0953 -0.2923 -0.2380
   92SOL    HW1  366   1.657   0.929   0.566  3.1499 -0.0439 -0.5901
   92SOL    HW2  367   1.760   0.857   0.484  1.0210  0.5759 -0.6524
   92SOL     MW  368   1.740   0.908   0.555  0.4801 -0.1449 -0.3391
   93SOL     OW  369   0.971   0.240   0.433  0.2158 -0.4814  0.1006
   93SOL    HW1  370   0.881   0.270   0.448  0.7125 -0.9023 -0.6324
   93SOL    HW2  371   0.995   0.274   0.344  2.0559 -1.3084 -0.9386
   93SOL     MW  372   0.962   0.248   0.424  0.5241 -0.6461 -0.1332
   94SOL     OW  373   1.856   1.374   1.683  0.2774  0.2889 -0.4386
   94SOL    HW1  374   1.888   1.359   1.588 -0.0564  1.0403  1.1931
   94SOL    HW2  375   1.842   1.283   1.709  1.5539  0.2895 -2.2472
   94SOL     MW  376   1.858   1.360   1.674  0.4018  0.3881 -0.4619
   95SOL     OW  377   0.802   1.570   0.954  0.2279 -0.8759 -0.0421
   95SOL    HW1  378   0.842   1.515   1.020  0.9681 -1.7732  0.5258
   95SOL    HW2  379   0.705   1.568   0.965 -0.5396  3.0809  0.7047
   95SOL     MW  380   0.795   1.563   0.964  0.2243 -0.4722  0.1313
   96SOL     OW  381   1.283   1.877   1.678  0.8783 -0.2859  0.3683
   96SOL    HW1  382   1.194   1.886   1.702  0.8357  0.2026 -2.6060
   96SOL    HW2  383   1.298   1.788   1.666  2.0137  3.5682 -2.7447
   96SOL     MW  384   1.273   1.866   1.679  1.0225  0.2871 -0.4349
   97SOL     OW  385   1.187   1.450   0.856 -0.6051 -0.3753  0.5864
   97SOL    HW1  386   1.195   1.513   0.926 -1.5015  0.1880 -0.1635
   97SOL    HW2  387   1.113   1.496   0.805  0.6547  0.6722 -0.8880
   97SOL     MW  388   1.179   1.464   0.859 -0.5572 -0.1627  0.2929
   98SOL     OW  389   1.439   1.285   1.081  0.1227  0.1043  0.5712
   98SOL    HW1  390   1.481   1.322   1.157 -0.4515 -2.0702  2.4775
   98SOL    HW2  391   1.400   1.360   1.034  2.3580 -0.7852  1.3616
   98SOL     MW  392   1.440   1.300   1.085  0.3418 -0.2999  0.9270
   99SOL     OW  393   1.380   0.291   1.280  0.1462 -0.9535 -0.0718
   99SOL    HW1  394   1.461   0.349   1.264 -1.8392  0.5426 -2.2178
   99SOL    HW2  395   1.325   0.340   1.343 -0.9543 -0.2596 -0.2865
   99SOL     MW  396   1.383   0.305   1.286 -0.2610 -0.6646 -0.3833
  100SOL     OW  397   1.044   1.187   1.390 -0.4485  0.2559 -0.0171
  100SOL    HW1  398   1.035   1.238   1.475  2.7253  2.5478 -1.0151
  100SOL    HW2  399   1.071   1.093   1.414 -0.3781 -0.2129 -0.9286
  100SOL     MW  400   1.046   1.181   1.404 -0.0205  0.4964 -0.2690
  101SOL     OW  401   0.504   1.173   0.318 -0.2084  0.1505 -0.9858
  101SOL    HW1  402   0.449   1.101   0.293 -0.8646  1.2526 -2.1739
  101SOL    HW2  403   0.597   1.147   0.290  1.7060  0.6976  0.8703
  101SOL     MW  404   0.509   1.160   0.311 -0.0424  0.3681 -0.8977
  102SOL     OW  405   2.890   0.653   0.988  0.8415 -0.2833 -0.9211
  102SOL    HW1  406   2.950   0.720   1.013  0.0302  1.5869  1.1820
  102SOL    HW2  407   2.850   0.611   1.067 -2.0979 -0.2741 -0.8491
  102SOL     MW  408   2.892   0.657   1.001  0.3466 -0.0353 -0.6341
  103SOL     OW  409   1.678   0.297   1.868 -0.0512 -0.0337 -0.0810
  103SOL    HW1  410   1.671   0.224   1.813  1.6248  0.8044  0.7332
  103SOL    HW2  411   1.647   0.264   1.958 -1.5739 -0.8891 -2.1373
  103SOL     MW  412   1.673   0.283   1.873 -0.0310 -0.0360 -0.2449
  104SOL     OW  413   0.146   1.511   1.613 -0.0023 -0.5134  0.3355
  104SOL    HW1  414   0.196   1.435   1.617  0.5953 -1.3863 -0.2740
  104SOL    HW2  415   0.052   1.485   1.596  1.3823 -1.4693 -1.9587
  104SOL     MW  416   0.140   1.497   1.611  0.2592 -0.7547 -0.0476
  105SOL     OW  417   0.058   1.227   0.398 -0.1883 -0.2698 -0.0692
  105SOL    HW1  418   0.101   1.145   0.385  1.9011 -3.2899 -1.6369
  105SOL    HW2  419   0.119   1.285   0.440 -1.3483  1.7469 -0.1003
  105SOL     MW  420   0.071   1.224   0.402 -0.0657 -0.4022 -0.2801
  106SOL     OW  421   0.826   0.348   0.996 -0.1841  0.1451  0.3263
  106SOL    HW1  422   0.772   0.428   0.992  1.2363  1.0917  2.0507
  106SOL    HW2  423   0.880   0.334   0.915 -1.2209  0.4685  0.0515
  106SOL     MW  424   0.826   0.357   0.985 -0.1335  0.3127  0.5175
  107SOL     OW  425   0.799   2.191   2.921 -0.0375  0.1154  0.1328
  107SOL    HW1  426   0.721   2.146   2.882  0.1981 -0.7624 -0.1458
  107SOL    HW2  427   0.816   2.156   3.011  1.3411  0.3577 -0.1338
  107SOL     MW  428   0.791   2.180   2.927  0.1755  0.0316  0.0609
  108SOL     OW  429   1.320   1.625   1.633  0.2631  0.6237 -0.0694
  108SOL    HW1  430   1.226   1.614   1.592 -1.6082  1.9230 -0.6975
  108SOL    HW2  431   1.383   1.577   1.575  1.0901  0.3124  4.0229
  108SOL     MW  432   1.316   1.618   1.620  0.1253  0.7541  0.3876
  109SOL     OW  433   1.980   0.775   0.258  0.4159  0.4018 -0.4770
  109SOL    HW1  434   2.031   0.856   0.265 -0.1840  1.5548  3.4957
  109SOL    HW2  435   2.027   0.729   0.332 -0.7635  1.7788  0.5272
  109SOL     MW  436   1.993   0.780   0.269  0.1811  0.7356  0.1796
  110SOL     OW  437   0.370   1.861   0.635  0.3401  0.6107 -0.4550
  110SOL    HW1  438   0.435   1.796   0.610 -0.4355  2.7678  2.7516
  110SOL    HW2  439   0.396   1.934   0.576  2.5790  0.1263 -0.6356
  110SOL     MW  440   0.382   1.862   0.624  0.5331  0.8314 -0.0557
  111SOL     OW  441   0.809   0.897   1.489 -0.4436 -0.1771 -0.1088
  111SOL    HW1  442   0.783   0.895   1.391  2.5124 -0.8926 -2.1493
  111SOL    HW2  443   0.787   0.810   1.517 -2.4952  1.8644 -2.0043
  111SOL     MW  444   0.802   0.885   1.480 -0.3243 -0.0021 -0.6281
  112SOL     OW  445   1.292   1.117   1.635 -0.0188 -0.0700 -0.1222
  112SOL    HW1  446   1.235   1.197   1.633 -0.3498 -0.6279 -0.1093
  112SOL    HW2  447   1.236   1.041   1.626 -1.6821  1.6869  1.2638
  112SOL     MW  448   1.277   1.118   1.633 -0.2819  0.0882  0.0624
  113SOL     OW  449   1.266   3.074   1.743  0.0989 -0.0214 -0.4634
  113SOL    HW1  450   1.285   3.027   1.826 -1.4703  0.2923  2.5310
  113SOL    HW2  451   1.291   3.009   1.677  1.2321 -2.6541  0.0693
  113SOL     MW  452   1.272   3.059   1.745  0.0414 -0.3274  0.0020
  114SOL     OW  453   0.276   2.848   1.934 -0.4346 -0.1907 -0.0741
  114SOL    HW1  454   0.297   2.916   1.992  1.9049 -0.0430 -1.0252
  114SOL    HW2  455   0.307   2.876   1.850 -1.6617 -0.9396  1.1306
  114SOL     MW  456   0.283   2.861   1.930 -0.2879 -0.2700 -0.0406
  115SOL     OW  457   0.516   0.848   1.125 -0.2309  0.2759 -0.1120
  115SOL    HW1  458   0.518   0.754   1.158 -1.8188 -1.8397 -0.8555
  115SOL    HW2  459   0.469   0.898   1.198 -0.8560 -0.1836  1.1398
  115SOL     MW  460   0.510   0.842   1.139 -0.5229 -0.0639 -0.0449
  116SOL     OW  461   0.797   1.070   0.971 -0.3819 -0.4713 -0.1560
  116SOL    HW1  462   0.826   1.104   0.887  0.0933 -0.8199  3.3187
  116SOL    HW2  463   0.853   1.121   1.037  1.3150  0.1425  1.6028
  116SOL     MW  464   0.808   1.081   0.969 -0.0953 -0.4363  0.5345
  117SOL     OW  465   1.188   1.202   0.726 -0.1667 -0.0486  0.1268
  117SOL    HW1  466   1.189   1.156   0.816  1.1161 -0.9521 -1.5522
  117SOL    HW2  467   1.204   1.292   0.753 -0.9578  1.8369 -0.2766
  117SOL     MW  468   1.190   1.208   0.741 -0.1018  0.0810 -0.1480
  118SOL     OW  469   3.033   2.961   1.665  0.0211 -0.3820 -0.2941
  118SOL    HW1  470   3.089   3.030   1.704 -0.0827  3.2052 -0.9125
  118SOL    HW2  471   2.952   3.010   1.633  1.9048  1.3423 -3.6057
  118SOL     MW  472   3.029   2.977   1.666  0.2560  0.3188 -0.8126
  119SOL     OW  473   0.469   1.477   1.208 -0.2484  0.6906 -0.4217
  119SOL    HW1  474   0.513   1.550   1.159 -0.3829  0.0553 -1.0079
  119SOL    HW2  475   0.377   1.495   1.187  1.5335  0.8369 -2.2950
  119SOL     MW  476   0.463   1.489   1.199 -0.0310  0.6261 -0.7462
  120SOL     OW  477   0.306   0.764   0.956  0.2260  0.3446 -0.0570
  120SOL    HW1  478   0.255   0.732   1.029 -0.8936  1.7641 -1.5148
  120SOL    HW2  479   0.386   0.794   0.996 -0.7197  1.2650 -0.1736
  120SOL     MW  480   0.310   0.764   0.971 -0.0465  0.6533 -0.2647
  121SOL     OW  481   1.753   1.125   1.716  0.3210 -0.3512 -0.4960
  121SOL    HW1  482   1.657   1.141   1.746  1.6384  1.5734 -1.0594
  121SOL    HW2  483   1.750   1.080   1.635  0.8713 -0.8721 -0.6702
  121SOL     MW  484   1.740   1.121   1.709  0.5674 -0.1660 -0.5933
  122SOL     OW  485   0.137   0.531   0.801  0.1989 -0.3545 -0.0168
  122SOL    HW1  486   0.162   0.470   0.732  0.9516 -2.0144  1.3661
  122SOL    HW2  487   0.217   0.589   0.807  2.6281 -1.3890 -0.0193
  122SOL     MW  488   0.151   0.531   0.793  0.6187 -0.7100  0.1653
  123SOL     OW  489   1.907   1.137   0.500 -0.4111 -0.0936  0.0740
  123SOL    HW1  490   1.845   1.067   0.527 -0.2544  0.3790  1.3945
  123SOL    HW2  491   1.957   1.147   0.582  0.3583 -0.0765 -0.4531
  123SOL     MW  492   1.905   1.129   0.514 -0.2889 -0.0290  0.1787
  124SOL     OW  493   0.637   0.569   0.941 -0.5810  0.2340 -0.4145
  124SOL    HW1  494   0.595   0.555   0.857 -1.7275  0.0609  0.1081
  124SOL    HW2  495   0.661   0.665   0.930 -1.8427 -0.4953 -0.1456
  124SOL     MW  496   0.634   0.580   0.928 -0.8987  0.1149 -0.3101
  125SOL     OW  497   0.655   1.777   1.717  0.3680 -0.3572  0.0721
  125SOL    HW1  498   0.595   1.703   1.699  1.8161  0.2977  0.6882
  125SOL    HW2  499   0.605   1.859   1.709 -0.7457  4.2701 -1.5475
  125SOL     MW  500   0.641   1.778   1.714  0.4121  0.3398 -0.0603
  126SOL     OW  501   2.101   1.587   1.961  0.4685 -0.0261 -0.0397
  126SOL    HW1  502   2.152   1.669   1.958  2.9171 -1.0765 -1.3674
  126SOL    HW2  503   2.172   1.530   1.991 -0.9194 -1.0325  0.7862
  126SOL     MW  504   2.117   1.591   1.965  0.6085 -0.2975 -0.1059
  127SOL     OW  505   0.612   0.791   1.823 -0.5377  0.0791  0.3788
  127SOL    HW1  506   0.691   0.765   1.871  0.3031 -1.0187  0.7031
  127SOL    HW2  507   0.578   0.862   1.878  2.0741  1.1555  2.1213
  127SOL     MW  508   0.618   0.797   1.836 -0.0822  0.0763  0.6515
  128SOL     OW  509   1.740   0.726   2.919 -0.9279 -0.2337 -0.2569
  128SOL    HW1  510   1.758   0.687   2.831  2.0715  2.5571  0.7910
  128SOL    HW2  511   1.748   0.821   2.915  0.6141  0.9396  0.9642
  128SOL     MW  512   1.743   0.733   2.907 -0.3287  0.2893  0.0425
  129SOL     OW  513   1.592   0.947   0.183  0.7567 -0.0518 -0.5607
  129SOL    HW1  514   1.551   0.864   0.152 -0.5889 -1.5797  0.7096
  129SOL    HW2  515   1.645   0.930   0.261  0.8136 -0.4911  0.6783
  129SOL     MW  516   1.594   0.934   0.189  0.5867 -0.3113 -0.2296
  130SOL     OW  517   0.747   1.388   0.320 -0.3719  0.2917  0.0032
  130SOL    HW1  518   0.749   1.384   0.419  1.9357 -1.2746 -0.7671
  130SOL    HW2  519   0.810   1.457   0.292  0.9198  2.6172 -0.9216
  130SOL     MW  520   0.756   1.397   0.329  0.1030  0.3919 -0.2204
  131SOL     OW  521   3.044   0.832   0.031  0.4758  0.3372  0.1284
  131SOL    HW1  522   3.031   0.869  -0.053 -1.5640 -0.6105  3.0552
  131SOL    HW2  523   3.140   0.820   0.046  0.1770  0.2375 -0.8602
  131SOL     MW  524   3.055   0.836   0.022  0.1672  0.1990  0.3841
  132SOL     OW  525   2.670   0.134   1.336 -0.0494  0.5207  0.2810
  132SOL    HW1  526   2.702   0.152   1.240 -1.3456  1.8190 -1.1016
  132SOL    HW2  527   2.598   0.071   1.320  0.3001 -1.5414  1.7998
  132SOL     MW  528   2.665   0.128   1.321 -0.1743  0.4199  0.2990
  133SOL     OW  529   1.056   0.164   1.700 -0.1517 -0.2883  0.4588
  133SOL    HW1  530   1.106   0.083   1.698 -1.4178 -1.5262  1.1422
  133SOL    HW2  531   1.027   0.173   1.793  1.4025 -3.0442  0.5549
  133SOL     MW  532   1.059   0.155   1.712 -0.1137 -0.8152  0.5617
  134SOL     OW  533   1.420   2.530   1.407  0.1327  0.3632 -0.0115
  134SOL    HW1  534   1.358   2.593   1.379  2.0329  1.1323  1.0404
  134SOL    HW2  535   1.434   2.549   1.500  0.4270 -1.1045  0.7663
  134SOL     MW  536   1.413   2.541   1.415  0.4223  0.2710  0.2299
  135SOL     OW  537   2.994   0.992   2.903  0.1750  0.5905 -0.4881
  135SOL    HW1  538   3.080   1.046   2.915  2.6409  0.8403 -0.8150
  135SOL    HW2  539   2.920   1.057   2.902 -0.5451 -2.0389 -0.3554
  135SOL     MW  540   2.995   1.008   2.904  0.4053  0.2765 -0.5137
  136SOL     OW  541   0.176   2.012   0.798  0.1653  0.0695 -0.1661
  136SOL    HW1  542   0.088   1.975   0.776 -1.6589 -0.5558 -0.3516
  136SOL    HW2  543   0.230   1.987   0.723 -0.1779 -0.2032  1.1574
  136SOL     MW  544   0.172   2.004   0.785 -0.1207 -0.0490 -0.0159
  137SOL     OW  545   0.696   2.023   0.531 -0.1746 -0.3954 -0.2923
  137SOL    HW1  546   0.708   2.013   0.628 -2.9333 -0.9618  2.1431
  137SOL    HW2  547   0.607   2.051   0.502 -1.2789 -0.7137  0.0438
  137SOL     MW  548   0.686   2.025   0.540 -0.6843 -0.5121  0.0734
  138SOL     OW  549   0.503   0.589   1.167 -0.1921  0.0450  0.1230
  138SOL    HW1  550   0.421   0.543   1.152 -1.0062  1.0882 -2.7501
  138SOL    HW2  551   0.552   0.579   1.081 -0.4117 -0.3822 -0.8200
  138SOL     MW  552   0.499   0.582   1.154 -0.3285  0.1263 -0.3805
  139SOL     OW  553   2.814   0.607   1.255  0.1444 -0.6993 -0.4867
  139SOL    HW1  554   2.872   0.541   1.296  0.9979 -2.6361  0.4925
  139SOL    HW2  555   2.820   0.671   1.328  1.6639  0.6265 -2.7066
  139SOL     MW  556   2.823   0.607   1.270  0.4575 -0.7800 -0.6504
  140SOL     OW  557   0.940   0.442   2.051  0.0429  0.5290  0.0772
  140SOL    HW1  558   0.961   0.353   2.032  1.4485  3.0821 -4.6386
  140SOL    HW2  559   0.954   0.437   2.148  2.1140  0.3330 -1.5506
  140SOL     MW  560   0.945   0.430   2.062  0.5016  0.8400 -0.7598
  141SOL     OW  561   1.036   0.631   1.761 -0.5487 -0.8020 -0.2423
  141SOL    HW1  562   1.081   0.554   1.727 -0.6295 -0.5823 -0.2997
  141SOL    HW2  563   1.112   0.692   1.766  0.6763 -0.4477  0.6831
  141SOL     MW  564   1.052   0.629   1.757 -0.3977 -0.7262 -0.1278
  142SOL     OW  565   0.905   1.164   0.752 -0.6021 -0.2022 -0.1360
  142SOL    HW1  566   0.874   1.108   0.677 -1.7681  2.4044  1.4692
  142SOL    HW2  567   1.001   1.163   0.741 -1.7169 -0.9690 -1.6144
  142SOL     MW  568   0.914   1.157   0.741 -0.9030  0.0405 -0.1192
  143SOL     OW  569   1.830   0.754   1.059 -0.4438 -0.1642  0.2663
  143SOL    HW1  570   1.886   0.737   0.986 -0.1395  0.5688  0.6147
  143SOL    HW2  571   1.745   0.715   1.030 -1.5191  2.4027  1.8387
  143SOL     MW  572   1.826   0.747   1.045 -0.5455  0.2712  0.5197
  144SOL     OW  573   0.291   1.284   1.641  0.0224  0.6049  0.0613
  144SOL    HW1  574   0.356   1.210   1.630 -0.3273 -0.1118  1.8392
  144SOL    HW2  575   0.271   1.278   1.736  2.1855 -0.8324 -0.0733
  144SOL     MW  576   0.297   1.273   1.652  0.2616  0.3207  0.2781
  145SOL     OW  577   0.244   0.497   1.177  0.8372 -0.0426  0.4057
  145SOL    HW1  578   0.278   0.418   1.224 -4.2561 -2.0644 -1.6671
  145SOL    HW2  579   0.156   0.459   1.136  0.0381  2.1445 -0.5000
  145SOL     MW  580   0.237   0.482   1.177  0.0597 -0.0208  0.0128
  146SOL     OW  581   0.857   1.979   1.404 -0.0420 -0.2676  0.1704
  146SOL    HW1  582   0.891   2.001   1.315  0.2516  1.6557 -0.8661
  146SOL    HW2  583   0.759   1.967   1.391 -0.1725  0.0588  1.6903
  146SOL     MW  584   0.849   1.980   1.390 -0.0205  0.0293  0.2342
  147SOL     OW  585   0.391   0.446   3.002 -0.5294  0.0171  0.5836
  147SOL    HW1  586   0.322   0.447   3.063  0.4872  1.1692  1.8047
  147SOL    HW2  587   0.387   0.534   2.961 -1.9557  0.2865 -1.0347
  147SOL     MW  588   0.382   0.457   3.005 -0.5835  0.2046  0.5312
  148SOL     OW  589   0.128   0.946   1.315 -0.1355  0.2718 -0.1299
  148SOL    HW1  590   0.225   0.952   1.317 -3.4598  2.9176  0.8867
  148SOL    HW2  591   0.095   0.999   1.387  3.3241  0.1114  1.0787
  148SOL     MW  592   0.137   0.954   1.325 -0.1177  0.5997  0.1637
  149SOL     OW  593   1.408   1.161   1.361  0.2862 -0.4500  0.5546
  149SOL    HW1  594   1.373   1.153   1.451  2.0893 -0.4897  0.0898
  149SOL    HW2  595   1.473   1.232   1.362 -0.1153 -1.9371 -2.9770
  149SOL     MW  596   1.412   1.169   1.373  0.4711 -0.6515  0.0273
  150SOL     OW  597   1.762   1.361   0.762 -0.7943  0.7024 -0.2519
  150SOL    HW1  598   1.786   1.274   0.804 -2.7910  1.5426 -1.3016
  150SOL    HW2  599   1.803   1.433   0.812  1.8057 -1.6272 -3.0158
  150SOL     MW  600   1.771   1.359   0.774 -0.7147  0.5059 -0.7551
  151SOL     OW  601   1.665   1.785   0.831  0.0183  0.1536 -0.2436
  151SOL    HW1  602   1.652   1.814   0.744  1.1990 -1.6378 -2.6694
  151SOL    HW2  603   1.615   1.698   0.838 -0.2180 -0.0660  1.5860
  151SOL     MW  604   1.657   1.777   0.821  0.1429 -0.1117 -0.3223
  152SOL     OW  605   0.781   1.408   1.559  0.2243  0.0742  0.8182
  152SOL    HW1  606   0.804   1.318   1.552 -2.4291  0.6085  1.2334
  152SOL    HW2  607   0.840   1.451   1.624  1.5731  0.9397  1.8026
  152SOL     MW  608   0.792   1.402   1.567  0.0522  0.2589  1.0029
  153SOL     OW  609   2.619   1.223   0.810  0.1898  0.0014  0.2090
  153SOL    HW1  610   2.698   1.190   0.751  1.3801 -0.7773 -1.8240
  153SOL    HW2  611   2.549   1.165   0.796 -0.9664  0.1309  1.5133
  153SOL     MW  612   2.621   1.211   0.801  0.1943 -0.0842  0.1129
  154SOL     OW  613   0.179   1.769   1.711 -0.0901 -0.6779 -0.0054
  154SOL    HW1  614   0.137   1.684   1.721  0.1103  2.0041  0.5219
  154SOL    HW2  615   0.266   1.740   1.691 -1.1944  1.3992 -0.1255
  154SOL     MW  616   0.185   1.754   1.710 -0.2094 -0.0500  0.0483
  155SOL     OW  617   1.188   0.650   0.239 -0.4141 -0.5154  0.1063
  155SOL    HW1  618   1.168   0.615   0.325  1.2198  3.9256 -0.2692
  155SOL    HW2  619   1.143   0.736   0.240  0.6368  2.4446 -2.5857
  155SOL     MW  620   1.179   0.656   0.251 -0.0599  0.4611 -0.2984
  156SOL     OW  621   1.505   3.021   1.095  0.1667 -0.7974 -0.4970
  156SOL    HW1  622   1.584   3.062   1.132 -0.4523  0.3541  2.1114
  156SOL    HW2  623   1.518   2.928   1.115  3.6856 -2.3155  0.7414
  156SOL     MW  624   1.517   3.014   1.103  0.5493 -0.8458  0.0105
  157SOL     OW  625   1.460   1.171   0.107 -0.4653  0.3829 -0.0246
  157SOL    HW1  626   1.485   1.072   0.125 -1.4984 -3.1507  0.8370
  157SOL    HW2  627   1.535   1.230   0.118  0.1973  0.7729 -1.0250
  157SOL     MW  628   1.473   1.166   0.111 -0.5142 -0.0319 -0.0429
  158SOL     OW  629   0.472   1.613   2.223 -1.1048 -0.1493  0.2280
  158SOL    HW1  630   0.476   1.680   2.155 -0.1963  0.1111  1.1225
  158SOL    HW2  631   0.395   1.636   2.275  0.9767  1.5379 -2.8481
  158SOL     MW  632   0.463   1.625   2.221 -0.7103  0.1077 -0.0598
  159SOL     OW  633   1.271   1.680   0.470 -0.4341  0.4067 -0.0675
  159SOL    HW1  634   1.239   1.610   0.406  0.2008 -0.1508 -1.4835
  159SOL    HW2  635   1.194   1.707   0.519  2.3507  0.5221 -0.3053
  159SOL     MW  636   1.257   1.675   0.468  0.0171  0.3484 -0.2857
  160SOL     OW  637   0.520   1.107   1.617  0.0318  0.4960 -0.2735
  160SOL    HW1  638   0.514   1.010   1.603 -0.8280  0.1586 -1.1204
  160SOL    HW2  639   0.609   1.128   1.639 -1.4969 -0.1672 -1.1438
  160SOL     MW  640   0.531   1.097   1.618 -0.2833  0.3640 -0.5001
  161SOL     OW  641   0.505   2.278   2.547  0.0525 -0.2253 -0.3058
  161SOL    HW1  642   0.410   2.279   2.574  0.3481  1.3520  1.1180
  161SOL    HW2  643   0.513   2.204   2.486 -0.8594 -1.3458 -1.5685
  161SOL     MW  644   0.494   2.268   2.542 -0.0288 -0.1650 -0.2845
  162SOL     OW  645   1.073   1.784   1.909  0.5186  0.0649 -0.1347
  162SOL    HW1  646   1.090   1.861   1.969 -1.8674 -1.8430  1.8822
  162SOL    HW2  647   0.988   1.756   1.947 -0.0487  4.0295 -0.6822
  162SOL     MW  648   1.064   1.791   1.922  0.1290  0.3362  0.0592
  163SOL     OW  649   2.112   3.061   0.861  0.0796 -0.8428 -0.6044
  163SOL    HW1  650   2.107   3.143   0.800  1.9100  1.8826 -1.5503
  163SOL    HW2  651   2.099   2.985   0.809 -0.2934 -0.9549  2.0358
  163SOL     MW  652   2.110   3.062   0.846  0.2719 -0.4980 -0.3809
  164SOL     OW  653   0.328   0.211   0.803 -0.0967  0.0605  0.4429
  164SOL    HW1  654   0.248   0.205   0.859  0.9498 -0.5240  0.8916
  164SOL    HW2  655   0.324   0.133   0.757  1.3237  0.4447  1.0744
  164SOL     MW  656   0.317   0.200   0.804  0.2288  0.0340  0.5854
  165SOL     OW  657   1.365   1.308   0.354 -0.1539 -0.0582  0.2829
  165SOL    HW1  658   1.369   1.221   0.390  0.4157  2.6766 -1.5253
  165SOL    HW2  659   1.420   1.296   0.275 -0.5946 -1.3533  0.9445
  165SOL     MW  660   1.372   1.295   0.349 -0.1369  0.1317  0.1316
  166SOL     OW  661   0.518   1.204   0.992 -0.1910 -0.0736 -0.2180
  166SOL    HW1  662   0.473   1.226   1.074  3.6451 -0.6522 -0.7580
  166SOL    HW2  663   0.601   1.163   1.021 -1.0113  0.6086 -1.0330
  166SOL     MW  664   0.523   1.201   1.006  0.2069 -0.0599 -0.3968
  167SOL     OW  665   0.806   1.084   0.278  0.4055 -0.6454 -0.0161
  167SOL    HW1  666   0.786   1.175   0.295  2.4828  2.7655  0.3036
  167SOL    HW2  667   0.894   1.072   0.252 -0.8238  0.9973  0.7626
  167SOL     MW  668   0.815   1.095   0.277  0.5174  0.0214  0.1288
  168SOL     OW  669   1.688   1.656   3.028  0.5590 -0.3135 -0.0824
  168SOL    HW1  670   1.616   1.718   3.032  0.0670 -1.4288 -0.7665
  168SOL    HW2  671   1.667   1.574   2.981 -4.5950  2.8326 -0.5290
  168SOL     MW  672   1.676   1.653   3.023 -0.1859 -0.0456 -0.2316
  169SOL     OW  673   0.396   0.991   1.336 -0.4280  0.2161 -0.4383
  169SOL    HW1  674   0.446   0.944   1.405 -2.1826 -1.3222  0.0993
  169SOL    HW2  675   0.423   1.084   1.348  1.7196 -0.1194 -0.2353
  169SOL     MW  676   0.406   0.997   1.347 -0.3761 -0.0311 -0.3406
  170SOL     OW  677   1.090   1.565   1.521 -0.6252  0.1437 -0.0735
  170SOL    HW1  678   1.013   1.618   1.510  2.0548  1.1476  2.1817
  170SOL    HW2  679   1.130   1.565   1.433 -0.0057  2.8036 -1.5138
  170SOL     MW  680   1.085   1.572   1.508 -0.1898  0.6271  0.0340
  171SOL     OW  681   0.541   1.412   0.622  0.5333  0.0061 -0.0325
  171SOL    HW1  682   0.531   1.440   0.716 -1.2403 -1.3254  1.5620
  171SOL    HW2  683   0.553   1.314   0.629  3.2189 -0.7739 -0.5819
  171SOL     MW  684   0.541   1.403   0.636  0.6537 -0.2725  0.1054
  172SOL     OW  685   0.888   0.290   1.284  0.3443 -0.5344  0.4918
  172SOL    HW1  686   0.866   0.265   1.193  0.7021 -0.4358 -2.2361
  172SOL    HW2  687   0.813   0.344   1.305  1.2508 -1.1908 -4.3269
  172SOL     MW  688   0.875   0.293   1.274  0.5111 -0.6080 -0.5039
  173SOL     OW  689   0.447   1.719   0.324 -0.0757  1.0549 -0.7567
  173SOL    HW1  690   0.458   1.640   0.265 -0.5390  1.2119 -0.8320
  173SOL    HW2  691   0.515   1.704   0.384  0.1929 -3.1284 -1.4523
  173SOL     MW  692   0.458   1.706   0.324 -0.1014  0.5237 -0.8584
  174SOL     OW  693   1.860   0.925   1.514  0.0164 -0.5532 -0.6352
  174SOL    HW1  694   1.794   0.855   1.533 -2.4633  0.2545 -0.4393
  174SOL    HW2  695   1.841   0.944   1.423 -1.8080  0.6517 -2.4267
  174SOL     MW  696   1.848   0.919   1.505 -0.5515 -0.2876 -0.8457
  175SOL     OW  697   0.499   1.461   0.225  0.2827  0.0382 -0.0205
  175SOL    HW1  698   0.427   1.392   0.218 -4.3912 -0.5293  0.0953
  175SOL    HW2  699   0.579   1.427   0.253  0.1843  0.2165 -0.9332
  175SOL     MW  700   0.500   1.447   0.228 -0.3469 -0.0132 -0.1257
  176SOL     OW  701   0.202   1.488   1.171 -0.6010  0.4064  0.3422
  176SOL    HW1  702   0.153   1.423   1.110  0.2330 -1.7255 -2.3961
  176SOL    HW2  703   0.128   1.519   1.229  2.7811 -1.7639  0.7898
  176SOL     MW  704   0.185   1.483   1.171 -0.0448 -0.1612  0.0400
  177SOL     OW  705   0.653   0.426   1.342 -0.9501 -0.5436 -0.0596
  177SOL    HW1  706   0.627   0.504   1.287  0.1115 -2.4797  2.8513
  177SOL    HW2  707   0.615   0.456   1.423 -1.3814  0.3159 -1.6171
  177SOL     MW  708   0.645   0.440   1.345 -0.8669 -0.6856  0.1190
  178SOL     OW  709   3.060   0.582   2.945  0.0807  0.2122  0.1935
  178SOL    HW1  710   2.982   0.585   2.998  0.3089  0.2569 -1.2675
  178SOL    HW2  711   3.040   0.546   2.854  1.5128 -2.0310 -0.5497
  178SOL     MW  712   3.047   0.578   2.940  0.2998 -0.0779 -0.0973
  179SOL     OW  713   1.586   1.382   1.296 -0.3080  0.7803  0.4594
  179SOL    HW1  714   1.577   1.395   1.392  0.5232 -1.3804 -1.8834
  179SOL    HW2  715   1.682   1.380   1.305 -1.3797 -1.0856 -2.3008
  179SOL     MW  716   1.598   1.384   1.310 -0.3397  0.2490 -0.2139
  180SOL     OW  717   3.007   0.241   0.452 -0.5553  0.4389  0.5519
  180SOL    HW1  718   2.956   0.259   0.371 -1.4553  1.2998 -0.0134
  180SOL    HW2  719   3.089   0.300   0.441  1.5791 -0.3150 -0.8839
  180SOL     MW  720   3.011   0.251   0.440 -0.3924  0.4530  0.2879
  181SOL     OW  721   1.119   1.335   3.087 -0.4591  0.2454 -0.4315
  181SOL    HW1  722   1.178   1.406   3.101 -1.6207 -2.1351  0.1159
  181SOL    HW2  723   1.180   1.272   3.049 -1.9119 -0.1272  0.1004
  181SOL     MW  724   1.135   1.336   3.084 -0.8041 -0.1179 -0.2891
  182SOL     OW  725   0.455   0.847   1.567 -0.4945 -0.6386  0.2605
  182SOL    HW1  726   0.366   0.830   1.615 -1.6274  2.8352 -2.8713
  182SOL    HW2  727   0.522   0.819   1.629  0.9437  2.4442 -0.3522
  182SOL     MW  728   0.452   0.841   1.581 -0.4542  0.2265 -0.2335
  183SOL     OW  729   1.590   1.603   1.153 -0.3475  0.8453  0.7764
  183SOL    HW1  730   1.553   1.673   1.200  3.5481  1.8600  0.9125
  183SOL    HW2  731   1.591   1.526   1.209  1.4526  0.1846  0.7848
  183SOL     MW  732   1.585   1.602   1.167  0.4040  0.8920  0.7955
  184SOL     OW  733   0.840   0.682   1.954  0.2403  0.2920 -0.6431
  184SOL    HW1  734   0.916   0.689   1.900 -1.7032  0.8718  1.1294
  184SOL    HW2  735   0.847   0.588   1.980  0.6994  1.6768 -0.1287
  184SOL     MW  736   0.851   0.670   1.950  0.0444  0.5512 -0.3414
  185SOL     OW  737   1.160   0.970   1.910 -0.6539  0.2541  0.0687
  185SOL    HW1  738   1.179   0.887   1.965  0.3267 -0.4355 -1.0791
  185SOL    HW2  739   1.196   1.035   1.964 -0.9651 -1.1004 -1.0842
  185SOL     MW  740   1.167   0.967   1.925 -0.5656 -0.0156 -0.2348
  186SOL     OW  741   0.373   1.662   1.411  0.4348 -0.7427 -0.2677
  186SOL    HW1  742   0.411   1.601   1.347 -4.2767 -0.1046  0.4967
  186SOL    HW2  743   0.300   1.614   1.443  1.8451 -1.6688  1.4885
  186SOL     MW  744   0.369   1.647   1.407 -0.0007 -0.7807  0.0649
  187SOL     OW  745   1.476   0.713   1.332  0.8452  0.2119 -0.3022
  187SOL    HW1  746   1.460   0.721   1.426  1.6666 -1.3109 -1.1815
  187SOL    HW2  747   1.384   0.713   1.298  0.7563  0.3020  3.9444
  187SOL     MW  748   1.462   0.714   1.340  0.9418  0.0229  0.1421
  188SOL     OW  749   1.885   1.167   0.905  0.1281 -0.3803  0.6072
  188SOL    HW1  750   1.888   1.158   0.998 -0.6844 -0.2630  0.6083
  188SOL    HW2  751   1.917   1.080   0.879  1.0272  1.1122 -2.8437
  188SOL     MW  752   1.890   1.155   0.914  0.1395 -0.1679  0.1520
  189SOL     OW  753   0.662   0.838   0.859  0.3683 -0.0499  0.6574
  189SOL    HW1  754   0.579   0.890   0.839  4.3325  0.2932 -0.2934
  189SOL    HW2  755   0.712   0.912   0.902  0.4290 -0.6946 -2.6099
  189SOL     MW  756   0.658   0.855   0.862  0.8994 -0.0897  0.1009
  190SOL     OW  757   1.917   0.237   2.182 -0.2479  0.0677 -0.0521
  190SOL    HW1  758   1.959   0.255   2.264  1.4322 -2.1655  0.2038
  190SOL    HW2  759   1.974   0.282   2.111 -0.5237 -0.8556 -1.1469
  190SOL     MW  760   1.930   0.245   2.183 -0.0626 -0.3488 -0.1627
  191SOL     OW  761   1.494   0.950   1.193  0.5712 -0.1307 -0.7555
  191SOL    HW1  762   1.458   1.015   1.254 -0.3894 -2.3798 -1.5182
  191SOL    HW2  763   1.509   0.870   1.249 -0.9493  0.1009 -0.4301
  191SOL     MW  764   1.491   0.948   1.208  0.2438 -0.3969 -0.8132
  192SOL     OW  765   0.602   2.086   2.764 -0.6642  0.2149 -0.3286
  192SOL    HW1  766   0.571   2.133   2.687  1.0922 -3.0056 -0.0320
  192SOL    HW2  767   0.643   2.004   2.733  2.3800 -0.7945 -0.6792
  192SOL     MW  768   0.603   2.082   2.750 -0.0308 -0.3432 -0.3357
  193SOL     OW  769   0.951   1.530   0.720 -0.3778  0.8208  0.1949
  193SOL    HW1  770   0.906   1.546   0.800 -2.2675  0.8704 -1.6202
  193SOL    HW2  771   0.899   1.461   0.664 -2.1788 -2.8343  2.9579
  193SOL     MW  772   0.938   1.523   0.723 -0.8648  0.3451  0.3199
  194SOL     OW  773   0.531   1.490   0.939 -0.1053  0.0715 -0.2667
  194SOL    HW1  774   0.541   1.403   0.980 -0.4702 -1.0126  2.0738
  194SOL    HW2  775   0.438   1.499   0.924  0.6276 -0.2309  0.1540
  194SOL     MW  776   0.520   1.480   0.943 -0.0567 -0.1114  0.0976
  195SOL     OW  777   1.295   1.170   2.964  0.3600 -0.0807 -0.6635
  195SOL    HW1  778   1.342   1.173   3.047 -2.0529  2.6211 -0.8347
  195SOL    HW2  779   1.229   1.097   2.961 -3.1556  2.7856 -0.0708
  195SOL     MW  780   1.292   1.161   2.975 -0.4222  0.6540 -0.6079
  196SOL     OW  781   2.183   0.999   0.588  0.0058 -0.3416 -0.9039
  196SOL    HW1  782   2.164   0.981   0.501  1.7108  1.3475  0.4453
  196SOL    HW2  783   2.179   1.098   0.585  0.4482  2.7003  1.0514
  196SOL     MW  784   2.180   1.009   0.576  0.2891  0.2826 -0.4679
  197SOL     OW  785   0.665   1.318   2.101  0.2305  0.7312 -0.1434
  197SOL    HW1  786   0.673   1.228   2.052 -2.5771  1.7308 -0.5713
  197SOL    HW2  787   0.608   1.371   2.041  1.3479 -0.2416 -0.3966
  197SOL     MW  788   0.659   1.313   2.086  0.0075  0.7347 -0.2333
  198SOL     OW  789   2.934   1.378   1.053 -0.3113  0.1966 -0.2252
  198SOL    HW1  790   2.898   1.453   1.007  0.4972 -1.3993 -2.7633
  198SOL    HW2  791   2.868   1.313   1.062 -0.3364 -0.1117  1.9232
  198SOL     MW  792   2.921   1.379   1.048 -0.2079 -0.0546 -0.2766
  199SOL     OW  793   0.504   1.408   1.886  0.5544  0.0175 -0.1467
  199SOL    HW1  794   0.432   1.350   1.905 -1.0957  0.0210 -0.3691
  199SOL    HW2  795   0.564   1.373   1.817  3.2826 -2.1737  2.3746
  199SOL     MW  796   0.502   1.396   1.879  0.6966 -0.2712  0.1566
  200SOL     OW  797   1.904   2.917   1.378 -0.2712 -0.4033  0.8016
  200SOL    HW1  798   1.934   2.922   1.285  3.4526 -1.3244 -1.8824
  200SOL    HW2  799   1.811   2.950   1.376  0.8647 -0.4642  0.8967
  200SOL     MW  800   1.896   2.922   1.366  0.3700 -0.5329  0.4600
  201SOL     OW  801   1.024   0.304   0.803 -0.6687  0.9620 -0.2035
  201SOL    HW1  802   1.009   0.218   0.771  2.2542  1.3052  0.3000
  201SOL    HW2  803   1.119   0.331   0.787  1.6396  0.0168 -0.1877
  201SOL     MW  804   1.035   0.296   0.797  0.0215  0.8826 -0.1350
  202SOL     OW  805   1.524   1.558   0.901 -0.1771  0.3148 -0.2905
  202SOL    HW1  806   1.532   1.468   0.863  1.0683 -0.4563  0.7829
  202SOL    HW2  807   1.558   1.550   0.991 -0.5406  0.2251 -0.6835
  202SOL     MW  808   1.530   1.545   0.908 -0.0607  0.2012 -0.2008
  203SOL     OW  809   2.995   0.448   1.378  0.2281  0.4443  0.5407
  203SOL    HW1  810   3.038   0.360   1.360 -1.9878  1.2494  0.8920
  203SOL    HW2  811   3.068   0.509   1.387  0.3412  0.3000  3.4787
  203SOL     MW  812   3.010   0.445   1.377 -0.0494  0.5315  0.9747
  204SOL     OW  813   1.017   1.769   0.570 -0.3651  0.2644  0.3632
  204SOL    HW1  814   1.000   1.700   0.635 -1.6280 -2.2542  0.2092
  204SOL    HW2  815   0.939   1.755   0.516 -0.4299 -0.8063  2.2297
  204SOL     MW  816   1.005   1.758   0.571 -0.5403 -0.2092  0.5891
  205SOL     OW  817   1.382   0.029   1.325  0.0040 -0.2744  0.1495
  205SOL    HW1  818   1.425  -0.017   1.256 -2.2127  1.3631 -1.8582
  205SOL    HW2  819   1.413   0.120   1.322  0.7958 -1.0337 -0.8175
  205SOL     MW  820   1.392   0.035   1.315 -0.1840 -0.1585 -0.2430
  206SOL     OW  821   0.475   3.035   1.403  0.4108  0.6675 -0.4540
  206SOL    HW1  822   0.418   3.013   1.324  2.9990 -0.9421 -1.0716
  206SOL    HW2  823   0.524   2.953   1.425 -1.1114 -0.8576  1.0462
  206SOL     MW  824   0.474   3.021   1.396  0.5515  0.2539 -0.3375
  207SOL     OW  825   0.912   1.566   0.206  0.4043  0.5450 -0.3143
  207SOL    HW1  826   0.924   1.653   0.165  2.1210  1.6798 -0.3008
  207SOL    HW2  827   1.004   1.534   0.226  0.1439  3.0561 -0.8521
  207SOL     MW  828   0.926   1.573   0.203  0.5964  1.0261 -0.3835
  208SOL     OW  829   0.746   1.623   1.336  0.2145  0.5797 -0.0965
  208SOL    HW1  830   0.799   1.640   1.411  1.0716 -2.3010 -1.3589
  208SOL    HW2  831   0.806   1.566   1.286 -2.3557  1.7676 -2.5625
  208SOL     MW  832   0.761   1.618   1.339 -0.0115  0.3563 -0.5884
  209SOL     OW  833   1.563   0.461   2.932  0.0114  0.3936 -0.3204
  209SOL    HW1  834   1.588   0.552   2.949 -0.4384  2.2167 -1.1063
  209SOL    HW2  835   1.644   0.427   2.887  2.3545  1.3139 -2.4785
  209SOL     MW  836   1.577   0.468   2.929  0.2612  0.7555 -0.7088
  210SOL     OW  837   1.505   1.280   0.766 -0.3183  0.5763 -0.4264
  210SOL    HW1  838   1.597   1.304   0.750  1.7924 -0.1810  0.6467
  210SOL    HW2  839   1.457   1.336   0.706 -1.4524 -0.5326  1.0151
  210SOL     MW  840   1.511   1.290   0.756 -0.1894  0.3301 -0.0946
  211SOL     OW  841   1.726   0.235   0.963  0.0536 -0.1275  0.0412
  211SOL    HW1  842   1.709   0.282   0.883 -1.6891  0.0155 -0.1053
  211SOL    HW2  843   1.817   0.260   0.986  0.6320  1.6081  0.2095
  211SOL     MW  844   1.736   0.245   0.956 -0.1000  0.1204  0.0441
  212SOL     OW  845   0.286   1.040   0.160 -0.3714  0.1956  0.2916
  212SOL    HW1  846   0.205   1.006   0.201 -1.7091  0.2837  0.5229
  212SOL    HW2  847   0.322   0.975   0.100  3.5935 -0.2767  1.0396
  212SOL     MW  848   0.280   1.027   0.157 -0.0247  0.1449  0.4208
  213SOL     OW  849   0.524   1.718   3.023 -0.5140  0.0640 -0.2016
  213SOL    HW1  850   0.523   1.788   3.095 -0.1835 -0.4541  1.1184
  213SOL    HW2  851   0.585   1.756   2.955 -0.9364 -1.7832 -0.1403
  213SOL     MW  852   0.532   1.733   3.024 -0.5261 -0.2481 -0.0193
  214SOL     OW  853   0.661   0.363   2.149  0.3313  0.2735  0.2411
  214SOL    HW1  854   0.573   0.413   2.174 -0.9409 -0.2400  0.4346
  214SOL    HW2  855   0.687   0.385   2.062 -0.1058 -1.3874 -1.2724
  214SOL     MW  856   0.653   0.373   2.141  0.1058 -0.0134  0.0670
  215SOL     OW  857   0.487   0.722   2.661  0.2430 -0.4428  0.4273
  215SOL    HW1  858   0.492   0.717   2.564 -2.3504 -3.8934 -5.1096
  215SOL    HW2  859   0.418   0.653   2.674 -0.5025 -0.4070  0.4935
  215SOL     MW  860   0.478   0.712   2.650 -0.1975 -0.8934 -0.2945
  216SOL     OW  861   2.945   3.016   2.700  0.5723 -0.4747  0.3780
  216SOL    HW1  862   2.894   3.040   2.776 -2.3534  3.5949  0.5411
  216SOL    HW2  863   2.999   3.091   2.674  3.3112 -2.3242  1.4191
  216SOL     MW  864   2.945   3.029   2.707  0.5477 -0.1818  0.5369
  217SOL     OW  865   1.044   1.105   0.132  0.1415  0.8359 -0.1435
  217SOL    HW1  866   1.074   1.044   0.066  0.9490 -0.9994  1.2486
  217SOL    HW2  867   1.067   1.196   0.115  2.2422 -1.0879  0.7711
  217SOL     MW  868   1.051   1.109   0.121  0.5252  0.3399  0.1608
  218SOL     OW  869   0.924   1.341   2.573  0.1211  0.6923  0.8282
  218SOL    HW1  870   0.907   1.264   2.631 -0.7092  0.3597 -0.9801
  218SOL    HW2  871   1.001   1.383   2.612 -0.0837  1.1523 -0.1551
  218SOL     MW  872   0.932   1.336   2.586 -0.0155  0.7091  0.4599
  219SOL     OW  873   1.120   0.357   2.630 -0.3624 -0.1635 -0.1253
  219SOL    HW1  874   1.186   0.415   2.667  1.3027  1.7657 -0.4420
  219SOL    HW2  875   1.045   0.416   2.628 -0.4295 -3.7315 -0.0669
  219SOL     MW  876   1.119   0.372   2.635 -0.1516 -0.3797 -0.1594
  220SOL     OW  877   1.750   0.456   2.210  0.0604  0.1509  0.1651
  220SOL    HW1  878   1.697   0.478   2.128 -3.4046  0.1440  0.7789
  220SOL    HW2  879   1.806   0.382   2.199  0.1182  1.2133 -0.4669
  220SOL     MW  880   1.750   0.449   2.198 -0.3891  0.2901  0.1627
  221SOL     OW  881   0.356   1.304   2.944 -0.3188  0.1102  0.0298
  221SOL    HW1  882   0.422   1.234   2.933  1.2831  2.2983 -1.8773
  221SOL    HW2  883   0.378   1.376   2.881  0.0306 -2.0467 -3.6061
  221SOL     MW  884   0.367   1.304   2.934 -0.0614  0.1143 -0.7015
  222SOL     OW  885   0.412   0.978   2.677  0.4116  0.1727 -0.4863
  222SOL    HW1  886   0.378   0.996   2.591 -0.4578 -0.9190  1.4979
  222SOL    HW2  887   0.443   0.886   2.671  3.5993  2.0353  1.3409
  222SOL     MW  888   0.412   0.968   2.665  0.7174  0.2744  0.0166
  223SOL     OW  889   0.076   2.032   2.508  0.1141 -0.1408 -0.4210
  223SOL    HW1  890   0.121   1.996   2.586  0.7016 -0.5251 -0.0831
  223SOL    HW2  891   0.081   2.127   2.518 -0.4592 -1.8146  3.0211
  223SOL     MW  892   0.083   2.040   2.520  0.1160 -0.4123  0.0777
  224SOL     OW  893   1.571   0.758   2.589  0.4442 -0.1562 -0.6861
  224SOL    HW1  894   1.573   0.806   2.670 -2.0091  0.4930 -1.0942
  224SOL    HW2  895   1.547   0.829   2.529  0.3227  2.3677 -0.7923
  224SOL     MW  896   1.568   0.773   2.592  0.1045  0.2624 -0.7539
  225SOL     OW  897   2.924   1.452   2.283  0.4577  0.2273 -0.4107
  225SOL    HW1  898   2.967   1.531   2.243  3.5393  1.3947 -2.6443
  225SOL    HW2  899   2.844   1.489   2.315  2.3638 -1.1160 -2.3920
  225SOL     MW  900   2.919   1.468   2.282  1.1158  0.2041 -0.9668
  226SOL     OW  901   0.432   1.497   2.733 -0.6065 -0.1033  0.4260
  226SOL    HW1  902   0.519   1.477   2.691  0.3670 -0.9640 -1.6517
  226SOL    HW2  903   0.408   1.584   2.719 -0.6458  0.4906  4.5087
  226SOL     MW  904   0.441   1.506   2.725 -0.4832 -0.1385  0.6905
  227SOL     OW  905   0.544   1.123   2.869  0.1299  0.5784  0.3689
  227SOL    HW1  906   0.634   1.133   2.842  0.6504 -1.5196  1.0632
  227SOL    HW2  907   0.508   1.076   2.795  1.8366 -0.4041  3.0423
  227SOL     MW  908   0.551   1.118   2.856  0.4238  0.1720  0.8132
  228SOL     OW  909   0.717   1.079   2.034 -0.1102  0.8115 -0.1521
  228SOL    HW1  910   0.795   1.090   1.974 -0.1480  2.4481  0.4651
  228SOL    HW2  911   0.751   1.055   2.119  0.3656  1.8251  0.4950
  228SOL     MW  912   0.732   1.077   2.037 -0.0524  1.1612  0.0147
  229SOL     OW  913   0.172   0.647   0.022 -0.6459  0.1907  0.4615
  229SOL    HW1  914   0.118   0.640  -0.057 -0.1824  0.8049  2.8222
  229SOL    HW2  915   0.157   0.566   0.066  0.0197  0.0412 -0.8750
  229SOL     MW  916   0.163   0.635   0.017 -0.4969  0.2520  0.5966
  230SOL     OW  917   1.685   1.311   2.008  0.3343  0.2432  0.2430
  230SOL    HW1  918   1.613   1.296   2.075 -2.1353  0.9508  0.0724
  230SOL    HW2  919   1.751   1.244   2.031  1.6301  1.2404  0.8288
  230SOL     MW  920   1.684   1.301   2.020  0.1795  0.4681  0.2978
  231SOL     OW  921   2.737   1.261   2.217  0.4189  0.6140  0.2839
  231SOL    HW1  922   2.795   1.335   2.211  2.5597  3.8789  0.8902
  231SOL    HW2  923   2.685   1.268   2.136  2.5412 -2.2938  0.1406
  231SOL     MW  924   2.738   1.272   2.205  0.9814  0.6611  0.3450
  232SOL     OW  925   2.243   0.874   2.003  0.3250 -0.3272  0.3536
  232SOL    HW1  926   2.168   0.861   1.942 -0.2739  0.5828 -0.0517
  232SOL    HW2  927   2.212   0.854   2.091  1.2711 -2.1515 -2.8073
  232SOL     MW  928   2.229   0.870   2.007  0.3708 -0.4479 -0.1170
  233SOL     OW  929   2.093   0.436   2.079  0.2661 -0.4430 -0.0653
  233SOL    HW1  930   2.171   0.384   2.072  1.3891  2.1393  2.1048
  233SOL    HW2  931   2.100   0.486   2.164  2.7400 -1.2989 -0.8642
  233SOL     MW  932   2.104   0.436   2.089  0.7407 -0.2152  0.1156
  234SOL     OW  933   0.214   1.063   2.485  0.0817 -0.2145  0.1997
  234SOL    HW1  934   0.121   1.058   2.460 -1.4639  2.2240  0.5320
  234SOL    HW2  935   0.215   1.150   2.528 -3.0055  0.0995  0.1373
  234SOL     MW  936   0.201   1.074   2.487 -0.5296  0.1486  0.2353
  235SOL     OW  937   1.129   3.063   2.769 -0.1292 -0.2937 -0.1143
  235SOL    HW1  938   1.148   3.001   2.843  0.2338  1.6555  0.3901
  235SOL    HW2  939   1.115   3.147   2.813  1.4430 -0.5639 -1.1225
  235SOL     MW  940   1.130   3.066   2.784  0.1261 -0.0721 -0.1808
  236SOL     OW  941   2.908   0.624   0.135  0.2248 -0.3054  0.0190
  236SOL    HW1  942   2.819   0.658   0.112  0.8644 -1.1644 -0.4083
  236SOL    HW2  943   2.981   0.683   0.111  2.4738  0.8120  1.1014
  236SOL     MW  944   2.906   0.636   0.128  0.6059 -0.2713  0.1055
  237SOL     OW  945   2.017   1.140   2.208  0.0865  0.6849  0.5640
  237SOL    HW1  946   1.970   1.122   2.127 -1.8910 -2.3108  0.8322
  237SOL    HW2  947   2.057   1.047   2.228 -1.5994 -0.5229  2.1050
  237SOL     MW  948   2.016   1.125   2.200 -0.3968  0.1303  0.8027
  238SOL     OW  949   1.081   1.811   2.948  0.1709 -0.1712  0.3326
  238SOL    HW1  950   1.041   1.724   2.961 -1.3183  1.4329  0.1160
  238SOL    HW2  951   1.174   1.790   2.946 -1.1255 -0.7897 -2.4331
  238SOL     MW  952   1.088   1.797   2.949 -0.1966 -0.0412 -0.0609
  239SOL     OW  953   1.299   1.425   2.384 -0.1419  0.3587  0.3651
  239SOL    HW1  954   1.205   1.447   2.369 -2.4460 -0.8820  0.7849
  239SOL    HW2  955   1.299   1.337   2.435 -2.4161  0.8602  0.1071
  239SOL     MW  956   1.287   1.417   2.389 -0.7459  0.2611  0.3865
  240SOL     OW  957   0.641   0.896   2.323 -0.2514  0.3168 -0.2004
  240SOL    HW1  958   0.682   0.947   2.402 -2.8453  0.6274  3.4031
  240SOL    HW2  959   0.713   0.843   2.289 -0.7401  1.1958  0.8156
  240SOL     MW  960   0.656   0.896   2.329 -0.6581  0.4737  0.4091
  241SOL     OW  961   0.675   0.388   0.009  0.0380  0.0971  0.2443
  241SOL    HW1  962   0.692   0.448   0.084  0.5917 -1.1865  2.1278
  241SOL    HW2  963   0.602   0.423  -0.039  0.9908  0.2116 -3.8102
  241SOL     MW  964   0.667   0.400   0.012  0.2368 -0.0571 -0.0421
  242SOL     OW  965   1.492   1.730   2.327 -0.2026  0.3136 -0.0655
  242SOL    HW1  966   1.462   1.821   2.340 -2.0082  0.0361  2.1356
  242SOL    HW2  967   1.431   1.703   2.255  0.4861 -0.8729  0.0213
  242SOL     MW  968   1.480   1.738   2.319 -0.3500  0.1204  0.2364
  243SOL     OW  969   1.021   0.172   2.469 -0.6681 -0.0120 -0.0260
  243SOL    HW1  970   1.090   0.169   2.402 -0.7914  0.1967  1.1618
  243SOL    HW2  971   1.069   0.236   2.530  0.3241  1.4989 -3.0128
  243SOL     MW  972   1.037   0.180   2.468 -0.5535  0.2149 -0.2633
  244SOL     OW  973   0.219   0.806   2.363 -0.5386  0.0988 -0.3403
  244SOL    HW1  974   0.216   0.896   2.390 -1.0421 -0.3865 -1.0019
  244SOL    HW2  975   0.305   0.771   2.387 -0.1851  2.0252  0.1780
  244SOL     MW  976   0.230   0.813   2.370 -0.5584  0.2889 -0.3592
  245SOL     OW  977   1.217   0.176   2.294 -0.4454 -0.7025  0.3017
  245SOL    HW1  978   1.279   0.107   2.286  1.4355  2.4449 -1.7622
  245SOL    HW2  979   1.263   0.247   2.351 -0.4820  0.7788 -0.0339
  245SOL     MW  980   1.231   0.176   2.301 -0.2021 -0.0918 -0.0149
  246SOL     OW  981   1.237   1.160   2.085 -0.0090  0.1605 -0.1656
  246SOL    HW1  982   1.192   1.117   2.159  0.3877  1.5170  1.5103
  246SOL    HW2  983   1.318   1.197   2.132  0.0591  0.6498 -1.0378
  246SOL     MW  984   1.242   1.159   2.101  0.0523  0.4040 -0.0596
  247SOL     OW  985   0.764   0.579   0.205 -0.3004  0.2352  0.0684
  247SOL    HW1  986   0.721   0.660   0.181  0.8157 -0.4792 -3.1768
  247SOL    HW2  987   0.852   0.570   0.150  1.9852 -1.0436  1.2066
  247SOL     MW  988   0.770   0.588   0.194  0.1484 -0.0278 -0.2096
  248SOL     OW  989   0.310   1.297   2.604 -0.0499 -0.0740  0.5892
  248SOL    HW1  990   0.335   1.308   2.513  2.8459 -0.8182  1.3676
  248SOL    HW2  991   0.364   1.365   2.644 -2.2788 -0.4436 -1.8675
  248SOL     MW  992   0.320   1.307   2.597  0.0381 -0.2209  0.3677
  249SOL     OW  993   0.167   1.877   2.734 -0.4279 -0.2156  0.8363
  249SOL    HW1  994   0.135   1.796   2.687 -0.6690 -0.1397 -2.2582
  249SOL    HW2  995   0.197   1.838   2.814 -0.7115 -0.2126 -0.1033
  249SOL     MW  996   0.167   1.861   2.739 -0.4971 -0.2052  0.3040
  250SOL     OW  997   2.176   0.929   2.293  0.0968 -0.2287  0.2223
  250SOL    HW1  998   2.224   0.849   2.293 -1.6710  1.3463 -3.4715
  250SOL    HW2  999   2.227   0.986   2.350 -1.4352  0.5392 -0.2196
  250SOL     MW 1000   2.189   0.926   2.301 -0.3386  0.0804 -0.3233
  251SOL     OW 1001   0.177   0.928   1.942  0.3476  0.0784 -0.5877
  251SOL    HW1 1002   0.161   0.858   2.004 -3.9709 -2.2370  0.7733
  251SOL    HW2 1003   0.167   0.895   1.849  0.1665 -0.2949  0.9473
  251SOL     MW 1004   0.174   0.915   1.938 -0.2461 -0.2763 -0.2056
  252SOL     OW 1005   1.735   1.016   2.890 -0.0745 -0.5436  0.0234
  252SOL    HW1 1006   1.741   1.068   2.974 -0.0163  2.1532  0.6150
  252SOL    HW2 1007   1.813   1.033   2.833  0.1084 -1.6766 -1.7320
  252SOL     MW 1008   1.746   1.025   2.894 -0.0427 -0.3373 -0.1302
  253SOL     OW 1009   1.161   1.784   2.545 -0.4327 -0.3466 -0.4253
  253SOL    HW1 1010   1.180   1.800   2.448 -1.0498  1.3972  1.8320
  253SOL    HW2 1011   1.077   1.831   2.553 -0.3705  0.1464 -1.0710
  253SOL     MW 1012   1.152   1.792   2.533 -0.5059 -0.0514 -0.2127
  254SOL     OW 1013   1.049   1.047   2.239 -0.5139  0.0800 -0.0259
  254SOL    HW1 1014   1.021   0.983   2.302 -1.6251  1.0593  0.9810
  254SOL    HW2 1015   0.985   1.126   2.249  0.4393  2.1909  0.6775
  254SOL     MW 1016   1.037   1.049   2.249 -0.5348  0.4877  0.1998
  255SOL     OW 1017   0.808   2.557   2.125 -0.2059  0.0118 -0.2398
  255SOL    HW1 1018   0.723   2.515   2.138 -0.6670  0.5297 -2.8465
  255SOL    HW2 1019   0.871   2.485   2.111  0.4253  1.7896  2.1820
  255SOL     MW 1020   0.805   2.542   2.125 -0.1834  0.3147 -0.2642
  256SOL     OW 1021   1.338   2.714   2.937 -0.2622  0.0560  0.0566
  256SOL    HW1 1022   1.303   2.627   2.905 -1.6872  0.0926 -2.5079
  256SOL    HW2 1023   1.391   2.747   2.865 -0.6635 -1.0622 -1.6743
  256SOL     MW 1024   1.341   2.707   2.923 -0.5032 -0.0867 -0.5102
  257SOL     OW 1025   0.189   1.923   0.033 -0.3798  0.0631  0.0243
  257SOL    HW1 1026   0.196   1.870   0.111  2.6952 -1.3625  1.4100
  257SOL    HW2 1027   0.212   1.865  -0.039  1.9388  0.9162 -0.0095
  257SOL     MW 1028   0.193   1.909   0.034  0.3318 -0.0125  0.2026
  258SOL     OW 1029   0.814   1.048   2.500 -0.1074 -0.0912  0.1978
  258SOL    HW1 1030   0.815   1.110   2.430 -2.6518 -1.8151  2.9569
  258SOL    HW2 1031   0.780   1.092   2.580  1.3922 -3.7038  1.4486
  258SOL     MW 1032   0.810   1.062   2.501 -0.2452 -0.7953  0.7269
  259SOL     OW 1033   0.886   0.376   2.326  1.0146  0.0889  0.0194
  259SOL    HW1 1034   0.801   0.346   2.288 -0.9233  0.4485  1.6693
  259SOL    HW2 1035   0.920   0.303   2.378 -3.2627 -1.5241 -0.1167
  259SOL     MW 1036   0.879   0.362   2.328  0.1946 -0.0765  0.2191
  260SOL     OW 1037   0.540   0.099   1.619 -0.0873 -0.0068  1.0877
  260SOL    HW1 1038   0.505   0.080   1.527 -0.9305  2.4445 -0.8349
  260SOL    HW2 1039   0.639   0.125   1.606  0.1348  1.0543  0.2604
  260SOL     MW 1040   0.549   0.100   1.605 -0.1693  0.4566  0.7249
  261SOL     OW 1041   1.172   0.728   2.042  0.2174  0.2767 -0.2285
  261SOL    HW1 1042   1.167   0.706   2.133  0.0595 -1.0220  1.0766
  261SOL    HW2 1043   1.138   0.651   2.003  0.6941  1.7964  2.4899
  261SOL     MW 1044   1.167   0.715   2.049  0.2595  0.3059  0.3023
  262SOL     OW 1045   1.047   0.294   0.163  0.1849 -0.0099 -0.1561
  262SOL    HW1 1046   1.143   0.276   0.162  1.8136  0.2520 -2.1019
  262SOL    HW2 1047   1.010   0.237   0.096  1.0011 -0.1373  1.2638
  262SOL     MW 1048   1.055   0.284   0.154  0.5075  0.0078 -0.2255
  263SOL     OW 1049   0.424   0.033   2.456  0.5715 -0.0182  0.5290
  263SOL    HW1 1050   0.341   0.084   2.444  0.6333  0.3958 -0.0110
  263SOL    HW2 1051   0.489   0.056   2.388  0.2430 -0.5116 -0.6537
  263SOL     MW 1052   0.422   0.042   2.446  0.5363 -0.0287  0.3017
  264SOL     OW 1053   1.490   1.350   1.810  0.5084  0.0458 -0.3859
  264SOL    HW1 1054   1.470   1.259   1.833  3.8469  0.0345 -1.5813
  264SOL    HW2 1055   1.574   1.361   1.857 -1.2540  0.4029 -1.2349
  264SOL     MW 1056   1.499   1.339   1.820  0.7164  0.0914 -0.6557
  265SOL     OW 1057   0.762   2.802   2.229  0.7545  0.2137 -0.6271
  265SOL    HW1 1058   0.798   2.718   2.195 -0.4459 -0.4125  0.0138
  265SOL    HW2 1059   0.768   2.795   2.324  3.2871  2.4282 -0.1828
  265SOL     MW 1060   0.768   2.790   2.237  0.9303  0.4232 -0.4839
  266SOL     OW 1061   0.857   0.762   2.215 -0.6097  0.1429  0.1108
  266SOL    HW1 1062   0.851   0.753   2.121 -0.0585 -1.4859 -0.0191
  266SOL    HW2 1063   0.870   0.674   2.239  0.7559  0.8683 -0.6297
  266SOL     MW 1064   0.858   0.749   2.206 -0.3568  0.0237 -0.0040
  267SOL     OW 1065   1.402   1.770   2.694 -0.5724  0.5339 -0.3752
  267SOL    HW1 1066   1.463   1.711   2.645  0.1060 -4.0996  0.9410
  267SOL    HW2 1067   1.311   1.755   2.654 -2.2841 -3.7246 -1.4125
  267SOL     MW 1068   1.398   1.760   2.682 -0.7087 -0.6393 -0.3384
  268SOL     OW 1069   0.203   0.852   1.653  0.2406  0.3413 -0.2303
  268SOL    HW1 1070   0.173   0.934   1.616  1.4426  0.8086  2.3011
  268SOL    HW2 1071   0.152   0.774   1.628 -0.0468  1.7776  2.3382
  268SOL     MW 1072   0.192   0.852   1.645  0.3612  0.5925  0.4425
  269SOL     OW 1073   1.393   1.998   2.342 -0.2720  0.0841 -0.6131
  269SOL    HW1 1074   1.471   2.048   2.325  0.3411 -0.0117 -1.0103
  269SOL    HW2 1075   1.311   2.052   2.355  2.5290  0.4787  1.0767
  269SOL     MW 1076   1.393   2.012   2.342  0.1785  0.1235 -0.4426
  270SOL     OW 1077   1.123   0.426   1.624  0.3962  0.4456  0.0270
  270SOL    HW1 1078   1.098   0.331   1.645  0.6781 -0.2884  1.9751
  270SOL    HW2 1079   1.216   0.429   1.625  1.6912  3.6738 -2.3483
  270SOL     MW 1080   1.132   0.414   1.627  0.6043  0.7747 -0.0294
  271SOL     OW 1081   0.837   0.022   2.597 -0.4577  0.3654  0.0288
  271SOL    HW1 1082   0.872  -0.061   2.633  2.0963 -0.7094 -1.0518
  271SOL    HW2 1083   0.914   0.063   2.550 -2.0570 -1.8370  0.2147
  271SOL     MW 1084   0.852   0.016   2.596 -0.3318 -0.0670 -0.0892
  272SOL     OW 1085   1.516   2.834   2.774 -0.0431 -0.0664  0.3637
  272SOL    HW1 1086   1.475   2.855   2.688 -0.5053  1.9629 -2.2011
  272SOL    HW2 1087   1.565   2.917   2.802  1.7798 -0.8264  0.1263
  272SOL     MW 1088   1.517   2.848   2.767  0.1364  0.1011 -0.0061
  273SOL     OW 1089   1.507   0.918   2.794  0.2768 -0.2005  0.3675
  273SOL    HW1 1090   1.595   0.950   2.829 -0.9585  0.7145 -2.2667
  273SOL    HW2 1091   1.466   0.995   2.759  1.2351 -0.3088 -0.4800
  273SOL     MW 1092   1.513   0.932   2.794  0.2402 -0.0941 -0.0919
  274SOL     OW 1093   1.435   0.714   0.120 -0.7442  0.2444  0.3050
  274SOL    HW1 1094   1.473   0.626   0.131 -0.8606 -0.4856  0.0292
  274SOL    HW2 1095   1.345   0.712   0.161 -0.0753 -0.6119 -0.5346
  274SOL     MW 1096   1.428   0.702   0.127 -0.6713  0.0351  0.1578
  275SOL     OW 1097   1.652   0.550   1.776 -0.3541 -0.3108 -0.0241
  275SOL    HW1 1098   1.699   0.576   1.856 -0.3791 -0.1084  0.7382
  275SOL    HW2 1099   1.645   0.455   1.789 -0.7410  0.4318 -0.8941
  275SOL     MW 1100   1.657   0.541   1.788 -0.4085 -0.1861 -0.0383
  276SOL     OW 1101   0.308   1.237   1.933  0.2092  0.0735  0.0678
  276SOL    HW1 1102   0.345   1.153   1.945  0.6703  0.5853 -0.1798
  276SOL    HW2 1103   0.241   1.253   2.004 -0.1327  4.1400 -0.1268
  276SOL     MW 1104   0.304   1.228   1.944  0.2249  0.6775  0.0095
  277SOL     OW 1105   1.907   1.157   2.457 -0.2148 -0.6880  0.2646
  277SOL    HW1 1106   1.945   1.233   2.505  2.9326 -1.5366 -0.1281
  277SOL    HW2 1107   1.951   1.160   2.371 -0.6374  4.1011  1.0622
  277SOL     MW 1108   1.918   1.168   2.452  0.1447 -0.1681  0.3180
  278SOL     OW 1109   1.421   0.684   1.687  0.5649  0.0555 -0.4867
  278SOL    HW1 1110   1.405   0.630   1.768  0.0209  1.1029 -0.8417
  278SOL    HW2 1111   1.517   0.687   1.687 -1.3599 -0.0090  0.0540
  278SOL     MW 1112   1.432   0.677   1.698  0.2392  0.1852 -0.4622
  279SOL     OW 1113   0.597   0.111   2.249 -0.4673  0.5260 -0.2517
  279SOL    HW1 1114   0.682   0.066   2.275  1.0333  0.6095  1.8746
  279SOL    HW2 1115   0.629   0.194   2.214  2.0473 -0.6783 -2.8742
  279SOL     MW 1116   0.613   0.116   2.248  0.0625  0.3781 -0.3172
  280SOL     OW 1117   1.473   0.956   2.157 -0.2820 -0.2070  0.3736
  280SOL    HW1 1118   1.523   0.888   2.109  0.5987  0.1444  2.7492
  280SOL    HW2 1119   1.483   0.937   2.247  1.0824  0.5705 -2.3762
  280SOL     MW 1120   1.481   0.945   2.162  0.0142 -0.0581  0.3242
  281SOL     OW 1121   1.353   1.317   2.742  0.1618 -0.0794  0.1033
  281SOL    HW1 1122   1.440   1.346   2.730 -1.5513  0.1540 -0.2751
  281SOL    HW2 1123   1.345   1.276   2.830 -2.0384 -0.9473  0.4873
  281SOL     MW 1124   1.363   1.316   2.752 -0.3545 -0.1631  0.1040
  282SOL     OW 1125   1.082   1.280   1.638  0.0659 -0.1838 -0.4489
  282SOL    HW1 1126   1.050   1.368   1.614 -1.2283  1.1144  1.3022
  282SOL    HW2 1127   1.067   1.263   1.733 -0.4005  1.0610 -0.8271
  282SOL     MW 1128   1.076   1.289   1.647 -0.1664  0.1517 -0.2677
  283SOL     OW 1129   0.803   1.248   2.997  0.3132  0.0281  0.1151
  283SOL    HW1 1130   0.870   1.238   3.069 -0.4222  0.5756  2.7638
  283SOL    HW2 1131   0.779   1.343   2.996  3.1465 -0.2597  1.0990
  283SOL     MW 1132   0.809   1.259   3.007  0.5900  0.0624  0.5944
  284SOL     OW 1133   0.471   0.685   2.390 -0.3034  0.4563  0.1045
  284SOL    HW1 1134   0.535   0.758   2.374 -1.4306  0.3462 -0.4409
  284SOL    HW2 1135   0.456   0.629   2.309  0.0201 -1.8376 -2.2492
  284SOL     MW 1136   0.477   0.687   2.377 -0.4094  0.1391 -0.2780
  285SOL     OW 1137   0.976   0.825   2.813 -0.1360 -0.1882  0.0419
  285SOL    HW1 1138   1.041   0.844   2.745 -2.5452 -1.1024 -0.0504
  285SOL    HW2 1139   0.903   0.778   2.771 -0.9279  1.2730  1.2559
  285SOL     MW 1140   0.975   0.821   2.799 -0.5583 -0.1160  0.1899
  286SOL     OW 1141   1.126   1.503   2.678  0.2583 -0.4728  0.1676
  286SOL    HW1 1142   1.208   1.451   2.672 -1.5156 -0.1264  1.7493
  286SOL    HW2 1143   1.137   1.577   2.618  0.9695  1.7061 -1.2426
  286SOL     MW 1144   1.138   1.506   2.669  0.1181 -0.1396  0.1903
  287SOL     OW 1145   1.139   0.930   0.361  0.4090 -0.0696  0.4225
  287SOL    HW1 1146   1.183   0.974   0.437 -1.6519  1.5836  0.9164
  287SOL    HW2 1147   1.115   1.000   0.307  0.5823 -0.8830 -2.0902
  287SOL     MW 1148   1.142   0.945   0.364  0.1599  0.0412  0.1561
  288SOL     OW 1149   1.554   0.563   2.061 -0.4165  0.1508 -0.3898
  288SOL    HW1 1150   1.520   0.595   2.145  0.4954  0.2556  2.1520
  288SOL    HW2 1151   1.587   0.638   2.016 -0.4818 -0.3423 -2.0195
  288SOL     MW 1152   1.554   0.577   2.066 -0.3048  0.0996 -0.2695
  289SOL     OW 1153   1.096   0.995   2.596  0.0891 -0.6096  0.2026
  289SOL    HW1 1154   1.132   0.909   2.588 -0.5573 -0.3517 -0.1476
  289SOL    HW2 1155   1.001   0.993   2.569  0.0758 -2.1616  0.1255
  289SOL     MW 1156   1.088   0.983   2.591  0.0020 -0.7803  0.1462
  290SOL     OW 1157   0.821   0.618   1.586 -0.3777 -0.4883  0.0995
  290SOL    HW1 1158   0.859   0.580   1.505 -0.6474  0.4631 -2.8169
  290SOL    HW2 1159   0.896   0.606   1.644 -3.2652  0.9726  2.3319
  290SOL     MW 1160   0.836   0.611   1.583 -0.7943 -0.1700  0.0092
  291SOL     OW 1161   0.188   0.375   0.135 -0.3739  0.0088  0.4240
  291SOL    HW1 1162   0.278   0.351   0.156  0.9133  2.7857 -2.6834
  291SOL    HW2 1163   0.161   0.335   0.049  0.1919 -0.2573 -0.2337
  291SOL     MW 1164   0.197   0.367   0.126 -0.1294  0.3401 -0.0728
  292SOL     OW 1165   0.987   0.554   0.064  0.4934 -0.2018 -0.0469
  292SOL    HW1 1166   1.051   0.587   0.126  0.4314  2.6230  0.7831
  292SOL    HW2 1167   1.005   0.459   0.059  0.0545  1.4678  1.8843
  292SOL     MW 1168   0.997   0.546   0.071  0.4273  0.3912  0.3174
  293SOL     OW 1169   0.158   0.121   2.429 -0.1426 -0.1933  0.1518
  293SOL    HW1 1170   0.094   0.078   2.371  2.5526 -1.0111 -0.2138
  293SOL    HW2 1171   0.115   0.140   2.511 -0.2728 -2.2961 -1.6487
  293SOL     MW 1172   0.144   0.118   2.432  0.1959 -0.5786 -0.1340
  294SOL     OW 1173   1.450   0.591   2.337  0.2841 -0.4203  0.2375
  294SOL    HW1 1174   1.517   0.635   2.385 -0.7343 -0.7876 -4.2646
  294SOL    HW2 1175   1.437   0.508   2.378 -2.3204  0.5820 -1.6979
  294SOL     MW 1176   1.457   0.586   2.349 -0.1939 -0.3365 -0.6119
  295SOL     OW 1177   0.938   0.537   2.538 -0.3932 -0.3568 -0.0828
  295SOL    HW1 1178   0.919   0.481   2.461  0.2370 -0.2759 -1.2413
  295SOL    HW2 1179   0.864   0.585   2.554  0.7837 -2.3720 -0.3504
  295SOL     MW 1180   0.926   0.536   2.530 -0.1548 -0.6120 -0.2709
  296SOL     OW 1181   1.279   0.276   2.053  0.0435 -0.0871 -0.5572
  296SOL    HW1 1182   1.337   0.204   2.021  0.9989  1.2778  1.5200
  296SOL    HW2 1183   1.251   0.247   2.143 -2.2997  1.3304 -1.3616
  296SOL     MW 1184   1.283   0.263   2.060 -0.1396  0.2800 -0.3892
  297SOL     OW 1185   1.406   0.407   1.578  0.3180  0.1958 -0.2240
  297SOL    HW1 1186   1.408   0.493   1.629 -0.8248  1.6824 -0.9226
  297SOL    HW2 1187   1.438   0.337   1.640 -0.1533 -1.2677 -1.4577
  297SOL     MW 1188   1.410   0.409   1.593  0.1051  0.1988 -0.4789
  298SOL     OW 1189   1.642   0.813   1.976  0.3006  0.5270  0.2722
  298SOL    HW1 1190   1.666   0.884   1.917 -3.6683  1.5409 -0.0657
  298SOL    HW2 1191   1.706   0.781   2.039 -4.1208 -1.4544  1.3339
  298SOL     MW 1192   1.654   0.818   1.976 -0.8064  0.3994  0.3677
  299SOL     OW 1193   0.561   1.097   0.040 -0.1628  0.4932  0.1171
  299SOL    HW1 1194   0.599   1.133  -0.038  1.7317 -4.4354 -3.0673
  299SOL    HW2 1195   0.506   1.159   0.082  0.7663 -1.5479  0.4062
  299SOL     MW 1196   0.559   1.110   0.035  0.2097 -0.4264 -0.2649
  300SOL     OW 1197   1.299   1.159   2.538  0.3239  0.1235 -0.4928
  300SOL    HW1 1198   1.225   1.099   2.561 -1.6295 -0.7002 -4.4270
  300SOL    HW2 1199   1.305   1.214   2.618 -0.1597 -0.9498 -0.4885
  300SOL     MW 1200   1.290   1.158   2.552  0.0023 -0.1268 -1.0113
  301SOL     OW 1201   1.461   0.890   0.647  0.4616  0.6574  0.5592
  301SOL    HW1 1202   1.450   0.903   0.743  2.2491  3.0015  0.1069
  301SOL    HW2 1203   1.379   0.847   0.628 -0.7482  0.1779  0.0528
  301SOL     MW 1204   1.449   0.886   0.657  0.5378  0.9034  0.4327
  302SOL     OW 1205   0.136   1.579   1.995 -0.3790  0.3506  0.7472
  302SOL    HW1 1206   0.167   1.510   2.052  1.0068 -1.6554 -0.4140
  302SOL    HW2 1207   0.063   1.621   2.034  2.3038  1.5293 -0.6532
  302SOL     MW 1208   0.130   1.575   2.008  0.1578  0.2414  0.4092
  303SOL     OW 1209   0.420   1.811   2.649  0.4152  0.1588  0.5259
  303SOL    HW1 1210   0.387   1.801   2.558  1.1369 -0.0443  2.2460
  303SOL    HW2 1211   0.353   1.852   2.702  2.0575 -3.6181  1.2406
  303SOL     MW 1212   0.407   1.815   2.644  0.7271 -0.3663  0.8471
  304SOL     OW 1213   0.543   2.072   2.394 -0.1992 -0.1449 -0.1183
  304SOL    HW1 1214   0.601   2.114   2.329 -0.6906 -0.2441  1.3305
  304SOL    HW2 1215   0.582   1.986   2.419 -2.8077  2.2130  2.1900
  304SOL     MW 1216   0.556   2.066   2.389 -0.6082  0.1531  0.3774
  305SOL     OW 1217   1.122   0.562   0.485 -0.4869 -0.3174 -0.0585
  305SOL    HW1 1218   1.025   0.563   0.492  0.2670 -0.8278  3.5062
  305SOL    HW2 1219   1.138   0.478   0.526  1.4797  1.2745  1.6947
  305SOL     MW 1220   1.112   0.551   0.491 -0.1279 -0.1747  0.6431
  306SOL     OW 1221   1.166   1.494   0.272  0.0349  0.8537  0.2797
  306SOL    HW1 1222   1.218   1.413   0.300  1.1122  1.0414 -1.2323
  306SOL    HW2 1223   1.202   1.515   0.188  0.3850 -1.0008  0.1973
  306SOL     MW 1224   1.178   1.486   0.264  0.2232  0.6338  0.0694
  307SOL     OW 1225   1.346   0.519   1.888 -0.1109 -0.6760 -0.2391
  307SOL    HW1 1226   1.310   0.445   1.942 -0.9335  0.7412 -1.1662
  307SOL    HW2 1227   1.434   0.534   1.932  2.7537  0.5306 -3.2812
  307SOL     MW 1228   1.353   0.511   1.901  0.1585 -0.3298 -0.7628
  308SOL     OW 1229   2.158   0.560   2.729  0.3291  0.7340 -0.5462
  308SOL    HW1 1230   2.246   0.520   2.736  2.2386 -1.4195 -0.3357
  308SOL    HW2 1231   2.153   0.647   2.695 -2.1508  1.0544 -1.7782
  308SOL     MW 1232   2.169   0.566   2.726  0.2538  0.4921 -0.6810
  309SOL     OW 1233   0.474   0.476   0.331 -0.4711  0.7291 -0.0323
  309SOL    HW1 1234   0.546   0.532   0.302  2.6746 -0.0652  0.4577
  309SOL    HW2 1235   0.485   0.394   0.283 -2.0048  0.7064  0.6424
  309SOL     MW 1236   0.485   0.473   0.321 -0.2584  0.6213  0.1214
  310SOL     OW 1237   0.433   0.618   1.954 -0.2781 -0.1874 -0.5765
  310SOL    HW1 1238   0.487   0.536   1.921  2.2923 -2.7897  0.7183
  310SOL    HW2 1239   0.469   0.689   1.899  2.0567 -2.3167 -1.4583
  310SOL     MW 1240   0.445   0.617   1.942  0.3691 -0.8117 -0.5220
  311SOL     OW 1241   1.857   0.596   1.954  0.0502 -0.1332 -0.1688
  311SOL    HW1 1242   1.859   0.654   2.027 -2.7202  0.7205 -1.8988
  311SOL    HW2 1243   1.928   0.535   1.967 -0.1680 -2.3795 -1.1973
  311SOL     MW 1244   1.867   0.596   1.965 -0.3441 -0.3170 -0.5328
  312SOL     OW 1245   1.825   2.512   0.143 -0.5804 -0.1817 -0.0508
  312SOL    HW1 1246   1.896   2.503   0.204 -0.2318 -0.3738 -0.5350
  312SOL    HW2 1247   1.754   2.559   0.194  0.6709  0.9485  1.2323
  312SOL     MW 1248   1.825   2.517   0.158 -0.3693 -0.0579  0.0546
  313SOL     OW 1249   0.155   1.122   2.966 -0.4352  0.2141 -0.4533
  313SOL    HW1 1250   0.100   1.145   3.046 -0.4275 -3.5040  0.0558
  313SOL    HW2 1251   0.211   1.193   2.939  2.0003 -3.2943 -0.0161
  313SOL     MW 1252   0.155   1.135   2.973 -0.1128 -0.7393 -0.3284
  314SOL     OW 1253   2.174   2.995   2.944 -0.3360  0.3059  0.1211
  314SOL    HW1 1254   2.120   3.055   2.895  1.0602 -0.3377 -1.1644
  314SOL    HW2 1255   2.213   3.052   3.010 -3.1950  1.4085 -1.2158
  314SOL     MW 1256   2.172   3.010   2.946 -0.5290  0.3665 -0.2249
  315SOL     OW 1257   1.543   1.897   3.060 -0.0189 -0.9851 -0.3156
  315SOL    HW1 1258   1.472   1.922   3.120 -2.3519 -0.2670  1.9521
  315SOL    HW2 1259   1.554   1.977   3.003  2.1257  0.0935 -0.9856
  315SOL     MW 1260   1.535   1.910   3.060 -0.0437 -0.7480 -0.1048
  316SOL     OW 1261   1.317   0.559   2.710  0.3482 -0.9511  0.1573
  316SOL    HW1 1262   1.405   0.607   2.704  3.2632  1.7926 -2.8015
  316SOL    HW2 1263   1.280   0.587   2.797 -1.7707 -2.5216  1.9453
  316SOL     MW 1264   1.324   0.569   2.721  0.4532 -0.7963  0.0029
  317SOL     OW 1265   0.673   1.449   2.592 -0.0546  0.0825  0.0218
  317SOL    HW1 1266   0.750   1.395   2.591  0.6314  0.0913 -0.8808
  317SOL    HW2 1267   0.681   1.508   2.508 -1.5133  1.5364 -2.9214
  317SOL     MW 1268   0.684   1.450   2.581 -0.1565  0.2755 -0.4856
  318SOL     OW 1269   1.329   0.334   2.966  0.0841  0.2112 -0.1853
  318SOL    HW1 1270   1.252   0.382   2.926 -2.1638 -0.3266  2.2626
  318SOL    HW2 1271   1.411   0.384   2.949 -1.9819 -0.6570  1.8313
  318SOL     MW 1272   1.329   0.347   2.959 -0.4851  0.0257  0.4037
  319SOL     OW 1273   0.816   0.445   2.863  0.7255 -0.2316  0.3222
  319SOL    HW1 1274   0.787   0.376   2.801 -1.3305 -0.9903 -0.1419
  319SOL    HW2 1275   0.803   0.417   2.954  0.2989  1.6247 -1.6776
  319SOL     MW 1276   0.810   0.432   2.867  0.3980 -0.0868 -0.0029
  320SOL     OW 1277   1.078   1.360   2.028  0.0635  0.1215 -0.3574
  320SOL    HW1 1278   1.148   1.302   2.062  0.6671 -1.7663 -0.3683
  320SOL    HW2 1279   1.119   1.418   1.962 -0.1746  0.0271 -0.2189
  320SOL     MW 1280   1.092   1.360   2.024  0.1117 -0.1400 -0.3405
  321SOL     OW 1281   1.145   0.951   3.011  0.0871 -0.3242 -0.4965
  321SOL    HW1 1282   1.069   0.910   2.977 -0.8379  1.0916  2.0021
  321SOL    HW2 1283   1.215   0.893   3.003 -1.2685  0.2526 -2.2830
  321SOL     MW 1284   1.144   0.938   3.005 -0.2138 -0.0613 -0.4026
  322SOL     OW 1285   1.200   0.850   1.667 -0.2045 -0.1883 -0.0638
  322SOL    HW1 1286   1.279   0.797   1.670 -1.0253  1.5430 -2.1382
  322SOL    HW2 1287   1.182   0.892   1.752  1.3642  0.9215  1.3904
  322SOL     MW 1288   1.208   0.848   1.678 -0.1058  0.1866 -0.1456
  323SOL     OW 1289   1.212   1.528   1.873  0.1584  0.0702  0.0686
  323SOL    HW1 1290   1.283   1.539   1.811  0.3655  0.6388  1.1679
  323SOL    HW2 1291   1.145   1.591   1.860  1.7727 -1.2324 -0.2282
  323SOL     MW 1292   1.213   1.538   1.863  0.3987 -0.0267  0.1744
  324SOL     OW 1293   1.496   0.978   2.429 -0.3422 -0.1134  0.0376
  324SOL    HW1 1294   1.422   1.015   2.468 -3.2240 -2.4726  0.1680
  324SOL    HW2 1295   1.563   1.050   2.445  1.5297 -1.5743 -4.3678
  324SOL     MW 1296   1.495   0.993   2.436 -0.4755 -0.6174 -0.5265
  325SOL     OW 1297   1.099   0.515   2.912  0.1664 -0.0541  0.4210
  325SOL    HW1 1298   1.102   0.578   2.981  2.1600  0.1932 -1.8869
  325SOL    HW2 1299   1.004   0.516   2.875 -1.9204  0.4937 -1.7225
  325SOL     MW 1300   1.087   0.523   2.916  0.1541  0.0508 -0.1663
  326SOL     OW 1301   0.464   1.367   2.320  0.2404  0.1690  0.3254
  326SOL    HW1 1302   0.551   1.333   2.281  1.2934 -2.7082  1.2882
  326SOL    HW2 1303   0.466   1.457   2.278  1.9411 -2.3352  1.7346
  326SOL     MW 1304   0.476   1.374   2.309  0.6037 -0.5410  0.6384
  327SOL     OW 1305   1.912   0.791   2.438 -0.3474  0.0298  0.1328
  327SOL    HW1 1306   1.899   0.744   2.527 -0.6457  0.9017  1.5161
  327SOL    HW2 1307   1.959   0.873   2.464  2.4013  1.5196 -1.3097
  327SOL     MW 1308   1.917   0.795   2.453 -0.0241  0.3414  0.1250
  328SOL     OW 1309   0.203   1.400   2.197 -0.4617  0.5622 -0.4278
  328SOL    HW1 1310   0.142   1.329   2.220  1.5477  0.2487  0.0154
  328SOL    HW2 1311   0.287   1.380   2.233 -1.6926  0.7126 -1.0719
  328SOL     MW 1312   0.206   1.388   2.205 -0.3590  0.5407 -0.4543
  329SOL     OW 1313   0.124   0.236   1.408 -0.5143  0.1903 -0.0892
  329SOL    HW1 1314   0.113   0.249   1.503  2.2059 -0.1841 -0.5055
  329SOL    HW2 1315   0.222   0.238   1.390  0.0719 -1.7046  2.9200
  329SOL     MW 1316   0.136   0.238   1.418 -0.0780 -0.1091  0.2529
  330SOL     OW 1317   0.383   3.090   2.078  0.3648 -0.0843 -0.0331
  330SOL    HW1 1318   0.459   3.129   2.128 -0.0898 -1.2422  0.9094
  330SOL    HW2 1319   0.327   3.061   2.151 -0.2585 -0.7819 -0.2043
  330SOL     MW 1320   0.385   3.092   2.094  0.2225 -0.3291  0.0686
  331SOL     OW 1321   0.853   1.240   2.301 -0.4451 -0.2794  0.9919
  331SOL    HW1 1322   0.779   1.277   2.252  0.0469 -0.3620 -1.3755
  331SOL    HW2 1323   0.884   1.310   2.363  0.8972  2.5301 -2.2861
  331SOL     MW 1324   0.847   1.254   2.303 -0.2031  0.0804  0.2471
  332SOL     OW 1325   1.354   1.719   2.953  0.1391 -0.6167  0.2104
  332SOL    HW1 1326   1.352   1.719   2.855 -0.5957 -2.6951 -1.0639
  332SOL    HW2 1327   1.421   1.786   2.972  2.7339 -2.5827 -1.5485
  332SOL     MW 1328   1.363   1.727   2.943  0.3845 -1.1503 -0.1898
  333SOL     OW 1329   1.724   1.396   2.963  0.0423 -0.1211  0.2891
  333SOL    HW1 1330   1.811   1.389   2.986 -0.3658 -0.3676  1.0755
  333SOL    HW2 1331   1.677   1.348   3.031  2.0033 -0.4460  0.7710
  333SOL     MW 1332   1.729   1.389   2.975  0.2472 -0.1965  0.4565
  334SOL     OW 1333   1.316   0.039   2.561 -0.4228  0.6484 -0.1548
  334SOL    HW1 1334   1.241   0.035   2.626 -1.1111  2.1867 -1.7817
  334SOL    HW2 1335   1.393   0.069   2.606 -0.2053  0.3680 -1.7359
  334SOL     MW 1336   1.316   0.042   2.576 -0.4849  0.8144 -0.5780
  335SOL     OW 1337   1.333   0.772   2.952 -0.2243  0.1203 -0.0400
  335SOL    HW1 1338   1.369   0.735   3.037 -4.7796 -0.0487  0.3562
  335SOL    HW2 1339   1.399   0.824   2.902  0.4220  0.4517 -0.3157
  335SOL     MW 1340   1.347   0.774   2.957 -0.7401  0.1417 -0.0241
  336SOL     OW 1341   0.947   1.151   1.876 -0.0222  0.2456 -0.0120
  336SOL    HW1 1342   0.986   1.222   1.918  1.5474 -0.6046 -3.8405
  336SOL    HW2 1343   1.006   1.075   1.880  1.6617 -0.3007  1.6434
  336SOL     MW 1344   0.960   1.150   1.882  0.4071  0.0614 -0.2987
  337SOL     OW 1345   0.650   1.830   2.810  0.1272 -0.1821 -0.7356
  337SOL    HW1 1346   0.574   1.833   2.748 -0.4993  0.7485 -1.8274
  337SOL    HW2 1347   0.703   1.767   2.768  0.1475  0.5421 -1.8622
  337SOL     MW 1348   0.647   1.822   2.796  0.0472  0.0362 -1.0283
  338SOL     OW 1349   1.144   0.728   2.567 -0.1052 -0.2186  0.9057
  338SOL    HW1 1350   1.063   0.669   2.550 -1.0400  1.0205 -0.3833
  338SOL    HW2 1351   1.215   0.669   2.605  1.0845  0.2138 -0.1571
  338SOL     MW 1352   1.143   0.712   2.570 -0.0716  0.0020  0.5954
  339SOL     OW 1353   1.485   1.073   1.829 -0.1476  0.0441  0.2724
  339SOL    HW1 1354   1.409   1.074   1.775  0.3600 -0.5649  0.8717
  339SOL    HW2 1355   1.473   1.036   1.917  2.7473 -0.3794  1.0822
  339SOL     MW 1356   1.474   1.068   1.834  0.3013 -0.0921  0.4583
  340SOL     OW 1357   1.305   1.536   0.048 -0.3084  0.3317 -0.2353
  340SOL    HW1 1358   1.314   1.582  -0.038 -2.0786 -2.4655  0.0685
  340SOL    HW2 1359   1.392   1.508   0.077  2.2103 -0.1517 -0.0853
  340SOL     MW 1360   1.318   1.538   0.040 -0.2096 -0.1011 -0.1754
  341SOL     OW 1361   0.056   1.366   2.757 -0.5834 -0.3332 -0.5334
  341SOL    HW1 1362   0.135   1.328   2.791 -1.9276 -0.7443  2.3368
  341SOL    HW2 1363   0.038   1.334   2.665 -0.7255  0.8528 -0.6071
  341SOL     MW 1364   0.064   1.357   2.749 -0.7795 -0.2310 -0.1644
  342SOL     OW 1365   1.316   0.321   0.142  0.2387  0.6559  0.6268
  342SOL    HW1 1366   1.376   0.389   0.172 -2.2860  0.1087 -1.1704
  342SOL    HW2 1367   1.331   0.323   0.046 -0.4794  0.6316 -2.0258
  342SOL     MW 1368   1.326   0.330   0.133 -0.1892  0.5805  0.0397
  343SOL     OW 1369   0.263   0.269   2.088 -0.1370  0.3185 -0.2694
  343SOL    HW1 1370   0.271   0.170   2.075 -4.7151 -2.6389 -1.2517
  343SOL    HW2 1371   0.180   0.281   2.042  0.5533 -0.8575 -1.5189
  343SOL     MW 1372   0.253   0.257   2.080 -0.6500 -0.2269 -0.5638
  344SOL     OW 1373   1.702   2.013   0.185 -0.3900  0.6011 -0.0161
  344SOL    HW1 1374   1.723   2.092   0.130  0.0248  0.1973 -1.4399
  344SOL    HW2 1375   1.630   1.970   0.139 -3.0679 -1.2065 -0.5112
  344SOL     MW 1376   1.695   2.018   0.171 -0.6886  0.3093 -0.2693
  345SOL     OW 1377   0.722   1.560   2.343 -0.3763 -0.3259  0.2026
  345SOL    HW1 1378   0.639   1.570   2.292 -0.9438 -1.7172  2.8445
  345SOL    HW2 1379   0.793   1.560   2.279  0.3778  0.0068 -0.1817
  345SOL     MW 1380   0.721   1.561   2.328 -0.3517 -0.4656  0.5005
  346SOL     OW 1381   1.761   1.127   0.043  0.0681  0.7296  0.2939
  346SOL    HW1 1382   1.843   1.087   0.068  0.1025 -0.0202  2.9881
  346SOL    HW2 1383   1.695   1.080   0.091  2.6405 -1.0299  0.1819
  346SOL     MW 1384   1.763   1.116   0.053  0.4120  0.3986  0.6346
  347SOL     OW 1385   1.174   0.653   2.305 -0.2937 -0.5315 -0.4084
  347SOL    HW1 1386   1.271   0.648   2.307 -1.2546 -2.1465 -0.1594
  347SOL    HW2 1387   1.149   0.688   2.389 -0.4418  2.1255  2.1095
  347SOL     MW 1388   1.183   0.657   2.317 -0.4401 -0.3940 -0.0433
  348SOL     OW 1389   1.342   2.652   1.902 -0.5521 -0.2008 -0.1497
  348SOL    HW1 1390   1.395   2.586   1.953 -0.9283 -1.2117 -0.4569
  348SOL    HW2 1391   1.359   2.726   1.964 -1.1814 -2.4482 -1.2674
  348SOL     MW 1392   1.351   2.653   1.917 -0.6847 -0.6307 -0.3377
  349SOL     OW 1393   1.449   0.236   2.739  0.0065 -0.2858 -0.0479
  349SOL    HW1 1394   1.381   0.252   2.806 -0.0027  1.1088  0.1184
  349SOL    HW2 1395   1.537   0.245   2.779  3.3321 -2.7929  2.0401
  349SOL     MW 1396   1.452   0.239   2.753  0.4441 -0.4326  0.2495
  350SOL     OW 1397   1.840   0.617   2.655 -0.2097 -0.6547 -0.0630
  350SOL    HW1 1398   1.783   0.597   2.582  2.7944 -1.7063  0.3411
  350SOL    HW2 1399   1.897   0.536   2.668  0.9554 -0.2989 -0.5738
  350SOL     MW 1400   1.840   0.604   2.647  0.3404 -0.7465 -0.0771
  351SOL     OW 1401   0.112   1.095   1.555  0.3353  0.5747  0.0067
  351SOL    HW1 1402   0.045   1.083   1.628  1.9582  2.5635  3.8210
  351SOL    HW2 1403   0.179   1.153   1.601 -1.9928  0.8553  0.9919
  351SOL     MW 1404   0.112   1.101   1.571  0.2422  0.8741  0.6400
  352SOL     OW 1405   0.826   1.636   2.701  0.8200  0.7258  0.3841
  352SOL    HW1 1406   0.883   1.593   2.764 -0.8634  0.1084 -0.5486
  352SOL    HW2 1407   0.771   1.568   2.657  0.2912 -2.7325  0.5337
  352SOL     MW 1408   0.826   1.622   2.704  0.5281  0.1880  0.2807
  353SOL     OW 1409   3.067   2.532   2.676 -0.3331 -0.1689  0.6075
  353SOL    HW1 1410   3.165   2.528   2.669  3.7465  1.7629  2.8704
  353SOL    HW2 1411   3.052   2.615   2.636  0.3760  0.2562  1.0599
  353SOL     MW 1412   3.078   2.542   2.670  0.2987  0.1421  0.9658
  354SOL     OW 1413   0.261   2.479   0.818  0.4738 -0.1834  0.3822
  354SOL    HW1 1414   0.309   2.461   0.897  1.2834 -1.4192  0.0036
  354SOL    HW2 1415   0.176   2.432   0.816 -0.1061 -2.1979 -0.6763
  354SOL     MW 1416   0.256   2.470   0.828  0.5041 -0.6123  0.1926
  355SOL     OW 1417   0.010   2.254   0.399 -0.0447 -0.0973  0.6086
  355SOL    HW1 1418  -0.081   2.220   0.398  0.8123  1.0207 -0.4184
  355SOL    HW2 1419   0.013   2.314   0.474 -1.2730 -0.9310 -2.0383
  355SOL     MW 1420  -0.002   2.258   0.409 -0.0937 -0.0598  0.1239
  356SOL     OW 1421   0.835   2.799   0.989  0.1602 -0.5974  0.3932
  356SOL    HW1 1422   0.881   2.844   0.908 -0.9256  1.4333 -1.0464
  356SOL    HW2 1423   0.743   2.802   0.965 -0.1368 -0.4263  1.0166
  356SOL     MW 1424   0.829   2.805   0.975 -0.0222 -0.3069  0.2855
  357SOL     OW 1425   1.772   2.936   0.389  0.5190 -0.1201 -0.0113
  357SOL    HW1 1426   1.707   2.888   0.440 -0.7132 -0.4149 -1.3832
  357SOL    HW2 1427   1.848   2.879   0.367 -2.6837 -0.2153 -1.3274
  357SOL     MW 1428   1.774   2.922   0.392 -0.0661 -0.1715 -0.3660
  358SOL     OW 1429   0.461   0.171   1.048 -0.1712  0.1850  0.0341
  358SOL    HW1 1430   0.547   0.133   1.037 -0.4976 -0.2536 -0.3242
  358SOL    HW2 1431   0.430   0.174   0.961 -0.6967  1.5552 -0.1533
  358SOL     MW 1432   0.468   0.166   1.035 -0.2836  0.3079 -0.0379
  359SOL     OW 1433   0.865   2.884   1.841  0.2465 -0.0360  0.1592
  359SOL    HW1 1434   0.842   2.793   1.831 -0.8431  0.3676  1.2445
  359SOL    HW2 1435   0.889   2.907   1.751 -0.5721  3.5874 -1.7931
  359SOL     MW 1436   0.865   2.875   1.828 -0.0053  0.4953  0.0448
  360SOL     OW 1437   0.575   2.782   0.914 -0.2036  0.0785 -0.0531
  360SOL    HW1 1438   0.568   2.741   0.829 -0.0984 -0.9605  1.3470
  360SOL    HW2 1439   0.576   2.707   0.976  0.0868  2.4568 -0.4626
  360SOL     MW 1440   0.574   2.767   0.911 -0.1514  0.2552  0.0776
  361SOL     OW 1441   0.181   2.619   1.369 -0.2257 -0.5232  0.0088
  361SOL    HW1 1442   0.167   2.686   1.434 -2.7518 -1.9185  0.8838
  361SOL    HW2 1443   0.278   2.602   1.356  1.1770  0.3540 -0.5307
  361SOL     MW 1444   0.192   2.626   1.376 -0.3739 -0.5915  0.0531
  362SOL     OW 1445   1.481   2.409   0.657 -0.6634  0.7003  0.2858
  362SOL    HW1 1446   1.486   2.368   0.748 -0.9044  0.0602  0.1680
  362SOL    HW2 1447   1.522   2.495   0.666 -0.6265  1.9403  0.4779
  362SOL     MW 1448   1.487   2.415   0.670 -0.6903  0.7795  0.2956
  363SOL     OW 1449   0.300   3.057   0.668 -0.0216 -0.2090  0.6507
  363SOL    HW1 1450   0.300   3.006   0.746 -0.9327  1.2013 -0.4666
  363SOL    HW2 1451   0.212   3.038   0.631  0.5843 -0.1696 -1.1736
  363SOL     MW 1452   0.288   3.048   0.673 -0.0618 -0.0178  0.2626
  364SOL     OW 1453   0.744   0.197   0.205  0.0094  0.2135  0.2852
  364SOL    HW1 1454   0.682   0.125   0.219  2.1161  1.6362 -0.4380
  364SOL    HW2 1455   0.715   0.251   0.127 -0.8029  0.0814  0.5320
  364SOL     MW 1456   0.732   0.195   0.196  0.1801  0.3838  0.2223
  365SOL     OW 1457   0.966   2.028   1.160 -0.4817  0.0518  0.5167
  365SOL    HW1 1458   0.948   2.106   1.116 -1.1410 -1.5038  2.9112
  365SOL    HW2 1459   0.923   1.952   1.111  2.7722 -1.2028  0.4171
  365SOL     MW 1460   0.958   2.028   1.148 -0.1394 -0.3189  0.8195
  366SOL     OW 1461   2.864   2.696   1.019  0.0437 -0.0224 -0.2740
  366SOL    HW1 1462   2.954   2.677   1.064  0.2422  1.5560 -0.4966
  366SOL    HW2 1463   2.894   2.716   0.927 -0.3675 -0.8333 -2.4570
  366SOL     MW 1464   2.880   2.696   1.013  0.0157  0.0789 -0.5914
  367SOL     OW 1465   1.222   2.985   0.887 -0.0588 -0.1281  0.4211
  367SOL    HW1 1466   1.234   3.055   0.820 -0.2865  1.5574 -0.6401
  367SOL    HW2 1467   1.190   2.915   0.830  1.6024 -0.9111  1.8301
  367SOL     MW 1468   1.220   2.985   0.871  0.1304 -0.0090  0.4670
  368SOL     OW 1469   1.659   0.414   0.724 -0.1086 -0.4415  0.2813
  368SOL    HW1 1470   1.737   0.382   0.677 -0.2042 -2.2917  1.0705
  368SOL    HW2 1471   1.651   0.509   0.725 -0.5323 -0.1761  2.0432
  368SOL     MW 1472   1.668   0.422   0.718 -0.1772 -0.6506  0.6179
  369SOL     OW 1473   0.157   2.447   1.788  0.6579 -0.3758  0.3570
  369SOL    HW1 1474   0.254   2.442   1.794 -1.6643  0.8071 -0.6164
  369SOL    HW2 1475   0.138   2.545   1.777 -0.3258  3.3041  0.3914
  369SOL     MW 1476   0.167   2.459   1.787  0.2217  0.2658  0.2331
  370SOL     OW 1477   0.717   0.094   0.994 -0.1673  0.0535 -0.9628
  370SOL    HW1 1478   0.747   0.184   1.000 -3.6063 -2.2504  1.7310
  370SOL    HW2 1479   0.800   0.056   1.014  2.1070  3.0747 -1.5537
  370SOL     MW 1480   0.732   0.101   0.998 -0.3210  0.1482 -0.6853
  371SOL     OW 1481   1.334   2.911   1.526  0.2147  0.0063 -0.2067
  371SOL    HW1 1482   1.284   2.834   1.491 -1.1181  0.7111 -1.5265
  371SOL    HW2 1483   1.330   2.986   1.465 -0.0829  2.0339  2.4787
  371SOL     MW 1484   1.327   2.911   1.514 -0.0004  0.3668 -0.0265
  372SOL     OW 1485   0.744   2.304   0.464  0.0343 -0.2632  0.0363
  372SOL    HW1 1486   0.737   2.220   0.504  0.6856  1.0888  1.1267
  372SOL    HW2 1487   0.785   2.291   0.367  2.6850  0.1568 -2.6100
  372SOL     MW 1488   0.748   2.291   0.456  0.4700 -0.0294 -0.1690
  373SOL     OW 1489   2.787   3.011   1.446  0.4782  0.1330  0.1539
  373SOL    HW1 1490   2.868   2.987   1.407  0.1555  0.5206 -0.9746
  373SOL    HW2 1491   2.759   3.088   1.400 -0.4318 -0.1634  0.4345
  373SOL     MW 1492   2.794   3.018   1.435  0.3155  0.1450  0.0420
  374SOL     OW 1493   1.544   0.443   0.216 -0.1473  0.0562 -0.1569
  374SOL    HW1 1494   1.585   0.356   0.221 -0.6340 -1.1608  0.0791
  374SOL    HW2 1495   1.513   0.449   0.304  1.4186  1.3733 -0.3297
  374SOL     MW 1496   1.545   0.432   0.229 -0.0049  0.0694 -0.1486
  375SOL     OW 1497   0.981   2.108   2.257 -0.1041 -0.1666  0.0424
  375SOL    HW1 1498   1.060   2.093   2.318 -0.8618  1.9768  2.0706
  375SOL    HW2 1499   0.985   2.030   2.200 -0.1691  3.4740 -3.0181
  375SOL     MW 1500   0.992   2.095   2.257 -0.2127  0.5965 -0.0938
  376SOL     OW 1501   0.748   2.540   0.090  0.0748  0.3063  0.5180
  376SOL    HW1 1502   0.680   2.497   0.144  3.9976  0.5000  0.8093
  376SOL    HW2 1503   0.742   2.496   0.004  0.7169 -3.0361 -2.2967
  376SOL     MW 1504   0.738   2.529   0.085  0.6771 -0.1091  0.1851
  377SOL     OW 1505   1.287   2.016   0.853 -0.2478 -0.0227 -0.4080
  377SOL    HW1 1506   1.204   1.997   0.803  2.8620  0.5060  0.7554
  377SOL    HW2 1507   1.273   1.990   0.942 -1.4314  2.0387 -0.8546
  377SOL     MW 1508   1.274   2.010   0.858  0.0063  0.3190 -0.3134
  378SOL     OW 1509   0.886   2.840   1.575 -0.1676  0.2455 -0.2970
  378SOL    HW1 1510   0.890   2.743   1.564 -0.6535 -1.9212 -0.3658
  378SOL    HW2 1511   0.904   2.882   1.489  0.8348  0.5306  0.2491
  378SOL     MW 1512   0.889   2.832   1.562 -0.0995 -0.0027 -0.2340
  379SOL     OW 1513   1.153   1.759   2.261  0.4521 -0.1573  0.2860
  379SOL    HW1 1514   1.063   1.725   2.264  0.5256 -3.3392 -1.3367
  379SOL    HW2 1515   1.207   1.709   2.201 -0.3347 -0.5607  0.3971
  379SOL     MW 1516   1.148   1.748   2.254  0.3580 -0.6303  0.0866
  380SOL     OW 1517   0.802   0.114   1.611  0.7147  0.1935 -0.8421
  380SOL    HW1 1518   0.823   0.091   1.522  0.2085 -2.5707  3.2618
  380SOL    HW2 1519   0.887   0.118   1.656  0.8774  2.1845 -0.7096
  380SOL     MW 1520   0.816   0.112   1.605  0.6694  0.0915 -0.2832
  381SOL     OW 1521   0.796   2.008   0.793 -0.2926 -0.3719  0.2080
  381SOL    HW1 1522   0.884   2.005   0.758  0.6745  1.7109  0.4489
  381SOL    HW2 1523   0.794   2.093   0.831  1.7578 -0.7890 -4.1636
  381SOL     MW 1524   0.807   2.019   0.793  0.1055 -0.1521 -0.3370
  382SOL     OW 1525   0.729   0.076   0.722 -0.0402  0.1421 -0.0510
  382SOL    HW1 1526   0.724   0.067   0.821 -1.7798  1.5039  2.7880
  382SOL    HW2 1527   0.682  -0.004   0.703  2.5867  1.2098 -0.4897
  382SOL     MW 1528   0.722   0.065   0.733  0.0769  0.4626  0.2657
  383SOL     OW 1529   0.542   3.094   0.261  0.3112  0.6091 -0.2589
  383SOL    HW1 1530   0.566   3.027   0.196  0.8262  0.7143  1.2249
  383SOL    HW2 1531   0.520   3.041   0.331  0.5566  0.4836 -1.9978
  383SOL     MW 1532   0.543   3.078   0.261  0.4115  0.6064 -0.2925
  384SOL     OW 1533   0.702   2.910   0.624 -0.5480  0.0152 -0.0183
  384SOL    HW1 1534   0.779   2.891   0.679  0.8514  0.6793  0.8869
  384SOL    HW2 1535   0.635   2.848   0.649  0.6871 -0.1545  1.4543
  384SOL     MW 1536   0.704   2.899   0.635 -0.2004  0.0804  0.2954
  385SOL     OW 1537   1.377   2.072   1.532 -0.1089 -0.4191  0.2493
  385SOL    HW1 1538   1.463   2.078   1.577 -0.2756  3.7328 -2.2012
  385SOL    HW2 1539   1.341   2.001   1.579  0.6628  0.2771 -2.3289
  385SOL     MW 1540   1.383   2.063   1.544 -0.0291  0.2206 -0.4142
  386SOL     OW 1541   1.307   0.385   0.895 -0.1281 -0.0071 -0.3162
  386SOL    HW1 1542   1.226   0.391   0.939  0.1263 -2.2068  1.5829
  386SOL    HW2 1543   1.346   0.311   0.940 -1.3672  1.3575 -1.8560
  386SOL     MW 1544   1.301   0.376   0.906 -0.2580 -0.1173 -0.2688
  387SOL     OW 1545   0.836   2.202   1.545  0.5046  0.2478 -0.1193
  387SOL    HW1 1546   0.887   2.271   1.500 -0.6961  0.7264 -0.3507
  387SOL    HW2 1547   0.845   2.126   1.485  0.7073  2.7402 -0.6806
  387SOL     MW 1548   0.844   2.201   1.531  0.3729  0.6398 -0.2239
  388SOL     OW 1549   1.523   2.764   1.181 -0.2283 -0.0405 -0.2794
  388SOL    HW1 1550   1.426   2.761   1.197  0.8218 -0.9985  2.4319
  388SOL    HW2 1551   1.545   2.706   1.108  1.9687  0.4098  2.1569
  388SOL     MW 1552   1.513   2.756   1.173  0.2001 -0.1075  0.3998
  389SOL     OW 1553   0.441   0.116   3.016 -0.3454  0.6684 -0.3142
  389SOL    HW1 1554   0.532   0.088   3.007 -0.9987  1.9998  0.6756
  389SOL    HW2 1555   0.445   0.177   2.940  3.0319  0.3501 -1.5684
  389SOL     MW 1556   0.454   0.121   3.005  0.0140  0.8021 -0.3491
  390SOL     OW 1557   1.289   0.083   0.692  0.2950  0.2928  0.6521
  390SOL    HW1 1558   1.346   0.054   0.617  1.4265  0.0440 -1.1048
  390SOL    HW2 1559   1.349   0.108   0.763  0.9125 -0.6468 -4.0085
  390SOL     MW 1560   1.305   0.083   0.692  0.5258  0.1360 -0.1946
  391SOL     OW 1561   0.346   2.236   1.415 -0.3145 -0.2601 -0.0116
  391SOL    HW1 1562   0.336   2.140   1.434 -1.6705  0.7610  0.9495
  391SOL    HW2 1563   0.269   2.286   1.432 -1.7416 -0.5821 -1.4720
  391SOL     MW 1564   0.335   2.230   1.420 -0.6817 -0.1679 -0.0775
  392SOL     OW 1565   2.016   2.216   0.313 -0.2480 -0.2084 -0.0299
  392SOL    HW1 1566   2.069   2.166   0.374 -0.6477  1.0570 -1.7890
  392SOL    HW2 1567   1.968   2.284   0.367 -0.2973 -0.2478 -2.0054
  392SOL     MW 1568   2.016   2.218   0.328 -0.3073 -0.0466 -0.5226
  393SOL     OW 1569   0.242   2.971   2.800  0.5088  0.1037 -0.1223
  393SOL    HW1 1570   0.339   2.948   2.788  2.8800  0.0222 -0.5263
  393SOL    HW2 1571   0.231   3.066   2.786  2.2582 -1.3461  1.2617
  393SOL     MW 1572   0.253   2.980   2.796  1.0525 -0.0983  0.0070
  394SOL     OW 1573   0.859   1.752   1.545  0.4547  0.1906 -0.6456
  394SOL    HW1 1574   0.785   1.759   1.609 -1.0453 -0.4576 -0.5285
  394SOL    HW2 1575   0.880   1.844   1.512  1.6895 -2.2909  0.0484
  394SOL     MW 1576   0.852   1.765   1.549  0.4197 -0.2223 -0.5386
  395SOL     OW 1577   0.960   2.842   2.660 -0.5851  1.1453  0.2738
  395SOL    HW1 1578   1.010   2.912   2.697 -0.1311 -0.2708  0.6100
  395SOL    HW2 1579   1.020   2.783   2.608 -0.2671  1.6693 -1.4752
  395SOL     MW 1580   0.975   2.843   2.658 -0.4832  1.0276  0.0874
  396SOL     OW 1581   0.713   1.849   2.376 -0.1103 -0.3079  0.0456
  396SOL    HW1 1582   0.768   1.885   2.449  1.4274  1.0908  1.9085
  396SOL    HW2 1583   0.721   1.754   2.380 -2.4532  3.0392 -0.2310
  396SOL     MW 1584   0.721   1.841   2.386 -0.2165  0.3183  0.2549
  397SOL     OW 1585   1.016   2.326   1.345  0.3820  0.3692  0.9993
  397SOL    HW1 1586   1.055   2.356   1.266 -1.6365 -0.8935  0.5257
  397SOL    HW2 1587   1.089   2.325   1.405 -3.5885  0.6103  0.5003
  397SOL     MW 1588   1.031   2.330   1.343 -0.4082  0.2344  0.8710
  398SOL     OW 1589   0.536   2.665   0.679  0.7993  0.0811  0.1549
  398SOL    HW1 1590   0.453   2.629   0.673  0.1839  1.0913 -3.1193
  398SOL    HW2 1591   0.598   2.590   0.663 -2.1882  0.1481  2.2217
  398SOL     MW 1592   0.533   2.650   0.676  0.3240  0.2232 -0.0044
  399SOL     OW 1593   0.229   2.093   0.296 -0.2401  0.0116 -0.5290
  399SOL    HW1 1594   0.167   2.161   0.317 -1.6464 -0.8124 -0.3445
  399SOL    HW2 1595   0.254   2.107   0.199 -0.7223  0.0232 -1.2261
  399SOL     MW 1596   0.224   2.104   0.286 -0.4893 -0.0956 -0.5966
  400SOL     OW 1597   0.517   1.935   0.087  0.0925 -0.1344  0.0477
  400SOL    HW1 1598   0.464   2.016   0.072 -2.4910 -0.8913 -2.4403
  400SOL    HW2 1599   0.478   1.883   0.159  1.5877 -0.2203  2.1779
  400SOL     MW 1600   0.505   1.939   0.095 -0.0511 -0.2456  0.0005
  401SOL     OW 1601   0.760   2.056   0.059  0.5009 -0.4258 -0.1522
  401SOL    HW1 1602   0.824   1.986   0.087 -0.1509  0.8349 -0.0527
  401SOL    HW2 1603   0.678   2.003   0.068  0.7309 -1.6522 -0.8531
  401SOL     MW 1604   0.757   2.040   0.064  0.4452 -0.4213 -0.2315
  402SOL     OW 1605   0.602   2.977   1.751  0.2834 -0.1411 -0.4001
  402SOL    HW1 1606   0.681   2.956   1.797  0.1869  1.5587 -2.8101
  402SOL    HW2 1607   0.613   3.068   1.723  0.8045  0.0740 -1.2831
  402SOL     MW 1608   0.614   2.986   1.753  0.3395  0.1116 -0.8346
  403SOL     OW 1609   0.095   0.422   0.390  0.3459 -0.2593  0.2408
  403SOL    HW1 1610   0.160   0.454   0.458  1.6715  1.5098 -1.5354
  403SOL    HW2 1611   0.133   0.443   0.305 -1.2892 -2.6281  1.1578
  403SOL     MW 1612   0.109   0.429   0.387  0.3051 -0.3385  0.1275
  404SOL     OW 1613   0.955   2.928   0.759  0.4978 -0.3725  0.0017
  404SOL    HW1 1614   1.020   2.857   0.748 -0.1631 -1.1811 -1.6060
  404SOL    HW2 1615   0.996   2.995   0.703 -0.0462 -0.3539 -2.1850
  404SOL     MW 1616   0.969   2.927   0.750  0.3388 -0.4767 -0.4989
  405SOL     OW 1617   0.534   2.421   1.538  0.3426  0.8098  0.1021
  405SOL    HW1 1618   0.516   2.484   1.466 -0.3128  0.5566 -2.7500
  405SOL    HW2 1619   0.462   2.358   1.515 -0.3886 -1.4830 -0.6257
  405SOL     MW 1620   0.522   2.421   1.526  0.1597  0.4739 -0.3702
  406SOL     OW 1621   0.364   2.400   1.068 -0.2030 -0.0043 -0.4616
  406SOL    HW1 1622   0.272   2.397   1.091 -0.4999  1.6983  1.0915
  406SOL    HW2 1623   0.401   2.318   1.106  0.8193  0.0286  1.2765
  406SOL     MW 1624   0.357   2.389   1.076 -0.1073  0.2247 -0.0274
  407SOL     OW 1625   0.009   2.659   1.149  0.5395  0.1950  0.0209
  407SOL    HW1 1626   0.081   2.653   1.219  0.9761  0.8786  1.6993
  407SOL    HW2 1627   0.058   2.678   1.067 -1.2213  0.7401  1.6009
  407SOL     MW 1628   0.025   2.660   1.147  0.3648  0.3571  0.4508
  408SOL     OW 1629   2.175   2.173   0.639 -0.1335  0.0224 -0.6697
  408SOL    HW1 1630   2.146   2.207   0.724 -2.5407  1.0150 -0.4330
  408SOL    HW2 1631   2.104   2.111   0.623  0.0664  2.3466  2.2480
  408SOL     MW 1632   2.162   2.169   0.648 -0.4248  0.4600 -0.2535
  409SOL     OW 1633   1.432   0.151   0.940 -0.2296 -0.0853  0.1967
  409SOL    HW1 1634   1.524   0.186   0.935  0.2358  0.5892 -2.1559
  409SOL    HW2 1635   1.437   0.065   0.983 -2.4826  0.1233 -0.3973
  409SOL     MW 1636   1.445   0.144   0.945 -0.4654  0.0312 -0.1921
  410SOL     OW 1637   1.113   2.444   1.106 -0.2679 -0.3369 -0.0449
  410SOL    HW1 1638   1.049   2.480   1.048 -0.6206  2.1630  1.0990
  410SOL    HW2 1639   1.157   2.378   1.041 -1.3647 -1.0776 -2.4039
  410SOL     MW 1640   1.110   2.440   1.090 -0.4591 -0.1048 -0.2052
  411SOL     OW 1641   1.970   0.075   2.867 -0.2297 -0.4646 -0.1757
  411SOL    HW1 1642   1.903   0.028   2.821 -1.0170 -2.0665  0.2031
  411SOL    HW2 1643   1.925   0.124   2.931 -1.0953  1.8035  0.0373
  411SOL     MW 1644   1.955   0.075   2.869 -0.4478 -0.3767 -0.0976
  412SOL     OW 1645   1.037   2.255   0.580  0.2655  0.3397 -0.4250
  412SOL    HW1 1646   1.102   2.317   0.619  2.3998  0.9287 -2.0221
  412SOL    HW2 1647   0.986   2.320   0.527  1.6909 -1.8153  1.9514
  412SOL     MW 1648   1.039   2.272   0.578  0.7352  0.1331 -0.3222
  413SOL     OW 1649   0.586   2.728   3.070 -0.6298 -0.0255  0.0736
  413SOL    HW1 1650   0.638   2.641   3.090  2.9584 -3.1018  0.3204
  413SOL    HW2 1651   0.600   2.754   2.983  1.0801 -1.1700  3.2725
  413SOL     MW 1652   0.595   2.720   3.061  0.0692 -0.5824  0.5282
  414SOL     OW 1653   1.895   2.981   1.087 -0.2288  0.1788  0.4769
  414SOL    HW1 1654   1.835   3.054   1.106 -1.0623  1.3363  0.8299
  414SOL    HW2 1655   1.965   3.016   1.033  0.4330  0.4770  2.8594
  414SOL     MW 1656   1.896   2.996   1.083 -0.2515  0.3709  0.8378
  415SOL     OW 1657   1.846   2.690   1.074  0.3095  0.9417 -0.3621
  415SOL    HW1 1658   1.794   2.679   1.156  0.0864  0.4043  1.0404
  415SOL    HW2 1659   1.844   2.785   1.070  0.7701  1.6624 -0.1165
  415SOL     MW 1660   1.839   2.701   1.085  0.3409  0.9659 -0.1446
  416SOL     OW 1661   0.548   1.996   1.359 -0.1947  0.3588 -0.1108
  416SOL    HW1 1662   0.525   2.049   1.280  2.6455 -0.4932 -0.3511
  416SOL    HW2 1663   0.511   1.910   1.347  1.6939 -2.8205 -1.3686
  416SOL     MW 1664   0.540   1.991   1.347  0.4292 -0.1731 -0.3085
  417SOL     OW 1665   0.983   3.042   2.057 -0.0122 -0.5745 -0.1689
  417SOL    HW1 1666   0.942   3.047   2.140 -2.2567 -3.9192 -1.7521
  417SOL    HW2 1667   0.923   2.991   1.992 -0.7233 -0.5162  0.5077
  417SOL     MW 1668   0.970   3.036   2.060 -0.4022 -1.0081 -0.2885
  418SOL     OW 1669   0.689   2.930   0.102 -0.9328  0.2119 -0.2101
  418SOL    HW1 1670   0.777   2.948   0.063 -1.2761 -0.5004 -2.1076
  418SOL    HW2 1671   0.662   2.844   0.054  0.9444  0.1851 -1.6424
  418SOL     MW 1672   0.697   2.921   0.090 -0.7304  0.1144 -0.6495
  419SOL     OW 1673   0.484   2.600   1.347  0.8909  0.3001  0.3807
  419SOL    HW1 1674   0.520   2.682   1.380 -3.7433 -1.1015  1.5238
  419SOL    HW2 1675   0.527   2.590   1.260 -0.6097 -2.4646  0.0494
  419SOL     MW 1676   0.494   2.610   1.340  0.0814 -0.2496  0.4878
  420SOL     OW 1677   0.861   2.261   0.999  0.0593 -0.0167  0.2151
  420SOL    HW1 1678   0.797   2.254   1.070  2.8471 -0.4331  0.6306
  420SOL    HW2 1679   0.890   2.357   0.992  1.5450  1.2326  1.4513
  420SOL     MW 1680   0.856   2.273   1.007  0.6231  0.0932  0.4330
  421SOL     OW 1681   2.945   0.166   3.039 -0.3561  0.3004 -0.2430
  421SOL    HW1 1682   2.881   0.113   3.001  0.2416  1.1663  1.2364
  421SOL    HW2 1683   3.011   0.098   3.055 -0.9816  2.7687  0.9246
  421SOL     MW 1684   2.945   0.150   3.036 -0.3598  0.7403  0.1062
  422SOL     OW 1685   0.896   2.517   0.932  0.1226 -0.2531  0.6679
  422SOL    HW1 1686   0.876   2.609   0.953  2.7363  1.4594 -0.2320
  422SOL    HW2 1687   0.857   2.509   0.841 -0.1728 -0.0835 -1.5536
  422SOL     MW 1688   0.888   2.528   0.922  0.4285 -0.0048  0.2561
  423SOL     OW 1689   1.457   0.079   0.474  0.3281 -0.0666  0.0533
  423SOL    HW1 1690   1.460   0.071   0.379  1.4975  2.0287 -0.6479
  423SOL    HW2 1691   1.425   0.163   0.494 -1.9461 -1.0103 -0.3287
  423SOL     MW 1692   1.453   0.089   0.464  0.1823  0.0853 -0.0896
  424SOL     OW 1693   0.678   2.291   1.203 -0.3469  0.4572  0.3550
  424SOL    HW1 1694   0.592   2.239   1.180 -1.0024 -3.0708  0.6897
  424SOL    HW2 1695   0.682   2.305   1.296  0.7505  1.6876  1.2149
  424SOL     MW 1696   0.667   2.286   1.213 -0.2886  0.1541  0.5126
  425SOL     OW 1697   1.710   2.806   2.044 -0.4172 -0.1357  0.1473
  425SOL    HW1 1698   1.722   2.808   1.948 -3.0544  0.2530 -2.1902
  425SOL    HW2 1699   1.748   2.716   2.053  2.4833  1.6555 -4.9223
  425SOL     MW 1700   1.716   2.794   2.032 -0.3825  0.1519 -0.8300
  426SOL     OW 1701   0.835   1.693   1.968  0.2122  0.1430  0.1842
  426SOL    HW1 1702   0.775   1.716   1.896 -1.3977 -0.7226 -0.8106
  426SOL    HW2 1703   0.835   1.770   2.026 -0.9385 -1.5858  2.0171
  426SOL     MW 1704   0.827   1.706   1.966 -0.1520 -0.1993  0.2948
  427SOL     OW 1705   0.381   1.650   1.889  0.5847  0.1028 -0.3552
  427SOL    HW1 1706   0.404   1.563   1.872 -1.0649  0.2329  1.1453
  427SOL    HW2 1707   0.288   1.643   1.915  0.4275  1.5208  0.3012
  427SOL     MW 1708   0.372   1.638   1.890  0.3463  0.3070 -0.0706
  428SOL     OW 1709   0.620   2.588   1.096 -0.1483 -0.0511 -1.1383
  428SOL    HW1 1710   0.688   2.565   1.158 -0.4160 -4.9816 -4.5625
  428SOL    HW2 1711   0.559   2.516   1.110 -0.6834 -1.6671  1.1884
  428SOL     MW 1712   0.621   2.575   1.106 -0.2542 -0.9149 -1.2831
  429SOL     OW 1713   1.256   2.778   1.141 -0.2449  0.1704  0.2713
  429SOL    HW1 1714   1.159   2.771   1.156  0.9069  1.0393 -0.5824
  429SOL    HW2 1715   1.269   2.840   1.069 -0.3170 -0.7097  0.4526
  429SOL     MW 1716   1.245   2.786   1.134 -0.1024  0.1689  0.1826
  430SOL     OW 1717   1.141   2.735   0.703  0.4147 -0.1425  0.2880
  430SOL    HW1 1718   1.164   2.645   0.723 -1.5455 -1.0074  0.6401
  430SOL    HW2 1719   1.087   2.742   0.617 -0.2673 -1.5288 -1.5706
  430SOL     MW 1720   1.137   2.724   0.695  0.0661 -0.4395  0.0892
  431SOL     OW 1721   0.354   1.936   1.045  0.2537  0.2440 -0.3238
  431SOL    HW1 1722   0.438   1.890   1.047  3.1680  1.0550 -0.5450
  431SOL    HW2 1723   0.322   1.931   0.950 -1.5134  0.1642 -1.7298
  431SOL     MW 1724   0.361   1.930   1.032  0.4051  0.3405 -0.5385
  432SOL     OW 1725   0.071   0.033   1.240  0.0696  0.0620  0.0590
  432SOL    HW1 1726   0.075   0.113   1.295  1.2296 -1.1422 -2.5676
  432SOL    HW2 1727   0.011  -0.033   1.278  1.1547  1.2752 -2.6318
  432SOL     MW 1728   0.064   0.035   1.252  0.3658  0.0632 -0.6426
  433SOL     OW 1729   0.605   2.805   1.506  0.0236 -0.1879  0.0550
  433SOL    HW1 1730   0.561   2.846   1.578 -2.5876 -0.3825  1.4277
  433SOL    HW2 1731   0.693   2.834   1.503 -1.3310 -1.5116 -1.6296
  433SOL     MW 1732   0.611   2.814   1.515 -0.4997 -0.3883  0.0139
  434SOL     OW 1733   1.579   2.822   1.519  0.1854 -0.6325  0.3603
  434SOL    HW1 1734   1.484   2.847   1.501 -1.0258 -2.7778 -1.9000
  434SOL    HW2 1735   1.615   2.752   1.459  2.9088  2.7948 -1.5278
  434SOL     MW 1736   1.572   2.816   1.509  0.3849 -0.4634 -0.1870
  435SOL     OW 1737   2.860   1.787   0.210  0.1062  0.1978 -0.4026
  435SOL    HW1 1738   2.929   1.839   0.167 -0.2923 -3.1685 -1.6178
  435SOL    HW2 1739   2.813   1.758   0.123 -0.2077 -0.6129 -3.2772
  435SOL     MW 1740   2.863   1.790   0.193  0.0122 -0.3533 -0.9422
  436SOL     OW 1741   1.364   2.680   0.444  0.8502 -0.2882  0.6019
  436SOL    HW1 1742   1.444   2.685   0.499  0.9884 -2.7465  3.1459
  436SOL    HW2 1743   1.329   2.761   0.470  0.2956 -0.0930 -2.1796
  436SOL     MW 1744   1.370   2.691   0.455  0.7953 -0.5868  0.5706
  437SOL     OW 1745   0.864   2.981   1.345  0.3540  0.3964  0.2535
  437SOL    HW1 1746   0.909   3.060   1.310  1.0819  0.8196  0.3786
  437SOL    HW2 1747   0.901   2.909   1.298 -0.4077 -0.8557  0.9160
  437SOL     MW 1748   0.875   2.982   1.334  0.3496  0.2870  0.3574
  438SOL     OW 1749   0.810   2.613   1.852  0.0522 -0.5901  0.7110
  438SOL    HW1 1750   0.778   2.610   1.939 -0.6874  1.0692 -0.0029
  438SOL    HW2 1751   0.791   2.518   1.828 -0.6967  0.1794  1.8001
  438SOL     MW 1752   0.804   2.600   1.861 -0.1442 -0.2696  0.7605
  439SOL     OW 1753   1.243   2.166   0.417 -0.1303 -0.4222 -0.2122
  439SOL    HW1 1754   1.173   2.201   0.473  3.1305  1.1706  0.2602
  439SOL    HW2 1755   1.230   2.204   0.329  0.3452 -1.1451 -0.1503
  439SOL     MW 1756   1.232   2.176   0.413  0.3626 -0.3074 -0.1417
  440SOL     OW 1757   1.771   3.038   3.065  0.0064 -0.3116 -0.0061
  440SOL    HW1 1758   1.712   2.988   3.125 -0.3541 -1.3981  0.3185
  440SOL    HW2 1759   1.856   2.994   3.075 -1.0529  3.1685 -3.9060
  440SOL     MW 1760   1.774   3.026   3.075 -0.1809  0.0042 -0.4778
  441SOL     OW 1761   0.313   2.639   0.472  0.3421  0.3636 -0.1314
  441SOL    HW1 1762   0.299   2.638   0.376 -2.0685  0.3477 -2.9213
  441SOL    HW2 1763   0.372   2.713   0.491 -1.1244 -2.0501  1.2385
  441SOL     MW 1764   0.319   2.649   0.462 -0.1694  0.0430 -0.3188
  442SOL     OW 1765   3.102   2.413   0.612  0.5790 -0.4105 -0.0626
  442SOL    HW1 1766   3.126   2.502   0.593 -1.1849  2.9376 -1.3107
  442SOL    HW2 1767   3.007   2.415   0.629 -0.5170 -1.2388 -1.1936
  442SOL     MW 1768   3.092   2.425   0.612  0.2017 -0.0780 -0.3765
  443SOL     OW 1769   1.408   1.798   1.903  0.2798 -0.1344 -0.0874
  443SOL    HW1 1770   1.355   1.822   1.828 -2.8514 -2.1513  1.8941
  443SOL    HW2 1771   1.372   1.716   1.941  1.5037 -0.5252  1.9575
  443SOL     MW 1772   1.397   1.790   1.898  0.0281 -0.4521  0.4439
  444SOL     OW 1773   0.860   2.561   1.533 -0.3788  0.3202 -0.1890
  444SOL    HW1 1774   0.906   2.504   1.597  0.3592 -3.8663 -0.1604
  444SOL    HW2 1775   0.777   2.513   1.524 -1.0879  1.7243 -0.6621
  444SOL     MW 1776   0.855   2.547   1.540 -0.3750 -0.0469 -0.2476
  445SOL     OW 1777   1.041   0.083   1.340  0.3748 -0.1682 -0.5609
  445SOL    HW1 1778   0.989   0.162   1.323 -3.3622 -2.7217 -0.1538
  445SOL    HW2 1779   1.114   0.090   1.284  1.1582  0.2158  2.1533
  445SOL     MW 1780   1.044   0.094   1.330 -0.0149 -0.4544 -0.1491
  446SOL     OW 1781   2.739   2.917   1.116  0.0002  0.0732 -0.1015
  446SOL    HW1 1782   2.691   2.971   1.050 -2.2234 -0.4490  0.5081
  446SOL    HW2 1783   2.771   2.835   1.071  0.1867 -2.2332 -0.5573
  446SOL     MW 1784   2.737   2.913   1.102 -0.2686 -0.3000 -0.0813
  447SOL     OW 1785   0.071   2.017   1.647 -0.5631 -0.2253 -0.2784
  447SOL    HW1 1786   0.103   1.936   1.685 -2.2714  1.1079  2.0874
  447SOL    HW2 1787  -0.024   1.994   1.622 -0.8659 -0.9621 -3.0510
  447SOL     MW 1788   0.062   2.003   1.649 -0.8284 -0.1466 -0.3320
  448SOL     OW 1789   1.751   2.425   1.619  0.3165  0.1457  0.3740
  448SOL    HW1 1790   1.724   2.331   1.626  0.9158 -1.6518 -0.3945
  448SOL    HW2 1791   1.670   2.475   1.649 -0.8407  1.5836  3.1910
  448SOL     MW 1792   1.736   2.419   1.624  0.2429  0.0982  0.6442
  449SOL     OW 1793   0.810   2.874   0.354  0.9069  0.5433 -0.4726
  449SOL    HW1 1794   0.754   2.901   0.278  1.2665  0.0502 -0.4793
  449SOL    HW2 1795   0.742   2.892   0.425 -1.7301 -0.6804  2.0504
  449SOL     MW 1796   0.793   2.880   0.353  0.6064  0.3168 -0.1406
  450SOL     OW 1797   1.203   2.460   0.731 -0.2028  0.0600 -0.2904
  450SOL    HW1 1798   1.205   2.393   0.807 -0.3128 -5.7462 -0.0899
  450SOL    HW2 1799   1.291   2.458   0.701  0.8959 -2.2552  3.0269
  450SOL     MW 1800   1.215   2.451   0.737 -0.0724 -1.0115  0.1738
  451SOL     OW 1801   0.555   2.077   1.623 -0.1433 -0.4855 -0.2452
  451SOL    HW1 1802   0.618   2.145   1.604 -1.0138 -0.2352  0.6615
  451SOL    HW2 1803   0.545   2.049   1.528 -1.4064  2.3614 -3.0445
  451SOL     MW 1804   0.562   2.083   1.608 -0.4248 -0.0768 -0.4949
  452SOL     OW 1805   0.282   2.703   0.010 -0.1482 -0.2605  0.2864
  452SOL    HW1 1806   0.367   2.715  -0.038 -0.7458  1.5294  0.1454
  452SOL    HW2 1807   0.203   2.746  -0.032 -0.1982 -1.1711  1.0035
  452SOL     MW 1808   0.283   2.710  -0.002 -0.2336 -0.1445  0.3624
  453SOL     OW 1809   0.340   2.981   1.651  0.1193  0.3622 -0.3765
  453SOL    HW1 1810   0.416   2.982   1.705  1.5574 -1.3965 -1.9316
  453SOL    HW2 1811   0.366   3.040   1.574 -2.0552  2.1583 -1.5862
  453SOL     MW 1812   0.354   2.989   1.648  0.0221  0.3671 -0.7413
  454SOL     OW 1813   0.995   2.771   1.214  0.0333  0.2641 -0.0948
  454SOL    HW1 1814   0.927   2.698   1.205 -4.3265  3.6145  0.3164
  454SOL    HW2 1815   0.965   2.819   1.138  1.1258 -2.0902 -1.0533
  454SOL     MW 1816   0.982   2.768   1.203 -0.3978  0.3955 -0.1670
  455SOL     OW 1817   1.617   2.930   0.158 -0.2512  0.2378 -0.3809
  455SOL    HW1 1818   1.676   2.924   0.238  2.9893  0.8757 -1.1509
  455SOL    HW2 1819   1.567   2.844   0.173 -0.4161 -1.1416 -0.9676
  455SOL     MW 1820   1.618   2.918   0.170  0.1546  0.1400 -0.5599
  456SOL     OW 1821   2.765   0.354   1.483 -0.4914 -0.3538  0.3860
  456SOL    HW1 1822   2.730   0.280   1.426  0.4078 -2.7060 -2.6304
  456SOL    HW2 1823   2.850   0.385   1.440  0.5356  1.7227 -1.5650
  456SOL     MW 1824   2.772   0.349   1.469 -0.2373 -0.3902 -0.2694
  457SOL     OW 1825   0.979   1.554   2.925 -0.0191 -0.4580  0.3849
  457SOL    HW1 1826   0.905   1.550   2.986 -0.9044 -0.9574  4.6952
  457SOL    HW2 1827   1.018   1.466   2.935  1.0272 -0.5266 -0.0144
  457SOL     MW 1828   0.974   1.542   2.935  0.0022 -0.5330  0.9009
  458SOL     OW 1829   1.448   1.478   0.560 -0.7577 -0.1423  0.3660
  458SOL    HW1 1830   1.393   1.552   0.539 -0.6031  0.4074  0.0603
  458SOL    HW2 1831   1.440   1.416   0.486 -2.9369 -0.4346 -0.8600
  458SOL     MW 1832   1.440   1.479   0.548 -1.0248 -0.1084  0.1639
  459SOL     OW 1833   1.466   0.083   0.186  0.6286 -0.3422 -0.0343
  459SOL    HW1 1834   1.501   0.003   0.144  2.7420 -0.5534  1.2417
  459SOL    HW2 1835   1.397   0.117   0.131  1.9286 -1.1450  1.6452
  459SOL     MW 1836   1.462   0.077   0.173  1.0790 -0.4760  0.3557
  460SOL     OW 1837   1.744   2.151   0.618  0.3866 -0.1675 -0.4853
  460SOL    HW1 1838   1.670   2.166   0.679 -0.4088  2.2024 -0.8038
  460SOL    HW2 1839   1.754   2.057   0.633 -1.0975 -0.2266  1.5374
  460SOL     MW 1840   1.736   2.141   0.628  0.0858  0.1374 -0.2604
  461SOL     OW 1841   0.365   2.377   0.574 -0.0284 -0.1555  0.0883
  461SOL    HW1 1842   0.366   2.456   0.517  2.1082  0.4690 -1.4840
  461SOL    HW2 1843   0.325   2.406   0.652  0.2565  1.1755 -2.6329
  461SOL     MW 1844   0.360   2.392   0.577  0.2911  0.1025 -0.4782
  462SOL     OW 1845   0.407   0.288   1.290 -0.2134 -0.1385 -0.3152
  462SOL    HW1 1846   0.425   0.242   1.204 -1.9251 -0.7256 -2.1513
  462SOL    HW2 1847   0.486   0.338   1.308 -1.3045 -1.1753 -3.0897
  462SOL     MW 1848   0.420   0.289   1.281 -0.5832 -0.3528 -0.9235
  463SOL     OW 1849   0.983   0.073   0.647  0.3955  0.1844  0.2768
  463SOL    HW1 1850   1.002   0.133   0.571  1.0250  2.7325 -0.2712
  463SOL    HW2 1851   0.888   0.070   0.662  2.4702 -2.3860  0.3552
  463SOL     MW 1852   0.973   0.080   0.639  0.7523  0.1814  0.2149
  464SOL     OW 1853   0.821   3.075   2.302 -0.1662 -0.4313 -0.3968
  464SOL    HW1 1854   0.796   2.985   2.283  2.1461  0.6982  1.0619
  464SOL    HW2 1855   0.813   3.092   2.403 -3.3534  0.9325 -0.0372
  464SOL     MW 1856   0.816   3.065   2.313 -0.2817 -0.1023 -0.1569
  465SOL     OW 1857   0.720   0.295   0.487  0.5800 -0.2471  0.4922
  465SOL    HW1 1858   0.699   0.219   0.539 -1.5516 -0.4809 -0.5619
  465SOL    HW2 1859   0.691   0.260   0.400  0.5499  0.8990 -0.6282
  465SOL     MW 1860   0.714   0.280   0.482  0.2948 -0.1267  0.2053
  466SOL     OW 1861   1.060   2.014   0.711 -0.6225 -0.3412 -0.1043
  466SOL    HW1 1862   1.064   1.938   0.652  3.5934 -1.0527  1.0560
  466SOL    HW2 1863   1.074   2.098   0.667  0.1777  0.9317  1.0817
  466SOL     MW 1864   1.063   2.015   0.697  0.0393 -0.2671  0.2053
  467SOL     OW 1865   1.221   2.283   0.928  0.0510  0.0520  0.2494
  467SOL    HW1 1866   1.320   2.303   0.933  0.0043  0.5560 -0.0806
  467SOL    HW2 1867   1.220   2.192   0.906 -0.0309  0.0663  0.1174
  467SOL     MW 1868   1.234   2.274   0.926  0.0341  0.1204  0.1885
  468SOL     OW 1869   0.377   2.601   2.028 -0.2338  0.1274  0.1728
  468SOL    HW1 1870   0.421   2.564   1.945 -2.1469 -1.3332  1.9479
  468SOL    HW2 1871   0.318   2.676   1.995 -0.8297 -0.4631  0.7345
  468SOL     MW 1872   0.375   2.606   2.013 -0.5649 -0.1433  0.4811
  469SOL     OW 1873   0.360   2.197   1.802 -0.0567  0.1012  0.4504
  469SOL    HW1 1874   0.305   2.131   1.844  0.3275  1.0324 -0.2597
  469SOL    HW2 1875   0.411   2.143   1.734  0.1880  0.3490 -3.4071
  469SOL     MW 1876   0.359   2.181   1.798  0.0262  0.2567 -0.1523
  470SOL     OW 1877   3.004   2.601   0.095  0.2091  0.1742 -0.0399
  470SOL    HW1 1878   2.951   2.583   0.176  2.0886  0.8825 -1.5852
  470SOL    HW2 1879   2.955   2.586   0.012  1.1856 -0.5916 -1.0426
  470SOL     MW 1880   2.991   2.596   0.095  0.5859  0.1666 -0.3761
  471SOL     OW 1881   1.177   2.708   1.465  0.6751  0.4383  0.1287
  471SOL    HW1 1882   1.118   2.663   1.532 -0.2650 -2.9276 -0.1905
  471SOL    HW2 1883   1.118   2.719   1.386  0.3945 -0.9316  0.5278
  471SOL     MW 1884   1.161   2.704   1.463  0.5140 -0.1865  0.1392
  472SOL     OW 1885   2.869   2.109   0.357 -0.5158 -0.8221 -0.7669
  472SOL    HW1 1886   2.939   2.072   0.309  0.5127  0.5608 -0.8157
  472SOL    HW2 1887   2.828   2.035   0.407  0.6558  0.6080  2.5429
  472SOL     MW 1888   2.873   2.094   0.357 -0.2255 -0.4509 -0.3367
  473SOL     OW 1889   0.823   2.555   1.258 -0.2277 -0.5782  0.4504
  473SOL    HW1 1890   0.863   2.470   1.262 -1.6561 -2.1188  0.3017
  473SOL    HW2 1891   0.850   2.594   1.342  3.4218 -1.7165 -1.6813
  473SOL     MW 1892   0.832   2.549   1.269  0.0654 -0.9317  0.1495
  474SOL     OW 1893   0.867   2.110   1.795 -0.1601  0.0973  0.1491
  474SOL    HW1 1894   0.949   2.151   1.819 -1.6199 -0.9958 -2.6829
  474SOL    HW2 1895   0.862   2.122   1.697  1.7293 -0.1757  0.6285
  474SOL     MW 1896   0.877   2.117   1.785 -0.1034 -0.0829 -0.1613
  475SOL     OW 1897   1.650   3.098   1.494  0.2229 -0.8115 -0.1033
  475SOL    HW1 1898   1.589   3.127   1.422 -4.4474  0.4431 -0.7734
  475SOL    HW2 1899   1.620   3.008   1.518 -1.0346 -0.4881  1.8419
  475SOL     MW 1900   1.638   3.090   1.488 -0.5592 -0.6033  0.0649
  476SOL     OW 1901   1.412   2.606   0.971  0.3999  0.4189  0.6529
  476SOL    HW1 1902   1.342   2.647   1.013  1.5306  0.7866  0.1125
  476SOL    HW2 1903   1.432   2.665   0.902 -1.5968 -1.7882  1.3242
  476SOL     MW 1904   1.405   2.619   0.967  0.2856  0.1762  0.6702
  477SOL     OW 1905   0.773   2.497   0.649  0.0031  0.0111  0.4063
  477SOL    HW1 1906   0.825   2.551   0.591 -1.5819  2.9744  2.1938
  477SOL    HW2 1907   0.763   2.416   0.597 -1.6533 -0.2274  1.6963
  477SOL     MW 1908   0.778   2.494   0.634 -0.4246  0.3706  0.8123
  478SOL     OW 1909   0.161   2.723   0.925  0.2701 -0.0665  0.1655
  478SOL    HW1 1910   0.219   2.792   0.904  0.8253 -2.4047 -2.3074
  478SOL    HW2 1911   0.200   2.638   0.882 -1.5920  1.9802 -4.3010
  478SOL     MW 1912   0.174   2.721   0.916  0.0976 -0.1050 -0.7501
  479SOL     OW 1913   1.438   1.983   1.266  0.1224 -0.2654 -0.2521
  479SOL    HW1 1914   1.399   2.022   1.347 -1.9918  3.1293 -0.6813
  479SOL    HW2 1915   1.521   1.952   1.305  0.6259  1.0338 -2.1067
  479SOL     MW 1916   1.444   1.984   1.282 -0.0901  0.3539 -0.5535
  480SOL     OW 1917   1.887   2.387   1.308  0.1831  0.4903 -0.7254
  480SOL    HW1 1918   1.854   2.306   1.342 -2.9956  1.0892 -1.2305
  480SOL    HW2 1919   1.950   2.368   1.240 -1.3460 -2.1329  0.7092
  480SOL     MW 1920   1.891   2.374   1.303 -0.4381  0.2232 -0.6028
  481SOL     OW 1921   0.996   0.055   1.009  0.2235 -0.1691 -0.8967
  481SOL    HW1 1922   1.028  -0.014   0.950  0.9307 -1.1667 -0.9015
  481SOL    HW2 1923   1.067   0.109   1.041  0.9958 -0.8202  1.8335
  481SOL     MW 1924   1.010   0.053   1.005  0.4187 -0.3866 -0.5371
  482SOL     OW 1925   1.032   3.017   0.267  0.0086 -0.0120 -0.2568
  482SOL    HW1 1926   0.971   2.952   0.302 -0.0045 -0.3773 -3.1495
  482SOL    HW2 1927   1.004   3.097   0.311  2.2942  1.3146  0.0550
  482SOL     MW 1928   1.020   3.019   0.277  0.3085  0.1148 -0.5974
  483SOL     OW 1929   0.413   2.908   0.472 -0.0389 -0.2089 -0.0823
  483SOL    HW1 1930   0.345   2.933   0.412  0.0162  0.1398  0.8102
  483SOL    HW2 1931   0.393   2.961   0.550  0.4696  1.0057 -1.8824
  483SOL     MW 1932   0.402   2.918   0.475  0.0354 -0.0026 -0.2021
  484SOL     OW 1933   1.684   1.870   1.381  0.6647 -0.1808  0.4749
  484SOL    HW1 1934   1.754   1.936   1.378  0.2363 -0.1937 -0.4287
  484SOL    HW2 1935   1.653   1.869   1.471 -1.1049  3.0609 -0.9065
  484SOL     MW 1936   1.689   1.879   1.393  0.3747  0.2452  0.1734
  485SOL     OW 1937   0.554   2.383   0.226  0.1321 -0.7734  0.2941
  485SOL    HW1 1938   0.604   2.367   0.311 -0.0639  1.4168 -1.8885
  485SOL    HW2 1939   0.463   2.414   0.237 -0.8002 -2.4522 -0.7778
  485SOL     MW 1940   0.549   2.385   0.239 -0.0168 -0.7059 -0.1353
  486SOL     OW 1941   0.148   2.407   1.506  0.5752  0.6221  0.3062
  486SOL    HW1 1942   0.167   2.490   1.456 -0.5410 -1.7610  1.0322
  486SOL    HW2 1943   0.165   2.433   1.599  0.4378 -1.1714  1.4553
  486SOL     MW 1944   0.152   2.421   1.511  0.4098  0.0710  0.5536
  487SOL     OW 1945   1.284   1.642   1.042  0.0106  0.0902  0.2301
  487SOL    HW1 1946   1.271   1.735   1.062  3.4367  0.1477 -1.4630
  487SOL    HW2 1947   1.373   1.639   1.008  3.8450  1.9409 -0.4105
  487SOL     MW 1948   1.294   1.654   1.040  0.9685  0.3419 -0.0778
  488SOL     OW 1949   1.657   1.859   0.531  0.2877 -0.5717 -0.3865
  488SOL    HW1 1950   1.738   1.866   0.488 -2.1996  1.0208  1.2867
  488SOL    HW2 1951   1.603   1.921   0.479  0.0931  1.1085  2.3267
  488SOL     MW 1952   1.660   1.868   0.519 -0.0662 -0.1399  0.1922
  489SOL     OW 1953   0.642   0.774   0.605 -0.2370  0.3525  0.5798
  489SOL    HW1 1954   0.698   0.702   0.604  0.1881  2.9042  0.1102
  489SOL    HW2 1955   0.647   0.794   0.698  0.8990 -1.9890  0.3674
  489SOL     MW 1956   0.650   0.767   0.617 -0.0311  0.3802  0.4898
  490SOL     OW 1957   1.482   2.021   0.418  0.5473  0.3953 -0.1953
  490SOL    HW1 1958   1.544   2.084   0.386 -1.0199 -1.2983  3.1400
  490SOL    HW2 1959   1.398   2.076   0.417 -0.2477  1.4426 -1.3590
  490SOL     MW 1960   1.479   2.037   0.414  0.2356  0.3100  0.0912
  491SOL     OW 1961   1.214   2.940   0.474  0.4938 -0.0092 -0.1739
  491SOL    HW1 1962   1.279   3.005   0.460 -0.9922  1.0599 -1.4473
  491SOL    HW2 1963   1.159   2.954   0.398  1.1175  1.1964  0.4266
  491SOL     MW 1964   1.216   2.951   0.462  0.3800  0.2909 -0.2627
  492SOL     OW 1965   1.513   2.091   0.738 -0.0595  0.0040  0.4356
  492SOL    HW1 1966   1.497   2.067   0.646 -1.4341  2.1514  0.8648
  492SOL    HW2 1967   1.435   2.058   0.790 -1.4792 -1.6149  2.3590
  492SOL     MW 1968   1.501   2.083   0.733 -0.4282  0.0738  0.7460
  493SOL     OW 1969   0.207   2.983   0.317  0.2068  0.0455  0.0001
  493SOL    HW1 1970   0.164   3.044   0.379  2.7342  0.2066  0.3325
  493SOL    HW2 1971   0.234   3.025   0.234  0.6392  0.1763 -0.4620
  493SOL     MW 1972   0.205   2.996   0.314  0.5973  0.0840 -0.0170
  494SOL     OW 1973   0.435   2.462   1.798 -0.3488 -0.7500 -0.0800
  494SOL    HW1 1974   0.432   2.367   1.818  2.2845 -0.4938 -0.1225
  494SOL    HW2 1975   0.473   2.467   1.714  0.8269  3.0367 -1.0935
  494SOL     MW 1976   0.439   2.450   1.789  0.1537 -0.2166 -0.2193
  495SOL     OW 1977   2.907   1.685   2.592 -0.4470 -0.0515 -0.0886
  495SOL    HW1 1978   2.896   1.776   2.579 -0.3823 -0.8725  0.5282
  495SOL    HW2 1979   2.903   1.684   2.686 -1.1564 -2.7539 -3.1745
  495SOL     MW 1980   2.905   1.697   2.603 -0.5320 -0.5164 -0.4144
  496SOL     OW 1981   2.902   2.311   2.680  0.7067 -0.1228 -0.3778
  496SOL    HW1 1982   2.938   2.233   2.730 -0.3972 -4.1720  1.6576
  496SOL    HW2 1983   2.975   2.374   2.703  1.8713 -1.3054  1.3173
  496SOL     MW 1984   2.916   2.309   2.690  0.7148 -0.8131  0.1144
  497SOL     OW 1985   1.578   2.251   2.642 -0.2682  0.1387 -0.1684
  497SOL    HW1 1986   1.495   2.214   2.612 -0.8923  0.6993  1.1058
  497SOL    HW2 1987   1.605   2.181   2.700 -1.5714 -2.1200 -0.8074
  497SOL     MW 1988   1.571   2.237   2.646 -0.5225 -0.0853 -0.0846
  498SOL     OW 1989   1.535   2.735   2.387  0.4574 -0.1366 -0.0316
  498SOL    HW1 1990   1.511   2.640   2.377  0.0187 -0.0440  0.6829
  498SOL    HW2 1991   1.625   2.718   2.411  3.0170  0.1631  1.4425
  498SOL     MW 1992   1.544   2.720   2.389  0.7372 -0.0848  0.2572
  499SOL     OW 1993   0.941   0.086   0.019  0.3475  0.1924 -0.0711
  499SOL    HW1 1994   0.893   0.076   0.101  2.4211 -0.6303 -0.4329
  499SOL    HW2 1995   0.991   0.002   0.009 -2.5806  2.1550  1.0655
  499SOL     MW 1996   0.941   0.073   0.029  0.2348  0.3428  0.0311
  500SOL     OW 1997   1.144   2.545   2.758  0.4700  0.7281  0.0557
  500SOL    HW1 1998   1.191   2.496   2.825 -0.5006  0.7875  1.7803
  500SOL    HW2 1999   1.052   2.551   2.791 -1.3756 -1.3624 -0.9084
  500SOL     MW 2000   1.138   2.539   2.771  0.0984  0.4601  0.1560
  501SOL     OW 2001   1.771   2.227   3.066  0.0572 -0.2830  0.0295
  501SOL    HW1 2002   1.753   2.324   3.079 -2.0068  4.2684 -0.6648
  501SOL    HW2 2003   1.864   2.224   3.098  0.6073 -2.0793  0.0254
  501SOL     MW 2004   1.781   2.239   3.072 -0.1425  0.0805 -0.0626
  502SOL     OW 2005   0.079   2.804   2.964  0.4098 -0.1027  0.1251
  502SOL    HW1 2006   0.022   2.750   2.917  0.7632  3.5248  1.0786
  502SOL    HW2 2007   0.128   2.865   2.905  0.9197 -3.7969  0.0621
  502SOL     MW 2008   0.078   2.805   2.950  0.5237 -0.1115  0.2426
  503SOL     OW 2009   1.103   2.681   2.076  0.4810  0.1280  0.7866
  503SOL    HW1 2010   1.160   2.636   2.019 -1.8664  0.9691 -1.7382
  503SOL    HW2 2011   1.035   2.708   2.018 -1.1837  2.1545  0.6509
  503SOL     MW 2012   1.102   2.679   2.061 -0.0483  0.5064  0.4356
  504SOL     OW 2013   3.093   2.697   2.078 -0.2001 -0.0082 -0.0930
  504SOL    HW1 2014   3.110   2.603   2.074  0.9549 -0.8809  0.9665
  504SOL    HW2 2015   2.997   2.696   2.067  0.6228  1.6081  2.6124
  504SOL     MW 2016   3.083   2.685   2.076  0.0608  0.0899  0.4037
  505SOL     OW 2017   1.711   2.614   2.855  1.0820 -0.0043  0.3412
  505SOL    HW1 2018   1.732   2.627   2.765  0.6041  0.6060  1.0341
  505SOL    HW2 2019   1.655   2.686   2.879 -1.1080 -1.5381  1.7974
  505SOL     MW 2020   1.706   2.625   2.847  0.7300 -0.1262  0.6248
  506SOL     OW 2021   1.575   3.090   2.870 -0.0776 -0.2708  0.2218
  506SOL    HW1 2022   1.631   3.098   2.949 -2.0696  1.7886  1.2443
  506SOL    HW2 2023   1.640   3.071   2.802 -0.8174  0.5593  1.8364
  506SOL     MW 2024   1.591   3.088   2.872 -0.4380  0.1104  0.5698
  507SOL     OW 2025   0.890   2.652   2.847 -0.3230 -0.2190 -0.1205
  507SOL    HW1 2026   0.918   2.725   2.794  3.0533 -0.5941  1.0137
  507SOL    HW2 2027   0.802   2.634   2.812 -2.5185 -0.4720  2.0440
  507SOL     MW 2028   0.882   2.659   2.835 -0.1672 -0.3019  0.3147
  508SOL     OW 2029   1.146   2.101   2.497 -0.3900 -0.4396 -0.4623
  508SOL    HW1 2030   1.196   2.088   2.575 -2.3439  0.5432 -1.5268
  508SOL    HW2 2031   1.089   2.181   2.525 -2.2978  3.4180 -0.3497
  508SOL     MW 2032   1.145   2.110   2.511 -0.8995  0.1990 -0.5879
  509SOL     OW 2033   0.625   2.607   2.746  0.4246 -0.1506 -0.4969
  509SOL    HW1 2034   0.655   2.565   2.664 -0.9670 -0.8637  0.5255
  509SOL    HW2 2035   0.542   2.560   2.775  0.6546  0.0917  3.2488
  509SOL     MW 2036   0.618   2.595   2.739  0.2713 -0.2127  0.1322
  510SOL     OW 2037   1.492   2.611   1.659 -0.1867  0.0294 -0.6041
  510SOL    HW1 2038   1.505   2.700   1.631  0.9273  3.3716 -1.8144
  510SOL    HW2 2039   1.444   2.612   1.744  0.2441 -0.4567 -0.2639
  510SOL     MW 2040   1.487   2.623   1.666  0.0171  0.4063 -0.7189
  511SOL     OW 2041   0.420   2.622   2.450  0.1726 -0.1281  0.3199
  511SOL    HW1 2042   0.509   2.580   2.460 -4.5577  2.2836 -1.7246
  511SOL    HW2 2043   0.429   2.678   2.372  0.9983  0.4570  1.3178
  511SOL     MW 2044   0.433   2.624   2.441 -0.3426  0.2673  0.1818
  512SOL     OW 2045   0.972   2.045   2.802  0.2745 -0.7502 -0.8193
  512SOL    HW1 2046   0.903   2.095   2.851 -0.5058  0.7673 -0.1898
  512SOL    HW2 2047   0.980   1.953   2.823 -1.1549  0.2664  1.1807
  512SOL     MW 2048   0.964   2.040   2.811 -0.0170 -0.4158 -0.4723
  513SOL     OW 2049   1.580   2.479   2.272 -0.4626 -0.2535  0.5915
  513SOL    HW1 2050   1.621   2.500   2.190 -1.3185  1.8087 -0.2550
  513SOL    HW2 2051   1.650   2.458   2.335 -0.1762 -2.3383  1.1194
  513SOL     MW 2052   1.595   2.479   2.269 -0.5377 -0.2565  0.5494
  514SOL     OW 2053   0.250   2.504   2.631  0.7678 -0.5219 -0.2694
  514SOL    HW1 2054   0.307   2.531   2.558 -2.9277  0.3484 -0.0096
  514SOL    HW2 2055   0.308   2.481   2.707  3.0697  2.2965  2.1533
  514SOL     MW 2056   0.265   2.505   2.632  0.5839 -0.0352  0.0845
  515SOL     OW 2057   1.142   2.017   2.039 -0.1162 -0.0701 -0.6764
  515SOL    HW1 2058   1.156   2.094   1.975  0.8365  1.9807 -0.7664
  515SOL    HW2 2059   1.213   2.009   2.100  0.8728  0.4916 -0.2592
  515SOL     MW 2060   1.153   2.026   2.039  0.1400  0.2746 -0.6333
  516SOL     OW 2061   1.481   2.516   0.017 -0.0257  0.4578  0.2932
  516SOL    HW1 2062   1.494   2.478  -0.070  0.9903  3.1522  0.8653
  516SOL    HW2 2063   1.415   2.586   0.001  0.8122  3.0368  0.8899
  516SOL     MW 2064   1.474   2.521   0.003  0.2189  1.1536  0.4474
  517SOL     OW 2065   0.570   2.439   2.121  0.7203  0.5204 -0.3877
  517SOL    HW1 2066   0.510   2.518   2.117  0.2972  1.6709 -1.4506
  517SOL    HW2 2067   0.503   2.375   2.102 -0.4959 -2.8710 -1.8707
  517SOL     MW 2068   0.553   2.441   2.118  0.5040  0.2247 -0.7236
  518SOL     OW 2069   1.747   0.198   3.068 -0.2209 -0.1002 -0.2537
  518SOL    HW1 2070   1.725   0.222   3.157 -3.1037  4.0243  1.6957
  518SOL    HW2 2071   1.783   0.105   3.072 -1.5000 -1.6613  1.8950
  518SOL     MW 2072   1.748   0.189   3.080 -0.7700  0.2380  0.2870
  519SOL     OW 2073   0.724   2.368   1.779  0.4212 -0.8645  0.2440
  519SOL    HW1 2074   0.759   2.280   1.782 -0.5654 -1.6975  0.8273
  519SOL    HW2 2075   0.644   2.375   1.721  1.0677 -2.1887 -1.9226
  519SOL     MW 2076   0.718   2.357   1.772  0.3763 -1.1491  0.0351
  520SOL     OW 2077   1.200   2.125   2.974  1.3149 -0.4768  0.1459
  520SOL    HW1 2078   1.129   2.081   2.922 -0.3753  2.7068 -0.6030
  520SOL    HW2 2079   1.218   2.062   3.044  0.6860  0.5464 -1.7063
  520SOL     MW 2080   1.193   2.110   2.977  1.0089  0.0783 -0.1973
  521SOL     OW 2081   1.740   2.036   2.158  0.6230  0.3820 -0.1280
  521SOL    HW1 2082   1.783   2.046   2.067  3.8447 -1.4889  2.3744
  521SOL    HW2 2083   1.681   1.964   2.146  1.4410  0.1989  0.9377
  521SOL     MW 2084   1.738   2.028   2.145  1.1560  0.1110  0.3428
  522SOL     OW 2085   2.871   2.534   2.230  0.0043  0.2860  0.1320
  522SOL    HW1 2086   2.942   2.470   2.233  0.4487 -1.0974  1.6871
  522SOL    HW2 2087   2.899   2.597   2.287  0.0877  1.1022 -1.1360
  522SOL     MW 2088   2.884   2.534   2.238  0.0739  0.2112  0.1699
  523SOL     OW 2089   0.965   1.557   2.183  0.0388 -0.9398  0.1405
  523SOL    HW1 2090   0.924   1.609   2.113  1.3968  1.2803  0.6954
  523SOL    HW2 2091   1.000   1.478   2.146  0.4921 -2.3864  1.4985
  523SOL     MW 2092   0.965   1.553   2.169  0.2778 -0.8377  0.3929
  524SOL     OW 2093   0.696   2.436   2.943 -0.2053  0.0316 -0.4966
  524SOL    HW1 2094   0.700   2.485   2.866  0.4951  0.0768  2.6332
  524SOL    HW2 2095   0.745   2.347   2.926  0.9925  0.0254 -1.2418
  524SOL     MW 2096   0.703   2.431   2.930  0.0451  0.0367 -0.1820
  525SOL     OW 2097   0.347   2.283   2.077 -0.7687  0.3254  0.0699
  525SOL    HW1 2098   0.331   2.220   2.146 -1.7130 -2.1165  2.0763
  525SOL    HW2 2099   0.377   2.235   1.995 -0.9203  0.2943  1.5094
  525SOL     MW 2100   0.349   2.268   2.075 -0.9133 -0.0009  0.5246
  526SOL     OW 2101   0.667   2.020   1.963 -0.8196  0.3770  0.3869
  526SOL    HW1 2102   0.746   2.027   1.911  0.4195  0.3738  2.1353
  526SOL    HW2 2103   0.679   2.099   2.015 -0.6989 -1.3596 -0.1517
  526SOL     MW 2104   0.679   2.031   1.963 -0.6402  0.1474  0.5465
  527SOL     OW 2105   1.442   2.019   2.090 -0.1097 -0.1780 -0.1375
  527SOL    HW1 2106   1.424   1.978   2.172 -0.5042  1.3606 -1.1020
  527SOL    HW2 2107   1.443   1.941   2.033  0.6647  1.3068  0.2197
  527SOL     MW 2108   1.440   2.003   2.094 -0.0596  0.2209 -0.2177
  528SOL     OW 2109   0.692   2.904   2.849 -0.4217  1.2776 -0.0134
  528SOL    HW1 2110   0.678   2.984   2.904 -3.8054 -0.7008  1.0032
  528SOL    HW2 2111   0.633   2.912   2.772  0.0425  1.2938 -0.1957
  528SOL     MW 2112   0.683   2.915   2.846 -0.8069  1.0187  0.0967
  529SOL     OW 2113   1.100   2.243   1.884  0.0245 -0.3036  0.0220
  529SOL    HW1 2114   1.055   2.295   1.959 -0.7399  0.5159  0.1019
  529SOL    HW2 2115   1.107   2.310   1.813 -0.0905 -0.7880  4.5216
  529SOL     MW 2116   1.095   2.258   1.885 -0.0915 -0.2594  0.6263
  530SOL     OW 2117   1.148   2.385   3.002  0.0802  0.2996  0.6118
  530SOL    HW1 2118   1.125   2.424   3.085  1.1953 -0.1022  2.0350
  530SOL    HW2 2119   1.145   2.290   3.012  0.6227 -0.0816  1.5657
  530SOL     MW 2120   1.145   2.378   3.015  0.2989  0.1963  0.9254
  531SOL     OW 2121   0.888   1.869   2.580 -0.1082  0.1698  0.1931
  531SOL    HW1 2122   0.905   1.944   2.639  0.5829 -1.8182 -0.8953
  531SOL    HW2 2123   0.881   1.793   2.637  1.1006 -0.0840  0.3630
  531SOL     MW 2124   0.889   1.869   2.596  0.1424 -0.1260  0.0719
  532SOL     OW 2125   1.761   0.306   2.834  0.2893 -0.1658 -0.5112
  532SOL    HW1 2126   1.749   0.262   2.921 -0.0700  0.5225 -0.6550
  532SOL    HW2 2127   1.825   0.372   2.847 -0.3739 -2.8975 -0.7123
  532SOL     MW 2128   1.768   0.309   2.847  0.1544 -0.4354 -0.5567
  533SOL     OW 2129   1.911   2.633   3.021 -0.3341 -0.4988  0.3175
  533SOL    HW1 2130   1.885   2.586   3.100 -1.5776 -0.0962  0.5004
  533SOL    HW2 2131   1.839   2.630   2.962  4.3187 -0.0098  1.6189
  533SOL     MW 2132   1.898   2.626   3.024  0.1157 -0.3812  0.5133
  534SOL     OW 2133   1.758   2.420   2.492 -0.2342  0.3549  0.4219
  534SOL    HW1 2134   1.695   2.359   2.538  0.7710 -0.6075  0.6806
  534SOL    HW2 2135   1.847   2.412   2.531 -2.4728 -0.9220 -0.1315
  534SOL     MW 2136   1.762   2.411   2.503 -0.3969  0.0594  0.3830
  535SOL     OW 2137   1.904   2.361   1.838 -0.2769  0.1032  0.0853
  535SOL    HW1 2138   1.853   2.401   1.767  1.4252 -0.7253 -0.5941
  535SOL    HW2 2139   1.999   2.386   1.821 -0.6300 -0.5990 -0.8162
  535SOL     MW 2140   1.910   2.370   1.827 -0.0989 -0.0987 -0.1233
  536SOL     OW 2141   0.436   1.865   2.053  0.0678  0.4940 -0.0280
  536SOL    HW1 2142   0.419   1.781   1.999 -0.5792  3.2166 -0.9046
  536SOL    HW2 2143   0.503   1.914   2.011 -1.0329  0.6901  1.0743
  536SOL     MW 2144   0.443   1.861   2.040 -0.1628  0.8791  0.0018
  537SOL     OW 2145   1.043   0.214   2.849  0.7096  0.6796 -0.4228
  537SOL    HW1 2146   0.994   0.278   2.906 -2.1006 -0.7293  1.6369
  537SOL    HW2 2147   1.070   0.275   2.775 -0.5811  2.2975 -0.0120
  537SOL     MW 2148   1.040   0.231   2.847  0.1685  0.7072 -0.0969
  538SOL     OW 2149   1.366   0.066   3.013 -0.2621  0.2840  0.6119
  538SOL    HW1 2150   1.332   0.153   2.998 -1.3224 -0.6261  2.2044
  538SOL    HW2 2151   1.438   0.049   2.945 -0.9270  0.2647  0.3410
  538SOL     MW 2152   1.371   0.075   3.002 -0.4897  0.1614  0.7863
  539SOL     OW 2153   0.739   2.784   2.498 -0.1659  0.0061 -0.2460
  539SOL    HW1 2154   0.804   2.835   2.546 -1.2765  0.4555 -2.9554
  539SOL    HW2 2155   0.753   2.692   2.519 -0.5571  1.0866  0.2550
  539SOL     MW 2156   0.749   2.778   2.507 -0.3640  0.2080 -0.5374
  540SOL     OW 2157   0.424   2.440   2.851  0.4338  0.7494  0.1356
  540SOL    HW1 2158   0.511   2.422   2.892  0.1550  0.0039  0.5129
  540SOL    HW2 2159   0.356   2.444   2.919 -2.6654  0.0870 -2.3976
  540SOL     MW 2160   0.426   2.438   2.866 -0.0119  0.5636 -0.1488
  541SOL     OW 2161   0.190   2.913   2.191 -0.2032 -0.6343 -0.2647
  541SOL    HW1 2162   0.143   2.846   2.149 -0.0678  1.2915  0.6381
  541SOL    HW2 2163   0.220   2.872   2.271 -0.1604 -1.4585  1.5013
  541SOL     MW 2164   0.188   2.899   2.196 -0.1797 -0.4889  0.0874
  542SOL     OW 2165   1.014   2.275   2.665 -0.0029 -0.4335  0.0782
  542SOL    HW1 2166   0.994   2.194   2.716 -2.0216  1.9624  0.3995
  542SOL    HW2 2167   1.084   2.327   2.711  1.4119  2.9611 -0.3230
  542SOL     MW 2168   1.020   2.271   2.677 -0.0825  0.3305  0.0677
  543SOL     OW 2169   1.485   2.435   2.851  0.5455 -0.1744  0.0006
  543SOL    HW1 2170   1.510   2.353   2.802 -0.2646 -1.7411 -1.5711
  543SOL    HW2 2171   1.565   2.495   2.841  1.5364  1.7400  0.8790
  543SOL     MW 2172   1.499   2.432   2.843  0.5694 -0.1285 -0.0908
  544SOL     OW 2173   0.725   0.193   2.769  0.2749 -0.4590  0.1614
  544SOL    HW1 2174   0.632   0.213   2.754 -3.0615  0.9899 -0.3098
  544SOL    HW2 2175   0.737   0.126   2.701 -2.7691  0.2529 -0.6140
  544SOL     MW 2176   0.714   0.187   2.758 -0.5670 -0.1739 -0.0031
  545SOL     OW 2177   1.588   2.201   2.325 -0.1459  0.1141  0.5146
  545SOL    HW1 2178   1.562   2.286   2.290  2.1630  0.4928  0.9816
  545SOL    HW2 2179   1.643   2.164   2.257 -2.9741  0.5712 -1.6799
  545SOL     MW 2180   1.592   2.207   2.312 -0.2144  0.2243  0.2867
  546SOL     OW 2181   3.034   1.988   0.122  0.1920 -0.2363  0.4032
  546SOL    HW1 2182   3.011   2.071   0.079 -1.6186  1.2617  0.8231
  546SOL    HW2 2183   3.129   1.972   0.100  1.9191  1.0795  1.5722
  546SOL     MW 2184   3.044   1.997   0.114  0.1810  0.1350  0.6129
  547SOL     OW 2185   0.235   3.052   0.050 -0.6533  0.4780 -1.2232
  547SOL    HW1 2186   0.299   3.105   0.013 -2.0428 -3.7327  1.7573
  547SOL    HW2 2187   0.147   3.076   0.014 -3.4927  1.4864  1.3699
  547SOL     MW 2188   0.231   3.062   0.041 -1.2113  0.0555 -0.4878
  548SOL     OW 2189   0.301   2.514   0.203  0.0315  0.0788  0.3458
  548SOL    HW1 2190   0.292   2.579   0.125  0.0367  0.5797 -0.7511
  548SOL    HW2 2191   0.211   2.478   0.209  1.0423  0.8962  1.5025
  548SOL     MW 2192   0.288   2.518   0.193  0.1656  0.2527  0.3537
  549SOL     OW 2193   0.857   1.886   2.145 -0.3515  0.3234 -0.3728
  549SOL    HW1 2194   0.821   1.957   2.097  0.3946 -2.4603 -1.9026
  549SOL    HW2 2195   0.817   1.900   2.236  1.0605 -1.8409  2.2785
  549SOL     MW 2196   0.847   1.897   2.150 -0.0668 -0.3295 -0.2248
  550SOL     OW 2197   1.780   1.729   2.606  0.2693 -0.2168 -0.1832
  550SOL    HW1 2198   1.782   1.742   2.511 -0.3393 -1.9113 -2.0549
  550SOL    HW2 2199   1.763   1.816   2.632 -0.5072  0.1473  1.8327
  550SOL     MW 2200   1.778   1.742   2.597  0.0865 -0.3923 -0.1641
  551SOL     OW 2201   0.832   2.283   0.204 -0.3903  0.3874 -0.0420
  551SOL    HW1 2202   0.927   2.265   0.210  0.3126 -0.3614 -0.1776
  551SOL    HW2 2203   0.806   2.205   0.156  0.3730  1.2196 -0.5664
  551SOL     MW 2204   0.841   2.271   0.198 -0.1968  0.3984 -0.1291
  552SOL     OW 2205   1.760   1.680   2.325 -0.2946 -0.1747 -0.8628
  552SOL    HW1 2206   1.668   1.703   2.338  2.9084  0.0977 -2.2049
  552SOL    HW2 2207   1.792   1.657   2.232 -1.5513  0.7018  1.8859
  552SOL     MW 2208   1.752   1.680   2.314 -0.0378 -0.0231 -0.6772
  553SOL     OW 2209   1.255   2.322   1.491 -0.1036 -0.3982  0.5198
  553SOL    HW1 2210   1.284   2.232   1.506 -0.0029  1.5795 -1.5149
  553SOL    HW2 2211   1.318   2.354   1.426 -0.4322  0.4790 -0.2204
  553SOL     MW 2212   1.267   2.314   1.484 -0.1337 -0.0215  0.1537
  554SOL     OW 2213   0.528   2.920   2.636 -0.2722  0.4214 -0.0896
  554SOL    HW1 2214   0.500   2.997   2.582 -0.9486 -1.2120  3.2263
  554SOL    HW2 2215   0.577   2.860   2.576 -0.3639  0.9015 -3.1232
  554SOL     MW 2216   0.531   2.922   2.621 -0.3735  0.2693 -0.0523
  555SOL     OW 2217   0.688   2.487   2.507 -0.8912  0.0019 -0.2474
  555SOL    HW1 2218   0.624   2.412   2.518  1.0375 -0.7150 -0.8810
  555SOL    HW2 2219   0.761   2.437   2.465  2.6225 -2.2122 -2.1751
  555SOL     MW 2220   0.689   2.471   2.503 -0.1731 -0.3848 -0.5854
  556SOL     OW 2221   0.968   1.876   0.130  0.1299  0.3009 -0.2756
  556SOL    HW1 2222   1.005   1.891   0.044 -2.1468 -4.6792 -1.8828
  556SOL    HW2 2223   1.044   1.896   0.193  2.9522 -1.0121 -0.1484
  556SOL     MW 2224   0.983   1.880   0.127  0.2019 -0.5295 -0.4709
  557SOL     OW 2225   0.948   2.694   0.510  0.1115 -0.6334 -0.2732
  557SOL    HW1 2226   0.997   2.640   0.451 -2.3282  1.7861  0.7870
  557SOL    HW2 2227   0.891   2.755   0.455 -0.5817  3.2924 -0.7099
  557SOL     MW 2228   0.947   2.695   0.495 -0.3018  0.2038 -0.1909
  558SOL     OW 2229   0.212   2.334   3.015 -0.5840  0.1119  0.1082
  558SOL    HW1 2230   0.163   2.289   2.947 -1.1964 -0.3632 -0.4396
  558SOL    HW2 2231   0.165   2.348   3.101  0.4844  1.2113  1.1466
  558SOL     MW 2232   0.200   2.330   3.017 -0.5238  0.1943  0.1730
  559SOL     OW 2233   0.976   2.341   2.111  0.8139 -0.3205  0.0596
  559SOL    HW1 2234   1.041   2.387   2.163  0.5192 -0.6512 -2.0913
  559SOL    HW2 2235   0.965   2.261   2.174 -0.2983 -0.6039 -2.0057
  559SOL     MW 2236   0.983   2.337   2.126  0.6283 -0.4016 -0.4967
  560SOL     OW 2237   1.987   2.888   0.027  0.1661  0.2676 -0.1974
  560SOL    HW1 2238   2.063   2.914  -0.027 -2.5342  3.8352  1.2163
  560SOL    HW2 2239   1.955   2.813  -0.026  0.7586 -0.8499 -0.7385
  560SOL     MW 2240   1.993   2.882   0.013 -0.1120  0.5908 -0.0823
  561SOL     OW 2241   0.414   2.200   0.063 -0.2661 -0.4414 -0.7344
  561SOL    HW1 2242   0.345   2.250   0.012 -0.2964 -1.3559 -0.0093
  561SOL    HW2 2243   0.477   2.258   0.114  0.3336 -0.4118 -0.4546
  561SOL     MW 2244   0.413   2.215   0.063 -0.1909 -0.5582 -0.6019
  562SOL     OW 2245   0.683   2.181   2.186  0.4531  0.2330  0.4056
  562SOL    HW1 2246   0.633   2.257   2.165  0.8846  1.2794 -0.8022
  562SOL    HW2 2247   0.761   2.222   2.235 -0.4765  0.8378  1.5243
  562SOL     MW 2248   0.686   2.196   2.190  0.3874  0.4509  0.3938
  563SOL     OW 2249   1.218   0.307   0.569  0.4090  0.0892  0.1342
  563SOL    HW1 2250   1.143   0.280   0.512  0.7892 -0.7417  1.9166
  563SOL    HW2 2251   1.233   0.234   0.626 -1.7505 -0.3467  0.6359
  563SOL     MW 2252   1.210   0.294   0.569  0.1743 -0.0779  0.4356
  564SOL     OW 2253   1.116   2.520   2.296  0.7817 -0.4659 -0.0434
  564SOL    HW1 2254   1.101   2.582   2.225 -0.2203 -0.7146  0.2564
  564SOL    HW2 2255   1.132   2.582   2.377 -2.2893  0.1608 -0.2175
  564SOL     MW 2256   1.116   2.536   2.297  0.2443 -0.4161 -0.0268
  565SOL     OW 2257   2.832   2.732   2.649 -0.2130  0.5287 -0.0691
  565SOL    HW1 2258   2.883   2.812   2.633 -0.6727  0.4739 -2.1328
  565SOL    HW2 2259   2.789   2.713   2.564 -0.0634 -0.8135  2.6043
  565SOL     MW 2260   2.833   2.740   2.635 -0.2539  0.3444  0.0113
  566SOL     OW 2261   2.156   1.850   2.342 -0.4039 -0.0108  0.6769
  566SOL    HW1 2262   2.156   1.840   2.248  0.1527  0.6918  0.3777
  566SOL    HW2 2263   2.214   1.922   2.366 -3.2462 -1.8182 -0.7225
  566SOL     MW 2264   2.164   1.858   2.333 -0.7055 -0.1566  0.4528
  567SOL     OW 2265   1.187   2.921   3.001  0.0142  0.1912  0.6519
  567SOL    HW1 2266   1.254   2.991   2.998 -0.6037 -1.4205  2.6624
  567SOL    HW2 2267   1.242   2.844   2.959 -2.2634  0.9142  0.3942
  567SOL     MW 2268   1.203   2.920   2.995 -0.3679  0.0739  0.8832
  568SOL     OW 2269   1.577   2.113   2.881  0.2815  0.6750  0.1003
  568SOL    HW1 2270   1.629   2.178   2.926 -0.0357 -2.5349  2.1478
  568SOL    HW2 2271   1.647   2.072   2.825  4.8604 -0.9889  0.0329
  568SOL     MW 2272   1.593   2.116   2.880  0.8438  0.0319  0.3616
  569SOL     OW 2273   0.181   2.280   2.456  0.0441  0.7769  0.0625
  569SOL    HW1 2274   0.106   2.310   2.406  0.9319  2.6495  1.5743
  569SOL    HW2 2275   0.187   2.355   2.516 -0.6103 -1.1581  0.2781
  569SOL     MW 2276   0.172   2.294   2.457  0.0749  0.7686  0.2904
  570SOL     OW 2277   1.464   0.381   0.488  0.7614 -0.2893  0.4529
  570SOL    HW1 2278   1.370   0.371   0.524 -2.0775  0.3042 -0.1039
  570SOL    HW2 2279   1.521   0.388   0.564  0.5654 -0.1618  0.4422
  570SOL     MW 2280   1.459   0.380   0.503  0.3610 -0.1942  0.3780
  571SOL     OW 2281   1.495   2.451   2.008 -0.6260  0.1176 -0.3575
  571SOL    HW1 2282   1.447   2.427   2.087  1.3508 -1.0679  1.9415
  571SOL    HW2 2283   1.519   2.369   1.964  0.6028 -2.7290  1.2492
  571SOL     MW 2284   1.492   2.437   2.012 -0.2030 -0.4144  0.1578
  572SOL     OW 2285   1.067   2.601   0.105  0.4699 -0.3192  0.3525
  572SOL    HW1 2286   1.073   2.685   0.058 -0.9050 -0.2616  0.4482
  572SOL    HW2 2287   0.967   2.584   0.088  0.6355 -0.9929 -3.4918
  572SOL     MW 2288   1.055   2.610   0.097  0.3103 -0.4005 -0.1421
  573SOL     OW 2289   1.104   2.277   0.198  0.0335 -0.1787 -0.3860
  573SOL    HW1 2290   1.160   2.282   0.121 -0.9846  0.0230  0.7438
  573SOL    HW2 2291   1.113   2.358   0.257 -1.6017  1.7428 -0.1046
  573SOL     MW 2292   1.112   2.288   0.196 -0.3166  0.1014 -0.1998
  574SOL     OW 2293   1.127   2.517   0.359 -0.0460 -0.1011  0.1646
  574SOL    HW1 2294   1.203   2.551   0.401 -0.1280 -1.3159  1.1273
  574SOL    HW2 2295   1.107   2.567   0.276  1.4408 -2.2745  0.5715
  574SOL     MW 2296   1.134   2.528   0.354  0.1393 -0.5481  0.3453
  575SOL     OW 2297   3.081   2.211   1.806 -0.7905 -0.4204  0.2152
  575SOL    HW1 2298   3.100   2.143   1.738  0.9388  1.2613  0.8245
  575SOL    HW2 2299   3.164   2.256   1.810 -1.8765 -1.7396  0.5095
  575SOL     MW 2300   3.094   2.208   1.798 -0.7057 -0.3725  0.3344
  576SOL     OW 2301   2.779   1.774   2.107  0.5464 -0.6266 -0.1251
  576SOL    HW1 2302   2.802   1.810   2.020 -0.2453  2.1638  0.2483
  576SOL    HW2 2303   2.691   1.739   2.092  1.7748 -0.2549  2.0657
  576SOL     MW 2304   2.770   1.774   2.094  0.6040 -0.2094  0.2132
  577SOL     OW 2305   2.058   0.208   0.096  0.3263  0.0708 -0.4062
  577SOL    HW1 2306   2.000   0.272   0.056  0.4329 -1.1365  2.0506
  577SOL    HW2 2307   2.016   0.178   0.177  0.5812 -1.9697 -0.0701
  577SOL     MW 2308   2.045   0.212   0.101  0.3740 -0.3577 -0.0377
  578SOL     OW 2309   1.943   2.018   2.362 -0.1381  0.3620 -0.5513
  578SOL    HW1 2310   1.888   2.003   2.278 -1.5461  1.5656 -0.3025
  578SOL    HW2 2311   2.007   1.948   2.360  0.5741  0.9129  0.9461
  578SOL     MW 2312   1.944   2.007   2.350 -0.2299  0.5935 -0.3209
  579SOL     OW 2313   0.909   2.378   2.412 -0.1126 -0.0142  0.4798
  579SOL    HW1 2314   0.952   2.358   2.495  0.4851  2.2227 -1.6894
  579SOL    HW2 2315   0.972   2.431   2.363 -0.8386 -0.7563  0.2262
  579SOL     MW 2316   0.923   2.382   2.416 -0.1295  0.1830  0.1601
  580SOL     OW 2317   0.922   2.903   3.053  0.1891 -0.2737  0.7007
  580SOL    HW1 2318   1.015   2.894   3.024  0.3745 -2.4042  1.6408
  580SOL    HW2 2319   0.868   2.851   2.997 -1.0327 -1.4608  1.5365
  580SOL     MW 2320   0.927   2.895   3.042  0.0523 -0.7114  0.9350
  581SOL     OW 2321   1.127   2.452   1.704  0.0393  0.2738 -0.3030
  581SOL    HW1 2322   1.180   2.523   1.747  0.8282  3.8825  1.8024
  581SOL    HW2 2323   1.176   2.424   1.622 -1.2118  1.0169 -4.0895
  581SOL     MW 2324   1.140   2.458   1.699 -0.0217  0.8480 -0.5248
  582SOL     OW 2325   0.050   2.783   2.604  0.1238 -0.2194  0.3383
  582SOL    HW1 2326   0.050   2.859   2.666  1.5195  1.4170 -1.3514
  582SOL    HW2 2327   0.135   2.790   2.561 -0.3880 -2.1066 -3.3419
  582SOL     MW 2328   0.061   2.794   2.607  0.2404 -0.2525 -0.3702
  583SOL     OW 2329   1.991   2.401   2.652  0.1115 -0.2612  0.2897
  583SOL    HW1 2330   2.059   2.427   2.582  0.9805  1.3176  0.3637
  583SOL    HW2 2331   1.986   2.302   2.653  0.2011  1.2881 -0.3272
  583SOL     MW 2332   1.999   2.392   2.643  0.2380  0.1515  0.2180
  584SOL     OW 2333   0.125   1.860   2.225 -0.9755 -0.2147  0.5371
  584SOL    HW1 2334   0.148   1.912   2.144 -3.6874  0.2253 -0.7247
  584SOL    HW2 2335   0.124   1.932   2.288  2.3644  0.2860 -0.4239
  584SOL     MW 2336   0.128   1.877   2.223 -0.8926 -0.0906  0.2438
  585SOL     OW 2337   1.570   2.665   0.224  0.6127 -0.9350 -0.2081
  585SOL    HW1 2338   1.551   2.605   0.150  0.6599  1.7126 -1.6436
  585SOL    HW2 2339   1.492   2.662   0.288 -3.4561 -0.1466  0.5355
  585SOL     MW 2340   1.558   2.657   0.222  0.0821 -0.4816 -0.2994
  586SOL     OW 2341   1.353   2.868   2.544  0.3576  0.1825  0.3647
  586SOL    HW1 2342   1.414   2.829   2.473  0.6927 -0.3132  1.7239
  586SOL    HW2 2343   1.352   2.962   2.539 -0.2041 -2.5950  0.6825
  586SOL     MW 2344   1.361   2.875   2.534  0.3277 -0.2493  0.5860
  587SOL     OW 2345   1.344   1.595   2.133 -0.1493  0.3431 -0.6966
  587SOL    HW1 2346   1.347   1.527   2.203  0.7107 -0.4532  0.3879
  587SOL    HW2 2347   1.306   1.547   2.059  1.2795  0.9117  0.8575
  587SOL     MW 2348   1.339   1.580   2.132  0.1527  0.3131 -0.3485
  588SOL     OW 2349   1.314   2.080   2.706 -0.2473 -0.0219 -0.6782
  588SOL    HW1 2350   1.343   1.990   2.714 -0.0467 -1.5707  3.5015
  588SOL    HW2 2351   1.291   2.107   2.793 -0.2848  2.6539  0.6439
  588SOL     MW 2352   1.315   2.072   2.719 -0.2258  0.1268  0.0477
  589SOL     OW 2353   1.349   2.008   0.117  0.6178 -0.4577 -0.0483
  589SOL    HW1 2354   1.375   2.098   0.146  0.8803  2.4365 -1.6653
  589SOL    HW2 2355   1.300   1.974   0.191 -1.3633 -0.1885  0.3171
  589SOL     MW 2356   1.346   2.016   0.130  0.3911 -0.0403 -0.2134
  590SOL     OW 2357   0.498   2.768   2.213  0.0088 -0.0282  0.5779
  590SOL    HW1 2358   0.463   2.747   2.127  0.1941  0.3296 -0.1184
  590SOL    HW2 2359   0.586   2.793   2.193 -2.8720 -1.3030 -1.0791
  590SOL     MW 2360   0.505   2.768   2.199 -0.3469 -0.1492  0.2674
  591SOL     OW 2361   2.252   0.634   0.005  0.1716  0.1833 -0.3637
  591SOL    HW1 2362   2.188   0.675  -0.048  2.0103  0.6766  3.8577
  591SOL    HW2 2363   2.336   0.656  -0.022  2.0711 -0.7939 -0.1477
  591SOL     MW 2364   2.255   0.643  -0.006  0.6648  0.1195  0.2218
  592SOL     OW 2365   1.763   2.952   0.780 -0.0814  0.0315 -0.2198
  592SOL    HW1 2366   1.758   3.024   0.717 -3.0816 -0.9336  2.7638
  592SOL    HW2 2367   1.855   2.926   0.775 -1.5063  0.0931 -1.1211
  592SOL     MW 2368   1.775   2.958   0.771 -0.6653 -0.0877  0.0549
  593SOL     OW 2369   1.956   0.645   0.805  0.3857 -0.0413  0.3420
  593SOL    HW1 2370   1.863   0.654   0.769 -0.9100 -1.5398 -0.7778
  593SOL    HW2 2371   1.993   0.560   0.783  1.1051 -0.2526 -0.7489
  593SOL     MW 2372   1.949   0.635   0.797  0.3096 -0.2669  0.0504
  594SOL     OW 2373   2.784   1.172   1.404 -0.4397  0.2933  0.0363
  594SOL    HW1 2374   2.877   1.209   1.410  3.5937 -1.0674  1.3388
  594SOL    HW2 2375   2.804   1.117   1.325 -1.3323 -3.8720 -0.1665
  594SOL     MW 2376   2.799   1.169   1.395 -0.0253 -0.4358  0.1814
  595SOL     OW 2377   0.441   0.993   0.801 -0.1498 -0.4239  0.0688
  595SOL    HW1 2378   0.474   1.031   0.722 -3.1238 -0.7569  2.5754
  595SOL    HW2 2379   0.453   1.058   0.873  1.7678  0.2284  3.1140
  595SOL     MW 2380   0.447   1.006   0.800 -0.2891 -0.3817  0.8013
  596SOL     OW 2381   2.487   1.337   0.578  0.1190 -0.1030 -0.3403
  596SOL    HW1 2382   2.545   1.399   0.530 -3.0631  1.3028 -0.1064
  596SOL    HW2 2383   2.518   1.324   0.665  0.1365 -2.5763 -0.2612
  596SOL     MW 2384   2.499   1.343   0.583 -0.2985 -0.2438 -0.2990
  597SOL     OW 2385   2.196   0.674   1.617 -0.1857  0.1627  0.5403
  597SOL    HW1 2386   2.214   0.614   1.687  1.1196  1.5874 -0.3033
  597SOL    HW2 2387   2.132   0.632   1.561  2.7377  2.3138  1.5199
  597SOL     MW 2388   2.190   0.661   1.619  0.3722  0.6345  0.5582
  598SOL     OW 2389   2.563   1.035   2.781 -0.3947  0.3348 -0.4426
  598SOL    HW1 2390   2.593   0.996   2.697 -2.4557 -1.0347 -1.6017
  598SOL    HW2 2391   2.649   1.061   2.825  0.6711  0.8431 -0.0252
  598SOL     MW 2392   2.578   1.033   2.775 -0.5260  0.2212 -0.5404
  599SOL     OW 2393   2.972   0.384   2.046  0.6203  0.0613 -0.0994
  599SOL    HW1 2394   3.025   0.395   2.126 -1.0903  0.4959  0.6201
  599SOL    HW2 2395   2.985   0.473   2.005 -2.3290  2.0785 -2.0219
  599SOL     MW 2396   2.981   0.397   2.051  0.0055  0.3848 -0.2581
  600SOL     OW 2397   1.864   1.599   0.873 -0.2423 -0.1625  0.6203
  600SOL    HW1 2398   1.903   1.621   0.958  1.1233 -0.0697 -0.9531
  600SOL    HW2 2399   1.800   1.670   0.857 -1.1079  1.2364 -1.1208
  600SOL     MW 2400   1.861   1.611   0.882 -0.1764  0.0343  0.1829
  601SOL     OW 2401   2.515   0.758   0.827  0.1244  0.3822 -0.6006
  601SOL    HW1 2402   2.526   0.780   0.921 -0.6246  1.2615 -0.3421
  601SOL    HW2 2403   2.432   0.717   0.813 -2.5969 -0.1524  0.0632
  601SOL     MW 2404   2.506   0.756   0.837 -0.3335  0.4277 -0.4789
  602SOL     OW 2405   2.301   1.941   0.776 -0.7875 -0.4683 -0.2521
  602SOL    HW1 2406   2.261   1.854   0.774 -0.4011 -1.1407  0.2229
  602SOL    HW2 2407   2.275   1.988   0.697 -0.8317 -0.2278 -0.7164
  602SOL     MW 2408   2.292   1.936   0.765 -0.7424 -0.5253 -0.2507
  603SOL     OW 2409   0.016   1.345   1.822 -0.2664 -0.0777  0.2632
  603SOL    HW1 2410   0.075   1.418   1.840 -1.8604  1.1503 -3.0500
  603SOL    HW2 2411   0.045   1.270   1.875 -0.7395 -0.7333 -1.0949
  603SOL     MW 2412   0.027   1.345   1.831 -0.5392 -0.0022 -0.3532
  604SOL     OW 2413   2.119   1.537   0.474 -0.6174  0.0794 -0.0971
  604SOL    HW1 2414   2.154   1.453   0.498 -1.1828  0.1603 -2.0081
  604SOL    HW2 2415   2.052   1.568   0.528  1.6159 -1.6033 -1.6989
  604SOL     MW 2416   2.115   1.530   0.484 -0.3973 -0.1320 -0.5606
  605SOL     OW 2417   2.544   1.474   0.852 -0.2692  0.0366  0.2937
  605SOL    HW1 2418   2.537   1.537   0.782  1.1567 -2.0973  2.7342
  605SOL    HW2 2419   2.585   1.397   0.822 -3.0745  1.9965  0.4396
  605SOL     MW 2420   2.548   1.472   0.839 -0.4512  0.0136  0.6349
  606SOL     OW 2421   2.542   1.671   2.021 -0.7062  0.6894 -0.0102
  606SOL    HW1 2422   2.457   1.715   2.004 -0.5357 -0.8243 -0.5608
  606SOL    HW2 2423   2.577   1.637   1.935  0.8166  1.2904 -0.0380
  606SOL     MW 2424   2.536   1.673   2.007 -0.4828  0.5690 -0.0865
  607SOL     OW 2425   2.433   1.085   3.014  0.2421 -0.8058  0.9608
  607SOL    HW1 2426   2.497   1.054   2.947  0.3235 -1.2683  0.2700
  607SOL    HW2 2427   2.462   1.048   3.095  0.1502 -1.8057 -3.0889
  607SOL     MW 2428   2.445   1.076   3.016  0.2407 -0.9987  0.3353
  608SOL     OW 2429   1.857   0.278   0.575  0.0676 -0.0540  0.1348
  608SOL    HW1 2430   1.841   0.342   0.509 -0.2567  1.8114  1.5982
  608SOL    HW2 2431   1.832   0.194   0.539  2.7254 -0.7206 -3.0793
  608SOL     MW 2432   1.852   0.275   0.562  0.3755  0.1041 -0.0962
  609SOL     OW 2433   2.045   1.958   3.020  0.3080  0.1391  0.8766
  609SOL    HW1 2434   1.971   1.898   2.985 -0.6434  1.0835  2.7931
  609SOL    HW2 2435   2.086   1.922   3.101 -1.1067  1.6232  1.1554
  609SOL     MW 2436   2.040   1.945   3.026 -0.0042  0.4595  1.1663
  610SOL     OW 2437   1.777   0.985   1.248  1.0355 -0.1660 -0.2068
  610SOL    HW1 2438   1.806   0.918   1.179  1.2480 -1.2388  1.0363
  610SOL    HW2 2439   1.685   1.006   1.239 -0.2491 -2.6950 -3.4326
  610SOL     MW 2440   1.769   0.979   1.238  0.8940 -0.6412 -0.4684
  611SOL     OW 2441   2.520   1.693   0.683 -0.1601  0.1923 -0.3574
  611SOL    HW1 2442   2.571   1.763   0.648 -0.7715 -2.5187 -0.5121
  611SOL    HW2 2443   2.425   1.710   0.667  0.0517 -0.2365 -0.5313
  611SOL     MW 2444   2.514   1.704   0.676 -0.2128 -0.2219 -0.4008
  612SOL     OW 2445   2.869   2.889   0.373  0.0651  0.0844 -0.6471
  612SOL    HW1 2446   2.880   2.926   0.464 -2.4168  0.3858  0.3896
  612SOL    HW2 2447   2.959   2.872   0.351 -1.8643  0.8545  0.3236
  612SOL     MW 2448   2.882   2.892   0.382 -0.5170  0.2258 -0.3822
  613SOL     OW 2449   1.455   1.024   0.901 -0.1416 -0.0258  0.3608
  613SOL    HW1 2450   1.471   1.108   0.848 -3.6285  0.6413 -1.1909
  613SOL    HW2 2451   1.493   1.047   0.981  1.1152 -0.3986 -0.3751
  613SOL     MW 2452   1.462   1.038   0.904 -0.4358  0.0130  0.0590
  614SOL     OW 2453   1.992   0.554   1.475 -0.3249 -0.4647 -0.1308
  614SOL    HW1 2454   1.975   0.480   1.545  0.1318 -0.6145  1.9490
  614SOL    HW2 2455   1.931   0.539   1.402 -2.1063 -3.6246  1.5096
  614SOL     MW 2456   1.982   0.542   1.474 -0.4997 -0.9014  0.3601
  615SOL     OW 2457   2.323   0.766   0.242 -0.2869  0.1957  0.2920
  615SOL    HW1 2458   2.401   0.726   0.274 -0.7076 -0.5068 -3.3198
  615SOL    HW2 2459   2.276   0.708   0.183  0.1645  3.4115  1.8098
  615SOL     MW 2460   2.327   0.753   0.238 -0.2828  0.5273  0.0157
  616SOL     OW 2461   2.506   0.410   1.655 -0.1887 -0.2340  0.3482
  616SOL    HW1 2462   2.465   0.325   1.622 -0.6208 -0.7515  0.6216
  616SOL    HW2 2463   2.503   0.477   1.587  1.2089  1.9673  0.6712
  616SOL     MW 2464   2.500   0.407   1.642 -0.0614 -0.0118  0.4269
  617SOL     OW 2465   2.789   0.639   1.704  0.0187 -0.2986 -0.0372
  617SOL    HW1 2466   2.722   0.620   1.776  1.1663  1.5115  0.4266
  617SOL    HW2 2467   2.810   0.553   1.667 -1.1956  0.6888 -2.8366
  617SOL     MW 2468   2.783   0.625   1.708  0.0099  0.0705 -0.3454
  618SOL     OW 2469   2.721   0.345   1.931 -0.7441 -0.2250  0.7710
  618SOL    HW1 2470   2.709   0.443   1.924  2.0740  0.8511 -1.1211
  618SOL    HW2 2471   2.802   0.334   1.979 -2.1677 -1.1926  2.0438
  618SOL     MW 2472   2.730   0.356   1.936 -0.5601 -0.2107  0.6893
  619SOL     OW 2473   2.671   0.727   0.060 -1.0243  0.4803 -0.2968
  619SOL    HW1 2474   2.711   0.811   0.085 -1.0977 -0.2917 -0.0260
  619SOL    HW2 2475   2.630   0.704   0.141 -0.9807 -1.5564 -0.8396
  619SOL     MW 2476   2.671   0.735   0.074 -1.0282  0.1097 -0.3327
  620SOL     OW 2477   2.208   1.045   0.916 -0.2797 -0.1968 -0.1054
  620SOL    HW1 2478   2.275   1.030   0.849  2.1215 -0.8853 -0.5536
  620SOL    HW2 2479   2.136   1.000   0.872  0.8163 -1.1842 -0.8112
  620SOL     MW 2480   2.207   1.037   0.901  0.1818 -0.4179 -0.2576
  621SOL     OW 2481   1.561   2.207   1.918 -0.3079 -0.1115  0.0545
  621SOL    HW1 2482   1.520   2.145   1.980  3.3852  2.0232 -0.6937
  621SOL    HW2 2483   1.655   2.178   1.924 -0.2499 -3.1675  2.4060
  621SOL     MW 2484   1.568   2.195   1.927  0.1870 -0.2331  0.2660
  622SOL     OW 2485   2.600   0.189   0.242  1.0107  0.4073  0.0291
  622SOL    HW1 2486   2.687   0.222   0.232  0.1687  0.7488 -0.4468
  622SOL    HW2 2487   2.619   0.101   0.285  1.3703 -0.1067  0.3725
  622SOL     MW 2488   2.614   0.182   0.247  0.9471  0.3846  0.0116
  623SOL     OW 2489   2.427   2.768   0.851  0.7089 -0.3205 -0.1760
  623SOL    HW1 2490   2.466   2.853   0.838  2.6468  0.1626  0.4038
  623SOL    HW2 2491   2.387   2.789   0.938 -1.2250 -0.1573 -0.0833
  623SOL     MW 2492   2.427   2.782   0.861  0.7094 -0.2352 -0.0873
  624SOL     OW 2493   2.152   1.667   3.023  0.5459 -0.8128  0.3351
  624SOL    HW1 2494   2.118   1.584   3.044 -3.3458 -0.9265  1.1567
  624SOL    HW2 2495   2.088   1.697   2.966 -2.3597  0.8422  0.0852
  624SOL     MW 2496   2.139   1.660   3.018 -0.3509 -0.6095  0.4105
  625SOL     OW 2497   2.188   1.862   1.046  0.3975 -0.2032  0.4307
  625SOL    HW1 2498   2.250   1.841   1.120 -0.0339  1.3517 -0.9887
  625SOL    HW2 2499   2.241   1.895   0.974  1.1800  0.9868  2.6026
  625SOL     MW 2500   2.204   1.863   1.046  0.4438  0.1590  0.5300
  626SOL     OW 2501   0.279   1.708   2.427 -0.0169  0.7918  0.5516
  626SOL    HW1 2502   0.222   1.675   2.494  0.4829 -0.3683 -0.9376
  626SOL    HW2 2503   0.219   1.755   2.370 -1.0602 -0.8165 -0.2578
  626SOL     MW 2504   0.264   1.710   2.428 -0.0886  0.4266  0.2483
  627SOL     OW 2505   2.471   0.719   2.536  0.8528  0.2126  0.1361
  627SOL    HW1 2506   2.413   0.795   2.547  0.0401  0.7614  0.9329
  627SOL    HW2 2507   2.453   0.686   2.450 -0.5662  2.0312 -0.5947
  627SOL     MW 2508   2.461   0.725   2.526  0.5584  0.5250  0.1448
  628SOL     OW 2509   2.282   1.385   1.311 -0.8156  0.4571  0.0046
  628SOL    HW1 2510   2.273   1.300   1.264 -0.9656  2.1230  0.1875
  628SOL    HW2 2511   2.366   1.423   1.277  3.8358 -1.1749  2.0292
  628SOL     MW 2512   2.292   1.379   1.300 -0.2217  0.4616  0.2958
  629SOL     OW 2513   1.858   0.544   1.232  0.3292  0.1438 -0.1237
  629SOL    HW1 2514   1.869   0.621   1.180  2.2157  0.8767  1.1682
  629SOL    HW2 2515   1.763   0.549   1.251 -0.4116  1.6625 -3.1295
  629SOL     MW 2516   1.847   0.555   1.227  0.4804  0.4409 -0.3498
  630SOL     OW 2517   2.362   1.877   3.066  0.0009  0.1142 -0.3762
  630SOL    HW1 2518   2.329   1.949   3.002  2.4419  1.0586 -1.8567
  630SOL    HW2 2519   2.305   1.805   3.045  1.9394 -0.7043  1.0268
  630SOL     MW 2520   2.350   1.877   3.055  0.5787  0.1308 -0.3864
  631SOL     OW 2521   2.068   1.755   1.551  0.0718 -0.6802  0.0030
  631SOL    HW1 2522   2.071   1.666   1.592  0.3476 -3.7968  2.6070
  631SOL    HW2 2523   2.019   1.745   1.464 -2.7534  1.3186  0.7043
  631SOL     MW 2524   2.062   1.742   1.545 -0.2645 -0.8277  0.4391
  632SOL     OW 2525   0.230   1.985   1.408  0.3653 -0.1462  0.2477
  632SOL    HW1 2526   0.184   2.006   1.492  0.5036 -0.3846 -1.0361
  632SOL    HW2 2527   0.271   1.901   1.408 -0.0012  3.7335  0.8513
  632SOL     MW 2528   0.229   1.977   1.419  0.3352  0.3343  0.1580
  633SOL     OW 2529   2.561   0.609   0.274 -0.4298  0.3017 -0.5438
  633SOL    HW1 2530   2.604   0.590   0.359  0.1854  5.3579 -1.7465
  633SOL    HW2 2531   2.559   0.525   0.225  0.6045 -0.1778 -1.7477
  633SOL     MW 2532   2.566   0.596   0.279 -0.2122  0.9056 -0.8613
  634SOL     OW 2533   2.670   0.032   0.655  0.2101 -0.0443 -0.0204
  634SOL    HW1 2534   2.741   0.105   0.652  0.7718  2.0207 -2.0838
  634SOL    HW2 2535   2.633   0.031   0.568 -0.4622  3.3536 -0.0841
  634SOL     MW 2536   2.675   0.042   0.643  0.1955  0.6765 -0.3011
  635SOL     OW 2537   2.578   0.137   1.847  0.6575  0.2446 -0.5814
  635SOL    HW1 2538   2.649   0.092   1.795 -0.7607 -0.3057  1.1003
  635SOL    HW2 2539   2.621   0.220   1.886 -1.4396  3.8947 -0.6552
  635SOL     MW 2540   2.593   0.142   1.846  0.1937  0.6536 -0.3692
  636SOL     OW 2541   2.840   1.607   0.900 -0.0485 -0.3620  0.0338
  636SOL    HW1 2542   2.746   1.620   0.913  0.3884  1.3504 -2.6968
  636SOL    HW2 2543   2.884   1.651   0.970 -1.3459  0.0223  1.4797
  636SOL     MW 2544   2.833   1.614   0.911 -0.1621 -0.0854 -0.1357
  637SOL     OW 2545   2.865   1.469   0.653 -0.0751  0.1157 -0.9303
  637SOL    HW1 2546   2.912   1.527   0.591  1.5468 -0.7827  0.1516
  637SOL    HW2 2547   2.857   1.527   0.731  2.1975  4.2300 -1.6048
  637SOL     MW 2548   2.870   1.484   0.655  0.4388  0.5400 -0.8766
  638SOL     OW 2549   2.663   0.519   0.523 -0.2351 -0.3965 -0.7293
  638SOL    HW1 2550   2.751   0.490   0.503 -1.1361 -0.2773  1.0058
  638SOL    HW2 2551   2.671   0.542   0.619  0.5645 -1.5410  0.2090
  638SOL     MW 2552   2.676   0.518   0.533 -0.2485 -0.5318 -0.3766
  639SOL     OW 2553   1.704   0.019   0.562 -0.1333 -0.2189 -0.3988
  639SOL    HW1 2554   1.615   0.048   0.524 -2.6133  4.0269 -0.3746
  639SOL    HW2 2555   1.747  -0.047   0.502 -0.4641  1.2835 -0.6660
  639SOL     MW 2556   1.697   0.014   0.549 -0.5042  0.5395 -0.4309
  640SOL     OW 2557   0.262   1.311   0.117 -0.0832  0.0452 -0.7452
  640SOL    HW1 2558   0.300   1.324   0.029 -1.1964  0.7359 -1.1772
  640SOL    HW2 2559   0.279   1.220   0.138  0.5081  2.0519 -0.2127
  640SOL     MW 2560   0.269   1.301   0.108 -0.1521  0.4011 -0.7320
  641SOL     OW 2561   2.234   0.419   0.412  0.2609  0.2966 -0.4395
  641SOL    HW1 2562   2.262   0.388   0.330  0.5629  0.5860 -0.7122
  641SOL    HW2 2563   2.294   0.383   0.476 -1.7408  1.7741 -2.4912
  641SOL     MW 2564   2.246   0.410   0.410  0.0367  0.5297 -0.7462
  642SOL     OW 2565   0.030   0.005   0.532  0.1986  0.4092 -0.8094
  642SOL    HW1 2566  -0.024   0.072   0.488  2.6737  0.4307  0.9085
  642SOL    HW2 2567  -0.032  -0.044   0.592 -1.9882  0.6017  1.9710
  642SOL     MW 2568   0.015   0.007   0.534  0.2366  0.4374 -0.2159
  643SOL     OW 2569   2.010   0.361   1.678 -0.1684 -0.4509  0.1547
  643SOL    HW1 2570   1.943   0.308   1.723  2.8816  0.2536 -0.4000
  643SOL    HW2 2571   2.072   0.298   1.637  2.8075 -0.2830  2.0879
  643SOL     MW 2572   2.009   0.346   1.679  0.6267 -0.3358  0.3366
  644SOL     OW 2573   2.704   1.922   1.045 -0.6028 -0.2768 -0.2805
  644SOL    HW1 2574   2.677   1.844   1.097 -3.2721  0.7704 -0.5965
  644SOL    HW2 2575   2.624   1.968   1.020 -1.0800 -1.4740 -0.5563
  644SOL     MW 2576   2.690   1.918   1.049 -1.0180 -0.2966 -0.3586
  645SOL     OW 2577   2.824   0.836   0.640  0.0923  0.0914  0.0094
  645SOL    HW1 2578   2.899   0.782   0.657  0.4347  0.3189  0.4086
  645SOL    HW2 2579   2.755   0.785   0.686 -0.6607 -0.9094 -1.0165
  645SOL     MW 2580   2.825   0.822   0.648  0.0382 -0.0106 -0.0733
  646SOL     OW 2581   0.064   2.269   0.874 -0.0670 -0.2033  0.1233
  646SOL    HW1 2582   0.119   2.203   0.834  1.5578 -1.1206  0.0141
  646SOL    HW2 2583   0.001   2.276   0.802  0.3866  3.3703  0.2871
  646SOL     MW 2584   0.063   2.261   0.859  0.2072  0.1471  0.1305
  647SOL     OW 2585   2.716   0.503   2.935  0.0225 -0.1342  0.0364
  647SOL    HW1 2586   2.678   0.484   3.018 -1.6033  0.1566  0.0752
  647SOL    HW2 2587   2.654   0.548   2.878  0.1755  3.3246  2.2223
  647SOL     MW 2588   2.703   0.506   2.939 -0.1719  0.3605  0.3300
  648SOL     OW 2589   2.189   0.706   1.170  0.4270  0.3702 -0.6061
  648SOL    HW1 2590   2.224   0.624   1.203  0.2667 -1.6835  1.1737
  648SOL    HW2 2591   2.189   0.764   1.242 -2.5853 -2.2430  0.6748
  648SOL     MW 2592   2.193   0.703   1.184  0.0084 -0.2456 -0.2023
  649SOL     OW 2593   2.374   2.683   1.326  0.0050  0.2910  0.7671
  649SOL    HW1 2594   2.466   2.703   1.314  0.0208  1.4635 -1.0584
  649SOL    HW2 2595   2.371   2.587   1.340 -0.3906 -2.8283 -2.2833
  649SOL     MW 2596   2.386   2.673   1.326 -0.0451  0.0342  0.1238
  650SOL     OW 2597   2.850   0.238   0.676 -0.0733 -0.3900  0.0595
  650SOL    HW1 2598   2.861   0.309   0.737  0.2931  0.9314 -1.2596
  650SOL    HW2 2599   2.915   0.249   0.602 -3.5308  0.1833  0.7276
  650SOL     MW 2600   2.860   0.248   0.674 -0.4811 -0.1400 -0.0264
  651SOL     OW 2601   3.064   0.440   0.992  0.1159  0.1108  0.1272
  651SOL    HW1 2602   3.131   0.473   0.925 -1.6152 -0.4115 -0.2964
  651SOL    HW2 2603   3.003   0.514   0.999 -1.3344 -0.1020 -0.1198
  651SOL     MW 2604   3.065   0.454   0.984 -0.3039  0.0138  0.0387
  652SOL     OW 2605   2.423   1.548   3.055 -0.6810  0.4197  0.4744
  652SOL    HW1 2606   2.475   1.555   2.979 -2.6014  0.5454 -0.8380
  652SOL    HW2 2607   2.338   1.599   3.052 -1.2937 -1.7524 -0.0727
  652SOL     MW 2608   2.419   1.555   3.044 -1.0152  0.1497  0.2290
  653SOL     OW 2609   1.815   0.471   0.350 -0.4123 -0.2205 -0.8865
  653SOL    HW1 2610   1.751   0.402   0.314 -1.7913 -1.9248 -2.6617
  653SOL    HW2 2611   1.876   0.503   0.286 -2.0785  2.3693  1.5020
  653SOL     MW 2612   1.814   0.466   0.337 -0.8141 -0.1036 -0.8056
  654SOL     OW 2613   2.421   1.015   0.746  0.6758 -0.4758 -0.5100
  654SOL    HW1 2614   2.343   1.002   0.684 -0.8178 -1.1410  1.3835
  654SOL    HW2 2615   2.445   0.927   0.774 -0.0021  1.4151 -0.2493
  654SOL     MW 2616   2.414   1.002   0.741  0.3893 -0.3141 -0.2258
  655SOL     OW 2617   2.898   0.853   0.387 -0.3056  0.4939 -0.0205
  655SOL    HW1 2618   2.852   0.852   0.469 -0.6296 -0.1356 -0.4413
  655SOL    HW2 2619   2.923   0.756   0.379  0.8804  0.2094  0.1696
  655SOL     MW 2620   2.895   0.840   0.397 -0.1918  0.3733 -0.0510
  656SOL     OW 2621   1.784   2.658   1.357 -0.7855  0.0668  0.4088
  656SOL    HW1 2622   1.844   2.735   1.381 -1.5119  0.0044 -1.0482
  656SOL    HW2 2623   1.832   2.576   1.370 -1.8382  0.9333 -0.2413
  656SOL     MW 2624   1.798   2.657   1.362 -1.0203  0.1729  0.1308
  657SOL     OW 2625   0.144   1.761   1.164  0.0546 -0.6979  0.3862
  657SOL    HW1 2626   0.198   1.823   1.110  0.7941  0.4995 -1.2386
  657SOL    HW2 2627   0.186   1.679   1.166 -1.1310  2.8481  1.1572
  657SOL     MW 2628   0.157   1.759   1.157 -0.0043 -0.0721  0.2736
  658SOL     OW 2629   2.652   1.311   0.244  0.0316 -0.2397 -0.0911
  658SOL    HW1 2630   2.633   1.232   0.303 -1.3008 -4.2142 -0.1018
  658SOL    HW2 2631   2.700   1.377   0.301  0.1756  0.4686 -0.4081
  658SOL     MW 2632   2.656   1.309   0.259 -0.1252 -0.6706 -0.1344
  659SOL     OW 2633   2.257   1.543   0.976  0.0000  0.3594 -0.3704
  659SOL    HW1 2634   2.355   1.564   0.979  1.3699 -1.6293  1.5949
  659SOL    HW2 2635   2.224   1.591   1.063 -2.0480 -0.9514  2.4625
  659SOL     MW 2636   2.265   1.552   0.988 -0.0894 -0.0759  0.2627
  660SOL     OW 2637   2.093   1.524   1.689  0.4855 -0.5204  0.8629
  660SOL    HW1 2638   2.087   1.557   1.780 -0.7293  0.3325 -1.3655
  660SOL    HW2 2639   2.007   1.476   1.684  2.0410 -1.9382 -1.4904
  660SOL     MW 2640   2.081   1.522   1.700  0.5305 -0.5949  0.2584
  661SOL     OW 2641   2.488   0.982   0.156  0.0789 -0.4220 -0.1950
  661SOL    HW1 2642   2.525   1.008   0.239 -0.9111  0.2643 -2.6332
  661SOL    HW2 2643   2.448   0.892   0.167  1.1652 -1.4954 -3.4727
  661SOL     MW 2644   2.488   0.974   0.168  0.0916 -0.4731 -0.9492
  662SOL     OW 2645   2.579   3.036   0.899  0.3699 -0.4512  0.0396
  662SOL    HW1 2646   2.504   3.083   0.933 -0.7378  0.4884  1.4634
  662SOL    HW2 2647   2.614   3.074   0.820  1.4609 -0.9166  1.2270
  662SOL     MW 2648   2.574   3.047   0.893  0.3677 -0.3887  0.3841
  663SOL     OW 2649   2.682   1.487   0.455  0.1078 -0.2043 -0.1775
  663SOL    HW1 2650   2.678   1.577   0.431 -1.0037 -1.0138 -2.1423
  663SOL    HW2 2651   2.746   1.487   0.526 -1.6838 -2.0022 -1.8118
  663SOL     MW 2652   2.690   1.499   0.461 -0.2753 -0.5483 -0.6524
  664SOL     OW 2653   2.570   1.543   1.578  0.1642  0.0196  0.5744
  664SOL    HW1 2654   2.540   1.633   1.572  0.4487 -0.1249  1.6945
  664SOL    HW2 2655   2.485   1.490   1.580  1.3207  0.2917 -0.9829
  664SOL     MW 2656   2.555   1.548   1.578  0.3543  0.0364  0.5167
  665SOL     OW 2657   2.792   0.837   2.037 -0.8658 -0.5095 -0.4871
  665SOL    HW1 2658   2.769   0.894   1.964  0.9855  0.0856 -0.6214
  665SOL    HW2 2659   2.866   0.782   2.013  0.4587  0.2690  4.1915
  665SOL     MW 2660   2.799   0.837   2.024 -0.4468 -0.3283  0.1124
  666SOL     OW 2661   2.772   3.089   1.706 -0.3037 -0.0415  0.3433
  666SOL    HW1 2662   2.740   3.076   1.616  2.2966 -1.8491 -1.4754
  666SOL    HW2 2663   2.752   3.005   1.750 -0.1492  0.4844  1.1398
  666SOL     MW 2664   2.765   3.076   1.700  0.0598 -0.2106  0.2085
  667SOL     OW 2665   1.963   2.670   1.775 -0.5057  0.6469 -0.7410
  667SOL    HW1 2666   2.002   2.649   1.859 -1.0550  0.8081 -0.8343
  667SOL    HW2 2667   2.025   2.736   1.741 -1.1336  1.3954 -0.4409
  667SOL     MW 2668   1.976   2.676   1.781 -0.6610  0.7669 -0.7137
  668SOL     OW 2669   2.720   0.581   0.790 -0.2069  0.0388  0.0990
  668SOL    HW1 2670   2.790   0.606   0.848 -1.0233 -0.7910  1.8272
  668SOL    HW2 2671   2.660   0.659   0.799  0.5469 -5.3217  0.3980
  668SOL     MW 2672   2.721   0.594   0.799 -0.2152 -0.7780  0.3664
  669SOL     OW 2673   0.139   0.879   0.713 -0.3679 -0.5317  0.4822
  669SOL    HW1 2674   0.093   0.957   0.750 -0.2693  1.2285  2.9891
  669SOL    HW2 2675   0.199   0.873   0.792  2.0251  0.1756  0.9179
  669SOL     MW 2676   0.141   0.888   0.729 -0.0391 -0.2061  0.8704
  670SOL     OW 2677   2.867   0.291   0.206  0.2974 -0.4412  0.1294
  670SOL    HW1 2678   2.887   0.250   0.117 -1.5438  0.1644 -2.2582
  670SOL    HW2 2679   2.891   0.383   0.190 -1.0372  2.6199 -2.6348
  670SOL     MW 2680   2.873   0.297   0.192 -0.1216  0.0426 -0.5503
  671SOL     OW 2681   2.033   3.055   1.576 -0.5375  0.4512 -0.2124
  671SOL    HW1 2682   2.003   3.011   1.495 -1.0558  0.9079 -0.5019
  671SOL    HW2 2683   1.952   3.064   1.628 -1.8086 -1.8247 -0.2902
  671SOL     MW 2684   2.019   3.050   1.572 -0.7736  0.2112 -0.2609
  672SOL     OW 2685   1.903   1.699   1.306  0.2544 -0.1150 -0.3887
  672SOL    HW1 2686   1.824   1.747   1.335 -0.2571 -0.1693  0.6437
  672SOL    HW2 2687   1.917   1.730   1.210 -1.2927 -0.3658  0.4185
  672SOL     MW 2688   1.894   1.709   1.297 -0.0172 -0.1552 -0.1460
  673SOL     OW 2689   2.788   1.125   0.616  0.1826 -0.0990  0.4957
  673SOL    HW1 2690   2.805   1.038   0.652  1.3681  0.4303 -1.8401
  673SOL    HW2 2691   2.876   1.167   0.616  1.5932 -0.9519  0.9100
  673SOL     MW 2692   2.802   1.119   0.621  0.5251 -0.1417  0.2422
  674SOL     OW 2693   2.455   3.073   1.273  0.1452  0.5261 -0.7548
  674SOL    HW1 2694   2.410   3.091   1.185 -0.5184 -0.1364 -0.5095
  674SOL    HW2 2695   2.450   2.980   1.296 -2.0002  0.5743  0.2885
  674SOL     MW 2696   2.448   3.063   1.264 -0.2254  0.4450 -0.5848
  675SOL     OW 2697   3.059   0.882   1.082 -0.4129  0.1456  0.1152
  675SOL    HW1 2698   3.128   0.901   1.146  0.7314  1.8196  0.4015
  675SOL    HW2 2699   3.083   0.929   1.006 -0.9676  0.3331 -0.7564
  675SOL     MW 2700   3.071   0.891   1.080 -0.3351  0.3912  0.0380
  676SOL     OW 2701   2.956   1.481   1.654  0.0167 -0.1656 -0.0421
  676SOL    HW1 2702   2.890   1.415   1.642 -0.3928 -3.7745 -1.7887
  676SOL    HW2 2703   3.006   1.456   1.729  0.6344 -0.7946 -0.7318
  676SOL     MW 2704   2.954   1.469   1.662  0.0441 -0.7247 -0.3636
  677SOL     OW 2705   2.365   0.588   1.991 -0.1049  0.5456  0.5245
  677SOL    HW1 2706   2.316   0.534   1.930  0.2734  0.1653  3.3666
  677SOL    HW2 2707   2.319   0.676   1.987 -0.5738  2.4214 -2.8688
  677SOL     MW 2708   2.353   0.592   1.982 -0.1169  0.7429  0.4518
  678SOL     OW 2709   2.509   1.677   0.327 -0.6920 -0.2485 -0.1270
  678SOL    HW1 2710   2.436   1.737   0.317  1.1879 -1.3180 -1.5962
  678SOL    HW2 2711   2.483   1.597   0.286  1.7970  1.6178 -0.5708
  678SOL     MW 2712   2.496   1.674   0.320 -0.1156 -0.1434 -0.3794
  679SOL     OW 2713   2.240   0.481   1.287 -0.1606  0.1623  0.2441
  679SOL    HW1 2714   2.227   0.390   1.266 -1.2455 -0.0269  0.5032
  679SOL    HW2 2715   2.156   0.499   1.326 -1.5544  1.2068 -1.8588
  679SOL     MW 2716   2.227   0.472   1.290 -0.4877  0.2752  0.0008
  680SOL     OW 2717   2.374   0.180   1.457  0.1063 -0.2684 -0.1597
  680SOL    HW1 2718   2.278   0.179   1.445 -2.4679  1.1358 -1.3069
  680SOL    HW2 2719   2.399   0.121   1.388 -0.1065  3.0747  3.3375
  680SOL     MW 2720   2.365   0.172   1.447 -0.2614  0.3580  0.1504
  681SOL     OW 2721   0.290   0.528   1.547 -0.3067  0.7307  0.6027
  681SOL    HW1 2722   0.281   0.462   1.623 -0.3564 -2.4982  3.0103
  681SOL    HW2 2723   0.379   0.531   1.524 -1.1744  0.9987 -2.2577
  681SOL     MW 2724   0.300   0.520   1.554 -0.4278  0.3400  0.5430
  682SOL     OW 2725   0.141   2.842   1.525 -0.3267 -0.2731  0.3340
  682SOL    HW1 2726   0.204   2.905   1.566 -1.6272  1.4700  2.3932
  682SOL    HW2 2727   0.054   2.872   1.540  0.2841 -1.1314 -0.8046
  682SOL     MW 2728   0.138   2.855   1.532 -0.4177 -0.1563  0.4554
  683SOL     OW 2729   2.060   0.788   2.950 -0.0170  0.0100 -0.4205
  683SOL    HW1 2730   1.972   0.744   2.960  1.3762  0.9321 -2.1998
  683SOL    HW2 2731   2.062   0.858   3.016 -0.5868 -1.4814  0.2466
  683SOL     MW 2732   2.048   0.791   2.960  0.0916 -0.0651 -0.5673
  684SOL     OW 2733   2.257   1.672   0.746  0.3873  0.7117  0.2129
  684SOL    HW1 2734   2.241   1.603   0.680  1.4610 -0.2273  0.5312
  684SOL    HW2 2735   2.258   1.618   0.825  1.1845  0.1304 -1.1631
  684SOL     MW 2736   2.255   1.655   0.748  0.6341  0.5111  0.0733
  685SOL     OW 2737   2.636   1.713   1.216  0.3123 -0.9199  0.3818
  685SOL    HW1 2738   2.685   1.672   1.288 -0.9326  0.4715  1.9210
  685SOL    HW2 2739   2.599   1.642   1.171  0.5888 -0.0824  3.0911
  685SOL     MW 2740   2.638   1.698   1.220  0.1845 -0.6258  0.9423
  686SOL     OW 2741   2.912   0.738   1.484  0.0378 -0.2766 -0.0572
  686SOL    HW1 2742   2.875   0.711   1.565 -2.3255  1.5948  0.4059
  686SOL    HW2 2743   3.009   0.714   1.477  1.0431  1.1212 -1.4848
  686SOL     MW 2744   2.920   0.731   1.494 -0.1414  0.1547 -0.1844
  687SOL     OW 2745   2.148   0.210   1.211  0.0325 -0.0568 -0.1650
  687SOL    HW1 2746   2.212   0.161   1.161  1.5454 -0.5683  2.0236
  687SOL    HW2 2747   2.094   0.247   1.146 -0.0863 -1.5364  0.5092
  687SOL     MW 2748   2.149   0.209   1.196  0.2164 -0.3195  0.2127
  688SOL     OW 2749   2.400   0.584   1.473  0.8502  0.8649 -0.3856
  688SOL    HW1 2750   2.353   0.521   1.415  1.8971 -2.1273 -0.8288
  688SOL    HW2 2751   2.322   0.610   1.519 -1.3273 -2.3970  0.5463
  688SOL     MW 2752   2.383   0.579   1.471  0.7010  0.0397 -0.3211
  689SOL     OW 2753   2.479   0.704   2.950  0.3810 -0.5939  0.0516
  689SOL    HW1 2754   2.470   0.772   2.881 -1.6614  0.6186 -1.2741
  689SOL    HW2 2755   2.545   0.729   3.016  0.0745  0.9408 -1.7106
  689SOL     MW 2756   2.487   0.716   2.949  0.0711 -0.2314 -0.3558
  690SOL     OW 2757   1.983   0.827   1.862  0.0751 -0.5004  0.2351
  690SOL    HW1 2758   1.938   0.744   1.878 -0.3992  1.5984  2.0184
  690SOL    HW2 2759   2.000   0.845   1.772 -1.8939  1.3596 -1.2759
  690SOL     MW 2760   1.979   0.818   1.853 -0.2473  0.0219  0.2710
  691SOL     OW 2761   2.399   0.262   0.861 -0.1331 -0.5617 -0.6825
  691SOL    HW1 2762   2.441   0.335   0.898 -3.3573  0.7400 -2.3527
  691SOL    HW2 2763   2.309   0.289   0.877  0.3831 -0.3231  0.7803
  691SOL     MW 2764   2.392   0.275   0.868 -0.4904 -0.3585 -0.7099
  692SOL     OW 2765   2.853   1.676   1.445  0.5349 -0.3953  0.3820
  692SOL    HW1 2766   2.860   1.617   1.517  1.0729 -1.3479 -0.0522
  692SOL    HW2 2767   2.880   1.769   1.479  1.1267 -0.2451  0.4796
  692SOL     MW 2768   2.857   1.680   1.459  0.6839 -0.5012  0.3376
  693SOL     OW 2769   2.257   0.386   0.134  0.1657 -0.0716  0.0527
  693SOL    HW1 2770   2.179   0.332   0.118 -2.2602 -3.1099  1.9298
  693SOL    HW2 2771   2.242   0.475   0.097  0.1500 -0.7115  0.5421
  693SOL     MW 2772   2.245   0.391   0.127 -0.1565 -0.5569  0.3649
  694SOL     OW 2773   1.922   1.217   1.199 -0.3794 -0.0506 -0.4646
  694SOL    HW1 2774   2.008   1.209   1.154  0.4033 -0.8502 -0.2247
  694SOL    HW2 2775   1.892   1.126   1.209  0.7411 -0.5730 -0.1925
  694SOL     MW 2776   1.930   1.204   1.195 -0.1283 -0.2250 -0.3970
  695SOL     OW 2777   3.075   1.523   1.288 -0.0704 -0.6808  0.0236
  695SOL    HW1 2778   3.031   1.497   1.206  0.4844  0.9020  1.7515
  695SOL    HW2 2779   3.016   1.589   1.335 -0.3244  0.0352  1.2346
  695SOL     MW 2780   3.062   1.528   1.283 -0.0307 -0.3775  0.4114
  696SOL     OW 2781   2.060   1.354   0.824 -0.2164  0.0826 -0.2633
  696SOL    HW1 2782   2.103   1.393   0.893 -0.3782 -1.4736 -2.4158
  696SOL    HW2 2783   2.003   1.292   0.861  1.4711 -1.8010 -1.1051
  696SOL     MW 2784   2.058   1.351   0.838 -0.0151 -0.3712 -0.6584
  697SOL     OW 2785   2.922   1.043   2.169  0.1224 -0.0419 -0.4163
  697SOL    HW1 2786   2.856   1.098   2.193  2.6197 -2.2155 -1.7570
  697SOL    HW2 2787   2.880   0.961   2.145  2.2637 -1.5173  1.9967
  697SOL     MW 2788   2.908   1.039   2.169  0.7344 -0.5233 -0.2748
  698SOL     OW 2789   2.488   0.344   0.024 -0.5439 -0.0840  0.3629
  698SOL    HW1 2790   2.398   0.358   0.064 -2.6430  2.2369 -1.1523
  698SOL    HW2 2791   2.532   0.280   0.084  2.5199 -2.2679  0.7275
  698SOL     MW 2792   2.482   0.338   0.037 -0.4166 -0.0659  0.2111
  699SOL     OW 2793   1.834   1.554   2.072  0.2666 -0.0791  0.2464
  699SOL    HW1 2794   1.777   1.481   2.044 -0.3862 -0.5193 -2.2201
  699SOL    HW2 2795   1.918   1.547   2.036  0.6324 -0.5309 -1.2395
  699SOL     MW 2796   1.838   1.543   2.063  0.2287 -0.1968 -0.2751
  700SOL     OW 2797   2.702   0.922   1.503  0.5973 -0.0897  0.6020
  700SOL    HW1 2798   2.730   0.987   1.441 -4.0296 -0.5723 -0.6958
  700SOL    HW2 2799   2.783   0.868   1.499 -0.0593  0.0719  1.0256
  700SOL     MW 2800   2.717   0.924   1.495 -0.0998 -0.1321  0.4867
  701SOL     OW 2801   1.640   1.185   2.499  0.6950  0.2396 -0.3103
  701SOL    HW1 2802   1.732   1.174   2.474 -1.4884 -0.3940  0.2554
  701SOL    HW2 2803   1.635   1.231   2.583  0.6328  1.4985  1.1231
  701SOL     MW 2804   1.651   1.190   2.506  0.3987  0.3221 -0.0465
  702SOL     OW 2805   2.142   0.410   0.857  0.2702  0.1268 -0.3386
  702SOL    HW1 2806   2.136   0.341   0.795  0.8835  0.4533  2.4923
  702SOL    HW2 2807   2.209   0.475   0.821  1.5347 -1.9004 -2.7396
  702SOL     MW 2808   2.150   0.410   0.844  0.5180 -0.0976 -0.2819
  703SOL     OW 2809   2.719   1.212   1.062  0.1489  0.3760 -0.2472
  703SOL    HW1 2810   2.697   1.217   0.971  0.3229  2.0554  2.3033
  703SOL    HW2 2811   2.744   1.118   1.088  0.5451  0.5238 -0.2714
  703SOL     MW 2812   2.719   1.201   1.054  0.2242  0.6171  0.0862
  704SOL     OW 2813   3.061   1.163   0.064  0.3313 -0.1830  0.4160
  704SOL    HW1 2814   2.961   1.165   0.059  0.9442  1.6141 -1.7075
  704SOL    HW2 2815   3.073   1.122   0.146 -3.5595 -0.5169  1.7489
  704SOL     MW 2816   3.050   1.158   0.074 -0.1012  0.0101  0.3117
  705SOL     OW 2817   2.187   1.614   1.227  0.3678 -0.2990  0.3120
  705SOL    HW1 2818   2.095   1.636   1.254 -1.3149  1.0700  1.6698
  705SOL    HW2 2819   2.214   1.528   1.262  0.6211  0.5710  0.3941
  705SOL     MW 2820   2.178   1.606   1.235  0.1792 -0.0036  0.5020
  706SOL     OW 2821   3.023   1.235   0.658 -0.0742  0.5686 -0.0525
  706SOL    HW1 2822   3.041   1.249   0.560  1.4329  0.8310  0.6050
  706SOL    HW2 2823   2.993   1.321   0.677 -0.6480 -1.9192 -3.3874
  706SOL     MW 2824   3.021   1.248   0.648  0.0489  0.2749 -0.4058
  707SOL     OW 2825   2.314   0.062   1.028 -0.5907 -0.0493  0.1557
  707SOL    HW1 2826   2.374   0.119   0.988  0.3899 -1.4270 -1.2999
  707SOL    HW2 2827   2.244   0.044   0.966  0.7930 -2.9412  1.3646
  707SOL     MW 2828   2.312   0.067   1.015 -0.2787 -0.6126  0.1232
  708SOL     OW 2829   2.417   1.438   0.192  0.4253  0.6495  0.1599
  708SOL    HW1 2830   2.492   1.382   0.222 -1.1515 -2.6882  1.9357
  708SOL    HW2 2831   2.432   1.470   0.105 -0.8636 -2.6334  0.8130
  708SOL     MW 2832   2.429   1.435   0.185  0.0472 -0.2240  0.4803
  709SOL     OW 2833   1.770   1.646   0.210  0.0648  0.2075  0.3103
  709SOL    HW1 2834   1.752   1.683   0.121  0.3437 -0.1790 -2.2119
  709SOL    HW2 2835   1.696   1.677   0.263  0.3548  0.1850 -1.1393
  709SOL     MW 2836   1.758   1.655   0.206  0.1399  0.1535 -0.2138
  710SOL     OW 2837   2.196   1.154   1.161 -0.6053  0.0645 -0.3126
  710SOL    HW1 2838   2.218   1.096   1.087  0.2031  1.9629  0.1295
  710SOL    HW2 2839   2.215   1.095   1.237 -1.1575 -1.6328  0.9284
  710SOL     MW 2840   2.201   1.139   1.161 -0.5715  0.0910 -0.0905
  711SOL     OW 2841   2.332   0.185   1.727  0.1057  0.1631 -0.4560
  711SOL    HW1 2842   2.422   0.156   1.758 -0.0952 -0.3938  0.0495
  711SOL    HW2 2843   2.342   0.182   1.634  0.0045  1.0485 -0.0998
  711SOL     MW 2844   2.345   0.181   1.719  0.0658  0.2064 -0.3423
  712SOL     OW 2845   1.907   0.538   0.094  0.2642  1.1812  0.1626
  712SOL    HW1 2846   1.812   0.568   0.104 -1.5292 -0.7938 -1.6531
  712SOL    HW2 2847   1.957   0.612   0.110 -0.9759 -1.6175  0.2523
  712SOL     MW 2848   1.901   0.552   0.097 -0.1360  0.5513 -0.0652
  713SOL     OW 2849   2.555   0.824   1.082  0.2600 -0.1571  0.0247
  713SOL    HW1 2850   2.556   0.746   1.132  1.5837  1.9481  1.5950
  713SOL    HW2 2851   2.474   0.855   1.123 -2.5629  2.2037  1.9619
  713SOL     MW 2852   2.544   0.818   1.094  0.0622  0.4322  0.4875
  714SOL     OW 2853   2.216   0.204   1.981 -0.6005  0.3243  0.2586
  714SOL    HW1 2854   2.268   0.151   2.047  3.6230 -0.9143  0.6578
  714SOL    HW2 2855   2.254   0.163   1.899 -1.5020 -1.6474  0.9635
  714SOL     MW 2856   2.228   0.192   1.979 -0.1622 -0.0993  0.4043
  715SOL     OW 2857   1.750   1.897   1.709 -0.0914  0.7749  0.3753
  715SOL    HW1 2858   1.837   1.872   1.670  1.9986 -0.0504 -1.9241
  715SOL    HW2 2859   1.736   1.846   1.787 -1.1044 -0.2538  0.3785
  715SOL     MW 2860   1.760   1.887   1.714  0.0507  0.5303  0.0724
  716SOL     OW 2861   2.295   0.599   0.727 -0.2013 -0.0191 -0.1624
  716SOL    HW1 2862   2.339   0.524   0.690 -1.8508 -1.2228  1.9952
  716SOL    HW2 2863   2.256   0.642   0.649 -1.4293 -1.3461 -1.9478
  716SOL     MW 2864   2.296   0.595   0.712 -0.5810 -0.3530 -0.1133
  717SOL     OW 2865   2.886   1.612   2.868  0.2137 -0.2053  0.1824
  717SOL    HW1 2866   2.962   1.574   2.904  0.2908  0.7783 -2.8501
  717SOL    HW2 2867   2.844   1.654   2.945 -0.8917  0.1973 -0.7839
  717SOL     MW 2868   2.890   1.613   2.883  0.0780 -0.0224 -0.3452
  718SOL     OW 2869   2.692   1.436   1.337  0.5065 -0.1725  0.0711
  718SOL    HW1 2870   2.692   1.468   1.424  0.4561 -1.7493  0.5045
  718SOL    HW2 2871   2.713   1.341   1.336 -0.2759 -0.1400 -2.7905
  718SOL     MW 2872   2.695   1.428   1.348  0.3966 -0.3763 -0.2493
  719SOL     OW 2873   2.210   1.274   0.601  0.5005 -0.4686  0.3157
  719SOL    HW1 2874   2.299   1.309   0.600 -1.5041 -1.4999  1.1882
  719SOL    HW2 2875   2.169   1.317   0.680 -0.4089  0.7664  1.7459
  719SOL     MW 2876   2.216   1.284   0.611  0.1160 -0.4418  0.6195
  720SOL     OW 2877   2.794   1.184   0.057  0.2881  0.2340  0.3248
  720SOL    HW1 2878   2.808   1.087   0.072  2.0134  1.2282  1.2562
  720SOL    HW2 2879   2.747   1.232   0.132  0.7763  2.2193 -1.9466
  720SOL     MW 2880   2.789   1.178   0.069  0.5801  0.6271  0.1480
  721SOL     OW 2881   2.465   0.833   1.358  0.8286 -0.3503  0.7654
  721SOL    HW1 2882   2.451   0.750   1.407  0.1147  0.9096  0.3752
  721SOL    HW2 2883   2.555   0.859   1.377 -0.3841 -1.0247  2.1383
  721SOL     MW 2884   2.475   0.826   1.367  0.5744 -0.2731  0.8951
  722SOL     OW 2885   2.604   1.108   0.428 -0.4315 -0.1050 -0.3512
  722SOL    HW1 2886   2.533   1.151   0.480  1.6646  1.9329  2.7269
  722SOL    HW2 2887   2.684   1.108   0.484 -3.3444  0.5541  0.4198
  722SOL     MW 2888   2.605   1.114   0.442 -0.5393  0.2508  0.1567
  723SOL     OW 2889   2.314   1.388   1.576 -0.5998  0.4589 -0.4427
  723SOL    HW1 2890   2.291   1.393   1.483  0.6519 -0.2985  0.2877
  723SOL    HW2 2891   2.244   1.429   1.622 -0.8769  2.3354 -1.3066
  723SOL     MW 2892   2.302   1.394   1.570 -0.4712  0.6066 -0.4603
  724SOL     OW 2893   2.430   0.365   0.612  0.2100  0.1765  0.4405
  724SOL    HW1 2894   2.446   0.307   0.686  2.5169  0.7053  0.1022
  724SOL    HW2 2895   2.512   0.406   0.581 -0.7748  0.0684  0.6371
  724SOL     MW 2896   2.443   0.363   0.618  0.3844  0.2320  0.4218
  725SOL     OW 2897   2.552   0.593   1.212  0.2617 -0.4372  0.2083
  725SOL    HW1 2898   2.640   0.606   1.238 -0.5857  2.1633 -1.6184
  725SOL    HW2 2899   2.502   0.616   1.288  3.1284 -1.2016  0.0715
  725SOL     MW 2900   2.557   0.598   1.226  0.5281 -0.1949 -0.0507
  726SOL     OW 2901   2.562   2.469   0.566 -0.1031  0.0540  0.1639
  726SOL    HW1 2902   2.533   2.525   0.495 -1.1496  1.4865  0.8134
  726SOL    HW2 2903   2.492   2.482   0.634 -0.9594  0.2352 -1.4975
  726SOL     MW 2904   2.549   2.479   0.566 -0.3541  0.2669  0.0304
  727SOL     OW 2905   2.885   0.340   1.707 -0.0762 -0.3357 -0.0933
  727SOL    HW1 2906   2.840   0.328   1.621  1.8253 -2.4540  2.3533
  727SOL    HW2 2907   2.822   0.308   1.776  0.8863  1.7477 -2.8895
  727SOL     MW 2908   2.870   0.334   1.704  0.3017 -0.3403 -0.1394
  728SOL     OW 2909   2.799   1.165   2.894 -0.2072 -0.4289  0.6818
  728SOL    HW1 2910   2.785   1.239   2.839  0.5027 -0.7374 -0.4343
  728SOL    HW2 2911   2.788   1.189   2.987 -0.8628  2.1779 -0.9941
  728SOL     MW 2912   2.795   1.178   2.899 -0.2000 -0.1256  0.3134
  729SOL     OW 2913   2.493   1.494   1.142 -0.1133  0.0025  0.2545
  729SOL    HW1 2914   2.574   1.463   1.194  0.2138  3.6242 -2.2060
  729SOL    HW2 2915   2.484   1.433   1.071 -1.5211 -0.3824  1.1441
  729SOL     MW 2916   2.503   1.482   1.140 -0.2559  0.4296  0.0473
  730SOL     OW 2917   2.270   1.183   0.182  0.2633 -0.1242 -0.4554
  730SOL    HW1 2918   2.352   1.136   0.159  0.0713  5.0092 -0.9537
  730SOL    HW2 2919   2.290   1.275   0.174  2.9105  0.4319  4.0225
  730SOL     MW 2920   2.283   1.189   0.178  0.5872  0.6265  0.0697
  731SOL     OW 2921   2.767   1.950   2.857  0.4047  0.7951  0.4519
  731SOL    HW1 2922   2.694   1.984   2.799  0.1929  1.8982  1.5931
  731SOL    HW2 2923   2.849   1.990   2.836 -0.8072 -1.3006 -0.9186
  731SOL     MW 2924   2.769   1.960   2.847  0.2169  0.6642  0.4216
  732SOL     OW 2925   2.222   0.948   1.339  0.0434 -1.0893 -0.0271
  732SOL    HW1 2926   2.187   0.935   1.428  0.8479 -2.6702  0.4820
  732SOL    HW2 2927   2.314   0.923   1.353 -3.2476 -1.2405 -0.7724
  732SOL     MW 2928   2.229   0.943   1.353 -0.2847 -1.3178 -0.0583
  733SOL     OW 2929   2.353   2.744   2.995 -0.0595  0.2145  0.0590
  733SOL    HW1 2930   2.276   2.770   2.949 -1.1033 -1.4789  0.1605
  733SOL    HW2 2931   2.368   2.651   2.983 -0.9333  0.5095  0.7669
  733SOL     MW 2932   2.345   2.735   2.987 -0.3125  0.0300  0.1658
  734SOL     OW 2933   1.418   0.343   2.475  0.0413 -0.0552 -0.2648
  734SOL    HW1 2934   1.408   0.318   2.565 -0.4507  0.7763 -2.2089
  734SOL    HW2 2935   1.471   0.276   2.430  2.3857  2.6117 -2.3856
  734SOL     MW 2936   1.423   0.331   2.481  0.2857  0.4064 -0.8011
  735SOL     OW 2937   2.919   0.908   2.648  0.0155  0.4610  0.1623
  735SOL    HW1 2938   2.925   0.815   2.662 -0.7708 -2.9502  1.5870
  735SOL    HW2 2939   2.945   0.939   2.735  0.7699 -0.1045  0.5539
  735SOL     MW 2940   2.923   0.900   2.661  0.0113 -0.0637  0.4020
  736SOL     OW 2941   0.092   0.579   2.516  0.2781  0.2639  0.0179
  736SOL    HW1 2942   0.132   0.659   2.491 -0.4569 -1.1787 -0.9133
  736SOL    HW2 2943   0.099   0.524   2.437 -0.3381  0.0248  0.2436
  736SOL     MW 2944   0.098   0.582   2.503  0.0998  0.0420 -0.0752
  737SOL     OW 2945   2.930   0.636   2.585  0.0585 -0.2670  0.3304
  737SOL    HW1 2946   2.874   0.598   2.520 -0.0602  0.3421  1.3297
  737SOL    HW2 2947   3.023   0.626   2.550  2.2971  1.8467 -1.6445
  737SOL     MW 2948   2.935   0.629   2.572  0.3382  0.0922  0.2017
  738SOL     OW 2949   0.124   0.578   1.905 -0.1260  0.1505  0.2583
  738SOL    HW1 2950   0.178   0.571   1.982 -0.6608 -1.9061  0.5049
  738SOL    HW2 2951   0.164   0.509   1.850  1.0415 -1.3134  1.5536
  738SOL     MW 2952   0.136   0.568   1.908 -0.0425 -0.3140  0.4617
  739SOL     OW 2953   2.479   0.998   2.049  0.4759  0.0759 -0.7027
  739SOL    HW1 2954   2.393   0.955   2.032 -0.7460 -1.4142 -0.9105
  739SOL    HW2 2955   2.525   1.025   1.970  1.1980 -3.0997 -1.6793
  739SOL     MW 2956   2.474   0.996   2.036  0.4100 -0.5397 -0.8590
  740SOL     OW 2957   0.245   1.714   2.959 -0.2787  0.6719  0.1732
  740SOL    HW1 2958   0.169   1.650   2.955  0.7012  0.3580 -0.1845
  740SOL    HW2 2959   0.322   1.665   2.992  1.4157 -0.1892  0.6371
  740SOL     MW 2960   0.245   1.699   2.963  0.0741  0.5169  0.1872
  741SOL     OW 2961   2.225   1.111   2.756 -0.2906 -0.3781 -0.2560
  741SOL    HW1 2962   2.127   1.109   2.750 -0.5183 -5.4697  2.8821
  741SOL    HW2 2963   2.239   1.170   2.836 -1.3021 -2.0093  2.4023
  741SOL     MW 2964   2.214   1.119   2.765 -0.4541 -1.2651  0.5088
  742SOL     OW 2965   1.529   1.243   2.214  0.4230 -0.2858 -0.2030
  742SOL    HW1 2966   1.520   1.149   2.194  3.3290 -0.3459 -0.2376
  742SOL    HW2 2967   1.569   1.244   2.306  1.9845 -1.6766  0.6029
  742SOL     MW 2968   1.533   1.230   2.224  1.0124 -0.4772 -0.1013
  743SOL     OW 2969   2.448   1.296   2.703  0.3138  0.0381  0.0921
  743SOL    HW1 2970   2.350   1.283   2.719  1.7341  0.6333  0.4482
  743SOL    HW2 2971   2.485   1.215   2.720  0.1867 -0.6969  0.8028
  743SOL     MW 2972   2.440   1.284   2.707  0.4845  0.0197  0.2329
  744SOL     OW 2973   2.743   0.971   1.792 -0.1142 -0.7748  0.1386
  744SOL    HW1 2974   2.659   1.018   1.815 -1.1756  2.3557  3.1662
  744SOL    HW2 2975   2.730   0.931   1.704 -1.6761  0.0577  0.2439
  744SOL     MW 2976   2.730   0.972   1.784 -0.4603 -0.2519  0.5520
  745SOL     OW 2977   1.701   0.472   2.472  0.0765  0.0316  0.5315
  745SOL    HW1 2978   1.695   0.451   2.376 -0.0750 -0.3841 -2.1702
  745SOL    HW2 2979   1.624   0.437   2.514 -1.0945  0.6611 -1.7155
  745SOL     MW 2980   1.690   0.464   2.465 -0.0980  0.0598 -0.1215
  746SOL     OW 2981   1.565   1.433   1.577 -0.3634  0.2609  0.3520
  746SOL    HW1 2982   1.649   1.453   1.617 -0.9517 -0.5760 -0.7471
  746SOL    HW2 2983   1.520   1.413   1.663 -1.1900 -0.6879  1.1650
  746SOL     MW 2984   1.570   1.433   1.593 -0.5501  0.0253  0.3143
  747SOL     OW 2985   2.554   1.157   1.812 -0.0071 -0.9969 -0.0016
  747SOL    HW1 2986   2.458   1.156   1.780 -2.2252 -1.6461  1.0019
  747SOL    HW2 2987   2.545   1.229   1.883 -0.5171  0.6770 -1.1092
  747SOL     MW 2988   2.540   1.166   1.817 -0.3671 -0.8617 -0.0153
  748SOL     OW 2989   0.118   0.023   1.828 -0.4459 -0.4307  0.6434
  748SOL    HW1 2990   0.210   0.040   1.819 -0.1784  0.5478  0.1287
  748SOL    HW2 2991   0.084   0.082   1.905 -1.2149 -1.2134  0.4927
  748SOL     MW 2992   0.126   0.033   1.837 -0.5121 -0.4049  0.5556
  749SOL     OW 2993   2.461   0.520   2.759  0.5422 -0.2019  0.0743
  749SOL    HW1 2994   2.447   0.576   2.680 -2.4343  0.0656  0.6494
  749SOL    HW2 2995   2.465   0.588   2.833 -0.3109 -3.5864  1.0286
  749SOL     MW 2996   2.460   0.537   2.759  0.0369 -0.6131  0.2761
  750SOL     OW 2997   2.024   3.094   2.002 -0.0893 -0.4801  0.2954
  750SOL    HW1 2998   2.079   3.173   1.992 -1.6910 -1.0268 -0.4891
  750SOL    HW2 2999   2.086   3.027   1.987  0.3168 -0.5895  1.4265
  750SOL     MW 3000   2.039   3.096   1.999 -0.2471 -0.5667  0.3412
  751SOL     OW 3001   0.059   0.396   2.300  0.0778  0.4665  0.1785
  751SOL    HW1 3002  -0.002   0.336   2.350  1.8314 -0.1829 -1.7475
  751SOL    HW2 3003   0.139   0.352   2.281 -0.3507  0.3807  1.6199
  751SOL     MW 3004   0.061   0.382   2.304  0.2526  0.3695  0.1146
  752SOL     OW 3005   2.130   0.817   2.667 -0.2811  0.2930  0.5586
  752SOL    HW1 3006   2.188   0.865   2.609  3.7988 -2.9244  1.6894
  752SOL    HW2 3007   2.145   0.855   2.755 -1.9793  0.9482 -0.6435
  752SOL     MW 3008   2.139   0.828   2.671  0.0331 -0.0450  0.5492
  753SOL     OW 3009   2.933   0.262   2.406 -0.0175  0.0881  0.2813
  753SOL    HW1 3010   2.862   0.204   2.366 -2.3386 -2.2529  0.4630
  753SOL    HW2 3011   2.885   0.342   2.424 -0.1208  2.8014 -0.3556
  753SOL     MW 3012   2.917   0.265   2.403 -0.3374  0.1372  0.2213
  754SOL     OW 3013   2.255   2.986   2.585  0.5618 -0.2508  0.2045
  754SOL    HW1 3014   2.268   2.967   2.494 -0.1850 -0.4753 -0.0173
  754SOL    HW2 3015   2.308   2.915   2.626 -0.7570  0.1854  0.8131
  754SOL     MW 3016   2.264   2.974   2.579  0.2893 -0.2229  0.2555
  755SOL     OW 3017   2.717   1.521   2.495  0.0417 -0.0864  0.6522
  755SOL    HW1 3018   2.716   1.433   2.526  1.1298  2.3212  0.1313
  755SOL    HW2 3019   2.782   1.576   2.546  0.7855  1.3759 -0.2299
  755SOL     MW 3020   2.725   1.516   2.506  0.2834  0.4242  0.4671
  756SOL     OW 3021   2.280   1.293   2.971  0.2110 -0.5045  0.2991
  756SOL    HW1 3022   2.338   1.361   3.003 -1.0685  1.2352 -0.9139
  756SOL    HW2 3023   2.321   1.209   3.003  2.3729 -0.9656  2.4372
  756SOL     MW 3024   2.293   1.291   2.980  0.3274 -0.3358  0.4212
  757SOL     OW 3025   2.127   0.923   1.607 -0.2347  0.0351  0.3302
  757SOL    HW1 3026   2.155   0.830   1.611 -1.4638 -1.0850 -0.1413
  757SOL    HW2 3027   2.039   0.924   1.561 -1.0026 -1.5755 -0.6360
  757SOL     MW 3028   2.119   0.911   1.601 -0.4982 -0.3252  0.1405
  758SOL     OW 3029   2.190   1.777   2.611 -0.0143 -0.3588  0.2336
  758SOL    HW1 3030   2.173   1.796   2.518  1.1945  3.0543  1.0879
  758SOL    HW2 3031   2.284   1.768   2.616 -0.3727  1.1794 -0.1801
  758SOL     MW 3032   2.200   1.779   2.599  0.0979  0.2945  0.2917
  759SOL     OW 3033   1.610   1.353   2.711 -0.2444  0.4890 -0.2716
  759SOL    HW1 3034   1.589   1.435   2.660 -0.3265 -1.6165  0.0736
  759SOL    HW2 3035   1.664   1.370   2.792  1.7996  0.5258 -0.4807
  759SOL     MW 3036   1.614   1.366   2.715  0.0145  0.2160 -0.2537
  760SOL     OW 3037   2.571   2.003   2.686  0.5135  0.0605 -0.5507
  760SOL    HW1 3038   2.568   1.907   2.654 -2.1020  1.1859  1.1180
  760SOL    HW2 3039   2.573   2.058   2.610 -0.1454 -0.8116  2.0108
  760SOL     MW 3040   2.571   1.998   2.672  0.0814  0.0939  0.0075
  761SOL     OW 3041   2.136   0.429   2.479  0.2274  0.0281 -0.1359
  761SOL    HW1 3042   2.048   0.408   2.456  0.2542  0.3774  3.6794
  761SOL    HW2 3043   2.135   0.471   2.565  1.7462 -1.0561  2.9332
  761SOL     MW 3044   2.124   0.432   2.487  0.4313 -0.0689  0.7724
  762SOL     OW 3045   0.006   0.157   2.024  0.8592  0.2929  0.4763
  762SOL    HW1 3046  -0.016   0.118   2.108  0.4845  1.4042  0.0890
  762SOL    HW2 3047  -0.052   0.235   2.023  0.3218 -1.4639 -1.2469
  762SOL     MW 3048  -0.005   0.162   2.035  0.7388  0.2077  0.1978
  763SOL     OW 3049   2.441   1.076   2.303 -0.4339  0.0169 -0.1988
  763SOL    HW1 3050   2.474   1.048   2.214  1.0139 -0.0829 -1.0293
  763SOL    HW2 3051   2.500   1.135   2.344 -3.3171  0.8430 -1.4326
  763SOL     MW 3052   2.453   1.080   2.297 -0.6233  0.1127 -0.4711
  764SOL     OW 3053   0.437   0.287   2.784  0.1012  0.2002  0.1915
  764SOL    HW1 3054   0.361   0.240   2.759  1.8981  2.0758 -0.3807
  764SOL    HW2 3055   0.419   0.350   2.854 -1.1928 -0.9941  1.9790
  764SOL     MW 3056   0.425   0.289   2.790  0.1676  0.2901  0.3518
  765SOL     OW 3057   2.761   0.084   2.282  0.0544 -0.0088 -0.4036
  765SOL    HW1 3058   2.685   0.079   2.222  1.1471 -0.7091  0.3075
  765SOL    HW2 3059   2.791  -0.010   2.293  0.9250 -0.9446 -0.6181
  765SOL     MW 3060   2.755   0.071   2.276  0.3135 -0.2247 -0.3381
  766SOL     OW 3061   1.870   3.007   2.217  0.4860 -0.1935  0.2943
  766SOL    HW1 3062   1.878   3.071   2.144 -0.4449 -0.5608 -2.1863
  766SOL    HW2 3063   1.827   2.938   2.172  1.1685  1.9238  2.1643
  766SOL     MW 3064   1.865   3.006   2.201  0.4532  0.0374  0.2138
  767SOL     OW 3065   2.631   0.621   1.941  0.0364  0.2088 -0.2071
  767SOL    HW1 3066   2.657   0.701   1.985  0.4748  0.2563 -0.3597
  767SOL    HW2 3067   2.536   0.604   1.957  0.7101 -1.5801  0.6176
  767SOL     MW 3068   2.622   0.629   1.949  0.1831 -0.0209 -0.1184
  768SOL     OW 3069   0.028   1.556   2.967 -0.0319 -0.9940 -0.6091
  768SOL    HW1 3070   0.006   1.522   3.053 -1.0509  1.9017 -1.8461
  768SOL    HW2 3071   0.045   1.482   2.903  2.7628  1.8206 -1.2801
  768SOL     MW 3072   0.027   1.542   2.970  0.2024 -0.2406 -0.8609
  769SOL     OW 3073   2.344   0.701   2.295  0.4493 -0.3734 -0.6019
  769SOL    HW1 3074   2.258   0.665   2.302  1.0429 -0.2679  1.0895
  769SOL    HW2 3075   2.371   0.658   2.213 -0.8647 -1.6976  0.6623
  769SOL     MW 3076   2.336   0.690   2.285  0.3542 -0.5342 -0.2119
  770SOL     OW 3077   0.097   1.617   2.595 -0.1269 -0.4723 -0.2261
  770SOL    HW1 3078   0.001   1.619   2.576  0.2927 -1.5313  0.2807
  770SOL    HW2 3079   0.126   1.533   2.640 -1.2687 -0.6487 -1.0904
  770SOL     MW 3080   0.088   1.606   2.598 -0.2222 -0.6353 -0.2733
  771SOL     OW 3081   2.958   0.624   1.927 -0.3725  0.2889  0.0721
  771SOL    HW1 3082   2.906   0.622   1.848  0.8246 -3.4559  2.6184
  771SOL    HW2 3083   3.051   0.618   1.903  0.4983 -2.6402  1.3379
  771SOL     MW 3084   2.963   0.623   1.913 -0.0997 -0.5917  0.5751
  772SOL     OW 3085   3.095   3.106   2.254  0.3598  0.0891  0.4149
  772SOL    HW1 3086   3.013   3.075   2.287  2.2814  1.4180 -0.9781
  772SOL    HW2 3087   3.137   3.032   2.208 -1.6220  3.8162  0.9458
  772SOL     MW 3088   3.090   3.092   2.253  0.3518  0.7562  0.3011
  773SOL     OW 3089   2.452   2.829   2.743  0.2749  0.3770 -0.5743
  773SOL    HW1 3090   2.425   2.747   2.707  0.1897  0.2902  0.9173
  773SOL    HW2 3091   2.432   2.831   2.836 -1.5257  0.8089 -0.4211
  773SOL     MW 3092   2.446   2.818   2.750  0.0261  0.4226 -0.3573
  774SOL     OW 3093   2.288   1.158   1.731  0.2140  0.3200  0.4505
  774SOL    HW1 3094   2.311   1.198   1.647  2.9588 -1.1400 -0.5090
  774SOL    HW2 3095   2.239   1.074   1.700 -0.2054 -0.3753 -2.7669
  774SOL     MW 3096   2.285   1.152   1.716  0.5208  0.0356 -0.1006
  775SOL     OW 3097   2.321   2.919   2.338 -0.1329 -0.0409 -0.1856
  775SOL    HW1 3098   2.350   2.993   2.290 -0.9875 -0.9369  0.2725
  775SOL    HW2 3099   2.380   2.852   2.298  0.5554  2.2812 -3.5516
  775SOL     MW 3100   2.333   2.920   2.326 -0.1548  0.1473 -0.5692
  776SOL     OW 3101   0.018   1.440   0.126  0.0868  0.4633  0.1034
  776SOL    HW1 3102   0.105   1.419   0.139 -3.3356  0.7280  1.1794
  776SOL    HW2 3103  -0.020   1.354   0.098  1.3069  2.0033  0.8635
  776SOL     MW 3104   0.024   1.426   0.124 -0.2038  0.7014  0.3457
  777SOL     OW 3105   3.028   1.081   1.748 -0.2125  0.0140  0.3102
  777SOL    HW1 3106   2.992   1.166   1.736 -1.0101  0.3467  2.8361
  777SOL    HW2 3107   2.952   1.027   1.772  1.5565 -0.6961 -1.2533
  777SOL     MW 3108   3.013   1.085   1.750 -0.0843 -0.0358  0.4372
  778SOL     OW 3109   2.911   0.407   2.749 -0.2148 -0.0132  0.1117
  778SOL    HW1 3110   2.858   0.421   2.829  0.3772  0.1458 -0.9456
  778SOL    HW2 3111   2.893   0.479   2.695 -2.7884 -0.4631  2.0301
  778SOL     MW 3112   2.902   0.418   2.753 -0.4762 -0.0516  0.2253
  779SOL     OW 3113   2.099   0.609   2.299 -0.2514 -0.4478 -0.2149
  779SOL    HW1 3114   2.061   0.681   2.346  1.5312  3.3719  0.1610
  779SOL    HW2 3115   2.128   0.551   2.369  0.7110  0.3945  3.6668
  779SOL     MW 3116   2.098   0.611   2.314  0.1108  0.1673  0.3469
  780SOL     OW 3117   0.208   0.150   2.750  0.0224 -0.8622  0.5827
  780SOL    HW1 3118   0.154   0.189   2.815 -1.6982 -0.8557 -1.5441
  780SOL    HW2 3119   0.140   0.139   2.687  1.8879 -0.3377 -0.8017
  780SOL     MW 3120   0.192   0.154   2.751  0.0416 -0.7921  0.1194
  781SOL     OW 3121   3.054   1.322   2.514  0.0872  0.6615  0.3312
  781SOL    HW1 3122   3.021   1.377   2.443  0.2522  0.4671  0.9566
  781SOL    HW2 3123   3.039   1.234   2.482  1.5226 -2.7402 -1.7900
  781SOL     MW 3124   3.048   1.318   2.500  0.2984  0.1870  0.1338
  782SOL     OW 3125   0.739   1.536   3.069 -1.1028  0.6858  0.8317
  782SOL    HW1 3126   0.666   1.587   3.032  0.3391  3.3109  0.5761
  782SOL    HW2 3127   0.698   1.521   3.152  0.5291  0.5334 -1.6552
  782SOL     MW 3128   0.724   1.541   3.075 -0.6972  1.0121  0.4698
  783SOL     OW 3129   2.723   0.476   2.419 -0.6659  0.0503  0.2695
  783SOL    HW1 3130   2.673   0.462   2.335 -0.1863 -1.3684  0.5672
  783SOL    HW2 3131   2.676   0.413   2.473 -0.8453 -0.9491 -3.4640
  783SOL     MW 3132   2.710   0.466   2.415 -0.6263 -0.2687 -0.1838
  784SOL     OW 3133   0.254   0.882   2.884  0.3991  0.7595 -0.0088
  784SOL    HW1 3134   0.224   0.962   2.922  2.3366  0.4260  2.6853
  784SOL    HW2 3135   0.303   0.915   2.811 -1.1444 -1.0480  3.9991
  784SOL     MW 3136   0.257   0.897   2.879  0.4511  0.4770  0.8754
  785SOL     OW 3137   0.427   0.496   2.189 -0.3019  0.4004  0.1176
  785SOL    HW1 3138   0.417   0.550   2.110  2.1013 -0.9679 -2.5094
  785SOL    HW2 3139   0.383   0.410   2.168  0.6565 -0.7297  2.0498
  785SOL     MW 3140   0.420   0.492   2.175  0.1416  0.0707  0.0259
  786SOL     OW 3141   1.963   0.481   2.908 -0.7006  0.0402 -0.7704
  786SOL    HW1 3142   1.983   0.506   3.004  0.4566  1.7913  1.9096
  786SOL    HW2 3143   2.044   0.490   2.849 -2.5214  1.9650  1.5502
  786SOL     MW 3144   1.976   0.485   2.913 -0.7882  0.5252 -0.1106
  787SOL     OW 3145   2.423   0.164   2.921  0.2556 -0.3700  0.6646
  787SOL    HW1 3146   2.499   0.109   2.880  0.2119  0.8602  0.8764
  787SOL    HW2 3147   2.461   0.250   2.950 -0.4213  1.7079  0.1073
  787SOL     MW 3148   2.438   0.168   2.919  0.1605  0.0665  0.6190
  788SOL     OW 3149   2.879   2.961   2.361 -0.2361 -0.3683 -0.0166
  788SOL    HW1 3150   2.818   2.934   2.435 -2.1336 -0.5461  1.9296
  788SOL    HW2 3151   2.941   2.883   2.365  0.6292  0.7992 -1.4042
  788SOL     MW 3152   2.879   2.947   2.371 -0.3723 -0.2378  0.0571
  789SOL     OW 3153   0.063   0.320   2.953  0.8423  0.3528 -0.2554
  789SOL    HW1 3154  -0.021   0.276   2.958  0.8908 -2.5970  0.5029
  789SOL    HW2 3155   0.032   0.412   2.933 -0.3664 -0.8597 -0.3401
  789SOL     MW 3156   0.048   0.326   2.951  0.6892 -0.1964 -0.1665
  790SOL     OW 3157   3.042   1.064   2.438 -0.1736 -0.1336  0.1737
  790SOL    HW1 3158   3.020   0.996   2.501 -0.4307 -1.0044 -1.7379
  790SOL    HW2 3159   3.019   1.039   2.347  2.0084 -0.4622 -2.8573
  790SOL     MW 3160   3.036   1.052   2.434  0.0804 -0.2919 -0.4785
  791SOL     OW 3161   2.605   0.333   2.633  0.2182 -0.2411  0.4642
  791SOL    HW1 3162   2.530   0.381   2.669  0.2209 -0.0144 -0.1306
  791SOL    HW2 3163   2.658   0.331   2.712  0.5004 -0.5436 -2.0011
  791SOL     MW 3164   2.602   0.339   2.648  0.2558 -0.2511  0.0604
  792SOL     OW 3165   2.354   0.269   2.380  0.1154  0.1047 -0.6428
  792SOL    HW1 3166   2.297   0.313   2.447  0.7460  1.3583  1.3646
  792SOL    HW2 3167   2.412   0.204   2.431 -1.6650 -0.9596 -0.1496
  792SOL     MW 3168   2.354   0.266   2.395 -0.0363  0.1297 -0.3129
  793SOL     OW 3169   1.846   1.070   1.982 -0.1118  0.6444 -0.1611
  793SOL    HW1 3170   1.830   1.091   1.896  0.5640 -2.1142  0.7093
  793SOL    HW2 3171   1.874   0.978   1.974  1.3685 -1.1060  0.5816
  793SOL     MW 3172   1.848   1.061   1.969  0.1727  0.0495  0.0517
  794SOL     OW 3173   1.434   2.262   0.179  0.3718 -0.1036  0.0592
  794SOL    HW1 3174   1.449   2.347   0.133  0.4894 -1.2485  2.6778
  794SOL    HW2 3175   1.480   2.277   0.260  2.0738 -0.9516 -0.8392
  794SOL     MW 3176   1.442   2.275   0.184  0.6119 -0.3665  0.2861
  795SOL     OW 3177   2.360   0.965   2.555 -0.0815  0.1816  0.0818
  795SOL    HW1 3178   2.333   1.020   2.631  0.5020  0.0395  0.3351
  795SOL    HW2 3179   2.403   1.023   2.494 -3.7513 -1.8431  1.0158
  795SOL     MW 3180   2.362   0.980   2.557 -0.4887 -0.1043  0.2385
  796SOL     OW 3181   0.272   0.599   2.730 -0.1864 -0.1810 -0.0666
  796SOL    HW1 3182   0.237   0.674   2.781  0.9186  1.8473  2.5347
  796SOL    HW2 3183   0.203   0.572   2.666  0.4098  1.0447 -0.2926
  796SOL     MW 3184   0.258   0.606   2.728  0.0381  0.2484  0.2468
  797SOL     OW 3185   2.571   0.108   2.497 -0.2791 -0.5184  0.1785
  797SOL    HW1 3186   2.593   0.199   2.542  2.0346  3.5699  2.1353
  797SOL    HW2 3187   2.649   0.088   2.448 -0.2493 -0.4702 -0.2010
  797SOL     MW 3188   2.584   0.117   2.497  0.0301  0.0273  0.3866
  798SOL     OW 3189   2.328   0.062   2.210  0.1352 -0.3571 -0.5684
  798SOL    HW1 3190   2.331   0.139   2.272  2.1173 -1.9012  1.5701
  798SOL    HW2 3191   2.418   0.057   2.172  2.9190  0.2792 -2.9973
  798SOL     MW 3192   2.340   0.071   2.213  0.7640 -0.4769 -0.6067
  799SOL     OW 3193   2.457   2.927   0.131 -0.0923 -0.3188  0.2954
  799SOL    HW1 3194   2.438   2.859   0.063  0.9118  0.5535 -0.2804
  799SOL    HW2 3195   2.398   3.000   0.108 -1.0087  1.2891  1.1560
  799SOL     MW 3196   2.447   2.927   0.119 -0.0807  0.0084  0.3330
  800SOL     OW 3197   1.854   0.005   1.779 -0.5726 -0.6616  0.1987
  800SOL    HW1 3198   1.794  -0.070   1.793 -0.9752 -0.1220  1.4276
  800SOL    HW2 3199   1.909   0.005   1.854 -0.8834  0.3854 -0.8687
  800SOL     MW 3200   1.853  -0.005   1.791 -0.6667 -0.4523  0.2200
  801SOL     OW 3201   2.799   1.271   2.633  0.1086 -0.2944  0.5649
  801SOL    HW1 3202   2.799   1.185   2.603 -2.1849  3.0603  1.4739
  801SOL    HW2 3203   2.889   1.299   2.613 -1.2985  0.1476  2.7328
  801SOL     MW 3204   2.811   1.263   2.626 -0.3797  0.2066  0.9708
  802SOL     OW 3205   2.582   1.542   2.824  0.1978 -0.0704 -0.4294
  802SOL    HW1 3206   2.550   1.470   2.763 -0.4832  1.0386  1.1918
  802SOL    HW2 3207   2.669   1.564   2.795 -2.0352 -0.9267  0.0150
  802SOL     MW 3208   2.589   1.535   2.812 -0.1867 -0.0371 -0.1569
  803SOL     OW 3209   2.294   1.404   2.003 -0.5456 -0.3921 -0.2877
  803SOL    HW1 3210   2.288   1.362   2.085 -2.4218 -2.4730  0.0440
  803SOL    HW2 3211   2.282   1.335   1.939 -0.5438  1.9973 -0.8077
  803SOL     MW 3212   2.292   1.390   2.005 -0.7929 -0.3514 -0.3126
  804SOL     OW 3213   2.270   0.056   0.043 -0.3820 -0.3435  0.3062
  804SOL    HW1 3214   2.191   0.113   0.063 -0.4980  0.7512 -0.9503
  804SOL    HW2 3215   2.327   0.112  -0.013  2.2370  1.5902  2.7928
  804SOL     MW 3216   2.267   0.071   0.038 -0.0517  0.0561  0.4685
  805SOL     OW 3217   2.692   1.003   2.511  0.4042  0.2332 -0.5722
  805SOL    HW1 3218   2.647   0.933   2.465 -1.5523  0.3957  0.4818
  805SOL    HW2 3219   2.770   0.963   2.551 -0.4655 -1.3758 -1.2212
  805SOL     MW 3220   2.697   0.988   2.511  0.0313  0.0423 -0.5188
  806SOL     OW 3221   2.542   0.393   2.217  0.2436 -0.1903 -0.3035
  806SOL    HW1 3222   2.470   0.355   2.271  1.2254 -1.4299  3.1181
  806SOL    HW2 3223   2.502   0.421   2.134  0.3264  1.9231 -0.5612
  806SOL     MW 3224   2.527   0.392   2.213  0.3841 -0.0750  0.1140
  807SOL     OW 3225   0.057   1.166   2.111 -1.1960 -0.6978  0.0167
  807SOL    HW1 3226   0.088   1.097   2.053  2.4444 -0.6756 -0.6799
  807SOL    HW2 3227  -0.042   1.166   2.117 -1.2843 -0.0331 -1.6032
  807SOL     MW 3228   0.048   1.157   2.104 -0.7273 -0.6071 -0.2889
  808SOL     OW 3229   2.568   3.083   2.755 -0.0597  0.0972  0.6289
  808SOL    HW1 3230   2.535   2.991   2.755  1.7545 -1.2973  1.6071
  808SOL    HW2 3231   2.569   3.114   2.660  2.0051  3.0403 -4.2141
  808SOL     MW 3232   2.564   3.075   2.743  0.4521  0.3015  0.1189
  809SOL     OW 3233   2.566   1.278   2.412  0.0445 -0.0992 -0.3520
  809SOL    HW1 3234   2.625   1.248   2.484  1.4582 -1.1034  1.6721
  809SOL    HW2 3235   2.625   1.284   2.339  2.8485  0.2563  1.1227
  809SOL     MW 3236   2.582   1.274   2.412  0.6010 -0.1848  0.1096
  810SOL     OW 3237   2.255   1.300   2.233  0.4922  0.8356 -0.2264
  810SOL    HW1 3238   2.331   1.237   2.228  3.3586 -0.8008  0.4014
  810SOL    HW2 3239   2.169   1.253   2.232 -1.4317 -0.7138  0.3396
  810SOL     MW 3240   2.254   1.286   2.232  0.6166  0.4153 -0.0689
  811SOL     OW 3241   1.557   0.141   2.271  0.0313 -0.4768 -0.0390
  811SOL    HW1 3242   1.624   0.078   2.320  0.3089 -1.9984 -0.5433
  811SOL    HW2 3243   1.552   0.102   2.184  2.3813  2.2851 -0.2511
  811SOL     MW 3244   1.565   0.128   2.266  0.3780 -0.3132 -0.1335
  812SOL     OW 3245   1.460   2.835   2.126 -0.0400 -0.6407 -0.4358
  812SOL    HW1 3246   1.558   2.828   2.103  0.4435  1.0262  0.4183
  812SOL    HW2 3247   1.459   2.795   2.210 -0.3889 -0.3850  0.4193
  812SOL     MW 3248   1.473   2.829   2.134 -0.0222 -0.3871 -0.2103
  813SOL     OW 3249   1.814   0.727   2.188 -0.7881 -0.7877  0.0448
  813SOL    HW1 3250   1.794   0.637   2.221  1.3073  0.3060  0.7965
  813SOL    HW2 3251   1.844   0.775   2.266  1.4473  0.9085 -1.6709
  813SOL     MW 3252   1.815   0.721   2.203 -0.2167 -0.4196 -0.0824
  814SOL     OW 3253   2.772   1.270   1.668  0.7290  0.3295  0.3481
  814SOL    HW1 3254   2.697   1.253   1.729  0.8940  2.5013  1.8045
  814SOL    HW2 3255   2.761   1.238   1.575  0.6945  2.0485 -0.3883
  814SOL     MW 3256   2.761   1.263   1.663  0.7462  0.8429  0.4431
  815SOL     OW 3257   2.479   1.652   2.434 -0.2980  0.0964  0.6155
  815SOL    HW1 3258   2.414   1.575   2.426  0.1304 -4.0920 -1.2825
  815SOL    HW2 3259   2.567   1.607   2.429  3.7451 -1.7013 -2.8672
  815SOL     MW 3260   2.482   1.636   2.432  0.2920 -0.6934 -0.0944
  816SOL     OW 3261   0.747   0.698   2.724  0.2357 -0.0273 -0.1886
  816SOL    HW1 3262   0.747   0.610   2.767 -0.8903  2.0636  0.7234
  816SOL    HW2 3263   0.651   0.715   2.703 -0.7734  1.7043 -1.7990
  816SOL     MW 3264   0.734   0.689   2.727 -0.0460  0.4771 -0.2807
  817SOL     OW 3265   3.029   1.283   1.402  0.0700  0.0323 -0.5874
  817SOL    HW1 3266   3.111   1.239   1.433 -0.0881  0.1534 -0.0708
  817SOL    HW2 3267   3.060   1.368   1.372  0.0982 -0.4353  0.1118
  817SOL     MW 3268   3.044   1.288   1.402  0.0528 -0.0134 -0.4270
  818SOL     OW 3269   1.958   1.023   2.709  0.0859 -0.8927  0.5460
  818SOL    HW1 3270   1.940   1.069   2.626  1.5282 -0.4933  1.3377
  818SOL    HW2 3271   2.000   0.937   2.684  0.3831 -1.1810  0.3466
  818SOL     MW 3272   1.961   1.018   2.695  0.3154 -0.8780  0.6242
  819SOL     OW 3273   1.894   0.278   2.454 -0.1987  0.1437  0.2605
  819SOL    HW1 3274   1.817   0.335   2.464  2.0413 -1.0602 -0.0108
  819SOL    HW2 3275   1.935   0.273   2.547  0.1175 -1.5610  1.1354
  819SOL     MW 3276   1.889   0.285   2.468  0.1385 -0.2400  0.3401
  820SOL     OW 3277   2.462   1.747   2.674  0.0015  0.1095 -0.0292
  820SOL    HW1 3278   2.496   1.683   2.740  0.6666  2.1273  0.7918
  820SOL    HW2 3279   2.471   1.699   2.589 -0.9886 -0.1912 -1.7189
  820SOL     MW 3280   2.467   1.732   2.672 -0.0414  0.3361 -0.1438
  821SOL     OW 3281   2.567   1.347   1.992 -0.2117  0.2781 -0.0431
  821SOL    HW1 3282   2.621   1.414   1.947  2.2372 -0.9574  0.3619
  821SOL    HW2 3283   2.474   1.381   2.000 -0.3999  1.5528  0.3474
  821SOL     MW 3284   2.562   1.360   1.987  0.0866  0.2833  0.0619
  822SOL     OW 3285   2.821   2.596   1.482 -0.2298 -0.0435  0.2387
  822SOL    HW1 3286   2.831   2.636   1.567  0.7832  1.8832 -0.3843
  822SOL    HW2 3287   2.755   2.649   1.432  3.1720  0.0285 -1.1610
  822SOL     MW 3288   2.814   2.608   1.487  0.3527  0.2202 -0.0282
  823SOL     OW 3289   2.251   0.474   1.791 -0.2837 -0.0672  0.0351
  823SOL    HW1 3290   2.332   0.432   1.760 -0.6136 -1.5537 -2.2783
  823SOL    HW2 3291   2.177   0.417   1.772  2.3986 -0.4512  1.2842
  823SOL     MW 3292   2.252   0.461   1.785  0.0267 -0.3140 -0.1053
  824SOL     OW 3293   2.072   1.384   2.581  0.0149  0.1703 -0.8191
  824SOL    HW1 3294   2.156   1.397   2.531  1.8497  0.0839  0.0914
  824SOL    HW2 3295   2.051   1.476   2.620  0.1741  3.0079 -3.1207
  824SOL     MW 3296   2.080   1.398   2.580  0.2780  0.5333 -1.0026
  825SOL     OW 3297   2.079   2.578   0.281  0.9378 -0.3700  0.2589
  825SOL    HW1 3298   2.109   2.538   0.365  0.1281 -2.3972 -1.1324
  825SOL    HW2 3299   2.119   2.536   0.201 -2.0633  0.2885 -1.4401
  825SOL     MW 3300   2.089   2.568   0.281  0.4350 -0.5506 -0.1488
  826SOL     OW 3301   1.942   2.352   0.536  0.2874 -1.0719  0.0704
  826SOL    HW1 3302   1.903   2.272   0.579 -0.5816 -0.2815  2.3093
  826SOL    HW2 3303   1.910   2.435   0.580 -1.1915  1.5448  0.2992
  826SOL     MW 3304   1.933   2.352   0.548 -0.0224 -0.6224  0.3960
  827SOL     OW 3305   1.959   2.185   0.850  0.7570 -0.2454 -0.1968
  827SOL    HW1 3306   1.920   2.262   0.811  0.2982  0.7226  0.3480
  827SOL    HW2 3307   1.896   2.117   0.847  0.8440  3.2274  0.2887
  827SOL     MW 3308   1.945   2.186   0.844  0.7080  0.3405 -0.0609
  828SOL     OW 3309   0.054   2.682   0.576 -0.4525 -0.2848 -0.5122
  828SOL    HW1 3310   0.135   2.652   0.537  1.8741  1.5572  0.7786
  828SOL    HW2 3311   0.021   2.739   0.506  0.6728  0.7910 -3.6849
  828SOL     MW 3312   0.061   2.686   0.562  0.0030  0.1002 -0.7605
  829SOL     OW 3313   2.992   2.930   1.257  0.3119  0.0844 -0.1691
  829SOL    HW1 3314   2.906   2.935   1.223  0.1286  0.7248  0.6025
  829SOL    HW2 3315   3.020   2.838   1.264  0.8619  0.7580 -0.3081
  829SOL     MW 3316   2.984   2.918   1.254  0.3603  0.2577 -0.0856
  830SOL     OW 3317   2.505   2.860   2.042  0.1085  0.6063 -0.3476
  830SOL    HW1 3318   2.418   2.896   2.009 -1.0533  3.3039 -0.5868
  830SOL    HW2 3319   2.560   2.848   1.965  0.9786 -1.7370  0.3932
  830SOL     MW 3320   2.501   2.863   2.028  0.0700  0.6531 -0.2814
  831SOL     OW 3321   2.401   2.413   1.251 -0.4752  0.1002 -0.2321
  831SOL    HW1 3322   2.369   2.342   1.314 -0.9123 -0.9308  0.6065
  831SOL    HW2 3323   2.495   2.388   1.241 -1.4125  0.8955 -2.4121
  831SOL     MW 3324   2.410   2.400   1.258 -0.6565  0.0691 -0.4091
  832SOL     OW 3325   2.428   2.241   1.894  0.1536 -0.1990  0.1791
  832SOL    HW1 3326   2.437   2.335   1.936 -2.7195  0.5143  1.2465
  832SOL    HW2 3327   2.519   2.208   1.883  0.5460 -0.2826 -0.3724
  832SOL     MW 3328   2.441   2.249   1.898 -0.1737 -0.1160  0.2472
  833SOL     OW 3329   1.774   2.440   0.935  0.1585  0.4546 -0.4543
  833SOL    HW1 3330   1.683   2.431   0.941 -1.3182  0.1024  1.7043
  833SOL    HW2 3331   1.788   2.505   0.999  2.3395  1.2881  3.2955
  833SOL     MW 3332   1.764   2.447   0.944  0.2515  0.5181  0.3252
  834SOL     OW 3333   2.225   2.455   0.529 -0.1084  0.1383 -0.3025
  834SOL    HW1 3334   2.199   2.366   0.557  1.2915  0.8446 -1.7458
  834SOL    HW2 3335   2.293   2.423   0.460 -0.1909 -2.6695 -1.1816
  834SOL     MW 3336   2.230   2.439   0.524  0.0654 -0.1390 -0.6089
  835SOL     OW 3337   1.845   2.575   0.676  0.5609  0.2840  0.2608
  835SOL    HW1 3338   1.826   2.525   0.768 -0.3226 -1.0022  1.5739
  835SOL    HW2 3339   1.884   2.646   0.725  1.0214  0.9381 -0.9636
  835SOL     MW 3340   1.848   2.578   0.695  0.5051  0.2006  0.2725
  836SOL     OW 3341   1.955   2.132   1.670  0.2345  0.4229  0.1222
  836SOL    HW1 3342   2.046   2.134   1.692  0.3951 -0.9249 -0.8796
  836SOL    HW2 3343   1.935   2.224   1.694  2.2669  0.9748 -0.0617
  836SOL     MW 3344   1.964   2.145   1.676  0.5238  0.3179 -0.0342
  837SOL     OW 3345   2.086   0.185   0.707  0.1074  0.2877  0.0767
  837SOL    HW1 3346   1.991   0.216   0.692 -2.6794 -0.8731  1.9624
  837SOL    HW2 3347   2.124   0.145   0.622  0.0994 -0.4373  0.4291
  837SOL     MW 3348   2.079   0.184   0.694 -0.2613  0.0388  0.3720
  838SOL     OW 3349   2.908   2.034   0.908  0.2889 -0.5248  0.0151
  838SOL    HW1 3350   2.848   1.994   0.973  0.1989 -1.4020 -1.1243
  838SOL    HW2 3351   2.933   1.963   0.853 -0.2114  0.8021 -0.5745
  838SOL     MW 3352   2.903   2.019   0.910  0.2110 -0.4655 -0.2130
  839SOL     OW 3353   1.483   2.339   0.917 -0.3341  0.0099 -0.5080
  839SOL    HW1 3354   1.468   2.421   0.967 -1.4992 -0.7330 -0.0624
  839SOL    HW2 3355   1.511   2.265   0.978 -1.6042  1.3501  2.8540
  839SOL     MW 3356   1.484   2.340   0.932 -0.6554  0.0887 -0.0056
  840SOL     OW 3357   2.295   2.083   2.399  0.0303 -0.6557  0.0410
  840SOL    HW1 3358   2.266   2.157   2.340  0.2241 -1.6809  0.8201
  840SOL    HW2 3359   2.374   2.105   2.444 -0.2785  3.3763  2.1612
  840SOL     MW 3360   2.302   2.096   2.397  0.0151 -0.2590  0.4235
  841SOL     OW 3361   2.181   2.434   0.078 -0.2589  0.2443 -0.5516
  841SOL    HW1 3362   2.246   2.430   0.012 -1.2211  0.9385 -2.5859
  841SOL    HW2 3363   2.113   2.369   0.044  0.7887 -1.9490  0.8970
  841SOL     MW 3364   2.181   2.425   0.065 -0.2476  0.0465 -0.6289
  842SOL     OW 3365   2.679   2.000   1.577  0.0108  0.0831 -0.0776
  842SOL    HW1 3366   2.620   1.926   1.590  0.5302  1.8740 -4.3159
  842SOL    HW2 3367   2.647   2.035   1.487 -1.3529 -2.1753 -4.1032
  842SOL     MW 3368   2.667   1.995   1.567 -0.1006  0.0214 -1.1679
  843SOL     OW 3369   2.666   2.859   1.825 -0.1948  0.0373  0.0510
  843SOL    HW1 3370   2.713   2.778   1.821  1.0563  2.5336  1.9994
  843SOL    HW2 3371   2.590   2.845   1.772 -1.9058  1.2810  0.6842
  843SOL     MW 3372   2.662   2.847   1.818 -0.2555  0.5308  0.3916
  844SOL     OW 3373   2.661   2.321   1.219 -0.0373  0.4035 -0.3295
  844SOL    HW1 3374   2.685   2.359   1.135  0.6291 -2.0768  2.2922
  844SOL    HW2 3375   2.737   2.334   1.275 -0.1838  3.5531 -2.0955
  844SOL     MW 3376   2.674   2.328   1.216  0.0313  0.4918 -0.2166
  845SOL     OW 3377   2.846   2.503   0.310 -0.6219  0.3593  0.9409
  845SOL    HW1 3378   2.820   2.410   0.330 -0.1405  1.4593 -2.1297
  845SOL    HW2 3379   2.849   2.549   0.398  0.0648  3.2290  1.5654
  845SOL     MW 3380   2.843   2.497   0.325 -0.4678  0.8831  0.6182
  846SOL     OW 3381   1.531   2.834   0.834 -0.2193 -0.6411  0.2010
  846SOL    HW1 3382   1.621   2.872   0.824 -1.5632  0.3626  0.8419
  846SOL    HW2 3383   1.480   2.917   0.829  1.4217 -0.3028 -2.3587
  846SOL     MW 3384   1.536   2.850   0.832 -0.1801 -0.4641 -0.0522
  847SOL     OW 3385   2.514   1.959   0.177  0.1479 -0.2649  0.0270
  847SOL    HW1 3386   2.543   1.883   0.221 -1.5983  0.0754 -1.9589
  847SOL    HW2 3387   2.468   1.931   0.095  1.0521 -2.3330  2.9764
  847SOL     MW 3388   2.512   1.945   0.172  0.0368 -0.4929  0.1541
  848SOL     OW 3389   2.558   2.105   1.350  0.3954  0.0070  0.3886
  848SOL    HW1 3390   2.607   2.178   1.316 -0.4945 -4.8077 -0.4284
  848SOL    HW2 3391   2.559   2.042   1.281  0.7556  0.4400  0.4826
  848SOL     MW 3392   2.565   2.107   1.336  0.3255 -0.5711  0.2932
  849SOL     OW 3393   2.022   2.804   0.776  0.2980  0.1394  0.3941
  849SOL    HW1 3394   2.061   2.742   0.844  1.9387 -0.8842 -2.0730
  849SOL    HW2 3395   2.085   2.789   0.702  2.1657 -2.1217  1.1116
  849SOL     MW 3396   2.036   2.794   0.775  0.7609 -0.2940  0.1633
  850SOL     OW 3397   2.253   1.876   1.699 -0.5446 -0.9087 -0.3321
  850SOL    HW1 3398   2.212   1.828   1.624  0.6206  2.2729  0.9152
  850SOL    HW2 3399   2.250   1.973   1.689 -0.4349 -1.2896  0.4197
  850SOL     MW 3400   2.247   1.882   1.687 -0.3764 -0.5392 -0.0684
  851SOL     OW 3401   2.361   2.348   0.314 -0.2538  0.3729 -0.0500
  851SOL    HW1 3402   2.321   2.376   0.236  0.4632 -1.6292 -0.2361
  851SOL    HW2 3403   2.450   2.314   0.289  0.0446 -4.5867 -1.1019
  851SOL     MW 3404   2.367   2.347   0.300 -0.1198 -0.5457 -0.2133
  852SOL     OW 3405   2.333   2.084   0.333 -0.4890  0.1330 -0.0799
  852SOL    HW1 3406   2.330   2.179   0.326  0.0571 -1.6533 -0.7505
  852SOL    HW2 3407   2.378   2.048   0.253 -2.5592  0.1595 -0.4567
  852SOL     MW 3408   2.339   2.092   0.322 -0.6901 -0.0992 -0.2181
  853SOL     OW 3409   2.475   2.500   1.962 -0.4833 -0.1127  0.0347
  853SOL    HW1 3410   2.480   2.544   1.877 -2.1001 -0.8439 -1.3209
  853SOL    HW2 3411   2.566   2.493   1.994 -1.8929  0.5775  0.9119
  853SOL     MW 3412   2.488   2.505   1.955 -0.8826 -0.1181 -0.0284
  854SOL     OW 3413   2.871   2.259   0.782 -0.1954  0.1319 -0.0971
  854SOL    HW1 3414   2.775   2.244   0.768 -0.5412  2.1971  0.1099
  854SOL    HW2 3415   2.903   2.183   0.844  1.3843 -1.4611  0.6358
  854SOL     MW 3416   2.863   2.247   0.788 -0.0326  0.1942  0.0269
  855SOL     OW 3417   2.656   2.306   0.357 -0.1780  0.5002 -0.2687
  855SOL    HW1 3418   2.643   2.337   0.449 -0.6206  2.8552  1.6566
  855SOL    HW2 3419   2.695   2.221   0.353 -1.6945 -1.7237  0.0483
  855SOL     MW 3420   2.659   2.299   0.369 -0.4365  0.5175  0.0272
  856SOL     OW 3421   2.149   1.916   0.199  0.1600  0.6837  0.4021
  856SOL    HW1 3422   2.058   1.901   0.229  2.6335  2.4858 -0.6196
  856SOL    HW2 3423   2.183   1.995   0.242 -0.5467  3.6672 -2.1788
  856SOL     MW 3424   2.141   1.924   0.208  0.3931  1.3151 -0.0732
  857SOL     OW 3425   2.485   1.985   0.556  0.1244 -0.2565  0.4012
  857SOL    HW1 3426   2.433   2.019   0.480 -2.5801 -1.4417 -2.7400
  857SOL    HW2 3427   2.417   1.922   0.577 -1.6917  3.7451  0.1108
  857SOL     MW 3428   2.469   1.981   0.549 -0.4721  0.1151 -0.0516
  858SOL     OW 3429   2.870   2.645   1.761 -0.1935  0.2537 -0.3243
  858SOL    HW1 3430   2.968   2.673   1.753  1.2365 -2.0985 -1.4413
  858SOL    HW2 3431   2.868   2.555   1.788  1.3908  1.7486 -0.7845
  858SOL     MW 3432   2.882   2.637   1.764  0.2042  0.1406 -0.5324
  859SOL     OW 3433   2.142   2.566   0.925 -0.0119  0.3402 -0.3250
  859SOL    HW1 3434   2.118   2.497   0.984  1.0802  0.0194 -2.5874
  859SOL    HW2 3435   2.151   2.527   0.839  2.0207  0.2375 -0.1202
  859SOL     MW 3436   2.140   2.552   0.921  0.4004  0.2843 -0.5965
  860SOL     OW 3437   2.672   2.603   0.118  0.2618 -0.3796  0.0246
  860SOL    HW1 3438   2.738   2.573   0.189 -2.4500  2.3552 -1.0357
  860SOL    HW2 3439   2.702   2.689   0.082  4.3503 -2.3491  2.6249
  860SOL     MW 3440   2.685   2.611   0.123  0.4434 -0.2786  0.2278
  861SOL     OW 3441   1.600   2.160   1.094  0.5821  0.2731  0.2979
  861SOL    HW1 3442   1.624   2.238   1.148  0.0782  2.3769  0.6111
  861SOL    HW2 3443   1.534   2.121   1.152  1.3459 -0.0598  0.3599
  861SOL     MW 3444   1.594   2.165   1.109  0.6164  0.5068  0.3474
  862SOL     OW 3445   2.482   1.805   1.556 -0.0991  0.2662 -0.2418
  862SOL    HW1 3446   2.409   1.824   1.617 -0.2557  0.7062  1.1145
  862SOL    HW2 3447   2.450   1.830   1.469  2.0405 -1.3262 -1.9817
  862SOL     MW 3448   2.468   1.811   1.553  0.1625  0.1142 -0.2924
  863SOL     OW 3449   3.014   1.757   1.028 -0.2335 -0.3049 -0.0699
  863SOL    HW1 3450   3.102   1.760   1.074 -0.4034 -0.0189 -2.5393
  863SOL    HW2 3451   2.967   1.835   1.060 -1.9031 -2.3666  1.0418
  863SOL     MW 3452   3.019   1.768   1.038 -0.4762 -0.5392 -0.2490
  864SOL     OW 3453   3.050   1.845   0.760  0.3259  0.4786  0.6885
  864SOL    HW1 3454   3.030   1.781   0.835 -2.3289 -1.0315  1.1336
  864SOL    HW2 3455   3.032   1.790   0.681  2.2604 -2.3145 -0.8893
  864SOL     MW 3456   3.045   1.829   0.760  0.2308 -0.0891  0.5391
  865SOL     OW 3457   2.479   2.203   0.022  0.0497 -0.0761  0.6690
  865SOL    HW1 3458   2.523   2.156   0.094 -2.2994  0.5155  0.6542
  865SOL    HW2 3459   2.442   2.141  -0.046  1.6331  3.4604 -2.4814
  865SOL     MW 3460   2.480   2.188   0.023 -0.0513  0.4686  0.2514
  866SOL     OW 3461   2.671   2.352   1.678  0.3290 -0.8088 -0.2094
  866SOL    HW1 3462   2.681   2.262   1.714  0.6698 -0.8703 -1.9609
  866SOL    HW2 3463   2.719   2.352   1.586  0.0839 -1.7319 -0.8792
  866SOL     MW 3464   2.679   2.340   1.670  0.3416 -0.9387 -0.5289
  867SOL     OW 3465   0.039   2.712   1.782  0.0788 -0.5398  0.0582
  867SOL    HW1 3466   0.029   2.755   1.863  4.8028  0.6497 -2.3571
  867SOL    HW2 3467   0.042   2.782   1.715 -0.2263 -0.9297  0.6200
  867SOL     MW 3468   0.038   2.727   1.784  0.6618 -0.4343 -0.1863
  868SOL     OW 3469   2.775   2.636   0.537  0.0084  0.6487  0.2100
  868SOL    HW1 3470   2.705   2.582   0.572 -1.1471  2.7555 -0.0405
  868SOL    HW2 3471   2.724   2.700   0.490  1.1747 -0.4262 -0.7359
  868SOL     MW 3472   2.759   2.637   0.535  0.0098  0.7849  0.0521
  869SOL     OW 3473   2.066   2.312   1.067 -0.7243 -0.1731 -0.8557
  869SOL    HW1 3474   2.158   2.302   1.035  1.2721 -0.4546  3.2332
  869SOL    HW2 3475   2.004   2.262   1.009 -0.0316 -1.0822  0.1002
  869SOL     MW 3476   2.070   2.304   1.055 -0.3695 -0.3302 -0.1901
  870SOL     OW 3477   2.128   0.046   0.459 -0.3522 -0.5771  0.4503
  870SOL    HW1 3478   2.216   0.074   0.418  0.8255  0.7702  2.4365
  870SOL    HW2 3479   2.131  -0.052   0.455  1.8124 -1.6434  0.4652
  870SOL     MW 3480   2.140   0.037   0.453  0.0888 -0.5400  0.7143
  871SOL     OW 3481   2.465   2.032   0.958 -0.6908 -0.1092  0.1084
  871SOL    HW1 3482   2.407   1.998   0.888  1.8879 -1.9935  1.5391
  871SOL    HW2 3483   2.412   2.106   0.986 -0.9215  1.2982 -0.8251
  871SOL     MW 3484   2.451   2.038   0.953 -0.3810 -0.1721  0.1740
  872SOL     OW 3485   2.023   2.501   1.556  0.1008 -0.4183 -0.0028
  872SOL    HW1 3486   2.016   2.513   1.649  0.4241 -1.6388 -1.4024
  872SOL    HW2 3487   1.934   2.467   1.537  0.2353  1.0583 -2.1142
  872SOL     MW 3488   2.010   2.498   1.566  0.1612 -0.3845 -0.4660
  873SOL     OW 3489   2.905   2.035   1.965 -0.2398  0.3070 -0.1303
  873SOL    HW1 3490   2.892   2.101   2.036  2.8593  0.6409  1.1878
  873SOL    HW2 3491   2.974   2.068   1.899  0.5231  2.9679 -1.4844
  873SOL     MW 3492   2.913   2.048   1.966  0.2697  0.7022 -0.1350
  874SOL     OW 3493   2.326   1.425   2.455  0.0928  0.2204  0.1112
  874SOL    HW1 3494   2.305   1.388   2.368  0.8800  0.7050  0.1091
  874SOL    HW2 3495   2.410   1.384   2.486  1.5742 -1.7739 -1.7988
  874SOL     MW 3496   2.334   1.415   2.448  0.3921  0.0212 -0.1411
  875SOL     OW 3497   2.331   2.293   1.011  0.5063 -0.0691 -0.2929
  875SOL    HW1 3498   2.370   2.366   0.960 -0.3346 -0.0435 -0.4281
  875SOL    HW2 3499   2.345   2.321   1.104 -3.2042  3.3626 -0.1150
  875SOL     MW 3500   2.338   2.306   1.016 -0.0942  0.3871 -0.2872
  876SOL     OW 3501   3.058   2.290   1.311 -0.0080  0.3493  0.2932
  876SOL    HW1 3502   3.112   2.312   1.229  0.1432 -0.6277  1.6698
  876SOL    HW2 3503   3.097   2.354   1.376 -0.3749 -0.5150  1.5615
  876SOL     MW 3504   3.071   2.301   1.309 -0.0365  0.1063  0.6422
  877SOL     OW 3505   0.014   2.778   0.312 -0.0145  0.4795 -0.1486
  877SOL    HW1 3506   0.092   2.829   0.287  2.3867 -2.1739  0.9153
  877SOL    HW2 3507  -0.003   2.727   0.232 -0.0746  0.4770  0.9517
  877SOL     MW 3508   0.022   2.778   0.298  0.2944  0.1291  0.1370
  878SOL     OW 3509   2.372   1.824   1.283 -0.2646 -0.1289 -0.4948
  878SOL    HW1 3510   2.314   1.751   1.309  1.4525  1.7780 -4.0340
  878SOL    HW2 3511   2.455   1.774   1.272  0.8636 -1.8521  0.5775
  878SOL     MW 3512   2.376   1.808   1.285  0.1108 -0.1047 -0.8203
  879SOL     OW 3513   2.748   2.448   0.973  0.2606  0.1514  0.0703
  879SOL    HW1 3514   2.793   2.533   0.979 -0.0575 -2.4332  1.9273
  879SOL    HW2 3515   2.807   2.394   0.921 -0.0369 -0.4529 -1.5318
  879SOL     MW 3516   2.762   2.452   0.967  0.1794 -0.2693  0.1039
  880SOL     OW 3517   2.618   2.163   0.737  0.0994  0.0724 -0.2411
  880SOL    HW1 3518   2.614   2.092   0.809 -0.8063 -1.7952  1.6571
  880SOL    HW2 3519   2.566   2.127   0.666 -2.7752 -1.5356 -0.6869
  880SOL     MW 3520   2.611   2.149   0.738 -0.3994 -0.3861 -0.0495
  881SOL     OW 3521   2.938   2.721   0.750  0.8414 -0.6886 -0.1938
  881SOL    HW1 3522   2.889   2.687   0.677 -1.5465 -1.6096 -2.3129
  881SOL    HW2 3523   3.029   2.697   0.729 -0.0187  2.3352 -1.3701
  881SOL     MW 3524   2.944   2.713   0.738  0.4129 -0.4112 -0.6286
  882SOL     OW 3525   2.232   2.904   1.954 -0.1359  0.0923 -0.4437
  882SOL    HW1 3526   2.219   2.888   1.856  0.6939 -0.8208  2.8010
  882SOL    HW2 3527   2.221   2.814   1.992  1.1399 -4.2648  2.7194
  882SOL     MW 3528   2.229   2.890   1.946  0.1419 -0.6030  0.4017
  883SOL     OW 3529   2.315   2.198   1.408  0.1646 -0.0951 -0.8238
  883SOL    HW1 3530   2.397   2.151   1.374  1.4787  0.2893  0.8444
  883SOL    HW2 3531   2.240   2.170   1.352 -0.0859  1.4578 -1.6013
  883SOL     MW 3532   2.316   2.188   1.396  0.3049  0.1605 -0.7063
  884SOL     OW 3533   1.947   1.772   1.059  0.0255  0.5443  0.4580
  884SOL    HW1 3534   1.890   1.851   1.047  1.4692  3.0914  1.7136
  884SOL    HW2 3535   2.043   1.811   1.048 -0.2717  2.7634 -1.5362
  884SOL     MW 3536   1.952   1.787   1.056  0.1768  1.1732  0.3606
  885SOL     OW 3537   2.887   2.402   1.836 -0.0117  0.2261 -0.2194
  885SOL    HW1 3538   2.955   2.333   1.836  0.6337  0.9006  0.5235
  885SOL    HW2 3539   2.826   2.385   1.768 -1.8335  0.8186  0.9427
  885SOL     MW 3540   2.888   2.391   1.827 -0.1669  0.3933  0.0319
  886SOL     OW 3541   2.811   2.331   1.459  0.4807  0.7976 -0.5761
  886SOL    HW1 3542   2.887   2.288   1.433 -0.1505 -0.0687  0.6750
  886SOL    HW2 3543   2.827   2.430   1.445  1.9079  1.4061  0.7651
  886SOL     MW 3544   2.823   2.339   1.454  0.5857  0.7636 -0.2341
  887SOL     OW 3545   2.281   2.635   1.583 -0.1516  0.1805 -0.1761
  887SOL    HW1 3546   2.322   2.666   1.498  1.6387  1.2880 -0.3068
  887SOL    HW2 3547   2.204   2.584   1.560 -0.1658  0.3743  1.4886
  887SOL     MW 3548   2.276   2.633   1.569  0.0828  0.3522  0.0263
  888SOL     OW 3549   1.883   2.115   1.385 -0.5720  0.6901  0.5422
  888SOL    HW1 3550   1.961   2.116   1.331 -1.4573  1.7540  0.7601
  888SOL    HW2 3551   1.925   2.116   1.470  0.1901 -2.7651  0.6310
  888SOL     MW 3552   1.898   2.115   1.389 -0.5883  0.3746  0.5826
  889SOL     OW 3553   2.319   2.030   2.066  0.4043  0.1881  0.1275
  889SOL    HW1 3554   2.384   1.991   2.132 -0.6249 -3.3705 -0.8449
  889SOL    HW2 3555   2.370   2.101   2.022  2.6758 -1.6005 -0.3879
  889SOL     MW 3556   2.335   2.034   2.069  0.5682 -0.5174 -0.0688
  890SOL     OW 3557   0.051   2.358   0.141 -0.1953  0.4454 -0.4554
  890SOL    HW1 3558  -0.005   2.436   0.117  0.0908 -0.2507 -0.0292
  890SOL    HW2 3559   0.042   2.350   0.238  0.3039  1.7549 -1.0736
  890SOL     MW 3560   0.042   2.367   0.151 -0.0917  0.5263 -0.4808
  891SOL     OW 3561   3.048   2.010   1.294  0.2982  0.0467 -0.0176
  891SOL    HW1 3562   3.133   1.984   1.257  2.0355  0.6909 -0.9731
  891SOL    HW2 3563   3.048   2.100   1.281 -0.1356 -2.5512  1.5670
  891SOL     MW 3564   3.059   2.018   1.288  0.4702 -0.2111  0.0654
  892SOL     OW 3565   2.450   2.310   2.749  0.0167  0.0375  0.0672
  892SOL    HW1 3566   2.405   2.239   2.792 -0.1222  0.1445  0.9129
  892SOL    HW2 3567   2.534   2.327   2.787  2.0823 -1.2119 -0.5104
  892SOL     MW 3568   2.456   2.303   2.759  0.2709 -0.1132  0.1026
  893SOL     OW 3569   1.599   2.413   1.229 -0.1999 -0.1041 -0.3981
  893SOL    HW1 3570   1.545   2.462   1.291  2.3941 -1.5732  0.0846
  893SOL    HW2 3571   1.688   2.445   1.245 -0.8977  1.2916 -0.4694
  893SOL     MW 3572   1.603   2.423   1.240  0.0503 -0.1138 -0.3438
  894SOL     OW 3573   2.747   1.867   0.453  0.3691  0.0165  0.4174
  894SOL    HW1 3574   2.661   1.889   0.477 -0.8181  0.8562 -0.8113
  894SOL    HW2 3575   2.760   1.830   0.359  1.5051 -2.5096  0.0922
  894SOL     MW 3576   2.737   1.865   0.443  0.3623 -0.2060  0.2123
  895SOL     OW 3577   2.127   2.101   1.243  0.6920  0.0547  0.0007
  895SOL    HW1 3578   2.118   2.178   1.172  1.9753  2.3916 -0.6440
  895SOL    HW2 3579   2.134   2.026   1.188 -0.8480 -1.0623 -1.1508
  895SOL     MW 3580   2.127   2.102   1.226  0.6581  0.2157 -0.2363
  896SOL     OW 3581   2.315   2.809   1.090  0.2095  0.2933  0.6482
  896SOL    HW1 3582   2.319   2.767   1.172 -2.5232  1.9413  1.8790
  896SOL    HW2 3583   2.236   2.782   1.063  3.1825 -0.4611 -0.8754
  896SOL     MW 3584   2.305   2.800   1.097  0.2412  0.4112  0.6096
  897SOL     OW 3585   3.051   3.010   3.087  0.4081  0.6270 -0.2514
  897SOL    HW1 3586   3.069   2.934   3.025  0.2513 -4.1872 -1.9194
  897SOL    HW2 3587   3.060   2.959   3.168  1.8270  2.2987 -0.2112
  897SOL     MW 3588   3.055   2.993   3.090  0.5746  0.2124 -0.4661
  898SOL     OW 3589   2.103   0.201   1.479  0.0184 -0.0315  0.8438
  898SOL    HW1 3590   2.074   0.122   1.525  0.1265 -1.8565 -1.4884
  898SOL    HW2 3591   2.089   0.189   1.385  0.8643  2.5925  1.9291
  898SOL     MW 3592   2.097   0.189   1.473  0.1443  0.0739  0.6793
  899SOL     OW 3593   2.923   2.975   0.641 -0.1648  0.0860  0.2061
  899SOL    HW1 3594   2.933   2.893   0.687  1.5138 -1.2080  1.0237
  899SOL    HW2 3595   2.836   3.018   0.655 -0.2496  0.5270  0.1234
  899SOL     MW 3596   2.913   2.970   0.649  0.0455 -0.0266  0.3030
  900SOL     OW 3597   0.076   2.403   1.090 -0.9249 -0.1121  0.6683
  900SOL    HW1 3598   0.026   2.482   1.095 -0.1617 -1.3740 -0.5003
  900SOL    HW2 3599   0.054   2.351   1.008 -0.9610 -2.0044  1.3726
  900SOL     MW 3600   0.067   2.406   1.080 -0.8290 -0.5283  0.6071
  901SOL     OW 3601   1.732   2.838   1.766  0.4892  0.1243 -0.4211
  901SOL    HW1 3602   1.806   2.780   1.742 -1.1948  0.5327  2.2460
  901SOL    HW2 3603   1.667   2.820   1.693  0.5666 -0.2148 -0.6896
  901SOL     MW 3604   1.733   2.828   1.753  0.2772  0.1335 -0.1047
  902SOL     OW 3605   2.699   2.124   1.812 -0.1061  0.1430  0.0184
  902SOL    HW1 3606   2.681   2.071   1.733 -1.7356  0.4874  1.9934
  902SOL    HW2 3607   2.781   2.092   1.855 -2.3085 -2.4655  1.1317
  902SOL     MW 3608   2.707   2.113   1.807 -0.6117 -0.1557  0.4258
  903SOL     OW 3609   1.596   2.714   0.596  0.2333 -0.6115  0.5942
  903SOL    HW1 3610   1.672   2.660   0.617 -0.4277  2.3825  0.4517
  903SOL    HW2 3611   1.574   2.745   0.682  1.4563  0.9765  1.3391
  903SOL     MW 3612   1.603   2.711   0.610  0.3075 -0.0070  0.6737
  904SOL     OW 3613   2.529   2.585   1.713  0.1024 -0.0663 -0.1560
  904SOL    HW1 3614   2.453   2.590   1.655 -1.3283 -0.7819  1.1344
  904SOL    HW2 3615   2.580   2.508   1.701 -0.9255  0.1654  0.9933
  904SOL     MW 3616   2.526   2.575   1.704 -0.2220 -0.1301  0.1659
  905SOL     OW 3617   2.281   2.525   2.146  0.5474 -0.7271 -0.6958
  905SOL    HW1 3618   2.346   2.490   2.086 -3.0548  1.2022 -1.1375
  905SOL    HW2 3619   2.250   2.449   2.193  1.4787  0.2086 -0.0248
  905SOL     MW 3620   2.286   2.510   2.144  0.1950 -0.3491 -0.6656
  906SOL     OW 3621   2.441   2.478   0.841  0.7872  0.6122 -0.5617
  906SOL    HW1 3622   2.527   2.465   0.880 -0.2065 -2.7269  1.0087
  906SOL    HW2 3623   2.428   2.567   0.852 -2.7956 -3.7432 -2.7010
  906SOL     MW 3624   2.451   2.488   0.848  0.1834 -0.4030 -0.6367
  907SOL     OW 3625   2.635   2.800   1.351  0.1189  0.2579 -0.1635
  907SOL    HW1 3626   2.685   2.861   1.402 -1.2539 -2.4753  0.6030
  907SOL    HW2 3627   2.659   2.836   1.264  2.3964  0.8959  1.3180
  907SOL     MW 3628   2.645   2.812   1.346  0.2383 -0.0186  0.1331
  908SOL     OW 3629   2.707   2.334   3.094 -0.5688  0.1680  0.4391
  908SOL    HW1 3630   2.627   2.287   3.113  3.5363  0.4559  1.4235
  908SOL    HW2 3631   2.695   2.423   3.126  1.4032 -0.2793 -1.1468
  908SOL     MW 3632   2.695   2.339   3.101  0.2330  0.1470  0.3597
  909SOL     OW 3633   1.732   0.058   1.184  0.6789 -0.6305  0.4357
  909SOL    HW1 3634   1.712   0.126   1.114  0.4555  1.3922  1.1675
  909SOL    HW2 3635   1.773   0.109   1.251 -1.7482 -0.6085 -2.8564
  909SOL     MW 3636   1.735   0.074   1.183  0.3292 -0.3607  0.0979
  910SOL     OW 3637   2.262   1.809   0.411 -0.5037  0.4675 -0.2992
  910SOL    HW1 3638   2.221   1.725   0.427 -0.1948 -1.4713 -1.8543
  910SOL    HW2 3639   2.218   1.843   0.331 -0.0004  0.7473 -1.0318
  910SOL     MW 3640   2.251   1.802   0.403 -0.3965  0.2486 -0.6010
  911SOL     OW 3641   2.261   2.163   1.677 -0.1864 -0.8793 -0.8245
  911SOL    HW1 3642   2.325   2.192   1.739 -0.5490  0.2623 -0.3071
  911SOL    HW2 3643   2.292   2.175   1.584 -0.8911 -2.3140 -1.0127
  911SOL     MW 3644   2.273   2.168   1.673 -0.3272 -0.9180 -0.7810
  912SOL     OW 3645   2.932   1.919   1.536  0.2056 -0.0547 -0.2304
  912SOL    HW1 3646   2.973   1.951   1.447  2.5278 -1.5318  0.1539
  912SOL    HW2 3647   2.859   1.981   1.556 -0.6162  1.5907 -0.7356
  912SOL     MW 3648   2.928   1.931   1.527  0.4036 -0.0325 -0.2464
  913SOL     OW 3649   2.633   3.041   0.359  0.1571  0.1499 -0.0967
  913SOL    HW1 3650   2.710   2.978   0.351 -1.4772 -1.5151  0.6416
  913SOL    HW2 3651   2.563   2.983   0.346  1.0612 -2.1831  0.6935
  913SOL     MW 3652   2.634   3.025   0.356  0.0607 -0.3776  0.1050
  914SOL     OW 3653   2.713   1.748   3.047 -0.0504 -0.0404 -0.1131
  914SOL    HW1 3654   2.734   1.818   2.981  2.3428 -0.0340 -3.0072
  914SOL    HW2 3655   2.636   1.706   3.023 -0.6816 -0.3083 -1.4945
  914SOL     MW 3656   2.706   1.751   3.035  0.1820 -0.0749 -0.6772
  915SOL     OW 3657   1.694   0.228   0.227 -0.7491 -0.2988  0.3724
  915SOL    HW1 3658   1.769   0.169   0.254  1.9504 -0.3114 -1.8086
  915SOL    HW2 3659   1.625   0.165   0.196  3.1091 -0.8880 -2.6833
  915SOL     MW 3660   1.695   0.212   0.226  0.1161 -0.3782 -0.3185
  916SOL     OW 3661   1.817   2.117   1.916  0.3253  0.2395  0.7486
  916SOL    HW1 3662   1.864   2.200   1.919 -2.5215 -0.0215  1.3685
  916SOL    HW2 3663   1.851   2.070   1.839  0.6868 -1.4782  2.5380
  916SOL     MW 3664   1.828   2.121   1.906 -0.0026 -0.0216  1.0665
  917SOL     OW 3665   2.512   2.224   2.505 -0.7910 -0.2993  0.2909
  917SOL    HW1 3666   2.479   2.263   2.590 -2.8729  0.9139  0.2609
  917SOL    HW2 3667   2.589   2.272   2.470 -0.3468 -1.2518 -0.9445
  917SOL     MW 3668   2.518   2.235   2.512 -1.0071 -0.2649  0.1240
  918SOL     OW 3669   1.987   1.599   2.715 -0.2803  0.3087 -0.1254
  918SOL    HW1 3670   1.916   1.633   2.661  0.1648  0.6393  0.9313
  918SOL    HW2 3671   2.064   1.650   2.697 -1.5683 -0.2203  1.5216
  918SOL     MW 3672   1.988   1.610   2.706 -0.3915  0.2825  0.2313
  919SOL     OW 3673   3.072   2.329   2.260  0.3070  0.0271 -0.0269
  919SOL    HW1 3674   2.998   2.273   2.233  0.6694  2.7928  0.0412
  919SOL    HW2 3675   3.121   2.357   2.181 -2.6330 -0.1005  3.4410
  919SOL     MW 3676   3.069   2.325   2.246 -0.0331  0.3752  0.4396
  920SOL     OW 3677   2.708   2.872   0.003 -0.1683  0.3098 -0.0526
  920SOL    HW1 3678   2.627   2.885   0.052  0.5112  1.8870 -0.2966
  920SOL    HW2 3679   2.688   2.798  -0.064 -1.7869 -0.7113 -0.2848
  920SOL     MW 3680   2.695   2.864   0.001 -0.2922  0.3831 -0.1154
  921SOL     OW 3681   2.429   2.571   2.643  0.0173  0.0853  0.3949
  921SOL    HW1 3682   2.503   2.560   2.591 -2.4459  0.0396  0.4724
  921SOL    HW2 3683   2.420   2.490   2.684 -0.6283  3.2846 -0.5474
  921SOL     MW 3684   2.437   2.559   2.641 -0.3928  0.5014  0.2808
  922SOL     OW 3685   2.028   2.850   0.292 -0.5617  0.1098 -0.1019
  922SOL    HW1 3686   2.019   2.869   0.197 -0.1583 -2.1959 -0.2514
  922SOL    HW2 3687   2.050   2.756   0.294 -2.2290  1.7064  0.9068
  922SOL     MW 3688   2.029   2.840   0.280 -0.7284  0.0163  0.0114
  923SOL     OW 3689   2.155   2.850   1.687  0.7178 -0.1377  0.4055
  923SOL    HW1 3690   2.194   2.789   1.626  0.2433  0.9914 -0.1190
  923SOL    HW2 3691   2.110   2.919   1.637 -1.0733  0.2510  1.4449
  923SOL     MW 3692   2.154   2.851   1.672  0.4188  0.0625  0.4734
  924SOL     OW 3693   1.126   2.681   2.524 -0.1890  0.3679 -0.0035
  924SOL    HW1 3694   1.191   2.750   2.515  2.3053  0.1320 -0.1359
  924SOL    HW2 3695   1.128   2.634   2.607 -2.3332 -2.7606 -3.3678
  924SOL     MW 3696   1.135   2.684   2.534 -0.1428 -0.0760 -0.4648
  925SOL     OW 3697   3.056   0.180   2.634  0.3369 -0.0629 -0.7108
  925SOL    HW1 3698   3.022   0.201   2.545  0.8944 -1.9092  0.5683
  925SOL    HW2 3699   3.024   0.254   2.686  0.4267  1.8066  1.6360
  925SOL     MW 3700   3.048   0.193   2.629  0.4223 -0.0598 -0.2324
  926SOL     OW 3701   2.702   2.417   2.044  0.1012 -0.0743  0.1062
  926SOL    HW1 3702   2.758   2.454   2.111  0.4918  0.2930 -1.9064
  926SOL    HW2 3703   2.760   2.376   1.976  0.5217 -1.7130 -1.0451
  926SOL     MW 3704   2.717   2.417   2.044  0.2082 -0.2420 -0.3113
  927SOL     OW 3705   2.343   0.119   0.314 -0.2702  0.0306  0.0452
  927SOL    HW1 3706   2.433   0.144   0.307 -2.1366 -1.9241  2.5857
  927SOL    HW2 3707   2.323   0.099   0.217  0.8277 -1.2981  0.0409
  927SOL     MW 3708   2.352   0.120   0.300 -0.3716 -0.4026  0.3799
  928SOL     OW 3709   2.164   2.393   1.791  0.6013 -0.2835 -0.3935
  928SOL    HW1 3710   2.236   2.446   1.814 -2.3269  0.1612 -4.9404
  928SOL    HW2 3711   2.193   2.319   1.737 -0.1957 -0.2970  0.6160
  928SOL     MW 3712   2.177   2.390   1.787  0.1098 -0.2266 -0.8602
  929SOL     OW 3713   2.752   2.366   2.452  0.3647 -0.5124 -0.0785
  929SOL    HW1 3714   2.799   2.358   2.368  1.2564 -2.2057 -1.7385
  929SOL    HW2 3715   2.816   2.344   2.519 -1.0875 -2.0246  1.0438
  929SOL     MW 3716   2.766   2.362   2.450  0.2907 -0.9353 -0.1494
  930SOL     OW 3717   2.012   2.856   2.741 -0.2145 -0.2851  0.0808
  930SOL    HW1 3718   2.034   2.763   2.766  1.2986 -1.9128  0.8940
  930SOL    HW2 3719   2.095   2.902   2.738  1.5666  2.0542 -0.6123
  930SOL     MW 3720   2.026   2.850   2.744  0.2202 -0.1912  0.0966
  931SOL     OW 3721   3.031   2.735   2.362  0.1548 -0.5225  0.2603
  931SOL    HW1 3722   3.080   2.754   2.444 -1.9320 -0.3237  1.7264
  931SOL    HW2 3723   3.091   2.735   2.282 -0.7511  0.1308 -0.3558
  931SOL     MW 3724   3.045   2.737   2.362 -0.2401 -0.4101  0.3725
  932SOL     OW 3725   2.908   1.953   2.549  0.6210 -0.3784 -0.6266
  932SOL    HW1 3726   2.995   1.979   2.523 -1.0090 -0.0771  0.4795
  932SOL    HW2 3727   2.847   1.983   2.479 -0.0469  0.7679 -0.9085
  932SOL     MW 3728   2.911   1.961   2.537  0.3178 -0.1874 -0.5179
  933SOL     OW 3729   2.070   2.829   2.255 -0.1402 -0.8325  0.0997
  933SOL    HW1 3730   2.163   2.847   2.258  1.0902  2.4057 -2.2275
  933SOL    HW2 3731   2.025   2.918   2.242 -1.9426  1.3367 -1.3664
  933SOL     MW 3732   2.076   2.843   2.253 -0.2157 -0.1191 -0.4008
  934SOL     OW 3733   2.028   2.719   2.513  0.1013  0.2244 -0.1955
  934SOL    HW1 3734   2.040   2.793   2.574 -1.2833  3.0580 -2.5460
  934SOL    HW2 3735   2.039   2.760   2.424 -0.2510  1.8092  0.9274
  934SOL     MW 3736   2.031   2.734   2.510 -0.1279  0.8073 -0.3575
  935SOL     OW 3737   2.692   1.513   1.820  0.2312  0.1471  0.7560
  935SOL    HW1 3738   2.772   1.514   1.775 -2.2826  1.8692 -1.0616
  935SOL    HW2 3739   2.643   1.523   1.743 -1.7651  0.6115  1.7857
  935SOL     MW 3740   2.696   1.515   1.804 -0.3639  0.4356  0.6520
  936SOL     OW 3741   3.008   2.211   3.069  0.0247  0.5329  0.2145
  936SOL    HW1 3742   3.069   2.263   3.122 -0.0376 -2.0565  1.8579
  936SOL    HW2 3743   2.917   2.240   3.071 -1.4405 -0.4293  1.5057
  936SOL     MW 3744   3.004   2.222   3.077 -0.1768  0.0643  0.6017
  937SOL     OW 3745   1.956   2.135   2.601 -0.0139  0.1735  0.2049
  937SOL    HW1 3746   2.023   2.072   2.644  0.5854  1.1500 -0.2479
  937SOL    HW2 3747   1.954   2.110   2.508  1.0887 -0.1992 -1.2925
  937SOL     MW 3748   1.965   2.124   2.595  0.2107  0.2532 -0.0524
  938SOL     OW 3749   2.300   1.791   1.972  0.3748  0.2891 -0.5349
  938SOL    HW1 3750   2.270   1.798   1.881  0.7919 -0.0961  0.1083
  938SOL    HW2 3751   2.306   1.882   2.006 -0.1830  2.0705  1.4525
  938SOL     MW 3752   2.297   1.804   1.964  0.3562  0.4733 -0.1878
  939SOL     OW 3753   2.746   1.989   2.309  0.7224 -0.0680 -0.4902
  939SOL    HW1 3754   2.786   1.908   2.279 -0.1228  1.3720  1.7281
  939SOL    HW2 3755   2.645   1.983   2.289 -2.9158  1.3538 -0.1683
  939SOL     MW 3756   2.738   1.978   2.303  0.1308  0.3096 -0.1550
  940SOL     OW 3757   2.279   0.171   2.701 -0.2171  0.0437 -0.2248
  940SOL    HW1 3758   2.285   0.095   2.645  0.4555 -0.0435  0.8265
  940SOL    HW2 3759   2.330   0.165   2.791  1.6588 -0.9936  0.8083
  940SOL     MW 3760   2.286   0.160   2.705  0.1191 -0.1047  0.0502
  941SOL     OW 3761   0.128   2.455   2.064  0.1101  0.5036 -0.3248
  941SOL    HW1 3762   0.207   2.414   2.082 -3.3719 -1.6891  1.2216
  941SOL    HW2 3763   0.126   2.460   1.966 -0.8850 -0.4852 -2.3742
  941SOL     MW 3764   0.138   2.450   2.053 -0.4806  0.0839 -0.3911
  942SOL     OW 3765   2.855   2.209   2.176 -0.5951  0.0746 -0.4465
  942SOL    HW1 3766   2.791   2.265   2.135 -1.0420  2.2016  3.4582
  942SOL    HW2 3767   2.806   2.142   2.220 -0.9451  2.7580 -0.6931
  942SOL     MW 3768   2.840   2.207   2.177 -0.7002  0.7093  0.0362
  943SOL     OW 3769   0.283   2.105   2.279 -0.2733 -0.4505  0.0093
  943SOL    HW1 3770   0.237   2.144   2.349 -0.1517 -2.8885  0.6629
  943SOL    HW2 3771   0.366   2.070   2.316  0.3199  2.3802 -0.0257
  943SOL     MW 3772   0.288   2.106   2.293 -0.1790 -0.3987  0.0909
  944SOL     OW 3773   2.083   2.654   2.027 -0.0169 -0.0539 -0.5186
  944SOL    HW1 3774   2.148   2.603   2.070 -0.7191 -0.3794 -1.5897
  944SOL    HW2 3775   2.052   2.704   2.106  1.0617  1.3226  1.0413
  944SOL     MW 3776   2.088   2.654   2.043  0.0328  0.0847 -0.4541
  945SOL     OW 3777   2.671   2.691   2.898  0.1262  0.2118 -0.3590
  945SOL    HW1 3778   2.640   2.603   2.881 -1.5083  0.0130 -0.4120
  945SOL    HW2 3779   2.686   2.731   2.812  0.8450  0.3681  1.1690
  945SOL     MW 3780   2.669   2.684   2.884  0.0054  0.2062 -0.1644
  946SOL     OW 3781   2.478   2.683   2.259  0.1323 -0.2757 -0.5629
  946SOL    HW1 3782   2.497   2.719   2.166  1.0128 -0.5710  1.8139
  946SOL    HW2 3783   2.399   2.628   2.238 -1.4505 -1.6922 -1.4949
  946SOL     MW 3784   2.470   2.681   2.244  0.0396 -0.5015 -0.3723
  947SOL     OW 3785   1.912   0.075   0.307  0.0902  0.2625 -0.1333
  947SOL    HW1 3786   1.885  -0.012   0.289 -0.3100 -2.5733 -2.4067
  947SOL    HW2 3787   1.982   0.062   0.376 -0.5766 -2.3554  2.0030
  947SOL     MW 3788   1.917   0.062   0.314 -0.0506 -0.4571 -0.1514
  948SOL     OW 3789   1.792   3.029   2.708  0.0865 -0.0520  0.1512
  948SOL    HW1 3790   1.854   2.954   2.698  1.2216 -0.6595  1.8564
  948SOL    HW2 3791   1.772   3.059   2.612  1.3545 -0.0476 -0.7097
  948SOL     MW 3792   1.797   3.023   2.694  0.4036 -0.1315  0.2626
  949SOL     OW 3793   2.472   1.921   2.266  0.0436  0.0900 -0.0441
  949SOL    HW1 3794   2.483   1.839   2.312  3.1468 -2.2089 -0.7875
  949SOL    HW2 3795   2.442   1.985   2.331 -0.7211 -2.5808  1.5848
  949SOL     MW 3796   2.470   1.919   2.280  0.3521 -0.5657  0.0727
  950SOL     OW 3797   2.317   2.498   2.913  0.7003  0.5149 -0.2193
  950SOL    HW1 3798   2.341   2.419   2.866 -1.3506  0.3787 -0.0728
  950SOL    HW2 3799   2.234   2.537   2.871 -1.0388  1.9302  0.1787
  950SOL     MW 3800   2.309   2.493   2.902  0.2002  0.6837 -0.1475
  951SOL     OW 3801   3.007   2.072   2.827  0.0689  0.2796  0.0789
  951SOL    HW1 3802   3.031   2.110   2.915 -0.7768 -0.5593  0.7296
  951SOL    HW2 3803   3.057   1.991   2.817 -0.3544  1.2817  1.8360
  951SOL     MW 3804   3.017   2.067   2.837 -0.0985  0.3012  0.3966
  952SOL     OW 3805   3.025   1.689   2.176 -0.2208  0.2547  0.3449
  952SOL    HW1 3806   2.944   1.733   2.160 -0.2110 -1.7851 -0.3660
  952SOL    HW2 3807   3.087   1.751   2.217 -0.7358  1.8460 -0.2925
  952SOL     MW 3808   3.022   1.703   2.179 -0.2875  0.1955  0.1670
  953SOL     OW 3809   1.895   1.770   2.907 -0.0413 -0.3591  0.1962
  953SOL    HW1 3810   1.815   1.729   2.951 -0.9882  0.5164  1.9366
  953SOL    HW2 3811   1.911   1.707   2.832  1.1374 -1.3558 -4.1809
  953SOL     MW 3812   1.887   1.756   2.903 -0.0107 -0.3751 -0.1517
  954SOL     OW 3813   2.375   2.083   2.881 -0.4981  0.4337 -0.6830
  954SOL    HW1 3814   2.299   2.063   2.832  1.7447 -3.6674  2.0107
  954SOL    HW2 3815   2.447   2.029   2.832  1.8061 -2.5012  1.5093
  954SOL     MW 3816   2.374   2.073   2.868  0.1018 -0.4947 -0.0383
  955SOL     OW 3817   1.563   1.578   2.561  0.2451 -0.1596 -0.1886
  955SOL    HW1 3818   1.531   1.576   2.470  1.9760 -0.8972  1.1588
  955SOL    HW2 3819   1.640   1.640   2.573 -2.8516  1.6555  2.0365
  955SOL     MW 3820   1.569   1.586   2.550  0.0649 -0.0174  0.2828
  956SOL     OW 3821   2.687   2.420   2.828 -0.2370  0.0117  0.4745
  956SOL    HW1 3822   2.681   2.374   2.913  1.7435 -0.3536 -2.2186
  956SOL    HW2 3823   2.753   2.376   2.780  1.2264 -2.9827  1.1951
  956SOL     MW 3824   2.695   2.408   2.833  0.2174 -0.4316  0.2143
  957SOL     OW 3825   2.307   2.831   0.385 -0.1288  0.2472  0.3203
  957SOL    HW1 3826   2.223   2.837   0.335 -1.5759  1.7168  0.6437
  957SOL    HW2 3827   2.283   2.799   0.479 -3.6164 -1.3029  1.5000
  957SOL     MW 3828   2.293   2.828   0.391 -0.7799  0.2366  0.5186
  958SOL     OW 3829   2.093   2.607   2.796 -0.3243 -1.0466 -0.3365
  958SOL    HW1 3830   2.065   2.550   2.724  0.6692 -0.7049 -2.8994
  958SOL    HW2 3831   2.033   2.588   2.875  1.3659  1.4384 -0.0337
  958SOL     MW 3832   2.082   2.597   2.797  0.0297 -0.6736 -0.6347
  959SOL     OW 3833   2.520   2.641   0.360  0.1198  0.1777  0.8050
  959SOL    HW1 3834   2.564   2.628   0.280 -1.4708 -2.9457 -0.9658
  959SOL    HW2 3835   2.460   2.715   0.344 -0.9540 -1.4756 -1.3101
  959SOL     MW 3836   2.518   2.649   0.347 -0.2317 -0.4526  0.2923
  960SOL     OW 3837   1.922   2.299   2.291 -0.2907 -0.2015  0.4404
  960SOL    HW1 3838   1.935   2.208   2.297  0.3927  0.5556  1.8728
  960SOL    HW2 3839   1.870   2.307   2.367  1.6518  1.3144  0.4734
  960SOL     MW 3840   1.917   2.288   2.302  0.0558  0.0984  0.6337
  961SOL     OW 3841   2.198   2.325   2.302 -0.4465 -0.2951 -0.3692
  961SOL    HW1 3842   2.106   2.316   2.285  0.1229  1.9515  1.1415
  961SOL    HW2 3843   2.203   2.398   2.365 -0.1640  2.1482 -0.4125
  961SOL     MW 3844   2.187   2.334   2.308 -0.3341  0.3237 -0.1756
  962SOL     OW 3845   2.139   1.992   2.761  0.1315 -0.3957  0.1928
  962SOL    HW1 3846   2.097   1.976   2.843  1.1427 -0.9860  0.9321
  962SOL    HW2 3847   2.160   1.905   2.716 -0.5894  2.0112 -1.9645
  962SOL     MW 3848   2.136   1.978   2.766  0.1698 -0.1560  0.0057
  963SOL     OW 3849   1.829   2.529   2.071 -0.1809 -0.6902  0.1706
  963SOL    HW1 3850   1.868   2.461   2.124  0.7220  2.0006 -1.3978
  963SOL    HW2 3851   1.826   2.491   1.982  2.9177 -1.4153 -1.3175
  963SOL     MW 3852   1.834   2.515   2.067  0.3471 -0.4309 -0.2326
  964SOL     OW 3853   1.754   2.003   2.722  0.4525  0.6022 -0.1352
  964SOL    HW1 3854   1.818   2.056   2.673 -0.8516 -0.5850 -0.9578
  964SOL    HW2 3855   1.793   1.968   2.805 -1.9917 -0.1386 -0.3298
  964SOL     MW 3856   1.768   2.006   2.726 -0.0420  0.3478 -0.2694
  965SOL     OW 3857   2.238   2.714   0.614  0.0893 -0.4333  0.2760
  965SOL    HW1 3858   2.234   2.622   0.582 -0.3140 -1.1486  1.1296
  965SOL    HW2 3859   2.310   2.706   0.680 -0.2070 -2.7814  1.2777
  965SOL     MW 3860   2.247   2.701   0.619 -0.0030 -0.8375  0.5208
  966SOL     OW 3861   2.645   2.628   2.461  0.1235 -0.1579 -0.0150
  966SOL    HW1 3862   2.579   2.655   2.388 -0.1647  1.1384  2.8771
  966SOL    HW2 3863   2.673   2.537   2.450 -4.2425  1.4119  1.9080
  966SOL     MW 3864   2.640   2.620   2.450 -0.4906  0.2202  0.6203
  967SOL     OW 3865   2.778   3.083   2.942  0.3199  0.5424  0.9142
  967SOL    HW1 3866   2.765   3.007   3.001  1.7722 -0.2061  0.3379
  967SOL    HW2 3867   2.711   3.090   2.873  2.2861 -0.1312  2.2154
  967SOL     MW 3868   2.768   3.074   2.941  0.7709  0.3547  1.0098
  968SOL     OW 3869   2.963   2.618   2.914  0.6690 -0.2168  0.3836
  968SOL    HW1 3870   2.867   2.628   2.904 -3.0548 -1.2674  2.5696
  968SOL    HW2 3871   2.992   2.585   2.828 -0.0431  3.3765 -0.6449
  968SOL     MW 3872   2.954   2.615   2.901  0.0837  0.1187  0.5363
  969SOL     OW 3873   1.614   2.157   1.660 -0.3040 -0.3010  0.2827
  969SOL    HW1 3874   1.675   2.078   1.674 -0.5953 -1.1277  0.8868
  969SOL    HW2 3875   1.584   2.182   1.749  1.1123 -1.2961 -0.2505
  969SOL     MW 3876   1.618   2.149   1.673 -0.1556 -0.5414  0.2920
  970SOL     OW 3877   1.694   1.783   1.961 -0.3152 -0.2858 -0.1555
  970SOL    HW1 3878   1.753   1.711   1.999 -0.2073 -0.3034 -2.3094
  970SOL    HW2 3879   1.605   1.760   1.938  2.0332  0.5782  1.4965
  970SOL     MW 3880   1.690   1.770   1.963  0.0089 -0.1742 -0.2217
  971SOL     OW 3881   1.742   0.040   2.437  0.3521  0.9280 -0.1418
  971SOL    HW1 3882   1.785  -0.006   2.365 -0.4976  1.1076  0.8826
  971SOL    HW2 3883   1.799   0.112   2.453 -0.8859  0.6698 -1.1889
  971SOL     MW 3884   1.755   0.043   2.429  0.0767  0.9176 -0.1448
  972SOL     OW 3885   0.268   2.873   2.473  0.1495 -0.2690 -0.2827
  972SOL    HW1 3886   0.344   2.818   2.487 -0.4015 -1.0895  2.7894
  972SOL    HW2 3887   0.303   2.960   2.475 -1.3436 -0.3319 -0.5689
  972SOL     MW 3888   0.283   2.877   2.475 -0.1202 -0.3856  0.0849
  973SOL     OW 3889   2.572   0.006   2.099  0.6375 -0.0468  0.7910
  973SOL    HW1 3890   2.567  -0.089   2.070  2.3711 -2.1325  0.2227
  973SOL    HW2 3891   2.578   0.064   2.020  1.3186  0.8867  0.4575
  973SOL     MW 3892   2.572   0.001   2.085  0.9561 -0.1988  0.6720
  974SOL     OW 3893   2.031   0.267   2.692 -0.0004  0.7436  0.1889
  974SOL    HW1 3894   2.119   0.230   2.691 -0.1820 -0.8280 -0.3255
  974SOL    HW2 3895   1.985   0.203   2.749 -0.4908  0.6189 -2.5323
  974SOL     MW 3896   2.037   0.254   2.700 -0.0891  0.5198 -0.2380
  975SOL     OW 3897   2.188   2.508   2.503 -0.7073  0.5610  0.5044
  975SOL    HW1 3898   2.262   2.555   2.536 -1.4896  0.2358  1.6522
  975SOL    HW2 3899   2.122   2.578   2.485 -0.3806  2.5325 -1.9621
  975SOL     MW 3900   2.189   2.523   2.505 -0.7674  0.7782  0.3304
  976SOL     OW 3901   0.245   0.365   1.782  0.7388  0.4054  0.0172
  976SOL    HW1 3902   0.298   0.292   1.801  2.2970  3.6037  0.4571
  976SOL    HW2 3903   0.169   0.320   1.737 -1.2769  0.2514  0.2582
  976SOL     MW 3904   0.242   0.349   1.778  0.6785  0.8070  0.1071
  977SOL     OW 3905   1.760   2.682   2.552  0.0718 -0.1439 -0.2476
  977SOL    HW1 3906   1.759   2.590   2.531 -2.6487  2.1768  1.1808
  977SOL    HW2 3907   1.852   2.706   2.538  1.3031  0.6576 -1.3220
  977SOL     MW 3908   1.772   2.673   2.548 -0.1247  0.2681 -0.2009
   3.10000   3.10000   3.10000
