977 TIP4P/2005f water molecules t=   1.19000 step= 1190
 3908
    1SOL     OW    1   0.418   0.790   3.086  0.2468 -0.0064  0.6208
    1SOL    HW1    2   0.385   0.814   3.000  0.3722 -0.6377  1.8240
    1SOL    HW2    3   0.369   0.717   3.120  0.6862  2.5351 -0.9014
    1SOL     MW    4   0.407   0.784   3.079  0.3213  0.2456  0.5787
    2SOL     OW    5   0.339   3.051   1.162  0.5581 -0.0763  0.5582
    2SOL    HW1    6   0.382   3.123   1.115 -0.5867  1.4934 -1.9417
    2SOL    HW2    7   0.249   3.085   1.180  0.6090 -0.6485  2.8289
    2SOL     MW    8   0.333   3.065   1.158  0.4138  0.0553  0.5280
    3SOL     OW    9   2.573   0.366   0.996 -0.0365 -0.6396  0.1706
    3SOL    HW1   10   2.593   0.427   0.928  2.8948  1.2365 -0.9872
    3SOL    HW2   11   2.548   0.427   1.070  1.4372 -2.7958 -3.4845
    3SOL     MW   12   2.572   0.382   0.997  0.5447 -0.6766 -0.4644
    4SOL     OW   13   3.001   1.727   0.545  1.3589  0.2967  0.3887
    4SOL    HW1   14   2.948   1.792   0.499 -0.4030  1.0677 -0.2453
    4SOL    HW2   15   3.076   1.695   0.496  2.1529  1.1172 -1.1523
    4SOL     MW   16   3.004   1.731   0.532  1.2312  0.5067  0.1017
    5SOL     OW   17   1.691   1.512   0.515 -0.5647  0.4463  0.1770
    5SOL    HW1   18   1.704   1.440   0.578 -1.9412 -0.1912 -0.4971
    5SOL    HW2   19   1.598   1.508   0.518  1.5493 -1.4921  0.2807
    5SOL     MW   20   1.680   1.502   0.523 -0.4674  0.1064  0.1017
    6SOL     OW   21   0.822   1.375   0.579  0.2566  0.7036  0.1112
    6SOL    HW1   22   0.728   1.371   0.599 -1.4907  0.3611 -2.3889
    6SOL    HW2   23   0.851   1.294   0.622  0.7448 -1.4530 -0.6853
    6SOL     MW   24   0.814   1.364   0.588  0.0905  0.3739 -0.3237
    7SOL     OW   25   2.072   1.037   0.001 -0.2913 -0.0905 -0.2540
    7SOL    HW1   26   2.155   1.076   0.025  0.7930  0.8959 -0.0581
    7SOL    HW2   27   2.022   1.025   0.082  1.4429  0.9925 -1.4977
    7SOL     MW   28   2.076   1.040   0.015  0.0806  0.1825 -0.3922
    8SOL     OW   29   0.908   1.460   1.195 -0.2874  0.3206  0.1939
    8SOL    HW1   30   0.993   1.479   1.232 -1.6722 -0.9795  1.9262
    8SOL    HW2   31   0.882   1.374   1.219 -0.2716  0.1379 -0.3963
    8SOL     MW   32   0.916   1.451   1.203 -0.4680  0.1250  0.3446
    9SOL     OW   33   0.997   0.516   1.398 -0.1774 -0.4626  0.0580
    9SOL    HW1   34   0.958   0.436   1.361  0.2128  2.3186 -0.1842
    9SOL    HW2   35   1.022   0.477   1.479 -0.3193 -0.3027  0.0962
    9SOL     MW   36   0.995   0.500   1.404 -0.1446 -0.0745  0.0311
   10SOL     OW   37   0.233   0.798   0.491  0.4158  0.3813  0.5119
   10SOL    HW1   38   0.321   0.834   0.472  0.0148  1.5502  0.6923
   10SOL    HW2   39   0.222   0.822   0.581 -1.4430  1.1810 -1.8244
   10SOL     MW   40   0.243   0.806   0.500  0.1176  0.6410  0.2274
   11SOL     OW   41   0.780   1.123   1.610 -0.0602 -0.2960  0.0552
   11SOL    HW1   42   0.827   1.113   1.691  3.5931  1.4238  1.4075
   11SOL    HW2   43   0.767   1.035   1.581  0.9516 -0.8440  4.0609
   11SOL     MW   44   0.784   1.110   1.617  0.5553 -0.1414  0.7621
   12SOL     OW   45   3.092   1.069   0.884 -0.3677  0.4978 -0.2419
   12SOL    HW1   46   3.133   1.115   0.954 -0.5219  0.8051 -0.6152
   12SOL    HW2   47   3.062   1.138   0.817 -1.4414 -1.0332 -2.0211
   12SOL     MW   48   3.093   1.084   0.885 -0.5297  0.3364 -0.5259
   13SOL     OW   49   1.861   1.397   1.369 -0.2529 -0.3973 -1.4062
   13SOL    HW1   50   1.902   1.338   1.302  2.0279 -4.0167  0.0672
   13SOL    HW2   51   1.882   1.490   1.351 -0.8685 -0.5641  1.4249
   13SOL     MW   52   1.869   1.402   1.358 -0.0332 -0.8968 -0.8382
   14SOL     OW   53   0.560   0.342   1.855  0.0527 -0.7636 -0.1710
   14SOL    HW1   54   0.511   0.260   1.864  0.0043 -2.8622  0.1649
   14SOL    HW2   55   0.592   0.339   1.763  1.0724  0.5835  0.7635
   14SOL     MW   56   0.558   0.331   1.844  0.1808 -0.8628 -0.0034
   15SOL     OW   57   1.964   0.334   1.059  0.1616 -0.2874 -0.1976
   15SOL    HW1   58   1.938   0.398   1.129 -0.8509  0.2243 -0.6911
   15SOL    HW2   59   2.015   0.389   1.004 -1.2573 -0.8420  0.5580
   15SOL     MW   60   1.967   0.350   1.061 -0.1592 -0.2930 -0.1630
   16SOL     OW   61   0.194   1.819   0.281  0.5735 -0.1982  0.6537
   16SOL    HW1   62   0.286   1.797   0.301 -0.7030 -1.0337  0.6629
   16SOL    HW2   63   0.198   1.916   0.300 -0.3638  1.6434  0.3476
   16SOL     MW   64   0.207   1.829   0.286  0.2814 -0.0655  0.6145
   17SOL     OW   65   1.032   0.936   1.457 -0.3873  0.0211  0.0177
   17SOL    HW1   66   1.073   0.923   1.541 -0.1486  1.0836  0.9001
   17SOL    HW2   67   0.936   0.927   1.469 -0.2877 -1.5544 -0.3011
   17SOL     MW   68   1.025   0.933   1.470 -0.3427 -0.0466  0.0921
   18SOL     OW   69   0.079   1.585   0.354  0.4052  0.5278 -0.2607
   18SOL    HW1   70   0.099   1.670   0.317 -0.0247  0.5146  2.6600
   18SOL    HW2   71   0.056   1.523   0.279  1.3048 -1.4184  3.9168
   18SOL     MW   72   0.079   1.588   0.339  0.4671  0.2693  0.6759
   19SOL     OW   73   0.086   1.283   1.023  0.5524  0.4243 -0.4549
   19SOL    HW1   74   0.133   1.309   0.940 -0.7826  1.7510 -0.0930
   19SOL    HW2   75  -0.004   1.315   1.012 -1.5570 -0.6255 -1.2095
   19SOL     MW   76   0.080   1.290   1.011  0.0979  0.4608 -0.5067
   20SOL     OW   77   0.424   2.176   1.161  0.0558  0.0951  0.0350
   20SOL    HW1   78   0.384   2.104   1.116  0.3098 -1.5281  0.7425
   20SOL    HW2   79   0.386   2.183   1.252  2.6129  0.5054  0.1743
   20SOL     MW   80   0.414   2.167   1.167  0.4267 -0.0650  0.1467
   21SOL     OW   81   0.484   0.886   0.420 -0.2332 -0.0045  0.0885
   21SOL    HW1   82   0.547   0.852   0.484  0.0473  0.9374 -0.4712
   21SOL    HW2   83   0.531   0.869   0.338  2.3349 -2.0488  1.0604
   21SOL     MW   84   0.498   0.879   0.418  0.1426 -0.1500  0.1429
   22SOL     OW   85   1.544   0.688   1.023 -0.7176  0.1805 -0.2964
   22SOL    HW1   86   1.497   0.668   0.942  2.5069  1.8547 -0.0287
   22SOL    HW2   87   1.487   0.752   1.068  2.0242  0.9174 -0.4589
   22SOL     MW   88   1.530   0.694   1.018  0.0696  0.4986 -0.2825
   23SOL     OW   89   3.049   0.676   0.718  0.2335 -0.3147 -0.2535
   23SOL    HW1   90   3.073   0.600   0.766 -0.0989  1.3515 -2.1745
   23SOL    HW2   91   3.125   0.733   0.727  1.4397 -1.7497 -1.5796
   23SOL     MW   92   3.062   0.673   0.726  0.3488 -0.2842 -0.6819
   24SOL     OW   93   2.030   2.225   0.035 -0.4419 -0.0869 -0.3629
   24SOL    HW1   94   2.010   2.195   0.124  0.1562 -0.2078  1.0933
   24SOL    HW2   95   2.055   2.145  -0.018  0.7589 -0.1800 -1.3753
   24SOL     MW   96   2.030   2.211   0.040 -0.2046 -0.1151 -0.3043
   25SOL     OW   97   0.196   1.416   0.538 -0.0976 -0.0252 -0.3958
   25SOL    HW1   98   0.143   1.469   0.480 -0.2841  1.6739 -2.4259
   25SOL    HW2   99   0.284   1.428   0.504 -2.3378 -2.2733  0.9295
   25SOL     MW  100   0.201   1.425   0.526 -0.4178 -0.0976 -0.4888
   26SOL     OW  101   2.060   1.051   0.302  0.1081  0.9725 -0.1276
   26SOL    HW1  102   2.010   1.106   0.367  0.0497  0.1564 -0.2238
   26SOL    HW2  103   2.139   1.095   0.267 -3.0671 -2.0955 -0.7885
   26SOL     MW  104   2.064   1.064   0.306 -0.3185  0.4600 -0.2275
   27SOL     OW  105   1.980   1.464   0.218 -0.0254  0.2290 -0.2176
   27SOL    HW1  106   1.907   1.522   0.197 -2.1491 -2.2560 -1.1385
   27SOL    HW2  107   2.010   1.495   0.302 -0.0742 -0.2314 -0.0427
   27SOL     MW  108   1.974   1.476   0.226 -0.3121 -0.1596 -0.3160
   28SOL     OW  109   0.448   1.003   1.959 -0.2097  0.4654  0.0263
   28SOL    HW1  110   0.500   1.035   2.039  1.1313 -0.0540  2.3064
   28SOL    HW2  111   0.366   0.970   1.985  0.5239 -0.0204  0.0293
   28SOL     MW  112   0.444   1.003   1.973  0.0640  0.3328  0.3275
   29SOL     OW  113   0.219   1.451   0.833  0.1547 -0.2620 -0.8451
   29SOL    HW1  114   0.200   1.544   0.833  1.9849 -1.0280 -0.6096
   29SOL    HW2  115   0.204   1.429   0.740 -1.2373 -0.7296  1.4290
   29SOL     MW  116   0.215   1.460   0.821  0.2125 -0.4248 -0.5140
   30SOL     OW  117   0.792   1.228   1.231 -0.1551  0.2858 -0.9847
   30SOL    HW1  118   0.695   1.233   1.258 -0.5815  1.3021 -0.8599
   30SOL    HW2  119   0.847   1.211   1.313  1.1574  0.6099  2.5810
   30SOL     MW  120   0.786   1.226   1.246 -0.0382  0.4627 -0.4978
   31SOL     OW  121   0.407   0.246   0.160 -0.4171  0.0964  0.0220
   31SOL    HW1  122   0.438   0.169   0.213 -0.1300 -2.0007  0.3912
   31SOL    HW2  123   0.412   0.207   0.072 -2.3049  0.8143 -0.1058
   31SOL     MW  124   0.411   0.231   0.155 -0.6283 -0.0856  0.0539
   32SOL     OW  125   2.773   0.986   1.173 -0.4980  0.2951 -0.3730
   32SOL    HW1  126   2.700   0.917   1.146 -3.8667  0.8304  4.0430
   32SOL    HW2  127   2.860   0.943   1.165 -0.5670 -0.7697  1.0203
   32SOL     MW  128   2.775   0.972   1.168 -0.9516  0.2253  0.3935
   33SOL     OW  129   1.668   1.301   0.341 -0.3682 -0.3507  0.2428
   33SOL    HW1  130   1.716   1.234   0.389 -0.5764  0.8548 -1.2826
   33SOL    HW2  131   1.680   1.384   0.391 -0.3035 -0.2822  2.1023
   33SOL     MW  132   1.676   1.303   0.354 -0.3871 -0.1826  0.2869
   34SOL     OW  133   1.225   1.928   1.109  0.0812 -0.0475  0.3823
   34SOL    HW1  134   1.145   1.971   1.142  1.3951  1.3995  1.7575
   34SOL    HW2  135   1.300   1.948   1.165 -0.2070 -1.1876  0.7944
   34SOL     MW  136   1.224   1.936   1.120  0.2165 -0.0070  0.6181
   35SOL     OW  137   0.365   0.134   1.846 -0.1725 -0.2870  0.2492
   35SOL    HW1  138   0.370   0.075   1.921 -0.6287  1.9498  0.7974
   35SOL    HW2  139   0.422   0.094   1.776 -3.6340 -1.2001 -0.2414
   35SOL     MW  140   0.373   0.121   1.847 -0.6894 -0.1123  0.2568
   36SOL     OW  141   1.972   1.936   0.564  0.0738 -0.3101 -0.5072
   36SOL    HW1  142   1.939   1.936   0.474 -0.3146 -1.1224  0.7909
   36SOL    HW2  143   1.974   1.842   0.591 -1.0316 -1.6694 -2.4323
   36SOL     MW  144   1.968   1.923   0.555 -0.1233 -0.5966 -0.5899
   37SOL     OW  145   1.782   2.024   0.974  0.0564  0.1437 -0.3499
   37SOL    HW1  146   1.727   1.970   0.924  2.1078  1.9043 -0.3342
   37SOL    HW2  147   1.714   2.084   1.013  1.9736  1.7867 -0.4263
   37SOL     MW  148   1.766   2.025   0.973  0.5800  0.5928 -0.3579
   38SOL     OW  149   2.818   0.951   0.128  0.3609  0.6437 -0.3280
   38SOL    HW1  150   2.818   0.925   0.222 -1.5475 -2.2296 -0.7053
   38SOL    HW2  151   2.910   0.932   0.107  0.7379 -0.3082 -3.2622
   38SOL     MW  152   2.830   0.945   0.138  0.1588  0.1390 -0.7650
   39SOL     OW  153   1.415   0.611   0.793  0.1082 -0.1922 -0.3139
   39SOL    HW1  154   1.360   0.541   0.832 -0.9056  2.0144 -0.8817
   39SOL    HW2  155   1.358   0.654   0.727 -1.1383  0.4858 -2.5637
   39SOL     MW  156   1.400   0.607   0.789 -0.1900  0.1884 -0.6856
   40SOL     OW  157   1.160   1.897   0.298 -0.1839  0.0730 -0.9003
   40SOL    HW1  158   1.182   1.826   0.362  1.1407  0.4498  0.9065
   40SOL    HW2  159   1.169   1.979   0.349 -2.2652  0.4599  0.2790
   40SOL     MW  160   1.164   1.898   0.313 -0.2837  0.1737 -0.5063
   41SOL     OW  161   0.544   0.500   1.575  0.0120 -0.5113  0.1411
   41SOL    HW1  162   0.628   0.544   1.563 -2.0890  0.6841 -0.7080
   41SOL    HW2  163   0.492   0.554   1.634 -3.4168  3.2493  1.7465
   41SOL     MW  164   0.548   0.513   1.581 -0.7176  0.1426  0.2409
   42SOL     OW  165   1.255   3.006   2.011  0.4612  0.0244 -0.3976
   42SOL    HW1  166   1.158   3.022   2.019 -1.2451  0.6053  2.7007
   42SOL    HW2  167   1.282   2.944   2.079  2.0616 -0.9696  0.4078
   42SOL     MW  168   1.246   3.000   2.021  0.4472 -0.0301  0.1175
   43SOL     OW  169   1.482   0.122   1.690 -0.3059  0.2164 -0.8383
   43SOL    HW1  170   1.529   0.077   1.618  0.9177  2.0065 -1.2782
   43SOL    HW2  171   1.411   0.062   1.706  1.0351 -2.4011  1.2487
   43SOL     MW  172   1.479   0.109   1.682  0.0325  0.1072 -0.6210
   44SOL     OW  173   1.158   0.767   0.993  0.8860 -0.1991  0.1397
   44SOL    HW1  174   1.155   0.865   0.992 -1.1549  0.9965  0.4153
   44SOL    HW2  175   1.135   0.751   1.089 -0.2824  0.1489  1.0054
   44SOL     MW  176   1.154   0.778   1.005  0.4625  0.0046  0.2903
   45SOL     OW  177   1.229   0.745   0.667  0.1581 -0.2975  0.9420
   45SOL    HW1  178   1.162   0.772   0.731 -0.9293  1.1416  0.0164
   45SOL    HW2  179   1.193   0.690   0.595 -1.3649  1.7901 -0.5752
   45SOL     MW  180   1.215   0.741   0.666 -0.1863  0.1678  0.6197
   46SOL     OW  181   0.561   1.117   0.577 -0.5090 -0.3222 -0.0131
   46SOL    HW1  182   0.529   1.134   0.491  0.6007  0.4351 -0.0741
   46SOL    HW2  183   0.644   1.071   0.571 -2.0969 -2.6395 -1.3272
   46SOL     MW  184   0.568   1.114   0.565 -0.5721 -0.5280 -0.1946
   47SOL     OW  185   0.221   1.986   1.966 -0.3710 -0.4248 -0.1678
   47SOL    HW1  186   0.306   1.953   2.005 -0.2711 -1.0605  1.1899
   47SOL    HW2  187   0.157   1.982   2.032  0.1772 -1.5851  1.7107
   47SOL     MW  188   0.224   1.981   1.980 -0.2854 -0.6617  0.2592
   48SOL     OW  189   1.099   0.520   1.076 -0.3174  0.0204 -0.2961
   48SOL    HW1  190   1.002   0.520   1.104 -0.3038 -0.5138 -1.0941
   48SOL    HW2  191   1.116   0.599   1.025  2.2119 -0.0552  0.4175
   48SOL     MW  192   1.088   0.530   1.073  0.0181 -0.0600 -0.3072
   49SOL     OW  193   1.715   0.677   1.542  0.6833 -0.8250 -0.3620
   49SOL    HW1  194   1.684   0.635   1.625 -0.8631 -1.9462  0.8400
   49SOL    HW2  195   1.799   0.635   1.524 -0.6611 -0.1302 -1.1092
   49SOL     MW  196   1.722   0.666   1.551  0.3019 -0.8813 -0.3020
   50SOL     OW  197   1.296   1.111   0.526 -0.3909  0.4140  0.5001
   50SOL    HW1  198   1.232   1.139   0.593  0.3419 -2.0707  0.9122
   50SOL    HW2  199   1.382   1.096   0.567  0.4497 -2.1425  0.6412
   50SOL     MW  200   1.299   1.113   0.541 -0.1833 -0.2512  0.5731
   51SOL     OW  201   0.331   2.928   0.911 -0.5077 -0.4504 -0.0484
   51SOL    HW1  202   0.426   2.896   0.913  1.7754  0.0055 -0.9015
   51SOL    HW2  203   0.337   2.980   0.992 -0.1834  1.0586  0.6713
   51SOL     MW  204   0.344   2.930   0.922 -0.1637 -0.1911 -0.0660
   52SOL     OW  205   0.823   1.754   0.416 -0.1144  0.7147  0.6647
   52SOL    HW1  206   0.796   1.849   0.402 -0.8259  1.5776 -1.7122
   52SOL    HW2  207   0.856   1.715   0.330  0.6954  0.9175  0.5827
   52SOL     MW  208   0.824   1.761   0.402 -0.1014  0.8553  0.3403
   53SOL     OW  209   0.423   2.136   0.465 -0.2113  0.0263 -0.0079
   53SOL    HW1  210   0.353   2.109   0.399 -3.5204 -1.4059 -0.0987
   53SOL    HW2  211   0.399   2.225   0.504 -1.5279 -1.8299 -0.3560
   53SOL     MW  212   0.411   2.144   0.462 -0.8216 -0.4075 -0.0658
   54SOL     OW  213   2.006   0.912   0.788  0.6750  0.5109 -0.2579
   54SOL    HW1  214   2.018   0.917   0.695 -0.5089 -0.4091 -0.5678
   54SOL    HW2  215   2.009   0.815   0.806 -0.6298 -1.0827 -0.0555
   54SOL     MW  216   2.008   0.900   0.778  0.3467  0.1793 -0.2721
   55SOL     OW  217   0.547   1.562   1.618  0.0436  0.4372  1.1300
   55SOL    HW1  218   0.488   1.568   1.541  1.6143 -2.7036 -0.7958
   55SOL    HW2  219   0.633   1.517   1.601 -0.7313 -0.7761  0.5363
   55SOL     MW  220   0.551   1.557   1.605  0.1486 -0.1373  0.7976
   56SOL     OW  221   0.630   0.834   0.186 -0.3056 -0.2153 -0.6591
   56SOL    HW1  222   0.664   0.923   0.176  2.5633  0.6565  2.0434
   56SOL    HW2  223   0.564   0.826   0.120  0.8275  0.8681  0.1311
   56SOL     MW  224   0.625   0.845   0.176  0.2224  0.0427 -0.1983
   57SOL     OW  225   1.179   1.278   1.138  0.0835 -0.8776 -0.4768
   57SOL    HW1  226   1.272   1.277   1.160 -4.0073 -0.0928 -0.0662
   57SOL    HW2  227   1.136   1.233   1.217  0.5596 -2.4606  0.8397
   57SOL     MW  228   1.186   1.272   1.152 -0.3934 -0.9829 -0.2489
   58SOL     OW  229   0.547   1.226   1.331 -0.0409  0.0806 -0.4932
   58SOL    HW1  230   0.525   1.321   1.317  0.4067 -0.5322 -3.3801
   58SOL    HW2  231   0.551   1.209   1.430  1.5998 -2.6584 -0.7202
   58SOL     MW  232   0.545   1.236   1.342  0.2346 -0.3616 -0.9041
   59SOL     OW  233   1.522   1.697   0.345 -0.4445  0.1512 -0.0320
   59SOL    HW1  234   1.562   1.737   0.422 -1.1236  0.8915 -1.9261
   59SOL    HW2  235   1.432   1.703   0.376 -2.2371  2.4358  1.7741
   59SOL     MW  236   1.515   1.703   0.359 -0.7706  0.5503 -0.0436
   60SOL     OW  237   0.044   0.242   1.677  0.1860  0.0733  0.2983
   60SOL    HW1  238  -0.041   0.289   1.710  2.3195 -0.2249 -2.8381
   60SOL    HW2  239   0.046   0.156   1.722  0.2958  1.0308  0.5894
   60SOL     MW  240   0.033   0.237   1.688  0.4820  0.1603 -0.0771
   61SOL     OW  241   1.996   1.396   3.044  0.2909 -0.4849  0.1418
   61SOL    HW1  242   2.002   1.402   3.139  0.7768 -0.9197  0.5784
   61SOL    HW2  243   2.055   1.328   3.020  0.4141  0.3847 -2.6433
   61SOL     MW  244   2.005   1.388   3.053  0.3713 -0.4275 -0.1680
   62SOL     OW  245   0.574   1.670   0.538 -0.2799  0.3205 -1.1623
   62SOL    HW1  246   0.658   1.702   0.502 -1.8505  4.1893  0.2323
   62SOL    HW2  247   0.566   1.571   0.545 -3.0911 -3.5743  1.1039
   62SOL     MW  248   0.584   1.661   0.534 -0.8580  0.3171 -0.6793
   63SOL     OW  249   1.718   0.661   0.713  0.3603 -0.5292 -0.0520
   63SOL    HW1  250   1.743   0.753   0.699  0.1308 -0.8230  2.7309
   63SOL    HW2  251   1.623   0.659   0.701 -0.6575 -1.9828 -0.0833
   63SOL     MW  252   1.709   0.673   0.709  0.1957 -0.7597  0.3110
   64SOL     OW  253   0.228   1.713   0.854  0.5166 -0.3389 -0.1972
   64SOL    HW1  254   0.298   1.764   0.810  1.0784  0.6537  0.5876
   64SOL    HW2  255   0.155   1.778   0.853 -0.0852  1.4581 -0.6910
   64SOL     MW  256   0.227   1.728   0.848  0.5114  0.0292 -0.1588
   65SOL     OW  257   1.584   2.302   0.437 -0.0670  0.3951  0.8105
   65SOL    HW1  258   1.657   2.257   0.476  1.0365  0.6885 -1.1182
   65SOL    HW2  259   1.539   2.360   0.496 -1.3174 -0.1561 -3.5933
   65SOL     MW  260   1.588   2.304   0.450 -0.0863  0.3611 -0.0250
   66SOL     OW  261   0.313   0.533   0.516  0.3059  0.4049 -0.5699
   66SOL    HW1  262   0.376   0.539   0.450 -0.7643  0.2857  0.6309
   66SOL    HW2  263   0.268   0.617   0.519 -2.9892 -1.3557  1.0724
   66SOL     MW  264   0.315   0.545   0.508 -0.2700  0.1569 -0.1948
   67SOL     OW  265   1.476   0.132   1.980 -0.2128  0.1536  0.2774
   67SOL    HW1  266   1.482   0.148   1.886  1.7428  1.1034 -0.4442
   67SOL    HW2  267   1.431   0.044   1.977 -0.1009 -0.2951  1.2178
   67SOL     MW  268   1.471   0.122   1.967  0.0600  0.2197  0.3062
   68SOL     OW  269   0.709   0.077   2.996 -0.2948  0.3481 -0.1266
   68SOL    HW1  270   0.719   0.120   2.910 -2.8366  2.2138 -1.2199
   68SOL    HW2  271   0.805   0.075   3.019 -2.4388  1.6577 -0.1277
   68SOL     MW  272   0.723   0.082   2.988 -0.9130  0.7670 -0.2710
   69SOL     OW  273   1.001   0.191   1.989 -0.0590  0.3067  0.4429
   69SOL    HW1  274   1.095   0.207   2.004 -0.4338 -3.0441  1.7032
   69SOL    HW2  275   0.985   0.095   2.009 -3.3584 -0.5643  1.1324
   69SOL     MW  276   1.012   0.180   1.994 -0.5437 -0.2503  0.7002
   70SOL     OW  277   0.565   1.786   1.160 -0.0485 -0.4878 -0.4222
   70SOL    HW1  278   0.622   1.732   1.219 -2.1607 -0.2896 -1.3901
   70SOL    HW2  279   0.637   1.828   1.108 -0.1130 -0.3099 -1.7477
   70SOL     MW  280   0.582   1.784   1.161 -0.3357 -0.4382 -0.7248
   71SOL     OW  281   1.597   0.482   1.225  0.3801  0.5094 -0.6738
   71SOL    HW1  282   1.559   0.549   1.285  0.3196 -0.9251 -1.2786
   71SOL    HW2  283   1.585   0.522   1.137 -3.2619 -1.6491 -0.7264
   71SOL     MW  284   1.590   0.496   1.221 -0.1084  0.0354 -0.7605
   72SOL     OW  285   0.795   1.848   1.039  0.1247 -0.5089  0.0779
   72SOL    HW1  286   0.817   1.886   0.954 -0.3746  0.0232  2.0033
   72SOL    HW2  287   0.799   1.748   1.029 -0.5198  0.0227 -3.9692
   72SOL     MW  288   0.798   1.840   1.026 -0.0262 -0.3685 -0.2021
   73SOL     OW  289   1.182   0.728   1.290  0.2214 -0.1535 -0.2788
   73SOL    HW1  290   1.111   0.659   1.296 -0.3794 -1.6070  0.2694
   73SOL    HW2  291   1.129   0.800   1.325  2.0993  0.2275  0.5614
   73SOL     MW  292   1.165   0.729   1.296  0.3899 -0.2950 -0.0956
   74SOL     OW  293   2.780   0.225   1.124  0.1084  0.6464  0.1224
   74SOL    HW1  294   2.816   0.166   1.065  0.3825  2.8923  0.3725
   74SOL    HW2  295   2.724   0.279   1.066  0.7958 -1.9413  0.1120
   74SOL     MW  296   2.778   0.225   1.109  0.2353  0.6013  0.1540
   75SOL     OW  297   1.570   1.436   0.119 -0.1812 -1.0469 -0.1309
   75SOL    HW1  298   1.629   1.506   0.104 -1.2266 -0.8817 -0.7995
   75SOL    HW2  299   1.610   1.398   0.194 -0.9281  0.7062 -1.4681
   75SOL     MW  300   1.583   1.440   0.127 -0.4176 -0.7938 -0.3956
   76SOL     OW  301   2.954   0.581   0.474  0.5056  1.0389  0.0041
   76SOL    HW1  302   2.991   0.612   0.559 -0.4984  0.1105  0.7134
   76SOL    HW2  303   3.021   0.520   0.441 -1.4179 -0.8608 -0.6774
   76SOL     MW  304   2.968   0.577   0.481  0.1193  0.6658  0.0078
   77SOL     OW  305   0.817   0.556   0.479 -0.5810 -0.4662  0.0309
   77SOL    HW1  306   0.801   0.584   0.387 -0.5950  1.8944  0.5389
   77SOL    HW2  307   0.784   0.465   0.487  0.2477  1.1676 -0.0749
   77SOL     MW  308   0.810   0.548   0.468 -0.4735  0.0609  0.0840
   78SOL     OW  309   0.762   0.875   1.195 -0.1975 -0.8801  0.0742
   78SOL    HW1  310   0.791   0.947   1.133  1.4875  1.3306 -2.4105
   78SOL    HW2  311   0.675   0.871   1.158 -0.5970 -1.0151 -1.7337
   78SOL     MW  312   0.754   0.884   1.182 -0.0279 -0.6062 -0.4922
   79SOL     OW  313   1.909   1.661   0.622  0.3233 -0.2772  0.2772
   79SOL    HW1  314   1.828   1.634   0.579 -1.0619  0.7717  0.8474
   79SOL    HW2  315   1.903   1.625   0.711  1.6688  0.6107  1.3364
   79SOL     MW  316   1.898   1.653   0.628  0.3181 -0.0217  0.4922
   80SOL     OW  317   0.065   0.926   0.331  0.0760  0.1625  0.5422
   80SOL    HW1  318  -0.030   0.902   0.328  1.6178 -1.2691 -1.2628
   80SOL    HW2  319   0.116   0.873   0.390  0.4888  1.9907  0.3230
   80SOL     MW  320   0.059   0.916   0.338  0.3339  0.2148  0.2751
   81SOL     OW  321   1.879   1.889   0.321 -0.7805  0.6168 -0.1250
   81SOL    HW1  322   1.850   1.806   0.277  0.6846  1.1324  1.7042
   81SOL    HW2  323   1.815   1.965   0.289  0.7377  2.3513 -1.8046
   81SOL     MW  324   1.867   1.888   0.311 -0.3869  0.9137 -0.1053
   82SOL     OW  325   0.824   0.983   0.540  0.3953  0.0392 -0.3439
   82SOL    HW1  326   0.823   0.993   0.444  1.9358 -0.9935  0.8150
   82SOL    HW2  327   0.779   0.903   0.559 -0.4576 -0.7658 -1.7313
   82SOL     MW  328   0.818   0.974   0.530  0.4860 -0.2032 -0.3740
   83SOL     OW  329   0.076   0.712   1.458 -0.2882  0.5668  0.1775
   83SOL    HW1  330   0.110   0.765   1.386 -1.6491  2.6584  1.7901
   83SOL    HW2  331   0.142   0.646   1.477 -3.4039  0.7993 -1.1504
   83SOL     MW  332   0.089   0.710   1.451 -0.8789  0.8734  0.2151
   84SOL     OW  333   0.088   0.179   0.959 -0.4915 -0.2753 -0.5381
   84SOL    HW1  334   0.051   0.264   0.993 -0.7881 -0.1214  1.3356
   84SOL    HW2  335   0.055   0.112   1.024 -0.2047 -0.3381  0.9156
   84SOL     MW  336   0.079   0.182   0.972 -0.4928 -0.2633 -0.0991
   85SOL     OW  337   0.439   0.460   0.746 -0.4293 -0.2570 -0.1097
   85SOL    HW1  338   0.406   0.484   0.658  0.9481  0.1425 -0.2079
   85SOL    HW2  339   0.410   0.372   0.765 -3.6564 -2.7109 -0.5941
   85SOL     MW  340   0.431   0.452   0.737 -0.6733 -0.5281 -0.1866
   86SOL     OW  341   1.159   0.264   1.127 -0.2141 -0.3125  0.3077
   86SOL    HW1  342   1.127   0.357   1.125  2.3165  3.2862 -1.0810
   86SOL    HW2  343   1.229   0.266   1.190  2.4584  0.2933 -1.7688
   86SOL     MW  344   1.164   0.277   1.135  0.4724  0.2423 -0.1495
   87SOL     OW  345   1.168   1.517   1.256 -0.6644 -0.0626 -0.2154
   87SOL    HW1  346   1.179   1.576   1.184  0.5254  1.0115  0.4962
   87SOL    HW2  347   1.174   1.428   1.216 -1.0379  3.4028  0.2698
   87SOL     MW  348   1.170   1.513   1.242 -0.5567  0.5363 -0.0575
   88SOL     OW  349   1.179   1.059   0.977 -0.3540  0.1823  0.1731
   88SOL    HW1  350   1.274   1.050   0.967  3.2318  1.1153  0.2899
   88SOL    HW2  351   1.171   1.135   1.035  0.1131 -0.3141 -1.3283
   88SOL     MW  352   1.190   1.068   0.983  0.1807  0.2399 -0.0096
   89SOL     OW  353   1.759   0.756   0.331  0.2280 -0.0437 -0.5653
   89SOL    HW1  354   1.743   0.664   0.349 -0.2961 -0.0085  0.9428
   89SOL    HW2  355   1.855   0.754   0.305  1.7981  0.2857 -0.2716
   89SOL     MW  356   1.770   0.744   0.330  0.3660  0.0044 -0.3276
   90SOL     OW  357   0.813   1.086   2.796  0.6166  0.3781  0.2917
   90SOL    HW1  358   0.856   1.003   2.793 -1.4706  2.1864  1.0190
   90SOL    HW2  359   0.831   1.130   2.881 -2.8107  2.2628  0.2664
   90SOL     MW  360   0.821   1.081   2.807 -0.1110  0.8654  0.3843
   91SOL     OW  361   2.158   0.680   0.503 -0.0625  0.3705 -0.3854
   91SOL    HW1  362   2.224   0.732   0.458 -4.0621  0.2956 -2.0135
   91SOL    HW2  363   2.183   0.594   0.473  0.0557  2.8043  1.9472
   91SOL     MW  364   2.170   0.675   0.493 -0.5746  0.6817 -0.2924
   92SOL     OW  365   1.738   0.922   0.582  0.1730 -0.0887  0.0923
   92SOL    HW1  366   1.649   0.948   0.611  1.9678 -1.2711 -0.9955
   92SOL    HW2  367   1.722   0.862   0.506 -0.1742  1.1494 -1.3530
   92SOL     MW  368   1.724   0.918   0.576  0.3640 -0.0813 -0.2419
   93SOL     OW  369   1.033   0.203   0.410  0.9622 -0.7952 -0.1032
   93SOL    HW1  370   0.947   0.241   0.430  0.1239 -0.2537 -0.5883
   93SOL    HW2  371   1.049   0.240   0.319 -0.3851 -1.8062 -1.9306
   93SOL     MW  372   1.024   0.213   0.401  0.6738 -0.8572 -0.4083
   94SOL     OW  373   1.865   1.391   1.630 -0.3031 -0.1375  0.4699
   94SOL    HW1  374   1.849   1.405   1.528  1.6212  0.8550  1.3842
   94SOL    HW2  375   1.844   1.297   1.643  0.6629  0.0656 -0.9388
   94SOL     MW  376   1.860   1.380   1.618  0.0783  0.0202  0.4047
   95SOL     OW  377   0.794   1.561   0.969 -0.7430  0.3751  0.6488
   95SOL    HW1  378   0.824   1.490   1.021  0.0612  0.7519  0.2123
   95SOL    HW2  379   0.701   1.542   0.963  0.7680 -1.7051 -0.9813
   95SOL     MW  380   0.786   1.549   0.975 -0.4375  0.1503  0.3761
   96SOL     OW  381   1.303   1.896   1.715  0.3900 -0.2376  0.4560
   96SOL    HW1  382   1.216   1.880   1.762 -2.1135 -0.2043 -1.5665
   96SOL    HW2  383   1.324   1.814   1.669  0.2041  4.1027  3.2030
   96SOL     MW  384   1.294   1.883   1.715  0.0351  0.3395  0.5516
   97SOL     OW  385   1.139   1.445   0.873 -0.7996  0.3266 -0.2267
   97SOL    HW1  386   1.183   1.507   0.932 -0.4815  1.1387 -0.2310
   97SOL    HW2  387   1.070   1.488   0.823  1.1964 -1.2228  2.4484
   97SOL     MW  388   1.136   1.459   0.874 -0.4943  0.2293  0.1257
   98SOL     OW  389   1.481   1.281   1.091  0.3680 -0.4161 -0.0086
   98SOL    HW1  390   1.502   1.314   1.178  0.3714 -0.1303  0.0690
   98SOL    HW2  391   1.483   1.351   1.027  0.1052  2.6936 -1.4448
   98SOL     MW  392   1.484   1.295   1.094  0.3338  0.0319 -0.1879
   99SOL     OW  393   1.405   0.277   1.293  0.3356  0.2240  0.5544
   99SOL    HW1  394   1.447   0.350   1.251  0.3883 -1.6745  2.3454
   99SOL    HW2  395   1.388   0.315   1.381  4.1494 -0.9864  0.3825
   99SOL     MW  396   1.408   0.291   1.299  0.8458 -0.1862  0.7680
  100SOL     OW  397   1.039   1.205   1.366  0.1198  0.1305  0.0100
  100SOL    HW1  398   1.053   1.252   1.448  2.7156 -1.2488 -0.3980
  100SOL    HW2  399   1.032   1.109   1.391  2.0986 -0.9695 -1.5097
  100SOL     MW  400   1.040   1.199   1.380  0.7234 -0.1966 -0.2443
  101SOL     OW  401   0.485   1.188   0.304 -0.4240  0.2266  0.1997
  101SOL    HW1  402   0.406   1.137   0.329  1.1562 -2.0606 -1.0615
  101SOL    HW2  403   0.492   1.173   0.214 -2.3515  1.9266  1.6573
  101SOL     MW  404   0.476   1.179   0.295 -0.4698  0.1491  0.2256
  102SOL     OW  405   2.913   0.652   0.970 -0.2407 -0.1133 -0.2252
  102SOL    HW1  406   2.952   0.733   1.013  0.2518  0.2455  3.0794
  102SOL    HW2  407   2.875   0.622   1.054  0.6621 -0.1072 -0.0073
  102SOL     MW  408   2.913   0.658   0.987 -0.0566 -0.0652  0.2395
  103SOL     OW  409   1.693   0.266   1.875  0.7291 -0.8089  0.0994
  103SOL    HW1  410   1.743   0.189   1.840 -0.2370 -0.2570  0.7295
  103SOL    HW2  411   1.651   0.230   1.946  0.9858  0.6645  1.2779
  103SOL     MW  412   1.694   0.251   1.879  0.6355 -0.5417  0.3381
  104SOL     OW  413   0.152   1.512   1.589  0.2047  0.3839 -0.8551
  104SOL    HW1  414   0.203   1.441   1.614  0.6562  2.4225  0.7983
  104SOL    HW2  415   0.063   1.486   1.596 -0.0823  0.4029  0.9639
  104SOL     MW  416   0.147   1.499   1.593  0.2264  0.6554 -0.3969
  105SOL     OW  417   0.047   1.202   0.408 -0.3485 -0.4811  0.2016
  105SOL    HW1  418   0.052   1.098   0.409  1.4896 -1.1067 -0.1078
  105SOL    HW2  419   0.121   1.238   0.465  2.3243  0.2035  0.6074
  105SOL     MW  420   0.058   1.193   0.416  0.2467 -0.4733  0.2143
  106SOL     OW  421   0.817   0.383   1.013 -0.1061  0.5824 -0.2548
  106SOL    HW1  422   0.754   0.456   0.999  0.0190 -0.2540 -0.6643
  106SOL    HW2  423   0.879   0.402   0.937  1.1688  1.1148  1.8366
  106SOL     MW  424   0.817   0.395   1.001  0.0786  0.5423 -0.0329
  107SOL     OW  425   0.795   2.162   2.912  0.2228 -0.6959 -0.0968
  107SOL    HW1  426   0.721   2.131   2.859 -0.0814 -0.0994  0.5958
  107SOL    HW2  427   0.783   2.101   2.990 -0.0214 -2.9924 -1.3991
  107SOL     MW  428   0.784   2.150   2.915  0.1505 -0.9202 -0.1773
  108SOL     OW  429   1.342   1.613   1.625 -0.5440  0.3832 -0.0026
  108SOL    HW1  430   1.265   1.551   1.592  1.5640 -3.1972  2.0452
  108SOL    HW2  431   1.422   1.564   1.617 -1.8762  1.8395  1.0396
  108SOL     MW  432   1.343   1.599   1.620 -0.4417  0.1030  0.4051
  109SOL     OW  433   2.026   0.771   0.254  0.7423 -0.8707  0.5074
  109SOL    HW1  434   2.036   0.869   0.258 -0.9720  1.3054 -2.4105
  109SOL    HW2  435   2.083   0.739   0.321 -0.9494  0.2936  0.2950
  109SOL     MW  436   2.035   0.780   0.264  0.2929 -0.4300  0.0944
  110SOL     OW  437   0.400   1.912   0.618  0.3416  0.6924 -0.1544
  110SOL    HW1  438   0.473   1.857   0.616  0.2883  0.0752  0.6330
  110SOL    HW2  439   0.415   1.987   0.560 -1.7740  0.5656  2.0958
  110SOL     MW  440   0.411   1.914   0.610  0.0554  0.5942  0.2464
  111SOL     OW  441   0.762   0.866   1.472 -0.6998 -0.4821 -0.1507
  111SOL    HW1  442   0.744   0.854   1.378 -0.2394  1.4901 -0.8476
  111SOL    HW2  443   0.776   0.784   1.516  0.1218 -0.8027 -0.2215
  111SOL     MW  444   0.762   0.853   1.466 -0.5307 -0.2642 -0.2520
  112SOL     OW  445   1.315   1.097   1.633  0.2676 -0.3048  0.2710
  112SOL    HW1  446   1.262   1.175   1.631  1.6574 -1.0800 -0.5826
  112SOL    HW2  447   1.247   1.030   1.635 -0.0832 -0.6174 -1.3522
  112SOL     MW  448   1.299   1.099   1.633  0.4046 -0.4484 -0.0558
  113SOL     OW  449   1.271   3.081   1.735 -0.4979 -0.1702 -0.2464
  113SOL    HW1  450   1.278   3.039   1.824 -1.0580  3.5485  1.9545
  113SOL    HW2  451   1.285   3.016   1.663  1.9419 -4.6814  1.1805
  113SOL     MW  452   1.274   3.067   1.737 -0.2499 -0.2748  0.2323
  114SOL     OW  453   0.257   2.856   1.889 -0.2927  0.9225 -0.5793
  114SOL    HW1  454   0.326   2.874   1.959  0.3162 -0.7470 -0.1629
  114SOL    HW2  455   0.190   2.924   1.895 -2.0245  3.1653 -0.8777
  114SOL     MW  456   0.257   2.868   1.899 -0.4408  0.9982 -0.5637
  115SOL     OW  457   0.487   0.864   1.114  0.0515  0.0788 -0.3622
  115SOL    HW1  458   0.520   0.780   1.141  0.3632 -1.1987 -1.3645
  115SOL    HW2  459   0.438   0.902   1.189 -1.7742 -2.0218  1.1701
  115SOL     MW  460   0.485   0.858   1.128 -0.1482 -0.3669 -0.2923
  116SOL     OW  461   0.779   1.079   1.008  0.0446  0.7847  0.5059
  116SOL    HW1  462   0.842   1.106   0.937 -1.1626 -1.0915 -0.4898
  116SOL    HW2  463   0.794   1.148   1.082  0.5081  0.1960  0.5009
  116SOL     MW  464   0.789   1.091   1.008 -0.0535  0.4595  0.3739
  117SOL     OW  465   1.150   1.197   0.746 -0.5271 -0.3837  0.3415
  117SOL    HW1  466   1.182   1.144   0.823  0.8123  1.3953 -0.3936
  117SOL    HW2  467   1.139   1.287   0.783 -0.1299  1.6607  4.0755
  117SOL     MW  468   1.153   1.202   0.761 -0.2980  0.1208  0.7372
  118SOL     OW  469   3.033   2.971   1.647 -0.4006  0.3853 -0.1071
  118SOL    HW1  470   3.089   3.019   1.718  2.4842 -2.8054  0.5880
  118SOL    HW2  471   2.947   2.981   1.683 -1.2153 -1.0961  1.4799
  118SOL     MW  472   3.029   2.979   1.661 -0.1275 -0.2311  0.1940
  119SOL     OW  473   0.467   1.495   1.213  0.3461 -0.1438 -0.0633
  119SOL    HW1  474   0.499   1.558   1.155 -0.8248 -0.8525  0.7642
  119SOL    HW2  475   0.372   1.479   1.186 -1.2527 -1.6242  1.0798
  119SOL     MW  476   0.458   1.501   1.202 -0.0193 -0.4326  0.1967
  120SOL     OW  477   0.278   0.753   0.947 -0.4259 -0.8162  0.3688
  120SOL    HW1  478   0.239   0.768   1.035  0.1218 -2.6337  1.6607
  120SOL    HW2  479   0.352   0.815   0.939 -0.4825  1.4644  0.0989
  120SOL     MW  480   0.283   0.763   0.958 -0.3611 -0.7551  0.5036
  121SOL     OW  481   1.788   1.096   1.694  0.4504 -0.3473 -0.4643
  121SOL    HW1  482   1.703   1.103   1.724  2.1833  1.5472  0.5199
  121SOL    HW2  483   1.783   1.039   1.614 -1.9574 -1.4212  0.4504
  121SOL     MW  484   1.776   1.089   1.688  0.3614 -0.2391 -0.2138
  122SOL     OW  485   0.170   0.497   0.814  0.6038 -0.0039  0.4965
  122SOL    HW1  486   0.246   0.447   0.785 -0.3897 -0.1724  1.7491
  122SOL    HW2  487   0.212   0.577   0.845 -0.7590 -1.2436 -0.5642
  122SOL     MW  488   0.186   0.501   0.814  0.2929 -0.1897  0.5219
  123SOL     OW  489   1.869   1.149   0.496 -0.7871  0.1353 -0.2997
  123SOL    HW1  490   1.830   1.064   0.530  1.0830 -0.9860  0.1438
  123SOL    HW2  491   1.919   1.194   0.564  2.1724  1.8852 -1.4566
  123SOL     MW  492   1.871   1.144   0.509 -0.1499  0.2182 -0.3938
  124SOL     OW  493   0.624   0.565   0.930  0.2255 -0.1871  0.5608
  124SOL    HW1  494   0.566   0.524   0.867  3.1290 -0.0026 -0.8784
  124SOL    HW2  495   0.645   0.658   0.898 -0.2906 -0.9458  0.9101
  124SOL     MW  496   0.619   0.572   0.917  0.5405 -0.2629  0.4170
  125SOL     OW  497   0.689   1.776   1.730  0.3353 -0.2138  0.1125
  125SOL    HW1  498   0.638   1.702   1.693 -1.9387 -0.4664  1.9589
  125SOL    HW2  499   0.622   1.848   1.735  2.9881 -1.9819 -0.7128
  125SOL     MW  500   0.673   1.776   1.726  0.3853 -0.4804  0.2472
  126SOL     OW  501   2.110   1.607   1.974  0.1178 -0.0515  0.3113
  126SOL    HW1  502   2.168   1.687   1.970 -0.6029  0.1998  1.0899
  126SOL    HW2  503   2.167   1.529   1.977 -1.1049  1.3728  1.2289
  126SOL     MW  504   2.125   1.607   1.974 -0.1386  0.1696  0.5351
  127SOL     OW  505   0.583   0.800   1.830 -0.1874  0.0352 -0.2379
  127SOL    HW1  506   0.659   0.746   1.861 -0.6333 -1.2872 -0.2559
  127SOL    HW2  507   0.561   0.871   1.893 -0.4888  2.6342 -2.0827
  127SOL     MW  508   0.590   0.802   1.843 -0.2860  0.2036 -0.4837
  128SOL     OW  509   1.723   0.713   2.896  0.5499  0.3266 -0.5158
  128SOL    HW1  510   1.767   0.697   2.815 -0.3374 -0.8680  0.2337
  128SOL    HW2  511   1.729   0.811   2.904 -0.5038  0.7686  0.8933
  128SOL     MW  512   1.730   0.724   2.886  0.2938  0.2273 -0.2310
  129SOL     OW  513   1.626   0.912   0.154  0.2318 -0.5584 -0.3674
  129SOL    HW1  514   1.558   0.841   0.149  0.3486 -1.9839 -0.6360
  129SOL    HW2  515   1.666   0.876   0.233 -0.2285  2.6120  0.2971
  129SOL     MW  516   1.622   0.898   0.164  0.1865 -0.3282 -0.3151
  130SOL     OW  517   0.768   1.378   0.309  0.5415 -0.2665 -0.3517
  130SOL    HW1  518   0.801   1.367   0.396  1.8413  0.3178 -2.9195
  130SOL    HW2  519   0.814   1.460   0.277  0.3003 -0.1752 -0.8088
  130SOL     MW  520   0.779   1.387   0.316  0.6811 -0.1773 -0.7508
  131SOL     OW  521   3.046   0.855   0.035 -0.0247 -0.1604 -0.0096
  131SOL    HW1  522   3.029   0.884  -0.054  0.3521  0.7458 -1.9354
  131SOL    HW2  523   3.134   0.829   0.034 -2.7231  1.7716 -0.8704
  131SOL     MW  524   3.056   0.856   0.023 -0.3310  0.2141 -0.3772
  132SOL     OW  525   2.674   0.116   1.360  0.2845 -0.3674  0.3480
  132SOL    HW1  526   2.708   0.145   1.276  2.4340 -0.2502 -0.5909
  132SOL    HW2  527   2.587   0.075   1.346 -1.3398  0.8432 -1.8324
  132SOL     MW  528   2.667   0.114   1.347  0.3538 -0.1922 -0.0636
  133SOL     OW  529   1.074   0.159   1.717  0.1992  0.4406 -0.3077
  133SOL    HW1  530   1.150   0.096   1.721  1.7057 -0.0440 -1.8264
  133SOL    HW2  531   1.033   0.177   1.804 -3.3274 -2.6506 -1.2924
  133SOL     MW  532   1.078   0.153   1.729 -0.0673 -0.0312 -0.6380
  134SOL     OW  533   1.407   2.524   1.395 -0.2529 -0.4885 -0.2996
  134SOL    HW1  534   1.324   2.578   1.386 -2.2534 -0.5709  1.3354
  134SOL    HW2  535   1.448   2.546   1.475 -0.0732 -2.0559 -0.9013
  134SOL     MW  536   1.401   2.534   1.405 -0.4931 -0.7062 -0.1632
  135SOL     OW  537   3.011   0.986   2.874 -0.5513 -0.8561 -0.3041
  135SOL    HW1  538   3.091   1.049   2.869  1.1796  4.0594 -1.1413
  135SOL    HW2  539   2.941   1.043   2.905  0.3125 -0.3868 -2.2639
  135SOL     MW  540   3.012   1.002   2.878 -0.2090 -0.1456 -0.6731
  136SOL     OW  541   0.194   2.031   0.787  0.6681  0.1622 -0.0210
  136SOL    HW1  542   0.109   1.980   0.792  0.5037  0.0306  2.1308
  136SOL    HW2  543   0.247   1.989   0.718 -0.1041 -0.1083 -2.0826
  136SOL     MW  544   0.190   2.019   0.779  0.5445  0.1091 -0.0091
  137SOL     OW  545   0.692   2.008   0.508  0.2617  0.0378 -0.0560
  137SOL    HW1  546   0.676   2.009   0.602 -2.8117 -2.0974 -1.5549
  137SOL    HW2  547   0.617   2.061   0.482  0.4199  1.9936 -2.8333
  137SOL     MW  548   0.680   2.015   0.517 -0.1230  0.0141 -0.6202
  138SOL     OW  549   0.511   0.596   1.171  0.1541  0.4260 -0.1467
  138SOL    HW1  550   0.420   0.569   1.163 -0.8521 -1.9865  1.3522
  138SOL    HW2  551   0.544   0.595   1.079  0.9246 -0.6975 -1.6305
  138SOL     MW  552   0.504   0.593   1.158  0.1230 -0.0405 -0.1447
  139SOL     OW  553   2.856   0.581   1.221  0.4584 -0.3557  0.1325
  139SOL    HW1  554   2.907   0.499   1.244  0.1998  0.0159  1.2662
  139SOL    HW2  555   2.895   0.652   1.270  1.5341 -0.1067 -1.6375
  139SOL     MW  556   2.868   0.579   1.231  0.5662 -0.2738  0.0486
  140SOL     OW  557   0.953   0.488   2.046  0.2345  0.4361 -0.0659
  140SOL    HW1  558   0.949   0.391   2.032 -1.0206 -1.5474 -1.5862
  140SOL    HW2  559   0.969   0.499   2.136  0.6070 -1.3480  0.6759
  140SOL     MW  560   0.955   0.477   2.056  0.1181 -0.0610 -0.1686
  141SOL     OW  561   1.021   0.635   1.739  0.3064  0.5219 -0.7157
  141SOL    HW1  562   1.050   0.551   1.710 -0.6712  0.8093 -1.1912
  141SOL    HW2  563   1.082   0.702   1.712 -1.4512 -1.9272 -1.0652
  141SOL     MW  564   1.033   0.633   1.731 -0.0545  0.2367 -0.8246
  142SOL     OW  565   0.899   1.131   0.762 -0.2136 -0.5302  0.3385
  142SOL    HW1  566   0.861   1.082   0.680  0.2004 -1.4163  0.4160
  142SOL    HW2  567   0.995   1.145   0.743 -0.0367  2.7131  0.4915
  142SOL     MW  568   0.907   1.126   0.749 -0.1356 -0.2192  0.3689
  143SOL     OW  569   1.822   0.746   1.061 -0.0802 -0.5969 -0.1975
  143SOL    HW1  570   1.882   0.730   0.985 -0.2396 -0.8347 -2.1514
  143SOL    HW2  571   1.732   0.746   1.031  1.7048 -0.4529 -1.6306
  143SOL     MW  572   1.818   0.744   1.047  0.1343 -0.6093 -0.6444
  144SOL     OW  573   0.306   1.288   1.680 -0.2724  0.0243  0.4415
  144SOL    HW1  574   0.381   1.237   1.639  0.1628  2.7809 -1.2497
  144SOL    HW2  575   0.302   1.267   1.778 -2.7996  0.1777  0.7130
  144SOL     MW  576   0.315   1.279   1.687 -0.5484  0.4082  0.2542
  145SOL     OW  577   0.241   0.496   1.182 -0.3888 -0.4565  0.0113
  145SOL    HW1  578   0.266   0.413   1.225 -1.8867  1.3024  2.6400
  145SOL    HW2  579   0.164   0.480   1.139  0.9281  5.0913 -3.0199
  145SOL     MW  580   0.234   0.483   1.182 -0.4127  0.5076 -0.0418
  146SOL     OW  581   0.823   1.984   1.412 -0.3428 -0.0326  0.2786
  146SOL    HW1  582   0.858   2.009   1.325  0.9393  1.3066 -1.7084
  146SOL    HW2  583   0.723   1.972   1.400  0.6837  3.6508 -0.8713
  146SOL     MW  584   0.814   1.986   1.399 -0.0382  0.6301 -0.1352
  147SOL     OW  585   0.364   0.472   3.014 -0.2240  0.3808 -0.1372
  147SOL    HW1  586   0.289   0.437   3.066  0.2301  0.9620 -1.0627
  147SOL    HW2  587   0.326   0.543   2.964 -0.5793 -0.3429 -1.2646
  147SOL     MW  588   0.349   0.477   3.015 -0.2110  0.3620 -0.4081
  148SOL     OW  589   0.100   0.952   1.311 -0.1421  0.0749 -0.0289
  148SOL    HW1  590   0.189   0.970   1.326  0.2524 -1.0365 -2.7676
  148SOL    HW2  591   0.059   1.025   1.365 -3.8574  0.9977 -0.1743
  148SOL     MW  592   0.107   0.964   1.320 -0.5802  0.0500 -0.4094
  149SOL     OW  593   1.437   1.111   1.384  0.4842 -0.9235 -0.0297
  149SOL    HW1  594   1.416   1.106   1.476  2.6392  1.2658 -0.7600
  149SOL    HW2  595   1.469   1.200   1.375  0.4364  0.2810  1.2402
  149SOL     MW  596   1.438   1.122   1.395  0.7623 -0.4757  0.0415
  150SOL     OW  597   1.746   1.375   0.764  0.2368 -0.2393  0.4055
  150SOL    HW1  598   1.777   1.307   0.818 -1.4080  1.5688  0.3569
  150SOL    HW2  599   1.781   1.449   0.812 -1.7982 -1.6971 -1.3118
  150SOL     MW  600   1.755   1.376   0.778 -0.2487 -0.1931  0.1725
  151SOL     OW  601   1.668   1.787   0.790  0.0848  0.0535  0.2831
  151SOL    HW1  602   1.662   1.798   0.696 -0.4879  1.3215 -1.8529
  151SOL    HW2  603   1.605   1.717   0.815 -0.1470  2.0933 -1.1811
  151SOL     MW  604   1.659   1.779   0.781 -0.0214  0.4899 -0.1919
  152SOL     OW  605   0.785   1.432   1.616  0.2727  0.2228  0.3954
  152SOL    HW1  606   0.811   1.345   1.643  2.4375  1.3180  2.7927
  152SOL    HW2  607   0.839   1.447   1.544 -0.0370 -2.3195 -0.4315
  152SOL     MW  608   0.796   1.423   1.610  0.5174  0.0319  0.6026
  153SOL     OW  609   2.603   1.209   0.797 -0.5692  0.1163  0.1291
  153SOL    HW1  610   2.685   1.182   0.754  1.5132 -0.3230  0.0730
  153SOL    HW2  611   2.540   1.141   0.788 -2.8270  2.1418 -1.6211
  153SOL     MW  612   2.605   1.197   0.790 -0.5923  0.3256 -0.1092
  154SOL     OW  613   0.169   1.764   1.708 -0.4807  0.1902 -0.2259
  154SOL    HW1  614   0.163   1.678   1.674 -0.3426  0.9309  1.2227
  154SOL    HW2  615   0.173   1.757   1.805  1.9130 -2.2987  0.9637
  154SOL     MW  616   0.168   1.751   1.717 -0.1467 -0.0404  0.1222
  155SOL     OW  617   1.169   0.685   0.262 -0.2035  0.5913  0.6719
  155SOL    HW1  618   1.151   0.659   0.348 -2.9279 -0.0892 -0.0850
  155SOL    HW2  619   1.157   0.785   0.274 -0.2377  1.2888  2.1841
  155SOL     MW  620   1.165   0.695   0.275 -0.5675  0.5935  0.7716
  156SOL     OW  621   1.522   3.011   1.079  0.4401  0.1060  0.0033
  156SOL    HW1  622   1.608   3.045   1.107  0.2975  0.5529  0.5633
  156SOL    HW2  623   1.511   2.927   1.118 -1.1732  0.3233  1.0336
  156SOL     MW  624   1.532   3.005   1.088  0.2084  0.1937  0.2131
  157SOL     OW  625   1.428   1.189   0.104 -0.2045  0.1044 -0.0061
  157SOL    HW1  626   1.494   1.113   0.115 -0.2063  3.9393 -0.1504
  157SOL    HW2  627   1.490   1.265   0.094  0.2044 -0.5232 -0.2717
  157SOL     MW  628   1.445   1.189   0.104 -0.1508  0.5276 -0.0602
  158SOL     OW  629   0.417   1.631   2.242 -0.5327  0.2980  0.3255
  158SOL    HW1  630   0.473   1.690   2.193  0.0225 -0.6263  1.1460
  158SOL    HW2  631   0.366   1.685   2.300 -0.3766 -1.5383 -1.1225
  158SOL     MW  632   0.418   1.646   2.243 -0.4389 -0.0662  0.2427
  159SOL     OW  633   1.252   1.718   0.470  0.3110  0.3103  0.7003
  159SOL    HW1  634   1.218   1.643   0.421 -2.5260 -0.3291  0.8034
  159SOL    HW2  635   1.178   1.740   0.531  2.3446 -0.6774 -0.6518
  159SOL     MW  636   1.237   1.711   0.472  0.2050  0.0956  0.5355
  160SOL     OW  637   0.510   1.142   1.593 -0.4472  0.0907 -0.1883
  160SOL    HW1  638   0.516   1.046   1.581 -1.1905  0.3475 -1.3269
  160SOL    HW2  639   0.591   1.165   1.636  0.4888 -0.1073 -2.2211
  160SOL     MW  640   0.522   1.132   1.597 -0.4218  0.0985 -0.6067
  161SOL     OW  641   0.495   2.265   2.550 -0.4022 -0.6190  0.0375
  161SOL    HW1  642   0.410   2.301   2.560 -1.2324  0.0127  0.5301
  161SOL    HW2  643   0.491   2.190   2.490 -1.3170 -1.4823 -1.0728
  161SOL     MW  644   0.483   2.260   2.544 -0.6324 -0.6495 -0.0440
  162SOL     OW  645   1.112   1.785   1.885 -0.4464  0.5900 -0.1486
  162SOL    HW1  646   1.129   1.874   1.937  1.0207  2.1142  0.7462
  162SOL    HW2  647   1.019   1.762   1.883  2.0100  0.1938 -2.7809
  162SOL     MW  648   1.102   1.793   1.892  0.0712  0.7388 -0.3779
  163SOL     OW  649   2.121   3.030   0.868 -0.0757  0.0693  0.5850
  163SOL    HW1  650   2.103   3.100   0.795  0.2298 -1.7587 -0.6287
  163SOL    HW2  651   2.091   2.947   0.834 -0.9621 -1.0449 -0.4538
  163SOL     MW  652   2.115   3.028   0.854 -0.1523 -0.3189  0.2878
  164SOL     OW  653   0.313   0.222   0.818 -0.1263  0.3020 -0.3106
  164SOL    HW1  654   0.226   0.209   0.869  0.0381 -1.2957 -1.7735
  164SOL    HW2  655   0.322   0.144   0.767  0.4864  0.2032 -0.6388
  164SOL     MW  656   0.303   0.210   0.818 -0.0238  0.0782 -0.5469
  165SOL     OW  657   1.334   1.318   0.343 -0.5598 -0.1723 -0.3116
  165SOL    HW1  658   1.307   1.234   0.392 -1.6316  1.9836  0.8680
  165SOL    HW2  659   1.390   1.288   0.270 -0.3552  0.1043  0.0710
  165SOL     MW  660   1.337   1.303   0.340 -0.6742  0.1487 -0.1055
  166SOL     OW  661   0.533   1.199   0.984  0.1838 -0.0143 -0.0633
  166SOL    HW1  662   0.503   1.169   1.073 -1.8864  2.0406  2.4818
  166SOL    HW2  663   0.619   1.155   0.975  2.0436  1.8893  1.6013
  166SOL     MW  664   0.541   1.189   0.994  0.1561  0.5080  0.4921
  167SOL     OW  665   0.815   1.089   0.272 -0.2084  0.3184 -0.0009
  167SOL    HW1  666   0.760   1.171   0.252  0.4755  1.3804 -1.1196
  167SOL    HW2  667   0.895   1.122   0.233  2.3272 -0.6694 -3.0205
  167SOL     MW  668   0.818   1.104   0.264  0.2164  0.3282 -0.5469
  168SOL     OW  669   1.711   1.654   3.051  0.2626 -0.1189 -0.4727
  168SOL    HW1  670   1.648   1.717   3.033  3.3779  1.0367 -0.4436
  168SOL    HW2  671   1.686   1.592   2.989  2.0780 -0.1065 -1.8889
  168SOL     MW  672   1.699   1.654   3.041  0.9132  0.0352 -0.6557
  169SOL     OW  673   0.379   0.999   1.329 -0.2507  0.3399  0.4342
  169SOL    HW1  674   0.410   0.945   1.404 -3.4646 -1.0014  1.1032
  169SOL    HW2  675   0.430   1.083   1.331  1.5186 -0.8381  1.6533
  169SOL     MW  676   0.390   1.003   1.339 -0.4413  0.0075  0.6833
  170SOL     OW  677   1.083   1.542   1.524  0.5911 -0.6135 -0.0352
  170SOL    HW1  678   1.042   1.620   1.560  0.1786 -1.6333 -1.8829
  170SOL    HW2  679   1.107   1.564   1.433  0.8975  1.2541 -1.4214
  170SOL     MW  680   1.081   1.555   1.516  0.5771 -0.5017 -0.4619
  171SOL     OW  681   0.550   1.387   0.650  0.0968 -0.4937 -0.2493
  171SOL    HW1  682   0.558   1.390   0.745 -0.0207 -1.4352 -0.9607
  171SOL    HW2  683   0.552   1.292   0.626  3.2474 -0.8914 -1.8425
  171SOL     MW  684   0.551   1.375   0.660  0.4970 -0.6704 -0.5534
  172SOL     OW  685   0.883   0.294   1.276  0.0339  0.1991  0.2349
  172SOL    HW1  686   0.848   0.318   1.184  3.3893  2.5933 -1.0832
  172SOL    HW2  687   0.798   0.286   1.319 -2.6498  1.1189 -0.4063
  172SOL     MW  688   0.867   0.296   1.270  0.1225  0.6363 -0.0236
  173SOL     OW  689   0.462   1.759   0.287 -0.0160  0.0634  0.0008
  173SOL    HW1  690   0.460   1.669   0.251 -0.8625  0.9356 -2.2808
  173SOL    HW2  691   0.531   1.746   0.359  2.3027 -0.1906 -1.3282
  173SOL     MW  692   0.471   1.745   0.292  0.1783  0.1449 -0.4756
  174SOL     OW  693   1.847   0.908   1.498  0.0302  0.2890  0.3134
  174SOL    HW1  694   1.801   0.825   1.512 -0.2698 -0.5216 -0.6260
  174SOL    HW2  695   1.833   0.935   1.408 -0.1908  2.2039 -1.0654
  174SOL     MW  696   1.839   0.901   1.488 -0.0385  0.4347  0.0075
  175SOL     OW  697   0.493   1.491   0.204 -0.2621  0.8906 -0.4943
  175SOL    HW1  698   0.410   1.459   0.161  2.4202  0.1932  0.7822
  175SOL    HW2  699   0.538   1.409   0.232 -0.6435 -3.2922  2.0482
  175SOL     MW  700   0.488   1.476   0.202  0.0415  0.2467  0.0096
  176SOL     OW  701   0.184   1.479   1.184 -0.2615 -0.0942  0.5085
  176SOL    HW1  702   0.153   1.394   1.131 -3.9180 -2.8729 -0.2754
  176SOL    HW2  703   0.098   1.514   1.217 -1.1434 -1.7520 -2.3824
  176SOL     MW  704   0.169   1.473   1.181 -0.8603 -0.6795  0.0236
  177SOL     OW  705   0.604   0.368   1.306 -0.7332 -0.6442 -0.2108
  177SOL    HW1  706   0.586   0.462   1.263  1.4148 -0.2435  1.3961
  177SOL    HW2  707   0.594   0.384   1.400  1.1191 -2.1846 -0.1015
  177SOL     MW  708   0.600   0.383   1.313 -0.2054 -0.7945  0.0156
  178SOL     OW  709   3.068   0.571   2.944 -0.1235 -0.2475  0.1937
  178SOL    HW1  710   3.014   0.555   3.024  0.0471 -2.3108 -0.6304
  178SOL    HW2  711   3.020   0.528   2.879  0.7789 -0.0429  2.0378
  178SOL     MW  712   3.055   0.563   2.946  0.0181 -0.4927  0.3283
  179SOL     OW  713   1.575   1.400   1.328  0.2941  0.3521  0.0572
  179SOL    HW1  714   1.570   1.447   1.417 -1.3274 -2.5278 -1.2973
  179SOL    HW2  715   1.662   1.368   1.317 -0.6361 -1.0352 -0.7763
  179SOL     MW  716   1.585   1.402   1.338 -0.0425 -0.2109 -0.2315
  180SOL     OW  717   2.981   0.236   0.451 -0.3343 -0.5950 -0.3054
  180SOL    HW1  718   2.931   0.256   0.367  0.3922 -0.6195 -1.6118
  180SOL    HW2  719   3.048   0.311   0.460  0.5453  1.0619  0.8011
  180SOL     MW  720   2.983   0.248   0.441 -0.1224 -0.3796 -0.3318
  181SOL     OW  721   1.111   1.344   3.065  0.2599 -0.2512 -0.2166
  181SOL    HW1  722   1.167   1.401   3.114  0.4154 -2.5953  0.6781
  181SOL    HW2  723   1.169   1.304   3.003  1.7958  1.4049  1.6189
  181SOL     MW  724   1.126   1.346   3.063  0.4830 -0.3420  0.1436
  182SOL     OW  725   0.466   0.851   1.573  0.5077  0.9075 -0.1819
  182SOL    HW1  726   0.374   0.851   1.616 -0.4621 -1.1916 -1.1022
  182SOL    HW2  727   0.530   0.813   1.639 -1.8520 -0.8757  3.7555
  182SOL     MW  728   0.462   0.846   1.587  0.0684  0.3953  0.2162
  183SOL     OW  729   1.589   1.679   1.195  0.0568  0.9738  0.3931
  183SOL    HW1  730   1.674   1.711   1.225 -0.8301  0.5117  0.8971
  183SOL    HW2  731   1.572   1.606   1.256  2.2888  0.5246  1.4689
  183SOL     MW  732   1.598   1.674   1.207  0.2343  0.8536  0.6015
  184SOL     OW  733   0.827   0.713   1.945 -0.4292  0.3394  0.2732
  184SOL    HW1  734   0.887   0.728   1.875 -0.0752  1.2861 -0.4455
  184SOL    HW2  735   0.860   0.625   1.976  1.0704  3.1916 -0.1628
  184SOL     MW  736   0.839   0.703   1.940 -0.1846  0.8407  0.1208
  185SOL     OW  737   1.132   0.978   1.914 -0.3039  0.3800  0.1913
  185SOL    HW1  738   1.136   0.891   1.962  0.0549 -0.0739  2.0425
  185SOL    HW2  739   1.186   1.031   1.968  2.4636 -2.2739  0.0045
  185SOL     MW  740   1.140   0.973   1.928  0.1086 -0.0300  0.4109
  186SOL     OW  741   0.362   1.637   1.418 -0.6728  0.1035  0.2807
  186SOL    HW1  742   0.391   1.592   1.338 -0.0773 -1.0413  2.9981
  186SOL    HW2  743   0.272   1.612   1.447  0.4822  0.8790  2.7408
  186SOL     MW  744   0.354   1.628   1.411 -0.4418  0.0548  0.9638
  187SOL     OW  745   1.504   0.730   1.348 -0.0361  0.3852  0.5021
  187SOL    HW1  746   1.525   0.692   1.434  1.7097 -1.8168  0.2467
  187SOL    HW2  747   1.409   0.734   1.346  0.0213  1.9339 -2.1986
  187SOL     MW  748   1.494   0.725   1.359  0.2018  0.2990  0.1121
  188SOL     OW  749   1.888   1.154   0.899 -0.0021  0.2622 -1.1326
  188SOL    HW1  750   1.879   1.164   0.991  0.8394  0.0323 -1.8925
  188SOL    HW2  751   1.903   1.066   0.873 -0.5361 -0.6516  0.3752
  188SOL     MW  752   1.889   1.144   0.908  0.0385  0.1113 -1.0340
  189SOL     OW  753   0.681   0.831   0.882 -0.0749  0.1856  0.0876
  189SOL    HW1  754   0.598   0.890   0.889  1.1386 -0.7484 -3.5396
  189SOL    HW2  755   0.754   0.881   0.923  2.4590 -4.6840 -2.1992
  189SOL     MW  756   0.679   0.846   0.889  0.4196 -0.5801 -0.6927
  190SOL     OW  757   1.900   0.244   2.167 -0.2922 -0.0394  0.1417
  190SOL    HW1  758   1.940   0.257   2.255  1.7633  0.0471 -1.7155
  190SOL    HW2  759   1.960   0.284   2.100 -1.2429  0.0453  1.5679
  190SOL     MW  760   1.913   0.251   2.169 -0.1465 -0.0168  0.0848
  191SOL     OW  761   1.545   0.954   1.162  0.5284  0.1946  0.0896
  191SOL    HW1  762   1.482   1.005   1.207  1.5930 -0.9644  1.3343
  191SOL    HW2  763   1.555   0.877   1.219  2.2577  3.4916  1.2209
  191SOL     MW  764   1.538   0.951   1.175  0.8971  0.4767  0.4031
  192SOL     OW  765   0.584   2.112   2.763 -0.3562  0.0413 -0.0136
  192SOL    HW1  766   0.540   2.180   2.710 -0.2798  2.8152 -0.2899
  192SOL    HW2  767   0.625   2.054   2.702  1.5773  3.2186  1.5280
  192SOL     MW  768   0.583   2.113   2.748 -0.0910  0.8265  0.1533
  193SOL     OW  769   0.937   1.561   0.735 -0.0574 -0.1459  0.5764
  193SOL    HW1  770   0.897   1.547   0.818  3.2106 -1.7751 -1.5877
  193SOL    HW2  771   0.880   1.507   0.667  0.1909 -0.1617 -1.2707
  193SOL     MW  772   0.924   1.552   0.737  0.4065 -0.3629  0.0472
  194SOL     OW  773   0.519   1.470   0.886 -0.1959  0.0543  0.0908
  194SOL    HW1  774   0.526   1.379   0.928  0.7094 -2.2894 -4.1484
  194SOL    HW2  775   0.421   1.481   0.880 -1.9839 -4.3342 -0.0089
  194SOL     MW  776   0.507   1.459   0.891 -0.3124 -0.8340 -0.4817
  195SOL     OW  777   1.297   1.157   2.964 -0.2268 -0.4811  0.0217
  195SOL    HW1  778   1.348   1.164   3.046  1.2258  3.6553  0.3840
  195SOL    HW2  779   1.240   1.077   2.967 -1.2229  1.8873  2.5583
  195SOL     MW  780   1.296   1.147   2.975 -0.1665  0.3772  0.4042
  196SOL     OW  781   2.197   0.992   0.553  0.3889 -0.3605 -0.0547
  196SOL    HW1  782   2.163   0.984   0.461  0.4834  0.2669 -3.8876
  196SOL    HW2  783   2.195   1.083   0.574 -1.7100 -0.0899 -0.6619
  196SOL     MW  784   2.192   1.003   0.544  0.1244 -0.2420 -0.6405
  197SOL     OW  785   0.679   1.380   2.135  0.0878  0.2351  0.5430
  197SOL    HW1  786   0.696   1.280   2.115  0.2798 -0.7050  1.8437
  197SOL    HW2  787   0.637   1.412   2.053  0.4344  1.8525  1.7936
  197SOL     MW  788   0.676   1.371   2.122  0.1588  0.3245  0.8796
  198SOL     OW  789   2.924   1.411   1.067 -0.0157  0.1218  0.3878
  198SOL    HW1  790   2.903   1.448   0.984  2.4503  0.2908  1.2088
  198SOL    HW2  791   2.852   1.352   1.085  0.1083  1.5074  0.7146
  198SOL     MW  792   2.912   1.408   1.058  0.3260  0.3269  0.5393
  199SOL     OW  793   0.554   1.407   1.872  0.7532  0.2495 -0.5272
  199SOL    HW1  794   0.470   1.364   1.873 -0.0670  0.4462 -1.4746
  199SOL    HW2  795   0.561   1.444   1.788  0.2877 -1.0439 -1.3474
  199SOL     MW  796   0.544   1.406   1.861  0.5835  0.1048 -0.7605
  200SOL     OW  797   1.875   2.896   1.389 -0.4175  0.1801 -0.0974
  200SOL    HW1  798   1.908   2.912   1.293 -1.1495  2.1107 -1.4015
  200SOL    HW2  799   1.793   2.943   1.399 -2.0972 -1.0419 -1.1071
  200SOL     MW  800   1.868   2.904   1.378 -0.7357  0.2736 -0.4027
  201SOL     OW  801   0.993   0.365   0.799 -0.2397  0.6104  0.1629
  201SOL    HW1  802   0.972   0.274   0.768 -3.1506 -1.2897 -0.5311
  201SOL    HW2  803   1.084   0.360   0.806 -1.5614  0.6374 -0.3923
  201SOL     MW  804   1.002   0.352   0.796 -0.7982  0.3633 -0.0019
  202SOL     OW  805   1.511   1.578   0.902 -0.0537  0.2041 -0.0822
  202SOL    HW1  806   1.475   1.494   0.884  0.0348  1.3059  0.5915
  202SOL    HW2  807   1.567   1.578   0.980  0.3615  1.2673  0.1908
  202SOL     MW  808   1.514   1.567   0.910  0.0128  0.4897  0.0427
  203SOL     OW  809   3.027   0.446   1.413  0.1573  0.0196  0.2894
  203SOL    HW1  810   3.077   0.364   1.399 -0.2248  2.4985  0.3900
  203SOL    HW2  811   3.092   0.514   1.429  0.3653 -1.5128  1.3213
  203SOL     MW  812   3.042   0.444   1.413  0.1343  0.1445  0.4389
  204SOL     OW  813   1.035   1.766   0.594  0.1689  0.0270 -0.3084
  204SOL    HW1  814   1.005   1.689   0.646  0.8061 -0.9432  0.9878
  204SOL    HW2  815   0.974   1.778   0.518  3.3961  0.3064 -2.0578
  204SOL     MW  816   1.023   1.757   0.591  0.6787 -0.0641 -0.3682
  205SOL     OW  817   1.413   3.091   1.324  0.7018 -0.2971 -0.4312
  205SOL    HW1  818   1.456   3.083   1.237  0.1585  0.1031 -3.3901
  205SOL    HW2  819   1.358   3.169   1.313  0.3651  0.5018 -0.5825
  205SOL     MW  820   1.411   3.100   1.311  0.5857 -0.1389 -0.8415
  206SOL     OW  821   0.490   3.072   1.403 -0.0724  0.3785  0.1741
  206SOL    HW1  822   0.429   3.069   1.328  0.1737  0.3735  1.6831
  206SOL    HW2  823   0.562   3.014   1.378  0.1578  2.0816  1.4829
  206SOL     MW  824   0.492   3.064   1.390 -0.0096  0.6025  0.5459
  207SOL     OW  825   0.935   1.623   0.208  0.2268  0.0485  0.2136
  207SOL    HW1  826   0.959   1.709   0.164 -1.3902  3.6330  1.3383
  207SOL    HW2  827   1.019   1.582   0.234 -0.5770 -1.1907  1.0634
  207SOL     MW  828   0.949   1.629   0.206 -0.0926  0.3579  0.4741
  208SOL     OW  829   0.745   1.645   1.315 -0.2600  0.3333 -0.3217
  208SOL    HW1  830   0.811   1.678   1.377  0.9682  0.2928  0.2365
  208SOL    HW2  831   0.777   1.573   1.264 -0.4700  2.9645  1.9166
  208SOL     MW  832   0.758   1.640   1.317 -0.1257  0.6751  0.0472
  209SOL     OW  833   1.562   0.498   2.901 -0.5712 -0.3001 -0.7213
  209SOL    HW1  834   1.588   0.593   2.897  0.7087  0.5393 -0.4625
  209SOL    HW2  835   1.630   0.439   2.856 -1.2605 -0.0072 -0.4897
  209SOL     MW  836   1.574   0.503   2.895 -0.4933 -0.1507 -0.6566
  210SOL     OW  837   1.465   1.312   0.782 -0.4270  0.5863  0.9275
  210SOL    HW1  838   1.562   1.334   0.767  0.2035  2.1590  0.9075
  210SOL    HW2  839   1.423   1.356   0.710  0.5566  0.4323 -0.0700
  210SOL     MW  840   1.473   1.321   0.770 -0.2140  0.7735  0.7932
  211SOL     OW  841   1.719   0.245   0.971 -0.3500  0.0961  0.3841
  211SOL    HW1  842   1.713   0.287   0.884  0.6249  0.1339 -1.3242
  211SOL    HW2  843   1.798   0.288   1.008  1.1830 -0.3273  0.9157
  211SOL     MW  844   1.729   0.256   0.964 -0.0191  0.0452  0.2289
  212SOL     OW  845   0.262   1.051   0.186 -0.3340  0.3981  0.1524
  212SOL    HW1  846   0.192   0.995   0.226  1.0325  0.1563  0.2906
  212SOL    HW2  847   0.301   0.998   0.115 -1.8415 -1.6307  1.7233
  212SOL     MW  848   0.258   1.037   0.182 -0.3526  0.0985  0.3779
  213SOL     OW  849   0.500   1.733   2.989  0.1648  0.3910 -0.7442
  213SOL    HW1  850   0.522   1.812   3.045  2.4230  1.9388 -0.5695
  213SOL    HW2  851   0.557   1.749   2.912  0.8032  0.1590  1.5107
  213SOL     MW  852   0.510   1.746   2.986  0.5470  0.5646 -0.4237
  214SOL     OW  853   0.665   0.378   2.173 -0.1827  0.0917  0.0775
  214SOL    HW1  854   0.579   0.433   2.168 -0.8452 -0.8320  1.1430
  214SOL    HW2  855   0.686   0.392   2.078 -0.2572  0.5001  0.7722
  214SOL     MW  856   0.656   0.387   2.160 -0.2800  0.0237  0.3097
  215SOL     OW  857   0.501   0.700   2.644 -0.1704 -0.3587 -0.1889
  215SOL    HW1  858   0.483   0.685   2.558  0.5161  3.7447  0.6624
  215SOL    HW2  859   0.432   0.663   2.698  0.4852  1.7950  0.8801
  215SOL     MW  860   0.490   0.693   2.640  0.0067  0.4669  0.0645
  216SOL     OW  861   2.973   2.989   2.731  0.0908 -0.2589  0.3919
  216SOL    HW1  862   2.972   3.031   2.821  0.2783 -1.0937 -0.0966
  216SOL    HW2  863   2.975   3.069   2.676  2.8657  0.8757  0.2872
  216SOL     MW  864   2.973   3.005   2.736  0.4817 -0.2193  0.3136
  217SOL     OW  865   1.065   1.120   0.125  0.2204  0.1436 -0.1569
  217SOL    HW1  866   1.072   1.066   0.047 -0.5796  0.9251  0.0471
  217SOL    HW2  867   1.103   1.196   0.089  1.0901 -2.7532  1.2880
  217SOL     MW  868   1.071   1.123   0.110  0.2296 -0.1355  0.0607
  218SOL     OW  869   0.919   1.356   2.615 -0.2062 -0.1228  0.2026
  218SOL    HW1  870   0.921   1.272   2.659 -1.0674 -0.5810  2.8978
  218SOL    HW2  871   1.000   1.406   2.631  0.1190 -1.9739  0.4169
  218SOL     MW  872   0.930   1.351   2.623 -0.2770 -0.4275  0.5865
  219SOL     OW  873   1.125   0.367   2.605 -0.1674 -0.5139 -0.4142
  219SOL    HW1  874   1.201   0.423   2.639  2.3004  2.0642  1.3253
  219SOL    HW2  875   1.050   0.419   2.582  3.3893 -0.5619 -1.2240
  219SOL     MW  876   1.125   0.381   2.606  0.6274 -0.1801 -0.2916
  220SOL     OW  877   1.734   0.447   2.215 -0.7210  0.0232 -0.3144
  220SOL    HW1  878   1.663   0.452   2.150  0.7015 -1.0012  0.1188
  220SOL    HW2  879   1.783   0.368   2.191 -2.4995 -1.4351  1.4521
  220SOL     MW  880   1.731   0.437   2.203 -0.7680 -0.3044 -0.0241
  221SOL     OW  881   0.343   1.311   2.929 -0.0097 -0.3225 -0.2624
  221SOL    HW1  882   0.422   1.258   2.926  0.4489 -0.1403 -1.5925
  221SOL    HW2  883   0.374   1.391   2.883 -3.8379  3.0362 -0.1957
  221SOL     MW  884   0.357   1.315   2.922 -0.4543  0.1447 -0.4291
  222SOL     OW  885   0.436   0.981   2.670  0.5319 -0.2811 -0.2412
  222SOL    HW1  886   0.367   0.994   2.606  1.0865 -2.9651 -1.6600
  222SOL    HW2  887   0.480   0.901   2.647 -0.9763  2.3628 -0.6041
  222SOL     MW  888   0.432   0.972   2.659  0.4061 -0.2864 -0.4763
  223SOL     OW  889   0.093   2.025   2.515  0.3830  0.1482  0.5238
  223SOL    HW1  890   0.108   1.978   2.599  1.1011 -0.0508 -0.7821
  223SOL    HW2  891   0.087   2.118   2.539 -0.6200  0.7682  1.4108
  223SOL     MW  892   0.094   2.031   2.529  0.3454  0.2037  0.4685
  224SOL     OW  893   1.570   0.744   2.540 -0.1812 -0.6237 -0.4672
  224SOL    HW1  894   1.558   0.744   2.636 -2.1235 -1.8405 -0.3050
  224SOL    HW2  895   1.539   0.831   2.510  0.0093  1.1625 -1.8800
  224SOL     MW  896   1.564   0.756   2.548 -0.4123 -0.5486 -0.6322
  225SOL     OW  897   2.956   1.457   2.296 -0.1910  0.2207  0.4750
  225SOL    HW1  898   3.000   1.536   2.267  0.6071 -1.4685 -0.0007
  225SOL    HW2  899   2.874   1.479   2.332 -0.9494  3.2361 -1.6071
  225SOL     MW  900   2.951   1.471   2.297 -0.1857  0.3957  0.1375
  226SOL     OW  901   0.415   1.517   2.767  0.0396  0.6258  0.0283
  226SOL    HW1  902   0.503   1.503   2.726  2.0115  2.7646  1.0800
  226SOL    HW2  903   0.387   1.597   2.716 -0.2659 -1.5906 -2.0057
  226SOL     MW  904   0.423   1.526   2.755  0.2594  0.6156 -0.1013
  227SOL     OW  905   0.553   1.138   2.859 -0.2840 -0.1459 -0.5440
  227SOL    HW1  906   0.640   1.155   2.826 -1.2707  0.8359 -0.2005
  227SOL    HW2  907   0.512   1.081   2.798 -1.3311  1.3169  1.1105
  227SOL     MW  908   0.559   1.132   2.847 -0.5523  0.1767 -0.2804
  228SOL     OW  909   0.733   1.102   2.031  0.2535  0.4358  0.2975
  228SOL    HW1  910   0.804   1.129   1.971 -0.8585 -0.8232 -0.7101
  228SOL    HW2  911   0.774   1.030   2.076  0.3228  1.2756 -1.1389
  228SOL     MW  912   0.748   1.096   2.029  0.1159  0.3805 -0.0249
  229SOL     OW  913   0.139   0.656   0.061 -0.2349  0.2191  0.2509
  229SOL    HW1  914   0.097   0.655  -0.022  0.4388  0.1387  0.5253
  229SOL    HW2  915   0.157   0.562   0.082 -0.9251 -0.2937  0.8984
  229SOL     MW  916   0.136   0.643   0.053 -0.2371  0.1409  0.3725
  230SOL     OW  917   1.717   1.336   2.020  0.4563  0.0850  0.0964
  230SOL    HW1  918   1.648   1.307   2.084 -0.5982 -1.8638  1.7196
  230SOL    HW2  919   1.776   1.263   2.018 -0.6781 -0.0495  1.2233
  230SOL     MW  920   1.716   1.322   2.028  0.1675 -0.1898  0.4593
  231SOL     OW  921   2.778   1.274   2.195 -0.1256 -0.3711 -0.5612
  231SOL    HW1  922   2.848   1.333   2.200 -1.9628 -2.9601 -1.3773
  231SOL    HW2  923   2.738   1.297   2.115  1.4450  2.1114  1.3270
  231SOL     MW  924   2.782   1.284   2.185 -0.1608 -0.3852 -0.4198
  232SOL     OW  925   2.235   0.849   2.001 -0.5032  0.2948 -0.1010
  232SOL    HW1  926   2.140   0.839   1.983 -0.0712  1.0409  2.0568
  232SOL    HW2  927   2.240   0.884   2.093  1.5040 -1.8345  4.2128
  232SOL     MW  928   2.223   0.852   2.010 -0.1814  0.1123  0.7528
  233SOL     OW  929   2.069   0.423   2.060 -0.4495 -0.0610 -0.6945
  233SOL    HW1  930   2.146   0.371   2.040  2.2088 -1.1700 -0.6785
  233SOL    HW2  931   2.090   0.473   2.137 -4.7597  0.8217  0.5997
  233SOL     MW  932   2.082   0.423   2.067 -0.6675 -0.0908 -0.5216
  234SOL     OW  933   0.207   1.038   2.500 -0.1565 -0.3472  0.2437
  234SOL    HW1  934   0.120   1.080   2.476 -1.6157 -1.5732 -0.3410
  234SOL    HW2  935   0.246   1.097   2.566  1.5945 -1.2130 -0.0482
  234SOL     MW  936   0.201   1.051   2.505 -0.1180 -0.6232  0.1280
  235SOL     OW  937   1.129   3.067   2.774  0.2353 -0.0093  0.5079
  235SOL    HW1  938   1.132   3.014   2.852  2.2926  3.7141  0.5408
  235SOL    HW2  939   1.102   3.157   2.807  0.2802  1.2085 -2.4517
  235SOL     MW  940   1.126   3.072   2.789  0.5126  0.6427  0.1217
  236SOL     OW  941   2.916   0.591   0.121  0.0376 -0.3706 -0.4886
  236SOL    HW1  942   2.829   0.626   0.124 -0.3869  1.3421 -1.2753
  236SOL    HW2  943   2.965   0.675   0.115 -0.2947 -2.2331  0.6373
  236SOL     MW  944   2.911   0.607   0.120 -0.0623 -0.3903 -0.4438
  237SOL     OW  945   2.022   1.162   2.223  0.0327 -0.1181 -0.0061
  237SOL    HW1  946   1.951   1.163   2.155 -0.0997 -1.5021  0.7552
  237SOL    HW2  947   2.052   1.070   2.218  1.2239  2.5470  2.2130
  237SOL     MW  948   2.017   1.150   2.213  0.1724  0.0509  0.3871
  238SOL     OW  949   1.092   1.795   2.967  0.3079 -0.8231  0.2453
  238SOL    HW1  950   1.043   1.714   2.952  1.3327  0.7064 -3.9326
  238SOL    HW2  951   1.178   1.774   2.932  0.8799  0.1640 -0.5412
  238SOL     MW  952   1.097   1.781   2.960  0.5185 -0.4910 -0.4097
  239SOL     OW  953   1.268   1.444   2.386 -0.3748  0.0367  0.0359
  239SOL    HW1  954   1.247   1.477   2.471 -1.6556  3.1489 -3.0290
  239SOL    HW2  955   1.265   1.353   2.400  1.1724  1.3628 -0.7619
  239SOL     MW  956   1.265   1.436   2.399 -0.3396  0.6223 -0.4737
  240SOL     OW  957   0.626   0.919   2.313 -0.0671  0.4124  0.0136
  240SOL    HW1  958   0.633   0.927   2.406 -1.2463 -3.3979 -3.9345
  240SOL    HW2  959   0.700   0.862   2.289 -1.0521 -0.3475  0.3736
  240SOL     MW  960   0.637   0.912   2.322 -0.3526 -0.1906 -0.4598
  241SOL     OW  961   0.686   0.403   0.019 -0.0600 -0.1422  0.3804
  241SOL    HW1  962   0.692   0.489   0.066 -0.1836  2.8249 -0.6090
  241SOL    HW2  963   0.597   0.420  -0.025  2.6253  3.6774 -2.2678
  241SOL     MW  964   0.675   0.416   0.019  0.2780  0.7532 -0.0996
  242SOL     OW  965   1.488   1.738   2.316  0.3590 -0.1804 -0.3393
  242SOL    HW1  966   1.427   1.792   2.369 -1.9400 -2.4455 -0.3022
  242SOL    HW2  967   1.429   1.699   2.252 -2.5247  1.6579  1.0570
  242SOL     MW  968   1.472   1.740   2.315 -0.3248 -0.2367 -0.1502
  243SOL     OW  969   0.990   0.171   2.463  0.2823  0.2717 -0.2628
  243SOL    HW1  970   1.045   0.122   2.400 -1.1841 -1.1725 -0.0130
  243SOL    HW2  971   1.050   0.233   2.513 -1.0441  0.8704 -0.7571
  243SOL     MW  972   1.005   0.173   2.461 -0.0862  0.1602 -0.2951
  244SOL     OW  973   0.184   0.807   2.356 -0.1758  0.1863 -0.1889
  244SOL    HW1  974   0.202   0.893   2.398 -0.9186  1.3635  1.7787
  244SOL    HW2  975   0.272   0.770   2.344  0.0744  1.6518 -0.4885
  244SOL     MW  976   0.198   0.813   2.360 -0.2408  0.5350  0.0312
  245SOL     OW  977   1.233   0.166   2.291  0.3481  0.2351  0.0334
  245SOL    HW1  978   1.273   0.084   2.326 -0.6111  1.0101  0.5119
  245SOL    HW2  979   1.298   0.222   2.323 -0.6689 -1.1140 -2.8163
  245SOL     MW  980   1.246   0.162   2.300  0.0874  0.1593 -0.2794
  246SOL     OW  981   1.250   1.157   2.098 -0.2841 -0.2057  0.4838
  246SOL    HW1  982   1.197   1.117   2.168 -0.1597 -1.0215 -0.1188
  246SOL    HW2  983   1.338   1.145   2.116 -1.6083  0.0402 -2.3317
  246SOL     MW  984   1.255   1.151   2.109 -0.4424 -0.2809  0.0328
  247SOL     OW  985   0.738   0.598   0.209 -0.0529  0.0636  0.3296
  247SOL    HW1  986   0.728   0.690   0.184  0.9983  0.4879 -0.5621
  247SOL    HW2  987   0.830   0.574   0.174  1.0435 -0.9236 -0.7935
  247SOL     MW  988   0.749   0.607   0.201  0.2304 -0.0107  0.0638
  248SOL     OW  989   0.313   1.284   2.591  0.2570  0.1745 -0.6799
  248SOL    HW1  990   0.350   1.288   2.501 -1.6686 -1.5109 -0.1371
  248SOL    HW2  991   0.363   1.342   2.647  2.6318 -0.7690  1.1412
  248SOL     MW  992   0.324   1.292   2.587  0.3162 -0.1723 -0.3680
  249SOL     OW  993   0.119   1.854   2.741 -1.0265 -0.0379 -0.4623
  249SOL    HW1  994   0.094   1.782   2.681  2.7457  1.1625  0.3402
  249SOL    HW2  995   0.153   1.812   2.817 -1.1184 -1.7264 -2.2205
  249SOL     MW  996   0.120   1.839   2.743 -0.5409 -0.1023 -0.5884
  250SOL     OW  997   2.176   0.918   2.292 -0.4762  0.0499 -0.7105
  250SOL    HW1  998   2.150   0.847   2.353  0.7951 -2.1706  0.5373
  250SOL    HW2  999   2.265   0.945   2.319 -0.8109 -0.0280  4.1458
  250SOL     MW 1000   2.184   0.912   2.303 -0.3526 -0.2533  0.0949
  251SOL     OW 1001   0.168   0.909   1.932 -0.7199 -0.1196  0.0941
  251SOL    HW1 1002   0.082   0.888   1.958  3.7113 -2.3797  0.6913
  251SOL    HW2 1003   0.159   0.907   1.833  0.3560  2.4081  2.7567
  251SOL     MW 1004   0.155   0.906   1.922  0.0067 -0.0843  0.5242
  252SOL     OW 1005   1.742   0.982   2.920 -0.5841 -0.5015  1.1522
  252SOL    HW1 1006   1.758   1.045   2.994 -1.0544  0.3353 -0.1340
  252SOL    HW2 1007   1.810   1.003   2.855  1.7147 -1.2552  0.5225
  252SOL     MW 1008   1.753   0.993   2.922 -0.3429 -0.4905  0.8994
  253SOL     OW 1009   1.132   1.749   2.532 -0.0103 -0.3607 -0.5061
  253SOL    HW1 1010   1.136   1.729   2.433 -3.5435 -3.0915  1.9894
  253SOL    HW2 1011   1.052   1.808   2.533 -0.9370 -1.1515  1.1644
  253SOL     MW 1012   1.122   1.754   2.519 -0.5988 -0.8254  0.0435
  254SOL     OW 1013   1.015   1.069   2.243 -0.2646  0.4685 -0.3930
  254SOL    HW1 1014   0.957   1.001   2.210 -0.7841  0.1850  2.5472
  254SOL    HW2 1015   0.950   1.144   2.264  0.3581 -0.3757  0.7729
  254SOL     MW 1016   0.999   1.070   2.241 -0.2510  0.3197  0.1487
  255SOL     OW 1017   0.833   2.544   2.150  0.3124 -0.6850  0.4709
  255SOL    HW1 1018   0.752   2.497   2.131  2.3005 -2.2835 -0.8280
  255SOL    HW2 1019   0.899   2.486   2.115 -0.9161 -0.2532  0.6068
  255SOL     MW 1020   0.831   2.530   2.143  0.4126 -0.8390  0.3175
  256SOL     OW 1021   1.309   2.708   2.944 -1.0308  0.2818  0.3527
  256SOL    HW1 1022   1.248   2.657   2.884  0.1680  1.0379  0.0724
  256SOL    HW2 1023   1.386   2.739   2.897  3.7346 -1.2119  2.1395
  256SOL     MW 1024   1.311   2.705   2.930 -0.2439  0.1845  0.5515
  257SOL     OW 1025   0.175   1.932   0.042 -0.2832  0.6094 -0.4248
  257SOL    HW1 1026   0.191   1.887   0.120 -0.3525  2.7454 -1.5425
  257SOL    HW2 1027   0.211   1.871  -0.021 -1.1293  0.4142 -0.9538
  257SOL     MW 1028   0.182   1.918   0.044 -0.4040  0.8655 -0.6420
  258SOL     OW 1029   0.814   1.005   2.537 -0.0223 -0.7325  0.1225
  258SOL    HW1 1030   0.826   1.072   2.469  0.0426  2.3003 -0.4913
  258SOL    HW2 1031   0.792   1.049   2.623  0.7917 -0.7270 -2.5350
  258SOL     MW 1032   0.813   1.020   2.539  0.0937 -0.3317 -0.3091
  259SOL     OW 1033   0.913   0.390   2.298  0.1134  0.3995 -0.3864
  259SOL    HW1 1034   0.831   0.394   2.241 -0.5983  3.7329 -0.0219
  259SOL    HW2 1035   0.914   0.300   2.335 -0.4976 -1.2480  1.1986
  259SOL     MW 1036   0.902   0.379   2.296 -0.0611  0.6219 -0.1292
  260SOL     OW 1037   0.578   0.141   1.632  0.7236  0.5487 -0.2735
  260SOL    HW1 1038   0.545   0.135   1.542  1.9796  1.3233  0.3959
  260SOL    HW2 1039   0.675   0.129   1.608  2.4897 -1.8566  1.1949
  260SOL     MW 1040   0.586   0.139   1.617  1.1223  0.3335  0.0085
  261SOL     OW 1041   1.176   0.738   2.033 -0.0588 -0.1185 -0.2762
  261SOL    HW1 1042   1.181   0.718   2.128  1.2127  1.7337  3.0835
  261SOL    HW2 1043   1.176   0.651   1.986 -0.4260 -2.4217 -0.5640
  261SOL     MW 1044   1.176   0.724   2.040  0.0605 -0.1780  0.1291
  262SOL     OW 1045   1.053   0.300   0.168 -0.0599  0.1421 -0.0346
  262SOL    HW1 1046   1.148   0.321   0.169  1.4745 -0.5863  1.0128
  262SOL    HW2 1047   1.032   0.227   0.109 -0.6307 -0.9392  2.9868
  262SOL     MW 1048   1.063   0.293   0.160  0.0672 -0.0967  0.5022
  263SOL     OW 1049   0.438   0.040   2.468 -0.0041  0.4377 -0.3468
  263SOL    HW1 1050   0.346   0.077   2.464 -0.1229 -1.1596  0.3924
  263SOL    HW2 1051   0.477   0.082   2.390  0.2812  1.9119 -0.0370
  263SOL     MW 1052   0.431   0.051   2.457  0.0179  0.4215 -0.2084
  264SOL     OW 1053   1.513   1.342   1.832  0.5869  0.0121  0.3379
  264SOL    HW1 1054   1.515   1.248   1.837 -2.3992  0.0440 -0.8740
  264SOL    HW2 1055   1.582   1.365   1.892 -0.6512  0.9356  1.5085
  264SOL     MW 1056   1.523   1.333   1.841  0.0296  0.1382  0.3324
  265SOL     OW 1057   0.806   2.806   2.213  0.0912 -0.2083  0.2093
  265SOL    HW1 1058   0.831   2.716   2.183  1.3731 -0.4379  2.2494
  265SOL    HW2 1059   0.785   2.791   2.305 -0.5404 -3.0472 -0.4521
  265SOL     MW 1060   0.806   2.792   2.221  0.1770 -0.6132  0.3912
  266SOL     OW 1061   0.836   0.774   2.213  0.2583  0.3734 -0.2240
  266SOL    HW1 1062   0.837   0.746   2.120 -1.8371  0.5946 -1.5089
  266SOL    HW2 1063   0.907   0.728   2.261 -0.3028  0.1948  0.3728
  266SOL     MW 1064   0.846   0.764   2.207 -0.0922  0.3790 -0.3148
  267SOL     OW 1065   1.357   1.774   2.665 -0.2356  0.3094 -0.0157
  267SOL    HW1 1066   1.413   1.706   2.622 -0.3211 -2.3379 -1.1392
  267SOL    HW2 1067   1.284   1.773   2.602 -4.6955  0.3348  0.1088
  267SOL     MW 1068   1.355   1.765   2.651 -0.8353 -0.0366 -0.1475
  268SOL     OW 1069   0.187   0.890   1.667 -0.0661  0.1787 -0.0303
  268SOL    HW1 1070   0.167   0.967   1.612 -0.0169 -0.2658  0.7567
  268SOL    HW2 1071   0.151   0.825   1.609 -2.6465  2.4816 -1.6520
  268SOL     MW 1072   0.180   0.892   1.652 -0.4001  0.4239 -0.1405
  269SOL     OW 1073   1.370   2.001   2.339 -0.5656  0.0805 -0.4163
  269SOL    HW1 1074   1.432   2.069   2.358  0.9071 -2.4487  0.4670
  269SOL    HW2 1075   1.296   2.041   2.366  1.1940 -1.8204  1.8723
  269SOL     MW 1076   1.368   2.015   2.345 -0.1391 -0.5040  0.0022
  270SOL     OW 1077   1.155   0.402   1.601 -0.2503 -0.8218 -0.3014
  270SOL    HW1 1078   1.135   0.323   1.652  1.8547  1.1085  0.5403
  270SOL    HW2 1079   1.248   0.403   1.597  1.0170  0.8067  0.2447
  270SOL     MW 1080   1.165   0.392   1.607  0.1946 -0.3522 -0.1183
  271SOL     OW 1081   0.780   3.100   2.573 -1.3858 -0.2731 -0.4776
  271SOL    HW1 1082   0.831   3.023   2.613 -0.8764 -0.9894 -0.5121
  271SOL    HW2 1083   0.851   3.159   2.530  0.1681 -0.5130 -2.6029
  271SOL     MW 1084   0.796   3.098   2.573 -1.1136 -0.3993 -0.7626
  272SOL     OW 1085   1.519   2.816   2.801  0.2662 -0.2923  0.6270
  272SOL    HW1 1086   1.461   2.839   2.723 -2.2198 -0.5419 -1.0977
  272SOL    HW2 1087   1.556   2.895   2.837 -0.1247 -1.3262 -1.3968
  272SOL     MW 1088   1.516   2.830   2.795 -0.1134 -0.4616  0.1324
  273SOL     OW 1089   1.493   0.912   2.793 -0.2758  0.1898 -0.2065
  273SOL    HW1 1090   1.570   0.953   2.838  0.0872 -2.3210  0.6894
  273SOL    HW2 1091   1.443   0.990   2.773 -0.4502 -0.4607  0.3243
  273SOL     MW 1092   1.497   0.928   2.796 -0.2509 -0.2273 -0.0183
  274SOL     OW 1093   1.416   0.723   0.117  0.2398  0.4451 -0.1191
  274SOL    HW1 1094   1.433   0.644   0.170  1.8775 -0.1494 -1.4879
  274SOL    HW2 1095   1.337   0.758   0.160  0.9000 -1.7900 -1.0466
  274SOL     MW 1096   1.408   0.717   0.130  0.5430  0.0718 -0.4221
  275SOL     OW 1097   1.657   0.540   1.779  0.3935  0.0966 -0.4429
  275SOL    HW1 1098   1.731   0.554   1.838  0.8572  0.3122 -0.2271
  275SOL    HW2 1099   1.641   0.448   1.798  0.4075  1.4484  0.7699
  275SOL     MW 1100   1.664   0.530   1.789  0.4565  0.3034 -0.2545
  276SOL     OW 1101   0.320   1.255   1.939  0.6155  0.4233  0.5670
  276SOL    HW1 1102   0.351   1.168   1.955 -2.3996 -1.3490  0.7400
  276SOL    HW2 1103   0.269   1.281   2.014  1.5133 -2.4150  0.1360
  276SOL     MW 1104   0.318   1.247   1.951  0.3361 -0.1850  0.5330
  277SOL     OW 1105   1.949   1.142   2.516  0.6399 -0.2835  0.5451
  277SOL    HW1 1106   1.990   1.226   2.547  0.7730  1.1909  1.8833
  277SOL    HW2 1107   1.984   1.146   2.426 -2.2261 -0.2310 -1.4048
  277SOL     MW 1108   1.959   1.154   2.508  0.2794 -0.0821  0.4644
  278SOL     OW 1109   1.397   0.679   1.660 -0.6927 -0.4399  0.0880
  278SOL    HW1 1110   1.379   0.614   1.735 -1.0442 -0.9651 -0.9102
  278SOL    HW2 1111   1.461   0.745   1.690  0.2252  1.0511  0.3158
  278SOL     MW 1112   1.403   0.679   1.674 -0.6180 -0.3124 -0.0136
  279SOL     OW 1113   0.566   0.117   2.233 -0.3349 -0.4225  0.0006
  279SOL    HW1 1114   0.643   0.053   2.241  2.8058 -0.0876 -1.4830
  279SOL    HW2 1115   0.586   0.201   2.191 -0.6484  2.9512  0.7387
  279SOL     MW 1116   0.579   0.119   2.228  0.0381  0.0668 -0.0978
  280SOL     OW 1117   1.460   0.974   2.153 -0.5902 -0.2220 -0.2083
  280SOL    HW1 1118   1.504   0.903   2.102  0.0758  1.9001 -1.5583
  280SOL    HW2 1119   1.448   0.950   2.243 -0.7163  3.6000 -1.0005
  280SOL     MW 1120   1.464   0.961   2.158 -0.5190  0.5623 -0.4909
  281SOL     OW 1121   1.340   1.321   2.725  0.3471 -0.5511 -0.5369
  281SOL    HW1 1122   1.436   1.327   2.722  0.3569  0.6199  2.3043
  281SOL    HW2 1123   1.330   1.273   2.810  2.8206  0.4420  0.5831
  281SOL     MW 1124   1.351   1.316   2.736  0.6747 -0.2655 -0.0142
  282SOL     OW 1125   1.089   1.310   1.630  0.2356  0.1344  0.0498
  282SOL    HW1 1126   1.069   1.404   1.615  0.9340 -0.2800 -0.7164
  282SOL    HW2 1127   1.031   1.288   1.701 -0.7573 -2.8333 -0.4939
  282SOL     MW 1128   1.079   1.319   1.637  0.1967 -0.3118 -0.1231
  283SOL     OW 1129   0.825   1.259   3.028 -0.0468 -0.0042  0.7564
  283SOL    HW1 1130   0.905   1.253   3.074  2.9833  0.7568 -3.8525
  283SOL    HW2 1131   0.799   1.348   3.039 -2.0157  0.4295 -0.2555
  283SOL     MW 1132   0.832   1.270   3.035  0.0932  0.1535  0.0148
  284SOL     OW 1133   0.438   0.719   2.377 -0.6043  0.5384 -0.5417
  284SOL    HW1 1134   0.497   0.779   2.330  1.1389 -1.9553  1.8631
  284SOL    HW2 1135   0.435   0.644   2.313  0.2267 -0.6980 -0.0007
  284SOL     MW 1136   0.445   0.717   2.363 -0.2646  0.0463 -0.1530
  285SOL     OW 1137   0.944   0.847   2.833 -0.6448  0.4609  0.1430
  285SOL    HW1 1138   1.016   0.843   2.771 -0.4197  1.1342 -1.4176
  285SOL    HW2 1139   0.885   0.770   2.813 -0.7029  2.3674  0.6836
  285SOL     MW 1140   0.945   0.836   2.822 -0.6227  0.8013  0.0084
  286SOL     OW 1141   1.156   1.500   2.662  0.2135  0.2513 -0.3818
  286SOL    HW1 1142   1.233   1.450   2.696  0.4570  2.8651 -1.2447
  286SOL    HW2 1143   1.165   1.595   2.673 -0.6544 -2.4730 -3.4198
  286SOL     MW 1144   1.167   1.506   2.668  0.1311  0.2367 -0.8964
  287SOL     OW 1145   1.154   0.928   0.341  0.0927  0.4886 -0.6682
  287SOL    HW1 1146   1.188   0.972   0.417  0.4588  0.3444 -0.9914
  287SOL    HW2 1147   1.134   0.994   0.267  0.3542 -0.2755 -1.1458
  287SOL     MW 1148   1.156   0.943   0.341  0.1755  0.3687 -0.7738
  288SOL     OW 1149   1.513   0.571   2.069 -0.3382 -0.2421  0.2298
  288SOL    HW1 1150   1.468   0.585   2.153 -3.3363  1.3332 -0.7522
  288SOL    HW2 1151   1.549   0.654   2.030 -0.7228  3.9324 -0.3722
  288SOL     MW 1152   1.512   0.584   2.075 -0.7845  0.5165  0.0208
  289SOL     OW 1153   1.085   0.980   2.585 -0.1349  0.1260 -0.5024
  289SOL    HW1 1154   1.111   0.890   2.570 -0.1712 -1.8072  0.8568
  289SOL    HW2 1155   0.992   0.980   2.562  2.0624  1.3497  2.0172
  289SOL     MW 1156   1.076   0.968   2.580  0.1502  0.0324  0.0094
  290SOL     OW 1157   0.799   0.610   1.560 -0.2493 -0.0702 -0.5043
  290SOL    HW1 1158   0.865   0.591   1.490  2.5919  1.4878 -0.8315
  290SOL    HW2 1159   0.848   0.640   1.635  1.8392  3.2660 -1.0874
  290SOL     MW 1160   0.814   0.612   1.561  0.4011  0.5755 -0.6244
  291SOL     OW 1161   0.178   0.382   0.116 -0.2432 -0.0633 -0.6563
  291SOL    HW1 1162   0.263   0.346   0.142  1.2424  1.8449 -0.1915
  291SOL    HW2 1163   0.146   0.326   0.046 -2.4405  1.2953  1.2300
  291SOL     MW 1164   0.185   0.370   0.110 -0.3371  0.3677 -0.3461
  292SOL     OW 1165   1.000   0.550   0.079 -0.3768  0.2353  0.0998
  292SOL    HW1 1166   1.065   0.584   0.139  1.0667 -2.0678  0.0028
  292SOL    HW2 1167   1.009   0.454   0.101  1.9242  2.0284 -2.6986
  292SOL     MW 1168   1.010   0.542   0.090  0.1172  0.1680 -0.2822
  293SOL     OW 1169   0.193   0.122   2.454  0.5094  0.0751  0.0977
  293SOL    HW1 1170   0.139   0.067   2.400  1.5783  1.2522  0.1344
  293SOL    HW2 1171   0.137   0.154   2.524 -0.9627  0.0009  0.8190
  293SOL     MW 1172   0.179   0.119   2.456  0.4562  0.2207  0.1977
  294SOL     OW 1173   1.443   0.585   2.323 -0.6194  0.3687 -0.0861
  294SOL    HW1 1174   1.508   0.612   2.387  3.0293 -2.4128 -0.0354
  294SOL    HW2 1175   1.429   0.497   2.355  0.8583  2.4513  2.4287
  294SOL     MW 1176   1.450   0.577   2.336  0.0569  0.2765  0.2524
  295SOL     OW 1177   0.921   0.543   2.543  0.1884  0.0484 -0.2971
  295SOL    HW1 1178   0.895   0.524   2.453 -2.0675 -1.0135 -0.1989
  295SOL    HW2 1179   0.850   0.591   2.587 -4.0770 -2.2315  2.1689
  295SOL     MW 1180   0.908   0.547   2.537 -0.6720 -0.3925  0.0412
  296SOL     OW 1181   1.253   0.281   2.026 -0.9206 -0.1361 -0.0063
  296SOL    HW1 1182   1.328   0.222   2.011  0.0499  1.2382  0.8861
  296SOL    HW2 1183   1.231   0.269   2.121  0.6429  0.3514 -0.8961
  296SOL     MW 1184   1.260   0.272   2.036 -0.5862  0.1095 -0.0060
  297SOL     OW 1185   1.428   0.412   1.546  0.5356 -0.0049 -0.8426
  297SOL    HW1 1186   1.426   0.506   1.558 -0.4341 -2.4378  1.8796
  297SOL    HW2 1187   1.447   0.368   1.626 -0.1870  0.2831 -0.1914
  297SOL     MW 1188   1.430   0.419   1.558  0.3123 -0.2879 -0.3975
  298SOL     OW 1189   1.637   0.843   2.010 -0.2806  0.3305  0.2518
  298SOL    HW1 1190   1.696   0.910   1.975  0.6274 -1.4937  0.8550
  298SOL    HW2 1191   1.704   0.796   2.071  4.7133  0.7436 -0.4088
  298SOL     MW 1192   1.653   0.846   2.013  0.4981  0.1443  0.2442
  299SOL     OW 1193   0.570   1.099   0.045  0.3914 -0.1032  0.1992
  299SOL    HW1 1194   0.544   1.082  -0.052  1.2656  2.2747 -2.1720
  299SOL    HW2 1195   0.651   1.156   0.032  1.2834 -1.5361 -2.7510
  299SOL     MW 1196   0.577   1.104   0.031  0.6244  0.0215 -0.5029
  300SOL     OW 1197   1.296   1.165   2.486 -0.6783  0.2415 -0.4398
  300SOL    HW1 1198   1.204   1.139   2.483 -0.7125  1.2121 -0.2141
  300SOL    HW2 1199   1.312   1.205   2.569 -1.3408  0.7391 -1.3049
  300SOL     MW 1200   1.286   1.167   2.496 -0.7702  0.4352 -0.5242
  301SOL     OW 1201   1.490   0.954   0.656 -0.2221  1.0906 -0.1938
  301SOL    HW1 1202   1.483   0.987   0.747  0.6412 -1.6799 -0.7859
  301SOL    HW2 1203   1.413   0.895   0.637 -2.7281 -0.9036  1.7667
  301SOL     MW 1204   1.479   0.951   0.666 -0.4389  0.4619 -0.0132
  302SOL     OW 1205   0.128   1.605   2.001  0.5183  0.0604 -0.5189
  302SOL    HW1 1206   0.160   1.543   2.068 -1.1682  1.2076  1.1893
  302SOL    HW2 1207   0.058   1.637   2.060 -1.6201 -1.7949 -0.0759
  302SOL     MW 1208   0.123   1.601   2.018  0.0136 -0.0330 -0.2350
  303SOL     OW 1209   0.405   1.795   2.664 -0.4669 -0.3516 -0.0571
  303SOL    HW1 1210   0.368   1.795   2.578 -3.1804 -0.4922  2.7290
  303SOL    HW2 1211   0.325   1.821   2.711 -2.7771 -2.1570 -0.2636
  303SOL     MW 1212   0.390   1.798   2.659 -1.1297 -0.6083  0.2833
  304SOL     OW 1213   0.521   2.048   2.356 -0.0800 -0.1946 -0.6112
  304SOL    HW1 1214   0.605   2.081   2.316  1.1553 -1.4187  1.8074
  304SOL    HW2 1215   0.558   1.975   2.402  0.9537  2.6962 -2.4450
  304SOL     MW 1216   0.537   2.042   2.357  0.2193  0.0253 -0.5340
  305SOL     OW 1217   1.097   0.549   0.497 -0.2971  0.0827  0.3202
  305SOL    HW1 1218   1.000   0.542   0.490  0.6769 -0.2467 -1.2314
  305SOL    HW2 1219   1.134   0.464   0.519  1.3582  0.4551 -0.7608
  305SOL     MW 1220   1.089   0.537   0.499  0.0498  0.0884 -0.0272
  306SOL     OW 1221   1.182   1.529   0.289  0.1305  0.1802 -0.1864
  306SOL    HW1 1222   1.227   1.443   0.317 -1.8519 -0.2501 -0.9493
  306SOL    HW2 1223   1.210   1.531   0.201 -1.9359 -0.3000  0.6813
  306SOL     MW 1224   1.191   1.518   0.281 -0.4037  0.0600 -0.1725
  307SOL     OW 1225   1.342   0.483   1.856 -0.0336 -0.0237 -0.6890
  307SOL    HW1 1226   1.292   0.421   1.905  1.1762 -0.0747 -0.4807
  307SOL    HW2 1227   1.414   0.512   1.917 -0.3102  0.0447  2.9457
  307SOL     MW 1228   1.345   0.479   1.870  0.0895 -0.0214 -0.1820
  308SOL     OW 1229   2.199   0.544   2.717  0.1629 -1.2009  0.4401
  308SOL    HW1 1230   2.302   0.530   2.733  3.1155  2.8249 -0.8127
  308SOL    HW2 1231   2.189   0.639   2.727  0.7291  1.1908 -4.2372
  308SOL     MW 1232   2.211   0.554   2.720  0.6272 -0.3542 -0.3423
  309SOL     OW 1233   0.479   0.509   0.288  0.2759  0.0869 -0.8066
  309SOL    HW1 1234   0.569   0.536   0.276 -1.7939  1.5558 -3.6127
  309SOL    HW2 1235   0.471   0.418   0.262  1.1295 -0.5831 -0.9806
  309SOL     MW 1236   0.490   0.501   0.283  0.1154  0.1923 -1.1998
  310SOL     OW 1237   0.428   0.595   1.924 -0.0697 -0.3507 -0.0178
  310SOL    HW1 1238   0.466   0.515   1.872 -1.1289 -0.2452 -3.1812
  310SOL    HW2 1239   0.478   0.671   1.896 -0.4739  0.0412 -0.3140
  310SOL     MW 1240   0.440   0.595   1.913 -0.2628 -0.2851 -0.4743
  311SOL     OW 1241   1.893   0.584   1.932  0.7932  0.2279 -0.0908
  311SOL    HW1 1242   1.850   0.588   2.020 -0.3421 -1.7032  1.0910
  311SOL    HW2 1243   1.956   0.511   1.952  0.2129 -0.6585  1.0486
  311SOL     MW 1244   1.896   0.575   1.946  0.5669 -0.1439  0.2154
  312SOL     OW 1245   1.803   2.484   0.158 -0.0264 -0.7277  0.3684
  312SOL    HW1 1246   1.853   2.442   0.230  1.6982 -2.2089 -2.3746
  312SOL    HW2 1247   1.737   2.542   0.201  2.5125  0.0532  0.7557
  312SOL     MW 1248   1.801   2.486   0.173  0.5362 -0.8201  0.0576
  313SOL     OW 1249   0.127   1.146   2.951  0.2145  0.6119 -0.0103
  313SOL    HW1 1250   0.082   1.156   3.042  1.4969  0.9133  2.7625
  313SOL    HW2 1251   0.197   1.207   2.969 -0.4760  0.2028  1.9448
  313SOL     MW 1252   0.130   1.155   2.965  0.2926  0.5977  0.6135
  314SOL     OW 1253   2.165   3.011   2.946  0.4186  0.1304 -0.3267
  314SOL    HW1 1254   2.107   3.074   2.902 -1.4761 -0.2523  2.1908
  314SOL    HW2 1255   2.219   3.052   3.013  0.2168 -1.9992  0.9989
  314SOL     MW 1256   2.165   3.024   2.949  0.1420 -0.2011  0.1803
  315SOL     OW 1257   1.529   1.869   3.025 -0.2486  0.0665 -0.7588
  315SOL    HW1 1258   1.474   1.902   3.090  5.5860  0.9620  0.1712
  315SOL    HW2 1259   1.556   1.946   2.969 -0.3560 -1.0323 -0.7748
  315SOL     MW 1260   1.526   1.883   3.026  0.5071  0.0396 -0.6382
  316SOL     OW 1261   1.328   0.520   2.713  0.1252 -0.3364  0.0921
  316SOL    HW1 1262   1.419   0.515   2.731 -2.9302 -0.2436  1.0916
  316SOL    HW2 1263   1.270   0.545   2.791 -0.1924  0.6701  1.2729
  316SOL     MW 1264   1.332   0.523   2.726 -0.3199 -0.1913  0.3798
  317SOL     OW 1265   0.659   1.469   2.616 -0.3701  0.5385  0.7654
  317SOL    HW1 1266   0.735   1.415   2.610  0.2761 -1.3042  0.1833
  317SOL    HW2 1267   0.656   1.486   2.518 -0.3561  0.2595 -1.0352
  317SOL     MW 1268   0.668   1.464   2.603 -0.2830  0.2585  0.4510
  318SOL     OW 1269   1.334   0.357   2.975  0.8631  0.0071  0.1421
  318SOL    HW1 1270   1.257   0.415   2.942  0.9796  1.8607 -2.1747
  318SOL    HW2 1271   1.410   0.406   2.944 -0.6223  0.8912 -0.0666
  318SOL     MW 1272   1.334   0.371   2.966  0.6825  0.3683 -0.1911
  319SOL     OW 1273   0.843   0.424   2.874  0.2139 -0.4273  0.1745
  319SOL    HW1 1274   0.812   0.345   2.825 -0.1218  0.0538  0.4441
  319SOL    HW2 1275   0.808   0.409   2.959  0.2442  1.3501 -0.5420
  319SOL     MW 1276   0.835   0.412   2.879  0.1736 -0.1293  0.1155
  320SOL     OW 1277   1.065   1.353   2.001  0.2988  0.1881 -0.2634
  320SOL    HW1 1278   1.141   1.292   2.015  1.2648  0.3715  0.3331
  320SOL    HW2 1279   1.105   1.428   1.958 -1.2126 -1.6029 -1.4540
  320SOL     MW 1280   1.081   1.355   1.997  0.2268 -0.0240 -0.3418
  321SOL     OW 1281   1.118   0.956   3.007  0.0559  0.0566  0.3404
  321SOL    HW1 1282   1.040   0.916   2.967 -1.0152  0.9091  0.1391
  321SOL    HW2 1283   1.178   0.901   2.963 -3.3724  0.7025  0.0403
  321SOL     MW 1284   1.116   0.943   2.996 -0.5378  0.2543  0.2742
  322SOL     OW 1285   1.182   0.850   1.678 -0.4960  0.1114  0.1692
  322SOL    HW1 1286   1.262   0.794   1.668 -2.2966  1.5843 -0.4973
  322SOL    HW2 1287   1.189   0.873   1.771  1.7344 -1.2648 -0.2805
  322SOL     MW 1288   1.193   0.845   1.689 -0.4393  0.1241  0.0219
  323SOL     OW 1289   1.235   1.549   1.877  0.5468 -0.3603  0.0817
  323SOL    HW1 1290   1.287   1.549   1.796 -1.5093  0.2169 -1.4330
  323SOL    HW2 1291   1.192   1.642   1.865  0.5898 -1.7494 -1.6623
  323SOL     MW 1292   1.236   1.562   1.865  0.2812 -0.4674 -0.3483
  324SOL     OW 1293   1.473   0.974   2.432  0.0792  0.1876 -0.0435
  324SOL    HW1 1294   1.411   1.032   2.464  1.1026  1.6776  0.1694
  324SOL    HW2 1295   1.554   1.017   2.457 -2.1254  1.6318  1.3313
  324SOL     MW 1296   1.476   0.987   2.440 -0.0767  0.5747  0.1660
  325SOL     OW 1297   1.122   0.514   2.915 -0.1672  0.0739 -0.1129
  325SOL    HW1 1298   1.102   0.555   3.001  1.0238 -0.1620  1.8947
  325SOL    HW2 1299   1.031   0.498   2.889  2.1493  1.1567  3.8401
  325SOL     MW 1300   1.107   0.517   2.923  0.2956  0.1856  0.6735
  326SOL     OW 1301   0.459   1.347   2.346 -0.2626  0.2844  0.0542
  326SOL    HW1 1302   0.516   1.318   2.281 -2.6229 -1.2127  2.3949
  326SOL    HW2 1303   0.437   1.435   2.323  0.2571 -3.7840  0.5723
  326SOL     MW 1304   0.464   1.355   2.334 -0.5054 -0.4499  0.4314
  327SOL     OW 1305   1.908   0.787   2.432 -0.0564 -0.4471  0.0383
  327SOL    HW1 1306   1.850   0.742   2.498  0.6510  0.4215 -1.0904
  327SOL    HW2 1307   1.977   0.828   2.477 -1.0750 -0.1510  0.9275
  327SOL     MW 1308   1.909   0.786   2.447 -0.0975 -0.2934  0.0067
  328SOL     OW 1309   0.187   1.374   2.172 -0.4837 -1.1039 -0.5434
  328SOL    HW1 1310   0.135   1.296   2.170  0.3896 -1.9694  0.2485
  328SOL    HW2 1311   0.218   1.380   2.263  1.9548  0.2963 -1.4751
  328SOL     MW 1312   0.184   1.365   2.184 -0.0467 -1.0334 -0.5618
  329SOL     OW 1313   0.099   0.255   1.406  0.1938 -0.2832 -0.2396
  329SOL    HW1 1314   0.099   0.250   1.506 -2.4318  0.8164  1.0714
  329SOL    HW2 1315   0.191   0.255   1.386 -1.6630  1.1224 -1.3745
  329SOL     MW 1316   0.111   0.254   1.417 -0.3976  0.0473 -0.2164
  330SOL     OW 1317   0.390   3.073   2.082 -0.1106 -0.2848 -0.1893
  330SOL    HW1 1318   0.463   3.106   2.138 -1.3852  0.4675 -0.9119
  330SOL    HW2 1319   0.322   3.035   2.137 -0.1029 -2.5903 -2.0114
  330SOL     MW 1320   0.391   3.073   2.097 -0.2777 -0.4897 -0.5251
  331SOL     OW 1321   0.822   1.257   2.351 -0.2439  0.2214  1.1819
  331SOL    HW1 1322   0.767   1.322   2.300  0.4218  0.7908 -0.2936
  331SOL    HW2 1323   0.879   1.315   2.398 -0.4428  1.0492 -0.5954
  331SOL     MW 1324   0.823   1.273   2.350 -0.1823  0.4058  0.7527
  332SOL     OW 1325   1.343   1.698   2.922 -0.5959 -0.1079 -0.7950
  332SOL    HW1 1326   1.347   1.716   2.825  0.6217 -0.0469 -1.4714
  332SOL    HW2 1327   1.411   1.761   2.951 -1.7777 -0.8408  0.8270
  332SOL     MW 1328   1.353   1.708   2.913 -0.5912 -0.1966 -0.6703
  333SOL     OW 1329   1.736   1.361   2.966 -0.0797 -0.4685 -0.5083
  333SOL    HW1 1330   1.822   1.374   3.001  1.8196  1.7518  0.9220
  333SOL    HW2 1331   1.708   1.290   3.021 -1.6323  0.6550  1.0140
  333SOL     MW 1332   1.743   1.353   2.978 -0.0340 -0.0273 -0.1187
  334SOL     OW 1333   1.287   0.060   2.564 -0.6408 -0.2830  0.2232
  334SOL    HW1 1334   1.228   0.033   2.632  1.5710 -0.2567 -0.5545
  334SOL    HW2 1335   1.361   0.095   2.620  0.2525 -2.4415  2.9422
  334SOL     MW 1336   1.289   0.061   2.580 -0.2311 -0.5643  0.4793
  335SOL     OW 1337   1.333   0.748   2.956 -0.0230 -0.5012  0.0870
  335SOL    HW1 1338   1.369   0.734   3.045 -0.9210  2.2734 -1.1012
  335SOL    HW2 1339   1.412   0.790   2.907  2.7876 -1.6213  1.8528
  335SOL     MW 1340   1.348   0.752   2.961  0.2294 -0.2829  0.1632
  336SOL     OW 1341   0.932   1.168   1.855 -0.4260  0.0724 -0.4455
  336SOL    HW1 1342   0.976   1.243   1.901 -2.4117 -2.2942 -2.5271
  336SOL    HW2 1343   0.996   1.098   1.876  0.5138  0.7246 -1.2806
  336SOL     MW 1344   0.947   1.168   1.864 -0.5640 -0.1538 -0.8303
  337SOL     OW 1345   0.665   1.813   2.796 -0.1006 -0.0097  0.2730
  337SOL    HW1 1346   0.595   1.805   2.730  0.4772  0.1333  0.0507
  337SOL    HW2 1347   0.734   1.754   2.783 -0.2611  0.4262  2.3986
  337SOL     MW 1348   0.665   1.804   2.786 -0.0455  0.0666  0.5241
  338SOL     OW 1349   1.127   0.693   2.601 -0.0088 -0.1505  0.0335
  338SOL    HW1 1350   1.062   0.620   2.596  1.7645 -1.3973 -0.6235
  338SOL    HW2 1351   1.212   0.647   2.615 -0.6844  0.3398  1.6583
  338SOL     MW 1352   1.130   0.678   2.602  0.1360 -0.2503  0.1612
  339SOL     OW 1353   1.489   1.064   1.843  0.0122 -0.2282 -0.1827
  339SOL    HW1 1354   1.419   1.081   1.779 -2.1903 -0.2642  2.3927
  339SOL    HW2 1355   1.443   1.059   1.925  1.1540 -0.0604 -0.8983
  339SOL     MW 1356   1.474   1.065   1.846 -0.1277 -0.2108  0.0627
  340SOL     OW 1357   1.305   1.516   0.048  0.5792 -0.0587 -0.3536
  340SOL    HW1 1358   1.317   1.590  -0.010  0.4665 -0.8022  3.5854
  340SOL    HW2 1359   1.391   1.492   0.089  0.7915 -1.6423  0.2801
  340SOL     MW 1360   1.318   1.522   0.046  0.5923 -0.3657  0.2497
  341SOL     OW 1361   0.035   1.336   2.746 -0.1403 -0.4589 -0.4400
  341SOL    HW1 1362   0.112   1.281   2.742 -1.3310  0.5311 -1.9565
  341SOL    HW2 1363  -0.001   1.327   2.654  1.0169 -1.6858 -0.9756
  341SOL     MW 1364   0.040   1.328   2.734 -0.1448 -0.4901 -0.7108
  342SOL     OW 1365   1.314   0.347   0.136  0.2968  0.2961 -0.0987
  342SOL    HW1 1366   1.379   0.390   0.184 -3.4390 -0.7587  1.6950
  342SOL    HW2 1367   1.334   0.361   0.040  1.2909  1.2262 -2.7434
  342SOL     MW 1368   1.325   0.355   0.130 -0.0650  0.2797 -0.2110
  343SOL     OW 1369   0.271   0.307   2.114  0.0505 -0.0419  0.7420
  343SOL    HW1 1370   0.352   0.267   2.106  0.2958  2.7347  1.3250
  343SOL    HW2 1371   0.213   0.239   2.074 -1.7404  1.5268 -2.3998
  343SOL     MW 1372   0.274   0.292   2.108 -0.1535  0.5314  0.4044
  344SOL     OW 1373   1.701   2.046   0.179  0.1598  0.0405  0.1095
  344SOL    HW1 1374   1.723   2.109   0.106  1.6141  0.4564  0.4213
  344SOL    HW2 1375   1.614   2.020   0.162  2.6371  1.8324  0.8294
  344SOL     MW 1376   1.692   2.051   0.167  0.6785  0.3318  0.2456
  345SOL     OW 1377   0.708   1.574   2.340  0.0586  0.5273  0.2832
  345SOL    HW1 1378   0.644   1.556   2.274  0.7111 -1.3427 -0.6002
  345SOL    HW2 1379   0.793   1.560   2.292  0.0376  0.2988 -2.1123
  345SOL     MW 1380   0.711   1.570   2.325  0.1420  0.2504 -0.1494
  346SOL     OW 1381   1.766   1.161   0.047  0.1004  0.1463 -0.3011
  346SOL    HW1 1382   1.856   1.164   0.071 -0.7848  1.9978 -1.0379
  346SOL    HW2 1383   1.727   1.103   0.113 -1.9606 -1.4423  0.5168
  346SOL     MW 1384   1.773   1.154   0.058 -0.2883  0.1810 -0.2904
  347SOL     OW 1385   1.164   0.633   2.300 -0.0317 -0.0622  0.1732
  347SOL    HW1 1386   1.256   0.630   2.311  0.3671 -0.0573  0.4726
  347SOL    HW2 1387   1.140   0.654   2.395 -0.1641  0.2287 -1.0489
  347SOL     MW 1388   1.173   0.636   2.314  0.0035 -0.0231  0.0515
  348SOL     OW 1389   1.306   2.638   1.882 -0.4275 -0.2345 -0.2267
  348SOL    HW1 1390   1.356   2.568   1.932  0.0324 -0.0478 -1.0541
  348SOL    HW2 1391   1.324   2.721   1.915 -0.1231  0.8037 -0.3738
  348SOL     MW 1392   1.315   2.640   1.893 -0.3266 -0.0729 -0.3553
  349SOL     OW 1393   1.449   0.211   2.709 -0.2023 -0.2755 -0.3250
  349SOL    HW1 1394   1.389   0.251   2.773 -0.0082 -1.0693 -0.6102
  349SOL    HW2 1395   1.509   0.163   2.767 -0.5951  1.7614 -2.5651
  349SOL     MW 1396   1.449   0.210   2.725 -0.2285 -0.1115 -0.6582
  350SOL     OW 1397   1.848   0.621   2.668 -0.0952  0.4590  0.3232
  350SOL    HW1 1398   1.790   0.553   2.639 -0.6824  2.3277 -0.0211
  350SOL    HW2 1399   1.907   0.574   2.728 -0.6862  1.3214 -3.5079
  350SOL     MW 1400   1.848   0.606   2.672 -0.2507  0.8194 -0.2277
  351SOL     OW 1401   0.101   1.129   1.563 -0.4723  0.6024  0.1219
  351SOL    HW1 1402   0.052   1.091   1.637 -2.5918 -1.6029  1.2443
  351SOL    HW2 1403   0.172   1.189   1.607  1.9436 -1.7660  2.1342
  351SOL     MW 1404   0.104   1.132   1.578 -0.4332 -0.0010  0.5355
  352SOL     OW 1405   0.872   1.641   2.729  0.8308 -0.2949  0.1612
  352SOL    HW1 1406   0.895   1.616   2.814 -3.2145  2.6643  1.2270
  352SOL    HW2 1407   0.830   1.559   2.699 -0.9045 -1.2082 -0.9660
  352SOL     MW 1408   0.869   1.627   2.736  0.0681 -0.0250  0.1531
  353SOL     OW 1409   3.093   2.511   2.717  0.7956 -0.2900  0.5687
  353SOL    HW1 1410   3.187   2.482   2.705 -0.1227  0.0536  2.3800
  353SOL    HW2 1411   3.089   2.595   2.666  0.1210  0.0654 -1.6840
  353SOL     MW 1412   3.105   2.518   2.709  0.5854 -0.1977  0.5105
  354SOL     OW 1413   0.274   2.453   0.807  0.0307  0.0122 -0.1917
  354SOL    HW1 1414   0.302   2.426   0.894  0.0289 -0.4712 -2.3448
  354SOL    HW2 1415   0.197   2.395   0.810  3.8349 -1.8985  0.5002
  354SOL     MW 1416   0.268   2.442   0.819  0.5324 -0.3037 -0.3845
  355SOL     OW 1417   0.007   2.231   0.368 -0.5917 -0.1682 -0.3630
  355SOL    HW1 1418  -0.082   2.201   0.357 -0.5460  1.6680 -0.3398
  355SOL    HW2 1419   0.013   2.262   0.456  3.0456 -2.2939 -3.0684
  355SOL     MW 1420  -0.004   2.231   0.378 -0.1058 -0.2064 -0.7169
  356SOL     OW 1421   0.850   2.794   0.966 -0.0778  0.4340 -0.0974
  356SOL    HW1 1422   0.880   2.839   0.879 -0.1770  0.0874 -0.3629
  356SOL    HW2 1423   0.753   2.799   0.963 -1.7111  0.1828 -1.3648
  356SOL     MW 1424   0.841   2.800   0.954 -0.3064  0.3551 -0.2996
  357SOL     OW 1425   1.773   2.904   0.368 -0.0766 -0.3777  0.1676
  357SOL    HW1 1426   1.719   2.848   0.424 -0.5019  0.0056  0.2441
  357SOL    HW2 1427   1.853   2.847   0.357  0.3329  0.8792  0.0445
  357SOL     MW 1428   1.776   2.889   0.374 -0.0787 -0.1613  0.1614
  358SOL     OW 1429   0.457   0.154   1.043  0.3681 -0.1310 -0.2706
  358SOL    HW1 1430   0.547   0.141   1.014 -0.9468 -3.1746 -0.9708
  358SOL    HW2 1431   0.413   0.168   0.963  1.4641 -2.4167  2.1541
  358SOL     MW 1432   0.463   0.154   1.029  0.3392 -0.8341 -0.0431
  359SOL     OW 1433   0.853   2.875   1.840 -0.4615 -0.6054 -0.0416
  359SOL    HW1 1434   0.867   2.782   1.842 -1.1603 -1.5764 -0.1886
  359SOL    HW2 1435   0.885   2.902   1.751  0.3400  0.3516 -1.8387
  359SOL     MW 1436   0.859   2.866   1.829 -0.4480 -0.6073 -0.2981
  360SOL     OW 1437   0.575   2.807   0.927  0.2284  0.1363  0.0874
  360SOL    HW1 1438   0.559   2.771   0.840  0.4414  1.5290 -0.2790
  360SOL    HW2 1439   0.564   2.732   0.988  0.4966  1.0084 -1.7811
  360SOL     MW 1440   0.572   2.792   0.924  0.2919  0.4351 -0.2075
  361SOL     OW 1441   0.201   2.633   1.351  0.8591 -0.0974 -0.1881
  361SOL    HW1 1442   0.181   2.709   1.403  1.4693  0.8336 -1.2338
  361SOL    HW2 1443   0.298   2.644   1.339 -1.0240  1.2630 -0.4705
  361SOL     MW 1444   0.211   2.645   1.356  0.6912  0.2050 -0.3633
  362SOL     OW 1445   1.454   2.453   0.646  0.1791  0.0624 -0.1129
  362SOL    HW1 1446   1.482   2.405   0.728  0.6864 -1.3619 -1.8116
  362SOL    HW2 1447   1.523   2.522   0.634 -0.6642 -0.6126  1.8199
  362SOL     MW 1448   1.467   2.456   0.655  0.1348 -0.2146 -0.0820
  363SOL     OW 1449   0.301   3.083   0.685  0.2196  0.6970 -0.1384
  363SOL    HW1 1450   0.296   3.023   0.761  0.0060  1.4528 -3.5197
  363SOL    HW2 1451   0.221   3.080   0.637 -0.1170  0.3607  0.0353
  363SOL     MW 1452   0.290   3.075   0.689  0.1470  0.7523 -0.5616
  364SOL     OW 1453   0.759   0.209   0.228  0.2876  0.4044  0.1510
  364SOL    HW1 1454   0.677   0.156   0.242  1.8441  0.9868  1.4734
  364SOL    HW2 1455   0.733   0.269   0.157  2.4791 -1.7460 -1.3815
  364SOL     MW 1456   0.745   0.210   0.221  0.7822  0.1975  0.1233
  365SOL     OW 1457   0.974   2.029   1.176  0.6811 -0.5330  0.1437
  365SOL    HW1 1458   0.960   2.106   1.124 -0.8231  0.2640 -0.8616
  365SOL    HW2 1459   0.910   1.969   1.129 -0.7651  1.7811 -0.6258
  365SOL     MW 1460   0.964   2.032   1.163  0.2918 -0.1225 -0.0904
  366SOL     OW 1461   2.883   2.688   0.993  0.3689 -0.4106  0.0400
  366SOL    HW1 1462   2.968   2.698   1.041 -1.0800  1.1368 -2.5302
  366SOL    HW2 1463   2.902   2.686   0.897  0.9483  1.0260 -0.7771
  366SOL     MW 1464   2.897   2.689   0.986  0.2542 -0.0169 -0.4069
  367SOL     OW 1465   1.234   2.968   0.903  0.1305 -0.3729  0.1767
  367SOL    HW1 1466   1.270   3.042   0.845  1.2139 -0.6063 -0.7131
  367SOL    HW2 1467   1.213   2.892   0.848  3.5834 -1.6944 -1.6919
  367SOL     MW 1468   1.236   2.968   0.888  0.7290 -0.5781 -0.1872
  368SOL     OW 1469   1.653   0.361   0.743 -0.1596 -0.4975  0.2542
  368SOL    HW1 1470   1.727   0.376   0.684 -0.7298 -1.0846  1.6225
  368SOL    HW2 1471   1.632   0.452   0.767  0.8367  0.1742 -2.3348
  368SOL     MW 1472   1.660   0.375   0.739 -0.1034 -0.4863  0.0931
  369SOL     OW 1473   0.143   2.437   1.794 -0.5203 -0.6625  0.2561
  369SOL    HW1 1474   0.243   2.436   1.802 -1.4875 -1.4814  0.8684
  369SOL    HW2 1475   0.122   2.524   1.766  1.7880 -4.1900  0.1343
  369SOL     MW 1476   0.154   2.448   1.791 -0.3434 -1.2359  0.3208
  370SOL     OW 1477   0.723   0.117   0.967  0.3225  0.9158 -0.1481
  370SOL    HW1 1478   0.753   0.203   0.983 -4.3391 -1.1246 -0.4590
  370SOL    HW2 1479   0.796   0.053   0.982  2.2388 -0.7999 -1.5590
  370SOL     MW 1480   0.737   0.120   0.971 -0.0397  0.4202 -0.3753
  371SOL     OW 1481   1.351   2.914   1.522  0.0566 -0.4212  0.1077
  371SOL    HW1 1482   1.282   2.850   1.502  1.3599 -1.6410  0.9802
  371SOL    HW2 1483   1.351   2.964   1.439 -2.4077 -2.9397  0.9316
  371SOL     MW 1484   1.342   2.913   1.509 -0.0966 -0.9144  0.3315
  372SOL     OW 1485   0.772   2.279   0.477  0.4261 -0.2738  0.8869
  372SOL    HW1 1486   0.778   2.184   0.480  1.3562 -1.6643 -0.7130
  372SOL    HW2 1487   0.777   2.288   0.381  2.8215  0.1002 -3.4720
  372SOL     MW 1488   0.773   2.267   0.465  0.8648 -0.4079  0.1007
  373SOL     OW 1489   2.819   3.019   1.452 -0.0207 -0.0106  0.1056
  373SOL    HW1 1490   2.909   3.026   1.424  0.5966  0.2439 -0.1895
  373SOL    HW2 1491   2.775   3.099   1.430  1.7535 -2.2039  0.8309
  373SOL     MW 1492   2.825   3.031   1.445  0.2949 -0.2664  0.1623
  374SOL     OW 1493   1.519   0.492   0.237 -0.7119  0.7818  0.5190
  374SOL    HW1 1494   1.575   0.443   0.180 -1.5946  2.5754  0.3453
  374SOL    HW2 1495   1.526   0.458   0.328  2.7612  0.9974  2.5027
  374SOL     MW 1496   1.527   0.481   0.242 -0.3701  1.0469  0.7578
  375SOL     OW 1497   0.963   2.116   2.249 -0.2846 -0.1955 -0.3326
  375SOL    HW1 1498   0.999   2.093   2.335 -1.5984 -2.4288  0.1857
  375SOL    HW2 1499   0.929   2.039   2.199 -0.4660 -3.6140 -0.0656
  375SOL     MW 1500   0.963   2.103   2.254 -0.4819 -0.9412 -0.2290
  376SOL     OW 1501   0.787   2.555   0.079  0.9778  0.2222 -0.4615
  376SOL    HW1 1502   0.745   2.515   0.150  0.3584  2.2148  1.1169
  376SOL    HW2 1503   0.758   2.490   0.014 -3.2045 -3.4048 -0.7187
  376SOL     MW 1504   0.778   2.541   0.079  0.3443  0.0066 -0.2872
  377SOL     OW 1505   1.254   2.008   0.854 -0.2741 -0.3081 -0.3373
  377SOL    HW1 1506   1.158   2.007   0.817  0.9352  0.4268 -0.3219
  377SOL    HW2 1507   1.244   1.968   0.940 -0.3985 -1.1255 -2.0057
  377SOL     MW 1508   1.240   2.002   0.861 -0.1310 -0.3190 -0.5554
  378SOL     OW 1509   0.871   2.841   1.578 -0.0035  0.1515  0.3083
  378SOL    HW1 1510   0.875   2.743   1.572  3.6244 -1.0731  1.4375
  378SOL    HW2 1511   0.859   2.889   1.497 -3.7475 -2.2548  0.5615
  378SOL     MW 1512   0.870   2.834   1.567 -0.0188 -0.3276  0.4907
  379SOL     OW 1513   1.158   1.726   2.263 -0.5531 -0.4599 -0.2229
  379SOL    HW1 1514   1.082   1.671   2.266 -0.2511 -0.6332  0.7691
  379SOL    HW2 1515   1.206   1.674   2.196  1.1982 -0.6255 -2.1765
  379SOL     MW 1516   1.154   1.712   2.254 -0.2822 -0.5046 -0.3497
  380SOL     OW 1517   0.831   0.115   1.551  0.3418 -0.0736 -0.8523
  380SOL    HW1 1518   0.849   0.058   1.472  2.2085 -0.6616 -4.4659
  380SOL    HW2 1519   0.914   0.131   1.595  0.4922  1.0798 -0.7576
  380SOL     MW 1520   0.844   0.110   1.547  0.6079  0.0010 -1.3166
  381SOL     OW 1521   0.774   2.010   0.812 -0.4591  0.4991  0.1867
  381SOL    HW1 1522   0.854   2.008   0.759  0.9609 -3.6689 -0.1935
  381SOL    HW2 1523   0.788   2.077   0.885 -0.8836  0.7325  2.3951
  381SOL     MW 1524   0.787   2.018   0.815 -0.3278 -0.0200  0.4279
  382SOL     OW 1525   0.721   0.087   0.670 -0.0002 -0.0426 -1.0086
  382SOL    HW1 1526   0.695   0.115   0.760 -1.7778 -0.1802 -2.4492
  382SOL    HW2 1527   0.696  -0.000   0.646  1.2830  3.7455 -0.8111
  382SOL     MW 1528   0.714   0.079   0.679 -0.0654  0.4391 -1.1726
  383SOL     OW 1529   0.545   0.037   0.264 -0.3483  0.1312  0.3443
  383SOL    HW1 1530   0.568  -0.032   0.200  0.8089  0.8437  0.9634
  383SOL    HW2 1531   0.529  -0.013   0.349  0.2587 -0.9686  1.8576
  383SOL     MW 1532   0.546   0.021   0.267 -0.1156  0.0801  0.6257
  384SOL     OW 1533   0.706   2.917   0.618  0.5222  0.2108 -0.3830
  384SOL    HW1 1534   0.786   2.908   0.674  0.6919  0.6829 -0.7105
  384SOL    HW2 1535   0.647   2.841   0.630 -0.7521 -0.2014  0.3719
  384SOL     MW 1536   0.709   2.906   0.627  0.3764  0.2187 -0.3266
  385SOL     OW 1537   1.398   2.087   1.497  0.1438  0.0047 -0.6070
  385SOL    HW1 1538   1.476   2.128   1.540  1.7732 -3.5514  1.1788
  385SOL    HW2 1539   1.381   2.016   1.555  2.8009  1.3249  1.5567
  385SOL     MW 1540   1.406   2.083   1.510  0.7094 -0.2903 -0.0859
  386SOL     OW 1541   1.271   0.381   0.877 -0.7470 -0.0940  0.0733
  386SOL    HW1 1542   1.220   0.424   0.952 -0.2810  2.2740 -0.6124
  386SOL    HW2 1543   1.302   0.300   0.916 -0.4697 -2.4375 -0.9827
  386SOL     MW 1544   1.268   0.376   0.892 -0.6489 -0.0907 -0.1565
  387SOL     OW 1545   0.846   2.222   1.538 -0.2626 -0.0034  0.3628
  387SOL    HW1 1546   0.912   2.280   1.486 -0.2058  0.6192 -0.9612
  387SOL    HW2 1547   0.846   2.134   1.496 -2.3297 -0.2102  1.5319
  387SOL     MW 1548   0.855   2.218   1.526 -0.5279  0.0515  0.3424
  388SOL     OW 1549   1.531   2.765   1.214 -0.3025  0.5191  0.7146
  388SOL    HW1 1550   1.438   2.782   1.217  1.9855 -1.1300 -0.5069
  388SOL    HW2 1551   1.530   2.689   1.158 -2.2105 -0.3109  0.6359
  388SOL     MW 1552   1.519   2.757   1.207 -0.2523  0.1920  0.5431
  389SOL     OW 1553   0.437   0.136   3.016  0.4631 -0.0519  0.1875
  389SOL    HW1 1554   0.523   0.100   3.037  1.6282  2.5023 -0.5513
  389SOL    HW2 1555   0.447   0.203   2.941 -1.1131 -1.2732  2.6071
  389SOL     MW 1556   0.450   0.140   3.009  0.4088  0.1240  0.4093
  390SOL     OW 1557   1.322   0.074   0.726  0.5432 -0.4027 -0.1073
  390SOL    HW1 1558   1.366   0.086   0.642 -3.2969 -0.4863  0.7978
  390SOL    HW2 1559   1.391   0.097   0.791 -0.9365 -0.8083 -0.7044
  390SOL     MW 1560   1.337   0.079   0.724 -0.1587 -0.4672 -0.0667
  391SOL     OW 1561   0.345   2.233   1.418  0.4741 -0.4677 -0.0434
  391SOL    HW1 1562   0.309   2.146   1.436  0.3405  1.8974 -2.2341
  391SOL    HW2 1563   0.273   2.285   1.447  1.7322  2.2830  2.5262
  391SOL     MW 1564   0.331   2.228   1.424  0.6224  0.2073  0.0066
  392SOL     OW 1565   2.025   2.189   0.330  0.2488 -0.0199  0.3714
  392SOL    HW1 1566   2.116   2.196   0.359  0.0543  0.7360  3.6657
  392SOL    HW2 1567   1.985   2.245   0.394  1.5841 -2.7651  0.9132
  392SOL     MW 1568   2.032   2.197   0.342  0.3993 -0.2824  0.8776
  393SOL     OW 1569   0.286   2.940   2.787  0.5567 -0.6269 -0.1631
  393SOL    HW1 1570   0.370   2.921   2.736 -1.3466 -1.0426  2.0361
  393SOL    HW2 1571   0.290   3.033   2.806 -1.0931 -1.2801  0.5052
  393SOL     MW 1572   0.297   2.950   2.783  0.0879 -0.7679  0.2152
  394SOL     OW 1573   0.888   1.752   1.544  0.0173  0.2995 -0.0063
  394SOL    HW1 1574   0.817   1.763   1.614 -1.0180  2.1296  0.7316
  394SOL    HW2 1575   0.873   1.835   1.487 -0.6438 -0.6168  0.0780
  394SOL     MW 1576   0.877   1.764   1.545 -0.2065  0.4201  0.1022
  395SOL     OW 1577   0.942   2.901   2.659 -0.0210  0.3788 -0.3993
  395SOL    HW1 1578   1.006   2.966   2.688  0.2417 -1.5763 -0.3718
  395SOL    HW2 1579   0.996   2.844   2.603 -1.8029 -0.1073 -1.0612
  395SOL     MW 1580   0.957   2.902   2.656 -0.2214  0.0567 -0.4830
  396SOL     OW 1581   0.706   1.840   2.381 -0.2151 -0.1328 -0.1679
  396SOL    HW1 1582   0.777   1.842   2.448  0.8393 -1.2672  1.2765
  396SOL    HW2 1583   0.685   1.751   2.381  0.2685  1.5905 -0.2913
  396SOL     MW 1584   0.712   1.829   2.390 -0.0122 -0.0551  0.0064
  397SOL     OW 1585   1.029   2.358   1.391  0.4818  0.2492  0.7428
  397SOL    HW1 1586   1.041   2.382   1.298  1.6712 -0.3395 -0.9673
  397SOL    HW2 1587   1.112   2.323   1.418 -1.1256  1.7923 -0.8114
  397SOL     MW 1588   1.041   2.357   1.382  0.4267  0.3751  0.3121
  398SOL     OW 1589   0.571   2.678   0.661  0.3148  0.3884 -0.3218
  398SOL    HW1 1590   0.493   2.623   0.634  0.0399  0.4457  1.1516
  398SOL    HW2 1591   0.644   2.615   0.674 -0.1979  3.3817 -1.7191
  398SOL     MW 1592   0.570   2.663   0.659  0.2109  0.7909 -0.3118
  399SOL     OW 1593   0.228   2.088   0.290  0.5390 -0.1351 -0.0133
  399SOL    HW1 1594   0.148   2.143   0.303 -1.0877 -0.7540  2.1257
  399SOL    HW2 1595   0.239   2.081   0.198 -1.1583  2.5972  2.2470
  399SOL     MW 1596   0.219   2.095   0.279  0.1004  0.1437  0.5672
  400SOL     OW 1597   0.533   1.926   0.090  0.6209 -0.0863 -0.3621
  400SOL    HW1 1598   0.458   1.985   0.068 -1.3335  1.1371 -0.3682
  400SOL    HW2 1599   0.516   1.889   0.177  0.7771  1.1963  0.0011
  400SOL     MW 1600   0.521   1.929   0.098  0.3836  0.2444 -0.3150
  401SOL     OW 1601   0.781   2.044   0.058  0.0558  0.1474  0.3751
  401SOL    HW1 1602   0.841   1.972   0.085 -0.9023  0.5765 -2.8902
  401SOL    HW2 1603   0.686   2.015   0.062  0.0875 -2.2904 -0.4509
  401SOL     MW 1604   0.776   2.030   0.062 -0.0664 -0.1176 -0.1647
  402SOL     OW 1605   0.612   2.950   1.740 -0.2420 -0.0466  0.3539
  402SOL    HW1 1606   0.683   2.912   1.785  0.5240 -0.3104  1.4644
  402SOL    HW2 1607   0.638   3.041   1.721 -0.3289  0.8229 -1.8942
  402SOL     MW 1608   0.625   2.957   1.743 -0.1524  0.0333  0.2038
  403SOL     OW 1609   0.088   0.409   0.401 -0.1724  0.1392  0.0618
  403SOL    HW1 1610   0.163   0.462   0.433 -1.8930  1.3490 -1.3531
  403SOL    HW2 1611   0.112   0.382   0.314  0.2949 -1.6912  0.4256
  403SOL     MW 1612   0.101   0.413   0.394 -0.3377  0.0573 -0.0768
  404SOL     OW 1613   0.945   2.899   0.748 -0.5253  0.0706 -0.3895
  404SOL    HW1 1614   1.021   2.849   0.712  1.2525 -1.3701  1.0572
  404SOL    HW2 1615   0.975   2.993   0.755  0.9898  0.6690 -0.3272
  404SOL     MW 1616   0.959   2.904   0.744 -0.0909 -0.0406 -0.1904
  405SOL     OW 1617   0.558   2.425   1.543  0.0937 -0.2279 -0.1253
  405SOL    HW1 1618   0.562   2.490   1.474  2.9393 -1.2404 -2.2773
  405SOL    HW2 1619   0.489   2.364   1.524  1.1056  0.9492  0.8842
  405SOL     MW 1620   0.549   2.425   1.532  0.6027 -0.2062 -0.2761
  406SOL     OW 1621   0.349   2.410   1.063 -0.5737  0.2229  0.4361
  406SOL    HW1 1622   0.257   2.432   1.087 -2.0560 -0.2798 -0.4397
  406SOL    HW2 1623   0.369   2.328   1.112 -1.2812 -0.5041 -0.7596
  406SOL     MW 1624   0.340   2.402   1.073 -0.8626  0.0606  0.1628
  407SOL     OW 1625   0.018   2.706   1.143 -0.1262  0.5048 -0.3997
  407SOL    HW1 1626   0.077   2.675   1.220 -1.6969 -0.0530  3.9124
  407SOL    HW2 1627   0.080   2.712   1.064  0.8493  0.5541 -0.0478
  407SOL     MW 1628   0.034   2.702   1.142 -0.2047  0.4377  0.2157
  408SOL     OW 1629   2.156   2.155   0.611  0.0295 -0.6543 -0.3049
  408SOL    HW1 1630   2.094   2.165   0.685  1.9595  3.5996 -0.8664
  408SOL    HW2 1631   2.111   2.087   0.560 -2.6824 -0.3275 -1.2084
  408SOL     MW 1632   2.142   2.147   0.614 -0.0736 -0.0499 -0.4982
  409SOL     OW 1633   1.462   0.140   0.951  0.8862  0.3142  0.3506
  409SOL    HW1 1634   1.544   0.186   0.946  0.5174 -1.4997  3.3318
  409SOL    HW2 1635   1.484   0.056   0.996  2.9665  1.2775  1.9563
  409SOL     MW 1636   1.475   0.135   0.956  1.1120  0.2020  0.9558
  410SOL     OW 1637   1.089   2.437   1.136  0.2033 -0.3042  0.1651
  410SOL    HW1 1638   1.031   2.508   1.098 -2.7628  1.9387  1.4984
  410SOL    HW2 1639   1.117   2.374   1.067 -1.0075  1.9723 -0.2651
  410SOL     MW 1640   1.085   2.438   1.122 -0.3478  0.2921  0.2842
  411SOL     OW 1641   1.952   0.069   2.864 -0.4181 -0.0002  0.0456
  411SOL    HW1 1642   1.896   0.037   2.797  0.2899  1.3964  0.4655
  411SOL    HW2 1643   1.899   0.081   2.941  2.6898  1.0550 -0.5502
  411SOL     MW 1644   1.938   0.066   2.865  0.0854  0.3233  0.0224
  412SOL     OW 1645   1.057   2.265   0.561  0.0220 -0.4372 -0.1251
  412SOL    HW1 1646   1.114   2.337   0.598 -1.3513  0.4391 -0.4670
  412SOL    HW2 1647   0.989   2.295   0.509 -2.2775 -2.4309 -2.1923
  412SOL     MW 1648   1.056   2.278   0.559 -0.4626 -0.5846 -0.4429
  413SOL     OW 1649   0.545   2.717   3.065 -0.4286  0.0731  0.0321
  413SOL    HW1 1650   0.608   2.649   3.095  0.0689 -3.8272 -0.0127
  413SOL    HW2 1651   0.574   2.750   2.979  1.4960  2.7935 -3.2202
  413SOL     MW 1652   0.558   2.713   3.058 -0.1090 -0.0826 -0.4030
  414SOL     OW 1653   1.945   2.972   1.121  1.0649  0.0713  0.5059
  414SOL    HW1 1654   1.893   3.052   1.128 -0.5949  1.6572  0.7805
  414SOL    HW2 1655   1.996   2.989   1.040  3.1732  1.9339  0.4630
  414SOL     MW 1656   1.945   2.985   1.111  1.1241  0.5263  0.5364
  415SOL     OW 1657   1.841   2.712   1.066 -0.6083 -0.4330  0.2133
  415SOL    HW1 1658   1.773   2.701   1.132  0.8775  0.8054  0.5189
  415SOL    HW2 1659   1.870   2.801   1.066 -1.5207 -0.0483 -2.0086
  415SOL     MW 1660   1.836   2.722   1.075 -0.5326 -0.2188 -0.0396
  416SOL     OW 1661   0.576   1.971   1.341  0.0074  0.2577  0.1459
  416SOL    HW1 1662   0.561   2.041   1.283  0.1121 -0.4494 -2.0282
  416SOL    HW2 1663   0.559   1.900   1.278 -0.2113 -2.2323 -0.9829
  416SOL     MW 1664   0.571   1.971   1.325 -0.0076 -0.1641 -0.2899
  417SOL     OW 1665   0.986   3.003   2.054  0.2174 -0.2960 -0.0346
  417SOL    HW1 1666   0.925   3.023   2.132  0.1073  1.5283  4.0621
  417SOL    HW2 1667   0.922   2.960   1.997 -0.4041  0.6656 -0.7376
  417SOL     MW 1668   0.970   3.000   2.057  0.1208  0.0716  0.4132
  418SOL     OW 1669   0.657   2.929   0.112 -0.0371 -0.2215  0.2577
  418SOL    HW1 1670   0.737   2.918   0.057  0.6239 -0.4190 -0.0287
  418SOL    HW2 1671   0.601   2.852   0.083 -2.7461  0.0894  2.0000
  418SOL     MW 1672   0.660   2.918   0.101 -0.3073 -0.2065  0.4498
  419SOL     OW 1673   0.491   2.623   1.334 -0.5279  0.0628 -0.3876
  419SOL    HW1 1674   0.531   2.680   1.398  0.0931  1.7709 -3.6587
  419SOL    HW2 1675   0.535   2.653   1.255  0.8416  0.5937  1.5764
  419SOL     MW 1676   0.502   2.635   1.332 -0.2652  0.3582 -0.5601
  420SOL     OW 1677   0.853   2.218   1.034 -0.3520 -0.3002  0.5152
  420SOL    HW1 1678   0.798   2.253   1.102 -2.4258  0.3581 -1.8106
  420SOL    HW2 1679   0.891   2.293   0.993 -1.5735 -3.5434 -0.0384
  420SOL     MW 1680   0.851   2.232   1.038 -0.7868 -0.6413  0.1353
  421SOL     OW 1681   2.972   0.214   3.056  0.9471  0.3540  0.0849
  421SOL    HW1 1682   2.888   0.184   3.026  0.6648 -2.2388 -2.2312
  421SOL    HW2 1683   3.012   0.130   3.059 -1.8289  0.5381 -1.0389
  421SOL     MW 1684   2.966   0.199   3.052  0.5436  0.0362 -0.3689
  422SOL     OW 1685   0.891   2.523   0.936 -0.1567 -0.6754 -0.2426
  422SOL    HW1 1686   0.867   2.614   0.952 -0.5663  1.4566 -1.0459
  422SOL    HW2 1687   0.869   2.507   0.843  0.8797 -0.5209  0.5075
  422SOL     MW 1688   0.885   2.533   0.926 -0.0740 -0.3737 -0.2496
  423SOL     OW 1689   1.443   0.102   0.465 -0.0980  0.2337  0.3166
  423SOL    HW1 1690   1.463   0.079   0.377 -0.9207 -1.4442 -0.2516
  423SOL    HW2 1691   1.438   0.192   0.461 -0.4420  0.8269 -0.1476
  423SOL     MW 1692   1.445   0.111   0.453 -0.2520  0.0906  0.1803
  424SOL     OW 1693   0.674   2.314   1.238 -0.2298 -0.2233  0.6943
  424SOL    HW1 1694   0.588   2.270   1.215 -0.3711  2.4341  1.7850
  424SOL    HW2 1695   0.694   2.275   1.324  0.1326 -2.1746 -1.3366
  424SOL     MW 1696   0.666   2.303   1.246 -0.2006 -0.1301  0.5703
  425SOL     OW 1697   1.720   2.792   2.030  0.1055 -0.6096 -0.0141
  425SOL    HW1 1698   1.699   2.810   1.931 -1.9963  3.1538  1.3500
  425SOL    HW2 1699   1.747   2.704   2.051  1.1888  0.4710  0.3359
  425SOL     MW 1700   1.721   2.783   2.020 -0.0289  0.0295  0.2121
  426SOL     OW 1701   0.825   1.668   1.956 -0.0137 -0.3604 -0.4212
  426SOL    HW1 1702   0.784   1.693   1.872  0.5533 -0.8679  1.0706
  426SOL    HW2 1703   0.820   1.750   2.004  3.6703 -0.5338 -1.9431
  426SOL     MW 1704   0.819   1.682   1.951  0.5472 -0.4502 -0.4252
  427SOL     OW 1705   0.400   1.671   1.878  0.1272 -0.0682 -0.2248
  427SOL    HW1 1706   0.424   1.617   1.798 -1.0972 -0.2865 -3.2185
  427SOL    HW2 1707   0.322   1.636   1.919 -1.3803  0.4831 -1.3386
  427SOL     MW 1708   0.393   1.659   1.873 -0.2332 -0.0243 -0.7667
  428SOL     OW 1709   0.568   2.550   1.035 -0.6581 -0.3250 -0.7053
  428SOL    HW1 1710   0.620   2.470   1.011  1.2426 -0.8655  1.7352
  428SOL    HW2 1711   0.473   2.523   1.050 -1.7675  0.8499 -1.1233
  428SOL     MW 1712   0.562   2.536   1.033 -0.5537 -0.2413 -0.4384
  429SOL     OW 1713   1.250   2.802   1.134 -0.0355  0.5073 -0.4078
  429SOL    HW1 1714   1.163   2.796   1.169  2.5312 -1.2914  2.0387
  429SOL    HW2 1715   1.249   2.872   1.069 -0.8649  0.9689 -0.1696
  429SOL     MW 1716   1.238   2.811   1.130  0.1937  0.3309 -0.0536
  430SOL     OW 1717   1.159   2.717   0.715 -0.2115  0.0474 -0.3895
  430SOL    HW1 1718   1.151   2.631   0.751  0.3781 -0.2735  1.7780
  430SOL    HW2 1719   1.130   2.688   0.632  3.9771 -0.9657  2.2727
  430SOL     MW 1720   1.154   2.702   0.709  0.4189 -0.1286  0.2477
  431SOL     OW 1721   0.350   1.954   1.019 -0.7383  0.1758 -0.4070
  431SOL    HW1 1722   0.384   1.866   1.022 -0.2320  2.9604 -0.5701
  431SOL    HW2 1723   0.289   1.968   0.944  1.7995 -0.2214 -0.4805
  431SOL     MW 1724   0.347   1.944   1.010 -0.3367  0.4908 -0.4382
  432SOL     OW 1725   0.087   0.047   1.196 -0.2734  0.4398 -0.3918
  432SOL    HW1 1726   0.073   0.085   1.283 -2.6035 -3.2480 -1.4300
  432SOL    HW2 1727   0.029  -0.028   1.195  1.2088  2.1971 -0.7422
  432SOL     MW 1728   0.078   0.042   1.208 -0.3853  0.1851 -0.5750
  433SOL     OW 1729   0.609   2.809   1.509  0.2659  0.3783 -0.2005
  433SOL    HW1 1730   0.572   2.861   1.585 -0.5743 -1.5382  0.3332
  433SOL    HW2 1731   0.696   2.792   1.549  2.4563 -1.2092  0.6949
  433SOL     MW 1732   0.616   2.814   1.524  0.4440 -0.0840 -0.0119
  434SOL     OW 1733   1.599   2.803   1.530 -0.2355 -0.6335  0.1860
  434SOL    HW1 1734   1.520   2.808   1.475 -0.0653 -0.1435 -0.9757
  434SOL    HW2 1735   1.657   2.741   1.480 -1.5289 -0.7762 -0.1436
  434SOL     MW 1736   1.597   2.796   1.516 -0.3837 -0.5877 -0.0107
  435SOL     OW 1737   2.832   1.791   0.177 -0.5343  0.0097 -0.3596
  435SOL    HW1 1738   2.905   1.853   0.164 -0.8859  1.0495  0.6747
  435SOL    HW2 1739   2.791   1.770   0.086 -0.7778  0.5475  1.1975
  435SOL     MW 1740   2.836   1.796   0.163 -0.6128  0.2178 -0.0177
  436SOL     OW 1741   1.401   2.670   0.444  0.4412  0.1055 -0.6767
  436SOL    HW1 1742   1.443   2.658   0.528 -2.2135  0.1380  1.2018
  436SOL    HW2 1743   1.355   2.751   0.436 -0.6069  2.3730 -0.1782
  436SOL     MW 1744   1.401   2.679   0.454 -0.0474  0.4089 -0.3630
  437SOL     OW 1745   0.879   2.995   1.351  0.3442  0.2698 -0.0219
  437SOL    HW1 1746   0.956   3.052   1.337  0.5943 -0.5663  0.1161
  437SOL    HW2 1747   0.903   2.929   1.285 -0.2459  1.5817 -3.0820
  437SOL     MW 1748   0.892   2.994   1.341  0.2994  0.3326 -0.4074
  438SOL     OW 1749   0.808   2.599   1.857 -0.0432 -0.4334 -0.1692
  438SOL    HW1 1750   0.820   2.603   1.952  0.4889  0.4361  0.8372
  438SOL    HW2 1751   0.799   2.507   1.832 -0.5224  3.0076 -1.7154
  438SOL     MW 1752   0.808   2.587   1.866 -0.0363  0.1353 -0.2404
  439SOL     OW 1753   1.237   2.140   0.402 -0.2701 -0.7140 -0.0233
  439SOL    HW1 1754   1.174   2.171   0.467  0.1175 -2.0879 -1.0542
  439SOL    HW2 1755   1.208   2.192   0.325  1.2996  2.1361  1.1216
  439SOL     MW 1756   1.225   2.151   0.400 -0.0119 -0.5192 -0.0083
  440SOL     OW 1757   1.754   3.017   3.062 -0.1450 -0.1278 -0.1553
  440SOL    HW1 1758   1.705   2.959   3.124  0.0737 -0.6440  2.5446
  440SOL    HW2 1759   1.837   2.974   3.056 -1.9470 -1.8072  1.1154
  440SOL     MW 1760   1.758   3.004   3.070 -0.3539 -0.4175  0.3686
  441SOL     OW 1761   0.339   2.654   0.471  0.3454  0.1673  0.9232
  441SOL    HW1 1762   0.353   2.611   0.382  0.4885  0.0077 -2.6690
  441SOL    HW2 1763   0.388   2.736   0.460 -0.3490 -1.4375 -1.3641
  441SOL     MW 1764   0.347   2.659   0.458  0.2727 -0.0655  0.1475
  442SOL     OW 1765   3.100   2.393   0.634 -0.5578 -0.4174  0.1608
  442SOL    HW1 1766   3.115   2.481   0.600 -1.0847  3.4323 -0.9040
  442SOL    HW2 1767   3.009   2.397   0.662  0.0386 -2.4822 -0.9932
  442SOL     MW 1768   3.090   2.405   0.633 -0.5486 -0.1819 -0.1319
  443SOL     OW 1769   1.435   1.780   1.937  0.0594 -0.5306 -0.0968
  443SOL    HW1 1770   1.401   1.770   1.849 -0.5278 -1.6615 -0.1327
  443SOL    HW2 1771   1.409   1.703   1.983  2.9602  0.9677  1.9760
  443SOL     MW 1772   1.427   1.769   1.932  0.3647 -0.4821  0.1720
  444SOL     OW 1773   0.850   2.576   1.567  0.0608  0.0809  0.9748
  444SOL    HW1 1774   0.923   2.544   1.623 -0.0792  0.4181 -2.1209
  444SOL    HW2 1775   0.769   2.536   1.599  0.0297 -1.7087 -0.3177
  444SOL     MW 1776   0.849   2.566   1.579  0.0382 -0.1107  0.3958
  445SOL     OW 1777   1.090   0.079   1.323  0.7352 -0.0005 -0.1737
  445SOL    HW1 1778   1.045   0.164   1.323  0.1400  1.2063 -2.8271
  445SOL    HW2 1779   1.101   0.057   1.229 -1.9089  0.6079 -0.1780
  445SOL     MW 1780   1.085   0.087   1.311  0.3078  0.2390 -0.5244
  446SOL     OW 1781   2.751   2.898   1.103  0.2081 -0.4365 -0.2398
  446SOL    HW1 1782   2.694   2.933   1.035  1.8550 -0.9983  0.0440
  446SOL    HW2 1783   2.802   2.834   1.052  1.5313 -1.9542 -1.1773
  446SOL     MW 1784   2.750   2.894   1.087  0.6000 -0.7109 -0.3261
  447SOL     OW 1785   0.062   1.996   1.639  0.0548 -0.2551  0.0308
  447SOL    HW1 1786   0.113   1.921   1.675  0.9165  0.4760 -1.2984
  447SOL    HW2 1787  -0.027   1.968   1.604 -2.4170  0.1171  2.5410
  447SOL     MW 1788   0.057   1.982   1.639 -0.1576 -0.1095  0.1866
  448SOL     OW 1789   1.726   2.419   1.642 -0.7481 -0.1734  0.3196
  448SOL    HW1 1790   1.700   2.324   1.632 -0.0133  0.6014 -0.5783
  448SOL    HW2 1791   1.646   2.473   1.636  0.2567 -2.6264  1.4181
  448SOL     MW 1792   1.712   2.414   1.640 -0.5186 -0.3948  0.3461
  449SOL     OW 1793   0.828   2.894   0.351  0.0798  0.2628  0.3462
  449SOL    HW1 1794   0.763   2.903   0.284 -1.2855 -2.4253  0.5185
  449SOL    HW2 1795   0.790   2.892   0.444 -1.0129 -2.1097 -0.6637
  449SOL     MW 1796   0.815   2.895   0.354 -0.2445 -0.4049  0.2357
  450SOL     OW 1797   1.187   2.443   0.711 -0.1220 -0.2946 -0.0022
  450SOL    HW1 1798   1.176   2.405   0.803 -0.7401 -0.6492  3.0320
  450SOL    HW2 1799   1.277   2.448   0.686 -0.4247  0.5304 -1.3112
  450SOL     MW 1800   1.198   2.439   0.720 -0.2435 -0.2325  0.2254
  451SOL     OW 1801   0.546   2.050   1.628  0.1441 -0.5800  0.2331
  451SOL    HW1 1802   0.611   2.123   1.622 -2.1166  1.9219  1.7748
  451SOL    HW2 1803   0.519   2.017   1.539 -0.3766 -0.6287  0.3020
  451SOL     MW 1804   0.551   2.055   1.616 -0.2229 -0.2563  0.4456
  452SOL     OW 1805   0.285   2.679   0.039 -0.0108 -0.2050  0.1431
  452SOL    HW1 1806   0.366   2.718   0.014 -0.5088  1.3659  4.2342
  452SOL    HW2 1807   0.221   2.734  -0.002 -0.3556 -3.8977  1.7472
  452SOL     MW 1808   0.287   2.691   0.031 -0.1220 -0.4850  0.8945
  453SOL     OW 1809   0.337   2.983   1.621 -0.3806 -0.0758 -0.7046
  453SOL    HW1 1810   0.395   2.928   1.679  1.7366 -0.5979 -0.7215
  453SOL    HW2 1811   0.395   3.011   1.547 -0.4688 -0.8102  0.7206
  453SOL     MW 1812   0.352   2.980   1.619 -0.1129 -0.2416 -0.5188
  454SOL     OW 1813   0.969   2.757   1.224 -0.3791 -0.3407  0.1096
  454SOL    HW1 1814   0.913   2.673   1.218  0.3719 -1.5276  3.7398
  454SOL    HW2 1815   0.965   2.794   1.136  0.1065 -0.1269 -0.9665
  454SOL     MW 1816   0.961   2.751   1.212 -0.2160 -0.4691  0.4466
  455SOL     OW 1817   1.607   2.889   0.161 -0.1666 -1.0696 -0.1918
  455SOL    HW1 1818   1.678   2.895   0.230  0.6899  0.9725  0.3388
  455SOL    HW2 1819   1.564   2.803   0.176  2.0258 -1.3564  2.4062
  455SOL     MW 1820   1.611   2.878   0.172  0.2357 -0.8380  0.2210
  456SOL     OW 1821   2.737   0.360   1.493  0.1511  0.5344  0.7867
  456SOL    HW1 1822   2.724   0.278   1.445 -0.2183 -2.6136 -1.9189
  456SOL    HW2 1823   2.805   0.418   1.450 -3.6365  0.9775  0.1850
  456SOL     MW 1824   2.745   0.357   1.481 -0.3974  0.1775  0.3503
  457SOL     OW 1825   0.932   1.557   2.984 -0.9200  0.5486  0.8345
  457SOL    HW1 1826   0.847   1.551   3.037 -2.6296 -0.5215  3.0344
  457SOL    HW2 1827   0.990   1.481   2.991  0.2809  3.6293  2.4481
  457SOL     MW 1828   0.929   1.546   2.992 -0.9871  0.8139  1.3376
  458SOL     OW 1829   1.386   1.474   0.570 -0.7417  0.0530 -0.0330
  458SOL    HW1 1830   1.330   1.555   0.570  1.5579  1.9323 -0.2924
  458SOL    HW2 1831   1.360   1.424   0.491 -1.0267  0.5337 -1.4473
  458SOL     MW 1832   1.375   1.478   0.559 -0.4759  0.3644 -0.2538
  459SOL     OW 1833   1.484   0.032   0.197 -0.2061 -0.0768  0.3920
  459SOL    HW1 1834   1.505  -0.063   0.202 -0.8402 -1.2995 -1.1118
  459SOL    HW2 1835   1.403   0.038   0.148 -0.3730 -1.4827 -0.7488
  459SOL     MW 1836   1.476   0.020   0.191 -0.3118 -0.4236  0.0431
  460SOL     OW 1837   1.762   2.133   0.604 -0.2550 -0.9042  0.2173
  460SOL    HW1 1838   1.691   2.136   0.672 -0.3728  1.8849  0.1696
  460SOL    HW2 1839   1.795   2.042   0.599  0.6337 -0.6182  1.7102
  460SOL     MW 1840   1.757   2.122   0.613 -0.1533 -0.4985  0.4080
  461SOL     OW 1841   0.378   2.379   0.570  0.4336  0.3379 -0.1074
  461SOL    HW1 1842   0.375   2.452   0.514  2.0532 -1.2380  0.7439
  461SOL    HW2 1843   0.327   2.402   0.648 -4.6241  1.7244 -1.7627
  461SOL     MW 1844   0.371   2.392   0.573 -0.0200  0.3129 -0.2134
  462SOL     OW 1845   0.352   0.267   1.288 -1.3276 -0.3594  0.2160
  462SOL    HW1 1846   0.339   0.194   1.223 -1.8604  0.0805  0.2322
  462SOL    HW2 1847   0.447   0.285   1.279 -0.6349 -0.0053  0.5587
  462SOL     MW 1848   0.363   0.260   1.278 -1.3065 -0.2546  0.2634
  463SOL     OW 1849   0.999   0.080   0.684 -0.2167  0.0461  0.3124
  463SOL    HW1 1850   1.023   0.094   0.592 -1.9951  1.0440  1.8972
  463SOL    HW2 1851   0.905   0.098   0.678  2.1907 -0.0058  0.4193
  463SOL     MW 1852   0.990   0.084   0.671 -0.1337  0.1709  0.5356
  464SOL     OW 1853   0.799   3.071   2.284 -0.7165  0.3795 -0.1556
  464SOL    HW1 1854   0.803   2.977   2.267  0.2138  1.5021  0.6481
  464SOL    HW2 1855   0.792   3.074   2.380  1.8095  0.5309 -3.0770
  464SOL     MW 1856   0.799   3.059   2.295 -0.2605  0.5476 -0.4350
  465SOL     OW 1857   0.761   0.294   0.499  1.0056 -0.1706 -0.1720
  465SOL    HW1 1858   0.723   0.222   0.556 -1.2999  0.7666 -0.6664
  465SOL    HW2 1859   0.751   0.278   0.404  1.7340  1.8480  1.3521
  465SOL     MW 1860   0.755   0.283   0.494  0.7976  0.2194 -0.0362
  466SOL     OW 1861   1.030   2.010   0.706 -0.3542  0.7109  0.0532
  466SOL    HW1 1862   1.023   1.927   0.659 -1.7133  0.3287  1.0754
  466SOL    HW2 1863   1.049   2.080   0.640 -0.6256  0.8731 -0.3183
  466SOL     MW 1864   1.032   2.009   0.691 -0.5693  0.6819  0.1390
  467SOL     OW 1865   1.218   2.266   0.933 -0.1236  0.4772  0.1726
  467SOL    HW1 1866   1.310   2.296   0.933  0.5422  0.8710 -0.8349
  467SOL    HW2 1867   1.224   2.172   0.917  0.4543 -0.8806  0.6289
  467SOL     MW 1868   1.231   2.257   0.931  0.0405  0.3500  0.0999
  468SOL     OW 1869   0.384   2.630   2.017  0.4082  0.3533 -0.3692
  468SOL    HW1 1870   0.403   2.589   1.932 -1.1937  0.8126  1.5202
  468SOL    HW2 1871   0.290   2.659   2.009  1.6684 -3.1579 -2.2946
  468SOL     MW 1872   0.374   2.628   2.005  0.3631 -0.0494 -0.3740
  469SOL     OW 1873   0.370   2.166   1.821  0.2609 -0.3106  0.3289
  469SOL    HW1 1874   0.317   2.097   1.862 -0.1917 -0.8858  0.7663
  469SOL    HW2 1875   0.425   2.117   1.752  0.1716 -1.4840  1.6533
  469SOL     MW 1876   0.370   2.150   1.817  0.1894 -0.5413  0.5614
  470SOL     OW 1877   3.030   2.626   0.114  0.1745  0.6648  0.6025
  470SOL    HW1 1878   2.966   2.614   0.180 -0.1542 -0.7355  1.1982
  470SOL    HW2 1879   2.985   2.635   0.024 -1.4450  0.5534  0.9427
  470SOL     MW 1880   3.015   2.626   0.111 -0.0825  0.4654  0.7260
  471SOL     OW 1881   1.188   2.681   1.450 -0.0144 -0.1753 -0.0432
  471SOL    HW1 1882   1.161   2.651   1.533  1.3233 -1.4121 -2.5906
  471SOL    HW2 1883   1.110   2.710   1.405 -1.7556 -4.7283 -1.5321
  471SOL     MW 1884   1.174   2.681   1.455 -0.0676 -0.9392 -0.5758
  472SOL     OW 1885   2.852   2.099   0.324 -0.0931  0.5891 -0.2602
  472SOL    HW1 1886   2.912   2.030   0.283 -0.8491 -1.2064 -1.7655
  472SOL    HW2 1887   2.802   2.038   0.377  0.1828  0.5302 -0.4344
  472SOL     MW 1888   2.853   2.082   0.326 -0.1565  0.3444 -0.4818
  473SOL     OW 1889   0.843   2.533   1.263 -0.1185  0.7436 -0.1829
  473SOL    HW1 1890   0.783   2.458   1.238  0.1809  0.0688 -0.8522
  473SOL    HW2 1891   0.856   2.528   1.356  0.5844 -3.5182 -0.4644
  473SOL     MW 1892   0.837   2.523   1.272  0.0137  0.0923 -0.3084
  474SOL     OW 1893   0.870   2.098   1.800  0.2699 -0.6479 -0.0957
  474SOL    HW1 1894   0.949   2.141   1.827 -1.4559 -0.4067  1.9104
  474SOL    HW2 1895   0.866   2.107   1.704 -2.4247 -1.8541  0.8988
  474SOL     MW 1896   0.880   2.105   1.791 -0.3133 -0.7752  0.3002
  475SOL     OW 1897   1.635   3.057   1.460  0.0992  0.1993 -0.6227
  475SOL    HW1 1898   1.548   3.083   1.412  0.6796 -0.9628 -3.7126
  475SOL    HW2 1899   1.612   2.975   1.507 -1.8345 -0.3023  0.5545
  475SOL     MW 1900   1.621   3.049   1.460 -0.0794 -0.0202 -0.8751
  476SOL     OW 1901   1.433   2.600   1.007  0.0648  0.1290  0.4532
  476SOL    HW1 1902   1.357   2.633   1.059 -1.0152 -1.4756  3.4111
  476SOL    HW2 1903   1.461   2.666   0.946 -0.4884 -1.6233  2.0210
  476SOL     MW 1904   1.427   2.613   1.006 -0.1507 -0.3139  1.0503
  477SOL     OW 1905   0.794   2.514   0.683  0.4637 -0.0075  0.4013
  477SOL    HW1 1906   0.850   2.559   0.618  2.0385  0.3075 -0.2801
  477SOL    HW2 1907   0.777   2.425   0.648  3.4698 -0.6228 -2.9266
  477SOL     MW 1908   0.799   2.508   0.670  1.0681 -0.0471 -0.1277
  478SOL     OW 1909   0.181   2.716   0.925  0.2335 -0.6743 -0.1928
  478SOL    HW1 1910   0.246   2.787   0.918  3.0597  2.5193  2.1070
  478SOL    HW2 1911   0.209   2.647   0.871 -3.3620  0.7057 -0.2663
  478SOL     MW 1912   0.193   2.716   0.917  0.1320 -0.0708  0.1009
  479SOL     OW 1913   1.458   1.994   1.250  0.3141  0.2646 -0.5255
  479SOL    HW1 1914   1.425   2.024   1.337 -0.9856 -1.1487  1.2024
  479SOL    HW2 1915   1.498   1.907   1.264  1.8193 -0.6896  1.1546
  479SOL     MW 1916   1.459   1.986   1.264  0.3412 -0.0477 -0.0758
  480SOL     OW 1917   1.872   2.419   1.264 -0.1679  0.2881 -0.4737
  480SOL    HW1 1918   1.864   2.325   1.286 -0.9600  0.0844  2.6004
  480SOL    HW2 1919   1.921   2.417   1.183  2.0003 -1.7521 -1.3096
  480SOL     MW 1920   1.877   2.406   1.256  0.0137 -0.0079 -0.1784
  481SOL     OW 1921   1.007   0.023   0.959  0.2489 -0.4475 -0.0040
  481SOL    HW1 1922   1.081  -0.029   0.930 -0.5933 -1.1789 -0.7600
  481SOL    HW2 1923   1.050   0.110   0.970  1.3412 -0.0423 -0.3036
  481SOL     MW 1924   1.023   0.027   0.957  0.2819 -0.4905 -0.1432
  482SOL     OW 1925   1.063   3.043   0.264  0.5727  0.7782 -0.0799
  482SOL    HW1 1926   0.994   2.984   0.289  0.3918  2.0828  1.0272
  482SOL    HW2 1927   1.038   3.122   0.310 -0.0460 -2.3231  3.9579
  482SOL     MW 1928   1.051   3.046   0.274  0.4672  0.5412  0.5989
  483SOL     OW 1929   0.425   2.915   0.452 -0.0465  0.7420 -0.4602
  483SOL    HW1 1930   0.357   2.927   0.383  1.2541  0.2563 -0.7639
  483SOL    HW2 1931   0.404   2.976   0.523  1.5263 -0.5886  1.1650
  483SOL     MW 1932   0.413   2.925   0.453  0.3326  0.5023 -0.2858
  484SOL     OW 1933   1.737   1.883   1.408  0.8477  0.0453  0.5970
  484SOL    HW1 1934   1.748   1.977   1.395  2.7434 -0.4182  0.9973
  484SOL    HW2 1935   1.712   1.879   1.501 -0.6582  3.1571  0.7496
  484SOL     MW 1936   1.735   1.895   1.419  0.8992  0.3947  0.6700
  485SOL     OW 1937   0.517   2.331   0.229 -1.0404 -0.6781 -0.3752
  485SOL    HW1 1938   0.517   2.280   0.309 -1.5842 -1.8094  2.7809
  485SOL    HW2 1939   0.434   2.382   0.236 -1.1484 -4.9654  1.8994
  485SOL     MW 1940   0.506   2.331   0.240 -1.1264 -1.3930  0.3413
  486SOL     OW 1941   0.147   2.384   1.539 -0.3846  0.0019 -0.2529
  486SOL    HW1 1942   0.180   2.466   1.498 -0.7696 -0.5674  3.1460
  486SOL    HW2 1943   0.146   2.396   1.638  0.3863  0.8525  0.1819
  486SOL     MW 1944   0.151   2.396   1.547 -0.3337  0.0390  0.2529
  487SOL     OW 1945   1.279   1.662   1.025 -0.9147  0.1869 -0.0548
  487SOL    HW1 1946   1.285   1.754   1.053 -0.9929  2.2982  1.0296
  487SOL    HW2 1947   1.362   1.638   0.973  1.3900 -2.9869 -2.4728
  487SOL     MW 1948   1.291   1.671   1.022 -0.6209  0.0467 -0.2307
  488SOL     OW 1949   1.681   1.852   0.531 -0.3551  0.2100 -0.9348
  488SOL    HW1 1950   1.761   1.842   0.475  2.9339  1.6593 -2.8139
  488SOL    HW2 1951   1.625   1.924   0.500  1.8303  0.1259  2.1537
  488SOL     MW 1952   1.684   1.860   0.520  0.3672  0.3901 -0.7752
  489SOL     OW 1953   0.671   0.779   0.601  0.6969 -0.4217  0.1714
  489SOL    HW1 1954   0.733   0.718   0.557  0.7217 -0.5796 -2.8797
  489SOL    HW2 1955   0.668   0.768   0.696 -0.6609 -1.4403 -1.3476
  489SOL     MW 1956   0.679   0.769   0.608  0.5210 -0.5769 -0.4316
  490SOL     OW 1957   1.506   2.047   0.443 -0.1689 -0.0513  0.7094
  490SOL    HW1 1958   1.531   2.136   0.424  1.5810 -0.1718  0.9171
  490SOL    HW2 1959   1.408   2.049   0.448  2.4421 -0.2861  1.6391
  490SOL     MW 1960   1.496   2.059   0.441  0.4065 -0.0982  0.8594
  491SOL     OW 1961   1.265   2.930   0.428  0.9648 -0.2050 -0.6765
  491SOL    HW1 1962   1.296   2.989   0.496  1.3325 -2.9748  0.0121
  491SOL    HW2 1963   1.207   2.978   0.368 -1.1192 -1.2299 -1.3679
  491SOL     MW 1964   1.262   2.944   0.429  0.7384 -0.7057 -0.6769
  492SOL     OW 1965   1.520   2.092   0.732  0.1626 -0.0385 -0.4992
  492SOL    HW1 1966   1.495   2.072   0.640 -0.0780 -3.3661 -1.3751
  492SOL    HW2 1967   1.448   2.041   0.780  0.5664  0.4211  0.6338
  492SOL     MW 1968   1.507   2.082   0.726  0.1841 -0.4169 -0.4653
  493SOL     OW 1969   0.209   2.990   0.289  0.1307  0.4025 -0.7399
  493SOL    HW1 1970   0.155   3.053   0.337 -3.1865 -2.5496 -1.1643
  493SOL    HW2 1971   0.228   3.032   0.203  1.0147 -0.4860 -0.7486
  493SOL     MW 1972   0.205   3.004   0.284 -0.1904 -0.1043 -0.7971
  494SOL     OW 1973   0.419   2.451   1.796 -0.2484 -0.0252  0.2834
  494SOL    HW1 1974   0.440   2.358   1.799  0.1389  0.0242  0.7326
  494SOL    HW2 1975   0.464   2.490   1.717  0.7405  1.3919 -3.3636
  494SOL     MW 1976   0.428   2.444   1.786 -0.0668  0.1683 -0.1385
  495SOL     OW 1977   2.932   1.681   2.606  0.1965 -0.1634  0.2074
  495SOL    HW1 1978   2.916   1.774   2.576 -0.4365 -1.8079 -0.9559
  495SOL    HW2 1979   2.886   1.664   2.694  1.6020  2.1802 -1.4475
  495SOL     MW 1980   2.924   1.691   2.613  0.2984 -0.0712 -0.1645
  496SOL     OW 1981   2.916   2.286   2.670 -0.2984  0.1278  0.0968
  496SOL    HW1 1982   2.960   2.208   2.711  2.1178  0.5407 -0.5615
  496SOL    HW2 1983   2.964   2.366   2.674  1.3173 -2.7475 -2.5879
  496SOL     MW 1984   2.928   2.286   2.676  0.2335 -0.1971 -0.3443
  497SOL     OW 1985   1.539   2.271   2.637 -0.5591 -0.0071  0.2019
  497SOL    HW1 1986   1.533   2.211   2.561 -0.5349  1.5254 -2.2045
  497SOL    HW2 1987   1.519   2.213   2.712 -2.1425  0.4121  0.4313
  497SOL     MW 1988   1.535   2.256   2.637 -0.7648  0.2504 -0.0853
  498SOL     OW 1989   1.548   2.743   2.385 -0.3949  0.0677 -0.2205
  498SOL    HW1 1990   1.557   2.655   2.355  3.4680  1.1290  1.3992
  498SOL    HW2 1991   1.615   2.761   2.452  0.1581  1.7019  1.7179
  498SOL     MW 1992   1.558   2.734   2.390  0.1877  0.4234  0.2490
  499SOL     OW 1993   0.935   0.095   0.039 -0.0984  0.0464  1.0233
  499SOL    HW1 1994   0.865   0.099   0.109  2.0780  0.3209  2.7191
  499SOL    HW2 1995   0.985   0.026   0.073  1.8319  1.0519 -1.3279
  499SOL     MW 1996   0.932   0.087   0.053  0.4434  0.2153  0.9369
  500SOL     OW 1997   1.135   2.560   2.796 -0.6336  0.3538 -0.1443
  500SOL    HW1 1998   1.139   2.518   2.884  0.0577  3.5344  1.0085
  500SOL    HW2 1999   1.050   2.606   2.815 -1.3292  1.4250 -0.9252
  500SOL     MW 2000   1.124   2.560   2.810 -0.6342  0.9148 -0.0952
  501SOL     OW 2001   1.761   2.238   0.005 -0.2555  0.5115  1.2993
  501SOL    HW1 2002   1.738   2.324   0.045  2.1184  0.3225 -4.1419
  501SOL    HW2 2003   1.860   2.234   0.001  2.0455  4.3379  0.4178
  501SOL     MW 2004   1.771   2.249   0.010  0.3613  0.9914  0.4651
  502SOL     OW 2005   0.094   2.816   2.957  0.8862  0.8352 -0.2806
  502SOL    HW1 2006   0.038   2.753   2.906 -4.1624 -0.9048  0.3080
  502SOL    HW2 2007   0.158   2.850   2.896 -2.1407  0.3705  0.2363
  502SOL     MW 2008   0.095   2.812   2.942 -0.1793  0.5443 -0.1347
  503SOL     OW 2009   1.122   2.702   2.109  0.1312  0.6462  0.3814
  503SOL    HW1 2010   1.160   2.653   2.032  1.4069 -2.2334  1.4193
  503SOL    HW2 2011   1.086   2.783   2.077 -0.1873 -1.8005 -0.4050
  503SOL     MW 2012   1.122   2.706   2.095  0.2575 -0.0565  0.4146
  504SOL     OW 2013   3.100   2.706   2.105  0.3318  0.1715  0.7953
  504SOL    HW1 2014   3.129   2.615   2.099 -0.4104  0.9571 -1.0813
  504SOL    HW2 2015   3.008   2.710   2.090 -0.9454  1.6298 -0.9046
  504SOL     MW 2016   3.092   2.694   2.103  0.0654  0.4676  0.3234
  505SOL     OW 2017   1.728   2.637   2.824  0.3282  0.5723 -0.4425
  505SOL    HW1 2018   1.755   2.633   2.728  0.4225  3.6865 -2.3976
  505SOL    HW2 2019   1.660   2.710   2.819 -1.6635  0.7169  0.0295
  505SOL     MW 2020   1.722   2.646   2.811  0.0779  1.0023 -0.6382
  506SOL     OW 2021   1.577   3.082   2.859 -0.0126 -0.0319 -0.2823
  506SOL    HW1 2022   1.621   3.053   2.941  0.7436  0.9026 -0.9000
  506SOL    HW2 2023   1.651   3.061   2.796 -0.3325 -0.6176 -0.5670
  506SOL     MW 2024   1.593   3.075   2.861  0.0450  0.0141 -0.4014
  507SOL     OW 2025   0.899   2.692   2.826  0.3634  0.8174  0.0952
  507SOL    HW1 2026   0.912   2.780   2.780  1.0277  2.1453 -4.8166
  507SOL    HW2 2027   0.806   2.669   2.789 -0.8674  3.6926 -1.2675
  507SOL     MW 2028   0.888   2.701   2.815  0.2887  1.3719 -0.7326
  508SOL     OW 2029   1.129   2.093   2.477  0.0611  0.2166  0.1706
  508SOL    HW1 2030   1.198   2.068   2.536  2.4602 -0.2017  0.4595
  508SOL    HW2 2031   1.085   2.175   2.521 -0.4773 -1.7028 -0.1285
  508SOL     MW 2032   1.132   2.100   2.490  0.3066 -0.0918  0.1692
  509SOL     OW 2033   0.655   2.604   2.719  0.4875 -0.1084 -0.4050
  509SOL    HW1 2034   0.644   2.553   2.641  0.0412 -1.1904  1.3536
  509SOL    HW2 2035   0.568   2.627   2.746  3.1808 -0.4726 -0.6374
  509SOL     MW 2036   0.642   2.600   2.713  0.7840 -0.2992 -0.2036
  510SOL     OW 2037   1.496   2.582   1.666  0.2212 -1.0801  0.4412
  510SOL    HW1 2038   1.528   2.670   1.650  1.0500  2.4087  0.6637
  510SOL    HW2 2039   1.455   2.590   1.750  0.5140  2.0040 -1.2211
  510SOL     MW 2040   1.495   2.595   1.675  0.3692 -0.2129  0.2512
  511SOL     OW 2041   0.433   2.633   2.458 -0.3348  0.2121  0.4060
  511SOL    HW1 2042   0.509   2.562   2.463 -1.6770  1.3272 -0.2586
  511SOL    HW2 2043   0.457   2.685   2.375 -0.8327  2.8511  0.2167
  511SOL     MW 2044   0.446   2.630   2.448 -0.5776  0.7074  0.2933
  512SOL     OW 2045   1.000   2.004   2.805  0.4454  0.0435  0.4998
  512SOL    HW1 2046   0.924   2.051   2.836  0.2484 -0.0074  0.4251
  512SOL    HW2 2047   1.010   1.942   2.875  1.9376  2.3069  1.9635
  512SOL     MW 2048   0.991   2.002   2.818  0.6163  0.3354  0.6831
  513SOL     OW 2049   1.584   2.475   2.292  0.1748 -0.0422 -0.1114
  513SOL    HW1 2050   1.670   2.490   2.245  0.3757  3.4433 -2.2045
  513SOL    HW2 2051   1.610   2.438   2.380  2.8881  0.5623  0.4934
  513SOL     MW 2052   1.599   2.472   2.298  0.5593  0.4974 -0.3078
  514SOL     OW 2053   0.288   2.477   2.637  0.0925 -0.1915 -0.1097
  514SOL    HW1 2054   0.328   2.543   2.577  0.1496 -1.8914  0.5607
  514SOL    HW2 2055   0.354   2.486   2.712  2.0157 -0.7755  0.8138
  514SOL     MW 2056   0.302   2.487   2.639  0.3538 -0.4928  0.1006
  515SOL     OW 2057   1.162   2.012   2.013  0.1856 -0.3026 -0.4725
  515SOL    HW1 2058   1.154   2.091   1.953 -2.5587  1.4156 -0.3029
  515SOL    HW2 2059   1.259   2.023   2.033  0.7204  1.6002  1.6828
  515SOL     MW 2060   1.174   2.024   2.008 -0.1059  0.1752 -0.1658
  516SOL     OW 2061   1.448   2.531   3.096 -0.3685 -0.1003 -0.2370
  516SOL    HW1 2062   1.469   2.482   3.016 -1.4547 -0.6978 -0.0452
  516SOL    HW2 2063   1.388   2.596   3.057  1.1877 -0.3112  0.7894
  516SOL     MW 2064   1.443   2.533   3.080 -0.3065 -0.2069 -0.0763
  517SOL     OW 2065   0.568   2.430   2.099  0.1410  0.1244  0.1296
  517SOL    HW1 2066   0.506   2.499   2.077  0.9714 -0.2031 -0.6272
  517SOL    HW2 2067   0.504   2.351   2.115 -2.5065 -0.8060 -2.3391
  517SOL     MW 2068   0.551   2.429   2.098 -0.0988 -0.0416 -0.2960
  518SOL     OW 2069   1.753   0.204   3.067  0.3415 -0.3205  0.2089
  518SOL    HW1 2070   1.740   0.285   3.129  0.2085  3.5714 -2.0741
  518SOL    HW2 2071   1.700   0.130   3.097 -0.4842  0.4066  2.1809
  518SOL     MW 2072   1.744   0.205   3.079  0.2150  0.2890  0.1679
  519SOL     OW 2073   0.735   2.344   1.776  0.0255  0.4879 -0.4353
  519SOL    HW1 2074   0.777   2.257   1.794  1.9008  0.1130  1.9434
  519SOL    HW2 2075   0.731   2.339   1.683 -2.9584  2.0564 -0.3629
  519SOL     MW 2076   0.740   2.332   1.766 -0.1208  0.6454 -0.1119
  520SOL     OW 2077   1.269   2.110   2.971  0.5992 -0.0447 -0.0999
  520SOL    HW1 2078   1.191   2.061   2.964  0.3031 -0.3925 -1.3803
  520SOL    HW2 2079   1.329   2.077   3.034  1.9769 -1.0943  0.3970
  520SOL     MW 2080   1.267   2.099   2.979  0.7419 -0.2291 -0.2033
  521SOL     OW 2081   1.732   2.023   2.178 -0.6525 -0.6572  0.0673
  521SOL    HW1 2082   1.758   2.050   2.086 -1.5746  0.5132  1.4435
  521SOL    HW2 2083   1.713   1.928   2.176 -2.5553 -0.5102  0.4855
  521SOL     MW 2084   1.733   2.014   2.165 -1.0252 -0.4834  0.3040
  522SOL     OW 2085   2.896   2.540   2.227 -0.0501 -0.2212 -0.6449
  522SOL    HW1 2086   2.959   2.467   2.251  0.9767  0.8062  1.8361
  522SOL    HW2 2087   2.895   2.597   2.301 -0.5868  2.8441  1.6192
  522SOL     MW 2088   2.905   2.538   2.240  0.0146  0.3188 -0.0188
  523SOL     OW 2089   0.939   1.523   2.195 -0.9579  0.0712 -0.0083
  523SOL    HW1 2090   0.919   1.555   2.108  2.1635  1.3376  0.6481
  523SOL    HW2 2091   1.009   1.460   2.172  0.7147 -1.7590  0.3586
  523SOL     MW 2092   0.945   1.519   2.180 -0.3254 -0.0032  0.1267
  524SOL     OW 2093   0.684   2.422   2.962 -0.3699 -0.2564  0.5191
  524SOL    HW1 2094   0.685   2.468   2.873 -0.0437  1.6457 -2.6048
  524SOL    HW2 2095   0.707   2.326   2.945  3.3443 -0.0092 -1.4500
  524SOL     MW 2096   0.687   2.415   2.948  0.1632  0.0272 -0.1529
  525SOL     OW 2097   0.323   2.287   2.097 -0.0549 -0.1056 -0.1425
  525SOL    HW1 2098   0.292   2.215   2.147 -0.5715  0.2296 -0.6035
  525SOL    HW2 2099   0.348   2.252   2.018 -0.1358  1.0381  2.4038
  525SOL     MW 2100   0.322   2.273   2.093 -0.1337  0.0896  0.1326
  526SOL     OW 2101   0.648   2.058   2.004  0.5201  1.1462  0.4144
  526SOL    HW1 2102   0.716   2.056   1.936 -1.4969  0.6391 -0.3662
  526SOL    HW2 2103   0.665   2.119   2.076 -0.2684 -0.7211 -1.0996
  526SOL     MW 2104   0.659   2.066   2.004  0.1499  0.8329  0.1117
  527SOL     OW 2105   1.411   2.018   2.050 -0.3505  0.3466  0.2561
  527SOL    HW1 2106   1.405   1.997   2.142 -1.1355 -1.5126 -1.6870
  527SOL    HW2 2107   1.421   1.931   2.004 -0.2954 -1.0218  2.8048
  527SOL     MW 2108   1.411   2.003   2.056 -0.4468 -0.0792  0.3360
  528SOL     OW 2109   0.667   2.907   2.866 -0.4329 -0.5288  0.5719
  528SOL    HW1 2110   0.652   2.987   2.915 -0.3339  1.2132 -1.4129
  528SOL    HW2 2111   0.627   2.919   2.779  2.5907 -0.5241  0.5476
  528SOL     MW 2112   0.660   2.919   2.861 -0.0209 -0.2984  0.3069
  529SOL     OW 2113   1.083   2.251   1.868 -0.4197  0.4788 -0.7743
  529SOL    HW1 2114   1.068   2.292   1.951  1.8333  0.2355  2.1877
  529SOL    HW2 2115   1.089   2.311   1.799  2.5079  1.2283 -0.7625
  529SOL     MW 2116   1.082   2.264   1.870  0.2638  0.5456 -0.3820
  530SOL     OW 2117   1.170   2.418   3.007  0.4789 -0.1680  0.2709
  530SOL    HW1 2118   1.129   2.450   3.092 -0.3507 -0.1914  1.0072
  530SOL    HW2 2119   1.169   2.322   3.002 -0.3794  0.1997 -1.8379
  530SOL     MW 2120   1.165   2.410   3.018  0.2562 -0.1226  0.0898
  531SOL     OW 2121   0.903   1.880   2.566  0.2294  0.1860 -0.4491
  531SOL    HW1 2122   0.942   1.941   2.628 -1.8420 -2.5512 -1.2100
  531SOL    HW2 2123   0.892   1.799   2.617 -2.8822 -1.4214 -0.8654
  531SOL     MW 2124   0.907   1.877   2.581 -0.4544 -0.3873 -0.6044
  532SOL     OW 2125   1.745   0.301   2.797 -0.7170  0.3174  0.0603
  532SOL    HW1 2126   1.733   0.266   2.884  0.4054 -1.6373 -0.8983
  532SOL    HW2 2127   1.828   0.341   2.806 -0.1004  0.5391 -1.0706
  532SOL     MW 2128   1.754   0.302   2.809 -0.4875  0.0887 -0.2154
  533SOL     OW 2129   1.942   2.630   3.047 -0.2431 -0.0929  0.3785
  533SOL    HW1 2130   1.911   2.580   3.125 -0.8493 -1.4786  1.3611
  533SOL    HW2 2131   1.857   2.641   2.993  1.6208  1.3663  1.7709
  533SOL     MW 2132   1.927   2.625   3.050 -0.0771 -0.0832  0.6919
  534SOL     OW 2133   1.743   2.405   2.526 -0.3622 -0.1440  0.4122
  534SOL    HW1 2134   1.682   2.353   2.584 -0.7760 -1.6968 -0.9030
  534SOL    HW2 2135   1.827   2.411   2.581 -0.0420  0.9352  0.1085
  534SOL     MW 2136   1.746   2.399   2.541 -0.3746 -0.2065  0.1986
  535SOL     OW 2137   1.920   2.380   1.851  0.6065  0.5502  0.0172
  535SOL    HW1 2138   1.874   2.410   1.770 -0.5177  0.5142 -0.3424
  535SOL    HW2 2139   2.017   2.398   1.845  0.0085 -2.3203 -0.4624
  535SOL     MW 2140   1.927   2.386   1.839  0.3792  0.1667 -0.0935
  536SOL     OW 2141   0.458   1.850   2.060  0.1111 -0.2840  0.8973
  536SOL    HW1 2142   0.451   1.788   1.977 -1.3840 -2.7594  1.1385
  536SOL    HW2 2143   0.509   1.928   2.041 -1.4092  1.8795 -1.8166
  536SOL     MW 2144   0.464   1.852   2.046 -0.2867 -0.3252  0.5711
  537SOL     OW 2145   1.080   0.210   2.847  0.2089 -0.1855 -0.2892
  537SOL    HW1 2146   1.011   0.244   2.897  2.1003  1.0743  2.4168
  537SOL    HW2 2147   1.115   0.280   2.790  0.3949  0.6191  2.9363
  537SOL     MW 2148   1.075   0.224   2.846  0.4830  0.0869  0.4934
  538SOL     OW 2149   1.337   0.067   3.070 -0.1556  0.1153  0.4717
  538SOL    HW1 2150   1.281   0.144   3.052 -0.0191 -0.4991  1.3812
  538SOL    HW2 2151   1.406   0.074   3.010 -2.0769  0.4998  0.8815
  538SOL     MW 2152   1.338   0.078   3.060 -0.3911  0.0850  0.6458
  539SOL     OW 2153   0.716   2.796   2.483 -0.5671  0.3547 -0.2665
  539SOL    HW1 2154   0.775   2.780   2.553  0.0508 -0.0950  0.0204
  539SOL    HW2 2155   0.684   2.709   2.465  0.7716 -1.2056  0.9110
  539SOL     MW 2156   0.719   2.783   2.490 -0.3090  0.0895 -0.0733
  540SOL     OW 2157   0.422   2.486   2.873 -0.0952  0.6612  0.8215
  540SOL    HW1 2158   0.483   2.442   2.932 -1.9440 -0.6485  0.7932
  540SOL    HW2 2159   0.342   2.466   2.926 -0.9552 -0.9519 -1.1284
  540SOL     MW 2160   0.420   2.478   2.888 -0.4526  0.2755  0.5605
  541SOL     OW 2161   0.175   2.905   2.203 -0.0041  0.2623 -0.0498
  541SOL    HW1 2162   0.118   2.828   2.191 -1.3979 -3.1139  0.4505
  541SOL    HW2 2163   0.222   2.901   2.289  2.7576 -1.0836  0.2283
  541SOL     MW 2164   0.173   2.894   2.213  0.1764 -0.3607  0.0529
  542SOL     OW 2165   1.022   2.291   2.653  0.3777  0.3864  0.1068
  542SOL    HW1 2166   1.000   2.222   2.716 -0.1142  0.4651  0.7230
  542SOL    HW2 2167   1.077   2.350   2.700  0.2639 -3.3606 -0.7934
  542SOL     MW 2168   1.026   2.289   2.668  0.2978 -0.0976  0.0693
  543SOL     OW 2169   1.553   2.438   2.862  0.9457  0.2138  0.6211
  543SOL    HW1 2170   1.526   2.387   2.784  3.1331  1.5838  0.4510
  543SOL    HW2 2171   1.614   2.512   2.834  0.1956  0.3467 -1.8261
  543SOL     MW 2172   1.557   2.441   2.848  1.1353  0.4121  0.2758
  544SOL     OW 2173   0.710   0.215   2.756  0.0427  0.1716 -0.4567
  544SOL    HW1 2174   0.622   0.260   2.761  0.0560  3.3060 -1.6096
  544SOL    HW2 2175   0.723   0.165   2.676  1.9395  2.0841 -1.5042
  544SOL     MW 2176   0.700   0.215   2.746  0.2947  0.8375 -0.7470
  545SOL     OW 2177   1.570   2.189   2.344 -0.0955 -0.4470  0.0555
  545SOL    HW1 2178   1.569   2.271   2.296 -2.6503  1.7621  1.8305
  545SOL    HW2 2179   1.615   2.120   2.291 -0.8307 -1.2156  0.2364
  545SOL     MW 2180   1.576   2.191   2.331 -0.5296 -0.2569  0.3136
  546SOL     OW 2181   3.032   1.992   0.144 -0.3492  0.4714 -0.0682
  546SOL    HW1 2182   2.983   2.052   0.082 -2.2729 -1.4960 -1.1388
  546SOL    HW2 2183   3.111   1.957   0.098 -0.1185 -0.2978  0.5040
  546SOL     MW 2184   3.036   1.996   0.129 -0.5726  0.1103 -0.1340
  547SOL     OW 2185   0.236  -0.001   0.033  0.0997  0.3686  0.8655
  547SOL    HW1 2186   0.295   0.044  -0.032  2.9279  5.1430 -0.5551
  547SOL    HW2 2187   0.150  -0.011  -0.002  2.7405  2.7694 -2.2426
  547SOL     MW 2188   0.232   0.004   0.020  0.8212  1.3153  0.2679
  548SOL     OW 2189   0.305   2.510   0.249  0.1949 -0.3258  0.5838
  548SOL    HW1 2190   0.317   2.566   0.173  1.2101  0.5701 -0.6471
  548SOL    HW2 2191   0.219   2.471   0.241 -1.7158 -0.3120 -1.9807
  548SOL     MW 2192   0.295   2.512   0.238  0.0767 -0.2058  0.0831
  549SOL     OW 2193   0.811   1.894   2.130 -0.4798 -0.0799  0.2440
  549SOL    HW1 2194   0.748   1.956   2.091 -4.9071  0.0908  0.6793
  549SOL    HW2 2195   0.776   1.877   2.221 -0.5658  1.0261  0.0211
  549SOL     MW 2196   0.798   1.900   2.137 -1.0753  0.0885  0.2721
  550SOL     OW 2197   1.781   1.746   2.547 -0.0094  0.2247 -0.8459
  550SOL    HW1 2198   1.784   1.738   2.450 -0.2019  1.0996 -0.2175
  550SOL    HW2 2199   1.775   1.837   2.589  2.7113  2.3553  0.0051
  550SOL     MW 2200   1.780   1.757   2.540  0.3242  0.6212 -0.6507
  551SOL     OW 2201   0.845   2.287   0.194  0.6306 -0.2044 -0.3473
  551SOL    HW1 2202   0.941   2.282   0.201  0.2517  1.2410 -0.8016
  551SOL    HW2 2203   0.808   2.212   0.145 -0.5425  0.6836 -1.3026
  551SOL     MW 2204   0.853   2.276   0.189  0.4258  0.1035 -0.5333
  552SOL     OW 2205   1.762   1.689   2.298 -0.0038  0.0848 -0.6908
  552SOL    HW1 2206   1.671   1.682   2.279  1.4070  3.4633 -0.1787
  552SOL    HW2 2207   1.806   1.632   2.229  0.7237  3.8470  3.8199
  552SOL     MW 2208   1.756   1.681   2.286  0.2783  1.0269 -0.0281
  553SOL     OW 2209   1.267   2.323   1.517  0.5784  0.1904  0.3476
  553SOL    HW1 2210   1.298   2.231   1.509  0.6162  2.4261 -2.2516
  553SOL    HW2 2211   1.314   2.385   1.456 -0.2156  2.3688  2.0622
  553SOL     MW 2212   1.277   2.319   1.508  0.4787  0.7728  0.2309
  554SOL     OW 2213   0.505   2.933   2.636  0.2280 -0.1498  0.3096
  554SOL    HW1 2214   0.490   3.029   2.610  0.6564 -0.7087 -0.5572
  554SOL    HW2 2215   0.572   2.902   2.569 -2.5000 -0.2212  0.3443
  554SOL     MW 2216   0.512   2.942   2.624 -0.0754 -0.2329  0.1998
  555SOL     OW 2217   0.649   2.485   2.474  0.3929 -0.1964 -0.5266
  555SOL    HW1 2218   0.602   2.398   2.498  0.1837 -2.5401 -0.0392
  555SOL    HW2 2219   0.741   2.472   2.460  1.9793 -0.7217  1.1704
  555SOL     MW 2220   0.654   2.472   2.475  0.5746 -0.5749 -0.2384
  556SOL     OW 2221   0.984   1.853   0.100  0.0121 -0.1822 -0.2129
  556SOL    HW1 2222   1.022   1.826   0.014  2.2245 -0.3660 -1.6657
  556SOL    HW2 2223   1.062   1.876   0.159  2.4945  0.9466 -0.1510
  556SOL     MW 2224   0.999   1.853   0.097  0.6315 -0.0575 -0.3964
  557SOL     OW 2225   0.948   2.651   0.503  0.0784 -0.6093  0.1077
  557SOL    HW1 2226   1.005   2.601   0.451 -1.9968 -0.9829  1.7215
  557SOL    HW2 2227   0.912   2.724   0.442  2.0272 -0.2063 -0.7278
  557SOL     MW 2228   0.951   2.654   0.488  0.0617 -0.6054  0.2104
  558SOL     OW 2229   0.201   2.337   3.002  0.2263  0.0587 -0.1417
  558SOL    HW1 2230   0.153   2.265   2.964 -0.9536  1.3167  0.0570
  558SOL    HW2 2231   0.152   2.356   3.085 -0.4460 -4.3486 -1.3117
  558SOL     MW 2232   0.188   2.330   3.008 -0.0181 -0.3568 -0.2699
  559SOL     OW 2233   1.035   2.351   2.123  0.5667  0.5458 -0.0524
  559SOL    HW1 2234   1.092   2.394   2.185  0.5229 -0.1050  1.1907
  559SOL    HW2 2235   1.001   2.273   2.169  0.7331 -0.0004  2.0228
  559SOL     MW 2236   1.038   2.347   2.137  0.5829  0.3879  0.3854
  560SOL     OW 2237   1.992   2.880   0.013 -0.1150  0.0698  0.1103
  560SOL    HW1 2238   2.057   2.932  -0.044  0.4219 -2.4986  0.8445
  560SOL    HW2 2239   1.991   2.781  -0.009 -2.2591 -0.8935 -1.5499
  560SOL     MW 2240   2.000   2.874   0.003 -0.3270 -0.3962 -0.0119
  561SOL     OW 2241   0.389   2.165   0.040 -0.3678 -0.2513  0.0520
  561SOL    HW1 2242   0.348   2.230  -0.015  1.1063 -0.5053  1.4899
  561SOL    HW2 2243   0.452   2.220   0.092 -1.5194 -1.1248 -0.1056
  561SOL     MW 2244   0.392   2.181   0.039 -0.3253 -0.4001  0.2209
  562SOL     OW 2245   0.718   2.199   2.229  0.3073  0.0658  1.0652
  562SOL    HW1 2246   0.705   2.297   2.236 -1.6246 -1.1417 -1.0499
  562SOL    HW2 2247   0.807   2.175   2.271  0.3065  1.6915 -1.0683
  562SOL     MW 2248   0.728   2.209   2.235  0.0523  0.1210  0.5046
  563SOL     OW 2249   1.230   0.311   0.568  0.1946 -0.0128 -0.2405
  563SOL    HW1 2250   1.166   0.278   0.506  1.7308  2.0574  0.1902
  563SOL    HW2 2251   1.214   0.267   0.653  1.0603 -0.9333  1.9870
  563SOL     MW 2252   1.219   0.301   0.571  0.5115  0.1389  0.1102
  564SOL     OW 2253   1.150   2.504   2.304  0.4636  0.5706  0.7947
  564SOL    HW1 2254   1.139   2.572   2.237  0.5534 -0.5359 -0.3378
  564SOL    HW2 2255   1.173   2.560   2.376  1.0288 -2.3780 -2.6429
  564SOL     MW 2256   1.151   2.521   2.304  0.5500  0.0355  0.1917
  565SOL     OW 2257   2.820   2.767   2.655 -0.0469  0.4879 -0.3350
  565SOL    HW1 2258   2.833   2.861   2.663  0.7026 -0.0876 -2.1191
  565SOL    HW2 2259   2.766   2.741   2.584  1.3673  0.9079  2.2226
  565SOL     MW 2260   2.814   2.776   2.647  0.2386  0.4674 -0.2329
  566SOL     OW 2261   2.130   1.838   2.383 -0.2724 -0.4131  0.6605
  566SOL    HW1 2262   2.127   1.792   2.301 -1.8873  0.8723 -0.1876
  566SOL    HW2 2263   2.196   1.918   2.370  1.3015 -2.1174  0.5642
  566SOL     MW 2264   2.138   1.843   2.371 -0.2778 -0.4684  0.5359
  567SOL     OW 2265   1.184   2.942   3.037 -0.5582  0.0070 -0.0821
  567SOL    HW1 2266   1.241   3.021   3.049  2.8316 -1.1656  2.9570
  567SOL    HW2 2267   1.247   2.863   3.016  2.2815  0.7680  2.0728
  567SOL     MW 2268   1.200   2.942   3.036  0.2637 -0.0473  0.6032
  568SOL     OW 2269   1.606   2.097   2.899  0.3758 -0.6715  0.0724
  568SOL    HW1 2270   1.642   2.162   2.954 -1.3179  0.4255 -0.9619
  568SOL    HW2 2271   1.667   2.079   2.830 -0.9780 -2.6439 -2.5691
  568SOL     MW 2272   1.619   2.103   2.897 -0.0263 -0.7870 -0.4126
  569SOL     OW 2273   0.165   2.297   2.460 -0.0932 -0.4651 -0.1727
  569SOL    HW1 2274   0.101   2.329   2.393 -0.1795 -2.8991 -0.0277
  569SOL    HW2 2275   0.193   2.366   2.523 -1.9185 -2.2663 -0.9961
  569SOL     MW 2276   0.160   2.311   2.459 -0.3454 -1.0239 -0.2622
  570SOL     OW 2277   1.511   0.355   0.510  0.2792 -0.3666 -0.1366
  570SOL    HW1 2278   1.422   0.382   0.545  0.4249  0.1423  1.1402
  570SOL    HW2 2279   1.561   0.347   0.591 -0.0544  0.0887  1.2255
  570SOL     MW 2280   1.506   0.357   0.526  0.2544 -0.2394  0.2116
  571SOL     OW 2281   1.443   2.437   2.005 -0.9095 -0.1202  0.2856
  571SOL    HW1 2282   1.460   2.458   2.096  0.5266  0.8116  0.2131
  571SOL    HW2 2283   1.501   2.361   1.986  0.9958 -2.2396 -2.5089
  571SOL     MW 2284   1.453   2.430   2.014 -0.4686 -0.2769 -0.0927
  572SOL     OW 2285   1.059   2.581   0.118 -0.7150 -0.0783 -0.0288
  572SOL    HW1 2286   1.087   2.657   0.066  0.4449  0.0482  0.3413
  572SOL    HW2 2287   0.954   2.578   0.109 -0.5833 -0.4602  1.7221
  572SOL     MW 2288   1.049   2.590   0.110 -0.5446 -0.1120  0.2510
  573SOL     OW 2289   1.136   2.280   0.208  0.7574  0.1387  0.3298
  573SOL    HW1 2290   1.213   2.310   0.159  1.4056  1.9250 -0.8983
  573SOL    HW2 2291   1.139   2.356   0.275  1.3674  0.7085  1.1860
  573SOL     MW 2292   1.147   2.294   0.211  0.9234  0.4495  0.2808
  574SOL     OW 2293   1.133   2.508   0.363  0.3185  0.0011 -0.1394
  574SOL    HW1 2294   1.209   2.551   0.408  0.7511 -0.1821  0.8429
  574SOL    HW2 2295   1.112   2.563   0.279  0.6338  0.3594 -1.0058
  574SOL     MW 2296   1.140   2.521   0.358  0.4172  0.0242 -0.1241
  575SOL     OW 2297   3.069   2.196   1.808  0.4507  0.0081 -0.4467
  575SOL    HW1 2298   3.104   2.126   1.751 -0.2834 -1.9419  1.0100
  575SOL    HW2 2299   3.142   2.262   1.812  0.3183  2.1366  1.2984
  575SOL     MW 2300   3.084   2.196   1.801  0.3364  0.0316 -0.0243
  576SOL     OW 2301   2.787   1.795   2.095  0.1473  0.5091 -0.3381
  576SOL    HW1 2302   2.814   1.828   2.012 -1.9944  3.2435  1.0029
  576SOL    HW2 2303   2.693   1.768   2.086  1.5065  1.2015 -1.7069
  576SOL     MW 2304   2.778   1.796   2.083  0.0440  0.9613 -0.3418
  577SOL     OW 2305   2.035   0.206   0.077 -0.1833 -0.0306 -0.6048
  577SOL    HW1 2306   1.960   0.206   0.015 -2.8633 -0.2101 -1.7016
  577SOL    HW2 2307   2.005   0.148   0.145  1.7066 -1.3138  0.1888
  577SOL     MW 2308   2.021   0.199   0.078 -0.2875 -0.2236 -0.6448
  578SOL     OW 2309   1.956   2.046   2.366  0.4257  0.2031  0.5070
  578SOL    HW1 2310   1.867   2.029   2.323 -0.0430 -0.9327 -1.4779
  578SOL    HW2 2311   2.001   1.964   2.348 -0.1565 -2.2137 -0.4188
  578SOL     MW 2312   1.950   2.033   2.358  0.2870 -0.2656  0.1230
  579SOL     OW 2313   0.895   2.394   2.438 -0.2555  0.6151  0.2192
  579SOL    HW1 2314   0.948   2.356   2.504 -3.0115  0.5184 -1.1263
  579SOL    HW2 2315   0.957   2.441   2.380 -1.8179  0.0727 -2.9837
  579SOL     MW 2316   0.910   2.395   2.439 -0.8252  0.5308 -0.3810
  580SOL     OW 2317   0.920   2.873   3.100 -0.3116 -0.5233  0.5611
  580SOL    HW1 2318   1.009   2.901   3.073  0.2067  0.4720  1.2851
  580SOL    HW2 2319   0.901   2.796   3.042  1.4162 -0.1462  1.5735
  580SOL     MW 2320   0.930   2.866   3.089 -0.0152 -0.3422  0.7902
  581SOL     OW 2321   1.129   2.497   1.683 -0.2663  1.0186  0.0824
  581SOL    HW1 2322   1.181   2.536   1.755 -1.1084  0.0675 -3.5712
  581SOL    HW2 2323   1.192   2.428   1.644  2.9069 -1.8950  0.2053
  581SOL     MW 2324   1.144   2.493   1.688  0.0413  0.5087 -0.3834
  582SOL     OW 2325   0.045   2.791   2.611 -0.4867  0.1056  0.3621
  582SOL    HW1 2326   0.010   2.867   2.654  1.2240  0.0031  2.2192
  582SOL    HW2 2327   0.138   2.812   2.595  0.8153  0.2407 -0.1934
  582SOL     MW 2328   0.053   2.804   2.615 -0.0892  0.1099  0.5338
  583SOL     OW 2329   1.975   2.400   2.644  0.0147  0.2506  0.1653
  583SOL    HW1 2330   2.045   2.426   2.580  0.1012  3.5736 -1.1842
  583SOL    HW2 2331   1.974   2.303   2.628  0.2838 -0.6956 -0.2150
  583SOL     MW 2332   1.984   2.391   2.633  0.0616  0.5642 -0.0629
  584SOL     OW 2333   0.107   1.883   2.254  0.1193 -0.2784  0.0164
  584SOL    HW1 2334   0.179   1.846   2.210 -0.5040  0.7239  0.7493
  584SOL    HW2 2335   0.131   1.967   2.298 -2.2267 -0.0434 -0.7134
  584SOL     MW 2336   0.119   1.889   2.254 -0.2725 -0.1152  0.0168
  585SOL     OW 2337   1.595   2.642   0.244 -0.4635 -0.5874  0.3218
  585SOL    HW1 2338   1.556   2.588   0.174 -1.0916 -1.8333 -0.8618
  585SOL    HW2 2339   1.521   2.647   0.315  0.5435  1.3448  0.5933
  585SOL     MW 2340   1.580   2.635   0.244 -0.4135 -0.4968  0.2015
  586SOL     OW 2341   1.371   2.856   2.565  0.5765 -0.3016 -0.0712
  586SOL    HW1 2342   1.435   2.826   2.494 -1.7319  1.7167 -0.8549
  586SOL    HW2 2343   1.349   2.944   2.539 -3.9496  0.5712 -0.2869
  586SOL     MW 2344   1.376   2.864   2.552 -0.3252  0.0798 -0.2031
  587SOL     OW 2345   1.341   1.583   2.126 -0.0877 -0.8596  0.6730
  587SOL    HW1 2346   1.336   1.514   2.198  1.1174 -0.4161 -0.5025
  587SOL    HW2 2347   1.288   1.556   2.052  0.7287 -1.3508  2.3607
  587SOL     MW 2348   1.334   1.570   2.126  0.1791 -0.8659  0.7406
  588SOL     OW 2349   1.317   2.060   2.679  0.1631 -0.8637 -0.5204
  588SOL    HW1 2350   1.333   1.964   2.680 -0.1520 -0.4068  1.9364
  588SOL    HW2 2351   1.309   2.085   2.775  1.4226  2.0777 -0.4006
  588SOL     MW 2352   1.318   2.051   2.692  0.2877 -0.4153 -0.1805
  589SOL     OW 2353   1.373   1.999   0.109  0.2440  0.2770  0.2642
  589SOL    HW1 2354   1.393   2.089   0.133 -1.3009  0.3797  0.7393
  589SOL    HW2 2355   1.311   1.962   0.173 -2.8382  1.3346  0.3160
  589SOL     MW 2356   1.367   2.006   0.120 -0.3665  0.4301  0.3337
  590SOL     OW 2357   0.482   2.772   2.240  0.0243  0.2189 -0.5994
  590SOL    HW1 2358   0.447   2.736   2.155 -0.6001 -0.2481  0.2001
  590SOL    HW2 2359   0.573   2.803   2.234  2.1874  1.1221  2.0980
  590SOL     MW 2360   0.489   2.771   2.228  0.2273  0.2765 -0.1380
  591SOL     OW 2361   2.248   0.651   3.098 -0.5608  0.3320  0.1550
  591SOL    HW1 2362   2.195   0.704   3.045  2.8838 -1.7973  1.6211
  591SOL    HW2 2363   2.323   0.663   3.037 -1.4415  1.3788 -1.8058
  591SOL     MW 2364   2.251   0.659   3.083 -0.2225  0.1892  0.0898
  592SOL     OW 2365   1.751   2.950   0.776 -0.3668 -0.2468  0.2136
  592SOL    HW1 2366   1.743   3.027   0.727 -1.5082 -0.9480 -1.1622
  592SOL    HW2 2367   1.833   2.905   0.756  1.1449  0.7938  0.1150
  592SOL     MW 2368   1.761   2.954   0.767 -0.3179 -0.2020  0.0190
  593SOL     OW 2369   1.962   0.638   0.851 -0.1094 -0.4198  1.0760
  593SOL    HW1 2370   1.881   0.626   0.797  0.6542  0.7512  0.1147
  593SOL    HW2 2371   2.008   0.555   0.833  1.1644  0.0184  0.3879
  593SOL     MW 2372   1.958   0.625   0.842  0.1594 -0.2075  0.8583
  594SOL     OW 2373   2.778   1.155   1.396  0.0875 -0.5686 -0.0276
  594SOL    HW1 2374   2.865   1.192   1.389 -1.7541 -2.7331  0.9250
  594SOL    HW2 2375   2.765   1.093   1.322 -0.8208 -0.3573  1.2633
  594SOL     MW 2376   2.787   1.152   1.385 -0.2754 -0.8263  0.2684
  595SOL     OW 2377   0.459   0.989   0.819  0.2909 -0.0920  0.1735
  595SOL    HW1 2378   0.459   1.023   0.729 -0.4201  2.2143 -2.6603
  595SOL    HW2 2379   0.459   1.071   0.875  5.0076 -1.8321 -1.3880
  595SOL     MW 2380   0.459   1.004   0.815  0.8194 -0.0173 -0.4064
  596SOL     OW 2381   2.483   1.306   0.568 -0.0366 -0.1236  0.0119
  596SOL    HW1 2382   2.525   1.386   0.539 -0.6922 -0.4931  3.6443
  596SOL    HW2 2383   2.535   1.274   0.647  1.6067 -1.6130 -0.2431
  596SOL     MW 2384   2.495   1.312   0.574  0.0937 -0.3689  0.4575
  597SOL     OW 2385   2.188   0.670   1.627 -0.1872  0.1952 -0.0740
  597SOL    HW1 2386   2.209   0.613   1.703 -2.8885 -0.7165 -2.7845
  597SOL    HW2 2387   2.114   0.631   1.588  1.3106  1.0660  0.9018
  597SOL     MW 2388   2.181   0.657   1.632 -0.3460  0.1898 -0.3029
  598SOL     OW 2389   2.555   1.053   2.762 -0.5234 -0.5137 -0.0690
  598SOL    HW1 2390   2.583   0.997   2.689  1.6638  1.8545 -0.7329
  598SOL    HW2 2391   2.635   1.085   2.808  0.4693  0.1888 -0.6556
  598SOL     MW 2392   2.570   1.050   2.758 -0.1038 -0.1086 -0.2340
  599SOL     OW 2393   2.994   0.397   2.080  0.1667  0.0369  0.8467
  599SOL    HW1 2394   3.050   0.412   2.157 -0.5645  2.4176  1.7937
  599SOL    HW2 2395   2.972   0.486   2.043  2.1814  1.7997  0.6197
  599SOL     MW 2396   2.998   0.411   2.086  0.3360  0.5836  0.9417
  600SOL     OW 2397   1.842   1.607   0.889 -0.1733  0.1380  0.0676
  600SOL    HW1 2398   1.903   1.655   0.944 -1.8915  4.1639 -0.9204
  600SOL    HW2 2399   1.782   1.683   0.869 -1.6382  1.3889  1.8524
  600SOL     MW 2400   1.842   1.624   0.893 -0.5933  0.8342  0.1727
  601SOL     OW 2401   2.506   0.755   0.800 -0.0494 -0.0171  0.0684
  601SOL    HW1 2402   2.495   0.777   0.892 -1.2584 -1.1040  0.0536
  601SOL    HW2 2403   2.422   0.714   0.778 -2.2918  0.0213 -2.0644
  601SOL     MW 2404   2.494   0.753   0.810 -0.5048 -0.1554 -0.2149
  602SOL     OW 2405   2.261   1.966   0.768 -0.0072  0.7635 -0.1372
  602SOL    HW1 2406   2.225   1.893   0.721 -0.9599  1.1998  0.3940
  602SOL    HW2 2407   2.210   2.040   0.729 -2.3965 -0.4039  3.1807
  602SOL     MW 2408   2.250   1.966   0.756 -0.4481  0.6671  0.3706
  603SOL     OW 2409   0.005   1.358   1.872 -0.3911  0.5317  1.0049
  603SOL    HW1 2410   0.064   1.425   1.905  1.8068 -1.1109  2.6866
  603SOL    HW2 2411   0.023   1.279   1.922  2.3056 -0.0297  1.6690
  603SOL     MW 2412   0.015   1.356   1.883  0.2547  0.2409  1.3144
  604SOL     OW 2413   2.092   1.555   0.463 -0.2631  0.0772  0.2121
  604SOL    HW1 2414   2.143   1.477   0.486 -2.0321 -1.5601 -0.4292
  604SOL    HW2 2415   2.024   1.564   0.527  3.6100  0.2465 -2.3462
  604SOL     MW 2416   2.090   1.546   0.475  0.0145 -0.1165 -0.2101
  605SOL     OW 2417   2.517   1.494   0.897 -0.1969  0.1763  0.1453
  605SOL    HW1 2418   2.516   1.552   0.826 -5.4142  0.7274  2.5071
  605SOL    HW2 2419   2.554   1.413   0.866  1.0992 -0.4854 -1.8557
  605SOL     MW 2420   2.522   1.491   0.883 -0.7142  0.1617  0.1929
  606SOL     OW 2421   2.542   1.703   2.027  0.2503  0.2979 -0.0055
  606SOL    HW1 2422   2.454   1.715   1.988  1.1937  0.8284  1.2330
  606SOL    HW2 2423   2.594   1.654   1.963 -0.7575  1.7787  1.2574
  606SOL     MW 2424   2.537   1.698   2.013  0.2418  0.5633  0.3245
  607SOL     OW 2425   2.431   1.045   3.016 -0.1105 -0.4538 -0.1671
  607SOL    HW1 2426   2.469   1.039   2.925 -3.2867  0.1642  0.0997
  607SOL    HW2 2427   2.483   1.001   3.079 -0.9310  2.2996  0.7573
  607SOL     MW 2428   2.443   1.039   3.013 -0.6378 -0.0089 -0.0100
  608SOL     OW 2429   1.852   0.286   0.573 -0.1110  0.1288  0.1008
  608SOL    HW1 2430   1.832   0.354   0.502  1.0704  1.5475 -2.3454
  608SOL    HW2 2431   1.815   0.202   0.538 -0.2503 -0.9554 -3.3150
  608SOL     MW 2432   1.844   0.284   0.559  0.0265  0.1729 -0.6726
  609SOL     OW 2433   2.074   1.952   3.037  0.3175 -0.0162 -0.7939
  609SOL    HW1 2434   2.021   1.878   3.013  3.6404  1.0550 -1.6143
  609SOL    HW2 2435   2.081   1.944   3.135  0.5044  0.8821 -0.2060
  609SOL     MW 2436   2.068   1.941   3.047  0.7806  0.2437 -0.8246
  610SOL     OW 2437   1.816   0.960   1.228  0.0843 -0.1140 -0.1347
  610SOL    HW1 2438   1.836   0.890   1.161  2.7093  2.6744  0.0528
  610SOL    HW2 2439   1.724   0.976   1.199 -0.4757 -0.4293 -0.7789
  610SOL     MW 2440   1.806   0.953   1.215  0.3567  0.2123 -0.1949
  611SOL     OW 2441   2.534   1.681   0.664 -0.0568 -0.4860 -0.0843
  611SOL    HW1 2442   2.582   1.750   0.614  0.7810 -0.4073  0.9908
  611SOL    HW2 2443   2.442   1.692   0.645  2.3296  0.9298  0.0248
  611SOL     MW 2444   2.528   1.692   0.655  0.3686 -0.2888  0.0719
  612SOL     OW 2445   2.857   2.895   0.375 -0.2008 -0.0034  0.2530
  612SOL    HW1 2446   2.864   2.930   0.466  0.8245 -1.3753  0.1424
  612SOL    HW2 2447   2.948   2.887   0.349  0.9615  0.8974  2.9795
  612SOL     MW 2448   2.870   2.898   0.384  0.0878 -0.0655  0.5982
  613SOL     OW 2449   1.454   1.042   0.917 -0.0310  0.2126  0.5406
  613SOL    HW1 2450   1.473   1.129   0.883 -3.8875  0.4975 -0.0646
  613SOL    HW2 2451   1.492   1.030   1.007  2.3811  1.3472  2.0012
  613SOL     MW 2452   1.461   1.052   0.924 -0.2216  0.3999  0.6534
  614SOL     OW 2453   1.983   0.532   1.488  0.0029  0.0829  0.2225
  614SOL    HW1 2454   1.992   0.458   1.559  1.3461  0.4586  0.9104
  614SOL    HW2 2455   1.939   0.505   1.404 -2.2185 -1.4179 -0.0073
  614SOL     MW 2456   1.978   0.518   1.486 -0.1129 -0.0656  0.2830
  615SOL     OW 2457   2.306   0.772   0.268 -0.2994 -0.0019  0.4013
  615SOL    HW1 2458   2.362   0.695   0.275 -0.9495  0.1110 -1.0295
  615SOL    HW2 2459   2.270   0.758   0.185  0.0162 -1.1126 -0.0154
  615SOL     MW 2460   2.309   0.760   0.258 -0.3435 -0.1336  0.1575
  616SOL     OW 2461   2.499   0.423   1.676  0.1781  0.3685  0.2642
  616SOL    HW1 2462   2.576   0.377   1.650  1.7677  0.8272 -2.7886
  616SOL    HW2 2463   2.498   0.491   1.605  0.2831  0.4373  0.9145
  616SOL     MW 2464   2.509   0.426   1.664  0.4017  0.4381 -0.0528
  617SOL     OW 2465   2.789   0.605   1.690  0.0053 -0.6671 -0.2072
  617SOL    HW1 2466   2.700   0.590   1.717  2.6308 -0.7049 -4.6353
  617SOL    HW2 2467   2.820   0.516   1.668  0.5661 -0.3844  0.6549
  617SOL     MW 2468   2.781   0.592   1.691  0.4257 -0.6348 -0.6777
  618SOL     OW 2469   2.698   0.365   1.962 -0.0995  0.3745 -0.0917
  618SOL    HW1 2470   2.657   0.453   1.952 -2.0305 -1.2643  0.1490
  618SOL    HW2 2471   2.740   0.377   2.049  0.9436 -2.3092 -0.0718
  618SOL     MW 2472   2.698   0.378   1.972 -0.2167 -0.1958 -0.0573
  619SOL     OW 2473   2.659   0.739   0.046  0.7000 -0.2609  0.3247
  619SOL    HW1 2474   2.706   0.818   0.074  1.3139 -1.7004 -1.4404
  619SOL    HW2 2475   2.597   0.723   0.114  2.0944  1.0866 -0.4508
  619SOL     MW 2476   2.657   0.748   0.059  0.9650 -0.2730 -0.0105
  620SOL     OW 2477   2.222   1.045   0.913  0.3089  0.3041 -0.1066
  620SOL    HW1 2478   2.301   1.055   0.859  0.0564 -0.3847  3.3507
  620SOL    HW2 2479   2.159   0.980   0.881  1.8358 -1.2623  0.3158
  620SOL     MW 2480   2.224   1.038   0.901  0.4771  0.0065  0.4053
  621SOL     OW 2481   1.573   2.204   1.925  0.4506  0.2834  0.0330
  621SOL    HW1 2482   1.514   2.138   1.975 -3.0448  1.2196  0.0247
  621SOL    HW2 2483   1.666   2.172   1.940  2.2015  0.0942 -0.3145
  621SOL     MW 2484   1.578   2.191   1.934  0.2204  0.3820 -0.0139
  622SOL     OW 2485   2.642   0.203   0.243  0.0871 -0.0525  0.1723
  622SOL    HW1 2486   2.726   0.243   0.238  0.6039  0.2978  0.4906
  622SOL    HW2 2487   2.654   0.112   0.277  0.6303 -0.3159 -1.1052
  622SOL     MW 2488   2.655   0.196   0.247  0.2270 -0.0410  0.0457
  623SOL     OW 2489   2.465   2.754   0.845  0.1728  0.1868  0.1978
  623SOL    HW1 2490   2.527   2.829   0.841 -0.0137 -1.1915  0.9022
  623SOL    HW2 2491   2.414   2.757   0.925  1.8915 -0.7080  0.6715
  623SOL     MW 2492   2.466   2.765   0.855  0.3749 -0.1131  0.3532
  624SOL     OW 2493   2.126   1.631   3.032 -0.7860  0.0348 -0.2010
  624SOL    HW1 2494   2.079   1.552   3.051 -4.0903 -1.6651  3.3512
  624SOL    HW2 2495   2.051   1.681   2.987  0.4767  0.3462 -2.1465
  624SOL     MW 2496   2.110   1.627   3.029 -1.0554 -0.1484  0.0110
  625SOL     OW 2497   2.224   1.905   1.069  0.1814  0.3025  0.0588
  625SOL    HW1 2498   2.289   1.887   1.139 -2.9968 -0.9319  1.6244
  625SOL    HW2 2499   2.278   1.955   1.006 -0.8591  4.6607 -0.0450
  625SOL     MW 2500   2.240   1.909   1.070 -0.3752  0.7146  0.2517
  626SOL     OW 2501   0.278   1.759   2.433 -0.4439  0.6879  0.2634
  626SOL    HW1 2502   0.218   1.696   2.471  0.4607 -0.3411 -0.2600
  626SOL    HW2 2503   0.217   1.824   2.395 -0.6752 -0.5914  1.1554
  626SOL     MW 2504   0.262   1.759   2.433 -0.3551  0.3833  0.3120
  627SOL     OW 2505   2.508   0.724   2.556  0.2353  0.1565  0.3000
  627SOL    HW1 2506   2.464   0.810   2.548 -0.0842 -0.1392 -1.1036
  627SOL    HW2 2507   2.552   0.715   2.470  2.3772 -1.0204 -0.2309
  627SOL     MW 2508   2.508   0.734   2.543  0.4757 -0.0378  0.0448
  628SOL     OW 2509   2.264   1.367   1.286 -0.1097  0.0803 -0.4233
  628SOL    HW1 2510   2.244   1.298   1.222 -0.2118  0.1678  0.8438
  628SOL    HW2 2511   2.364   1.382   1.273  2.1982 -0.2731  0.5782
  628SOL     MW 2512   2.275   1.360   1.275  0.1813  0.0452 -0.1239
  629SOL     OW 2513   1.873   0.527   1.233 -0.1365 -0.3328  0.5690
  629SOL    HW1 2514   1.880   0.612   1.196 -0.0134 -0.9498 -2.9358
  629SOL    HW2 2515   1.778   0.508   1.239  0.4987 -2.9232  0.3966
  629SOL     MW 2516   1.862   0.535   1.229 -0.0364 -0.7560  0.0838
  630SOL     OW 2517   2.381   1.882   3.043  0.4727  0.0757 -0.3873
  630SOL    HW1 2518   2.407   1.938   2.967 -1.5300  0.0943  0.3982
  630SOL    HW2 2519   2.283   1.871   3.046 -0.6013  1.4036 -1.5649
  630SOL     MW 2520   2.372   1.888   3.034  0.0667  0.2534 -0.4390
  631SOL     OW 2521   2.044   1.699   1.553 -0.1729 -0.3422  0.4390
  631SOL    HW1 2522   2.054   1.620   1.611  0.3757 -4.7679  1.9454
  631SOL    HW2 2523   1.983   1.677   1.489  0.7771  0.2158  1.3627
  631SOL     MW 2524   2.037   1.686   1.552  0.0248 -0.8525  0.7596
  632SOL     OW 2525   0.231   1.967   1.434 -0.2197 -0.2959  0.4485
  632SOL    HW1 2526   0.158   1.980   1.502  0.3701 -2.4853 -0.7726
  632SOL    HW2 2527   0.259   1.876   1.462  0.4196 -2.1852  0.9685
  632SOL     MW 2528   0.225   1.957   1.447 -0.0575 -0.8341  0.3560
  633SOL     OW 2529   2.519   0.606   0.264 -0.5797 -0.3770  0.2672
  633SOL    HW1 2530   2.584   0.560   0.316 -1.2821 -4.0551 -0.4083
  633SOL    HW2 2531   2.492   0.545   0.200  1.9019 -0.0884 -0.0434
  633SOL     MW 2532   2.524   0.592   0.263 -0.3450 -0.8242  0.1371
  634SOL     OW 2533   2.679   0.008   0.660 -0.0889 -0.6704  0.0975
  634SOL    HW1 2534   2.723   0.091   0.659  0.9386  1.4753  1.2423
  634SOL    HW2 2535   2.635  -0.003   0.574 -1.7061 -0.6046  0.4711
  634SOL     MW 2536   2.679   0.017   0.648 -0.1667 -0.3786  0.2979
  635SOL     OW 2537   2.578   0.139   1.842 -0.1474 -0.1343  0.5671
  635SOL    HW1 2538   2.646   0.095   1.784 -0.2033  1.4142 -2.0396
  635SOL    HW2 2539   2.602   0.234   1.865  1.7969  2.6862  2.5548
  635SOL     MW 2540   2.590   0.146   1.837  0.1017  0.4421  0.4854
  636SOL     OW 2541   2.815   1.581   0.867 -0.3578  0.2024 -0.5110
  636SOL    HW1 2542   2.721   1.585   0.886 -1.4141 -2.2439  0.6184
  636SOL    HW2 2543   2.857   1.634   0.934 -0.7793 -0.4246  1.7865
  636SOL     MW 2544   2.808   1.589   0.878 -0.5528 -0.2031 -0.0589
  637SOL     OW 2545   2.883   1.490   0.614  0.0666  0.3995 -0.5138
  637SOL    HW1 2546   2.922   1.561   0.563  0.1117 -1.0081 -0.9387
  637SOL    HW2 2547   2.864   1.541   0.698  0.9525 -0.7570  1.1937
  637SOL     MW 2548   2.885   1.506   0.618  0.1894  0.0612 -0.3446
  638SOL     OW 2549   2.679   0.503   0.505  0.5782  0.0566  0.0815
  638SOL    HW1 2550   2.773   0.494   0.486  1.6483  1.1092 -1.7685
  638SOL    HW2 2551   2.681   0.553   0.589 -1.6081 -0.0775 -1.1853
  638SOL     MW 2552   2.692   0.508   0.514  0.4309  0.1778 -0.3297
  639SOL     OW 2553   1.719   0.034   0.555  0.5537  0.1309 -0.3502
  639SOL    HW1 2554   1.629   0.072   0.532 -0.5234  0.6226  0.3160
  639SOL    HW2 2555   1.731  -0.029   0.487 -1.4513  2.8705 -0.1718
  639SOL     MW 2556   1.708   0.031   0.543  0.1470  0.5573 -0.2388
  640SOL     OW 2557   0.272   1.336   0.087  0.3089  0.4862  0.0657
  640SOL    HW1 2558   0.306   1.337  -0.007  1.5320 -0.0031  0.4862
  640SOL    HW2 2559   0.285   1.246   0.114 -1.1747  0.2564  1.5795
  640SOL     MW 2560   0.278   1.324   0.078  0.2745  0.3913  0.3209
  641SOL     OW 2561   2.242   0.435   0.409 -0.1892  0.4336  0.2258
  641SOL    HW1 2562   2.261   0.400   0.327 -0.2109  1.0586  1.8655
  641SOL    HW2 2563   2.291   0.385   0.471  1.5506 -0.0341  2.0703
  641SOL     MW 2564   2.251   0.424   0.406  0.0375  0.4543  0.6855
  642SOL     OW 2565   0.058   0.017   0.490  0.1848 -0.1449 -0.2328
  642SOL    HW1 2566   0.013   0.095   0.463  1.7091  2.7259  0.0095
  642SOL    HW2 2567  -0.003  -0.010   0.559  0.0916  0.9575 -3.0461
  642SOL     MW 2568   0.044   0.024   0.496  0.3736  0.3793 -0.5720
  643SOL     OW 2569   2.002   0.345   1.716  0.0554 -0.1698  0.6933
  643SOL    HW1 2570   1.948   0.315   1.793 -2.3829 -0.9887  2.4155
  643SOL    HW2 2571   2.013   0.266   1.663 -2.4165  0.7951 -1.3870
  643SOL     MW 2572   1.996   0.331   1.719 -0.5924 -0.1505  0.6460
  644SOL     OW 2573   2.668   1.881   1.029 -0.3926 -0.6125 -0.3214
  644SOL    HW1 2574   2.646   1.806   1.083  3.9208 -1.5865 -0.9739
  644SOL    HW2 2575   2.586   1.927   1.002 -1.7039  0.3632 -0.3053
  644SOL     MW 2576   2.654   1.877   1.032  0.0035 -0.6123 -0.4053
  645SOL     OW 2577   2.808   0.833   0.670 -0.2186 -0.6273  0.6469
  645SOL    HW1 2578   2.883   0.787   0.700  0.7377  1.1849 -0.1313
  645SOL    HW2 2579   2.737   0.816   0.726  0.5785  0.2774  3.4179
  645SOL     MW 2580   2.808   0.825   0.681  0.0127 -0.2688  0.9099
  646SOL     OW 2581   0.078   2.273   0.851  0.0008  0.4101 -0.1681
  646SOL    HW1 2582   0.125   2.191   0.835  1.4070  0.1063 -0.0750
  646SOL    HW2 2583   0.047   2.319   0.774  0.5588 -0.9710  0.3423
  646SOL     MW 2584   0.080   2.268   0.839  0.2599  0.1878 -0.0885
  647SOL     OW 2585   2.717   0.492   2.951 -0.0935 -0.3682  0.6245
  647SOL    HW1 2586   2.650   0.444   3.003  0.5148  1.1589  1.6316
  647SOL    HW2 2587   2.723   0.565   3.011  1.6593  0.4523 -0.3374
  647SOL     MW 2588   2.709   0.495   2.966  0.2181 -0.0584  0.6305
  648SOL     OW 2589   2.208   0.730   1.112  0.1605  0.0915 -0.9327
  648SOL    HW1 2590   2.180   0.639   1.138  0.9545 -0.8514 -1.1422
  648SOL    HW2 2591   2.204   0.785   1.194  0.5005  1.2266  1.0597
  648SOL     MW 2592   2.204   0.725   1.127  0.3101  0.1169 -0.6975
  649SOL     OW 2593   2.401   2.694   1.340  0.3420 -0.1113 -0.0600
  649SOL    HW1 2594   2.489   2.728   1.351 -1.4942  0.4312 -0.4085
  649SOL    HW2 2595   2.426   2.618   1.284  2.9013  2.8328 -2.3403
  649SOL     MW 2596   2.416   2.689   1.334  0.4374  0.3488 -0.4069
  650SOL     OW 2597   2.832   0.247   0.695 -0.4222  0.3863  0.2965
  650SOL    HW1 2598   2.851   0.314   0.758  0.3215  0.0157  0.3358
  650SOL    HW2 2599   2.900   0.257   0.627 -1.0446 -2.6103  1.8427
  650SOL     MW 2600   2.843   0.257   0.694 -0.4062 -0.0580  0.5057
  651SOL     OW 2601   3.098   0.435   1.010  0.7092 -0.2060  0.3900
  651SOL    HW1 2602   3.158   0.457   0.930  0.7396  0.2525  0.0789
  651SOL    HW2 2603   3.033   0.507   1.009  0.3083  0.8648  1.5492
  651SOL     MW 2604   3.098   0.448   0.999  0.6603 -0.0043  0.5019
  652SOL     OW 2605   2.402   1.531   3.041 -0.0214 -0.9267 -0.0697
  652SOL    HW1 2606   2.444   1.551   2.953  1.2320 -1.6845 -1.4838
  652SOL    HW2 2607   2.322   1.588   3.035  3.2931  0.0456  0.0176
  652SOL     MW 2608   2.397   1.541   3.029  0.5813 -0.8984 -0.2447
  653SOL     OW 2609   1.808   0.463   0.331  0.2204 -0.0293  0.0065
  653SOL    HW1 2610   1.776   0.384   0.284  3.2101  3.4576 -0.4893
  653SOL    HW2 2611   1.851   0.507   0.259  2.4365 -1.2001  0.9060
  653SOL     MW 2612   1.809   0.458   0.315  0.9072  0.2763  0.0598
  654SOL     OW 2613   2.441   1.014   0.714 -0.3224 -0.0291 -0.6149
  654SOL    HW1 2614   2.368   0.996   0.657  1.4479  0.1244  0.8981
  654SOL    HW2 2615   2.481   0.928   0.728 -0.9354  3.3932 -0.7443
  654SOL     MW 2616   2.437   1.001   0.709 -0.1697  0.4427 -0.4324
  655SOL     OW 2617   2.902   0.833   0.392  0.2614 -0.7201  0.0875
  655SOL    HW1 2618   2.878   0.880   0.471 -0.5146 -0.3561  1.3170
  655SOL    HW2 2619   2.933   0.745   0.416 -0.1387  1.0908 -1.6807
  655SOL     MW 2620   2.903   0.827   0.406  0.1062 -0.4331  0.0164
  656SOL     OW 2621   1.760   2.652   1.351  0.1991 -0.2546 -0.2465
  656SOL    HW1 2622   1.830   2.722   1.358  1.1118 -2.7964  0.4181
  656SOL    HW2 2623   1.810   2.570   1.340 -0.1146 -1.3438 -1.5961
  656SOL     MW 2624   1.776   2.650   1.350  0.2781 -0.7337 -0.3369
  657SOL     OW 2625   0.152   1.768   1.166 -0.1579  0.7615 -0.0938
  657SOL    HW1 2626   0.212   1.834   1.144 -0.2164 -2.6321 -0.5464
  657SOL    HW2 2627   0.209   1.691   1.174  1.3493 -1.5979  0.0041
  657SOL     MW 2628   0.167   1.767   1.164  0.0332  0.0025 -0.1406
  658SOL     OW 2629   2.644   1.298   0.244 -0.3364  0.0103 -0.4097
  658SOL    HW1 2630   2.645   1.218   0.289  1.3330 -1.9216 -0.2073
  658SOL    HW2 2631   2.672   1.358   0.316  0.2235 -0.0985  0.8661
  658SOL     MW 2632   2.648   1.295   0.259 -0.0423 -0.2590 -0.2147
  659SOL     OW 2633   2.235   1.538   0.967 -0.5175 -0.2429 -0.4231
  659SOL    HW1 2634   2.326   1.548   0.941 -1.7906  1.6929  2.0660
  659SOL    HW2 2635   2.231   1.582   1.060 -0.1252 -1.3352 -0.9016
  659SOL     MW 2636   2.247   1.545   0.976 -0.6337 -0.1316 -0.1578
  660SOL     OW 2637   2.099   1.496   1.719 -0.3040 -0.1935  0.0221
  660SOL    HW1 2638   2.078   1.553   1.796 -2.4421 -0.8893 -1.1869
  660SOL    HW2 2639   2.017   1.445   1.699 -2.4685  2.3031  0.7366
  660SOL     MW 2640   2.085   1.497   1.727 -0.8717  0.0441 -0.0432
  661SOL     OW 2641   2.503   0.950   0.206 -0.0046 -0.1665  0.6303
  661SOL    HW1 2642   2.512   0.997   0.291 -2.4859 -0.8448  2.6662
  661SOL    HW2 2643   2.418   0.900   0.210  1.7189  0.5319  2.3945
  661SOL     MW 2644   2.493   0.950   0.218 -0.1046 -0.1639  1.1317
  662SOL     OW 2645   2.596   3.000   0.901 -0.1372 -0.5297 -0.0692
  662SOL    HW1 2646   2.509   3.029   0.921  2.0835  0.6917 -2.1108
  662SOL    HW2 2647   2.613   3.047   0.819 -0.8250 -0.6280 -1.0183
  662SOL     MW 2648   2.587   3.010   0.893  0.0651 -0.3816 -0.4638
  663SOL     OW 2649   2.662   1.485   0.436 -0.2159  0.1747  0.1168
  663SOL    HW1 2650   2.622   1.574   0.426 -0.3579  0.9485  2.7898
  663SOL    HW2 2651   2.732   1.490   0.498 -3.2710  2.1639  0.8843
  663SOL     MW 2652   2.666   1.497   0.443 -0.6377  0.5392  0.5707
  664SOL     OW 2653   2.560   1.536   1.603 -0.1191 -0.0956  0.1184
  664SOL    HW1 2654   2.529   1.621   1.571 -0.0685  0.1900 -1.0003
  664SOL    HW2 2655   2.484   1.473   1.590  1.9642  2.6748  0.3151
  664SOL     MW 2656   2.546   1.539   1.597  0.1625  0.3076 -0.0033
  665SOL     OW 2657   2.776   0.809   2.046  0.2115 -0.3309  0.6447
  665SOL    HW1 2658   2.784   0.855   1.963  2.5726  0.7528  0.8215
  665SOL    HW2 2659   2.835   0.734   2.036 -0.6431  0.2642  1.2248
  665SOL     MW 2660   2.785   0.805   2.034  0.4103 -0.1094  0.7446
  666SOL     OW 2661   2.763   3.076   1.715  0.2429 -0.3113 -0.0694
  666SOL    HW1 2662   2.782   3.058   1.620 -0.0229 -3.3105  0.5601
  666SOL    HW2 2663   2.718   2.993   1.740 -1.2909 -0.2507 -1.1446
  666SOL     MW 2664   2.759   3.062   1.706  0.0054 -0.6990 -0.1282
  667SOL     OW 2665   1.964   2.700   1.746  0.5517  0.1382 -0.1230
  667SOL    HW1 2666   1.997   2.679   1.834  1.1529  0.0394 -0.1346
  667SOL    HW2 2667   2.035   2.755   1.712  0.1009 -1.2256 -2.3630
  667SOL     MW 2668   1.978   2.704   1.753  0.5715 -0.0548 -0.4201
  668SOL     OW 2669   2.685   0.557   0.799 -0.2515 -0.7502  0.2514
  668SOL    HW1 2670   2.756   0.595   0.851  2.7892 -0.8018 -0.8994
  668SOL    HW2 2671   2.615   0.636   0.790 -3.2235  1.6335  0.2025
  668SOL     MW 2672   2.685   0.573   0.804 -0.2424 -0.4425  0.0931
  669SOL     OW 2673   0.140   0.863   0.758 -0.1018  0.1752 -0.5232
  669SOL    HW1 2674   0.099   0.946   0.794 -0.4162 -0.6609  3.1925
  669SOL    HW2 2675   0.199   0.817   0.826 -2.5778 -1.6678  0.1943
  669SOL     MW 2676   0.142   0.868   0.772 -0.4700 -0.1783  0.0617
  670SOL     OW 2677   2.904   0.305   0.191  0.7608  0.9646  0.4178
  670SOL    HW1 2678   2.941   0.261   0.108 -0.3361 -0.9459 -0.5459
  670SOL    HW2 2679   2.914   0.403   0.172 -0.4618  0.2868 -1.0866
  670SOL     MW 2680   2.910   0.312   0.178  0.4547  0.6231  0.0921
  671SOL     OW 2681   1.998   3.065   1.580 -0.2214 -0.1479  0.2005
  671SOL    HW1 2682   1.950   3.010   1.517 -1.3390 -1.0719  1.7253
  671SOL    HW2 2683   1.942   3.090   1.656  1.1439  3.3372  0.4521
  671SOL     MW 2684   1.984   3.061   1.582 -0.1887  0.1900  0.4349
  672SOL     OW 2685   1.899   1.686   1.323 -0.5303 -0.2450 -0.3022
  672SOL    HW1 2686   1.839   1.758   1.356 -0.6730  0.6355  1.7383
  672SOL    HW2 2687   1.929   1.732   1.241  0.5109  2.0340 -1.7521
  672SOL     MW 2688   1.895   1.701   1.316 -0.4117  0.1718 -0.2243
  673SOL     OW 2689   2.799   1.105   0.632  0.1943  0.0916 -0.2502
  673SOL    HW1 2690   2.808   1.012   0.644 -2.4287  1.0570 -0.5127
  673SOL    HW2 2691   2.884   1.148   0.653  0.8923  1.3875  0.6686
  673SOL     MW 2692   2.811   1.098   0.636 -0.0597  0.3900 -0.1636
  674SOL     OW 2693   2.445   0.008   1.243 -0.1620  0.1117 -0.0333
  674SOL    HW1 2694   2.374   0.009   1.172  1.8813  0.1572  1.3475
  674SOL    HW2 2695   2.471  -0.081   1.232  0.4806 -0.0224  1.5114
  674SOL     MW 2696   2.439  -0.003   1.233  0.1924  0.1000  0.3527
  675SOL     OW 2697   3.037   0.877   1.107 -0.4079  0.2356  0.1034
  675SOL    HW1 2698   3.095   0.920   1.175 -0.6409 -0.9248  0.0334
  675SOL    HW2 2699   3.049   0.923   1.029  0.0190 -1.4613  1.8874
  675SOL     MW 2700   3.046   0.889   1.106 -0.3823 -0.1414  0.3295
  676SOL     OW 2701   2.961   1.479   1.656  0.4928 -0.3698  0.8616
  676SOL    HW1 2702   2.894   1.415   1.655 -0.3877  1.0763  1.4487
  676SOL    HW2 2703   2.982   1.460   1.744  1.6871 -1.5417  0.3278
  676SOL     MW 2704   2.955   1.468   1.668  0.5342 -0.3336  0.8686
  677SOL     OW 2705   2.379   0.617   2.015  0.3331 -0.6938 -0.6098
  677SOL    HW1 2706   2.328   0.558   1.961 -0.5656 -1.7534 -1.6102
  677SOL    HW2 2707   2.330   0.707   2.006 -1.0102  0.9999  2.4031
  677SOL     MW 2708   2.365   0.621   2.007  0.0373 -0.6102 -0.3443
  678SOL     OW 2709   2.485   1.697   0.329 -0.1315  0.6575  0.1400
  678SOL    HW1 2710   2.401   1.722   0.368  1.0364 -2.0692  3.3765
  678SOL    HW2 2711   2.466   1.618   0.278 -1.9531  3.7821  1.3881
  678SOL     MW 2712   2.471   1.690   0.327 -0.2178  0.7100  0.7317
  679SOL     OW 2713   2.206   0.467   1.321 -0.2475  0.0021  0.6788
  679SOL    HW1 2714   2.207   0.380   1.279 -0.2400 -0.4430  0.7871
  679SOL    HW2 2715   2.139   0.477   1.393 -0.3765  2.2890  1.7595
  679SOL     MW 2716   2.197   0.457   1.325 -0.2635  0.2451  0.8357
  680SOL     OW 2717   2.379   0.178   1.452  0.1013 -0.0420  0.2774
  680SOL    HW1 2718   2.281   0.179   1.462  1.1632  0.5229 -0.3248
  680SOL    HW2 2719   2.405   0.122   1.387 -0.3258  1.2310 -2.8889
  680SOL     MW 2720   2.370   0.171   1.445  0.1851  0.2005 -0.2198
  681SOL     OW 2721   0.282   0.576   1.577  0.3123  1.0479 -0.0983
  681SOL    HW1 2722   0.263   0.507   1.642 -0.8279 -1.5946  1.2877
  681SOL    HW2 2723   0.363   0.545   1.530  1.1520  0.2873  0.0537
  681SOL     MW 2724   0.290   0.563   1.579  0.2726  0.5989  0.1046
  682SOL     OW 2725   0.142   2.803   1.548  0.3559 -0.4292  0.3745
  682SOL    HW1 2726   0.206   2.875   1.572  2.3223 -2.0656 -0.5191
  682SOL    HW2 2727   0.061   2.845   1.564  1.3889 -0.7224  1.6759
  682SOL     MW 2728   0.140   2.818   1.553  0.7517 -0.6838  0.4283
  683SOL     OW 2729   2.068   0.800   2.949  0.2333  0.4984  0.4869
  683SOL    HW1 2730   1.981   0.768   2.951 -0.1748 -1.1261  0.9310
  683SOL    HW2 2731   2.069   0.888   2.994 -0.8573  0.2935 -2.5344
  683SOL     MW 2732   2.057   0.807   2.955  0.0356  0.2570  0.1468
  684SOL     OW 2733   2.253   1.665   0.714 -0.3910 -0.3428 -0.7373
  684SOL    HW1 2734   2.175   1.669   0.664 -0.4871 -0.3222 -0.7941
  684SOL    HW2 2735   2.235   1.624   0.802  1.6390  1.9315  0.3972
  684SOL     MW 2736   2.240   1.661   0.719 -0.1359 -0.0400 -0.5951
  685SOL     OW 2737   2.647   1.706   1.257  0.4711  0.2728  0.6686
  685SOL    HW1 2738   2.717   1.720   1.320  0.2238 -0.0600  1.3011
  685SOL    HW2 2739   2.646   1.612   1.248  1.3024 -1.8543 -0.2974
  685SOL     MW 2740   2.656   1.695   1.264  0.5482 -0.0518  0.6246
  686SOL     OW 2741   2.902   0.740   1.463 -0.1531  0.1003 -0.6472
  686SOL    HW1 2742   2.880   0.683   1.537 -1.2212 -0.2459  1.6174
  686SOL    HW2 2743   3.000   0.735   1.463 -2.6495 -3.6974  1.8036
  686SOL     MW 2744   2.912   0.732   1.473 -0.6234 -0.4465 -0.0250
  687SOL     OW 2745   2.149   0.212   1.212 -0.3736  0.0221 -0.1493
  687SOL    HW1 2746   2.193   0.153   1.154  0.5110  1.1890  1.5788
  687SOL    HW2 2747   2.084   0.253   1.158  3.3205 -0.6094 -1.6455
  687SOL     MW 2748   2.146   0.210   1.198  0.2305  0.0928 -0.1187
  688SOL     OW 2749   2.428   0.580   1.467 -0.4061 -0.4435 -0.1048
  688SOL    HW1 2750   2.376   0.541   1.395  0.5012 -0.6167 -0.5328
  688SOL    HW2 2751   2.369   0.600   1.541 -0.7807 -1.4426  1.5182
  688SOL     MW 2752   2.414   0.578   1.467 -0.3358 -0.5982  0.0529
  689SOL     OW 2753   2.463   0.700   2.936 -0.7330  0.3287 -0.8555
  689SOL    HW1 2754   2.462   0.760   2.865 -0.8654 -1.1823 -0.0428
  689SOL    HW2 2755   2.530   0.745   2.993 -0.9573 -0.7384 -1.3796
  689SOL     MW 2756   2.472   0.714   2.934 -0.7800 -0.0115 -0.8174
  690SOL     OW 2757   1.997   0.839   1.897  0.1658  0.3672  0.4464
  690SOL    HW1 2758   1.955   0.755   1.875  2.9072  0.3092 -2.5906
  690SOL    HW2 2759   2.032   0.871   1.813 -1.8603  0.3711  2.1616
  690SOL     MW 2760   1.996   0.832   1.883  0.2602  0.3601  0.2720
  691SOL     OW 2761   2.376   0.228   0.852 -0.2130 -0.2096  0.3042
  691SOL    HW1 2762   2.431   0.282   0.906 -1.8738 -2.2264  2.1159
  691SOL    HW2 2763   2.284   0.252   0.850  0.9747 -1.0940 -5.0232
  691SOL     MW 2764   2.371   0.238   0.859 -0.2754 -0.5924 -0.1597
  692SOL     OW 2765   2.888   1.653   1.458 -0.4992  0.2716 -0.0611
  692SOL    HW1 2766   2.914   1.596   1.527 -0.7110 -0.9788  0.6697
  692SOL    HW2 2767   2.907   1.745   1.490  0.8825  1.6268 -0.0973
  692SOL     MW 2768   2.894   1.658   1.471 -0.3448  0.2854  0.0306
  693SOL     OW 2769   2.245   0.406   0.126  0.2334  0.6970 -0.9631
  693SOL    HW1 2770   2.168   0.349   0.120 -0.1927 -1.7383 -0.3477
  693SOL    HW2 2771   2.230   0.481   0.071 -2.6572 -1.6870  1.1136
  693SOL     MW 2772   2.233   0.409   0.118 -0.2042  0.0611 -0.6079
  694SOL     OW 2773   1.898   1.215   1.171 -0.6173  0.4396  0.3176
  694SOL    HW1 2774   1.995   1.212   1.156 -0.0441 -4.4495 -1.0429
  694SOL    HW2 2775   1.879   1.123   1.199 -0.2607 -0.3847 -0.4929
  694SOL     MW 2776   1.909   1.203   1.173 -0.4946 -0.3142  0.0311
  695SOL     OW 2777   3.025   1.500   1.294 -0.1418 -0.9722 -0.7401
  695SOL    HW1 2778   2.978   1.495   1.210  1.2943 -0.3862  0.0224
  695SOL    HW2 2779   2.982   1.575   1.347 -0.5581  0.2169  1.6636
  695SOL     MW 2780   3.013   1.510   1.290 -0.0073 -0.7380 -0.3224
  696SOL     OW 2781   2.070   1.363   0.809  0.0275  0.2588  0.1433
  696SOL    HW1 2782   2.116   1.411   0.884  4.1695  0.6245  2.3214
  696SOL    HW2 2783   2.039   1.282   0.841 -1.5736 -1.0927  0.5472
  696SOL     MW 2784   2.072   1.359   0.823  0.3628  0.1287  0.4840
  697SOL     OW 2785   2.886   1.019   2.180 -0.4497 -0.3280  0.6740
  697SOL    HW1 2786   2.832   1.091   2.187  0.3640 -1.3544 -0.7245
  697SOL    HW2 2787   2.835   0.947   2.141 -1.9283  2.8337 -2.6384
  697SOL     MW 2788   2.872   1.019   2.176 -0.5375 -0.0463  0.0524
  698SOL     OW 2789   2.532   0.339   0.042  0.8983  0.2380 -0.2032
  698SOL    HW1 2790   2.439   0.349   0.064 -1.9917 -1.2242  1.5902
  698SOL    HW2 2791   2.557   0.270   0.109  1.0984 -1.7696  2.5270
  698SOL     MW 2792   2.523   0.331   0.054  0.5434 -0.2198  0.3936
  699SOL     OW 2793   1.846   1.577   2.066 -0.2281  0.6880 -0.1453
  699SOL    HW1 2794   1.821   1.485   2.051  3.0912 -0.3354  0.2710
  699SOL    HW2 2795   1.942   1.574   2.043  3.8092  3.0577 -0.7275
  699SOL     MW 2796   1.855   1.564   2.061  0.7425  0.8656 -0.1672
  700SOL     OW 2797   2.721   0.926   1.540  0.6307  0.2978  0.0378
  700SOL    HW1 2798   2.733   1.010   1.494  1.6767  0.9233 -1.9899
  700SOL    HW2 2799   2.778   0.859   1.500  0.9941  3.2809 -2.8082
  700SOL     MW 2800   2.730   0.928   1.529  0.8167  0.7739 -0.6053
  701SOL     OW 2801   1.662   1.205   2.460  0.4621 -0.1357 -0.6147
  701SOL    HW1 2802   1.751   1.191   2.485 -1.5450  0.6038  0.5474
  701SOL    HW2 2803   1.627   1.244   2.544 -1.5122  1.5946  0.5539
  701SOL     MW 2804   1.669   1.208   2.474 -0.0632  0.1902 -0.3072
  702SOL     OW 2805   2.147   0.413   0.846 -0.5808 -0.0476  0.1762
  702SOL    HW1 2806   2.127   0.353   0.774  1.4844  0.8945  0.1727
  702SOL    HW2 2807   2.225   0.469   0.815  1.1492  0.2465  1.6359
  702SOL     MW 2808   2.155   0.412   0.833 -0.0801  0.1155  0.3683
  703SOL     OW 2809   2.716   1.218   1.070 -0.1109 -0.0181 -0.1189
  703SOL    HW1 2810   2.687   1.205   0.982  0.1619 -0.6930 -0.5674
  703SOL    HW2 2811   2.733   1.125   1.106 -2.4315  2.4225 -0.6813
  703SOL     MW 2812   2.715   1.204   1.063 -0.3811  0.2149 -0.2523
  704SOL     OW 2813   3.103   1.165   0.101  0.7217  0.1164  0.5219
  704SOL    HW1 2814   3.007   1.183   0.097  1.6710 -1.0263 -2.1918
  704SOL    HW2 2815   3.132   1.125   0.186 -0.2938  1.9624 -0.4905
  704SOL     MW 2816   3.094   1.162   0.112  0.7130  0.2092  0.0302
  705SOL     OW 2817   2.177   1.643   1.252 -0.2150  0.3081  0.2049
  705SOL    HW1 2818   2.097   1.671   1.290  1.0133 -1.7337  1.1690
  705SOL    HW2 2819   2.185   1.553   1.289  2.1712  0.4531  2.5024
  705SOL     MW 2820   2.168   1.635   1.262  0.2619  0.0579  0.6352
  706SOL     OW 2821   3.035   1.255   0.650 -0.0828  0.0294 -0.1368
  706SOL    HW1 2822   3.076   1.239   0.558  0.8897 -3.2281  1.7310
  706SOL    HW2 2823   2.984   1.335   0.644 -0.2288 -0.7378  1.0157
  706SOL     MW 2824   3.034   1.264   0.637  0.0263 -0.5017  0.2617
  707SOL     OW 2825   2.289   0.050   1.029 -0.4400 -0.0072 -0.4962
  707SOL    HW1 2826   2.336   0.108   0.970 -2.6751  1.1327 -0.5182
  707SOL    HW2 2827   2.241  -0.005   0.969  0.3178  0.2210  0.4173
  707SOL     MW 2828   2.289   0.051   1.014 -0.6349  0.1733 -0.3786
  708SOL     OW 2829   2.412   1.449   0.218 -0.4331  0.1023 -0.1675
  708SOL    HW1 2830   2.480   1.383   0.245  2.6853  1.4200 -1.6656
  708SOL    HW2 2831   2.439   1.471   0.130 -2.5140 -2.6386 -0.0031
  708SOL     MW 2832   2.425   1.443   0.210 -0.2962 -0.0855 -0.3435
  709SOL     OW 2833   1.750   1.636   0.210  0.4205  0.1685  0.8943
  709SOL    HW1 2834   1.732   1.661   0.118 -1.8050  2.1119  1.3930
  709SOL    HW2 2835   1.670   1.644   0.264  0.2477  0.3695  0.0563
  709SOL     MW 2836   1.737   1.640   0.205  0.1041  0.4515  0.8495
  710SOL     OW 2837   2.171   1.146   1.169  0.1090 -0.9670  0.0567
  710SOL    HW1 2838   2.186   1.106   1.082 -2.1893  1.1422  0.0387
  710SOL    HW2 2839   2.151   1.075   1.235 -0.6761  0.4137 -1.2590
  710SOL     MW 2840   2.170   1.131   1.166 -0.2978 -0.5066 -0.1193
  711SOL     OW 2841   2.327   0.161   1.749 -0.4523 -0.7432  0.7972
  711SOL    HW1 2842   2.420   0.144   1.779  0.8981  1.0881 -0.3908
  711SOL    HW2 2843   2.334   0.168   1.654 -1.7211 -0.7487 -1.4721
  711SOL     MW 2844   2.340   0.160   1.740 -0.4416 -0.5023  0.3410
  712SOL     OW 2845   1.908   0.611   0.076 -0.2609  0.6517 -0.7427
  712SOL    HW1 2846   1.837   0.667   0.071  0.7552  0.3412 -1.1260
  712SOL    HW2 2847   1.974   0.658   0.127 -1.6949  3.4302  0.6913
  712SOL     MW 2848   1.908   0.625   0.082 -0.3160  0.9773 -0.6041
  713SOL     OW 2849   2.568   0.828   1.087 -0.1546 -0.3152 -0.0506
  713SOL    HW1 2850   2.581   0.742   1.113  1.1341  0.2075  2.9393
  713SOL    HW2 2851   2.500   0.865   1.141  3.0665 -1.1257 -2.2582
  713SOL     MW 2852   2.560   0.822   1.097  0.4404 -0.3532  0.0527
  714SOL     OW 2853   2.195   0.189   1.991 -0.4977 -0.1684 -0.6238
  714SOL    HW1 2854   2.245   0.147   2.066  0.2732 -1.8559  0.7692
  714SOL    HW2 2855   2.236   0.179   1.905 -0.9186  1.1751  1.8927
  714SOL     MW 2856   2.207   0.182   1.990 -0.4515 -0.2138 -0.1080
  715SOL     OW 2857   1.757   1.932   1.726  0.5567  0.1863  0.0659
  715SOL    HW1 2858   1.847   1.940   1.715 -0.8119  0.5600  1.4504
  715SOL    HW2 2859   1.746   1.884   1.809  1.1872  0.7962  1.7035
  715SOL     MW 2860   1.768   1.926   1.736  0.4593  0.3160  0.4646
  716SOL     OW 2861   2.314   0.595   0.714  0.6379 -0.0301  0.2434
  716SOL    HW1 2862   2.364   0.524   0.677  0.9772  1.1144  1.4443
  716SOL    HW2 2863   2.266   0.638   0.642 -0.4001  2.3570  1.8599
  716SOL     MW 2864   2.314   0.592   0.700  0.5457  0.4358  0.6151
  717SOL     OW 2865   2.864   1.600   2.849 -0.6045 -0.3947 -0.2403
  717SOL    HW1 2866   2.951   1.576   2.884  0.2254  1.1993  2.6291
  717SOL    HW2 2867   2.818   1.626   2.929  1.7666 -1.7643  0.1193
  717SOL     MW 2868   2.869   1.601   2.864 -0.1822 -0.3651  0.1858
  718SOL     OW 2869   2.701   1.417   1.337  0.3117 -0.2227  0.4609
  718SOL    HW1 2870   2.694   1.434   1.433 -0.1460 -2.2903  0.7669
  718SOL    HW2 2871   2.726   1.324   1.337 -0.4417 -0.1922  0.1285
  718SOL     MW 2872   2.703   1.407   1.350  0.1519 -0.4914  0.4574
  719SOL     OW 2873   2.220   1.254   0.606  0.2302  0.0099 -0.4616
  719SOL    HW1 2874   2.312   1.275   0.603 -2.0867 -1.2635  0.5263
  719SOL    HW2 2875   2.175   1.293   0.682 -0.5697 -0.4966 -0.7629
  719SOL     MW 2876   2.226   1.262   0.616 -0.1811 -0.2250 -0.3710
  720SOL     OW 2877   2.826   1.212   0.059  0.4706 -0.1227 -0.3058
  720SOL    HW1 2878   2.806   1.115   0.083 -0.5852  0.0220 -0.8499
  720SOL    HW2 2879   2.748   1.256   0.103  2.3082  2.2789  0.4716
  720SOL     MW 2880   2.813   1.205   0.068  0.5738  0.2133 -0.2750
  721SOL     OW 2881   2.504   0.870   1.403 -0.3278  0.6402  0.1075
  721SOL    HW1 2882   2.502   0.773   1.393  1.4606  2.7608 -0.6124
  721SOL    HW2 2883   2.574   0.881   1.470  0.1425 -0.8824 -0.5242
  721SOL     MW 2884   2.513   0.858   1.411 -0.0298  0.7191 -0.0709
  722SOL     OW 2885   2.559   1.093   0.414 -0.4334 -0.5383  0.3769
  722SOL    HW1 2886   2.512   1.160   0.461 -1.5645  1.1963 -0.8138
  722SOL    HW2 2887   2.637   1.094   0.466  3.1713 -3.9267 -0.7980
  722SOL     MW 2888   2.563   1.102   0.427 -0.1070 -0.7565  0.0648
  723SOL     OW 2889   2.327   1.413   1.582  0.6856 -0.1237 -0.0517
  723SOL    HW1 2890   2.294   1.405   1.494 -0.1798 -0.5950  0.9340
  723SOL    HW2 2891   2.262   1.459   1.635  0.1097 -0.5542  1.6851
  723SOL     MW 2892   2.314   1.418   1.577  0.4955 -0.2427  0.3075
  724SOL     OW 2893   2.438   0.390   0.602  0.3240 -0.2273 -0.6893
  724SOL    HW1 2894   2.474   0.311   0.640  0.1484  0.1055  1.2047
  724SOL    HW2 2895   2.513   0.424   0.555 -0.5678  0.3616  1.3103
  724SOL     MW 2896   2.452   0.384   0.600  0.1832 -0.1057 -0.1756
  725SOL     OW 2897   2.572   0.547   1.198  0.8065 -0.7011 -0.6973
  725SOL    HW1 2898   2.665   0.550   1.216 -2.5079 -1.5494  1.1123
  725SOL    HW2 2899   2.533   0.508   1.277  0.4374  0.1444  1.2611
  725SOL     MW 2900   2.579   0.542   1.211  0.3205 -0.7015 -0.2001
  726SOL     OW 2901   2.569   2.468   0.566  0.2272  0.1222 -0.0888
  726SOL    HW1 2902   2.519   2.536   0.521  0.7564  2.7724  0.4564
  726SOL    HW2 2903   2.543   2.457   0.660  3.8249 -2.7237 -2.5763
  726SOL     MW 2904   2.559   2.476   0.572  0.7717  0.0964 -0.3451
  727SOL     OW 2905   2.878   0.323   1.745 -0.7461 -0.1463  0.6907
  727SOL    HW1 2906   2.832   0.293   1.668  2.3583  0.5941  2.2797
  727SOL    HW2 2907   2.834   0.294   1.819 -0.0953  1.5751 -1.1208
  727SOL     MW 2908   2.866   0.315   1.745 -0.2507  0.1785  0.6613
  728SOL     OW 2909   2.766   1.133   2.897  0.3123 -0.1772  0.2648
  728SOL    HW1 2910   2.804   1.195   2.835  1.5639 -0.5493 -0.9111
  728SOL    HW2 2911   2.770   1.174   2.982 -0.4401 -1.2990  1.1554
  728SOL     MW 2912   2.772   1.147   2.900  0.3782 -0.3743  0.2272
  729SOL     OW 2913   2.500   1.463   1.172 -0.3889 -0.4909  0.4565
  729SOL    HW1 2914   2.587   1.428   1.213 -1.3003 -3.1988  1.4211
  729SOL    HW2 2915   2.499   1.434   1.079  0.7382  0.6160 -0.5938
  729SOL     MW 2916   2.511   1.454   1.165 -0.3604 -0.7021  0.4452
  730SOL     OW 2917   2.292   1.190   0.181  0.1933 -0.3289  0.3141
  730SOL    HW1 2918   2.376   1.145   0.186  2.2541 -1.4912  1.7409
  730SOL    HW2 2919   2.305   1.289   0.193 -3.9723  0.9325  1.5120
  730SOL     MW 2920   2.305   1.197   0.183 -0.0844 -0.3158  0.6604
  731SOL     OW 2921   2.778   1.983   2.903  0.0816  0.7820  0.3626
  731SOL    HW1 2922   2.718   2.010   2.837  0.3504 -3.0969  1.6552
  731SOL    HW2 2923   2.859   2.007   2.863  0.5936  0.5081 -0.8142
  731SOL     MW 2924   2.780   1.989   2.889  0.1847  0.2341  0.3779
  732SOL     OW 2925   2.225   0.885   1.352  0.3555 -0.5083  0.4140
  732SOL    HW1 2926   2.172   0.894   1.432  0.8361  0.0502  0.2176
  732SOL    HW2 2927   2.316   0.880   1.377 -1.3010  1.9856 -3.4849
  732SOL     MW 2928   2.230   0.886   1.366  0.2004 -0.1056 -0.1263
  733SOL     OW 2929   2.357   2.808   3.004 -0.0109  0.8923 -0.4316
  733SOL    HW1 2930   2.275   2.847   2.970 -0.4888  0.9237  2.0740
  733SOL    HW2 2931   2.339   2.715   3.005  0.7246 -0.4041 -2.0739
  733SOL     MW 2932   2.344   2.801   3.000  0.0231  0.7254 -0.3177
  734SOL     OW 2933   1.450   0.322   2.435  0.4145 -0.5195 -0.3932
  734SOL    HW1 2934   1.412   0.272   2.507 -0.5746 -2.1144 -0.2471
  734SOL    HW2 2935   1.509   0.255   2.391 -0.1045 -2.5516  0.4703
  734SOL     MW 2936   1.453   0.306   2.439  0.2155 -0.9981 -0.2600
  735SOL     OW 2937   2.915   0.905   2.632 -0.0014 -0.1681 -0.3741
  735SOL    HW1 2938   2.901   0.808   2.625  1.5348 -2.9411 -2.0054
  735SOL    HW2 2939   2.958   0.933   2.712 -1.7768  1.0499 -1.2926
  735SOL     MW 2940   2.919   0.896   2.642 -0.0330 -0.3733 -0.7105
  736SOL     OW 2941   0.099   0.610   2.503 -0.2667  0.1439  0.0609
  736SOL    HW1 2942   0.122   0.680   2.443 -2.2271 -1.1073  0.3477
  736SOL    HW2 2943   0.086   0.533   2.446  0.2123 -0.2114  2.0092
  736SOL     MW 2944   0.100   0.609   2.488 -0.4622 -0.0681  0.3558
  737SOL     OW 2945   2.933   0.620   2.598 -0.0246 -0.2018  0.1019
  737SOL    HW1 2946   2.869   0.595   2.531 -0.6938 -1.2398 -1.9916
  737SOL    HW2 2947   3.019   0.604   2.555  0.8516  1.1223 -0.4483
  737SOL     MW 2948   2.936   0.614   2.583  0.0027 -0.1641 -0.2469
  738SOL     OW 2949   0.117   0.593   1.945  0.1690  0.5151  0.6159
  738SOL    HW1 2950   0.187   0.643   1.903 -1.1888  1.0100  0.0867
  738SOL    HW2 2951   0.159   0.507   1.949 -1.3497 -0.3526  1.5131
  738SOL     MW 2952   0.132   0.588   1.940 -0.2105  0.4659  0.6644
  739SOL     OW 2953   2.493   0.981   2.035 -0.2425 -0.2428  0.4003
  739SOL    HW1 2954   2.425   0.928   1.996 -0.1620  0.2374 -0.5348
  739SOL    HW2 2955   2.510   1.031   1.957  1.8774 -0.9817  0.2449
  739SOL     MW 2956   2.486   0.981   2.019  0.0479 -0.2769  0.2564
  740SOL     OW 2957   0.235   1.745   2.965 -0.7016 -0.2605 -0.2671
  740SOL    HW1 2958   0.185   1.665   2.983  0.5476  0.9003  0.7719
  740SOL    HW2 2959   0.331   1.725   2.972  1.3968  1.1502  1.4673
  740SOL     MW 2960   0.241   1.732   2.968 -0.2599  0.0788  0.0988
  741SOL     OW 2961   2.207   1.104   2.768 -0.1194  0.9046  0.2967
  741SOL    HW1 2962   2.114   1.076   2.768  2.0399 -3.9264  0.9909
  741SOL    HW2 2963   2.208   1.172   2.834 -1.8410 -2.2821  0.7998
  741SOL     MW 2964   2.195   1.109   2.776 -0.0617 -0.1532  0.4547
  742SOL     OW 2965   1.557   1.208   2.213  0.6975  0.1163  0.0657
  742SOL    HW1 2966   1.541   1.113   2.198  0.1910 -0.4114 -1.5530
  742SOL    HW2 2967   1.586   1.207   2.306 -0.3968  2.3698 -0.9491
  742SOL     MW 2968   1.558   1.195   2.223  0.4863  0.3440 -0.2818
  743SOL     OW 2969   2.488   1.306   2.720  0.5376  0.4288  0.0026
  743SOL    HW1 2970   2.399   1.309   2.693 -2.8379  0.1853  0.4216
  743SOL    HW2 2971   2.512   1.216   2.726  1.2933 -0.2089 -0.0139
  743SOL     MW 2972   2.479   1.295   2.717  0.1919  0.3125  0.0557
  744SOL     OW 2973   2.762   0.921   1.800  0.2517  0.0190  0.7276
  744SOL    HW1 2974   2.683   0.976   1.828  2.1995  0.9034  1.2927
  744SOL    HW2 2975   2.755   0.919   1.702  0.2703 -5.0833  1.3162
  744SOL     MW 2976   2.751   0.928   1.791  0.5111 -0.5375  0.8798
  745SOL     OW 2977   1.687   0.441   2.492  0.0149 -0.5715  0.5667
  745SOL    HW1 2978   1.691   0.453   2.397  1.0286 -1.8783 -1.1282
  745SOL    HW2 2979   1.598   0.404   2.505 -1.0573  0.0660 -0.0723
  745SOL     MW 2980   1.676   0.438   2.481  0.0072 -0.6598  0.2588
  746SOL     OW 2981   1.560   1.471   1.588  0.6089  0.2751  0.9002
  746SOL    HW1 2982   1.650   1.495   1.609  1.3966  0.1651  1.6594
  746SOL    HW2 2983   1.520   1.433   1.669  0.9130 -0.2895  1.4138
  746SOL     MW 2984   1.566   1.469   1.601  0.7530  0.1861  1.0681
  747SOL     OW 2985   2.555   1.147   1.813  0.3186  0.4978 -0.0022
  747SOL    HW1 2986   2.460   1.147   1.789 -0.6283 -0.4289 -1.1714
  747SOL    HW2 2987   2.583   1.211   1.884 -1.3804 -1.4713  2.4916
  747SOL     MW 2988   2.546   1.156   1.819 -0.0305  0.1157  0.1725
  748SOL     OW 2989   0.098   3.084   1.829 -0.0456 -0.3520 -0.3718
  748SOL    HW1 2990   0.195   3.093   1.805  2.8209 -1.3528  2.0163
  748SOL    HW2 2991   0.080   3.136   1.912 -1.1993 -0.2903  1.6676
  748SOL     MW 2992   0.109   3.092   1.836  0.1803 -0.4759  0.2123
  749SOL     OW 2993   2.451   0.518   2.719  0.3616  0.0880 -0.7102
  749SOL    HW1 2994   2.481   0.590   2.660  1.3378 -0.2262 -0.6761
  749SOL    HW2 2995   2.475   0.558   2.802 -0.0990 -3.3916 -0.1122
  749SOL     MW 2996   2.458   0.533   2.723  0.4297 -0.4126 -0.6268
  750SOL     OW 2997   2.023   3.059   2.000 -0.0362 -0.2787 -0.1457
  750SOL    HW1 2998   2.076   3.134   2.013  0.5430 -1.7929  0.4691
  750SOL    HW2 2999   2.079   2.985   1.999 -0.0698 -0.2498 -0.7284
  750SOL     MW 3000   2.037   3.059   2.002  0.0358 -0.4747 -0.1415
  751SOL     OW 3001   0.047   0.412   2.307 -0.6334 -0.1523 -0.0609
  751SOL    HW1 3002  -0.026   0.363   2.338  1.0965  1.0942 -0.2194
  751SOL    HW2 3003   0.116   0.346   2.292  1.0143  2.0155  2.0182
  751SOL     MW 3004   0.046   0.397   2.309 -0.1878  0.2982  0.1925
  752SOL     OW 3005   2.146   0.824   2.686 -0.1336  0.1806  0.2620
  752SOL    HW1 3006   2.209   0.894   2.661  1.4018 -0.7874 -0.5098
  752SOL    HW2 3007   2.124   0.833   2.782  2.6871  0.4360  0.5102
  752SOL     MW 3008   2.151   0.835   2.695  0.4412  0.0866  0.1929
  753SOL     OW 3009   2.915   0.304   2.402  0.5511  1.0473  0.0367
  753SOL    HW1 3010   2.872   0.230   2.365  0.0407 -0.1153 -1.2771
  753SOL    HW2 3011   2.854   0.381   2.414 -2.6058  1.4714 -0.3943
  753SOL     MW 3012   2.901   0.305   2.399  0.0672  0.9499 -0.1935
  754SOL     OW 3013   2.256   2.991   2.616 -0.3409  0.6366  0.1893
  754SOL    HW1 3014   2.266   2.950   2.527 -0.1230 -3.1405  0.5980
  754SOL    HW2 3015   2.330   2.949   2.660 -2.7860 -0.5040 -2.1042
  754SOL     MW 3016   2.267   2.980   2.610 -0.6347 -0.0122 -0.0593
  755SOL     OW 3017   2.720   1.513   2.503  0.3020  0.1722 -0.3898
  755SOL    HW1 3018   2.707   1.458   2.580  1.0185 -2.0191  1.7203
  755SOL    HW2 3019   2.780   1.586   2.529 -0.3709  0.3306 -0.5897
  755SOL     MW 3020   2.726   1.516   2.517  0.3078 -0.0960 -0.1377
  756SOL     OW 3021   2.261   1.280   2.987 -0.4585 -0.1787 -0.1134
  756SOL    HW1 3022   2.309   1.364   2.993  0.1522  0.3497 -0.1372
  756SOL    HW2 3023   2.325   1.210   3.019  1.0493 -0.2831  3.2618
  756SOL     MW 3024   2.275   1.282   2.992 -0.1790 -0.1227  0.3287
  757SOL     OW 3025   2.092   0.953   1.607 -0.1639  0.1445  0.1811
  757SOL    HW1 3026   2.130   0.865   1.612 -0.2195 -0.7223  0.4082
  757SOL    HW2 3027   1.995   0.945   1.588 -0.8501  0.7599 -3.7177
  757SOL     MW 3028   2.084   0.941   1.605 -0.2618  0.1113 -0.3033
  758SOL     OW 3029   2.194   1.756   2.637  0.3608  0.2006  0.3151
  758SOL    HW1 3030   2.176   1.766   2.539  0.2462 -0.5462 -0.8450
  758SOL    HW2 3031   2.290   1.752   2.653 -0.5456 -1.2269  2.8455
  758SOL     MW 3032   2.204   1.757   2.626  0.2261 -0.0863  0.4959
  759SOL     OW 3033   1.618   1.352   2.709  0.0692 -0.3908  0.0814
  759SOL    HW1 3034   1.627   1.443   2.666 -1.2751  0.3657  1.6542
  759SOL    HW2 3035   1.679   1.358   2.784 -0.2006 -0.7151 -1.0612
  759SOL     MW 3036   1.627   1.365   2.714 -0.1438 -0.3338  0.1382
  760SOL     OW 3037   2.577   2.009   2.683  0.5210 -0.1220  0.6139
  760SOL    HW1 3038   2.532   1.921   2.665  0.4428  1.6203 -0.4123
  760SOL    HW2 3039   2.563   2.069   2.610 -2.2387 -0.6933 -2.4227
  760SOL     MW 3040   2.569   2.005   2.671  0.1466  0.0325  0.0778
  761SOL     OW 3041   2.171   0.414   2.472  0.3719 -0.1607 -0.7423
  761SOL    HW1 3042   2.082   0.380   2.466 -0.9127 -1.6589 -0.4913
  761SOL    HW2 3043   2.181   0.446   2.564  0.2060  2.6303  0.1983
  761SOL     MW 3044   2.161   0.414   2.484  0.1805  0.0099 -0.5851
  762SOL     OW 3045   0.037   0.160   2.048  0.4928 -0.0616  0.1494
  762SOL    HW1 3046   0.013   0.107   2.125 -0.5866 -0.7193 -0.7296
  762SOL    HW2 3047  -0.011   0.244   2.044  1.3956 -0.9282  0.6099
  762SOL     MW 3048   0.027   0.164   2.058  0.4695 -0.2627  0.0942
  763SOL     OW 3049   2.396   1.076   2.288  0.2580  0.0579 -0.1570
  763SOL    HW1 3050   2.441   1.043   2.207  0.2721 -0.1904 -1.1724
  763SOL    HW2 3051   2.462   1.138   2.330  0.0004 -2.9073 -1.5803
  763SOL     MW 3052   2.411   1.080   2.283  0.2258 -0.3661 -0.4788
  764SOL     OW 3053   0.458   0.297   2.795 -0.0827  0.2735  0.1019
  764SOL    HW1 3054   0.386   0.264   2.751  0.5641  0.2487 -2.4476
  764SOL    HW2 3055   0.420   0.370   2.843 -1.7949 -0.8692  1.1670
  764SOL     MW 3056   0.444   0.302   2.796 -0.2233  0.1195 -0.0940
  765SOL     OW 3057   2.781   0.087   2.302 -0.1390 -0.2399  0.3416
  765SOL    HW1 3058   2.732   0.089   2.220  0.3293 -0.8500  0.6262
  765SOL    HW2 3059   2.812  -0.007   2.308  0.0888 -0.0726  1.3364
  765SOL     MW 3060   2.779   0.075   2.292 -0.0471 -0.2983  0.5104
  766SOL     OW 3061   1.876   3.000   2.234  0.0626 -0.1236 -0.0431
  766SOL    HW1 3062   1.900   3.050   2.155  0.0271  0.1910 -0.3804
  766SOL    HW2 3063   1.829   2.921   2.207 -2.1237 -2.6423 -0.1568
  766SOL     MW 3064   1.873   2.996   2.220 -0.2305 -0.4144 -0.1026
  767SOL     OW 3065   2.618   0.618   1.917 -0.2958 -0.1316 -0.4553
  767SOL    HW1 3066   2.660   0.699   1.949 -1.3140  0.8623 -1.2049
  767SOL    HW2 3067   2.526   0.624   1.953 -0.0326 -0.7740 -0.5199
  767SOL     MW 3068   2.611   0.629   1.926 -0.3954 -0.0852 -0.5627
  768SOL     OW 3069   0.045   1.529   2.957  0.2056  0.3657  0.1884
  768SOL    HW1 3070   0.045   1.497   3.051 -1.4676 -2.0006 -0.9457
  768SOL    HW2 3071   0.033   1.439   2.908  1.5910 -1.7560  0.9501
  768SOL     MW 3072   0.044   1.513   2.963  0.1676 -0.2265  0.1392
  769SOL     OW 3073   2.366   0.686   2.292  0.2662 -0.1133  0.8891
  769SOL    HW1 3074   2.277   0.675   2.298  1.8061  0.4450  1.8261
  769SOL    HW2 3075   2.386   0.658   2.206 -2.7313  1.6837  0.9389
  769SOL     MW 3076   2.357   0.681   2.282  0.0739  0.1974  1.0193
  770SOL     OW 3077   0.077   1.607   2.601  0.2299  0.2375  0.2162
  770SOL    HW1 3078  -0.021   1.629   2.592  1.5847  2.6427  0.3610
  770SOL    HW2 3079   0.074   1.530   2.652 -0.3853 -1.1328 -0.4509
  770SOL     MW 3080   0.064   1.600   2.607  0.3275  0.3740  0.1473
  771SOL     OW 3081   2.954   0.641   1.926  0.3523 -0.0889 -0.2138
  771SOL    HW1 3082   2.932   0.639   1.836 -0.2910  3.8823  0.2587
  771SOL    HW2 3083   3.050   0.634   1.926 -0.7309 -0.7380 -0.6696
  771SOL     MW 3084   2.963   0.640   1.914  0.1245  0.3494 -0.2116
  772SOL     OW 3085   0.001   3.089   2.264 -0.1244 -0.2279  0.5006
  772SOL    HW1 3086  -0.075   3.030   2.274 -0.8690 -1.6395  0.6458
  772SOL    HW2 3087   0.077   3.019   2.236  0.4728  0.9103 -2.0059
  772SOL     MW 3088   0.001   3.072   2.262 -0.1439 -0.2640  0.1891
  773SOL     OW 3089   2.463   2.851   2.749  0.4124 -0.0791  0.7691
  773SOL    HW1 3090   2.454   2.764   2.711  0.3033 -0.0850 -0.7813
  773SOL    HW2 3091   2.455   2.827   2.842  0.0030 -1.7642  0.6431
  773SOL     MW 3092   2.461   2.836   2.756  0.3440 -0.3022  0.5480
  774SOL     OW 3093   2.277   1.174   1.739 -0.6765  0.1267 -0.1694
  774SOL    HW1 3094   2.305   1.223   1.656  1.5147  2.5181  1.5868
  774SOL    HW2 3095   2.212   1.112   1.714  1.5863  2.2758  1.2082
  774SOL     MW 3096   2.272   1.172   1.725 -0.0888  0.7258  0.2441
  775SOL     OW 3097   2.303   2.908   2.309 -0.0526 -0.1555 -0.4762
  775SOL    HW1 3098   2.303   2.984   2.248 -3.2980  0.1767  2.4775
  775SOL    HW2 3099   2.368   2.840   2.284 -2.5866 -1.8364  1.7911
  775SOL     MW 3100   2.311   2.909   2.297 -0.8152 -0.3334  0.2127
  776SOL     OW 3101   0.030   1.456   0.114  0.5764  0.0109 -0.2276
  776SOL    HW1 3102   0.119   1.410   0.110 -2.0243  2.2867  0.6253
  776SOL    HW2 3103  -0.023   1.379   0.106  0.0047 -1.3752 -4.3512
  776SOL     MW 3104   0.035   1.439   0.113  0.1578  0.1283 -0.6592
  777SOL     OW 3105   3.002   1.069   1.764 -0.1816  0.0965  0.0638
  777SOL    HW1 3106   2.960   1.155   1.755 -3.2773 -1.8209  1.0321
  777SOL    HW2 3107   2.931   1.007   1.780  0.5996 -3.8185 -0.1433
  777SOL     MW 3108   2.987   1.072   1.765 -0.4870 -0.6731  0.1643
  778SOL     OW 3109   2.888   0.405   2.758 -0.3870  0.2256  0.2748
  778SOL    HW1 3110   2.829   0.435   2.831  0.5448 -1.5015 -0.7188
  778SOL    HW2 3111   2.907   0.482   2.709  0.9941 -1.5251 -0.8879
  778SOL     MW 3112   2.883   0.419   2.761 -0.0819 -0.2333 -0.0097
  779SOL     OW 3113   2.093   0.620   2.298  0.0211 -0.0424  0.2176
  779SOL    HW1 3114   2.023   0.687   2.329  0.7158  0.2503  1.0758
  779SOL    HW2 3115   2.118   0.567   2.369  4.5179  4.4551 -1.1410
  779SOL     MW 3116   2.087   0.622   2.312  0.7060  0.5896  0.1515
  780SOL     OW 3117   0.210   0.125   2.799 -0.0738 -0.1210  0.6911
  780SOL    HW1 3118   0.199   0.196   2.860  1.5894  1.3169 -1.9391
  780SOL    HW2 3119   0.129   0.112   2.750  0.5622 -1.1588 -0.2518
  780SOL     MW 3120   0.198   0.133   2.801  0.2295 -0.0682  0.2197
  781SOL     OW 3121   3.022   1.323   2.500 -0.3950 -0.5628  0.4151
  781SOL    HW1 3122   3.002   1.380   2.425  1.6943 -2.4417  0.6184
  781SOL    HW2 3123   3.021   1.232   2.472 -0.5131 -3.7456  0.8104
  781SOL     MW 3124   3.020   1.319   2.487 -0.1349 -1.2307  0.4941
  782SOL     OW 3125   0.677   1.554   0.009 -0.4591 -0.1449  0.2191
  782SOL    HW1 3126   0.622   1.613  -0.042 -0.7709 -0.3259  0.6218
  782SOL    HW2 3127   0.626   1.536   0.091 -3.9981 -1.2738  1.7445
  782SOL     MW 3128   0.663   1.559   0.013 -0.9672 -0.3177  0.4735
  783SOL     OW 3129   2.718   0.472   2.432  0.1667  0.0653  0.1638
  783SOL    HW1 3130   2.663   0.463   2.350 -0.9227  1.7802  1.0434
  783SOL    HW2 3131   2.703   0.400   2.495  3.8175  0.2880  1.8821
  783SOL     MW 3132   2.709   0.461   2.429  0.5046  0.3209  0.5066
  784SOL     OW 3133   0.288   0.910   2.871  0.0340  0.4027 -0.5371
  784SOL    HW1 3134   0.231   0.980   2.905 -1.6259 -0.3147 -1.4418
  784SOL    HW2 3135   0.332   0.940   2.786  0.7318 -1.9437  3.7058
  784SOL     MW 3136   0.286   0.923   2.864 -0.0929 -0.0015 -0.0966
  785SOL     OW 3137   0.425   0.511   2.186  0.2154  0.8726  0.1445
  785SOL    HW1 3138   0.403   0.552   2.103  1.1975  0.4268 -3.4244
  785SOL    HW2 3139   0.352   0.453   2.209  2.5341 -0.2794 -0.6716
  785SOL     MW 3140   0.412   0.509   2.178  0.6509  0.6618 -0.4341
  786SOL     OW 3141   1.941   0.495   2.889  0.5943  0.0411 -0.1681
  786SOL    HW1 3142   1.963   0.536   2.970 -4.9568 -1.8639 -3.5674
  786SOL    HW2 3143   2.027   0.483   2.845 -2.0479  0.2252  1.8247
  786SOL     MW 3144   1.955   0.498   2.894 -0.4867 -0.1860 -0.3537
  787SOL     OW 3145   2.423   0.134   2.964 -0.0159 -0.4841 -0.0588
  787SOL    HW1 3146   2.486   0.086   2.910 -0.3430  1.9789  0.4214
  787SOL    HW2 3147   2.464   0.222   2.983  1.0917 -0.0685  0.8649
  787SOL     MW 3148   2.437   0.139   2.960  0.0870 -0.1043  0.1264
  788SOL     OW 3149   2.869   2.939   2.370  0.0851  0.0000  0.0623
  788SOL    HW1 3150   2.802   2.935   2.433 -1.3483 -2.0510  0.5954
  788SOL    HW2 3151   2.922   2.856   2.368 -0.9606 -1.3430  2.5704
  788SOL     MW 3152   2.867   2.927   2.378 -0.2420 -0.4478  0.4635
  789SOL     OW 3153   0.100   0.308   2.962  0.4605 -0.2800  0.5390
  789SOL    HW1 3154   0.011   0.284   2.995 -0.3533 -0.4266 -1.5795
  789SOL    HW2 3155   0.093   0.379   2.904  0.4700  0.6698  2.8679
  789SOL     MW 3156   0.087   0.315   2.958  0.3544 -0.1740  0.5668
  790SOL     OW 3157   3.030   1.063   2.433 -0.2770  0.0418 -0.0342
  790SOL    HW1 3158   3.001   0.989   2.480 -1.2534 -0.7102 -1.0246
  790SOL    HW2 3159   3.015   1.035   2.342  0.8842  2.0645 -0.3763
  790SOL     MW 3160   3.024   1.049   2.427 -0.2526  0.2095 -0.2100
  791SOL     OW 3161   2.655   0.309   2.659  0.4719 -0.1552  0.3989
  791SOL    HW1 3162   2.595   0.383   2.657  2.8034 -0.9830 -0.6444
  791SOL    HW2 3163   2.736   0.335   2.695  1.7511 -1.1018 -2.6084
  791SOL     MW 3164   2.657   0.322   2.663  0.9483 -0.3893 -0.1355
  792SOL     OW 3165   2.361   0.262   2.361  0.1605 -0.6028 -0.2121
  792SOL    HW1 3166   2.298   0.308   2.422 -0.8413 -1.3396 -0.1316
  792SOL    HW2 3167   2.410   0.206   2.418  0.5081  1.9838 -1.0525
  792SOL     MW 3168   2.359   0.261   2.376  0.0742 -0.3588 -0.3124
  793SOL     OW 3169   1.856   1.078   1.952  0.2551 -0.2109 -0.5117
  793SOL    HW1 3170   1.846   1.084   1.861 -1.7748  1.1131 -0.3784
  793SOL    HW2 3171   1.898   0.993   1.968  1.6168  1.7716 -1.2108
  793SOL     MW 3172   1.860   1.068   1.942  0.1669  0.2254 -0.5863
  794SOL     OW 3173   1.449   2.269   0.172 -0.0007  0.1459 -0.3689
  794SOL    HW1 3174   1.451   2.334   0.106 -2.7897  0.7717 -2.5658
  794SOL    HW2 3175   1.518   2.284   0.236 -0.1382  0.7514  0.4322
  794SOL     MW 3176   1.458   2.279   0.171 -0.3868  0.3084 -0.5531
  795SOL     OW 3177   2.354   0.971   2.562  0.1628 -0.0477  0.1399
  795SOL    HW1 3178   2.340   1.035   2.632 -0.5018 -0.6133 -1.4156
  795SOL    HW2 3179   2.356   1.013   2.480 -0.0750  0.3299 -1.1268
  795SOL     MW 3180   2.352   0.985   2.560  0.0438 -0.0725 -0.2325
  796SOL     OW 3181   0.232   0.600   2.778 -0.4629  0.2900  0.8442
  796SOL    HW1 3182   0.240   0.695   2.795 -0.2644 -1.7374 -1.4935
  796SOL    HW2 3183   0.178   0.593   2.697  0.7717  2.6064  0.6336
  796SOL     MW 3184   0.226   0.611   2.770 -0.2738  0.3281  0.5080
  797SOL     OW 3185   2.564   0.086   2.517  0.2235  0.0788  0.3586
  797SOL    HW1 3186   2.583   0.164   2.553 -1.7942 -1.5234  0.1053
  797SOL    HW2 3187   2.633   0.062   2.452  0.7976 -0.1553 -0.8512
  797SOL     MW 3188   2.575   0.093   2.513  0.0330 -0.1635  0.1655
  798SOL     OW 3189   2.346   0.048   2.163  0.3800 -0.0995 -0.0211
  798SOL    HW1 3190   2.348   0.128   2.217 -0.1007 -0.0843 -2.5759
  798SOL    HW2 3191   2.432   0.046   2.131 -1.9114  2.4637  0.2550
  798SOL     MW 3192   2.357   0.058   2.166  0.0143  0.2407 -0.3217
  799SOL     OW 3193   2.453   2.910   0.122 -0.0519  0.0736  0.0932
  799SOL    HW1 3194   2.408   2.858   0.052  1.2460  0.7767  0.4288
  799SOL    HW2 3195   2.409   2.992   0.115 -0.4014 -0.8998 -1.3009
  799SOL     MW 3196   2.441   2.914   0.112  0.0733  0.0380 -0.0464
  800SOL     OW 3197   1.830   3.098   1.799  0.0612  0.6055  0.4236
  800SOL    HW1 3198   1.787   3.012   1.778  0.3152  0.8050 -0.6836
  800SOL    HW2 3199   1.900   3.082   1.859 -0.6784  1.5336  1.3625
  800SOL     MW 3200   1.834   3.084   1.804 -0.0029  0.7543  0.4014
  801SOL     OW 3201   2.802   1.269   2.642  0.0021  0.1046  0.0498
  801SOL    HW1 3202   2.804   1.185   2.595  0.0937 -1.7375 -3.2291
  801SOL    HW2 3203   2.875   1.314   2.611 -2.2111 -2.8236 -1.1115
  801SOL     MW 3204   2.812   1.264   2.632 -0.2778 -0.5248 -0.5360
  802SOL     OW 3205   2.566   1.543   2.809 -0.4095  0.3109  0.2494
  802SOL    HW1 3206   2.542   1.448   2.788  0.5849  3.1911 -1.8410
  802SOL    HW2 3207   2.663   1.545   2.809  1.5768 -0.3193 -1.1308
  802SOL     MW 3208   2.576   1.531   2.806 -0.0162  0.6078 -0.2085
  803SOL     OW 3209   2.284   1.359   1.947  0.1730 -0.9584 -0.1575
  803SOL    HW1 3210   2.283   1.293   2.008  1.3019 -0.9739 -5.6962
  803SOL    HW2 3211   2.264   1.314   1.865 -0.0967  0.5492 -1.3573
  803SOL     MW 3212   2.281   1.344   1.944  0.2864 -0.7615 -1.0466
  804SOL     OW 3213   2.287   0.034   0.064 -0.2020 -0.2812  0.5368
  804SOL    HW1 3214   2.217   0.103   0.076  0.3866  0.4506 -0.5741
  804SOL    HW2 3215   2.347   0.066  -0.005  2.0180  0.7562  1.7208
  804SOL     MW 3216   2.285   0.048   0.056  0.1686 -0.0478  0.5464
  805SOL     OW 3217   2.706   1.025   2.511  0.5773  0.4453  0.2988
  805SOL    HW1 3218   2.732   1.060   2.427 -1.8090  2.3636  0.6990
  805SOL    HW2 3219   2.779   0.972   2.540  0.9531 -0.0175 -0.7337
  805SOL     MW 3220   2.719   1.023   2.504  0.3121  0.6373  0.2154
  806SOL     OW 3221   2.561   0.393   2.217  0.5673  0.1924  0.3540
  806SOL    HW1 3222   2.483   0.358   2.264 -2.7054 -0.1845  0.4822
  806SOL    HW2 3223   2.536   0.408   2.127 -0.1655 -1.7413 -1.4495
  806SOL     MW 3224   2.548   0.390   2.211  0.0388 -0.1125  0.1330
  807SOL     OW 3225   0.056   1.150   2.068  0.0453  0.0650 -0.8178
  807SOL    HW1 3226   0.108   1.076   2.024 -0.0461  0.5658 -0.5613
  807SOL    HW2 3227  -0.027   1.104   2.099  2.4289 -0.2744 -2.0642
  807SOL     MW 3228   0.052   1.134   2.066  0.3477  0.0863 -0.9484
  808SOL     OW 3229   2.581   3.100   2.775 -0.1214  0.0528  0.1522
  808SOL    HW1 3230   2.547   3.012   2.755  0.1837  0.4044 -1.0057
  808SOL    HW2 3231   2.561   3.146   2.693 -1.6316  2.1312 -3.4329
  808SOL     MW 3232   2.574   3.094   2.762 -0.2804  0.3734 -0.4736
  809SOL     OW 3233   2.558   1.263   2.415 -0.0167 -0.5274  0.1314
  809SOL    HW1 3234   2.604   1.225   2.485 -1.6671 -0.4631 -3.1267
  809SOL    HW2 3235   2.620   1.291   2.351 -2.5740  3.0688 -0.7642
  809SOL     MW 3236   2.572   1.262   2.416 -0.5719 -0.0444 -0.4166
  810SOL     OW 3237   2.255   1.297   2.232 -0.3293  0.3311 -0.3054
  810SOL    HW1 3238   2.310   1.214   2.227 -0.0632 -1.6149  1.3644
  810SOL    HW2 3239   2.166   1.255   2.240 -2.3787  0.0842  0.1006
  810SOL     MW 3240   2.251   1.281   2.232 -0.5646  0.0418 -0.0315
  811SOL     OW 3241   1.535   0.133   2.284  0.0054 -0.1125  0.3674
  811SOL    HW1 3242   1.629   0.096   2.299 -1.4283 -1.2968 -0.9321
  811SOL    HW2 3243   1.501   0.136   2.192 -2.3289 -0.1857 -0.7224
  811SOL     MW 3244   1.543   0.128   2.274 -0.4917 -0.2784  0.0521
  812SOL     OW 3245   1.434   2.786   2.107 -0.2441 -0.5444 -0.4514
  812SOL    HW1 3246   1.523   2.797   2.066 -0.2762 -0.5306  0.3621
  812SOL    HW2 3247   1.453   2.757   2.198 -0.7329 -0.6380 -0.7580
  812SOL     MW 3248   1.448   2.784   2.114 -0.3128 -0.5549 -0.3845
  813SOL     OW 3249   1.775   0.724   2.197 -0.1267  0.1970  0.3064
  813SOL    HW1 3250   1.770   0.628   2.205 -1.1201  0.9471 -0.0010
  813SOL    HW2 3251   1.823   0.751   2.280 -0.4270 -1.4371  1.6988
  813SOL     MW 3252   1.781   0.715   2.209 -0.2974  0.0804  0.4496
  814SOL     OW 3253   2.790   1.252   1.667 -0.2507 -0.6625 -0.5575
  814SOL    HW1 3254   2.730   1.202   1.717  3.7319 -1.6832  1.2104
  814SOL    HW2 3255   2.802   1.195   1.595 -1.9913 -0.9653  1.9896
  814SOL     MW 3256   2.784   1.238   1.664  0.0451 -0.8371  0.0118
  815SOL     OW 3257   2.494   1.656   2.423  0.4471  0.3837 -0.3784
  815SOL    HW1 3258   2.427   1.590   2.437 -3.5659  1.7464  0.2376
  815SOL    HW2 3259   2.579   1.620   2.443  3.2288 -0.9452  1.6621
  815SOL     MW 3260   2.496   1.643   2.427  0.2846  0.3882 -0.0279
  816SOL     OW 3261   0.776   0.658   2.722  0.0906 -0.9078  0.6935
  816SOL    HW1 3262   0.774   0.581   2.774  0.4238 -1.7455 -3.6828
  816SOL    HW2 3263   0.686   0.665   2.684  0.3053 -0.4722 -0.8601
  816SOL     MW 3264   0.764   0.649   2.724  0.1629 -0.9609 -0.0889
  817SOL     OW 3265   3.031   1.233   1.395  0.0276 -0.7056 -0.0267
  817SOL    HW1 3266   3.092   1.208   1.463 -0.6763 -0.7553 -0.9459
  817SOL    HW2 3267   3.049   1.321   1.359 -0.0770 -2.4910 -0.4950
  817SOL     MW 3268   3.042   1.241   1.399 -0.0791 -0.9477 -0.2098
  818SOL     OW 3269   1.936   1.004   2.731 -0.2404  0.0988 -0.0597
  818SOL    HW1 3270   1.935   1.070   2.662  0.8877  1.2690  1.2427
  818SOL    HW2 3271   2.004   0.940   2.698 -0.1325 -0.5002 -1.8450
  818SOL     MW 3272   1.945   1.004   2.718 -0.0773  0.1742 -0.1234
  819SOL     OW 3273   1.905   0.289   2.479  0.3242  0.5930 -0.1419
  819SOL    HW1 3274   1.839   0.357   2.494  2.3198 -1.8493  1.0267
  819SOL    HW2 3275   1.941   0.266   2.570  1.4061 -0.7355  1.7499
  819SOL     MW 3276   1.901   0.295   2.493  0.7302  0.0955  0.2619
  820SOL     OW 3277   2.457   1.764   2.670  0.1058  0.0713 -0.3078
  820SOL    HW1 3278   2.499   1.708   2.739  0.3337 -1.1330 -3.1607
  820SOL    HW2 3279   2.480   1.727   2.588 -1.6002  0.8663  0.5162
  820SOL     MW 3280   2.466   1.751   2.668 -0.0892  0.0173 -0.5755
  821SOL     OW 3281   2.571   1.346   2.003  0.0584 -0.1845 -0.0951
  821SOL    HW1 3282   2.609   1.427   1.967 -1.5537  0.3136  0.1217
  821SOL    HW2 3283   2.477   1.369   2.003  2.3607  0.0940  1.2584
  821SOL     MW 3284   2.564   1.360   1.998  0.1495 -0.0820  0.1121
  822SOL     OW 3285   2.814   2.640   1.481 -0.1813  0.5806 -0.2688
  822SOL    HW1 3286   2.805   2.660   1.576 -0.4167 -0.0030  0.3153
  822SOL    HW2 3287   2.741   2.673   1.437  0.2163  1.8647 -1.6201
  822SOL     MW 3288   2.803   2.647   1.488 -0.1599  0.6730 -0.3701
  823SOL     OW 3289   2.253   0.460   1.803  0.1138  0.0187  0.6469
  823SOL    HW1 3290   2.334   0.424   1.759  0.4070  1.7416 -1.8249
  823SOL    HW2 3291   2.185   0.397   1.795 -0.4384  0.1055  2.3823
  823SOL     MW 3292   2.255   0.447   1.796  0.0797  0.2575  0.5498
  824SOL     OW 3293   2.065   1.377   2.517 -0.1483  0.5086 -0.4842
  824SOL    HW1 3294   2.163   1.387   2.504 -0.2945 -0.2696  1.3696
  824SOL    HW2 3295   2.032   1.461   2.554  0.4216 -2.6121 -1.3583
  824SOL     MW 3296   2.074   1.390   2.520 -0.0924 -0.0058 -0.3549
  825SOL     OW 3297   2.097   2.568   0.294 -0.1353  0.1548 -0.1400
  825SOL    HW1 3298   2.126   2.498   0.351 -3.7957 -1.3617 -2.9281
  825SOL    HW2 3299   2.132   2.533   0.210  0.1805  0.6688  1.6003
  825SOL     MW 3300   2.106   2.554   0.290 -0.5766  0.0226 -0.2783
  826SOL     OW 3301   1.937   2.356   0.557  0.1025  1.3357 -0.0692
  826SOL    HW1 3302   1.869   2.285   0.567  0.8851 -1.4051  0.6336
  826SOL    HW2 3303   1.900   2.444   0.587 -0.5928  0.3643  0.6805
  826SOL     MW 3304   1.923   2.358   0.562  0.1140  0.8459  0.1225
  827SOL     OW 3305   1.971   2.179   0.828 -0.1385 -0.3368 -0.6430
  827SOL    HW1 3306   1.918   2.209   0.755  1.5453  0.6195 -1.3490
  827SOL    HW2 3307   1.916   2.112   0.874 -4.6721  1.0289  2.0767
  827SOL     MW 3308   1.957   2.174   0.825 -0.5145 -0.0304 -0.3773
  828SOL     OW 3309   0.058   2.660   0.526  0.4902 -0.5552 -0.6433
  828SOL    HW1 3310   0.152   2.657   0.500  3.3435 -0.1787  1.5956
  828SOL    HW2 3311   0.020   2.711   0.451 -0.6539 -1.0032 -2.4627
  828SOL     MW 3312   0.066   2.667   0.513  0.7157 -0.5646 -0.5879
  829SOL     OW 3313   2.992   2.935   1.246  0.2128  0.1597 -0.1296
  829SOL    HW1 3314   2.902   2.936   1.212 -0.9838 -0.1238 -2.1481
  829SOL    HW2 3315   3.024   2.853   1.216  1.2091  1.7019 -2.0614
  829SOL     MW 3316   2.985   2.925   1.237  0.1864  0.3258 -0.6508
  830SOL     OW 3317   2.494   2.875   2.037  0.2285  0.2805  0.0120
  830SOL    HW1 3318   2.396   2.884   2.014 -2.1371 -3.2138 -1.1375
  830SOL    HW2 3319   2.540   2.852   1.961  0.3766  0.4906  1.0148
  830SOL     MW 3320   2.487   2.873   2.024 -0.0641 -0.1528 -0.0073
  831SOL     OW 3321   2.388   2.433   1.234  0.4056  0.6704 -0.1883
  831SOL    HW1 3322   2.362   2.364   1.300 -2.5717 -2.4467 -1.6677
  831SOL    HW2 3323   2.479   2.411   1.210 -0.2877 -0.5795  1.8423
  831SOL     MW 3324   2.396   2.421   1.239 -0.0787  0.0942 -0.1155
  832SOL     OW 3325   2.423   2.199   1.874 -0.7809 -0.6159 -0.7366
  832SOL    HW1 3326   2.438   2.287   1.921 -0.6543 -0.6339 -1.6676
  832SOL    HW2 3327   2.517   2.175   1.847  1.6160  3.4212 -1.1896
  832SOL     MW 3328   2.438   2.208   1.877 -0.4480 -0.0856 -0.9192
  833SOL     OW 3329   1.798   2.491   0.919 -0.0080  0.2784  0.1513
  833SOL    HW1 3330   1.707   2.454   0.916  1.0180  2.5384 -0.8390
  833SOL    HW2 3331   1.823   2.568   0.981  4.2472  3.9890  1.6888
  833SOL     MW 3332   1.789   2.496   0.927  0.6888  1.0661  0.2235
  834SOL     OW 3333   2.216   2.444   0.506  0.0798 -0.2721 -0.0640
  834SOL    HW1 3334   2.201   2.363   0.553 -1.4887 -0.5030  1.3823
  834SOL    HW2 3335   2.280   2.423   0.429  1.3577  0.6574 -1.8525
  834SOL     MW 3336   2.222   2.431   0.502  0.0415 -0.1799 -0.1092
  835SOL     OW 3337   1.877   2.593   0.690  0.2901  0.0795 -0.4782
  835SOL    HW1 3338   1.837   2.539   0.762  3.0560  1.7499  0.7673
  835SOL    HW2 3339   1.931   2.667   0.713  0.8415 -0.7649 -0.2219
  835SOL     MW 3340   1.879   2.596   0.702  0.7278  0.1885 -0.2801
  836SOL     OW 3341   1.986   2.157   1.659  0.1980  0.5024  0.0408
  836SOL    HW1 3342   2.079   2.130   1.652 -0.1227 -0.5278 -2.2800
  836SOL    HW2 3343   1.981   2.243   1.698  0.3926  0.5476 -1.1927
  836SOL     MW 3344   1.998   2.165   1.663  0.1814  0.3724 -0.4282
  837SOL     OW 3345   2.076   0.183   0.696 -0.2415 -0.2529 -0.3143
  837SOL    HW1 3346   1.986   0.217   0.660 -2.2140 -1.5203 -0.4455
  837SOL    HW2 3347   2.105   0.136   0.614 -0.3861  1.2462 -0.1574
  837SOL     MW 3348   2.068   0.182   0.680 -0.5208 -0.2223 -0.3109
  838SOL     OW 3349   2.907   2.030   0.917 -0.4601  0.3296  0.1928
  838SOL    HW1 3350   2.824   1.990   0.938  0.4720 -0.1526  0.5918
  838SOL    HW2 3351   2.955   1.969   0.859  1.1602 -2.1187  0.3830
  838SOL     MW 3352   2.902   2.017   0.912 -0.1233 -0.0571  0.2705
  839SOL     OW 3353   1.485   2.356   0.928  0.2201 -0.1128  0.0262
  839SOL    HW1 3354   1.473   2.438   0.976  2.3381  0.0534 -1.0700
  839SOL    HW2 3355   1.502   2.291   0.997 -0.3696 -1.1547 -0.4452
  839SOL     MW 3356   1.486   2.359   0.943  0.4218 -0.2283 -0.1806
  840SOL     OW 3357   2.281   2.060   2.401 -0.2823  0.1453 -0.4458
  840SOL    HW1 3358   2.255   2.120   2.333 -0.8157 -4.5070  0.7419
  840SOL    HW2 3359   2.343   2.121   2.436  2.8367 -0.3291 -0.1229
  840SOL     MW 3360   2.286   2.076   2.396  0.0589 -0.5311 -0.2465
  841SOL     OW 3361   2.198   2.445   0.040  0.6195  0.4483  0.2135
  841SOL    HW1 3362   2.255   2.465  -0.040  0.4270  1.1028 -3.3989
  841SOL    HW2 3363   2.142   2.364   0.027  1.9834 -0.5584  2.9779
  841SOL     MW 3364   2.198   2.437   0.028  0.7740  0.4019  0.1016
  842SOL     OW 3365   2.683   1.991   1.578 -0.0031 -0.4198  0.2240
  842SOL    HW1 3366   2.636   1.915   1.551  0.8242 -1.3655  0.3004
  842SOL    HW2 3367   2.636   2.055   1.518 -2.2496  4.0894 -1.2813
  842SOL     MW 3368   2.670   1.989   1.567 -0.1903  0.0504  0.0355
  843SOL     OW 3369   2.658   2.830   1.807 -0.5717 -0.7118 -0.3061
  843SOL    HW1 3370   2.740   2.788   1.787 -2.0617 -1.9207 -2.3223
  843SOL    HW2 3371   2.592   2.799   1.743 -0.7517  1.2931 -0.4893
  843SOL     MW 3372   2.660   2.820   1.796 -0.7920 -0.6068 -0.5963
  844SOL     OW 3373   2.642   2.349   1.207 -0.3560  0.3863 -0.5173
  844SOL    HW1 3374   2.706   2.348   1.137 -1.4094 -1.1995  1.5064
  844SOL    HW2 3375   2.690   2.376   1.289 -4.2968 -0.9033  2.2520
  844SOL     MW 3376   2.657   2.353   1.209 -1.0149  0.0069  0.1151
  845SOL     OW 3377   2.826   2.527   0.347  0.1494  0.2701  0.0418
  845SOL    HW1 3378   2.786   2.440   0.360  0.9776 -0.3095  1.5020
  845SOL    HW2 3379   2.804   2.573   0.436 -2.2098  0.3659  3.5799
  845SOL     MW 3380   2.818   2.522   0.361 -0.0526  0.2063  0.7013
  846SOL     OW 3381   1.499   2.811   0.845 -0.0346  0.5177  0.1095
  846SOL    HW1 3382   1.582   2.862   0.858  0.4722 -2.5185  1.1732
  846SOL    HW2 3383   1.429   2.865   0.881 -3.4566 -1.2715 -2.1941
  846SOL     MW 3384   1.501   2.825   0.852 -0.4192 -0.1190 -0.0541
  847SOL     OW 3385   2.502   1.929   0.179 -0.5393 -0.4755  0.1471
  847SOL    HW1 3386   2.490   1.848   0.238  0.0479 -1.1337  2.9344
  847SOL    HW2 3387   2.462   1.900   0.094 -1.7007  2.0793 -0.4827
  847SOL     MW 3388   2.495   1.914   0.175 -0.6151 -0.2253  0.4317
  848SOL     OW 3389   2.583   2.100   1.315  0.5332  0.1023 -1.1545
  848SOL    HW1 3390   2.605   2.185   1.286 -1.2839 -0.2667  3.8409
  848SOL    HW2 3391   2.603   2.048   1.237 -1.0255  0.5096 -1.3295
  848SOL     MW 3392   2.588   2.105   1.301  0.0878  0.1074 -0.5185
  849SOL     OW 3393   2.024   2.787   0.775 -0.4362 -0.3352 -0.2104
  849SOL    HW1 3394   2.049   2.711   0.830 -2.6969  0.5818 -2.1395
  849SOL    HW2 3395   2.099   2.789   0.713  1.9046  4.0630  0.2733
  849SOL     MW 3396   2.037   2.778   0.774 -0.4256  0.3661 -0.4011
  850SOL     OW 3397   2.250   1.845   1.663 -0.5713 -0.6133 -1.1986
  850SOL    HW1 3398   2.166   1.805   1.638  2.4744 -0.8015  0.6254
  850SOL    HW2 3399   2.242   1.943   1.653  3.0445  0.1862 -1.7085
  850SOL     MW 3400   2.238   1.852   1.658  0.3076 -0.5326 -1.0252
  851SOL     OW 3401   2.373   2.361   0.278  0.4021  0.2104 -0.2190
  851SOL    HW1 3402   2.346   2.379   0.184 -2.1894  0.3770 -1.6879
  851SOL    HW2 3403   2.471   2.368   0.287  1.1501  1.9045 -0.4954
  851SOL     MW 3404   2.383   2.364   0.267  0.1589  0.4559 -0.4493
  852SOL     OW 3405   2.320   2.096   0.331  0.6685  0.2734  0.0258
  852SOL    HW1 3406   2.328   2.183   0.295 -1.9642 -1.9851 -2.4849
  852SOL    HW2 3407   2.381   2.046   0.274 -0.7190 -0.3335  0.4695
  852SOL     MW 3408   2.329   2.101   0.319  0.1381 -0.1046 -0.2470
  853SOL     OW 3409   2.470   2.471   1.926 -0.0048 -0.8743 -0.2264
  853SOL    HW1 3410   2.494   2.526   1.849  3.5840  1.1488  0.7918
  853SOL    HW2 3411   2.558   2.466   1.969  0.8605 -1.9506 -0.2409
  853SOL     MW 3412   2.485   2.478   1.922  0.5829 -0.7494 -0.0940
  854SOL     OW 3413   2.860   2.295   0.775 -0.1703  0.4416 -0.2324
  854SOL    HW1 3414   2.778   2.255   0.738 -0.0927 -1.2387 -2.1278
  854SOL    HW2 3415   2.912   2.215   0.811 -1.4937 -0.2335  1.9590
  854SOL     MW 3416   2.856   2.279   0.775 -0.3347  0.1309 -0.1934
  855SOL     OW 3417   2.630   2.328   0.347 -0.2863 -0.1535 -0.5772
  855SOL    HW1 3418   2.618   2.359   0.439 -1.3307  1.0934  1.8341
  855SOL    HW2 3419   2.694   2.251   0.357  2.3802 -0.1293  3.2995
  855SOL     MW 3420   2.637   2.322   0.360 -0.0723  0.0142  0.2524
  856SOL     OW 3421   2.122   1.952   0.213 -0.5185 -0.4611  0.9132
  856SOL    HW1 3422   2.037   1.958   0.254 -0.2897  0.5318 -0.6312
  856SOL    HW2 3423   2.192   2.002   0.265  1.3229  0.7000  0.5238
  856SOL     MW 3424   2.120   1.960   0.225 -0.2453 -0.1769  0.6580
  857SOL     OW 3425   2.469   1.967   0.556 -0.2372 -0.0621 -0.1564
  857SOL    HW1 3426   2.426   2.013   0.475  0.8808 -1.0151 -0.7934
  857SOL    HW2 3427   2.400   1.938   0.615 -0.1595 -4.0682  1.3559
  857SOL     MW 3428   2.454   1.969   0.553 -0.0795 -0.7164 -0.0409
  858SOL     OW 3429   2.883   2.703   1.747  1.2070  0.3301  0.1577
  858SOL    HW1 3430   2.980   2.712   1.743 -1.6289  2.2860  0.9014
  858SOL    HW2 3431   2.872   2.618   1.781 -1.2570  0.4179 -0.2357
  858SOL     MW 3432   2.895   2.693   1.751  0.5078  0.5998  0.2039
  859SOL     OW 3433   2.148   2.581   0.918  0.2302 -0.0817  0.5459
  859SOL    HW1 3434   2.094   2.508   0.949 -1.2838 -0.8320  1.6050
  859SOL    HW2 3435   2.231   2.542   0.939  0.6299 -0.7975  1.2761
  859SOL     MW 3436   2.152   2.566   0.925  0.0832 -0.2751  0.7820
  860SOL     OW 3437   2.692   2.599   0.118  0.3289  0.7041  0.1025
  860SOL    HW1 3438   2.741   2.562   0.197 -2.0470 -2.6201  1.3349
  860SOL    HW2 3439   2.729   2.688   0.100 -0.9689  3.2174 -2.6996
  860SOL     MW 3440   2.704   2.606   0.126 -0.1558  0.5971 -0.1046
  861SOL     OW 3441   1.614   2.170   1.119 -0.3838  0.1937  0.4350
  861SOL    HW1 3442   1.601   2.258   1.160  0.8845  0.8637  2.6010
  861SOL    HW2 3443   1.562   2.102   1.162 -1.6511 -0.5315 -1.7389
  861SOL     MW 3444   1.605   2.172   1.130 -0.3837  0.1864  0.4339
  862SOL     OW 3445   2.472   1.804   1.526  0.2355 -0.1370 -0.4435
  862SOL    HW1 3446   2.388   1.814   1.577 -2.7169 -0.5287 -2.3683
  862SOL    HW2 3447   2.444   1.812   1.432  0.3354 -2.6573 -1.5608
  862SOL     MW 3448   2.457   1.807   1.520 -0.1408 -0.5212 -0.8449
  863SOL     OW 3449   2.997   1.755   1.038 -0.2538  0.0974  0.0143
  863SOL    HW1 3450   3.073   1.737   1.095 -1.0475  0.6313 -1.3403
  863SOL    HW2 3451   2.977   1.847   1.048 -0.2744  0.3712  2.6524
  863SOL     MW 3452   3.005   1.765   1.047 -0.3612  0.2040  0.1836
  864SOL     OW 3453   3.084   1.828   0.793  0.6565 -0.4422  0.0769
  864SOL    HW1 3454   3.062   1.785   0.880  0.5826  0.1995  2.4647
  864SOL    HW2 3455   3.050   1.784   0.710 -1.5409 -0.7731 -0.4592
  864SOL     MW 3456   3.077   1.817   0.793  0.3568 -0.4012  0.3212
  865SOL     OW 3457   2.470   2.203   0.066  0.0945  0.1769  0.5012
  865SOL    HW1 3458   2.532   2.150   0.113 -1.9618  0.0534  0.1905
  865SOL    HW2 3459   2.404   2.142   0.043  2.1409 -3.4062  0.8253
  865SOL     MW 3460   2.470   2.188   0.069  0.0932 -0.3121  0.5030
  866SOL     OW 3461   2.678   2.337   1.647 -0.2322  0.0574 -0.7051
  866SOL    HW1 3462   2.681   2.245   1.671 -0.9586  0.7801  0.8452
  866SOL    HW2 3463   2.719   2.337   1.556  1.6056  1.4179 -1.2958
  866SOL     MW 3464   2.684   2.325   1.638 -0.0856  0.3323 -0.5785
  867SOL     OW 3465   0.060   2.684   1.765 -0.0410  0.1767 -0.5997
  867SOL    HW1 3466   0.100   2.717   1.851  1.9692 -1.3548  2.5716
  867SOL    HW2 3467   0.103   2.735   1.696 -3.9090  1.7917 -0.8118
  867SOL     MW 3468   0.071   2.695   1.767 -0.2861  0.1877 -0.2093
  868SOL     OW 3469   2.766   2.692   0.560 -0.4555  0.6872  0.1895
  868SOL    HW1 3470   2.685   2.658   0.592 -0.6229  0.4502  1.8078
  868SOL    HW2 3471   2.747   2.753   0.489  0.4390  0.9249 -1.8987
  868SOL     MW 3472   2.753   2.695   0.555 -0.3596  0.6873  0.1275
  869SOL     OW 3473   2.077   2.319   1.061  0.2886  0.5033  0.1743
  869SOL    HW1 3474   2.160   2.299   1.014  1.4176 -0.6398 -1.1675
  869SOL    HW2 3475   2.014   2.281   0.995  1.2401 -0.2437 -1.7235
  869SOL     MW 3476   2.079   2.311   1.046  0.5631  0.2539 -0.2531
  870SOL     OW 3477   2.138   0.007   0.499  0.1737 -0.5830  0.3479
  870SOL    HW1 3478   2.209   0.051   0.444  1.7121  1.8728  0.9272
  870SOL    HW2 3479   2.149  -0.085   0.485  2.7948 -0.1865 -2.3577
  870SOL     MW 3480   2.149   0.001   0.490  0.7225 -0.2066  0.0674
  871SOL     OW 3481   2.435   2.049   0.957  0.1340  0.3838 -0.5959
  871SOL    HW1 3482   2.374   2.017   0.891  1.6337  2.5653 -2.5168
  871SOL    HW2 3483   2.407   2.143   0.973 -2.4701  0.8619 -1.4806
  871SOL     MW 3484   2.424   2.057   0.951 -0.0117  0.7347 -0.9661
  872SOL     OW 3485   2.047   2.491   1.543  0.1323 -0.5676 -0.5411
  872SOL    HW1 3486   1.970   2.518   1.592  0.2945  0.3850  1.5938
  872SOL    HW2 3487   2.025   2.462   1.457 -1.7344  1.8280 -1.8870
  872SOL     MW 3488   2.034   2.491   1.538 -0.0926 -0.1259 -0.4370
  873SOL     OW 3489   2.892   2.042   1.978 -0.3958 -0.1128  0.3073
  873SOL    HW1 3490   2.879   2.107   2.049 -0.9571 -1.6197  3.4269
  873SOL    HW2 3491   2.935   2.097   1.908  0.1719 -0.7019 -2.6250
  873SOL     MW 3492   2.896   2.058   1.978 -0.3950 -0.3893  0.3320
  874SOL     OW 3493   2.335   1.425   2.470  0.3129 -0.3427 -0.0874
  874SOL    HW1 3494   2.316   1.401   2.383 -2.2634  0.8248 -0.4098
  874SOL    HW2 3495   2.419   1.376   2.478 -0.6556 -0.7178 -1.0090
  874SOL     MW 3496   2.344   1.416   2.460 -0.1548 -0.2381 -0.2516
  875SOL     OW 3497   2.340   2.305   0.990  0.1207  0.4817 -0.4066
  875SOL    HW1 3498   2.380   2.346   0.914 -0.9615  0.7148 -0.8545
  875SOL    HW2 3499   2.362   2.364   1.064 -0.0192 -0.3888  1.8114
  875SOL     MW 3500   2.348   2.318   0.990 -0.0405  0.3976 -0.1730
  876SOL     OW 3501   3.086   2.268   1.377  0.4330 -0.8326  0.9012
  876SOL    HW1 3502   3.121   2.314   1.293  2.3443 -1.2353  0.7213
  876SOL    HW2 3503   3.146   2.304   1.448  2.7093 -0.5380 -2.1460
  876SOL     MW 3504   3.098   2.279   1.375  0.9855 -0.8468  0.4754
  877SOL     OW 3505   0.007   2.802   0.287 -0.3994  0.3858 -0.4979
  877SOL    HW1 3506   0.086   2.856   0.267 -1.3311  2.1301  1.2252
  877SOL    HW2 3507  -0.012   2.746   0.212  0.8734  2.3956 -0.2895
  877SOL     MW 3508   0.015   2.802   0.275 -0.3544  0.8811 -0.2430
  878SOL     OW 3509   2.404   1.799   1.260  0.4267 -0.0127  0.1289
  878SOL    HW1 3510   2.337   1.727   1.278  3.6801 -1.4388 -0.5346
  878SOL    HW2 3511   2.496   1.763   1.248  0.4490 -1.0818 -0.4342
  878SOL     MW 3512   2.407   1.785   1.261  0.8589 -0.3419 -0.0330
  879SOL     OW 3513   2.741   2.439   0.962 -0.4342  0.2864 -0.4153
  879SOL    HW1 3514   2.792   2.510   0.996 -1.8989 -2.1495  2.2011
  879SOL    HW2 3515   2.800   2.383   0.907  2.0192 -0.1522  0.5788
  879SOL     MW 3516   2.755   2.441   0.959 -0.3038 -0.0929  0.0611
  880SOL     OW 3517   2.612   2.156   0.730 -0.1116 -0.1209  0.1211
  880SOL    HW1 3518   2.570   2.114   0.799  2.2629  1.3734 -0.1836
  880SOL    HW2 3519   2.553   2.124   0.655 -1.1176  0.8976  1.3973
  880SOL     MW 3520   2.598   2.147   0.730  0.0689  0.2106  0.2493
  881SOL     OW 3521   2.971   2.700   0.741  0.5049  0.0944 -0.0958
  881SOL    HW1 3522   2.899   2.690   0.684  1.4212  0.9290  0.6905
  881SOL    HW2 3523   3.046   2.689   0.689 -1.4563 -1.0548 -0.4606
  881SOL     MW 3524   2.971   2.697   0.727  0.3670  0.0529 -0.0402
  882SOL     OW 3525   2.236   2.891   1.973  0.3119  0.4354  0.2651
  882SOL    HW1 3526   2.223   2.894   1.875  0.9890  0.3040  2.2019
  882SOL    HW2 3527   2.205   2.802   1.995 -1.3456 -3.3207  1.4612
  882SOL     MW 3528   2.230   2.880   1.963  0.1826 -0.0775  0.6785
  883SOL     OW 3529   2.332   2.206   1.397  0.0863  0.1956  0.0573
  883SOL    HW1 3530   2.420   2.161   1.381  0.1312 -2.4038  0.5011
  883SOL    HW2 3531   2.269   2.160   1.342 -1.4749 -1.1084 -1.9961
  883SOL     MW 3532   2.335   2.194   1.388 -0.1137 -0.3194 -0.1551
  884SOL     OW 3533   1.949   1.813   1.070  0.0005  0.0404  0.2899
  884SOL    HW1 3534   1.904   1.891   1.033  0.2334  3.5192 -1.5575
  884SOL    HW2 3535   2.050   1.829   1.056  2.7662 -0.0235  2.4881
  884SOL     MW 3536   1.957   1.825   1.063  0.3961  0.4909  0.3361
  885SOL     OW 3537   2.865   2.409   1.826 -0.2292  0.2674 -0.2529
  885SOL    HW1 3538   2.943   2.354   1.816 -0.8006  2.0015 -0.6663
  885SOL    HW2 3539   2.808   2.390   1.754  1.9404  2.0935  0.2504
  885SOL     MW 3540   2.868   2.399   1.815 -0.0183  0.7372 -0.2410
  886SOL     OW 3541   2.814   2.366   1.409 -0.1931  0.6392 -0.3425
  886SOL    HW1 3542   2.896   2.340   1.378 -1.2180  0.0332 -0.2834
  886SOL    HW2 3543   2.833   2.455   1.442 -1.0801  1.7816 -0.3910
  886SOL     MW 3544   2.828   2.374   1.409 -0.4454  0.7100 -0.3411
  887SOL     OW 3545   2.275   2.629   1.579  0.1811  0.3220  0.2056
  887SOL    HW1 3546   2.310   2.630   1.488  1.0800 -2.6287 -1.0985
  887SOL    HW2 3547   2.196   2.574   1.571  0.3108  0.8480 -1.1818
  887SOL     MW 3548   2.269   2.622   1.566  0.3168  0.0021 -0.1495
  888SOL     OW 3549   1.848   2.140   1.418 -0.1949  0.2819  0.1869
  888SOL    HW1 3550   1.910   2.111   1.349 -1.9348  1.4768 -3.6167
  888SOL    HW2 3551   1.892   2.148   1.504  0.3024 -0.1703  0.7289
  888SOL     MW 3552   1.862   2.137   1.420 -0.3588  0.3799 -0.2434
  889SOL     OW 3553   2.344   2.041   2.081  0.2354 -0.2403  0.2684
  889SOL    HW1 3554   2.404   1.979   2.118 -0.7952  0.1092 -1.0856
  889SOL    HW2 3555   2.391   2.087   2.009 -0.3992 -1.9171 -0.8493
  889SOL     MW 3556   2.358   2.039   2.077  0.0157 -0.4154 -0.0577
  890SOL     OW 3557   0.064   2.389   0.161  0.5200 -0.0219  0.4864
  890SOL    HW1 3558   0.020   2.475   0.147 -1.4153  1.9046 -0.2674
  890SOL    HW2 3559   0.028   2.346   0.241  0.9032 -2.6417 -1.2239
  890SOL     MW 3560   0.053   2.395   0.169  0.3152 -0.1134  0.1613
  891SOL     OW 3561   3.078   2.010   1.294  0.8282  0.0963 -0.2660
  891SOL    HW1 3562   3.167   1.981   1.292 -1.8509 -0.9623 -0.9238
  891SOL    HW2 3563   3.070   2.097   1.330  0.4568  1.6259  2.3303
  891SOL     MW 3564   3.088   2.018   1.298  0.4257  0.1585 -0.0102
  892SOL     OW 3565   2.448   2.332   2.765  0.1855  0.2789  0.0660
  892SOL    HW1 3566   2.439   2.250   2.811 -0.6418  2.8781 -0.3130
  892SOL    HW2 3567   2.530   2.363   2.807 -2.7601 -1.1294 -1.0778
  892SOL     MW 3568   2.458   2.325   2.777 -0.3123  0.4360 -0.1349
  893SOL     OW 3569   1.599   2.427   1.207  0.0938  0.4722  0.0408
  893SOL    HW1 3570   1.545   2.455   1.278 -0.2826  1.2303 -0.9241
  893SOL    HW2 3571   1.687   2.454   1.231 -0.6058  3.3110 -1.4869
  893SOL     MW 3572   1.604   2.434   1.220 -0.0482  0.9468 -0.2881
  894SOL     OW 3573   2.739   1.874   0.446 -0.4410 -0.2284 -0.0525
  894SOL    HW1 3574   2.644   1.898   0.467 -1.8489 -0.3889 -0.9980
  894SOL    HW2 3575   2.718   1.837   0.358  1.2228  2.5423 -1.5670
  894SOL     MW 3576   2.723   1.872   0.437 -0.4072  0.1160 -0.3771
  895SOL     OW 3577   2.129   2.097   1.215 -0.2623  0.3572  0.2807
  895SOL    HW1 3578   2.106   2.182   1.165  0.6117  1.1245 -1.2023
  895SOL    HW2 3579   2.150   2.024   1.150 -0.0356 -1.7330 -1.1734
  895SOL     MW 3580   2.128   2.099   1.200 -0.1170  0.1827 -0.1069
  896SOL     OW 3581   2.315   2.814   1.114  0.0652 -0.2864 -0.0935
  896SOL    HW1 3582   2.338   2.778   1.195  0.2371  1.3910 -1.6225
  896SOL    HW2 3583   2.217   2.841   1.109  0.1514  3.2463  0.8294
  896SOL     MW 3584   2.305   2.813   1.124  0.0993  0.4011 -0.1735
  897SOL     OW 3585   3.052   3.041   3.069 -0.3438  0.4368 -0.2542
  897SOL    HW1 3586   3.116   2.977   3.034  1.3822 -1.6872 -1.7055
  897SOL    HW2 3587   2.983   3.008   3.128 -2.5449 -0.7242 -1.6457
  897SOL     MW 3588   3.051   3.028   3.073 -0.4065  0.0034 -0.6293
  898SOL     OW 3589   2.112   0.198   1.480 -0.3396 -0.1630 -0.3416
  898SOL    HW1 3590   2.070   0.114   1.499  1.0419  0.3234 -1.3672
  898SOL    HW2 3591   2.104   0.207   1.387  3.2530 -1.2886  0.4259
  898SOL     MW 3592   2.105   0.188   1.470  0.3167 -0.2473 -0.3756
  899SOL     OW 3593   2.913   2.970   0.627  0.3693 -0.1215 -0.6207
  899SOL    HW1 3594   2.918   2.888   0.681 -1.3749 -1.2820  0.4531
  899SOL    HW2 3595   2.828   3.004   0.655  0.6006 -0.5786 -0.8087
  899SOL     MW 3596   2.902   2.963   0.638  0.1697 -0.3349 -0.5038
  900SOL     OW 3597   0.067   2.398   1.128  0.2656  0.0735  0.3372
  900SOL    HW1 3598   0.034   2.489   1.124 -0.4625  2.7804 -1.8109
  900SOL    HW2 3599   0.048   2.362   1.041  1.7947 -0.2714  0.3710
  900SOL     MW 3600   0.060   2.405   1.116  0.3713  0.3852  0.0583
  901SOL     OW 3601   1.733   2.843   1.755 -0.4530 -0.1275  0.1383
  901SOL    HW1 3602   1.826   2.800   1.752  1.6656 -0.5889  1.2156
  901SOL    HW2 3603   1.695   2.837   1.664 -0.1263 -1.0181  0.8625
  901SOL     MW 3604   1.740   2.836   1.742 -0.1304 -0.3059  0.3760
  902SOL     OW 3605   2.666   2.100   1.826 -0.1177 -1.0167 -0.2294
  902SOL    HW1 3606   2.686   2.044   1.751  1.4525  1.0575  1.7554
  902SOL    HW2 3607   2.727   2.063   1.888 -1.3390  1.7715  1.0823
  902SOL     MW 3608   2.676   2.088   1.824 -0.0717 -0.3751  0.2055
  903SOL     OW 3609   1.622   2.655   0.633  0.3071 -0.9165  0.0860
  903SOL    HW1 3610   1.712   2.639   0.652 -1.9492  1.0665  1.1543
  903SOL    HW2 3611   1.594   2.714   0.704  0.4727 -1.3350  1.8066
  903SOL     MW 3612   1.630   2.661   0.645  0.0312 -0.7101  0.4539
  904SOL     OW 3613   2.526   2.600   1.688  0.0181  0.4585 -0.6874
  904SOL    HW1 3614   2.444   2.600   1.639  0.4047  2.2512  0.3311
  904SOL    HW2 3615   2.565   2.519   1.660 -0.6108 -1.6268 -2.6565
  904SOL     MW 3616   2.520   2.589   1.678 -0.0139  0.4199 -0.8128
  905SOL     OW 3617   2.264   2.514   2.138 -0.3127  0.0570 -0.2609
  905SOL    HW1 3618   2.314   2.489   2.054 -1.2705 -0.5331  0.9660
  905SOL    HW2 3619   2.243   2.436   2.187 -0.4336  0.3896  0.7409
  905SOL     MW 3620   2.268   2.500   2.133 -0.4550  0.0230  0.0331
  906SOL     OW 3621   2.493   2.486   0.831  0.7521 -0.0563  0.5333
  906SOL    HW1 3622   2.587   2.463   0.855  1.5289  1.0662  0.7161
  906SOL    HW2 3623   2.499   2.576   0.814  1.4764 -3.3288  1.8117
  906SOL     MW 3624   2.506   2.495   0.832  0.9502 -0.3400  0.7261
  907SOL     OW 3625   2.645   2.813   1.348  0.4973  0.4525 -0.0045
  907SOL    HW1 3626   2.689   2.869   1.410  0.0298 -1.1070  2.0279
  907SOL    HW2 3627   2.682   2.837   1.263 -0.0483  0.9724  1.5821
  907SOL     MW 3628   2.656   2.824   1.345  0.3636  0.3153  0.4730
  908SOL     OW 3629   2.728   2.346   0.013  0.3069 -0.4954  0.1640
  908SOL    HW1 3630   2.636   2.324   0.004  2.4562  1.2316 -1.5521
  908SOL    HW2 3631   2.726   2.442   0.042 -2.6362  0.8304  0.7997
  908SOL     MW 3632   2.716   2.355   0.016  0.2022 -0.0926  0.0214
  909SOL     OW 3633   1.720   0.068   1.196 -0.2864  0.1506 -0.1815
  909SOL    HW1 3634   1.693   0.153   1.161 -1.4353 -0.4253 -1.2611
  909SOL    HW2 3635   1.699   0.069   1.294 -0.1978 -2.3258  3.2063
  909SOL     MW 3636   1.714   0.080   1.204 -0.4263 -0.2521  0.1231
  910SOL     OW 3637   2.237   1.767   0.411 -0.3946 -0.9473 -0.2646
  910SOL    HW1 3638   2.190   1.681   0.424 -1.4685 -0.2459  0.0370
  910SOL    HW2 3639   2.169   1.817   0.364 -0.1580  1.5015  2.2134
  910SOL     MW 3640   2.222   1.762   0.407 -0.5051 -0.5317  0.1021
  911SOL     OW 3641   2.256   2.106   1.640  0.2878 -0.4674 -0.2065
  911SOL    HW1 3642   2.317   2.144   1.707  1.8126  1.7382  0.4146
  911SOL    HW2 3643   2.280   2.153   1.558  0.1308 -0.5825 -0.1392
  911SOL     MW 3644   2.268   2.117   1.638  0.4683 -0.1916 -0.1156
  912SOL     OW 3645   2.928   1.904   1.493 -0.1328 -0.4339 -0.3403
  912SOL    HW1 3646   2.958   1.940   1.411 -0.0826  4.1488 -0.4154
  912SOL    HW2 3647   2.844   1.938   1.527 -2.2196  1.7528 -0.4742
  912SOL     MW 3648   2.921   1.913   1.486 -0.4015  0.4592 -0.3679
  913SOL     OW 3649   2.628   3.051   0.350 -0.2232  0.3137 -0.3753
  913SOL    HW1 3650   2.713   2.996   0.349  1.7106  1.2238  1.9477
  913SOL    HW2 3651   2.555   2.995   0.305 -1.4397 -1.5831  1.7888
  913SOL     MW 3652   2.630   3.036   0.344 -0.1286  0.1835  0.2167
  914SOL     OW 3653   2.727   1.755   3.031 -0.0188  0.2792  0.1530
  914SOL    HW1 3654   2.749   1.833   2.983  0.2149  0.9788 -0.6123
  914SOL    HW2 3655   2.651   1.784   3.086  0.8439 -1.0129 -1.2268
  914SOL     MW 3656   2.720   1.769   3.032  0.1259  0.2010 -0.1300
  915SOL     OW 3657   1.690   0.228   0.253 -0.0025  0.1731  0.1425
  915SOL    HW1 3658   1.770   0.171   0.270  1.9395 -1.0281 -0.2200
  915SOL    HW2 3659   1.608   0.176   0.253 -0.0963  1.2109 -0.7005
  915SOL     MW 3660   1.690   0.214   0.255  0.2413  0.1515 -0.0166
  916SOL     OW 3661   1.840   2.134   1.942 -0.0317 -0.0745  0.4473
  916SOL    HW1 3662   1.857   2.223   1.913 -1.3057 -0.3660  0.1587
  916SOL    HW2 3663   1.831   2.086   1.860  0.5891  0.9954 -0.4062
  916SOL     MW 3664   1.841   2.139   1.927 -0.1179  0.0282  0.2966
  917SOL     OW 3665   2.495   2.205   2.514  0.1645  0.0860  0.2724
  917SOL    HW1 3666   2.479   2.260   2.593  1.8131  0.4048 -0.8301
  917SOL    HW2 3667   2.584   2.236   2.491 -0.0709 -1.1112 -0.1140
  917SOL     MW 3668   2.505   2.217   2.521  0.3510 -0.0299  0.0760
  918SOL     OW 3669   1.986   1.602   2.702 -0.3921 -0.5358 -0.4221
  918SOL    HW1 3670   1.924   1.646   2.643  1.3608  1.6991  3.5349
  918SOL    HW2 3671   2.073   1.644   2.683 -2.6381 -0.7236 -0.9376
  918SOL     MW 3672   1.989   1.613   2.692 -0.4572 -0.2657  0.0320
  919SOL     OW 3673   3.078   2.358   2.269 -0.3139 -0.0135 -0.0346
  919SOL    HW1 3674   3.019   2.289   2.242 -0.1650  0.2382  2.1455
  919SOL    HW2 3675   3.113   2.399   2.176  0.6873  1.6282  1.3648
  919SOL     MW 3676   3.075   2.354   2.253 -0.1622  0.2363  0.4377
  920SOL     OW 3677   2.696   2.868   0.005  0.0527 -0.3108 -0.2699
  920SOL    HW1 3678   2.614   2.870   0.058  0.5540 -1.0363  2.4688
  920SOL    HW2 3679   2.671   2.815  -0.077 -2.0754 -1.1274  0.4238
  920SOL     MW 3680   2.682   2.861   0.002 -0.1619 -0.5142  0.1829
  921SOL     OW 3681   2.424   2.603   2.621  0.1211  0.8182 -0.5095
  921SOL    HW1 3682   2.500   2.608   2.567 -4.1838 -0.0511 -1.5098
  921SOL    HW2 3683   2.421   2.520   2.670 -0.2842 -2.1908  0.5594
  921SOL     MW 3684   2.434   2.593   2.620 -0.5003  0.3065 -0.5004
  922SOL     OW 3685   2.026   2.822   0.280  0.7508 -0.9322 -0.2134
  922SOL    HW1 3686   2.020   2.839   0.182 -3.1827 -0.0673 -0.4385
  922SOL    HW2 3687   2.053   2.727   0.289  0.9045 -0.1067 -0.5891
  922SOL     MW 3688   2.029   2.812   0.268  0.2521 -0.7092 -0.2926
  923SOL     OW 3689   2.179   2.859   1.701  0.2660  0.2341 -0.3149
  923SOL    HW1 3690   2.214   2.792   1.642  2.0277  1.1436 -0.0514
  923SOL    HW2 3691   2.129   2.928   1.651 -2.2176 -0.5202 -0.7725
  923SOL     MW 3692   2.177   2.859   1.686  0.1707  0.2546 -0.3405
  924SOL     OW 3693   1.131   2.713   2.522  0.0422  0.5776  0.3250
  924SOL    HW1 3694   1.223   2.757   2.530  1.9998 -2.1440  2.4161
  924SOL    HW2 3695   1.147   2.651   2.592  1.8207 -0.0720  0.6398
  924SOL     MW 3696   1.145   2.711   2.532  0.5351  0.1328  0.6425
  925SOL     OW 3697   3.066   0.182   2.620 -0.1556  0.2903  0.2793
  925SOL    HW1 3698   3.035   0.186   2.532 -2.3653 -0.0947  1.4475
  925SOL    HW2 3699   3.008   0.251   2.663 -0.2962 -1.2205 -1.1158
  925SOL     MW 3700   3.054   0.192   2.614 -0.4657  0.0401  0.2494
  926SOL     OW 3701   2.705   2.427   2.050 -0.5363  0.5288  0.0193
  926SOL    HW1 3702   2.767   2.486   2.092  1.8563 -0.8248  0.5719
  926SOL    HW2 3703   2.763   2.389   1.977  2.2772  1.3118 -0.7337
  926SOL     MW 3704   2.721   2.430   2.046  0.1506  0.4535 -0.0072
  927SOL     OW 3705   2.321   0.124   0.321 -0.2344  0.0083  0.0697
  927SOL    HW1 3706   2.417   0.134   0.346  0.6961 -0.0947  0.5414
  927SOL    HW2 3707   2.319   0.079   0.238  0.9528  1.1760  2.2325
  927SOL     MW 3708   2.333   0.119   0.313  0.0450  0.1488  0.4173
  928SOL     OW 3709   2.180   2.380   1.763 -0.2029 -0.3218 -0.2059
  928SOL    HW1 3710   2.172   2.413   1.673  1.3563  2.9945 -2.2947
  928SOL    HW2 3711   2.268   2.343   1.765  2.6029  2.4098  1.3827
  928SOL     MW 3712   2.191   2.379   1.752  0.3731  0.4762 -0.2719
  929SOL     OW 3713   2.744   2.313   2.456 -0.6635 -0.6707 -0.1041
  929SOL    HW1 3714   2.779   2.280   2.379  0.5601  0.1999  1.7585
  929SOL    HW2 3715   2.816   2.312   2.521  0.0133 -0.7701  0.1126
  929SOL     MW 3716   2.758   2.309   2.455 -0.4128 -0.5690  0.1703
  930SOL     OW 3717   2.017   2.852   2.741  0.1297  0.1322  0.2856
  930SOL    HW1 3718   2.027   2.757   2.758  0.5434 -2.4819  0.8803
  930SOL    HW2 3719   2.103   2.896   2.761  0.2400  0.6890 -1.3641
  930SOL     MW 3720   2.030   2.845   2.746  0.1988 -0.1392  0.1464
  931SOL     OW 3721   3.026   2.724   2.381  0.0829  0.4166 -0.0071
  931SOL    HW1 3722   3.073   2.726   2.467 -0.5870  2.1000  0.9028
  931SOL    HW2 3723   3.084   2.712   2.312  0.2474 -5.1021  4.4574
  931SOL     MW 3724   3.040   2.723   2.383  0.0162 -0.0895  0.7020
  932SOL     OW 3725   2.927   1.929   2.501  0.1445 -0.1685 -0.6701
  932SOL    HW1 3726   3.009   1.972   2.478 -1.1375 -0.8065 -1.1751
  932SOL    HW2 3727   2.865   1.947   2.428  0.5363 -2.2100 -0.2709
  932SOL     MW 3728   2.930   1.937   2.488  0.0271 -0.5220 -0.6841
  933SOL     OW 3729   2.067   2.801   2.220 -0.1484  0.2534 -0.7154
  933SOL    HW1 3730   2.145   2.824   2.267  2.3940 -4.1206  0.4067
  933SOL    HW2 3731   2.014   2.879   2.219 -2.0362  1.8889  0.5700
  933SOL     MW 3732   2.070   2.814   2.226 -0.0620 -0.1079 -0.3978
  934SOL     OW 3733   2.004   2.747   2.477  0.0534 -0.1156 -0.6443
  934SOL    HW1 3734   2.036   2.805   2.551 -2.2021 -0.2758  3.6911
  934SOL    HW2 3735   2.032   2.777   2.392 -0.9912 -0.7490 -0.1945
  934SOL     MW 3736   2.012   2.759   2.475 -0.3820 -0.2203 -0.0130
  935SOL     OW 3737   2.698   1.555   1.861  0.1426  0.6008  0.2372
  935SOL    HW1 3738   2.789   1.573   1.833 -0.1213  1.6191 -0.6046
  935SOL    HW2 3739   2.643   1.534   1.786 -3.9790 -1.1635  5.5698
  935SOL     MW 3740   2.702   1.554   1.848 -0.4360  0.5023  0.8297
  936SOL     OW 3741   2.969   2.231   3.085 -0.4846  0.1497  0.4497
  936SOL    HW1 3742   3.008   2.292   3.144 -0.0323  0.2328 -0.6806
  936SOL    HW2 3743   2.876   2.260   3.100  0.9170  1.5385  1.9734
  936SOL     MW 3744   2.962   2.243   3.095 -0.2400  0.3439  0.5016
  937SOL     OW 3745   1.982   2.123   2.611  0.1357 -0.2221  0.2375
  937SOL    HW1 3746   2.059   2.085   2.662 -0.2893  0.7422  3.3055
  937SOL    HW2 3747   1.992   2.085   2.524  1.6430 -1.2474 -1.8353
  937SOL     MW 3748   1.993   2.113   2.606  0.2785 -0.2301  0.3688
  938SOL     OW 3749   2.291   1.804   1.941 -0.1559  0.2684  0.1465
  938SOL    HW1 3750   2.289   1.826   1.844 -0.8256 -0.4023  0.7378
  938SOL    HW2 3751   2.284   1.891   1.975  0.9713  1.5429  0.1848
  938SOL     MW 3752   2.290   1.819   1.932 -0.0955  0.3481  0.2296
  939SOL     OW 3753   2.764   1.976   2.284  0.5042 -0.0991 -0.3086
  939SOL    HW1 3754   2.783   1.910   2.217 -0.7414 -1.1324 -0.0707
  939SOL    HW2 3755   2.661   1.957   2.288 -2.3201 -1.3502 -0.4280
  939SOL     MW 3756   2.753   1.965   2.276 -0.0328 -0.4005 -0.2930
  940SOL     OW 3757   2.282   0.156   2.676  0.2575 -0.3811 -0.0932
  940SOL    HW1 3758   2.276   0.063   2.660 -1.7197 -0.3493  0.4833
  940SOL    HW2 3759   2.328   0.146   2.757 -1.0235  0.0193 -2.4621
  940SOL     MW 3760   2.287   0.143   2.684 -0.1724 -0.3241 -0.3297
  941SOL     OW 3761   0.097   2.454   2.055 -0.1167 -0.3148  0.0558
  941SOL    HW1 3762   0.172   2.403   2.076 -0.1259 -0.5031 -1.1976
  941SOL    HW2 3763   0.098   2.454   1.956 -0.3415  1.1772 -0.5794
  941SOL     MW 3764   0.107   2.447   2.044 -0.1476 -0.1428 -0.1934
  942SOL     OW 3765   2.841   2.214   2.179  0.2362 -0.1187  0.6342
  942SOL    HW1 3766   2.774   2.272   2.144  1.7004  1.2284  3.0960
  942SOL    HW2 3767   2.800   2.140   2.225  2.2480  0.8380 -1.0245
  942SOL     MW 3768   2.827   2.212   2.181  0.6948  0.1852  0.7402
  943SOL     OW 3769   0.269   2.092   2.262  0.0834  0.6384 -0.1778
  943SOL    HW1 3770   0.231   2.136   2.340 -2.1360 -0.8631  2.7816
  943SOL    HW2 3771   0.365   2.079   2.286 -2.0011  0.8541  0.9888
  943SOL     MW 3772   0.277   2.096   2.276 -0.4845  0.4687  0.3666
  944SOL     OW 3773   2.091   2.676   1.997 -0.0737 -0.4134 -0.3012
  944SOL    HW1 3774   2.138   2.602   2.028 -2.3873 -0.6764 -2.2206
  944SOL    HW2 3775   2.065   2.727   2.076  0.7261  0.3994 -1.3165
  944SOL     MW 3776   2.094   2.673   2.012 -0.2734 -0.3408 -0.6884
  945SOL     OW 3777   2.707   2.689   2.884  0.7311 -0.3558  0.6095
  945SOL    HW1 3778   2.687   2.594   2.863 -1.3103 -1.4825 -2.2172
  945SOL    HW2 3779   2.767   2.717   2.816  1.3357  0.2040  1.4456
  945SOL     MW 3780   2.712   2.680   2.873  0.5415 -0.4306  0.3469
  946SOL     OW 3781   2.481   2.683   2.232  0.3369  0.4255 -0.0653
  946SOL    HW1 3782   2.487   2.756   2.170 -1.6979 -2.3048  0.5111
  946SOL    HW2 3783   2.403   2.624   2.197 -3.0298 -0.0821  0.2930
  946SOL     MW 3784   2.471   2.685   2.220 -0.3758 -0.0017  0.0580
  947SOL     OW 3785   1.921   0.074   0.296 -0.2151 -0.4043  0.2350
  947SOL    HW1 3786   1.886  -0.018   0.279  1.6916  0.3087 -1.3905
  947SOL    HW2 3787   2.007   0.060   0.341  2.1194 -0.1704  1.7021
  947SOL     MW 3788   1.928   0.060   0.299  0.3445 -0.2794  0.2141
  948SOL     OW 3789   1.786   3.026   2.683 -0.2308  0.1103 -1.0032
  948SOL    HW1 3790   1.839   2.943   2.686  0.0670 -0.2166 -1.3769
  948SOL    HW2 3791   1.787   3.067   2.590  0.5346 -0.9808  1.2268
  948SOL     MW 3792   1.793   3.021   2.671 -0.0905 -0.0768 -0.7583
  949SOL     OW 3793   2.510   1.905   2.283  0.0693 -0.3065  0.4078
  949SOL    HW1 3794   2.521   1.821   2.336  1.3349  0.5254  2.1094
  949SOL    HW2 3795   2.434   1.952   2.318  1.2384  2.6504  2.4526
  949SOL     MW 3796   2.501   1.900   2.295  0.3906  0.1934  0.9021
  950SOL     OW 3797   2.322   2.510   2.928 -0.0327  0.4812  0.4877
  950SOL    HW1 3798   2.338   2.424   2.890  0.1777 -0.3449  1.7735
  950SOL    HW2 3799   2.230   2.533   2.898 -1.1993  1.6178 -1.6988
  950SOL     MW 3800   2.312   2.502   2.919 -0.1588  0.5222  0.3689
  951SOL     OW 3801   3.040   2.104   2.836  0.6381  0.2750  0.4730
  951SOL    HW1 3802   3.017   2.119   2.928 -0.8875  0.5915 -1.9173
  951SOL    HW2 3803   3.073   2.014   2.829 -0.0324 -1.3874 -0.0429
  951SOL     MW 3804   3.041   2.094   2.848  0.3484  0.0974  0.0896
  952SOL     OW 3805   3.035   1.681   2.171  0.0278  0.5866 -0.1930
  952SOL    HW1 3806   2.949   1.704   2.138  2.6241 -0.1611 -0.7742
  952SOL    HW2 3807   3.078   1.765   2.197 -2.2792  0.8892 -0.3363
  952SOL     MW 3808   3.029   1.695   2.170  0.0660  0.5279 -0.2886
  953SOL     OW 3809   1.919   1.778   2.913  0.3081  0.2180  0.0078
  953SOL    HW1 3810   1.848   1.732   2.957  0.6680 -0.8157 -0.9777
  953SOL    HW2 3811   1.942   1.723   2.842 -0.8465  0.0100  2.2327
  953SOL     MW 3812   1.913   1.765   2.909  0.2032  0.0542  0.1713
  954SOL     OW 3813   2.387   2.073   2.844  0.1115 -0.2388 -0.2395
  954SOL    HW1 3814   2.306   2.065   2.796  0.3108  3.3292  3.6499
  954SOL    HW2 3815   2.457   2.043   2.779  3.0514 -1.3724 -4.2710
  954SOL     MW 3816   2.385   2.068   2.829  0.5257  0.0824 -0.2582
  955SOL     OW 3817   1.544   1.603   2.568 -0.5313  0.6623  0.3629
  955SOL    HW1 3818   1.512   1.593   2.478  0.9593  1.8975 -1.9546
  955SOL    HW2 3819   1.629   1.652   2.548 -0.4344 -0.7600 -2.6007
  955SOL     MW 3820   1.551   1.608   2.553 -0.3219  0.6376 -0.3339
  956SOL     OW 3821   2.701   2.396   2.848  0.3954 -0.0957  0.2966
  956SOL    HW1 3822   2.713   2.376   2.947  0.3633 -1.7598 -1.0267
  956SOL    HW2 3823   2.775   2.361   2.787  2.8926  0.0732 -2.2958
  956SOL     MW 3824   2.712   2.389   2.853  0.7206 -0.2930 -0.2200
  957SOL     OW 3825   2.273   2.852   0.423 -0.7923  0.2624  0.5832
  957SOL    HW1 3826   2.193   2.833   0.377  0.2108  0.1807 -0.5909
  957SOL    HW2 3827   2.266   2.789   0.503  0.3635  0.8662  4.6470
  957SOL     MW 3828   2.261   2.841   0.428 -0.5075  0.3313  0.9644
  958SOL     OW 3829   2.078   2.583   2.833  0.1754  0.1760  0.4299
  958SOL    HW1 3830   2.027   2.517   2.787 -2.0273 -4.3354  1.3401
  958SOL    HW2 3831   2.021   2.602   2.915 -2.5493  0.2243 -1.0226
  958SOL     MW 3832   2.064   2.577   2.838 -0.4747 -0.4129  0.3584
  959SOL     OW 3833   2.494   2.679   0.380 -0.5225  0.7071  0.0374
  959SOL    HW1 3834   2.532   2.656   0.293 -0.4049  1.5779  1.6749
  959SOL    HW2 3835   2.412   2.727   0.371 -1.8898  0.2953 -0.1678
  959SOL     MW 3836   2.488   2.682   0.367 -0.6874  0.7677  0.2264
  960SOL     OW 3837   1.897   2.315   2.316 -0.7134  0.5060  0.1311
  960SOL    HW1 3838   1.903   2.221   2.321  1.4374  1.7657  0.2787
  960SOL    HW2 3839   1.850   2.358   2.387  1.5921  1.4605  1.4133
  960SOL     MW 3840   1.892   2.308   2.326 -0.1254  0.7982  0.3198
  961SOL     OW 3841   2.176   2.306   2.308 -0.1867 -0.0246  0.3955
  961SOL    HW1 3842   2.082   2.312   2.314  1.4531 -1.8779  0.8007
  961SOL    HW2 3843   2.208   2.349   2.389  0.8985 -0.4815  0.2229
  961SOL     MW 3844   2.168   2.313   2.319  0.1729 -0.3294  0.4262
  962SOL     OW 3845   2.132   1.989   2.777  0.0749 -0.2775  0.1749
  962SOL    HW1 3846   2.112   1.974   2.874  0.5941 -0.7660  1.9486
  962SOL    HW2 3847   2.136   1.897   2.734  0.0428 -1.7437  0.6950
  962SOL     MW 3848   2.130   1.975   2.784  0.1392 -0.5354  0.4775
  963SOL     OW 3849   1.790   2.491   2.091 -0.9117 -0.0759  0.4009
  963SOL    HW1 3850   1.877   2.454   2.121 -0.4743 -2.6368  2.0760
  963SOL    HW2 3851   1.794   2.475   1.997 -0.0991  0.2088  1.6732
  963SOL     MW 3852   1.802   2.484   2.082 -0.7468 -0.3762  0.7898
  964SOL     OW 3853   1.781   1.969   2.730  0.3396 -1.0913  0.1388
  964SOL    HW1 3854   1.855   2.026   2.702  0.7676 -1.4074  2.8949
  964SOL    HW2 3855   1.819   1.923   2.800  2.6852  0.9315  0.1530
  964SOL     MW 3856   1.796   1.971   2.735  0.7055 -0.8661  0.5043
  965SOL     OW 3857   2.255   2.690   0.645  0.5384 -0.3190 -0.0355
  965SOL    HW1 3858   2.228   2.602   0.617  0.1848 -1.2399 -0.1046
  965SOL    HW2 3859   2.313   2.696   0.721 -0.3945  2.6418 -0.1808
  965SOL     MW 3860   2.259   2.679   0.652  0.3687 -0.0499 -0.0638
  966SOL     OW 3861   2.646   2.614   2.474  0.3162 -0.3270 -0.3101
  966SOL    HW1 3862   2.591   2.636   2.389 -1.2934 -0.1734  3.6026
  966SOL    HW2 3863   2.669   2.524   2.466 -0.7804  0.2377 -1.0884
  966SOL     MW 3864   2.642   2.605   2.462 -0.0409 -0.2322  0.1034
  967SOL     OW 3865   2.775   3.098   2.950  0.0066  0.2196 -0.1586
  967SOL    HW1 3866   2.760   3.018   3.002  1.9990  0.0371 -0.8561
  967SOL    HW2 3867   2.704   3.093   2.887  0.9493 -1.3639  4.8409
  967SOL     MW 3868   2.764   3.087   2.948  0.3938 -0.0134  0.4090
  968SOL     OW 3869   2.972   2.624   2.951 -0.1344  0.2139  0.1008
  968SOL    HW1 3870   2.881   2.654   2.928  0.3124 -0.8300  0.9055
  968SOL    HW2 3871   3.010   2.576   2.878 -0.1732 -2.0173 -0.8802
  968SOL     MW 3872   2.965   2.622   2.939 -0.0806 -0.2182  0.0776
  969SOL     OW 3873   1.604   2.152   1.660 -0.1645  0.5595 -0.0949
  969SOL    HW1 3874   1.649   2.064   1.677  0.6537  0.4807 -0.8615
  969SOL    HW2 3875   1.583   2.180   1.751  2.0743  1.8173  1.0595
  969SOL     MW 3876   1.607   2.144   1.674  0.2389  0.7150 -0.0437
  970SOL     OW 3877   1.710   1.778   1.942  1.0516 -0.3076 -0.1722
  970SOL    HW1 3878   1.748   1.700   1.971 -1.3526  3.1221  0.3070
  970SOL    HW2 3879   1.617   1.764   1.950  3.2496  3.6964 -2.2701
  970SOL     MW 3880   1.703   1.766   1.947  1.0244  0.6732 -0.3858
  971SOL     OW 3881   1.775   0.047   2.436  0.1878 -0.6246  0.0168
  971SOL    HW1 3882   1.811  -0.008   2.366 -0.4550  0.1074 -0.3989
  971SOL    HW2 3883   1.811   0.135   2.428  0.4427 -0.1446  2.0866
  971SOL     MW 3884   1.784   0.051   2.426  0.1366 -0.4647  0.2351
  972SOL     OW 3885   0.280   2.866   2.447 -0.0445  0.0683 -0.0957
  972SOL    HW1 3886   0.318   2.778   2.452  0.7241 -0.4637 -1.1858
  972SOL    HW2 3887   0.353   2.929   2.466  2.0179  0.6449  0.9419
  972SOL     MW 3888   0.295   2.862   2.451  0.3291  0.0742 -0.1026
  973SOL     OW 3889   2.600   0.029   2.080  0.2797  0.2200 -0.8873
  973SOL    HW1 3890   2.585  -0.062   2.062  1.8372  1.2232 -2.2362
  973SOL    HW2 3891   2.594   0.065   1.990  0.0451  0.7931 -0.1885
  973SOL     MW 3892   2.597   0.022   2.066  0.4543  0.4280 -0.9731
  974SOL     OW 3893   2.040   0.276   2.724  0.2752 -0.4928  0.9753
  974SOL    HW1 3894   2.124   0.240   2.698  0.8262  1.8787 -1.1164
  974SOL    HW2 3895   1.999   0.212   2.781  2.1700  1.1084  0.9582
  974SOL     MW 3896   2.046   0.263   2.728  0.5979  0.0314  0.6971
  975SOL     OW 3897   2.188   2.518   2.513  0.1958 -0.1079 -0.2084
  975SOL    HW1 3898   2.272   2.548   2.538 -0.2615 -0.8216 -1.6102
  975SOL    HW2 3899   2.135   2.592   2.488 -1.0256  0.5717 -0.0654
  975SOL     MW 3900   2.192   2.532   2.513 -0.0257 -0.1124 -0.3745
  976SOL     OW 3901   0.244   0.387   1.773 -0.6244 -0.2372  0.2850
  976SOL    HW1 3902   0.299   0.308   1.792  0.8931 -4.2692  0.2953
  976SOL    HW2 3903   0.165   0.349   1.731 -0.2482 -2.6682 -2.2573
  976SOL     MW 3904   0.241   0.371   1.770 -0.3745 -1.0899 -0.0491
  977SOL     OW 3905   1.758   2.683   2.566 -0.3081 -0.3647  0.2895
  977SOL    HW1 3906   1.744   2.601   2.526  1.1573  1.3671  1.0866
  977SOL    HW2 3907   1.847   2.705   2.537 -0.1468 -1.0638 -2.9914
  977SOL     MW 3908   1.768   2.675   2.557 -0.0935 -0.2284 -0.0382
   3.10000   3.10000   3.10000
