977 TIP4P/2005f water molecules t=   0.45000 step= 450
 3908
    1SOL     OW    1   0.297   0.782   0.038  0.4042  0.3060  0.1803
    1SOL    HW1    2   0.272   0.812  -0.050  0.4656  1.9207  2.7149
    1SOL    HW2    3   0.248   0.700   0.039 -0.8167  2.2134 -0.0433
    1SOL     MW    4   0.287   0.775   0.027  0.2512  0.7707  0.4852
    2SOL     OW    5   0.297   3.053   1.187 -0.5783  0.6770 -0.1374
    2SOL    HW1    6   0.356   3.119   1.147  1.4492 -1.0013  0.4817
    2SOL    HW2    7   0.210   3.101   1.182 -0.9178 -1.8828  1.5872
    2SOL     MW    8   0.294   3.068   1.181 -0.3556  0.1178  0.1718
    3SOL     OW    9   2.660   0.391   0.929  0.1901  0.0832  0.0745
    3SOL    HW1   10   2.691   0.456   0.862 -0.9790 -0.4562  3.6068
    3SOL    HW2   11   2.625   0.455   0.995  3.0632 -1.6332 -0.7684
    3SOL     MW   12   2.660   0.408   0.929  0.4149 -0.2145  0.4293
    4SOL     OW   13   3.040   1.749   0.581 -0.6337 -0.2382  0.5267
    4SOL    HW1   14   2.966   1.804   0.537 -2.7169  0.7750 -1.7114
    4SOL    HW2   15   3.092   1.687   0.526  2.8645 -0.3927 -0.3549
    4SOL     MW   16   3.037   1.748   0.568 -0.4470 -0.1249  0.1151
    5SOL     OW   17   1.738   1.481   0.593  0.7753  1.1936  0.0814
    5SOL    HW1   18   1.789   1.419   0.652 -1.5803 -1.5184 -0.4489
    5SOL    HW2   19   1.653   1.455   0.624 -0.4351 -0.4288  0.1407
    5SOL     MW   20   1.734   1.469   0.605  0.3048  0.6217  0.0193
    6SOL     OW   21   0.865   1.381   0.678 -0.3703 -0.6438  0.2748
    6SOL    HW1   22   0.773   1.362   0.684 -1.5836 -0.8732  3.5392
    6SOL    HW2   23   0.908   1.299   0.699 -2.2605 -0.3575  2.5561
    6SOL     MW   24   0.858   1.367   0.682 -0.7798 -0.6363  1.0065
    7SOL     OW   25   1.980   1.075   0.054 -0.0464 -0.0559  0.1854
    7SOL    HW1   26   2.023   1.142  -0.003 -1.8122 -0.2462 -1.2544
    7SOL    HW2   27   2.005   1.107   0.143  1.1276  2.5820  0.6995
    7SOL     MW   28   1.989   1.088   0.058 -0.1245  0.2670  0.0633
    8SOL     OW   29   0.968   1.340   1.008 -0.0493  0.0744  0.1902
    8SOL    HW1   30   0.977   1.262   1.062  0.9771 -1.6387 -4.5971
    8SOL    HW2   31   1.009   1.413   1.042 -0.6088  0.9585  2.4101
    8SOL     MW   32   0.975   1.339   1.019  0.0123 -0.0350 -0.1486
    9SOL     OW   33   1.065   0.463   1.357  0.1727  0.4195  0.3841
    9SOL    HW1   34   0.994   0.409   1.327  1.0223 -0.1860  3.2367
    9SOL    HW2   35   1.090   0.424   1.440  0.9874 -0.1410 -1.3737
    9SOL     MW   36   1.059   0.451   1.364  0.3923  0.2656  0.5285
   10SOL     OW   37   0.286   0.786   0.446 -0.1741 -0.7141  0.2704
   10SOL    HW1   38   0.381   0.824   0.450  2.3598  2.2358 -0.0238
   10SOL    HW2   39   0.239   0.832   0.520 -2.4162 -1.0534  1.0907
   10SOL     MW   40   0.292   0.797   0.457 -0.1356 -0.3697  0.3398
   11SOL     OW   41   0.787   1.084   1.623  0.0219 -0.0901  0.2184
   11SOL    HW1   42   0.802   1.067   1.717  2.2827  0.1115 -1.9124
   11SOL    HW2   43   0.766   0.992   1.594 -1.1897  2.4112 -0.4049
   11SOL     MW   44   0.787   1.070   1.632  0.1603  0.2665 -0.1450
   12SOL     OW   45   0.030   1.091   0.872 -0.0407 -0.0325  0.1539
   12SOL    HW1   46   0.026   1.169   0.920  4.2484 -0.7759 -1.2527
   12SOL    HW2   47  -0.017   1.095   0.791  0.5512 -3.5878 -0.5046
   12SOL     MW   48   0.024   1.102   0.867  0.6033 -0.5997 -0.1186
   13SOL     OW   49   1.894   1.397   1.331 -0.1503 -0.2934 -0.2096
   13SOL    HW1   50   1.895   1.349   1.252 -0.4017  1.1823  0.7663
   13SOL    HW2   51   1.869   1.489   1.308 -1.7040  2.7540 -0.6501
   13SOL     MW   52   1.891   1.403   1.318 -0.3884  0.3034 -0.1390
   14SOL     OW   53   0.603   0.313   1.792 -0.3599 -0.0340  0.2234
   14SOL    HW1   54   0.603   0.246   1.720  1.4169 -0.7094  1.6182
   14SOL    HW2   55   0.689   0.307   1.829  1.1368  1.0910 -1.0839
   14SOL     MW   56   0.614   0.303   1.787  0.0720  0.0253  0.2349
   15SOL     OW   57   1.987   0.510   0.956 -0.7030 -0.1309  0.0347
   15SOL    HW1   58   2.020   0.522   1.041  0.0734 -2.9639 -0.2554
   15SOL    HW2   59   2.068   0.487   0.903 -0.6895 -1.3102  0.1277
   15SOL     MW   60   2.002   0.508   0.960 -0.5988 -0.6603  0.0087
   16SOL     OW   61   0.198   1.750   0.335  0.0646  0.1759  0.1220
   16SOL    HW1   62   0.294   1.734   0.356  1.1870  1.0886 -0.8300
   16SOL    HW2   63   0.201   1.844   0.367 -2.0644 -0.6680 -1.6313
   16SOL     MW   64   0.211   1.760   0.342 -0.0682  0.1850 -0.2350
   17SOL     OW   65   1.018   0.818   1.512  0.0310 -0.1010 -0.2206
   17SOL    HW1   66   1.058   0.830   1.602 -1.4509 -2.4301 -1.3591
   17SOL    HW2   67   0.933   0.774   1.519 -2.2302  1.8990  0.9381
   17SOL     MW   68   1.012   0.814   1.525 -0.4629 -0.1444 -0.2179
   18SOL     OW   69   0.075   1.542   0.457 -0.0553  0.5753 -0.0125
   18SOL    HW1   70   0.118   1.610   0.400  0.8054 -0.8067  0.3104
   18SOL    HW2   71   0.026   1.479   0.399  3.0576  0.2718 -1.4686
   18SOL     MW   72   0.074   1.542   0.442  0.4690  0.3529 -0.1620
   19SOL     OW   73   0.079   1.347   0.993 -0.1495 -0.6909 -0.3570
   19SOL    HW1   74   0.126   1.395   0.927 -0.3897 -0.5847 -0.4979
   19SOL    HW2   75  -0.008   1.389   0.995  2.1201  0.7733 -0.9654
   19SOL     MW   76   0.074   1.359   0.984  0.1183 -0.4837 -0.4559
   20SOL     OW   77   0.447   2.129   1.316  0.0966 -0.1739  0.0044
   20SOL    HW1   78   0.385   2.076   1.266 -1.4688  2.0427 -0.5673
   20SOL    HW2   79   0.392   2.172   1.381  0.2318 -0.9799  0.3093
   20SOL     MW   80   0.431   2.128   1.318 -0.0921  0.0122 -0.0308
   21SOL     OW   81   0.521   0.859   0.342 -0.1228 -0.6053 -0.1103
   21SOL    HW1   82   0.582   0.817   0.400  2.1726  1.1783 -1.4525
   21SOL    HW2   83   0.536   0.822   0.253  0.0835 -0.7696 -0.5217
   21SOL     MW   84   0.531   0.848   0.338  0.2072 -0.3917 -0.3417
   22SOL     OW   85   1.552   0.565   1.102  0.6151 -0.0002 -0.6318
   22SOL    HW1   86   1.600   0.528   1.027 -1.2339  3.4680  1.5791
   22SOL    HW2   87   1.505   0.642   1.062  0.5957  1.0868 -0.2731
   22SOL     MW   88   1.552   0.570   1.087  0.3686  0.6008 -0.2927
   23SOL     OW   89   3.086   0.748   0.708 -0.1997 -0.2303  0.0148
   23SOL    HW1   90   3.112   0.660   0.733 -1.4673 -1.4031 -3.1388
   23SOL    HW2   91   3.163   0.802   0.716  0.8661  1.8949 -2.1040
   23SOL     MW   92   3.099   0.744   0.712 -0.2264 -0.1047 -0.6808
   24SOL     OW   93   2.007   2.181   0.072  0.4443 -0.5442 -0.2066
   24SOL    HW1   94   1.986   2.169   0.166  0.0387 -2.7952  0.3788
   24SOL    HW2   95   2.095   2.148   0.052 -0.9812  0.3184  1.9449
   24SOL     MW   96   2.016   2.175   0.082  0.2027 -0.7274  0.1545
   25SOL     OW   97   0.316   1.420   0.533  0.5907  0.4563 -0.1519
   25SOL    HW1   98   0.238   1.476   0.521 -1.4967  2.8042 -1.2903
   25SOL    HW2   99   0.367   1.426   0.459  0.6534 -2.2918 -1.2330
   25SOL     MW  100   0.312   1.428   0.522  0.3236  0.4035 -0.4447
   26SOL     OW  101   2.054   0.910   0.468  0.3632 -0.3228  0.4263
   26SOL    HW1  102   1.963   0.952   0.487  2.2388  1.0816  0.3549
   26SOL    HW2  103   2.091   0.954   0.392 -0.3420  0.1826  0.4550
   26SOL     MW  104   2.047   0.921   0.460  0.5176 -0.0708  0.4206
   27SOL     OW  105   2.021   1.376   0.265  0.5762 -0.4987 -0.3956
   27SOL    HW1  106   1.933   1.376   0.305  0.9778  1.0946  0.6744
   27SOL    HW2  107   2.069   1.439   0.323 -0.5192  1.8753 -1.2019
   27SOL     MW  108   2.016   1.384   0.278  0.4847  0.0248 -0.3608
   28SOL     OW  109   0.376   1.036   1.944  0.0257 -0.0553  0.4044
   28SOL    HW1  110   0.342   0.957   1.907  0.2040 -0.8122  1.6860
   28SOL    HW2  111   0.400   1.029   2.038 -4.0315 -1.3413  0.4452
   28SOL     MW  112   0.375   1.024   1.952 -0.4861 -0.3248  0.5788
   29SOL     OW  113   0.265   1.421   0.788  0.3233 -0.0373  0.4382
   29SOL    HW1  114   0.266   1.518   0.799 -0.5799 -0.7388  1.9133
   29SOL    HW2  115   0.305   1.412   0.697  3.2383  0.9668  1.1903
   29SOL     MW  116   0.271   1.432   0.778  0.5888  0.0026  0.7321
   30SOL     OW  117   0.871   1.051   1.217  0.0306  0.7206  0.1431
   30SOL    HW1  118   0.779   1.061   1.261 -1.3866 -0.3114  1.2213
   30SOL    HW2  119   0.930   1.076   1.290 -0.2551  0.9786  2.1461
   30SOL     MW  120   0.867   1.055   1.233 -0.1941  0.6185  0.5497
   31SOL     OW  121   0.405   0.282   0.234 -0.0385 -0.6866 -0.5309
   31SOL    HW1  122   0.406   0.197   0.288 -1.7657 -0.7864 -1.9243
   31SOL    HW2  123   0.395   0.250   0.145  0.5992 -1.3508  2.8751
   31SOL     MW  124   0.404   0.266   0.229 -0.1822 -0.7874 -0.2654
   32SOL     OW  125   2.753   1.055   1.123  0.2167  0.0425  0.1009
   32SOL    HW1  126   2.694   0.975   1.121 -0.8425 -0.2187  1.1671
   32SOL    HW2  127   2.840   1.021   1.102 -0.2849  1.1685 -1.1809
   32SOL     MW  128   2.756   1.040   1.120  0.0107  0.1566  0.0725
   33SOL     OW  129   1.749   1.334   0.367  0.0951  0.9712  0.0439
   33SOL    HW1  130   1.765   1.244   0.399  2.0702  2.1339  1.6573
   33SOL    HW2  131   1.761   1.388   0.443  1.5542  0.3290 -2.3845
   33SOL     MW  132   1.753   1.329   0.382  0.5482  1.0398 -0.0636
   34SOL     OW  133   1.199   1.880   1.083  0.1266  0.3249  0.2025
   34SOL    HW1  134   1.115   1.921   1.092 -0.2584  1.2091 -0.2657
   34SOL    HW2  135   1.249   1.903   1.170 -0.7323 -0.4796 -0.3530
   34SOL     MW  136   1.194   1.889   1.096 -0.0375  0.3354  0.0674
   35SOL     OW  137   0.310   0.114   1.813 -0.2221  0.1889  0.1080
   35SOL    HW1  138   0.385   0.134   1.874 -0.2228  0.0413  0.6595
   35SOL    HW2  139   0.342   0.035   1.760  0.8592 -0.6686  0.9522
   35SOL     MW  140   0.324   0.106   1.814 -0.0795  0.0563  0.2921
   36SOL     OW  141   1.887   1.961   0.520 -0.3658  0.3539  0.6357
   36SOL    HW1  142   1.885   1.932   0.425 -0.0690 -1.8355 -2.0076
   36SOL    HW2  143   1.924   1.880   0.567  2.0341 -2.9804  0.5339
   36SOL     MW  144   1.892   1.946   0.514 -0.0100 -0.3749  0.2735
   37SOL     OW  145   1.748   2.070   0.993  0.3741  0.0902 -0.0533
   37SOL    HW1  146   1.709   1.994   0.956 -1.8214  1.0363  1.0938
   37SOL    HW2  147   1.690   2.078   1.078 -1.0908 -1.8781  1.9987
   37SOL     MW  148   1.735   2.061   0.999 -0.1089 -0.0447  0.3688
   38SOL     OW  149   2.823   0.926   0.177 -0.1494  0.0427 -0.3592
   38SOL    HW1  150   2.872   0.937   0.258  2.4102 -2.1432  1.2871
   38SOL    HW2  151   2.884   0.875   0.128 -1.1121 -1.7717  0.1167
   38SOL     MW  152   2.837   0.921   0.181  0.0613 -0.4851 -0.0792
   39SOL     OW  153   1.447   0.637   0.802 -0.4305 -0.4110 -0.1591
   39SOL    HW1  154   1.417   0.548   0.821 -2.4430  0.4334  0.4563
   39SOL    HW2  155   1.361   0.679   0.796  1.6863  0.9387  0.2465
   39SOL     MW  156   1.432   0.631   0.803 -0.4167 -0.1215 -0.0243
   40SOL     OW  157   1.263   1.881   0.249 -0.3668  0.0621  0.2218
   40SOL    HW1  158   1.323   1.814   0.281  2.5126 -0.0842 -0.8071
   40SOL    HW2  159   1.259   1.938   0.326 -0.3402  1.5553  0.1805
   40SOL     MW  160   1.270   1.880   0.264  0.0166  0.2398  0.0806
   41SOL     OW  161   0.599   0.479   1.585  0.0988 -0.4718 -0.5028
   41SOL    HW1  162   0.681   0.518   1.564  0.1869  0.4558 -0.9244
   41SOL    HW2  163   0.612   0.430   1.665 -0.6754 -0.0157 -3.0282
   41SOL     MW  164   0.611   0.478   1.593  0.0083 -0.2893 -0.8916
   42SOL     OW  165   1.306   3.013   1.999  0.1024  0.0257 -0.0804
   42SOL    HW1  166   1.217   3.007   2.038  0.1631  2.4702 -1.2238
   42SOL    HW2  167   1.340   2.928   2.013 -1.0659  0.4645 -0.8627
   42SOL     MW  168   1.299   3.001   2.006 -0.0438  0.4062 -0.3345
   43SOL     OW  169   1.566   0.190   1.693 -0.5522  0.1366  0.3559
   43SOL    HW1  170   1.611   0.150   1.622 -1.1937 -2.4065  0.9743
   43SOL    HW2  171   1.494   0.118   1.706 -4.0396 -2.8594  2.0714
   43SOL     MW  172   1.562   0.175   1.686 -1.0969 -0.5943  0.6638
   44SOL     OW  173   1.301   0.730   1.080 -0.0773 -0.1245  0.2790
   44SOL    HW1  174   1.281   0.822   1.071 -3.8267  0.6404 -1.9351
   44SOL    HW2  175   1.304   0.711   1.174 -2.1512  2.0048  1.0425
   44SOL     MW  176   1.299   0.740   1.091 -0.8456  0.2573  0.0876
   45SOL     OW  177   1.190   0.711   0.777 -0.1071 -0.1982 -0.2710
   45SOL    HW1  178   1.114   0.705   0.841 -2.5882  1.1307  0.6671
   45SOL    HW2  179   1.155   0.652   0.704  0.7667 -0.3912  3.0671
   45SOL     MW  180   1.175   0.703   0.775 -0.3192 -0.0483  0.2932
   46SOL     OW  181   0.558   1.164   0.525  0.4722  0.0664 -0.4066
   46SOL    HW1  182   0.535   1.141   0.433 -0.4760 -0.7422 -2.6168
   46SOL    HW2  183   0.649   1.125   0.537 -0.6304 -1.0632  0.2895
   46SOL     MW  184   0.567   1.156   0.514  0.2016 -0.1893 -0.6063
   47SOL     OW  185   0.178   1.919   1.820  0.2779 -0.0736 -0.0440
   47SOL    HW1  186   0.243   1.849   1.787  0.0009 -2.0581  1.9472
   47SOL    HW2  187   0.165   1.900   1.916 -1.2969 -1.0281  0.1185
   47SOL     MW  188   0.185   1.907   1.828  0.0336 -0.4614  0.2402
   48SOL     OW  189   1.033   0.620   1.023 -0.3737 -0.4269  0.0535
   48SOL    HW1  190   0.982   0.655   1.094  1.4717  1.1949  0.6275
   48SOL    HW2  191   1.123   0.653   1.047 -2.5376 -0.7249 -2.3725
   48SOL     MW  192   1.038   0.629   1.036 -0.4157 -0.2522 -0.1909
   49SOL     OW  193   1.803   0.780   1.584 -0.0002 -0.0494 -0.3175
   49SOL    HW1  194   1.770   0.750   1.664 -1.7437  1.6097  0.1891
   49SOL    HW2  195   1.860   0.714   1.547  0.7711 -1.2647 -2.7326
   49SOL     MW  196   1.806   0.768   1.589 -0.1285  0.0091 -0.5693
   50SOL     OW  197   1.203   1.029   0.492 -0.9907  0.3705  0.7222
   50SOL    HW1  198   1.192   1.057   0.583  2.8630  0.3893 -0.9204
   50SOL    HW2  199   1.270   0.954   0.488 -0.2547 -3.0456 -0.6827
   50SOL     MW  200   1.210   1.022   0.504 -0.3851 -0.0777  0.3201
   51SOL     OW  201   0.327   2.872   0.976 -0.1286  0.1868 -0.5059
   51SOL    HW1  202   0.424   2.860   0.965  1.3625 -1.0106  0.6400
   51SOL    HW2  203   0.316   2.934   1.053  1.3041  0.0090 -1.0490
   51SOL     MW  204   0.338   2.879   0.985  0.2572  0.0053 -0.4264
   52SOL     OW  205   0.791   1.762   0.387 -0.2940  0.2702 -0.1642
   52SOL    HW1  206   0.795   1.854   0.399  0.7315 -1.9782  0.1984
   52SOL    HW2  207   0.744   1.757   0.308  0.0796 -0.5027  0.5512
   52SOL     MW  208   0.785   1.773   0.378 -0.1094 -0.1284 -0.0220
   53SOL     OW  209   0.502   2.076   0.568 -0.3763  0.4227  0.0908
   53SOL    HW1  210   0.409   2.057   0.522  0.3863  0.6444  2.1331
   53SOL    HW2  211   0.496   2.170   0.562  3.0271 -1.8460  2.2458
   53SOL     MW  212   0.489   2.086   0.561  0.1734  0.1526  0.6446
   54SOL     OW  213   2.169   0.809   0.852 -0.2528 -0.1183 -0.3343
   54SOL    HW1  214   2.194   0.800   0.760 -3.7775 -0.7375 -1.9325
   54SOL    HW2  215   2.076   0.800   0.845 -0.0592 -0.0205 -0.0535
   54SOL     MW  216   2.160   0.806   0.839 -0.6923 -0.1871 -0.5081
   55SOL     OW  217   0.564   1.490   1.569 -0.5185  0.0133  0.0294
   55SOL    HW1  218   0.522   1.553   1.510 -2.5446  0.3942 -0.7656
   55SOL    HW2  219   0.643   1.459   1.526  0.9714 -0.1003  0.1505
   55SOL     MW  220   0.569   1.494   1.555 -0.5892  0.0485 -0.0595
   56SOL     OW  221   0.552   0.791   0.086 -0.7175  0.3043  0.2775
   56SOL    HW1  222   0.565   0.879   0.044 -1.3068  0.3415 -0.4030
   56SOL    HW2  223   0.460   0.772   0.074 -2.3096 -1.2251 -2.5246
   56SOL     MW  224   0.542   0.800   0.079 -1.0053  0.1074 -0.1820
   57SOL     OW  225   1.274   1.228   1.230  0.0566 -0.2033  0.2036
   57SOL    HW1  226   1.349   1.226   1.168 -0.3966  1.0465  0.2920
   57SOL    HW2  227   1.304   1.194   1.314 -2.9028 -1.1318 -2.8864
   57SOL     MW  228   1.288   1.223   1.233 -0.3937 -0.1609 -0.1924
   58SOL     OW  229   0.634   1.110   1.313 -0.6566  0.1376 -0.4256
   58SOL    HW1  230   0.614   1.195   1.283  1.7422  0.5300 -1.2190
   58SOL    HW2  231   0.614   1.106   1.409  1.3622 -0.0403 -1.2954
   58SOL     MW  232   0.629   1.121   1.322 -0.0737  0.1659 -0.6450
   59SOL     OW  233   1.598   1.629   0.342  0.0724 -0.3237  0.7772
   59SOL    HW1  234   1.643   1.580   0.405  0.0829  1.0547  0.2057
   59SOL    HW2  235   1.508   1.630   0.377 -1.3870  1.3983  0.0481
   59SOL     MW  236   1.592   1.622   0.355 -0.1188  0.0854  0.6056
   60SOL     OW  237   3.093   0.225   1.678  0.9173  0.0093  0.4812
   60SOL    HW1  238   3.000   0.233   1.653  1.6798 -0.4235 -0.1140
   60SOL    HW2  239   3.099   0.167   1.750  1.9030  0.1709 -1.7446
   60SOL     MW  240   3.081   0.219   1.684  1.1480 -0.0265  0.1090
   61SOL     OW  241   2.025   1.441   3.081  0.8997 -0.3688  0.2449
   61SOL    HW1  242   2.017   1.425   3.178  0.1033 -1.3867  1.4105
   61SOL    HW2  243   2.090   1.378   3.056  0.3703 -0.1585  2.7625
   61SOL     MW  244   2.033   1.431   3.091  0.7248 -0.4754  0.7309
   62SOL     OW  245   0.649   1.661   0.614  0.7177  0.2698  0.1478
   62SOL    HW1  246   0.733   1.670   0.554  0.8981 -1.1574  2.0559
   62SOL    HW2  247   0.638   1.570   0.642 -0.2313 -0.8135  0.6892
   62SOL     MW  248   0.659   1.650   0.610  0.6163 -0.0615  0.4710
   63SOL     OW  249   1.677   0.749   0.696 -0.2437  0.0770  0.4045
   63SOL    HW1  250   1.650   0.800   0.616 -1.1248  0.1469  0.8907
   63SOL    HW2  251   1.597   0.716   0.737 -1.7480 -2.2948 -1.0666
   63SOL     MW  252   1.663   0.752   0.691 -0.5584 -0.2267  0.2745
   64SOL     OW  253   0.263   1.679   0.808  0.2293  0.1445 -1.1652
   64SOL    HW1  254   0.321   1.734   0.750 -2.2518  0.0429 -1.3822
   64SOL    HW2  255   0.183   1.729   0.834 -2.3319  0.9140 -0.8782
   64SOL     MW  256   0.260   1.693   0.804 -0.4360  0.2326 -1.1559
   65SOL     OW  257   1.571   2.315   0.338  0.0533  0.1408  0.5551
   65SOL    HW1  258   1.648   2.258   0.326  0.6597  0.8684  1.7025
   65SOL    HW2  259   1.576   2.375   0.411 -0.0764 -3.8022 -1.0658
   65SOL     MW  260   1.582   2.316   0.346  0.1162 -0.2835  0.4926
   66SOL     OW  261   0.351   0.520   0.502  0.1342 -0.1691 -0.1032
   66SOL    HW1  262   0.431   0.506   0.451 -2.5363  1.1448  0.1303
   66SOL    HW2  263   0.316   0.612   0.482  1.0822  2.0846  1.5848
   66SOL     MW  264   0.357   0.530   0.493 -0.0931  0.3016  0.1503
   67SOL     OW  265   1.496   0.105   2.034 -1.0699 -0.1258 -0.1226
   67SOL    HW1  266   1.534   0.114   1.948  0.6876 -1.8568 -1.0784
   67SOL    HW2  267   1.436   0.035   2.026 -0.6654 -1.6642  1.6401
   67SOL     MW  268   1.493   0.097   2.022 -0.7846 -0.5571 -0.0162
   68SOL     OW  269   0.630   0.068   2.954  0.1488  0.0172  0.2006
   68SOL    HW1  270   0.647   0.096   2.860  0.5761  3.2811 -0.4699
   68SOL    HW2  271   0.617   0.158   2.995  0.1303 -0.2105  2.3091
   68SOL     MW  272   0.631   0.084   2.947  0.2027  0.4178  0.3903
   69SOL     OW  273   1.037   0.232   1.959 -0.4107 -0.5065  0.0565
   69SOL    HW1  274   1.125   0.262   1.989  0.6860 -0.8062 -2.3389
   69SOL    HW2  275   1.035   0.147   2.002 -0.9630  3.3365  0.6730
   69SOL     MW  276   1.048   0.225   1.968 -0.3389 -0.0390 -0.1782
   70SOL     OW  277   0.577   1.802   1.118 -0.0377 -1.0172  0.0447
   70SOL    HW1  278   0.637   1.730   1.148 -0.5586 -1.4351 -0.1932
   70SOL    HW2  279   0.597   1.805   1.023  2.2243  0.9836  3.3645
   70SOL     MW  280   0.588   1.793   1.110  0.1920 -0.8084  0.4513
   71SOL     OW  281   1.741   0.635   1.304 -0.3996 -0.2496  0.8324
   71SOL    HW1  282   1.686   0.670   1.371 -2.7912  0.4457 -2.4566
   71SOL    HW2  283   1.670   0.597   1.246  0.2057 -0.3557 -0.8849
   71SOL     MW  284   1.724   0.634   1.305 -0.6353 -0.1719  0.1719
   72SOL     OW  285   0.827   1.770   0.960  0.1094 -0.4293 -0.3296
   72SOL    HW1  286   0.811   1.834   0.879  1.8285 -0.3430 -0.2596
   72SOL    HW2  287   0.778   1.690   0.932 -0.4713  0.5250  0.8787
   72SOL     MW  288   0.818   1.768   0.945  0.2596 -0.2920 -0.1609
   73SOL     OW  289   1.220   0.714   1.351 -0.4548  0.3600 -0.3443
   73SOL    HW1  290   1.175   0.630   1.350  0.1237  0.3836  0.0356
   73SOL    HW2  291   1.158   0.772   1.397 -1.2255 -0.8208  0.8736
   73SOL     MW  292   1.206   0.710   1.357 -0.4802  0.2073 -0.1335
   74SOL     OW  293   2.869   0.171   1.013  0.4943  0.3385  0.2926
   74SOL    HW1  294   2.901   0.153   0.927 -1.1832 -1.6024 -0.6882
   74SOL    HW2  295   2.795   0.230   0.993  0.8747 -1.3789 -1.8563
   74SOL     MW  296   2.864   0.177   0.999  0.3232 -0.1442 -0.1203
   75SOL     OW  297   1.596   1.342   0.124  0.2174 -0.2072  0.3753
   75SOL    HW1  298   1.622   1.347   0.215 -0.1769  0.0158 -1.9979
   75SOL    HW2  299   1.628   1.256   0.090 -1.2389  1.3077 -2.8824
   75SOL     MW  300   1.604   1.331   0.131 -0.0267  0.0221 -0.3676
   76SOL     OW  301   2.977   0.652   0.482  0.6116 -0.0086 -0.2851
   76SOL    HW1  302   3.016   0.687   0.560  0.4438 -1.2250 -1.5159
   76SOL    HW2  303   3.018   0.564   0.464  0.2768 -1.8017  2.0944
   76SOL     MW  304   2.987   0.645   0.490  0.5453 -0.4057 -0.1336
   77SOL     OW  305   0.844   0.468   0.452 -0.8967 -0.0032 -0.0956
   77SOL    HW1  306   0.770   0.479   0.389 -0.0624 -0.8129 -1.5111
   77SOL    HW2  307   0.815   0.393   0.505 -1.3641  2.0058 -1.2462
   77SOL     MW  308   0.831   0.460   0.450 -0.8482  0.1551 -0.4342
   78SOL     OW  309   0.754   0.807   1.211 -0.3820  0.0379  0.2936
   78SOL    HW1  310   0.660   0.792   1.187 -2.2222 -2.3887  2.4201
   78SOL    HW2  311   0.781   0.894   1.178 -1.4926 -1.1656 -1.1583
   78SOL     MW  312   0.745   0.816   1.203 -0.7714 -0.4410  0.3826
   79SOL     OW  313   1.934   1.711   0.604 -0.2457 -0.3498  0.0032
   79SOL    HW1  314   1.851   1.674   0.580 -1.9313 -1.0914 -1.4298
   79SOL    HW2  315   1.930   1.705   0.703 -1.8813 -1.6360 -0.8972
   79SOL     MW  316   1.922   1.705   0.614 -0.6839 -0.6174 -0.3047
   80SOL     OW  317   0.160   1.016   0.352 -0.5146  0.5046 -0.3012
   80SOL    HW1  318   0.064   0.987   0.355 -0.6111  0.3754 -1.4706
   80SOL    HW2  319   0.211   0.939   0.365  0.1930  0.1398  0.3527
   80SOL     MW  320   0.154   1.002   0.354 -0.4340  0.4394 -0.3692
   81SOL     OW  321   1.898   1.912   0.240 -0.1454  0.1986 -0.9848
   81SOL    HW1  322   1.852   1.832   0.219  0.3821  0.3649 -2.6766
   81SOL    HW2  323   1.826   1.979   0.217  1.4128  1.6244 -1.5269
   81SOL     MW  324   1.882   1.910   0.234  0.1298  0.4087 -1.2795
   82SOL     OW  325   0.813   1.043   0.509 -0.5175  0.2116 -0.0759
   82SOL    HW1  326   0.819   1.098   0.430 -0.3103 -0.6021 -3.8473
   82SOL    HW2  327   0.836   0.958   0.487 -0.5992  1.8626 -1.2364
   82SOL     MW  328   0.817   1.039   0.495 -0.5009  0.3221 -0.7266
   83SOL     OW  329   0.171   0.627   1.331  0.3032  0.0030 -0.3794
   83SOL    HW1  330   0.119   0.705   1.343  0.5964 -3.3249 -0.5242
   83SOL    HW2  331   0.227   0.633   1.411  3.1686 -1.2627  0.8801
   83SOL     MW  332   0.171   0.638   1.343  0.7199 -0.6031 -0.2323
   84SOL     OW  333   0.077   0.240   0.928 -0.1371 -0.2668 -0.8142
   84SOL    HW1  334  -0.013   0.273   0.905 -2.2504  0.2658 -0.8669
   84SOL    HW2  335   0.064   0.177   1.000  1.9773  0.9462  1.2825
   84SOL     MW  336   0.063   0.236   0.934 -0.1369 -0.0365 -0.5445
   85SOL     OW  337   0.436   0.437   0.761  0.1003  0.0743 -0.0888
   85SOL    HW1  338   0.428   0.488   0.677  1.9982  0.3731 -3.5351
   85SOL    HW2  339   0.393   0.358   0.725 -3.9752  1.2232 -4.4560
   85SOL     MW  340   0.429   0.433   0.745 -0.1870  0.2653 -1.1197
   86SOL     OW  341   1.222   0.414   1.088  0.4286  0.0289 -0.5478
   86SOL    HW1  342   1.150   0.446   1.034 -0.4503 -1.5815 -2.4296
   86SOL    HW2  343   1.191   0.440   1.174  1.9512  1.1349 -1.8041
   86SOL     MW  344   1.208   0.422   1.093  0.5135 -0.0377 -0.9618
   87SOL     OW  345   1.196   1.502   1.210 -0.0959 -0.3348 -0.1067
   87SOL    HW1  346   1.223   1.521   1.120 -1.1294 -0.0458  1.5910
   87SOL    HW2  347   1.213   1.410   1.227 -1.1995  2.1096 -1.2035
   87SOL     MW  348   1.202   1.492   1.201 -0.3779  0.0258 -0.0274
   88SOL     OW  349   1.262   1.011   1.022 -0.0077  0.1497  0.6471
   88SOL    HW1  350   1.359   1.018   1.007 -0.8506  1.0844  0.0319
   88SOL    HW2  351   1.248   1.053   1.106 -0.3899 -2.4956  2.6614
   88SOL     MW  352   1.273   1.018   1.031 -0.1693 -0.0760  0.8317
   89SOL     OW  353   1.768   0.664   0.335  0.6323  0.1107 -0.2976
   89SOL    HW1  354   1.813   0.591   0.375 -0.7607 -1.4484  0.9846
   89SOL    HW2  355   1.837   0.694   0.268  1.7267  1.9228  1.1826
   89SOL     MW  356   1.783   0.658   0.331  0.5929  0.1441  0.0669
   90SOL     OW  357   0.705   1.193   2.784 -0.0237 -0.3085  0.0104
   90SOL    HW1  358   0.759   1.121   2.827  0.9059  2.8790  4.4640
   90SOL    HW2  359   0.695   1.268   2.850  1.1945 -0.1983 -2.1064
   90SOL     MW  360   0.711   1.194   2.798  0.2596  0.1266  0.3187
   91SOL     OW  361   2.170   0.689   0.587  0.9549  0.5278 -0.0108
   91SOL    HW1  362   2.127   0.761   0.544 -0.8382 -1.8988  1.5714
   91SOL    HW2  363   2.141   0.612   0.544  3.7975 -0.3753  2.1490
   91SOL     MW  364   2.161   0.688   0.576  1.0933  0.0885  0.4830
   92SOL     OW  365   1.613   0.869   0.455  1.1860 -0.0538 -0.1524
   92SOL    HW1  366   1.517   0.843   0.457 -0.7219  0.2443  0.0269
   92SOL    HW2  367   1.663   0.798   0.414 -0.4238  1.0246  0.2432
   92SOL     MW  368   1.607   0.857   0.450  0.7218  0.1278 -0.0766
   93SOL     OW  369   1.054   0.315   0.340 -0.1247 -0.2451  0.3702
   93SOL    HW1  370   0.980   0.375   0.349  0.5283  1.4745 -1.9253
   93SOL    HW2  371   1.099   0.330   0.255  1.4505  0.4088 -1.0627
   93SOL     MW  372   1.050   0.325   0.330  0.1693  0.0681 -0.1217
   94SOL     OW  373   1.925   1.353   1.606  0.0745  0.5928 -0.7943
   94SOL    HW1  374   1.940   1.346   1.509  3.3592 -1.8676  0.4301
   94SOL    HW2  375   1.904   1.260   1.641  1.4261 -2.3907  0.0528
   94SOL     MW  376   1.924   1.339   1.598  0.6862 -0.1255 -0.5210
   95SOL     OW  377   0.746   1.503   0.928 -0.8556  0.1593 -0.1034
   95SOL    HW1  378   0.819   1.452   0.969  1.0346 -0.0589  1.0689
   95SOL    HW2  379   0.692   1.520   1.001  0.7831 -0.1398 -1.0586
   95SOL     MW  380   0.748   1.499   0.943 -0.3900  0.0910 -0.0748
   96SOL     OW  381   1.224   1.804   1.579 -0.4810 -0.4107  0.3069
   96SOL    HW1  382   1.141   1.765   1.588  2.4932  3.6100 -1.3798
   96SOL    HW2  383   1.275   1.737   1.540 -2.6835 -1.8435  2.5607
   96SOL     MW  384   1.220   1.790   1.575 -0.3792 -0.0693  0.3817
   97SOL     OW  385   1.204   1.410   0.780 -0.1660  0.3541 -0.1244
   97SOL    HW1  386   1.222   1.486   0.837 -1.5754  3.0053 -0.6206
   97SOL    HW2  387   1.115   1.437   0.750 -2.5499 -0.2068 -0.5856
   97SOL     MW  388   1.195   1.424   0.784 -0.6665  0.6299 -0.2507
   98SOL     OW  389   1.489   1.308   1.083  0.1168 -0.3328 -0.5731
   98SOL    HW1  390   1.493   1.380   1.147 -0.7025 -1.4605 -0.9889
   98SOL    HW2  391   1.502   1.350   1.000  0.5972 -0.9472  0.1202
   98SOL     MW  392   1.491   1.323   1.080  0.0721 -0.5626 -0.5365
   99SOL     OW  393   1.502   0.375   1.288 -0.5437 -0.0536  0.4099
   99SOL    HW1  394   1.496   0.451   1.233 -0.6605  0.8697  0.1494
   99SOL    HW2  395   1.480   0.406   1.375  0.9915 -1.8719  2.8075
   99SOL     MW  396   1.498   0.389   1.292 -0.3565 -0.1717  0.6918
  100SOL     OW  397   1.017   1.082   1.436 -0.4922  0.2432  0.4999
  100SOL    HW1  398   0.928   1.086   1.478 -0.7688 -1.3678  1.3355
  100SOL    HW2  399   1.034   0.989   1.461  2.1105  1.4105 -0.8979
  100SOL     MW  400   1.007   1.070   1.445 -0.1853  0.1847  0.4257
  101SOL     OW  401   0.580   1.115   0.255 -0.2693 -0.4594  0.1171
  101SOL    HW1  402   0.568   1.021   0.281 -0.5970  0.2450 -0.1313
  101SOL    HW2  403   0.558   1.116   0.163  1.1478  0.5646  1.9622
  101SOL     MW  404   0.576   1.103   0.246 -0.1256 -0.2313  0.3277
  102SOL     OW  405   2.940   0.620   0.999 -0.1421  0.8372 -0.4778
  102SOL    HW1  406   2.996   0.694   0.971 -0.3523 -2.5891  1.1147
  102SOL    HW2  407   2.993   0.577   1.066  0.2796  2.1988 -2.6591
  102SOL     MW  408   2.954   0.624   1.004 -0.1142  0.5648 -0.5555
  103SOL     OW  409   1.663   0.388   1.868  0.0282 -0.9139 -0.4635
  103SOL    HW1  410   1.649   0.331   1.798 -1.0804  0.7373  3.2978
  103SOL    HW2  411   1.752   0.363   1.892 -0.7598  1.2962  0.3296
  103SOL     MW  412   1.673   0.377   1.862 -0.2220 -0.4045  0.1374
  104SOL     OW  413   0.167   1.840   1.424 -0.3803  0.1717  0.3489
  104SOL    HW1  414   0.241   1.774   1.409 -2.5712 -1.6883  0.3959
  104SOL    HW2  415   0.107   1.816   1.358  0.5524 -3.5652  1.7567
  104SOL     MW  416   0.169   1.828   1.413 -0.5463 -0.5668  0.5409
  105SOL     OW  417   0.134   1.216   0.549 -0.8863  0.2861 -0.7235
  105SOL    HW1  418   0.170   1.138   0.503  2.4010 -2.2412  1.1193
  105SOL    HW2  419   0.216   1.270   0.553  0.5522 -2.4418 -0.3425
  105SOL     MW  420   0.150   1.213   0.544 -0.2628 -0.4072 -0.4301
  106SOL     OW  421   0.838   0.310   0.947  0.4065 -0.2352  0.4083
  106SOL    HW1  422   0.801   0.392   0.912  3.8282 -0.0515  1.2183
  106SOL    HW2  423   0.921   0.300   0.897 -1.2799 -0.9146 -0.7130
  106SOL     MW  424   0.844   0.320   0.936  0.6355 -0.3006  0.3673
  107SOL     OW  425   0.842   2.179   2.975 -0.1291 -0.5837 -0.8703
  107SOL    HW1  426   0.787   2.104   2.957 -1.3640  1.0253  4.0516
  107SOL    HW2  427   0.856   2.169   3.069 -2.1951 -1.4971 -0.0514
  107SOL     MW  428   0.837   2.168   2.985 -0.5646 -0.4920 -0.1128
  108SOL     OW  429   1.362   1.631   1.425 -0.7933 -0.0349  0.2630
  108SOL    HW1  430   1.315   1.617   1.343  0.8263  1.2303 -1.3433
  108SOL    HW2  431   1.348   1.560   1.496 -1.1258 -0.7273  2.0118
  108SOL     MW  432   1.354   1.620   1.424 -0.6235  0.0407  0.2818
  109SOL     OW  433   1.949   0.762   0.186  0.3349  0.1514 -0.1991
  109SOL    HW1  434   1.957   0.798   0.104 -1.3210 -0.3862  0.2403
  109SOL    HW2  435   2.034   0.784   0.224  0.1043  0.3898  1.1465
  109SOL     MW  436   1.961   0.770   0.180  0.0860  0.1119  0.0364
  110SOL     OW  437   0.478   1.841   0.718  0.1747  1.3528  0.4340
  110SOL    HW1  438   0.544   1.773   0.693  4.7094  1.0658 -2.8324
  110SOL    HW2  439   0.507   1.921   0.680 -0.1535  1.2918  2.3448
  110SOL     MW  440   0.490   1.843   0.710  0.7297  1.3069  0.2552
  111SOL     OW  441   0.714   0.838   1.494 -0.0831  0.3509 -0.1757
  111SOL    HW1  442   0.734   0.830   1.403 -2.2379  1.8785 -1.2770
  111SOL    HW2  443   0.634   0.790   1.512  0.2669  1.1335 -1.0447
  111SOL     MW  444   0.706   0.831   1.485 -0.3212  0.6557 -0.4356
  112SOL     OW  445   1.332   1.096   1.728 -0.5551  0.5912 -0.7973
  112SOL    HW1  446   1.284   1.177   1.727 -1.1849  0.9066  2.1651
  112SOL    HW2  447   1.264   1.034   1.733  0.8071 -1.4967  0.6891
  112SOL     MW  448   1.316   1.098   1.729 -0.4585  0.3574 -0.2103
  113SOL     OW  449   1.351   3.101   1.730 -0.5136 -0.3132  0.3662
  113SOL    HW1  450   1.317   3.063   1.813  2.4305  0.0529  1.1453
  113SOL    HW2  451   1.332   3.044   1.653 -1.7042  0.4392 -1.6134
  113SOL     MW  452   1.344   3.089   1.731 -0.2822 -0.1656  0.2078
  114SOL     OW  453   0.498   2.811   1.893 -0.5047 -0.0386  0.4474
  114SOL    HW1  454   0.461   2.883   1.943  2.2794 -1.0764  1.9203
  114SOL    HW2  455   0.484   2.845   1.803 -1.1490  2.2240 -1.0490
  114SOL     MW  456   0.492   2.825   1.888 -0.2224  0.1230  0.4443
  115SOL     OW  457   0.470   0.838   1.127  0.3394  0.3039 -0.2066
  115SOL    HW1  458   0.460   0.743   1.136  1.6964 -2.9898  2.3227
  115SOL    HW2  459   0.433   0.874   1.206  1.4008 -1.3456 -0.9783
  115SOL     MW  460   0.464   0.830   1.138  0.6585 -0.3483  0.0253
  116SOL     OW  461   0.778   1.066   0.947  0.0278  0.0009  0.8827
  116SOL    HW1  462   0.847   1.100   0.890  1.1904 -0.8943 -1.3504
  116SOL    HW2  463   0.803   1.075   1.042  1.1916 -1.3222  1.7473
  116SOL     MW  464   0.791   1.072   0.952  0.3347 -0.2918  0.7021
  117SOL     OW  465   1.236   1.118   0.769 -0.1237  0.1763 -0.0789
  117SOL    HW1  466   1.228   1.081   0.860 -2.2923 -0.3429 -0.7587
  117SOL    HW2  467   1.231   1.215   0.777  1.5405 -1.8161 -2.1268
  117SOL     MW  468   1.234   1.126   0.782 -0.1903 -0.1551 -0.4388
  118SOL     OW  469   3.054   2.981   1.693  0.7820 -0.5337 -0.2162
  118SOL    HW1  470   3.101   3.038   1.752 -2.7854  0.5815 -2.3048
  118SOL    HW2  471   2.959   3.007   1.688  3.5114 -2.2415 -2.2908
  118SOL     MW  472   3.047   2.992   1.700  0.6715 -0.6119 -0.7655
  119SOL     OW  473   0.526   1.351   1.224 -0.5605  0.3944 -0.0178
  119SOL    HW1  474   0.537   1.342   1.134 -1.0942 -0.8545  0.2321
  119SOL    HW2  475   0.430   1.343   1.240  0.9527  0.9532 -0.5926
  119SOL     MW  476   0.515   1.349   1.214 -0.4313  0.3034 -0.0607
  120SOL     OW  477   0.180   0.709   0.943 -0.3019  0.2285  0.0503
  120SOL    HW1  478   0.222   0.635   0.991 -1.8118  0.5594 -0.2131
  120SOL    HW2  479   0.225   0.788   0.974 -0.6480  2.0408  2.5111
  120SOL     MW  480   0.192   0.709   0.953 -0.5468  0.5113  0.3402
  121SOL     OW  481   1.846   1.089   1.727  0.2723  0.5602  0.1234
  121SOL    HW1  482   1.752   1.096   1.752 -0.5435  1.2307  0.4672
  121SOL    HW2  483   1.863   1.002   1.685  0.3045 -0.3479 -2.0061
  121SOL     MW  484   1.836   1.079   1.725  0.1689  0.5289 -0.1122
  122SOL     OW  485   0.118   0.519   0.749  0.3686  0.1304 -0.0572
  122SOL    HW1  486   0.191   0.476   0.704  1.0330  1.9848  0.3636
  122SOL    HW2  487   0.158   0.575   0.815 -0.0294  1.3239 -1.0481
  122SOL     MW  488   0.133   0.520   0.752  0.4037  0.5326 -0.1324
  123SOL     OW  489   1.800   1.081   0.440  0.2884  0.2574  0.3160
  123SOL    HW1  490   1.767   0.991   0.437  0.3129 -0.8921  1.9180
  123SOL    HW2  491   1.809   1.093   0.538 -0.5088 -0.0302  0.5913
  123SOL     MW  492   1.797   1.070   0.453  0.1864  0.0678  0.5637
  124SOL     OW  493   0.673   0.542   0.891 -0.1949  0.5946  0.6990
  124SOL    HW1  494   0.597   0.499   0.848 -1.7123 -1.8622  0.6827
  124SOL    HW2  495   0.680   0.627   0.851  0.3167  0.3615  0.2743
  124SOL     MW  496   0.664   0.548   0.880 -0.3276  0.2397  0.6408
  125SOL     OW  497   0.682   1.712   1.693 -0.0086  0.7729  0.6164
  125SOL    HW1  498   0.621   1.632   1.685 -1.2123 -2.0261  2.8056
  125SOL    HW2  499   0.626   1.781   1.671 -1.0435 -0.7973  0.0366
  125SOL     MW  500   0.667   1.710   1.689 -0.3040  0.1964  0.8287
  126SOL     OW  501   2.109   1.599   1.955 -0.9577  0.2278 -0.0554
  126SOL    HW1  502   2.180   1.661   1.935 -0.2504  1.4159 -0.2044
  126SOL    HW2  503   2.160   1.529   1.989 -0.0501 -0.6830  1.7819
  126SOL     MW  504   2.125   1.598   1.956 -0.7446  0.2644  0.1674
  127SOL     OW  505   0.620   0.763   1.859 -0.1010  0.4530  0.5389
  127SOL    HW1  506   0.705   0.716   1.883  2.5769 -0.4432  0.4464
  127SOL    HW2  507   0.623   0.846   1.908 -0.0446 -2.4944 -0.1128
  127SOL     MW  508   0.631   0.767   1.869  0.2598 -0.0541  0.4407
  128SOL     OW  509   1.852   0.790   2.894  0.5160  0.3788  0.0399
  128SOL    HW1  510   1.835   0.758   2.804 -0.4837 -1.1170  1.6805
  128SOL    HW2  511   1.783   0.862   2.898  0.0981 -0.2288 -1.5367
  128SOL     MW  512   1.840   0.795   2.883  0.3290  0.1013  0.0483
  129SOL     OW  513   1.519   0.972   0.180  0.5455 -0.0042 -0.2211
  129SOL    HW1  514   1.467   0.897   0.192  1.6456  4.0153 -2.2992
  129SOL    HW2  515   1.561   0.986   0.263 -0.3766 -0.5819  1.1289
  129SOL     MW  516   1.518   0.964   0.192  0.5690  0.4499 -0.3171
  130SOL     OW  517   0.751   1.434   0.404 -0.1341 -0.4545 -0.0137
  130SOL    HW1  518   0.796   1.406   0.480 -2.2111 -0.2190 -2.0932
  130SOL    HW2  519   0.822   1.460   0.348  2.9452 -1.3626  0.0885
  130SOL     MW  520   0.766   1.434   0.407 -0.0018 -0.5432 -0.2746
  131SOL     OW  521   3.047   0.824   0.037 -0.2151  0.2510 -0.4443
  131SOL    HW1  522   3.024   0.880  -0.050  0.3447  2.7290 -2.5625
  131SOL    HW2  523   3.105   0.872   0.097 -4.4187 -0.5779 -0.9351
  131SOL     MW  524   3.051   0.837   0.033 -0.6959  0.4686 -0.7886
  132SOL     OW  525   2.782   0.139   1.264 -0.0416  0.2976 -0.4207
  132SOL    HW1  526   2.825   0.152   1.177  1.3336  0.1199 -0.4469
  132SOL    HW2  527   2.686   0.140   1.249  0.1728 -1.1249  0.4640
  132SOL     MW  528   2.775   0.141   1.251  0.1681  0.0865 -0.3074
  133SOL     OW  529   1.089   0.127   1.698 -0.1174 -0.5720 -0.0177
  133SOL    HW1  530   1.168   0.075   1.693 -0.4562  0.2453  2.0520
  133SOL    HW2  531   1.095   0.172   1.782 -1.3750  0.0450  0.7676
  133SOL     MW  532   1.101   0.126   1.708 -0.3280 -0.3828  0.3590
  134SOL     OW  533   1.377   2.512   1.428  0.1083 -0.0291  0.2520
  134SOL    HW1  534   1.334   2.593   1.410  1.5252 -0.7660  1.2621
  134SOL    HW2  535   1.414   2.536   1.516 -0.4866 -1.3046  0.5141
  134SOL     MW  536   1.377   2.526   1.437  0.2168 -0.2946  0.4199
  135SOL     OW  537   3.011   0.982   2.925 -0.3002 -0.0072 -0.7788
  135SOL    HW1  538   3.074   1.054   2.924 -0.7896  0.3248  2.0722
  135SOL    HW2  539   2.933   1.026   2.918  2.4268 -1.0807 -2.5031
  135SOL     MW  540   3.009   0.997   2.924 -0.0050 -0.1050 -0.6302
  136SOL     OW  541   0.230   1.991   0.855 -0.7829 -0.1417 -0.6130
  136SOL    HW1  542   0.162   1.929   0.829 -0.8186 -2.1363 -1.5286
  136SOL    HW2  543   0.296   1.963   0.788 -3.2389  0.4597 -1.1578
  136SOL     MW  544   0.230   1.979   0.843 -1.1117 -0.3255 -0.8057
  137SOL     OW  545   0.748   2.013   0.510  0.2981  0.3391 -0.0416
  137SOL    HW1  546   0.772   1.978   0.593  1.9966  0.7555  0.1041
  137SOL    HW2  547   0.651   2.028   0.523  0.0974 -0.9440  1.0376
  137SOL     MW  548   0.739   2.010   0.523  0.4957  0.2247  0.1200
  138SOL     OW  549   0.525   0.575   1.128  0.6338  0.0394  0.4378
  138SOL    HW1  550   0.440   0.531   1.105 -1.0573 -1.0444 -1.2969
  138SOL    HW2  551   0.573   0.567   1.045  0.6530 -0.6315  2.6469
  138SOL     MW  552   0.520   0.568   1.114  0.4132 -0.1921  0.5004
  139SOL     OW  553   2.692   0.504   1.387 -0.2502  0.6931 -0.4146
  139SOL    HW1  554   2.730   0.416   1.363 -1.8377 -0.9315  2.5045
  139SOL    HW2  555   2.762   0.569   1.388 -1.6019  4.5650 -1.9219
  139SOL     MW  556   2.707   0.501   1.384 -0.6380  0.9896 -0.2283
  140SOL     OW  557   0.838   0.386   2.088 -0.1098 -0.0144 -0.0588
  140SOL    HW1  558   0.907   0.331   2.044  1.3877  2.7608 -0.7152
  140SOL    HW2  559   0.879   0.392   2.172  0.8734  0.4139 -0.7499
  140SOL     MW  560   0.853   0.380   2.093  0.2175  0.4082 -0.2366
  141SOL     OW  561   1.031   0.582   1.742  0.0850 -0.1244  0.1495
  141SOL    HW1  562   1.086   0.509   1.703  1.2223  1.7234  1.1260
  141SOL    HW2  563   1.088   0.654   1.754 -4.3811 -0.2010  0.3681
  141SOL     MW  564   1.045   0.582   1.738 -0.3542  0.1093  0.3072
  142SOL     OW  565   0.951   1.142   0.747  0.1826  0.0501  0.1850
  142SOL    HW1  566   0.922   1.114   0.652  0.6775  0.8251 -4.5303
  142SOL    HW2  567   1.046   1.133   0.758 -1.9781 -3.2154 -0.4671
  142SOL     MW  568   0.960   1.137   0.736 -0.0372 -0.2785 -0.5232
  143SOL     OW  569   1.797   0.823   1.103 -0.5628 -0.8041 -0.0500
  143SOL    HW1  570   1.816   0.784   1.016  3.0418 -2.2307 -0.7177
  143SOL    HW2  571   1.775   0.750   1.162  0.3998 -2.8554  0.9787
  143SOL     MW  572   1.797   0.808   1.099  0.0398 -1.2630 -0.0023
  144SOL     OW  573   0.224   1.174   1.524  0.3397  0.9519  0.0408
  144SOL    HW1  574   0.318   1.162   1.519 -0.4091 -0.1485 -1.5271
  144SOL    HW2  575   0.213   1.212   1.610  1.4806 -2.4033  1.2737
  144SOL     MW  576   0.235   1.177   1.535  0.3915  0.3640 -0.0034
  145SOL     OW  577   0.275   0.463   1.040  0.1146 -0.8617  0.0258
  145SOL    HW1  578   0.296   0.397   1.110 -0.5948  0.4186 -1.6920
  145SOL    HW2  579   0.291   0.420   0.964  2.0253  1.6476  3.6170
  145SOL     MW  580   0.280   0.448   1.039  0.2731 -0.3617  0.2729
  146SOL     OW  581   0.900   1.937   1.410  0.0116 -0.1212 -0.2811
  146SOL    HW1  582   0.924   1.919   1.316 -2.9481 -0.1267  0.1843
  146SOL    HW2  583   0.799   1.923   1.394 -3.4086  0.4977 -1.4118
  146SOL     MW  584   0.890   1.933   1.396 -0.8301 -0.0403 -0.3689
  147SOL     OW  585   0.400   0.457   2.919  0.1336 -0.2984  0.7362
  147SOL    HW1  586   0.330   0.477   2.979 -1.5125  1.6928 -0.9175
  147SOL    HW2  587   0.364   0.500   2.844  3.1021  0.3880  2.6698
  147SOL     MW  588   0.386   0.465   2.917  0.3081  0.0549  0.7731
  148SOL     OW  589   0.072   0.863   1.347  0.0313 -0.3010  0.4320
  148SOL    HW1  590   0.168   0.889   1.323  2.7962  0.3733 -1.7094
  148SOL    HW2  591   0.080   0.900   1.434 -1.1455  0.1913 -2.1074
  148SOL     MW  592   0.086   0.872   1.355  0.2409 -0.1470 -0.1856
  149SOL     OW  593   1.392   1.166   1.462 -0.2778 -0.6985 -0.1125
  149SOL    HW1  594   1.377   1.142   1.552  0.4251  2.5062  2.6587
  149SOL    HW2  595   1.491   1.178   1.458 -0.2313 -2.8078  1.8611
  149SOL     MW  596   1.403   1.165   1.474 -0.1789 -0.5539  0.5135
  150SOL     OW  597   1.830   1.307   0.805  0.8570  0.1754  0.3085
  150SOL    HW1  598   1.846   1.225   0.764  0.1364  1.1052 -0.7642
  150SOL    HW2  599   1.915   1.342   0.829 -1.3459  1.7054 -2.1837
  150SOL     MW  600   1.843   1.301   0.803  0.4713  0.5000 -0.1619
  151SOL     OW  601   1.645   1.844   0.846  0.1375  0.5479 -0.0672
  151SOL    HW1  602   1.578   1.870   0.783  1.4722  0.4079 -0.3611
  151SOL    HW2  603   1.595   1.776   0.905  2.6393  0.9624  0.1627
  151SOL     MW  604   1.630   1.838   0.846  0.6437  0.5841 -0.0757
  152SOL     OW  605   0.774   1.343   1.495  0.1027 -0.3522 -0.6862
  152SOL    HW1  606   0.748   1.254   1.523  1.4598  2.7991  0.4300
  152SOL    HW2  607   0.865   1.341   1.473 -0.5920 -0.4331  2.9208
  152SOL     MW  608   0.782   1.331   1.496  0.1901  0.0529 -0.0630
  153SOL     OW  609   2.623   1.270   0.724 -0.4154  0.4134  0.6894
  153SOL    HW1  610   2.672   1.276   0.646  2.5291 -2.4310  0.6281
  153SOL    HW2  611   2.565   1.202   0.699  0.9696  0.8707 -1.2564
  153SOL     MW  612   2.622   1.262   0.711  0.1558  0.0984  0.4246
  154SOL     OW  613   0.352   1.732   1.675  0.7176 -0.6349 -0.1110
  154SOL    HW1  614   0.350   1.696   1.590 -0.6117 -1.2258 -1.5165
  154SOL    HW2  615   0.370   1.660   1.729  0.4624  0.0259  2.4818
  154SOL     MW  616   0.354   1.718   1.671  0.5086 -0.6257  0.0457
  155SOL     OW  617   1.116   0.660   0.299 -0.2875 -0.2033 -0.0497
  155SOL    HW1  618   1.143   0.633   0.385 -0.5887 -1.5877  0.3720
  155SOL    HW2  619   1.058   0.740   0.305 -2.1755 -1.8841 -1.2109
  155SOL     MW  620   1.112   0.667   0.311 -0.5764 -0.6077 -0.1473
  156SOL     OW  621   1.491   3.006   1.041  0.1602 -0.1835 -0.0680
  156SOL    HW1  622   1.535   3.082   1.078 -1.4271  1.2162  3.6657
  156SOL    HW2  623   1.479   2.944   1.109  2.0536  0.5263 -1.9445
  156SOL     MW  624   1.495   3.008   1.055  0.2006  0.0949  0.1770
  157SOL     OW  625   1.332   1.232   0.134  0.6316  0.1747 -0.3429
  157SOL    HW1  626   1.352   1.139   0.154 -1.4555 -1.4338 -1.6820
  157SOL    HW2  627   1.410   1.280   0.113 -0.1131 -0.8379  2.4949
  157SOL     MW  628   1.345   1.226   0.134  0.2580 -0.1711 -0.1452
  158SOL     OW  629   0.467   1.632   2.230  0.2406 -1.0058 -0.3890
  158SOL    HW1  630   0.473   1.692   2.157  2.5161  0.1163  2.5260
  158SOL    HW2  631   0.380   1.639   2.269  1.2837  2.7999 -0.8081
  158SOL     MW  632   0.456   1.641   2.225  0.6785 -0.3556 -0.0597
  159SOL     OW  633   1.330   1.696   0.469  0.0573 -0.5832 -0.3370
  159SOL    HW1  634   1.295   1.621   0.425 -0.2694  1.4486 -1.1320
  159SOL    HW2  635   1.248   1.736   0.513 -2.1833 -0.2577 -0.1514
  159SOL     MW  636   1.315   1.691   0.469 -0.2814 -0.2722 -0.4174
  160SOL     OW  637   0.495   1.094   1.550 -0.5546  0.4191  0.6448
  160SOL    HW1  638   0.513   1.002   1.579 -0.4791  1.0397 -1.8003
  160SOL    HW2  639   0.510   1.158   1.619 -0.2404 -0.0037 -1.2288
  160SOL     MW  640   0.500   1.090   1.563 -0.5032  0.4452  0.0750
  161SOL     OW  641   0.547   2.133   2.669 -0.1155  0.4280 -0.3132
  161SOL    HW1  642   0.456   2.132   2.697 -0.5322 -2.3677 -2.1785
  161SOL    HW2  643   0.558   2.106   2.583 -0.7520  0.4740  2.8941
  161SOL     MW  644   0.536   2.129   2.662 -0.2545  0.0652 -0.1362
  162SOL     OW  645   0.987   1.684   1.734  0.3022 -0.3315 -0.6624
  162SOL    HW1  646   1.006   1.782   1.766  0.4455 -0.8819 -0.4306
  162SOL    HW2  647   0.914   1.662   1.793 -0.6953 -3.2297  2.3243
  162SOL     MW  648   0.980   1.694   1.746  0.1895 -0.7865 -0.2378
  163SOL     OW  649   2.121   0.150   0.983 -0.0060 -0.5041 -0.0144
  163SOL    HW1  650   2.106   0.179   0.887 -1.4766  1.4460 -0.6924
  163SOL    HW2  651   2.052   0.087   1.010  1.8109 -1.0132 -0.4063
  163SOL     MW  652   2.110   0.145   0.973  0.0397 -0.3140 -0.1556
  164SOL     OW  653   0.276   0.224   0.721  0.4238 -0.0215 -0.1207
  164SOL    HW1  654   0.198   0.246   0.774 -0.9205  0.9048  0.2500
  164SOL    HW2  655   0.290   0.128   0.728  2.4397 -1.3863  1.3252
  164SOL     MW  656   0.268   0.215   0.729  0.5124 -0.0793  0.1190
  165SOL     OW  657   1.369   1.250   0.420  0.0261  0.5829 -0.1044
  165SOL    HW1  658   1.323   1.176   0.453 -1.2308 -0.3244 -0.6763
  165SOL    HW2  659   1.374   1.233   0.322  2.8854  3.8578 -0.6423
  165SOL     MW  660   1.364   1.238   0.411  0.2375  0.8953 -0.2508
  166SOL     OW  661   0.497   1.041   0.928  0.8026 -0.4381 -0.4999
  166SOL    HW1  662   0.471   1.009   1.017 -2.6905 -1.1492  0.1962
  166SOL    HW2  663   0.590   1.055   0.928 -0.7731  0.0744  0.5163
  166SOL     MW  664   0.506   1.039   0.939  0.1338 -0.4643 -0.2740
  167SOL     OW  665   0.868   1.161   0.288 -0.4737  0.4147  0.0232
  167SOL    HW1  666   0.777   1.161   0.252 -3.2192  0.3407 -1.0147
  167SOL    HW2  667   0.909   1.215   0.216 -1.3330 -0.7104  1.5046
  167SOL     MW  668   0.862   1.168   0.274 -0.9493  0.2565  0.0817
  168SOL     OW  669   1.715   1.726   2.897  0.1272 -0.2730  0.5354
  168SOL    HW1  670   1.629   1.752   2.866 -0.1857 -0.6439 -2.0684
  168SOL    HW2  671   1.701   1.662   2.957  0.9527 -0.5848  0.3771
  168SOL     MW  672   1.702   1.721   2.901  0.1948 -0.3631  0.1709
  169SOL     OW  673   0.326   0.952   1.339  0.8093  0.1395 -0.4374
  169SOL    HW1  674   0.376   0.951   1.422 -0.8399 -0.2867  0.0313
  169SOL    HW2  675   0.306   1.041   1.313 -0.0289  0.2773 -0.1368
  169SOL     MW  676   0.330   0.964   1.347  0.4811  0.1014 -0.3359
  170SOL     OW  677   1.065   1.474   1.481 -0.2823 -0.1574  0.7296
  170SOL    HW1  678   1.000   1.543   1.512  2.2941  0.1479  1.6406
  170SOL    HW2  679   1.064   1.502   1.385 -1.0685  0.6833 -3.5559
  170SOL     MW  680   1.056   1.487   1.473 -0.0461 -0.0062  0.2844
  171SOL     OW  681   0.602   1.374   0.682 -0.0702  0.2656 -0.0330
  171SOL    HW1  682   0.562   1.357   0.764  3.0131 -0.2378 -1.9719
  171SOL    HW2  683   0.571   1.312   0.613  1.0189  1.1576 -1.7653
  171SOL     MW  684   0.592   1.364   0.684  0.4803  0.3169 -0.5174
  172SOL     OW  685   0.856   0.312   1.232  0.0835 -0.0328  0.3674
  172SOL    HW1  686   0.844   0.324   1.131  0.8944  1.4831 -1.0282
  172SOL    HW2  687   0.764   0.324   1.265 -2.9291  0.3773 -1.8070
  172SOL     MW  688   0.842   0.316   1.223 -0.2070  0.2213 -0.1037
  173SOL     OW  689   0.477   1.715   0.356 -0.3152  0.0164  0.7238
  173SOL    HW1  690   0.476   1.618   0.330  2.4570 -3.0605 -1.0450
  173SOL    HW2  691   0.519   1.709   0.441  0.9070 -0.9690 -1.9337
  173SOL     MW  692   0.482   1.702   0.364  0.2118 -0.5196  0.1398
  174SOL     OW  693   2.004   0.919   1.435 -0.3396 -0.1340 -0.3293
  174SOL    HW1  694   1.930   0.866   1.479  0.7968 -2.4699  0.4487
  174SOL    HW2  695   1.965   0.977   1.369  1.5560 -2.0092 -0.0652
  174SOL     MW  696   1.989   0.919   1.432  0.0604 -0.6896 -0.1918
  175SOL     OW  697   0.476   1.443   0.305  0.2287 -0.7264  0.1351
  175SOL    HW1  698   0.439   1.424   0.215  0.0825 -1.3303  0.8663
  175SOL    HW2  699   0.567   1.429   0.300  1.6145 -0.2557 -1.8739
  175SOL     MW  700   0.483   1.438   0.292  0.3922 -0.7440 -0.0335
  176SOL     OW  701   0.246   1.256   1.251 -0.4925  0.1185  0.6411
  176SOL    HW1  702   0.190   1.269   1.179  0.7533  0.4753  1.9774
  176SOL    HW2  703   0.181   1.259   1.329  1.1036  2.3429  1.8081
  176SOL     MW  704   0.230   1.258   1.252 -0.1176  0.4590  0.9714
  177SOL     OW  705   0.597   0.352   1.345 -0.3210 -0.0696  0.2474
  177SOL    HW1  706   0.593   0.445   1.315 -1.8480 -1.5280  3.5333
  177SOL    HW2  707   0.613   0.354   1.444  0.1223 -2.2846 -1.1970
  177SOL     MW  708   0.598   0.365   1.354 -0.4640 -0.5543  0.4903
  178SOL     OW  709   3.067   0.425   2.906 -0.2814  0.0879  0.2032
  178SOL    HW1  710   3.027   0.478   2.977  0.4395 -0.9196 -0.8065
  178SOL    HW2  711   3.005   0.416   2.835 -0.4337 -1.2989 -2.1242
  178SOL     MW  712   3.054   0.431   2.906 -0.2064 -0.2280 -0.2371
  179SOL     OW  713   1.643   1.301   1.460 -0.1845  0.3496 -0.9455
  179SOL    HW1  714   1.639   1.370   1.524  0.8202  1.2853  2.1390
  179SOL    HW2  715   1.734   1.291   1.435  2.3002 -0.5280  0.0086
  179SOL     MW  716   1.655   1.309   1.465  0.2759  0.3573 -0.4127
  180SOL     OW  717   2.989   0.175   0.442  0.3473  0.1485  0.0351
  180SOL    HW1  718   2.951   0.198   0.352 -2.1577 -0.5503 -1.0658
  180SOL    HW2  719   3.042   0.258   0.468  1.3372 -1.0703 -1.0987
  180SOL     MW  720   2.991   0.189   0.434  0.1474 -0.1045 -0.2597
  181SOL     OW  721   1.145   1.453   3.016  0.6149 -0.3035 -0.5459
  181SOL    HW1  722   1.209   1.516   3.048  0.0198  0.9487 -1.8468
  181SOL    HW2  723   1.187   1.398   2.948  0.9493 -1.9811 -1.7790
  181SOL     MW  724   1.159   1.454   3.012  0.5805 -0.3596 -0.8802
  182SOL     OW  725   0.482   0.865   1.658  0.0118  0.2058  0.1549
  182SOL    HW1  726   0.401   0.816   1.684  0.6849 -0.1194  0.4297
  182SOL    HW2  727   0.546   0.837   1.724  0.6139 -0.7055 -0.7495
  182SOL     MW  728   0.480   0.855   1.670  0.1800  0.0426  0.0718
  183SOL     OW  729   1.553   1.501   1.283 -0.0052 -0.8310 -0.7079
  183SOL    HW1  730   1.494   1.548   1.345  1.5380  2.2738 -0.3692
  183SOL    HW2  731   1.603   1.440   1.339  1.2086 -2.0875 -0.6112
  183SOL     MW  732   1.552   1.499   1.298  0.3585 -0.5871 -0.6505
  184SOL     OW  733   0.847   0.656   1.944 -0.0893 -0.3108 -0.5535
  184SOL    HW1  734   0.913   0.622   1.885  1.0575 -1.3792 -0.0314
  184SOL    HW2  735   0.825   0.579   1.988  3.9968  2.8450 -1.9940
  184SOL     MW  736   0.853   0.641   1.942  0.6011 -0.0354 -0.6747
  185SOL     OW  737   1.160   0.944   1.981  1.2633 -0.0462  0.6907
  185SOL    HW1  738   1.157   0.875   2.043  0.5847  0.6530  0.0973
  185SOL    HW2  739   1.215   1.013   2.010 -1.8123 -0.4811 -0.6194
  185SOL     MW  740   1.167   0.944   1.993  0.7680 -0.0114  0.4396
  186SOL     OW  741   0.405   1.675   1.411  0.4085 -0.2733  0.3267
  186SOL    HW1  742   0.479   1.700   1.360  0.3165 -2.0537  0.8216
  186SOL    HW2  743   0.351   1.622   1.356 -0.6578  2.4065 -0.6768
  186SOL     MW  744   0.407   1.671   1.397  0.2557 -0.1547  0.2596
  187SOL     OW  745   1.485   0.726   1.461 -0.3228  0.4105  0.7582
  187SOL    HW1  746   1.476   0.721   1.559 -0.4036 -1.2604  0.1751
  187SOL    HW2  747   1.395   0.709   1.427  0.2852  1.4069 -1.1194
  187SOL     MW  748   1.472   0.723   1.469 -0.2533  0.3215  0.4336
  188SOL     OW  749   1.917   1.041   0.712 -0.4270  0.0904  0.2101
  188SOL    HW1  750   1.870   0.969   0.763 -0.8650  0.3432  2.1541
  188SOL    HW2  751   2.006   1.037   0.741 -2.9270 -2.6572 -0.2088
  188SOL     MW  752   1.922   1.031   0.723 -0.8146 -0.2388  0.4113
  189SOL     OW  753   0.673   0.806   0.800  0.1781  1.0703  0.2816
  189SOL    HW1  754   0.587   0.842   0.804 -2.5562  0.2196  0.4647
  189SOL    HW2  755   0.733   0.850   0.855 -0.0553  0.7030 -2.0905
  189SOL     MW  756   0.670   0.816   0.808 -0.2134  0.9096 -0.0072
  190SOL     OW  757   1.856   0.255   1.993  0.2244 -0.3304  0.5401
  190SOL    HW1  758   1.822   0.165   1.999 -0.0169  2.4609 -0.4550
  190SOL    HW2  759   1.940   0.256   1.955 -2.1307 -2.6559  0.7132
  190SOL     MW  760   1.862   0.243   1.989 -0.1182 -0.2690  0.4317
  191SOL     OW  761   1.548   0.968   1.322 -0.9664  0.5587 -0.2051
  191SOL    HW1  762   1.473   1.017   1.361 -2.0547  0.5014  1.6534
  191SOL    HW2  763   1.549   0.881   1.360  0.1182  0.7196 -0.7875
  191SOL     MW  764   1.538   0.963   1.332 -0.9669  0.5723 -0.0367
  192SOL     OW  765   0.708   1.981   2.817 -0.2989  0.2162  0.3612
  192SOL    HW1  766   0.654   2.032   2.750  1.1871  1.6056  2.8453
  192SOL    HW2  767   0.656   1.900   2.830 -1.3120  1.2372 -0.7543
  192SOL     MW  768   0.694   1.977   2.810 -0.2365  0.5342  0.5418
  193SOL     OW  769   0.976   1.638   0.752 -0.4289  0.5027  0.7158
  193SOL    HW1  770   0.935   1.676   0.824 -1.5043 -0.6343  0.1140
  193SOL    HW2  771   0.913   1.568   0.726 -1.7373  0.0028  1.5780
  193SOL     MW  772   0.962   1.634   0.758 -0.7434  0.2867  0.7502
  194SOL     OW  773   0.463   1.299   0.928  0.0111 -0.2115 -0.2148
  194SOL    HW1  774   0.468   1.201   0.922 -1.0429  0.5488  2.3637
  194SOL    HW2  775   0.384   1.322   0.880 -3.1157  0.1307 -1.1689
  194SOL     MW  776   0.453   1.289   0.921 -0.5405 -0.0660 -0.0005
  195SOL     OW  777   1.285   1.117   2.992  0.2301 -0.4725 -0.3610
  195SOL    HW1  778   1.307   1.159   3.075  0.9715  2.3896  0.5841
  195SOL    HW2  779   1.206   1.065   3.005  1.6457 -2.4755 -0.8919
  195SOL     MW  780   1.278   1.115   3.005  0.5147 -0.3591 -0.3063
  196SOL     OW  781   2.192   1.078   0.638 -0.0036 -0.4482 -0.5728
  196SOL    HW1  782   2.129   1.038   0.578  1.2901  1.4582 -1.7479
  196SOL    HW2  783   2.183   1.166   0.606 -0.1402 -1.4198 -2.1084
  196SOL     MW  784   2.183   1.085   0.626  0.1491 -0.3249 -0.9304
  197SOL     OW  785   0.597   1.259   2.015  0.2962 -0.0049  0.4052
  197SOL    HW1  786   0.600   1.163   1.993 -0.5423  2.9089 -0.6738
  197SOL    HW2  787   0.567   1.303   1.939  1.4059 -0.2449  4.1722
  197SOL     MW  788   0.594   1.252   2.002  0.3320  0.3479  0.7599
  198SOL     OW  789   2.935   1.461   0.998  0.4020  0.7595  0.1919
  198SOL    HW1  790   2.918   1.552   0.958 -0.8061  3.6412 -0.9264
  198SOL    HW2  791   2.848   1.416   1.014  0.5973  1.2502  0.8698
  198SOL     MW  792   2.921   1.467   0.995  0.2683  1.2044  0.1338
  199SOL     OW  793   0.495   1.297   1.756  0.1078  0.0943  0.0132
  199SOL    HW1  794   0.403   1.310   1.775  3.1601  0.8794 -0.5072
  199SOL    HW2  795   0.520   1.374   1.697 -1.0970  1.0418 -1.4966
  199SOL     MW  796   0.486   1.309   1.751  0.3516  0.3229 -0.2546
  200SOL     OW  797   1.897   0.006   1.340 -0.2465 -0.1782 -0.5395
  200SOL    HW1  798   1.898  -0.016   1.249  1.0908  0.5778  1.3160
  200SOL    HW2  799   1.800   0.004   1.360  0.1046 -3.4106 -3.1867
  200SOL     MW  800   1.884   0.003   1.331 -0.0238 -0.5049 -0.6439
  201SOL     OW  801   1.089   0.302   0.822 -0.4078  0.1610  0.1551
  201SOL    HW1  802   1.103   0.211   0.826 -2.5036  0.0694 -1.5260
  201SOL    HW2  803   1.095   0.318   0.733  2.3525 -1.8640 -0.0079
  201SOL     MW  804   1.092   0.292   0.811 -0.3201 -0.1183 -0.0882
  202SOL     OW  805   1.538   1.660   1.032 -0.0841  0.1924  0.3780
  202SOL    HW1  806   1.589   1.594   0.977 -2.2727 -0.8015  0.3084
  202SOL    HW2  807   1.546   1.624   1.123 -0.7516  0.7547  1.3172
  202SOL     MW  808   1.546   1.647   1.037 -0.4609  0.1354  0.4928
  203SOL     OW  809   0.001   0.481   1.182  0.0053  0.0465 -0.0454
  203SOL    HW1  810   0.070   0.443   1.125 -0.4876  1.2379  1.9351
  203SOL    HW2  811   0.056   0.540   1.241 -0.1827 -0.1438 -0.6907
  203SOL     MW  812   0.018   0.483   1.183 -0.0845  0.1786  0.1308
  204SOL     OW  813   1.059   1.757   0.521 -0.1922  0.8073 -0.0326
  204SOL    HW1  814   1.016   1.717   0.599  0.2163 -0.4842 -2.3230
  204SOL    HW2  815   0.999   1.763   0.447  0.1421 -1.8017  0.6931
  204SOL     MW  816   1.045   1.753   0.522 -0.0942  0.2927 -0.2391
  205SOL     OW  817   1.369   0.107   1.338 -0.4008  0.1470 -0.2985
  205SOL    HW1  818   1.329   0.083   1.258 -1.0347  0.0954  1.3006
  205SOL    HW2  819   1.409   0.194   1.324 -1.7220  0.9739  0.4452
  205SOL     MW  820   1.369   0.115   1.325 -0.6588  0.2493  0.0106
  206SOL     OW  821   0.429   3.086   1.415 -0.5631  0.2904 -0.1159
  206SOL    HW1  822   0.377   3.085   1.338  3.0621  1.1263  1.4255
  206SOL    HW2  823   0.481   3.010   1.396 -1.3617  0.3256 -0.0818
  206SOL     MW  824   0.429   3.076   1.403 -0.1901  0.4053  0.0920
  207SOL     OW  825   0.943   1.510   0.230 -0.3649 -0.3646 -0.3331
  207SOL    HW1  826   0.933   1.604   0.214  0.2665 -0.6633 -1.8496
  207SOL    HW2  827   1.014   1.509   0.301 -0.7375 -0.6770 -2.3284
  207SOL     MW  828   0.951   1.522   0.237 -0.3308 -0.4452 -0.7964
  208SOL     OW  829   0.685   1.587   1.230  0.0443  0.5357  0.4820
  208SOL    HW1  830   0.746   1.596   1.300  2.3176  0.0692  1.7462
  208SOL    HW2  831   0.654   1.498   1.243 -0.5322  1.0653  0.1989
  208SOL     MW  832   0.689   1.576   1.241  0.2682  0.5440  0.6115
  209SOL     OW  833   1.546   0.545   2.816  0.6305 -0.5793 -0.0837
  209SOL    HW1  834   1.581   0.596   2.887 -0.3405 -1.6051  2.3328
  209SOL    HW2  835   1.593   0.465   2.813 -1.2427  3.7327 -1.8090
  209SOL     MW  836   1.556   0.541   2.825  0.2552 -0.1457  0.0075
  210SOL     OW  837   1.605   1.457   0.874  0.2842 -0.0530  0.1876
  210SOL    HW1  838   1.684   1.402   0.855  1.1947  1.9746  0.6163
  210SOL    HW2  839   1.545   1.448   0.800 -2.2269  1.1979 -0.6191
  210SOL     MW  840   1.608   1.449   0.861  0.0730  0.3796  0.1378
  211SOL     OW  841   1.729   0.464   0.931 -0.2331 -0.7694 -0.2334
  211SOL    HW1  842   1.718   0.448   0.841  1.3060  0.6081  1.8939
  211SOL    HW2  843   1.821   0.476   0.942  0.2139  3.9341  0.9489
  211SOL     MW  844   1.740   0.463   0.921  0.0289  0.0329  0.2032
  212SOL     OW  845   0.233   1.127   0.085 -0.2570  0.5026  0.0629
  212SOL    HW1  846   0.204   1.065   0.155 -0.4749 -0.7665 -0.7377
  212SOL    HW2  847   0.323   1.098   0.064 -0.4739  1.0416 -0.2303
  212SOL     MW  848   0.241   1.115   0.091 -0.3144  0.4063 -0.0814
  213SOL     OW  849   0.403   1.720   3.068 -0.8358  1.0407 -0.3852
  213SOL    HW1  850   0.451   1.772   3.132 -1.9354 -0.2000  0.3901
  213SOL    HW2  851   0.435   1.752   2.985 -0.5064  1.5760 -0.6060
  213SOL     MW  852   0.413   1.731   3.065 -0.9374  0.9476 -0.3120
  214SOL     OW  853   0.652   0.253   2.252 -0.3336  0.5541 -0.0898
  214SOL    HW1  854   0.589   0.310   2.206  1.4897  3.5417 -4.3029
  214SOL    HW2  855   0.726   0.250   2.191 -2.8418 -0.9389  0.9096
  214SOL     MW  856   0.653   0.260   2.238 -0.4240  0.7513 -0.5139
  215SOL     OW  857   0.474   0.729   2.613 -0.3215 -0.3430 -0.0367
  215SOL    HW1  858   0.456   0.710   2.518 -0.5767  0.6993  0.7132
  215SOL    HW2  859   0.407   0.676   2.667 -2.0937 -3.9316 -2.5166
  215SOL     MW  860   0.463   0.719   2.607 -0.5890 -0.6789 -0.2650
  216SOL     OW  861   3.076   3.029   2.691 -0.7394  0.3688 -0.4152
  216SOL    HW1  862   3.017   3.026   2.769 -0.8491 -1.4328 -0.5102
  216SOL    HW2  863   3.068   3.101   2.630  1.4966 -1.1619 -0.0132
  216SOL     MW  864   3.067   3.038   2.693 -0.4589 -0.0709 -0.3747
  217SOL     OW  865   0.956   1.261   0.025  0.3514  0.4196 -0.2348
  217SOL    HW1  866   0.981   1.170   0.006  0.8670  0.8359 -0.3380
  217SOL    HW2  867   1.029   1.305  -0.019 -1.0285  1.3007  4.1289
  217SOL     MW  868   0.969   1.255   0.017  0.2374  0.5907  0.3273
  218SOL     OW  869   0.935   1.297   2.556  0.1384  0.3925  0.0056
  218SOL    HW1  870   0.948   1.205   2.592 -0.4324  0.5763  0.1712
  218SOL    HW2  871   0.990   1.365   2.587 -3.2956 -2.0997  2.3517
  218SOL     MW  872   0.944   1.294   2.565 -0.3900  0.0879  0.3370
  219SOL     OW  873   1.048   0.449   2.521  0.2730 -0.0042 -0.0200
  219SOL    HW1  874   1.114   0.483   2.465 -0.8254  1.5536  1.1610
  219SOL    HW2  875   0.997   0.530   2.537 -0.3898  2.1334  1.3866
  219SOL     MW  876   1.050   0.464   2.516  0.0406  0.4834  0.3214
  220SOL     OW  877   1.768   0.446   2.171  0.6728 -0.2103 -0.2058
  220SOL    HW1  878   1.690   0.496   2.137 -0.8005 -1.3617 -0.0898
  220SOL    HW2  879   1.797   0.379   2.112  3.1956 -1.6503  3.2435
  220SOL     MW  880   1.762   0.444   2.158  0.8113 -0.5522  0.2646
  221SOL     OW  881   0.387   1.325   2.898 -0.4596  0.1339  0.0954
  221SOL    HW1  882   0.397   1.231   2.880 -0.2412 -0.9413 -0.4830
  221SOL    HW2  883   0.395   1.386   2.825 -0.8913 -0.5289  1.5053
  221SOL     MW  884   0.389   1.320   2.886 -0.4878 -0.0954  0.2051
  222SOL     OW  885   0.293   0.924   2.641 -0.4130 -0.9040 -0.0426
  222SOL    HW1  886   0.283   0.962   2.557  0.1788  1.9872 -0.4600
  222SOL    HW2  887   0.368   0.862   2.634 -2.4711  0.1688  1.0209
  222SOL     MW  888   0.302   0.921   2.629 -0.6065 -0.3810  0.0426
  223SOL     OW  889   0.007   2.015   2.601  0.5931  1.0157  0.0159
  223SOL    HW1  890   0.065   1.945   2.634  3.2038 -3.4711  1.0431
  223SOL    HW2  891   0.068   2.069   2.559  0.6926  1.0772 -2.2512
  223SOL     MW  892   0.022   2.013   2.600  0.9507  0.4319 -0.1477
  224SOL     OW  893   1.463   0.833   2.583  0.1062 -0.4582  0.1266
  224SOL    HW1  894   1.462   0.844   2.680  2.0948 -1.0000 -0.1772
  224SOL    HW2  895   1.491   0.921   2.555 -2.5286  2.0524 -1.7510
  224SOL     MW  896   1.467   0.846   2.592  0.0210 -0.1984 -0.1612
  225SOL     OW  897   2.984   1.499   2.263  0.0989  0.2418  0.0946
  225SOL    HW1  898   3.012   1.550   2.187  2.6041  1.8446  3.1773
  225SOL    HW2  899   2.928   1.555   2.314  0.1732 -0.3723  0.3575
  225SOL     MW  900   2.980   1.513   2.259  0.4392  0.3722  0.5360
  226SOL     OW  901   0.397   1.442   2.617  0.5063  0.1888 -0.2107
  226SOL    HW1  902   0.492   1.428   2.613 -0.9168 -3.0023 -1.5615
  226SOL    HW2  903   0.389   1.540   2.606 -1.5978  0.6542 -2.9553
  226SOL     MW  904   0.408   1.453   2.615  0.0410 -0.1708 -0.7510
  227SOL     OW  905   0.437   1.071   2.830  0.0380 -0.5058 -0.3636
  227SOL    HW1  906   0.521   1.091   2.796 -2.9834 -1.7444 -0.1931
  227SOL    HW2  907   0.379   1.032   2.756 -1.6739  2.2048 -1.8760
  227SOL     MW  908   0.441   1.069   2.816 -0.5865 -0.3116 -0.5406
  228SOL     OW  909   0.667   0.973   2.008 -0.6076  0.1107 -0.5885
  228SOL    HW1  910   0.758   0.998   1.994 -0.4115 -0.7094 -0.3962
  228SOL    HW2  911   0.659   0.941   2.105 -1.8463 -0.7527 -1.0040
  228SOL     MW  912   0.678   0.972   2.019 -0.7452 -0.1115 -0.6180
  229SOL     OW  913   0.182   0.526   3.094 -0.2023 -0.4193  0.6768
  229SOL    HW1  914   0.095   0.530   3.062  0.8150  0.5045 -2.6115
  229SOL    HW2  915   0.183   0.462   3.162 -1.4009  2.2396 -0.9877
  229SOL     MW  916   0.170   0.518   3.099 -0.2263  0.0534  0.0234
  230SOL     OW  917   1.772   1.370   2.045  0.0086 -0.2697 -0.4349
  230SOL    HW1  918   1.732   1.370   2.136 -1.9375  1.5741  0.9805
  230SOL    HW2  919   1.831   1.298   2.027  2.2956  0.1762 -1.2235
  230SOL     MW  920   1.774   1.361   2.054  0.0536  0.0324 -0.3522
  231SOL     OW  921   2.758   1.310   2.193  0.3167  0.5525 -0.0812
  231SOL    HW1  922   2.840   1.367   2.193  0.9959 -2.1645  2.6661
  231SOL    HW2  923   2.691   1.343   2.132  0.5127 -1.8660 -0.2136
  231SOL     MW  924   2.760   1.322   2.185  0.4321 -0.1251  0.2638
  232SOL     OW  925   2.270   0.865   2.124 -0.0534 -0.1075  0.7145
  232SOL    HW1  926   2.233   0.913   2.049  1.2454 -1.5322 -1.4151
  232SOL    HW2  927   2.212   0.862   2.201  0.3548 -1.6541 -0.4494
  232SOL     MW  928   2.258   0.871   2.124  0.1718 -0.4995  0.2799
  233SOL     OW  929   2.049   0.527   1.939  0.2572 -0.3215  0.2528
  233SOL    HW1  930   2.088   0.561   1.856 -4.1040 -0.8992 -0.1169
  233SOL    HW2  931   2.130   0.512   1.987 -1.3467 -1.4294  1.8911
  233SOL     MW  932   2.065   0.530   1.934 -0.5299 -0.5439  0.4202
  234SOL     OW  933   0.262   1.016   2.341  0.0003  0.1511  0.5997
  234SOL    HW1  934   0.165   1.041   2.340  0.5174 -0.8718  1.5056
  234SOL    HW2  935   0.300   1.099   2.360 -1.0103  0.8613  1.7896
  234SOL     MW  936   0.254   1.030   2.344 -0.0648  0.1098  0.8762
  235SOL     OW  937   1.071   3.060   2.749  0.4161  0.1295 -0.3504
  235SOL    HW1  938   1.082   2.995   2.817  1.1145  1.1071 -0.8506
  235SOL    HW2  939   1.052   3.146   2.794  0.5352  0.0174 -1.9966
  235SOL     MW  940   1.070   3.063   2.764  0.5240  0.2437 -0.6336
  236SOL     OW  941   2.940   0.547   0.026  0.2789  0.0268 -0.3762
  236SOL    HW1  942   2.850   0.538  -0.017 -1.0584  0.8824  0.7190
  236SOL    HW2  943   2.956   0.630   0.071  0.8926  0.9307  0.2336
  236SOL     MW  944   2.930   0.557   0.026  0.1835  0.2589 -0.1512
  237SOL     OW  945   1.768   0.938   2.148  1.2801  0.7575 -0.1479
  237SOL    HW1  946   1.776   1.021   2.099 -1.7714  2.4490  1.2791
  237SOL    HW2  947   1.775   0.953   2.239 -1.3861  1.9493 -0.8695
  237SOL     MW  948   1.770   0.951   2.153  0.5257  1.1379 -0.0549
  238SOL     OW  949   1.071   1.743   2.968  0.1213  0.4887  0.2033
  238SOL    HW1  950   1.014   1.666   2.950 -0.3766  1.0331  0.2517
  238SOL    HW2  951   1.163   1.712   2.957 -0.8306 -1.4754  0.4026
  238SOL     MW  952   1.076   1.729   2.964 -0.0700  0.3014  0.2360
  239SOL     OW  953   1.190   1.444   2.318  0.4057  0.1721  0.2838
  239SOL    HW1  954   1.165   1.466   2.407 -0.9950 -0.6029 -2.0503
  239SOL    HW2  955   1.125   1.376   2.304  0.5793 -1.8620  1.5952
  239SOL     MW  956   1.178   1.438   2.328  0.2438 -0.1986  0.1489
  240SOL     OW  957   0.633   0.883   2.258  0.5904  0.4710  0.1910
  240SOL    HW1  958   0.642   0.951   2.331  4.0534  0.3997  2.9917
  240SOL    HW2  959   0.730   0.862   2.248  3.3189  0.9354 -0.6099
  240SOL     MW  960   0.647   0.890   2.266  1.4073  0.5229  0.4549
  241SOL     OW  961   0.626   0.332   3.032 -0.5300  0.0456  0.3066
  241SOL    HW1  962   0.642   0.374   3.118  1.3045 -1.1516  2.5820
  241SOL    HW2  963   0.548   0.380   2.997  0.1245  0.1608 -1.6829
  241SOL     MW  964   0.618   0.344   3.038 -0.2016 -0.0971  0.3443
  242SOL     OW  965   1.496   1.771   2.286  0.3083 -0.1831 -0.6664
  242SOL    HW1  966   1.440   1.830   2.335  0.9992 -0.0360  2.1572
  242SOL    HW2  967   1.430   1.719   2.241 -0.7242  0.7440  0.1724
  242SOL     MW  968   1.480   1.772   2.287  0.2633 -0.0413 -0.1832
  243SOL     OW  969   0.946   0.214   2.339  0.0138  0.0487  0.4170
  243SOL    HW1  970   1.043   0.221   2.344  3.3895  0.0337 -1.6473
  243SOL    HW2  971   0.922   0.243   2.432  0.0972  0.8801  1.0080
  243SOL     MW  972   0.955   0.219   2.352  0.4702  0.1564  0.2226
  244SOL     OW  973   0.216   0.711   2.323  0.1883 -0.5528  0.3354
  244SOL    HW1  974   0.231   0.796   2.292  0.9621  0.9108  1.3278
  244SOL    HW2  975   0.305   0.677   2.338 -2.3308  0.8387  4.3633
  244SOL     MW  976   0.230   0.718   2.321 -0.0420 -0.1761  0.9978
  245SOL     OW  977   1.240   0.240   2.350  0.4556 -0.0970  0.1593
  245SOL    HW1  978   1.292   0.162   2.346  0.1908  0.6517  0.7357
  245SOL    HW2  979   1.274   0.290   2.425  1.1993 -0.4682 -1.2052
  245SOL     MW  980   1.251   0.236   2.359  0.5188 -0.0472  0.0553
  246SOL     OW  981   1.268   1.176   2.084  0.4315  0.0304  0.0846
  246SOL    HW1  982   1.192   1.154   2.137  0.7997 -2.1118  1.8619
  246SOL    HW2  983   1.338   1.177   2.149 -2.4122  1.9659 -0.6404
  246SOL     MW  984   1.267   1.173   2.099  0.1049  0.0032  0.2234
  247SOL     OW  985   0.688   0.501   0.133 -0.1036  0.2400  0.5131
  247SOL    HW1  986   0.663   0.593   0.112 -0.4920  0.5836 -1.6450
  247SOL    HW2  987   0.782   0.490   0.111  0.5382  3.3268  0.3397
  247SOL     MW  988   0.697   0.511   0.128 -0.0702  0.6926  0.2055
  248SOL     OW  989   0.451   1.190   2.478  0.4498  0.4436 -0.4952
  248SOL    HW1  990   0.458   1.235   2.387  3.1408  3.4649 -1.8114
  248SOL    HW2  991   0.441   1.261   2.537  0.6951 -1.2205 -2.4500
  248SOL     MW  992   0.450   1.206   2.473  0.8372  0.6227 -0.9267
  249SOL     OW  993   0.193   1.853   2.713  0.2198  0.1118  0.0185
  249SOL    HW1  994   0.144   1.771   2.707 -0.7592 -0.5270 -2.3081
  249SOL    HW2  995   0.198   1.858   2.809 -0.2416  0.4607 -0.2788
  249SOL     MW  996   0.187   1.843   2.725  0.0297  0.0735 -0.3277
  250SOL     OW  997   2.138   0.858   2.374 -0.5047 -0.0246 -0.0866
  250SOL    HW1  998   2.203   0.799   2.404  2.3257 -0.8275  1.2148
  250SOL    HW2  999   2.177   0.934   2.417 -0.8198 -1.4773 -1.1905
  250SOL     MW 1000   2.152   0.860   2.384 -0.1728 -0.3222 -0.0605
  251SOL     OW 1001   0.224   0.803   2.048  0.2360  0.3435  0.3921
  251SOL    HW1 1002   0.215   0.720   2.095  0.6025  3.2236  0.1223
  251SOL    HW2 1003   0.222   0.773   1.953  0.6158 -1.1720 -0.0932
  251SOL     MW 1004   0.223   0.788   2.042  0.3345  0.5235  0.2925
  252SOL     OW 1005   1.694   1.002   2.858 -0.0263  0.4527  0.3482
  252SOL    HW1 1006   1.687   1.068   2.931 -2.3895 -0.4882 -0.2867
  252SOL    HW2 1007   1.736   1.045   2.780  0.0426  2.4281 -0.4994
  252SOL     MW 1008   1.699   1.016   2.858 -0.3290  0.5892  0.1526
  253SOL     OW 1009   1.155   1.732   2.527  0.0714 -0.3033  0.0750
  253SOL    HW1 1010   1.142   1.760   2.428 -0.4088  2.1991  0.1917
  253SOL    HW2 1011   1.072   1.771   2.572  1.4177  0.5588  1.7491
  253SOL     MW 1012   1.143   1.741   2.519  0.1857  0.1406  0.3113
  254SOL     OW 1013   1.033   1.085   2.227 -0.5924 -0.0098  0.1165
  254SOL    HW1 1014   0.988   1.004   2.213 -0.2954 -1.1725 -2.4657
  254SOL    HW2 1015   0.964   1.145   2.249 -0.6154  0.5241  1.6937
  254SOL     MW 1016   1.018   1.082   2.228 -0.5563 -0.0928 -0.0161
  255SOL     OW 1017   0.839   2.429   2.192  0.0846  0.1066 -0.6337
  255SOL    HW1 1018   0.750   2.394   2.197 -2.6255  2.3370  3.7198
  255SOL    HW2 1019   0.867   2.435   2.285  0.0068  0.1095 -1.6547
  255SOL     MW 1020   0.831   2.425   2.205 -0.2833  0.4013 -0.1940
  256SOL     OW 1021   1.163   2.826   2.882  0.0080  0.1464  0.7635
  256SOL    HW1 1022   1.133   2.734   2.864 -1.7091  1.0079 -2.8855
  256SOL    HW2 1023   1.263   2.835   2.866  2.2969  1.9979 -2.2034
  256SOL     MW 1024   1.173   2.815   2.878  0.0834  0.5044 -0.1094
  257SOL     OW 1025   0.167   1.903   0.091  0.1688  0.0951  0.3383
  257SOL    HW1 1026   0.195   1.845   0.159 -0.5365 -1.6167 -3.4950
  257SOL    HW2 1027   0.166   1.849   0.010  0.9932  1.5905  2.5730
  257SOL     MW 1028   0.170   1.888   0.090  0.1845  0.0665  0.1274
  258SOL     OW 1029   0.714   1.068   2.482 -0.0992 -0.9820 -0.2452
  258SOL    HW1 1030   0.739   1.130   2.406 -2.0120  1.9388 -2.5919
  258SOL    HW2 1031   0.621   1.095   2.502  1.5656 -1.2264 -2.5515
  258SOL     MW 1032   0.705   1.080   2.475 -0.1320 -0.6289 -0.8591
  259SOL     OW 1033   0.740   0.508   2.386  0.8835  0.4881  0.1520
  259SOL    HW1 1034   0.667   0.567   2.364  0.6614 -3.2066 -4.1304
  259SOL    HW2 1035   0.722   0.427   2.336 -0.8113  0.0245 -0.4888
  259SOL     MW 1036   0.728   0.505   2.377  0.6306 -0.0606 -0.4976
  260SOL     OW 1037   0.601   0.120   1.572 -0.4576  0.0917 -0.0476
  260SOL    HW1 1038   0.548   0.077   1.504  0.3612 -0.0164  1.2097
  260SOL    HW2 1039   0.696   0.111   1.548  0.4699  2.3340  0.8263
  260SOL     MW 1040   0.606   0.113   1.560 -0.2272  0.3733  0.2336
  261SOL     OW 1041   1.184   0.681   2.079  0.1162  0.1274 -0.0834
  261SOL    HW1 1042   1.224   0.670   2.164  1.5523 -1.0295 -0.9560
  261SOL    HW2 1043   1.246   0.629   2.023  0.4274 -1.7615  0.0029
  261SOL     MW 1044   1.198   0.673   2.083  0.3468 -0.2744 -0.1872
  262SOL     OW 1045   1.157   0.314   0.095 -0.1220 -0.4054 -0.0917
  262SOL    HW1 1046   1.248   0.283   0.081  2.2111  1.6682 -0.1866
  262SOL    HW2 1047   1.094   0.246   0.077  2.6481  1.1367  0.2379
  262SOL     MW 1048   1.161   0.301   0.091  0.5513  0.0717 -0.0607
  263SOL     OW 1049   0.464   3.042   2.498 -0.1346  0.4539 -0.5367
  263SOL    HW1 1050   0.374   3.075   2.485 -1.6217 -0.8091 -0.3397
  263SOL    HW2 1051   0.490   3.031   2.404  0.2381 -2.5399 -1.8755
  263SOL     MW 1052   0.455   3.045   2.484 -0.2816 -0.1078 -0.6873
  264SOL     OW 1053   1.537   1.305   1.911 -0.1793 -0.1212  0.1394
  264SOL    HW1 1054   1.473   1.256   1.963  0.5084  1.1598  0.5947
  264SOL    HW2 1055   1.615   1.310   1.969 -1.2721  0.1822 -0.1230
  264SOL     MW 1056   1.539   1.300   1.925 -0.2328  0.0878  0.1649
  265SOL     OW 1057   0.660   2.675   2.263 -0.2519  0.7739 -0.3115
  265SOL    HW1 1058   0.712   2.607   2.220 -1.7147  1.9189  2.1756
  265SOL    HW2 1059   0.688   2.680   2.350  0.9859 -0.3869 -3.7713
  265SOL     MW 1060   0.671   2.667   2.269 -0.2816  0.7718 -0.4399
  266SOL     OW 1061   0.905   0.801   2.206  0.4134  0.2490 -0.3517
  266SOL    HW1 1062   0.921   0.763   2.120 -0.2201  1.0590  2.2744
  266SOL    HW2 1063   0.989   0.772   2.252  0.9030 -0.7538  1.1795
  266SOL     MW 1064   0.918   0.792   2.201  0.3944  0.2235  0.1968
  267SOL     OW 1065   1.380   1.721   2.694 -0.5542 -0.5354  0.3863
  267SOL    HW1 1066   1.451   1.720   2.627  2.8402 -1.0756  0.9205
  267SOL    HW2 1067   1.314   1.754   2.630 -0.4305  0.4711 -0.3058
  267SOL     MW 1068   1.380   1.725   2.677 -0.0900 -0.4739  0.3655
  268SOL     OW 1069   0.237   0.744   1.767  0.4864 -0.1137  0.7100
  268SOL    HW1 1070   0.180   0.805   1.718  1.2182  1.6401 -3.2002
  268SOL    HW2 1071   0.266   0.670   1.707 -2.6851  1.0175 -0.5218
  268SOL     MW 1072   0.233   0.743   1.753  0.1645  0.2669  0.0316
  269SOL     OW 1073   1.358   1.927   2.455  0.2981 -0.5262 -0.5453
  269SOL    HW1 1074   1.403   2.011   2.470 -0.2218 -1.4513 -1.4668
  269SOL    HW2 1075   1.266   1.925   2.498 -1.7106 -1.1850  2.7965
  269SOL     MW 1076   1.352   1.938   2.463 -0.0355 -0.7352 -0.2260
  270SOL     OW 1077   1.168   0.383   1.601 -0.1745 -0.5036  0.2780
  270SOL    HW1 1078   1.138   0.300   1.634  0.0703 -0.5556 -1.2749
  270SOL    HW2 1079   1.259   0.382   1.611 -1.4004  0.4245 -1.7384
  270SOL     MW 1080   1.176   0.372   1.607 -0.3039 -0.3880 -0.1929
  271SOL     OW 1081   0.827   3.026   2.387  0.0782  0.2622 -0.2425
  271SOL    HW1 1082   0.899   2.986   2.441  2.4029 -1.6472  0.4090
  271SOL    HW2 1083   0.863   3.111   2.363 -0.3983  2.2046 -0.1434
  271SOL     MW 1084   0.841   3.032   2.391  0.3221  0.2666 -0.1435
  272SOL     OW 1085   1.418   2.871   2.812  0.5473 -0.7032 -0.3382
  272SOL    HW1 1086   1.389   2.920   2.738  1.2847  2.9378 -3.0215
  272SOL    HW2 1087   1.440   2.939   2.879  1.4185 -2.0589  1.4664
  272SOL     MW 1088   1.417   2.886   2.811  0.7595 -0.4017 -0.4541
  273SOL     OW 1089   1.436   0.901   2.863 -0.3521 -0.8820  0.0461
  273SOL    HW1 1090   1.521   0.929   2.854 -1.7655  1.7832  1.3829
  273SOL    HW2 1091   1.394   0.981   2.893 -0.6167  0.0395 -0.1284
  273SOL     MW 1092   1.441   0.915   2.866 -0.5735 -0.4088  0.1994
  274SOL     OW 1093   1.353   0.753   0.222  0.2385  0.0526  0.2847
  274SOL    HW1 1094   1.393   0.671   0.244  0.7015  0.0267  1.5041
  274SOL    HW2 1095   1.261   0.739   0.240  1.1118  1.6754  0.5576
  274SOL     MW 1096   1.346   0.740   0.227  0.4148  0.2633  0.4816
  275SOL     OW 1097   1.695   0.656   1.823  0.5661  0.3874 -0.1918
  275SOL    HW1 1098   1.769   0.682   1.880 -1.3139  1.9489 -1.8831
  275SOL    HW2 1099   1.678   0.564   1.849  2.4318  0.2301 -2.0362
  275SOL     MW 1100   1.703   0.647   1.834  0.5642  0.5727 -0.6583
  276SOL     OW 1101   0.221   1.246   1.797 -0.6997  0.3174 -0.0491
  276SOL    HW1 1102   0.253   1.187   1.869 -2.5470  2.0024  1.6228
  276SOL    HW2 1103   0.171   1.316   1.845  1.4460  1.2472 -0.3556
  276SOL     MW 1104   0.218   1.247   1.813 -0.6603  0.6624  0.1310
  277SOL     OW 1105   1.937   1.348   2.601 -0.5613  0.6108 -0.6044
  277SOL    HW1 1106   2.021   1.384   2.589 -0.2126 -3.7772 -0.2573
  277SOL    HW2 1107   1.952   1.265   2.641 -0.3889 -0.3426  1.4234
  277SOL     MW 1108   1.950   1.342   2.605 -0.4925 -0.0939 -0.2911
  278SOL     OW 1109   1.447   0.725   1.747 -0.7038 -0.0418 -0.0039
  278SOL    HW1 1110   1.417   0.667   1.816 -2.0314 -0.2027 -0.3381
  278SOL    HW2 1111   1.539   0.739   1.771 -0.3369 -0.7645 -2.1303
  278SOL     MW 1112   1.455   0.719   1.759 -0.8306 -0.1584 -0.3286
  279SOL     OW 1113   0.534   3.093   2.236  0.5020 -0.0247  0.5054
  279SOL    HW1 1114   0.592   3.025   2.195 -1.0393 -2.8077 -0.5590
  279SOL    HW2 1115   0.588   3.172   2.248  0.0583  1.2892  0.8720
  279SOL     MW 1116   0.549   3.095   2.232  0.2401 -0.2185  0.4134
  280SOL     OW 1117   1.513   1.132   2.230 -0.1368  0.0991 -0.8104
  280SOL    HW1 1118   1.508   1.051   2.179  0.8908 -1.2769  0.6186
  280SOL    HW2 1119   1.518   1.109   2.319 -0.1111  0.6261  0.3097
  280SOL     MW 1120   1.513   1.118   2.235  0.0022 -0.0129 -0.4740
  281SOL     OW 1121   1.280   1.337   2.819 -0.6965 -0.0992  0.2386
  281SOL    HW1 1122   1.367   1.379   2.807 -0.9723 -0.6123 -2.7885
  281SOL    HW2 1123   1.307   1.247   2.847  0.1116 -1.9063 -3.0161
  281SOL     MW 1124   1.295   1.330   2.821 -0.6263 -0.4053 -0.5902
  282SOL     OW 1125   1.138   1.292   1.702 -0.0004  0.2177 -0.1358
  282SOL    HW1 1126   1.133   1.352   1.623  1.2172 -2.4769  0.2738
  282SOL    HW2 1127   1.077   1.222   1.682  0.6146 -0.4017  2.5710
  282SOL     MW 1128   1.129   1.290   1.689  0.2414 -0.2196  0.2754
  283SOL     OW 1129   0.685   1.263   3.092 -0.1114 -0.2532  0.3224
  283SOL    HW1 1130   0.771   1.265   3.130  0.5141  0.9016  1.2098
  283SOL    HW2 1131   0.648   1.339   3.129  2.9734 -1.7842 -0.1795
  283SOL     MW 1132   0.691   1.273   3.102  0.3781 -0.3028  0.3733
  284SOL     OW 1133   0.497   0.667   2.329  0.1764 -0.5291 -0.2302
  284SOL    HW1 1134   0.535   0.744   2.281 -3.3345  2.0169  1.8886
  284SOL    HW2 1135   0.490   0.585   2.269 -1.1827 -1.2586  0.7951
  284SOL     MW 1136   0.501   0.666   2.315 -0.4661 -0.2894  0.1846
  285SOL     OW 1137   0.812   0.947   2.840 -0.4371 -0.7368 -0.2224
  285SOL    HW1 1138   0.860   0.973   2.756  1.2544 -4.6505 -2.5939
  285SOL    HW2 1139   0.761   0.879   2.802 -0.2016  0.8025  0.7310
  285SOL     MW 1140   0.812   0.941   2.824 -0.1828 -1.0501 -0.4095
  286SOL     OW 1141   1.133   1.464   2.608 -0.0218  0.0231  0.4583
  286SOL    HW1 1142   1.181   1.441   2.689  2.9091 -1.6459  1.5260
  286SOL    HW2 1143   1.152   1.561   2.596 -1.9081 -0.1748  0.0013
  286SOL     MW 1144   1.142   1.473   2.617  0.1160 -0.2232  0.5389
  287SOL     OW 1145   1.005   0.909   0.336 -0.1970 -0.4249 -0.2332
  287SOL    HW1 1146   1.078   0.955   0.381 -0.9811  0.1640 -2.1763
  287SOL    HW2 1147   0.952   0.980   0.300  0.8230 -2.8063 -0.3255
  287SOL     MW 1148   1.008   0.925   0.337 -0.1659 -0.6614 -0.5018
  288SOL     OW 1149   1.548   0.626   2.102  0.2883 -0.0050  0.3969
  288SOL    HW1 1150   1.530   0.644   2.198  0.4705  0.1377 -0.7759
  288SOL    HW2 1151   1.557   0.712   2.057 -0.4312  0.2986  3.0951
  288SOL     MW 1152   1.547   0.640   2.108  0.2174  0.0539  0.5982
  289SOL     OW 1153   0.943   1.038   2.621  0.0101  0.4451  0.2731
  289SOL    HW1 1154   0.997   0.952   2.594 -2.0206  0.6629  0.2309
  289SOL    HW2 1155   0.856   1.038   2.572 -2.2008  2.2303  0.9741
  289SOL     MW 1156   0.939   1.027   2.611 -0.5495  0.7094  0.3600
  290SOL     OW 1157   0.855   0.564   1.518  0.5060 -0.3022  0.6395
  290SOL    HW1 1158   0.907   0.534   1.446  0.5921  0.6317  1.2005
  290SOL    HW2 1159   0.903   0.574   1.600 -1.3734  0.6522  1.6921
  290SOL     MW 1160   0.868   0.562   1.519  0.2694 -0.0530  0.8524
  291SOL     OW 1161   0.143   0.334   0.183 -0.6442  0.4815 -1.1531
  291SOL    HW1 1162   0.241   0.312   0.212  2.8118  0.0871  0.3460
  291SOL    HW2 1163   0.118   0.264   0.123  3.5103  0.9414 -1.0517
  291SOL     MW 1164   0.153   0.322   0.179  0.3599  0.4902 -0.9420
  292SOL     OW 1165   0.980   0.527   0.060  0.0584 -0.3124 -0.0858
  292SOL    HW1 1166   1.012   0.586   0.126 -1.2917  2.2747 -0.9665
  292SOL    HW2 1167   1.042   0.455   0.071  1.3941  1.2469  2.1196
  292SOL     MW 1168   0.992   0.525   0.070  0.0565  0.2347  0.0890
  293SOL     OW 1169   0.208   0.092   2.469  0.1182  0.2998 -0.0284
  293SOL    HW1 1170   0.136   0.033   2.447  0.7502 -1.3847 -0.0232
  293SOL    HW2 1171   0.185   0.149   2.540 -3.6451  1.6048 -0.2853
  293SOL     MW 1172   0.196   0.092   2.475 -0.2949  0.2497 -0.0616
  294SOL     OW 1173   1.491   0.664   2.361 -0.1479 -0.5264 -0.4899
  294SOL    HW1 1174   1.504   0.723   2.436  3.4583  2.1543  2.9727
  294SOL    HW2 1175   1.497   0.574   2.394 -2.2574  1.0191 -0.0192
  294SOL     MW 1176   1.494   0.660   2.375  0.0495  0.0312  0.0290
  295SOL     OW 1177   0.904   0.703   2.505  0.0090 -0.1803  0.2766
  295SOL    HW1 1178   0.859   0.642   2.446 -1.6210 -1.6982 -3.6927
  295SOL    HW2 1179   0.844   0.704   2.581  0.2490 -0.3979  1.1628
  295SOL     MW 1180   0.890   0.695   2.507 -0.1744 -0.4093 -0.1302
  296SOL     OW 1181   1.262   0.269   2.067  0.2848  0.2528 -0.3075
  296SOL    HW1 1182   1.350   0.225   2.055 -2.9267 -0.8148  0.8052
  296SOL    HW2 1183   1.250   0.271   2.168 -1.8068  0.1786  1.3804
  296SOL     MW 1184   1.272   0.264   2.079 -0.4149  0.1021  0.0620
  297SOL     OW 1185   1.462   0.417   1.549  0.8892 -0.2550  0.3784
  297SOL    HW1 1186   1.495   0.507   1.546 -0.9641  1.1371  0.0357
  297SOL    HW2 1187   1.515   0.377   1.617 -1.3194 -0.3021  1.2779
  297SOL     MW 1188   1.474   0.424   1.557  0.3533 -0.0775  0.4519
  298SOL     OW 1189   1.515   0.923   2.064 -0.0740 -0.4606 -0.3879
  298SOL    HW1 1190   1.537   0.971   1.985  2.4077 -0.8404 -0.0622
  298SOL    HW2 1191   1.605   0.902   2.099 -0.4393  0.2670  3.1965
  298SOL     MW 1192   1.530   0.926   2.059  0.2052 -0.4147  0.1280
  299SOL     OW 1193   0.510   1.066   3.085  0.1348 -1.0197  0.1739
  299SOL    HW1 1194   0.569   1.139   3.068 -1.4570  0.6089  0.3363
  299SOL    HW2 1195   0.489   1.042   2.995  1.5528  0.9883  2.5773
  299SOL     MW 1196   0.515   1.072   3.071  0.1118 -0.5399  0.5125
  300SOL     OW 1197   1.271   1.166   2.505  0.2148  0.0302 -0.0785
  300SOL    HW1 1198   1.201   1.095   2.504  1.2198 -0.8867 -0.6736
  300SOL    HW2 1199   1.240   1.237   2.562 -0.0931  2.2366  2.0066
  300SOL     MW 1200   1.258   1.166   2.513  0.3068  0.2003  0.1181
  301SOL     OW 1201   1.346   0.811   0.574  0.0604  0.4761 -0.1669
  301SOL    HW1 1202   1.417   0.808   0.637 -1.4187  1.1016  1.0488
  301SOL    HW2 1203   1.279   0.790   0.636  0.9067  2.4871  1.2409
  301SOL     MW 1204   1.346   0.808   0.591 -0.0231  0.8240  0.1793
  302SOL     OW 1205   0.104   1.457   1.999 -0.0021 -0.5190  0.3445
  302SOL    HW1 1206   0.119   1.411   2.082 -0.8664  0.1354  0.6347
  302SOL    HW2 1207   0.063   1.537   2.020  0.4779  0.0046 -0.3421
  302SOL     MW 1208   0.101   1.462   2.013 -0.0528 -0.3635  0.2922
  303SOL     OW 1209   0.408   1.723   2.565  0.2540 -0.5503  0.1878
  303SOL    HW1 1210   0.465   1.765   2.501 -1.0689 -2.2933 -1.1200
  303SOL    HW2 1211   0.331   1.774   2.569 -1.7869  0.0353  2.1284
  303SOL     MW 1212   0.406   1.735   2.557 -0.1898 -0.7030  0.2713
  304SOL     OW 1213   0.637   2.076   2.396  0.0059 -0.2413 -0.3489
  304SOL    HW1 1214   0.677   2.162   2.378  2.3331 -0.7818 -0.5096
  304SOL    HW2 1215   0.702   2.006   2.372  2.9002 -1.1004  0.3354
  304SOL     MW 1216   0.651   2.078   2.390  0.6948 -0.4260 -0.2798
  305SOL     OW 1217   1.085   0.566   0.573  0.0277  0.5624  0.6696
  305SOL    HW1 1218   0.991   0.552   0.548 -3.8839 -0.5503  1.4111
  305SOL    HW2 1219   1.139   0.505   0.524  1.1809  1.9395 -0.0531
  305SOL     MW 1220   1.080   0.556   0.563 -0.3362  0.5972  0.6721
  306SOL     OW 1221   1.212   1.478   0.349  0.6016  0.2780  0.2960
  306SOL    HW1 1222   1.260   1.409   0.392 -0.5920  2.2811  0.1873
  306SOL    HW2 1223   1.232   1.467   0.259  0.2832 -0.6851 -0.4000
  306SOL     MW 1224   1.221   1.467   0.342  0.4021  0.4152  0.1898
  307SOL     OW 1225   1.368   0.526   1.928  0.9177 -0.6248 -0.6026
  307SOL    HW1 1226   1.337   0.439   1.971 -2.9642 -0.4202  2.7575
  307SOL    HW2 1227   1.452   0.553   1.975  0.3087  0.2444 -0.3700
  307SOL     MW 1228   1.375   0.518   1.940  0.3251 -0.4831 -0.1286
  308SOL     OW 1229   2.157   0.643   2.659  0.0087 -0.1541 -0.0284
  308SOL    HW1 1230   2.245   0.627   2.711  2.8768  4.3986  0.0345
  308SOL    HW2 1231   2.162   0.743   2.673 -1.4293 -0.7356  0.5953
  308SOL     MW 1232   2.169   0.654   2.668  0.1974  0.3699  0.0622
  309SOL     OW 1233   0.581   0.445   0.378 -0.6112 -0.4034 -0.4415
  309SOL    HW1 1234   0.590   0.359   0.422  0.9566 -0.2329  0.6296
  309SOL    HW2 1235   0.551   0.415   0.294  0.8046 -3.1273  0.3643
  309SOL     MW 1236   0.579   0.430   0.373 -0.2175 -0.7403 -0.1939
  310SOL     OW 1237   0.463   0.530   1.929  0.4138 -0.1625  0.0820
  310SOL    HW1 1238   0.477   0.457   1.871 -1.6747  3.7129 -1.2497
  310SOL    HW2 1239   0.521   0.605   1.904  0.7798  0.7018 -0.5846
  310SOL     MW 1240   0.473   0.530   1.918  0.1865  0.4628 -0.1817
  311SOL     OW 1241   1.920   0.778   1.979 -0.0932  0.4970 -0.4350
  311SOL    HW1 1242   1.889   0.839   2.051 -0.4518 -1.4967 -1.3241
  311SOL    HW2 1243   1.950   0.695   2.018 -1.2557 -1.4338 -1.1835
  311SOL     MW 1244   1.920   0.775   1.994 -0.2939 -0.0208 -0.6511
  312SOL     OW 1245   1.730   2.500   0.019 -0.4394 -0.1902 -0.2324
  312SOL    HW1 1246   1.793   2.532   0.089 -0.8234 -0.5892  0.9790
  312SOL    HW2 1247   1.641   2.529   0.052  1.0708  0.7556 -0.9707
  312SOL     MW 1248   1.727   2.508   0.033 -0.2908 -0.1181 -0.1700
  313SOL     OW 1249   0.119   1.190   2.938  0.3133 -0.1101 -0.1423
  313SOL    HW1 1250   0.180   1.169   3.013  0.4317 -1.2714  0.2821
  313SOL    HW2 1251   0.162   1.232   2.868  2.5662 -0.3592 -0.0795
  313SOL     MW 1252   0.133   1.193   2.938  0.6262 -0.2962 -0.0780
  314SOL     OW 1253   2.136   3.006   2.980  0.0081 -0.4009  0.6384
  314SOL    HW1 1254   2.064   3.030   2.928  1.1085 -1.5414 -0.3801
  314SOL    HW2 1255   2.147   3.070   3.046 -2.7061  1.3834 -1.5329
  314SOL     MW 1256   2.128   3.017   2.982 -0.2048 -0.3160  0.2176
  315SOL     OW 1257   1.525   1.932   3.044 -0.5146 -0.9915  0.4482
  315SOL    HW1 1258   1.467   1.988   3.099 -1.2413 -1.9857 -1.0373
  315SOL    HW2 1259   1.564   1.998   2.981  2.3174  1.5296 -2.7832
  315SOL     MW 1260   1.523   1.948   3.043 -0.2368 -0.7901 -0.1741
  316SOL     OW 1261   1.252   0.646   2.698  0.2757 -0.8145  0.3059
  316SOL    HW1 1262   1.330   0.644   2.752 -1.5263  0.3522  0.2775
  316SOL    HW2 1263   1.186   0.615   2.764 -0.1503  3.2756 -0.5927
  316SOL     MW 1264   1.254   0.642   2.714 -0.0183 -0.1209  0.1836
  317SOL     OW 1265   0.665   1.429   2.628  0.2137  0.2076 -0.0402
  317SOL    HW1 1266   0.697   1.346   2.662 -0.9602  0.7460  0.2283
  317SOL    HW2 1267   0.739   1.454   2.560 -2.3547  1.5343  0.1884
  317SOL     MW 1268   0.679   1.421   2.623 -0.2801  0.4536  0.0254
  318SOL     OW 1269   1.350   0.366   2.905  0.1411  0.1935  0.4432
  318SOL    HW1 1270   1.272   0.423   2.878  0.5746  0.7365  0.3728
  318SOL    HW2 1271   1.419   0.429   2.903 -0.4284  1.7057 -1.0446
  318SOL     MW 1272   1.349   0.382   2.901  0.1232  0.4647  0.2376
  319SOL     OW 1273   0.817   0.470   2.825  0.5138  0.5645 -0.1729
  319SOL    HW1 1274   0.821   0.417   2.747 -0.5720  0.9142 -1.7256
  319SOL    HW2 1275   0.749   0.424   2.873 -0.5264  1.4345  0.5864
  319SOL     MW 1276   0.809   0.457   2.821  0.2333  0.7255 -0.2776
  320SOL     OW 1277   1.050   1.339   2.020  0.5758  0.6673 -1.2009
  320SOL    HW1 1278   1.116   1.277   2.046 -3.1272  2.2303 -2.4946
  320SOL    HW2 1279   1.102   1.397   1.967 -0.6402  0.2629 -1.2829
  320SOL     MW 1280   1.065   1.339   2.016 -0.0732  0.8202 -1.3824
  321SOL     OW 1281   1.068   0.981   3.058 -0.5821  0.6368  0.3929
  321SOL    HW1 1282   0.995   0.949   3.004 -0.3988  1.7625 -0.1057
  321SOL    HW2 1283   1.114   0.901   3.084  1.3535 -0.0650 -0.5940
  321SOL     MW 1284   1.064   0.966   3.054 -0.3026  0.6927  0.1969
  322SOL     OW 1285   1.176   0.851   1.733  0.2479 -0.4566 -0.3272
  322SOL    HW1 1286   1.266   0.809   1.729  1.3761 -0.2577 -3.1742
  322SOL    HW2 1287   1.155   0.875   1.830  0.5562  1.9578  0.2357
  322SOL     MW 1288   1.185   0.848   1.745  0.4374 -0.1118 -0.6286
  323SOL     OW 1289   1.170   1.517   1.859  0.1335  0.0244 -0.4639
  323SOL    HW1 1290   1.171   1.442   1.803 -1.1425  3.9069  0.1890
  323SOL    HW2 1291   1.101   1.579   1.821 -1.7115 -0.5086 -1.0417
  323SOL     MW 1292   1.161   1.515   1.846 -0.2783  0.4663 -0.4540
  324SOL     OW 1293   1.526   1.065   2.482  0.1099  0.1543  0.5240
  324SOL    HW1 1294   1.434   1.109   2.494 -1.0458  1.5585 -0.2751
  324SOL    HW2 1295   1.581   1.138   2.508 -4.0207  0.0283 -0.3226
  324SOL     MW 1296   1.521   1.081   2.487 -0.5876  0.3230  0.3069
  325SOL     OW 1297   1.098   0.502   2.905  0.0127 -0.0470 -0.2033
  325SOL    HW1 1298   1.074   0.514   3.000 -0.9965 -0.7545  3.2647
  325SOL    HW2 1299   1.009   0.487   2.875  0.9744 -0.5117 -0.3327
  325SOL     MW 1300   1.083   0.501   2.913  0.0065 -0.2017  0.2372
  326SOL     OW 1301   0.461   1.342   2.226  0.6490  0.2404  0.2574
  326SOL    HW1 1302   0.520   1.306   2.158  0.1868  0.0476  0.0914
  326SOL    HW2 1303   0.473   1.437   2.217  1.6540 -0.2579  1.1407
  326SOL     MW 1304   0.470   1.350   2.216  0.7206  0.1492  0.3520
  327SOL     OW 1305   1.870   0.909   2.422 -0.4103 -0.0406  0.7282
  327SOL    HW1 1306   1.828   0.822   2.446 -1.1601 -0.3633 -0.1201
  327SOL    HW2 1307   1.956   0.877   2.396 -2.5898 -0.9577  2.3836
  327SOL     MW 1308   1.876   0.894   2.422 -0.7968 -0.2042  0.8347
  328SOL     OW 1309   0.190   1.281   2.214  0.0539  0.9735 -0.4401
  328SOL    HW1 1310   0.179   1.199   2.174 -1.3628  2.4419 -1.7369
  328SOL    HW2 1311   0.284   1.309   2.212  0.6653  1.5765 -1.6221
  328SOL     MW 1312   0.201   1.274   2.208 -0.0523  1.2468 -0.7671
  329SOL     OW 1313   0.119   0.135   1.428 -0.4252 -0.3337  0.4153
  329SOL    HW1 1314   0.084   0.167   1.520 -0.4280  1.4332  3.2406
  329SOL    HW2 1315   0.200   0.180   1.415  1.8207  1.4716  1.1987
  329SOL     MW 1316   0.125   0.145   1.438 -0.1292  0.1376  0.8914
  330SOL     OW 1317   0.352   2.983   2.059 -0.2000  0.1958 -0.1858
  330SOL    HW1 1318   0.382   3.044   2.120 -1.3983 -0.5996  0.8684
  330SOL    HW2 1319   0.266   2.947   2.099 -1.7099  0.0228  2.1344
  330SOL     MW 1320   0.345   2.986   2.073 -0.5573  0.0680  0.2594
  331SOL     OW 1321   0.805   1.217   2.265 -0.6330 -0.4139  0.5434
  331SOL    HW1 1322   0.738   1.226   2.192 -1.6050 -0.3997 -0.1097
  331SOL    HW2 1323   0.799   1.302   2.307 -0.0083  1.9484  0.5778
  331SOL     MW 1324   0.796   1.230   2.261 -0.6788 -0.1004  0.4618
  332SOL     OW 1325   1.344   1.730   2.953 -0.1409 -0.8593 -0.0889
  332SOL    HW1 1326   1.358   1.722   2.859  0.0130  0.4911 -0.0041
  332SOL    HW2 1327   1.415   1.798   2.983 -1.1358  1.3957  0.8634
  332SOL     MW 1328   1.355   1.738   2.944 -0.2519 -0.3836  0.0480
  333SOL     OW 1329   1.725   1.462   3.000 -0.0330  0.1614  0.0376
  333SOL    HW1 1330   1.809   1.505   3.024  1.3086 -0.7413  1.1777
  333SOL    HW2 1331   1.682   1.424   3.078 -2.5872  0.0942  0.5346
  333SOL     MW 1332   1.731   1.463   3.013 -0.1930  0.0335  0.2536
  334SOL     OW 1333   1.316   3.071   2.630  0.0021  0.0219 -0.1803
  334SOL    HW1 1334   1.230   3.063   2.676  1.5323 -2.0916 -1.6615
  334SOL    HW2 1335   1.354   3.162   2.640  2.4910  2.5944 -0.5798
  334SOL     MW 1336   1.309   3.082   2.637  0.5324  0.0825 -0.4284
  335SOL     OW 1337   1.247   0.759   3.053 -0.4860  0.0987  0.0090
  335SOL    HW1 1338   1.311   0.741   3.118 -0.0593  1.6798 -2.0263
  335SOL    HW2 1339   1.309   0.796   2.988 -1.0250  1.3279 -0.2237
  335SOL     MW 1340   1.263   0.761   3.053 -0.5008  0.4695 -0.2903
  336SOL     OW 1341   0.895   1.117   1.912 -0.5743  0.1118  0.0425
  336SOL    HW1 1342   0.892   1.210   1.950 -0.2668  1.0608  1.7924
  336SOL    HW2 1343   0.972   1.073   1.946 -0.6067 -1.0496  0.7096
  336SOL     MW 1344   0.905   1.124   1.922 -0.5380  0.0837  0.3614
  337SOL     OW 1345   0.501   1.794   2.818  0.3619 -0.2609 -0.6091
  337SOL    HW1 1346   0.438   1.784   2.744  2.4180 -1.9413 -0.2149
  337SOL    HW2 1347   0.580   1.745   2.797 -0.0669  2.4783 -1.7508
  337SOL     MW 1348   0.503   1.786   2.806  0.5766 -0.1212 -0.7077
  338SOL     OW 1349   1.128   0.849   2.556  0.0103 -0.3805 -0.7095
  338SOL    HW1 1350   1.049   0.791   2.543 -3.0968  4.6202 -0.4264
  338SOL    HW2 1351   1.189   0.802   2.612  0.0784  1.0036  0.3059
  338SOL     MW 1352   1.126   0.835   2.562 -0.3907  0.4619 -0.5381
  339SOL     OW 1353   1.599   1.065   1.832  0.1490 -0.7266 -0.3873
  339SOL    HW1 1354   1.523   1.042   1.776  0.4296  0.3018  0.8636
  339SOL    HW2 1355   1.576   1.157   1.862 -2.5266  1.0041  1.7796
  339SOL     MW 1356   1.586   1.074   1.828 -0.1670 -0.3626  0.0636
  340SOL     OW 1357   1.358   1.551   0.091  0.0243 -0.6468 -0.4123
  340SOL    HW1 1358   1.371   1.625   0.030  0.9382 -0.5214  1.7529
  340SOL    HW2 1359   1.440   1.508   0.111 -1.6336  0.9049 -0.5039
  340SOL     MW 1360   1.371   1.555   0.085 -0.0739 -0.4255 -0.1387
  341SOL     OW 1361   0.134   1.340   2.664 -0.1817  0.4772 -0.1704
  341SOL    HW1 1362   0.218   1.373   2.631  0.0861 -0.6841  0.8815
  341SOL    HW2 1363   0.061   1.337   2.604  0.1877 -0.6390  0.0826
  341SOL     MW 1364   0.136   1.344   2.652 -0.0976  0.1767  0.0018
  342SOL     OW 1365   1.433   0.318   0.065  0.2771 -0.1329 -0.0676
  342SOL    HW1 1366   1.481   0.389   0.112  2.1986 -0.9274 -2.2156
  342SOL    HW2 1367   1.402   0.353  -0.017  0.2224 -0.0961  2.3366
  342SOL     MW 1368   1.435   0.332   0.061  0.5234 -0.2329 -0.0338
  343SOL     OW 1369   0.230   0.283   2.245  0.6608  0.4931 -0.4953
  343SOL    HW1 1370   0.243   0.215   2.312 -2.6089  0.5527 -1.3126
  343SOL    HW2 1371   0.160   0.248   2.183 -0.4585 -0.9616 -0.9819
  343SOL     MW 1372   0.223   0.270   2.246  0.0817  0.3091 -0.6673
  344SOL     OW 1373   1.681   2.076   0.250  0.1474 -0.1901  0.3682
  344SOL    HW1 1374   1.680   2.126   0.171 -0.6458 -0.9080  2.2897
  344SOL    HW2 1375   1.611   2.015   0.239 -2.8424 -0.4408 -0.6629
  344SOL     MW 1376   1.671   2.074   0.238 -0.3517 -0.3179  0.4857
  345SOL     OW 1377   0.704   1.590   2.380  0.6142 -0.2580 -0.0306
  345SOL    HW1 1378   0.616   1.601   2.342  2.5510  2.3300  1.5441
  345SOL    HW2 1379   0.744   1.546   2.302 -0.8206 -0.0687  0.9231
  345SOL     MW 1380   0.697   1.586   2.365  0.6804  0.1084  0.3030
  346SOL     OW 1381   1.707   1.101   0.009  0.5185  0.6719  0.1324
  346SOL    HW1 1382   1.796   1.092   0.048  0.0938  1.1479  0.1978
  346SOL    HW2 1383   1.663   1.025   0.049  1.1710  1.1766  4.0348
  346SOL     MW 1384   1.713   1.090   0.019  0.5486  0.8013  0.6559
  347SOL     OW 1385   1.222   0.701   2.347  0.7941  0.5752 -0.1870
  347SOL    HW1 1386   1.314   0.678   2.358 -1.1104 -1.6877 -3.1542
  347SOL    HW2 1387   1.198   0.754   2.428  2.5249  0.2138 -0.1672
  347SOL     MW 1388   1.231   0.705   2.359  0.7712  0.2290 -0.5759
  348SOL     OW 1389   1.310   2.605   1.883  0.1235 -0.4841  0.0619
  348SOL    HW1 1390   1.367   2.533   1.896 -2.6130  1.0992  1.2594
  348SOL    HW2 1391   1.358   2.676   1.920 -0.1511  0.7168 -0.4499
  348SOL     MW 1392   1.324   2.605   1.890 -0.2738 -0.1168  0.1524
  349SOL     OW 1393   1.411   0.212   2.655  0.6818 -0.1363  0.3222
  349SOL    HW1 1394   1.368   0.258   2.731  0.5509  1.1272  0.3913
  349SOL    HW2 1395   1.477   0.155   2.696 -3.3035  0.2003  5.2715
  349SOL     MW 1396   1.414   0.211   2.671  0.1387  0.0748  0.9843
  350SOL     OW 1397   1.849   0.683   2.632  0.0042 -0.2281 -0.7058
  350SOL    HW1 1398   1.822   0.604   2.591  0.4427  0.2967  2.2951
  350SOL    HW2 1399   1.943   0.660   2.647  2.8809  1.1747 -0.7151
  350SOL     MW 1400   1.858   0.670   2.629  0.4416  0.0262 -0.3111
  351SOL     OW 1401   0.086   0.955   1.622  0.3044  0.0669  0.1164
  351SOL    HW1 1402   0.002   0.976   1.663 -3.3341  0.8399 -1.0383
  351SOL    HW2 1403   0.139   1.034   1.632 -1.8607  0.8039  1.7480
  351SOL     MW 1404   0.082   0.968   1.629 -0.4613  0.2662  0.1793
  352SOL     OW 1405   0.732   1.656   2.773 -0.4681 -0.4194 -0.1954
  352SOL    HW1 1406   0.763   1.610   2.849 -4.4481  0.1092  3.1506
  352SOL    HW2 1407   0.704   1.587   2.714 -0.0545  1.4448  0.7964
  352SOL     MW 1408   0.733   1.641   2.775 -0.9386 -0.1037  0.3769
  353SOL     OW 1409   2.979   2.425   2.718  0.1385  0.5862  0.2522
  353SOL    HW1 1410   3.071   2.403   2.691  0.4388  0.1322 -0.8716
  353SOL    HW2 1411   2.952   2.496   2.661 -1.7353  1.2632  1.2600
  353SOL     MW 1412   2.987   2.431   2.707 -0.0691  0.6156  0.2369
  354SOL     OW 1413   0.420   2.398   0.847 -0.5212  0.2648 -0.2296
  354SOL    HW1 1414   0.464   2.378   0.927  0.3606 -0.2369 -0.5860
  354SOL    HW2 1415   0.334   2.352   0.842  0.9751 -1.9095 -0.7731
  354SOL     MW 1416   0.415   2.389   0.857 -0.2074 -0.0883 -0.3483
  355SOL     OW 1417   0.071   2.172   0.385 -0.2878  0.1752 -0.2719
  355SOL    HW1 1418  -0.022   2.141   0.367  0.1931 -2.5268  2.4011
  355SOL    HW2 1419   0.065   2.209   0.471 -0.2309 -4.1331 -0.4416
  355SOL     MW 1420   0.058   2.173   0.394 -0.2168 -0.7497  0.0584
  356SOL     OW 1421   0.851   2.958   1.022 -0.4917  0.0577  0.0210
  356SOL    HW1 1422   0.901   2.920   0.945  2.4507 -0.2541 -0.6923
  356SOL    HW2 1423   0.771   2.908   1.017  2.0173  1.5882 -1.2142
  356SOL     MW 1424   0.847   2.946   1.011  0.2276  0.2185 -0.2361
  357SOL     OW 1425   1.749   2.897   0.371 -0.3436  0.2169  0.0945
  357SOL    HW1 1426   1.702   2.846   0.431 -2.3572  2.4713 -2.7897
  357SOL    HW2 1427   1.835   2.856   0.347 -1.4453  2.9291 -0.2325
  357SOL     MW 1428   1.754   2.885   0.376 -0.7546  0.8722 -0.3292
  358SOL     OW 1429   0.433   0.145   1.057  0.3874 -0.4191  0.2168
  358SOL    HW1 1430   0.528   0.128   1.047  2.9055 -0.0151  2.3544
  358SOL    HW2 1431   0.394   0.159   0.972  1.4341 -0.9585  1.7165
  358SOL     MW 1432   0.440   0.144   1.045  0.8577 -0.4370  0.6967
  359SOL     OW 1433   0.981   2.870   1.822 -0.2556  0.0315 -0.5390
  359SOL    HW1 1434   0.952   2.801   1.884 -0.0450 -0.2425  1.9499
  359SOL    HW2 1435   0.996   2.841   1.729  3.3605  1.4204  2.2085
  359SOL     MW 1436   0.979   2.857   1.818  0.2493  0.1786  0.1519
  360SOL     OW 1437   0.641   2.793   0.998 -0.1760  0.0265  0.2220
  360SOL    HW1 1438   0.645   2.752   0.911  0.4100 -0.2732 -0.8154
  360SOL    HW2 1439   0.610   2.735   1.065 -1.6635 -3.3539 -2.5563
  360SOL     MW 1440   0.638   2.780   0.995 -0.2949 -0.4591 -0.2815
  361SOL     OW 1441   0.178   2.725   1.351  0.3827  0.0253 -0.2320
  361SOL    HW1 1442   0.159   2.816   1.394  0.8871  1.2748  3.3354
  361SOL    HW2 1443   0.272   2.731   1.359 -2.8890  0.0891 -0.1112
  361SOL     MW 1444   0.188   2.738   1.358  0.0176  0.1986  0.2546
  362SOL     OW 1445   1.498   2.388   0.601 -0.2887 -0.2595  0.1908
  362SOL    HW1 1446   1.486   2.299   0.646  1.8226 -0.3677  0.2518
  362SOL    HW2 1447   1.494   2.462   0.658 -0.4528 -0.9767 -1.9210
  362SOL     MW 1448   1.496   2.386   0.614 -0.0318 -0.3684 -0.0798
  363SOL     OW 1449   0.257   3.047   0.748  0.0081 -0.2493 -0.2746
  363SOL    HW1 1450   0.262   2.994   0.826  2.5409 -2.7912  0.4654
  363SOL    HW2 1451   0.166   3.063   0.715 -0.3083  1.9948  2.7891
  363SOL     MW 1452   0.246   3.042   0.754  0.3006 -0.2886  0.2272
  364SOL     OW 1453   0.700   0.169   0.237  0.3403 -0.2602  1.0461
  364SOL    HW1 1454   0.649   0.090   0.224 -0.6168 -0.6063 -2.2036
  364SOL    HW2 1455   0.660   0.240   0.177  1.0602  1.3179 -0.5438
  364SOL     MW 1456   0.688   0.168   0.227  0.3090 -0.0977  0.4076
  365SOL     OW 1457   0.946   1.975   1.132 -0.5630 -0.2394  0.1761
  365SOL    HW1 1458   0.888   2.048   1.099  0.0113 -0.5609  1.0569
  365SOL    HW2 1459   0.912   1.897   1.083  1.4141  1.9504 -0.6682
  365SOL     MW 1460   0.934   1.974   1.121 -0.2264  0.0071  0.1809
  366SOL     OW 1461   2.862   2.616   1.009  0.2048 -0.6598 -0.4419
  366SOL    HW1 1462   2.932   2.604   1.075  0.4079 -1.5126  2.9763
  366SOL    HW2 1463   2.911   2.630   0.921 -0.0250 -0.6848  2.0430
  366SOL     MW 1464   2.878   2.616   1.006  0.2012 -0.7756  0.3369
  367SOL     OW 1465   1.270   2.803   0.874  0.0352 -0.5253 -0.1293
  367SOL    HW1 1466   1.188   2.845   0.883 -1.0173 -0.3134 -1.3492
  367SOL    HW2 1467   1.257   2.748   0.790  0.7818 -1.7284  2.2106
  367SOL     MW 1468   1.257   2.801   0.864 -0.0052 -0.6561  0.0185
  368SOL     OW 1469   1.665   0.471   0.667  0.6045  0.2261  0.4479
  368SOL    HW1 1470   1.736   0.418   0.630 -0.0910  0.2866 -1.9916
  368SOL    HW2 1471   1.687   0.565   0.665 -2.1336 -0.3486 -1.3490
  368SOL     MW 1472   1.677   0.476   0.662  0.1515  0.1582 -0.1111
  369SOL     OW 1473   0.114   2.489   1.714  0.3779  0.0523 -0.5369
  369SOL    HW1 1474   0.202   2.469   1.739 -0.7032  0.6271 -1.0664
  369SOL    HW2 1475   0.097   2.576   1.755  0.4034  0.9982  1.8625
  369SOL     MW 1476   0.123   2.498   1.723  0.2387  0.2529 -0.2902
  370SOL     OW 1477   0.691   0.053   0.977 -0.1935 -0.5014  0.3837
  370SOL    HW1 1478   0.745   0.132   0.968 -0.4214 -1.8863 -1.1881
  370SOL    HW2 1479   0.753  -0.022   0.988  1.0081  1.5227  0.1055
  370SOL     MW 1480   0.707   0.054   0.977 -0.0650 -0.4171  0.1396
  371SOL     OW 1481   1.315   2.949   1.481  0.0938  0.1545 -0.1481
  371SOL    HW1 1482   1.256   2.885   1.433 -0.0241  0.3694  2.8732
  371SOL    HW2 1483   1.320   3.024   1.419 -1.1280 -2.2705  0.1301
  371SOL     MW 1484   1.308   2.951   1.466 -0.0829 -0.1371  0.2873
  372SOL     OW 1485   0.846   2.279   0.505 -0.2099  0.2663 -0.2014
  372SOL    HW1 1486   0.810   2.189   0.503 -0.5103  1.0403 -2.6448
  372SOL    HW2 1487   0.790   2.318   0.439  0.0058  0.0783 -2.6150
  372SOL     MW 1488   0.834   2.272   0.496 -0.2211  0.3436 -0.8422
  373SOL     OW 1489   2.852   3.029   1.401 -0.6182 -0.4072 -0.3976
  373SOL    HW1 1490   2.912   2.983   1.344 -0.9637 -2.4398  1.2259
  373SOL    HW2 1491   2.841   3.115   1.348  0.3066  0.8276  1.0071
  373SOL     MW 1492   2.859   3.034   1.387 -0.5418 -0.5124  0.0019
  374SOL     OW 1493   1.524   0.532   0.263 -0.1533 -0.5093  0.1991
  374SOL    HW1 1494   1.623   0.544   0.283  3.7205 -3.1954 -2.9799
  374SOL    HW2 1495   1.486   0.471   0.333  4.5950 -1.5906 -1.1009
  374SOL     MW 1496   1.532   0.525   0.275  0.9843 -1.0064 -0.3919
  375SOL     OW 1497   1.131   2.121   2.325 -0.5966 -0.1483 -0.0067
  375SOL    HW1 1498   1.122   2.119   2.421 -0.1214  0.3989 -3.4454
  375SOL    HW2 1499   1.163   2.036   2.301  2.5781  2.6687  0.6724
  375SOL     MW 1500   1.134   2.110   2.335 -0.1151  0.2956 -0.3708
  376SOL     OW 1501   0.680   2.533   0.107  0.0373  0.5876 -0.4414
  376SOL    HW1 1502   0.734   2.486   0.177 -0.4996 -0.4097 -2.0773
  376SOL    HW2 1503   0.669   2.457   0.056  0.6843  1.3959 -2.6808
  376SOL     MW 1504   0.686   2.517   0.109  0.0518  0.5627 -0.9527
  377SOL     OW 1505   1.293   1.985   0.852  0.1844 -0.6132 -0.2228
  377SOL    HW1 1506   1.206   1.966   0.811 -0.7735 -1.5366  2.2082
  377SOL    HW2 1507   1.291   1.931   0.935  1.5296  0.5878 -0.4113
  377SOL     MW 1508   1.281   1.975   0.857  0.2355 -0.5765  0.0731
  378SOL     OW 1509   1.016   2.776   1.555  0.3105  0.2146  0.0559
  378SOL    HW1 1510   0.938   2.712   1.551  2.5235 -3.4457  0.6727
  378SOL    HW2 1511   0.973   2.857   1.514 -2.6300  0.3569  0.1816
  378SOL     MW 1512   1.000   2.778   1.549  0.2145 -0.2495  0.1539
  379SOL     OW 1513   1.102   1.801   2.269 -0.1493 -0.2024 -0.1898
  379SOL    HW1 1514   1.009   1.787   2.263  2.3067  0.8696 -0.2003
  379SOL    HW2 1515   1.146   1.732   2.214  2.9922  1.1700  0.9910
  379SOL     MW 1516   1.096   1.790   2.261  0.5892  0.1201 -0.0354
  380SOL     OW 1517   0.865   0.137   1.537  0.2653 -0.8104  0.3302
  380SOL    HW1 1518   0.909   0.155   1.456  3.9070 -3.4531  0.5764
  380SOL    HW2 1519   0.930   0.118   1.599 -0.5761  2.2048 -1.5003
  380SOL     MW 1520   0.879   0.137   1.534  0.6348 -0.7613  0.1212
  381SOL     OW 1521   0.796   1.964   0.772  0.2121 -0.2029 -0.1471
  381SOL    HW1 1522   0.894   1.973   0.753 -0.3055  0.1797  0.8963
  381SOL    HW2 1523   0.779   2.020   0.847  0.0163 -1.9548 -1.9407
  381SOL     MW 1524   0.806   1.973   0.779  0.1180 -0.3836 -0.2461
  382SOL     OW 1525   0.726   0.049   0.717  0.0368  0.9400  0.1272
  382SOL    HW1 1526   0.702   0.053   0.813 -0.4418  0.1764  2.2381
  382SOL    HW2 1527   0.682  -0.032   0.683  0.4438 -1.3958 -1.6325
  382SOL     MW 1528   0.717   0.039   0.726  0.0274  0.5311  0.1735
  383SOL     OW 1529   0.428   0.046   0.378 -0.9708 -0.0574 -0.1451
  383SOL    HW1 1530   0.508  -0.013   0.368  1.2744 -1.5439 -0.8693
  383SOL    HW2 1531   0.345  -0.003   0.373  0.1530  0.1216  1.2959
  383SOL     MW 1532   0.427   0.032   0.376 -0.5263 -0.2299 -0.0505
  384SOL     OW 1533   0.617   2.905   0.642  0.3235  0.0475  0.4485
  384SOL    HW1 1534   0.639   2.817   0.677 -0.3683  3.0421 -1.8509
  384SOL    HW2 1535   0.521   2.900   0.625 -0.7895 -0.2880  2.3671
  384SOL     MW 1536   0.607   2.893   0.644  0.0854  0.3983  0.3983
  385SOL     OW 1537   1.320   2.067   1.555  0.1249  0.2148 -0.4150
  385SOL    HW1 1538   1.393   2.082   1.618  0.4953  1.5351  1.3445
  385SOL    HW2 1539   1.272   1.992   1.596 -0.0849  0.7759 -0.5257
  385SOL     MW 1540   1.323   2.059   1.569  0.1461  0.4630 -0.1975
  386SOL     OW 1541   1.357   0.368   0.819 -0.1319 -0.3657 -0.5301
  386SOL    HW1 1542   1.266   0.344   0.808  2.6553 -2.8051  0.5548
  386SOL    HW2 1543   1.360   0.371   0.913 -0.2214 -1.7966  0.6816
  386SOL     MW 1544   1.345   0.365   0.830  0.2240 -0.8764 -0.2271
  387SOL     OW 1545   0.828   2.197   1.487  0.2832  0.9511 -0.2928
  387SOL    HW1 1546   0.896   2.258   1.455 -0.2880 -2.4382 -1.6875
  387SOL    HW2 1547   0.863   2.107   1.453  2.0888  0.9946  1.8634
  387SOL     MW 1548   0.841   2.193   1.478  0.4461  0.5096 -0.1923
  388SOL     OW 1549   1.507   2.790   1.235  0.7803 -0.1925  0.9923
  388SOL    HW1 1550   1.442   2.729   1.198  0.2383  0.2933  0.0847
  388SOL    HW2 1551   1.594   2.759   1.204  0.8086 -0.6385 -0.2560
  388SOL     MW 1552   1.510   2.778   1.226  0.7125 -0.1872  0.7078
  389SOL     OW 1553   0.361   0.122   3.095  0.0347 -0.8916  0.0324
  389SOL    HW1 1554   0.405   0.097   3.011  2.3431 -0.2339  0.3060
  389SOL    HW2 1555   0.283   0.175   3.068 -2.0724  2.5195 -0.5142
  389SOL     MW 1556   0.357   0.126   3.080  0.0612 -0.3548 -0.0036
  390SOL     OW 1557   1.342   0.016   0.615 -0.2234  0.1792  0.3445
  390SOL    HW1 1558   1.420   0.058   0.578  3.0913  0.3940  0.7883
  390SOL    HW2 1559   1.358   0.027   0.710  0.5088 -0.6636  1.0087
  390SOL     MW 1560   1.354   0.023   0.623  0.3106  0.0963  0.4907
  391SOL     OW 1561   0.304   2.271   1.485 -0.3089  0.0263  0.6345
  391SOL    HW1 1562   0.246   2.203   1.517 -0.8625 -2.1819 -1.2521
  391SOL    HW2 1563   0.241   2.342   1.452  0.6379 -2.6395  0.7984
  391SOL     MW 1564   0.288   2.272   1.485 -0.2570 -0.6168  0.4072
  392SOL     OW 1565   1.990   2.221   0.347 -0.1076  0.1848  0.8911
  392SOL    HW1 1566   1.921   2.183   0.396  1.5625 -2.2451  0.6080
  392SOL    HW2 1567   2.066   2.182   0.384 -0.8834  0.1714 -1.9137
  392SOL     MW 1568   1.991   2.210   0.358  0.0104 -0.1376  0.4837
  393SOL     OW 1569   0.235   2.989   2.806  0.3498 -0.0380  0.0638
  393SOL    HW1 1570   0.284   3.074   2.800 -1.2553 -1.6613 -1.1525
  393SOL    HW2 1571   0.152   3.005   2.754 -1.5770  0.8434 -0.1823
  393SOL     MW 1572   0.230   3.002   2.798 -0.1162 -0.1359 -0.1291
  394SOL     OW 1573   0.862   1.672   1.459  0.3286  0.7019  0.3501
  394SOL    HW1 1574   0.823   1.674   1.548  0.3098 -0.9724  0.4840
  394SOL    HW2 1575   0.885   1.764   1.448  2.1712 -0.2212 -0.3740
  394SOL     MW 1576   0.860   1.684   1.470  0.5692  0.3592  0.2722
  395SOL     OW 1577   0.928   2.862   2.610  0.7238 -0.4805  0.0554
  395SOL    HW1 1578   0.965   2.947   2.628  1.0093 -0.8302  0.7488
  395SOL    HW2 1579   1.009   2.800   2.605 -1.4590 -0.4326 -1.6595
  395SOL     MW 1580   0.944   2.865   2.612  0.4735 -0.5203 -0.0793
  396SOL     OW 1581   0.803   1.849   2.373  0.3352 -0.1564 -0.7537
  396SOL    HW1 1582   0.823   1.861   2.463  0.2453 -0.2666 -1.0292
  396SOL    HW2 1583   0.764   1.763   2.365 -0.2986  1.0414  1.6360
  396SOL     MW 1584   0.801   1.839   2.384  0.2397 -0.0129 -0.4748
  397SOL     OW 1585   1.011   2.346   1.351 -0.0459 -0.0436 -0.0152
  397SOL    HW1 1586   1.029   2.361   1.260 -1.2885  0.4378  1.9127
  397SOL    HW2 1587   1.096   2.337   1.393  0.2468  0.6224  2.5423
  397SOL     MW 1588   1.025   2.347   1.345 -0.1712  0.1078  0.5766
  398SOL     OW 1589   0.663   2.661   0.759 -0.5746 -1.1227  0.6267
  398SOL    HW1 1590   0.614   2.588   0.735 -2.4363  2.1608  1.4721
  398SOL    HW2 1591   0.750   2.656   0.715  3.3028  1.3752  1.7869
  398SOL     MW 1592   0.668   2.651   0.750 -0.3086 -0.3599  0.8913
  399SOL     OW 1593   0.289   2.006   0.434  0.3238 -0.3400  0.4261
  399SOL    HW1 1594   0.214   2.068   0.435 -0.6463  2.2039 -0.7869
  399SOL    HW2 1595   0.342   2.045   0.356  3.0320 -0.2959  1.6642
  399SOL     MW 1596   0.286   2.019   0.424  0.5531  0.0015  0.4294
  400SOL     OW 1597   0.584   1.832   0.143 -0.3472 -0.1293  0.0671
  400SOL    HW1 1598   0.555   1.920   0.144  2.0961 -1.2114  0.0484
  400SOL    HW2 1599   0.545   1.805   0.228  0.3573  0.2551 -1.5303
  400SOL     MW 1600   0.575   1.840   0.154  0.0681 -0.2214 -0.1461
  401SOL     OW 1601   0.928   2.065   0.201 -0.4089 -0.0858  0.1021
  401SOL    HW1 1602   0.943   1.979   0.176 -2.1149  1.9646  4.2511
  401SOL    HW2 1603   0.997   2.087   0.267 -0.2320  0.7634  0.0075
  401SOL     MW 1604   0.939   2.057   0.206 -0.6106  0.2968  0.6370
  402SOL     OW 1605   0.697   2.935   1.696 -0.5687  0.1257 -0.2387
  402SOL    HW1 1606   0.710   2.861   1.761  2.1550 -0.9289  1.4946
  402SOL    HW2 1607   0.745   3.011   1.728 -0.4380  2.7241 -1.0212
  402SOL     MW 1608   0.705   2.935   1.709 -0.1921  0.3294 -0.1133
  403SOL     OW 1609   0.055   0.411   0.447 -0.1549 -1.0641  0.1808
  403SOL    HW1 1610   0.135   0.451   0.474 -1.1128 -0.5597  1.0713
  403SOL    HW2 1611   0.077   0.373   0.358  0.6903  0.8658  0.4784
  403SOL     MW 1612   0.068   0.411   0.439 -0.1697 -0.7429  0.3375
  404SOL     OW 1613   1.004   2.890   0.796 -0.5359 -0.3442 -0.0202
  404SOL    HW1 1614   1.042   2.820   0.737  0.3809  0.8321  1.9790
  404SOL    HW2 1615   1.023   2.980   0.759 -0.9885  0.3476  0.3658
  404SOL     MW 1616   1.011   2.892   0.783 -0.4747 -0.0977  0.2945
  405SOL     OW 1617   0.487   2.466   1.563 -0.0534 -0.1367  0.1057
  405SOL    HW1 1618   0.465   2.544   1.504  1.0315 -2.5853  2.1322
  405SOL    HW2 1619   0.452   2.381   1.525  0.3723 -4.1516  2.0001
  405SOL     MW 1620   0.480   2.465   1.550  0.1459 -0.9895  0.6230
  406SOL     OW 1621   0.410   2.310   1.105  0.2686  0.1334 -0.7259
  406SOL    HW1 1622   0.318   2.324   1.078 -1.5404 -4.1876  1.8320
  406SOL    HW2 1623   0.403   2.245   1.174 -2.6465 -1.2931  0.8261
  406SOL     MW 1624   0.397   2.303   1.111 -0.3547 -0.6249 -0.1836
  407SOL     OW 1625   0.051   2.713   1.118 -0.1909  0.1398 -0.3224
  407SOL    HW1 1626   0.094   2.705   1.209 -0.6682 -0.6044 -0.3389
  407SOL    HW2 1627   0.106   2.770   1.072 -0.2540 -3.7205  3.9109
  407SOL     MW 1628   0.064   2.720   1.124 -0.2622 -0.4677  0.2340
  408SOL     OW 1629   2.092   2.058   0.641 -0.5819 -0.7159  0.3249
  408SOL    HW1 1630   2.048   2.116   0.697  1.0836 -0.8280 -0.9266
  408SOL    HW2 1631   2.019   2.025   0.584  1.9497  0.1273  1.4142
  408SOL     MW 1632   2.076   2.061   0.641 -0.0282 -0.6195  0.3035
  409SOL     OW 1633   1.334   0.055   0.875  0.3934 -0.1602  0.2531
  409SOL    HW1 1634   1.383   0.135   0.875  0.2790  1.1113 -2.9183
  409SOL    HW2 1635   1.392  -0.009   0.924  2.9920  4.0223 -0.2607
  409SOL     MW 1636   1.348   0.057   0.882  0.7211  0.5594 -0.2331
  410SOL     OW 1637   1.102   2.459   1.119  0.3129 -1.1532  0.7854
  410SOL    HW1 1638   1.018   2.462   1.065  1.4418  0.6768 -0.4025
  410SOL    HW2 1639   1.154   2.384   1.082  0.2093  1.8119 -1.2001
  410SOL     MW 1640   1.098   2.450   1.107  0.4482 -0.5205  0.3667
  411SOL     OW 1641   1.942   0.082   2.857  0.4710 -0.3695  0.3838
  411SOL    HW1 1642   1.894   0.049   2.779  0.2577  0.4165 -3.8067
  411SOL    HW2 1643   1.882   0.073   2.932 -2.0199  0.3823  0.2297
  411SOL     MW 1644   1.927   0.076   2.856  0.1142 -0.1666 -0.1894
  412SOL     OW 1645   1.078   2.202   0.587  0.0303  0.1313  0.2878
  412SOL    HW1 1646   1.116   2.282   0.619 -1.7349  0.6020 -0.3721
  412SOL    HW2 1647   0.992   2.222   0.559  0.9417 -0.0986 -1.5755
  412SOL     MW 1648   1.072   2.215   0.587 -0.0824  0.1630 -0.0451
  413SOL     OW 1649   0.551   2.783   0.089 -0.2893 -0.8683 -0.0701
  413SOL    HW1 1650   0.602   2.703   0.106  0.9182 -0.7688  0.6548
  413SOL    HW2 1651   0.581   2.811   0.001  3.2292  2.5008  1.4592
  413SOL     MW 1652   0.561   2.776   0.079  0.3342 -0.4107  0.2273
  414SOL     OW 1653   1.974   3.061   1.087 -0.2535 -0.7680  0.0118
  414SOL    HW1 1654   1.915   3.028   1.013 -1.1805 -3.5820  2.5167
  414SOL    HW2 1655   2.048   3.000   1.091  0.2696 -1.2213 -1.0485
  414SOL     MW 1656   1.976   3.049   1.078 -0.3068 -1.1991  0.2024
  415SOL     OW 1657   1.709   2.656   1.075 -0.2555  0.2609 -0.1036
  415SOL    HW1 1658   1.656   2.597   1.133 -0.5521 -2.9357 -1.6582
  415SOL    HW2 1659   1.794   2.666   1.123  1.9191  0.1021  1.0271
  415SOL     MW 1660   1.714   2.650   1.089 -0.0077 -0.1818 -0.1595
  416SOL     OW 1661   0.589   1.918   1.383  0.0880 -0.0324 -0.3759
  416SOL    HW1 1662   0.540   2.002   1.373 -1.6358 -0.1268 -1.3610
  416SOL    HW2 1663   0.579   1.883   1.296  0.3379 -0.0478 -1.4728
  416SOL     MW 1664   0.581   1.924   1.370 -0.1064 -0.0469 -0.6506
  417SOL     OW 1665   1.012   3.041   2.037  0.0166  0.3413  0.2969
  417SOL    HW1 1666   0.941   3.027   2.098 -0.7138  1.1579 -0.0458
  417SOL    HW2 1667   0.991   2.998   1.956  1.8427  0.9332  1.7947
  417SOL     MW 1668   1.000   3.033   2.034  0.1612  0.5272  0.4493
  418SOL     OW 1669   0.669   2.987   0.234 -0.9406 -0.2446  0.1067
  418SOL    HW1 1670   0.737   2.978   0.169 -1.3448  2.5604 -1.1714
  418SOL    HW2 1671   0.607   2.925   0.194  1.5856  1.4119 -0.2443
  418SOL     MW 1672   0.670   2.978   0.220 -0.6606  0.3441 -0.1082
  419SOL     OW 1673   0.440   2.657   1.376 -0.3501 -0.7525  0.3641
  419SOL    HW1 1674   0.507   2.722   1.400 -0.2926  2.3558 -2.2947
  419SOL    HW2 1675   0.476   2.606   1.301 -1.3960  2.1074 -2.0865
  419SOL     MW 1676   0.454   2.659   1.369 -0.4805  0.0349 -0.3101
  420SOL     OW 1677   0.780   2.159   0.992 -0.3922 -0.9572 -0.3343
  420SOL    HW1 1678   0.739   2.171   1.076  0.0066  0.2925  0.9656
  420SOL    HW2 1679   0.796   2.245   0.959 -1.5182 -1.6837  0.9222
  420SOL     MW 1680   0.776   2.172   0.999 -0.4881 -0.8882  0.0030
  421SOL     OW 1681   2.942   0.063   0.045  0.1399  0.0186  0.1087
  421SOL    HW1 1682   2.896   0.028  -0.032 -1.2958 -1.9751 -0.2367
  421SOL    HW2 1683   2.953  -0.013   0.100 -1.2156  3.0701 -0.4330
  421SOL     MW 1684   2.938   0.049   0.042 -0.2284  0.1582 -0.0084
  422SOL     OW 1685   0.857   2.444   0.954 -0.7438  0.2499  0.6278
  422SOL    HW1 1686   0.774   2.490   0.969  0.1175  1.8806  1.1471
  422SOL    HW2 1687   0.882   2.481   0.871 -2.0653  1.8766  0.1352
  422SOL     MW 1688   0.849   2.455   0.945 -0.8045  0.6797  0.6313
  423SOL     OW 1689   1.533   0.161   0.506 -0.4982 -0.0297  0.2690
  423SOL    HW1 1690   1.513   0.152   0.412 -0.3509 -0.9099  2.0263
  423SOL    HW2 1691   1.514   0.253   0.525 -1.7550  0.3901 -3.1179
  423SOL     MW 1692   1.528   0.172   0.496 -0.6446 -0.0904  0.0540
  424SOL     OW 1693   0.686   2.272   1.248 -0.0724 -0.0257  0.3593
  424SOL    HW1 1694   0.588   2.245   1.250  1.0355  1.0205 -1.0221
  424SOL    HW2 1695   0.719   2.242   1.333 -4.6745  0.3964  0.1643
  424SOL     MW 1696   0.677   2.264   1.259 -0.5335  0.1680  0.1513
  425SOL     OW 1697   1.738   2.828   1.943 -0.5491  0.1219 -0.5395
  425SOL    HW1 1698   1.757   2.848   1.852 -0.3278 -2.7072  0.2691
  425SOL    HW2 1699   1.767   2.736   1.953 -2.4139 -0.7912 -1.6762
  425SOL     MW 1700   1.744   2.818   1.933 -0.7660 -0.3719 -0.5828
  426SOL     OW 1701   0.782   1.684   1.935  0.4721 -0.2348 -0.5015
  426SOL    HW1 1702   0.712   1.698   1.873 -1.6005  0.5460 -1.2641
  426SOL    HW2 1703   0.776   1.754   1.997  0.9037 -2.3060  0.8103
  426SOL     MW 1704   0.772   1.695   1.935  0.2556 -0.4051 -0.4290
  427SOL     OW 1705   0.354   1.565   1.887 -0.4926 -0.2275 -0.1146
  427SOL    HW1 1706   0.352   1.625   1.966 -2.1655  1.5001  0.5927
  427SOL    HW2 1707   0.263   1.531   1.895 -1.4640 -3.0874 -0.2719
  427SOL     MW 1708   0.342   1.568   1.899 -0.8415 -0.3769 -0.0420
  428SOL     OW 1709   0.559   2.538   1.162  0.3624 -0.2934  0.2192
  428SOL    HW1 1710   0.641   2.521   1.208  0.4133 -3.1676 -1.3867
  428SOL    HW2 1711   0.522   2.449   1.137  1.6889  0.0493 -2.8579
  428SOL     MW 1712   0.565   2.524   1.165  0.5442 -0.6274 -0.3987
  429SOL     OW 1713   1.344   2.625   1.072  0.2644 -0.4984  0.1055
  429SOL    HW1 1714   1.262   2.577   1.090 -1.0583 -0.4623  1.5316
  429SOL    HW2 1715   1.312   2.701   1.015 -0.3687 -0.3868 -1.4897
  429SOL     MW 1716   1.329   2.629   1.067  0.0064 -0.4789  0.0832
  430SOL     OW 1717   1.141   2.682   0.658 -0.4755  0.0600 -0.2199
  430SOL    HW1 1718   1.174   2.590   0.659 -1.5768 -0.8741 -1.0045
  430SOL    HW2 1719   1.092   2.678   0.577  0.3315 -0.2172  0.0368
  430SOL     MW 1720   1.139   2.669   0.648 -0.5144 -0.0998 -0.2896
  431SOL     OW 1721   0.337   1.966   1.131  0.1008 -0.0078  0.0603
  431SOL    HW1 1722   0.409   1.907   1.135  2.9162  0.3983 -0.4194
  431SOL    HW2 1723   0.306   1.962   1.042  0.7760 -1.2850  1.5805
  431SOL     MW 1724   0.342   1.958   1.120  0.5614 -0.1227  0.1976
  432SOL     OW 1725   0.033   0.078   1.169  0.0464 -0.0123  0.3891
  432SOL    HW1 1726   0.047   0.097   1.268  0.1320  1.2085 -1.4077
  432SOL    HW2 1727  -0.047   0.020   1.157  0.1416 -0.1402 -0.2308
  432SOL     MW 1728   0.025   0.073   1.181  0.0703  0.1319  0.0702
  433SOL     OW 1729   0.620   2.883   1.438  0.2035  0.6057  0.0204
  433SOL    HW1 1730   0.668   2.876   1.522 -0.7467  0.1527 -1.9036
  433SOL    HW2 1731   0.695   2.911   1.377 -0.2830 -2.0883 -1.4219
  433SOL     MW 1732   0.636   2.886   1.441  0.0140  0.1905 -0.4237
  434SOL     OW 1733   1.540   2.836   1.552  0.1413  0.1272 -0.3764
  434SOL    HW1 1734   1.450   2.874   1.543 -1.9127  0.8478  1.9145
  434SOL    HW2 1735   1.559   2.808   1.464  0.5714 -1.4343  2.5268
  434SOL     MW 1736   1.531   2.837   1.539 -0.0729  0.0162  0.3089
  435SOL     OW 1737   2.871   1.759   0.216 -0.1933 -0.4714 -0.5590
  435SOL    HW1 1738   2.914   1.826   0.168  1.6002  0.3877  0.2247
  435SOL    HW2 1739   2.842   1.709   0.136 -2.2910 -2.5043 -3.0931
  435SOL     MW 1740   2.873   1.761   0.199 -0.2334 -0.6263 -0.7900
  436SOL     OW 1741   1.392   2.756   0.309  0.0909 -0.6378 -0.1111
  436SOL    HW1 1742   1.455   2.765   0.381  0.3302  0.8930  0.5639
  436SOL    HW2 1743   1.337   2.830   0.335 -0.5006 -0.5410  0.9147
  436SOL     MW 1744   1.393   2.767   0.322  0.0444 -0.4231  0.1133
  437SOL     OW 1745   0.889   2.929   1.374  0.1501  0.0174  0.0466
  437SOL    HW1 1746   0.930   3.013   1.343 -1.2293  1.9375 -0.4972
  437SOL    HW2 1747   0.899   2.872   1.298  0.5311 -0.2712  1.5117
  437SOL     MW 1748   0.896   2.933   1.360  0.0183  0.2327  0.1682
  438SOL     OW 1749   0.897   2.622   1.980  0.0666  0.5306 -0.5628
  438SOL    HW1 1750   0.878   2.557   2.044 -1.9555 -0.8038 -2.4900
  438SOL    HW2 1751   0.850   2.580   1.908  2.2780 -1.4722  1.0129
  438SOL     MW 1752   0.888   2.608   1.979  0.0916  0.0903 -0.6091
  439SOL     OW 1753   1.163   2.175   0.328 -0.5147  0.1508  0.0505
  439SOL    HW1 1754   1.117   2.216   0.404  0.8637  2.0487  3.1988
  439SOL    HW2 1755   1.178   2.240   0.260  0.4253 -0.5817 -2.5815
  439SOL     MW 1756   1.159   2.189   0.329 -0.2088  0.3045  0.1187
  440SOL     OW 1757   1.600   2.970   3.031 -0.0880 -0.1164  0.3129
  440SOL    HW1 1758   1.584   2.955   3.125  0.2392 -1.7548 -1.6415
  440SOL    HW2 1759   1.664   2.898   3.005 -0.0366 -0.2885  2.0991
  440SOL     MW 1760   1.606   2.959   3.040 -0.0381 -0.3553  0.2907
  441SOL     OW 1761   0.339   2.572   0.532  0.3320  0.5338 -0.3818
  441SOL    HW1 1762   0.322   2.554   0.438 -0.5403 -0.2421 -1.3331
  441SOL    HW2 1763   0.360   2.669   0.524  0.9783  1.0688  2.1201
  441SOL     MW 1764   0.340   2.583   0.519  0.3022  0.5020 -0.1772
  442SOL     OW 1765   3.092   2.314   0.636 -1.0681  0.0156 -0.0666
  442SOL    HW1 1766   3.106   2.409   0.627 -0.4100 -0.1352  2.4216
  442SOL    HW2 1767   2.998   2.303   0.652 -0.1469 -1.4059  2.2959
  442SOL     MW 1768   3.081   2.325   0.637 -0.8597 -0.1919  0.5734
  443SOL     OW 1769   1.362   1.736   1.817 -0.1281  0.1129  0.1246
  443SOL    HW1 1770   1.303   1.762   1.740 -4.0029 -0.4142 -1.6452
  443SOL    HW2 1771   1.312   1.660   1.846 -0.2375  1.1821 -1.7242
  443SOL     MW 1772   1.347   1.729   1.811 -0.6538  0.1844 -0.3529
  444SOL     OW 1773   0.828   2.576   1.570 -0.2033  0.0300 -1.1995
  444SOL    HW1 1774   0.904   2.530   1.600  2.2671  0.8192 -1.0523
  444SOL    HW2 1775   0.763   2.547   1.644  1.4191 -0.4087  1.9247
  444SOL     MW 1776   0.829   2.566   1.584  0.3367  0.0762 -0.7679
  445SOL     OW 1777   0.992   0.074   1.266 -0.3574 -0.5435  0.0419
  445SOL    HW1 1778   0.946   0.157   1.266 -1.9370 -0.6541  0.6505
  445SOL    HW2 1779   1.062   0.091   1.200  1.5504 -1.2684  3.6610
  445SOL     MW 1780   0.995   0.087   1.257 -0.3141 -0.6537  0.5997
  446SOL     OW 1781   2.747   2.869   1.044 -0.5063 -0.7103  0.4107
  446SOL    HW1 1782   2.667   2.884   0.993 -1.0206 -1.4937 -1.1587
  446SOL    HW2 1783   2.777   2.777   1.030 -1.1266 -1.1825  1.2068
  446SOL     MW 1784   2.740   2.859   1.036 -0.6560 -0.8759  0.3087
  447SOL     OW 1785   3.041   2.018   1.715  0.1205 -0.0678 -0.6126
  447SOL    HW1 1786   3.119   1.952   1.730 -0.9027 -1.1179  0.9169
  447SOL    HW2 1787   2.969   1.981   1.659 -0.9256 -2.7501  0.4515
  447SOL     MW 1788   3.042   2.004   1.709 -0.1526 -0.5602 -0.2704
  448SOL     OW 1789   1.684   2.331   1.670  0.1349 -0.1352  0.1167
  448SOL    HW1 1790   1.617   2.265   1.686  2.2599  0.9095 -0.4228
  448SOL    HW2 1791   1.616   2.406   1.660 -0.7872 -1.2210  2.5238
  448SOL     MW 1792   1.666   2.332   1.671  0.2936 -0.1407  0.3631
  449SOL     OW 1793   0.834   2.968   0.448 -0.1422  0.5890  0.1199
  449SOL    HW1 1794   0.776   2.986   0.371 -0.1620 -1.7943 -0.9178
  449SOL    HW2 1795   0.777   2.963   0.522  0.7452  1.7257 -0.4492
  449SOL     MW 1796   0.819   2.970   0.447 -0.0277  0.4245 -0.0921
  450SOL     OW 1797   1.223   2.425   0.687  0.4740 -0.0736  0.2138
  450SOL    HW1 1798   1.237   2.403   0.776  0.1183  0.9243 -1.1450
  450SOL    HW2 1799   1.307   2.422   0.641 -1.0487 -0.2640 -2.4003
  450SOL     MW 1800   1.236   2.422   0.692  0.2262  0.0330 -0.3104
  451SOL     OW 1801   0.594   2.032   1.658 -0.3679  0.0035  0.1238
  451SOL    HW1 1802   0.665   2.099   1.660  0.7021  3.8703 -1.9497
  451SOL    HW2 1803   0.613   1.984   1.579  0.6332  3.0699  0.2573
  451SOL     MW 1804   0.606   2.035   1.648 -0.0947  0.9183 -0.1322
  452SOL     OW 1805   0.281   2.744   0.147  0.0182 -0.1860  0.0432
  452SOL    HW1 1806   0.374   2.744   0.142  1.3943  1.6438 -1.7040
  452SOL    HW2 1807   0.257   2.725   0.048 -1.1005 -0.0815  0.8198
  452SOL     MW 1808   0.290   2.741   0.133  0.0522  0.0692 -0.0849
  453SOL     OW 1809   0.394   2.980   1.686  0.6196 -0.2726  0.2631
  453SOL    HW1 1810   0.488   2.994   1.666  0.2094 -0.3553  2.8019
  453SOL    HW2 1811   0.338   2.980   1.603 -2.1343 -2.5119 -0.2630
  453SOL     MW 1812   0.399   2.982   1.672  0.2022 -0.5790  0.5287
  454SOL     OW 1813   1.053   2.800   1.109 -0.2625 -0.2667  0.8897
  454SOL    HW1 1814   1.028   2.718   1.074 -0.2535  0.0924  2.5307
  454SOL    HW2 1815   0.992   2.871   1.086 -1.2733  0.6353 -1.8229
  454SOL     MW 1816   1.041   2.799   1.101 -0.3947 -0.1003  0.7483
  455SOL     OW 1817   1.554   2.971   0.192  0.0694  0.2545  0.0928
  455SOL    HW1 1818   1.618   2.937   0.253  0.6439  2.3628  2.0830
  455SOL    HW2 1819   1.473   2.936   0.223  0.7186  0.7821  0.3272
  455SOL     MW 1820   1.551   2.962   0.204  0.2309  0.6023  0.3863
  456SOL     OW 1821   2.927   0.343   1.364 -0.5085  0.0430 -0.8483
  456SOL    HW1 1822   2.892   0.264   1.311 -2.4020 -2.4001  0.2216
  456SOL    HW2 1823   2.976   0.395   1.293  0.3644  0.0241 -0.1135
  456SOL     MW 1824   2.929   0.340   1.348 -0.6432 -0.2818 -0.6102
  457SOL     OW 1825   0.845   1.546   2.999  0.4561  0.1762 -0.0609
  457SOL    HW1 1826   0.787   1.516   3.072  0.0627  0.6059  1.8315
  457SOL    HW2 1827   0.901   1.462   2.990  0.2360 -1.2424 -2.0273
  457SOL     MW 1828   0.845   1.531   3.008  0.3751  0.0457 -0.0706
  458SOL     OW 1829   1.471   1.401   0.643  0.1671 -0.2380 -0.5383
  458SOL    HW1 1830   1.393   1.411   0.692  1.9644  1.1659  1.2212
  458SOL    HW2 1831   1.453   1.348   0.566 -0.4358  1.2458  2.5983
  458SOL     MW 1832   1.459   1.396   0.640  0.3247  0.1430  0.1077
  459SOL     OW 1833   1.552   0.131   0.236 -0.2733  0.1527  0.0849
  459SOL    HW1 1834   1.543   0.042   0.197 -0.7028 -0.3386  1.5506
  459SOL    HW2 1835   1.509   0.184   0.164  1.2548 -1.8050  0.0965
  459SOL     MW 1836   1.545   0.126   0.221 -0.1283 -0.1704  0.2798
  460SOL     OW 1837   1.719   2.165   0.615  0.4665 -0.7285  0.4271
  460SOL    HW1 1838   1.630   2.168   0.637  0.6483  2.9847 -1.8635
  460SOL    HW2 1839   1.746   2.071   0.588  4.1655  2.5974 -0.6005
  460SOL     MW 1840   1.711   2.153   0.614  0.9785  0.2002 -0.0107
  461SOL     OW 1841   0.541   2.419   0.613  0.8084 -0.0233  0.3375
  461SOL    HW1 1842   0.460   2.463   0.588 -0.3795  3.6131  3.9270
  461SOL    HW2 1843   0.504   2.407   0.702  0.2824  3.5482  1.3792
  461SOL     MW 1844   0.526   2.423   0.621  0.5822  0.9277  0.9486
  462SOL     OW 1845   0.353   0.276   1.273 -0.6765 -1.0108 -0.2206
  462SOL    HW1 1846   0.380   0.223   1.206 -0.3877 -0.5230 -1.2988
  462SOL    HW2 1847   0.435   0.315   1.320  0.6333  0.3762 -2.4283
  462SOL     MW 1848   0.367   0.274   1.270 -0.4656 -0.7634 -0.6542
  463SOL     OW 1849   1.015   0.041   0.725 -0.0225 -0.1979 -0.2520
  463SOL    HW1 1850   1.032   0.067   0.634 -2.3150 -0.2270  0.3125
  463SOL    HW2 1851   0.915   0.046   0.736 -0.0065  0.5605 -1.1644
  463SOL     MW 1852   1.004   0.045   0.714 -0.3229 -0.1016 -0.2979
  464SOL     OW 1853   0.766   2.944   2.151 -0.5723 -0.0099  0.4852
  464SOL    HW1 1854   0.740   2.849   2.155 -1.2450  0.4653  1.1683
  464SOL    HW2 1855   0.764   2.960   2.252 -2.7347 -0.2697  3.2270
  464SOL     MW 1856   0.762   2.934   2.165 -0.9464  0.0186  0.9371
  465SOL     OW 1857   0.748   0.222   0.500 -0.1024  0.8681 -0.1026
  465SOL    HW1 1858   0.756   0.152   0.569  1.8365 -0.2324  0.3760
  465SOL    HW2 1859   0.737   0.171   0.422  0.0416  1.1868  0.0170
  465SOL     MW 1860   0.748   0.206   0.499  0.1724  0.7649 -0.0237
  466SOL     OW 1861   1.056   1.960   0.723 -0.2205 -0.1402  0.1939
  466SOL    HW1 1862   1.075   1.902   0.647 -0.3044  0.3348 -0.2280
  466SOL    HW2 1863   1.062   2.050   0.686 -1.5178  0.0042  0.2677
  466SOL     MW 1864   1.060   1.964   0.708 -0.4027 -0.0585  0.1480
  467SOL     OW 1865   1.215   2.276   0.969  0.1856 -0.2531  0.0357
  467SOL    HW1 1866   1.310   2.299   0.989 -0.7612  1.8426 -0.6008
  467SOL    HW2 1867   1.224   2.195   0.927 -1.6495  1.0534  2.1604
  467SOL     MW 1868   1.229   2.269   0.966 -0.1814  0.1958  0.2321
  468SOL     OW 1869   0.328   2.620   2.001  0.2626 -0.0653  0.3336
  468SOL    HW1 1870   0.330   2.561   1.928 -3.7369  1.4222  0.2842
  468SOL    HW2 1871   0.372   2.695   1.965  3.6371 -2.0809  1.4537
  468SOL     MW 1872   0.334   2.622   1.986  0.1802 -0.1350  0.4748
  469SOL     OW 1873   0.396   2.113   1.835  0.2923  0.5805 -0.3875
  469SOL    HW1 1874   0.306   2.070   1.830  0.6906 -0.7577 -0.3101
  469SOL    HW2 1875   0.437   2.089   1.751  0.3335  0.6229  2.3179
  469SOL     MW 1876   0.389   2.104   1.823  0.3503  0.4095 -0.0204
  470SOL     OW 1877   3.052   2.536   0.168  0.1067  0.1263  0.4084
  470SOL    HW1 1878   2.967   2.507   0.210 -1.0499  1.3357 -1.8092
  470SOL    HW2 1879   3.031   2.566   0.080 -1.3935 -1.6080  0.7913
  470SOL     MW 1880   3.038   2.536   0.162 -0.2438  0.0570  0.1664
  471SOL     OW 1881   1.203   2.745   1.350  0.5887  0.2754 -0.2852
  471SOL    HW1 1882   1.138   2.728   1.419 -1.6917  0.0663 -0.1487
  471SOL    HW2 1883   1.160   2.766   1.262  2.4055 -0.1936 -2.0459
  471SOL     MW 1884   1.189   2.745   1.347  0.5275  0.1859 -0.4995
  472SOL     OW 1885   2.920   2.117   0.322 -0.2044 -0.3644  0.2396
  472SOL    HW1 1886   2.944   2.078   0.234  0.4775 -2.0003  4.0932
  472SOL    HW2 1887   2.899   2.040   0.377 -0.7525  2.1477 -0.3696
  472SOL     MW 1888   2.920   2.101   0.318 -0.1868 -0.2488  0.6677
  473SOL     OW 1889   0.790   2.537   1.304 -0.3178 -0.0919  0.5159
  473SOL    HW1 1890   0.813   2.446   1.291 -1.0419  2.1080 -2.2536
  473SOL    HW2 1891   0.790   2.557   1.399 -1.8199  2.8819  1.1970
  473SOL     MW 1892   0.793   2.527   1.315 -0.6116  0.5907  0.2403
  474SOL     OW 1893   0.806   2.218   1.745 -0.8848  0.0080 -0.6383
  474SOL    HW1 1894   0.898   2.216   1.790  2.0359  0.8764  0.4316
  474SOL    HW2 1895   0.817   2.220   1.643 -2.1066 -2.0176  0.9343
  474SOL     MW 1896   0.820   2.218   1.738 -0.6606 -0.1447 -0.2897
  475SOL     OW 1897   1.633   3.061   1.427  0.1876  0.1747  0.2631
  475SOL    HW1 1898   1.574   3.104   1.371 -0.1618 -2.9741 -0.8719
  475SOL    HW2 1899   1.580   2.998   1.476 -0.5148 -0.3705  1.5200
  475SOL     MW 1900   1.618   3.058   1.426  0.0488 -0.3127  0.2792
  476SOL     OW 1901   1.464   2.597   0.807 -0.2180  0.0990 -0.1229
  476SOL    HW1 1902   1.475   2.569   0.902  0.5980  1.2007  1.6872
  476SOL    HW2 1903   1.486   2.694   0.815  0.5336  1.0881  3.8971
  476SOL     MW 1904   1.469   2.606   0.821 -0.0111  0.3748  0.6463
  477SOL     OW 1905   0.889   2.506   0.655 -0.1247  0.0243 -0.3123
  477SOL    HW1 1906   0.904   2.568   0.590  0.0490  2.5055  0.2392
  477SOL    HW2 1907   0.872   2.426   0.601  0.9828 -2.7650  2.4995
  477SOL     MW 1908   0.888   2.504   0.639  0.0443 -0.0163  0.1315
  478SOL     OW 1909   0.237   2.613   0.912 -0.2418 -0.3158 -0.0866
  478SOL    HW1 1910   0.273   2.708   0.910  3.0281  1.9982 -0.5646
  478SOL    HW2 1911   0.318   2.563   0.902 -0.0345  1.1314  0.9749
  478SOL     MW 1912   0.253   2.619   0.910  0.2170  0.1805 -0.0096
  479SOL     OW 1913   1.388   1.945   1.309  0.4925  0.1048 -0.5317
  479SOL    HW1 1914   1.358   1.982   1.393 -1.6579 -0.0538  2.8728
  479SOL    HW2 1915   1.451   1.879   1.336 -1.0555 -0.8137 -0.3453
  479SOL     MW 1916   1.392   1.941   1.323  0.0045 -0.0373 -0.0579
  480SOL     OW 1917   1.842   2.367   1.289  0.2282  0.4856  0.3628
  480SOL    HW1 1918   1.847   2.279   1.319  0.5941 -0.0422 -2.5242
  480SOL    HW2 1919   1.875   2.364   1.196 -0.0260  0.6949 -1.2962
  480SOL     MW 1920   1.847   2.355   1.281  0.2429  0.4436 -0.2370
  481SOL     OW 1921   1.207   0.126   1.116  0.3003 -0.3791  0.0814
  481SOL    HW1 1922   1.247   0.094   1.033  0.4843 -0.1503 -2.9471
  481SOL    HW2 1923   1.202   0.224   1.110 -2.0646 -0.8434 -1.9930
  481SOL     MW 1924   1.211   0.135   1.104  0.0126 -0.4102 -0.5919
  482SOL     OW 1925   1.027   0.048   0.420  0.2806  0.1178  0.0284
  482SOL    HW1 1926   0.962  -0.022   0.437  0.7353  0.0396  1.2552
  482SOL    HW2 1927   0.988   0.116   0.368 -0.0883 -1.9230 -1.5101
  482SOL     MW 1928   1.013   0.048   0.416  0.2919 -0.1618 -0.0128
  483SOL     OW 1929   0.346   2.845   0.570 -0.0123 -0.0667 -0.9062
  483SOL    HW1 1930   0.321   2.881   0.484  2.0071 -0.8270  2.1728
  483SOL    HW2 1931   0.320   2.917   0.626  0.5654  2.7453 -2.9042
  483SOL     MW 1932   0.339   2.859   0.566  0.3304  0.2040 -0.7636
  484SOL     OW 1933   1.671   1.868   1.450 -0.0941 -0.2415  0.6084
  484SOL    HW1 1934   1.731   1.935   1.417  4.1732  0.2227 -0.8659
  484SOL    HW2 1935   1.679   1.869   1.545 -0.4967 -2.0110  0.4846
  484SOL     MW 1936   1.680   1.877   1.458  0.4158 -0.4138  0.3976
  485SOL     OW 1937   0.565   2.313   0.348 -0.2034 -0.2810  0.2805
  485SOL    HW1 1938   0.569   2.354   0.437 -2.6162  4.1099 -1.9263
  485SOL    HW2 1939   0.553   2.385   0.291  3.4446 -1.7438  4.1935
  485SOL     MW 1940   0.564   2.328   0.353 -0.0404  0.1053  0.5056
  486SOL     OW 1941   0.117   2.456   1.439 -0.1936  0.2429  0.0601
  486SOL    HW1 1942   0.161   2.539   1.402 -0.4833 -0.4705  0.2325
  486SOL    HW2 1943   0.097   2.472   1.531  1.2637 -0.7729 -2.5822
  486SOL     MW 1944   0.121   2.469   1.446 -0.0396  0.0147 -0.2658
  487SOL     OW 1945   1.284   1.607   0.963 -0.1425  0.2993 -0.1355
  487SOL    HW1 1946   1.239   1.689   0.953  0.3427 -1.1908  0.7369
  487SOL    HW2 1947   1.375   1.624   0.990  0.4875 -0.8053 -0.5014
  487SOL     MW 1948   1.290   1.620   0.965  0.0047 -0.0431 -0.0686
  488SOL     OW 1949   1.515   1.849   0.602  0.4545  0.5567 -0.4157
  488SOL    HW1 1950   1.479   1.932   0.567 -1.7576 -0.3212 -2.5868
  488SOL    HW2 1951   1.457   1.780   0.563 -0.8174  1.1451  2.6837
  488SOL     MW 1952   1.502   1.851   0.592 -0.0052  0.5185 -0.2932
  489SOL     OW 1953   0.724   0.776   0.517  0.3248 -0.0272 -0.3994
  489SOL    HW1 1954   0.769   0.691   0.523  3.4027  0.0503  1.1197
  489SOL    HW2 1955   0.704   0.809   0.603  0.7145  1.1460 -2.6778
  489SOL     MW 1956   0.728   0.769   0.529  0.7823  0.1378 -0.4996
  490SOL     OW 1957   1.402   2.071   0.431  0.0544 -0.1071 -0.2195
  490SOL    HW1 1958   1.470   2.133   0.401  0.8321 -0.4228 -0.5516
  490SOL    HW2 1959   1.321   2.115   0.404 -0.1512 -0.9886  0.5010
  490SOL     MW 1960   1.401   2.085   0.423  0.1299 -0.2650 -0.1682
  491SOL     OW 1961   1.271   2.974   0.413 -0.5006 -0.4352 -0.3301
  491SOL    HW1 1962   1.314   3.012   0.494  0.6990  2.5017 -1.3476
  491SOL    HW2 1963   1.198   3.026   0.402 -1.1028 -0.6421 -0.2360
  491SOL     MW 1964   1.267   2.986   0.422 -0.4218 -0.0750 -0.4519
  492SOL     OW 1965   1.436   2.156   0.680  0.3102  0.2578 -0.3443
  492SOL    HW1 1966   1.392   2.134   0.599 -1.0338  1.3382  0.8959
  492SOL    HW2 1967   1.390   2.100   0.743 -0.8120 -0.3006  0.7479
  492SOL     MW 1968   1.424   2.146   0.678 -0.0152  0.3266 -0.0366
  493SOL     OW 1969   0.206   2.991   0.389  0.6571 -0.0408  0.4462
  493SOL    HW1 1970   0.126   3.005   0.446  1.3036  4.2890  2.3920
  493SOL    HW2 1971   0.183   3.025   0.302 -0.8103 -1.0327 -1.2080
  493SOL     MW 1972   0.192   2.997   0.385  0.5488  0.3996  0.4847
  494SOL     OW 1973   0.393   2.403   1.811  0.1073  0.0301  0.4600
  494SOL    HW1 1974   0.402   2.307   1.843 -0.5743 -0.6135 -1.1734
  494SOL    HW2 1975   0.429   2.420   1.721 -0.2493  1.9862 -1.3633
  494SOL     MW 1976   0.399   2.393   1.803 -0.0297  0.2032  0.0039
  495SOL     OW 1977   2.905   1.663   2.733  0.4591  0.3836 -0.4927
  495SOL    HW1 1978   2.893   1.736   2.799  1.0731  0.4111 -1.3763
  495SOL    HW2 1979   2.895   1.585   2.786 -0.5722 -2.2226 -1.6225
  495SOL     MW 1980   2.902   1.662   2.748  0.4040  0.0434 -0.7584
  496SOL     OW 1981   2.754   2.264   2.715 -0.1643 -0.3263 -0.3548
  496SOL    HW1 1982   2.774   2.181   2.754 -1.4335  0.0948 -0.4714
  496SOL    HW2 1983   2.834   2.316   2.727  3.0418 -1.6635  1.1956
  496SOL     MW 1984   2.767   2.260   2.721  0.0913 -0.4472 -0.1657
  497SOL     OW 1985   1.495   2.325   2.550 -0.0351 -0.2883 -0.1593
  497SOL    HW1 1986   1.496   2.273   2.460  0.7056  0.1788 -1.9138
  497SOL    HW2 1987   1.453   2.259   2.610  0.4134  0.1122  1.5695
  497SOL     MW 1988   1.490   2.309   2.546  0.1218 -0.1739 -0.1627
  498SOL     OW 1989   1.501   2.800   2.290  0.5638  0.2347 -0.3956
  498SOL    HW1 1990   1.503   2.715   2.243  2.1891 -0.4133  1.5567
  498SOL    HW2 1991   1.570   2.792   2.352  1.0065  0.1510  0.4187
  498SOL     MW 1992   1.510   2.788   2.292  0.8367  0.1381 -0.0306
  499SOL     OW 1993   0.940   0.140   0.082 -0.3223  0.2721 -0.5974
  499SOL    HW1 1994   0.867   0.176   0.138  1.8301 -0.1222  2.8303
  499SOL    HW2 1995   0.906   0.052   0.065  0.9033 -0.1672 -3.0124
  499SOL     MW 1996   0.926   0.134   0.087  0.1234  0.1621 -0.4638
  500SOL     OW 1997   1.027   2.511   2.748  0.0597  0.0043  0.0295
  500SOL    HW1 1998   1.056   2.484   2.835 -1.4354 -2.5529 -0.5400
  500SOL    HW2 1999   0.978   2.597   2.763  0.2969 -0.0701  2.8659
  500SOL     MW 2000   1.024   2.518   2.762 -0.1063 -0.3429  0.3286
  501SOL     OW 2001   1.727   2.223   0.016 -0.2838 -0.0955  0.1345
  501SOL    HW1 2002   1.716   2.320   0.027 -1.0872  0.5744 -0.1305
  501SOL    HW2 2003   1.821   2.227   0.002  0.0014  0.8665  0.2222
  501SOL     MW 2004   1.738   2.237   0.015 -0.3522  0.1198  0.1111
  502SOL     OW 2005   0.217   2.698   2.987 -0.9400 -0.0817 -0.6033
  502SOL    HW1 2006   0.134   2.653   2.979  0.3658  1.1039  0.9465
  502SOL    HW2 2007   0.215   2.765   2.920 -2.3979  0.6625 -0.3077
  502SOL     MW 2008   0.206   2.701   2.977 -0.9601  0.1729 -0.3598
  503SOL     OW 2009   1.129   2.597   2.125  0.2014  0.1691  0.0090
  503SOL    HW1 2010   1.199   2.605   2.063 -2.7527 -0.0190  1.1918
  503SOL    HW2 2011   1.052   2.610   2.071  0.4540 -3.4130 -1.4254
  503SOL     MW 2012   1.128   2.599   2.110 -0.1550 -0.3283 -0.0242
  504SOL     OW 2013   0.094   2.612   2.126  0.4266 -0.1224 -0.4320
  504SOL    HW1 2014   0.164   2.599   2.063  2.2604 -2.9019  0.3513
  504SOL    HW2 2015   0.093   2.536   2.180  0.7128  0.8359 -3.1397
  504SOL     MW 2016   0.103   2.600   2.125  0.7063 -0.3626 -0.6859
  505SOL     OW 2017   1.611   2.703   2.732  0.1723 -0.8041 -0.2666
  505SOL    HW1 2018   1.621   2.730   2.640 -0.0362 -0.7576 -4.6017
  505SOL    HW2 2019   1.547   2.760   2.776  1.3730 -0.4190  0.6930
  505SOL     MW 2020   1.604   2.714   2.726  0.3032 -0.7472 -0.7120
  506SOL     OW 2021   1.591   0.034   2.817  0.1459 -0.5724  0.1562
  506SOL    HW1 2022   1.609  -0.023   2.897 -0.0647  2.0799 -1.2177
  506SOL    HW2 2023   1.645   0.009   2.744  2.3455 -0.7303 -0.6789
  506SOL     MW 2024   1.601   0.023   2.818  0.4083 -0.2433 -0.1353
  507SOL     OW 2025   0.867   2.702   2.845  0.1603 -0.0771 -0.1787
  507SOL    HW1 2026   0.837   2.776   2.789 -1.4092 -1.5573 -1.1178
  507SOL    HW2 2027   0.785   2.651   2.853 -0.8397 -1.1197  1.8124
  507SOL     MW 2028   0.852   2.705   2.838 -0.1787 -0.4099 -0.0399
  508SOL     OW 2029   1.144   2.073   2.590 -0.6763 -0.2431 -0.0872
  508SOL    HW1 2030   1.227   2.071   2.637  1.0997  0.3408  2.3277
  508SOL    HW2 2031   1.079   2.101   2.652  0.1250  0.1301  1.0573
  508SOL     MW 2032   1.147   2.077   2.604 -0.3362 -0.1168  0.3824
  509SOL     OW 2033   0.631   2.569   2.806 -0.5368  0.0439  0.5850
  509SOL    HW1 2034   0.603   2.512   2.733 -0.4218 -1.5718  1.6012
  509SOL    HW2 2035   0.580   2.652   2.796  3.2667  0.5564  3.6708
  509SOL     MW 2036   0.621   2.572   2.795 -0.0198 -0.1016  1.1262
  510SOL     OW 2037   1.527   2.573   1.654 -0.1934  0.2566  0.5037
  510SOL    HW1 2038   1.541   2.666   1.640  1.1793  1.6915 -0.7520
  510SOL    HW2 2039   1.500   2.567   1.747 -0.6190 -0.8282 -0.2222
  510SOL     MW 2040   1.525   2.585   1.664 -0.0684  0.3028  0.2423
  511SOL     OW 2041   0.349   2.514   2.529 -0.2711  0.4136 -0.7994
  511SOL    HW1 2042   0.421   2.456   2.562 -0.3106 -0.2083  1.5359
  511SOL    HW2 2043   0.368   2.527   2.435 -0.0194 -0.1955  1.2309
  511SOL     MW 2044   0.361   2.508   2.521 -0.2431  0.2512 -0.2234
  512SOL     OW 2045   1.022   2.012   2.854  0.4944  0.1699 -0.0484
  512SOL    HW1 2046   0.941   2.060   2.877 -0.8654 -1.6694 -1.3252
  512SOL    HW2 2047   1.042   1.934   2.904  0.2594  1.4532  1.5572
  512SOL     MW 2048   1.014   2.008   2.864  0.2840  0.0966 -0.0050
  513SOL     OW 2049   1.570   2.545   2.160  0.6851 -0.0017 -0.4227
  513SOL    HW1 2050   1.662   2.553   2.139 -3.6203  0.5024  1.7082
  513SOL    HW2 2051   1.577   2.494   2.236 -0.1157 -1.9093 -0.7982
  513SOL     MW 2052   1.583   2.539   2.167  0.0114 -0.1869 -0.1911
  514SOL     OW 2053   0.158   2.352   2.648  0.6314  0.3752  0.5054
  514SOL    HW1 2054   0.225   2.415   2.607 -1.0576 -1.6140 -3.9319
  514SOL    HW2 2055   0.212   2.299   2.709 -1.1638  1.0419 -0.8478
  514SOL     MW 2056   0.174   2.353   2.651  0.1717  0.2007 -0.2586
  515SOL     OW 2057   1.099   1.925   1.822  0.5267  0.2177  0.6300
  515SOL    HW1 2058   1.088   2.027   1.806 -1.2878  1.3604  1.1671
  515SOL    HW2 2059   1.160   1.922   1.890 -0.7620 -1.7301 -0.7067
  515SOL     MW 2060   1.105   1.938   1.829  0.1173  0.1115  0.5245
  516SOL     OW 2061   1.346   2.582   2.941  0.1981 -0.7096  0.2989
  516SOL    HW1 2062   1.362   2.569   2.848  0.2765 -2.2796  0.6819
  516SOL    HW2 2063   1.273   2.524   2.960 -4.0912  0.2086 -2.0302
  516SOL     MW 2064   1.338   2.573   2.931 -0.3575 -0.7956  0.0422
  517SOL     OW 2065   0.584   2.372   2.287  0.9749  0.0218  0.2939
  517SOL    HW1 2066   0.534   2.446   2.266  0.1359 -1.6981  1.2799
  517SOL    HW2 2067   0.526   2.303   2.261 -0.3271  0.1711 -0.1475
  517SOL     MW 2068   0.570   2.372   2.281  0.6924 -0.1854  0.3658
  518SOL     OW 2069   1.804   0.060   3.077 -0.5119 -0.4164  0.6589
  518SOL    HW1 2070   1.809   0.116   3.155 -0.5040  1.4898  3.8172
  518SOL    HW2 2071   1.733  -0.002   3.074  0.3411 -2.5256  0.0139
  518SOL     MW 2072   1.795   0.059   3.087 -0.3983 -0.4432  0.9905
  519SOL     OW 2073   0.726   2.486   1.789  0.5845  0.6783 -0.3047
  519SOL    HW1 2074   0.748   2.395   1.783  2.1785  1.2931 -1.0277
  519SOL    HW2 2075   0.632   2.499   1.806  1.3167 -1.3894  0.4295
  519SOL     MW 2076   0.717   2.476   1.790  0.8914  0.4866 -0.3032
  520SOL     OW 2077   1.246   2.148   2.944  0.0633  0.1757 -0.1809
  520SOL    HW1 2078   1.182   2.087   2.905  0.6720 -0.5250  3.2084
  520SOL    HW2 2079   1.272   2.102   3.023 -2.8905  2.5800 -0.7399
  520SOL     MW 2080   1.241   2.134   2.949 -0.2461  0.4005  0.1926
  521SOL     OW 2081   1.799   2.067   2.229 -0.0902  0.1214 -0.2151
  521SOL    HW1 2082   1.790   2.044   2.136 -1.0364 -1.5940  0.7659
  521SOL    HW2 2083   1.800   1.978   2.264  1.1291  1.0092  2.6391
  521SOL     MW 2084   1.798   2.052   2.222 -0.0541  0.0122  0.2909
  522SOL     OW 2085   2.885   2.537   2.235  0.1150 -0.1831  0.0820
  522SOL    HW1 2086   2.977   2.518   2.220 -3.2409  1.2169 -0.4963
  522SOL    HW2 2087   2.891   2.627   2.272 -0.8325 -1.0093 -2.5241
  522SOL     MW 2088   2.898   2.546   2.238 -0.4528 -0.1074 -0.3382
  523SOL     OW 2089   0.820   1.512   2.144  0.2522  0.5270  0.0376
  523SOL    HW1 2090   0.797   1.563   2.068  1.2278  3.3588  0.7933
  523SOL    HW2 2091   0.891   1.454   2.120 -3.6100 -2.8420 -0.1371
  523SOL     MW 2092   0.826   1.511   2.131 -0.1287  0.4561  0.1142
  524SOL     OW 2093   0.607   2.341   2.988 -0.6879 -0.2689 -0.4518
  524SOL    HW1 2094   0.621   2.424   2.941  0.5918  1.8435  0.6205
  524SOL    HW2 2095   0.691   2.295   2.986  1.5739 -2.4315  2.3615
  524SOL     MW 2096   0.620   2.346   2.982 -0.2206 -0.2755  0.0609
  525SOL     OW 2097   0.458   2.218   2.116 -0.2932  0.5171  0.0056
  525SOL    HW1 2098   0.439   2.155   2.179  4.3785  0.8993  0.2053
  525SOL    HW2 2099   0.528   2.177   2.060 -0.4327 -2.1977 -1.1000
  525SOL     MW 2100   0.465   2.205   2.117  0.3048  0.2093 -0.1139
  526SOL     OW 2101   0.690   2.160   2.004  0.6439  0.3120 -0.6818
  526SOL    HW1 2102   0.704   2.160   1.914  1.4223  2.7869  3.7194
  526SOL    HW2 2103   0.769   2.184   2.049  0.0575  0.2803 -0.1042
  526SOL     MW 2104   0.702   2.163   1.998  0.6692  0.6343 -0.0249
  527SOL     OW 2105   1.279   1.905   2.031 -0.0387  0.1879  0.1968
  527SOL    HW1 2106   1.217   1.848   2.072 -1.7027 -0.1432  0.7595
  527SOL    HW2 2107   1.314   1.857   1.956  0.9829  1.4151  0.8890
  527SOL     MW 2108   1.275   1.891   2.026 -0.1235  0.3061  0.3624
  528SOL     OW 2109   0.647   2.890   2.960  0.3828  0.7341 -0.6181
  528SOL    HW1 2110   0.623   2.978   2.993  1.9132 -1.3805 -0.2316
  528SOL    HW2 2111   0.617   2.896   2.870  1.7146 -3.0640  0.3050
  528SOL     MW 2112   0.640   2.902   2.953  0.7604 -0.0460 -0.4453
  529SOL     OW 2113   1.075   2.193   1.824 -0.9006  0.3176  0.2555
  529SOL    HW1 2114   1.110   2.189   1.913 -1.0373 -2.0413 -1.0457
  529SOL    HW2 2115   1.116   2.273   1.787  0.0619 -1.0390 -1.5093
  529SOL     MW 2116   1.085   2.203   1.831 -0.7916 -0.1726 -0.1490
  530SOL     OW 2117   1.143   2.390   2.993  0.1032  0.5219  0.5205
  530SOL    HW1 2118   1.099   2.388   3.077  3.2802  1.2275  0.5936
  530SOL    HW2 2119   1.183   2.305   2.987  0.5841  2.2806  1.1551
  530SOL     MW 2120   1.143   2.378   3.003  0.5858  0.8470  0.6139
  531SOL     OW 2121   0.935   1.817   2.642  0.0102  0.5822  0.3943
  531SOL    HW1 2122   0.956   1.875   2.713  0.2718 -0.3863 -1.0538
  531SOL    HW2 2123   0.878   1.755   2.687  2.4887  2.4986  0.1490
  531SOL     MW 2124   0.930   1.817   2.658  0.3717  0.7073  0.1708
  532SOL     OW 2125   1.663   0.297   2.854  0.2628  0.3663 -0.1467
  532SOL    HW1 2126   1.639   0.208   2.853  1.7300 -0.6693  1.2432
  532SOL    HW2 2127   1.742   0.303   2.908  0.2149  0.9492  1.1479
  532SOL     MW 2128   1.670   0.286   2.861  0.4501  0.3066  0.2075
  533SOL     OW 2129   1.788   2.716   2.939 -0.2524 -0.6665  0.5605
  533SOL    HW1 2130   1.745   2.644   2.992 -0.2733  1.8700  0.9002
  533SOL    HW2 2131   1.733   2.727   2.858 -0.0994 -0.8065 -1.0525
  533SOL     MW 2132   1.775   2.708   2.936 -0.2350 -0.3503  0.3925
  534SOL     OW 2133   1.730   2.473   2.478 -0.0462  0.3358 -0.3971
  534SOL    HW1 2134   1.657   2.418   2.501 -0.9046 -0.4249  0.7283
  534SOL    HW2 2135   1.791   2.477   2.555  0.2586  0.8198 -0.2109
  534SOL     MW 2136   1.729   2.466   2.491 -0.1192  0.2993 -0.2240
  535SOL     OW 2137   1.812   2.345   1.901 -0.0061 -0.3662 -0.4495
  535SOL    HW1 2138   1.772   2.368   1.815 -1.8397 -1.7195  2.7988
  535SOL    HW2 2139   1.905   2.377   1.896 -0.4025 -2.7101 -1.9728
  535SOL     MW 2140   1.819   2.353   1.889 -0.3003 -0.8540 -0.2219
  536SOL     OW 2141   0.453   1.809   2.004  0.0626  0.1859  0.0347
  536SOL    HW1 2142   0.421   1.867   1.931 -2.9815 -1.0121 -0.5534
  536SOL    HW2 2143   0.532   1.848   2.034 -0.7956 -0.1151  1.6471
  536SOL     MW 2144   0.459   1.822   1.998 -0.4522 -0.0119  0.1699
  537SOL     OW 2145   1.048   0.191   2.908  0.8856  0.3307  0.4002
  537SOL    HW1 2146   0.967   0.180   2.968  0.1976 -1.6273  0.0715
  537SOL    HW2 2147   1.063   0.282   2.913 -0.3655  1.3305  0.4537
  537SOL     MW 2148   1.039   0.202   2.916  0.6298  0.2043  0.3639
  538SOL     OW 2149   1.302   0.059   2.997 -0.3500  0.1546 -0.5099
  538SOL    HW1 2150   1.220   0.112   2.969 -0.4743  1.8033 -0.5797
  538SOL    HW2 2151   1.371   0.121   2.990 -0.6270 -1.2674 -1.7122
  538SOL     MW 2152   1.301   0.074   2.992 -0.4030  0.1845 -0.6778
  539SOL     OW 2153   0.739   2.707   2.519  0.5376 -0.2993  0.2056
  539SOL    HW1 2154   0.805   2.774   2.540  0.2489  0.2725 -2.5005
  539SOL    HW2 2155   0.792   2.636   2.549 -2.6617 -0.3453 -0.6243
  539SOL     MW 2156   0.755   2.706   2.526  0.0774 -0.2299 -0.2609
  540SOL     OW 2157   0.328   2.265   2.845 -0.6048  0.0219  0.5300
  540SOL    HW1 2158   0.393   2.321   2.893  0.1361  0.9284 -0.0649
  540SOL    HW2 2159   0.291   2.218   2.917  2.2467 -1.0674 -0.4876
  540SOL     MW 2160   0.332   2.266   2.861 -0.1308 -0.0022  0.3172
  541SOL     OW 2161   0.181   2.858   2.232 -0.6057 -0.4239 -0.3422
  541SOL    HW1 2162   0.163   2.782   2.178 -2.2685 -0.9959  0.8475
  541SOL    HW2 2163   0.215   2.819   2.313  2.4760  2.9287 -0.7033
  541SOL     MW 2164   0.183   2.843   2.236 -0.4185 -0.0570 -0.2329
  542SOL     OW 2165   0.906   2.274   2.696  0.2787 -0.6431 -0.2052
  542SOL    HW1 2166   0.903   2.216   2.767 -0.9433  3.2693 -2.6549
  542SOL    HW2 2167   0.947   2.358   2.731  1.1257 -0.4860 -0.1391
  542SOL     MW 2168   0.911   2.278   2.710  0.2293 -0.1062 -0.5197
  543SOL     OW 2169   1.399   2.554   2.663 -0.2382 -0.2674 -0.4542
  543SOL    HW1 2170   1.429   2.465   2.627 -0.8472 -2.0736 -1.5196
  543SOL    HW2 2171   1.482   2.595   2.699 -1.3781  1.2743  1.2509
  543SOL     MW 2172   1.414   2.548   2.663 -0.4689 -0.3023 -0.3698
  544SOL     OW 2173   0.667   0.171   2.687 -0.4603  0.2977  0.8105
  544SOL    HW1 2174   0.583   0.205   2.676  4.1648  0.5831  2.1973
  544SOL    HW2 2175   0.680   0.106   2.622 -3.2159  1.4318  0.8964
  544SOL     MW 2176   0.657   0.167   2.677 -0.2137  0.4850  1.0048
  545SOL     OW 2177   1.535   2.156   2.341  0.1387  0.1682  0.3049
  545SOL    HW1 2178   1.480   2.122   2.268  1.9846  0.4168 -4.1487
  545SOL    HW2 2179   1.623   2.139   2.298 -3.7919 -1.4011  0.1358
  545SOL     MW 2180   1.539   2.149   2.325 -0.1364 -0.0061 -0.3050
  546SOL     OW 2181   3.007   1.985   0.082  0.2983  0.4150 -0.2735
  546SOL    HW1 2182   3.009   2.057   0.020  0.1994 -1.6024  1.1812
  546SOL    HW2 2183   3.097   1.965   0.089  0.8141 -1.3475 -0.7067
  546SOL     MW 2184   3.019   1.991   0.075  0.3533 -0.0837 -0.1387
  547SOL     OW 2185   0.148   2.999   0.081  0.2065  0.7832  0.2507
  547SOL    HW1 2186   0.214   3.039   0.022  2.4992  0.0309  1.9675
  547SOL    HW2 2187   0.194   2.926   0.121  0.9293  0.3734  0.3988
  547SOL     MW 2188   0.162   2.995   0.078  0.6043  0.6299  0.4968
  548SOL     OW 2189   0.298   2.478   0.269  0.0328 -0.3438  0.1935
  548SOL    HW1 2190   0.293   2.553   0.206 -0.2459  1.7768  1.2689
  548SOL    HW2 2191   0.236   2.414   0.233 -3.1622  0.6775 -3.3137
  548SOL     MW 2192   0.289   2.479   0.256 -0.4255  0.0707 -0.1273
  549SOL     OW 2193   0.722   1.898   2.117  0.0815  0.6164  0.4178
  549SOL    HW1 2194   0.734   1.985   2.096 -0.1502 -0.5646  0.8089
  549SOL    HW2 2195   0.752   1.881   2.205 -0.7980  1.2221  0.3354
  549SOL     MW 2196   0.728   1.907   2.126 -0.0651  0.5405  0.4585
  550SOL     OW 2197   1.816   1.757   2.578  0.1632 -0.0616  0.3364
  550SOL    HW1 2198   1.815   1.773   2.484 -2.3028  0.8721  0.3882
  550SOL    HW2 2199   1.832   1.836   2.626 -1.3543 -0.6256  1.0888
  550SOL     MW 2200   1.818   1.769   2.572 -0.3624 -0.0128  0.4425
  551SOL     OW 2201   0.841   2.351   0.203  0.1703 -0.1505  0.0934
  551SOL    HW1 2202   0.926   2.385   0.186  0.2738  0.5410 -1.5444
  551SOL    HW2 2203   0.856   2.268   0.246  0.0883 -1.6939  0.5783
  551SOL     MW 2204   0.854   2.345   0.207  0.1731 -0.2629 -0.0587
  552SOL     OW 2205   1.810   1.804   2.300 -0.0027  0.6393 -0.0767
  552SOL    HW1 2206   1.720   1.784   2.286 -1.3775  0.8778 -2.3175
  552SOL    HW2 2207   1.864   1.750   2.227 -1.2244  3.4756 -1.1802
  552SOL     MW 2208   1.805   1.794   2.289 -0.3453  1.0450 -0.5179
  553SOL     OW 2209   1.220   2.325   1.539 -0.1515  0.3616  0.1572
  553SOL    HW1 2210   1.245   2.234   1.538  0.5196 -0.0915 -0.2912
  553SOL    HW2 2211   1.289   2.381   1.506  1.4177 -2.5532 -1.7377
  553SOL     MW 2212   1.232   2.320   1.535  0.1441 -0.0828 -0.1520
  554SOL     OW 2213   0.567   2.836   2.691 -0.0890  0.3608 -0.9312
  554SOL    HW1 2214   0.538   2.912   2.644 -1.2566  0.0648  2.1739
  554SOL    HW2 2215   0.614   2.788   2.628 -1.0065 -1.9296  2.9273
  554SOL     MW 2216   0.569   2.840   2.677 -0.3641  0.0196 -0.0124
  555SOL     OW 2217   0.586   2.395   2.600 -0.7770  0.0455 -0.5975
  555SOL    HW1 2218   0.588   2.302   2.629 -0.0678  1.4182 -1.4261
  555SOL    HW2 2219   0.642   2.402   2.526  3.2438  2.5182  1.1898
  555SOL     MW 2220   0.594   2.384   2.594 -0.1529  0.5529 -0.4710
  556SOL     OW 2221   1.002   1.809   0.125 -0.6273  0.0761 -0.1435
  556SOL    HW1 2222   1.006   1.765   0.040  0.1554  0.9433  1.4573
  556SOL    HW2 2223   1.095   1.825   0.141  0.5646  1.3693 -0.6067
  556SOL     MW 2224   1.015   1.805   0.116 -0.3667  0.3611  0.0066
  557SOL     OW 2225   0.918   2.680   0.445 -0.5422 -0.4013  0.2627
  557SOL    HW1 2226   0.981   2.665   0.373  0.1683  1.0452 -1.3005
  557SOL    HW2 2227   0.880   2.774   0.438 -0.6822  0.3993 -2.4726
  557SOL     MW 2228   0.921   2.691   0.435 -0.4669 -0.1048 -0.3045
  558SOL     OW 2229   0.262   2.142   0.017  0.0206  1.1435  0.1681
  558SOL    HW1 2230   0.247   2.048   0.046  1.8844 -2.7402 -1.9163
  558SOL    HW2 2231   0.197   2.204   0.054 -1.7207  3.0466  1.8412
  558SOL     MW 2232   0.252   2.138   0.026  0.0368  0.8822  0.1138
  559SOL     OW 2233   1.184   2.323   2.066  0.0463  0.4024  0.5164
  559SOL    HW1 2234   1.138   2.404   2.069  4.0005 -1.1014  2.2846
  559SOL    HW2 2235   1.171   2.288   2.157 -0.7775  1.9997  2.0943
  559SOL     MW 2236   1.176   2.329   2.078  0.4593  0.4147  0.9579
  560SOL     OW 2237   1.997   2.794   0.019  0.3762  0.0310 -0.3606
  560SOL    HW1 2238   2.044   2.856  -0.033 -0.6407 -1.1484  0.3631
  560SOL    HW2 2239   1.924   2.766  -0.032  0.4565  1.4259 -0.0605
  560SOL     MW 2240   1.993   2.798   0.006  0.2526  0.0594 -0.2255
  561SOL     OW 2241   0.453   2.068   0.208 -0.3124 -0.2198  0.3983
  561SOL    HW1 2242   0.417   2.116   0.126 -2.6880  0.6108 -4.0646
  561SOL    HW2 2243   0.496   2.139   0.252 -1.5814  3.4657 -2.1336
  561SOL     MW 2244   0.454   2.084   0.203 -0.7933  0.3760 -0.5246
  562SOL     OW 2245   0.909   2.169   2.169  0.1949  0.0869 -0.0770
  562SOL    HW1 2246   0.886   2.259   2.177 -1.6013 -2.0609 -2.7251
  562SOL    HW2 2247   0.980   2.142   2.229 -2.1787  0.0502  0.7228
  562SOL     MW 2248   0.915   2.177   2.178 -0.3553 -0.2013 -0.3208
  563SOL     OW 2249   1.203   0.245   0.556  0.3997  0.2119 -0.1723
  563SOL    HW1 2250   1.150   0.244   0.475 -0.1069 -0.4328 -1.6375
  563SOL    HW2 2251   1.246   0.155   0.562  1.5776 -1.5417  3.0257
  563SOL     MW 2252   1.202   0.233   0.546  0.4883 -0.1045  0.0563
  564SOL     OW 2253   1.056   2.573   2.398  0.2026 -0.6605 -0.0158
  564SOL    HW1 2254   1.083   2.603   2.311  1.3730  1.4727  0.3311
  564SOL    HW2 2255   1.109   2.627   2.455  1.8287  1.2142 -2.4919
  564SOL     MW 2256   1.066   2.584   2.394  0.5716 -0.1317 -0.2967
  565SOL     OW 2257   2.910   2.659   2.593 -0.6352  0.6412 -0.0036
  565SOL    HW1 2258   2.979   2.713   2.555 -0.6895 -1.9883 -2.0670
  565SOL    HW2 2259   2.834   2.652   2.534  4.3664 -2.0068  2.8914
  565SOL     MW 2260   2.909   2.665   2.580  0.0175 -0.0551  0.1061
  566SOL     OW 2261   2.267   1.927   2.343 -0.2600 -0.3565  0.3223
  566SOL    HW1 2262   2.273   1.931   2.246 -1.1874 -0.5691 -0.4802
  566SOL    HW2 2263   2.315   2.005   2.372  0.5518 -0.2941  0.1574
  566SOL     MW 2264   2.274   1.938   2.334 -0.2753 -0.3763  0.1947
  567SOL     OW 2265   1.190   2.864   0.072 -0.3931 -0.2728 -0.8006
  567SOL    HW1 2266   1.209   2.955   0.060  0.9647  1.6030 -0.4262
  567SOL    HW2 2267   1.183   2.834  -0.023  0.7078 -0.3024 -1.0356
  567SOL     MW 2268   1.191   2.872   0.058 -0.0687 -0.0292 -0.7822
  568SOL     OW 2269   1.655   2.121   2.843  0.2969 -0.1487 -0.1596
  568SOL    HW1 2270   1.686   2.154   2.931 -3.4870  0.6929  1.4677
  568SOL    HW2 2271   1.729   2.085   2.802 -2.3600 -1.9553 -0.3546
  568SOL     MW 2272   1.669   2.120   2.849 -0.5529 -0.2760  0.0294
  569SOL     OW 2273   0.200   2.181   2.428  0.5735 -0.1760 -0.1415
  569SOL    HW1 2274   0.150   2.229   2.364  3.1826  0.3328 -0.4103
  569SOL    HW2 2275   0.195   2.239   2.511  0.6653 -1.2436 -0.3539
  569SOL     MW 2276   0.193   2.195   2.431  0.9298 -0.2497 -0.2050
  570SOL     OW 2277   1.447   0.416   0.503 -0.1438 -0.5402 -0.1117
  570SOL    HW1 2278   1.368   0.386   0.545  0.1701  3.5215  0.0041
  570SOL    HW2 2279   1.476   0.479   0.569  0.7575 -1.7304  4.2173
  570SOL     MW 2280   1.440   0.420   0.517  0.0165 -0.1614  0.4748
  571SOL     OW 2281   1.493   2.395   1.917 -0.1221  0.3750  0.1060
  571SOL    HW1 2282   1.559   2.413   1.980  0.4344 -0.5128  0.0691
  571SOL    HW2 2283   1.441   2.327   1.957  0.2659 -0.2937 -1.3007
  571SOL     MW 2284   1.495   2.388   1.930  0.0025  0.1697 -0.0845
  572SOL     OW 2285   0.936   2.632   0.023  0.0682  0.3817  0.9383
  572SOL    HW1 2286   0.922   2.669  -0.063  1.4440 -0.0372  1.7874
  572SOL    HW2 2287   0.843   2.620   0.055 -1.5057  0.7795 -0.3791
  572SOL     MW 2288   0.922   2.636   0.016  0.0421  0.3789  0.8765
  573SOL     OW 2289   1.124   2.420   0.181  0.4299 -0.4442 -0.1272
  573SOL    HW1 2290   1.213   2.406   0.162 -2.0065  2.5137  2.1948
  573SOL    HW2 2291   1.112   2.513   0.184 -0.8768  0.9723 -2.4903
  573SOL     MW 2292   1.134   2.430   0.179 -0.0639  0.1329 -0.1326
  574SOL     OW 2293   1.135   2.688   0.267 -0.2349 -0.5269  0.7012
  574SOL    HW1 2294   1.223   2.689   0.292 -1.1621  2.2502 -1.8831
  574SOL    HW2 2295   1.130   2.763   0.202 -1.6041 -0.3387  2.4545
  574SOL     MW 2296   1.146   2.698   0.262 -0.5379 -0.1357  0.5915
  575SOL     OW 2297   3.049   2.286   1.839 -0.0698  0.0226 -0.2945
  575SOL    HW1 2298   3.053   2.212   1.773  1.5112 -0.9822 -0.3991
  575SOL    HW2 2299   3.109   2.355   1.809  1.3946  0.3785  1.5444
  575SOL     MW 2300   3.057   2.285   1.826  0.3320 -0.0630 -0.0657
  576SOL     OW 2301   2.811   1.816   2.072  0.0893 -0.0508 -0.2807
  576SOL    HW1 2302   2.836   1.896   2.033  0.5697 -1.4204 -0.7463
  576SOL    HW2 2303   2.730   1.784   2.034 -0.1040  2.4056 -1.0400
  576SOL     MW 2304   2.804   1.822   2.062  0.1272  0.0926 -0.4423
  577SOL     OW 2305   2.099   0.286   0.070 -0.2758  0.6870 -0.2324
  577SOL    HW1 2306   2.046   0.302  -0.011 -1.5741 -0.7943 -1.6870
  577SOL    HW2 2307   2.043   0.251   0.130  0.0007  1.1872 -0.4832
  577SOL     MW 2308   2.085   0.284   0.067 -0.4106  0.5576 -0.4574
  578SOL     OW 2309   2.031   2.058   2.405  0.2281 -0.1527  0.7252
  578SOL    HW1 2310   1.968   2.060   2.339  1.3442 -1.3903  0.4178
  578SOL    HW2 2311   2.111   2.013   2.366 -0.7956 -0.6284 -1.8583
  578SOL     MW 2312   2.034   2.052   2.391  0.2403 -0.3788  0.3438
  579SOL     OW 2313   0.855   2.412   2.460  0.2708  0.1195 -0.6787
  579SOL    HW1 2314   0.877   2.351   2.535  0.6344  0.8024  1.6293
  579SOL    HW2 2315   0.936   2.474   2.447 -0.6682  0.5362 -1.8133
  579SOL     MW 2316   0.868   2.412   2.468  0.1949  0.2646 -0.5239
  580SOL     OW 2317   0.888   2.983   0.017 -0.1365  0.3054 -0.2264
  580SOL    HW1 2318   0.938   2.911   0.037 -1.2868  1.9196 -1.7921
  580SOL    HW2 2319   0.817   2.955  -0.044 -1.8895 -2.2599  0.2975
  580SOL     MW 2320   0.885   2.970   0.012 -0.5196  0.1799 -0.3639
  581SOL     OW 2321   1.063   2.484   1.703 -0.0704 -0.9655 -0.1038
  581SOL    HW1 2322   1.110   2.564   1.697  0.3061 -1.2602 -1.5368
  581SOL    HW2 2323   1.124   2.425   1.663  2.4040  1.0137  0.0239
  581SOL     MW 2324   1.077   2.486   1.697  0.3058 -0.7433 -0.2760
  582SOL     OW 2325   0.015   2.842   2.495  0.3617 -0.2315 -0.6659
  582SOL    HW1 2326   0.006   2.893   2.575  4.1822  2.8889 -0.9144
  582SOL    HW2 2327   0.112   2.824   2.502 -1.1691  0.7883 -1.1976
  582SOL     MW 2328   0.027   2.846   2.507  0.6638  0.3148 -0.7689
  583SOL     OW 2329   1.957   2.454   2.646 -0.9564 -0.1107 -0.0064
  583SOL    HW1 2330   2.039   2.469   2.594 -0.2724  1.3662  1.0261
  583SOL    HW2 2331   1.962   2.363   2.660 -4.0968  0.7154 -2.7086
  583SOL     MW 2332   1.968   2.444   2.641 -1.2805  0.1931 -0.2267
  584SOL     OW 2333   0.182   1.873   2.099  0.3978  0.3145 -0.5052
  584SOL    HW1 2334   0.273   1.888   2.099 -1.8143  0.0380 -0.1844
  584SOL    HW2 2335   0.150   1.912   2.184 -0.1056  2.0146  0.3491
  584SOL     MW 2336   0.190   1.880   2.110  0.0395  0.5023 -0.3501
  585SOL     OW 2337   1.488   2.617   0.070 -0.1571  0.9369  0.5800
  585SOL    HW1 2338   1.449   2.615  -0.017  1.6405  2.9259  0.6576
  585SOL    HW2 2339   1.446   2.678   0.123 -3.4918  0.2928 -0.3209
  585SOL     MW 2340   1.477   2.625   0.066 -0.3599  1.1144  0.4713
  586SOL     OW 2341   1.259   2.966   2.397  0.4824 -0.9355  0.1300
  586SOL    HW1 2342   1.339   2.962   2.345  1.0163 -0.5965 -2.0528
  586SOL    HW2 2343   1.277   3.013   2.480  0.7425  0.9775  2.9510
  586SOL     MW 2344   1.272   2.972   2.401  0.5871 -0.6384  0.2142
  587SOL     OW 2345   1.244   1.614   2.136  0.2443  0.1205 -0.2796
  587SOL    HW1 2346   1.236   1.548   2.210  3.0196  1.3419  1.1275
  587SOL    HW2 2347   1.231   1.565   2.049 -1.2575 -1.9672 -1.0746
  587SOL     MW 2348   1.241   1.599   2.135  0.4123  0.0062 -0.1988
  588SOL     OW 2349   1.414   2.151   2.720  0.2456  0.5935  0.3680
  588SOL    HW1 2350   1.499   2.136   2.765  1.2757 -0.1774  0.2057
  588SOL    HW2 2351   1.360   2.179   2.801  1.1721  0.8099 -0.8148
  588SOL     MW 2352   1.418   2.152   2.737  0.5037  0.5204  0.1906
  589SOL     OW 2353   1.349   2.082   0.082  0.1027  0.0670 -0.4796
  589SOL    HW1 2354   1.362   2.177   0.105  1.1549 -0.0654 -0.0738
  589SOL    HW2 2355   1.285   2.042   0.145  1.5044  1.5240  1.6572
  589SOL     MW 2356   1.342   2.089   0.094  0.4265  0.2417 -0.1441
  590SOL     OW 2357   0.390   2.579   2.268 -0.4579 -0.0668  0.3560
  590SOL    HW1 2358   0.368   2.581   2.175 -1.1143 -1.0649  0.8508
  590SOL    HW2 2359   0.477   2.622   2.266  0.8767 -1.7728 -0.5325
  590SOL     MW 2360   0.398   2.585   2.256 -0.3685 -0.4236  0.3040
  591SOL     OW 2361   2.315   0.719   0.019 -0.5037 -0.0322  0.2377
  591SOL    HW1 2362   2.240   0.729  -0.038  0.1348 -0.0756 -1.0832
  591SOL    HW2 2363   2.396   0.734  -0.033 -0.4003 -1.9713  0.8317
  591SOL     MW 2364   2.316   0.722   0.005 -0.4058 -0.2938  0.1418
  592SOL     OW 2365   1.861   3.030   0.826  0.3194  0.1796 -0.3008
  592SOL    HW1 2366   1.833   3.044   0.737  0.2799  1.3687  1.3660
  592SOL    HW2 2367   1.913   2.955   0.802 -0.5623  0.2399 -1.0019
  592SOL     MW 2368   1.865   3.022   0.811  0.1979  0.3444 -0.1734
  593SOL     OW 2369   1.911   0.754   0.833  0.1606  0.1764 -0.2639
  593SOL    HW1 2370   1.825   0.732   0.793  0.3298 -0.1295  0.8532
  593SOL    HW2 2371   1.939   0.670   0.869  2.4577 -0.7006 -0.7434
  593SOL     MW 2372   1.903   0.740   0.833  0.4860  0.0203 -0.1798
  594SOL     OW 2373   2.747   1.115   1.380 -0.0597  0.2832  0.1605
  594SOL    HW1 2374   2.831   1.155   1.409 -0.5298 -1.5629 -0.5354
  594SOL    HW2 2375   2.755   1.088   1.289  1.0984  2.4662  2.7465
  594SOL     MW 2376   2.759   1.117   1.372  0.0310  0.3276  0.4099
  595SOL     OW 2377   0.453   0.952   0.683  0.0712 -0.2396  0.2839
  595SOL    HW1 2378   0.490   1.022   0.627 -1.7494  0.5021  0.1691
  595SOL    HW2 2379   0.469   0.991   0.774  2.1167  0.1801 -2.3034
  595SOL     MW 2380   0.460   0.967   0.688  0.1008 -0.0864 -0.0726
  596SOL     OW 2381   2.426   1.391   0.573  0.0878 -0.0387 -0.5704
  596SOL    HW1 2382   2.457   1.470   0.533 -0.4387  0.1707  0.6526
  596SOL    HW2 2383   2.481   1.370   0.646 -0.0610  2.2265  0.1670
  596SOL     MW 2384   2.438   1.399   0.577 -0.0013  0.2878 -0.3118
  597SOL     OW 2385   2.189   0.667   1.724 -0.0502  0.3451 -0.5633
  597SOL    HW1 2386   2.252   0.590   1.733 -1.8503  0.3770  0.0185
  597SOL    HW2 2387   2.114   0.625   1.676  2.0024  0.1328 -0.8419
  597SOL     MW 2388   2.188   0.651   1.719 -0.0169  0.3213 -0.5233
  598SOL     OW 2389   2.600   1.023   2.866 -0.2079 -0.0112  0.2513
  598SOL    HW1 2390   2.635   1.012   2.775 -1.0045 -0.9790  3.1024
  598SOL    HW2 2391   2.660   1.069   2.924  3.1736  0.7502  1.5338
  598SOL     MW 2392   2.613   1.028   2.862  0.1332 -0.0385  0.7967
  599SOL     OW 2393   2.928   0.328   2.065  0.2124 -0.3714  0.4077
  599SOL    HW1 2394   2.882   0.356   2.151  0.1848 -2.3731 -0.9256
  599SOL    HW2 2395   2.967   0.410   2.025 -0.2952  0.7116  1.1308
  599SOL     MW 2396   2.927   0.342   2.071  0.1418 -0.4926  0.3272
  600SOL     OW 2397   1.895   1.720   0.904 -0.1958 -0.0264  0.2213
  600SOL    HW1 2398   1.900   1.762   0.990 -0.5780 -0.3198 -0.1831
  600SOL    HW2 2399   1.823   1.770   0.868  1.2178 -1.1810 -2.1663
  600SOL     MW 2400   1.886   1.732   0.911 -0.0597 -0.2174 -0.1471
  601SOL     OW 2401   2.534   0.791   0.836  0.0824  0.3181  0.0717
  601SOL    HW1 2402   2.520   0.806   0.930 -0.6617 -0.5551 -2.8972
  601SOL    HW2 2403   2.506   0.700   0.823 -1.5696 -0.1359 -0.4340
  601SOL     MW 2404   2.528   0.781   0.846 -0.2337  0.1430 -0.3867
  602SOL     OW 2405   2.334   1.921   0.716 -0.2143  0.4779  0.2839
  602SOL    HW1 2406   2.257   1.880   0.762  0.3232 -1.7257 -0.4885
  602SOL    HW2 2407   2.298   2.001   0.675  0.1713 -1.8481 -0.2158
  602SOL     MW 2408   2.319   1.926   0.717 -0.0925 -0.1197  0.1161
  603SOL     OW 2409   3.044   1.398   1.794  0.7564 -0.1412 -0.0440
  603SOL    HW1 2410   3.086   1.418   1.879 -0.1227 -0.7941  3.2479
  603SOL    HW2 2411   3.055   1.301   1.787  2.1525  0.4172  1.1661
  603SOL     MW 2412   3.051   1.388   1.804  0.8246 -0.1536  0.5500
  604SOL     OW 2413   2.114   1.570   0.451 -0.1048  0.2511  0.0788
  604SOL    HW1 2414   2.139   1.516   0.522  0.6681  0.9960 -0.6456
  604SOL    HW2 2415   2.059   1.638   0.493 -0.9279  0.9471 -2.2830
  604SOL     MW 2416   2.110   1.572   0.466 -0.1115  0.4412 -0.3284
  605SOL     OW 2417   2.675   1.562   0.842  0.6221  0.2715  0.0475
  605SOL    HW1 2418   2.592   1.605   0.817 -0.9179 -3.0744  2.1383
  605SOL    HW2 2419   2.649   1.478   0.886  0.0233 -3.6871 -3.2202
  605SOL     MW 2420   2.661   1.557   0.844  0.3399 -0.6922 -0.1078
  606SOL     OW 2421   2.559   1.770   1.888  0.2727  0.3836 -1.0632
  606SOL    HW1 2422   2.460   1.774   1.884  0.4115  0.1026 -2.3027
  606SOL    HW2 2423   2.585   1.688   1.846 -2.8899 -1.6909  0.0650
  606SOL     MW 2424   2.549   1.760   1.882 -0.1262  0.0728 -1.0779
  607SOL     OW 2425   2.330   1.032   2.979 -0.0365  0.1142 -0.4408
  607SOL    HW1 2426   2.409   1.068   2.934 -0.9671  0.8208 -0.3336
  607SOL    HW2 2427   2.349   1.021   3.074  1.5455 -0.5850 -3.4121
  607SOL     MW 2428   2.343   1.036   2.985  0.0494  0.1152 -0.8187
  608SOL     OW 2429   1.879   0.331   0.575 -0.4449 -0.2083 -0.1610
  608SOL    HW1 2430   1.919   0.364   0.494  0.2295  3.2149 -1.7964
  608SOL    HW2 2431   1.848   0.239   0.566  4.0660  0.7051 -1.0847
  608SOL     MW 2432   1.880   0.324   0.563  0.2393  0.3639 -0.4987
  609SOL     OW 2433   2.174   1.948   3.056 -0.5066 -0.0085  0.2889
  609SOL    HW1 2434   2.084   1.929   3.026  0.1387  0.8708  0.6430
  609SOL    HW2 2435   2.172   1.950   3.151 -0.1204  0.3053  0.0810
  609SOL     MW 2436   2.161   1.946   3.064 -0.3705  0.1489  0.3082
  610SOL     OW 2437   1.843   1.046   1.250 -0.8922 -0.1600 -0.0266
  610SOL    HW1 2438   1.840   0.975   1.181 -1.1926 -1.8646 -0.4069
  610SOL    HW2 2439   1.759   1.048   1.295  0.2707 -0.9371 -2.0106
  610SOL     MW 2440   1.831   1.037   1.247 -0.7784 -0.4874 -0.3386
  611SOL     OW 2441   2.452   1.670   0.752 -0.5047  0.5327  0.3590
  611SOL    HW1 2442   2.421   1.762   0.753 -2.7620 -2.5756  0.4995
  611SOL    HW2 2443   2.426   1.634   0.670  0.4473  0.6709 -1.8013
  611SOL     MW 2444   2.444   1.677   0.741 -0.6769  0.1408  0.0925
  612SOL     OW 2445   2.776   2.844   0.441  0.0226  0.1660 -0.0515
  612SOL    HW1 2446   2.810   2.913   0.500 -1.9301  0.7665 -1.1351
  612SOL    HW2 2447   2.855   2.806   0.403  0.6273  1.8394 -1.7385
  612SOL     MW 2448   2.791   2.848   0.444 -0.1552  0.4660 -0.4170
  613SOL     OW 2449   1.529   1.030   1.035 -0.5724  0.1366 -0.8004
  613SOL    HW1 2450   1.529   1.122   1.057 -0.7463  1.4570 -0.9887
  613SOL    HW2 2451   1.559   0.987   1.111 -3.2597 -0.6323 -1.6704
  613SOL     MW 2452   1.533   1.036   1.048 -0.9499  0.2094 -0.9400
  614SOL     OW 2453   2.031   0.547   1.529 -0.5178  0.2926  0.2114
  614SOL    HW1 2454   2.045   0.459   1.568 -1.7785 -0.7190  1.5190
  614SOL    HW2 2455   2.035   0.528   1.437  1.9823 -0.5751  1.0717
  614SOL     MW 2456   2.033   0.533   1.522 -0.3543  0.0446  0.4975
  615SOL     OW 2457   2.225   0.836   0.250 -0.0718 -0.3259  0.5391
  615SOL    HW1 2458   2.280   0.802   0.322  1.7932  0.0926 -2.0219
  615SOL    HW2 2459   2.252   0.787   0.177  1.4559  1.4326  1.3014
  615SOL     MW 2460   2.236   0.825   0.250  0.3758 -0.0387  0.3018
  616SOL     OW 2461   2.592   0.349   1.598 -0.0760 -0.4601 -0.0354
  616SOL    HW1 2462   2.511   0.310   1.569 -0.0406 -2.4393 -1.3775
  616SOL    HW2 2463   2.622   0.409   1.526 -2.5238  0.6445  0.6003
  616SOL     MW 2464   2.585   0.352   1.584 -0.3943 -0.5755 -0.1286
  617SOL     OW 2465   2.826   0.560   1.695  0.2522 -0.4109 -1.0372
  617SOL    HW1 2466   2.771   0.603   1.756 -0.3141  0.5107 -1.9108
  617SOL    HW2 2467   2.794   0.467   1.695  1.2941 -2.2475  2.7668
  617SOL     MW 2468   2.814   0.553   1.703  0.3149 -0.5316 -0.6506
  618SOL     OW 2469   2.683   0.349   1.921 -0.1489  0.4289  0.6918
  618SOL    HW1 2470   2.687   0.446   1.918 -0.2939  0.4874 -0.0203
  618SOL    HW2 2471   2.766   0.322   1.963 -0.6957 -0.7520 -0.0425
  618SOL     MW 2472   2.695   0.358   1.926 -0.2402  0.2808  0.5010
  619SOL     OW 2473   2.619   0.745   0.151  0.3744 -0.2110 -0.0244
  619SOL    HW1 2474   2.689   0.806   0.167  1.2261 -0.9428 -1.6530
  619SOL    HW2 2475   2.583   0.722   0.242  1.5759 -1.1566 -1.8480
  619SOL     MW 2476   2.624   0.750   0.165  0.6453 -0.4323 -0.4799
  620SOL     OW 2477   2.308   1.070   0.980  0.1933 -0.1326  0.7680
  620SOL    HW1 2478   2.356   1.145   0.948 -0.1813  0.5976 -2.0165
  620SOL    HW2 2479   2.321   1.001   0.916  2.6112 -1.5720  1.1901
  620SOL     MW 2480   2.316   1.070   0.968  0.4629 -0.2262  0.4563
  621SOL     OW 2481   1.461   2.094   1.992 -0.3573 -0.1507 -0.1968
  621SOL    HW1 2482   1.398   2.027   2.019 -2.0855 -3.6218  0.2458
  621SOL    HW2 2483   1.548   2.058   1.992  1.8714  2.9451 -1.2392
  621SOL     MW 2484   1.464   2.080   1.995 -0.2913 -0.2002 -0.2759
  622SOL     OW 2485   2.650   0.173   0.247 -0.0261  0.5373 -0.1179
  622SOL    HW1 2486   2.734   0.227   0.248  0.2685  0.5254  2.4635
  622SOL    HW2 2487   2.664   0.084   0.219  3.4465 -0.0130 -0.7989
  622SOL     MW 2488   2.663   0.169   0.243  0.4709  0.4631  0.1329
  623SOL     OW 2489   2.335   2.722   0.921 -0.2346  0.7571  0.4023
  623SOL    HW1 2490   2.401   2.792   0.896  0.8401  1.4135  0.2297
  623SOL    HW2 2491   2.282   2.762   0.994 -1.5063  2.1257  0.8467
  623SOL     MW 2492   2.337   2.737   0.927 -0.2606  1.0243  0.4381
  624SOL     OW 2493   2.223   1.695   3.028 -0.7112  0.2774 -0.4236
  624SOL    HW1 2494   2.131   1.667   3.023  0.7336  2.2913 -0.6667
  624SOL    HW2 2495   2.217   1.795   3.036  0.6680  1.3350  0.3759
  624SOL     MW 2496   2.210   1.704   3.029 -0.3386  0.6826 -0.3502
  625SOL     OW 2497   2.148   1.982   1.089  0.4615  0.2007  0.0638
  625SOL    HW1 2498   2.216   1.928   1.135 -2.4718 -0.4048  0.9720
  625SOL    HW2 2499   2.172   1.962   0.999  2.4036  2.0262  2.2745
  625SOL     MW 2500   2.160   1.972   1.083  0.3307  0.3617  0.4753
  626SOL     OW 2501   0.167   1.621   2.308 -0.3357  0.1796  0.1055
  626SOL    HW1 2502   0.133   1.532   2.328 -0.0001  2.6260  0.8701
  626SOL    HW2 2503   0.167   1.662   2.394  0.9139  3.0211 -0.3735
  626SOL     MW 2504   0.162   1.615   2.322 -0.1266  0.8773  0.1432
  627SOL     OW 2505   2.507   0.824   2.616 -0.0049 -0.2929  0.0979
  627SOL    HW1 2506   2.452   0.904   2.615 -0.6094 -1.0446  0.0988
  627SOL    HW2 2507   2.455   0.773   2.545 -1.5597  3.3216 -2.4760
  627SOL     MW 2508   2.493   0.828   2.607 -0.2898  0.0849 -0.2416
  628SOL     OW 2509   2.256   1.334   1.357  0.2774  0.0991  0.0614
  628SOL    HW1 2510   2.229   1.286   1.286 -2.2004  1.2737  1.5549
  628SOL    HW2 2511   2.352   1.335   1.354  0.8005  1.9144 -2.7715
  628SOL     MW 2512   2.265   1.328   1.347  0.0195  0.4936 -0.1153
  629SOL     OW 2513   2.002   0.524   1.255 -0.2061  0.4397  0.1572
  629SOL    HW1 2514   2.049   0.609   1.243  1.8284  0.7086 -0.8260
  629SOL    HW2 2515   1.910   0.545   1.268  0.0642 -0.5027  0.7221
  629SOL     MW 2516   1.996   0.538   1.255  0.0980  0.3509  0.1020
  630SOL     OW 2517   2.499   1.853   3.002 -0.2342 -0.0607  0.5188
  630SOL    HW1 2518   2.488   1.945   2.974  2.2343  0.6631  2.9680
  630SOL    HW2 2519   2.407   1.814   3.009  1.1784  1.6737 -0.3886
  630SOL     MW 2520   2.486   1.860   2.999  0.2779  0.2636  0.7222
  631SOL     OW 2521   1.990   1.808   1.592 -0.2287 -0.1160  0.4744
  631SOL    HW1 2522   2.007   1.720   1.630  0.2814 -1.2739  0.8227
  631SOL    HW2 2523   1.958   1.795   1.503 -1.1699 -0.3723  2.1079
  631SOL     MW 2524   1.988   1.795   1.585 -0.2856 -0.3026  0.7359
  632SOL     OW 2525   0.086   2.093   1.499  0.0874  0.2997  0.0656
  632SOL    HW1 2526   0.047   2.069   1.580  0.6752 -3.1494 -2.7532
  632SOL    HW2 2527   0.139   2.011   1.476  1.2848 -3.7431 -0.9112
  632SOL     MW 2528   0.088   2.079   1.507  0.3229 -0.6888 -0.4352
  633SOL     OW 2529   2.463   0.674   0.390  0.2063  0.4043  0.0832
  633SOL    HW1 2530   2.551   0.659   0.426  0.6002  0.6576  0.1826
  633SOL    HW2 2531   2.403   0.615   0.429  0.9585 -1.1217  0.5324
  633SOL     MW 2532   2.467   0.664   0.400  0.3575  0.2363  0.1556
  634SOL     OW 2533   2.621   0.002   0.700 -0.3419 -0.6183  0.3597
  634SOL    HW1 2534   2.680   0.075   0.680  1.9469 -0.8224  0.6724
  634SOL    HW2 2535   2.562  -0.000   0.629 -0.5462  0.3547 -1.4526
  634SOL     MW 2536   2.621   0.011   0.688 -0.0669 -0.5168  0.1619
  635SOL     OW 2537   2.576   0.122   1.834  0.3634  0.5436  0.5710
  635SOL    HW1 2538   2.651   0.069   1.815 -0.3799 -2.4058  0.7013
  635SOL    HW2 2539   2.612   0.213   1.842 -0.9040  0.6163  0.5511
  635SOL     MW 2540   2.590   0.127   1.833  0.0981  0.1641  0.5856
  636SOL     OW 2541   2.923   1.722   0.960  0.3653  0.7094 -0.2233
  636SOL    HW1 2542   2.841   1.768   0.956  1.8775  2.0627  2.0881
  636SOL    HW2 2543   2.929   1.711   1.056 -0.4369 -0.4364 -0.6112
  636SOL     MW 2544   2.913   1.726   0.973  0.4590  0.7367  0.0305
  637SOL     OW 2545   2.921   1.522   0.659  0.6060  0.2114 -0.1385
  637SOL    HW1 2546   2.966   1.612   0.648 -1.5403  0.7379 -1.7106
  637SOL    HW2 2547   2.843   1.530   0.718  3.1101  0.2580  0.1826
  637SOL     MW 2548   2.916   1.535   0.665  0.6532  0.2870 -0.3035
  638SOL     OW 2549   2.704   0.594   0.503  0.4641 -0.6271 -0.0297
  638SOL    HW1 2550   2.794   0.617   0.469  2.3524 -1.2065 -1.2240
  638SOL    HW2 2551   2.719   0.584   0.598 -0.0539  1.9970  2.3957
  638SOL     MW 2552   2.718   0.596   0.511  0.6449 -0.3573  0.1327
  639SOL     OW 2553   1.786   0.054   0.497 -0.4883  0.2165  0.0732
  639SOL    HW1 2554   1.704   0.099   0.493 -0.7988 -1.0393 -2.0136
  639SOL    HW2 2555   1.776  -0.035   0.466  0.0159  0.5368  0.6706
  639SOL     MW 2556   1.774   0.048   0.492 -0.4627  0.0931 -0.1233
  640SOL     OW 2557   0.353   1.385   0.069 -0.1157 -0.1342 -0.1925
  640SOL    HW1 2558   0.378   1.372  -0.024  1.1712 -2.6093 -0.0890
  640SOL    HW2 2559   0.307   1.307   0.095  1.5667 -0.2787  4.0293
  640SOL     MW 2560   0.350   1.373   0.060  0.2761 -0.4798  0.3782
  641SOL     OW 2561   2.219   0.451   0.367 -0.3305  0.1300  0.3466
  641SOL    HW1 2562   2.270   0.458   0.284 -0.2272 -2.2593  2.0980
  641SOL    HW2 2563   2.264   0.382   0.419 -2.5303 -0.7981 -0.2364
  641SOL     MW 2564   2.232   0.443   0.363 -0.6071 -0.3077  0.5007
  642SOL     OW 2565   0.034   3.087   0.569  0.5157  0.1630  0.0414
  642SOL    HW1 2566  -0.008   3.155   0.513 -1.0049  1.4510 -0.7651
  642SOL    HW2 2567  -0.036   3.030   0.609  1.3496  1.0312 -0.0943
  642SOL     MW 2568   0.020   3.088   0.567  0.4251  0.4475 -0.0829
  643SOL     OW 2569   2.053   0.346   1.701  0.3516 -0.4164 -0.2899
  643SOL    HW1 2570   2.118   0.305   1.757 -0.4699 -0.5736  0.0511
  643SOL    HW2 2571   2.033   0.266   1.655  2.2372 -2.6794  2.1818
  643SOL     MW 2572   2.059   0.330   1.703  0.4920 -0.7357  0.0812
  644SOL     OW 2573   2.714   1.930   1.072  0.3698  0.1575  0.2468
  644SOL    HW1 2574   2.670   1.886   1.140 -3.4818  2.8756 -1.4361
  644SOL    HW2 2575   2.641   1.963   1.017 -0.5963  2.5781  0.9606
  644SOL     MW 2576   2.698   1.929   1.073 -0.2659  0.8355  0.1189
  645SOL     OW 2577   2.826   0.891   0.658  0.0000 -0.4047  0.3393
  645SOL    HW1 2578   2.920   0.861   0.665  0.8400  1.4730  1.2802
  645SOL    HW2 2579   2.780   0.824   0.707  0.3059 -0.4966 -0.6186
  645SOL     MW 2580   2.833   0.878   0.665  0.1512 -0.1691  0.3371
  646SOL     OW 2581   0.183   2.267   0.813  0.9458  0.1985 -0.0674
  646SOL    HW1 2582   0.195   2.168   0.832  0.0554 -0.8025 -0.2006
  646SOL    HW2 2583   0.106   2.282   0.746  0.9942  1.8345  0.4768
  646SOL     MW 2584   0.175   2.256   0.806  0.8347  0.2823 -0.0132
  647SOL     OW 2585   2.698   0.498   2.979  0.3232  0.0979  0.1334
  647SOL    HW1 2586   2.669   0.426   3.043  2.0012 -0.3985 -0.1358
  647SOL    HW2 2587   2.666   0.580   3.001  2.1067  1.3042  1.2307
  647SOL     MW 2588   2.690   0.500   2.991  0.7799  0.1915  0.2427
  648SOL     OW 2589   2.162   0.744   1.150 -0.8031  0.3714 -0.4113
  648SOL    HW1 2590   2.182   0.763   1.058  0.5575  1.0459 -1.8258
  648SOL    HW2 2591   2.190   0.820   1.197  0.3561 -0.8951 -2.2953
  648SOL     MW 2592   2.168   0.756   1.144 -0.4707  0.2933 -0.8465
  649SOL     OW 2593   2.394   2.759   1.265 -0.4804  0.3949  0.0712
  649SOL    HW1 2594   2.479   2.802   1.269  1.3834  0.1308  0.1103
  649SOL    HW2 2595   2.405   2.667   1.243 -0.3442  1.1720  1.1818
  649SOL     MW 2596   2.407   2.752   1.263 -0.2165  0.4626  0.2229
  650SOL     OW 2597   2.825   0.204   0.670  0.1934 -0.0613  0.0002
  650SOL    HW1 2598   2.868   0.288   0.697 -0.8793 -0.3168 -1.7223
  650SOL    HW2 2599   2.870   0.175   0.591  0.9752 -3.0674  0.0321
  650SOL     MW 2600   2.837   0.212   0.663  0.1550 -0.4916 -0.2229
  651SOL     OW 2601   2.985   0.398   0.808  0.1927  0.0999 -0.2425
  651SOL    HW1 2602   3.070   0.432   0.765 -0.2967 -0.0428 -0.0988
  651SOL    HW2 2603   2.967   0.471   0.868 -1.2088  0.6019 -0.8918
  651SOL     MW 2604   2.994   0.412   0.810 -0.0568  0.1473 -0.3092
  652SOL     OW 2605   2.392   1.459   3.003 -0.1318  0.0098  0.5130
  652SOL    HW1 2606   2.455   1.475   2.935 -1.2726  0.7505  2.8696
  652SOL    HW2 2607   2.318   1.531   3.003 -0.3571  0.3812 -1.4030
  652SOL     MW 2608   2.390   1.471   2.994 -0.3121  0.1566  0.5712
  653SOL     OW 2609   1.929   0.440   0.319 -0.6701  0.2918  0.5639
  653SOL    HW1 2610   1.893   0.362   0.271  1.9336 -2.3794 -0.6421
  653SOL    HW2 2611   2.014   0.447   0.274 -1.2208 -0.7885  0.5753
  653SOL     MW 2612   1.935   0.431   0.307 -0.3992 -0.2032  0.4063
  654SOL     OW 2613   2.460   1.035   0.712 -0.1479  0.1503 -0.2224
  654SOL    HW1 2614   2.367   1.040   0.686  0.7829  0.6974 -1.4326
  654SOL    HW2 2615   2.476   0.945   0.729 -2.6763 -0.6433 -1.7870
  654SOL     MW 2616   2.450   1.024   0.711 -0.3587  0.1178 -0.5885
  655SOL     OW 2617   3.012   0.928   0.393  0.0765  0.2122 -0.2011
  655SOL    HW1 2618   2.953   0.977   0.454  0.6603  1.9516  2.3455
  655SOL    HW2 2619   2.999   0.831   0.409  0.1057 -1.8428 -0.0133
  655SOL     MW 2620   3.002   0.922   0.403  0.1574  0.1706  0.1597
  656SOL     OW 2621   1.958   2.671   1.205  0.2410 -0.1441  0.3055
  656SOL    HW1 2622   1.940   2.737   1.268  2.3818  0.5726 -2.5842
  656SOL    HW2 2623   1.982   2.597   1.259  1.8009 -0.4180 -2.7232
  656SOL     MW 2624   1.959   2.670   1.221  0.7293 -0.0857 -0.4754
  657SOL     OW 2625   0.201   1.574   1.253 -0.2771  0.3821  0.3206
  657SOL    HW1 2626   0.110   1.607   1.239 -2.1071  1.3858  0.0453
  657SOL    HW2 2627   0.190   1.479   1.261 -0.1790 -0.1902 -0.2101
  657SOL     MW 2628   0.187   1.566   1.252 -0.5056  0.4390  0.2143
  658SOL     OW 2629   2.695   1.384   0.224 -0.1777  0.0244 -0.6733
  658SOL    HW1 2630   2.640   1.328   0.283  0.8397  1.0525  1.2146
  658SOL    HW2 2631   2.755   1.422   0.293 -1.4643 -1.9315  0.4964
  658SOL     MW 2632   2.695   1.382   0.241 -0.2133 -0.0980 -0.2699
  659SOL     OW 2633   2.298   1.530   1.028 -0.0031  0.1789  0.1965
  659SOL    HW1 2634   2.378   1.512   1.086 -2.8824  0.8370 -2.9127
  659SOL    HW2 2635   2.239   1.582   1.081 -0.0191 -1.7422 -1.7644
  659SOL     MW 2636   2.301   1.535   1.043 -0.3851  0.0123 -0.4725
  660SOL     OW 2637   2.049   1.567   1.683 -0.5764  0.4512 -0.3055
  660SOL    HW1 2638   2.039   1.558   1.782 -2.8195  0.8700  0.0114
  660SOL    HW2 2639   1.999   1.495   1.650 -0.3153  0.1940  0.1842
  660SOL     MW 2640   2.041   1.556   1.692 -0.8379  0.4725 -0.1991
  661SOL     OW 2641   2.385   1.099   0.174 -0.4338 -0.6860  0.6753
  661SOL    HW1 2642   2.433   1.149   0.242  0.7883  1.5412  1.8861
  661SOL    HW2 2643   2.426   1.014   0.190  1.4171 -1.5726  2.7082
  661SOL     MW 2644   2.397   1.094   0.185 -0.0284 -0.5091  1.1033
  662SOL     OW 2645   2.508   2.933   0.884 -0.8167 -0.1256  0.1586
  662SOL    HW1 2646   2.463   3.005   0.925  0.9704 -2.0375  0.7332
  662SOL    HW2 2647   2.556   2.974   0.812 -0.1384  0.0995 -0.2788
  662SOL     MW 2648   2.508   2.948   0.880 -0.4914 -0.3481  0.1767
  663SOL     OW 2649   2.844   1.538   0.382  0.0390 -0.4776 -0.5779
  663SOL    HW1 2650   2.852   1.613   0.318  0.0559  1.1433 -0.3632
  663SOL    HW2 2651   2.891   1.557   0.459  0.0599 -3.7247  0.3022
  663SOL     MW 2652   2.852   1.550   0.384  0.0440 -0.6922 -0.4335
  664SOL     OW 2653   2.458   1.556   1.576 -0.2232 -0.2774 -0.1198
  664SOL    HW1 2654   2.448   1.651   1.551  0.0374  2.8710  1.1182
  664SOL    HW2 2655   2.373   1.520   1.606  0.1924  0.9850 -1.2193
  664SOL     MW 2656   2.445   1.564   1.577 -0.1340  0.3046 -0.1015
  665SOL     OW 2657   2.855   0.805   2.080 -0.5309 -0.5316  0.1614
  665SOL    HW1 2658   2.833   0.840   1.996  1.4618  2.2361  0.6023
  665SOL    HW2 2659   2.916   0.728   2.069  2.3708  2.3420 -0.0475
  665SOL     MW 2660   2.860   0.799   2.067  0.1148  0.2127  0.1921
  666SOL     OW 2661   2.785   3.048   1.684 -0.7071  0.0974  0.0866
  666SOL    HW1 2662   2.801   3.063   1.590 -0.3989 -0.0287  1.0034
  666SOL    HW2 2663   2.745   2.957   1.684 -1.3681 -2.7639 -3.8098
  666SOL     MW 2664   2.782   3.038   1.671 -0.7537 -0.2968 -0.3065
  667SOL     OW 2665   1.978   2.701   1.635  0.2611  0.0562  0.8130
  667SOL    HW1 2666   1.999   2.623   1.691 -1.3938  0.0832  0.7112
  667SOL    HW2 2667   2.037   2.764   1.671 -0.8819 -2.2094 -0.5824
  667SOL     MW 2668   1.988   2.699   1.647 -0.1081 -0.2392  0.6155
  668SOL     OW 2669   2.745   0.645   0.805  0.0186  0.1345  0.5524
  668SOL    HW1 2670   2.811   0.662   0.878  2.2086 -1.1044  1.9721
  668SOL    HW2 2671   2.663   0.694   0.834  1.7122 -0.8311  0.3435
  668SOL     MW 2672   2.743   0.654   0.819  0.5310 -0.1564  0.7122
  669SOL     OW 2673   0.179   0.932   0.664  0.1184  0.1397 -0.3694
  669SOL    HW1 2674   0.140   0.985   0.738  4.4615  2.3158  0.1715
  669SOL    HW2 2675   0.284   0.924   0.671  0.1183 -0.0047 -0.5699
  669SOL     MW 2676   0.188   0.938   0.674  0.6914  0.4077 -0.3245
  670SOL     OW 2677   2.922   0.287   0.190 -0.9899  0.0432  0.2256
  670SOL    HW1 2678   2.949   0.213   0.127  0.9473 -0.5845  0.3500
  670SOL    HW2 2679   2.919   0.370   0.139  1.2437 -1.0207 -1.8025
  670SOL     MW 2680   2.925   0.288   0.175 -0.4396 -0.1800 -0.0256
  671SOL     OW 2681   2.156   3.031   1.576  0.0044 -0.3649  0.0788
  671SOL    HW1 2682   2.128   3.057   1.485 -0.5672 -3.5482 -4.4691
  671SOL    HW2 2683   2.082   3.070   1.633 -0.1945 -0.5958  0.6800
  671SOL     MW 2684   2.143   3.040   1.572 -0.0972 -0.8153 -0.4419
  672SOL     OW 2685   1.863   1.692   1.319 -0.3940  0.1076 -0.2870
  672SOL    HW1 2686   1.792   1.724   1.384 -2.0679  0.2791 -1.1408
  672SOL    HW2 2687   1.867   1.759   1.246  0.0646 -1.3139  0.5245
  672SOL     MW 2688   1.855   1.705   1.318 -0.5543 -0.0573 -0.2926
  673SOL     OW 2689   2.787   1.110   0.496 -0.2508 -0.2160 -0.3463
  673SOL    HW1 2690   2.790   1.033   0.553  0.3797 -0.0122 -0.2586
  673SOL    HW2 2691   2.843   1.169   0.548 -1.1419  3.9430  0.7800
  673SOL     MW 2692   2.795   1.108   0.510 -0.2852  0.3597 -0.1862
  674SOL     OW 2693   2.509   0.103   1.220  0.1496  0.5002 -0.2684
  674SOL    HW1 2694   2.455   0.096   1.141  2.3655  0.3932  0.7015
  674SOL    HW2 2695   2.537   0.007   1.236  0.6618  1.4154 -3.2171
  674SOL     MW 2696   2.505   0.089   1.211  0.5095  0.6069 -0.5295
  675SOL     OW 2697   3.025   0.981   1.102  0.3011 -0.7669  0.0081
  675SOL    HW1 2698   3.070   0.902   1.133 -1.3889 -4.0662 -0.1730
  675SOL    HW2 2699   3.080   1.019   1.035  0.4789 -0.8985  0.2208
  675SOL     MW 2700   3.038   0.976   1.097  0.1016 -1.2196  0.0123
  676SOL     OW 2701   2.861   1.500   1.623  1.0825 -0.0772  0.3907
  676SOL    HW1 2702   2.834   1.403   1.617  1.7275 -1.7176  0.4012
  676SOL    HW2 2703   2.930   1.491   1.688  0.1905  3.5057 -2.8845
  676SOL     MW 2704   2.867   1.486   1.631  1.0499  0.1791 -0.0400
  677SOL     OW 2705   2.434   0.749   1.896  0.6316 -0.6084  0.4645
  677SOL    HW1 2706   2.413   0.665   1.848  1.1632  0.5683  0.5339
  677SOL    HW2 2707   2.353   0.777   1.947  0.8774 -2.2351  0.1940
  677SOL     MW 2708   2.421   0.742   1.896  0.7342 -0.6678  0.4380
  678SOL     OW 2709   2.526   1.582   0.435  0.2540 -0.2004 -0.4047
  678SOL    HW1 2710   2.487   1.662   0.390  0.2404  0.0006  1.8971
  678SOL    HW2 2711   2.620   1.583   0.433 -2.1419 -1.3650 -4.3373
  678SOL     MW 2712   2.533   1.593   0.429 -0.0639 -0.3275 -0.6199
  679SOL     OW 2713   2.324   0.507   1.126  0.5479 -0.0853  0.3582
  679SOL    HW1 2714   2.258   0.436   1.139  0.7314  0.3355  2.4485
  679SOL    HW2 2715   2.276   0.591   1.140 -1.8398 -0.4415  1.3706
  679SOL     MW 2716   2.309   0.508   1.129  0.2570 -0.0768  0.7676
  680SOL     OW 2717   2.400   0.268   1.438 -0.2505 -0.2588 -0.3842
  680SOL    HW1 2718   2.303   0.288   1.435  3.5921  1.2166  0.3072
  680SOL    HW2 2719   2.424   0.196   1.378  1.9307  0.8194 -0.4502
  680SOL     MW 2720   2.390   0.261   1.430  0.5443  0.0781 -0.3017
  681SOL     OW 2721   0.315   0.579   1.563  0.0231  0.3025 -0.5010
  681SOL    HW1 2722   0.283   0.497   1.610  4.7980 -0.5800  2.2744
  681SOL    HW2 2723   0.410   0.559   1.573  1.7809 -1.1737 -0.4096
  681SOL     MW 2724   0.324   0.565   1.570  0.8850 -0.0087 -0.1228
  682SOL     OW 2725   0.124   2.962   1.482 -0.1016 -0.6404 -0.2374
  682SOL    HW1 2726   0.106   3.053   1.456 -2.2981 -0.5547  2.2899
  682SOL    HW2 2727   0.072   2.940   1.561  0.6905  2.7612  0.5512
  682SOL     MW 2728   0.115   2.971   1.489 -0.2869 -0.1803  0.2001
  683SOL     OW 2729   2.069   0.825   3.021  0.0289  0.4304  0.1158
  683SOL    HW1 2730   1.982   0.810   2.981  1.1640  1.1090 -0.3285
  683SOL    HW2 2731   2.072   0.920   3.034 -0.3465  2.9441  0.5947
  683SOL     MW 2732   2.058   0.836   3.018  0.1291  0.8516  0.1204
  684SOL     OW 2733   2.188   1.752   0.906  0.3985 -0.1824  0.1883
  684SOL    HW1 2734   2.106   1.712   0.897  0.5159  2.7098 -0.4052
  684SOL    HW2 2735   2.249   1.685   0.934  0.7797  1.2703  4.4410
  684SOL     MW 2736   2.185   1.738   0.909  0.4643  0.3909  0.6711
  685SOL     OW 2737   2.596   1.732   1.256  0.6425  0.4931  0.2245
  685SOL    HW1 2738   2.648   1.722   1.336  2.1933 -0.6793  0.4421
  685SOL    HW2 2739   2.595   1.642   1.219  1.3292 -1.5877  1.2485
  685SOL     MW 2740   2.603   1.719   1.261  0.9377  0.0639  0.3883
  686SOL     OW 2741   2.871   0.700   1.462 -0.4009 -0.3672 -0.0832
  686SOL    HW1 2742   2.887   0.649   1.543 -0.3078  2.4738  0.7554
  686SOL    HW2 2743   2.958   0.740   1.444 -1.8514 -0.7922  0.8387
  686SOL     MW 2744   2.884   0.699   1.470 -0.5800 -0.0484  0.1491
  687SOL     OW 2745   2.148   0.303   1.217 -0.1059 -0.5019  0.1680
  687SOL    HW1 2746   2.100   0.264   1.140 -0.1968 -0.8642 -1.0154
  687SOL    HW2 2747   2.097   0.373   1.255  2.3759  2.1966 -0.8222
  687SOL     MW 2748   2.135   0.307   1.212  0.2095 -0.1936 -0.1188
  688SOL     OW 2749   2.383   0.604   1.469 -0.5720  0.0515  0.2678
  688SOL    HW1 2750   2.409   0.515   1.450 -0.6044 -0.8103 -0.1063
  688SOL    HW2 2751   2.294   0.607   1.498  1.6979  2.9404  1.0679
  688SOL     MW 2752   2.374   0.593   1.470 -0.2768  0.3190  0.3240
  689SOL     OW 2753   2.555   0.748   2.990 -0.0656 -0.1287 -0.0453
  689SOL    HW1 2754   2.563   0.834   2.947  0.2394  0.3510 -1.0242
  689SOL    HW2 2755   2.572   0.773   3.079  0.3514 -1.2692 -1.8619
  689SOL     MW 2756   2.558   0.763   2.996  0.0297 -0.2159 -0.4142
  690SOL     OW 2757   2.116   0.959   1.929 -0.2196 -0.1096 -0.5853
  690SOL    HW1 2758   2.060   0.883   1.950  0.8920 -0.4029 -0.2298
  690SOL    HW2 2759   2.132   0.937   1.835  2.1750 -1.7408 -1.1347
  690SOL     MW 2760   2.111   0.946   1.919  0.2430 -0.3635 -0.6109
  691SOL     OW 2761   2.446   0.270   0.836 -0.1428  0.1634  0.2600
  691SOL    HW1 2762   2.527   0.321   0.868 -0.7000 -1.5712 -0.7776
  691SOL    HW2 2763   2.371   0.325   0.849 -2.1796  0.4930  1.2218
  691SOL     MW 2764   2.446   0.284   0.842 -0.4850 -0.0220  0.2500
  692SOL     OW 2765   2.803   1.716   1.427 -0.0298 -0.3190  0.5548
  692SOL    HW1 2766   2.803   1.651   1.489 -0.4515  1.4325 -1.4027
  692SOL    HW2 2767   2.824   1.796   1.478  0.0804  5.7740  0.5857
  692SOL     MW 2768   2.806   1.718   1.442 -0.0709  0.7160  0.3006
  693SOL     OW 2769   2.326   0.451   0.110 -0.1190 -0.1518  0.0378
  693SOL    HW1 2770   2.259   0.417   0.062  3.6139 -0.6648 -1.2766
  693SOL    HW2 2771   2.339   0.542   0.076  2.5826 -1.8058  1.4009
  693SOL     MW 2772   2.319   0.458   0.099  0.7300 -0.4377  0.0443
  694SOL     OW 2773   1.947   1.285   1.085 -0.5220  0.4249 -0.2151
  694SOL    HW1 2774   2.007   1.225   1.129  1.7337 -0.0274 -1.9823
  694SOL    HW2 2775   1.869   1.233   1.067 -0.0366  0.5529  1.9897
  694SOL     MW 2776   1.944   1.270   1.088 -0.1603  0.3822 -0.1574
  695SOL     OW 2777   2.957   1.446   1.312  0.2094 -0.0659 -0.0510
  695SOL    HW1 2778   2.947   1.435   1.219 -0.6187 -1.6697  2.2381
  695SOL    HW2 2779   2.913   1.521   1.346  1.2854 -0.2180 -1.8366
  695SOL     MW 2780   2.950   1.454   1.304  0.2421 -0.2975  0.0154
  696SOL     OW 2781   2.109   1.390   0.889 -0.1230  0.0465 -0.3476
  696SOL    HW1 2782   2.189   1.416   0.933  2.4352  0.7942 -1.1855
  696SOL    HW2 2783   2.057   1.347   0.962  0.4710 -1.4426  1.2701
  696SOL     MW 2784   2.113   1.388   0.904  0.2929 -0.0513 -0.2447
  697SOL     OW 2785   2.914   1.085   2.176  0.9851  0.5892 -1.0929
  697SOL    HW1 2786   2.841   1.142   2.185 -1.1501 -0.2401  1.3203
  697SOL    HW2 2787   2.880   0.999   2.175  0.3020  2.7268 -0.9434
  697SOL     MW 2788   2.900   1.081   2.177  0.6132  0.7618 -0.7548
  698SOL     OW 2789   2.545   0.299   0.028  0.4558 -0.6956  0.2692
  698SOL    HW1 2790   2.478   0.347   0.075  2.0389 -4.7337 -1.4395
  698SOL    HW2 2791   2.578   0.228   0.093  0.2964  1.6895  1.3669
  698SOL     MW 2792   2.541   0.296   0.043  0.6436 -0.9137  0.1886
  699SOL     OW 2793   1.854   1.648   2.063 -0.1292  0.0528 -0.0802
  699SOL    HW1 2794   1.832   1.555   2.073  0.1828  0.9958 -1.8763
  699SOL    HW2 2795   1.944   1.644   2.025 -0.1686 -1.2729  0.6554
  699SOL     MW 2796   1.863   1.635   2.060 -0.0932  0.0023 -0.2201
  700SOL     OW 2797   2.708   0.909   1.554  0.2555 -0.2867  0.1657
  700SOL    HW1 2798   2.728   0.964   1.477  2.4618 -0.7279  0.1538
  700SOL    HW2 2799   2.766   0.832   1.538  1.1283  3.8027  2.3583
  700SOL     MW 2800   2.719   0.906   1.542  0.6618  0.1946  0.4534
  701SOL     OW 2801   1.653   1.266   2.602  0.2896  0.0350 -0.3595
  701SOL    HW1 2802   1.746   1.283   2.590 -2.3801  1.4553 -1.4221
  701SOL    HW2 2803   1.626   1.342   2.656 -0.6676  0.5594  0.2046
  701SOL     MW 2804   1.662   1.279   2.608 -0.1889  0.2916 -0.4253
  702SOL     OW 2805   2.212   0.416   0.821 -0.3046 -0.2786  0.0480
  702SOL    HW1 2806   2.184   0.350   0.755  0.0803 -0.7457 -1.8335
  702SOL    HW2 2807   2.277   0.470   0.769 -0.1929  0.5216 -1.2389
  702SOL     MW 2808   2.217   0.414   0.805 -0.2391 -0.2347 -0.3700
  703SOL     OW 2809   2.684   1.301   0.988 -0.4627 -0.0892  0.1259
  703SOL    HW1 2810   2.680   1.275   0.898 -0.2107  0.0083 -0.3874
  703SOL    HW2 2811   2.698   1.221   1.045 -0.3137 -1.9844  2.3709
  703SOL     MW 2812   2.686   1.287   0.983 -0.4098 -0.3264  0.3544
  704SOL     OW 2813   0.003   1.342   0.290 -0.3434  0.1293  0.3094
  704SOL    HW1 2814  -0.045   1.291   0.217  0.3423 -2.1231  0.6643
  704SOL    HW2 2815   0.050   1.276   0.339 -1.0711 -2.8506 -3.9850
  704SOL     MW 2816   0.003   1.326   0.287 -0.3490 -0.5610 -0.2103
  705SOL     OW 2817   2.139   1.629   1.248  0.7355 -0.5661 -0.3151
  705SOL    HW1 2818   2.055   1.672   1.298  0.0767  2.3644  0.3313
  705SOL    HW2 2819   2.145   1.546   1.294  0.4553  3.5033  0.6466
  705SOL     MW 2820   2.129   1.623   1.261  0.6116  0.3574 -0.1029
  706SOL     OW 2821   2.986   1.257   0.626 -0.1602  0.2971  0.9189
  706SOL    HW1 2822   3.072   1.250   0.590 -0.2524  3.0565  3.1294
  706SOL    HW2 2823   2.967   1.353   0.637 -2.0855  1.6137 -0.2487
  706SOL     MW 2824   2.995   1.269   0.623 -0.4264  0.8349  1.0565
  707SOL     OW 2825   2.374   0.056   0.979  0.2395 -0.2739 -0.1694
  707SOL    HW1 2826   2.414   0.134   0.930  0.7312 -1.2927  1.0531
  707SOL    HW2 2827   2.280   0.069   0.983  1.1312 -1.2604 -2.3003
  707SOL     MW 2828   2.367   0.068   0.973  0.4220 -0.5385 -0.2893
  708SOL     OW 2829   2.534   1.582   0.122  0.1808  0.1106  0.1929
  708SOL    HW1 2830   2.588   1.506   0.155  2.1390 -0.8945 -2.4267
  708SOL    HW2 2831   2.486   1.551   0.052 -1.2843  2.2254  1.5990
  708SOL     MW 2832   2.535   1.568   0.117  0.2459  0.2571  0.0328
  709SOL     OW 2833   1.689   1.752   0.113  0.4897 -0.2041  0.4623
  709SOL    HW1 2834   1.623   1.801   0.069 -0.1189  3.3316  0.5055
  709SOL    HW2 2835   1.645   1.714   0.191  2.3626 -1.7223 -1.3295
  709SOL     MW 2836   1.675   1.754   0.117  0.6565  0.0621  0.2316
  710SOL     OW 2837   2.166   1.154   1.189 -0.6938 -0.2000 -0.0370
  710SOL    HW1 2838   2.208   1.120   1.103 -1.3709  1.9742 -1.7315
  710SOL    HW2 2839   2.212   1.096   1.255  0.9971  0.5845  0.7116
  710SOL     MW 2840   2.178   1.142   1.186 -0.5601  0.1904 -0.1618
  711SOL     OW 2841   2.330   0.124   1.723  0.1926 -0.4808  0.0967
  711SOL    HW1 2842   2.429   0.124   1.744 -3.5109  1.4288 -0.2317
  711SOL    HW2 2843   2.298   0.064   1.655  0.9318  2.2257 -0.6244
  711SOL     MW 2844   2.339   0.116   1.717 -0.1985  0.1282 -0.0418
  712SOL     OW 2845   1.699   0.616   3.078  0.9197 -0.0060  0.3833
  712SOL    HW1 2846   1.756   0.682   3.036  0.5056 -0.5003 -0.0639
  712SOL    HW2 2847   1.689   0.647   3.167  2.1366 -1.5259 -2.4915
  712SOL     MW 2848   1.705   0.629   3.084  1.0256 -0.2718 -0.0550
  713SOL     OW 2849   2.581   0.794   1.103  0.2619 -0.4383 -0.5060
  713SOL    HW1 2850   2.576   0.693   1.093 -1.5533 -1.3061  0.9123
  713SOL    HW2 2851   2.563   0.802   1.199 -0.4553 -1.4283 -2.9903
  713SOL     MW 2852   2.578   0.781   1.114 -0.0722 -0.6834 -0.6467
  714SOL     OW 2853   2.189   0.182   1.947 -1.0560  0.8005  0.3464
  714SOL    HW1 2854   2.243   0.163   2.025  1.0088  0.6693 -2.0083
  714SOL    HW2 2855   2.255   0.163   1.874 -2.0543 -1.4620 -1.0909
  714SOL     MW 2856   2.205   0.177   1.948 -0.9153  0.4847 -0.1539
  715SOL     OW 2857   1.741   1.909   1.707  1.0241 -0.1373 -0.6826
  715SOL    HW1 2858   1.836   1.898   1.686 -1.0733 -1.8832  2.7757
  715SOL    HW2 2859   1.714   1.828   1.752 -2.7276 -0.2616 -0.4492
  715SOL     MW 2860   1.750   1.897   1.710  0.2524 -0.3841 -0.1955
  716SOL     OW 2861   2.378   0.582   0.712 -0.4034 -0.6068  0.2159
  716SOL    HW1 2862   2.411   0.518   0.644 -2.7249  1.2800 -0.2207
  716SOL    HW2 2863   2.302   0.629   0.677 -1.5003 -0.5249  0.2948
  716SOL     MW 2864   2.372   0.580   0.699 -0.8544 -0.3471  0.1687
  717SOL     OW 2865   2.863   1.456   2.930  0.3813 -0.0110 -0.5392
  717SOL    HW1 2866   2.958   1.445   2.943 -0.3144  0.3877 -1.4316
  717SOL    HW2 2867   2.852   1.526   2.992 -0.1850  0.4869  0.2462
  717SOL     MW 2868   2.874   1.464   2.940  0.2148  0.1073 -0.5533
  718SOL     OW 2869   2.528   1.326   1.399 -0.0506 -0.2347  0.0489
  718SOL    HW1 2870   2.543   1.368   1.488 -0.4536  1.2588  0.1047
  718SOL    HW2 2871   2.573   1.244   1.395 -1.0389  0.9853  0.9249
  718SOL     MW 2872   2.536   1.320   1.410 -0.2342  0.1233  0.1719
  719SOL     OW 2873   2.167   1.385   0.639  0.0848 -0.9055 -0.1747
  719SOL    HW1 2874   2.266   1.379   0.629  2.6613  3.0542 -2.0437
  719SOL    HW2 2875   2.142   1.409   0.732  1.5877  1.3210 -0.4483
  719SOL     MW 2876   2.177   1.387   0.650  0.6230 -0.0893 -0.4574
  720SOL     OW 2877   2.892   1.196   0.125 -0.0746 -0.2919 -0.3515
  720SOL    HW1 2878   2.853   1.115   0.151 -0.2760  0.6832  2.7834
  720SOL    HW2 2879   2.836   1.266   0.150  2.2213  0.0227  2.9320
  720SOL     MW 2880   2.879   1.194   0.132  0.2018 -0.1217  0.4954
  721SOL     OW 2881   2.524   0.829   1.378  0.2018  0.4998 -0.4829
  721SOL    HW1 2882   2.473   0.749   1.411 -4.5028 -0.5044 -3.3871
  721SOL    HW2 2883   2.576   0.861   1.459  1.5575  1.9024  0.7823
  721SOL     MW 2884   2.524   0.823   1.393 -0.2400  0.5524 -0.6991
  722SOL     OW 2885   2.547   1.207   0.391 -0.1279  0.0530  0.3851
  722SOL    HW1 2886   2.503   1.271   0.453 -1.1075  3.1304  1.5027
  722SOL    HW2 2887   2.620   1.158   0.431 -1.7701 -1.6353 -3.7984
  722SOL     MW 2888   2.551   1.209   0.405 -0.4738  0.2363 -0.0194
  723SOL     OW 2889   2.260   1.397   1.631 -0.6394 -0.1024  0.0196
  723SOL    HW1 2890   2.254   1.364   1.541 -1.1840  0.9373  0.8707
  723SOL    HW2 2891   2.184   1.453   1.650 -0.9445 -4.3847  1.0545
  723SOL     MW 2892   2.249   1.400   1.621 -0.7515 -0.5303  0.2684
  724SOL     OW 2893   2.472   0.374   0.572  0.4829 -0.2769 -0.2720
  724SOL    HW1 2894   2.480   0.339   0.659  0.1655  0.9106 -2.9456
  724SOL    HW2 2895   2.538   0.335   0.513  0.8253  1.8422 -1.2471
  724SOL     MW 2896   2.482   0.364   0.575  0.4862  0.1594 -0.7534
  725SOL     OW 2897   2.583   0.527   1.136 -0.4787  0.3624  0.1171
  725SOL    HW1 2898   2.608   0.515   1.235  0.5748  1.2045  2.7474
  725SOL    HW2 2899   2.486   0.520   1.128  0.2374  0.3749  2.9600
  725SOL     MW 2900   2.574   0.525   1.148 -0.2452  0.4752  0.8392
  726SOL     OW 2901   2.564   2.434   0.499 -0.3939 -0.1479  0.7329
  726SOL    HW1 2902   2.506   2.484   0.443  0.3950  1.1036  0.1221
  726SOL    HW2 2903   2.513   2.387   0.574  0.0454 -0.2663  1.9779
  726SOL     MW 2904   2.549   2.434   0.501 -0.2318  0.0016  0.8166
  727SOL     OW 2905   2.838   0.281   1.616  0.4762  0.1170 -0.2721
  727SOL    HW1 2906   2.867   0.344   1.541  0.9587  1.1924 -2.2044
  727SOL    HW2 2907   2.742   0.279   1.607  1.4002  2.4718 -1.7932
  727SOL     MW 2908   2.829   0.289   1.605  0.6618  0.5696 -0.7278
  728SOL     OW 2909   2.812   1.174   2.954  0.4975 -0.3615  0.1731
  728SOL    HW1 2910   2.845   1.265   2.938  3.7632 -2.6262  0.6042
  728SOL    HW2 2911   2.846   1.157   3.046 -3.0787 -2.8891  1.1153
  728SOL     MW 2912   2.821   1.184   2.964  0.4565 -0.9938  0.3543
  729SOL     OW 2913   2.529   1.475   1.164  0.5048 -0.0930 -0.0430
  729SOL    HW1 2914   2.543   1.418   1.244  2.0417  1.2482 -3.4206
  729SOL    HW2 2915   2.573   1.422   1.098 -2.2438 -1.7806 -0.0820
  729SOL     MW 2916   2.537   1.460   1.165  0.3449 -0.1387 -0.4937
  730SOL     OW 2917   2.130   1.117   0.292 -0.2912 -0.0711 -0.0181
  730SOL    HW1 2918   2.224   1.110   0.259 -0.6239  0.7917 -1.8457
  730SOL    HW2 2919   2.112   1.211   0.297 -1.1521  1.9481  0.7017
  730SOL     MW 2920   2.140   1.128   0.288 -0.4487  0.3091 -0.1643
  731SOL     OW 2921   2.793   1.857   2.906  0.0424  0.0068 -0.0730
  731SOL    HW1 2922   2.735   1.862   2.833 -0.4410 -1.2076  0.9687
  731SOL    HW2 2923   2.849   1.935   2.896 -1.1341  1.4992 -0.0891
  731SOL     MW 2924   2.793   1.868   2.895 -0.1766  0.0435  0.0623
  732SOL     OW 2925   2.266   0.926   1.338 -0.3777  0.1598  0.8133
  732SOL    HW1 2926   2.216   0.942   1.415 -0.5883 -0.5480 -0.6826
  732SOL    HW2 2927   2.353   0.886   1.343  1.1852 -2.1553 -0.4217
  732SOL     MW 2928   2.271   0.923   1.349 -0.1993 -0.2390  0.4530
  733SOL     OW 2929   2.357   2.831   3.070  0.1681  0.0145  0.5361
  733SOL    HW1 2930   2.295   2.904   3.056 -2.0516 -2.0893 -0.8620
  733SOL    HW2 2931   2.305   2.754   3.095  0.3047 -2.1288 -0.7357
  733SOL     MW 2932   2.342   2.831   3.071 -0.1068 -0.5459  0.1838
  734SOL     OW 2933   1.500   0.379   2.451  0.2146  0.2566 -0.2852
  734SOL    HW1 2934   1.474   0.339   2.533  0.6106  0.1154  0.7735
  734SOL    HW2 2935   1.510   0.313   2.385 -0.6948  2.5759  1.4281
  734SOL     MW 2936   1.498   0.365   2.453  0.1469  0.5440  0.0805
  735SOL     OW 2937   3.053   0.981   2.644 -0.6498  0.6085  0.3569
  735SOL    HW1 2938   3.046   0.887   2.659 -1.6161 -1.0433 -0.7590
  735SOL    HW2 2939   2.993   1.017   2.708 -0.4516 -0.8530 -0.6901
  735SOL     MW 2940   3.044   0.974   2.655 -0.7512  0.1978  0.0715
  736SOL     OW 2941   0.061   0.597   2.523  0.4118  0.1580  0.9484
  736SOL    HW1 2942   0.102   0.633   2.441  0.8277 -1.5217 -0.1976
  736SOL    HW2 2943   0.035   0.504   2.500  0.3903 -0.6141  0.1324
  736SOL     MW 2944   0.063   0.590   2.509  0.4638 -0.1655  0.6895
  737SOL     OW 2945   2.927   0.710   2.616 -0.1280 -0.1911  0.1509
  737SOL    HW1 2946   2.867   0.701   2.540 -1.8997 -2.3607  1.0520
  737SOL    HW2 2947   3.011   0.670   2.593 -1.4905  1.4090 -0.3079
  737SOL     MW 2948   2.930   0.703   2.603 -0.5416 -0.2663  0.2093
  738SOL     OW 2949   0.171   0.521   1.985 -0.1512  0.6629  0.2234
  738SOL    HW1 2950   0.238   0.564   1.933 -2.3678  3.7184  1.4917
  738SOL    HW2 2951   0.182   0.428   1.983 -1.9603 -1.5233 -1.1037
  738SOL     MW 2952   0.182   0.515   1.978 -0.6823  0.7776  0.2156
  739SOL     OW 2953   2.551   0.952   2.166 -0.0674 -0.3648 -0.1200
  739SOL    HW1 2954   2.454   0.934   2.152 -1.2777  3.8851  1.0064
  739SOL    HW2 2955   2.571   0.996   2.085 -0.7208 -0.5473  0.5349
  739SOL     MW 2956   2.541   0.955   2.154 -0.3133  0.1718  0.1150
  740SOL     OW 2957   0.165   1.758   2.962 -0.0878  0.4983  0.1300
  740SOL    HW1 2958   0.129   1.678   2.997  0.2483 -0.3407 -1.0026
  740SOL    HW2 2959   0.258   1.752   2.987 -0.0851  0.8433 -3.3607
  740SOL     MW 2960   0.173   1.747   2.970 -0.0431  0.4332 -0.4800
  741SOL     OW 2961   2.205   1.194   2.718  0.1109 -0.0430 -0.6575
  741SOL    HW1 2962   2.202   1.289   2.694 -0.2365 -0.7243 -0.5322
  741SOL    HW2 2963   2.181   1.214   2.811 -0.0334  2.0497 -1.6953
  741SOL     MW 2964   2.202   1.210   2.727  0.0461  0.1432 -0.7779
  742SOL     OW 2965   1.660   1.350   2.285 -0.1125  0.2644 -0.2586
  742SOL    HW1 2966   1.592   1.284   2.254  1.2546 -1.9499  0.9545
  742SOL    HW2 2967   1.637   1.373   2.370 -1.4319  1.9092 -0.6639
  742SOL     MW 2968   1.648   1.345   2.292 -0.1062  0.1893 -0.1521
  743SOL     OW 2969   2.507   1.236   2.689 -0.0657  0.0069 -0.1775
  743SOL    HW1 2970   2.410   1.232   2.678  0.7976  0.5772  0.4978
  743SOL    HW2 2971   2.544   1.176   2.760 -0.4608 -3.3811  1.3858
  743SOL     MW 2972   2.499   1.228   2.697 -0.0039 -0.3649  0.1179
  744SOL     OW 2973   2.796   0.956   1.842  0.3887  1.0794 -0.4369
  744SOL    HW1 2974   2.718   0.999   1.881  0.0933  3.5904 -0.3627
  744SOL    HW2 2975   2.766   0.949   1.754 -1.5159  0.1034 -0.1788
  744SOL     MW 2976   2.781   0.961   1.836  0.0984  1.2819 -0.3930
  745SOL     OW 2977   1.766   0.431   2.482 -0.0362 -0.1617 -0.4333
  745SOL    HW1 2978   1.746   0.455   2.392  1.2164 -0.7442 -1.2693
  745SOL    HW2 2979   1.678   0.411   2.508 -0.4024 -0.6965  0.0339
  745SOL     MW 2980   1.751   0.431   2.474  0.0808 -0.3091 -0.4820
  746SOL     OW 2981   1.520   1.460   1.685 -0.4228  0.1655  0.5178
  746SOL    HW1 2982   1.571   1.532   1.714 -1.4134  1.3095 -0.8614
  746SOL    HW2 2983   1.516   1.397   1.753  1.7224  1.5390 -1.8589
  746SOL     MW 2984   1.526   1.461   1.698 -0.2705  0.4976  0.0222
  747SOL     OW 2985   2.557   1.088   1.918  0.3754  0.4511  0.1089
  747SOL    HW1 2986   2.460   1.078   1.900 -2.4209 -0.6263  0.5949
  747SOL    HW2 2987   2.562   1.180   1.943 -0.9593 -0.4079 -3.0270
  747SOL     MW 2988   2.545   1.099   1.919 -0.1697  0.1956 -0.2407
  748SOL     OW 2989   0.100   3.075   1.924  0.0257 -0.1009 -0.2299
  748SOL    HW1 2990   0.191   3.105   1.906  0.5398 -0.6749  2.4580
  748SOL    HW2 2991   0.075   3.137   1.989 -3.0282 -2.6926  0.6275
  748SOL     MW 2992   0.109   3.087   1.930 -0.3094 -0.5186  0.2378
  749SOL     OW 2993   2.392   0.617   2.773  0.5351 -0.3569  0.0854
  749SOL    HW1 2994   2.429   0.689   2.714  1.9048 -1.6360 -0.6007
  749SOL    HW2 2995   2.430   0.640   2.854  1.8807  1.1723  0.8946
  749SOL     MW 2996   2.402   0.629   2.776  0.8933 -0.3239  0.1016
  750SOL     OW 2997   2.087   3.033   1.944 -0.0528  0.4110 -0.4267
  750SOL    HW1 2998   2.147   3.106   1.952 -3.3458 -1.6474 -0.2657
  750SOL    HW2 2999   2.135   2.958   1.927 -0.0367  3.8182  1.9766
  750SOL     MW 3000   2.102   3.033   1.943 -0.4851  0.5890 -0.0884
  751SOL     OW 3001   3.070   0.352   2.388  0.1104  0.5107 -0.4402
  751SOL    HW1 3002   2.986   0.377   2.350  0.8993  0.3855 -0.1995
  751SOL    HW2 3003   3.131   0.349   2.319 -0.1576 -0.3051 -1.2275
  751SOL     MW 3004   3.067   0.355   2.374  0.1791  0.3866 -0.5123
  752SOL     OW 3005   2.163   0.893   2.766  0.1489  0.0730  0.1424
  752SOL    HW1 3006   2.244   0.940   2.783 -0.6857 -1.3623  0.6967
  752SOL    HW2 3007   2.131   0.852   2.848 -1.0031  0.6727 -1.4784
  752SOL     MW 3008   2.169   0.894   2.779 -0.1132 -0.0373  0.0017
  753SOL     OW 3009   2.821   0.406   2.294  0.0060  0.8612  0.3272
  753SOL    HW1 3010   2.773   0.324   2.309  1.4581  0.5497  1.0763
  753SOL    HW2 3011   2.790   0.468   2.357 -0.5422  2.2158  1.3636
  753SOL     MW 3012   2.811   0.403   2.304  0.1253  0.9988  0.5628
  754SOL     OW 3013   2.303   2.960   2.653 -0.1485  0.4315 -0.1063
  754SOL    HW1 3014   2.324   2.933   2.562 -0.7448 -0.9947 -2.0599
  754SOL    HW2 3015   2.372   2.923   2.711 -0.2918 -1.8401 -0.8043
  754SOL     MW 3016   2.315   2.951   2.648 -0.2461 -0.0564 -0.4562
  755SOL     OW 3017   2.792   1.590   2.488  0.1442 -0.1885  0.1959
  755SOL    HW1 3018   2.748   1.504   2.500  0.5350 -1.3288 -1.1731
  755SOL    HW2 3019   2.831   1.608   2.576  0.4635  1.8309  1.2004
  755SOL     MW 3020   2.791   1.581   2.501  0.2379 -0.0725  0.1478
  756SOL     OW 3021   2.201   1.262   3.002  0.8887  0.1406  0.1018
  756SOL    HW1 3022   2.266   1.338   3.035  1.0821  1.1060  0.7191
  756SOL    HW2 3023   2.265   1.192   2.986  1.7546  1.7498 -3.4732
  756SOL     MW 3024   2.218   1.263   3.004  1.0285  0.4803 -0.2885
  757SOL     OW 3025   2.184   0.968   1.657  0.5359  0.1822 -0.0394
  757SOL    HW1 3026   2.233   0.888   1.678  0.0532 -2.0196 -0.2253
  757SOL    HW2 3027   2.116   0.942   1.594 -1.7961 -1.0794 -1.5697
  757SOL     MW 3028   2.182   0.954   1.651  0.1645 -0.2748 -0.2658
  758SOL     OW 3029   2.235   1.835   2.636  0.3061 -0.0731 -0.2240
  758SOL    HW1 3030   2.230   1.863   2.539  0.9816 -2.5706 -2.8782
  758SOL    HW2 3031   2.322   1.797   2.646 -0.9648  0.1058 -0.4802
  758SOL     MW 3032   2.246   1.834   2.625  0.2275 -0.3790 -0.6080
  759SOL     OW 3033   1.530   1.447   2.786  0.2876 -0.4533 -0.6987
  759SOL    HW1 3034   1.516   1.516   2.724 -1.4636 -2.4785  2.3297
  759SOL    HW2 3035   1.582   1.482   2.862  0.4043  1.4267  2.0637
  759SOL     MW 3036   1.535   1.460   2.788  0.0719 -0.4724  0.0654
  760SOL     OW 3037   2.625   1.967   2.733  0.9738  0.1615 -0.6454
  760SOL    HW1 3038   2.594   1.876   2.712  3.4979  1.1427 -1.1102
  760SOL    HW2 3039   2.690   1.972   2.666 -1.0154  2.6761 -0.8517
  760SOL     MW 3040   2.629   1.956   2.721  1.0444  0.6228 -0.7339
  761SOL     OW 3041   2.204   0.451   2.457 -0.3558 -0.2522 -0.2664
  761SOL    HW1 3042   2.151   0.374   2.464  0.7707 -2.4634 -0.1406
  761SOL    HW2 3043   2.168   0.500   2.528  0.4222  2.2526  0.3531
  761SOL     MW 3044   2.193   0.448   2.468 -0.1045 -0.2134 -0.1681
  762SOL     OW 3045   0.030   0.149   2.105 -0.0872  0.2564 -0.3181
  762SOL    HW1 3046   0.017   0.094   2.186 -0.4870 -0.9277 -0.3310
  762SOL    HW2 3047  -0.050   0.199   2.081 -1.7913 -1.4992  2.3109
  762SOL     MW 3048   0.018   0.149   2.113 -0.3648 -0.1315  0.0270
  763SOL     OW 3049   2.451   1.139   2.331 -0.2542  0.4515  0.2947
  763SOL    HW1 3050   2.499   1.079   2.274 -0.7306  2.1415 -3.2269
  763SOL    HW2 3051   2.513   1.204   2.357 -0.6948 -2.3949  0.9695
  763SOL     MW 3052   2.466   1.140   2.327 -0.3752  0.2989 -0.0809
  764SOL     OW 3053   0.366   0.170   2.787 -0.5493 -0.1324 -0.3678
  764SOL    HW1 3054   0.335   0.173   2.696 -3.6550  0.9315  1.8673
  764SOL    HW2 3055   0.383   0.264   2.814 -1.9300  0.1560 -0.0039
  764SOL     MW 3056   0.364   0.183   2.778 -1.1413  0.0460 -0.0249
  765SOL     OW 3057   2.712   0.154   2.317  0.5006  0.2557  0.8015
  765SOL    HW1 3058   2.660   0.126   2.244 -0.8122  0.5394  1.5518
  765SOL    HW2 3059   2.749   0.074   2.355 -2.0693 -0.8786  1.0840
  765SOL     MW 3060   2.710   0.140   2.312 -0.0117  0.1435  0.9378
  766SOL     OW 3061   1.857   3.030   2.114 -0.2596 -0.4358  0.3536
  766SOL    HW1 3062   1.938   3.040   2.069 -1.5021 -0.2804 -1.8722
  766SOL    HW2 3063   1.801   2.978   2.053  0.1585 -2.3845 -0.2777
  766SOL     MW 3064   1.861   3.024   2.100 -0.3684 -0.6724 -0.0234
  767SOL     OW 3065   2.674   0.632   1.940  0.1983 -0.4901  0.6878
  767SOL    HW1 3066   2.714   0.669   2.016 -0.5119 -0.7243 -0.7141
  767SOL    HW2 3067   2.588   0.677   1.928  0.7801  0.0140 -3.0785
  767SOL     MW 3068   2.668   0.643   1.948  0.1814 -0.4545  0.0059
  768SOL     OW 3069   0.022   1.447   2.985  0.2566  0.1751 -0.1693
  768SOL    HW1 3070   0.052   1.482   3.069 -0.3651 -1.6920 -0.8304
  768SOL    HW2 3071   0.062   1.355   2.976 -2.4089 -1.1560 -0.0747
  768SOL     MW 3072   0.031   1.440   2.995 -0.1771 -0.2469 -0.2441
  769SOL     OW 3073   2.362   0.684   2.439  0.8281 -0.5142  0.5724
  769SOL    HW1 3074   2.318   0.602   2.436  1.3320 -1.7399  1.7428
  769SOL    HW2 3075   2.412   0.673   2.360  0.1410  3.2997 -0.1294
  769SOL     MW 3076   2.363   0.672   2.428  0.8039 -0.1727  0.6342
  770SOL     OW 3077   0.063   1.611   2.642 -0.4033 -0.2733  0.3211
  770SOL    HW1 3078  -0.027   1.621   2.668 -1.6212 -2.6944  2.1769
  770SOL    HW2 3079   0.082   1.519   2.670  0.1642 -1.0819 -3.7681
  770SOL     MW 3080   0.054   1.600   2.649 -0.4891 -0.6994  0.0264
  771SOL     OW 3081   3.000   0.565   1.950 -0.4005 -0.1828  0.2910
  771SOL    HW1 3082   2.963   0.581   1.866  1.6347 -0.2047  2.0134
  771SOL    HW2 3083   3.094   0.551   1.942  1.3581 -1.7037 -2.3241
  771SOL     MW 3084   3.008   0.565   1.938  0.1000 -0.3863  0.1732
  772SOL     OW 3085   0.016   3.098   2.310 -0.1403  0.0174  0.0405
  772SOL    HW1 3086  -0.077   3.083   2.331  0.7968  1.5567  0.6496
  772SOL    HW2 3087   0.053   3.010   2.298  1.0764  0.0936 -1.6458
  772SOL     MW 3088   0.009   3.085   2.311  0.1439  0.2305 -0.1016
  773SOL     OW 3089   2.483   2.853   2.818  0.2026  0.2569 -0.2011
  773SOL    HW1 3090   2.462   2.771   2.769 -2.4280 -2.1074 -1.2950
  773SOL    HW2 3091   2.436   2.844   2.905 -2.0948  0.9978  1.2306
  773SOL     MW 3092   2.474   2.841   2.823 -0.4476  0.0427 -0.1565
  774SOL     OW 3093   2.310   1.195   1.829 -0.6221  0.0638  0.1886
  774SOL    HW1 3094   2.334   1.257   1.756  0.2769 -0.8162 -0.9441
  774SOL    HW2 3095   2.236   1.154   1.794 -0.8441 -2.6245  3.5799
  774SOL     MW 3096   2.304   1.197   1.814 -0.5328 -0.4070  0.4866
  775SOL     OW 3097   2.271   2.947   2.335  0.5061  0.0520  0.1502
  775SOL    HW1 3098   2.311   3.024   2.300 -0.0775 -0.8484 -1.1704
  775SOL    HW2 3099   2.336   2.880   2.315 -0.4445  1.5181 -2.2040
  775SOL     MW 3100   2.285   2.949   2.328  0.3037  0.1266 -0.3346
  776SOL     OW 3101   0.117   1.539   0.118 -0.4123 -0.2708  0.0847
  776SOL    HW1 3102   0.197   1.484   0.110  2.6547  0.5274  0.2004
  776SOL    HW2 3103   0.063   1.483   0.180 -1.9567  3.0048  0.8380
  776SOL     MW 3104   0.120   1.525   0.125 -0.2114  0.2667  0.1994
  777SOL     OW 3105   2.986   1.115   1.737  0.4066  0.0023 -0.0175
  777SOL    HW1 3106   2.931   1.147   1.664 -0.5119 -2.2321 -0.6782
  777SOL    HW2 3107   2.916   1.070   1.784  0.1028  0.3909  3.4070
  777SOL     MW 3108   2.969   1.113   1.734  0.2454 -0.2412  0.3472
  778SOL     OW 3109   2.810   0.424   2.734 -0.6724 -0.1083 -0.5176
  778SOL    HW1 3110   2.774   0.451   2.823  1.3091  0.6927 -2.5711
  778SOL    HW2 3111   2.824   0.505   2.687  2.6039 -1.4089 -2.1000
  778SOL     MW 3112   2.807   0.438   2.740  0.0213 -0.1742 -0.9973
  779SOL     OW 3113   2.238   0.548   2.145 -0.3919  1.0510  0.6903
  779SOL    HW1 3114   2.151   0.575   2.174  0.2644 -1.6615  2.9547
  779SOL    HW2 3115   2.243   0.463   2.187 -1.5459 -1.8720  0.7839
  779SOL     MW 3116   2.227   0.541   2.154 -0.4575  0.3075  1.0014
  780SOL     OW 3117   0.105   0.284   2.675  0.2212  0.7344  0.1574
  780SOL    HW1 3118   0.016   0.259   2.665 -1.0488  0.8749  2.9429
  780SOL    HW2 3119   0.111   0.300   2.769  0.8519 -1.8575 -1.8409
  780SOL     MW 3120   0.094   0.283   2.686  0.1368  0.4110  0.2613
  781SOL     OW 3121   3.035   1.306   2.467 -0.1913  0.4516 -0.0788
  781SOL    HW1 3122   3.009   1.352   2.385  0.3335  1.7220 -0.3984
  781SOL    HW2 3123   3.064   1.220   2.445 -1.1092  1.1761 -0.2195
  781SOL     MW 3124   3.035   1.301   2.453 -0.2431  0.7148 -0.1395
  782SOL     OW 3125   0.602   1.545   0.058  0.1508  0.7953 -0.1059
  782SOL    HW1 3126   0.514   1.593   0.026  0.0691  0.3388  0.5695
  782SOL    HW2 3127   0.653   1.611   0.099  1.6757 -0.1249 -1.6199
  782SOL     MW 3128   0.597   1.560   0.059  0.3412  0.6137 -0.2165
  783SOL     OW 3129   2.700   0.624   2.429  0.4984  0.1293  0.2997
  783SOL    HW1 3130   2.648   0.641   2.347 -0.0329  0.2264  0.9793
  783SOL    HW2 3131   2.641   0.582   2.497  0.9251 -1.1188  1.9289
  783SOL     MW 3132   2.685   0.620   2.427  0.4846 -0.0225  0.6043
  784SOL     OW 3133   0.192   0.859   2.881 -0.3342  0.0687 -0.5547
  784SOL    HW1 3134   0.095   0.879   2.882 -1.6034  2.0162  0.5989
  784SOL    HW2 3135   0.220   0.889   2.789 -1.3744  1.6800 -0.5658
  784SOL     MW 3136   0.183   0.865   2.869 -0.6389  0.5382 -0.4040
  785SOL     OW 3137   0.439   0.436   2.206 -0.1587  0.2767 -0.0795
  785SOL    HW1 3138   0.443   0.463   2.111 -3.7501  1.3832  0.9138
  785SOL    HW2 3139   0.363   0.377   2.222 -0.3341  0.8233 -2.4112
  785SOL     MW 3140   0.429   0.432   2.196 -0.6557  0.4948 -0.2561
  786SOL     OW 3141   1.902   0.405   2.976  0.0528 -0.3811 -0.5476
  786SOL    HW1 3142   1.846   0.466   3.013  2.9080 -1.4790  0.4649
  786SOL    HW2 3143   1.951   0.445   2.905 -2.1439  0.0472 -1.2108
  786SOL     MW 3144   1.901   0.418   2.972  0.1397 -0.4694 -0.5015
  787SOL     OW 3145   2.468   0.099   2.955 -0.0976 -0.2856 -0.4919
  787SOL    HW1 3146   2.542   0.059   2.900  1.8812 -3.2546 -1.5244
  787SOL    HW2 3147   2.498   0.182   2.998  3.6374  0.2371 -2.8400
  787SOL     MW 3148   2.482   0.105   2.953  0.6563 -0.6084 -0.9379
  788SOL     OW 3149   2.853   3.036   2.420  0.1133  0.7121  0.4158
  788SOL    HW1 3150   2.848   2.981   2.496  0.9803  1.2262  0.9728
  788SOL    HW2 3151   2.840   2.974   2.346  0.2289 -0.6230 -1.1433
  788SOL     MW 3152   2.851   3.020   2.420  0.2430  0.6038  0.2836
  789SOL     OW 3153   0.095   0.188   3.040 -0.2153  0.0178 -0.2742
  789SOL    HW1 3154   0.060   0.101   3.046 -0.2003 -0.9085  0.9966
  789SOL    HW2 3155   0.029   0.250   2.999 -2.8977  0.6952  0.9517
  789SOL     MW 3156   0.082   0.185   3.036 -0.5673 -0.0150  0.0552
  790SOL     OW 3157   3.106   1.050   2.379  0.2645 -0.6765 -0.6512
  790SOL    HW1 3158   3.071   1.021   2.467 -0.8967 -0.1974 -0.7584
  790SOL    HW2 3159   3.036   1.062   2.315 -1.7929 -0.0464 -3.3724
  790SOL     MW 3160   3.092   1.048   2.382 -0.1601 -0.5301 -1.0244
  791SOL     OW 3161   2.540   0.456   2.588  0.3153 -0.3478 -0.3502
  791SOL    HW1 3162   2.462   0.504   2.632 -5.0412  0.2082  1.7925
  791SOL    HW2 3163   2.584   0.418   2.662  2.5686 -1.3177 -1.4452
  791SOL     MW 3164   2.535   0.458   2.604 -0.0942 -0.4024 -0.2120
  792SOL     OW 3165   2.336   0.213   2.426 -0.2535  0.0389 -0.0400
  792SOL    HW1 3166   2.294   0.302   2.431 -3.7603  0.8197  0.2137
  792SOL    HW2 3167   2.303   0.177   2.508  0.6574 -0.0075  0.5772
  792SOL     MW 3168   2.326   0.220   2.437 -0.5960  0.1358  0.0749
  793SOL     OW 3169   1.897   1.124   1.991  0.3143  0.9942 -0.0808
  793SOL    HW1 3170   1.870   1.108   1.896  0.2492  0.1655 -2.2697
  793SOL    HW2 3171   1.988   1.096   2.008  1.6673 -0.0731  2.9240
  793SOL     MW 3172   1.905   1.118   1.981  0.4842  0.7441  0.0268
  794SOL     OW 3173   1.402   2.346   0.133  0.1753  0.0595 -0.2507
  794SOL    HW1 3174   1.418   2.433   0.096 -0.7452  4.7621 -0.0533
  794SOL    HW2 3175   1.464   2.341   0.207  1.3681  0.3949 -0.5484
  794SOL     MW 3176   1.412   2.357   0.138  0.2113  0.7242 -0.2639
  795SOL     OW 3177   2.304   1.000   2.546 -0.1492 -0.2519  1.0101
  795SOL    HW1 3178   2.254   1.066   2.600  1.3219  2.3805  1.0359
  795SOL    HW2 3179   2.363   1.046   2.487 -1.2401 -1.0552 -2.1820
  795SOL     MW 3180   2.305   1.015   2.545 -0.0990 -0.0105  0.5923
  796SOL     OW 3181   0.258   0.625   2.757 -0.1958  0.0623 -0.0801
  796SOL    HW1 3182   0.226   0.700   2.805  1.4116  0.6943  1.0479
  796SOL    HW2 3183   0.196   0.612   2.682 -1.5021  0.4364  0.3533
  796SOL     MW 3184   0.245   0.633   2.753 -0.1560  0.1951  0.1259
  797SOL     OW 3185   2.608   0.138   2.572  0.2349 -0.3098  0.1247
  797SOL    HW1 3186   2.529   0.195   2.539  3.0945 -0.7527 -0.6875
  797SOL    HW2 3187   2.666   0.143   2.493  1.4614  0.1123 -0.1108
  797SOL     MW 3188   2.605   0.146   2.557  0.7740 -0.3126 -0.0135
  798SOL     OW 3189   2.355   0.104   2.169  0.1027 -0.2244 -0.4955
  798SOL    HW1 3190   2.371   0.154   2.255 -1.9406 -0.2315 -1.8264
  798SOL    HW2 3191   2.443   0.073   2.148 -0.6658  0.5859 -3.2851
  798SOL     MW 3192   2.369   0.106   2.177 -0.2683 -0.1185 -1.0392
  799SOL     OW 3193   2.554   2.970   0.133 -0.1134 -0.3610 -0.6296
  799SOL    HW1 3194   2.491   2.924   0.083  1.1531  1.3901 -0.0928
  799SOL    HW2 3195   2.529   2.978   0.227  1.1479 -1.9801  1.5191
  799SOL     MW 3196   2.542   2.965   0.139  0.2202 -0.3436 -0.2753
  800SOL     OW 3197   1.931   0.061   1.744  0.1805  0.0259 -0.1610
  800SOL    HW1 3198   1.871  -0.009   1.713 -0.7674  0.2980 -0.2105
  800SOL    HW2 3199   1.975   0.028   1.819 -3.3294  0.1993  1.1734
  800SOL     MW 3200   1.929   0.047   1.750 -0.4077  0.0847  0.0085
  801SOL     OW 3201   2.802   1.234   2.587  0.8110  0.2527  0.3204
  801SOL    HW1 3202   2.806   1.140   2.579 -1.8456  0.2677 -1.4250
  801SOL    HW2 3203   2.887   1.268   2.547 -0.2130  2.1930  1.1996
  801SOL     MW 3204   2.814   1.226   2.581  0.3254  0.5107  0.2061
  802SOL     OW 3205   2.593   1.475   2.785  0.2043  0.3223  0.0932
  802SOL    HW1 3206   2.573   1.402   2.726 -1.1985  1.9569  0.6132
  802SOL    HW2 3207   2.673   1.459   2.827  0.5122  1.5333  1.4115
  802SOL     MW 3208   2.601   1.463   2.783  0.0598  0.6978  0.3358
  803SOL     OW 3209   2.233   1.359   2.023 -0.1182 -0.6461  0.4325
  803SOL    HW1 3210   2.218   1.325   2.107  0.0243 -2.9517 -1.7731
  803SOL    HW2 3211   2.244   1.280   1.966  0.7985 -0.6465 -1.4320
  803SOL     MW 3212   2.233   1.344   2.026  0.0215 -0.9504 -0.1045
  804SOL     OW 3213   2.275   0.076   0.052 -0.3864 -0.0529  0.2010
  804SOL    HW1 3214   2.221   0.154   0.029 -1.3246  0.4869  2.0275
  804SOL    HW2 3215   2.341   0.067  -0.023 -2.2000  1.1572  0.4364
  804SOL     MW 3216   2.276   0.085   0.039 -0.7495  0.1780  0.4731
  805SOL     OW 3217   2.753   0.953   2.597  0.2178 -0.3856 -0.2175
  805SOL    HW1 3218   2.671   0.912   2.571  0.9485 -0.8435 -0.2234
  805SOL    HW2 3219   2.820   0.889   2.598 -0.4331  2.0476  0.3284
  805SOL     MW 3220   2.751   0.939   2.594  0.2283 -0.1250 -0.1462
  806SOL     OW 3221   2.500   0.678   2.194 -0.1463 -0.8369  0.4648
  806SOL    HW1 3222   2.434   0.653   2.129  0.1790 -0.7527  0.2283
  806SOL    HW2 3223   2.538   0.765   2.174  0.7076 -4.0220 -0.4206
  806SOL     MW 3224   2.497   0.686   2.183  0.0093 -1.2460  0.3167
  807SOL     OW 3225   0.062   1.076   2.049 -0.2596 -0.0803  0.3290
  807SOL    HW1 3226   0.087   0.982   2.025 -1.7192 -1.8772 -3.3210
  807SOL    HW2 3227  -0.027   1.077   2.092  0.6871  0.4901 -0.0364
  807SOL     MW 3228   0.054   1.064   2.051 -0.3273 -0.2421 -0.2008
  808SOL     OW 3229   2.652   3.069   2.774  0.4638  0.1851  0.1212
  808SOL    HW1 3230   2.608   2.986   2.772  1.6046 -0.6638 -1.6670
  808SOL    HW2 3231   2.618   3.128   2.710  1.4644 -1.3274  1.5989
  808SOL     MW 3232   2.642   3.066   2.766  0.7464 -0.1264  0.0803
  809SOL     OW 3233   2.625   1.351   2.425 -0.7581  0.7176  0.5674
  809SOL    HW1 3234   2.688   1.318   2.485 -0.5523  0.9208 -1.2866
  809SOL    HW2 3235   2.674   1.353   2.336  0.9865  0.7187  0.5698
  809SOL     MW 3236   2.640   1.346   2.421 -0.5008  0.7446  0.3231
  810SOL     OW 3237   2.226   1.318   2.304  0.2653 -0.1294 -0.0212
  810SOL    HW1 3238   2.287   1.247   2.320 -1.1860  1.4378 -0.9814
  810SOL    HW2 3239   2.196   1.345   2.388 -1.2474  0.8936 -1.5696
  810SOL     MW 3240   2.230   1.312   2.317 -0.1258  0.2123 -0.3522
  811SOL     OW 3241   1.530   0.131   2.315 -0.1034  0.3379  0.2268
  811SOL    HW1 3242   1.602   0.086   2.356 -0.0019 -2.9317  1.1874
  811SOL    HW2 3243   1.539   0.106   2.223 -1.4805 -0.5834  0.8549
  811SOL     MW 3244   1.541   0.122   2.308 -0.2717 -0.2151  0.4364
  812SOL     OW 3245   1.471   2.800   2.004  0.3697 -0.6035  0.1203
  812SOL    HW1 3246   1.562   2.809   1.973 -1.1610 -1.7635  0.7293
  812SOL    HW2 3247   1.485   2.800   2.099 -1.3456  0.3823 -1.0044
  812SOL     MW 3248   1.485   2.801   2.012 -0.0585 -0.6265  0.0522
  813SOL     OW 3249   1.996   0.609   2.235 -0.0074  0.1227  0.0447
  813SOL    HW1 3250   1.919   0.556   2.208 -3.0087 -2.5472 -1.9849
  813SOL    HW2 3251   1.968   0.678   2.297  1.0877 -1.8486  0.4702
  813SOL     MW 3252   1.982   0.611   2.240 -0.2589 -0.4897 -0.1670
  814SOL     OW 3253   2.716   1.269   1.656 -0.7531  0.1550 -0.0397
  814SOL    HW1 3254   2.664   1.212   1.717 -0.0929  0.8838 -0.2798
  814SOL    HW2 3255   2.724   1.220   1.571  2.4575 -2.0063 -1.9267
  814SOL     MW 3256   2.710   1.255   1.653 -0.2424 -0.0340 -0.3203
  815SOL     OW 3257   2.585   1.754   2.394 -0.2667 -0.4181  0.3448
  815SOL    HW1 3258   2.520   1.678   2.400 -1.5671  0.8262  0.3994
  815SOL    HW2 3259   2.662   1.703   2.426  0.5333 -2.6808  2.9615
  815SOL     MW 3260   2.587   1.738   2.399 -0.3327 -0.5524  0.6973
  816SOL     OW 3261   0.721   0.729   2.735  0.7210  0.3276  0.0262
  816SOL    HW1 3262   0.719   0.634   2.769 -2.0478 -1.7209  1.0233
  816SOL    HW2 3263   0.630   0.753   2.688 -1.1938 -0.8744  0.1311
  816SOL     MW 3264   0.709   0.719   2.734  0.1030 -0.1013  0.1716
  817SOL     OW 3265   2.981   1.204   1.456  0.3062 -0.0646 -0.4463
  817SOL    HW1 3266   3.071   1.186   1.448 -2.4416 -0.5543  0.3910
  817SOL    HW2 3267   2.978   1.302   1.436  0.5701  0.4702  0.6326
  817SOL     MW 3268   2.993   1.215   1.452 -0.0215 -0.0586 -0.1934
  818SOL     OW 3269   1.911   1.077   2.668 -0.3137 -0.8087  0.4081
  818SOL    HW1 3270   1.891   1.025   2.588  0.1176 -0.0074  1.8786
  818SOL    HW2 3271   2.005   1.063   2.687  0.8937 -1.0185  0.3295
  818SOL     MW 3272   1.921   1.068   2.660 -0.0975 -0.7306  0.5918
  819SOL     OW 3273   1.990   0.276   2.525  0.2161 -0.2357 -0.3904
  819SOL    HW1 3274   1.905   0.329   2.510 -2.1292 -0.2624  1.5190
  819SOL    HW2 3275   2.007   0.286   2.621  1.1996  1.4566 -1.0321
  819SOL     MW 3276   1.981   0.285   2.535  0.0364 -0.0160 -0.2231
  820SOL     OW 3277   2.519   1.717   2.685  0.2280 -0.3816 -0.5073
  820SOL    HW1 3278   2.546   1.634   2.727 -2.7078  0.5648 -0.9857
  820SOL    HW2 3279   2.558   1.713   2.596  1.9664 -0.2210 -0.2473
  820SOL     MW 3280   2.528   1.706   2.679  0.0700 -0.2355 -0.5361
  821SOL     OW 3281   2.552   1.361   2.010  0.7552  0.1226 -0.2062
  821SOL    HW1 3282   2.567   1.408   1.932  2.5437  0.0255  4.3266
  821SOL    HW2 3283   2.456   1.368   2.006 -2.2589  0.9871  1.2954
  821SOL     MW 3284   2.542   1.368   1.999  0.5935  0.2239  0.5900
  822SOL     OW 3285   2.819   2.678   1.425 -0.6616  0.0974 -0.4697
  822SOL    HW1 3286   2.865   2.654   1.510  2.2484 -0.3662 -0.1719
  822SOL    HW2 3287   2.835   2.771   1.416  0.0446 -1.9783  0.4704
  822SOL     MW 3288   2.827   2.687   1.435 -0.1845 -0.2376 -0.3064
  823SOL     OW 3289   2.390   0.491   1.820  0.0680 -0.4992 -0.6149
  823SOL    HW1 3290   2.442   0.423   1.776 -2.7873  3.2860 -2.3188
  823SOL    HW2 3291   2.349   0.443   1.891 -2.6578  1.4629  1.6913
  823SOL     MW 3292   2.391   0.476   1.824 -0.6684  0.2591 -0.5354
  824SOL     OW 3293   2.192   1.431   2.587 -0.8443 -0.7623 -0.4217
  824SOL    HW1 3294   2.276   1.460   2.546 -0.9037 -0.1186 -1.7289
  824SOL    HW2 3295   2.159   1.510   2.627  0.7934  0.9798 -1.8517
  824SOL     MW 3296   2.199   1.445   2.587 -0.6361 -0.4475 -0.7829
  825SOL     OW 3297   1.914   2.504   0.277 -0.9607 -0.2566  0.5281
  825SOL    HW1 3298   1.891   2.440   0.338  1.2210  2.0677 -0.3957
  825SOL    HW2 3299   1.993   2.471   0.232  2.0955  2.3019  1.4906
  825SOL     MW 3300   1.921   2.491   0.279 -0.2696  0.3876  0.5332
  826SOL     OW 3301   1.803   2.392   0.497  0.3573  0.6840  0.3166
  826SOL    HW1 3302   1.760   2.320   0.546 -0.4101  1.6600  0.2319
  826SOL    HW2 3303   1.799   2.467   0.553 -1.4277 -0.0751 -0.4902
  826SOL     MW 3304   1.797   2.392   0.511  0.0205  0.7127  0.1989
  827SOL     OW 3305   1.911   2.194   0.797  0.0372 -0.1506  0.5273
  827SOL    HW1 3306   1.863   2.213   0.715  3.1280  1.4899  0.4836
  827SOL    HW2 3307   1.849   2.147   0.861 -0.4488 -0.0460  1.7895
  827SOL     MW 3308   1.897   2.190   0.795  0.3809  0.0796  0.6881
  828SOL     OW 3309   0.049   2.560   0.567 -0.4360 -0.2969 -0.0984
  828SOL    HW1 3310   0.147   2.556   0.568 -0.8655 -0.2939  0.0937
  828SOL    HW2 3311   0.017   2.626   0.510  1.8927  1.0752  1.3908
  828SOL     MW 3312   0.057   2.568   0.560 -0.1854 -0.1155  0.1234
  829SOL     OW 3313   2.977   2.931   1.159  0.2712  0.6773 -0.3545
  829SOL    HW1 3314   2.898   2.902   1.106 -1.3037 -0.7336  0.5637
  829SOL    HW2 3315   3.043   2.859   1.154 -0.6515  0.6516  0.9732
  829SOL     MW 3316   2.975   2.917   1.152 -0.0583  0.4877 -0.0581
  830SOL     OW 3317   2.581   2.809   2.020  0.1381 -0.2567  0.2798
  830SOL    HW1 3318   2.486   2.834   1.990 -3.0604  0.2788 -0.9853
  830SOL    HW2 3319   2.630   2.809   1.939  1.8545  1.8924  0.2141
  830SOL     MW 3320   2.575   2.812   2.006 -0.0575  0.0975  0.1042
  831SOL     OW 3321   2.360   2.477   1.202  0.2787  0.2354  0.4324
  831SOL    HW1 3322   2.327   2.423   1.272 -3.0210  1.0658  2.1046
  831SOL    HW2 3323   2.445   2.429   1.183 -0.9969 -0.2068  0.2204
  831SOL     MW 3324   2.367   2.463   1.209 -0.3250  0.2866  0.6251
  832SOL     OW 3325   2.361   2.207   1.897 -0.0052 -0.6070  0.7947
  832SOL    HW1 3326   2.394   2.294   1.914  3.2665  0.7927 -1.1505
  832SOL    HW2 3327   2.438   2.152   1.875 -1.7420 -3.5251 -0.1264
  832SOL     MW 3328   2.375   2.211   1.896  0.1973 -0.8074  0.4166
  833SOL     OW 3329   1.710   2.463   0.860  0.2857  0.0939  0.7794
  833SOL    HW1 3330   1.650   2.414   0.912  1.5264 -1.6944 -2.6286
  833SOL    HW2 3331   1.731   2.534   0.916 -1.1002 -3.1146 -3.1659
  833SOL     MW 3332   1.705   2.466   0.874  0.2665 -0.5653 -0.1908
  834SOL     OW 3333   2.098   2.452   0.567  0.9110  0.3154  0.4572
  834SOL    HW1 3334   2.012   2.417   0.556 -1.0103 -1.7676  1.2908
  834SOL    HW2 3335   2.163   2.420   0.495  0.1720  1.7779  1.3892
  834SOL     MW 3336   2.095   2.443   0.556  0.5600  0.2335  0.6902
  835SOL     OW 3337   1.775   2.605   0.652 -0.6019 -0.3068 -0.0689
  835SOL    HW1 3338   1.755   2.543   0.736  0.6485 -0.3607  1.3620
  835SOL    HW2 3339   1.845   2.668   0.664 -3.5478 -2.8487 -0.9025
  835SOL     MW 3340   1.782   2.605   0.665 -0.8256 -0.6493  0.0099
  836SOL     OW 3341   1.946   2.215   1.616 -0.2938  0.1030  0.1633
  836SOL    HW1 3342   2.029   2.244   1.658 -0.9052 -0.6953  1.6845
  836SOL    HW2 3343   1.868   2.250   1.658 -0.7578 -0.0590 -0.2318
  836SOL     MW 3344   1.947   2.223   1.627 -0.4357 -0.0237  0.3119
  837SOL     OW 3345   2.103   0.219   0.672 -0.7314 -0.2940  0.3531
  837SOL    HW1 3346   2.016   0.252   0.643 -0.0372  2.2104 -3.8997
  837SOL    HW2 3347   2.113   0.132   0.629  1.8610  0.1384  0.0774
  837SOL     MW 3348   2.093   0.212   0.663 -0.2978  0.0934 -0.2444
  838SOL     OW 3349   2.943   2.042   0.914 -0.2601  0.1754 -0.2032
  838SOL    HW1 3350   2.883   1.989   0.965  1.1402 -1.0072  0.2813
  838SOL    HW2 3351   3.006   1.991   0.867  1.2896  1.4753  1.7497
  838SOL     MW 3352   2.944   2.028   0.915  0.1291  0.1909  0.1184
  839SOL     OW 3353   1.479   2.345   0.999 -0.6595  0.3268 -0.4941
  839SOL    HW1 3354   1.517   2.384   1.081  1.3734 -3.3081 -1.5343
  839SOL    HW2 3355   1.524   2.265   1.001  3.1631  1.4850 -0.9307
  839SOL     MW 3356   1.490   2.339   1.010  0.1131  0.0001 -0.6889
  840SOL     OW 3357   2.364   2.156   2.445 -0.3742  0.1544 -0.2195
  840SOL    HW1 3358   2.307   2.228   2.410 -0.1748 -1.4784  0.5273
  840SOL    HW2 3359   2.398   2.185   2.528  3.9728  1.0183 -3.2803
  840SOL     MW 3360   2.361   2.169   2.451  0.2257  0.0530 -0.5248
  841SOL     OW 3361   2.117   2.429   0.132 -0.0259 -0.0275  0.0284
  841SOL    HW1 3362   2.146   2.487   0.060 -1.3275  0.6936 -1.7047
  841SOL    HW2 3363   2.101   2.337   0.101  2.4889  0.3288  0.7592
  841SOL     MW 3364   2.119   2.425   0.119  0.1342  0.1146 -0.1038
  842SOL     OW 3365   2.603   2.080   1.542  0.1837 -0.2641 -0.0013
  842SOL    HW1 3366   2.540   2.013   1.563 -0.0231  2.0496 -0.2027
  842SOL    HW2 3367   2.583   2.115   1.455 -2.7271  2.5367  2.9156
  842SOL     MW 3368   2.592   2.076   1.533 -0.2276  0.4107  0.3570
  843SOL     OW 3369   2.679   2.784   1.768 -0.3634 -0.3956 -0.0420
  843SOL    HW1 3370   2.768   2.748   1.731  2.1681 -0.3042 -0.3655
  843SOL    HW2 3371   2.609   2.725   1.732 -4.2516 -0.2834 -2.6417
  843SOL     MW 3372   2.682   2.771   1.758 -0.5424 -0.3687 -0.4277
  844SOL     OW 3373   2.585   2.331   1.153  0.0106 -0.4606 -0.0758
  844SOL    HW1 3374   2.619   2.362   1.067 -2.7609 -1.9078 -0.9651
  844SOL    HW2 3375   2.643   2.358   1.223 -1.3263 -0.5932  1.7334
  844SOL     MW 3376   2.597   2.339   1.151 -0.5315 -0.6690  0.0456
  845SOL     OW 3377   2.828   2.446   0.298  0.0134 -0.0823 -0.1327
  845SOL    HW1 3378   2.778   2.365   0.297  0.5116 -0.8109 -0.2308
  845SOL    HW2 3379   2.814   2.469   0.387 -2.3498 -2.7617 -2.0645
  845SOL     MW 3380   2.820   2.438   0.310 -0.2327 -0.5320 -0.4005
  846SOL     OW 3381   1.543   2.887   0.767  0.4892  0.5803 -0.9711
  846SOL    HW1 3382   1.570   2.899   0.857 -1.0070  0.4723 -0.8019
  846SOL    HW2 3383   1.448   2.890   0.773 -2.5929 -0.6997 -0.5852
  846SOL     MW 3384   1.534   2.889   0.780 -0.1148  0.3972 -0.8979
  847SOL     OW 3385   2.604   1.932   0.181 -0.2097  0.2484 -0.2170
  847SOL    HW1 3386   2.684   1.873   0.187  0.1370 -1.6767 -0.8769
  847SOL    HW2 3387   2.557   1.898   0.098 -1.4565  2.5904 -0.8668
  847SOL     MW 3388   2.608   1.919   0.171 -0.3285  0.3034 -0.3898
  848SOL     OW 3389   2.480   2.144   1.313 -0.5313 -0.3675 -0.1681
  848SOL    HW1 3390   2.515   2.214   1.256  0.0802  2.4421 -1.4182
  848SOL    HW2 3391   2.437   2.093   1.247  0.9643  1.3980 -0.2343
  848SOL     MW 3392   2.479   2.147   1.297 -0.2533  0.2361 -0.3418
  849SOL     OW 3393   1.982   2.779   0.750  0.3459  0.3171 -0.3544
  849SOL    HW1 3394   1.987   2.755   0.845 -0.4062  1.6446 -0.6761
  849SOL    HW2 3395   2.071   2.769   0.701  0.5952 -2.1762  1.3417
  849SOL     MW 3396   1.994   2.775   0.756  0.2795  0.1633 -0.1731
  850SOL     OW 3397   2.210   1.944   1.688  0.5869 -0.4207 -0.0404
  850SOL    HW1 3398   2.118   1.915   1.662 -0.8684  1.0217 -1.9933
  850SOL    HW2 3399   2.221   2.043   1.700  2.2396  1.3234 -1.0107
  850SOL     MW 3400   2.200   1.953   1.686  0.6130 -0.0003 -0.4261
  851SOL     OW 3401   2.256   2.363   0.363 -0.1177  0.4841  0.0134
  851SOL    HW1 3402   2.193   2.372   0.287  2.6597  0.1706  3.6198
  851SOL    HW2 3403   2.299   2.447   0.349 -0.8837  0.5315 -1.4248
  851SOL     MW 3404   2.253   2.375   0.351  0.1477  0.4490  0.2995
  852SOL     OW 3405   2.291   2.188   0.187  0.6558 -0.4613 -0.2695
  852SOL    HW1 3406   2.300   2.252   0.264  0.8096 -0.3849  0.9149
  852SOL    HW2 3407   2.380   2.184   0.148 -1.2153  1.7343 -0.0411
  852SOL     MW 3408   2.304   2.196   0.192  0.4292 -0.1616 -0.0831
  853SOL     OW 3409   2.468   2.436   1.987  0.0251  0.1259 -0.0332
  853SOL    HW1 3410   2.459   2.498   1.915  2.3370  0.7696 -0.4797
  853SOL    HW2 3411   2.560   2.442   2.030  1.2872  1.3455 -0.5794
  853SOL     MW 3412   2.479   2.445   1.983  0.4967  0.3718 -0.1642
  854SOL     OW 3413   2.845   2.271   0.786 -0.2987  0.3808  0.2790
  854SOL    HW1 3414   2.777   2.217   0.748  1.1824 -0.0719 -0.5739
  854SOL    HW2 3415   2.900   2.210   0.836 -0.5035  0.5391  0.8224
  854SOL     MW 3416   2.843   2.256   0.787 -0.1303  0.3420  0.2382
  855SOL     OW 3417   2.658   2.233   0.325  0.1141 -0.3864 -0.3497
  855SOL    HW1 3418   2.629   2.280   0.406 -0.6714  2.3443  1.5995
  855SOL    HW2 3419   2.744   2.200   0.337 -0.6981 -0.3871 -0.9013
  855SOL     MW 3420   2.666   2.235   0.337 -0.0967 -0.0262 -0.1653
  856SOL     OW 3421   2.179   1.951   0.223  0.2340 -0.0016 -0.3621
  856SOL    HW1 3422   2.083   1.953   0.230 -0.1269 -0.2837  2.4161
  856SOL    HW2 3423   2.212   2.040   0.236  1.1255 -0.2908  0.0874
  856SOL     MW 3424   2.171   1.963   0.226  0.3040 -0.0770  0.0638
  857SOL     OW 3425   2.583   1.983   0.487  0.1017  0.8613  0.5678
  857SOL    HW1 3426   2.580   2.000   0.392 -0.5479  2.6779 -3.2648
  857SOL    HW2 3427   2.505   1.930   0.503  4.3161  0.2377 -3.8301
  857SOL     MW 3428   2.572   1.978   0.476  0.5720  1.0187 -0.5181
  858SOL     OW 3429   2.909   2.638   1.684 -0.2122  0.3420 -0.5594
  858SOL    HW1 3430   2.991   2.655   1.738  0.1415 -1.4517 -0.3235
  858SOL    HW2 3431   2.867   2.563   1.736 -0.4413  3.6129  0.9820
  858SOL     MW 3432   2.914   2.630   1.698 -0.1957  0.5369 -0.3249
  859SOL     OW 3433   2.121   2.493   0.853  0.1417  0.0480  0.1390
  859SOL    HW1 3434   2.101   2.470   0.758 -1.4628  0.2175  0.1407
  859SOL    HW2 3435   2.190   2.432   0.878  1.9979 -1.3409 -0.1370
  859SOL     MW 3436   2.127   2.482   0.844  0.1749 -0.1129  0.1028
  860SOL     OW 3437   2.644   2.578   0.139  0.5973 -0.1540 -0.3211
  860SOL    HW1 3438   2.706   2.540   0.208 -1.9118 -1.7961  2.3977
  860SOL    HW2 3439   2.689   2.658   0.103  0.2124  1.1782 -1.6846
  860SOL     MW 3440   2.658   2.584   0.143  0.2155 -0.1949 -0.1423
  861SOL     OW 3441   1.575   2.140   1.225 -0.3963  0.0588  0.2795
  861SOL    HW1 3442   1.595   2.166   1.317 -2.0252 -0.1272 -2.7602
  861SOL    HW2 3443   1.504   2.076   1.240 -1.2737  0.5637 -0.2658
  861SOL     MW 3444   1.568   2.135   1.239 -0.7269  0.1009 -0.1935
  862SOL     OW 3445   2.403   1.894   1.499 -0.2656 -0.0716  0.0114
  862SOL    HW1 3446   2.324   1.917   1.551  0.8267 -1.1736 -0.6730
  862SOL    HW2 3447   2.368   1.907   1.412 -3.3668  0.7590 -0.0996
  862SOL     MW 3448   2.388   1.899   1.494 -0.5306 -0.1074 -0.0935
  863SOL     OW 3449   0.010   1.765   1.202  0.6726  0.1836 -0.0717
  863SOL    HW1 3450   0.081   1.785   1.143  0.5285  4.5448  0.3160
  863SOL    HW2 3451  -0.033   1.849   1.209  2.0563 -2.4403 -1.6305
  863SOL     MW 3452   0.014   1.779   1.195  0.8362  0.4128 -0.2263
  864SOL     OW 3453   0.015   1.838   0.819 -0.1386  0.1483  0.8009
  864SOL    HW1 3454  -0.051   1.783   0.868 -1.7634 -0.8028 -1.1887
  864SOL    HW2 3455  -0.004   1.813   0.731  0.7926 -0.0494  0.5577
  864SOL     MW 3456   0.004   1.827   0.814 -0.2301 -0.0033  0.5063
  865SOL     OW 3457   2.533   2.166   0.063  0.3592 -0.4335 -0.2198
  865SOL    HW1 3458   2.570   2.101   0.113 -2.2958  4.1686  2.2340
  865SOL    HW2 3459   2.506   2.128  -0.020  0.9997 -0.1369 -0.4481
  865SOL     MW 3460   2.535   2.153   0.058  0.0934  0.2128  0.0738
  866SOL     OW 3461   2.627   2.341   1.620 -0.1476 -0.1574 -0.2555
  866SOL    HW1 3462   2.615   2.239   1.615  0.2770 -1.5302 -4.4956
  866SOL    HW2 3463   2.662   2.371   1.534  1.1208 -1.0590 -0.4343
  866SOL     MW 3464   2.630   2.332   1.608  0.0757 -0.4575 -0.8385
  867SOL     OW 3465   0.034   2.724   1.813  0.0093 -0.4539  0.0352
  867SOL    HW1 3466   0.024   2.716   1.908  1.4242 -3.1962 -1.8998
  867SOL    HW2 3467   0.012   2.815   1.788  2.1829  2.7115  1.3436
  867SOL     MW 3468   0.030   2.735   1.822  0.4827 -0.3981 -0.0475
  868SOL     OW 3469   2.786   2.584   0.572  0.5401  0.1748  0.1654
  868SOL    HW1 3470   2.702   2.536   0.558 -1.7113  0.8596  1.6499
  868SOL    HW2 3471   2.776   2.662   0.511  0.3189  0.0118  0.7008
  868SOL     MW 3472   2.774   2.588   0.562  0.2139  0.2437  0.4319
  869SOL     OW 3473   1.978   2.339   1.037  0.5323  0.1199  0.5192
  869SOL    HW1 3474   2.017   2.408   0.984 -0.5446 -0.2755 -0.0104
  869SOL    HW2 3475   1.968   2.272   0.979 -0.2263  0.8094 -1.1900
  869SOL     MW 3476   1.982   2.339   1.023  0.2901  0.1587  0.2238
  870SOL     OW 3477   2.186   3.101   0.468 -0.1933 -0.3364 -0.3651
  870SOL    HW1 3478   2.260   3.157   0.430  0.0363 -1.3320  1.1228
  870SOL    HW2 3479   2.227   3.022   0.501 -2.5034  0.1078  0.0787
  870SOL     MW 3480   2.201   3.098   0.467 -0.4678 -0.4092 -0.1102
  871SOL     OW 3481   2.471   2.050   0.938  0.0243  1.4965  0.1242
  871SOL    HW1 3482   2.426   2.005   0.871  0.4914  0.8641  0.5171
  871SOL    HW2 3483   2.410   2.120   0.961 -1.3640 -1.0734  0.1950
  871SOL     MW 3484   2.457   2.054   0.932 -0.0973  1.0739  0.1854
  872SOL     OW 3485   2.041   2.528   1.429  0.2868 -0.1577 -0.1607
  872SOL    HW1 3486   2.017   2.557   1.514 -0.5498  2.4458  1.0100
  872SOL    HW2 3487   1.979   2.458   1.413 -0.0779 -0.9672  0.6932
  872SOL     MW 3488   2.030   2.522   1.438  0.1283  0.0790  0.1064
  873SOL     OW 3489   2.833   2.098   1.957  0.0570 -0.2436 -0.0860
  873SOL    HW1 3490   2.854   2.144   2.041 -0.8010  1.5966  2.1663
  873SOL    HW2 3491   2.904   2.106   1.899 -1.6508 -1.7916  1.7069
  873SOL     MW 3492   2.845   2.105   1.960 -0.2815 -0.2051  0.4477
  874SOL     OW 3493   2.399   1.539   2.440 -0.7542  0.6747  0.4969
  874SOL    HW1 3494   2.340   1.521   2.364  2.7774  2.4593 -0.8204
  874SOL    HW2 3495   2.477   1.474   2.436  3.6179 -0.0827  0.2113
  874SOL     MW 3496   2.402   1.528   2.429  0.2886  0.8103  0.2854
  875SOL     OW 3497   2.327   2.259   0.978 -0.2475 -0.3469  0.6595
  875SOL    HW1 3498   2.370   2.316   0.914 -0.3446 -0.6108  0.1615
  875SOL    HW2 3499   2.318   2.322   1.052 -0.6887 -2.2893  1.2919
  875SOL     MW 3500   2.331   2.275   0.979 -0.3185 -0.6380  0.6773
  876SOL     OW 3501   3.012   2.343   1.272 -0.0544  0.2038 -0.3845
  876SOL    HW1 3502   3.045   2.375   1.190  0.0165 -1.7571  3.3050
  876SOL    HW2 3503   3.063   2.385   1.342  1.0131  0.6924 -2.0790
  876SOL     MW 3504   3.023   2.353   1.270  0.0958  0.0095 -0.1213
  877SOL     OW 3505   3.053   2.727   0.356  0.2123 -0.3170  0.5548
  877SOL    HW1 3506   3.021   2.778   0.282  0.6990  1.2575  0.0771
  877SOL    HW2 3507   3.093   2.654   0.310  1.7913 -0.2338  1.7257
  877SOL     MW 3508   3.054   2.724   0.340  0.4848 -0.0983  0.6463
  878SOL     OW 3509   2.341   1.837   1.233  0.8085  0.3279  0.5107
  878SOL    HW1 3510   2.279   1.773   1.268  3.4410  2.4917  3.4158
  878SOL    HW2 3511   2.430   1.806   1.248 -0.8326 -4.0167  0.2576
  878SOL     MW 3512   2.344   1.825   1.239  0.9393  0.0402  0.8606
  879SOL     OW 3513   2.671   2.434   0.918 -0.0421  0.8516 -0.1824
  879SOL    HW1 3514   2.734   2.497   0.949 -1.7296 -1.6034 -2.4386
  879SOL    HW2 3515   2.727   2.364   0.870  1.5770 -2.9155  1.6206
  879SOL     MW 3516   2.687   2.433   0.916 -0.0511  0.0306 -0.2422
  880SOL     OW 3517   2.597   2.193   0.685 -0.5382 -0.0051 -0.0742
  880SOL    HW1 3518   2.549   2.160   0.764  0.5143 -1.5325  0.1911
  880SOL    HW2 3519   2.597   2.127   0.621 -0.2189  1.8116 -0.9710
  880SOL     MW 3520   2.591   2.180   0.687 -0.3572  0.0331 -0.1575
  881SOL     OW 3521   2.966   2.696   0.750 -0.1614  0.0244  0.0846
  881SOL    HW1 3522   2.894   2.649   0.703  0.5066 -3.4549  0.0175
  881SOL    HW2 3523   3.041   2.658   0.704 -1.4126 -0.3628  1.2547
  881SOL     MW 3524   2.966   2.685   0.738 -0.2384 -0.4857  0.2302
  882SOL     OW 3525   2.307   2.799   1.958 -0.1127  0.1240  0.3211
  882SOL    HW1 3526   2.298   2.805   1.862  0.4662 -0.1502 -2.4040
  882SOL    HW2 3527   2.239   2.746   1.999 -0.2488 -1.3330  0.4002
  882SOL     MW 3528   2.297   2.792   1.951 -0.0543 -0.1044 -0.0280
  883SOL     OW 3529   2.290   2.330   1.418  0.2338  0.2452 -0.0667
  883SOL    HW1 3530   2.363   2.274   1.388  0.7975 -1.0871 -0.4046
  883SOL    HW2 3531   2.210   2.294   1.371 -1.9823 -0.3111  0.6284
  883SOL     MW 3532   2.289   2.318   1.408  0.0158 -0.0040 -0.0195
  884SOL     OW 3533   1.893   1.875   1.114  0.8972 -0.2009  0.2448
  884SOL    HW1 3534   1.844   1.948   1.068 -1.2378 -0.4711 -0.8110
  884SOL    HW2 3535   1.987   1.902   1.102 -0.8040 -1.2789  0.6720
  884SOL     MW 3536   1.899   1.888   1.106  0.3911 -0.3788  0.1619
  885SOL     OW 3537   2.807   2.407   1.829  0.4208 -0.2829  0.3899
  885SOL    HW1 3538   2.887   2.357   1.825 -3.8469 -0.1956  0.2006
  885SOL    HW2 3539   2.748   2.365   1.762 -2.2713 -1.4235 -0.0639
  885SOL     MW 3540   2.810   2.395   1.819 -0.4975 -0.4219  0.3051
  886SOL     OW 3541   2.752   2.387   1.343 -0.1420 -0.5745  0.9139
  886SOL    HW1 3542   2.845   2.357   1.322 -0.8747 -3.2431 -0.1704
  886SOL    HW2 3543   2.762   2.476   1.368 -0.1286 -1.2112 -1.5517
  886SOL     MW 3544   2.766   2.394   1.344 -0.2369 -1.0106  0.4456
  887SOL     OW 3545   2.308   2.635   1.508  0.3253  0.3438  0.4280
  887SOL    HW1 3546   2.356   2.702   1.453  0.9338 -1.8935  1.3270
  887SOL    HW2 3547   2.227   2.607   1.462  0.6690 -1.9172 -0.2300
  887SOL     MW 3548   2.303   2.640   1.495  0.4509 -0.2497  0.4598
  888SOL     OW 3549   1.862   2.056   1.409  0.2162 -0.2260  0.5343
  888SOL    HW1 3550   1.949   2.064   1.373 -1.4928  1.4579  1.6812
  888SOL    HW2 3551   1.881   2.096   1.494  1.0598  0.6261  0.9951
  888SOL     MW 3552   1.876   2.063   1.416  0.1020  0.1086  0.7464
  889SOL     OW 3553   2.342   2.009   2.089  0.1275  0.3909  0.0902
  889SOL    HW1 3554   2.430   2.013   2.133  0.4267 -2.4791  1.7640
  889SOL    HW2 3555   2.339   2.094   2.040 -0.3979  0.4307  1.5339
  889SOL     MW 3556   2.353   2.021   2.088  0.0976  0.0175  0.5015
  890SOL     OW 3557   0.089   2.312   0.156  0.1480  0.7089  0.6525
  890SOL    HW1 3558   0.048   2.401   0.158 -0.0902  1.6290 -0.3889
  890SOL    HW2 3559   0.064   2.273   0.243  2.5030 -1.1936 -1.6719
  890SOL     MW 3560   0.081   2.319   0.168  0.4273  0.5793  0.2084
  891SOL     OW 3561   3.021   2.023   1.305 -0.5668 -0.1244 -0.1165
  891SOL    HW1 3562   3.089   2.048   1.375  1.1042  2.4241  0.7252
  891SOL    HW2 3563   3.004   2.109   1.264 -1.0583 -1.8107  0.1990
  891SOL     MW 3564   3.028   2.038   1.309 -0.4112 -0.0106  0.0362
  892SOL     OW 3565   2.374   2.374   2.943  0.1540 -0.6964 -0.2152
  892SOL    HW1 3566   2.390   2.292   2.981  0.0771 -0.2422 -0.4015
  892SOL    HW2 3567   2.464   2.413   2.927 -0.0757 -2.3139 -2.8522
  892SOL     MW 3568   2.388   2.368   2.946  0.1135 -0.8499 -0.5877
  893SOL     OW 3569   1.593   2.462   1.217 -0.0896 -1.0148  0.5008
  893SOL    HW1 3570   1.524   2.494   1.280  0.4745  2.7092  0.8525
  893SOL    HW2 3571   1.674   2.428   1.252 -1.2641  2.8050  0.6097
  893SOL     MW 3572   1.595   2.462   1.230 -0.1702 -0.0195  0.5616
  894SOL     OW 3573   2.843   1.894   0.461  0.5926 -0.2944 -0.0353
  894SOL    HW1 3574   2.758   1.919   0.483  1.5733 -3.0914  0.8393
  894SOL    HW2 3575   2.837   1.855   0.367 -4.0813 -0.1651 -0.9752
  894SOL     MW 3576   2.831   1.892   0.452  0.1053 -0.6464 -0.0439
  895SOL     OW 3577   2.074   2.191   1.254  0.0992  0.6546 -0.6164
  895SOL    HW1 3578   2.069   2.256   1.182  2.3117 -0.9831  1.6050
  895SOL    HW2 3579   2.104   2.109   1.213  1.6714  0.4816  0.6636
  895SOL     MW 3580   2.077   2.189   1.239  0.5986  0.4157 -0.1545
  896SOL     OW 3581   2.168   2.837   1.115 -0.0707  0.1420 -0.1819
  896SOL    HW1 3582   2.246   2.824   1.165 -0.4950  1.0333  2.8437
  896SOL    HW2 3583   2.107   2.761   1.140  0.3721 -0.5974  0.1501
  896SOL     MW 3584   2.170   2.825   1.125 -0.0683  0.1620  0.2611
  897SOL     OW 3585   2.984   2.927   0.159 -0.2287 -0.1151 -1.0222
  897SOL    HW1 3586   3.075   2.939   0.128  0.4799 -0.2920  0.7312
  897SOL    HW2 3587   2.934   2.884   0.081 -0.8904 -2.6865  1.4997
  897SOL     MW 3588   2.989   2.923   0.145 -0.2225 -0.4777 -0.4581
  898SOL     OW 3589   2.081   0.199   1.467  0.3928 -0.0553  0.2254
  898SOL    HW1 3590   2.016   0.131   1.437 -0.7477  2.1247  0.2745
  898SOL    HW2 3591   2.121   0.220   1.381 -2.5945  1.4303 -1.5424
  898SOL     MW 3592   2.078   0.193   1.451 -0.1518  0.4284 -0.0013
  899SOL     OW 3593   2.915   2.973   0.673 -0.2737 -0.4100 -0.3020
  899SOL    HW1 3594   2.942   2.890   0.716 -1.8326 -0.4717  1.6234
  899SOL    HW2 3595   2.846   3.004   0.728 -0.9976  0.3058 -0.2139
  899SOL     MW 3596   2.909   2.966   0.686 -0.5749 -0.3237 -0.0363
  900SOL     OW 3597   0.145   2.397   1.074 -0.2310  0.9454 -0.6550
  900SOL    HW1 3598   0.156   2.485   1.032  0.3485  1.6633 -1.4583
  900SOL    HW2 3599   0.119   2.328   1.007  0.8614 -1.0537 -1.9099
  900SOL     MW 3600   0.143   2.399   1.060 -0.0104  0.7764 -0.9266
  901SOL     OW 3601   1.793   2.891   1.680  0.1915  0.0479 -0.2598
  901SOL    HW1 3602   1.858   2.819   1.663 -0.8764  0.4139 -1.8212
  901SOL    HW2 3603   1.715   2.878   1.632  1.5730 -1.1367  1.0645
  901SOL     MW 3604   1.791   2.880   1.671  0.2329 -0.0601 -0.2910
  902SOL     OW 3605   2.572   2.053   1.850  0.6749 -0.2739  0.3033
  902SOL    HW1 3606   2.561   1.959   1.852 -1.6492  2.5976 -0.2223
  902SOL    HW2 3607   2.651   2.070   1.900 -1.4067  2.6354 -0.1006
  902SOL     MW 3608   2.581   2.043   1.857  0.0936  0.4888  0.1806
  903SOL     OW 3609   1.574   2.756   0.536  0.3493 -0.2421  0.4123
  903SOL    HW1 3610   1.646   2.705   0.579  3.3944 -1.5101 -1.5754
  903SOL    HW2 3611   1.554   2.813   0.605 -0.9313 -2.4737 -2.8027
  903SOL     MW 3612   1.581   2.757   0.551  0.5821 -0.7038 -0.2741
  904SOL     OW 3613   2.488   2.554   1.728  0.0757  0.2248 -0.4276
  904SOL    HW1 3614   2.428   2.566   1.656  2.0929 -1.6005  0.5661
  904SOL    HW2 3615   2.546   2.486   1.696 -2.4796 -0.1657  0.8178
  904SOL     MW 3616   2.488   2.547   1.714  0.0047 -0.0676 -0.1322
  905SOL     OW 3617   2.321   2.511   2.201 -0.2697 -0.0609  0.1268
  905SOL    HW1 3618   2.377   2.477   2.136  0.9072  0.2538  2.2972
  905SOL    HW2 3619   2.297   2.435   2.259 -1.2161 -0.5880 -0.3895
  905SOL     MW 3620   2.325   2.497   2.201 -0.2393 -0.0889  0.3450
  906SOL     OW 3621   2.429   2.460   0.832 -0.0539 -0.1605  0.0276
  906SOL    HW1 3622   2.525   2.463   0.852 -1.1467  1.3678  1.0315
  906SOL    HW2 3623   2.386   2.536   0.875  0.9913 -1.9815  1.1795
  906SOL     MW 3624   2.436   2.471   0.840 -0.0602 -0.1992  0.3120
  907SOL     OW 3625   2.624   2.944   1.271 -0.2000 -0.3082  0.6207
  907SOL    HW1 3626   2.701   2.969   1.324  0.1844  0.8694 -0.9738
  907SOL    HW2 3627   2.670   2.912   1.191 -0.9922 -2.5216 -3.2588
  907SOL     MW 3628   2.640   2.943   1.267 -0.2538 -0.4449 -0.1016
  908SOL     OW 3629   2.703   2.358   3.078 -0.1126 -0.2021 -0.0303
  908SOL    HW1 3630   2.654   2.292   3.122  2.2215 -1.6084 -1.7740
  908SOL    HW2 3631   2.708   2.430   3.135  0.1113  1.8056  2.5072
  908SOL     MW 3632   2.697   2.359   3.091  0.2249 -0.1227  0.0744
  909SOL     OW 3633   1.574   0.181   1.103 -0.0384  0.3160  0.3352
  909SOL    HW1 3634   1.652   0.223   1.073  0.1357 -0.1967  2.1833
  909SOL    HW2 3635   1.534   0.244   1.164 -0.4488  0.3011 -2.1877
  909SOL     MW 3636   1.579   0.195   1.107 -0.0695  0.2464  0.2462
  910SOL     OW 3637   2.319   1.762   0.405 -0.2628 -0.2749 -0.3676
  910SOL    HW1 3638   2.252   1.698   0.425  1.8110  0.5185 -0.8053
  910SOL    HW2 3639   2.273   1.819   0.342 -4.2305  0.5774 -0.2168
  910SOL     MW 3640   2.304   1.761   0.399 -0.5127 -0.0577 -0.4055
  911SOL     OW 3641   2.202   2.272   1.689 -0.0863  0.2250  0.0071
  911SOL    HW1 3642   2.261   2.255   1.761 -1.4316  0.5436  1.6312
  911SOL    HW2 3643   2.242   2.308   1.610  1.3063  0.4190 -0.8001
  911SOL     MW 3644   2.215   2.274   1.688 -0.0801  0.2926  0.1149
  912SOL     OW 3645   2.859   1.995   1.533 -1.1584 -0.2570 -0.1938
  912SOL    HW1 3646   2.907   2.001   1.449  3.0270 -1.6162 -0.3502
  912SOL    HW2 3647   2.769   2.038   1.526 -2.4733  2.0569  0.5190
  912SOL     MW 3648   2.854   2.002   1.521 -0.7796 -0.1310 -0.1204
  913SOL     OW 3649   2.517   2.965   0.429  0.2306  0.2473  0.3696
  913SOL    HW1 3650   2.604   2.925   0.440  0.0251 -1.5597 -1.6692
  913SOL    HW2 3651   2.454   2.896   0.409  0.8910  0.0909 -0.8033
  913SOL     MW 3652   2.520   2.951   0.428  0.2906 -0.0118 -0.0541
  914SOL     OW 3653   2.767   1.668   3.086 -0.5124  0.3163 -0.1055
  914SOL    HW1 3654   2.766   1.744   3.027  1.5655 -0.2544 -1.1648
  914SOL    HW2 3655   2.681   1.664   3.116 -1.0715 -3.1935  1.2179
  914SOL     MW 3656   2.756   1.677   3.082 -0.3120 -0.2221 -0.0706
  915SOL     OW 3657   1.823   0.202   0.212 -0.0914  0.7355 -1.0315
  915SOL    HW1 3658   1.893   0.134   0.232  2.2712  0.6433 -2.5037
  915SOL    HW2 3659   1.737   0.164   0.237  0.5249 -0.8482  0.7812
  915SOL     MW 3660   1.821   0.188   0.218  0.3016  0.5144 -0.9866
  916SOL     OW 3661   1.768   2.063   1.959 -0.5121  0.0665 -0.4504
  916SOL    HW1 3662   1.777   2.157   1.928  3.2445  0.2956 -1.6959
  916SOL    HW2 3663   1.811   2.012   1.892 -2.0405  0.4451  0.2002
  916SOL     MW 3664   1.775   2.069   1.946 -0.2181  0.1467 -0.5289
  917SOL     OW 3665   2.427   2.317   2.669  0.5219  0.2076 -0.2578
  917SOL    HW1 3666   2.395   2.289   2.755  1.6201 -0.8744 -0.5861
  917SOL    HW2 3667   2.375   2.395   2.661  1.3065  0.0753  0.2431
  917SOL     MW 3668   2.416   2.323   2.679  0.7704  0.0474 -0.2350
  918SOL     OW 3669   2.050   1.637   2.702 -0.0827 -0.2716  0.1949
  918SOL    HW1 3670   1.961   1.651   2.659  1.5808  0.9611 -0.0892
  918SOL    HW2 3671   2.104   1.716   2.665  2.1989  0.6072 -0.8696
  918SOL     MW 3672   2.045   1.649   2.692  0.4378  0.0070  0.0169
  919SOL     OW 3673   0.029   2.361   2.239  0.9474  0.7291  0.4384
  919SOL    HW1 3674  -0.049   2.297   2.225 -1.0507 -0.7125  0.7448
  919SOL    HW2 3675   0.098   2.345   2.175 -0.1839 -1.0325 -1.2650
  919SOL     MW 3676   0.028   2.350   2.229  0.5345  0.3064  0.2541
  920SOL     OW 3677   2.760   2.825   0.002 -0.2750 -0.3170 -0.2018
  920SOL    HW1 3678   2.686   2.873   0.038  0.4251 -3.8902  0.4499
  920SOL    HW2 3679   2.732   2.775  -0.070 -1.2693  1.1248  0.2066
  920SOL     MW 3680   2.747   2.825  -0.003 -0.3138 -0.5982 -0.0620
  921SOL     OW 3681   2.457   2.603   2.645 -0.0706  0.3002 -0.2635
  921SOL    HW1 3682   2.526   2.620   2.583 -2.7388 -1.0192  1.8279
  921SOL    HW2 3683   2.497   2.545   2.715  2.3554 -1.7359  2.0108
  921SOL     MW 3684   2.472   2.598   2.646 -0.1026 -0.1425  0.3125
  922SOL     OW 3685   2.014   2.793   0.306 -0.2324 -0.2751  0.7911
  922SOL    HW1 3686   1.998   2.805   0.211  0.0181  1.5907 -3.5807
  922SOL    HW2 3687   2.004   2.697   0.321  0.5185  1.2841  0.8197
  922SOL     MW 3688   2.010   2.782   0.295 -0.1003  0.1768  0.2181
  923SOL     OW 3689   2.231   2.804   1.703 -0.1510  0.2007 -0.4431
  923SOL    HW1 3690   2.259   2.743   1.629 -1.1849  0.0121 -1.1775
  923SOL    HW2 3691   2.215   2.888   1.655 -1.5121 -0.3637  0.6197
  923SOL     MW 3692   2.233   2.807   1.687 -0.4670  0.1013 -0.3998
  924SOL     OW 3693   1.176   2.730   2.570  0.1154  0.2225  0.6118
  924SOL    HW1 3694   1.225   2.796   2.520  1.3774 -3.7336  1.2832
  924SOL    HW2 3695   1.245   2.681   2.612  0.9985  2.0745 -0.8509
  924SOL     MW 3696   1.192   2.733   2.569  0.3984 -0.0551  0.5074
  925SOL     OW 3697   2.969   0.197   2.607 -0.0165 -0.3997 -0.3151
  925SOL    HW1 3698   2.970   0.204   2.516 -2.0341 -2.5693  2.9701
  925SOL    HW2 3699   2.895   0.244   2.632 -0.4518 -1.0769 -3.7909
  925SOL     MW 3700   2.960   0.204   2.599 -0.3401 -0.7753 -0.3403
  926SOL     OW 3701   2.710   2.390   2.085  0.2142  0.4139 -0.2262
  926SOL    HW1 3702   2.772   2.455   2.121  1.6643  1.3376 -1.7851
  926SOL    HW2 3703   2.735   2.375   1.993  0.0512 -0.3329 -0.1602
  926SOL     MW 3704   2.722   2.397   2.078  0.3840  0.4372 -0.4232
  927SOL     OW 3705   2.374   0.129   0.310  0.3063  0.2482 -0.3299
  927SOL    HW1 3706   2.462   0.109   0.280 -2.1565  0.6852  1.6293
  927SOL    HW2 3707   2.319   0.127   0.227  1.5069  2.6588 -0.9845
  927SOL     MW 3708   2.378   0.126   0.295  0.1398  0.6239 -0.1578
  928SOL     OW 3709   2.070   2.491   1.798  0.6770 -0.4113 -0.1453
  928SOL    HW1 3710   2.142   2.437   1.771  0.7144 -1.1222  0.7903
  928SOL    HW2 3711   2.101   2.529   1.884  1.9561  0.7819  0.5650
  928SOL     MW 3712   2.084   2.489   1.805  0.8507 -0.3477  0.0718
  929SOL     OW 3713   2.724   2.372   2.458 -0.6778 -0.0630 -0.3523
  929SOL    HW1 3714   2.816   2.381   2.429  3.8494 -0.2804  3.5054
  929SOL    HW2 3715   2.720   2.323   2.547 -2.0033 -1.7239  0.7138
  929SOL     MW 3716   2.736   2.367   2.466 -0.2554 -0.3108  0.2973
  930SOL     OW 3717   2.039   2.922   2.694 -0.4780  0.2387 -0.6148
  930SOL    HW1 3718   2.031   2.841   2.751  1.4457 -1.7200 -1.2507
  930SOL    HW2 3719   2.131   2.942   2.686 -2.3664 -2.3849 -0.3563
  930SOL     MW 3720   2.050   2.914   2.701 -0.4733 -0.3659 -0.6646
  931SOL     OW 3721   2.932   2.817   2.257  0.0940 -0.5204 -0.3127
  931SOL    HW1 3722   3.024   2.803   2.284 -2.2610 -0.2548  3.1959
  931SOL    HW2 3723   2.925   2.795   2.161 -0.8830 -1.5646 -2.0116
  931SOL     MW 3724   2.943   2.812   2.248 -0.3457 -0.6231 -0.0739
  932SOL     OW 3725   2.845   1.904   2.573 -0.0099 -0.2695  0.8518
  932SOL    HW1 3726   2.933   1.930   2.585 -0.8112 -3.0535  0.9720
  932SOL    HW2 3727   2.817   1.920   2.484 -1.1427  0.2861 -0.3398
  932SOL     MW 3728   2.853   1.910   2.562 -0.2651 -0.5635  0.7104
  933SOL     OW 3729   2.051   2.844   2.189 -0.1041  0.8373 -0.0728
  933SOL    HW1 3730   2.136   2.883   2.223  2.1241 -1.0450 -0.7746
  933SOL    HW2 3731   1.991   2.920   2.183 -0.7955 -0.0196 -0.4450
  933SOL     MW 3732   2.055   2.859   2.193  0.0987  0.4759 -0.2145
  934SOL     OW 3733   2.037   2.752   2.471 -0.1202 -0.0109  0.0438
  934SOL    HW1 3734   2.015   2.817   2.542  0.2115 -0.1673 -0.4151
  934SOL    HW2 3735   2.033   2.795   2.386 -2.0026  0.7393  1.3430
  934SOL     MW 3736   2.033   2.766   2.469 -0.3248  0.0675  0.1547
  935SOL     OW 3737   2.631   1.518   1.781  0.0899 -0.1583  0.3653
  935SOL    HW1 3738   2.713   1.501   1.734  2.3538 -1.9635  2.3419
  935SOL    HW2 3739   2.564   1.542   1.717 -0.9425  1.4768 -0.6845
  935SOL     MW 3740   2.633   1.519   1.766  0.2524 -0.1808  0.4876
  936SOL     OW 3741   2.988   2.239   3.077  0.1734  0.3850  0.4763
  936SOL    HW1 3742   3.044   2.269   3.147  2.5222 -2.1577 -0.7738
  936SOL    HW2 3743   2.906   2.284   3.086 -2.0047  0.8023  1.2187
  936SOL     MW 3744   2.984   2.249   3.088  0.1959  0.1046  0.4093
  937SOL     OW 3745   2.031   2.183   2.639  0.7285 -0.6722  0.1580
  937SOL    HW1 3746   2.110   2.152   2.676 -4.6323 -0.1310 -0.7984
  937SOL    HW2 3747   2.030   2.139   2.552  0.3068 -0.9449  1.9853
  937SOL     MW 3748   2.041   2.173   2.632 -0.0345 -0.6368  0.2729
  938SOL     OW 3749   2.286   1.805   1.902  0.2105  0.4030 -0.0606
  938SOL    HW1 3750   2.245   1.860   1.826 -1.5683  1.6346  0.4314
  938SOL    HW2 3751   2.281   1.868   1.974 -0.8477  1.4232 -0.5855
  938SOL     MW 3752   2.280   1.820   1.902 -0.1638  0.7001 -0.0649
  939SOL     OW 3753   2.817   1.990   2.305 -0.4344  0.3013  0.1178
  939SOL    HW1 3754   2.817   1.927   2.232  0.7720  2.4318 -1.5289
  939SOL    HW2 3755   2.725   2.026   2.302  1.0115  2.3667 -1.2108
  939SOL     MW 3756   2.805   1.987   2.295 -0.0845  0.8549 -0.2747
  940SOL     OW 3757   2.321   0.130   2.712 -0.1385  0.2220  0.7976
  940SOL    HW1 3758   2.343   0.037   2.675  2.3284 -1.7667  2.3170
  940SOL    HW2 3759   2.377   0.125   2.788  1.0089 -0.0188  1.3658
  940SOL     MW 3760   2.331   0.117   2.717  0.3384 -0.0722  1.0730
  941SOL     OW 3761   0.211   2.344   2.061  1.1781  0.0607 -0.0521
  941SOL    HW1 3762   0.303   2.330   2.073 -3.6569  0.1756 -2.8182
  941SOL    HW2 3763   0.179   2.268   2.003 -0.8751 -1.1806 -0.3118
  941SOL     MW 3764   0.219   2.332   2.055  0.2693 -0.0879 -0.4513
  942SOL     OW 3765   2.887   2.229   2.183  0.2206 -0.1960 -0.0632
  942SOL    HW1 3766   2.809   2.287   2.162 -4.1740 -0.4613 -2.2801
  942SOL    HW2 3767   2.873   2.162   2.250 -1.2254 -0.1846 -1.3643
  942SOL     MW 3768   2.875   2.228   2.189 -0.5500 -0.2295 -0.5274
  943SOL     OW 3769   0.382   2.022   2.304  0.5849 -0.6395 -0.3734
  943SOL    HW1 3770   0.320   2.080   2.361 -2.0548  0.8417 -0.5769
  943SOL    HW2 3771   0.467   2.027   2.347  0.7684 -3.0369 -0.6984
  943SOL     MW 3772   0.385   2.030   2.317  0.2608 -0.7604 -0.4432
  944SOL     OW 3773   2.119   2.631   2.046 -0.1210 -0.2223  0.8117
  944SOL    HW1 3774   2.197   2.587   2.086 -0.6792 -3.1055  2.4622
  944SOL    HW2 3775   2.099   2.712   2.096  0.2116  1.1141  2.9611
  944SOL     MW 3776   2.127   2.636   2.058 -0.1508 -0.4264  1.3130
  945SOL     OW 3777   2.785   2.715   2.828  0.0706  0.2479 -0.4637
  945SOL    HW1 3778   2.731   2.641   2.851 -3.5555  0.5672 -0.4066
  945SOL    HW2 3779   2.831   2.684   2.747 -0.3125 -2.0636  0.3716
  945SOL     MW 3780   2.784   2.701   2.821 -0.4583 -0.0150 -0.3459
  946SOL     OW 3781   2.434   2.751   2.255 -0.4269 -0.1113  0.1800
  946SOL    HW1 3782   2.488   2.765   2.178 -1.3649  1.7878 -0.0203
  946SOL    HW2 3783   2.400   2.664   2.248  2.2595 -2.1136 -0.5827
  946SOL     MW 3784   2.436   2.741   2.244 -0.1962 -0.1249  0.0530
  947SOL     OW 3785   2.028   0.018   0.250 -0.0855  0.3289 -0.2488
  947SOL    HW1 3786   2.066  -0.075   0.248  1.3377  1.4134 -1.2109
  947SOL    HW2 3787   2.075   0.046   0.340  0.2099  1.7131 -0.3507
  947SOL     MW 3788   2.039   0.009   0.262  0.1412  0.6546 -0.3892
  948SOL     OW 3789   1.801   3.081   2.628 -0.4797  0.0634 -0.0161
  948SOL    HW1 3790   1.883   3.023   2.627 -0.1403  1.5342 -0.2704
  948SOL    HW2 3791   1.816   3.126   2.541  0.8349 -1.6512 -0.3755
  948SOL     MW 3792   1.814   3.079   2.617 -0.2614  0.0312 -0.0971
  949SOL     OW 3793   2.559   2.035   2.298 -0.1954 -0.5493 -0.2339
  949SOL    HW1 3794   2.551   1.942   2.336  2.3358 -4.0730  0.1164
  949SOL    HW2 3795   2.505   2.096   2.350  1.5839  2.0661 -2.4298
  949SOL     MW 3796   2.551   2.031   2.310  0.3733 -0.6692 -0.4774
  950SOL     OW 3797   2.194   2.578   3.019  0.6260 -0.5925  0.0578
  950SOL    HW1 3798   2.258   2.513   2.979  5.3511  1.1783 -0.7511
  950SOL    HW2 3799   2.157   2.622   2.937  0.7892 -0.8629  2.1337
  950SOL     MW 3800   2.198   2.575   3.003  1.2710 -0.3946  0.2249
  951SOL     OW 3801   2.967   2.067   2.853 -0.4765 -0.3836 -0.1559
  951SOL    HW1 3802   2.990   2.150   2.903  3.6735  0.0103 -1.7802
  951SOL    HW2 3803   3.024   2.054   2.780 -0.5334 -1.9408  1.7146
  951SOL     MW 3804   2.978   2.076   2.850  0.0635 -0.5371 -0.1234
  952SOL     OW 3805   3.071   1.704   2.078  0.2754 -0.2170  0.7348
  952SOL    HW1 3806   2.982   1.736   2.095  0.2300 -0.0953  0.6360
  952SOL    HW2 3807   3.126   1.780   2.105  0.1283  2.2086  0.3175
  952SOL     MW 3808   3.067   1.718   2.083  0.2500  0.1191  0.6667
  953SOL     OW 3809   1.962   1.795   2.912 -0.0176  0.0822  0.7092
  953SOL    HW1 3810   1.864   1.775   2.912 -1.8090 -0.2163 -0.8788
  953SOL    HW2 3811   1.985   1.727   2.855 -2.6364 -0.4770  1.8561
  953SOL     MW 3812   1.952   1.783   2.904 -0.5995 -0.0310  0.6510
  954SOL     OW 3813   2.474   2.098   2.902  0.2104  0.2251  0.1571
  954SOL    HW1 3814   2.384   2.099   2.867 -1.6743  3.1572  0.0986
  954SOL    HW2 3815   2.524   2.058   2.831  2.1975  1.6660 -0.2295
  954SOL     MW 3816   2.468   2.093   2.888  0.2239  0.8021  0.0984
  955SOL     OW 3817   1.565   1.621   2.534  0.2978  0.1986 -0.3060
  955SOL    HW1 3818   1.566   1.665   2.456 -2.2480 -1.7505 -0.6562
  955SOL    HW2 3819   1.653   1.641   2.560 -2.3768  1.4715  0.4327
  955SOL     MW 3820   1.577   1.629   2.527 -0.3910  0.1094 -0.2547
  956SOL     OW 3821   2.623   2.475   2.857  0.2408 -0.0387  0.0139
  956SOL    HW1 3822   2.660   2.445   2.940 -0.7714  1.6938 -0.4813
  956SOL    HW2 3823   2.648   2.404   2.800  3.9455  1.2434 -0.6984
  956SOL     MW 3824   2.631   2.462   2.861  0.5960  0.3590 -0.1454
  957SOL     OW 3825   2.294   2.791   0.386 -0.3318  0.0278 -0.1416
  957SOL    HW1 3826   2.215   2.792   0.335  1.4347 -1.4584 -0.9568
  957SOL    HW2 3827   2.269   2.761   0.476 -0.8475  2.7512  2.8995
  957SOL     MW 3828   2.280   2.787   0.391 -0.1668  0.1910  0.1521
  958SOL     OW 3829   2.015   2.675   2.800 -0.2631  0.2279  0.1040
  958SOL    HW1 3830   1.990   2.586   2.755 -0.9544  0.4472  1.6436
  958SOL    HW2 3831   1.940   2.688   2.863  2.2463  1.8348  0.2245
  958SOL     MW 3832   2.002   2.665   2.802 -0.0232  0.4688  0.3230
  959SOL     OW 3833   2.425   2.572   0.309 -0.0780  0.3098 -0.1044
  959SOL    HW1 3834   2.493   2.584   0.241  2.9868  1.1362 -1.6011
  959SOL    HW2 3835   2.387   2.662   0.332  0.5253  3.5145  0.1423
  959SOL     MW 3836   2.429   2.585   0.303  0.4059  0.8417 -0.2693
  960SOL     OW 3837   1.904   2.344   2.303 -0.1874 -0.6710 -0.4716
  960SOL    HW1 3838   1.879   2.261   2.272  0.1254  0.2695 -0.2616
  960SOL    HW2 3839   1.839   2.373   2.369  1.3322  0.6479  2.3291
  960SOL     MW 3840   1.892   2.337   2.308  0.0544 -0.3729 -0.0744
  961SOL     OW 3841   2.176   2.347   2.363  0.2144 -0.5409  0.2887
  961SOL    HW1 3842   2.084   2.337   2.332 -4.8859 -0.6706 -1.3217
  961SOL    HW2 3843   2.179   2.427   2.416 -4.2157 -0.1947 -1.7695
  961SOL     MW 3844   2.165   2.356   2.366 -1.0431 -0.5123 -0.1953
  962SOL     OW 3845   2.231   2.051   2.819  0.0017 -0.6862  0.4497
  962SOL    HW1 3846   2.211   2.010   2.905 -1.3844 -2.3107 -1.0743
  962SOL    HW2 3847   2.257   1.978   2.769  0.0750  0.2561  0.6740
  962SOL     MW 3848   2.232   2.036   2.824 -0.1715 -0.7762  0.2782
  963SOL     OW 3849   1.821   2.584   2.051  0.7630  0.0897 -0.2375
  963SOL    HW1 3850   1.908   2.584   2.090 -1.8457  0.3905 -1.0493
  963SOL    HW2 3851   1.811   2.511   1.992  2.4375  2.2041  3.1941
  963SOL     MW 3852   1.831   2.575   2.048  0.6398  0.4084  0.1082
  964SOL     OW 3853   1.866   1.986   2.744  0.4214 -0.1075  0.3675
  964SOL    HW1 3854   1.911   2.059   2.695  1.9912  1.2171  0.1230
  964SOL    HW2 3855   1.937   1.953   2.792 -4.7107  1.7024 -0.2899
  964SOL     MW 3856   1.881   1.991   2.744 -0.0486  0.3060  0.2485
  965SOL     OW 3857   2.205   2.693   0.625  0.1608  0.3226 -0.1101
  965SOL    HW1 3858   2.161   2.613   0.605  0.9585 -0.6059  2.3500
  965SOL    HW2 3859   2.253   2.668   0.704  0.3142  3.5843  1.2044
  965SOL     MW 3860   2.206   2.679   0.633  0.2863  0.6305  0.3879
  966SOL     OW 3861   2.661   2.652   2.439 -0.6231  0.1425 -0.2705
  966SOL    HW1 3862   2.601   2.685   2.374 -0.4032 -0.6837  1.8530
  966SOL    HW2 3863   2.674   2.552   2.432 -0.8131 -0.9210 -1.6419
  966SOL     MW 3864   2.655   2.643   2.430 -0.6192 -0.1068 -0.1713
  967SOL     OW 3865   2.874   3.018   2.904 -0.3360  0.6099 -0.5632
  967SOL    HW1 3866   2.830   2.945   2.954  0.7454 -0.8701 -0.5468
  967SOL    HW2 3867   2.813   3.033   2.831 -0.2176  1.5885  0.3136
  967SOL     MW 3868   2.860   3.010   2.901 -0.1777  0.5438 -0.4454
  968SOL     OW 3869   3.029   2.590   2.949  0.5380  0.0504 -0.9863
  968SOL    HW1 3870   2.980   2.663   2.914  0.8797 -1.4631  2.0388
  968SOL    HW2 3871   3.022   2.508   2.895  1.7335 -0.4547  0.1937
  968SOL     MW 3872   3.021   2.589   2.937  0.7408 -0.2160 -0.4315
  969SOL     OW 3873   1.523   2.108   1.721 -0.4146  0.4719 -0.2954
  969SOL    HW1 3874   1.570   2.031   1.727 -1.3120  1.1304  0.3113
  969SOL    HW2 3875   1.494   2.127   1.812  0.1507  2.6141  1.6217
  969SOL     MW 3876   1.525   2.100   1.734 -0.4584  0.8414  0.0376
  970SOL     OW 3877   1.649   1.709   1.855  0.7096 -0.5276 -0.3143
  970SOL    HW1 3878   1.707   1.685   1.927  0.5891 -1.0447 -2.0007
  970SOL    HW2 3879   1.557   1.706   1.876  2.4537 -2.3981  0.3758
  970SOL     MW 3880   1.645   1.705   1.868  0.9238 -0.8426 -0.4457
  971SOL     OW 3881   1.811   0.059   2.361 -0.1090 -0.6737  0.8122
  971SOL    HW1 3882   1.817   0.012   2.275 -2.0508 -0.4144 -6.6173
  971SOL    HW2 3883   1.858   0.143   2.350 -1.8725 -1.7551  0.1856
  971SOL     MW 3884   1.818   0.064   2.348 -0.5979 -0.7822 -0.2507
  972SOL     OW 3885   0.286   2.797   2.526 -0.2619  0.0359  0.0647
  972SOL    HW1 3886   0.315   2.715   2.562  2.7351  0.5734 -2.4957
  972SOL    HW2 3887   0.352   2.867   2.534  0.8380  1.2576 -0.5253
  972SOL     MW 3888   0.298   2.795   2.532  0.2787  0.2680 -0.3510
  973SOL     OW 3889   2.640   0.014   2.085 -0.1615  0.4005 -0.2132
  973SOL    HW1 3890   2.661  -0.072   2.052 -1.5856 -0.4223 -1.4583
  973SOL    HW2 3891   2.620   0.064   2.010  0.8463 -0.4893  2.1950
  973SOL     MW 3892   2.640   0.009   2.071 -0.2165  0.1746 -0.0597
  974SOL     OW 3893   2.111   0.286   2.784 -0.1137 -0.6403  0.5450
  974SOL    HW1 3894   2.189   0.241   2.754  0.1932  0.4593 -1.0049
  974SOL    HW2 3895   2.056   0.224   2.830 -0.9778  3.2891  0.0131
  974SOL     MW 3896   2.114   0.272   2.786 -0.1872  0.0233  0.2704
  975SOL     OW 3897   2.209   2.541   2.538 -0.1755  0.2575 -0.4647
  975SOL    HW1 3898   2.292   2.572   2.566 -0.6674  1.7506  0.1549
  975SOL    HW2 3899   2.167   2.620   2.502 -0.3486 -1.1985 -2.7599
  975SOL     MW 3900   2.215   2.556   2.537 -0.2632  0.2624 -0.6858
  976SOL     OW 3901   0.214   0.364   1.702  0.3394  0.9914 -0.1559
  976SOL    HW1 3902   0.248   0.279   1.748  0.9947 -1.2064  1.5971
  976SOL    HW2 3903   0.133   0.328   1.675  0.8004  2.9296 -2.1552
  976SOL     MW 3904   0.208   0.348   1.705  0.4866  0.9571 -0.1884
  977SOL     OW 3905   1.720   2.739   2.469  0.2163 -0.4520 -0.2602
  977SOL    HW1 3906   1.715   2.642   2.465  0.1613  1.8442 -1.4351
  977SOL    HW2 3907   1.809   2.763   2.445  0.3616 -0.3481  1.0877
  977SOL     MW 3908   1.731   2.729   2.465  0.2282 -0.1353 -0.2374
   3.10000   3.10000   3.10000
