977 TIP4P/2005f water molecules t=   0.19000 step= 190
 3908
    1SOL     OW    1   0.223   0.774   0.037  0.4110  0.6689 -0.3903
    1SOL    HW1    2   0.214   0.789  -0.055  0.7230 -0.5878  0.1809
    1SOL    HW2    3   0.223   0.680   0.046 -1.3959 -1.2390 -0.8095
    1SOL     MW    4   0.222   0.764   0.026  0.2138  0.2513 -0.3703
    2SOL     OW    5   0.369   3.023   1.138 -0.0892  0.1534  0.2250
    2SOL    HW1    6   0.407   3.107   1.106 -0.2345 -1.9252  2.0830
    2SOL    HW2    7   0.275   3.044   1.148 -1.3782  0.1388 -0.6462
    2SOL     MW    8   0.362   3.037   1.135 -0.2784 -0.1228  0.3552
    3SOL     OW    9   2.694   0.395   0.892 -0.9065 -0.0608  0.2210
    3SOL    HW1   10   2.706   0.489   0.849  0.9305  2.9847  2.0861
    3SOL    HW2   11   2.688   0.413   0.987 -0.6587  0.7096 -1.1310
    3SOL     MW   12   2.695   0.409   0.899 -0.6314  0.4427  0.2887
    4SOL     OW   13   3.102   1.781   0.661 -0.4785  1.0627 -0.3683
    4SOL    HW1   14   3.015   1.812   0.635  1.8218 -1.0647  1.8090
    4SOL    HW2   15   3.145   1.774   0.576  0.4988  1.0633  0.2776
    4SOL     MW   16   3.096   1.784   0.646 -0.0460  0.7821  0.0042
    5SOL     OW   17   1.694   1.458   0.509  0.1505 -0.3861  0.0545
    5SOL    HW1   18   1.749   1.424   0.585  1.6462 -1.6283  0.5409
    5SOL    HW2   19   1.599   1.435   0.536  0.0524  0.9198 -3.8884
    5SOL     MW   20   1.689   1.450   0.522  0.3349 -0.3777 -0.4015
    6SOL     OW   21   0.828   1.362   0.589  0.2419 -0.1560  0.3808
    6SOL    HW1   22   0.760   1.388   0.655 -0.9549 -0.8919  2.0362
    6SOL    HW2   23   0.869   1.276   0.625 -1.2326 -0.5814  0.2787
    6SOL     MW   24   0.824   1.354   0.603 -0.1106 -0.3092  0.5857
    7SOL     OW   25   1.963   1.071   3.093 -0.1702  0.2588  0.2901
    7SOL    HW1   26   2.008   1.122   3.027  1.8956 -2.8914  1.3297
    7SOL    HW2   27   2.018   1.098   3.167  1.4821  2.8656 -1.3497
    7SOL     MW   28   1.976   1.081   3.094  0.3203  0.1871  0.2109
    8SOL     OW   29   0.991   1.277   1.069 -0.0120 -0.0717 -0.2727
    8SOL    HW1   30   1.090   1.257   1.087  2.5601  0.5297  0.9839
    8SOL    HW2   31   0.950   1.193   1.084  1.2268 -1.5536  0.8314
    8SOL     MW   32   0.998   1.263   1.074  0.4908 -0.1878  0.0388
    9SOL     OW   33   0.998   0.484   1.407  0.4125 -0.3922  0.0462
    9SOL    HW1   34   0.951   0.404   1.392 -1.6349 -0.3439 -3.0464
    9SOL    HW2   35   1.060   0.470   1.477 -1.2100 -1.0594 -0.9639
    9SOL     MW   36   1.000   0.471   1.415 -0.0717 -0.4739 -0.4951
   10SOL     OW   37   0.302   0.874   0.483  0.3261 -0.1185  0.0101
   10SOL    HW1   38   0.380   0.927   0.480 -0.2790 -1.8730  0.5555
   10SOL    HW2   39   0.256   0.919   0.556 -1.5766 -1.6792  2.0343
   10SOL     MW   40   0.306   0.887   0.493 -0.0048 -0.5559  0.3492
   11SOL     OW   41   0.928   1.092   1.531  0.2596  0.1227 -0.0767
   11SOL    HW1   42   0.956   1.115   1.620 -0.5044  0.5500  1.2804
   11SOL    HW2   43   0.844   1.036   1.537 -0.0108  0.1620 -0.0744
   11SOL     MW   44   0.920   1.088   1.543  0.1231  0.1843  0.1027
   12SOL     OW   45   3.069   1.090   0.849  0.7192 -0.0716  0.0910
   12SOL    HW1   46   3.129   1.133   0.903  0.2949 -1.9997 -1.5911
   12SOL    HW2   47   3.026   1.161   0.799 -3.0209 -0.4707 -0.7117
   12SOL     MW   48   3.071   1.105   0.849  0.1698 -0.3786 -0.2369
   13SOL     OW   49   1.915   1.445   1.435  0.3574  0.0435 -0.1148
   13SOL    HW1   50   1.950   1.422   1.351  0.3946  0.8748 -0.9513
   13SOL    HW2   51   1.874   1.530   1.422 -0.3163  1.5471  0.1197
   13SOL     MW   52   1.914   1.453   1.422  0.2734  0.3515 -0.1942
   14SOL     OW   53   0.594   0.355   1.777  0.1870 -0.0743  0.0970
   14SOL    HW1   54   0.591   0.283   1.714 -0.3065 -0.4326  0.8195
   14SOL    HW2   55   0.666   0.327   1.835  1.0493  0.1855  0.3042
   14SOL     MW   56   0.603   0.342   1.777  0.2357 -0.0873  0.2196
   15SOL     OW   57   1.979   0.526   0.917  0.0279 -0.6411  0.3756
   15SOL    HW1   58   1.999   0.544   1.010 -1.2963 -1.2106  0.6358
   15SOL    HW2   59   2.063   0.508   0.872 -0.3323  1.4229 -0.7517
   15SOL     MW   60   1.992   0.526   0.924 -0.1943 -0.4439  0.2612
   16SOL     OW   61   0.192   1.805   0.270 -0.0115  0.3637 -0.0322
   16SOL    HW1   62   0.272   1.754   0.297 -1.1115  0.0609 -0.4816
   16SOL    HW2   63   0.213   1.891   0.298  0.9444 -3.7162  2.7138
   16SOL     MW   64   0.205   1.810   0.277 -0.0305 -0.2146  0.2708
   17SOL     OW   65   1.098   0.810   1.455 -0.4560  0.2504 -0.5351
   17SOL    HW1   66   1.133   0.838   1.544 -1.8450  1.6088  0.0738
   17SOL    HW2   67   1.011   0.777   1.470 -1.4128  0.2028  0.3658
   17SOL     MW   68   1.091   0.809   1.469 -0.7655  0.4233 -0.3359
   18SOL     OW   69   0.009   1.557   0.394  0.2625  0.1822  0.6054
   18SOL    HW1   70   0.019   1.621   0.327  0.2595 -0.4273 -1.0881
   18SOL    HW2   71   0.001   1.471   0.348  0.9261 -3.1639  0.1148
   18SOL     MW   72   0.010   1.554   0.379  0.3496 -0.3397  0.3172
   19SOL     OW   73   0.105   1.256   1.031  0.5761  0.4229 -0.1745
   19SOL    HW1   74   0.145   1.331   0.978  3.6275 -0.4434  0.3380
   19SOL    HW2   75   0.016   1.294   1.046  1.3906  1.2041  0.9391
   19SOL     MW   76   0.099   1.271   1.026  1.0862  0.4117  0.0400
   20SOL     OW   77   0.468   2.184   1.294 -0.7756 -0.5057 -0.1922
   20SOL    HW1   78   0.426   2.110   1.243 -1.3746 -2.8270 -0.0781
   20SOL    HW2   79   0.402   2.232   1.351 -1.4628  0.3278 -1.8550
   20SOL     MW   80   0.454   2.180   1.295 -0.9453 -0.7020 -0.3965
   21SOL     OW   81   0.558   0.896   0.349 -0.1065 -0.0549  0.2608
   21SOL    HW1   82   0.607   0.827   0.400 -3.6410  1.1975  1.4009
   21SOL    HW2   83   0.536   0.865   0.265  3.5582 -0.0923  0.4978
   21SOL     MW   84   0.562   0.883   0.345 -0.0893  0.1054  0.4425
   22SOL     OW   85   1.569   0.591   1.117  0.3950 -0.6391 -0.3319
   22SOL    HW1   86   1.622   0.558   1.039  0.1169  0.9047 -0.6809
   22SOL    HW2   87   1.518   0.662   1.081 -2.8288  0.4669  0.1493
   22SOL     MW   88   1.570   0.596   1.102 -0.0670 -0.2895 -0.3145
   23SOL     OW   89   3.055   0.743   0.714 -0.0159  0.1390  0.0135
   23SOL    HW1   90   3.098   0.653   0.729 -0.0161 -1.5316  0.4726
   23SOL    HW2   91   3.134   0.795   0.739 -2.4519 -2.7753 -0.2121
   23SOL     MW   92   3.071   0.738   0.719 -0.3373 -0.4660  0.0443
   24SOL     OW   93   2.083   2.153   0.036 -0.2606 -0.5827  0.2678
   24SOL    HW1   94   2.070   2.139   0.130 -0.4485 -2.2913 -0.0518
   24SOL    HW2   95   2.093   2.069   0.000 -0.0532 -0.4911  0.9297
   24SOL     MW   96   2.082   2.140   0.044 -0.2580 -0.7960  0.3130
   25SOL     OW   97   0.191   1.431   0.588  0.3197  0.1384 -0.1592
   25SOL    HW1   98   0.141   1.493   0.533 -1.9041  0.7246 -3.1461
   25SOL    HW2   99   0.272   1.406   0.538  2.8102 -1.5330  1.3329
   25SOL     MW  100   0.195   1.436   0.574  0.3549 -0.0048 -0.3564
   26SOL     OW  101   2.042   0.986   0.388 -0.1724 -0.3338 -0.2368
   26SOL    HW1  102   1.946   0.984   0.394 -0.6194 -2.8567 -1.1179
   26SOL    HW2  103   2.059   1.045   0.306 -0.9002 -2.2852 -1.1352
   26SOL     MW  104   2.031   0.994   0.378 -0.3274 -0.9242 -0.4716
   27SOL     OW  105   1.968   1.436   0.232 -0.2078 -0.7664 -0.0894
   27SOL    HW1  106   1.895   1.384   0.274 -0.0164  1.3630  1.3528
   27SOL    HW2  107   1.999   1.495   0.299  1.1033 -2.5548 -0.5673
   27SOL     MW  108   1.962   1.437   0.246 -0.0096 -0.7214  0.0378
   28SOL     OW  109   0.368   0.957   1.892  0.4938  0.1717 -0.6204
   28SOL    HW1  110   0.328   0.908   1.968  1.2615 -1.1168 -1.3381
   28SOL    HW2  111   0.420   0.897   1.834 -0.8930 -1.2684 -0.9306
   28SOL     MW  112   0.370   0.942   1.894  0.4121 -0.1883 -0.7560
   29SOL     OW  113   0.220   1.460   0.865  0.2104  0.4652 -0.2199
   29SOL    HW1  114   0.238   1.547   0.895  2.7614 -0.6370 -4.4286
   29SOL    HW2  115   0.199   1.466   0.768  1.9393  1.6719 -2.7315
   29SOL     MW  116   0.219   1.472   0.856  0.7751  0.4790 -1.1066
   30SOL     OW  117   0.936   1.031   1.153 -0.3703 -0.1145 -0.2156
   30SOL    HW1  118   0.851   1.038   1.202 -0.3161 -0.0642  0.0999
   30SOL    HW2  119   1.009   1.045   1.219 -1.3144 -0.3714  1.0499
   30SOL     MW  120   0.934   1.033   1.168 -0.4877 -0.1418 -0.0070
   31SOL     OW  121   0.473   0.250   0.224 -0.0850 -0.5263  0.4467
   31SOL    HW1  122   0.458   0.172   0.281  0.2907  2.6062  0.2939
   31SOL    HW2  123   0.443   0.228   0.130 -1.3132 -0.0806  0.0404
   31SOL     MW  124   0.467   0.237   0.219 -0.1975 -0.0542  0.3729
   32SOL     OW  125   2.697   1.036   1.118  0.0615  0.2815  0.3821
   32SOL    HW1  126   2.665   0.949   1.135  0.4673 -0.1843  1.5365
   32SOL    HW2  127   2.792   1.030   1.113 -0.6683  0.7200  0.9320
   32SOL     MW  128   2.705   1.024   1.119  0.0188  0.2779  0.6070
   33SOL     OW  129   1.775   1.262   0.338 -0.3280  0.1865 -0.0671
   33SOL    HW1  130   1.782   1.169   0.378 -0.0868 -0.5330 -0.9239
   33SOL    HW2  131   1.721   1.315   0.401 -0.8425 -1.3915  0.8705
   33SOL     MW  132   1.769   1.256   0.352 -0.3641 -0.1166 -0.0564
   34SOL     OW  133   1.264   1.857   1.116 -0.0591  0.4985 -0.3653
   34SOL    HW1  134   1.172   1.885   1.142 -1.4212 -1.3562 -0.5872
   34SOL    HW2  135   1.327   1.877   1.186  1.0296 -1.5991 -0.2069
   34SOL     MW  136   1.260   1.864   1.128 -0.0952 -0.0230 -0.3737
   35SOL     OW  137   0.362   0.027   1.854 -0.5409  0.1969 -0.0424
   35SOL    HW1  138   0.429  -0.004   1.911  1.1505  0.6014 -3.2594
   35SOL    HW2  139   0.381  -0.021   1.771  3.5703 -1.4612  0.4243
   35SOL     MW  140   0.373   0.017   1.851  0.2247  0.0315 -0.4053
   36SOL     OW  141   1.878   1.909   0.507  0.2789 -0.4057 -0.1306
   36SOL    HW1  142   1.902   1.884   0.412  1.0500 -1.9572  0.5552
   36SOL    HW2  143   1.865   1.825   0.555  3.1877  1.1775  1.6540
   36SOL     MW  144   1.879   1.895   0.501  0.7645 -0.4015  0.1954
   37SOL     OW  145   1.768   1.994   0.947 -0.1147 -0.1328 -0.6485
   37SOL    HW1  146   1.726   1.967   0.860 -0.8335 -0.1461  0.8449
   37SOL    HW2  147   1.696   2.024   1.016 -2.2033  0.6903  1.3022
   37SOL     MW  148   1.753   1.994   0.945 -0.4851 -0.0259 -0.1941
   38SOL     OW  149   2.867   0.911   0.229  0.2874  0.5087  0.2215
   38SOL    HW1  150   2.899   0.903   0.322  0.9383 -2.9115 -1.0091
   38SOL    HW2  151   2.941   0.876   0.171  1.2842 -0.8430 -0.9814
   38SOL     MW  152   2.881   0.906   0.233  0.5048 -0.1209 -0.0996
   39SOL     OW  153   1.456   0.676   0.840 -0.2411 -0.4547 -0.2983
   39SOL    HW1  154   1.443   0.578   0.848  3.6542  0.7402  1.3082
   39SOL    HW2  155   1.401   0.714   0.913  0.7965  2.9149  0.6849
   39SOL     MW  156   1.447   0.668   0.851  0.4097  0.1475  0.0434
   40SOL     OW  157   1.298   1.884   0.262 -0.2233 -0.2060  0.5059
   40SOL    HW1  158   1.289   1.804   0.311  2.0569  0.0873 -0.0924
   40SOL    HW2  159   1.283   1.954   0.326 -0.0350 -1.4214  0.7657
   40SOL     MW  160   1.295   1.883   0.277  0.1024 -0.3277  0.4612
   41SOL     OW  161   0.603   0.551   1.563 -0.2426 -0.0766 -0.2058
   41SOL    HW1  162   0.683   0.607   1.569 -2.0374 -1.6422  2.6587
   41SOL    HW2  163   0.607   0.496   1.640  0.6431 -2.2160  1.1814
   41SOL     MW  164   0.614   0.551   1.574 -0.3625 -0.5655  0.3552
   42SOL     OW  165   1.368   3.080   1.943 -0.9880 -0.0621 -0.4346
   42SOL    HW1  166   1.272   3.055   1.956  0.1764 -0.7180 -0.7710
   42SOL    HW2  167   1.415   3.016   1.999 -0.4126  3.0180 -2.1350
   42SOL     MW  168   1.362   3.069   1.952 -0.7585  0.2578 -0.7034
   43SOL     OW  169   1.587   0.200   1.585  0.2330  0.3520  0.4225
   43SOL    HW1  170   1.624   0.131   1.529  2.2138 -1.2347 -0.0206
   43SOL    HW2  171   1.505   0.162   1.630  1.7223  1.2092  0.5186
   43SOL     MW  172   1.581   0.186   1.584  0.6908  0.2557  0.3767
   44SOL     OW  173   1.305   0.750   1.068  0.1240  0.0161  0.2542
   44SOL    HW1  174   1.324   0.845   1.047 -1.3757  0.5178  0.1670
   44SOL    HW2  175   1.314   0.737   1.163 -0.2867 -0.3853  1.3913
   44SOL     MW  176   1.308   0.761   1.077 -0.1281  0.0293  0.3927
   45SOL     OW  177   1.054   0.772   0.808  0.6372 -0.7363 -0.0025
   45SOL    HW1  178   1.040   0.746   0.897 -0.2522 -0.2141 -0.0450
   45SOL    HW2  179   1.100   0.700   0.779 -1.4391  3.6021  1.3193
   45SOL     MW  180   1.058   0.759   0.816  0.2459 -0.0950  0.1663
   46SOL     OW  181   0.598   1.114   0.603  0.1510 -0.1962  0.0110
   46SOL    HW1  182   0.607   1.140   0.511  0.7692  1.1221 -2.1271
   46SOL    HW2  183   0.674   1.052   0.609 -2.5885 -2.1014  0.6540
   46SOL     MW  184   0.609   1.109   0.592 -0.1289 -0.2736 -0.1863
   47SOL     OW  185   0.116   1.917   1.842  0.6320  0.4460 -0.1609
   47SOL    HW1  186   0.188   1.882   1.797 -2.4143 -0.5251 -1.0044
   47SOL    HW2  187   0.115   1.887   1.932 -0.1058 -0.9150  0.3463
   47SOL     MW  188   0.125   1.908   1.848  0.1327  0.1383 -0.2053
   48SOL     OW  189   1.062   0.648   1.055 -0.6335 -0.1239  0.4985
   48SOL    HW1  190   0.984   0.689   1.097 -0.8254  0.1861 -1.4789
   48SOL    HW2  191   1.144   0.710   1.068 -1.2056  1.1635 -1.5866
   48SOL     MW  192   1.063   0.661   1.062 -0.7343  0.0869 -0.0375
   49SOL     OW  193   1.847   0.773   1.587  0.1969 -0.1657  0.2266
   49SOL    HW1  194   1.787   0.741   1.662 -1.2597 -2.1618  1.7509
   49SOL    HW2  195   1.907   0.694   1.572 -0.7436  0.9518 -2.0252
   49SOL     MW  196   1.847   0.758   1.595 -0.1193 -0.2816  0.1306
   50SOL     OW  197   1.312   1.003   0.586 -0.1343 -0.4763 -0.0909
   50SOL    HW1  198   1.274   1.025   0.669  1.9981 -0.8510  1.6119
   50SOL    HW2  199   1.356   0.913   0.591 -0.2395  2.7991 -1.6464
   50SOL     MW  200   1.313   0.994   0.598  0.1331 -0.0936 -0.0715
   51SOL     OW  201   0.302   2.873   0.916  0.1304 -0.9407 -0.2239
   51SOL    HW1  202   0.388   2.825   0.897 -0.4708  2.2385 -1.0175
   51SOL    HW2  203   0.326   2.924   0.996 -2.4867  3.4413 -1.8784
   51SOL     MW  204   0.316   2.874   0.924 -0.2942  0.0569 -0.5469
   52SOL     OW  205   0.830   1.876   0.407  0.2073 -0.5372 -0.1127
   52SOL    HW1  206   0.763   1.916   0.460  0.4310 -2.3562  0.1278
   52SOL    HW2  207   0.779   1.849   0.333  0.2378  2.6913 -2.6195
   52SOL     MW  208   0.815   1.878   0.404  0.2408 -0.3512 -0.4117
   53SOL     OW  209   0.354   2.045   0.604  0.2902 -0.5115 -0.1189
   53SOL    HW1  210   0.336   2.029   0.514  3.4202  1.3482  0.1095
   53SOL    HW2  211   0.363   2.148   0.606  1.7246  4.8699 -0.5090
   53SOL     MW  212   0.353   2.057   0.592  0.8924  0.4439 -0.1403
   54SOL     OW  213   2.206   0.837   0.860  0.0640  0.1493 -0.1897
   54SOL    HW1  214   2.234   0.815   0.770  0.1697 -2.7229 -0.6309
   54SOL    HW2  215   2.111   0.835   0.851 -0.4152 -1.3247 -0.0785
   54SOL     MW  216   2.197   0.834   0.847  0.0147 -0.4242 -0.2333
   55SOL     OW  217   0.508   1.445   1.526 -0.1044  0.0816  0.4530
   55SOL    HW1  218   0.477   1.495   1.450 -0.8217 -0.1515 -1.1003
   55SOL    HW2  219   0.595   1.405   1.513  2.4441  0.9639  0.1728
   55SOL     MW  220   0.515   1.446   1.514  0.1372  0.1672  0.2111
   56SOL     OW  221   0.491   0.785   0.112  0.8298 -0.6233 -0.0017
   56SOL    HW1  222   0.517   0.848   0.050 -0.4425 -1.2181 -1.8517
   56SOL    HW2  223   0.396   0.797   0.105  2.6336 -0.2131 -0.3080
   56SOL     MW  224   0.482   0.795   0.103  0.9000 -0.6477 -0.2862
   57SOL     OW  225   1.253   1.216   1.135 -0.2664 -0.6412  0.2344
   57SOL    HW1  226   1.346   1.244   1.150 -0.9207  0.9084  0.2912
   57SOL    HW2  227   1.230   1.163   1.217 -0.0837 -0.7850  0.7241
   57SOL     MW  228   1.262   1.213   1.148 -0.3286 -0.4557  0.3065
   58SOL     OW  229   0.693   1.098   1.266  0.1796  0.0006  0.3824
   58SOL    HW1  230   0.635   1.174   1.279  1.8191 -0.7830 -0.7520
   58SOL    HW2  231   0.672   1.034   1.332 -0.5019  1.5395  0.8297
   58SOL     MW  232   0.683   1.100   1.276  0.3060  0.1003  0.2918
   59SOL     OW  233   1.537   1.591   0.271 -0.0295  0.3021  0.0078
   59SOL    HW1  234   1.613   1.541   0.312 -1.6660 -0.9369  0.5651
   59SOL    HW2  235   1.491   1.647   0.332 -1.9239  0.2106 -1.7942
   59SOL     MW  236   1.541   1.592   0.284 -0.4954  0.1266 -0.1564
   60SOL     OW  237   3.103   0.156   1.688 -0.6820  0.1483 -0.6587
   60SOL    HW1  238   3.032   0.215   1.723 -0.7980  0.8420  1.3831
   60SOL    HW2  239   3.074   0.068   1.707  0.3368  1.4359 -2.2786
   60SOL     MW  240   3.090   0.152   1.695 -0.5629  0.4097 -0.6030
   61SOL     OW  241   2.006   1.468   3.058 -0.1761  0.3578  0.4301
   61SOL    HW1  242   1.976   1.463   3.147 -1.7146  0.8700  0.3813
   61SOL    HW2  243   2.057   1.382   3.051 -1.0349 -0.4810 -2.8786
   61SOL     MW  244   2.009   1.456   3.069 -0.4924  0.3147 -0.0129
   62SOL     OW  245   0.608   1.655   0.545  0.3257 -0.3582 -0.0348
   62SOL    HW1  246   0.665   1.623   0.481 -1.3120  2.3524 -1.4210
   62SOL    HW2  247   0.590   1.567   0.585 -0.0393 -0.7278 -0.5364
   62SOL     MW  248   0.613   1.639   0.541  0.0615 -0.0494 -0.2838
   63SOL     OW  249   1.711   0.740   0.739 -0.2620 -0.4671  0.0544
   63SOL    HW1  250   1.699   0.776   0.652  0.6090 -0.0207 -0.4103
   63SOL    HW2  251   1.625   0.704   0.752 -1.3608 -0.4172 -2.0825
   63SOL     MW  252   1.698   0.740   0.729 -0.2920 -0.4016 -0.2888
   64SOL     OW  253   0.290   1.681   1.004 -0.4917 -0.2547  0.3565
   64SOL    HW1  254   0.363   1.714   0.941 -0.5811 -0.3261  0.0864
   64SOL    HW2  255   0.220   1.736   0.971 -0.9723 -0.2631 -1.1981
   64SOL     MW  256   0.291   1.692   0.991 -0.5669 -0.2652  0.1158
   65SOL     OW  257   1.505   2.212   0.324 -0.6461  0.0126  0.3925
   65SOL    HW1  258   1.584   2.198   0.274 -0.9776 -0.8091 -0.4247
   65SOL    HW2  259   1.545   2.280   0.387  3.2242  0.8339 -0.3991
   65SOL     MW  260   1.521   2.219   0.326 -0.1792  0.0125  0.1802
   66SOL     OW  261   0.300   0.589   0.528  0.5965  0.3114 -0.0910
   66SOL    HW1  262   0.376   0.570   0.474 -3.2898  1.7664  0.1994
   66SOL    HW2  263   0.309   0.682   0.545 -2.2943  0.1715  1.0872
   66SOL     MW  264   0.311   0.599   0.523 -0.2977  0.4849  0.1028
   67SOL     OW  265   1.528   0.187   2.021 -0.1369 -0.0124  0.6377
   67SOL    HW1  266   1.537   0.242   1.941 -0.2831  0.6582 -2.6750
   67SOL    HW2  267   1.476   0.108   1.998 -3.5966 -0.5219  1.3544
   67SOL     MW  268   1.523   0.184   2.007 -0.6127  0.0089  0.2952
   68SOL     OW  269   0.672   0.090   2.991 -0.4119 -0.3277  0.0474
   68SOL    HW1  270   0.671   0.098   2.891 -3.9324  1.5555 -0.8331
   68SOL    HW2  271   0.727   0.167   3.016  1.3634  1.5225  1.0211
   68SOL     MW  272   0.679   0.101   2.981 -0.6422  0.1649  0.0597
   69SOL     OW  273   1.030   0.184   1.962  0.6803  0.1136 -0.2325
   69SOL    HW1  274   1.120   0.214   1.983  1.7868  1.8138  1.0271
   69SOL    HW2  275   1.017   0.091   1.994  3.5845  0.4278  0.4514
   69SOL     MW  276   1.040   0.176   1.969  1.2095  0.3794  0.0239
   70SOL     OW  277   0.569   1.794   1.137  0.1921  0.2307  0.0472
   70SOL    HW1  278   0.581   1.702   1.168 -1.9678 -1.1457  1.4962
   70SOL    HW2  279   0.661   1.813   1.097 -1.5431 -0.3931 -2.2464
   70SOL     MW  280   0.583   1.784   1.136 -0.3218 -0.0332 -0.0642
   71SOL     OW  281   1.787   0.704   1.275 -0.2266  0.0140 -0.6565
   71SOL    HW1  282   1.758   0.719   1.364 -0.5281  1.6110 -1.4125
   71SOL    HW2  283   1.715   0.656   1.232 -2.3018 -1.4994 -0.3967
   71SOL     MW  284   1.774   0.700   1.281 -0.5402  0.0251 -0.7220
   72SOL     OW  285   0.810   1.828   1.004 -0.1673 -0.1644 -0.3371
   72SOL    HW1  286   0.832   1.888   0.935  1.1251 -0.5161 -0.9531
   72SOL    HW2  287   0.879   1.765   1.012  0.2886 -1.1106 -0.0124
   72SOL     MW  288   0.822   1.828   0.996  0.0634 -0.3357 -0.3755
   73SOL     OW  289   1.298   0.676   1.318 -0.4094  0.3121  0.5225
   73SOL    HW1  290   1.269   0.586   1.298 -1.8711  0.1087 -0.0092
   73SOL    HW2  291   1.225   0.715   1.369 -0.4132 -0.2104 -0.6065
   73SOL     MW  292   1.284   0.669   1.322 -0.6027  0.2163  0.3034
   74SOL     OW  293   2.760   0.101   1.004 -0.2588  0.2342 -0.0375
   74SOL    HW1  294   2.788   0.021   0.956  0.6321 -0.4441 -0.0170
   74SOL    HW2  295   2.780   0.173   0.950 -0.2980 -1.6788 -0.1851
   74SOL     MW  296   2.767   0.100   0.990 -0.1464 -0.1077 -0.0543
   75SOL     OW  297   1.671   1.293   0.093 -0.2429 -0.1451  0.0886
   75SOL    HW1  298   1.704   1.284   0.187 -0.7743 -1.0689  0.7850
   75SOL    HW2  299   1.685   1.208   0.048 -0.1435 -3.3962 -1.8267
   75SOL     MW  300   1.677   1.280   0.100 -0.2999 -0.6959 -0.0722
   76SOL     OW  301   2.935   0.644   0.490  0.0274  0.3854  0.4004
   76SOL    HW1  302   2.966   0.654   0.580 -1.0902  1.3062  0.1030
   76SOL    HW2  303   3.016   0.620   0.439 -0.0493  0.5028 -2.8529
   76SOL     MW  304   2.950   0.642   0.496 -0.1302  0.5224 -0.0681
   77SOL     OW  305   0.897   0.421   0.524 -0.0279 -0.2194 -0.0087
   77SOL    HW1  306   0.875   0.501   0.575  1.1539  0.3711  0.8227
   77SOL    HW2  307   0.815   0.367   0.505 -0.6685 -0.4600 -0.1339
   77SOL     MW  308   0.883   0.425   0.529  0.0435 -0.1732  0.0845
   78SOL     OW  309   0.830   0.757   1.223 -0.0308  0.1791 -0.2774
   78SOL    HW1  310   0.745   0.750   1.190 -0.5242 -0.1012  0.5270
   78SOL    HW2  311   0.861   0.846   1.205 -0.1888 -0.3887 -0.1107
   78SOL     MW  312   0.823   0.768   1.216 -0.1167  0.0672 -0.1493
   79SOL     OW  313   1.833   1.673   0.596  0.1286  0.1795 -0.2640
   79SOL    HW1  314   1.757   1.619   0.581  0.2787  1.2631  2.5898
   79SOL    HW2  315   1.834   1.677   0.690  3.4590 -0.4188 -1.1450
   79SOL     MW  316   1.823   1.666   0.607  0.5878  0.2435 -0.0037
   80SOL     OW  317   0.156   0.999   0.261 -0.0128 -0.3672  0.5487
   80SOL    HW1  318   0.066   0.972   0.298 -2.0102  0.0366  1.1837
   80SOL    HW2  319   0.201   0.921   0.299 -0.4847 -0.9289 -0.4296
   80SOL     MW  320   0.150   0.985   0.271 -0.3386 -0.3880  0.5034
   81SOL     OW  321   1.949   1.887   0.259  0.4154 -0.0056  0.0073
   81SOL    HW1  322   1.872   1.849   0.210 -2.8716 -1.0325  1.8996
   81SOL    HW2  323   1.927   1.983   0.255 -0.0688 -2.6985  2.3255
   81SOL     MW  324   1.936   1.895   0.252 -0.0822 -0.4964  0.5628
   82SOL     OW  325   0.827   0.916   0.552 -0.7688  0.4495  0.2422
   82SOL    HW1  326   0.897   0.913   0.486 -1.6288 -0.5729 -0.0726
   82SOL    HW2  327   0.786   0.833   0.551  2.0479  1.1253 -0.9230
   82SOL     MW  328   0.831   0.904   0.543 -0.5106  0.4038  0.0469
   83SOL     OW  329   0.091   0.633   1.378 -0.2867 -0.1081  0.0438
   83SOL    HW1  330   0.092   0.728   1.372 -0.9101  2.8371 -1.5780
   83SOL    HW2  331   0.169   0.591   1.419 -1.7950 -2.8505 -1.3305
   83SOL     MW  332   0.101   0.640   1.383 -0.5680 -0.0814 -0.3515
   84SOL     OW  333   0.035   0.302   1.064  0.2528  0.4715 -0.0965
   84SOL    HW1  334  -0.025   0.299   0.987 -0.8464 -0.2609  0.6024
   84SOL    HW2  335   0.053   0.211   1.085 -2.2092 -0.6862 -1.0222
   84SOL     MW  336   0.030   0.289   1.057 -0.2171  0.2221 -0.1264
   85SOL     OW  337   0.419   0.424   0.727 -0.4045 -0.2804  0.3664
   85SOL    HW1  338   0.359   0.474   0.659 -1.9741  3.2929 -0.0298
   85SOL    HW2  339   0.367   0.367   0.785 -1.0948  0.8209 -0.7081
   85SOL     MW  340   0.404   0.423   0.726 -0.7027  0.3363  0.1724
   86SOL     OW  341   1.156   0.426   1.158  0.2803  0.6284 -0.6604
   86SOL    HW1  342   1.108   0.499   1.100  1.1171  1.8123 -2.1974
   86SOL    HW2  343   1.097   0.432   1.233 -0.8251 -2.4151 -1.0521
   86SOL     MW  344   1.142   0.437   1.161  0.2448  0.3830 -0.9149
   87SOL     OW  345   1.259   1.449   1.333 -0.3096  0.5350 -1.0434
   87SOL    HW1  346   1.280   1.504   1.259 -0.3659  2.5523 -0.1799
   87SOL    HW2  347   1.241   1.365   1.288  2.4982  0.5516 -1.2860
   87SOL     MW  348   1.259   1.445   1.317  0.0534  0.8034 -0.9614
   88SOL     OW  349   1.374   1.007   1.010  0.6463  0.3175  0.5571
   88SOL    HW1  350   1.460   1.039   1.026 -1.5857  0.9618  1.6879
   88SOL    HW2  351   1.317   1.073   1.051  0.3770  0.7734 -0.4972
   88SOL     MW  352   1.378   1.020   1.017  0.3163  0.4627  0.5672
   89SOL     OW  353   1.772   0.572   0.275  0.1742 -0.1499 -0.0751
   89SOL    HW1  354   1.826   0.503   0.320 -0.1581 -0.8017 -1.9942
   89SOL    HW2  355   1.833   0.634   0.224 -0.3295  0.5367 -2.5366
   89SOL     MW  356   1.787   0.571   0.274  0.0639 -0.1453 -0.6531
   90SOL     OW  357   0.714   1.242   2.815 -0.4968 -0.3396 -0.0290
   90SOL    HW1  358   0.784   1.183   2.834 -3.1080  0.3875  0.0798
   90SOL    HW2  359   0.696   1.275   2.898 -0.6079 -0.3530 -3.3692
   90SOL     MW  360   0.721   1.238   2.828 -0.8560 -0.2455 -0.4554
   91SOL     OW  361   2.031   0.722   0.482  0.9249  0.0863  0.2529
   91SOL    HW1  362   2.055   0.804   0.443  3.3942 -3.3196  0.8763
   91SOL    HW2  363   1.933   0.722   0.475  0.2553  0.1426  0.6271
   91SOL     MW  364   2.021   0.733   0.476  1.1623 -0.3556  0.3845
   92SOL     OW  365   1.650   0.766   0.452 -0.4433  1.0149  0.2570
   92SOL    HW1  366   1.565   0.729   0.479 -1.5591 -1.3959 -1.0286
   92SOL    HW2  367   1.691   0.690   0.401 -1.2367  0.7735 -1.2971
   92SOL     MW  368   1.644   0.751   0.449 -0.6952  0.6649 -0.1177
   93SOL     OW  369   1.037   0.233   0.355  0.1672  0.4175 -0.7847
   93SOL    HW1  370   0.977   0.293   0.399  0.2292 -1.1656 -1.7762
   93SOL    HW2  371   1.033   0.256   0.260 -0.2589  1.1493  0.3997
   93SOL     MW  372   1.029   0.244   0.348  0.1192  0.3051 -0.7593
   94SOL     OW  373   1.951   1.256   1.679 -0.3252 -0.1731 -0.5896
   94SOL    HW1  374   1.975   1.276   1.588 -0.6559 -0.2219 -0.5651
   94SOL    HW2  375   1.884   1.182   1.692 -2.1461  1.5796 -0.9532
   94SOL     MW  376   1.945   1.249   1.669 -0.6091  0.0517 -0.6344
   95SOL     OW  377   0.923   1.551   1.001 -0.0352 -0.1113 -0.3651
   95SOL    HW1  378   0.941   1.469   1.038 -2.0764  0.3920 -0.4413
   95SOL    HW2  379   0.827   1.551   0.996 -3.6880 -0.0045 -1.5669
   95SOL     MW  380   0.913   1.540   1.005 -0.7865 -0.0308 -0.5337
   96SOL     OW  381   1.266   1.795   1.641  0.3707 -0.2661 -0.7614
   96SOL    HW1  382   1.193   1.741   1.641 -0.2222  2.4906 -2.5227
   96SOL    HW2  383   1.337   1.738   1.612 -0.2440  2.3921 -0.0078
   96SOL     MW  384   1.266   1.780   1.637  0.2114  0.4483 -0.8944
   97SOL     OW  385   1.282   1.451   0.823 -0.6179  0.1222  0.4883
   97SOL    HW1  386   1.277   1.482   0.917 -0.6268 -0.9443 -0.7198
   97SOL    HW2  387   1.206   1.490   0.786  1.8005  1.1986  0.0535
   97SOL     MW  388   1.272   1.460   0.831 -0.3000  0.1235  0.2715
   98SOL     OW  389   1.522   1.293   1.170 -0.0939  0.2436  0.3120
   98SOL    HW1  390   1.538   1.383   1.196  1.4044  0.2963 -0.0755
   98SOL    HW2  391   1.578   1.279   1.092 -0.8528  1.4289 -1.1707
   98SOL     MW  392   1.532   1.303   1.163  0.0036  0.4070  0.0652
   99SOL     OW  393   1.527   0.313   1.247  0.5726 -0.5528 -0.0951
   99SOL    HW1  394   1.545   0.391   1.187 -2.0883 -2.4928 -0.0796
   99SOL    HW2  395   1.488   0.347   1.323  1.8172 -0.7364 -3.9292
   99SOL     MW  396   1.524   0.328   1.249  0.3857 -0.8330 -0.5989
  100SOL     OW  397   1.121   1.047   1.342 -0.3289 -0.1735  0.1482
  100SOL    HW1  398   1.046   1.069   1.402  0.9698 -0.2064  0.0183
  100SOL    HW2  399   1.137   0.954   1.368 -3.0374  1.2659 -0.8303
  100SOL     MW  400   1.113   1.038   1.354 -0.5149  0.0121  0.0019
  101SOL     OW  401   0.619   1.174   0.330 -0.3838  0.2468 -0.1368
  101SOL    HW1  402   0.597   1.077   0.317 -0.5742 -0.5032 -0.2607
  101SOL    HW2  403   0.630   1.208   0.241  1.3469  0.7075  0.8360
  101SOL     MW  404   0.617   1.166   0.317 -0.1806  0.2086 -0.0248
  102SOL     OW  405   2.958   0.581   0.951  0.1923 -0.0548  0.8879
  102SOL    HW1  406   3.019   0.640   0.918 -2.2904 -3.0743  1.3022
  102SOL    HW2  407   2.966   0.579   1.049 -0.2518 -0.1058 -0.0081
  102SOL     MW  408   2.967   0.588   0.959 -0.1938 -0.4599  0.8244
  103SOL     OW  409   1.627   0.378   1.806 -0.4954  0.2918  0.4181
  103SOL    HW1  410   1.646   0.305   1.742  0.0109 -3.2587 -1.1918
  103SOL    HW2  411   1.697   0.389   1.877 -0.3900 -1.0543 -1.1096
  103SOL     MW  412   1.639   0.370   1.807 -0.4147 -0.3543  0.0041
  104SOL     OW  413   0.099   1.835   1.491  0.3193 -0.1287 -1.0871
  104SOL    HW1  414   0.180   1.797   1.452  0.5901 -0.7681  0.1089
  104SOL    HW2  415   0.105   1.791   1.572  2.0108 -1.5106  1.6505
  104SOL     MW  416   0.110   1.825   1.497  0.5782 -0.3954 -0.5681
  105SOL     OW  417   0.158   1.171   0.508 -0.2818 -0.1922 -0.3473
  105SOL    HW1  418   0.161   1.145   0.418  1.0059 -0.2807 -1.7219
  105SOL    HW2  419   0.147   1.268   0.500 -2.0418 -0.6729 -1.4890
  105SOL     MW  420   0.157   1.181   0.495 -0.3441 -0.2673 -0.6793
  106SOL     OW  421   0.871   0.330   0.936 -0.3356 -0.3345  0.3702
  106SOL    HW1  422   0.805   0.380   0.886  0.9532 -1.8723 -0.0480
  106SOL    HW2  423   0.952   0.321   0.882  1.5354 -3.5016 -2.9894
  106SOL     MW  424   0.873   0.336   0.922  0.0813 -0.9553 -0.1282
  107SOL     OW  425   0.797   2.221   3.057  0.0007  0.3577 -0.0869
  107SOL    HW1  426   0.758   2.148   3.011 -0.1506  0.8910  1.6126
  107SOL    HW2  427   0.889   2.194   3.074 -0.3106 -1.1502 -0.4529
  107SOL     MW  428   0.804   2.208   3.053 -0.0603  0.2291  0.0891
  108SOL     OW  429   1.406   1.579   1.518 -0.1827  0.3032 -0.2572
  108SOL    HW1  430   1.349   1.513   1.469 -2.9069 -1.0176 -0.0492
  108SOL    HW2  431   1.463   1.539   1.585  3.4631 -1.1052  0.3316
  108SOL     MW  432   1.406   1.565   1.520 -0.0611 -0.0569 -0.1521
  109SOL     OW  433   1.951   0.733   0.139 -0.0593 -0.2254  0.4054
  109SOL    HW1  434   1.975   0.733   0.046 -0.5220  0.1105 -2.7921
  109SOL    HW2  435   2.030   0.751   0.190 -0.3677 -0.7413 -0.2365
  109SOL     MW  436   1.964   0.736   0.134 -0.1611 -0.2492 -0.1012
  110SOL     OW  437   0.397   1.782   0.722 -0.2346  0.3409 -0.3412
  110SOL    HW1  438   0.468   1.742   0.676 -1.7231 -0.0126  0.4445
  110SOL    HW2  439   0.383   1.862   0.673  0.4664 -1.0291  1.0798
  110SOL     MW  440   0.404   1.787   0.710 -0.3385  0.1135 -0.0501
  111SOL     OW  441   0.708   0.928   1.516  0.4356 -0.4607 -0.2533
  111SOL    HW1  442   0.751   0.841   1.499 -0.0666 -0.4029  1.8538
  111SOL    HW2  443   0.641   0.916   1.582 -0.0693 -0.7671 -2.8562
  111SOL     MW  444   0.705   0.915   1.522  0.3027 -0.4935 -0.3187
  112SOL     OW  445   1.290   1.115   1.611  0.3050 -0.3789  0.2919
  112SOL    HW1  446   1.225   1.182   1.655 -1.4203 -0.6226  0.3086
  112SOL    HW2  447   1.240   1.036   1.625 -2.0748 -0.4171 -0.1665
  112SOL     MW  448   1.275   1.113   1.619 -0.2366 -0.4161  0.2336
  113SOL     OW  449   1.380   0.082   1.686  0.3048  0.0299 -0.0422
  113SOL    HW1  450   1.386   0.038   1.768  1.7753  3.3091 -1.2613
  113SOL    HW2  451   1.364   0.012   1.626  1.1692  2.3097  3.7872
  113SOL     MW  452   1.379   0.067   1.689  0.6128  0.7633  0.3022
  114SOL     OW  453   0.450   2.817   1.862 -0.0469  0.1941 -0.0585
  114SOL    HW1  454   0.440   2.869   1.944  0.0144  2.1130  0.0858
  114SOL    HW2  455   0.417   2.863   1.786 -1.4079 -2.1130  1.1619
  114SOL     MW  456   0.445   2.830   1.863 -0.2184  0.1429  0.1216
  115SOL     OW  457   0.411   0.849   1.069  0.5093 -0.0225  0.7613
  115SOL    HW1  458   0.471   0.777   1.078 -1.6165  0.0245 -0.7500
  115SOL    HW2  459   0.389   0.876   1.157  2.4997 -0.3595  1.2354
  115SOL     MW  460   0.416   0.843   1.082  0.4914 -0.0608  0.6245
  116SOL     OW  461   0.807   0.997   0.894  0.1956  0.4432 -0.0392
  116SOL    HW1  462   0.858   1.057   0.835  1.4717  0.1908 -0.3495
  116SOL    HW2  463   0.852   0.982   0.974 -0.2191  0.9769 -1.3066
  116SOL     MW  464   0.820   1.003   0.896  0.3093  0.4803 -0.2473
  117SOL     OW  465   1.210   1.118   0.814 -0.4405 -0.1633 -0.6754
  117SOL    HW1  466   1.259   1.063   0.884 -0.1370 -0.1252 -4.1387
  117SOL    HW2  467   1.228   1.214   0.826  0.1499 -1.3886 -1.7408
  117SOL     MW  468   1.219   1.123   0.825 -0.3226 -0.3200 -1.2729
  118SOL     OW  469   3.088   2.983   1.735 -0.2728 -0.4038 -0.4627
  118SOL    HW1  470   3.121   3.032   1.819 -2.5951 -2.4847  0.6643
  118SOL    HW2  471   2.991   2.983   1.746  0.4398  0.2616 -2.2060
  118SOL     MW  472   3.079   2.990   1.747 -0.4852 -0.5905 -0.5440
  119SOL     OW  473   0.526   1.308   1.229  0.0095 -0.4375 -0.1670
  119SOL    HW1  474   0.533   1.340   1.134 -1.6035 -2.1479  0.3073
  119SOL    HW2  475   0.438   1.278   1.240  2.5419  0.1470 -0.9232
  119SOL     MW  476   0.515   1.308   1.218  0.1308 -0.5860 -0.2042
  120SOL     OW  477   0.195   0.617   0.948  0.2700  0.6535 -0.4545
  120SOL    HW1  478   0.230   0.569   1.023  0.8916  0.0400  2.3070
  120SOL    HW2  479   0.235   0.704   0.949  0.5488 -1.1027  2.2697
  120SOL     MW  480   0.205   0.622   0.958  0.3888  0.3409  0.2693
  121SOL     OW  481   1.776   1.056   1.733 -0.5061 -0.0377 -0.1999
  121SOL    HW1  482   1.696   1.036   1.683  2.1032 -1.7044  1.1418
  121SOL    HW2  483   1.830   0.976   1.756  0.1660 -2.3435  0.8858
  121SOL     MW  484   1.772   1.043   1.730 -0.0731 -0.5618  0.1204
  122SOL     OW  485   0.096   0.515   0.705 -0.1153  0.3884  0.0424
  122SOL    HW1  486   0.154   0.544   0.636 -0.5665 -0.4892 -0.4283
  122SOL    HW2  487   0.152   0.523   0.786  1.1134  2.1473 -0.5471
  122SOL     MW  488   0.111   0.520   0.707 -0.0127  0.5047 -0.0975
  123SOL     OW  489   1.770   1.023   0.477  0.4937 -0.3691 -0.4154
  123SOL    HW1  490   1.709   0.949   0.484  0.3350  0.6506  1.7647
  123SOL    HW2  491   1.797   1.041   0.566  2.8955  1.0751  0.1923
  123SOL     MW  492   1.766   1.016   0.489  0.7896 -0.0440 -0.0476
  124SOL     OW  493   0.657   0.508   0.823 -0.0069 -0.0829 -0.3502
  124SOL    HW1  494   0.583   0.473   0.775  0.7209 -0.4331  0.1904
  124SOL    HW2  495   0.649   0.602   0.803  1.2248 -0.9325 -1.3940
  124SOL     MW  496   0.646   0.516   0.814  0.2516 -0.2412 -0.4166
  125SOL     OW  497   0.668   1.683   1.662  0.7685 -0.0849 -0.0622
  125SOL    HW1  498   0.575   1.640   1.669  0.6603 -1.2089  0.9761
  125SOL    HW2  499   0.656   1.775   1.674  0.5950 -0.9346  0.1202
  125SOL     MW  500   0.654   1.690   1.665  0.7313 -0.3453  0.0989
  126SOL     OW  501   2.111   1.605   2.011  0.0773  0.1796 -0.4221
  126SOL    HW1  502   2.148   1.691   1.991 -0.4485  1.0888 -1.3999
  126SOL    HW2  503   2.184   1.539   2.011 -1.6439  0.3035 -0.1186
  126SOL     MW  504   2.125   1.608   2.009 -0.2192  0.3159 -0.5110
  127SOL     OW  505   0.605   0.723   1.896 -0.1264  0.5181  0.1609
  127SOL    HW1  506   0.661   0.661   1.942 -0.2304 -0.7083  0.6016
  127SOL    HW2  507   0.635   0.811   1.925  1.9146  3.1182 -1.2329
  127SOL     MW  508   0.617   0.727   1.906  0.1292  0.6994  0.0352
  128SOL     OW  509   1.741   0.759   2.867  0.3675 -0.4033 -0.3714
  128SOL    HW1  510   1.784   0.715   2.797  1.0149  0.7763  0.2181
  128SOL    HW2  511   1.734   0.856   2.845  0.4058  0.2719  2.6511
  128SOL     MW  512   1.746   0.766   2.855  0.4580 -0.1586  0.1052
  129SOL     OW  513   1.498   0.935   0.215 -0.6712  0.5802 -0.2834
  129SOL    HW1  514   1.447   0.863   0.168 -1.9718 -0.6968  1.5418
  129SOL    HW2  515   1.551   0.875   0.270  2.1757  2.4169  0.0439
  129SOL     MW  516   1.498   0.918   0.216 -0.4671  0.6541  0.0006
  130SOL     OW  517   0.754   1.505   0.373 -0.0906  0.0611 -0.0305
  130SOL    HW1  518   0.785   1.447   0.438 -1.0218 -0.2816  0.8276
  130SOL    HW2  519   0.839   1.531   0.322  0.6967 -1.1702 -0.0096
  130SOL     MW  520   0.769   1.501   0.375 -0.1096 -0.1466  0.0855
  131SOL     OW  521   3.062   0.808   0.053 -0.5335 -0.4484  0.2398
  131SOL    HW1  522   3.065   0.885  -0.017 -0.3982  2.1290  0.2291
  131SOL    HW2  523   3.154   0.788   0.068  1.8656 -0.0485 -0.3900
  131SOL     MW  524   3.075   0.816   0.046 -0.1991 -0.0556  0.1553
  132SOL     OW  525   2.687   0.160   1.266  0.4190  0.5464 -0.0240
  132SOL    HW1  526   2.712   0.140   1.172 -0.9174  0.0768 -0.8007
  132SOL    HW2  527   2.595   0.131   1.271 -0.1029 -1.2371  1.1500
  132SOL     MW  528   2.678   0.154   1.254  0.1738  0.2491  0.0284
  133SOL     OW  529   1.114   0.213   1.717 -0.4945  0.0388  0.0816
  133SOL    HW1  530   1.199   0.176   1.698  0.2665  3.6928  0.2113
  133SOL    HW2  531   1.078   0.189   1.807 -2.7540  2.8779  1.7345
  133SOL     MW  532   1.120   0.205   1.727 -0.6922  0.8955  0.3168
  134SOL     OW  533   1.373   2.507   1.416 -0.2499  0.1796  0.3248
  134SOL    HW1  534   1.325   2.583   1.402 -0.5044 -4.4383 -1.3093
  134SOL    HW2  535   1.420   2.527   1.497 -3.1012 -1.2058 -0.7271
  134SOL     MW  536   1.373   2.520   1.425 -0.6597 -0.6125 -0.0296
  135SOL     OW  537   3.054   0.990   2.944 -0.0275 -0.4642 -0.8512
  135SOL    HW1  538   3.108   1.071   2.916  2.1758 -0.8156 -1.4106
  135SOL    HW2  539   2.960   1.024   2.957  0.9750 -0.8907 -0.6611
  135SOL     MW  540   3.048   1.005   2.942  0.3955 -0.5669 -0.8999
  136SOL     OW  541   0.268   2.032   0.878 -0.0895 -0.7201  0.7322
  136SOL    HW1  542   0.204   1.961   0.885  2.3369  0.2219  3.9056
  136SOL    HW2  543   0.289   2.041   0.788  2.0403  0.7069 -0.3162
  136SOL     MW  544   0.262   2.024   0.867  0.5117 -0.4075  1.0125
  137SOL     OW  545   0.660   2.032   0.580 -0.1397 -0.8185  0.1071
  137SOL    HW1  546   0.693   2.018   0.671  0.6660 -1.7841 -0.8380
  137SOL    HW2  547   0.565   2.045   0.583 -2.5038  0.4850 -3.1827
  137SOL     MW  548   0.652   2.032   0.593 -0.3453 -0.7739 -0.4517
  138SOL     OW  549   0.560   0.596   1.073  0.2046  0.3276 -0.5893
  138SOL    HW1  550   0.469   0.558   1.061  0.7791 -2.9279  0.4214
  138SOL    HW2  551   0.609   0.566   0.998 -3.8904 -0.2520  0.7251
  138SOL     MW  552   0.555   0.587   1.062 -0.2599 -0.1784 -0.2825
  139SOL     OW  553   2.755   0.551   1.421  0.4173 -0.6885 -0.0907
  139SOL    HW1  554   2.814   0.477   1.405  2.0851  0.7351 -2.0451
  139SOL    HW2  555   2.814   0.620   1.468  1.3012 -3.0820 -0.8892
  139SOL     MW  556   2.771   0.550   1.425  0.7540 -0.8165 -0.4539
  140SOL     OW  557   0.862   0.301   2.121  0.0062  0.2138 -0.8539
  140SOL    HW1  558   0.919   0.257   2.050  4.1808  1.7399  2.2254
  140SOL    HW2  559   0.920   0.289   2.200  2.2179 -0.4322  4.5513
  140SOL     MW  560   0.877   0.294   2.122  0.8488  0.3299  0.2655
  141SOL     OW  561   1.009   0.639   1.763  0.4440 -0.7196  0.0594
  141SOL    HW1  562   1.071   0.579   1.718 -1.6790 -0.7952  0.2137
  141SOL    HW2  563   1.045   0.718   1.805 -1.7258  0.7217  1.1559
  141SOL     MW  564   1.022   0.641   1.763 -0.1224 -0.5394  0.2245
  142SOL     OW  565   0.940   1.141   0.710 -0.4298  0.3286  0.5458
  142SOL    HW1  566   0.913   1.066   0.661 -2.8384  3.9510  1.8061
  142SOL    HW2  567   1.028   1.125   0.751 -0.7325  0.3505 -1.8035
  142SOL     MW  568   0.948   1.129   0.709 -0.7875  0.8094  0.4021
  143SOL     OW  569   1.891   0.917   1.138 -0.3250  0.2719 -0.5530
  143SOL    HW1  570   1.920   0.875   1.057  0.1782  0.4489  0.5033
  143SOL    HW2  571   1.863   0.843   1.195 -2.4827  0.0025  0.4929
  143SOL     MW  572   1.891   0.902   1.135 -0.5433  0.2597 -0.2756
  144SOL     OW  573   0.168   1.171   1.559 -1.0824 -0.7340  0.1319
  144SOL    HW1  574   0.258   1.132   1.558  0.3323  0.6785 -3.2009
  144SOL    HW2  575   0.152   1.183   1.655  0.2278  0.3195  0.4292
  144SOL     MW  576   0.177   1.167   1.571 -0.7229 -0.4086 -0.2686
  145SOL     OW  577   0.266   0.452   1.155  0.2069  0.2358 -0.2124
  145SOL    HW1  578   0.302   0.414   1.234 -0.6379  0.8591 -1.6871
  145SOL    HW2  579   0.202   0.392   1.127 -2.2365  0.6594  2.0618
  145SOL     MW  580   0.262   0.439   1.162 -0.2270  0.3739 -0.1069
  146SOL     OW  581   0.869   1.916   1.383  0.1110 -0.4915 -0.1401
  146SOL    HW1  582   0.934   1.941   1.309 -0.4244 -0.5933  1.6646
  146SOL    HW2  583   0.786   1.954   1.353  1.5583 -2.1411 -2.3898
  146SOL     MW  584   0.867   1.924   1.369  0.2313 -0.7226 -0.1988
  147SOL     OW  585   0.392   0.415   2.841  0.0813  0.6801  0.6329
  147SOL    HW1  586   0.363   0.440   2.925  2.6537  1.7802  2.0836
  147SOL    HW2  587   0.362   0.485   2.784  2.2625 -0.7875 -0.1050
  147SOL     MW  588   0.384   0.428   2.845  0.7085  0.6316  0.7269
  148SOL     OW  589   0.021   0.900   1.283  0.1543  0.6084  0.3072
  148SOL    HW1  590   0.106   0.939   1.262 -0.5392  3.7374 -0.4712
  148SOL    HW2  591  -0.009   0.949   1.354 -1.9759 -1.6141 -0.6800
  148SOL     MW  592   0.028   0.912   1.290 -0.2183  0.7280  0.0743
  149SOL     OW  593   1.454   1.090   1.386  0.1321  0.3433  0.0030
  149SOL    HW1  594   1.391   1.098   1.466 -0.3586 -0.5777 -0.4961
  149SOL    HW2  595   1.493   1.176   1.367 -4.3956  1.2989 -1.0824
  149SOL     MW  596   1.451   1.102   1.394 -0.5300  0.3479 -0.2061
  150SOL     OW  597   1.819   1.358   0.731  0.2364 -0.0474  0.0232
  150SOL    HW1  598   1.850   1.266   0.722  0.5281 -1.6133 -0.2368
  150SOL    HW2  599   1.882   1.386   0.794  0.7952  1.1597 -0.8098
  150SOL     MW  600   1.831   1.350   0.738  0.3486 -0.0947 -0.1210
  151SOL     OW  601   1.611   1.785   0.813 -0.2466 -0.0144 -0.0448
  151SOL    HW1  602   1.554   1.783   0.740 -3.3209 -0.9619  0.0376
  151SOL    HW2  603   1.591   1.725   0.884  1.2976  1.3370  0.7973
  151SOL     MW  604   1.601   1.777   0.812 -0.4485  0.0389  0.0772
  152SOL     OW  605   0.756   1.320   1.531 -0.0230 -0.1253  0.4363
  152SOL    HW1  606   0.792   1.232   1.511  0.8409  1.9457  0.9619
  152SOL    HW2  607   0.820   1.383   1.515 -1.6457  0.5720  0.0947
  152SOL     MW  608   0.769   1.316   1.526 -0.1231  0.2400  0.4606
  153SOL     OW  609   2.662   1.205   0.724  0.1137  0.2278 -0.4795
  153SOL    HW1  610   2.716   1.199   0.643 -0.3963 -0.3303  0.7544
  153SOL    HW2  611   2.608   1.130   0.722  0.4463  4.7514 -2.3039
  153SOL     MW  612   2.662   1.195   0.713  0.0903  0.7510 -0.5574
  154SOL     OW  613   0.312   1.768   1.716  0.2183  0.0622  0.2362
  154SOL    HW1  614   0.369   1.749   1.636  1.6865 -0.2252 -0.5091
  154SOL    HW2  615   0.339   1.697   1.774 -0.2408  0.0961  0.8289
  154SOL     MW  616   0.323   1.756   1.713  0.3514  0.0288  0.2161
  155SOL     OW  617   1.101   0.748   0.239 -0.2039  0.2976  0.1491
  155SOL    HW1  618   1.119   0.677   0.302  0.2165 -1.6846  0.2326
  155SOL    HW2  619   1.101   0.829   0.297 -0.1995  0.8575 -0.4627
  155SOL     MW  620   1.104   0.749   0.255 -0.1478  0.1099  0.0794
  156SOL     OW  621   1.565   3.067   1.008 -0.3588  0.6769  0.4513
  156SOL    HW1  622   1.640   3.121   0.981  0.1650  4.1693  2.2894
  156SOL    HW2  623   1.595   3.002   1.073 -1.4622 -0.4452  0.9747
  156SOL     MW  624   1.579   3.066   1.013 -0.4353  0.9896  0.7629
  157SOL     OW  625   1.407   1.188   0.120  0.1683  0.1925  0.3685
  157SOL    HW1  626   1.429   1.098   0.153 -1.3444 -2.9617  0.5453
  157SOL    HW2  627   1.489   1.240   0.105 -0.3342  1.2678 -1.7584
  157SOL     MW  628   1.421   1.183   0.122 -0.0976 -0.0818  0.1112
  158SOL     OW  629   0.401   1.657   2.301  0.5251 -0.2505  0.2928
  158SOL    HW1  630   0.385   1.741   2.257 -0.0510 -1.5980 -1.0086
  158SOL    HW2  631   0.313   1.628   2.341 -1.3447  3.2818  0.4619
  158SOL     MW  632   0.388   1.664   2.300  0.2024  0.0378  0.1434
  159SOL     OW  633   1.272   1.661   0.430  0.6844  0.0869 -0.0336
  159SOL    HW1  634   1.270   1.574   0.397  1.1384  1.4277  4.1808
  159SOL    HW2  635   1.186   1.685   0.473 -0.8309 -0.0424  0.6355
  159SOL     MW  636   1.260   1.652   0.431  0.5444  0.2467  0.6107
  160SOL     OW  637   0.416   1.051   1.571  0.5448  0.0221 -0.3355
  160SOL    HW1  638   0.432   0.966   1.620 -0.5138  1.3328  1.9083
  160SOL    HW2  639   0.443   1.114   1.639 -1.6209  1.2563  0.1001
  160SOL     MW  640   0.422   1.048   1.586  0.1194  0.3579  0.0180
  161SOL     OW  641   0.588   2.114   2.704  0.0445  0.0595  0.4897
  161SOL    HW1  642   0.504   2.124   2.749  0.6444 -0.8707 -0.7809
  161SOL    HW2  643   0.564   2.097   2.607 -1.9039 -0.1146 -1.7236
  161SOL     MW  644   0.574   2.113   2.697 -0.1334 -0.0862  0.0300
  162SOL     OW  645   1.021   1.708   1.837  0.2749  0.3001 -0.1420
  162SOL    HW1  646   1.040   1.807   1.825 -2.3025 -0.3234 -1.7341
  162SOL    HW2  647   0.936   1.714   1.871  1.5707  1.0671  0.2921
  162SOL     MW  648   1.012   1.722   1.840  0.1058  0.3190 -0.2948
  163SOL     OW  649   2.169   0.138   0.994 -0.7334 -0.2011 -0.5469
  163SOL    HW1  650   2.142   0.158   0.903 -1.3853  0.0691  1.1753
  163SOL    HW2  651   2.115   0.060   1.010 -3.8362 -1.1555 -0.0049
  163SOL     MW  652   2.158   0.130   0.984 -1.2288 -0.2914 -0.2481
  164SOL     OW  653   0.295   0.185   0.845 -0.2854  0.3581 -0.5751
  164SOL    HW1  654   0.199   0.170   0.846 -3.0458 -1.4298  0.1989
  164SOL    HW2  655   0.329   0.116   0.791  0.2221 -0.0436  0.5976
  164SOL     MW  656   0.287   0.174   0.838 -0.5826  0.0692 -0.3182
  165SOL     OW  657   1.373   1.197   0.415  0.0269  0.6714  0.5002
  165SOL    HW1  658   1.354   1.123   0.472 -0.5216  1.0075 -1.2750
  165SOL    HW2  659   1.452   1.169   0.365 -1.2087 -0.8130 -1.9811
  165SOL     MW  660   1.381   1.184   0.416 -0.2085  0.5199 -0.0614
  166SOL     OW  661   0.531   1.094   0.977 -0.0036 -0.0865 -0.3884
  166SOL    HW1  662   0.505   1.023   1.039 -2.5050  2.4524  1.6822
  166SOL    HW2  663   0.616   1.061   0.936 -0.4136 -0.4461  0.1417
  166SOL     MW  664   0.539   1.080   0.980 -0.3877  0.2010 -0.0453
  167SOL     OW  665   0.936   1.160   0.309 -0.1616 -0.1539 -0.8732
  167SOL    HW1  666   0.859   1.203   0.332 -1.3889  0.4290 -1.8595
  167SOL    HW2  667   0.953   1.176   0.214 -1.5925  0.9318  1.1303
  167SOL     MW  668   0.928   1.168   0.300 -0.5123  0.0662 -0.7390
  168SOL     OW  669   1.677   1.767   2.902  0.0145 -0.2687 -0.2068
  168SOL    HW1  670   1.658   1.844   2.965  1.4337  0.2107  0.0366
  168SOL    HW2  671   1.612   1.703   2.904  0.5016 -0.0935 -0.2030
  168SOL     MW  672   1.666   1.769   2.911  0.2660 -0.1823 -0.1742
  169SOL     OW  673   0.327   0.960   1.326 -0.0224 -1.0275 -0.0854
  169SOL    HW1  674   0.381   0.984   1.405 -0.8985 -0.2495 -1.7262
  169SOL    HW2  675   0.286   1.043   1.301  0.3649  2.1945 -0.1437
  169SOL     MW  676   0.329   0.974   1.333 -0.0869 -0.4997 -0.3096
  170SOL     OW  677   1.015   1.464   1.497 -0.1579  0.1824  0.2817
  170SOL    HW1  678   0.985   1.544   1.449  0.2096  1.4775 -0.5290
  170SOL    HW2  679   1.094   1.438   1.445 -1.7566  0.6223 -0.5645
  170SOL     MW  680   1.021   1.471   1.483 -0.3204  0.4113  0.0631
  171SOL     OW  681   0.597   1.393   0.708  0.1735  0.1407  0.3074
  171SOL    HW1  682   0.568   1.396   0.800 -0.1485  1.0369  1.9134
  171SOL    HW2  683   0.588   1.300   0.681  2.7569  1.5737 -0.5241
  171SOL     MW  684   0.592   1.382   0.717  0.4718  0.4480  0.4096
  172SOL     OW  685   0.833   0.338   1.223 -0.3550  0.1662 -0.0612
  172SOL    HW1  686   0.831   0.342   1.131  0.1552  0.2301 -0.5763
  172SOL    HW2  687   0.752   0.378   1.252  0.3724 -2.1765  0.1683
  172SOL     MW  688   0.822   0.343   1.215 -0.1917 -0.1344 -0.0989
  173SOL     OW  689   0.435   1.684   0.347  0.4857 -0.0531 -0.4224
  173SOL    HW1  690   0.441   1.596   0.315 -0.3396  1.6820  1.0757
  173SOL    HW2  691   0.490   1.675   0.427  1.8289  1.0956 -0.0123
  173SOL     MW  692   0.443   1.672   0.354  0.5541  0.3274 -0.1707
  174SOL     OW  693   2.031   0.981   1.511  0.4873 -0.0567  0.3090
  174SOL    HW1  694   1.965   0.916   1.541  0.5678  0.0434  1.7130
  174SOL    HW2  695   1.981   1.066   1.491 -1.9726  2.0144 -0.9782
  174SOL     MW  696   2.016   0.984   1.513  0.1734  0.2297  0.3244
  175SOL     OW  697   0.398   1.357   0.364  0.3897  0.3299 -0.0975
  175SOL    HW1  698   0.383   1.358   0.268  0.1789  3.0688 -1.2588
  175SOL    HW2  699   0.476   1.299   0.373  2.9275 -1.1743  1.3343
  175SOL     MW  700   0.407   1.349   0.353  0.6967  0.4928 -0.0618
  176SOL     OW  701   0.263   1.208   1.263  0.9938  0.4330  0.3501
  176SOL    HW1  702   0.220   1.229   1.180 -0.9556 -0.3927 -0.3221
  176SOL    HW2  703   0.224   1.265   1.330  2.4870 -1.5850 -3.0817
  176SOL     MW  704   0.252   1.218   1.261  0.9336  0.0578 -0.1914
  177SOL     OW  705   0.598   0.446   1.288  0.1016  0.3793  0.2979
  177SOL    HW1  706   0.593   0.511   1.222  1.9021 -1.5410  2.6295
  177SOL    HW2  707   0.620   0.497   1.365 -0.8118 -0.3803  1.6255
  177SOL     MW  708   0.600   0.461   1.290  0.2187  0.0257  0.7807
  178SOL     OW  709   3.091   0.442   2.980  0.2141  0.3739  0.1466
  178SOL    HW1  710   3.045   0.462   3.062  0.5969 -0.3519 -2.8242
  178SOL    HW2  711   3.052   0.493   2.906 -1.4673 -0.4324 -2.7688
  178SOL     MW  712   3.080   0.452   2.981  0.0428  0.1718 -0.6300
  179SOL     OW  713   1.647   1.327   1.454 -0.5471  0.1736  0.5704
  179SOL    HW1  714   1.631   1.349   1.542  0.9022 -1.5765  0.5319
  179SOL    HW2  715   1.733   1.284   1.449  0.4396 -1.3639  0.5117
  179SOL     MW  716   1.656   1.324   1.465 -0.2257 -0.2602  0.5576
  180SOL     OW  717   3.016   0.282   0.482  0.2642 -0.4052 -0.0642
  180SOL    HW1  718   2.957   0.287   0.398  1.3118 -2.4326  0.4755
  180SOL    HW2  719   3.052   0.367   0.489  1.0413  0.8778 -2.1872
  180SOL     MW  720   3.013   0.294   0.472  0.5049 -0.5034 -0.2731
  181SOL     OW  721   1.142   1.395   3.077 -0.6955  0.4810  0.9898
  181SOL    HW1  722   1.210   1.457   3.107 -0.3524 -0.6880 -0.6105
  181SOL    HW2  723   1.177   1.366   2.990  1.8247 -0.3799  0.1018
  181SOL     MW  724   1.156   1.400   3.070 -0.3177  0.2132  0.6615
  182SOL     OW  725   0.477   0.813   1.657 -0.1792 -0.2540  0.0460
  182SOL    HW1  726   0.391   0.776   1.654  1.9072  1.5767  0.5803
  182SOL    HW2  727   0.539   0.755   1.702  1.2391 -1.6525  1.6373
  182SOL     MW  728   0.474   0.800   1.662  0.2832 -0.1970  0.3265
  183SOL     OW  729   1.594   1.545   1.300  0.1895  0.2445 -0.2919
  183SOL    HW1  730   1.523   1.560   1.359  1.6012  1.6775  0.7591
  183SOL    HW2  731   1.632   1.463   1.343  2.0550 -1.1810 -0.3028
  183SOL     MW  732   1.589   1.536   1.313  0.6219  0.2455 -0.1546
  184SOL     OW  733   0.792   0.530   1.994  0.5051  0.6493  0.0298
  184SOL    HW1  734   0.871   0.568   1.962  0.2563 -0.0372 -0.5735
  184SOL    HW2  735   0.829   0.456   2.057  0.0877 -3.4204  1.8985
  184SOL     MW  736   0.807   0.525   1.998  0.4172  0.0217  0.1967
  185SOL     OW  737   1.129   0.922   1.966 -0.4662 -0.2555  0.2137
  185SOL    HW1  738   1.116   0.839   2.014  0.4172  2.0746 -0.7401
  185SOL    HW2  739   1.167   0.984   2.037  0.5718  2.1617  1.4691
  185SOL     MW  740   1.132   0.919   1.982 -0.2127  0.3709  0.2535
  186SOL     OW  741   0.342   1.719   1.421 -0.0890 -0.0336 -0.1008
  186SOL    HW1  742   0.407   1.765   1.367 -0.0260  0.8176  3.0237
  186SOL    HW2  743   0.301   1.653   1.368 -0.8033 -0.0909  1.0288
  186SOL     MW  744   0.345   1.716   1.407 -0.1750  0.0712  0.4605
  187SOL     OW  745   1.553   0.669   1.496 -0.2734 -0.4282 -0.1360
  187SOL    HW1  746   1.513   0.687   1.579 -0.6828 -0.4891 -0.9290
  187SOL    HW2  747   1.485   0.674   1.431  1.0162  1.7178 -1.4772
  187SOL     MW  748   1.539   0.672   1.498 -0.1573 -0.1531 -0.4176
  188SOL     OW  749   1.923   1.097   0.704 -0.0417 -0.1678  0.3621
  188SOL    HW1  750   1.947   1.051   0.783  0.3974  2.4624  0.0183
  188SOL    HW2  751   2.015   1.114   0.674 -0.5068  1.7250  0.7817
  188SOL     MW  752   1.938   1.093   0.710 -0.0451  0.4290  0.3721
  189SOL     OW  753   0.623   0.776   0.776  0.6661  0.2841  0.8765
  189SOL    HW1  754   0.537   0.821   0.762 -0.7337 -0.7525 -1.7472
  189SOL    HW2  755   0.668   0.858   0.786 -2.9353 -0.6242 -0.7908
  189SOL     MW  756   0.617   0.793   0.776  0.0063  0.0275  0.3103
  190SOL     OW  757   1.833   0.391   1.959  0.2174  0.3095 -0.0050
  190SOL    HW1  758   1.841   0.300   1.985  0.6312 -1.6775  0.7388
  190SOL    HW2  759   1.922   0.420   1.927  1.2762 -0.6764  1.8410
  190SOL     MW  760   1.846   0.383   1.958  0.4117 -0.0828  0.3367
  191SOL     OW  761   1.617   0.967   1.524 -0.2800 -0.2995  0.1861
  191SOL    HW1  762   1.550   1.023   1.472  0.8582  1.8770  0.9674
  191SOL    HW2  763   1.609   0.876   1.495 -0.4087 -0.1456  0.2650
  191SOL     MW  764   1.607   0.962   1.513 -0.1468  0.0080  0.2996
  192SOL     OW  765   0.731   1.998   2.909  0.3347 -0.7299  0.6045
  192SOL    HW1  766   0.706   2.060   2.838 -1.3158 -0.7794  0.1637
  192SOL    HW2  767   0.669   1.927   2.893  2.5036 -2.4342 -0.2648
  192SOL     MW  768   0.719   1.997   2.898  0.4031 -0.9613  0.4316
  193SOL     OW  769   1.009   1.543   0.729  0.7887 -0.0110  0.8204
  193SOL    HW1  770   0.977   1.561   0.823 -0.2752  1.9712  0.7257
  193SOL    HW2  771   0.949   1.479   0.691  0.5876  1.1808 -0.4306
  193SOL     MW  772   0.997   1.537   0.737  0.6218  0.4078  0.6428
  194SOL     OW  773   0.489   1.373   0.957 -0.6755 -0.7597 -0.4316
  194SOL    HW1  774   0.495   1.278   0.964  0.2372  2.3840 -0.6893
  194SOL    HW2  775   0.398   1.400   0.935  0.7705  2.3751  1.3217
  194SOL     MW  776   0.477   1.364   0.955 -0.3643  0.0687 -0.2343
  195SOL     OW  777   1.310   1.151   2.924 -0.3104 -0.2792  0.1061
  195SOL    HW1  778   1.320   1.188   3.012  0.6634  1.2682  0.4810
  195SOL    HW2  779   1.232   1.090   2.937 -0.8084 -1.2861 -0.5477
  195SOL     MW  780   1.301   1.148   2.938 -0.2476 -0.2079  0.0693
  196SOL     OW  781   2.211   1.044   0.612 -0.6298  0.5107  0.0186
  196SOL    HW1  782   2.169   1.022   0.529  3.4873  0.7593  0.8048
  196SOL    HW2  783   2.200   1.139   0.619 -1.9292  0.5032  0.7160
  196SOL     MW  784   2.204   1.054   0.602 -0.2581  0.5425  0.2143
  197SOL     OW  785   0.569   1.219   2.014  0.0998 -0.1941 -0.4620
  197SOL    HW1  786   0.603   1.134   2.009 -0.1563 -0.6935  0.8623
  197SOL    HW2  787   0.547   1.220   1.918 -0.2020 -2.7045 -1.4152
  197SOL     MW  788   0.571   1.208   2.001  0.0262 -0.5912 -0.4130
  198SOL     OW  789   2.946   1.384   1.090 -0.4407 -0.1365  0.1225
  198SOL    HW1  790   2.917   1.464   1.040 -1.1621  1.9974  0.1207
  198SOL    HW2  791   2.882   1.307   1.071 -1.2917 -1.2117  0.7003
  198SOL     MW  792   2.934   1.384   1.081 -0.6481  0.0032  0.1985
  199SOL     OW  793   0.474   1.266   1.754  0.7710 -0.0817 -0.0841
  199SOL    HW1  794   0.379   1.251   1.760 -0.4395 -0.1190  1.4122
  199SOL    HW2  795   0.480   1.330   1.683 -1.4762  1.4602 -2.9354
  199SOL     MW  796   0.462   1.272   1.745  0.3148  0.1168 -0.2629
  200SOL     OW  797   1.934   3.034   1.294 -0.1691  0.1115 -0.0106
  200SOL    HW1  798   1.939   3.035   1.196  0.6759 -0.7283 -0.8814
  200SOL    HW2  799   1.850   3.071   1.332 -2.7024 -2.3170  1.0653
  200SOL     MW  800   1.923   3.039   1.286 -0.3919 -0.3197  0.0165
  201SOL     OW  801   1.106   0.324   0.791  0.7073  0.1294  0.6373
  201SOL    HW1  802   1.144   0.244   0.807 -0.3347  3.4241 -0.8908
  201SOL    HW2  803   1.061   0.303   0.707  1.5482 -0.4477 -1.2630
  201SOL     MW  804   1.105   0.311   0.782  0.6808  0.4879  0.1849
  202SOL     OW  805   1.588   1.576   1.021 -0.2179  0.0725  0.2643
  202SOL    HW1  806   1.595   1.486   0.989 -1.3117  0.3194  0.2819
  202SOL    HW2  807   1.622   1.584   1.113  0.7129  1.9203  0.3183
  202SOL     MW  808   1.594   1.565   1.029 -0.2394  0.3489  0.2738
  203SOL     OW  809   3.015   0.501   1.224  0.0188 -0.4399 -0.4991
  203SOL    HW1  810   3.071   0.458   1.160  0.1216  1.9681  0.3098
  203SOL    HW2  811   3.073   0.545   1.288  4.6046  1.4383  2.0489
  203SOL     MW  812   3.030   0.501   1.224  0.6374  0.1257 -0.0562
  204SOL     OW  813   1.048   1.768   0.543 -0.1854  0.3706 -0.6924
  204SOL    HW1  814   1.016   1.690   0.597 -2.4145 -1.6041 -1.6660
  204SOL    HW2  815   0.969   1.804   0.500 -0.0265 -0.5975 -2.4285
  204SOL     MW  816   1.034   1.762   0.544 -0.4585 -0.0177 -1.0499
  205SOL     OW  817   1.392   0.028   1.292 -0.1689  0.0974  0.9044
  205SOL    HW1  818   1.340   0.023   1.215 -0.7613 -1.3402  2.7340
  205SOL    HW2  819   1.411   0.120   1.288  1.2983 -0.3053 -0.9760
  205SOL     MW  820   1.387   0.040   1.282 -0.0535 -0.1454  0.8977
  206SOL     OW  821   0.525   3.096   1.359  0.4880  0.0862  0.4338
  206SOL    HW1  822   0.475   3.067   1.283  0.7419 -0.3481  1.2904
  206SOL    HW2  823   0.568   3.016   1.388 -2.3754  1.8128 -0.0931
  206SOL     MW  824   0.524   3.082   1.353  0.1437  0.2567  0.4773
  207SOL     OW  825   0.982   1.567   0.216 -0.5096 -0.6117  0.0786
  207SOL    HW1  826   1.000   1.657   0.182  3.0173 -1.7702 -0.7187
  207SOL    HW2  827   1.056   1.512   0.193 -2.1642  1.5448 -2.2026
  207SOL     MW  828   0.994   1.571   0.209 -0.2626 -0.4800 -0.3276
  208SOL     OW  829   0.640   1.571   1.260  0.2535  0.8100 -0.5378
  208SOL    HW1  830   0.711   1.585   1.320 -0.1410 -2.3586 -1.3546
  208SOL    HW2  831   0.610   1.480   1.271 -0.0659 -2.8800 -0.3803
  208SOL     MW  832   0.645   1.561   1.270  0.1593 -0.0949 -0.6248
  209SOL     OW  833   1.475   0.499   2.813 -0.1790 -0.5142 -0.0625
  209SOL    HW1  834   1.498   0.540   2.729  1.4085 -1.0093 -0.4272
  209SOL    HW2  835   1.564   0.474   2.850  1.2910 -1.0406  1.3789
  209SOL     MW  836   1.490   0.501   2.807  0.2244 -0.6490  0.0795
  210SOL     OW  837   1.615   1.312   0.916 -0.7250  0.1415 -0.0225
  210SOL    HW1  838   1.682   1.331   0.854 -1.0306 -2.8959  0.8642
  210SOL    HW2  839   1.545   1.284   0.862  0.6809  0.0648 -0.4311
  210SOL     MW  840   1.614   1.311   0.900 -0.5798 -0.2694  0.0406
  211SOL     OW  841   1.724   0.475   0.936  0.0055 -0.1518  0.5641
  211SOL    HW1  842   1.713   0.464   0.836  1.0212 -1.5586  1.3895
  211SOL    HW2  843   1.825   0.475   0.940 -0.0548  0.3838 -1.7449
  211SOL     MW  844   1.736   0.473   0.923  0.1315 -0.2667  0.3684
  212SOL     OW  845   0.263   1.117   0.038  0.4167  0.0148  0.1861
  212SOL    HW1  846   0.216   1.053   0.097 -0.6898  1.3887  0.1006
  212SOL    HW2  847   0.358   1.085   0.034 -1.5990  1.2217 -1.8327
  212SOL     MW  848   0.270   1.104   0.045  0.0048  0.3553 -0.0915
  213SOL     OW  849   0.531   1.686   3.081 -0.0177  0.0305  0.1637
  213SOL    HW1  850   0.578   1.754   3.138 -0.4190  1.2586  2.1309
  213SOL    HW2  851   0.551   1.714   2.991  0.8249  1.1554 -0.5063
  213SOL     MW  852   0.540   1.699   3.076  0.0406  0.3409  0.3348
  214SOL     OW  853   0.620   0.248   2.252  0.2612 -0.4847  0.3164
  214SOL    HW1  854   0.545   0.282   2.207 -0.4050  0.4404  0.4071
  214SOL    HW2  855   0.690   0.269   2.196 -0.4700 -1.0400 -1.5025
  214SOL     MW  856   0.620   0.255   2.239  0.0769 -0.4359  0.0884
  215SOL     OW  857   0.497   0.700   2.638 -0.1473  0.7935  0.2901
  215SOL    HW1  858   0.525   0.650   2.561  0.4811  0.4439  1.3296
  215SOL    HW2  859   0.401   0.673   2.647  1.8824  0.1185  0.6083
  215SOL     MW  860   0.488   0.690   2.629  0.2034  0.6583  0.4693
  216SOL     OW  861   3.091   3.095   2.774  0.5870 -0.1897 -0.1827
  216SOL    HW1  862   3.007   3.067   2.823  1.1653  1.5880 -1.7885
  216SOL    HW2  863   3.058   3.171   2.727  0.1232  0.6948 -0.1264
  216SOL     MW  864   3.076   3.102   2.775  0.6021  0.1615 -0.3871
  217SOL     OW  865   0.973   1.176   0.030  0.1046  0.3715 -0.5574
  217SOL    HW1  866   1.016   1.089  -0.008  0.2381 -1.6353  1.8037
  217SOL    HW2  867   1.037   1.252   0.005 -1.2641  1.0326 -2.4554
  217SOL     MW  868   0.987   1.174   0.021 -0.0583  0.1939 -0.4963
  218SOL     OW  869   0.912   1.348   2.482 -0.0969  1.2411  0.0225
  218SOL    HW1  870   0.911   1.261   2.531  0.2952  0.9440  1.0270
  218SOL    HW2  871   0.997   1.393   2.506 -2.5092 -3.1079  2.3465
  218SOL     MW  872   0.923   1.342   2.492 -0.3635  0.6281  0.4617
  219SOL     OW  873   1.009   0.414   2.547 -0.6974 -0.0251 -0.4561
  219SOL    HW1  874   1.054   0.500   2.544  1.6007 -0.9946  0.1174
  219SOL    HW2  875   0.945   0.410   2.622  0.7170  0.5788  1.7254
  219SOL     MW  876   1.006   0.425   2.557 -0.2076 -0.0733 -0.0926
  220SOL     OW  877   1.748   0.543   2.182  0.7179 -0.1899 -0.3348
  220SOL    HW1  878   1.667   0.583   2.172  0.8067 -1.1798 -1.9091
  220SOL    HW2  879   1.759   0.473   2.121  0.3129  1.0516  1.5388
  220SOL     MW  880   1.739   0.539   2.173  0.6762 -0.1567 -0.2953
  221SOL     OW  881   0.403   1.432   2.918 -0.1228  0.1572  0.2106
  221SOL    HW1  882   0.370   1.345   2.885  5.1497  1.3147 -3.0293
  221SOL    HW2  883   0.424   1.474   2.830  0.5177  0.0610 -2.1321
  221SOL     MW  884   0.402   1.426   2.902  0.6574  0.2973 -0.5260
  222SOL     OW  885   0.380   0.936   2.671 -0.2655  0.0806  0.2545
  222SOL    HW1  886   0.322   0.935   2.592 -2.3153 -0.2477 -2.8341
  222SOL    HW2  887   0.441   0.862   2.654  2.1255 -1.3868  1.5520
  222SOL     MW  888   0.380   0.926   2.658 -0.2205 -0.1563  0.0182
  223SOL     OW  889   3.063   2.017   2.678 -0.2074 -0.3322  0.0310
  223SOL    HW1  890   3.128   1.941   2.685  1.8547 -0.4071 -1.5639
  223SOL    HW2  891   3.102   2.061   2.608  2.1383  1.1229  0.9659
  223SOL     MW  892   3.076   2.013   2.669  0.3742 -0.1501 -0.0561
  224SOL     OW  893   1.548   0.823   2.614 -0.2758  0.6362 -0.2218
  224SOL    HW1  894   1.474   0.829   2.674  1.2656 -1.8919 -1.4113
  224SOL    HW2  895   1.542   0.906   2.565 -0.5654 -1.5462  0.5894
  224SOL     MW  896   1.538   0.835   2.616 -0.1106  0.0147 -0.2717
  225SOL     OW  897   2.960   1.456   2.255 -1.0374  0.3323 -0.1557
  225SOL    HW1  898   2.997   1.505   2.182  0.7633  0.9488  0.4064
  225SOL    HW2  899   2.909   1.525   2.308 -1.8108  2.8175  0.1328
  225SOL     MW  900   2.958   1.471   2.253 -0.9019  0.7415 -0.0435
  226SOL     OW  901   0.431   1.512   2.656 -0.6720  0.2970 -0.2868
  226SOL    HW1  902   0.503   1.478   2.611 -0.3491  0.2954 -1.0036
  226SOL    HW2  903   0.432   1.605   2.638  0.0650 -1.0223 -0.8122
  226SOL     MW  904   0.441   1.520   2.648 -0.5322  0.1227 -0.4507
  227SOL     OW  905   0.405   1.180   2.839  0.1412 -0.7828  0.0465
  227SOL    HW1  906   0.493   1.217   2.815  0.2560 -0.9142  0.4678
  227SOL    HW2  907   0.400   1.107   2.779 -2.3691  0.5944  2.3645
  227SOL     MW  908   0.416   1.175   2.828 -0.1749 -0.6185  0.4079
  228SOL     OW  909   0.678   0.970   2.010 -0.2882  0.2231  0.4033
  228SOL    HW1  910   0.767   0.964   1.977  1.4612  0.4324 -1.8123
  228SOL    HW2  911   0.663   0.927   2.100  1.0508  1.6641 -0.2187
  228SOL     MW  912   0.688   0.964   2.018  0.1193  0.4408  0.0289
  229SOL     OW  913   0.248   0.482   3.057 -0.2349 -0.5747 -0.2253
  229SOL    HW1  914   0.160   0.466   3.028 -3.1512 -0.1265 -0.0551
  229SOL    HW2  915   0.250   0.449   3.148  2.4679 -1.3657  0.2183
  229SOL     MW  916   0.237   0.475   3.065 -0.2631 -0.6200 -0.1443
  230SOL     OW  917   1.765   1.355   2.112  0.1701 -0.2612  0.0350
  230SOL    HW1  918   1.732   1.358   2.203 -0.4633 -2.7451  0.7799
  230SOL    HW2  919   1.783   1.263   2.087  0.1520  2.4242 -1.0095
  230SOL     MW  920   1.763   1.343   2.121  0.0842 -0.2346 -0.0045
  231SOL     OW  921   2.814   1.228   2.209 -0.0169 -0.4357 -0.4076
  231SOL    HW1  922   2.892   1.290   2.234  0.8599  2.3617 -3.9268
  231SOL    HW2  923   2.771   1.267   2.134  1.2844  3.2528  0.1174
  231SOL     MW  924   2.819   1.242   2.203  0.2705  0.4201 -0.8027
  232SOL     OW  925   2.298   0.979   2.107 -0.3039 -0.5529  0.1231
  232SOL    HW1  926   2.227   0.991   2.037  0.0732  0.1937 -2.5728
  232SOL    HW2  927   2.249   0.969   2.183  0.2218 -0.8725 -2.0196
  232SOL     MW  928   2.282   0.979   2.108 -0.1848 -0.4966 -0.5153
  233SOL     OW  929   2.057   0.554   1.933 -0.3179 -0.1761  0.3607
  233SOL    HW1  930   2.109   0.589   1.860 -0.0542 -0.5637 -0.1327
  233SOL    HW2  931   2.124   0.521   2.001  1.7018  1.4431 -0.0634
  233SOL     MW  932   2.073   0.554   1.932 -0.0166 -0.0136  0.2396
  234SOL     OW  933   0.212   0.955   2.451  0.4143 -0.1809 -0.8122
  234SOL    HW1  934   0.111   0.969   2.453 -1.1617  1.3094 -2.8546
  234SOL    HW2  935   0.259   1.038   2.431 -0.1034  0.0420  1.8305
  234SOL     MW  936   0.205   0.968   2.449  0.1380  0.0452 -0.7330
  235SOL     OW  937   1.001   3.022   2.802 -0.5042  0.2138 -0.5582
  235SOL    HW1  938   1.058   2.969   2.859  0.3617  1.9462  0.9233
  235SOL    HW2  939   0.963   3.095   2.849 -0.7472  1.2343 -1.9002
  235SOL     MW  940   1.003   3.025   2.815 -0.4220  0.5771 -0.5398
  236SOL     OW  941   2.934   0.501   0.087  0.1523 -0.5633 -0.2718
  236SOL    HW1  942   2.875   0.522   0.011  0.8084  1.0735  0.5782
  236SOL    HW2  943   2.984   0.588   0.116  0.9329  1.5790  0.5046
  236SOL     MW  944   2.932   0.515   0.081  0.3418 -0.0647 -0.0572
  237SOL     OW  945   1.744   0.891   2.178 -0.3442 -0.0265 -0.3768
  237SOL    HW1  946   1.787   0.972   2.156  1.9256  0.1986  1.3284
  237SOL    HW2  947   1.785   0.861   2.266  0.9374 -0.9499  0.2849
  237SOL     MW  948   1.755   0.898   2.186  0.1244 -0.1187 -0.0645
  238SOL     OW  949   1.107   1.766   2.977 -0.1187 -0.2331 -0.1107
  238SOL    HW1  950   1.042   1.696   2.976 -1.9197  2.2777  0.2520
  238SOL    HW2  951   1.187   1.722   2.959  0.7919 -1.9103  1.2463
  238SOL     MW  952   1.109   1.751   2.974 -0.2362 -0.1231  0.1162
  239SOL     OW  953   1.242   1.397   2.323  0.0228 -0.3496 -0.3650
  239SOL    HW1  954   1.239   1.374   2.418 -0.5579  0.7245 -0.1426
  239SOL    HW2  955   1.217   1.311   2.285 -5.1416  1.4055  2.2031
  239SOL     MW  956   1.238   1.383   2.330 -0.7352  0.0237  0.0032
  240SOL     OW  957   0.644   0.832   2.235  0.4103  0.2344 -0.6824
  240SOL    HW1  958   0.629   0.894   2.307 -2.2826  0.5038 -0.6903
  240SOL    HW2  959   0.735   0.812   2.254  0.8928  0.3953  2.2319
  240SOL     MW  960   0.654   0.837   2.247  0.1187  0.2912 -0.2989
  241SOL     OW  961   0.665   0.380   2.986 -0.8334  0.3690 -0.8284
  241SOL    HW1  962   0.647   0.441   3.058  0.6128  1.6766 -1.4387
  241SOL    HW2  963   0.587   0.362   2.937  1.6830 -2.6007 -0.4245
  241SOL     MW  964   0.653   0.386   2.989 -0.3106  0.1497 -0.8556
  242SOL     OW  965   1.426   1.681   2.369 -0.3304 -0.3321 -0.1622
  242SOL    HW1  966   1.414   1.771   2.359  1.2323 -1.5857  2.2810
  242SOL    HW2  967   1.371   1.638   2.305  0.6761 -1.1992  0.5985
  242SOL     MW  968   1.417   1.687   2.359  0.0086 -0.6119  0.2605
  243SOL     OW  969   1.040   0.223   2.355 -0.6279  0.2276  0.2851
  243SOL    HW1  970   1.135   0.212   2.362  0.3232 -1.8247 -0.0893
  243SOL    HW2  971   1.021   0.301   2.405  0.2983  1.5970  0.2820
  243SOL     MW  972   1.050   0.232   2.363 -0.3802  0.1375  0.2353
  244SOL     OW  973   0.225   0.741   2.271  0.3108 -0.6723 -0.0758
  244SOL    HW1  974   0.203   0.816   2.330 -0.8392  0.2915 -0.8599
  244SOL    HW2  975   0.310   0.703   2.284 -2.6882  0.8727 -2.0116
  244SOL     MW  976   0.233   0.746   2.280 -0.2366 -0.3413 -0.4346
  245SOL     OW  977   1.338   0.134   2.289 -0.6875  0.0139 -0.3155
  245SOL    HW1  978   1.313   0.045   2.318 -0.7003 -0.7537  0.4493
  245SOL    HW2  979   1.436   0.138   2.289 -0.2559 -0.4920 -2.0139
  245SOL     MW  980   1.348   0.123   2.293 -0.6322 -0.1542 -0.4387
  246SOL     OW  981   1.188   1.133   2.141 -0.1517  0.0993  0.3065
  246SOL    HW1  982   1.129   1.103   2.216  1.0530  1.1692  0.6684
  246SOL    HW2  983   1.285   1.142   2.173  2.1088  0.9882  1.4125
  246SOL     MW  984   1.193   1.130   2.155  0.3055  0.3578  0.5002
  247SOL     OW  985   0.660   0.523   0.139 -0.1009  0.0979  0.3669
  247SOL    HW1  986   0.595   0.590   0.129  0.8904 -1.4787 -0.4675
  247SOL    HW2  987   0.746   0.558   0.116 -0.3952 -0.0574  2.9587
  247SOL     MW  988   0.663   0.536   0.135 -0.0090 -0.1306  0.5987
  248SOL     OW  989   0.390   1.215   2.400  0.7619 -0.1453  0.3538
  248SOL    HW1  990   0.364   1.275   2.330 -1.2050  2.0909 -0.1246
  248SOL    HW2  991   0.468   1.254   2.442 -1.6946  0.8966 -0.7748
  248SOL     MW  992   0.397   1.228   2.396  0.1783  0.2872  0.1418
  249SOL     OW  993   0.150   1.797   2.720  0.3133  0.1473 -0.1125
  249SOL    HW1  994   0.140   1.714   2.676 -0.5025 -0.5935  0.7776
  249SOL    HW2  995   0.198   1.776   2.797  0.2022  1.3515 -0.5875
  249SOL     MW  996   0.155   1.784   2.724  0.1910  0.2085 -0.0578
  250SOL     OW  997   2.174   0.934   2.341  0.3725 -0.2183  0.7533
  250SOL    HW1  998   2.199   0.842   2.355 -1.8478  1.5214 -1.8290
  250SOL    HW2  999   2.215   0.991   2.410  1.5806 -1.8564  0.8450
  250SOL     MW 1000   2.182   0.929   2.352  0.2389 -0.2049  0.4247
  251SOL     OW 1001   0.152   0.841   2.031  0.8329  0.1081 -0.4421
  251SOL    HW1 1002   0.166   0.789   2.107 -3.5286  0.9355 -1.1168
  251SOL    HW2 1003   0.114   0.771   1.969  0.2869 -1.8264 -0.9148
  251SOL     MW 1004   0.149   0.825   2.033  0.1854 -0.0380 -0.5934
  252SOL     OW 1005   1.691   1.031   2.819  0.0498 -0.1438  0.7045
  252SOL    HW1 1006   1.683   1.061   2.910  2.3741 -0.8709  1.3483
  252SOL    HW2 1007   1.732   1.098   2.759 -3.0626  2.0616 -0.1880
  252SOL     MW 1008   1.695   1.044   2.823 -0.0542  0.0512  0.6717
  253SOL     OW 1009   1.150   1.733   2.542 -0.2139 -0.1579 -0.3156
  253SOL    HW1 1010   1.152   1.771   2.456  0.0539  0.7092  1.1550
  253SOL    HW2 1011   1.056   1.761   2.566  0.3529 -0.0933  0.2457
  253SOL     MW 1012   1.138   1.742   2.534 -0.1038 -0.0350 -0.0475
  254SOL     OW 1013   0.977   1.050   2.317  0.0691 -0.0287  0.2559
  254SOL    HW1 1014   0.951   0.956   2.319  0.4343  0.8910  0.2824
  254SOL    HW2 1015   0.911   1.101   2.277  2.8299  0.6480  1.7364
  254SOL     MW 1016   0.965   1.044   2.312  0.4816  0.1820  0.4547
  255SOL     OW 1017   0.757   2.383   2.269  0.4521  0.1571 -0.7577
  255SOL    HW1 1018   0.670   2.340   2.272 -0.8998 -0.3837  0.9911
  255SOL    HW2 1019   0.776   2.404   2.360 -0.5555 -1.1494 -1.7885
  255SOL     MW 1020   0.748   2.380   2.281  0.1407 -0.0867 -0.6630
  256SOL     OW 1021   1.193   2.870   2.925  0.0461  0.3517 -0.1156
  256SOL    HW1 1022   1.226   2.774   2.921 -1.0449 -2.2094  0.9256
  256SOL    HW2 1023   1.258   2.929   2.883 -0.2066  2.4092  0.2527
  256SOL     MW 1024   1.206   2.865   2.919 -0.1312  0.2852  0.0704
  257SOL     OW 1025   0.093   1.852   0.025  0.3959 -0.4164  0.8100
  257SOL    HW1 1026   0.119   1.817   0.110 -0.1241 -0.7037 -2.5183
  257SOL    HW2 1027   0.132   1.796  -0.045 -3.5904  0.0308 -1.6087
  257SOL     MW 1028   0.102   1.840   0.027 -0.1987 -0.3953  0.0518
  258SOL     OW 1029   0.628   1.042   2.408  0.6803  0.4548  0.4460
  258SOL    HW1 1030   0.665   1.116   2.356 -2.3021  1.2633  0.5678
  258SOL    HW2 1031   0.539   1.051   2.391  4.3284 -1.5585 -0.1881
  258SOL     MW 1032   0.621   1.053   2.399  0.7681  0.2959  0.3784
  259SOL     OW 1033   0.601   0.407   2.488  0.3331  0.9328 -0.0517
  259SOL    HW1 1034   0.551   0.477   2.433  0.6754 -0.3538 -0.6881
  259SOL    HW2 1035   0.608   0.336   2.429  0.6277 -0.4891 -0.1025
  259SOL     MW 1036   0.595   0.407   2.473  0.4171  0.5754 -0.1424
  260SOL     OW 1037   0.607   0.155   1.584  0.2563 -0.1222 -0.4079
  260SOL    HW1 1038   0.590   0.119   1.496  1.3173 -2.9414  1.1049
  260SOL    HW2 1039   0.702   0.172   1.564  3.2389 -1.6910 -0.6629
  260SOL     MW 1040   0.617   0.153   1.570  0.7898 -0.7011 -0.2420
  261SOL     OW 1041   1.095   0.707   2.098 -0.0285  0.2072  0.0566
  261SOL    HW1 1042   1.136   0.718   2.183  0.6609 -0.2371 -1.1379
  261SOL    HW2 1043   1.160   0.656   2.051 -1.3969  2.6581 -0.8561
  261SOL     MW 1044   1.109   0.702   2.103 -0.1181  0.4720 -0.2214
  262SOL     OW 1045   1.117   0.364   0.093 -0.1860 -0.1093 -0.5281
  262SOL    HW1 1046   1.207   0.347   0.125  0.0510 -0.5563 -0.9078
  262SOL    HW2 1047   1.140   0.363  -0.002 -0.3706 -1.2961 -2.2263
  262SOL     MW 1048   1.132   0.362   0.085 -0.1791 -0.3249 -0.8023
  263SOL     OW 1049   0.429   3.007   2.522  0.0314  0.1672  0.0948
  263SOL    HW1 1050   0.363   3.077   2.510  0.3556  4.9417  0.8686
  263SOL    HW2 1051   0.477   3.002   2.437  3.5716  0.4818 -1.5351
  263SOL     MW 1052   0.427   3.015   2.509  0.5413  0.8386 -0.0182
  264SOL     OW 1053   1.530   1.359   1.966  0.5916  0.4516 -0.4264
  264SOL    HW1 1054   1.454   1.349   2.024 -0.9895 -2.1540 -1.1255
  264SOL    HW2 1055   1.611   1.354   2.024  0.9673  1.3537 -2.8306
  264SOL     MW 1056   1.531   1.357   1.981  0.4325  0.2269 -0.8358
  265SOL     OW 1057   0.699   2.754   2.221 -0.7440  0.2695  0.4709
  265SOL    HW1 1058   0.731   2.678   2.171  0.6890 -1.9431 -2.1824
  265SOL    HW2 1059   0.711   2.731   2.315  1.6191  0.1270 -0.8806
  265SOL     MW 1060   0.705   2.741   2.227 -0.2431 -0.0412 -0.0575
  266SOL     OW 1061   0.903   0.768   2.281 -0.2966 -0.3524  0.2113
  266SOL    HW1 1062   0.952   0.706   2.220 -0.5458 -2.3885 -4.3992
  266SOL    HW2 1063   0.857   0.710   2.346 -2.7746 -1.4645  0.6757
  266SOL     MW 1064   0.903   0.752   2.282 -0.6564 -0.7678 -0.3357
  267SOL     OW 1065   1.387   1.832   2.683 -0.7878  0.5425 -0.0522
  267SOL    HW1 1066   1.441   1.762   2.647  2.1710 -3.7329  1.6496
  267SOL    HW2 1067   1.305   1.815   2.642  0.8521  1.4985  0.6273
  267SOL     MW 1068   1.383   1.821   2.672 -0.1810  0.1045  0.2620
  268SOL     OW 1069   0.204   0.746   1.670  0.0857  0.5195  0.5363
  268SOL    HW1 1070   0.137   0.811   1.637  1.7171 -2.7913 -0.4461
  268SOL    HW2 1071   0.186   0.657   1.625 -4.4174 -1.9759  1.5060
  268SOL     MW 1072   0.193   0.743   1.660 -0.2932 -0.2466  0.5347
  269SOL     OW 1073   1.416   1.954   2.441  0.6938  0.0135  0.1147
  269SOL    HW1 1074   1.429   1.923   2.536 -0.3990 -0.4028 -2.9171
  269SOL    HW2 1075   1.329   1.990   2.451 -0.3385  0.4445  1.1923
  269SOL     MW 1076   1.406   1.954   2.454  0.4134  0.0155 -0.1431
  270SOL     OW 1077   1.178   0.458   1.613  0.4820 -0.2366 -0.0750
  270SOL    HW1 1078   1.160   0.371   1.652 -0.9756  0.2061  0.7827
  270SOL    HW2 1079   1.267   0.458   1.583 -3.2328 -0.1079  0.6897
  270SOL     MW 1080   1.188   0.446   1.614 -0.2004 -0.1612  0.1391
  271SOL     OW 1081   0.861   3.086   2.422 -0.2719 -0.2470 -0.7068
  271SOL    HW1 1082   0.911   3.021   2.473  3.6166  0.9611  0.3989
  271SOL    HW2 1083   0.913   3.164   2.418 -1.4702 -0.1126  3.8933
  271SOL     MW 1084   0.874   3.088   2.428  0.0830 -0.0699  0.0460
  272SOL     OW 1085   1.375   3.006   2.788  0.4225 -0.0496  0.6923
  272SOL    HW1 1086   1.313   3.030   2.723  0.8255  1.0955  2.2001
  272SOL    HW2 1087   1.361   3.078   2.861 -0.3083 -2.1640  2.3239
  272SOL     MW 1088   1.365   3.019   2.789  0.3793 -0.1775  1.1065
  273SOL     OW 1089   1.436   0.924   2.843  0.2610 -0.0758  0.8387
  273SOL    HW1 1090   1.530   0.938   2.816 -0.8684  0.2542 -0.9202
  273SOL    HW2 1091   1.403   1.007   2.880 -2.2114 -0.9844  0.7011
  273SOL     MW 1092   1.444   0.936   2.844 -0.2142 -0.1521  0.5885
  274SOL     OW 1093   1.342   0.717   0.104  0.3317  0.4466  0.3702
  274SOL    HW1 1094   1.394   0.649   0.149  2.4240  0.9455  1.5688
  274SOL    HW2 1095   1.256   0.743   0.159 -1.5060 -1.2017 -0.3407
  274SOL     MW 1096   1.338   0.711   0.117  0.3653  0.2950  0.4346
  275SOL     OW 1097   1.688   0.639   1.799 -0.0652  0.2743  0.5621
  275SOL    HW1 1098   1.758   0.647   1.869  0.8971  0.8084 -1.3138
  275SOL    HW2 1099   1.675   0.542   1.792  1.8130  1.0862 -1.5469
  275SOL     MW 1100   1.696   0.627   1.807  0.3096  0.4519  0.0364
  276SOL     OW 1101   0.203   1.154   1.828  0.6370 -0.0968 -0.1145
  276SOL    HW1 1102   0.263   1.087   1.869  1.0084 -1.4528  2.7190
  276SOL    HW2 1103   0.119   1.129   1.874  0.1856 -0.1738  0.4391
  276SOL     MW 1104   0.200   1.142   1.839  0.6265 -0.2858  0.3324
  277SOL     OW 1105   1.952   1.377   2.702  0.3687 -0.0373 -0.4003
  277SOL    HW1 1106   1.994   1.461   2.705 -0.4743 -3.2672 -1.3976
  277SOL    HW2 1107   2.024   1.318   2.707 -0.3000  3.1378 -5.0991
  277SOL     MW 1108   1.967   1.380   2.703  0.1693 -0.0445 -1.1519
  278SOL     OW 1109   1.423   0.689   1.759 -0.1314 -0.2155 -0.4590
  278SOL    HW1 1110   1.370   0.645   1.829 -1.6300 -2.3689 -0.6648
  278SOL    HW2 1111   1.514   0.667   1.792  1.7345 -2.6235  1.6363
  278SOL     MW 1112   1.428   0.680   1.773 -0.0829 -0.8173 -0.2097
  279SOL     OW 1113   0.589   3.067   2.255  0.0544 -0.0729  0.1725
  279SOL    HW1 1114   0.668   3.018   2.262 -0.3914 -0.0654 -0.2570
  279SOL    HW2 1115   0.610   3.159   2.265 -1.7401 -0.1065 -2.8498
  279SOL     MW 1116   0.602   3.073   2.257 -0.2412 -0.0763 -0.2829
  280SOL     OW 1117   1.433   1.169   2.216  0.2768  0.4273  0.1284
  280SOL    HW1 1118   1.471   1.099   2.158  2.3148  0.7075 -2.4252
  280SOL    HW2 1119   1.456   1.125   2.300  1.3720 -0.5622  1.9081
  280SOL     MW 1120   1.441   1.154   2.220  0.6902  0.3337  0.0263
  281SOL     OW 1121   1.298   1.410   2.842 -0.2306  0.2312  0.0371
  281SOL    HW1 1122   1.363   1.480   2.841 -1.7538  1.8624 -1.0609
  281SOL    HW2 1123   1.341   1.323   2.846 -0.6630  2.1677 -1.0179
  281SOL     MW 1124   1.312   1.408   2.842 -0.4886  0.7020 -0.2470
  282SOL     OW 1125   1.093   1.278   1.705 -0.4105  0.4332 -0.8442
  282SOL    HW1 1126   1.048   1.340   1.646 -1.1361 -2.5459 -4.3683
  282SOL    HW2 1127   1.034   1.264   1.782  1.3832 -0.9246  1.3030
  282SOL     MW 1128   1.079   1.284   1.708 -0.2696 -0.1390 -1.0258
  283SOL     OW 1129   0.707   1.230   3.085  0.4648  0.2153 -0.1923
  283SOL    HW1 1130   0.803   1.216   3.089  0.0242  0.8617 -0.8363
  283SOL    HW2 1131   0.677   1.318   3.117 -0.0929  0.9011 -1.8317
  283SOL     MW 1132   0.716   1.240   3.090  0.3331  0.3911 -0.4936
  284SOL     OW 1133   0.446   0.610   2.328 -0.3499 -0.3135  0.0771
  284SOL    HW1 1134   0.519   0.667   2.291 -0.5790  1.8006 -2.5021
  284SOL    HW2 1135   0.441   0.540   2.262 -2.1804  0.9068 -0.3464
  284SOL     MW 1136   0.455   0.608   2.314 -0.6216  0.1265 -0.3191
  285SOL     OW 1137   0.931   0.910   2.777 -0.3647 -0.1573  0.2453
  285SOL    HW1 1138   0.872   0.959   2.712  1.1501  1.9247 -1.7278
  285SOL    HW2 1139   0.872   0.847   2.807  2.1322 -0.0254 -2.2054
  285SOL     MW 1140   0.916   0.908   2.772  0.1646  0.1348 -0.3384
  286SOL     OW 1141   1.160   1.463   2.584 -0.0149 -0.1456 -0.2670
  286SOL    HW1 1142   1.200   1.432   2.665 -0.7259 -1.6642  1.4452
  286SOL    HW2 1143   1.156   1.556   2.569  0.0294  0.1736 -1.3880
  286SOL     MW 1144   1.165   1.471   2.592 -0.1029 -0.3038 -0.1890
  287SOL     OW 1145   1.074   0.954   0.413  0.2424  0.1198  0.2486
  287SOL    HW1 1146   1.150   0.975   0.464 -1.1482  2.9730  0.7956
  287SOL    HW2 1147   1.032   1.031   0.377 -1.7181 -0.9170 -1.7551
  287SOL     MW 1148   1.079   0.967   0.415 -0.1998  0.3594  0.0564
  288SOL     OW 1149   1.502   0.666   2.158  0.0107  0.0356  0.2279
  288SOL    HW1 1150   1.492   0.657   2.254 -0.4319 -0.1245 -0.1800
  288SOL    HW2 1151   1.498   0.755   2.134  1.8468 -0.6073  0.8662
  288SOL     MW 1152   1.500   0.677   2.167  0.1946 -0.0704  0.2583
  289SOL     OW 1153   0.854   1.119   2.600  0.9709  0.1640  0.5248
  289SOL    HW1 1154   0.916   1.073   2.542 -2.8033 -1.5317 -0.6632
  289SOL    HW2 1155   0.778   1.093   2.551  2.5008 -2.0355 -1.5136
  289SOL     MW 1156   0.852   1.110   2.586  0.6748 -0.3499  0.0991
  290SOL     OW 1157   0.867   0.694   1.538  0.0628  0.1128 -0.6242
  290SOL    HW1 1158   0.892   0.624   1.477 -1.2672 -1.6709 -1.0669
  290SOL    HW2 1159   0.913   0.683   1.622  1.0027  0.4647  1.7816
  290SOL     MW 1160   0.876   0.683   1.541  0.0113 -0.0761 -0.3652
  291SOL     OW 1161   0.213   0.369   0.202 -0.2911 -0.4830 -0.0113
  291SOL    HW1 1162   0.305   0.354   0.217 -1.8224 -0.4641  0.5869
  291SOL    HW2 1163   0.188   0.291   0.149  0.8085  2.0375 -2.4762
  291SOL     MW 1164   0.222   0.357   0.197 -0.3480 -0.1479 -0.2576
  292SOL     OW 1165   0.932   0.571   0.073  0.0749  0.0714 -0.0863
  292SOL    HW1 1166   0.966   0.653   0.111  1.7719 -0.0034  0.2809
  292SOL    HW2 1167   0.985   0.498   0.110 -1.8441 -0.4965  0.1099
  292SOL     MW 1168   0.944   0.572   0.083  0.0456 -0.0134 -0.0120
  293SOL     OW 1169   0.233   0.092   2.481  0.1805 -0.3814 -0.1541
  293SOL    HW1 1170   0.142   0.071   2.464  0.4119  0.8872 -1.0960
  293SOL    HW2 1171   0.227   0.151   2.559 -0.5123  0.1028  1.1283
  293SOL     MW 1172   0.221   0.097   2.489  0.1196 -0.1501 -0.1092
  294SOL     OW 1173   1.431   0.631   2.427  0.5195 -0.1817  0.0834
  294SOL    HW1 1174   1.472   0.693   2.492  0.3501  3.4359 -1.2206
  294SOL    HW2 1175   1.443   0.536   2.445 -3.3332 -1.8339  0.4679
  294SOL     MW 1176   1.438   0.627   2.438 -0.0112  0.0776 -0.0379
  295SOL     OW 1177   0.790   0.644   2.503  0.5803  0.8730 -0.0822
  295SOL    HW1 1178   0.753   0.553   2.489  0.0593  0.8282  2.0425
  295SOL    HW2 1179   0.776   0.668   2.595  2.2392 -2.9823 -2.8258
  295SOL     MW 1180   0.783   0.635   2.513  0.7305  0.3584 -0.1639
  296SOL     OW 1181   1.277   0.304   2.057  0.6009  0.2058 -0.1779
  296SOL    HW1 1182   1.368   0.279   2.053 -1.3597 -1.3215  0.8349
  296SOL    HW2 1183   1.266   0.260   2.138 -3.9995 -0.4562 -2.0374
  296SOL     MW 1184   1.287   0.295   2.067 -0.2647 -0.0830 -0.2896
  297SOL     OW 1185   1.431   0.407   1.499 -0.5475  0.3741  0.0003
  297SOL    HW1 1186   1.495   0.478   1.493 -0.6195 -0.9934  0.1705
  297SOL    HW2 1187   1.485   0.340   1.541 -2.9815  1.6517  0.9444
  297SOL     MW 1188   1.447   0.408   1.503 -0.8782  0.3623  0.1473
  298SOL     OW 1189   1.487   0.942   2.061  0.3997 -0.6572  0.1211
  298SOL    HW1 1190   1.473   0.985   1.978  1.5592 -2.0840 -0.2039
  298SOL    HW2 1191   1.580   0.931   2.065 -1.0724 -0.9437  0.3204
  298SOL     MW 1192   1.498   0.946   2.051  0.3585 -0.8832  0.1045
  299SOL     OW 1193   0.517   1.014   3.037 -0.1341  0.4206  0.4317
  299SOL    HW1 1194   0.579   1.079   3.066 -4.3518  0.7369 -0.1375
  299SOL    HW2 1195   0.486   1.051   2.953  2.8285  2.3592 -0.8603
  299SOL     MW 1196   0.521   1.027   3.030 -0.2997  0.7181  0.1861
  300SOL     OW 1197   1.207   1.118   2.524  0.5862  0.2837 -0.5478
  300SOL    HW1 1198   1.172   1.068   2.453  0.5012  0.0170  3.3718
  300SOL    HW2 1199   1.185   1.067   2.603 -0.1486  1.2221 -2.2456
  300SOL     MW 1200   1.200   1.105   2.525  0.4781  0.3723 -0.2546
  301SOL     OW 1201   1.393   0.743   0.577  0.0229 -0.3894  0.8121
  301SOL    HW1 1202   1.393   0.710   0.670 -0.8987  1.6195  2.6770
  301SOL    HW2 1203   1.319   0.701   0.540 -1.0100 -1.0687 -0.3495
  301SOL     MW 1204   1.383   0.733   0.584 -0.2350 -0.2140  0.9049
  302SOL     OW 1205   0.141   1.456   1.936  0.3006 -0.6890 -0.1499
  302SOL    HW1 1206   0.122   1.378   1.987  2.1162 -0.7177 -0.1441
  302SOL    HW2 1207   0.100   1.529   1.987  1.8964 -2.4014  1.5106
  302SOL     MW 1208   0.133   1.455   1.949  0.7507 -0.9187  0.0699
  303SOL     OW 1209   0.421   1.794   2.603 -0.2397 -0.6463 -0.6776
  303SOL    HW1 1210   0.451   1.843   2.526 -0.1690  0.3150 -0.9566
  303SOL    HW2 1211   0.330   1.807   2.618  0.0174 -0.5653  1.2586
  303SOL     MW 1212   0.413   1.802   2.595 -0.1965 -0.5088 -0.4590
  304SOL     OW 1213   0.486   2.048   2.440 -0.3815  0.4029 -0.2694
  304SOL    HW1 1214   0.489   2.139   2.406 -1.7548  0.8389  0.3789
  304SOL    HW2 1215   0.567   2.033   2.395 -0.1749  2.5246 -2.5122
  304SOL     MW 1216   0.497   2.058   2.429 -0.5354  0.7404 -0.4798
  305SOL     OW 1217   1.181   0.562   0.480 -0.3857 -0.0141  0.3586
  305SOL    HW1 1218   1.090   0.574   0.501  3.4096 -0.9999  2.0684
  305SOL    HW2 1219   1.209   0.472   0.488  0.1474 -1.4529  1.3900
  305SOL     MW 1220   1.173   0.552   0.484  0.1854 -0.3340  0.7203
  306SOL     OW 1221   1.231   1.413   0.293  0.4080  0.0968 -0.1027
  306SOL    HW1 1222   1.253   1.321   0.315  0.8962 -0.8118  0.8403
  306SOL    HW2 1223   1.277   1.428   0.213 -3.5761  1.3672  2.3476
  306SOL     MW 1224   1.240   1.403   0.285 -0.0533  0.1445  0.3450
  307SOL     OW 1225   1.307   0.593   1.999  0.0748 -0.7508 -0.0194
  307SOL    HW1 1226   1.308   0.497   2.004 -1.2725 -1.6953 -0.8281
  307SOL    HW2 1227   1.374   0.623   2.055  0.0172  0.7588 -2.1064
  307SOL     MW 1228   1.316   0.584   2.007 -0.1106 -0.6762 -0.4015
  308SOL     OW 1229   2.149   0.596   2.738 -0.2999  0.5050 -0.2642
  308SOL    HW1 1230   2.151   0.502   2.773 -1.0467 -1.2263  1.0621
  308SOL    HW2 1231   2.239   0.625   2.764  2.6175  1.2677 -1.1479
  308SOL     MW 1232   2.161   0.587   2.746 -0.0135  0.3772 -0.2058
  309SOL     OW 1233   0.556   0.496   0.392  1.2073 -0.1554  0.5213
  309SOL    HW1 1234   0.567   0.409   0.428 -0.2760  0.5015  1.6412
  309SOL    HW2 1235   0.581   0.485   0.299  0.8761  1.1033 -1.4554
  309SOL     MW 1236   0.561   0.483   0.385  0.9679  0.0973  0.4083
  310SOL     OW 1237   0.425   0.505   1.914  0.0919 -0.0526 -0.1715
  310SOL    HW1 1238   0.473   0.437   1.864  2.4330 -1.0207 -0.0899
  310SOL    HW2 1239   0.485   0.582   1.921 -0.7952  3.3300  0.0407
  310SOL     MW 1240   0.439   0.506   1.909  0.2837  0.2660 -0.1328
  311SOL     OW 1241   1.902   0.781   1.943  1.1947 -0.0472  0.5754
  311SOL    HW1 1242   1.865   0.813   2.024  0.5305 -0.8867 -1.5848
  311SOL    HW2 1243   1.941   0.699   1.966 -1.6039  3.2675  0.0126
  311SOL     MW 1244   1.902   0.775   1.957  0.7378  0.2794  0.2161
  312SOL     OW 1245   1.719   2.580   3.082  0.7226 -0.5874  0.3936
  312SOL    HW1 1246   1.740   2.554   3.170  1.5883 -2.5226  0.4345
  312SOL    HW2 1247   1.622   2.585   3.089 -1.5483  1.0565 -0.5374
  312SOL     MW 1248   1.709   2.577   3.094  0.5372 -0.6258  0.2761
  313SOL     OW 1249   0.097   1.211   2.924 -0.5230  0.0223  0.3368
  313SOL    HW1 1250   0.183   1.194   2.965 -0.7815  0.2401  0.9156
  313SOL    HW2 1251   0.119   1.236   2.826 -4.0069  0.2438  0.3661
  313SOL     MW 1252   0.111   1.212   2.916 -1.0168  0.0802  0.4170
  314SOL     OW 1253   2.152   3.047   2.975 -0.6515  0.6449 -0.0632
  314SOL    HW1 1254   2.084   3.097   2.924  1.9393 -0.9134  1.6639
  314SOL    HW2 1255   2.193   3.108   3.034  0.6727  0.8322 -1.9769
  314SOL     MW 1256   2.148   3.062   2.976 -0.1349  0.4640 -0.0878
  315SOL     OW 1257   1.576   1.986   3.034  0.0190 -0.4070 -0.1452
  315SOL    HW1 1258   1.486   2.013   3.060 -2.2624 -0.7102 -0.2469
  315SOL    HW2 1259   1.602   2.052   2.965 -0.5422  1.7482  0.4479
  315SOL     MW 1260   1.568   1.998   3.029 -0.3561 -0.1627 -0.0803
  316SOL     OW 1261   1.239   0.675   2.691  0.0870  0.4299 -0.1112
  316SOL    HW1 1262   1.276   0.592   2.666 -1.2934  0.6983 -0.3818
  316SOL    HW2 1263   1.254   0.692   2.787 -1.6757 -0.5183 -1.5380
  316SOL     MW 1264   1.246   0.666   2.700 -0.3277  0.3402 -0.3351
  317SOL     OW 1265   0.666   1.372   2.590  0.2979 -0.1670 -0.6478
  317SOL    HW1 1266   0.685   1.315   2.666  1.7008  1.5713 -1.6604
  317SOL    HW2 1267   0.744   1.378   2.534 -2.7436  1.7657  0.9842
  317SOL     MW 1268   0.679   1.365   2.593  0.0817  0.3173 -0.5661
  318SOL     OW 1269   1.272   0.365   2.927  0.0707 -0.5687 -0.4111
  318SOL    HW1 1270   1.183   0.412   2.911  0.8691 -0.1094  1.6298
  318SOL    HW2 1271   1.342   0.426   2.897 -0.6887 -0.9073  3.2459
  318SOL     MW 1272   1.270   0.379   2.921  0.0759 -0.5528  0.3407
  319SOL     OW 1273   0.794   0.408   2.743  0.8619  0.1232  0.0927
  319SOL    HW1 1274   0.732   0.374   2.675 -0.3732 -0.4674 -1.6428
  319SOL    HW2 1275   0.775   0.364   2.825  0.5219  1.1246  0.7608
  319SOL     MW 1276   0.783   0.398   2.745  0.6541  0.1774 -0.0481
  320SOL     OW 1277   1.010   1.320   2.022 -0.4067  0.2804 -0.0647
  320SOL    HW1 1278   1.074   1.255   2.054  1.8926  1.5158  2.0039
  320SOL    HW2 1279   1.071   1.385   1.988  2.2807 -0.7994  1.9669
  320SOL     MW 1280   1.027   1.320   2.022  0.2513  0.3009  0.4762
  321SOL     OW 1281   1.113   0.975   2.974  0.1063  0.1641  0.4384
  321SOL    HW1 1282   1.054   0.941   2.899  1.7887  2.6264  0.1453
  321SOL    HW2 1283   1.147   0.886   3.006  2.4195 -0.6956 -0.9192
  321SOL     MW 1284   1.110   0.959   2.968  0.6335  0.3755  0.2206
  322SOL     OW 1285   1.212   0.874   1.711  0.1786 -0.7460 -0.3746
  322SOL    HW1 1286   1.300   0.841   1.717  0.6941 -0.6725 -0.9285
  322SOL    HW2 1287   1.188   0.899   1.798 -0.8731 -0.5561 -1.5932
  322SOL     MW 1288   1.220   0.873   1.723  0.1079 -0.7112 -0.6085
  323SOL     OW 1289   1.194   1.500   1.895 -0.0857 -0.2933 -0.1907
  323SOL    HW1 1290   1.194   1.449   1.819 -2.9899  2.1240  2.1193
  323SOL    HW2 1291   1.132   1.574   1.877  3.4853  0.8840 -0.4570
  323SOL     MW 1292   1.186   1.503   1.883  0.0022  0.1809  0.0789
  324SOL     OW 1293   1.500   1.095   2.495 -0.0562  0.0620  0.3352
  324SOL    HW1 1294   1.404   1.113   2.528 -3.3804 -1.7468 -0.6238
  324SOL    HW2 1295   1.567   1.154   2.527  0.4216 -1.9488 -0.0378
  324SOL     MW 1296   1.496   1.105   2.503 -0.4318 -0.4420  0.1594
  325SOL     OW 1297   1.007   0.481   2.927  0.2655  0.2459 -0.0335
  325SOL    HW1 1298   0.977   0.515   3.012  3.1133 -2.6294 -1.9862
  325SOL    HW2 1299   0.941   0.512   2.867  2.5270  0.4817 -0.3332
  325SOL     MW 1300   0.994   0.490   2.930  0.9396 -0.1024 -0.3307
  326SOL     OW 1301   0.394   1.380   2.171  0.1090  0.9293  0.1713
  326SOL    HW1 1302   0.456   1.341   2.109 -2.7798 -1.1470  0.4461
  326SOL    HW2 1303   0.422   1.468   2.179  0.2156  0.4494  0.5211
  326SOL     MW 1304   0.406   1.386   2.164 -0.2581  0.5920  0.2537
  327SOL     OW 1305   1.904   0.816   2.423  0.1682 -0.3640  0.0617
  327SOL    HW1 1306   1.899   0.752   2.499 -2.8577 -0.8838  0.8788
  327SOL    HW2 1307   1.986   0.863   2.425 -1.5031 -1.1457  1.2726
  327SOL     MW 1308   1.914   0.814   2.434 -0.4516 -0.5358  0.3293
  328SOL     OW 1309   0.112   1.333   2.183 -0.0836  0.6545 -0.4039
  328SOL    HW1 1310   0.126   1.246   2.150  1.2311  1.7848 -1.2220
  328SOL    HW2 1311   0.198   1.371   2.178 -1.8777  1.6858 -0.8027
  328SOL     MW 1312   0.125   1.327   2.178 -0.1469  0.9397 -0.5645
  329SOL     OW 1313   0.140   0.174   1.378 -0.0523  0.2280  0.1061
  329SOL    HW1 1314   0.106   0.217   1.463 -1.9500 -1.5491  0.8340
  329SOL    HW2 1315   0.222   0.217   1.357 -0.3938  2.4088 -0.6602
  329SOL     MW 1316   0.146   0.185   1.387 -0.3478  0.2813  0.1010
  330SOL     OW 1317   0.403   2.952   2.101  0.1431  0.3239 -0.1222
  330SOL    HW1 1318   0.468   3.007   2.151  0.1588 -2.2229 -1.0441
  330SOL    HW2 1319   0.327   2.933   2.156 -1.5665 -0.4351  1.5126
  330SOL     MW 1320   0.402   2.957   2.115 -0.0804 -0.1123 -0.0281
  331SOL     OW 1321   0.749   1.207   2.239  1.0883 -0.4979  0.8219
  331SOL    HW1 1322   0.706   1.207   2.158  1.1086  3.4050  2.7747
  331SOL    HW2 1323   0.760   1.301   2.252 -0.8999 -1.0715 -0.3885
  331SOL     MW 1324   0.745   1.219   2.230  0.8287 -0.0586  0.9199
  332SOL     OW 1325   1.391   1.732   2.942  1.0201  0.0221  0.4987
  332SOL    HW1 1326   1.382   1.762   2.849  0.7401  0.2433 -1.7493
  332SOL    HW2 1327   1.452   1.798   2.977  1.6131 -1.2175  1.8384
  332SOL     MW 1328   1.398   1.745   2.935  1.0614 -0.1123  0.3789
  333SOL     OW 1329   1.741   1.490   3.016 -0.0854  0.1915 -0.5135
  333SOL    HW1 1330   1.834   1.475   2.990  0.8713  0.4877  0.9944
  333SOL    HW2 1331   1.732   1.423   3.085 -0.0362 -1.5245  0.2341
  333SOL     MW 1332   1.752   1.479   3.022  0.0473  0.0041 -0.2159
  334SOL     OW 1333   1.188   3.074   2.603  0.1402  0.2887  0.3824
  334SOL    HW1 1334   1.114   3.049   2.670 -1.5806  2.1762 -1.7003
  334SOL    HW2 1335   1.211   3.166   2.615  2.5426 -0.9288 -0.2709
  334SOL     MW 1336   1.182   3.083   2.613  0.2301  0.3771  0.0214
  335SOL     OW 1337   1.265   0.734   2.946  0.0970 -0.1542 -0.5260
  335SOL    HW1 1338   1.300   0.712   3.028 -0.2643 -0.2770 -1.4934
  335SOL    HW2 1339   1.324   0.796   2.904 -0.3595  2.0425 -0.7868
  335SOL     MW 1340   1.277   0.739   2.951 -0.0109  0.1194 -0.6881
  336SOL     OW 1341   0.922   1.073   1.846 -0.6218  0.3357  0.0806
  336SOL    HW1 1342   0.898   1.137   1.914  0.0755  1.0059 -1.4346
  336SOL    HW2 1343   1.000   1.028   1.873  2.1445 -1.9308 -1.0051
  336SOL     MW 1344   0.929   1.076   1.858 -0.1648  0.1251 -0.2625
  337SOL     OW 1345   0.582   1.751   2.824 -0.4421 -0.1923  0.1002
  337SOL    HW1 1346   0.544   1.760   2.738  0.0691  0.4677 -0.4661
  337SOL    HW2 1347   0.673   1.704   2.809  0.7329 -3.7600  1.0690
  337SOL     MW 1348   0.589   1.746   2.810 -0.2196 -0.5760  0.1533
  338SOL     OW 1349   1.053   0.795   2.543  0.1185  0.5631 -0.0129
  338SOL    HW1 1350   0.986   0.733   2.526  0.6770 -0.3222  2.6042
  338SOL    HW2 1351   1.109   0.751   2.611 -0.7947 -1.8977  3.7509
  338SOL     MW 1352   1.052   0.781   2.550  0.0717  0.1216  0.8290
  339SOL     OW 1353   1.462   1.101   1.836  0.7175  0.6418 -0.3184
  339SOL    HW1 1354   1.436   1.094   1.744  1.5789 -0.0586 -0.7435
  339SOL    HW2 1355   1.503   1.189   1.862  1.4885  0.3896  0.0444
  339SOL     MW 1356   1.464   1.112   1.827  0.9329  0.5161 -0.3266
  340SOL     OW 1357   1.330   1.575   0.068 -0.5349  0.3041 -0.5850
  340SOL    HW1 1358   1.352   1.630  -0.007  0.3204  0.1123  2.5319
  340SOL    HW2 1359   1.400   1.588   0.136  0.6446  1.6564  1.7502
  340SOL     MW 1360   1.343   1.584   0.067 -0.2664  0.4572  0.1344
  341SOL     OW 1361   0.156   1.289   2.686  0.2911  0.8727  0.2620
  341SOL    HW1 1362   0.227   1.323   2.637  1.5190 -0.0592  0.3322
  341SOL    HW2 1363   0.091   1.276   2.620  0.3216 -0.9354  0.0476
  341SOL     MW 1364   0.157   1.292   2.671  0.4571  0.5112  0.2430
  342SOL     OW 1365   1.418   0.282   0.089  0.0905  0.6234  0.0804
  342SOL    HW1 1366   1.459   0.362   0.136  2.5535  1.1592  3.2569
  342SOL    HW2 1367   1.438   0.286  -0.004 -0.1240 -1.3829  0.4896
  342SOL     MW 1368   1.426   0.293   0.083  0.3872  0.4294  0.5535
  343SOL     OW 1369   0.191   0.284   2.304 -0.1470 -0.0299  0.3523
  343SOL    HW1 1370   0.225   0.202   2.340  0.5790 -0.9840  1.9557
  343SOL    HW2 1371   0.142   0.248   2.225 -0.9377 -0.8935  1.6401
  343SOL     MW 1372   0.189   0.268   2.298 -0.1555 -0.2698  0.7338
  344SOL     OW 1373   1.697   2.161   0.109  0.7864  0.2963  0.7665
  344SOL    HW1 1374   1.767   2.190   0.043 -0.1625 -0.5871 -1.8246
  344SOL    HW2 1375   1.648   2.092   0.060 -0.7143 -2.0038 -1.2686
  344SOL     MW 1376   1.700   2.155   0.094  0.4632 -0.1238  0.1561
  345SOL     OW 1377   0.665   1.606   2.358 -0.1780  0.7064 -0.0555
  345SOL    HW1 1378   0.571   1.603   2.341  0.2354 -0.6079 -1.4299
  345SOL    HW2 1379   0.712   1.543   2.295 -0.7321  0.0907 -0.8279
  345SOL     MW 1380   0.659   1.597   2.347 -0.1965  0.4517 -0.3387
  346SOL     OW 1381   1.677   1.032  -0.003  0.0238  0.5942 -0.2660
  346SOL    HW1 1382   1.764   1.027   0.029 -1.9939 -0.2015  1.7741
  346SOL    HW2 1383   1.624   1.017   0.075 -0.1096 -2.0831  1.6333
  346SOL     MW 1384   1.682   1.030   0.011 -0.2600  0.1359  0.2537
  347SOL     OW 1385   1.169   0.650   2.356  0.4369 -0.5299  0.5054
  347SOL    HW1 1386   1.270   0.639   2.372  1.7803  1.4127 -1.0952
  347SOL    HW2 1387   1.143   0.718   2.422 -0.1531 -2.4537 -1.5756
  347SOL     MW 1388   1.179   0.657   2.367  0.5363 -0.5274  0.0196
  348SOL     OW 1389   1.351   2.654   1.872  0.4864 -0.4108 -0.5280
  348SOL    HW1 1390   1.394   2.569   1.907  0.2803  2.0540  0.1803
  348SOL    HW2 1391   1.393   2.728   1.923  0.9838  1.3622 -0.2891
  348SOL     MW 1392   1.362   2.653   1.883  0.5248  0.1483 -0.4030
  349SOL     OW 1393   1.356   0.186   2.684  0.1732 -0.1069  0.1017
  349SOL    HW1 1394   1.315   0.245   2.750  0.7399  1.8537 -0.4191
  349SOL    HW2 1395   1.447   0.161   2.714  1.3486 -0.7920  0.3598
  349SOL     MW 1396   1.363   0.191   2.697  0.4031  0.0614  0.0670
  350SOL     OW 1397   1.868   0.655   2.644 -0.5069  0.7044  0.0699
  350SOL    HW1 1398   1.820   0.599   2.579  0.0409 -1.4888 -0.0229
  350SOL    HW2 1399   1.947   0.609   2.677 -0.3754 -1.3418  1.1634
  350SOL     MW 1400   1.872   0.642   2.640 -0.4173  0.1450  0.2019
  351SOL     OW 1401   0.016   0.954   1.568 -0.3728  0.0983 -0.0876
  351SOL    HW1 1402  -0.058   0.988   1.617 -0.4564 -3.2366  1.0430
  351SOL    HW2 1403   0.080   1.028   1.566  0.4774  1.2563 -0.4486
  351SOL     MW 1404   0.015   0.968   1.575 -0.2717 -0.1889  0.0139
  352SOL     OW 1405   0.787   1.578   2.734 -0.5800  0.6880  0.6646
  352SOL    HW1 1406   0.861   1.539   2.781  3.7254 -0.6065  0.3733
  352SOL    HW2 1407   0.745   1.507   2.677  0.0212  1.4940  0.4755
  352SOL     MW 1408   0.791   1.563   2.732  0.0674  0.6235  0.6012
  353SOL     OW 1409   3.055   2.431   2.759 -0.2196 -0.1850 -0.0664
  353SOL    HW1 1410   3.148   2.428   2.760 -2.3766  1.1226 -1.1814
  353SOL    HW2 1411   3.032   2.521   2.731  0.9878  0.3041 -0.5590
  353SOL     MW 1412   3.064   2.442   2.755 -0.3449  0.0521 -0.2785
  354SOL     OW 1413   0.384   2.435   0.888  0.8360 -0.4474 -0.6024
  354SOL    HW1 1414   0.411   2.419   0.985 -1.4400 -1.9573 -0.5743
  354SOL    HW2 1415   0.306   2.376   0.878 -1.6749 -0.0936  2.0214
  354SOL     MW 1416   0.377   2.425   0.900  0.2044 -0.5999 -0.2525
  355SOL     OW 1417   0.078   2.251   0.360  0.0914 -0.0971 -0.3262
  355SOL    HW1 1418  -0.010   2.206   0.366 -1.6295  1.0288  0.8283
  355SOL    HW2 1419   0.086   2.284   0.452 -2.6491 -0.7531  0.8782
  355SOL     MW 1420   0.068   2.249   0.373 -0.4973 -0.0351 -0.0150
  356SOL     OW 1421   0.737   2.949   0.986  0.8434  0.3442  0.1866
  356SOL    HW1 1422   0.824   2.930   0.948  2.4693  1.8361  0.8429
  356SOL    HW2 1423   0.674   2.885   0.938  0.8467  1.3953 -0.4548
  356SOL     MW 1424   0.740   2.938   0.975  1.0584  0.6797  0.1886
  357SOL     OW 1425   1.789   2.969   0.373  0.5681  0.0009 -0.3791
  357SOL    HW1 1426   1.745   2.900   0.424 -0.6408 -1.0376 -0.2695
  357SOL    HW2 1427   1.872   2.940   0.330  0.7169 -0.6028  1.2933
  357SOL     MW 1428   1.794   2.956   0.374  0.4283 -0.2158 -0.1440
  358SOL     OW 1429   0.464   0.160   1.058 -0.2419  0.4249  0.3679
  358SOL    HW1 1430   0.546   0.171   0.999  0.4542  0.3594 -0.6914
  358SOL    HW2 1431   0.395   0.185   0.997 -0.3255 -1.3874  0.9684
  358SOL     MW 1432   0.465   0.165   1.042 -0.1611  0.1771  0.3074
  359SOL     OW 1433   0.902   2.760   1.902  0.8162  0.1015 -0.2411
  359SOL    HW1 1434   0.882   2.709   1.982  0.2022  3.6226 -1.3484
  359SOL    HW2 1435   0.943   2.696   1.844  0.3307  3.4431 -0.1979
  359SOL     MW 1436   0.905   2.745   1.905  0.6711  1.0069 -0.3815
  360SOL     OW 1437   0.552   2.759   0.910  0.3684  0.4949 -0.2934
  360SOL    HW1 1438   0.547   2.701   0.834 -0.0385  1.1513 -0.3838
  360SOL    HW2 1439   0.566   2.709   0.997  1.3995 -0.2523 -0.3010
  360SOL     MW 1440   0.553   2.745   0.911  0.4507  0.4829 -0.3063
  361SOL     OW 1441   0.188   2.757   1.380  0.2379  0.4978  0.1554
  361SOL    HW1 1442   0.154   2.833   1.418 -1.3884 -4.7906  1.9796
  361SOL    HW2 1443   0.284   2.757   1.377  0.2159  0.9841 -1.4360
  361SOL     MW 1444   0.196   2.767   1.384  0.0204 -0.1358  0.1861
  362SOL     OW 1445   1.500   2.406   0.597 -0.0608 -0.2807 -0.3856
  362SOL    HW1 1446   1.506   2.329   0.652 -0.0862  0.6549  2.4310
  362SOL    HW2 1447   1.521   2.475   0.663 -0.1276  0.7087 -0.8396
  362SOL     MW 1448   1.503   2.405   0.613 -0.0729 -0.0267 -0.0739
  363SOL     OW 1449   0.237   3.037   0.707 -0.8394 -0.5931  0.2571
  363SOL    HW1 1450   0.261   2.979   0.773  2.3306  0.8134 -1.1709
  363SOL    HW2 1451   0.144   3.059   0.713 -0.9674 -0.8338  2.1840
  363SOL     MW 1452   0.228   3.032   0.716 -0.4380 -0.4393  0.3229
  364SOL     OW 1453   0.749   0.172   0.213 -0.1745  0.4945 -0.3750
  364SOL    HW1 1454   0.716   0.085   0.201  1.0191  0.3510  1.3623
  364SOL    HW2 1455   0.667   0.232   0.204 -1.7943  0.2559 -1.1301
  364SOL     MW 1456   0.734   0.169   0.210 -0.2307  0.4441 -0.2454
  365SOL     OW 1457   1.013   1.978   1.162 -0.8160  0.1883  0.4597
  365SOL    HW1 1458   1.000   2.072   1.154  0.4353 -2.3245 -1.1401
  365SOL    HW2 1459   0.959   1.938   1.102  1.3918 -1.3957  1.2353
  365SOL     MW 1460   1.004   1.985   1.153 -0.3596 -0.3522  0.3510
  366SOL     OW 1461   2.862   2.645   1.010 -0.4170  0.2298  0.2432
  366SOL    HW1 1462   2.923   2.628   1.084  0.9466  0.6242  2.6120
  366SOL    HW2 1463   2.912   2.684   0.934 -0.5325 -0.4912 -1.4554
  366SOL     MW 1464   2.876   2.648   1.010 -0.2523  0.1867  0.3316
  367SOL     OW 1465   1.278   2.937   0.874  0.0703 -0.7369  0.1727
  367SOL    HW1 1466   1.195   2.951   0.914 -2.7236  2.8891  1.1641
  367SOL    HW2 1467   1.251   2.890   0.792 -3.6238 -0.5723 -1.6485
  367SOL     MW 1468   1.263   2.933   0.868 -0.7857 -0.2368  0.0632
  368SOL     OW 1469   1.695   0.442   0.660 -0.2662  0.1506 -0.3426
  368SOL    HW1 1470   1.768   0.375   0.663  1.0866 -0.4994 -1.6668
  368SOL    HW2 1471   1.733   0.520   0.639 -3.1333  0.8316 -0.0639
  368SOL     MW 1472   1.710   0.443   0.657 -0.4660  0.1547 -0.4806
  369SOL     OW 1473   0.146   2.471   1.745  0.3191  0.3064  0.4418
  369SOL    HW1 1474   0.231   2.446   1.786  1.5381  1.4819 -0.6081
  369SOL    HW2 1475   0.127   2.555   1.776  0.0161 -1.4306 -3.4092
  369SOL     MW 1476   0.154   2.479   1.754  0.4400  0.2323 -0.2048
  370SOL     OW 1477   0.675   0.104   0.879 -0.6663  0.3391  0.6238
  370SOL    HW1 1478   0.753   0.164   0.890  0.6456 -0.3468  2.0744
  370SOL    HW2 1479   0.695   0.019   0.928  0.6364  0.7099 -0.5712
  370SOL     MW 1480   0.688   0.101   0.887 -0.3214  0.2975  0.6575
  371SOL     OW 1481   1.343   2.974   1.502 -0.2782 -0.2368 -0.2508
  371SOL    HW1 1482   1.292   2.895   1.469 -1.0189 -2.5164  0.6805
  371SOL    HW2 1483   1.345   3.033   1.429 -0.9072  2.2339  1.7528
  371SOL     MW 1484   1.336   2.972   1.488 -0.4589 -0.2116  0.1365
  372SOL     OW 1485   0.785   2.276   0.484  0.2439 -0.1780 -0.0664
  372SOL    HW1 1486   0.753   2.201   0.530  0.3533  1.0715  4.2042
  372SOL    HW2 1487   0.808   2.260   0.394  1.3389  0.7448 -0.2432
  372SOL     MW 1488   0.784   2.264   0.478  0.4028  0.1086  0.4737
  373SOL     OW 1489   2.794   2.983   1.406  0.4057  0.0804  0.2133
  373SOL    HW1 1490   2.868   2.969   1.343 -0.9340  1.6596 -1.0448
  373SOL    HW2 1491   2.755   3.067   1.385  1.1926  1.1560  1.8285
  373SOL     MW 1492   2.799   2.992   1.395  0.3328  0.4307  0.2604
  374SOL     OW 1493   1.478   0.511   0.230  0.1593 -0.3011 -0.3251
  374SOL    HW1 1494   1.564   0.550   0.219 -1.6278 -1.7051  0.7553
  374SOL    HW2 1495   1.489   0.449   0.303 -0.3119 -0.6056  2.5833
  374SOL     MW 1496   1.491   0.508   0.238 -0.1387 -0.5265  0.2012
  375SOL     OW 1497   1.115   2.099   2.247 -0.0305 -0.1584 -0.3539
  375SOL    HW1 1498   1.159   2.134   2.326  1.2203 -2.2797  1.8388
  375SOL    HW2 1499   1.098   2.007   2.285  1.2141 -0.3307 -1.0636
  375SOL     MW 1500   1.119   2.092   2.262  0.2987 -0.4610 -0.1582
  376SOL     OW 1501   0.685   2.537   0.138 -0.1063  0.2675 -0.4963
  376SOL    HW1 1502   0.751   2.499   0.195  1.0695 -0.6382  2.7553
  376SOL    HW2 1503   0.646   2.460   0.089  0.4163 -0.1323 -0.6852
  376SOL     MW 1504   0.688   2.522   0.139  0.1178  0.0952 -0.0922
  377SOL     OW 1505   1.275   2.082   0.930 -0.9521 -0.7361  0.4011
  377SOL    HW1 1506   1.208   2.048   0.870 -2.8574 -0.5513  3.1523
  377SOL    HW2 1507   1.310   2.002   0.972 -2.0452  2.1164  0.6914
  377SOL     MW 1508   1.271   2.067   0.928 -1.3477 -0.3354  0.8024
  378SOL     OW 1509   0.970   2.826   1.495 -0.0853 -0.0798 -0.0538
  378SOL    HW1 1510   0.944   2.732   1.491 -1.3102 -0.5865 -2.0860
  378SOL    HW2 1511   0.970   2.853   1.405  2.3660 -0.7372 -1.3451
  378SOL     MW 1512   0.966   2.817   1.482  0.0765 -0.2334 -0.4923
  379SOL     OW 1513   1.037   1.847   2.319  0.3692  0.2431  0.4216
  379SOL    HW1 1514   0.941   1.853   2.319 -0.8245 -0.3883  1.0230
  379SOL    HW2 1515   1.066   1.772   2.274 -1.6240  1.5476 -1.2289
  379SOL     MW 1516   1.028   1.838   2.313 -0.0513  0.3320  0.2831
  380SOL     OW 1517   0.905   0.233   1.551 -0.4808 -0.0115  0.5691
  380SOL    HW1 1518   0.920   0.166   1.480  0.3056 -2.5989 -1.7955
  380SOL    HW2 1519   0.984   0.228   1.605  1.0792  0.1598 -1.1001
  380SOL     MW 1520   0.917   0.224   1.549 -0.1712 -0.3303  0.0369
  381SOL     OW 1521   0.846   2.036   0.824  0.2291 -0.0308 -0.6793
  381SOL    HW1 1522   0.933   2.008   0.797 -1.2456  0.1075  1.0596
  381SOL    HW2 1523   0.868   2.109   0.888  1.5011  0.3485  1.3018
  381SOL     MW 1524   0.860   2.042   0.829  0.2024  0.0375 -0.1885
  382SOL     OW 1525   0.681   0.032   0.626 -0.0098  0.1934  0.7592
  382SOL    HW1 1526   0.673   0.040   0.721 -2.5636  1.9897 -0.0713
  382SOL    HW2 1527   0.679  -0.064   0.606  0.7279  0.5925  0.2789
  382SOL     MW 1528   0.679   0.021   0.636 -0.2494  0.4831  0.5863
  383SOL     OW 1529   0.468   3.100   0.355  0.0044  0.2156 -0.4892
  383SOL    HW1 1530   0.506   3.092   0.438  1.3017  2.5219  0.4703
  383SOL    HW2 1531   0.371   3.087   0.357  4.3242  0.4243  1.2931
  383SOL     MW 1532   0.460   3.097   0.366  0.7455  0.5474 -0.1275
  384SOL     OW 1533   0.623   2.854   0.590 -0.3805  0.1257 -0.2921
  384SOL    HW1 1534   0.604   2.762   0.621 -0.1371 -0.6956 -0.6369
  384SOL    HW2 1535   0.545   2.877   0.535  0.3376  0.1098  3.1047
  384SOL     MW 1536   0.610   2.845   0.587 -0.2536  0.0153  0.1106
  385SOL     OW 1537   1.308   2.042   1.551 -0.1681  0.6344  0.4871
  385SOL    HW1 1538   1.381   2.055   1.609  0.2056 -3.0818 -0.2653
  385SOL    HW2 1539   1.278   1.953   1.576  0.8394  1.3341  0.9112
  385SOL     MW 1540   1.313   2.032   1.562  0.0142  0.2364  0.4438
  386SOL     OW 1541   1.346   0.437   0.907  0.7605  0.6863 -0.5857
  386SOL    HW1 1542   1.269   0.416   0.852 -1.9612 -1.1809  0.3212
  386SOL    HW2 1543   1.310   0.450   0.996  1.0074 -0.1842 -0.0823
  386SOL     MW 1544   1.331   0.436   0.911  0.4340  0.3251 -0.3996
  387SOL     OW 1545   0.895   2.189   1.473  0.5829 -0.0144  0.2124
  387SOL    HW1 1546   0.967   2.240   1.426  0.5905 -0.7114  2.6748
  387SOL    HW2 1547   0.909   2.096   1.460  1.1849 -2.6889  1.1400
  387SOL     MW 1548   0.907   2.183   1.465  0.6634 -0.4593  0.6597
  388SOL     OW 1549   1.576   2.863   1.206 -0.4208  0.0403 -0.5466
  388SOL    HW1 1550   1.503   2.829   1.159  1.2656  0.3121  0.7609
  388SOL    HW2 1551   1.646   2.806   1.175  0.6280 -1.6816  1.1317
  388SOL     MW 1552   1.576   2.851   1.196 -0.0599 -0.1510 -0.1526
  389SOL     OW 1553   0.427   0.133   3.098 -0.1571  0.5595  0.3321
  389SOL    HW1 1554   0.516   0.111   3.059  1.0696  0.2398 -0.1486
  389SOL    HW2 1555   0.390   0.053   3.130 -0.7163  4.6515  0.0100
  389SOL     MW 1556   0.434   0.119   3.097 -0.0691  1.0572  0.2262
  390SOL     OW 1557   1.382   0.053   0.637  0.2060  0.0818  0.3334
  390SOL    HW1 1558   1.474   0.060   0.613 -0.1187  1.3603  1.1373
  390SOL    HW2 1559   1.379   0.091   0.725 -1.5020  1.3399  0.7767
  390SOL     MW 1560   1.394   0.059   0.645 -0.0622  0.4164  0.4980
  391SOL     OW 1561   0.271   2.320   1.420  0.2839  0.0952 -0.0519
  391SOL    HW1 1562   0.239   2.241   1.470 -1.6063  0.9503  0.9376
  391SOL    HW2 1563   0.207   2.393   1.439  0.3739 -2.3937  1.0138
  391SOL     MW 1564   0.258   2.319   1.429  0.0464 -0.1204  0.2193
  392SOL     OW 1565   1.983   2.186   0.295 -0.1413  0.1906  0.2519
  392SOL    HW1 1566   1.928   2.262   0.309 -1.8925  1.5620 -2.9701
  392SOL    HW2 1567   2.042   2.184   0.376 -0.0836 -0.2745  2.1072
  392SOL     MW 1568   1.983   2.195   0.307 -0.3648  0.3102  0.0716
  393SOL     OW 1569   0.215   3.015   2.952 -0.0225  0.6051 -0.3644
  393SOL    HW1 1570   0.274   3.049   2.887 -2.7042 -0.9214  0.4191
  393SOL    HW2 1571   0.131   3.038   2.919 -0.1810 -0.5268 -0.4610
  393SOL     MW 1572   0.212   3.022   2.939 -0.3973  0.2543 -0.2738
  394SOL     OW 1573   0.835   1.651   1.437  0.6640 -0.4478 -0.2689
  394SOL    HW1 1574   0.787   1.661   1.521  1.0847  2.0781  1.4572
  394SOL    HW2 1575   0.847   1.736   1.408 -0.6736  1.5981  1.0199
  394SOL     MW 1576   0.830   1.664   1.444  0.5431  0.1554  0.1289
  395SOL     OW 1577   0.933   2.858   2.606  0.5751  0.4126 -0.4025
  395SOL    HW1 1578   0.949   2.924   2.682  1.6158  0.3859  0.9702
  395SOL    HW2 1579   1.017   2.824   2.560  0.5425  1.3842  1.1976
  395SOL     MW 1580   0.947   2.862   2.610  0.7081  0.5373 -0.0103
  396SOL     OW 1581   0.758   1.862   2.361  0.2182 -0.0919  0.2118
  396SOL    HW1 1582   0.778   1.872   2.456 -2.6413  0.7066  1.0267
  396SOL    HW2 1583   0.717   1.772   2.354 -1.0157  0.6889 -0.9085
  396SOL     MW 1584   0.755   1.852   2.373 -0.3219  0.1164  0.1715
  397SOL     OW 1585   1.032   2.352   1.299 -0.3716 -0.0446  0.4479
  397SOL    HW1 1586   1.062   2.377   1.206 -1.4905 -0.1704 -1.4513
  397SOL    HW2 1587   1.110   2.337   1.346  0.4601  1.7243  0.5333
  397SOL     MW 1588   1.046   2.353   1.293 -0.4095  0.1722  0.2086
  398SOL     OW 1589   0.569   2.600   0.675  0.2817 -0.2977  0.1926
  398SOL    HW1 1590   0.478   2.584   0.639 -3.7885  0.6027  0.6058
  398SOL    HW2 1591   0.636   2.555   0.624  0.6254  2.1849  1.0280
  398SOL     MW 1592   0.566   2.592   0.663 -0.2099  0.1486  0.3574
  399SOL     OW 1593   0.266   2.052   0.339  0.1453  0.4846 -0.0282
  399SOL    HW1 1594   0.203   2.117   0.333  1.4781 -1.7187 -0.6666
  399SOL    HW2 1595   0.336   2.070   0.280 -1.1266 -0.1141 -0.1444
  399SOL     MW 1596   0.267   2.063   0.331  0.1533  0.1149 -0.1278
  400SOL     OW 1597   0.619   1.841   0.198  0.2471 -0.0115 -0.2743
  400SOL    HW1 1598   0.585   1.932   0.201  1.6238 -0.0801  0.7935
  400SOL    HW2 1599   0.564   1.795   0.264 -0.3755  0.1389  1.0737
  400SOL     MW 1600   0.607   1.847   0.207  0.3466 -0.0007  0.0445
  401SOL     OW 1601   1.026   2.103   0.058  0.2138  0.0082 -0.1973
  401SOL    HW1 1602   1.023   2.014   0.082  1.8030  0.6034 -0.1009
  401SOL    HW2 1603   1.065   2.149   0.138  2.7809  1.1408  0.2484
  401SOL     MW 1604   1.031   2.098   0.072  0.7622  0.2362 -0.1258
  402SOL     OW 1605   0.693   2.771   1.729  0.2560  1.2182 -0.1708
  402SOL    HW1 1606   0.611   2.776   1.783 -2.9760 -1.2847 -1.5265
  402SOL    HW2 1607   0.767   2.781   1.794 -0.9689  3.1012  0.0205
  402SOL     MW 1608   0.692   2.773   1.745 -0.3321  1.1364 -0.3244
  403SOL     OW 1609   0.075   0.564   0.343 -0.3939  0.0402  0.2172
  403SOL    HW1 1610   0.139   0.604   0.398 -2.4063  0.8830  0.8470
  403SOL    HW2 1611   0.110   0.475   0.325  1.6964 -2.6957 -1.9954
  403SOL     MW 1612   0.088   0.557   0.348 -0.3836 -0.2096  0.0083
  404SOL     OW 1613   0.978   2.899   0.858  0.1783 -0.0955 -0.4560
  404SOL    HW1 1614   1.037   2.848   0.796  0.5343 -1.9262 -1.0841
  404SOL    HW2 1615   0.970   2.986   0.814 -1.0369 -1.9520 -0.7434
  404SOL     MW 1616   0.985   2.903   0.844  0.0649 -0.5820 -0.5768
  405SOL     OW 1617   0.456   2.456   1.558  0.1356  0.1114 -0.4812
  405SOL    HW1 1618   0.473   2.537   1.522 -1.6919 -1.4060  1.7842
  405SOL    HW2 1619   0.397   2.405   1.493 -0.0416 -0.9277  1.1568
  405SOL     MW 1620   0.451   2.460   1.544 -0.1289 -0.2259  0.0338
  406SOL     OW 1621   0.415   2.418   1.161  0.2757  0.3436 -0.1124
  406SOL    HW1 1622   0.326   2.406   1.200  1.4193  0.2282  0.7861
  406SOL    HW2 1623   0.461   2.344   1.200 -1.3946 -3.0688 -0.3528
  406SOL     MW 1624   0.409   2.407   1.171  0.2062 -0.1219 -0.0256
  407SOL     OW 1625   0.002   2.682   1.177  0.3248 -0.3315 -0.1070
  407SOL    HW1 1626   0.048   2.716   1.255 -1.7868  0.7163 -4.1800
  407SOL    HW2 1627   0.072   2.679   1.116 -0.4439  0.6678  3.0291
  407SOL     MW 1628   0.017   2.686   1.180 -0.0553 -0.0614 -0.2306
  408SOL     OW 1629   2.103   2.093   0.539  0.8028  0.5349  0.2741
  408SOL    HW1 1630   2.068   2.142   0.619  0.5304  3.5851  0.4768
  408SOL    HW2 1631   2.043   2.021   0.519 -2.9824 -2.1799  1.0736
  408SOL     MW 1632   2.091   2.090   0.547  0.2674  0.5792  0.4063
  409SOL     OW 1633   1.379   0.174   0.897 -0.3274 -0.5995 -0.2752
  409SOL    HW1 1634   1.390   0.272   0.911 -0.2758 -2.0169 -1.9316
  409SOL    HW2 1635   1.454   0.141   0.946 -0.7085  0.1099  0.8512
  409SOL     MW 1636   1.390   0.182   0.905 -0.3709 -0.6929 -0.3452
  410SOL     OW 1637   1.069   2.499   1.074  0.0165 -0.3864  0.4157
  410SOL    HW1 1638   0.991   2.484   1.020  3.7296  0.9165  0.8321
  410SOL    HW2 1639   1.125   2.432   1.031  1.1915  2.6585 -2.4504
  410SOL     MW 1640   1.066   2.488   1.061  0.6614  0.1872  0.0925
  411SOL     OW 1641   1.958   0.098   2.885 -0.0948 -0.0015 -0.1381
  411SOL    HW1 1642   1.911   0.063   2.810  2.6193  0.3725 -1.0900
  411SOL    HW2 1643   1.896   0.133   2.951 -0.0058 -0.2952  0.2217
  411SOL     MW 1644   1.944   0.098   2.884  0.2751  0.0091 -0.2162
  412SOL     OW 1645   1.041   2.206   0.559  0.2788  0.0448 -0.3708
  412SOL    HW1 1646   1.099   2.278   0.597 -0.8293 -0.3810  0.8895
  412SOL    HW2 1647   0.948   2.240   0.548  1.5193  1.9932  3.1158
  412SOL     MW 1648   1.036   2.220   0.563  0.2963  0.2457  0.2555
  413SOL     OW 1649   0.541   2.784   0.140  0.3865  0.2960  0.5266
  413SOL    HW1 1650   0.589   2.697   0.143  1.0432 -2.0339  1.4860
  413SOL    HW2 1651   0.551   2.821   0.048  1.0140  1.3742  2.4188
  413SOL     MW 1652   0.548   2.777   0.128  0.5559  0.1308  0.9029
  414SOL     OW 1653   2.001   3.028   1.030  0.1452 -0.1572  0.2448
  414SOL    HW1 1654   1.930   2.994   0.979  2.5242  1.7398  1.0215
  414SOL    HW2 1655   2.061   2.959   1.043  0.8170  1.3006  0.2214
  414SOL     MW 1656   2.000   3.014   1.025  0.5477  0.2854  0.3442
  415SOL     OW 1657   1.755   2.693   1.073  0.1715  0.1744 -0.2856
  415SOL    HW1 1658   1.704   2.637   1.128 -0.5411 -0.8744 -0.1603
  415SOL    HW2 1659   1.840   2.715   1.115  0.6783 -0.4970 -0.1543
  415SOL     MW 1660   1.760   2.688   1.086  0.1443 -0.0526 -0.2517
  416SOL     OW 1661   0.597   1.947   1.384  0.7900 -0.2949 -0.0448
  416SOL    HW1 1662   0.553   2.029   1.362 -0.2759 -0.3145 -0.1606
  416SOL    HW2 1663   0.585   1.892   1.302 -0.0620  0.6374 -1.3632
  416SOL     MW 1664   0.589   1.951   1.370  0.5370 -0.1745 -0.2340
  417SOL     OW 1665   1.095   2.995   1.968  0.0002  0.4826 -0.2023
  417SOL    HW1 1666   1.029   2.977   2.034 -0.6185 -1.2156 -1.1659
  417SOL    HW2 1667   1.062   2.952   1.890 -0.4000 -1.1210  0.1201
  417SOL     MW 1668   1.082   2.987   1.967 -0.1342  0.0469 -0.2869
  418SOL     OW 1669   0.740   3.004   0.189 -0.0183  0.2490  0.1009
  418SOL    HW1 1670   0.771   2.945   0.118  1.5743  0.3921  0.0218
  418SOL    HW2 1671   0.648   2.973   0.190 -0.6444 -0.2379  2.0332
  418SOL     MW 1672   0.732   2.992   0.180  0.1092  0.2036  0.3454
  419SOL     OW 1673   0.456   2.687   1.403 -0.5580  0.0268 -0.1675
  419SOL    HW1 1674   0.510   2.754   1.454  0.5592 -0.6209  2.1815
  419SOL    HW2 1675   0.511   2.678   1.324 -0.5352  1.4056 -1.6023
  419SOL     MW 1676   0.471   2.695   1.399 -0.4076  0.1232 -0.0468
  420SOL     OW 1677   0.905   2.221   1.002  0.0747  0.5175  0.1114
  420SOL    HW1 1678   0.839   2.211   1.068 -1.2697 -0.7339  0.9309
  420SOL    HW2 1679   0.906   2.307   0.957  3.5656 -0.8497 -0.3955
  420SOL     MW 1680   0.897   2.231   1.004  0.3579  0.1720  0.1526
  421SOL     OW 1681   2.947   0.105   0.048  0.0149  0.4658 -0.0510
  421SOL    HW1 1682   2.933   0.076  -0.048 -1.1305 -0.9665 -0.5680
  421SOL    HW2 1683   2.954   0.017   0.086 -4.9123  2.9026  1.5573
  421SOL     MW 1684   2.946   0.090   0.040 -0.7863  0.5983  0.0930
  422SOL     OW 1685   0.876   2.474   0.887  0.0571 -0.4380  0.0883
  422SOL    HW1 1686   0.791   2.510   0.907  1.0829 -0.1457  0.3908
  422SOL    HW2 1687   0.887   2.499   0.788 -0.5712 -2.2802 -0.5496
  422SOL     MW 1688   0.866   2.482   0.877  0.1095 -0.6425  0.0440
  423SOL     OW 1689   1.615   0.115   0.508 -0.1728  0.5138 -0.2717
  423SOL    HW1 1690   1.609   0.078   0.420 -0.6905  1.9339 -0.0339
  423SOL    HW2 1691   1.582   0.202   0.493  2.6741  0.1082 -1.9447
  423SOL     MW 1692   1.610   0.121   0.495  0.1345  0.6476 -0.4611
  424SOL     OW 1693   0.740   2.185   1.218  0.0156  0.1256  0.2243
  424SOL    HW1 1694   0.650   2.183   1.241  1.5442  1.1853  1.3235
  424SOL    HW2 1695   0.778   2.216   1.301 -3.5866 -1.4359 -0.2513
  424SOL     MW 1696   0.733   2.189   1.232 -0.2580  0.0594  0.3066
  425SOL     OW 1697   1.744   2.800   2.052 -0.2185  1.0030 -0.4062
  425SOL    HW1 1698   1.740   2.797   1.954 -0.1088  0.4718 -1.3790
  425SOL    HW2 1699   1.764   2.708   2.080 -0.6996  1.3618 -0.8582
  425SOL     MW 1700   1.746   2.788   2.043 -0.2675  0.9802 -0.5942
  426SOL     OW 1701   0.754   1.582   1.920 -0.3837 -0.4605 -0.3302
  426SOL    HW1 1702   0.740   1.614   1.834  0.2422  2.8382  2.7806
  426SOL    HW2 1703   0.719   1.644   1.989 -0.0006  0.2808  0.9996
  426SOL     MW 1704   0.748   1.594   1.918 -0.2506  0.0725  0.2557
  427SOL     OW 1705   0.395   1.535   1.843 -0.6962  0.4707  0.0788
  427SOL    HW1 1706   0.468   1.469   1.827  2.3643 -1.4582 -0.7291
  427SOL    HW2 1707   0.312   1.495   1.864 -1.2004  0.9356  0.5338
  427SOL     MW 1708   0.394   1.521   1.844 -0.3589  0.2775  0.0322
  428SOL     OW 1709   0.579   2.621   1.165 -0.1068  0.0240  0.3351
  428SOL    HW1 1710   0.658   2.583   1.216 -0.1141 -1.5364  1.5816
  428SOL    HW2 1711   0.508   2.549   1.155  2.3406 -1.0839 -1.3923
  428SOL     MW 1712   0.580   2.606   1.170  0.2151 -0.3281  0.2717
  429SOL     OW 1713   1.340   2.715   1.042 -0.3366 -0.4325  0.0970
  429SOL    HW1 1714   1.256   2.723   1.082  0.8644 -1.9951 -1.9872
  429SOL    HW2 1715   1.331   2.792   0.988 -0.7866 -0.3360  1.3126
  429SOL     MW 1716   1.328   2.726   1.040 -0.2375 -0.6260 -0.0176
  430SOL     OW 1717   1.155   2.743   0.693  0.2277  0.2479  0.6007
  430SOL    HW1 1718   1.188   2.655   0.711  1.5295  0.7383 -1.4986
  430SOL    HW2 1719   1.114   2.718   0.606  0.7650  1.7682 -1.1191
  430SOL     MW 1720   1.154   2.728   0.684  0.4704  0.5132  0.0968
  431SOL     OW 1721   0.373   1.998   1.132 -0.4037 -0.2618 -0.4263
  431SOL    HW1 1722   0.441   1.937   1.105 -2.8925  2.3536 -1.8726
  431SOL    HW2 1723   0.332   2.024   1.047 -1.1196 -0.9641 -2.4520
  431SOL     MW 1724   0.376   1.993   1.117 -0.8265 -0.0094 -0.8844
  432SOL     OW 1725   0.116   0.041   1.148  0.1554 -0.6827 -0.1752
  432SOL    HW1 1726   0.120   0.069   1.236  0.2397 -0.7333 -0.2705
  432SOL    HW2 1727   0.045  -0.019   1.157  0.4200  1.7544 -0.4874
  432SOL     MW 1728   0.107   0.037   1.161  0.2014 -0.3678 -0.2290
  433SOL     OW 1729   0.643   2.870   1.452 -0.0061  0.2427  0.2163
  433SOL    HW1 1730   0.691   2.865   1.531 -1.4598  0.2383 -2.6686
  433SOL    HW2 1731   0.713   2.859   1.382  0.9967 -1.6697  1.7078
  433SOL     MW 1732   0.659   2.868   1.453 -0.0656 -0.0102  0.0325
  434SOL     OW 1733   1.573   2.835   1.502 -0.7033 -0.5806 -0.1780
  434SOL    HW1 1734   1.504   2.899   1.517  1.1883 -1.0286 -0.4259
  434SOL    HW2 1735   1.573   2.821   1.410  0.1218 -0.9279  1.2480
  434SOL     MW 1736   1.564   2.842   1.492 -0.3449 -0.6855 -0.0225
  435SOL     OW 1737   2.838   1.799   0.237 -0.1756  0.0166 -0.1781
  435SOL    HW1 1738   2.898   1.867   0.208  0.8068  0.5905  0.5579
  435SOL    HW2 1739   2.839   1.729   0.174  2.7979  2.0792  0.6395
  435SOL     MW 1740   2.846   1.798   0.225  0.3464  0.3645  0.0269
  436SOL     OW 1741   1.457   2.792   0.314 -0.8731 -0.2611 -0.2029
  436SOL    HW1 1742   1.528   2.775   0.386  0.3463  0.6947 -0.1389
  436SOL    HW2 1743   1.411   2.872   0.345 -1.1067 -0.4038  0.9447
  436SOL     MW 1744   1.461   2.800   0.328 -0.7430 -0.1538 -0.0430
  437SOL     OW 1745   0.833   2.951   1.251  0.1125  0.1326  0.4660
  437SOL    HW1 1746   0.872   3.033   1.272  1.7093  1.1974  0.1649
  437SOL    HW2 1747   0.799   2.953   1.158  2.1716  0.4415 -0.4637
  437SOL     MW 1748   0.833   2.962   1.242  0.5948  0.3138  0.3036
  438SOL     OW 1749   0.834   2.523   2.042 -0.0047 -0.3027 -0.3801
  438SOL    HW1 1750   0.827   2.469   2.122  2.0117  1.1825 -3.2630
  438SOL    HW2 1751   0.772   2.475   1.986  1.1260 -0.8432  1.4936
  438SOL     MW 1752   0.825   2.510   2.045  0.4105 -0.1780 -0.5132
  439SOL     OW 1753   1.145   2.160   0.299 -0.0286 -0.1778 -0.4893
  439SOL    HW1 1754   1.078   2.180   0.373  0.0675  0.4176  0.3242
  439SOL    HW2 1755   1.177   2.249   0.269 -0.3958  0.1625 -0.1657
  439SOL     MW 1756   1.140   2.174   0.305 -0.0643 -0.0543 -0.3393
  440SOL     OW 1757   1.612   3.049   2.991  0.3138 -0.0376 -0.3523
  440SOL    HW1 1758   1.587   3.006   3.070  0.5790  1.9947 -0.9789
  440SOL    HW2 1759   1.661   2.982   2.943  1.2621 -0.5027 -0.4759
  440SOL     MW 1760   1.615   3.035   2.995  0.4739  0.1692 -0.4513
  441SOL     OW 1761   0.317   2.606   0.547  0.5711 -1.0331 -0.5428
  441SOL    HW1 1762   0.295   2.581   0.460 -0.1517 -1.1412  2.1504
  441SOL    HW2 1763   0.323   2.705   0.539 -4.4063  0.1945  0.1173
  441SOL     MW 1764   0.314   2.616   0.534 -0.1810 -0.8854 -0.1004
  442SOL     OW 1765   3.102   2.335   0.655  0.3259 -0.0652 -0.3919
  442SOL    HW1 1766   3.064   2.422   0.627 -0.5933 -0.0569 -0.7909
  442SOL    HW2 1767   3.018   2.301   0.691  0.6938 -0.6359 -0.5219
  442SOL     MW 1768   3.086   2.342   0.656  0.2531 -0.1394 -0.4617
  443SOL     OW 1769   1.408   1.740   1.856  0.3189 -0.0812 -0.7335
  443SOL    HW1 1770   1.346   1.774   1.797  1.9964 -2.5708  0.2651
  443SOL    HW2 1771   1.377   1.660   1.883 -3.1628  2.8808 -3.0067
  443SOL     MW 1772   1.396   1.734   1.852  0.0809 -0.0188 -0.9017
  444SOL     OW 1773   0.865   2.583   1.594 -0.1584 -0.3260 -0.0582
  444SOL    HW1 1774   0.942   2.578   1.661  2.6140 -2.5193  2.8697
  444SOL    HW2 1775   0.801   2.644   1.641 -0.7596 -2.0089 -0.3174
  444SOL     MW 1776   0.867   2.590   1.609  0.1280 -0.8374  0.2939
  445SOL     OW 1777   0.968   0.107   1.307 -0.4905  0.2699  0.4460
  445SOL    HW1 1778   0.924   0.181   1.270  1.8313 -0.6321  0.2090
  445SOL    HW2 1779   1.035   0.072   1.244  1.8345  0.7009  0.9248
  445SOL     MW 1780   0.971   0.112   1.294  0.1226  0.2078  0.4779
  446SOL     OW 1781   2.727   2.892   1.045  0.2414  0.2052  0.0859
  446SOL    HW1 1782   2.651   2.918   0.994  0.1230  0.4745  1.5226
  446SOL    HW2 1783   2.754   2.803   1.016  0.2377  2.8746  0.6667
  446SOL     MW 1784   2.720   2.884   1.034  0.2253  0.5929  0.3521
  447SOL     OW 1785   3.014   2.035   1.686  0.1259  0.4719 -0.0100
  447SOL    HW1 1786   3.077   1.973   1.727 -0.8132  1.4868  3.4272
  447SOL    HW2 1787   2.960   1.996   1.618 -0.6583 -0.6761 -1.6255
  447SOL     MW 1788   3.015   2.022   1.683 -0.1015  0.4543  0.2304
  448SOL     OW 1789   1.673   2.368   1.678 -0.6597 -0.4360 -0.4740
  448SOL    HW1 1790   1.606   2.298   1.694 -1.9722  0.0053 -3.0702
  448SOL    HW2 1791   1.622   2.448   1.654  2.0365 -2.0833  0.0261
  448SOL     MW 1792   1.657   2.369   1.677 -0.4771 -0.5951 -0.7506
  449SOL     OW 1793   0.833   2.869   0.413 -0.4741 -0.2419 -0.1536
  449SOL    HW1 1794   0.797   2.878   0.326  1.3267  0.9041  0.5698
  449SOL    HW2 1795   0.757   2.856   0.470 -1.8723 -0.7326  0.6043
  449SOL     MW 1796   0.818   2.868   0.409 -0.4210 -0.1555  0.0418
  450SOL     OW 1797   1.214   2.431   0.664  0.0506  0.1582 -0.6601
  450SOL    HW1 1798   1.247   2.423   0.756  2.3262 -1.5907  1.5664
  450SOL    HW2 1799   1.301   2.434   0.623 -0.1839  0.0564  0.4686
  450SOL     MW 1800   1.230   2.430   0.671  0.3199 -0.0860 -0.2174
  451SOL     OW 1801   0.625   1.953   1.655 -0.4188 -0.0059  0.0974
  451SOL    HW1 1802   0.665   2.038   1.682  2.2122  2.1779  2.5378
  451SOL    HW2 1803   0.629   1.950   1.556 -1.3886 -0.1114 -0.0785
  451SOL     MW 1804   0.630   1.964   1.646 -0.1996  0.2683  0.3962
  452SOL     OW 1805   0.273   2.685   0.048 -0.7648  0.1079  0.6054
  452SOL    HW1 1806   0.348   2.736   0.073 -1.3281 -0.0928  2.0382
  452SOL    HW2 1807   0.289   2.661  -0.044 -0.1421 -1.4653 -0.4484
  452SOL     MW 1808   0.285   2.689   0.039 -0.7569 -0.1262  0.6554
  453SOL     OW 1809   0.417   3.003   1.626 -0.1766 -0.3976  0.2844
  453SOL    HW1 1810   0.477   3.075   1.610 -1.3066  3.2437 -1.9538
  453SOL    HW2 1811   0.352   3.009   1.560  1.5851 -0.4784 -0.7056
  453SOL     MW 1812   0.416   3.013   1.615 -0.0933  0.0722 -0.1415
  454SOL     OW 1813   1.075   2.741   1.189 -0.6060  0.3215 -0.3407
  454SOL    HW1 1814   1.068   2.649   1.147 -1.8902 -0.1735 -1.2009
  454SOL    HW2 1815   0.995   2.784   1.166 -0.1721 -1.0292  1.0747
  454SOL     MW 1816   1.064   2.735   1.180 -0.7182  0.0780 -0.2674
  455SOL     OW 1817   1.628   2.941   0.136 -0.1767  0.3369 -0.2322
  455SOL    HW1 1818   1.691   2.944   0.205 -2.5341  0.2727 -0.7443
  455SOL    HW2 1819   1.561   2.880   0.171 -0.6036  0.8687  3.1117
  455SOL     MW 1820   1.628   2.933   0.149 -0.5440  0.3986  0.1414
  456SOL     OW 1821   2.895   0.304   1.381  0.3172  0.4663  0.5157
  456SOL    HW1 1822   2.831   0.254   1.319 -1.4171  0.6440 -2.8105
  456SOL    HW2 1823   2.956   0.345   1.320 -0.6271 -1.0978 -2.1902
  456SOL     MW 1824   2.895   0.303   1.365 -0.0362  0.2834 -0.2802
  457SOL     OW 1825   0.940   1.548   2.987 -0.2542 -0.0756  0.2716
  457SOL    HW1 1826   0.866   1.554   3.050  0.9592  2.5455 -0.9161
  457SOL    HW2 1827   1.003   1.485   3.020 -1.2991  2.0946 -1.0638
  457SOL     MW 1828   0.939   1.541   3.000 -0.2319  0.5566 -0.0613
  458SOL     OW 1829   1.454   1.389   0.615  0.1918  0.0192 -0.5765
  458SOL    HW1 1830   1.394   1.425   0.685  3.2995  2.4318 -1.4757
  458SOL    HW2 1831   1.405   1.323   0.569  0.7777 -1.2138 -1.0841
  458SOL     MW 1832   1.440   1.385   0.618  0.6791  0.1748 -0.7621
  459SOL     OW 1833   1.578   0.114   0.239 -0.1793 -0.1091 -0.0357
  459SOL    HW1 1834   1.564   0.025   0.202 -1.4770 -2.5294  1.0504
  459SOL    HW2 1835   1.509   0.165   0.200  1.4470 -1.9332  0.6778
  459SOL     MW 1836   1.567   0.109   0.229 -0.1359 -0.6692  0.2017
  460SOL     OW 1837   1.740   2.123   0.598  0.1042 -0.0164  0.0298
  460SOL    HW1 1838   1.650   2.104   0.636  2.7704  3.5591 -0.3812
  460SOL    HW2 1839   1.755   2.034   0.550  0.0450 -0.4005  2.5874
  460SOL     MW 1840   1.730   2.109   0.597  0.4481  0.4046  0.3130
  461SOL     OW 1841   0.384   2.305   0.635  0.4961  0.4529 -0.1647
  461SOL    HW1 1842   0.315   2.365   0.617 -1.9977  1.2747  0.5539
  461SOL    HW2 1843   0.423   2.351   0.711  1.2043  0.8600 -1.9108
  461SOL     MW 1844   0.380   2.319   0.643  0.2605  0.6151 -0.3003
  462SOL     OW 1845   0.393   0.262   1.340  0.3582 -0.2883 -0.3770
  462SOL    HW1 1846   0.430   0.197   1.282 -1.4274 -1.1310 -2.5352
  462SOL    HW2 1847   0.465   0.331   1.341  2.9713  2.2138 -0.5629
  462SOL     MW 1848   0.407   0.262   1.333  0.4674 -0.0693 -0.6863
  463SOL     OW 1849   0.954   0.008   0.687  0.9064  0.4529  0.0251
  463SOL    HW1 1850   0.994  -0.016   0.602 -1.5969 -0.2112  1.9030
  463SOL    HW2 1851   0.864   0.025   0.663  2.4455 -1.7863  1.2191
  463SOL     MW 1852   0.947   0.007   0.673  0.7792  0.0699  0.4305
  464SOL     OW 1853   0.846   2.988   2.160  0.1634 -0.0023 -0.3537
  464SOL    HW1 1854   0.819   2.895   2.168 -2.9441 -0.9529 -0.5058
  464SOL    HW2 1855   0.881   3.029   2.239 -2.3877  0.4681  0.4206
  464SOL     MW 1856   0.847   2.981   2.171 -0.5832 -0.0657 -0.2716
  465SOL     OW 1857   0.674   0.262   0.461 -0.2613 -0.2929 -0.5037
  465SOL    HW1 1858   0.666   0.184   0.516  0.1662  0.4803 -3.0710
  465SOL    HW2 1859   0.704   0.223   0.376  0.1459  0.9291 -0.7947
  465SOL     MW 1860   0.677   0.247   0.457 -0.1511 -0.0297 -0.8808
  466SOL     OW 1861   1.100   1.993   0.729 -0.2676 -0.2307  0.4323
  466SOL    HW1 1862   1.092   1.915   0.670  0.6590  1.0291  0.7754
  466SOL    HW2 1863   1.083   2.075   0.672  0.4743  1.1011  0.5685
  466SOL     MW 1864   1.096   1.994   0.714 -0.0475  0.1112  0.4955
  467SOL     OW 1865   1.265   2.379   0.913 -0.1466 -0.2283  0.8528
  467SOL    HW1 1866   1.349   2.372   0.953  1.4942  0.2986  0.0663
  467SOL    HW2 1867   1.248   2.280   0.890 -2.1769 -2.0195 -1.4622
  467SOL     MW 1868   1.274   2.365   0.915 -0.1980 -0.3951  0.4436
  468SOL     OW 1869   0.322   2.602   2.002  0.0523 -0.6534  0.3826
  468SOL    HW1 1870   0.333   2.513   1.968 -0.3616 -1.2054  0.8358
  468SOL    HW2 1871   0.365   2.660   1.938 -1.8835  1.0547 -2.3853
  468SOL     MW 1872   0.329   2.598   1.989 -0.2577 -0.5009  0.0772
  469SOL     OW 1873   0.399   2.057   1.787 -0.0158 -0.2074  0.5251
  469SOL    HW1 1874   0.321   2.062   1.727 -0.2126  1.9135  1.3979
  469SOL    HW2 1875   0.480   2.032   1.736  1.1335 -1.4360  0.5236
  469SOL     MW 1876   0.400   2.054   1.773  0.1098 -0.0897  0.6400
  470SOL     OW 1877   3.087   2.556   0.186  1.0076 -0.3039  0.2340
  470SOL    HW1 1878   3.010   2.517   0.231  0.3923 -0.5146  0.0163
  470SOL    HW2 1879   3.073   2.552   0.092  0.8039  1.8298 -0.4450
  470SOL     MW 1880   3.075   2.551   0.179  0.8995 -0.0502  0.1157
  471SOL     OW 1881   1.236   2.762   1.407 -0.5232 -0.1317 -0.1064
  471SOL    HW1 1882   1.171   2.776   1.476  0.0138  1.9893  0.8513
  471SOL    HW2 1883   1.189   2.775   1.329  3.1895 -1.4556  0.1659
  471SOL     MW 1884   1.221   2.766   1.406  0.0375 -0.0265  0.0559
  472SOL     OW 1885   2.958   2.110   0.380 -0.0696  0.5207  0.3418
  472SOL    HW1 1886   2.988   2.064   0.292  1.0529  3.6215  1.5967
  472SOL    HW2 1887   2.929   2.031   0.432 -2.8664  0.5902 -3.7302
  472SOL     MW 1888   2.958   2.094   0.376 -0.2905  0.9390 -0.0299
  473SOL     OW 1889   0.791   2.514   1.318 -0.2210 -0.0426 -0.4351
  473SOL    HW1 1890   0.882   2.492   1.309  0.8554 -0.2345 -0.2896
  473SOL    HW2 1891   0.785   2.528   1.416 -0.6088 -0.1062  0.2754
  473SOL     MW 1892   0.802   2.513   1.330 -0.1302 -0.0763 -0.3222
  474SOL     OW 1893   0.833   2.166   1.719  0.4142  0.5291  0.5971
  474SOL    HW1 1894   0.917   2.192   1.753 -1.4621  2.4456 -2.9621
  474SOL    HW2 1895   0.851   2.161   1.628 -0.8084 -2.1461  0.1327
  474SOL     MW 1896   0.847   2.169   1.712  0.0054  0.4290  0.0662
  475SOL     OW 1897   1.693   3.087   1.427  0.3494  0.2133  0.4881
  475SOL    HW1 1898   1.646   3.098   1.346 -0.1720 -1.5145  1.2132
  475SOL    HW2 1899   1.663   2.999   1.449 -1.7515  1.9144 -2.2156
  475SOL     MW 1900   1.683   3.077   1.419  0.0034  0.2098  0.2271
  476SOL     OW 1901   1.466   2.619   0.796  0.1318  0.2867 -0.0446
  476SOL    HW1 1902   1.428   2.613   0.879 -1.3983 -0.3234 -1.6266
  476SOL    HW2 1903   1.497   2.710   0.799 -2.5879 -1.0479  3.0947
  476SOL     MW 1904   1.465   2.630   0.807 -0.4289  0.0301  0.1609
  477SOL     OW 1905   0.847   2.521   0.593  0.4520  0.2574 -0.4440
  477SOL    HW1 1906   0.918   2.578   0.541  1.1743  2.2860 -2.5865
  477SOL    HW2 1907   0.838   2.434   0.550 -0.6385 -2.2199 -0.1681
  477SOL     MW 1908   0.855   2.517   0.581  0.4034  0.1982 -0.6903
  478SOL     OW 1909   0.212   2.634   1.003  0.4775 -0.0704 -0.0649
  478SOL    HW1 1910   0.250   2.723   0.990  0.4048  1.4340 -1.7817
  478SOL    HW2 1911   0.265   2.566   0.964 -0.9033 -2.1126  1.3289
  478SOL     MW 1912   0.224   2.637   0.996  0.2858 -0.1414 -0.1075
  479SOL     OW 1913   1.444   1.909   1.329  0.2051  0.0987  0.0502
  479SOL    HW1 1914   1.391   1.959   1.397  0.2527 -0.6901 -0.4467
  479SOL    HW2 1915   1.518   1.879   1.382 -0.5689  0.3245 -0.8251
  479SOL     MW 1916   1.446   1.911   1.345  0.1093  0.0244 -0.1309
  480SOL     OW 1917   1.817   2.383   1.335 -0.9329 -0.4260 -0.5576
  480SOL    HW1 1918   1.858   2.320   1.394 -1.3619  0.4327 -4.6784
  480SOL    HW2 1919   1.844   2.353   1.246  0.8555 -2.0365 -0.1072
  480SOL     MW 1920   1.826   2.371   1.331 -0.7536 -0.5252 -1.0419
  481SOL     OW 1921   1.181   0.150   1.059  0.3477  0.0527 -0.1492
  481SOL    HW1 1922   1.270   0.155   1.016 -0.1782 -2.8146 -0.1148
  481SOL    HW2 1923   1.157   0.240   1.085 -0.7577 -0.3927  1.6138
  481SOL     MW 1924   1.190   0.162   1.057  0.1325 -0.3844  0.0879
  482SOL     OW 1925   1.053   3.048   0.446  0.3871  0.2976  0.3591
  482SOL    HW1 1926   0.984   2.981   0.426 -2.1409  1.8015 -0.5011
  482SOL    HW2 1927   1.032   3.125   0.392 -0.7350 -0.1287  0.6919
  482SOL     MW 1928   1.041   3.049   0.436 -0.0945  0.4398  0.2895
  483SOL     OW 1929   0.351   2.870   0.506 -0.2329 -0.1767  0.5278
  483SOL    HW1 1930   0.315   2.904   0.425  2.0618 -2.6902  1.9283
  483SOL    HW2 1931   0.308   2.925   0.576 -3.2474 -2.9493  2.2402
  483SOL     MW 1932   0.341   2.882   0.505 -0.3278 -0.8742  0.9385
  484SOL     OW 1933   1.681   1.849   1.453 -0.1130 -0.2038  0.2998
  484SOL    HW1 1934   1.734   1.929   1.429 -0.3795  1.3536  0.7367
  484SOL    HW2 1935   1.700   1.828   1.545 -0.5263  0.7832  1.0617
  484SOL     MW 1936   1.690   1.857   1.462 -0.2027  0.1319  0.4580
  485SOL     OW 1937   0.523   2.311   0.312  0.7085  0.0753 -0.2315
  485SOL    HW1 1938   0.592   2.369   0.333 -0.0230  0.7574 -0.6831
  485SOL    HW2 1939   0.455   2.361   0.362  0.9607 -0.0708 -0.4969
  485SOL     MW 1940   0.523   2.325   0.321  0.6453  0.1461 -0.3261
  486SOL     OW 1941   0.092   2.527   1.489 -0.1762  0.8463 -0.1732
  486SOL    HW1 1942   0.127   2.605   1.447  2.8288 -0.0261  0.8449
  486SOL    HW2 1943   0.124   2.510   1.579 -0.2984 -0.3929  2.1534
  486SOL     MW 1944   0.101   2.535   1.495  0.2041  0.5677  0.2681
  487SOL     OW 1945   1.335   1.574   1.105  0.0128 -0.1402 -0.6142
  487SOL    HW1 1946   1.317   1.667   1.119 -2.1778  0.7457  2.7541
  487SOL    HW2 1947   1.429   1.579   1.084 -0.9779 -3.3115  1.5265
  487SOL     MW 1948   1.345   1.587   1.104 -0.4069 -0.4417  0.1127
  488SOL     OW 1949   1.441   1.820   0.587  0.6249 -0.2793  0.3986
  488SOL    HW1 1950   1.394   1.901   0.576  0.6196  0.4791 -0.3370
  488SOL    HW2 1951   1.382   1.750   0.547 -1.4005  0.6840  1.6127
  488SOL     MW 1952   1.427   1.821   0.581  0.3570 -0.0521  0.4617
  489SOL     OW 1953   0.683   0.691   0.518 -0.2600 -0.3250 -0.5772
  489SOL    HW1 1954   0.648   0.608   0.480 -0.2714 -0.7648  1.8652
  489SOL    HW2 1955   0.663   0.691   0.610 -0.2571 -0.6813 -0.5794
  489SOL     MW 1956   0.676   0.680   0.525 -0.2611 -0.4300 -0.2553
  490SOL     OW 1957   1.335   2.058   0.482  0.5295  0.1242 -0.7536
  490SOL    HW1 1958   1.389   2.112   0.422  0.2325  1.6484 -0.3165
  490SOL    HW2 1959   1.247   2.083   0.458 -0.1173 -1.8429  0.1500
  490SOL     MW 1960   1.330   2.068   0.471  0.4049  0.0657 -0.5767
  491SOL     OW 1961   1.338   3.013   0.410 -0.3753 -0.2363 -0.7680
  491SOL    HW1 1962   1.362   3.043   0.498 -2.9883 -2.7867  1.3400
  491SOL    HW2 1963   1.247   3.002   0.413  1.2973 -0.0499 -0.4979
  491SOL     MW 1964   1.329   3.015   0.422 -0.4994 -0.5482 -0.4542
  492SOL     OW 1965   1.475   2.137   0.725 -0.2491  0.1491  0.1578
  492SOL    HW1 1966   1.409   2.112   0.664  0.3430  1.5079  0.8195
  492SOL    HW2 1967   1.444   2.103   0.804  0.7166  0.7968 -1.8852
  492SOL     MW 1968   1.462   2.129   0.728 -0.0435  0.4138 -0.0244
  493SOL     OW 1969   0.221   3.063   0.321 -0.4877 -0.1841  0.0151
  493SOL    HW1 1970   0.149   3.087   0.384 -3.0086  2.3610 -0.1331
  493SOL    HW2 1971   0.176   3.016   0.248 -0.8378  0.1146 -0.4019
  493SOL     MW 1972   0.205   3.060   0.320 -0.8665  0.1911 -0.0595
  494SOL     OW 1973   0.390   2.354   1.813 -0.5116  0.7563 -0.4620
  494SOL    HW1 1974   0.388   2.254   1.802  0.3711 -1.3304 -1.7228
  494SOL    HW2 1975   0.440   2.391   1.737 -0.1383 -0.2930  2.3659
  494SOL     MW 1976   0.397   2.346   1.801 -0.3459  0.3425 -0.2552
  495SOL     OW 1977   2.828   1.594   2.685  1.1428  0.3303  0.0040
  495SOL    HW1 1978   2.822   1.663   2.749  1.1170  0.5307 -0.6194
  495SOL    HW2 1979   2.762   1.531   2.717  0.2643 -0.9598  0.6946
  495SOL     MW 1980   2.819   1.595   2.697  1.0235  0.1865  0.0129
  496SOL     OW 1981   2.833   2.281   2.700 -0.1832  0.1227 -0.1605
  496SOL    HW1 1982   2.840   2.215   2.772 -1.5349  1.5059 -1.6825
  496SOL    HW2 1983   2.916   2.330   2.698 -2.5353 -0.9761 -0.3251
  496SOL     MW 1984   2.845   2.279   2.709 -0.6718  0.1602 -0.3831
  497SOL     OW 1985   1.511   2.430   2.587 -0.0467 -0.4866  0.3645
  497SOL    HW1 1986   1.500   2.376   2.511  0.9999  1.8762 -1.8141
  497SOL    HW2 1987   1.471   2.371   2.655 -1.6038  0.1510  1.8690
  497SOL     MW 1988   1.504   2.415   2.586 -0.1140 -0.0908  0.2755
  498SOL     OW 1989   1.442   2.747   2.328 -0.4504  0.1978 -0.5029
  498SOL    HW1 1990   1.456   2.650   2.327  0.9751  0.0707  0.3255
  498SOL    HW2 1991   1.527   2.781   2.365  0.0819  0.8560  0.6081
  498SOL     MW 1992   1.455   2.739   2.333 -0.1921  0.2679 -0.2470
  499SOL     OW 1993   0.993   0.071   0.085  0.4612  0.3321 -0.4425
  499SOL    HW1 1994   0.902   0.070   0.112 -0.7357  0.6496  1.1584
  499SOL    HW2 1995   1.014  -0.018   0.108 -2.3038 -2.0915 -0.0727
  499SOL     MW 1996   0.984   0.059   0.092 -0.0615  0.0543 -0.1825
  500SOL     OW 1997   1.055   2.521   2.720  0.6695 -0.3275  0.5782
  500SOL    HW1 1998   1.107   2.491   2.791  0.7423  0.2340  0.2894
  500SOL    HW2 1999   1.001   2.586   2.760  0.2501 -1.2610 -1.7692
  500SOL     MW 2000   1.055   2.526   2.735  0.6238 -0.3766  0.2304
  501SOL     OW 2001   1.835   2.290   2.970 -0.1384 -0.0951  0.6625
  501SOL    HW1 2002   1.815   2.380   2.945 -0.4329  0.0138  0.6665
  501SOL    HW2 2003   1.928   2.286   2.993  1.0488 -2.3496  1.1022
  501SOL     MW 2004   1.845   2.301   2.969 -0.0206 -0.3782  0.7211
  502SOL     OW 2005   0.311   2.755   2.853 -0.7161 -0.2772  0.7059
  502SOL    HW1 2006   0.373   2.789   2.789 -0.5586 -0.7509 -0.7279
  502SOL    HW2 2007   0.256   2.831   2.868  0.6081 -3.4636 -1.4870
  502SOL     MW 2008   0.312   2.770   2.847 -0.5206 -0.7601  0.2274
  503SOL     OW 2009   1.135   2.514   2.056  0.0155  0.3208 -0.3893
  503SOL    HW1 2010   1.203   2.553   2.001  2.0467 -1.1977  0.8652
  503SOL    HW2 2011   1.044   2.521   2.022  1.8202  0.8983  5.6170
  503SOL     MW 2012   1.132   2.520   2.044  0.5216  0.1966  0.5687
  504SOL     OW 2013   0.059   2.670   2.198  0.7477  0.2228 -0.4036
  504SOL    HW1 2014   0.136   2.629   2.162 -0.8797 -0.7729 -0.8788
  504SOL    HW2 2015   0.020   2.597   2.238 -1.0365  0.7907  0.6931
  504SOL     MW 2016   0.064   2.655   2.199  0.2975  0.1663 -0.3216
  505SOL     OW 2017   1.573   2.824   2.745 -0.2546  0.0784  0.2657
  505SOL    HW1 2018   1.607   2.825   2.649 -0.6965 -1.2986 -2.7417
  505SOL    HW2 2019   1.507   2.898   2.754 -0.1241  1.3506  0.7358
  505SOL     MW 2020   1.569   2.834   2.734 -0.2957  0.0646 -0.0691
  506SOL     OW 2021   1.610   0.106   2.750  0.0548 -0.5824  0.0557
  506SOL    HW1 2022   1.628   0.064   2.833 -1.8663  1.6042 -2.3505
  506SOL    HW2 2023   1.661   0.064   2.687 -2.6381 -2.0101  3.3740
  506SOL     MW 2024   1.619   0.095   2.753 -0.5540 -0.4823  0.1761
  507SOL     OW 2025   0.851   2.693   2.832  0.3025  0.3780  0.2341
  507SOL    HW1 2026   0.867   2.712   2.739  0.9249  0.2306 -0.1259
  507SOL    HW2 2027   0.774   2.640   2.830  0.6712 -0.0464 -0.3787
  507SOL     MW 2028   0.843   2.688   2.819  0.4332  0.3025  0.1058
  508SOL     OW 2029   1.220   2.115   2.514 -0.5936  0.1792  0.4257
  508SOL    HW1 2030   1.294   2.151   2.572  0.9654 -2.0095  1.5284
  508SOL    HW2 2031   1.150   2.106   2.578  0.6965  0.4820  0.2973
  508SOL     MW 2032   1.220   2.118   2.530 -0.2177 -0.0696  0.5542
  509SOL     OW 2033   0.596   2.533   2.848  0.3017 -0.2667  0.0229
  509SOL    HW1 2034   0.594   2.494   2.755 -0.3451 -2.9719  0.1259
  509SOL    HW2 2035   0.547   2.621   2.838 -0.7636  0.8149 -1.4580
  509SOL     MW 2036   0.589   2.539   2.834  0.0758 -0.4809 -0.1589
  510SOL     OW 2037   1.501   2.586   1.635 -0.4340 -0.1975  0.0082
  510SOL    HW1 2038   1.542   2.655   1.583 -1.0247 -0.5518 -0.6381
  510SOL    HW2 2039   1.448   2.640   1.694 -1.1185 -0.6245  0.0957
  510SOL     MW 2040   1.500   2.602   1.636 -0.6022 -0.3005 -0.0655
  511SOL     OW 2041   0.348   2.519   2.489 -0.3037 -0.2487 -0.6710
  511SOL    HW1 2042   0.429   2.471   2.514  1.1555 -2.1291 -2.0874
  511SOL    HW2 2043   0.363   2.553   2.399 -1.0749  0.9364  0.3040
  511SOL     MW 2044   0.361   2.517   2.480 -0.2129 -0.3404 -0.7293
  512SOL     OW 2045   0.984   1.964   2.833  0.6823 -0.3735 -0.2290
  512SOL    HW1 2046   0.905   1.984   2.882  1.6179  0.5247  1.7317
  512SOL    HW2 2047   1.038   1.898   2.878  0.5026  1.6195 -2.7015
  512SOL     MW 2048   0.981   1.958   2.846  0.7820  0.0080 -0.2965
  513SOL     OW 2049   1.501   2.486   2.277  0.3567  0.6578  0.1397
  513SOL    HW1 2050   1.595   2.491   2.251 -0.7876 -1.2241 -0.4335
  513SOL    HW2 2051   1.502   2.394   2.313 -0.7506  0.3563  2.3819
  513SOL     MW 2052   1.514   2.474   2.278  0.0596  0.3697  0.3599
  514SOL     OW 2053   0.241   2.361   2.689 -0.5852 -0.4445 -0.1354
  514SOL    HW1 2054   0.276   2.413   2.617 -0.1729  0.8033  1.0208
  514SOL    HW2 2055   0.309   2.333   2.745 -1.9176  0.6659 -0.9477
  514SOL     MW 2056   0.255   2.364   2.687 -0.7066 -0.1334 -0.0900
  515SOL     OW 2057   1.079   1.998   1.861  0.0384 -0.1547 -0.2376
  515SOL    HW1 2058   1.097   2.081   1.831  1.7211 -1.9417 -0.8341
  515SOL    HW2 2059   1.125   1.984   1.948  1.5281 -1.8626  1.4062
  515SOL     MW 2060   1.088   2.007   1.869  0.4570 -0.6159 -0.0994
  516SOL     OW 2061   1.305   2.624   2.920  0.0226 -1.0464  0.2260
  516SOL    HW1 2062   1.322   2.614   2.823  0.5328  0.7147 -0.1988
  516SOL    HW2 2063   1.245   2.548   2.946 -0.1099 -0.0400 -2.2392
  516SOL     MW 2064   1.299   2.613   2.910  0.0724 -0.6812 -0.1553
  517SOL     OW 2065   0.513   2.264   2.266  0.5799  0.0890 -0.7405
  517SOL    HW1 2066   0.491   2.354   2.276  0.8560  0.5692 -1.6489
  517SOL    HW2 2067   0.456   2.233   2.194 -0.2056  1.3775  2.3151
  517SOL     MW 2068   0.502   2.272   2.258  0.5127  0.3223 -0.4572
  518SOL     OW 2069   1.754   0.182   3.042  0.8085 -0.4038 -0.2052
  518SOL    HW1 2070   1.752   0.183   3.137  1.7785  0.2824  0.8237
  518SOL    HW2 2071   1.708   0.094   3.039 -1.4265  1.3311  4.1554
  518SOL     MW 2072   1.748   0.170   3.054  0.6416 -0.0844  0.5059
  519SOL     OW 2073   0.609   2.346   1.978  0.0714  0.3273  0.1286
  519SOL    HW1 2074   0.643   2.250   1.981  3.8635  0.2678  0.4941
  519SOL    HW2 2075   0.553   2.353   1.901  1.6516  0.1552  0.5022
  519SOL     MW 2076   0.606   2.334   1.968  0.7802  0.2967  0.2261
  520SOL     OW 2077   1.184   2.150   2.890  0.1814  0.0370  0.1846
  520SOL    HW1 2078   1.124   2.093   2.844  1.7741  0.0975  1.7078
  520SOL    HW2 2079   1.199   2.106   2.974  1.3887 -0.1133  1.3373
  520SOL     MW 2080   1.178   2.137   2.895  0.5509  0.0251  0.5377
  521SOL     OW 2081   1.751   2.039   2.203 -0.2193 -0.6315  0.7198
  521SOL    HW1 2082   1.767   2.069   2.111  0.3553 -0.6862  0.0239
  521SOL    HW2 2083   1.721   1.947   2.196  3.2040  1.5098  1.3549
  521SOL     MW 2084   1.749   2.031   2.190  0.3082 -0.3562  0.7118
  522SOL     OW 2085   2.819   2.575   2.191 -0.5437 -0.0698  0.5562
  522SOL    HW1 2086   2.893   2.520   2.218  0.5568  0.0539  1.0693
  522SOL    HW2 2087   2.873   2.660   2.181  2.5411  0.4686  0.3545
  522SOL     MW 2088   2.836   2.579   2.193  0.0085  0.0176  0.5973
  523SOL     OW 2089   0.797   1.459   2.153 -0.0856  0.5317  0.0888
  523SOL    HW1 2090   0.781   1.468   2.055 -1.0639  1.5402  0.2765
  523SOL    HW2 2091   0.888   1.420   2.146  0.6621 -3.1733 -1.3934
  523SOL     MW 2092   0.807   1.455   2.139 -0.1160  0.1759 -0.0820
  524SOL     OW 2093   0.558   2.375   3.071  0.1357 -0.0003 -0.3803
  524SOL    HW1 2094   0.565   2.452   3.003  1.3114  1.5601  0.0199
  524SOL    HW2 2095   0.633   2.314   3.056 -1.6972  1.9047 -0.7138
  524SOL     MW 2096   0.569   2.377   3.060  0.0490  0.4569 -0.3715
  525SOL     OW 2097   0.306   2.166   2.103  0.3388 -0.1498 -0.4178
  525SOL    HW1 2098   0.273   2.125   2.190  0.3132  0.5563 -0.9123
  525SOL    HW2 2099   0.318   2.093   2.043 -1.7030 -0.2038 -0.8617
  525SOL     MW 2100   0.303   2.151   2.107  0.0660 -0.0637 -0.5416
  526SOL     OW 2101   0.725   2.113   1.982  0.2249  0.1604  0.6320
  526SOL    HW1 2102   0.781   2.126   1.910  3.4671 -1.2621 -1.6587
  526SOL    HW2 2103   0.780   2.128   2.066  1.0283 -2.3520  0.5204
  526SOL     MW 2104   0.740   2.117   1.983  0.7587 -0.3588  0.3151
  527SOL     OW 2105   1.279   1.917   2.043  0.0209  0.0557 -0.2498
  527SOL    HW1 2106   1.251   1.855   2.108 -0.9167  1.5509 -2.0673
  527SOL    HW2 2107   1.314   1.872   1.967 -2.1298  0.3076 -1.7237
  527SOL     MW 2108   1.280   1.903   2.042 -0.3866  0.2862 -0.6840
  528SOL     OW 2109   0.579   2.890   3.000 -0.0020  0.1149  0.4079
  528SOL    HW1 2110   0.639   2.959   3.034  0.2375 -0.0086  4.4482
  528SOL    HW2 2111   0.584   2.887   2.905  1.5696 -0.1967 -0.8935
  528SOL     MW 2112   0.587   2.899   2.992  0.2369  0.0575  0.7692
  529SOL     OW 2113   1.106   2.279   1.801 -0.4291 -0.0284 -0.2319
  529SOL    HW1 2114   1.165   2.270   1.881  0.2779 -0.3855  0.9109
  529SOL    HW2 2115   1.163   2.291   1.720  3.0095 -0.0830  0.6659
  529SOL     MW 2116   1.121   2.280   1.801  0.1179 -0.0827  0.0373
  530SOL     OW 2117   1.127   2.392   2.958 -0.7484 -0.0813  0.1792
  530SOL    HW1 2118   1.056   2.397   3.028 -2.7120 -0.0732 -1.7244
  530SOL    HW2 2119   1.150   2.296   2.949 -2.5663  1.6460  2.3568
  530SOL     MW 2120   1.121   2.380   2.966 -1.2473  0.1477  0.2154
  531SOL     OW 2121   0.889   1.798   2.614  0.4025 -0.0124 -0.0887
  531SOL    HW1 2122   0.901   1.857   2.683  1.2154  1.9374  0.1777
  531SOL    HW2 2123   0.864   1.712   2.646 -0.8909  1.8029  0.0090
  531SOL     MW 2124   0.887   1.794   2.627  0.3391  0.4843 -0.0407
  532SOL     OW 2125   1.739   0.347   2.817 -0.6148 -0.0168  0.4091
  532SOL    HW1 2126   1.709   0.275   2.759 -0.3374 -0.3719  0.7165
  532SOL    HW2 2127   1.762   0.304   2.901  0.6772 -0.6111 -1.7157
  532SOL     MW 2128   1.738   0.332   2.821 -0.4078 -0.1421  0.1694
  533SOL     OW 2129   1.773   2.811   2.934  0.0879 -0.0454  0.6516
  533SOL    HW1 2130   1.760   2.728   2.986 -0.9652 -2.5747 -0.7136
  533SOL    HW2 2131   1.699   2.810   2.873  0.4847 -3.1846 -0.3693
  533SOL     MW 2132   1.761   2.800   2.933  0.0013 -0.7933  0.3368
  534SOL     OW 2133   1.747   2.510   2.494  0.5782  0.2676 -0.2656
  534SOL    HW1 2134   1.672   2.455   2.537  3.5847 -0.3639 -0.9341
  534SOL    HW2 2135   1.813   2.501   2.559  0.4860 -1.9430  0.8535
  534SOL     MW 2136   1.746   2.502   2.508  0.9627 -0.1074 -0.2062
  535SOL     OW 2137   1.784   2.391   1.924  0.2358  0.5219  0.0157
  535SOL    HW1 2138   1.727   2.388   1.846  1.0549 -2.5575  3.4243
  535SOL    HW2 2139   1.872   2.400   1.889  0.9308 -1.8115 -1.0765
  535SOL     MW 2140   1.788   2.392   1.909  0.4356 -0.1922  0.3213
  536SOL     OW 2141   0.427   1.877   2.015 -0.1699 -0.0647  0.3446
  536SOL    HW1 2142   0.431   1.912   1.923 -1.7244 -0.2012  0.8306
  536SOL    HW2 2143   0.518   1.843   2.031  2.7616  1.1483  3.1234
  536SOL     MW 2144   0.440   1.877   2.005  0.0118  0.0774  0.7754
  537SOL     OW 2145   1.003   0.191   2.935 -0.7267 -0.0590  0.0680
  537SOL    HW1 2146   0.989   0.167   3.027 -0.1073 -1.9019 -0.9891
  537SOL    HW2 2147   0.974   0.277   2.919  0.7199 -2.5756 -1.3949
  537SOL     MW 2148   0.997   0.199   2.945 -0.4541 -0.6342 -0.2645
  538SOL     OW 2149   1.268   0.059   3.004  0.7110 -0.1059  0.2508
  538SOL    HW1 2150   1.182   0.090   2.974 -1.8053 -0.2617  1.1438
  538SOL    HW2 2151   1.304   0.140   3.037 -1.9958 -3.3512 -0.6134
  538SOL     MW 2152   1.262   0.074   3.004  0.0219 -0.5547  0.2546
  539SOL     OW 2153   0.723   2.721   2.507  0.1013  0.2380  0.4447
  539SOL    HW1 2154   0.802   2.772   2.534 -1.0506  2.1392  3.1802
  539SOL    HW2 2155   0.766   2.635   2.494 -0.7571  1.0885  1.3912
  539SOL     MW 2156   0.739   2.716   2.509 -0.1639  0.6011  0.9305
  540SOL     OW 2157   0.412   2.209   2.871  0.3025 -0.4174  0.2040
  540SOL    HW1 2158   0.455   2.273   2.940 -0.7047  0.1983  1.3878
  540SOL    HW2 2159   0.340   2.170   2.919 -0.6075 -0.9763  0.5918
  540SOL     MW 2160   0.408   2.212   2.886  0.0495 -0.4099  0.4114
  541SOL     OW 2161   0.195   2.904   2.286 -0.2453 -0.4744 -0.0358
  541SOL    HW1 2162   0.155   2.833   2.235 -0.3257  0.8956 -0.0134
  541SOL    HW2 2163   0.202   2.865   2.380  1.2815 -0.1510 -0.4069
  541SOL     MW 2164   0.191   2.890   2.292 -0.0544 -0.2510 -0.0818
  542SOL     OW 2165   0.848   2.338   2.745  0.3718 -0.4863  0.4149
  542SOL    HW1 2166   0.819   2.342   2.829 -1.2958 -0.6868 -1.3112
  542SOL    HW2 2167   0.937   2.370   2.747 -0.5591  0.8530  0.0683
  542SOL     MW 2168   0.856   2.343   2.757  0.0290 -0.3360  0.1414
  543SOL     OW 2169   1.365   2.636   2.613 -0.2592 -0.3355  0.1743
  543SOL    HW1 2170   1.419   2.562   2.583 -0.2281 -0.3824 -1.4162
  543SOL    HW2 2171   1.422   2.694   2.661  0.7710  0.3125 -1.1161
  543SOL     MW 2172   1.379   2.634   2.616 -0.1192 -0.2562 -0.2058
  544SOL     OW 2173   0.708   0.106   2.645  0.2822 -0.4833 -0.6123
  544SOL    HW1 2174   0.615   0.128   2.644 -2.1965 -0.7354 -0.3586
  544SOL    HW2 2175   0.736   0.072   2.554 -0.4931  3.2120 -0.9862
  544SOL     MW 2176   0.699   0.105   2.633 -0.1471 -0.0290 -0.6282
  545SOL     OW 2177   1.559   2.205   2.370  0.4937  0.6004 -0.7868
  545SOL    HW1 2178   1.505   2.123   2.392  0.3649 -0.9982  1.6592
  545SOL    HW2 2179   1.640   2.160   2.328  0.6910  1.0844 -1.0964
  545SOL     MW 2180   1.562   2.188   2.368  0.5027  0.4534 -0.5049
  546SOL     OW 2181   3.008   2.016   0.143 -0.4803  0.0997 -0.4578
  546SOL    HW1 2182   2.958   2.081   0.085  0.0631  1.0626 -0.8683
  546SOL    HW2 2183   3.057   1.955   0.088  1.7836 -0.0728 -1.4106
  546SOL     MW 2184   3.008   2.016   0.128 -0.1099  0.2040 -0.6377
  547SOL     OW 2185   0.143   2.920   0.105 -0.2725  0.3743 -0.1598
  547SOL    HW1 2186   0.177   2.959   0.023  1.0393 -2.0778 -0.7736
  547SOL    HW2 2187   0.168   2.825   0.099 -0.5335  0.6401 -1.7504
  547SOL     MW 2188   0.151   2.913   0.094 -0.1338  0.0858 -0.4507
  548SOL     OW 2189   0.255   2.518   0.290 -0.2438 -0.2244  0.1778
  548SOL    HW1 2190   0.285   2.583   0.224 -0.0705 -0.5910  1.1474
  548SOL    HW2 2191   0.156   2.523   0.278 -1.8490 -0.0291  1.3532
  548SOL     MW 2192   0.246   2.527   0.280 -0.4327 -0.2470  0.4608
  549SOL     OW 2193   0.682   1.830   2.055 -0.3351 -0.4420 -0.1842
  549SOL    HW1 2194   0.715   1.914   2.003  1.7966  2.6863 -1.9272
  549SOL    HW2 2195   0.727   1.840   2.143  1.8796  1.9261 -1.5527
  549SOL     MW 2196   0.692   1.842   2.060  0.2384  0.2832 -0.5947
  550SOL     OW 2197   1.820   1.734   2.499  1.0166 -0.3702  0.3265
  550SOL    HW1 2198   1.776   1.729   2.413 -1.2413  0.0930 -1.7030
  550SOL    HW2 2199   1.804   1.827   2.536  1.6200  3.0753  0.2616
  550SOL     MW 2200   1.812   1.745   2.492  0.7983  0.1455  0.0501
  551SOL     OW 2201   0.863   2.309   0.220  0.0757 -0.6478  0.4359
  551SOL    HW1 2202   0.953   2.325   0.189  0.6352 -1.3094 -2.7174
  551SOL    HW2 2203   0.820   2.267   0.144 -0.9392 -2.1325  1.0717
  551SOL     MW 2204   0.869   2.306   0.206  0.0156 -0.9310  0.1037
  552SOL     OW 2205   1.695   1.734   2.253  0.1825  0.2369  0.5797
  552SOL    HW1 2206   1.622   1.673   2.276 -0.2765 -1.4632 -1.0580
  552SOL    HW2 2207   1.749   1.693   2.181  2.4387  0.2550 -2.5538
  552SOL     MW 2208   1.692   1.720   2.247  0.4197  0.0150 -0.0498
  553SOL     OW 2209   1.191   2.292   1.528  0.5301 -0.2009 -0.1757
  553SOL    HW1 2210   1.227   2.201   1.516 -0.4950 -0.3197 -0.9272
  553SOL    HW2 2211   1.256   2.352   1.496 -1.1301  1.8099  1.0912
  553SOL     MW 2212   1.204   2.288   1.523  0.1758  0.0488 -0.1077
  554SOL     OW 2213   0.545   2.810   2.705  0.4955 -0.0647 -0.8458
  554SOL    HW1 2214   0.507   2.884   2.657  0.3293 -2.0103 -0.2051
  554SOL    HW2 2215   0.614   2.782   2.641 -0.5127 -1.8028  1.7544
  554SOL     MW 2216   0.549   2.816   2.690  0.3406 -0.5507 -0.4182
  555SOL     OW 2217   0.575   2.398   2.597 -0.3477  0.0882 -0.0993
  555SOL    HW1 2218   0.573   2.312   2.635  3.0191  1.0633  2.4995
  555SOL    HW2 2219   0.667   2.415   2.569  2.9088 -1.1336 -0.6464
  555SOL     MW 2220   0.587   2.389   2.598  0.5262  0.0556  0.1714
  556SOL     OW 2221   1.061   1.836   0.135  0.0279 -0.4495  0.3582
  556SOL    HW1 2222   1.084   1.835   0.041 -1.0146 -0.1600  0.5061
  556SOL    HW2 2223   1.146   1.853   0.182 -0.5447 -1.0065 -2.0777
  556SOL     MW 2224   1.075   1.838   0.129 -0.1852 -0.4848  0.0563
  557SOL     OW 2225   1.043   2.701   0.443  0.2827  0.0019  0.2795
  557SOL    HW1 2226   1.122   2.712   0.383  1.5658  0.8280 -0.9427
  557SOL    HW2 2227   0.975   2.766   0.425 -0.8173 -0.0201  2.8456
  557SOL     MW 2228   1.044   2.711   0.432  0.3069  0.1080  0.4568
  558SOL     OW 2229   0.258   2.105   3.077 -0.1511 -0.0588 -0.1055
  558SOL    HW1 2230   0.226   2.019   3.086  2.2831  3.2524 -1.0205
  558SOL    HW2 2231   0.204   2.166   3.124  0.8088  1.5346  1.3218
  558SOL     MW 2232   0.246   2.102   3.085  0.2967  0.5883 -0.0379
  559SOL     OW 2233   1.234   2.255   2.057 -0.5236  0.2919  0.2826
  559SOL    HW1 2234   1.192   2.344   2.056 -0.2736 -0.6119  0.0663
  559SOL    HW2 2235   1.173   2.195   2.103 -3.2995 -0.2700  1.2874
  559SOL     MW 2236   1.220   2.259   2.063 -0.8568  0.0985  0.3866
  560SOL     OW 2237   1.954   2.983   0.047 -0.0333  0.2919 -0.2607
  560SOL    HW1 2238   2.021   2.998  -0.016 -0.0300  1.7393  0.9367
  560SOL    HW2 2239   1.885   2.943  -0.007  0.0009  0.1819 -2.9884
  560SOL     MW 2240   1.954   2.980   0.032 -0.0284  0.4683 -0.4626
  561SOL     OW 2241   0.468   2.073   0.152  0.3993  0.3396  0.1740
  561SOL    HW1 2242   0.399   2.076   0.079 -4.1843  0.5606 -1.4514
  561SOL    HW2 2243   0.485   2.165   0.166 -1.3771 -3.9478 -1.2020
  561SOL     MW 2244   0.461   2.086   0.144 -0.4398 -0.1969 -0.2220
  562SOL     OW 2245   0.855   2.146   2.215  0.1552  0.2480  0.4287
  562SOL    HW1 2246   0.812   2.232   2.247 -0.4993  2.1390 -0.1410
  562SOL    HW2 2247   0.950   2.139   2.241 -1.4491 -1.2682 -0.3597
  562SOL     MW 2248   0.862   2.156   2.223 -0.1428  0.2975  0.2495
  563SOL     OW 2249   1.274   0.285   0.494 -0.0216  0.1374  0.4020
  563SOL    HW1 2250   1.193   0.267   0.444  0.4200 -3.2707  3.3482
  563SOL    HW2 2251   1.272   0.214   0.560 -1.8821  0.6162 -0.3837
  563SOL     MW 2252   1.263   0.273   0.496 -0.2088 -0.2491  0.6870
  564SOL     OW 2253   0.994   2.586   2.322  0.1760  0.3648 -0.3271
  564SOL    HW1 2254   1.050   2.539   2.259 -2.7480 -0.9702  1.3396
  564SOL    HW2 2255   1.042   2.664   2.355 -0.2920  1.2155  0.6272
  564SOL     MW 2256   1.008   2.590   2.318 -0.2715  0.3009  0.0187
  565SOL     OW 2257   2.934   2.662   2.714  0.2916 -0.1670  0.1200
  565SOL    HW1 2258   2.975   2.748   2.704  3.8083 -1.2171 -0.7761
  565SOL    HW2 2259   2.865   2.658   2.640 -1.1130  0.2805 -1.3571
  565SOL     MW 2260   2.930   2.673   2.703  0.5703 -0.2465 -0.1932
  566SOL     OW 2261   2.187   2.031   2.366 -0.1986 -0.2280 -0.1647
  566SOL    HW1 2262   2.220   2.039   2.275  1.7811  0.5708 -0.7895
  566SOL    HW2 2263   2.252   2.092   2.406  1.8529 -1.0130  0.7392
  566SOL     MW 2264   2.200   2.040   2.359  0.3332 -0.2262 -0.1279
  567SOL     OW 2265   1.178   2.902   0.089  0.1826  0.5716 -0.0890
  567SOL    HW1 2266   1.217   2.985   0.122  2.3220  2.2343 -1.9462
  567SOL    HW2 2267   1.187   2.903  -0.007  1.1403 -2.0421 -1.0205
  567SOL     MW 2268   1.184   2.913   0.081  0.5912  0.4461 -0.4569
  568SOL     OW 2269   1.623   2.128   2.798 -0.3422  0.4224  0.0224
  568SOL    HW1 2270   1.686   2.197   2.809  0.7219 -0.6575  0.8248
  568SOL    HW2 2271   1.677   2.056   2.750 -0.3620  0.3850  0.5217
  568SOL     MW 2272   1.638   2.128   2.793 -0.2044  0.2749  0.1941
  569SOL     OW 2273   0.084   2.204   2.465  0.9369 -0.4825 -0.3770
  569SOL    HW1 2274   0.030   2.264   2.404 -0.8080  1.5376 -1.2895
  569SOL    HW2 2275   0.114   2.266   2.537  2.9484 -0.6764 -1.6331
  569SOL     MW 2276   0.081   2.220   2.467  0.9721 -0.2416 -0.6631
  570SOL     OW 2277   1.528   0.358   0.455 -0.2874  0.4176  0.0423
  570SOL    HW1 2278   1.437   0.332   0.476  0.7446 -0.3357 -1.5200
  570SOL    HW2 2279   1.576   0.381   0.533  1.9040 -2.8964  0.8778
  570SOL     MW 2280   1.523   0.358   0.468  0.1379 -0.1190 -0.0536
  571SOL     OW 2281   1.455   2.448   2.016  0.4331 -0.5736 -0.2368
  571SOL    HW1 2282   1.443   2.457   2.109  0.1576  0.9132 -2.3744
  571SOL    HW2 2283   1.427   2.357   2.011 -1.5896 -0.2592  2.9529
  571SOL     MW 2284   1.450   2.437   2.028  0.1299 -0.3360 -0.0980
  572SOL     OW 2285   0.917   2.532   3.065  0.0741  0.2155 -0.0061
  572SOL    HW1 2286   0.935   2.607   3.010 -0.6849  2.7162 -1.5614
  572SOL    HW2 2287   0.840   2.559   3.112 -0.1606 -0.5765  0.0230
  572SOL     MW 2288   0.910   2.545   3.064 -0.0570  0.4409 -0.2074
  573SOL     OW 2289   1.115   2.415   0.173  0.3057 -0.2076 -0.1528
  573SOL    HW1 2290   1.175   2.432   0.106  0.2307 -0.0572 -0.3303
  573SOL    HW2 2291   1.133   2.488   0.233 -1.9427 -1.5582 -0.5643
  573SOL     MW 2292   1.125   2.427   0.172 -0.0009 -0.3659 -0.2305
  574SOL     OW 2293   1.249   2.660   0.219 -0.4277  0.2611 -0.4509
  574SOL    HW1 2294   1.316   2.684   0.284  2.4723 -0.8039 -1.4074
  574SOL    HW2 2295   1.231   2.741   0.171 -1.0819 -4.2082 -0.9846
  574SOL     MW 2296   1.256   2.674   0.221 -0.1314 -0.4691 -0.6475
  575SOL     OW 2297   3.051   2.293   1.815 -0.7354  0.1503  0.1119
  575SOL    HW1 2298   3.052   2.204   1.763 -1.7840 -1.5289 -1.3340
  575SOL    HW2 2299   3.129   2.347   1.781 -0.6701  1.7105 -1.7986
  575SOL     MW 2300   3.061   2.288   1.804 -0.8652  0.1346 -0.3309
  576SOL     OW 2301   2.821   1.821   2.050 -0.1361 -0.0775 -0.6539
  576SOL    HW1 2302   2.852   1.872   1.977 -1.4856 -0.5990 -0.9450
  576SOL    HW2 2303   2.729   1.800   2.033 -0.3007 -0.7256 -1.3154
  576SOL     MW 2304   2.813   1.825   2.038 -0.3359 -0.2318 -0.7796
  577SOL     OW 2305   2.060   0.291   0.055 -0.0349 -1.0551 -0.2309
  577SOL    HW1 2306   2.002   0.355   0.017 -1.2940  1.2800  2.2844
  577SOL    HW2 2307   2.000   0.232   0.097  1.3500  1.8869 -1.1089
  577SOL     MW 2308   2.044   0.292   0.056 -0.0183 -0.3588 -0.0149
  578SOL     OW 2309   1.949   2.187   2.350  1.2547 -0.1625  0.0281
  578SOL    HW1 2310   1.863   2.138   2.326  0.7096  1.0727 -0.5652
  578SOL    HW2 2311   2.023   2.127   2.324 -0.2051 -0.6184  0.3570
  578SOL     MW 2312   1.948   2.173   2.343  0.9902 -0.0597 -0.0068
  579SOL     OW 2313   0.830   2.470   2.512  0.2318 -0.7800  0.3029
  579SOL    HW1 2314   0.863   2.422   2.595 -0.4816  0.9090  0.9649
  579SOL    HW2 2315   0.906   2.497   2.462 -0.9889 -0.8148  0.9805
  579SOL     MW 2316   0.844   2.467   2.516 -0.0234 -0.5617  0.4796
  580SOL     OW 2317   0.887   2.856   3.098  0.3684  0.0809  0.6818
  580SOL    HW1 2318   0.972   2.843   3.135 -0.0031  1.3354 -2.2173
  580SOL    HW2 2319   0.891   2.803   3.012  0.5012 -0.4235 -1.9289
  580SOL     MW 2320   0.899   2.847   3.091  0.3369  0.1799 -0.0451
  581SOL     OW 2321   1.106   2.562   1.726  0.1294 -0.7497  0.1511
  581SOL    HW1 2322   1.194   2.590   1.753  0.6630  0.0635 -0.7722
  581SOL    HW2 2323   1.105   2.466   1.716 -0.8329  1.5180 -1.8963
  581SOL     MW 2324   1.117   2.553   1.728  0.0728 -0.3432 -0.2408
  582SOL     OW 2325   3.091   2.878   2.626  0.2097 -0.5192 -0.0362
  582SOL    HW1 2326   3.109   2.957   2.688  2.2387  0.7381 -0.0947
  582SOL    HW2 2327   3.173   2.872   2.582 -0.0674  1.2812  1.2954
  582SOL     MW 2328   3.104   2.888   2.628  0.4408 -0.1158  0.1318
  583SOL     OW 2329   1.948   2.497   2.688 -0.1811 -0.3072 -0.2048
  583SOL    HW1 2330   1.982   2.557   2.612 -0.7308  0.1690 -0.7567
  583SOL    HW2 2331   1.955   2.404   2.664 -0.2968 -0.0494  0.9152
  583SOL     MW 2332   1.954   2.493   2.675 -0.2689 -0.2103 -0.1298
  584SOL     OW 2333   0.155   1.842   2.101  0.0580 -0.0971  0.4040
  584SOL    HW1 2334   0.243   1.845   2.055 -0.8543  0.6341 -1.5648
  584SOL    HW2 2335   0.156   1.907   2.172 -0.4433 -1.2465  0.4451
  584SOL     MW 2336   0.167   1.851   2.104 -0.1285 -0.1523  0.1496
  585SOL     OW 2337   1.453   2.595   0.040 -0.3991  0.2210 -0.1537
  585SOL    HW1 2338   1.412   2.603  -0.049  1.4384 -1.0650  1.4315
  585SOL    HW2 2339   1.399   2.651   0.099 -1.0306  1.7047  2.5931
  585SOL     MW 2340   1.440   2.603   0.036 -0.2400  0.2471  0.4179
  586SOL     OW 2341   1.310   2.985   2.377  0.2563  0.2490 -0.0734
  586SOL    HW1 2342   1.349   2.898   2.358 -1.4653 -0.0661 -0.2240
  586SOL    HW2 2343   1.283   2.984   2.468 -0.6939 -2.5773  0.4807
  586SOL     MW 2344   1.312   2.973   2.386 -0.0962 -0.1655 -0.0201
  587SOL     OW 2345   1.187   1.632   2.191  0.0777 -0.1827  0.1854
  587SOL    HW1 2346   1.189   1.549   2.245 -2.8929 -0.1442  1.1400
  587SOL    HW2 2347   1.194   1.606   2.102  0.1528  2.4585  3.6005
  587SOL     MW 2348   1.188   1.617   2.186 -0.3043  0.1708  0.7619
  588SOL     OW 2349   1.378   2.233   2.721  0.0482 -0.5795 -0.3191
  588SOL    HW1 2350   1.460   2.196   2.747  1.8443 -1.3202  0.8359
  588SOL    HW2 2351   1.301   2.208   2.780  0.4696 -2.1045  0.8390
  588SOL     MW 2352   1.379   2.225   2.732  0.3408 -0.8784 -0.0139
  589SOL     OW 2353   1.339   2.048   0.038 -0.0837 -0.1571  0.1928
  589SOL    HW1 2354   1.339   2.136   0.071 -1.5646 -0.8413  0.6390
  589SOL    HW2 2355   1.335   1.996   0.122 -1.0519  1.5451  3.2912
  589SOL     MW 2356   1.339   2.052   0.053 -0.4068 -0.0228  0.6605
  590SOL     OW 2357   0.477   2.566   2.238 -0.5007  0.3089  0.0182
  590SOL    HW1 2358   0.452   2.551   2.148  0.1558  1.9049 -0.4022
  590SOL    HW2 2359   0.553   2.621   2.229 -2.8419  1.1397 -1.8866
  590SOL     MW 2360   0.484   2.571   2.225 -0.7230  0.6291 -0.2885
  591SOL     OW 2361   2.213   0.662   3.039  0.3583  0.4532 -0.5317
  591SOL    HW1 2362   2.131   0.682   2.997  1.6841  0.9224  1.8054
  591SOL    HW2 2363   2.273   0.693   2.974 -0.1918  1.1531  0.9402
  591SOL     MW 2364   2.210   0.668   3.025  0.4607  0.6075 -0.0292
  592SOL     OW 2365   1.835   2.898   0.845  0.3870  0.6172 -0.2099
  592SOL    HW1 2366   1.858   2.958   0.771 -2.3054  0.2913 -1.6904
  592SOL    HW2 2367   1.879   2.809   0.824 -0.3547 -0.9813  2.7905
  592SOL     MW 2368   1.843   2.894   0.833 -0.0661  0.3633 -0.0093
  593SOL     OW 2369   1.935   0.814   0.883  0.4605  0.1661 -0.9076
  593SOL    HW1 2370   1.848   0.819   0.853  0.1543 -0.7027 -1.9481
  593SOL    HW2 2371   1.946   0.719   0.894 -3.1907 -0.5800 -0.3438
  593SOL     MW 2372   1.925   0.802   0.880 -0.0616 -0.0470 -0.9705
  594SOL     OW 2373   2.723   1.125   1.390 -0.5076  0.1355 -0.8416
  594SOL    HW1 2374   2.813   1.162   1.415 -0.0417  4.1016  2.5638
  594SOL    HW2 2375   2.723   1.092   1.298  3.2331 -0.9907 -0.3298
  594SOL     MW 2376   2.735   1.126   1.381  0.0474  0.5102 -0.3248
  595SOL     OW 2377   0.418   0.970   0.759 -0.4387  0.0982  0.2041
  595SOL    HW1 2378   0.462   1.024   0.683  2.4038 -0.5893 -3.1088
  595SOL    HW2 2379   0.439   1.000   0.845  0.0461 -0.1547  0.1941
  595SOL     MW 2380   0.427   0.981   0.760  0.0003 -0.0258 -0.2343
  596SOL     OW 2381   2.449   1.332   0.580  0.4466  0.4739  0.3020
  596SOL    HW1 2382   2.468   1.419   0.536 -1.9105  3.7637 -0.1033
  596SOL    HW2 2383   2.528   1.315   0.630  0.0959 -0.3429  0.5420
  596SOL     MW 2384   2.462   1.341   0.581  0.0893  0.8002  0.2802
  597SOL     OW 2385   2.222   0.662   1.717 -0.3002 -0.2399 -0.5082
  597SOL    HW1 2386   2.285   0.608   1.767 -2.7241  1.4525 -3.3089
  597SOL    HW2 2387   2.196   0.598   1.650 -1.7258 -2.9162  1.3098
  597SOL     MW 2388   2.227   0.646   1.715 -0.8081 -0.3697 -0.6379
  598SOL     OW 2389   2.610   1.007   2.872 -0.1884 -0.3665  0.1351
  598SOL    HW1 2390   2.635   0.959   2.797  4.5939  1.1766  1.9112
  598SOL    HW2 2391   2.674   1.068   2.901  1.3979 -1.2022  1.3896
  598SOL     MW 2392   2.622   1.008   2.866  0.6519 -0.2731  0.5349
  599SOL     OW 2393   2.923   0.351   2.035 -0.2973  0.4915 -0.4640
  599SOL    HW1 2394   2.917   0.351   2.131 -1.8779 -2.5308 -1.3257
  599SOL    HW2 2395   2.967   0.433   2.014  0.5566  1.2251  0.4596
  599SOL     MW 2396   2.928   0.362   2.045 -0.3932  0.1895 -0.4558
  600SOL     OW 2397   1.868   1.672   0.865 -0.1720  0.3786 -0.3527
  600SOL    HW1 2398   1.903   1.705   0.948  2.3479 -0.1335  0.7890
  600SOL    HW2 2399   1.773   1.695   0.870  1.1922 -0.1574  1.1836
  600SOL     MW 2400   1.860   1.680   0.877  0.3405  0.2403  0.0006
  601SOL     OW 2401   2.492   0.791   0.888  0.0493  0.6661 -0.3274
  601SOL    HW1 2402   2.506   0.776   0.981 -0.4866 -0.4463 -0.7409
  601SOL    HW2 2403   2.404   0.829   0.880  3.2951  1.0065  0.9982
  601SOL     MW 2404   2.482   0.794   0.899  0.4069  0.5642 -0.2070
  602SOL     OW 2405   2.279   1.945   0.696 -0.0134  0.3092 -0.1493
  602SOL    HW1 2406   2.209   1.883   0.725  0.3583 -0.2849  0.0456
  602SOL    HW2 2407   2.233   2.000   0.631  1.7433 -1.0286 -1.1434
  602SOL     MW 2408   2.264   1.944   0.692  0.2674  0.0543 -0.2547
  603SOL     OW 2409   2.991   1.403   1.837  0.3934  0.2357  0.0353
  603SOL    HW1 2410   3.076   1.412   1.871 -1.0804 -0.9326  0.7803
  603SOL    HW2 2411   2.964   1.308   1.849 -2.7113 -1.6260  1.3360
  603SOL     MW 2412   2.999   1.392   1.843 -0.2107 -0.1641  0.3052
  604SOL     OW 2413   2.060   1.551   0.508  0.3785  0.6225 -0.0077
  604SOL    HW1 2414   2.077   1.472   0.556  0.8989 -0.6664  2.1097
  604SOL    HW2 2415   1.979   1.584   0.546 -2.8596 -0.9064  0.0650
  604SOL     MW 2416   2.052   1.545   0.519  0.0200  0.2508  0.2812
  605SOL     OW 2417   2.659   1.547   0.832  0.2011  0.5536  0.6922
  605SOL    HW1 2418   2.595   1.608   0.796  1.4647 -4.4547 -0.7448
  605SOL    HW2 2419   2.600   1.498   0.886 -2.0473 -0.2710  0.0928
  605SOL     MW 2420   2.643   1.548   0.834  0.0712 -0.2160  0.4235
  606SOL     OW 2421   2.535   1.809   1.966 -0.0372 -0.4926  1.1511
  606SOL    HW1 2422   2.440   1.783   1.952  1.3170 -0.2037 -0.5579
  606SOL    HW2 2423   2.586   1.738   1.917 -1.3772 -2.8772  0.3619
  606SOL     MW 2424   2.529   1.796   1.958 -0.0353 -0.7691  0.8215
  607SOL     OW 2425   2.345   1.025   2.972 -0.6316  0.3809  0.6628
  607SOL    HW1 2426   2.429   1.035   2.926 -1.0290 -1.6213 -1.2770
  607SOL    HW2 2427   2.377   1.047   3.058  3.5484  1.5814  0.9286
  607SOL     MW 2428   2.360   1.029   2.977 -0.1325  0.2751  0.4420
  608SOL     OW 2429   1.904   0.254   0.623  0.4128  0.0104 -0.1717
  608SOL    HW1 2430   1.933   0.285   0.534 -1.6366 -1.1937 -3.3878
  608SOL    HW2 2431   1.903   0.160   0.612  0.3874 -1.1092 -2.1525
  608SOL     MW 2432   1.908   0.246   0.609  0.1390 -0.2962 -0.8574
  609SOL     OW 2433   2.139   1.916   3.010  0.7058 -0.0907  0.1124
  609SOL    HW1 2434   2.049   1.892   2.978 -0.2644 -1.1722 -1.3400
  609SOL    HW2 2435   2.153   1.885   3.099 -1.1149 -0.1855  0.9610
  609SOL     MW 2436   2.129   1.909   3.018  0.3375 -0.2459  0.0327
  610SOL     OW 2437   1.824   1.094   1.362  0.4484  0.2319 -0.0379
  610SOL    HW1 2438   1.862   1.036   1.296 -0.5652  2.1447 -1.9214
  610SOL    HW2 2439   1.759   1.034   1.411  1.5458  0.6007  0.2257
  610SOL     MW 2440   1.821   1.078   1.360  0.4595  0.5330 -0.2517
  611SOL     OW 2441   2.478   1.724   0.726 -0.6800 -0.6669 -0.1375
  611SOL    HW1 2442   2.414   1.787   0.720  0.8833 -1.8989  1.5838
  611SOL    HW2 2443   2.477   1.696   0.638  0.8520  2.1440  2.7636
  611SOL     MW 2444   2.470   1.729   0.714 -0.2716 -0.4586  0.4724
  612SOL     OW 2445   2.778   2.799   0.431  0.0144  0.5820  0.4931
  612SOL    HW1 2446   2.819   2.860   0.499 -0.0094  1.9388 -0.5161
  612SOL    HW2 2447   2.856   2.772   0.381  0.5079 -1.1074  1.2739
  612SOL     MW 2448   2.793   2.803   0.433  0.0764  0.5381  0.4630
  613SOL     OW 2449   1.628   1.005   1.102 -0.0259 -0.0482  0.2140
  613SOL    HW1 2450   1.612   1.033   1.193  2.2208 -0.7872 -1.2424
  613SOL    HW2 2451   1.718   0.968   1.099  0.0104 -2.1397 -2.4720
  613SOL     MW 2452   1.638   1.003   1.114  0.2753 -0.4217 -0.3325
  614SOL     OW 2453   1.987   0.551   1.527  0.5619  0.0237 -0.4154
  614SOL    HW1 2454   2.004   0.472   1.583 -3.2925  0.8370  1.3019
  614SOL    HW2 2455   2.016   0.521   1.440  1.1304  0.6164 -2.2689
  614SOL     MW 2456   1.993   0.537   1.523  0.1283  0.2092 -0.4334
  615SOL     OW 2457   2.225   0.828   0.193 -0.1310 -0.1640  0.4731
  615SOL    HW1 2458   2.279   0.783   0.260  0.5669  1.9558 -1.3615
  615SOL    HW2 2459   2.261   0.795   0.111 -1.3556  0.9296  0.1241
  615SOL     MW 2460   2.237   0.818   0.191 -0.2005  0.2600  0.1850
  616SOL     OW 2461   2.614   0.408   1.621 -0.5703  0.4642 -0.5226
  616SOL    HW1 2462   2.545   0.353   1.581 -0.4664  0.9722  2.1175
  616SOL    HW2 2463   2.637   0.475   1.554 -0.7189  1.6866 -1.1278
  616SOL     MW 2464   2.608   0.409   1.607 -0.5762  0.6925 -0.2541
  617SOL     OW 2465   2.913   0.568   1.749  0.5147  0.5716 -0.4770
  617SOL    HW1 2466   2.817   0.591   1.772 -0.8166 -0.2337  1.3805
  617SOL    HW2 2467   2.898   0.473   1.725 -2.0053 -0.2826 -1.8955
  617SOL     MW 2468   2.899   0.558   1.749  0.0065  0.3527 -0.4191
  618SOL     OW 2469   2.638   0.368   1.949 -0.1793  0.1041  0.0287
  618SOL    HW1 2470   2.649   0.449   1.904  1.6877 -1.4008  0.1077
  618SOL    HW2 2471   2.717   0.355   1.999 -0.2076 -0.3195 -0.2312
  618SOL     MW 2472   2.650   0.377   1.950  0.0633 -0.1504  0.0048
  619SOL     OW 2473   2.596   0.896   0.136  0.2256  0.3422  0.2178
  619SOL    HW1 2474   2.686   0.902   0.165  0.0725 -0.0555  0.2879
  619SOL    HW2 2475   2.549   0.866   0.212  0.6036 -1.8184  1.5947
  619SOL     MW 2476   2.602   0.893   0.150  0.2553  0.0047  0.4087
  620SOL     OW 2477   2.290   1.095   0.917 -0.2073 -0.5362 -0.1053
  620SOL    HW1 2478   2.372   1.073   0.872  0.9896 -0.6357  0.8426
  620SOL    HW2 2479   2.244   1.016   0.909 -0.3521 -0.7595  1.4937
  620SOL     MW 2480   2.295   1.082   0.910 -0.0685 -0.5788  0.2307
  621SOL     OW 2481   1.496   2.128   1.990 -0.3072 -0.0993 -0.1295
  621SOL    HW1 2482   1.423   2.113   2.050  1.4769  0.1952  1.4676
  621SOL    HW2 2483   1.566   2.066   2.016 -1.8208 -1.4290 -1.3367
  621SOL     MW 2484   1.496   2.118   2.001 -0.2715 -0.2358 -0.0780
  622SOL     OW 2485   2.635   0.192   0.154  0.1395 -0.4516  0.3326
  622SOL    HW1 2486   2.725   0.186   0.197 -0.2294 -2.8030  0.7397
  622SOL    HW2 2487   2.626   0.097   0.129  0.2882 -3.2795  1.4779
  622SOL     MW 2488   2.645   0.179   0.156  0.1105 -1.1350  0.5374
  623SOL     OW 2489   2.387   2.781   0.845 -0.2514  0.6275  0.1375
  623SOL    HW1 2490   2.429   2.867   0.858 -2.3491  0.1131  0.9914
  623SOL    HW2 2491   2.317   2.769   0.907  2.8992 -2.3734  0.0517
  623SOL     MW 2492   2.383   2.791   0.855 -0.1124  0.1637  0.2389
  624SOL     OW 2493   2.224   1.640   2.979  0.3499  0.4124  0.8503
  624SOL    HW1 2494   2.148   1.601   3.021  1.6297  1.6688  0.1695
  624SOL    HW2 2495   2.205   1.733   2.988 -0.3335 -0.2351 -2.8650
  624SOL     MW 2496   2.211   1.647   2.986  0.4286  0.4927  0.2703
  625SOL     OW 2497   2.206   1.911   1.064 -0.1889 -0.2090  0.2611
  625SOL    HW1 2498   2.264   1.874   1.128  1.9356 -0.3220 -0.1879
  625SOL    HW2 2499   2.195   1.845   0.994 -1.6144 -1.7065 -0.7379
  625SOL     MW 2500   2.212   1.898   1.064 -0.0967 -0.4215  0.0700
  626SOL     OW 2501   0.144   1.561   2.389 -0.1590 -0.3313 -0.1149
  626SOL    HW1 2502   0.078   1.549   2.321  0.7181 -1.3988  0.0543
  626SOL    HW2 2503   0.111   1.516   2.471  2.0457 -3.5229  2.2501
  626SOL     MW 2504   0.131   1.553   2.391  0.2476 -0.8933  0.2195
  627SOL     OW 2505   2.426   0.845   2.546 -0.1591  0.3653  0.0164
  627SOL    HW1 2506   2.377   0.931   2.544  3.2699  0.2271 -0.8093
  627SOL    HW2 2507   2.412   0.809   2.452  1.0848  1.9176 -2.1382
  627SOL     MW 2508   2.417   0.852   2.533  0.4574  0.5519 -0.3769
  628SOL     OW 2509   2.325   1.366   1.377 -0.3930 -0.1109 -0.3277
  628SOL    HW1 2510   2.322   1.300   1.302 -0.6567 -1.4050  2.8160
  628SOL    HW2 2511   2.412   1.401   1.371 -1.9762  0.8222 -0.7184
  628SOL     MW 2512   2.336   1.362   1.366 -0.6367 -0.1585  0.0356
  629SOL     OW 2513   2.003   0.563   1.191 -0.0200 -0.0827 -0.4125
  629SOL    HW1 2514   2.079   0.616   1.174 -1.7610 -0.6733 -1.9736
  629SOL    HW2 2515   1.929   0.621   1.222 -0.3768 -2.0549 -0.1438
  629SOL     MW 2516   2.003   0.578   1.193 -0.2968 -0.4209 -0.5830
  630SOL     OW 2517   2.505   1.813   3.092  0.0329 -0.4090 -0.5273
  630SOL    HW1 2518   2.439   1.842   3.032  0.2444 -1.9189  0.9392
  630SOL    HW2 2519   2.497   1.715   3.097 -0.6454 -4.0360 -1.7556
  630SOL     MW 2520   2.495   1.804   3.085 -0.0287 -1.0867 -0.4959
  631SOL     OW 2521   1.967   1.790   1.608 -0.5158 -0.2191  0.1484
  631SOL    HW1 2522   1.977   1.703   1.662  0.3038  0.7460  0.8412
  631SOL    HW2 2523   1.955   1.765   1.514  1.5206 -1.6236 -4.0387
  631SOL     MW 2524   1.967   1.775   1.603 -0.1390 -0.2771 -0.3126
  632SOL     OW 2525   0.219   2.073   1.575 -0.0851 -0.0426 -0.0390
  632SOL    HW1 2526   0.129   2.058   1.609 -2.3485 -0.4073  0.0811
  632SOL    HW2 2527   0.241   1.989   1.538 -0.0429  3.5247  0.8184
  632SOL     MW 2528   0.210   2.060   1.575 -0.3782  0.3799  0.0900
  633SOL     OW 2529   2.419   0.696   0.372 -0.0913 -0.4982 -0.0368
  633SOL    HW1 2530   2.502   0.690   0.417  1.6628 -0.4529 -2.1153
  633SOL    HW2 2531   2.389   0.604   0.395 -1.9766 -1.4096  2.2530
  633SOL     MW 2532   2.426   0.683   0.381 -0.1086 -0.6125 -0.0089
  634SOL     OW 2533   2.632   3.085   0.619  0.2748  0.4057  0.2123
  634SOL    HW1 2534   2.675   3.172   0.608 -1.2231  0.5700  1.2735
  634SOL    HW2 2535   2.607   3.051   0.533  2.2092 -1.6219  2.5498
  634SOL     MW 2536   2.634   3.092   0.606  0.3324  0.1598  0.6607
  635SOL     OW 2537   2.601   0.117   1.816  0.7074  0.0563 -0.2040
  635SOL    HW1 2538   2.670   0.073   1.768  0.0831  0.1397 -0.6058
  635SOL    HW2 2539   2.625   0.203   1.844  0.3868 -0.7567  0.2922
  635SOL     MW 2540   2.613   0.123   1.813  0.5827 -0.0400 -0.1915
  636SOL     OW 2541   2.915   1.635   0.995 -0.0888  0.3566 -0.4806
  636SOL    HW1 2542   2.819   1.629   0.994 -0.0442 -2.3679 -1.7229
  636SOL    HW2 2543   2.933   1.690   1.068  0.5675 -2.3218  0.0145
  636SOL     MW 2544   2.905   1.641   1.005  0.0037 -0.3563 -0.5792
  637SOL     OW 2545   2.904   1.498   0.711  0.0521 -0.0338  0.2927
  637SOL    HW1 2546   2.964   1.547   0.772 -0.3800  0.8833  2.5227
  637SOL    HW2 2547   2.817   1.510   0.745  1.5803 -0.3311 -1.6576
  637SOL     MW 2548   2.901   1.506   0.724  0.1967  0.0479  0.3296
  638SOL     OW 2549   2.647   0.685   0.527 -0.1521 -0.1854 -0.0457
  638SOL    HW1 2550   2.735   0.652   0.497  0.8077  0.3482  0.6546
  638SOL    HW2 2551   2.650   0.652   0.617 -2.3389  0.4322 -0.2106
  638SOL     MW 2552   2.659   0.677   0.535 -0.3140 -0.0335  0.0250
  639SOL     OW 2553   1.810   3.081   0.637 -0.4787  0.3257  0.6183
  639SOL    HW1 2554   1.735   3.141   0.611 -3.8732  0.0026  0.3859
  639SOL    HW2 2555   1.831   3.030   0.554 -0.4960 -0.5101 -0.6139
  639SOL     MW 2556   1.803   3.083   0.623 -0.9289  0.1728  0.4250
  640SOL     OW 2557   0.382   1.352   0.094 -0.1554 -0.5230 -0.1876
  640SOL    HW1 2558   0.415   1.403   0.020  0.4741  0.5167  0.0588
  640SOL    HW2 2559   0.338   1.272   0.052  0.1779 -1.1360 -0.3185
  640SOL     MW 2560   0.381   1.348   0.079 -0.0284 -0.4667 -0.1723
  641SOL     OW 2561   2.300   0.439   0.383 -0.4649  0.4672 -0.3119
  641SOL    HW1 2562   2.291   0.421   0.290 -1.7867  0.2085  1.6011
  641SOL    HW2 2563   2.366   0.372   0.411  0.6881 -1.5106  0.5319
  641SOL     MW 2564   2.308   0.428   0.374 -0.4872  0.1721  0.0519
  642SOL     OW 2565   0.018   0.022   0.509  0.7907  0.3079  0.3798
  642SOL    HW1 2566  -0.008   0.113   0.493  0.8099 -0.0250 -0.6895
  642SOL    HW2 2567  -0.054  -0.024   0.546  1.5450 -0.5600 -0.0377
  642SOL     MW 2568   0.005   0.028   0.512  0.8927  0.1494  0.1836
  643SOL     OW 2569   2.024   0.297   1.650 -0.1099  0.1044  0.2960
  643SOL    HW1 2570   2.109   0.282   1.689 -0.8873  2.0602  3.5228
  643SOL    HW2 2571   2.014   0.246   1.571 -1.9215 -0.8794  0.8406
  643SOL     MW 2572   2.034   0.288   1.645 -0.4515  0.2327  0.7936
  644SOL     OW 2573   2.719   1.863   0.957 -0.0392 -0.2705  0.4326
  644SOL    HW1 2574   2.679   1.834   1.036  1.1492 -1.2681 -0.9066
  644SOL    HW2 2575   2.656   1.840   0.890  0.8887 -0.1169  2.3232
  644SOL     MW 2576   2.705   1.856   0.959  0.2400 -0.3818  0.5054
  645SOL     OW 2577   2.761   0.900   0.635  0.3315  0.0962  0.0135
  645SOL    HW1 2578   2.826   0.874   0.697  0.0158  0.1848  1.4091
  645SOL    HW2 2579   2.731   0.820   0.592  3.0070 -0.1204  0.1858
  645SOL     MW 2580   2.766   0.886   0.638  0.6429  0.0793  0.2204
  646SOL     OW 2581   0.164   2.282   0.868  0.4127 -0.8436 -0.0882
  646SOL    HW1 2582   0.186   2.191   0.875  2.7572 -0.2704  1.6512
  646SOL    HW2 2583   0.099   2.287   0.793  1.9908  1.7913  1.8488
  646SOL     MW 2584   0.158   2.271   0.859  0.9302 -0.4203  0.3969
  647SOL     OW 2585   2.753   0.547   2.983 -0.2968 -0.5327 -0.3406
  647SOL    HW1 2586   2.699   0.475   2.988  1.0112 -0.4291 -1.3483
  647SOL    HW2 2587   2.690   0.620   2.981  1.0515 -2.7330  1.6537
  647SOL     MW 2588   2.737   0.547   2.983  0.0537 -0.8094 -0.2104
  648SOL     OW 2589   2.215   0.739   1.115 -0.1760 -0.4295  1.4085
  648SOL    HW1 2590   2.217   0.798   1.036  0.7657  0.5116 -1.2027
  648SOL    HW2 2591   2.254   0.791   1.184  1.3834 -1.7063  0.9134
  648SOL     MW 2592   2.220   0.754   1.114  0.1540 -0.4738  0.9986
  649SOL     OW 2593   2.369   2.692   1.203 -0.2977  0.4335  0.2754
  649SOL    HW1 2594   2.450   2.739   1.226 -0.2089 -0.8513 -0.1347
  649SOL    HW2 2595   2.381   2.596   1.190 -0.6282  2.0959  0.4132
  649SOL     MW 2596   2.381   2.686   1.205 -0.3296  0.4833  0.2395
  650SOL     OW 2597   2.752   0.239   0.608 -0.1509 -0.5050 -0.2304
  650SOL    HW1 2598   2.756   0.292   0.686 -0.1994  1.4028  0.7914
  650SOL    HW2 2599   2.833   0.255   0.561  0.0006 -2.7112  0.4808
  650SOL     MW 2600   2.763   0.248   0.612 -0.1373 -0.5444 -0.0017
  651SOL     OW 2601   2.982   0.307   0.847 -0.3797  0.3466 -0.1329
  651SOL    HW1 2602   3.026   0.376   0.799 -0.8333 -1.3842  0.8338
  651SOL    HW2 2603   2.908   0.355   0.888 -1.0003  1.2083  1.9426
  651SOL     MW 2604   2.978   0.323   0.846 -0.5214  0.2319  0.2685
  652SOL     OW 2605   2.375   1.416   2.948 -0.5926  0.0745 -0.4976
  652SOL    HW1 2606   2.453   1.421   2.889  0.8911 -2.5538 -2.9889
  652SOL    HW2 2607   2.326   1.496   2.937 -1.0073 -1.2870 -2.4391
  652SOL     MW 2608   2.379   1.427   2.939 -0.4516 -0.4519 -1.0825
  653SOL     OW 2609   1.971   0.375   0.374  0.1640  0.7013 -0.1756
  653SOL    HW1 2610   1.953   0.320   0.300 -0.9789 -0.1707  2.2281
  653SOL    HW2 2611   2.065   0.391   0.367 -2.6482  2.9100 -1.4829
  653SOL     MW 2612   1.981   0.370   0.363 -0.3579  0.8776 -0.0309
  654SOL     OW 2613   2.458   1.019   0.715  0.1314 -0.1694  0.2017
  654SOL    HW1 2614   2.373   1.018   0.667  0.4568 -0.8046  1.4652
  654SOL    HW2 2615   2.504   0.940   0.683 -1.5049 -2.5070 -1.4023
  654SOL     MW 2616   2.453   1.008   0.704 -0.0415 -0.5616  0.1568
  655SOL     OW 2617   3.055   0.918   0.436 -0.6617 -0.2079 -0.2248
  655SOL    HW1 2618   3.101   0.941   0.516 -0.1727  1.2365 -0.6679
  655SOL    HW2 2619   3.006   0.833   0.455 -0.1782 -0.2979  0.7718
  655SOL     MW 2620   3.054   0.909   0.449 -0.5334 -0.0292 -0.1518
  656SOL     OW 2621   1.984   2.784   1.207 -0.4928  0.5443  0.2723
  656SOL    HW1 2622   1.986   2.866   1.264 -3.7804  3.6818  1.8428
  656SOL    HW2 2623   2.007   2.713   1.263 -1.7956 -2.5400  1.3272
  656SOL     MW 2624   1.987   2.785   1.222 -1.0984  0.5513  0.6187
  657SOL     OW 2625   0.225   1.557   1.232  0.3422 -0.5923 -0.9362
  657SOL    HW1 2626   0.133   1.570   1.249  0.1269 -3.0667  1.3658
  657SOL    HW2 2627   0.254   1.612   1.162  1.0449  0.0415  1.8451
  657SOL     MW 2628   0.216   1.566   1.225  0.4065 -0.8351 -0.2655
  658SOL     OW 2629   2.693   1.384   0.257  0.3399  0.6902  0.2064
  658SOL    HW1 2630   2.632   1.317   0.292  2.0884 -0.9302  0.6870
  658SOL    HW2 2631   2.712   1.436   0.331 -0.4898 -1.4461 -0.1922
  658SOL     MW 2632   2.687   1.382   0.271  0.4612  0.1945  0.2172
  659SOL     OW 2633   2.214   1.557   1.043  0.1773  0.1184  0.4509
  659SOL    HW1 2634   2.313   1.539   1.041  3.5259 -1.7858  1.0948
  659SOL    HW2 2635   2.187   1.571   1.137 -0.3051 -1.9552 -3.3487
  659SOL     MW 2636   2.224   1.557   1.055  0.5555 -0.4064  0.0345
  660SOL     OW 2637   2.013   1.532   1.725 -0.2768  0.2047 -0.4903
  660SOL    HW1 2638   2.020   1.540   1.819  3.3181  2.0068 -4.0334
  660SOL    HW2 2639   1.975   1.447   1.701  3.6095  3.9513 -1.2619
  660SOL     MW 2640   2.009   1.521   1.734  0.7103  0.9368 -1.0596
  661SOL     OW 2641   2.341   1.110   0.152  0.0425  0.9640  0.1686
  661SOL    HW1 2642   2.418   1.118   0.213 -1.8695 -0.1792 -0.1103
  661SOL    HW2 2643   2.303   1.027   0.168  0.4134 -0.4419  0.2339
  661SOL     MW 2644   2.346   1.100   0.162 -0.1608  0.6276  0.1404
  662SOL     OW 2645   2.532   3.021   0.858  0.0763  0.1397 -0.2048
  662SOL    HW1 2646   2.492   3.092   0.914 -0.1278  0.6400  2.7868
  662SOL    HW2 2647   2.564   3.064   0.778 -0.7357  0.4895  0.4089
  662SOL     MW 2648   2.531   3.036   0.854 -0.0578  0.2518  0.2709
  663SOL     OW 2649   2.803   1.550   0.447 -0.2853  0.1464 -0.5818
  663SOL    HW1 2650   2.891   1.574   0.403  0.7991 -1.5838 -0.8893
  663SOL    HW2 2651   2.833   1.553   0.537 -0.6304  0.7090 -0.0386
  663SOL     MW 2652   2.818   1.554   0.453 -0.1877 -0.0077 -0.5507
  664SOL     OW 2653   2.472   1.572   1.583  0.2212  0.0008 -0.7494
  664SOL    HW1 2654   2.442   1.661   1.570  1.4700  2.1222 -0.6097
  664SOL    HW2 2655   2.402   1.526   1.626  0.2680 -2.9596 -0.0255
  664SOL     MW 2656   2.459   1.577   1.587  0.3922 -0.1099 -0.6355
  665SOL     OW 2657   2.889   0.793   2.030 -0.0973 -0.0634  0.3865
  665SOL    HW1 2658   2.891   0.832   1.944  0.2978  1.2312  1.0376
  665SOL    HW2 2659   2.958   0.724   2.037 -1.6635 -3.2375 -1.6517
  665SOL     MW 2660   2.899   0.789   2.019 -0.2518 -0.3114  0.2035
  666SOL     OW 2661   2.825   2.981   1.689 -0.1461 -0.1487 -0.2249
  666SOL    HW1 2662   2.819   2.963   1.597  0.8250  1.5635  0.8410
  666SOL    HW2 2663   2.768   2.911   1.729 -0.6665  2.7504 -0.0762
  666SOL     MW 2664   2.816   2.969   1.682 -0.0866  0.4597 -0.0646
  667SOL     OW 2665   1.937   2.690   1.654 -0.2324  0.3760 -0.2755
  667SOL    HW1 2666   1.979   2.624   1.707 -0.7736  0.0763 -0.9446
  667SOL    HW2 2667   2.012   2.745   1.629 -1.8595  0.1983  0.2624
  667SOL     MW 2668   1.952   2.688   1.658 -0.5185  0.3130 -0.2928
  668SOL     OW 2669   2.724   0.641   0.795  0.5824 -0.6553  0.0775
  668SOL    HW1 2670   2.788   0.645   0.867 -0.7248  2.3907  1.6767
  668SOL    HW2 2671   2.650   0.695   0.837  2.5435 -0.4460 -0.3451
  668SOL     MW 2672   2.723   0.649   0.810  0.6687 -0.2258  0.2327
  669SOL     OW 2673   0.153   0.915   0.716 -0.4084 -0.1863  0.2032
  669SOL    HW1 2674   0.089   0.984   0.747  0.4681  0.0578  0.6590
  669SOL    HW2 2675   0.240   0.949   0.746  3.3726  2.5661 -1.0335
  669SOL     MW 2676   0.156   0.929   0.724  0.2061  0.2091  0.1001
  670SOL     OW 2677   2.866   0.283   0.257  0.8221 -0.1570 -0.1343
  670SOL    HW1 2678   2.900   0.244   0.177 -0.3506  0.2711 -0.4573
  670SOL    HW2 2679   2.855   0.375   0.234  2.0099  1.3850  0.9819
  670SOL     MW 2680   2.869   0.290   0.243  0.8241  0.1030 -0.0297
  671SOL     OW 2681   2.179   0.013   1.613 -0.3224 -0.2918 -0.1915
  671SOL    HW1 2682   2.154   0.041   1.524  0.7987  2.0752 -0.1772
  671SOL    HW2 2683   2.091  -0.010   1.648 -0.0138  2.9973  3.8942
  671SOL     MW 2684   2.164   0.014   1.606 -0.1337  0.4545  0.3494
  672SOL     OW 2685   1.891   1.710   1.365 -0.4988  0.1502  0.4222
  672SOL    HW1 2686   1.809   1.742   1.390  0.7948 -0.8191 -1.0482
  672SOL    HW2 2687   1.905   1.747   1.274  2.0398  0.4502 -1.3293
  672SOL     MW 2688   1.882   1.719   1.356  0.0069  0.0619 -0.0029
  673SOL     OW 2689   2.785   1.118   0.477  0.6626 -0.4299  0.2037
  673SOL    HW1 2690   2.786   1.027   0.515  0.6088  0.3297 -0.8078
  673SOL    HW2 2691   2.867   1.173   0.496  1.0373  0.1568 -3.5550
  673SOL     MW 2692   2.796   1.113   0.485  0.7049 -0.2522 -0.4257
  674SOL     OW 2693   2.436   0.013   1.284  0.9102 -0.3069 -0.0121
  674SOL    HW1 2694   2.427   0.031   1.189 -0.6346  0.5823  1.4462
  674SOL    HW2 2695   2.474  -0.072   1.285  0.2924  1.9761 -1.9702
  674SOL     MW 2696   2.440   0.004   1.272  0.6249  0.1116 -0.0780
  675SOL     OW 2697   2.959   1.038   1.099  0.0834  0.7807  0.1397
  675SOL    HW1 2698   3.016   0.974   1.143  1.3456 -2.5259 -1.7413
  675SOL    HW2 2699   2.988   1.050   1.004 -2.6287  1.4465 -1.7624
  675SOL     MW 2700   2.970   1.031   1.093 -0.1079  0.4323 -0.3594
  676SOL     OW 2701   2.843   1.496   1.644 -0.6314 -0.0250 -0.1227
  676SOL    HW1 2702   2.795   1.414   1.644  3.0095  2.0963  1.0273
  676SOL    HW2 2703   2.898   1.477   1.717  0.2851 -3.7750 -1.4190
  676SOL     MW 2704   2.843   1.483   1.654 -0.0301 -0.2399 -0.1420
  677SOL     OW 2705   2.479   0.845   1.849  0.3623 -0.1811  0.3357
  677SOL    HW1 2706   2.436   0.845   1.762  0.9956 -1.1413  0.2299
  677SOL    HW2 2707   2.440   0.911   1.907 -3.6504  1.6027  2.5890
  677SOL     MW 2708   2.468   0.854   1.845 -0.0836 -0.0725  0.6190
  678SOL     OW 2709   2.509   1.582   0.465 -0.3425 -0.3988 -0.3411
  678SOL    HW1 2710   2.426   1.605   0.423 -0.3085  1.9422 -1.1204
  678SOL    HW2 2711   2.576   1.645   0.441  0.3436  1.7636 -1.1296
  678SOL     MW 2712   2.507   1.593   0.456 -0.2475  0.1954 -0.5479
  679SOL     OW 2713   2.399   0.496   1.179  0.4670  0.0387 -0.0134
  679SOL    HW1 2714   2.325   0.437   1.154  0.8553  2.1890 -3.4006
  679SOL    HW2 2715   2.360   0.584   1.162 -1.4328  0.4115 -0.7058
  679SOL     MW 2716   2.385   0.500   1.173  0.2676  0.3716 -0.5517
  680SOL     OW 2717   2.408   0.254   1.475 -0.1327 -0.0290 -0.2518
  680SOL    HW1 2718   2.364   0.214   1.552  1.0544  2.5763 -1.2424
  680SOL    HW2 2719   2.395   0.199   1.402 -0.1063  0.7946 -1.4492
  680SOL     MW 2720   2.401   0.241   1.476  0.0274  0.4234 -0.5405
  681SOL     OW 2721   0.276   0.491   1.566  0.4571  0.2717  0.1429
  681SOL    HW1 2722   0.258   0.403   1.612  0.1465 -0.1017 -1.2714
  681SOL    HW2 2723   0.369   0.497   1.565 -0.2168 -1.6450 -0.6965
  681SOL     MW 2724   0.286   0.480   1.572  0.3272 -0.0304 -0.1545
  682SOL     OW 2725   0.098   3.004   1.476 -0.0233  0.0430 -0.3432
  682SOL    HW1 2726   0.122   3.096   1.453 -4.1248 -3.3641  0.7949
  682SOL    HW2 2727   0.053   2.998   1.561  1.7870  2.2480  0.7783
  682SOL     MW 2728   0.096   3.015   1.484 -0.3256 -0.1156 -0.0451
  683SOL     OW 2729   1.969   0.809   2.991  0.1978 -0.0308  0.6189
  683SOL    HW1 2730   1.876   0.796   2.955 -2.3369  0.0642  0.3310
  683SOL    HW2 2731   1.961   0.893   3.043  0.8044  2.1684  2.0328
  683SOL     MW 2732   1.956   0.819   2.993 -0.0566  0.2719  0.7675
  684SOL     OW 2733   2.120   1.741   0.791  0.6303  0.1853  0.0277
  684SOL    HW1 2734   2.030   1.714   0.780  0.1410 -1.3478 -0.0181
  684SOL    HW2 2735   2.157   1.659   0.815 -1.2752  0.5159  0.7962
  684SOL     MW 2736   2.113   1.727   0.792  0.3143  0.0266  0.1231
  685SOL     OW 2737   2.620   1.738   1.191 -0.7235  0.4242  0.3856
  685SOL    HW1 2738   2.669   1.714   1.268 -0.2528 -1.4309 -2.3543
  685SOL    HW2 2739   2.578   1.662   1.163 -0.3916  2.9680 -1.3397
  685SOL     MW 2740   2.621   1.725   1.198 -0.6176  0.5150 -0.2035
  686SOL     OW 2741   2.939   0.707   1.530 -0.1928 -0.5098  0.4538
  686SOL    HW1 2742   2.930   0.669   1.618 -1.1375 -0.6779  0.8996
  686SOL    HW2 2743   3.025   0.685   1.500 -1.8482  0.2346  1.0708
  686SOL     MW 2744   2.949   0.699   1.538 -0.5359 -0.4338  0.5940
  687SOL     OW 2745   2.173   0.340   1.185 -0.5578  0.0127 -0.1831
  687SOL    HW1 2746   2.152   0.268   1.126 -0.1250 -0.5220 -1.4010
  687SOL    HW2 2747   2.097   0.393   1.197 -1.2843 -0.9048 -0.9824
  687SOL     MW 2748   2.160   0.338   1.179 -0.5966 -0.1789 -0.4492
  688SOL     OW 2749   2.350   0.541   1.454 -0.0978  0.6264 -0.7529
  688SOL    HW1 2750   2.378   0.460   1.490 -2.4538  0.0807 -0.8113
  688SOL    HW2 2751   2.372   0.526   1.363 -0.1139 -2.5889 -0.4581
  688SOL     MW 2752   2.357   0.528   1.447 -0.4108  0.1302 -0.7217
  689SOL     OW 2753   2.550   0.756   2.988 -0.2326  0.0416 -0.2180
  689SOL    HW1 2754   2.548   0.834   2.937  0.2195 -2.2851  0.2606
  689SOL    HW2 2755   2.564   0.790   3.080  0.0346  1.6435  1.2907
  689SOL     MW 2756   2.552   0.771   2.994 -0.1377 -0.0541  0.0442
  690SOL     OW 2757   2.033   1.015   1.995 -0.4971 -0.3954  0.1676
  690SOL    HW1 2758   1.987   0.928   1.983 -1.7465  0.4374 -1.3928
  690SOL    HW2 2759   2.091   1.013   1.922 -0.3835  0.4399  0.4811
  690SOL     MW 2760   2.035   1.003   1.984 -0.6470 -0.1753  0.0031
  691SOL     OW 2761   2.439   0.329   0.840  0.4319 -0.6561 -0.4730
  691SOL    HW1 2762   2.525   0.368   0.854 -1.5269  0.1275  1.5514
  691SOL    HW2 2763   2.375   0.396   0.859  1.5221  0.0596  1.3004
  691SOL     MW 2764   2.442   0.343   0.844  0.3173 -0.4583  0.0281
  692SOL     OW 2765   2.770   1.653   1.433 -0.2912  0.1868 -0.2885
  692SOL    HW1 2766   2.791   1.608   1.514 -3.8089  1.2897  2.0994
  692SOL    HW2 2767   2.814   1.743   1.451  0.2552 -2.8652 -0.6437
  692SOL     MW 2768   2.779   1.659   1.446 -0.6832 -0.0704 -0.0203
  693SOL     OW 2769   2.291   0.453   0.066  0.0662 -0.8661  0.4150
  693SOL    HW1 2770   2.212   0.402   0.042 -2.8125 -0.1178 -1.2330
  693SOL    HW2 2771   2.258   0.536   0.018  1.1356 -0.9517  0.1840
  693SOL     MW 2772   2.276   0.457   0.057 -0.1725 -0.7787  0.1671
  694SOL     OW 2773   1.981   1.301   1.216  0.1432  0.0547  0.1602
  694SOL    HW1 2774   2.068   1.272   1.201 -1.7015 -0.4289 -0.5296
  694SOL    HW2 2775   1.931   1.221   1.223  2.1666  0.2913 -0.3023
  694SOL     MW 2776   1.986   1.287   1.215  0.1668  0.0221  0.0082
  695SOL     OW 2777   3.015   1.500   1.310 -0.5332 -0.5895 -0.2966
  695SOL    HW1 2778   2.979   1.455   1.230 -1.7031 -1.8116  0.0663
  695SOL    HW2 2779   2.947   1.549   1.358 -2.6730  0.0790  0.1581
  695SOL     MW 2780   3.002   1.501   1.306 -0.9699 -0.6625 -0.1887
  696SOL     OW 2781   2.015   1.391   0.934 -0.0394  0.5404 -0.5332
  696SOL    HW1 2782   2.094   1.424   0.981 -1.2856 -0.5410  3.4967
  696SOL    HW2 2783   1.961   1.357   1.006  0.5273 -2.9684 -0.3809
  696SOL     MW 2784   2.018   1.391   0.949 -0.1290 -0.0653  0.0186
  697SOL     OW 2785   2.876   0.922   2.270  0.2095 -0.4197  0.3225
  697SOL    HW1 2786   2.834   1.009   2.243 -2.7751  1.1934  1.1147
  697SOL    HW2 2787   2.898   0.881   2.188 -1.4956  1.7163  1.2048
  697SOL     MW 2788   2.874   0.928   2.255 -0.4092  0.0749  0.5434
  698SOL     OW 2789   2.544   0.373   3.081  0.0530  0.6282  0.3504
  698SOL    HW1 2790   2.460   0.411   3.117  2.5639 -0.5446  0.3760
  698SOL    HW2 2791   2.571   0.311   3.149 -3.3870  1.0490  1.1022
  698SOL     MW 2792   2.536   0.370   3.095 -0.0696  0.5290  0.4529
  699SOL     OW 2793   1.852   1.620   2.062  0.0740 -0.3616 -0.5395
  699SOL    HW1 2794   1.831   1.525   2.060  0.9229  1.0451  1.3454
  699SOL    HW2 2795   1.949   1.612   2.062 -0.4333 -1.1615  1.0376
  699SOL     MW 2796   1.862   1.606   2.062  0.1191 -0.2815 -0.0827
  700SOL     OW 2797   2.738   0.876   1.513 -0.0917 -0.4861 -0.5794
  700SOL    HW1 2798   2.768   0.959   1.469 -3.4698  0.5981  0.9257
  700SOL    HW2 2799   2.821   0.822   1.513  1.5672  2.3876 -2.0196
  700SOL     MW 2800   2.753   0.880   1.507 -0.3186  0.0361 -0.5708
  701SOL     OW 2801   1.669   1.266   2.623  0.2584  0.0947 -0.2413
  701SOL    HW1 2802   1.767   1.274   2.628  0.4836  0.1982 -1.1768
  701SOL    HW2 2803   1.639   1.337   2.687  0.5903  0.6851  0.8213
  701SOL     MW 2804   1.678   1.276   2.632  0.3319  0.1862 -0.2245
  702SOL     OW 2805   2.208   0.475   0.788 -0.2431 -0.2723  0.7410
  702SOL    HW1 2806   2.201   0.390   0.749  0.7512  4.3230  1.5778
  702SOL    HW2 2807   2.249   0.529   0.720 -0.4347 -1.8995 -0.5186
  702SOL     MW 2808   2.212   0.471   0.774 -0.1372  0.1193  0.6852
  703SOL     OW 2809   2.655   1.283   0.978 -0.1141  0.0883  0.3986
  703SOL    HW1 2810   2.670   1.271   0.880  1.1044  3.5771 -1.1910
  703SOL    HW2 2811   2.656   1.193   1.012  0.3897 -1.0763  1.6075
  703SOL     MW 2812   2.657   1.269   0.970  0.1131  0.3949  0.3484
  704SOL     OW 2813   0.027   1.281   0.271  0.6866 -0.4888  0.3070
  704SOL    HW1 2814  -0.057   1.255   0.238  2.6133 -2.2286  0.0318
  704SOL    HW2 2815   0.090   1.218   0.236  0.0500  1.0991  1.7307
  704SOL     MW 2816   0.024   1.270   0.262  0.8568 -0.5088  0.4586
  705SOL     OW 2817   2.192   1.593   1.304 -0.4624 -0.1479 -0.3935
  705SOL    HW1 2818   2.111   1.580   1.347  1.6391 -0.0704 -1.5651
  705SOL    HW2 2819   2.239   1.516   1.337 -3.2599  1.6068  0.1297
  705SOL     MW 2820   2.188   1.581   1.314 -0.5542  0.0938 -0.4790
  706SOL     OW 2821   2.997   1.239   0.593 -0.2369  0.0957 -0.7585
  706SOL    HW1 2822   3.080   1.224   0.551 -0.8899  0.8349 -2.8530
  706SOL    HW2 2823   3.002   1.336   0.589  3.0762 -1.0151  0.2566
  706SOL     MW 2824   3.009   1.250   0.587  0.1141  0.0466 -0.9009
  707SOL     OW 2825   2.433   0.119   1.022 -0.0970 -0.1621 -0.0511
  707SOL    HW1 2826   2.446   0.205   0.981 -1.1153 -1.7206  0.4354
  707SOL    HW2 2827   2.341   0.105   1.010  0.7922  0.5807 -0.8646
  707SOL     MW 2828   2.423   0.129   1.015 -0.1140 -0.2697 -0.0942
  708SOL     OW 2829   2.535   1.526   0.070  0.1554  0.2866 -0.0720
  708SOL    HW1 2830   2.577   1.473   0.138  0.1530  1.9233  1.2541
  708SOL    HW2 2831   2.461   1.471   0.033  0.4849 -1.2338 -1.5078
  708SOL     MW 2832   2.531   1.512   0.074  0.1985  0.3019 -0.0865
  709SOL     OW 2833   1.753   1.732   0.130 -0.3926  0.3020 -0.6231
  709SOL    HW1 2834   1.754   1.662   0.064  0.1707  1.1809  2.6877
  709SOL    HW2 2835   1.676   1.714   0.188 -1.6777  3.3045  2.1011
  709SOL     MW 2836   1.743   1.721   0.129 -0.4879  0.8141  0.1731
  710SOL     OW 2837   2.241   1.188   1.173  0.1015 -0.3219 -0.3904
  710SOL    HW1 2838   2.259   1.178   1.078 -0.9653  2.7147  3.1132
  710SOL    HW2 2839   2.218   1.102   1.216 -1.3260 -0.4630  1.4680
  710SOL     MW 2840   2.240   1.175   1.166 -0.2276  0.0601  0.3171
  711SOL     OW 2841   2.347   0.185   1.723 -0.0206  0.6519  0.1573
  711SOL    HW1 2842   2.440   0.152   1.742 -0.6198  2.0497 -2.0762
  711SOL    HW2 2843   2.293   0.110   1.691 -3.0049  4.0599  0.7297
  711SOL     MW 2844   2.352   0.170   1.721 -0.4934  1.2860 -0.0618
  712SOL     OW 2845   1.602   0.606   3.098  0.3250 -0.4106 -0.1495
  712SOL    HW1 2846   1.635   0.682   3.043  2.2331  0.2186  0.2551
  712SOL    HW2 2847   1.514   0.605   3.074  0.4836 -0.6449 -0.0468
  712SOL     MW 2848   1.595   0.616   3.087  0.5977 -0.3585 -0.0826
  713SOL     OW 2849   2.590   0.782   1.136 -0.0358 -0.2568  0.2788
  713SOL    HW1 2850   2.647   0.699   1.135 -0.3946  0.1732 -2.7219
  713SOL    HW2 2851   2.557   0.778   1.226 -0.6242  1.5608 -0.8459
  713SOL     MW 2852   2.593   0.770   1.148 -0.1608  0.0397 -0.2655
  714SOL     OW 2853   2.270   0.173   2.006  0.2661 -0.2880 -0.3052
  714SOL    HW1 2854   2.348   0.145   2.054 -0.1663  1.8193 -0.0040
  714SOL    HW2 2855   2.300   0.199   1.916 -3.2648  0.7367  1.1925
  714SOL     MW 2856   2.284   0.172   2.000 -0.2568  0.1252 -0.0679
  715SOL     OW 2857   1.773   1.943   1.730  0.0797 -0.2591 -0.4443
  715SOL    HW1 2858   1.845   1.907   1.683 -1.1389 -0.6846 -2.0400
  715SOL    HW2 2859   1.761   1.872   1.795 -1.3533 -1.5620  0.8408
  715SOL     MW 2860   1.781   1.929   1.732 -0.2701 -0.4871 -0.4853
  716SOL     OW 2861   2.270   0.722   0.591  0.0675  0.1249  0.3498
  716SOL    HW1 2862   2.333   0.734   0.515  1.7459 -1.1010 -2.0471
  716SOL    HW2 2863   2.181   0.695   0.558  0.6053  1.0040  2.1857
  716SOL     MW 2864   2.267   0.720   0.577  0.3599  0.0791  0.2758
  717SOL     OW 2865   2.852   1.431   2.933 -0.6021  0.2735 -0.2558
  717SOL    HW1 2866   2.950   1.442   2.950  1.7465  0.4736 -0.0304
  717SOL    HW2 2867   2.812   1.484   3.001  0.7298  1.8345  1.0685
  717SOL     MW 2868   2.860   1.440   2.944 -0.1165  0.5059 -0.0513
  718SOL     OW 2869   2.594   1.458   1.318  0.6350 -0.4631  0.2203
  718SOL    HW1 2870   2.619   1.519   1.384 -2.4196  0.9708  0.5738
  718SOL    HW2 2871   2.670   1.400   1.312  1.6871 -3.0866  2.5891
  718SOL     MW 2872   2.608   1.458   1.326  0.3708 -0.6200  0.5795
  719SOL     OW 2873   2.149   1.303   0.680  0.3561 -0.0629 -0.4031
  719SOL    HW1 2874   2.246   1.307   0.691  1.2234 -4.3050 -0.7933
  719SOL    HW2 2875   2.116   1.350   0.759  0.4391  0.4140 -0.3492
  719SOL     MW 2876   2.157   1.309   0.692  0.4815 -0.5597 -0.4475
  720SOL     OW 2877   2.898   1.190   0.168 -0.2193 -0.2038  0.0727
  720SOL    HW1 2878   2.865   1.106   0.191  0.6765  1.2339 -1.8249
  720SOL    HW2 2879   2.849   1.258   0.224  0.9190  2.1265 -0.2278
  720SOL     MW 2880   2.887   1.188   0.179  0.0491  0.2934 -0.2173
  721SOL     OW 2881   2.495   0.788   1.407  0.4738  0.4151  0.4194
  721SOL    HW1 2882   2.449   0.710   1.430  0.0401  0.0760 -4.1252
  721SOL    HW2 2883   2.571   0.809   1.456  0.2507 -1.0939  1.3788
  721SOL     MW 2884   2.499   0.781   1.416  0.3871  0.1713 -0.0536
  722SOL     OW 2885   2.539   1.190   0.365  0.0612 -0.3676 -0.4353
  722SOL    HW1 2886   2.497   1.238   0.438  0.5628  0.9020 -1.0261
  722SOL    HW2 2887   2.609   1.148   0.421  0.2420 -0.9890  0.7808
  722SOL     MW 2888   2.543   1.191   0.382  0.1512 -0.2821 -0.3528
  723SOL     OW 2889   2.267   1.404   1.674  0.1695  0.3288  0.7598
  723SOL    HW1 2890   2.275   1.395   1.577  0.8962  0.7114 -1.2860
  723SOL    HW2 2891   2.190   1.458   1.695  0.3118 -1.3273  2.1267
  723SOL     MW 2892   2.258   1.410   1.664  0.2841  0.1608  0.6702
  724SOL     OW 2893   2.522   0.369   0.569  0.1623  0.1595  0.3259
  724SOL    HW1 2894   2.481   0.349   0.659 -2.8596 -2.6423 -0.5183
  724SOL    HW2 2895   2.595   0.306   0.558  1.5572 -0.3478  1.7364
  724SOL     MW 2896   2.526   0.358   0.580 -0.0523 -0.2771  0.4006
  725SOL     OW 2897   2.693   0.523   1.130  0.2023  0.2920  0.5264
  725SOL    HW1 2898   2.744   0.554   1.204  0.2001  1.7816 -2.5843
  725SOL    HW2 2899   2.609   0.484   1.165 -2.1712 -1.1108  3.0616
  725SOL     MW 2900   2.688   0.522   1.144 -0.1111  0.3034  0.4504
  726SOL     OW 2901   2.563   2.380   0.542 -0.0978 -0.3957 -0.4465
  726SOL    HW1 2902   2.528   2.427   0.465  0.6809  2.0498 -2.5565
  726SOL    HW2 2903   2.491   2.391   0.606 -0.5166  1.2902  2.4739
  726SOL     MW 2904   2.549   2.388   0.541 -0.0503  0.1494 -0.3396
  727SOL     OW 2905   2.858   0.314   1.667 -0.5679 -0.2167 -0.2194
  727SOL    HW1 2906   2.877   0.284   1.574  1.6346  1.6671 -0.5164
  727SOL    HW2 2907   2.764   0.327   1.668  1.4345 -0.7399 -1.0277
  727SOL     MW 2908   2.848   0.312   1.655 -0.0131 -0.0372 -0.3652
  728SOL     OW 2909   2.851   1.161   2.982  0.0262 -0.2199  0.3532
  728SOL    HW1 2910   2.860   1.255   2.960  2.2040  0.3817 -1.3344
  728SOL    HW2 2911   2.846   1.166   3.082  1.2932  1.0079 -2.1643
  728SOL     MW 2912   2.851   1.174   2.993  0.4807  0.0214 -0.2016
  729SOL     OW 2913   2.480   1.465   1.067  0.2725  0.1368  1.1281
  729SOL    HW1 2914   2.511   1.462   1.154 -0.0456 -1.7006 -2.3318
  729SOL    HW2 2915   2.523   1.391   1.031 -2.9472 -0.4734  2.3939
  729SOL     MW 2916   2.490   1.455   1.073 -0.1943 -0.1861  0.8386
  730SOL     OW 2917   2.094   1.180   0.213  0.4049 -0.2436  0.5712
  730SOL    HW1 2918   2.189   1.164   0.213  2.4087  1.4801  1.9033
  730SOL    HW2 2919   2.077   1.278   0.200  1.0334  1.3247 -1.7322
  730SOL     MW 2920   2.104   1.191   0.211  0.7522  0.1908  0.4430
  731SOL     OW 2921   2.766   1.771   2.887 -0.0786  0.0577 -0.3153
  731SOL    HW1 2922   2.681   1.805   2.866  0.1085  0.6269 -0.0534
  731SOL    HW2 2923   2.830   1.842   2.892 -0.7458 -0.2821  0.9148
  731SOL     MW 2924   2.763   1.785   2.885 -0.1420  0.0880 -0.1185
  732SOL     OW 2925   2.223   0.932   1.332  0.5799  0.1748  0.2876
  732SOL    HW1 2926   2.148   0.942   1.395 -3.6625  0.9381 -0.7699
  732SOL    HW2 2927   2.297   0.935   1.381 -0.8515 -1.1317 -0.4029
  732SOL     MW 2928   2.223   0.934   1.346 -0.1687  0.1032  0.0570
  733SOL     OW 2929   2.365   2.872   2.997  0.2491  0.1836  0.5218
  733SOL    HW1 2930   2.279   2.914   3.010 -0.7655  0.3747  1.8459
  733SOL    HW2 2931   2.346   2.777   3.015 -1.0863 -2.5601 -0.8038
  733SOL     MW 2932   2.351   2.865   3.001 -0.0610 -0.1532  0.5216
  734SOL     OW 2933   1.502   0.354   2.507 -0.1873 -0.4283 -0.7226
  734SOL    HW1 2934   1.469   0.290   2.573  0.0558  1.4177 -1.0456
  734SOL    HW2 2935   1.500   0.292   2.426  0.8942 -3.8128 -1.5118
  734SOL     MW 2936   1.497   0.337   2.505 -0.0125 -0.6313 -0.8693
  735SOL     OW 2937   3.000   0.876   2.709  0.4916  0.5756 -0.0095
  735SOL    HW1 2938   2.911   0.856   2.729  3.3629 -0.5109 -0.2494
  735SOL    HW2 2939   3.030   0.924   2.787  2.3591 -1.2578  0.0368
  735SOL     MW 2940   2.992   0.880   2.722  1.1169  0.1903 -0.0350
  736SOL     OW 2941   0.063   0.614   2.476  0.2989 -0.0478 -0.0690
  736SOL    HW1 2942   0.101   0.643   2.391 -1.0403  1.1882 -0.4800
  736SOL    HW2 2943   0.025   0.525   2.463 -1.8790 -1.9071  0.2307
  736SOL     MW 2944   0.063   0.606   2.463 -0.1652 -0.1301 -0.0837
  737SOL     OW 2945   2.873   0.626   2.540 -0.2966  0.6297 -0.5328
  737SOL    HW1 2946   2.824   0.578   2.475 -0.3458  1.0761 -0.0680
  737SOL    HW2 2947   2.967   0.630   2.515 -0.5275  0.6697  0.3811
  737SOL     MW 2948   2.879   0.620   2.528 -0.3336  0.6938 -0.3509
  738SOL     OW 2949   0.160   0.439   1.928 -0.2423 -0.0719 -0.0075
  738SOL    HW1 2950   0.230   0.488   1.900 -1.6153  2.1788  2.9029
  738SOL    HW2 2951   0.165   0.351   1.890  0.7297 -0.7089  1.1733
  738SOL     MW 2952   0.170   0.434   1.919 -0.2952  0.1410  0.5323
  739SOL     OW 2953   2.554   1.011   2.185  0.3540 -0.6082 -0.6260
  739SOL    HW1 2954   2.472   0.967   2.165  0.4628  1.0454 -1.3143
  739SOL    HW2 2955   2.571   1.039   2.098 -0.2644 -1.6189 -0.7699
  739SOL     MW 2956   2.546   1.008   2.171  0.2868 -0.5234 -0.7358
  740SOL     OW 2957   0.248   1.694   2.971 -0.1605 -0.4167  0.0547
  740SOL    HW1 2958   0.193   1.613   2.963 -0.2374  0.0198  0.0797
  740SOL    HW2 2959   0.324   1.679   3.027 -1.5892  0.5689  0.9158
  740SOL     MW 2960   0.251   1.681   2.978 -0.3591 -0.2290  0.1716
  741SOL     OW 2961   2.210   1.249   2.716 -0.1799 -0.6964  0.1961
  741SOL    HW1 2962   2.235   1.338   2.682  2.2851 -1.0290  1.3927
  741SOL    HW2 2963   2.193   1.250   2.817 -0.0253 -0.9856  0.9694
  741SOL     MW 2964   2.211   1.261   2.725  0.1657 -0.7785  0.4560
  742SOL     OW 2965   1.610   1.364   2.348  0.4639 -0.3069  0.4186
  742SOL    HW1 2966   1.532   1.312   2.340 -0.3751 -1.0235 -0.5241
  742SOL    HW2 2967   1.638   1.359   2.436  2.1740  2.4017 -2.2585
  742SOL     MW 2968   1.603   1.357   2.359  0.5788 -0.0440 -0.0590
  743SOL     OW 2969   2.512   1.227   2.707  0.2539  0.2138 -0.1655
  743SOL    HW1 2970   2.424   1.214   2.735 -1.4637 -1.1460  0.1563
  743SOL    HW2 2971   2.566   1.160   2.753  1.7146  1.7785 -0.3681
  743SOL     MW 2972   2.507   1.217   2.717  0.2200  0.2409 -0.1498
  744SOL     OW 2973   2.778   0.919   1.785  0.1379  0.0010 -0.3114
  744SOL    HW1 2974   2.715   0.966   1.842 -0.1167 -0.7270  0.9813
  744SOL    HW2 2975   2.730   0.891   1.706 -1.3070  1.8522  0.3199
  744SOL     MW 2976   2.763   0.921   1.782 -0.0863  0.1492 -0.0575
  745SOL     OW 2977   1.741   0.497   2.450 -0.1616 -0.2399  0.1973
  745SOL    HW1 2978   1.753   0.523   2.351  2.4593  3.0806  1.1296
  745SOL    HW2 2979   1.663   0.435   2.447 -1.0277  0.7422  4.2037
  745SOL     MW 2980   1.732   0.492   2.437  0.0699  0.3278  0.8489
  746SOL     OW 2981   1.565   1.471   1.710 -0.0946  0.4255  0.0455
  746SOL    HW1 2982   1.605   1.556   1.737  0.1175  2.4519 -0.3868
  746SOL    HW2 2983   1.546   1.417   1.793  0.7654 -2.1160  0.8662
  746SOL     MW 2984   1.568   1.475   1.725  0.0469  0.3575  0.0967
  747SOL     OW 2985   2.586   1.130   1.889 -0.1055 -0.2345 -0.1494
  747SOL    HW1 2986   2.508   1.131   1.831 -0.1695 -1.8014 -3.9000
  747SOL    HW2 2987   2.582   1.211   1.942  0.9949  1.1818  1.6304
  747SOL     MW 2988   2.575   1.141   1.889  0.0312 -0.2543 -0.4094
  748SOL     OW 2989   0.104  -0.001   1.927  0.5539  0.3275 -0.0114
  748SOL    HW1 2990   0.207  -0.004   1.920  1.2204  0.4622  2.7565
  748SOL    HW2 2991   0.096   0.071   1.988 -0.0653  1.4954 -0.0315
  748SOL     MW 2992   0.116   0.008   1.934  0.5601  0.4994  0.3511
  749SOL     OW 2993   2.416   0.655   2.760 -0.0937  0.2432  0.1319
  749SOL    HW1 2994   2.442   0.729   2.701  2.3930 -1.1281  0.5763
  749SOL    HW2 2995   2.460   0.671   2.851 -0.6570 -1.2395 -1.6146
  749SOL     MW 2996   2.425   0.667   2.764  0.1601 -0.1333 -0.0399
  750SOL     OW 2997   2.125   3.016   1.960  0.4713  0.6221  0.7745
  750SOL    HW1 2998   2.175   3.097   1.977 -1.0267 -1.5316  0.9026
  750SOL    HW2 2999   2.191   2.945   1.955 -1.7595  2.6974  0.5272
  750SOL     MW 3000   2.141   3.018   1.962 -0.0207  0.6117  0.7588
  751SOL     OW 3001   3.073   0.352   2.470 -0.1446 -0.6756  0.4994
  751SOL    HW1 3002   2.998   0.308   2.418 -2.2412 -1.3111 -1.7070
  751SOL    HW2 3003   3.146   0.342   2.411 -0.5827  0.8682  2.7137
  751SOL     MW 3004   3.073   0.345   2.456 -0.4790 -0.5558  0.5004
  752SOL     OW 3005   2.125   0.925   2.793  0.2988 -0.0945 -0.6184
  752SOL    HW1 3006   2.197   0.956   2.847  0.0230 -0.5177 -0.5957
  752SOL    HW2 3007   2.071   0.863   2.841  0.3460 -0.6633 -1.2130
  752SOL     MW 3008   2.128   0.921   2.806  0.2686 -0.2254 -0.6938
  753SOL     OW 3009   2.868   0.286   2.291  0.1144  0.5742 -0.7819
  753SOL    HW1 3010   2.818   0.195   2.286  0.9535 -0.5520  1.9415
  753SOL    HW2 3011   2.800   0.351   2.321  1.1224 -0.9554  1.2409
  753SOL     MW 3012   2.852   0.283   2.294  0.3581  0.2238 -0.1557
  754SOL     OW 3013   2.239   2.999   2.608 -0.3974  0.0675 -0.3726
  754SOL    HW1 3014   2.260   2.960   2.522  0.6966 -1.7409  0.0239
  754SOL    HW2 3015   2.325   2.979   2.652 -0.2147  1.0294  0.9111
  754SOL     MW 3016   2.253   2.991   2.603 -0.2290 -0.0442 -0.1509
  755SOL     OW 3017   2.779   1.616   2.402  0.4463 -0.2901  0.1045
  755SOL    HW1 3018   2.734   1.529   2.426  0.8366  0.2750  1.3514
  755SOL    HW2 3019   2.817   1.644   2.483 -2.7462  2.3580 -0.0612
  755SOL     MW 3020   2.778   1.608   2.416  0.0766  0.1338  0.2472
  756SOL     OW 3021   2.167   1.258   2.989  0.3842 -0.2626  0.6308
  756SOL    HW1 3022   2.245   1.313   2.982 -0.0554 -1.7791  1.4697
  756SOL    HW2 3023   2.201   1.174   3.009 -0.2078  0.2033  2.5451
  756SOL     MW 3024   2.182   1.254   2.991  0.2481 -0.4012  0.9940
  757SOL     OW 3025   2.184   0.935   1.758 -0.4151 -0.1960 -0.3025
  757SOL    HW1 3026   2.191   0.835   1.756 -0.7589 -1.0179  1.7576
  757SOL    HW2 3027   2.118   0.955   1.687 -0.2368  1.6791  1.8983
  757SOL     MW 3028   2.176   0.925   1.748 -0.4369 -0.0570  0.2597
  758SOL     OW 3029   2.233   1.848   2.607  0.5958  0.7234  0.3416
  758SOL    HW1 3030   2.233   1.906   2.526  0.8006 -0.3102  1.3288
  758SOL    HW2 3031   2.320   1.808   2.612  0.5489 -1.7436  4.3403
  758SOL     MW 3032   2.244   1.850   2.597  0.6166  0.2615  0.9994
  759SOL     OW 3033   1.578   1.464   2.808 -0.4526 -0.2183  0.0011
  759SOL    HW1 3034   1.584   1.534   2.737 -0.3026  1.5021  0.4890
  759SOL    HW2 3035   1.633   1.472   2.883  0.5673 -0.5616  0.6736
  759SOL     MW 3036   1.586   1.475   2.808 -0.2982 -0.0366  0.1542
  760SOL     OW 3037   2.590   1.922   2.729 -0.0539 -0.2191  0.3317
  760SOL    HW1 3038   2.547   1.842   2.700  0.1436 -0.5100 -0.7435
  760SOL    HW2 3039   2.672   1.928   2.684 -1.4332 -0.3495 -0.7417
  760SOL     MW 3040   2.595   1.913   2.719 -0.2098 -0.2747  0.0482
  761SOL     OW 3041   2.264   0.455   2.427 -0.6548  0.2736  0.5221
  761SOL    HW1 3042   2.169   0.453   2.425  0.4802  0.3878 -4.9855
  761SOL    HW2 3043   2.280   0.499   2.511  0.0711  1.0397  1.5356
  761SOL     MW 3044   2.254   0.461   2.438 -0.4092  0.3897 -0.0709
  762SOL     OW 3045   0.026   0.184   2.125  0.0694 -0.1136  0.2724
  762SOL    HW1 3046  -0.004   0.131   2.200 -1.1246 -0.3517 -1.8346
  762SOL    HW2 3047  -0.040   0.245   2.089  0.4719  1.9168  2.2423
  762SOL     MW 3048   0.013   0.185   2.130 -0.0350  0.1229  0.2543
  763SOL     OW 3049   2.460   1.198   2.364  0.1337 -0.4274 -0.0529
  763SOL    HW1 3050   2.488   1.149   2.281 -1.6940  2.6055 -0.1920
  763SOL    HW2 3051   2.536   1.225   2.409 -0.5546  0.6869 -0.4112
  763SOL     MW 3052   2.474   1.195   2.359 -0.1983  0.1198 -0.1185
  764SOL     OW 3053   0.387   0.088   2.821  0.2321  0.1982  0.3498
  764SOL    HW1 3054   0.315   0.144   2.782 -3.6932  1.4056  1.0538
  764SOL    HW2 3055   0.399   0.124   2.907 -0.6493 -1.6251 -0.2982
  764SOL     MW 3056   0.379   0.100   2.827 -0.4021  0.1169  0.3572
  765SOL     OW 3057   2.748   0.062   2.300 -0.3397  0.2330 -0.2726
  765SOL    HW1 3058   2.688   0.025   2.231 -2.6406  0.1233 -0.6326
  765SOL    HW2 3059   2.787  -0.010   2.349 -1.8679 -0.9431  0.8670
  765SOL     MW 3060   2.745   0.048   2.297 -0.8449  0.0633 -0.1698
  766SOL     OW 3061   1.916   3.002   2.155  0.5959  0.3414  0.0168
  766SOL    HW1 3062   1.967   3.026   2.077  1.0463  1.5755 -2.9387
  766SOL    HW2 3063   1.858   2.925   2.134 -1.1089  3.4858  0.5871
  766SOL     MW 3064   1.915   2.995   2.142  0.4304  0.9191 -0.2979
  767SOL     OW 3065   2.685   0.649   1.871 -0.0607 -0.1404  0.3489
  767SOL    HW1 3066   2.741   0.714   1.911 -1.0236 -0.1220 -2.6534
  767SOL    HW2 3067   2.597   0.688   1.868 -0.6896  0.7927 -1.0242
  767SOL     MW 3068   2.681   0.663   1.876 -0.2707 -0.0149 -0.2284
  768SOL     OW 3069   0.036   1.477   2.956 -0.7153  0.1363 -0.0559
  768SOL    HW1 3070   0.040   1.513   3.047 -0.7132  4.3039  1.5778
  768SOL    HW2 3071   0.058   1.385   2.965 -2.3629  1.9568  2.0486
  768SOL     MW 3072   0.040   1.469   2.969 -0.9324  0.9264  0.4373
  769SOL     OW 3073   2.376   0.712   2.314 -0.4335 -0.0375 -0.3344
  769SOL    HW1 3074   2.339   0.627   2.316 -0.0994  2.8583 -1.0677
  769SOL    HW2 3075   2.456   0.704   2.271 -1.6828 -1.5401  2.1116
  769SOL     MW 3076   2.382   0.700   2.309 -0.5542  0.1463 -0.1084
  770SOL     OW 3077   0.004   1.569   2.644 -0.1869 -0.3420 -0.4004
  770SOL    HW1 3078  -0.090   1.584   2.664 -0.6823  0.9564  0.7186
  770SOL    HW2 3079   0.030   1.535   2.727  0.1775 -1.5772 -0.8758
  770SOL     MW 3080  -0.005   1.567   2.658 -0.2042 -0.3336 -0.3155
  771SOL     OW 3081   3.061   0.609   1.969 -0.1217 -0.1675 -0.2328
  771SOL    HW1 3082   3.002   0.607   1.892  1.5553  2.1508 -2.6467
  771SOL    HW2 3083   3.137   0.541   1.954  1.1476 -2.8387 -3.7344
  771SOL     MW 3084   3.063   0.600   1.957  0.2670 -0.2141 -1.0133
  772SOL     OW 3085   0.030   3.102   2.335 -0.1754 -0.4686  0.0308
  772SOL    HW1 3086  -0.018   3.033   2.388  0.7037  0.1159  0.8732
  772SOL    HW2 3087   0.094   3.044   2.290 -0.8993  1.3438 -0.3761
  772SOL     MW 3088   0.032   3.086   2.336 -0.1549 -0.1523  0.0883
  773SOL     OW 3089   2.478   2.928   2.747  0.2979 -0.0527 -0.3681
  773SOL    HW1 3090   2.469   2.832   2.728 -0.8077 -1.0214 -0.8177
  773SOL    HW2 3091   2.441   2.936   2.836 -0.1366  0.3466  0.8555
  773SOL     MW 3092   2.472   2.916   2.756  0.0947 -0.1278 -0.2660
  774SOL     OW 3093   2.379   1.162   1.729 -0.2283  0.3010 -0.3330
  774SOL    HW1 3094   2.334   1.249   1.705  0.7582  1.2828  0.4962
  774SOL    HW2 3095   2.317   1.087   1.714 -2.6347 -2.1545  1.9977
  774SOL     MW 3096   2.365   1.164   1.724 -0.4156  0.1066  0.0839
  775SOL     OW 3097   2.331   2.876   2.363 -0.5749  0.7656 -0.3415
  775SOL    HW1 3098   2.364   2.964   2.340  0.3290 -0.5017 -1.2585
  775SOL    HW2 3099   2.396   2.808   2.345 -0.4731 -0.5633 -0.5628
  775SOL     MW 3100   2.344   2.879   2.358 -0.4422  0.4231 -0.4917
  776SOL     OW 3101   0.135   1.477   0.115 -0.1843 -0.1738  0.5938
  776SOL    HW1 3102   0.223   1.457   0.082  0.2076 -1.7697  0.9848
  776SOL    HW2 3103   0.112   1.407   0.173 -1.6165  0.4846  1.3315
  776SOL     MW 3104   0.144   1.465   0.119 -0.3216 -0.2975  0.7427
  777SOL     OW 3105   2.941   1.135   1.731  0.0859  0.3023  0.5641
  777SOL    HW1 3106   2.875   1.194   1.675 -2.0927 -1.6282 -0.4398
  777SOL    HW2 3107   2.882   1.071   1.759  1.1710  0.6727 -1.7314
  777SOL     MW 3108   2.925   1.134   1.727 -0.0584  0.0965  0.1288
  778SOL     OW 3109   2.933   0.505   2.777 -0.3481 -0.1101 -0.3059
  778SOL    HW1 3110   2.869   0.528   2.845  2.2565  4.6817  1.7356
  778SOL    HW2 3111   2.912   0.557   2.698 -0.4774 -0.0680 -1.7123
  778SOL     MW 3112   2.922   0.514   2.776 -0.0215  0.5277 -0.2221
  779SOL     OW 3113   2.239   0.460   2.123  0.3227 -1.2964  0.1524
  779SOL    HW1 3114   2.204   0.503   2.206  0.7264  0.8635  0.5627
  779SOL    HW2 3115   2.211   0.371   2.140 -0.2306  1.1220 -1.5339
  779SOL     MW 3116   2.231   0.454   2.136  0.3030 -0.6924 -0.0160
  780SOL     OW 3117   0.209   0.265   2.713 -1.3134 -0.4992 -0.1173
  780SOL    HW1 3118   0.127   0.265   2.759  1.5369  0.4599 -2.2551
  780SOL    HW2 3119   0.256   0.338   2.755  2.3000 -2.1103 -1.5558
  780SOL     MW 3120   0.205   0.274   2.725 -0.4605 -0.5852 -0.5892
  781SOL     OW 3121   0.006   1.261   2.444 -0.7242  0.7456 -0.0699
  781SOL    HW1 3122   0.012   1.301   2.355  0.3121  0.7929  1.1722
  781SOL    HW2 3123  -0.015   1.167   2.442 -1.0970 -0.6161 -0.5028
  781SOL     MW 3124   0.004   1.254   2.432 -0.6366  0.5722  0.0369
  782SOL     OW 3125   0.689   1.482   0.052  0.0979 -0.2729  0.2911
  782SOL    HW1 3126   0.626   1.550   0.017 -1.6508  1.7121 -0.1565
  782SOL    HW2 3127   0.702   1.485   0.147 -1.2501 -1.8604  1.1148
  782SOL     MW 3128   0.682   1.491   0.060 -0.3107 -0.2204  0.3407
  783SOL     OW 3129   2.720   0.492   2.373  0.2427 -0.3023  0.2392
  783SOL    HW1 3130   2.698   0.577   2.338  0.0575 -0.9994  4.1916
  783SOL    HW2 3131   2.645   0.470   2.433  0.0022  0.8047 -2.6010
  783SOL     MW 3132   2.707   0.500   2.377  0.1866 -0.2482  0.3860
  784SOL     OW 3133   0.195   0.838   2.831  0.3436  0.1586  0.4604
  784SOL    HW1 3134   0.104   0.860   2.806  0.9438 -1.0286  1.5518
  784SOL    HW2 3135   0.258   0.887   2.778  2.1198 -2.1968 -0.7765
  784SOL     MW 3136   0.192   0.847   2.821  0.6572 -0.3088  0.4412
  785SOL     OW 3137   0.399   0.400   2.164 -0.4546 -0.0541  0.2283
  785SOL    HW1 3138   0.382   0.426   2.074 -0.9797  2.4636  0.3298
  785SOL    HW2 3139   0.315   0.364   2.200 -1.1573  2.0993  2.5774
  785SOL     MW 3140   0.385   0.399   2.157 -0.6166  0.5622  0.5516
  786SOL     OW 3141   1.870   0.486   0.013 -0.2495 -0.2517  0.9381
  786SOL    HW1 3142   1.811   0.529   0.076 -2.5940  1.2353  1.4932
  786SOL    HW2 3143   1.834   0.503  -0.072  0.8663  0.3777 -2.5991
  786SOL     MW 3144   1.858   0.494   0.010 -0.4116  0.0276  0.5446
  787SOL     OW 3145   2.422   0.204   2.910 -0.0927 -0.3433 -0.6211
  787SOL    HW1 3146   2.492   0.145   2.890  1.2520 -1.1267  0.2620
  787SOL    HW2 3147   2.469   0.261   2.971 -0.0775  1.7311 -0.2621
  787SOL     MW 3148   2.437   0.204   2.915  0.0867 -0.1730 -0.4572
  788SOL     OW 3149   2.888   2.956   2.437 -0.3569  1.2647 -0.0019
  788SOL    HW1 3150   2.928   2.920   2.518 -3.1061  1.0647  2.1300
  788SOL    HW2 3151   2.904   2.881   2.383 -0.6984  0.6409 -0.8166
  788SOL     MW 3152   2.896   2.941   2.441 -0.7647  1.1560  0.1719
  789SOL     OW 3153   0.109   0.178   0.035  0.1712 -0.1791 -0.1624
  789SOL    HW1 3154   0.010   0.178   0.044  1.9322  0.0386 -2.8497
  789SOL    HW2 3155   0.125   0.218  -0.048 -1.8395 -1.4332  0.4450
  789SOL     MW 3156   0.098   0.183   0.025  0.1382 -0.3158 -0.4368
  790SOL     OW 3157   3.050   0.995   2.474 -0.0120  0.1524  0.2680
  790SOL    HW1 3158   3.027   0.950   2.551  1.1985  2.0350  0.2466
  790SOL    HW2 3159   2.983   0.971   2.403  3.4306 -1.3814 -1.7382
  790SOL     MW 3160   3.038   0.985   2.475  0.6020  0.1985  0.0005
  791SOL     OW 3161   2.538   0.456   2.601  0.0433 -0.6391  0.0902
  791SOL    HW1 3162   2.509   0.507   2.684 -1.9871  0.6802  1.7464
  791SOL    HW2 3163   2.600   0.386   2.635  2.3447 -1.4869 -2.3981
  791SOL     MW 3164   2.542   0.453   2.617  0.0791 -0.5769 -0.0196
  792SOL     OW 3165   2.452   0.200   2.465 -0.1466 -0.0736  0.1571
  792SOL    HW1 3166   2.431   0.290   2.452 -1.5340  1.0052 -0.1133
  792SOL    HW2 3167   2.401   0.190   2.551 -0.5278 -0.0410  1.9537
  792SOL     MW 3168   2.442   0.210   2.474 -0.3800  0.0730  0.3585
  793SOL     OW 3169   1.777   1.103   1.994  0.0960 -0.6352 -0.5137
  793SOL    HW1 3170   1.752   1.097   1.898 -1.3452  1.1107 -1.9861
  793SOL    HW2 3171   1.873   1.087   1.995 -0.7625  1.9050  0.7588
  793SOL     MW 3172   1.786   1.100   1.982 -0.2074 -0.0697 -0.5401
  794SOL     OW 3173   1.367   2.318   0.109 -0.2750  0.2882 -0.1704
  794SOL    HW1 3174   1.414   2.402   0.084  0.1374 -4.1672  1.7306
  794SOL    HW2 3175   1.422   2.292   0.179  1.7611  0.8222  1.5224
  794SOL     MW 3176   1.381   2.326   0.115  0.0481 -0.2292  0.3038
  795SOL     OW 3177   2.286   1.087   2.532  0.0836  0.1344  0.1957
  795SOL    HW1 3178   2.249   1.143   2.602 -0.6534  2.2759 -1.4380
  795SOL    HW2 3179   2.353   1.142   2.501 -0.6962 -1.0399  1.0016
  795SOL     MW 3180   2.290   1.102   2.537 -0.1165  0.2620  0.0865
  796SOL     OW 3181   0.251   0.594   2.669 -0.0353  0.2730  0.1612
  796SOL    HW1 3182   0.202   0.649   2.730  0.5629  0.3348  2.8783
  796SOL    HW2 3183   0.193   0.603   2.588 -1.9169 -1.1242  1.5102
  796SOL     MW 3184   0.237   0.602   2.666 -0.2046  0.0968  0.6977
  797SOL     OW 3185   2.702   0.210   2.619 -0.6109 -0.3270  0.2715
  797SOL    HW1 3186   2.656   0.199   2.531 -1.0976  1.3328 -1.9883
  797SOL    HW2 3187   2.792   0.201   2.589 -2.5429  2.1406 -4.6101
  797SOL     MW 3188   2.708   0.207   2.603 -0.9300  0.2176 -0.6707
  798SOL     OW 3189   2.405   0.012   2.266 -1.0858 -0.2651  0.0288
  798SOL    HW1 3190   2.425   0.083   2.334 -2.4854 -0.8072  2.2041
  798SOL    HW2 3191   2.473   0.020   2.198 -0.6108  0.7010 -1.4652
  798SOL     MW 3192   2.416   0.022   2.266 -1.2078 -0.2092  0.1187
  799SOL     OW 3193   2.565   3.020   0.099  0.0105 -0.9477  0.2344
  799SOL    HW1 3194   2.481   2.992   0.068  2.0569  0.0669 -0.2327
  799SOL    HW2 3195   2.571   2.977   0.187  1.7839 -0.4447 -1.0378
  799SOL     MW 3196   2.555   3.011   0.107  0.5145 -0.7474  0.0049
  800SOL     OW 3197   1.937   3.015   1.766 -0.3082  0.7386 -0.4632
  800SOL    HW1 3198   1.874   2.944   1.781 -1.0925 -0.9224 -0.9948
  800SOL    HW2 3199   2.003   3.003   1.836  3.9544  0.8548  0.5594
  800SOL     MW 3200   1.937   3.004   1.777  0.1508  0.5348 -0.3984
  801SOL     OW 3201   2.875   1.222   2.613 -0.5316  0.1451 -0.1529
  801SOL    HW1 3202   2.870   1.129   2.605 -1.0381 -1.2696 -0.8403
  801SOL    HW2 3203   2.951   1.256   2.567 -0.9721  0.6187  1.6591
  801SOL     MW 3204   2.884   1.214   2.606 -0.6566  0.0210 -0.0045
  802SOL     OW 3205   2.593   1.458   2.798 -0.4833  0.8549 -0.3149
  802SOL    HW1 3206   2.567   1.372   2.748 -0.9864 -0.1946 -0.2885
  802SOL    HW2 3207   2.685   1.443   2.843  1.6157 -0.1094  4.8748
  802SOL     MW 3208   2.602   1.445   2.797 -0.2728  0.5892  0.3733
  803SOL     OW 3209   2.312   1.402   2.011 -0.1143 -0.5305  0.3093
  803SOL    HW1 3210   2.284   1.367   2.094 -1.0032 -1.1582 -0.9362
  803SOL    HW2 3211   2.310   1.331   1.946 -1.8343  0.1979 -1.2465
  803SOL     MW 3212   2.308   1.388   2.014 -0.4585 -0.5172 -0.0603
  804SOL     OW 3213   2.279   0.116   0.039  0.3203 -0.5444 -0.2756
  804SOL    HW1 3214   2.203   0.179   0.037 -2.0598 -0.0720  0.9588
  804SOL    HW2 3215   2.337   0.130  -0.044 -0.1258 -1.0421  1.6064
  804SOL     MW 3216   2.277   0.126   0.028 -0.0526 -0.5478  0.1356
  805SOL     OW 3217   2.702   0.852   2.648 -0.4791  0.2263 -0.1292
  805SOL    HW1 3218   2.622   0.859   2.595 -0.9062 -0.6927  0.9409
  805SOL    HW2 3219   2.768   0.790   2.607  0.5044  1.0718 -1.0034
  805SOL     MW 3220   2.700   0.845   2.636 -0.4057  0.2166 -0.1034
  806SOL     OW 3221   2.655   0.728   2.232 -0.3382  0.0874  0.4662
  806SOL    HW1 3222   2.717   0.690   2.170 -2.7669 -0.7303 -1.5906
  806SOL    HW2 3223   2.661   0.824   2.227 -0.9080  0.2169 -1.2517
  806SOL     MW 3224   2.664   0.735   2.223 -0.7338 -0.0034 -0.0318
  807SOL     OW 3225   0.046   1.085   2.028  0.5065 -0.0102  0.2068
  807SOL    HW1 3226   0.097   0.998   2.033  1.2167 -0.3233  0.0615
  807SOL    HW2 3227  -0.051   1.063   2.030 -3.5079  1.2098  0.1173
  807SOL     MW 3228   0.040   1.071   2.029  0.0706  0.1095  0.1758
  808SOL     OW 3229   2.633   0.049   2.826  1.1298  0.1154 -0.0616
  808SOL    HW1 3230   2.579  -0.023   2.783  1.5770  1.9220 -1.6878
  808SOL    HW2 3231   2.650   0.103   2.747 -2.2004 -2.9830  2.7008
  808SOL     MW 3232   2.628   0.046   2.810  0.7494 -0.0550  0.0883
  809SOL     OW 3233   2.687   1.351   2.438  0.3853 -0.1336  0.4670
  809SOL    HW1 3234   2.742   1.312   2.501  0.2988 -0.6360 -0.5230
  809SOL    HW2 3235   2.725   1.319   2.351 -0.2943  2.1262 -0.8933
  809SOL     MW 3236   2.700   1.342   2.435  0.2842  0.0983  0.1569
  810SOL     OW 3237   2.223   1.327   2.249 -0.1930  0.5876  0.0720
  810SOL    HW1 3238   2.292   1.267   2.279 -0.6210  0.8257  1.6667
  810SOL    HW2 3239   2.145   1.301   2.296  0.0112  0.1501  1.2254
  810SOL     MW 3240   2.222   1.316   2.259 -0.2225  0.5613  0.4346
  811SOL     OW 3241   1.596   0.167   2.306 -0.0895  0.1277  0.3209
  811SOL    HW1 3242   1.680   0.154   2.349 -1.4879 -0.9143  1.3687
  811SOL    HW2 3243   1.622   0.193   2.214 -0.9896 -0.6463  0.9495
  811SOL     MW 3244   1.611   0.169   2.300 -0.3928 -0.1119  0.5421
  812SOL     OW 3245   1.469   2.855   2.062 -0.0701  0.1818  0.6875
  812SOL    HW1 3246   1.563   2.845   2.060 -0.8713 -1.4277  0.0428
  812SOL    HW2 3247   1.447   2.819   2.148  0.9680  1.0679  0.0041
  812SOL     MW 3248   1.479   2.849   2.073 -0.0388  0.0863  0.5123
  813SOL     OW 3249   2.013   0.629   2.243 -0.5795 -0.2766 -0.1965
  813SOL    HW1 3250   1.937   0.584   2.227  1.7852  2.0290  0.3392
  813SOL    HW2 3251   1.977   0.718   2.270  0.6046  1.6768  0.4427
  813SOL     MW 3252   1.998   0.635   2.245 -0.1113  0.2853 -0.0415
  814SOL     OW 3253   2.697   1.253   1.635 -0.1625 -0.9344 -0.0927
  814SOL    HW1 3254   2.655   1.216   1.712 -1.2347  0.3122 -1.0555
  814SOL    HW2 3255   2.654   1.210   1.559 -2.2337 -2.0018 -0.1444
  814SOL     MW 3256   2.686   1.242   1.635 -0.5772 -0.9108 -0.2266
  815SOL     OW 3257   2.507   1.759   2.418 -0.0205 -0.2893  0.1704
  815SOL    HW1 3258   2.470   1.686   2.360 -2.5040 -0.0109 -1.4722
  815SOL    HW2 3259   2.603   1.751   2.415  0.0641 -0.2698 -0.1789
  815SOL     MW 3260   2.515   1.749   2.410 -0.3370 -0.2500 -0.0924
  816SOL     OW 3261   0.737   0.667   2.798  0.2206  0.1883 -0.3200
  816SOL    HW1 3262   0.737   0.568   2.769 -2.3790  0.5511 -4.0879
  816SOL    HW2 3263   0.650   0.674   2.754 -0.3723 -0.7340 -0.6382
  816SOL     MW 3264   0.725   0.655   2.788 -0.2006  0.1144 -0.8591
  817SOL     OW 3265   2.995   1.263   1.447 -0.1263 -0.2715 -0.0566
  817SOL    HW1 3266   3.074   1.225   1.489  2.1240  1.4975  2.8789
  817SOL    HW2 3267   3.024   1.353   1.413  1.1570  1.3339 -0.4706
  817SOL     MW 3268   3.009   1.270   1.448  0.3399  0.1738  0.2761
  818SOL     OW 3269   1.933   1.049   2.640 -0.2915  0.3019  0.1894
  818SOL    HW1 3270   1.859   1.007   2.595 -1.9682 -1.6475 -3.6297
  818SOL    HW2 3271   1.982   0.979   2.671 -3.4897  0.9857  0.6696
  818SOL     MW 3272   1.929   1.034   2.638 -0.9347  0.1349 -0.2511
  819SOL     OW 3273   1.973   0.360   2.458 -0.5354 -0.2017  0.5429
  819SOL    HW1 3274   1.881   0.392   2.457 -0.0922 -0.6968  3.0292
  819SOL    HW2 3275   1.979   0.347   2.549 -1.0695 -0.3284 -1.2265
  819SOL     MW 3276   1.962   0.362   2.470 -0.5474 -0.2837  0.6375
  820SOL     OW 3277   2.471   1.672   2.670  0.1953  0.1771 -0.0302
  820SOL    HW1 3278   2.532   1.605   2.702 -1.2911 -0.1585  0.1763
  820SOL    HW2 3279   2.493   1.683   2.578  0.6868 -0.0520  2.2371
  820SOL     MW 3280   2.482   1.665   2.662  0.0640  0.1026  0.2962
  821SOL     OW 3281   2.585   1.384   1.990 -0.5519 -0.0073  0.0694
  821SOL    HW1 3282   2.607   1.448   1.923  0.4237  1.5421 -0.4891
  821SOL    HW2 3283   2.498   1.419   2.016  1.3359 -1.7534  0.9656
  821SOL     MW 3284   2.577   1.397   1.985 -0.1741 -0.0333  0.1140
  822SOL     OW 3285   2.934   2.743   1.497 -0.2299  0.1180 -0.1658
  822SOL    HW1 3286   2.945   2.721   1.591 -0.5770  0.2055 -3.7082
  822SOL    HW2 3287   2.876   2.816   1.491 -1.6118 -0.1419 -0.3349
  822SOL     MW 3288   2.928   2.750   1.509 -0.4580  0.0952 -0.6555
  823SOL     OW 3289   2.358   0.472   1.859 -0.2417  0.1917  0.1522
  823SOL    HW1 3290   2.429   0.409   1.842  2.4214 -1.8695  0.7712
  823SOL    HW2 3291   2.350   0.481   1.955  2.3500  0.7570 -1.6843
  823SOL     MW 3292   2.366   0.465   1.869  0.4516 -0.0057 -0.0084
  824SOL     OW 3293   2.285   1.498   2.616 -0.4538 -0.0965  0.9046
  824SOL    HW1 3294   2.336   1.570   2.653 -0.2317 -1.0638  2.0513
  824SOL    HW2 3295   2.195   1.537   2.615 -0.3416  2.8206  1.5275
  824SOL     MW 3296   2.280   1.513   2.621 -0.4097  0.1607  1.1381
  825SOL     OW 3297   1.863   2.611   0.236 -0.3900 -0.0148  0.1871
  825SOL    HW1 3298   1.808   2.560   0.296  3.2694 -1.1609 -3.0131
  825SOL    HW2 3299   1.930   2.551   0.205 -3.2995 -0.1431 -0.7086
  825SOL     MW 3300   1.864   2.596   0.240 -0.2911 -0.1830 -0.3533
  826SOL     OW 3301   1.828   2.360   0.458 -0.4228  0.5037  0.3733
  826SOL    HW1 3302   1.780   2.287   0.502 -1.5814  3.6405  2.2205
  826SOL    HW2 3303   1.815   2.444   0.512 -2.9091  0.4131 -2.2551
  826SOL     MW 3304   1.820   2.362   0.471 -0.9037  0.9056  0.2703
  827SOL     OW 3305   1.938   2.231   0.789 -0.8436  0.1323  0.2094
  827SOL    HW1 3306   1.874   2.186   0.728  0.0559  2.3440 -2.4376
  827SOL    HW2 3307   1.938   2.168   0.863 -0.2671 -2.5881  3.1983
  827SOL     MW 3308   1.930   2.217   0.791 -0.6488  0.0652  0.2545
  828SOL     OW 3309   0.042   2.640   0.589 -0.6348  0.1973  0.0187
  828SOL    HW1 3310   0.134   2.613   0.576 -0.4865 -1.2614 -2.4556
  828SOL    HW2 3311   0.027   2.707   0.521 -1.3357  1.2844  1.4589
  828SOL     MW 3312   0.052   2.645   0.578 -0.7077  0.1483 -0.1177
  829SOL     OW 3313   2.985   2.938   1.171 -0.1512 -0.5996  0.1260
  829SOL    HW1 3314   2.898   2.925   1.121 -1.9120 -0.5811  0.1031
  829SOL    HW2 3315   3.026   2.858   1.160 -0.0610 -0.5244 -0.7228
  829SOL     MW 3316   2.979   2.926   1.163 -0.3716 -0.5873  0.0110
  830SOL     OW 3317   2.542   2.837   2.012  0.2300  0.1924 -0.0387
  830SOL    HW1 3318   2.454   2.840   1.971  0.7519 -0.7835 -0.1836
  830SOL    HW2 3319   2.590   2.807   1.933 -0.4859  2.0226  2.3055
  830SOL     MW 3320   2.537   2.833   1.996  0.2044  0.3051  0.2515
  831SOL     OW 3321   2.406   2.429   1.179 -0.5009  0.0388 -0.9891
  831SOL    HW1 3322   2.360   2.372   1.242 -1.8610  0.6040  0.3787
  831SOL    HW2 3323   2.498   2.414   1.193 -2.9042 -1.4905 -2.2793
  831SOL     MW 3324   2.412   2.419   1.189 -0.9975 -0.0884 -0.9789
  832SOL     OW 3325   2.342   2.189   1.828 -0.2182 -0.1032 -0.0340
  832SOL    HW1 3326   2.373   2.275   1.856  3.5376  0.0366  2.1879
  832SOL    HW2 3327   2.416   2.133   1.827 -1.0379 -0.4180  2.1048
  832SOL     MW 3328   2.356   2.193   1.832  0.1692 -0.1263  0.5414
  833SOL     OW 3329   1.743   2.506   0.871  0.2077  0.0589 -0.1981
  833SOL    HW1 3330   1.646   2.505   0.875  1.9433 -0.3103 -2.6591
  833SOL    HW2 3331   1.766   2.584   0.915 -1.6169 -5.9027  1.1379
  833SOL     MW 3332   1.733   2.516   0.878  0.1960 -0.7764 -0.3465
  834SOL     OW 3333   2.109   2.426   0.561 -0.4004 -0.2545  0.5983
  834SOL    HW1 3334   2.019   2.397   0.562  0.5221  1.8928 -2.9632
  834SOL    HW2 3335   2.150   2.396   0.480  0.7875 -1.4016 -0.1932
  834SOL     MW 3336   2.103   2.418   0.550 -0.1219 -0.1226  0.0240
  835SOL     OW 3337   1.796   2.571   0.613  0.0294 -0.3000  0.1193
  835SOL    HW1 3338   1.762   2.534   0.700 -1.5629 -3.6998  2.0575
  835SOL    HW2 3339   1.874   2.616   0.631 -2.1142  1.8159  0.7321
  835SOL     MW 3340   1.802   2.572   0.627 -0.4635 -0.4694  0.4559
  836SOL     OW 3341   1.865   2.219   1.567  0.1447 -0.6183  0.4459
  836SOL    HW1 3342   1.959   2.229   1.587  1.5937  1.3636 -0.0410
  836SOL    HW2 3343   1.814   2.280   1.621  0.3094 -0.5335 -1.1506
  836SOL     MW 3344   1.871   2.228   1.577  0.3576 -0.3456  0.1710
  837SOL     OW 3345   2.145   0.202   0.737 -0.3353 -0.3523 -0.2856
  837SOL    HW1 3346   2.058   0.222   0.703 -0.1496  0.2685  0.7293
  837SOL    HW2 3347   2.168   0.148   0.663 -1.6522  0.3696  2.7946
  837SOL     MW 3348   2.136   0.197   0.723 -0.4845 -0.1752  0.2547
  838SOL     OW 3349   2.909   2.040   0.929  0.0101 -0.4235 -0.1797
  838SOL    HW1 3350   2.834   1.984   0.951 -1.4475  0.3189  0.3258
  838SOL    HW2 3351   2.987   1.985   0.911  2.0130 -0.2877 -1.1672
  838SOL     MW 3352   2.909   2.025   0.930  0.0820 -0.3076 -0.2433
  839SOL     OW 3353   1.519   2.344   1.039  0.7461 -0.2505 -0.0566
  839SOL    HW1 3354   1.546   2.404   1.106 -0.4605  0.2571 -1.4721
  839SOL    HW2 3355   1.531   2.261   1.085 -0.2190 -0.9286  3.5765
  839SOL     MW 3356   1.524   2.341   1.054  0.4596 -0.2730  0.2360
  840SOL     OW 3357   2.355   2.210   2.443  0.0538 -0.5386 -0.1001
  840SOL    HW1 3358   2.344   2.291   2.402 -1.6914 -2.2169 -2.4586
  840SOL    HW2 3359   2.330   2.226   2.542 -1.6787 -0.4518  1.7500
  840SOL     MW 3360   2.351   2.223   2.451 -0.4050 -0.7486 -0.1672
  841SOL     OW 3361   2.063   2.458   0.113  0.0331 -0.3431  0.9885
  841SOL    HW1 3362   2.113   2.509   0.046 -0.2652 -2.3586 -1.9270
  841SOL    HW2 3363   2.036   2.373   0.082  1.9314  0.0744 -1.4961
  841SOL     MW 3364   2.066   2.454   0.100  0.2442 -0.5540  0.2760
  842SOL     OW 3365   2.672   2.072   1.550  0.0008  0.4332  0.0545
  842SOL    HW1 3366   2.615   2.050   1.626  3.9392  0.6653  1.6318
  842SOL    HW2 3367   2.624   2.076   1.468 -1.1458 -1.2415  0.0825
  842SOL     MW 3368   2.658   2.070   1.549  0.3692  0.2429  0.2663
  843SOL     OW 3369   2.672   2.775   1.775 -0.0355 -0.2161  0.1016
  843SOL    HW1 3370   2.750   2.735   1.814  0.7374  2.5423  0.7281
  843SOL    HW2 3371   2.619   2.701   1.752 -1.7730 -3.1782  2.1526
  843SOL     MW 3372   2.675   2.760   1.777 -0.1628 -0.2430  0.4549
  844SOL     OW 3373   2.663   2.362   1.196  0.1414  0.7764 -0.8654
  844SOL    HW1 3374   2.689   2.368   1.102 -1.2357  1.2929 -2.9141
  844SOL    HW2 3375   2.722   2.431   1.238  3.7232 -1.3324  2.4754
  844SOL     MW 3376   2.674   2.372   1.189  0.4323  0.5663 -0.6950
  845SOL     OW 3377   2.861   2.475   0.309 -0.3893  0.0387 -0.1195
  845SOL    HW1 3378   2.818   2.385   0.292 -0.3146 -1.8819  1.3291
  845SOL    HW2 3379   2.857   2.471   0.407  1.9070 -0.4292 -2.2550
  845SOL     MW 3380   2.855   2.462   0.320 -0.0765 -0.2765 -0.2101
  846SOL     OW 3381   1.566   2.883   0.769  0.7466 -0.1204  0.7122
  846SOL    HW1 3382   1.638   2.902   0.835  1.2559 -2.4183 -0.0472
  846SOL    HW2 3383   1.491   2.943   0.777 -1.6450 -0.2243 -0.3069
  846SOL     MW 3384   1.566   2.894   0.778  0.4982 -0.4373  0.4775
  847SOL     OW 3385   2.623   1.960   0.171  0.4723 -0.1364  0.4853
  847SOL    HW1 3386   2.695   1.900   0.185  1.1598 -0.7412  0.7574
  847SOL    HW2 3387   2.577   1.913   0.106  2.9026 -1.2133  0.9377
  847SOL     MW 3388   2.626   1.946   0.164  0.8836 -0.3583  0.5809
  848SOL     OW 3389   2.540   2.137   1.307 -0.0245 -0.3166  0.0094
  848SOL    HW1 3390   2.584   2.221   1.282  0.0750 -0.5013 -0.7387
  848SOL    HW2 3391   2.561   2.063   1.245 -0.5540 -1.4884 -0.1434
  848SOL     MW 3392   2.549   2.138   1.295 -0.0812 -0.4955 -0.1095
  849SOL     OW 3393   1.986   2.681   0.797 -0.3816 -0.1182 -0.2799
  849SOL    HW1 3394   1.996   2.604   0.850  2.0479  0.4944 -0.1011
  849SOL    HW2 3395   2.064   2.681   0.738  0.0141 -2.4929  2.0693
  849SOL     MW 3396   1.998   2.671   0.796 -0.0088 -0.3507  0.0536
  850SOL     OW 3397   2.180   1.947   1.682 -0.2206  0.8222 -0.2077
  850SOL    HW1 3398   2.110   1.890   1.647 -0.4041  0.1887  0.4314
  850SOL    HW2 3399   2.171   2.038   1.642 -0.2801  0.9981 -0.0482
  850SOL     MW 3400   2.170   1.952   1.672 -0.2527  0.7619 -0.1023
  851SOL     OW 3401   2.223   2.368   0.326 -0.3366  0.0158 -0.3786
  851SOL    HW1 3402   2.168   2.399   0.250  1.2124  0.8874 -0.4239
  851SOL    HW2 3403   2.302   2.418   0.329  0.1905 -1.2639 -0.4665
  851SOL     MW 3404   2.226   2.379   0.316 -0.0627 -0.0381 -0.3962
  852SOL     OW 3405   2.332   2.109   0.291 -0.2029  0.2703 -0.3557
  852SOL    HW1 3406   2.291   2.192   0.308 -1.3583  0.3383 -1.3874
  852SOL    HW2 3407   2.382   2.120   0.208 -0.4784  0.8585 -0.2295
  852SOL     MW 3408   2.334   2.121   0.282 -0.3917  0.3569 -0.4752
  853SOL     OW 3409   2.440   2.439   1.910 -0.3035  0.6217 -0.1061
  853SOL    HW1 3410   2.468   2.477   1.822  2.0347  0.2825 -1.7833
  853SOL    HW2 3411   2.521   2.402   1.945 -0.2190  0.2328 -0.3483
  853SOL     MW 3412   2.454   2.439   1.903  0.0162  0.5256 -0.3593
  854SOL     OW 3413   2.869   2.220   0.740 -0.2526 -0.2747  0.2740
  854SOL    HW1 3414   2.802   2.173   0.694 -0.9862  0.2887  1.4783
  854SOL    HW2 3415   2.897   2.152   0.810  1.6696 -1.2970 -0.5607
  854SOL     MW 3416   2.864   2.205   0.743 -0.0957 -0.3352  0.3228
  855SOL     OW 3417   2.726   2.255   0.319 -0.0184 -0.1716 -0.7154
  855SOL    HW1 3418   2.681   2.240   0.406  1.2674 -0.4935  3.4314
  855SOL    HW2 3419   2.805   2.201   0.323 -0.6075  2.0615 -1.2102
  855SOL     MW 3420   2.730   2.246   0.331  0.0735  0.0806 -0.2336
  856SOL     OW 3421   2.201   1.886   0.179 -0.3366 -0.2759  0.3516
  856SOL    HW1 3422   2.109   1.870   0.212 -0.7254 -0.6980 -1.3098
  856SOL    HW2 3423   2.234   1.971   0.219 -1.1651  1.2624 -1.5859
  856SOL     MW 3424   2.193   1.895   0.188 -0.4972 -0.1286 -0.1232
  857SOL     OW 3425   2.487   1.906   0.455  0.0531  0.1083 -0.1910
  857SOL    HW1 3426   2.495   1.966   0.378 -0.7375 -3.0315 -0.3190
  857SOL    HW2 3427   2.389   1.884   0.450  0.1523 -0.0386  0.1745
  857SOL     MW 3428   2.475   1.911   0.444 -0.0381 -0.3253 -0.1597
  858SOL     OW 3429   2.933   2.661   1.771  0.3176  0.4544 -0.2218
  858SOL    HW1 3430   3.021   2.683   1.800 -1.6002  0.1917 -2.3461
  858SOL    HW2 3431   2.917   2.565   1.787 -1.4908 -1.3430 -1.1542
  858SOL     MW 3432   2.942   2.651   1.777 -0.1740  0.1826 -0.6251
  859SOL     OW 3433   2.073   2.446   0.906  0.4857  0.5988  0.2475
  859SOL    HW1 3434   2.030   2.384   0.841 -0.3654  2.5002 -1.3005
  859SOL    HW2 3435   2.155   2.409   0.933 -0.9239  0.7427 -2.3788
  859SOL     MW 3436   2.078   2.433   0.901  0.1874  0.8686 -0.3033
  860SOL     OW 3437   2.653   2.622   0.186 -0.5323  0.3132  0.0662
  860SOL    HW1 3438   2.728   2.594   0.233 -2.2985  1.2213 -2.4517
  860SOL    HW2 3439   2.683   2.687   0.128  0.7381  1.0978 -0.5671
  860SOL     MW 3440   2.666   2.627   0.185 -0.5977  0.5365 -0.3496
  861SOL     OW 3441   1.598   2.075   1.150 -0.8609  0.2407  0.3592
  861SOL    HW1 3442   1.685   2.087   1.203  0.1375  0.0080 -1.9732
  861SOL    HW2 3443   1.539   2.035   1.214  0.0072  0.9691 -0.4749
  861SOL     MW 3444   1.601   2.071   1.166 -0.6147  0.3061 -0.0586
  862SOL     OW 3445   2.406   1.866   1.566 -0.1772 -0.2591 -0.6319
  862SOL    HW1 3446   2.327   1.903   1.612  0.4057  0.5706 -0.8805
  862SOL    HW2 3447   2.394   1.889   1.475 -1.4913  1.7320  2.0434
  862SOL     MW 3448   2.394   1.874   1.560 -0.2737  0.1131 -0.3117
  863SOL     OW 3449   3.057   1.812   1.195  0.6165  0.4926 -0.8251
  863SOL    HW1 3450   3.091   1.764   1.269  0.5265 -1.3617 -1.5282
  863SOL    HW2 3451   3.046   1.908   1.219 -0.4866  2.4561 -2.0534
  863SOL     MW 3452   3.060   1.819   1.208  0.4591  0.5070 -1.0799
  864SOL     OW 3453   0.035   1.867   0.914 -0.6584 -0.1023 -0.1582
  864SOL    HW1 3454  -0.004   1.827   0.988  3.1536 -0.8093  0.6444
  864SOL    HW2 3455   0.005   1.834   0.829 -0.5293 -1.7381 -0.1786
  864SOL     MW 3456   0.026   1.857   0.913 -0.1384 -0.4114 -0.0550
  865SOL     OW 3457   2.492   2.179   0.056  0.2201  0.1332  0.6079
  865SOL    HW1 3458   2.553   2.116   0.109 -1.2590  0.8865  0.0707
  865SOL    HW2 3459   2.473   2.118  -0.025  3.4661  0.2640  0.7822
  865SOL     MW 3460   2.498   2.163   0.052  0.4532  0.2498  0.5600
  866SOL     OW 3461   2.723   2.334   1.583 -0.3853 -0.2894  0.1233
  866SOL    HW1 3462   2.715   2.238   1.578  0.0965  0.7659 -1.8588
  866SOL    HW2 3463   2.763   2.366   1.499 -0.8305  0.3346  1.0036
  866SOL     MW 3464   2.727   2.326   1.571 -0.3804 -0.0678 -0.0221
  867SOL     OW 3465   0.084   2.713   1.861 -0.4274  0.1233  0.1874
  867SOL    HW1 3466   0.139   2.712   1.941  0.2535  1.1943  0.3297
  867SOL    HW2 3467   0.095   2.797   1.811  1.0673 -1.9170 -1.1048
  867SOL     MW 3468   0.092   2.724   1.865 -0.1404 -0.0046  0.0357
  868SOL     OW 3469   2.796   2.532   0.577 -0.1705  0.1995 -0.0514
  868SOL    HW1 3470   2.718   2.476   0.580  2.6116 -2.4242 -2.5524
  868SOL    HW2 3471   2.773   2.617   0.543  2.9779 -0.6421  0.1317
  868SOL     MW 3472   2.783   2.536   0.573  0.6119 -0.2577 -0.3572
  869SOL     OW 3473   1.896   2.348   1.077 -0.1383 -0.1394 -0.3164
  869SOL    HW1 3474   1.972   2.390   1.032 -1.3533  1.9729 -1.4466
  869SOL    HW2 3475   1.837   2.367   1.011  1.5762  0.7393 -1.1855
  869SOL     MW 3476   1.898   2.356   1.062 -0.0724  0.2552 -0.5802
  870SOL     OW 3477   2.298   0.064   0.530 -0.5697 -0.5468  0.2272
  870SOL    HW1 3478   2.347   0.116   0.460  1.7672 -1.3475 -0.5863
  870SOL    HW2 3479   2.365   0.005   0.556 -0.5825 -0.4541 -0.5400
  870SOL     MW 3480   2.314   0.063   0.524 -0.2630 -0.6402  0.0186
  871SOL     OW 3481   2.454   2.102   0.828 -0.3751 -0.4284  0.6383
  871SOL    HW1 3482   2.391   2.050   0.772 -1.0735 -0.4511  3.7094
  871SOL    HW2 3483   2.402   2.175   0.871  0.9143  0.8736 -0.7566
  871SOL     MW 3484   2.439   2.105   0.826 -0.2972 -0.2596  0.8595
  872SOL     OW 3485   2.024   2.585   1.390  0.5269  0.2455 -0.6435
  872SOL    HW1 3486   1.973   2.626   1.461  0.8220 -0.7408 -0.5398
  872SOL    HW2 3487   1.973   2.506   1.370 -0.6015 -0.8551  0.3059
  872SOL     MW 3488   2.011   2.580   1.397  0.4169 -0.0298 -0.5046
  873SOL     OW 3489   2.830   2.047   1.900 -0.2687  0.3568  0.3383
  873SOL    HW1 3490   2.868   2.127   1.947  0.3424 -1.4242  0.8015
  873SOL    HW2 3491   2.875   2.038   1.816 -0.0341 -1.3707  0.9522
  873SOL     MW 3492   2.841   2.056   1.895 -0.1571 -0.1061  0.4804
  874SOL     OW 3493   2.451   1.512   2.299  0.0414  0.0379  0.9873
  874SOL    HW1 3494   2.360   1.469   2.301  0.1159  0.0019 -2.6693
  874SOL    HW2 3495   2.518   1.451   2.327  0.6328  1.5083 -1.7299
  874SOL     MW 3496   2.448   1.498   2.303  0.1293  0.2272  0.1464
  875SOL     OW 3497   2.341   2.331   0.939 -0.1862 -0.8134  0.3224
  875SOL    HW1 3498   2.400   2.380   0.878  3.4131 -1.1318 -1.3522
  875SOL    HW2 3499   2.370   2.367   1.023  0.0516 -0.8113 -0.7175
  875SOL     MW 3500   2.352   2.342   0.942  0.3201 -0.8551 -0.0357
  876SOL     OW 3501   3.050   2.354   1.341 -0.0242 -0.2648  0.0690
  876SOL    HW1 3502   3.081   2.366   1.247  1.7032 -0.0359 -3.2758
  876SOL    HW2 3503   3.099   2.414   1.394 -0.2827 -1.7933 -1.1493
  876SOL     MW 3504   3.060   2.364   1.335  0.1696 -0.4363 -0.5331
  877SOL     OW 3505   3.065   2.781   0.374 -0.4226 -0.3610 -0.7888
  877SOL    HW1 3506   3.066   2.857   0.317  2.1429 -1.7025 -0.0352
  877SOL    HW2 3507   3.072   2.711   0.308  2.6385  0.0619 -1.1067
  877SOL     MW 3508   3.066   2.782   0.358  0.3198 -0.4822 -0.7313
  878SOL     OW 3509   2.362   1.842   1.298 -0.4185 -0.0701  0.2582
  878SOL    HW1 3510   2.308   1.766   1.320 -2.1984  0.1928  0.6586
  878SOL    HW2 3511   2.441   1.799   1.267  1.1810 -2.3687 -1.1842
  878SOL     MW 3512   2.365   1.827   1.297 -0.4423 -0.3387  0.1207
  879SOL     OW 3513   2.760   2.404   0.931  0.9466  0.4577 -0.1908
  879SOL    HW1 3514   2.803   2.484   0.950  0.7652 -2.7951 -0.1404
  879SOL    HW2 3515   2.810   2.359   0.861 -0.1922  1.3243 -0.5061
  879SOL     MW 3516   2.772   2.409   0.924  0.7724  0.1428 -0.2258
  880SOL     OW 3517   2.655   2.009   0.663  0.7441  0.1211  0.1323
  880SOL    HW1 3518   2.592   2.046   0.723  0.4983  1.8120  2.0413
  880SOL    HW2 3519   2.602   1.975   0.590  0.1074  0.9497 -0.5847
  880SOL     MW 3520   2.640   2.009   0.661  0.6276  0.4535  0.2895
  881SOL     OW 3521   2.944   2.699   0.757  0.5919  0.0324  0.2923
  881SOL    HW1 3522   2.881   2.630   0.730 -1.9789 -2.5582  0.2722
  881SOL    HW2 3523   3.024   2.673   0.709 -0.6492 -1.8381  1.4850
  881SOL     MW 3524   2.946   2.686   0.747  0.0890 -0.5562  0.4470
  882SOL     OW 3525   2.298   2.791   1.861  0.7727 -0.8258  0.2262
  882SOL    HW1 3526   2.273   2.794   1.768  1.1518 -0.8489  1.0860
  882SOL    HW2 3527   2.240   2.734   1.910 -0.4581  0.4127 -0.0213
  882SOL     MW 3528   2.287   2.784   1.855  0.6603 -0.6655  0.3070
  883SOL     OW 3529   2.281   2.226   1.357 -0.3982  0.1065  0.0981
  883SOL    HW1 3530   2.357   2.170   1.348 -1.5273  2.5984 -1.9446
  883SOL    HW2 3531   2.207   2.178   1.310 -1.8694  0.5335 -1.4644
  883SOL     MW 3532   2.281   2.212   1.350 -0.7413  0.4916 -0.3776
  884SOL     OW 3533   1.923   1.829   1.120  0.0280  0.7840  0.1859
  884SOL    HW1 3534   1.875   1.888   1.058 -2.2049 -0.5712  2.1909
  884SOL    HW2 3535   2.010   1.864   1.118  1.0262 -0.9324  0.4352
  884SOL     MW 3536   1.928   1.841   1.112 -0.1349  0.3788  0.4833
  885SOL     OW 3537   2.818   2.420   1.842 -0.0768 -0.4759  0.6916
  885SOL    HW1 3538   2.894   2.357   1.839 -0.6367 -0.0460 -1.2557
  885SOL    HW2 3539   2.774   2.412   1.755  2.5238 -1.4411 -0.6513
  885SOL     MW 3540   2.822   2.411   1.830  0.1925 -0.5465  0.2575
  886SOL     OW 3541   2.827   2.531   1.335 -0.6905  0.1061  0.4051
  886SOL    HW1 3542   2.910   2.481   1.332  0.3698  1.7465 -5.0082
  886SOL    HW2 3543   2.859   2.618   1.354  0.7366  0.7339  1.5515
  886SOL     MW 3544   2.842   2.536   1.337 -0.3623  0.4054 -0.1579
  887SOL     OW 3545   2.289   2.615   1.462 -0.0611  0.0059  0.2118
  887SOL    HW1 3546   2.337   2.648   1.391 -1.5004  0.0615  0.7018
  887SOL    HW2 3547   2.211   2.573   1.424  0.3933  0.9819  0.9666
  887SOL     MW 3548   2.285   2.614   1.448 -0.1911  0.1420  0.3760
  888SOL     OW 3549   1.807   2.069   1.358 -0.3605  0.1812 -0.4414
  888SOL    HW1 3550   1.894   2.048   1.322 -1.0092  0.9341 -1.1242
  888SOL    HW2 3551   1.821   2.118   1.443 -0.9414  0.2048  0.4730
  888SOL     MW 3552   1.820   2.072   1.365 -0.5227  0.2837 -0.4108
  889SOL     OW 3553   2.311   2.076   2.105  0.5745 -0.3022 -0.0355
  889SOL    HW1 3554   2.393   2.089   2.149  0.0174 -0.6726  0.1171
  889SOL    HW2 3555   2.315   2.139   2.033 -1.2098 -0.1779  0.0472
  889SOL     MW 3556   2.322   2.086   2.101  0.2656 -0.3346 -0.0045
  890SOL     OW 3557   0.098   2.297   0.081  0.3069 -0.4034  0.2643
  890SOL    HW1 3558   0.156   2.373   0.077  0.1032  2.2960  0.6116
  890SOL    HW2 3559   0.093   2.271   0.174 -1.1575 -1.0060  0.8241
  890SOL     MW 3560   0.105   2.304   0.093  0.0868 -0.1268  0.3840
  891SOL     OW 3561   3.048   2.056   1.326 -0.0253 -0.0867 -0.1534
  891SOL    HW1 3562   3.108   2.020   1.393  2.9212 -0.9981 -0.1269
  891SOL    HW2 3563   3.027   2.148   1.344  1.6967 -1.8912 -1.3114
  891SOL     MW 3564   3.053   2.064   1.337  0.5907 -0.4451 -0.3027
  892SOL     OW 3565   2.336   2.372   2.967  0.0949  0.2952  0.4290
  892SOL    HW1 3566   2.336   2.295   3.023 -0.5992  0.7759 -2.1197
  892SOL    HW2 3567   2.425   2.398   2.956  0.5714  0.1118  0.3977
  892SOL     MW 3568   2.348   2.365   2.973  0.0662  0.3344  0.0886
  893SOL     OW 3569   1.603   2.523   1.234  0.2393  0.3215 -0.2426
  893SOL    HW1 3570   1.534   2.494   1.291 -0.2782 -0.1474  0.3888
  893SOL    HW2 3571   1.677   2.479   1.274 -0.0134 -2.3766 -1.8079
  893SOL     MW 3572   1.604   2.513   1.247  0.1377 -0.0963 -0.3658
  894SOL     OW 3573   2.886   1.892   0.520 -0.4039  0.1108 -0.0018
  894SOL    HW1 3574   2.803   1.934   0.570 -1.7557  1.7605  1.6002
  894SOL    HW2 3575   2.857   1.836   0.456 -1.2694  2.0571 -1.3369
  894SOL     MW 3576   2.871   1.890   0.518 -0.6964  0.5852  0.0334
  895SOL     OW 3577   2.067   2.115   1.190  0.5297 -0.1127 -0.2678
  895SOL    HW1 3578   2.032   2.188   1.142  0.4075  0.1386  0.0792
  895SOL    HW2 3579   2.112   2.057   1.127 -0.0854  1.9319 -1.0855
  895SOL     MW 3580   2.068   2.117   1.175  0.4324  0.1902 -0.3299
  896SOL     OW 3581   2.190   2.807   1.045  0.3831  0.3459  0.2999
  896SOL    HW1 3582   2.256   2.780   1.111 -0.8222 -1.1197 -0.2996
  896SOL    HW2 3583   2.107   2.803   1.105  0.4818  3.7931  0.3981
  896SOL     MW 3584   2.187   2.803   1.062  0.2371  0.6074  0.2338
  897SOL     OW 3585   2.980   2.956   0.146 -0.4663 -0.3357 -0.1679
  897SOL    HW1 3586   3.070   2.942   0.114  0.4827 -3.1286 -1.3234
  897SOL    HW2 3587   2.933   2.879   0.118  2.7185  1.0009 -0.1731
  897SOL     MW 3588   2.985   2.944   0.138  0.0791 -0.5279 -0.3211
  898SOL     OW 3589   2.075   0.162   1.405  0.0169  0.2666  0.2654
  898SOL    HW1 3590   2.008   0.137   1.340 -0.3483  2.8422 -1.6699
  898SOL    HW2 3591   2.134   0.216   1.351  0.9930 -0.3676  0.1767
  898SOL     MW 3592   2.074   0.166   1.389  0.0975  0.5228 -0.0017
  899SOL     OW 3593   2.897   2.956   0.627 -0.2888 -0.0546  0.5836
  899SOL    HW1 3594   2.899   2.872   0.675 -2.7733 -2.3507 -2.2930
  899SOL    HW2 3595   2.807   2.993   0.636 -0.2621  0.7319  0.1878
  899SOL     MW 3596   2.885   2.950   0.635 -0.6130 -0.2538  0.1518
  900SOL     OW 3597   0.129   2.372   1.126 -0.3008 -0.1667  0.0521
  900SOL    HW1 3598   0.144   2.461   1.091  1.0548 -0.5052 -1.1289
  900SOL    HW2 3599   0.130   2.318   1.046 -1.1331 -0.0109  0.5858
  900SOL     MW 3600   0.131   2.377   1.111 -0.2317 -0.1908 -0.0333
  901SOL     OW 3601   1.734   2.810   1.783  0.0054 -0.7099 -0.4161
  901SOL    HW1 3602   1.800   2.749   1.740  1.5605  0.6229 -0.7670
  901SOL    HW2 3603   1.678   2.844   1.720  1.9161  0.5394 -1.5065
  901SOL     MW 3604   1.735   2.807   1.769  0.4627 -0.3692 -0.6062
  902SOL     OW 3605   2.570   2.043   1.792  0.0982 -0.3056 -0.1922
  902SOL    HW1 3606   2.547   1.952   1.817  0.2334 -2.1050  0.0252
  902SOL    HW2 3607   2.660   2.055   1.820  1.5549 -2.0151 -0.8022
  902SOL     MW 3608   2.579   2.033   1.799  0.3083 -0.7686 -0.2440
  903SOL     OW 3609   1.654   2.783   0.513  0.2810 -0.4580 -0.1651
  903SOL    HW1 3610   1.712   2.704   0.548 -0.8888 -0.0408  0.7071
  903SOL    HW2 3611   1.614   2.804   0.601 -0.9719  0.7904  1.4719
  903SOL     MW 3612   1.657   2.776   0.529 -0.0387 -0.2382  0.1660
  904SOL     OW 3613   2.493   2.522   1.658 -0.0838 -0.1359  0.3728
  904SOL    HW1 3614   2.442   2.507   1.573 -1.4477  0.2471  1.1715
  904SOL    HW2 3615   2.576   2.478   1.641 -0.0549  0.6888  1.2666
  904SOL     MW 3616   2.497   2.514   1.645 -0.2599  0.0235  0.5961
  905SOL     OW 3617   2.358   2.579   2.124 -0.5544  0.3853  0.4787
  905SOL    HW1 3618   2.398   2.527   2.054 -0.3224  1.2937  0.1538
  905SOL    HW2 3619   2.328   2.514   2.193 -1.3579 -2.5789 -1.4029
  905SOL     MW 3620   2.359   2.564   2.124 -0.6298  0.1140  0.1876
  906SOL     OW 3621   2.515   2.526   0.820 -0.2231 -0.4902  0.1329
  906SOL    HW1 3622   2.578   2.504   0.887  1.1575 -2.4604 -0.1194
  906SOL    HW2 3623   2.477   2.617   0.832  0.2991  1.6627  1.3387
  906SOL     MW 3624   2.518   2.535   0.830  0.0280 -0.4661  0.2587
  907SOL     OW 3625   2.580   2.851   1.271  0.7040  0.1664 -0.2616
  907SOL    HW1 3626   2.650   2.853   1.334 -0.6421  0.4488 -0.4374
  907SOL    HW2 3627   2.630   2.854   1.188 -0.0543  0.7624 -0.4990
  907SOL     MW 3628   2.596   2.852   1.268  0.4264  0.2823 -0.3161
  908SOL     OW 3629   2.686   2.382   0.015  0.2151  0.3245  0.2018
  908SOL    HW1 3630   2.622   2.330   0.056  0.3636  0.1774  0.9470
  908SOL    HW2 3631   2.688   2.474   0.053  1.9080 -0.1120 -1.7086
  908SOL     MW 3632   2.678   2.387   0.025  0.4581  0.2475  0.0481
  909SOL     OW 3633   1.655   0.238   1.032 -1.1668  0.3591  0.1358
  909SOL    HW1 3634   1.682   0.328   1.008 -1.5472 -1.7242 -0.3478
  909SOL    HW2 3635   1.633   0.235   1.126  0.8463 -1.7519 -0.0618
  909SOL     MW 3636   1.656   0.250   1.041 -0.9514 -0.1943  0.0459
  910SOL     OW 3637   2.249   1.712   0.394 -0.0645  0.2501  0.0113
  910SOL    HW1 3638   2.174   1.674   0.439 -0.0542  3.7278 -1.7859
  910SOL    HW2 3639   2.220   1.778   0.330  2.5632 -0.8701 -1.6961
  910SOL     MW 3640   2.236   1.716   0.391  0.2835  0.5611 -0.4511
  911SOL     OW 3641   2.165   2.208   1.625  0.2630  0.4472  0.4192
  911SOL    HW1 3642   2.228   2.210   1.695 -0.4249 -0.3755  0.9424
  911SOL    HW2 3643   2.209   2.222   1.545 -2.4349  0.9546 -0.2469
  911SOL     MW 3644   2.179   2.210   1.623 -0.1837  0.4056  0.4004
  912SOL     OW 3645   2.870   1.905   1.491  0.0575 -0.8075 -0.2050
  912SOL    HW1 3646   2.921   1.952   1.419  2.5342  2.0516 -0.0877
  912SOL    HW2 3647   2.787   1.956   1.506 -0.4372  2.5038  2.7787
  912SOL     MW 3648   2.866   1.918   1.484  0.3190  0.0066  0.2041
  913SOL     OW 3649   2.557   2.953   0.376 -0.3487  0.2398 -0.1562
  913SOL    HW1 3650   2.634   2.896   0.392 -0.5189 -1.8176  0.6412
  913SOL    HW2 3651   2.483   2.895   0.390  0.7797 -0.1586  1.8991
  913SOL     MW 3652   2.557   2.938   0.380 -0.2223 -0.0842  0.2202
  914SOL     OW 3653   2.800   1.632   0.007 -0.3285 -0.1148 -0.0560
  914SOL    HW1 3654   2.796   1.705  -0.050 -1.6484 -1.5060  2.0469
  914SOL    HW2 3655   2.714   1.615   0.028  3.5832 -1.9994 -0.1278
  914SOL     MW 3656   2.788   1.639   0.002  0.0135 -0.5470  0.2120
  915SOL     OW 3657   1.869   0.174   0.217 -0.2984 -0.3834 -0.0058
  915SOL    HW1 3658   1.907   0.109   0.277  0.4581 -1.9212 -1.3493
  915SOL    HW2 3659   1.776   0.175   0.247  0.1621  1.7306 -1.2972
  915SOL     MW 3660   1.861   0.165   0.229 -0.1378 -0.3074 -0.3535
  916SOL     OW 3661   1.814   2.108   1.943  0.2858 -0.6082 -0.2319
  916SOL    HW1 3662   1.825   2.204   1.936 -0.7104  2.1346  1.6894
  916SOL    HW2 3663   1.844   2.071   1.861  0.3588  1.2235 -1.3347
  916SOL     MW 3664   1.820   2.115   1.931  0.1640 -0.0046 -0.1239
  917SOL     OW 3665   2.281   2.328   2.672  0.1372 -0.4487  0.3726
  917SOL    HW1 3666   2.293   2.310   2.765 -1.8932  1.3829  1.0775
  917SOL    HW2 3667   2.283   2.424   2.661 -0.2753  1.2154  2.1249
  917SOL     MW 3668   2.282   2.338   2.683 -0.1851  0.0125  0.6968
  918SOL     OW 3669   2.036   1.649   2.648  0.6883 -0.2265  0.7384
  918SOL    HW1 3670   1.956   1.647   2.592  0.8849  0.4225 -1.4927
  918SOL    HW2 3671   2.094   1.713   2.611 -0.1219 -0.7307  1.8671
  918SOL     MW 3672   2.033   1.657   2.636  0.6073 -0.2074  0.5930
  919SOL     OW 3673   3.056   2.394   2.265  0.1297  0.0507 -0.0220
  919SOL    HW1 3674   2.990   2.344   2.230  2.1219  3.0755  0.6447
  919SOL    HW2 3675   3.135   2.383   2.196  3.1106 -0.3091 -3.6517
  919SOL     MW 3676   3.058   2.386   2.251  0.7859  0.4023 -0.4129
  920SOL     OW 3677   2.766   2.844   0.011  0.0734  0.2508 -0.0357
  920SOL    HW1 3678   2.685   2.899   0.032 -1.2224  0.4913  1.7486
  920SOL    HW2 3679   2.739   2.774  -0.052 -1.9384  0.0353 -0.0847
  920SOL     MW 3680   2.752   2.842   0.005 -0.3630  0.2541  0.1933
  921SOL     OW 3681   2.522   2.658   2.708 -0.1516 -0.6557  0.2061
  921SOL    HW1 3682   2.589   2.667   2.645  0.8293  0.1671  0.8929
  921SOL    HW2 3683   2.559   2.593   2.777  1.9795 -0.3799 -2.7427
  921SOL     MW 3684   2.536   2.651   2.709  0.2590 -0.5108 -0.0923
  922SOL     OW 3685   2.029   2.853   0.268  0.2819 -0.5200 -0.0731
  922SOL    HW1 3686   2.016   2.923   0.197  0.7470 -2.3235  1.9102
  922SOL    HW2 3687   1.973   2.776   0.244 -1.4830 -2.0306  0.2448
  922SOL     MW 3688   2.020   2.852   0.256  0.1104 -0.9573  0.2305
  923SOL     OW 3689   2.173   2.811   1.624  0.4878 -0.3183 -0.0907
  923SOL    HW1 3690   2.226   2.761   1.563  1.3599  1.3637  0.5452
  923SOL    HW2 3691   2.186   2.908   1.610 -2.2585 -0.2001  0.3793
  923SOL     MW 3692   2.182   2.817   1.614  0.2405 -0.0808  0.0552
  924SOL     OW 3693   1.150   2.753   2.475 -0.1595  0.5085  0.5311
  924SOL    HW1 3694   1.208   2.784   2.408  0.0951  0.4995 -0.8857
  924SOL    HW2 3695   1.192   2.676   2.512 -1.5736  0.5606  1.2081
  924SOL     MW 3696   1.163   2.746   2.471 -0.3125  0.5142  0.4335
  925SOL     OW 3697   2.992   0.234   2.691 -0.2830 -0.4785 -0.5694
  925SOL    HW1 3698   3.030   0.274   2.615 -3.3248 -0.9050  0.5188
  925SOL    HW2 3699   2.976   0.318   2.740  0.5758 -2.5794 -1.0024
  925SOL     MW 3700   2.995   0.251   2.687 -0.5710 -0.8120 -0.4829
  926SOL     OW 3701   2.653   2.383   2.067 -0.2232 -0.0019  0.9033
  926SOL    HW1 3702   2.692   2.445   2.128  1.6115  0.5886  1.2077
  926SOL    HW2 3703   2.701   2.403   1.980 -2.5500  0.6676 -2.4910
  926SOL     MW 3704   2.665   2.394   2.063 -0.2881  0.1643  0.4956
  927SOL     OW 3705   2.390   0.163   0.299 -0.8124 -0.0873 -0.2127
  927SOL    HW1 3706   2.479   0.172   0.260  1.6991  1.4248  1.9243
  927SOL    HW2 3707   2.342   0.132   0.223  1.0975  1.4460  3.0147
  927SOL     MW 3708   2.395   0.160   0.284 -0.2290  0.3145  0.4951
  928SOL     OW 3709   2.028   2.504   1.824 -0.3284  0.3082 -0.2519
  928SOL    HW1 3710   2.110   2.462   1.834 -2.5214  1.5048 -1.7626
  928SOL    HW2 3711   2.032   2.556   1.906 -1.2660  2.2356  0.5261
  928SOL     MW 3712   2.039   2.505   1.837 -0.7414  0.7204 -0.3485
  929SOL     OW 3713   2.741   2.340   2.453  0.4805  0.1141 -0.0969
  929SOL    HW1 3714   2.712   2.279   2.384  0.3271  0.2212  0.3165
  929SOL    HW2 3715   2.765   2.284   2.527 -1.2594  1.3008 -3.4766
  929SOL     MW 3716   2.740   2.325   2.454  0.2307  0.2848 -0.4883
  930SOL     OW 3717   2.001   2.883   2.645  0.2686  0.1984 -0.3083
  930SOL    HW1 3718   2.003   2.817   2.712 -3.9218 -1.5197 -2.1599
  930SOL    HW2 3719   2.086   2.937   2.651  0.6804 -0.9759  2.0646
  930SOL     MW 3720   2.013   2.881   2.654 -0.2300 -0.1832 -0.2395
  931SOL     OW 3721   2.934   2.827   2.163  0.0328  0.2343  0.2560
  931SOL    HW1 3722   3.011   2.780   2.127  1.7443  1.2010  2.2746
  931SOL    HW2 3723   2.949   2.918   2.150 -1.8984 -1.1143 -1.1335
  931SOL     MW 3724   2.946   2.833   2.156  0.0038  0.1839  0.3390
  932SOL     OW 3725   2.816   1.918   2.526  0.4676  0.1959 -0.3260
  932SOL    HW1 3726   2.895   1.957   2.555 -1.6459  0.4703 -0.1788
  932SOL    HW2 3727   2.809   1.929   2.433 -0.7344 -0.8199  1.7509
  932SOL     MW 3728   2.825   1.925   2.518  0.0302  0.0981 -0.0325
  933SOL     OW 3729   2.073   2.794   2.257 -0.0270  0.6177 -0.3904
  933SOL    HW1 3730   2.157   2.827   2.284 -1.3669 -2.9562 -0.8272
  933SOL    HW2 3731   2.032   2.875   2.237 -0.8484 -2.2658  1.0832
  933SOL     MW 3732   2.079   2.809   2.258 -0.3122 -0.2343 -0.2536
  934SOL     OW 3733   1.990   2.668   2.481 -0.9232 -0.1479 -0.1321
  934SOL    HW1 3734   2.004   2.741   2.538  1.6111  2.4055 -2.6703
  934SOL    HW2 3735   2.033   2.706   2.406  1.1380 -0.2412 -1.8023
  934SOL     MW 3736   1.998   2.682   2.478 -0.3168  0.1767 -0.6874
  935SOL     OW 3737   2.633   1.595   1.798  0.0897  0.3188 -0.5957
  935SOL    HW1 3738   2.718   1.557   1.768  0.3915 -1.0629 -1.3019
  935SOL    HW2 3739   2.585   1.593   1.721  0.3855  0.1017  3.3049
  935SOL     MW 3740   2.638   1.590   1.784  0.1686  0.1079 -0.1742
  936SOL     OW 3741   2.953   2.230   3.090  0.4612  0.5408 -0.5517
  936SOL    HW1 3742   3.045   2.261   3.118  2.0518  0.7893 -0.5621
  936SOL    HW2 3743   2.892   2.302   3.084 -1.5832 -1.7131 -0.1852
  936SOL     MW 3744   2.957   2.244   3.093  0.4013  0.2762 -0.5047
  937SOL     OW 3745   1.981   2.234   2.607  0.1411 -0.7319  0.0062
  937SOL    HW1 3746   2.067   2.208   2.648  0.9595 -1.8825  1.0074
  937SOL    HW2 3747   1.988   2.238   2.511 -1.4304 -2.5522 -1.2793
  937SOL     MW 3748   1.993   2.231   2.600  0.0418 -1.1239 -0.0313
  938SOL     OW 3749   2.255   1.845   1.932 -0.0688 -0.0135 -0.1139
  938SOL    HW1 3750   2.203   1.873   1.859  0.8847 -0.4474 -0.5218
  938SOL    HW2 3751   2.264   1.919   1.994  0.4720 -0.1966 -4.3132
  938SOL     MW 3752   2.249   1.859   1.931  0.1283 -0.0949 -0.7218
  939SOL     OW 3753   2.805   1.995   2.275  0.4535 -0.1474  0.3028
  939SOL    HW1 3754   2.811   1.932   2.204 -0.0544  1.5698  1.7813
  939SOL    HW2 3755   2.709   2.015   2.277 -1.5973  1.0965 -0.1077
  939SOL     MW 3756   2.793   1.989   2.266  0.1159  0.2433  0.4437
  940SOL     OW 3757   2.278   0.177   2.684 -0.0939 -0.4396  0.2748
  940SOL    HW1 3758   2.251   0.084   2.682  1.0623  2.0614  0.4411
  940SOL    HW2 3759   2.314   0.195   2.776  0.8032 -0.8173  1.1094
  940SOL     MW 3760   2.280   0.167   2.696  0.1770 -0.1594  0.4068
  941SOL     OW 3761   0.121   2.366   2.068  0.8096  0.5047  0.4026
  941SOL    HW1 3762   0.186   2.299   2.072  2.5722 -0.7146  2.7373
  941SOL    HW2 3763   0.055   2.333   2.012  1.8592 -2.5134  3.4550
  941SOL     MW 3764   0.121   2.353   2.061  1.1806 -0.0544  1.1134
  942SOL     OW 3765   2.870   2.232   2.128  0.0283 -0.4563  0.8619
  942SOL    HW1 3766   2.789   2.274   2.112  0.2727 -3.8348  1.9760
  942SOL    HW2 3767   2.845   2.149   2.171  1.0416  0.5685  0.6426
  942SOL     MW 3768   2.856   2.226   2.132  0.1942 -0.7669  0.9799
  943SOL     OW 3769   0.225   2.017   2.327  0.1347  0.0457  0.2504
  943SOL    HW1 3770   0.181   2.089   2.385 -1.0403  0.2766  3.0461
  943SOL    HW2 3771   0.313   2.004   2.364  1.0763  1.2641 -0.0284
  943SOL     MW 3772   0.231   2.025   2.340  0.1039  0.2369  0.5825
  944SOL     OW 3773   2.120   2.659   2.016 -0.0705  0.1018 -0.2859
  944SOL    HW1 3774   2.204   2.618   2.048  0.6028 -1.3013  2.2712
  944SOL    HW2 3775   2.086   2.685   2.101  2.1875  0.3133 -0.9543
  944SOL     MW 3776   2.127   2.657   2.032  0.3162 -0.0554 -0.0367
  945SOL     OW 3777   2.761   2.627   2.942 -0.0908  0.5308 -0.1167
  945SOL    HW1 3778   2.712   2.547   2.921 -2.2455 -0.1547  1.3801
  945SOL    HW2 3779   2.806   2.640   2.856 -0.7874 -0.6071  1.6603
  945SOL     MW 3780   2.761   2.618   2.928 -0.4670  0.2902  0.3152
  946SOL     OW 3781   2.547   2.712   2.293  0.3187 -0.0665 -0.3330
  946SOL    HW1 3782   2.556   2.749   2.207  0.6443 -0.0273 -1.5496
  946SOL    HW2 3783   2.492   2.640   2.272  1.4698  1.1256  4.1462
  946SOL     MW 3784   2.541   2.708   2.279  0.5136  0.0960  0.0975
  947SOL     OW 3785   2.059   0.059   0.388 -0.1472  0.2494 -0.4007
  947SOL    HW1 3786   2.024  -0.034   0.387 -3.2778 -1.4817 -3.8045
  947SOL    HW2 3787   2.137   0.057   0.437  2.4690 -1.2860  0.2815
  947SOL     MW 3788   2.065   0.046   0.395 -0.2151 -0.1816 -0.7598
  948SOL     OW 3789   1.844   3.085   2.640  0.3038 -0.0359  0.0958
  948SOL    HW1 3790   1.893   3.000   2.632  1.3005 -1.5180  2.0780
  948SOL    HW2 3791   1.858   3.141   2.566  1.1348 -1.2853  1.8888
  948SOL     MW 3792   1.852   3.081   2.629  0.5449 -0.3963  0.5939
  949SOL     OW 3793   2.531   2.060   2.285  0.0423 -0.1571  0.3672
  949SOL    HW1 3794   2.509   1.974   2.332 -0.1090 -2.0510  0.6617
  949SOL    HW2 3795   2.494   2.130   2.335  1.0867 -0.3315  0.0720
  949SOL     MW 3796   2.523   2.058   2.298  0.1601 -0.4300  0.3671
  950SOL     OW 3797   2.248   2.625   3.058 -0.3228  0.2968 -0.0212
  950SOL    HW1 3798   2.284   2.540   3.033 -0.9405  0.0054  2.6405
  950SOL    HW2 3799   2.188   2.662   2.988  0.3826 -0.4796 -2.4590
  950SOL     MW 3800   2.245   2.619   3.046 -0.3112  0.1559  0.0084
  951SOL     OW 3801   2.883   2.055   2.862  0.3964 -0.0281 -0.0775
  951SOL    HW1 3802   2.912   2.089   2.947  1.7572 -1.9796 -3.3683
  951SOL    HW2 3803   2.961   2.049   2.797 -0.2313 -0.2554  0.2517
  951SOL     MW 3804   2.897   2.059   2.865  0.4932 -0.3156 -0.4683
  952SOL     OW 3805   3.078   1.637   2.073  0.5116 -0.0453  0.6105
  952SOL    HW1 3806   2.993   1.684   2.056  1.4657  0.6600 -0.0389
  952SOL    HW2 3807   3.136   1.714   2.092 -0.1427  0.3027 -2.3332
  952SOL     MW 3808   3.075   1.654   2.073  0.5511  0.0937  0.1364
  953SOL     OW 3809   1.931   1.845   2.812 -0.4489 -0.3339 -0.1987
  953SOL    HW1 3810   1.841   1.809   2.832 -0.4626 -0.7516 -1.2495
  953SOL    HW2 3811   1.992   1.776   2.775  1.9365  0.0328 -1.5315
  953SOL     MW 3812   1.927   1.831   2.809 -0.1360 -0.3406 -0.5132
  954SOL     OW 3813   2.435   2.024   2.917 -0.3436  0.0962 -0.5979
  954SOL    HW1 3814   2.351   2.030   2.867 -0.4284  3.3591  1.3110
  954SOL    HW2 3815   2.506   1.992   2.847 -0.0864 -1.5054 -0.4507
  954SOL     MW 3816   2.433   2.021   2.901 -0.3208  0.3154 -0.3266
  955SOL     OW 3817   1.577   1.629   2.590  0.1622 -0.1803  0.2195
  955SOL    HW1 3818   1.531   1.637   2.505  1.3903  0.7076 -0.1238
  955SOL    HW2 3819   1.666   1.641   2.571 -1.6414 -4.1641  0.5289
  955SOL     MW 3820   1.583   1.631   2.577  0.0863 -0.5887  0.2150
  956SOL     OW 3821   2.614   2.422   2.864  0.7285  0.4643  0.3095
  956SOL    HW1 3822   2.647   2.387   2.946 -1.7417  0.4037 -2.5555
  956SOL    HW2 3823   2.663   2.380   2.794 -1.9431 -0.7269  0.7120
  956SOL     MW 3824   2.625   2.412   2.866  0.0501  0.2991 -0.0154
  957SOL     OW 3825   2.279   2.831   0.395  0.0983 -0.1458  0.1711
  957SOL    HW1 3826   2.230   2.853   0.320  3.9349 -1.8716  0.6036
  957SOL    HW2 3827   2.217   2.778   0.452  0.3046 -1.7679 -2.5338
  957SOL     MW 3828   2.264   2.827   0.393  0.6317 -0.5875 -0.1287
  958SOL     OW 3829   2.037   2.704   2.866 -0.3337  0.3382 -0.4104
  958SOL    HW1 3830   2.003   2.635   2.810 -1.7249 -0.6401 -0.9177
  958SOL    HW2 3831   1.965   2.741   2.914  2.3405  0.0479  0.6058
  958SOL     MW 3832   2.023   2.700   2.865 -0.1644  0.1708 -0.3433
  959SOL     OW 3833   2.419   2.591   0.362 -0.7010 -0.2426 -0.0744
  959SOL    HW1 3834   2.492   2.600   0.297 -0.4272  1.0345  0.4354
  959SOL    HW2 3835   2.375   2.675   0.368  1.8163 -0.9994 -0.8537
  959SOL     MW 3836   2.423   2.603   0.354 -0.3327 -0.1739 -0.1100
  960SOL     OW 3837   1.963   2.459   2.292 -0.3108 -0.1725  0.3027
  960SOL    HW1 3838   1.936   2.372   2.299  1.1585  1.5294 -0.1671
  960SOL    HW2 3839   1.950   2.499   2.372 -1.4401 -3.9066  0.1092
  960SOL     MW 3840   1.958   2.453   2.304 -0.2660 -0.4406  0.2152
  961SOL     OW 3841   2.236   2.449   2.324  0.1676 -0.4788 -0.4040
  961SOL    HW1 3842   2.140   2.447   2.308  0.2758 -0.0055 -0.5470
  961SOL    HW2 3843   2.238   2.507   2.401  1.0217 -2.7540 -1.0928
  961SOL     MW 3844   2.224   2.457   2.332  0.2946 -0.7165 -0.5138
  962SOL     OW 3845   2.183   2.049   2.780 -0.1670 -0.0188  0.3123
  962SOL    HW1 3846   2.154   2.004   2.863  0.5177 -2.4245  0.6999
  962SOL    HW2 3847   2.204   1.971   2.718  1.1426 -0.5990 -1.5073
  962SOL     MW 3848   2.182   2.033   2.783  0.0961 -0.4127  0.1233
  963SOL     OW 3849   1.745   2.535   2.153 -0.1082 -0.3401  0.5823
  963SOL    HW1 3850   1.810   2.495   2.204 -0.5694 -0.0277 -0.2649
  963SOL    HW2 3851   1.750   2.481   2.075 -1.2508 -1.4341  1.5862
  963SOL     MW 3852   1.754   2.522   2.150 -0.3198 -0.4432  0.6029
  964SOL     OW 3853   1.806   1.999   2.629  0.0067 -0.3839  0.4566
  964SOL    HW1 3854   1.849   2.082   2.606  2.0884 -1.1634  0.1460
  964SOL    HW2 3855   1.872   1.958   2.686 -2.0434  0.6629 -0.8393
  964SOL     MW 3856   1.820   2.004   2.634  0.0109 -0.3486  0.2447
  965SOL     OW 3857   2.191   2.684   0.623 -0.8160  0.4098  0.4022
  965SOL    HW1 3858   2.189   2.587   0.624 -0.0381 -1.4291  2.7110
  965SOL    HW2 3859   2.275   2.700   0.662  0.2981  1.0536 -0.3409
  965SOL     MW 3860   2.202   2.673   0.628 -0.5663  0.2521  0.6088
  966SOL     OW 3861   2.736   2.603   2.527 -0.2004 -0.0428 -0.2225
  966SOL    HW1 3862   2.719   2.634   2.439 -1.9033  2.0523  0.0370
  966SOL    HW2 3863   2.748   2.508   2.520 -0.9767  1.1117 -0.1964
  966SOL     MW 3864   2.736   2.594   2.514 -0.5275  0.3860 -0.1848
  967SOL     OW 3865   2.871   3.029   2.925 -0.0209 -0.1705 -0.5091
  967SOL    HW1 3866   2.837   2.963   2.989 -0.0966 -1.4844 -1.5832
  967SOL    HW2 3867   2.804   3.094   2.903  1.3533 -0.9012 -2.3332
  967SOL     MW 3868   2.858   3.029   2.931  0.1505 -0.4403 -0.8915
  968SOL     OW 3869   3.006   2.535   3.005 -0.1230  0.0831 -0.7478
  968SOL    HW1 3870   2.927   2.599   3.003 -2.6526 -1.0196 -0.1342
  968SOL    HW2 3871   3.019   2.499   2.918  0.1473  1.5478  2.1794
  968SOL     MW 3872   2.997   2.539   2.993 -0.4211  0.1309 -0.2807
  969SOL     OW 3873   1.564   2.133   1.723  0.0910 -0.2739 -0.1649
  969SOL    HW1 3874   1.651   2.081   1.716  0.4565  1.3496 -0.7501
  969SOL    HW2 3875   1.530   2.131   1.812 -1.0786  2.6594  1.3456
  969SOL     MW 3876   1.571   2.126   1.734 -0.0151  0.3273 -0.0428
  970SOL     OW 3877   1.691   1.699   1.838 -0.1704  0.1634  0.4495
  970SOL    HW1 3878   1.758   1.688   1.905 -1.2377 -1.6522  1.5877
  970SOL    HW2 3879   1.610   1.729   1.876 -1.7063  0.0166 -0.4546
  970SOL     MW 3880   1.689   1.702   1.852 -0.5139 -0.0955  0.4804
  971SOL     OW 3881   1.856   0.099   2.387 -0.3313  0.2700 -0.2265
  971SOL    HW1 3882   1.898   0.033   2.324  0.7408  1.3946 -0.3892
  971SOL    HW2 3883   1.923   0.172   2.407  1.7869  2.2251 -0.9950
  971SOL     MW 3884   1.870   0.100   2.381  0.0896  0.6763 -0.3493
  972SOL     OW 3885   0.239   2.803   2.516  0.2815  0.2180  0.1303
  972SOL    HW1 3886   0.283   2.723   2.509 -1.2411  2.3605  0.0060
  972SOL    HW2 3887   0.310   2.871   2.507 -0.7150  1.6230  0.3697
  972SOL     MW 3888   0.254   2.801   2.514 -0.0509  0.6860  0.1455
  973SOL     OW 3889   2.607   3.096   2.065  0.4735 -0.4459 -0.4240
  973SOL    HW1 3890   2.584   3.007   2.051 -1.7464  2.4345 -1.9381
  973SOL    HW2 3891   2.589   3.138   1.982 -0.6947  0.6330  1.7687
  973SOL     MW 3892   2.601   3.090   2.052  0.0265  0.0765 -0.3344
  974SOL     OW 3893   2.061   0.323   2.719  0.7114  0.3090 -0.0510
  974SOL    HW1 3894   2.130   0.262   2.698 -1.3876 -1.3232  1.7974
  974SOL    HW2 3895   2.005   0.276   2.785 -3.2185  1.0658 -0.2621
  974SOL     MW 3896   2.062   0.309   2.725 -0.0840  0.1935  0.1650
  975SOL     OW 3897   2.305   2.580   2.549 -0.1551  0.6740  0.1376
  975SOL    HW1 3898   2.384   2.608   2.596 -1.1863 -0.3570 -1.9034
  975SOL    HW2 3899   2.256   2.661   2.549 -1.9748  0.1535 -1.1174
  975SOL     MW 3900   2.309   2.594   2.555 -0.5312  0.4693 -0.2972
  976SOL     OW 3901   0.257   0.248   1.702  0.1854 -0.2113  0.6326
  976SOL    HW1 3902   0.315   0.188   1.749 -1.8006  2.4649  1.1716
  976SOL    HW2 3903   0.177   0.196   1.686 -1.2062 -1.5213  0.6170
  976SOL     MW 3904   0.254   0.233   1.706 -0.2603 -0.0310  0.7017
  977SOL     OW 3905   1.676   2.771   2.475  0.0250 -0.2491 -0.1706
  977SOL    HW1 3906   1.696   2.672   2.488  0.2947  0.4145 -0.1381
  977SOL    HW2 3907   1.750   2.817   2.439  1.0845 -1.9977 -2.3601
  977SOL     MW 3908   1.688   2.764   2.472  0.2004 -0.3923 -0.4552
   3.10000   3.10000   3.10000
