1000 SPC/Fw water molecules
3000
    1SOL  OW       1   1.018   2.181   2.231 -0.4136 -0.0917  0.1657
    1SOL  HW1      2   0.970   2.216   2.310  0.5807  0.5381 -2.4229
    1SOL  HW2      3   0.998   2.233   2.146  2.8456  1.2155  0.0015
    2SOL  OW       4   1.468   0.308   1.132  0.1780 -0.1043 -0.3920
    2SOL  HW1      5   1.471   0.285   1.232 -1.6718 -1.1377 -0.6063
    2SOL  HW2      6   1.530   0.385   1.112 -1.6916 -0.4868  0.9587
    3SOL  OW       7   0.526   0.817   2.635 -0.1882  0.2690 -0.6356
    3SOL  HW1      8   0.444   0.814   2.576  0.6545  0.9191 -0.8761
    3SOL  HW2      9   0.610   0.832   2.577 -1.0573  2.5967 -0.3792
    4SOL  OW      10   2.441   1.947   3.069 -0.6389  0.5896  0.2191
    4SOL  HW1     11   2.373   1.870   3.066  0.7806 -1.5498  0.8772
    4SOL  HW2     12   2.478   1.958   2.977  4.1514 -0.6713  3.3424
    5SOL  OW      13   1.627   1.015   1.349 -0.0666 -0.1226 -0.0694
    5SOL  HW1     14   1.599   0.956   1.268 -3.0385 -3.2521 -0.2731
    5SOL  HW2     15   1.563   1.094   1.355 -0.0940 -1.9959 -1.8872
    6SOL  OW      16   2.271   0.978   0.477  0.1217  0.6195  0.1339
    6SOL  HW1     17   2.347   0.942   0.418 -1.1435  2.0396  0.2662
    6SOL  HW2     18   2.200   0.906   0.499 -0.3588  0.4184  1.1279
    7SOL  OW      19   0.210   1.688   1.856  0.3412  0.1281  0.7471
    7SOL  HW1     20   0.242   1.669   1.761 -0.5721 -1.4249 -2.7108
    7SOL  HW2     21   0.163   1.611   1.897 -1.3798 -1.6397 -1.6789
    8SOL  OW      22   2.754   2.346   2.664  0.3723 -0.0920 -0.0835
    8SOL  HW1     23   2.710   2.406   2.594 -2.2241  1.0339  3.0720
    8SOL  HW2     24   2.792   2.400   2.742 -0.1454  1.3043  1.9456
    9SOL  OW      25   1.750   1.686   0.880 -0.1142 -0.0981 -0.1174
    9SOL  HW1     26   1.727   1.604   0.938 -1.5184  2.0253 -2.8501
    9SOL  HW2     27   1.798   1.643   0.802  0.6163 -4.3616 -0.5013
   10SOL  OW      28   0.251   1.949   0.626 -0.5858  0.4885 -0.5420
   10SOL  HW1     29   0.150   1.948   0.654 -0.1825 -0.7128  0.5833
   10SOL  HW2     30   0.316   2.002   0.692 -2.3144  1.6158 -1.7228
   11SOL  OW      31   2.749   1.183   0.721  0.0590  0.4697 -0.1112
   11SOL  HW1     32   2.770   1.108   0.656 -1.7758 -1.3047 -1.6704
   11SOL  HW2     33   2.715   1.264   0.675  0.6134 -1.2830  2.0095
   12SOL  OW      34   0.116   2.041   0.393 -0.0929 -0.8713  0.3366
   12SOL  HW1     35   0.164   2.001   0.478  0.2861  3.9758  0.0116
   12SOL  HW2     36   0.013   2.040   0.403  1.0762 -2.4865  0.2816
   13SOL  OW      37   0.577   0.428   1.896  0.7843  0.4705  0.0375
   13SOL  HW1     38   0.629   0.428   1.810  0.6618  0.4618 -0.8543
   13SOL  HW2     39   0.511   0.502   1.892 -0.7521  1.8385  0.8267
   14SOL  OW      40   1.980   2.761   1.973  0.3169  0.1321  0.5090
   14SOL  HW1     41   1.977   2.762   1.869  1.8940  1.5005  2.6171
   14SOL  HW2     42   1.896   2.712   2.000  2.3249 -1.3112 -2.4894
   15SOL  OW      43   0.135   2.349   3.015 -0.2325 -0.1298 -0.2291
   15SOL  HW1     44   0.056   2.314   2.965  1.5175  3.1747  2.1620
   15SOL  HW2     45   0.121   2.440   3.058 -0.8264  0.4865  0.7169
   16SOL  OW      46   1.473   0.988   2.595 -0.0785 -0.0076  1.1282
   16SOL  HW1     47   1.426   0.990   2.686 -1.2623  1.6808 -0.4354
   16SOL  HW2     48   1.562   0.946   2.609  0.1581 -2.4074 -4.5658
   17SOL  OW      49   0.234   0.616   1.506  0.4467 -0.2401 -0.1001
   17SOL  HW1     50   0.233   0.700   1.446  0.8356 -1.2203  2.2945
   17SOL  HW2     51   0.144   0.603   1.554 -1.9070 -0.0521  1.2199
   18SOL  OW      52   2.217   1.754   2.273  0.7263 -0.2443  0.7753
   18SOL  HW1     53   2.150   1.701   2.220  0.4856 -0.1597 -1.0311
   18SOL  HW2     54   2.173   1.830   2.328  1.8217 -1.8848 -2.8739
   19SOL  OW      55   0.037   1.659   1.593  0.2801  0.4625  0.3522
   19SOL  HW1     56   0.094   1.572   1.576  1.1238  2.2083 -1.1123
   19SOL  HW2     57   3.058   1.636   1.659 -0.9148  1.1778  0.8688
   20SOL  OW      58   0.957   2.348   3.092  0.1515 -0.3857  0.3292
   20SOL  HW1     59   0.875   2.356   3.029 -0.0817  1.0336  1.8534
   20SOL  HW2     60   1.039   2.368   3.041  0.2841 -0.1932 -1.7342
   21SOL  OW      61   1.177   1.529   1.591  0.4145 -0.5811 -0.1953
   21SOL  HW1     62   1.204   1.603   1.657 -2.0237  1.3985  0.2299
   21SOL  HW2     63   1.090   1.543   1.541  2.8493 -0.3633 -1.3671
   22SOL  OW      64   0.607   2.638   1.663 -0.7723 -0.2486  0.4677
   22SOL  HW1     65   0.644   2.666   1.754 -0.0153  0.0068  0.6515
   22SOL  HW2     66   0.666   2.560   1.629  0.7050  1.9220 -1.3089
   23SOL  OW      67   2.030   1.855   2.950 -0.0369  0.4125  0.6225
   23SOL  HW1     68   1.935   1.879   2.984  1.7258  1.6097  0.0265
   23SOL  HW2     69   2.028   1.815   2.857  3.6718 -1.7146  0.4947
   24SOL  OW      70   2.145   1.090   1.581  0.1550 -0.2663  0.1345
   24SOL  HW1     71   2.093   1.166   1.545  3.8162 -1.7510 -0.3005
   24SOL  HW2     72   2.219   1.122   1.642  2.1490  0.1390  1.7627
   25SOL  OW      73   0.956   1.556   1.445  0.0774 -0.0518  0.0277
   25SOL  HW1     74   0.916   1.555   1.350  0.1019  3.4862  1.0044
   25SOL  HW2     75   0.883   1.575   1.511 -0.9514  2.4843 -2.1084
   26SOL  OW      76   0.814   0.276   2.790 -0.4051 -0.1236  0.1678
   26SOL  HW1     77   0.883   0.357   2.777  3.0002 -0.4032  1.6848
   26SOL  HW2     78   0.854   0.201   2.850 -0.8403 -2.4548  0.2481
   27SOL  OW      79   0.236   0.649   0.437 -0.1981 -0.0323  0.6596
   27SOL  HW1     80   0.303   0.575   0.472  0.3602 -2.6918 -2.1706
   27SOL  HW2     81   0.202   0.708   0.509  1.7535 -0.0632 -0.9566
   28SOL  OW      82   2.181   2.341   1.326 -0.0544  0.0702 -0.0216
   28SOL  HW1     83   2.101   2.279   1.308 -1.1429  1.3243  0.0065
   28SOL  HW2     84   2.230   2.306   1.412  2.1039 -0.1941  2.1496
   29SOL  OW      85   1.835   1.732   2.703  0.0930 -0.0030  0.0013
   29SOL  HW1     86   1.746   1.728   2.752 -0.9436  2.2947 -0.0912
   29SOL  HW2     87   1.851   1.822   2.669 -0.7752 -1.9616 -0.3462
   30SOL  OW      88   0.206   2.293   0.678 -0.0093 -0.3099 -0.5180
   30SOL  HW1     89   0.136   2.231   0.715 -0.3408 -2.4697  2.2730
   30SOL  HW2     90   0.165   2.367   0.619  4.6070  1.4156 -0.1020
   31SOL  OW      91   2.928   2.271   2.483  0.2399 -0.3769  0.7682
   31SOL  HW1     92   2.896   2.209   2.409 -1.0661 -5.3377 -1.6453
   31SOL  HW2     93   2.854   2.287   2.553  1.5736  1.1024 -0.6771
   32SOL  OW      94   1.197   0.213   1.547  0.4139 -0.6241 -0.1165
   32SOL  HW1     95   1.285   0.158   1.539 -1.3182 -0.8608  1.2678
   32SOL  HW2     96   1.181   0.242   1.644  1.6715  0.1335 -1.7201
   33SOL  OW      97   2.921   1.040   2.793  0.7995 -0.0153 -0.5206
   33SOL  HW1     98   3.001   1.098   2.827 -1.2960 -2.4539  0.7497
   33SOL  HW2     99   2.845   1.100   2.759  2.9491 -0.8563 -0.7736
   34SOL  OW     100   1.582   0.510   2.567  0.2906 -0.2183  0.7614
   34SOL  HW1    101   1.675   0.478   2.568  0.7032 -1.0843  0.4146
   34SOL  HW2    102   1.515   0.436   2.565  0.1258  3.8088 -0.8120
   35SOL  OW     103   3.092   2.985   1.125  0.4884  0.5220 -0.0949
   35SOL  HW1    104   3.039   2.953   1.204  0.4746  2.6917 -0.9526
   35SOL  HW2    105   0.019   2.911   1.059  2.1490  1.1807  0.1724
   36SOL  OW     106   2.828   2.413   0.019 -0.5836 -0.2233  0.1812
   36SOL  HW1    107   2.903   2.387   0.081  1.2804 -0.7144 -0.9125
   36SOL  HW2    108   2.737   2.395   0.062  0.7188 -0.6790  0.5609
   37SOL  OW     109   1.675   2.549   2.658  0.2099 -0.0568 -0.3639
   37SOL  HW1    110   1.661   2.640   2.706 -0.3707 -1.8543 -0.3911
   37SOL  HW2    111   1.770   2.532   2.626 -1.6243  1.3942  1.0670
   38SOL  OW     112   0.762   3.057   1.723 -0.0187  0.7417 -0.2060
   38SOL  HW1    113   0.756   0.058   1.689 -1.0921 -2.8694  4.4667
   38SOL  HW2    114   0.722   2.993   1.652  0.3427  0.9859 -1.4934
   39SOL  OW     115   0.861   1.325   1.963 -0.0307  0.2263  0.2974
   39SOL  HW1    116   0.862   1.412   1.906  1.2510 -0.8312 -1.5665
   39SOL  HW2    117   0.918   1.254   1.921  0.3977  1.7729  0.8008
   40SOL  OW     118   2.822   0.667   0.177  0.0738  0.2279  0.7614
   40SOL  HW1    119   2.899   0.611   0.134 -1.0188 -0.1961 -0.3253
   40SOL  HW2    120   2.823   0.763   0.143  1.1855 -0.2615 -0.4811
   41SOL  OW     121   0.044   0.232   2.774  0.3181 -0.1972 -0.7228
   41SOL  HW1    122   0.093   0.286   2.847 -0.9393  0.8589  0.4101
   41SOL  HW2    123   0.057   0.272   2.683 -1.3533 -1.6477 -0.7858
   42SOL  OW     124   2.018   0.849   1.560 -0.0004  0.8107  0.7040
   42SOL  HW1    125   1.921   0.840   1.578 -1.0230  1.8936  0.4554
   42SOL  HW2    126   2.052   0.947   1.573 -1.4180 -3.8498  3.5987
   43SOL  OW     127   1.604   1.265   2.079  0.1698  0.3136  0.0138
   43SOL  HW1    128   1.526   1.326   2.108  0.2858 -0.2586  1.4070
   43SOL  HW2    129   1.655   1.301   1.997  1.3652  2.3736  1.5082
   44SOL  OW     130   0.016   1.160   0.552 -0.1387  0.0484  0.2770
   44SOL  HW1    131   3.032   1.220   0.534 -0.9587  2.2160 -0.9420
   44SOL  HW2    132   3.092   1.101   0.629 -1.6641 -1.7137  1.1583
   45SOL  OW     133   0.864   1.619   2.564  0.5242  0.3122 -0.7810
   45SOL  HW1    134   0.813   1.622   2.477  1.1477  0.2232  3.5631
   45SOL  HW2    135   0.927   1.542   2.559  0.8350 -2.0554 -2.6173
   46SOL  OW     136   0.237   2.855   1.243 -0.1364 -0.3316  0.5878
   46SOL  HW1    137   0.208   2.940   1.194  0.9172  0.6668 -1.4459
   46SOL  HW2    138   0.197   2.857   1.336 -1.6376 -2.3238  0.4823
   47SOL  OW     139   1.296   1.471   1.357  0.1549  0.0060  0.0499
   47SOL  HW1    140   1.224   1.416   1.309  0.0362  1.1379 -0.4602
   47SOL  HW2    141   1.271   1.498   1.450  3.1999 -0.6724 -2.6634
   48SOL  OW     142   1.755   0.171   2.518  0.4109 -0.2176 -0.1516
   48SOL  HW1    143   1.705   0.157   2.609 -3.2744  1.4577 -1.9716
   48SOL  HW2    144   1.769   0.081   2.474  0.2814  1.6927 -1.8403
   49SOL  OW     145   1.163   2.026   1.755 -0.3286 -0.7314  0.8032
   49SOL  HW1    146   1.156   1.958   1.830  1.5179  1.2484  1.3041
   49SOL  HW2    147   1.258   2.050   1.732 -0.3159  2.3788 -0.0216
   50SOL  OW     148   1.227   0.068   0.511  0.5908 -0.9842  0.0359
   50SOL  HW1    149   1.310   0.123   0.514  0.3461 -2.7013 -0.7973
   50SOL  HW2    150   1.237   0.003   0.431  1.6943 -1.7354 -0.0929
   51SOL  OW     151   1.645   2.281   0.471 -0.2170  0.4318  0.0997
   51SOL  HW1    152   1.607   2.258   0.381  0.3069 -0.9163  3.3517
   51SOL  HW2    153   1.701   2.208   0.512  0.0552 -0.2092 -0.0931
   52SOL  OW     154   0.263   1.032   0.066 -0.1646 -0.5477 -0.0318
   52SOL  HW1    155   0.184   0.973   0.033 -2.1895  0.9152 -0.3285
   52SOL  HW2    156   0.293   1.092   3.087 -0.5331 -1.2423  1.3271
   53SOL  OW     157   1.180   0.159   2.565  0.0371  0.0121  0.1236
   53SOL  HW1    158   1.108   0.098   2.521 -0.4815  2.0665  0.4268
   53SOL  HW2    159   1.161   0.259   2.547  0.1207  1.5360 -2.6144
   54SOL  OW     160   1.739   0.932   1.573  0.0400 -0.3346 -0.2847
   54SOL  HW1    161   1.696   0.879   1.648 -0.3475  2.6886 -1.5812
   54SOL  HW2    162   1.694   0.929   1.479 -2.1145  2.7491  1.0530
   55SOL  OW     163   2.239   0.121   2.955  0.8151 -0.2797 -0.2488
   55SOL  HW1    164   2.304   0.094   2.876  2.0785 -0.7719 -0.8814
   55SOL  HW2    165   2.145   0.118   2.922  1.7548 -0.7149 -0.7235
   56SOL  OW     166   0.822   1.133   1.610 -0.3548  0.0476  0.1883
   56SOL  HW1    167   0.874   1.175   1.692 -0.5003  1.0167  0.8755
   56SOL  HW2    168   0.885   1.117   1.532  2.3356  3.1514 -0.1762
   57SOL  OW     169   2.378   0.779   0.120  0.3066  0.0207 -0.3491
   57SOL  HW1    170   2.280   0.805   0.147 -1.0236 -1.9948  1.5267
   57SOL  HW2    171   2.380   0.679   0.093  1.3929 -1.8015 -2.3314
   58SOL  OW     172   0.608   2.932   2.336  0.3513 -0.1972  0.2217
   58SOL  HW1    173   0.562   2.888   2.256  1.7429 -0.5307  1.8419
   58SOL  HW2    174   0.548   2.921   2.422 -1.1172 -2.8194  0.9364
   59SOL  OW     175   0.251   3.009   1.776  0.2106  0.1722  0.2147
   59SOL  HW1    176   0.162   2.957   1.775  1.3968 -0.5934 -0.0368
   59SOL  HW2    177   0.284   3.021   1.679 -1.6795  0.7569  0.0027
   60SOL  OW     178   2.640   2.497   2.481  0.0849 -0.6750 -0.4072
   60SOL  HW1    179   2.584   2.435   2.420 -0.5817  1.0026 -0.3494
   60SOL  HW2    180   2.598   2.590   2.493  0.0935  0.3762  1.7492
   61SOL  OW     181   2.213   1.920   0.186  0.2135  0.4688  0.6458
   61SOL  HW1    182   2.291   1.960   0.133 -0.8208  0.4918 -3.0852
   61SOL  HW2    183   2.239   1.914   0.284 -1.3282  0.8175  0.5800
   62SOL  OW     184   1.162   0.071   2.814 -0.2700 -0.1087 -0.1261
   62SOL  HW1    185   1.067   0.098   2.841  0.4450  0.8321 -0.3528
   62SOL  HW2    186   1.175   0.095   2.713  1.7628  2.1583 -0.9538
   63SOL  OW     187   2.282   0.168   0.528  0.2918 -0.6570 -0.4851
   63SOL  HW1    188   2.379   0.180   0.494  1.0156 -1.6599 -2.5115
   63SOL  HW2    189   2.227   0.256   0.505 -1.8427 -0.6479 -0.4617
   64SOL  OW     190   1.595   1.237   2.607 -0.3837  0.3786 -0.1410
   64SOL  HW1    191   1.544   1.167   2.556  2.9574 -1.3312  0.4556
   64SOL  HW2    192   1.629   1.207   2.700  0.4743  2.1943 -1.0059
   65SOL  OW     193   0.313   1.162   1.743  0.9036  0.5029 -0.3895
   65SOL  HW1    194   0.376   1.174   1.819  0.3179  0.3007  0.0455
   65SOL  HW2    195   0.213   1.187   1.768 -0.4095  0.0869 -1.6827
   66SOL  OW     196   2.992   1.076   1.602  0.1658  0.1077 -0.0407
   66SOL  HW1    197   3.065   1.001   1.604 -1.0573  0.1985  0.1649
   66SOL  HW2    198   2.895   1.044   1.599 -0.0952 -2.1918  0.8562
   67SOL  OW     199   1.863   1.835   1.057 -0.6065  0.3859  0.3240
   67SOL  HW1    200   1.889   1.926   1.027  2.4956 -1.9932 -1.5693
   67SOL  HW2    201   1.835   1.775   0.982 -1.4870 -0.3608  2.4139
   68SOL  OW     202   1.909   2.686   0.541 -0.4697 -0.1467  0.1170
   68SOL  HW1    203   1.816   2.643   0.549  1.6269  0.5734 -0.0772
   68SOL  HW2    204   1.964   2.621   0.482  0.9953 -2.4738  1.7686
   69SOL  OW     205   2.048   0.815   0.489 -0.3753  0.6156 -0.6554
   69SOL  HW1    206   2.004   0.725   0.516  1.6594  4.4291 -1.3844
   69SOL  HW2    207   2.021   0.885   0.558  0.1104 -0.5722 -0.5164
   70SOL  OW     208   2.569   0.841   1.102 -0.1327 -0.2340 -0.0845
   70SOL  HW1    209   2.668   0.818   1.093  1.3600 -2.4814  1.2317
   70SOL  HW2    210   2.509   0.760   1.100  0.6057  2.5856 -1.9880
   71SOL  OW     211   0.150   2.478   0.507 -0.1723 -0.2716  0.4445
   71SOL  HW1    212   0.168   2.418   0.424 -1.0927 -0.1037  0.5926
   71SOL  HW2    213   0.201   2.567   0.510  3.7481  1.5841  2.0266
   72SOL  OW     214   2.464   1.697   0.354  0.1311  0.1079  0.1793
   72SOL  HW1    215   2.389   1.631   0.370  0.5812  0.3789  2.1313
   72SOL  HW2    216   2.433   1.789   0.359 -0.1662 -0.0521  0.3781
   73SOL  OW     217   3.090   1.001   0.304 -0.8836  0.1772  0.7801
   73SOL  HW1    218   0.021   1.067   0.376 -1.6595  0.3449  4.0283
   73SOL  HW2    219   3.061   1.049   0.222  1.1893 -0.8075 -2.3664
   74SOL  OW     220   0.155   0.917   2.115  0.3016 -0.5991  0.1874
   74SOL  HW1    221   0.181   0.831   2.165  0.0470  0.2067  0.2097
   74SOL  HW2    222   0.081   0.897   2.054  0.7276  0.8751  1.4265
   75SOL  OW     223   1.187   2.262   1.495 -0.1395 -0.2481  0.2001
   75SOL  HW1    224   1.281   2.269   1.461  1.3144  2.5354 -0.6474
   75SOL  HW2    225   1.134   2.176   1.480 -0.0360  1.7707  0.3321
   76SOL  OW     226   1.447   1.954   1.253  0.0220  0.4593 -0.1701
   76SOL  HW1    227   1.470   1.863   1.204 -0.5745  1.6502 -1.9095
   76SOL  HW2    228   1.360   1.945   1.303 -2.2201 -0.1114 -0.0281
   77SOL  OW     229   1.783   0.842   0.972 -0.3894  0.1466 -0.0526
   77SOL  HW1    230   1.806   0.942   0.964  0.3525 -0.1980  0.9141
   77SOL  HW2    231   1.702   0.825   1.035 -1.7200 -2.4597  2.1808
   78SOL  OW     232   2.088   0.987   1.206 -0.0840 -0.2437 -0.0114
   78SOL  HW1    233   2.056   0.897   1.173  0.6605 -0.9573  2.1193
   78SOL  HW2    234   2.172   0.977   1.266 -2.2468  2.0128 -1.3062
   79SOL  OW     235   1.601   2.670   1.722  0.2390  0.2038  0.1869
   79SOL  HW1    236   1.645   2.677   1.813  0.6199 -3.0150  0.3748
   79SOL  HW2    237   1.638   2.744   1.663 -3.1953 -1.7269 -2.1370
   80SOL  OW     238   0.318   0.537   2.075  0.1339 -0.4001 -0.4249
   80SOL  HW1    239   0.270   0.595   2.146 -1.8164  1.8155 -3.6019
   80SOL  HW2    240   0.340   0.581   1.986  0.0295  0.0963  1.2714
   81SOL  OW     241   1.383   0.093   0.908 -0.5155 -0.3395  0.1246
   81SOL  HW1    242   1.368   0.180   0.966  0.3446  2.4802  0.1726
   81SOL  HW2    243   1.479   0.085   0.876  2.0343  2.3170  0.9488
   82SOL  OW     244   1.320   0.815   2.039 -0.2801 -0.0581 -0.4984
   82SOL  HW1    245   1.269   0.798   1.953 -2.9602 -1.7802  0.7448
   82SOL  HW2    246   1.398   0.877   2.024 -1.2212  2.3163 -1.3345
   83SOL  OW     247   0.156   0.112   1.214  0.5673  0.1508 -0.1795
   83SOL  HW1    248   0.178   0.167   1.131  1.5370 -0.2581  0.8615
   83SOL  HW2    249   0.103   0.029   1.185  2.5730 -0.7165  0.5973
   84SOL  OW     250   2.050   2.126   1.281  0.1203 -0.8750  0.1206
   84SOL  HW1    251   1.991   2.128   1.198  0.2714  0.6817 -0.7978
   84SOL  HW2    252   2.004   2.059   1.349 -0.8341 -1.0235  0.4669
   85SOL  OW     253   1.891   2.946   1.713 -0.3474  0.1974 -0.3575
   85SOL  HW1    254   1.842   2.983   1.794 -0.9419  0.6783  1.8476
   85SOL  HW2    255   1.862   2.992   1.627 -0.6165 -0.8667  1.2638
   86SOL  OW     256   0.763   1.635   1.592 -0.1955  0.0649  0.5684
   86SOL  HW1    257   0.693   1.570   1.621 -0.3265 -1.5424 -0.5139
   86SOL  HW2    258   0.733   1.725   1.561 -2.0685  3.3548  1.6809
   87SOL  OW     259   1.311   0.738   0.808 -0.2812 -0.4554  0.1464
   87SOL  HW1    260   1.384   0.678   0.844 -0.5076  2.9218 -1.4762
   87SOL  HW2    261   1.314   0.831   0.844  3.0468  0.5284  0.0248
   88SOL  OW     262   0.838   0.221   1.345 -0.5400  0.0434  0.0004
   88SOL  HW1    263   0.799   0.134   1.308  0.7276  0.8492  0.9535
   88SOL  HW2    264   0.804   0.242   1.440  1.5787  0.6369  2.3280
   89SOL  OW     265   2.923   1.221   2.268 -0.1739 -0.2998 -0.2280
   89SOL  HW1    266   2.931   1.147   2.338 -0.7370 -0.7765  0.9445
   89SOL  HW2    267   2.830   1.247   2.263 -2.7464 -0.2330  0.2995
   90SOL  OW     268   2.571   0.039   0.083 -0.1030  0.2016 -0.2887
   90SOL  HW1    269   2.642   0.056   0.010  1.8692 -0.7219 -3.3294
   90SOL  HW2    270   2.564   0.118   0.141  0.3378 -1.0605 -2.4420
   91SOL  OW     271   0.179   0.811   0.654 -0.1511  0.0031 -0.0446
   91SOL  HW1    272   0.270   0.829   0.694 -1.3544 -1.0122  2.0221
   91SOL  HW2    273   0.107   0.879   0.663  1.6698 -1.1099 -0.4992
   92SOL  OW     274   0.478   3.014   1.143 -0.3625  0.4802 -0.2977
   92SOL  HW1    275   0.405   3.039   1.077  0.7620  2.5792  0.3105
   92SOL  HW2    276   0.446   2.931   1.192 -1.3379  0.4923  0.5114
   93SOL  OW     277   0.091   1.729   0.240 -0.0509 -0.6750 -0.2871
   93SOL  HW1    278   0.123   1.637   0.210 -0.5102  0.2575 -1.1305
   93SOL  HW2    279   0.120   1.803   0.175 -0.1621 -1.7141 -1.4050
   94SOL  OW     280   2.405   0.599   1.146 -0.1044 -0.0725 -0.0752
   94SOL  HW1    281   2.468   0.519   1.138 -1.9393  1.2642  0.3627
   94SOL  HW2    282   2.362   0.594   1.236 -2.8664  3.8894  3.2346
   95SOL  OW     283   1.777   3.041   2.334 -0.6377  0.9691 -0.1341
   95SOL  HW1    284   1.862   3.011   2.293  0.4191  0.4701 -2.4679
   95SOL  HW2    285   1.712   3.076   2.265  1.4428 -2.0738 -1.8589
   96SOL  OW     286   1.720   1.435   1.861 -0.1037 -0.4070  0.6902
   96SOL  HW1    287   1.680   1.484   1.781 -0.2172 -2.2270 -0.6845
   96SOL  HW2    288   1.806   1.389   1.835 -2.1369  1.0554  1.9497
   97SOL  OW     289   2.502   0.010   1.146 -0.1989  0.7243 -0.1261
   97SOL  HW1    290   2.496   0.095   1.207 -1.7791  0.3442 -0.4175
   97SOL  HW2    291   2.599   3.069   1.140 -0.6089 -0.3354 -1.5223
   98SOL  OW     292   0.433   2.479   2.352  0.3711  0.3852  0.7520
   98SOL  HW1    293   0.431   2.411   2.276  0.1444  0.2339  1.9921
   98SOL  HW2    294   0.346   2.534   2.358  1.3820 -1.0608 -2.0639
   99SOL  OW     295   0.512   3.024   1.917 -0.3321  0.3363  0.1840
   99SOL  HW1    296   0.433   3.011   1.854 -1.2496  0.5672  0.2877
   99SOL  HW2    297   0.600   3.029   1.870 -0.5667  2.1528 -1.8936
  100SOL  OW     298   2.627   1.764   0.147  0.1495  0.1820  0.9578
  100SOL  HW1    299   2.562   1.712   0.213 -1.7396  1.6477 -2.0150
  100SOL  HW2    300   2.575   1.831   0.088 -1.7382  0.3864  0.0575
  101SOL  OW     301   0.481   2.865   2.563 -0.6130  0.4134  0.4522
  101SOL  HW1    302   0.432   2.956   2.560 -0.9750  3.0722 -0.7249
  101SOL  HW2    303   0.421   2.796   2.610 -2.4100  0.5664 -1.2149
  102SOL  OW     304   0.360   0.202   0.432  0.7554  0.3119  0.0830
  102SOL  HW1    305   0.372   0.293   0.478 -1.2569 -1.0554  2.8911
  102SOL  HW2    306   0.286   0.209   0.365 -1.9207 -0.0396  1.9787
  103SOL  OW     307   2.883   1.189   2.007  0.5446  0.1754  0.0424
  103SOL  HW1    308   2.913   1.185   2.103 -0.2769 -0.8712 -1.1943
  103SOL  HW2    309   2.832   1.108   1.973 -0.1263  0.1743 -0.7420
  104SOL  OW     310   0.236   2.714   2.098 -0.7246  0.2448  0.2117
  104SOL  HW1    311   0.197   2.667   2.180  0.8566 -0.8650 -1.3893
  104SOL  HW2    312   0.230   2.657   2.014  0.1437  1.6753  0.4934
  105SOL  OW     313   0.705   2.716   1.897 -0.7662  0.2221 -0.1104
  105SOL  HW1    314   0.797   2.736   1.941  0.1922  1.8361 -2.3357
  105SOL  HW2    315   0.632   2.761   1.947  1.6078 -1.5925  0.8184
  106SOL  OW     316   2.571   2.481   0.732  0.1841 -0.7633 -0.3148
  106SOL  HW1    317   2.551   2.430   0.821  0.4049 -0.1837  1.3745
  106SOL  HW2    318   2.572   2.417   0.653 -0.3029 -0.9570  3.3541
  107SOL  OW     319   1.097   0.378   0.825  0.3134 -0.1275 -0.7315
  107SOL  HW1    320   1.168   0.355   0.899  1.0297 -1.2685 -2.3769
  107SOL  HW2    321   0.997   0.356   0.847 -0.6912 -1.3139  1.2661
  108SOL  OW     322   2.388   1.218   2.112  0.0792 -0.6471 -0.4370
  108SOL  HW1    323   2.364   1.271   2.029  0.1149 -0.2121  1.3392
  108SOL  HW2    324   2.337   1.250   2.195  0.4866  2.9987 -0.6713
  109SOL  OW     325   2.250   2.640   3.000  0.0881  0.0799  0.2572
  109SOL  HW1    326   2.247   2.648   0.007 -0.1254  0.3191 -0.3191
  109SOL  HW2    327   2.250   2.725   2.947  1.2731 -0.7987 -0.6850
  110SOL  OW     328   2.738   1.663   0.766 -0.6069 -0.2963  0.5133
  110SOL  HW1    329   2.646   1.631   0.751 -0.2177  0.1294 -1.6379
  110SOL  HW2    330   2.743   1.760   0.804 -0.1167  1.0648 -0.1863
  111SOL  OW     331   2.922   1.520   2.897 -0.0439  0.2861  0.7158
  111SOL  HW1    332   3.017   1.475   2.896 -2.0825 -0.8017 -2.4903
  111SOL  HW2    333   2.898   1.566   2.986 -0.1740 -1.5688  0.2206
  112SOL  OW     334   2.875   0.107   0.954  0.0943  0.6318 -0.0722
  112SOL  HW1    335   2.931   0.132   0.871 -0.3611  1.4102 -1.3636
  112SOL  HW2    336   2.906   0.155   1.038  1.3947  0.7156 -0.0842
  113SOL  OW     337   2.647   2.660   0.467 -0.0011  0.6398 -0.1863
  113SOL  HW1    338   2.683   2.645   0.371  0.3292  1.1199  0.0782
  113SOL  HW2    339   2.722   2.702   0.523 -0.8666  1.3974  0.8303
  114SOL  OW     340   0.914   0.701   2.076  0.3796  0.3020 -0.5140
  114SOL  HW1    341   1.004   0.676   2.105 -0.4596 -0.8870 -1.5188
  114SOL  HW2    342   0.841   0.630   2.100 -0.6298 -1.2209  1.1615
  115SOL  OW     343   0.193   1.031   2.789  0.0456  0.2600 -0.0411
  115SOL  HW1    344   0.292   1.017   2.814  0.4493  1.1376 -1.3253
  115SOL  HW2    345   0.141   0.942   2.791  2.1448  2.2309 -1.6379
  116SOL  OW     346   2.094   1.203   1.034 -0.5772 -0.0380 -0.4682
  116SOL  HW1    347   2.108   1.130   1.108 -0.3383 -0.9783  1.4225
  116SOL  HW2    348   2.173   1.197   0.971 -2.3384 -0.1978 -1.6329
  117SOL  OW     349   2.452   0.766   0.402  0.0427 -0.0191  0.2171
  117SOL  HW1    350   2.443   0.770   0.298  3.5871  1.0997  1.6644
  117SOL  HW2    351   2.429   0.673   0.439  1.5870 -1.7569  1.0752
  118SOL  OW     352   2.615   1.601   1.573  0.6345 -0.0221  0.2579
  118SOL  HW1    353   2.573   1.549   1.652  3.0784  0.4211 -0.2660
  118SOL  HW2    354   2.586   1.697   1.577 -1.4787  0.9737 -1.4400
  119SOL  OW     355   0.737   1.970   2.079 -0.0824 -0.2632 -0.1188
  119SOL  HW1    356   0.819   1.974   2.138  0.1548  1.3766  0.2694
  119SOL  HW2    357   0.657   1.951   2.139  1.3188  1.3422 -1.2386
  120SOL  OW     358   0.023   1.773   2.849  0.2477 -0.8795 -0.0112
  120SOL  HW1    359   0.052   1.818   2.762 -0.4247 -1.4344 -0.7598
  120SOL  HW2    360   0.052   1.674   2.852 -0.5339 -1.6260  1.0758
  121SOL  OW     361   1.844   1.428   2.260 -0.2454  0.1380 -0.0885
  121SOL  HW1    362   1.799   1.483   2.186  2.5578  0.5519  1.0359
  121SOL  HW2    363   1.908   1.358   2.219  3.2978  3.7452  0.5448
  122SOL  OW     364   2.818   1.569   0.517 -0.0715 -0.1969 -0.0021
  122SOL  HW1    365   2.818   1.586   0.618  1.5251  3.6068 -1.9966
  122SOL  HW2    366   2.862   1.646   0.467 -1.6005 -0.4207 -0.4003
  123SOL  OW     367   0.945   3.023   0.216  0.0956 -1.2323  0.5022
  123SOL  HW1    368   1.027   3.057   0.164  0.3535 -1.6124  0.6836
  123SOL  HW2    369   0.883   0.007   0.235 -0.5490 -2.5088  1.9830
  124SOL  OW     370   1.823   0.651   2.776  0.4679 -0.1041  0.3434
  124SOL  HW1    371   1.876   0.587   2.715  0.1806 -0.6603  2.7223
  124SOL  HW2    372   1.876   0.698   2.853 -1.8651  0.4596 -0.8702
  125SOL  OW     373   1.736   0.254   1.705  0.6854 -0.3192  0.2072
  125SOL  HW1    374   1.690   0.345   1.714  0.0372 -0.8438 -3.1698
  125SOL  HW2    375   1.687   0.186   1.761  0.9280 -2.5228 -2.9129
  126SOL  OW     376   1.973   3.007   2.799  0.2580 -0.0190 -0.0502
  126SOL  HW1    377   1.974   0.016   2.801  0.5786  0.8202 -3.5954
  126SOL  HW2    378   1.949   2.988   2.700  0.1504  0.3012 -1.8705
  127SOL  OW     379   2.615   2.139   0.035  1.0575  0.4182  1.0546
  127SOL  HW1    380   2.595   2.235   0.070  0.3930 -2.9983  4.4270
  127SOL  HW2    381   2.532   2.081   0.024  0.0430 -1.0758 -0.0883
  128SOL  OW     382   1.827   1.327   2.499 -0.3023  0.5248  0.4949
  128SOL  HW1    383   1.731   1.312   2.530  0.0949  1.1702 -0.3553
  128SOL  HW2    384   1.835   1.374   2.405 -0.7853 -0.4075  1.0676
  129SOL  OW     385   1.997   0.980   0.703  0.3991 -0.9257 -0.2759
  129SOL  HW1    386   2.000   1.055   0.631 -1.2582 -1.2072 -1.6972
  129SOL  HW2    387   1.947   1.015   0.787 -2.1351  0.6076  2.6297
  130SOL  OW     388   1.642   0.805   0.037 -0.0698  0.0429  0.1073
  130SOL  HW1    389   1.606   0.896   0.010  1.4607  1.1230  1.6145
  130SOL  HW2    390   1.584   0.731   0.001 -1.8312  0.0622  0.2559
  131SOL  OW     391   3.040   0.380   0.584  0.0123 -0.6665 -0.2114
  131SOL  HW1    392   2.990   0.467   0.600  2.4856 -1.7358 -2.8293
  131SOL  HW2    393   3.051   0.357   0.485  0.9028  1.2662  2.3514
  132SOL  OW     394   0.944   0.988   0.644 -0.2738 -0.1382  0.0014
  132SOL  HW1    395   1.015   1.043   0.692  1.0256 -3.3169  2.3991
  132SOL  HW2    396   0.979   0.962   0.550  0.1422  0.6118  1.0515
  133SOL  OW     397   1.166   1.554   0.917 -0.1856 -0.1042 -0.0733
  133SOL  HW1    398   1.150   1.494   0.836  3.2189  3.7213 -2.4589
  133SOL  HW2    399   1.267   1.569   0.928  0.7450  1.6013  0.9691
  134SOL  OW     400   0.157   1.486   0.165 -0.6160 -0.1334  0.2983
  134SOL  HW1    401   0.202   1.421   0.221  3.3042  0.7663 -1.3075
  134SOL  HW2    402   0.213   1.495   0.079  0.8369 -2.0228 -0.6663
  135SOL  OW     403   1.017   0.690   1.412  0.2020 -0.1991  0.0976
  135SOL  HW1    404   1.094   0.684   1.348 -1.5771  1.6640  2.5347
  135SOL  HW2    405   0.924   0.693   1.365  2.1156 -4.7920  0.2672
  136SOL  OW     406   0.966   2.783   1.969  0.3931 -0.4803  0.0633
  136SOL  HW1    407   1.015   2.790   2.058  0.5502 -1.7724 -0.8526
  136SOL  HW2    408   1.016   2.848   1.907 -1.6034  0.7010  0.3321
  137SOL  OW     409   2.798   2.691   1.432 -0.5304  0.1928  0.4878
  137SOL  HW1    410   2.743   2.601   1.432 -1.6938 -1.0179  1.0017
  137SOL  HW2    411   2.794   2.716   1.335 -0.0338 -1.2350 -2.4646
  138SOL  OW     412   1.532   0.990   1.986  0.2384 -0.1822  0.3668
  138SOL  HW1    413   1.572   1.055   2.055  0.5543 -0.2029 -1.4499
  138SOL  HW2    414   1.544   1.038   1.896  0.6773 -1.2652  2.7543
  139SOL  OW     415   2.354   2.959   0.034  0.2506  0.4977  0.5214
  139SOL  HW1    416   2.287   2.945   0.111  1.8995  1.7055 -1.1114
  139SOL  HW2    417   2.408   3.044   0.046 -0.8793  1.2379 -0.1989
  140SOL  OW     418   2.568   2.412   0.094 -0.7449  0.2715 -0.3949
  140SOL  HW1    419   2.497   2.429   0.167  0.5033  0.0191 -0.4861
  140SOL  HW2    420   2.544   2.457   0.006 -0.8408  0.3923 -0.1257
  141SOL  OW     421   1.197   1.352   2.287 -0.4133 -0.0281  0.3119
  141SOL  HW1    422   1.252   1.408   2.227  3.6231  0.4669 -1.0853
  141SOL  HW2    423   1.204   1.252   2.261  4.8146  1.4326  1.6351
  142SOL  OW     424   2.157   2.011   2.349 -0.2233  0.1224  0.0118
  142SOL  HW1    425   2.163   2.094   2.408 -3.0757 -4.6579 -0.2101
  142SOL  HW2    426   2.186   2.031   2.254  2.9247  2.3086 -0.4783
  143SOL  OW     427   0.329   2.622   0.104  0.1949 -0.0886  0.2664
  143SOL  HW1    428   0.362   2.527   0.117 -1.7589 -1.8789 -1.9241
  143SOL  HW2    429   0.388   2.684   0.162  1.6420  1.5885 -0.1709
  144SOL  OW     430   1.092   2.759   0.362  0.3605 -0.0876 -0.1587
  144SOL  HW1    431   1.125   2.702   0.442 -0.0538 -0.6077 -0.0034
  144SOL  HW2    432   1.020   2.707   0.312  0.2710  0.8093 -1.5462
  145SOL  OW     433   1.946   1.859   0.196  0.0312 -0.8628  0.5619
  145SOL  HW1    434   2.042   1.886   0.171 -0.4709  0.2228 -1.2256
  145SOL  HW2    435   1.884   1.930   0.235 -0.0670  1.4145 -0.1098
  146SOL  OW     436   2.617   1.596   2.787 -0.3101  0.5043  0.5010
  146SOL  HW1    437   2.629   1.513   2.843  0.9535 -2.5496  0.7255
  146SOL  HW2    438   2.694   1.664   2.793 -0.7329 -0.9209 -1.1340
  147SOL  OW     439   0.576   0.933   2.303  0.5750 -0.0373  0.2976
  147SOL  HW1    440   0.571   1.031   2.326 -0.2760 -0.6387 -0.4342
  147SOL  HW2    441   0.672   0.909   2.315  0.1383  1.8867  0.0464
  148SOL  OW     442   1.064   1.872   0.088 -0.4055  0.0540  0.0684
  148SOL  HW1    443   1.104   1.804   0.154  0.4673 -1.4227  3.4826
  148SOL  HW2    444   1.066   1.965   0.131  0.5357 -0.2493 -1.2032
  149SOL  OW     445   0.874   1.548   0.593 -0.2111 -0.1566  0.2737
  149SOL  HW1    446   0.790   1.491   0.604  0.7660  0.8525  0.2679
  149SOL  HW2    447   0.956   1.501   0.614 -0.5817 -0.0423 -1.3211
  150SOL  OW     448   0.355   1.601   1.293 -0.2698 -0.3923  0.6745
  150SOL  HW1    449   0.399   1.668   1.354  0.2707 -2.3413  1.0201
  150SOL  HW2    450   0.255   1.605   1.304 -0.7198  2.3199  1.6031
  151SOL  OW     451   2.547   0.246   0.457  0.1031 -0.3285 -0.1862
  151SOL  HW1    452   2.611   0.321   0.488  0.0256 -4.3850 -1.1521
  151SOL  HW2    453   2.529   0.257   0.357 -0.9948  0.0658 -1.9716
  152SOL  OW     454   2.820   1.763   2.802  0.0900  0.8895  0.4114
  152SOL  HW1    455   2.853   1.853   2.762 -2.2188  0.3978  1.6818
  152SOL  HW2    456   2.896   1.710   2.840 -2.6639  1.1492  0.9993
  153SOL  OW     457   0.561   2.576   1.212  1.2118  0.7154 -0.1676
  153SOL  HW1    458   0.574   2.665   1.159  0.7515 -0.5903 -2.1089
  153SOL  HW2    459   0.529   2.487   1.162 -2.2354  2.6318 -3.0901
  154SOL  OW     460   0.654   2.269   0.879 -0.2058 -0.1115 -0.3183
  154SOL  HW1    461   0.738   2.237   0.922  0.1717  0.6133  0.4266
  154SOL  HW2    462   0.579   2.260   0.945 -1.9080 -0.0235  0.1238
  155SOL  OW     463   2.851   2.325   0.463  0.0212  0.1497 -0.4982
  155SOL  HW1    464   2.882   2.403   0.521  0.8251 -0.1920 -1.3741
  155SOL  HW2    465   2.750   2.337   0.450 -1.8804  1.0933 -2.0931
  156SOL  OW     466   2.522   2.939   0.814 -0.3836  0.2047  1.0264
  156SOL  HW1    467   2.498   2.948   0.711 -2.0287  1.9961  0.6958
  156SOL  HW2    468   2.496   3.023   0.866 -1.0353 -1.9856 -2.1957
  157SOL  OW     469   0.555   0.765   2.088 -0.1894  0.1746  0.4949
  157SOL  HW1    470   0.540   0.846   2.151  1.0668  0.6723 -0.7660
  157SOL  HW2    471   0.625   0.704   2.125 -0.8122  1.4010  1.0718
  158SOL  OW     472   2.050   0.651   1.370  0.2794 -0.1928  0.4680
  158SOL  HW1    473   2.015   0.676   1.277 -1.6206 -0.5753 -1.6607
  158SOL  HW2    474   2.028   0.725   1.435  0.4168  0.1002 -1.7457
  159SOL  OW     475   1.056   1.401   2.534  0.2547  0.4137 -0.1825
  159SOL  HW1    476   1.044   1.313   2.583  0.8325  0.1226 -2.2988
  159SOL  HW2    477   1.098   1.390   2.439 -0.2430 -0.9373 -1.0172
  160SOL  OW     478   0.727   0.536   2.118 -0.0613 -0.2211 -0.2500
  160SOL  HW1    479   0.657   0.519   2.192 -0.3411  0.6678 -1.7201
  160SOL  HW2    480   0.689   0.499   2.033 -2.1061  0.6702 -1.7492
  161SOL  OW     481   2.946   1.964   0.883  0.6007  0.1755 -0.0158
  161SOL  HW1    482   2.847   1.969   0.850  1.9310 -0.3554 -1.0083
  161SOL  HW2    483   2.945   1.939   0.982 -1.3286  2.7199  0.8121
  162SOL  OW     484   1.975   1.572   1.494 -0.4953  0.5393 -0.1256
  162SOL  HW1    485   1.958   1.599   1.592 -1.3702  0.4119  4.9107
  162SOL  HW2    486   1.923   1.616   1.423  0.6152 -0.0673 -2.9276
  163SOL  OW     487   2.558   3.051   2.772  0.2745  0.1812 -0.6981
  163SOL  HW1    488   2.610   2.990   2.708 -1.1432 -0.5274  3.4284
  163SOL  HW2    489   2.468   3.072   2.731  1.1675  0.6725  0.9732
  164SOL  OW     490   2.363   0.824   2.943  0.0958 -0.4552 -1.0109
  164SOL  HW1    491   2.416   0.755   2.888 -1.9471 -1.6816  3.4826
  164SOL  HW2    492   2.382   0.805   3.037  0.9680  1.5195 -3.4228
  165SOL  OW     493   2.434   0.952   0.863 -0.2301 -0.1334 -0.3573
  165SOL  HW1    494   2.477   0.924   0.775  3.1777 -0.2325 -2.8090
  165SOL  HW2    495   2.487   0.912   0.935  1.2027 -0.5307 -0.0970
  166SOL  OW     496   2.291   1.987   1.279 -0.1390  0.3400 -0.0809
  166SOL  HW1    497   2.294   1.935   1.192 -0.4909 -0.9095  0.1402
  166SOL  HW2    498   2.206   2.041   1.279  3.4461  0.0046 -1.2074
  167SOL  OW     499   3.039   2.528   2.483 -0.3930 -0.3556  0.3934
  167SOL  HW1    500   2.982   2.582   2.416 -0.7869  1.9614  2.0338
  167SOL  HW2    501   2.998   2.434   2.498 -1.2390  0.4032  0.2887
  168SOL  OW     502   2.660   1.354   2.511  0.4220  0.0171 -0.1585
  168SOL  HW1    503   2.645   1.303   2.420 -0.4260  1.2386  1.8190
  168SOL  HW2    504   2.569   1.387   2.546  1.9927  1.7774 -1.0290
  169SOL  OW     505   2.866   1.638   0.056  1.2388 -0.5156 -0.1699
  169SOL  HW1    506   2.770   1.672   0.081 -2.1344 -1.8798 -0.4324
  169SOL  HW2    507   2.946   1.700   0.079 -1.4158 -1.5210 -0.1885
  170SOL  OW     508   0.029   1.195   2.907  0.1746  0.3096 -0.1546
  170SOL  HW1    509   0.116   1.156   2.873 -1.1587  0.8197 -1.6077
  170SOL  HW2    510   0.024   1.294   2.887 -0.9248  0.2191  2.9124
  171SOL  OW     511   2.149   2.635   0.190 -0.1446 -0.7828 -0.3123
  171SOL  HW1    512   2.173   2.613   0.288  0.2537  3.7136 -0.8382
  171SOL  HW2    513   2.152   2.735   0.171 -1.0844 -1.8968 -0.4723
  172SOL  OW     514   1.137   0.740   2.232 -0.2113  0.4316  0.0166
  172SOL  HW1    515   1.198   0.774   2.157 -1.3561 -0.9983  2.6576
  172SOL  HW2    516   1.182   0.693   2.313 -1.1066 -0.0399 -1.0454
  173SOL  OW     517   0.282   3.046   0.946  0.1368 -0.1714  0.0641
  173SOL  HW1    518   0.357   2.996   0.899 -1.6447  0.6547 -2.2925
  173SOL  HW2    519   0.196   3.044   0.891 -0.1181 -1.5966  1.3573
  174SOL  OW     520   2.447   2.316   0.940 -0.0391 -0.6937 -0.5636
  174SOL  HW1    521   2.448   2.234   0.881  1.0590  0.0121  1.9306
  174SOL  HW2    522   2.353   2.330   0.981 -0.3866 -1.0797 -0.3373
  175SOL  OW     523   1.052   1.796   0.918 -0.1976  0.1390  0.2337
  175SOL  HW1    524   1.075   1.701   0.937 -1.3265 -1.0733  0.8298
  175SOL  HW2    525   1.130   1.831   0.860  0.1809  1.5786  0.9511
  176SOL  OW     526   0.426   2.539   1.505 -0.1943 -0.8298  0.4130
  176SOL  HW1    527   0.451   2.576   1.415 -1.7200  0.8976 -1.2736
  176SOL  HW2    528   0.483   2.580   1.582 -2.2018  1.3752 -0.4934
  177SOL  OW     529   0.123   1.738   0.984  0.1277 -0.7537  0.3477
  177SOL  HW1    530   0.123   1.642   0.948 -3.2702 -1.4155  0.6636
  177SOL  HW2    531   0.035   1.784   0.980  2.9023 -2.1301 -1.6696
  178SOL  OW     532   0.422   1.423   1.099  0.0969 -0.5890 -0.3170
  178SOL  HW1    533   0.399   1.493   1.167  1.5420 -0.1958 -0.0303
  178SOL  HW2    534   0.469   1.346   1.148  0.3735  3.2574  0.5643
  179SOL  OW     535   0.645   0.550   0.448 -0.3640 -0.3538 -0.0813
  179SOL  HW1    536   0.722   0.487   0.416  0.6150 -2.0317 -1.0234
  179SOL  HW2    537   0.627   0.620   0.376 -0.7214 -1.7146  0.4763
  180SOL  OW     538   1.003   2.869   1.694 -0.2875 -0.3454  0.2455
  180SOL  HW1    539   0.903   2.895   1.711  0.6937  0.9757 -1.4639
  180SOL  HW2    540   1.012   2.783   1.636 -1.3834  1.2056  0.0356
  181SOL  OW     541   0.357   1.641   1.632  0.2318 -0.0623  0.0340
  181SOL  HW1    542   0.315   1.557   1.593 -3.4948  0.5667 -3.1536
  181SOL  HW2    543   0.392   1.711   1.562 -0.5670 -0.0818 -3.7362
  182SOL  OW     544   2.347   1.970   0.426 -0.0549 -0.1656  0.1305
  182SOL  HW1    545   2.323   1.953   0.525 -0.8838  1.6162 -2.5937
  182SOL  HW2    546   2.423   2.044   0.414  0.7830  0.1588  1.6006
  183SOL  OW     547   1.977   2.963   2.152  0.2171 -0.3773  0.1045
  183SOL  HW1    548   2.075   2.987   2.173  0.6373 -1.8146  4.1415
  183SOL  HW2    549   1.967   2.904   2.064  0.2425  0.4930  1.2896
  184SOL  OW     550   1.284   0.699   0.532 -0.8676  0.1342 -0.2101
  184SOL  HW1    551   1.283   0.738   0.628  1.9565 -1.7569  0.5201
  184SOL  HW2    552   1.302   0.774   0.467 -2.7442 -1.1795  0.1729
  185SOL  OW     553   1.446   0.489   0.601 -0.8968 -0.3307 -0.5319
  185SOL  HW1    554   1.379   0.558   0.561 -1.1718  2.0519 -0.1769
  185SOL  HW2    555   1.486   0.524   0.688  0.3162  2.4935  0.5550
  186SOL  OW     556   0.397   0.455   0.527 -0.3792 -0.2876  0.4363
  186SOL  HW1    557   0.404   0.445   0.628  1.5513 -2.8849 -0.7243
  186SOL  HW2    558   0.487   0.484   0.489  0.6673 -0.4379 -0.3309
  187SOL  OW     559   0.891   1.582   1.835 -0.1768  0.5556 -0.0558
  187SOL  HW1    560   0.822   1.582   1.764  2.1150 -1.6671  0.8049
  187SOL  HW2    561   0.894   1.677   1.877  0.0663 -3.4447  1.2849
  188SOL  OW     562   0.202   2.028   1.816 -0.2037  0.6345 -0.2331
  188SOL  HW1    563   0.259   1.947   1.851  1.7936 -1.2505  0.5671
  188SOL  HW2    564   0.160   1.998   1.728  2.5776  0.7986 -1.9934
  189SOL  OW     565   1.711   0.784   0.715 -0.1500 -0.1841  0.4504
  189SOL  HW1    566   1.702   0.866   0.659  2.3052  0.4857  1.7420
  189SOL  HW2    567   1.750   0.810   0.807  1.3113  0.0812  1.5166
  190SOL  OW     568   1.112   2.861   3.022 -0.2896 -0.1984  0.2137
  190SOL  HW1    569   1.058   2.835   2.938  1.1263 -0.0100 -0.9023
  190SOL  HW2    570   1.133   2.777   3.081 -0.4110  0.0708  0.3506
  191SOL  OW     571   0.104   0.858   1.670  0.1504  0.8939 -0.3010
  191SOL  HW1    572   0.207   0.843   1.661  0.5763 -0.5774  0.9232
  191SOL  HW2    573   0.050   0.783   1.626  1.7055 -0.7136 -3.3616
  192SOL  OW     574   1.399   2.736   0.928 -0.3221  0.0500  0.6373
  192SOL  HW1    575   1.378   2.763   0.834 -0.1788  1.1348  0.1673
  192SOL  HW2    576   1.311   2.737   0.975  1.1143 -0.5689 -0.5862
  193SOL  OW     577   1.639   0.107   0.610  0.2809 -0.6127 -0.1859
  193SOL  HW1    578   1.569   0.166   0.563 -0.1056 -3.3707 -0.7571
  193SOL  HW2    579   1.730   0.113   0.558  2.3566 -1.1012  3.2591
  194SOL  OW     580   1.770   2.277   1.203 -0.8413 -0.1854 -0.4050
  194SOL  HW1    581   1.667   2.262   1.196 -1.5441 -1.8838 -2.3444
  194SOL  HW2    582   1.801   2.300   1.297  0.3181  1.0250 -1.5184
  195SOL  OW     583   2.693   0.755   0.825  0.0540  0.2426 -0.1115
  195SOL  HW1    584   2.653   0.663   0.817  0.0162 -0.1980 -1.4717
  195SOL  HW2    585   2.639   0.821   0.761  0.7244  1.4949  0.4441
  196SOL  OW     586   0.481   1.443   2.691 -0.0509 -0.4138 -0.4479
  196SOL  HW1    587   0.385   1.413   2.684  2.6833 -0.4558 -1.0086
  196SOL  HW2    588   0.498   1.496   2.776  1.0241  2.4777 -0.5335
  197SOL  OW     589   2.476   0.336   2.671 -0.4708 -0.7279 -0.1627
  197SOL  HW1    590   2.559   0.354   2.733 -0.1488 -0.8647 -1.7488
  197SOL  HW2    591   2.397   0.405   2.678 -0.2562  0.6190  1.8276
  198SOL  OW     592   1.719   0.987   0.516 -0.1307 -0.0523  0.4338
  198SOL  HW1    593   1.814   1.025   0.519 -0.3354  1.3216  3.0047
  198SOL  HW2    594   1.705   0.930   0.435  1.2162 -1.2344  1.4342
  199SOL  OW     595   0.391   1.169   1.485 -0.6296  0.0747 -0.0168
  199SOL  HW1    596   0.484   1.207   1.470  0.0745 -0.0129 -1.1135
  199SOL  HW2    597   0.363   1.178   1.582  0.4595 -0.2816 -0.3797
  200SOL  OW     598   1.418   2.468   2.057 -0.1942 -0.0804 -0.1254
  200SOL  HW1    599   1.388   2.540   1.992  1.1041 -1.2749 -0.0390
  200SOL  HW2    600   1.499   2.496   2.110 -2.6190 -4.3175 -1.4758
  201SOL  OW     601   1.917   3.003   1.263 -0.4223  0.1481 -0.1135
  201SOL  HW1    602   1.853   2.935   1.218  0.5337 -0.0264  0.2835
  201SOL  HW2    603   2.016   2.977   1.256  1.0831 -1.3109 -1.9405
  202SOL  OW     604   0.228   0.173   0.008 -0.2344 -0.3753  0.0381
  202SOL  HW1    605   0.302   0.105   0.016  1.4085 -0.6859  0.1891
  202SOL  HW2    606   0.256   0.249   3.041 -1.3981  2.5967 -0.8000
  203SOL  OW     607   0.718   1.421   0.247  0.6114  0.2925 -0.2705
  203SOL  HW1    608   0.761   1.511   0.272 -2.9954 -1.7322  0.0749
  203SOL  HW2    609   0.624   1.420   0.282  0.0509 -0.7523  0.2189
  204SOL  OW     610   3.042   1.315   1.467  0.8637  0.3409  0.5498
  204SOL  HW1    611   2.974   1.309   1.392 -0.4639 -1.2446  3.1710
  204SOL  HW2    612   3.045   1.226   1.515  1.2978  1.2692  1.6720
  205SOL  OW     613   0.399   0.418   1.065  0.2512  0.1576 -0.1784
  205SOL  HW1    614   0.461   0.392   1.143 -0.8719  2.5765  1.1659
  205SOL  HW2    615   0.337   0.336   1.035 -2.4123 -1.1330 -0.8178
  206SOL  OW     616   0.458   1.953   0.467 -0.2494 -0.0729  0.2595
  206SOL  HW1    617   0.540   1.978   0.528  0.8169 -0.2997  1.3541
  206SOL  HW2    618   0.373   1.936   0.517  0.6381 -0.0401  0.1076
  207SOL  OW     619   1.645   2.473   2.191 -0.2199 -0.7654  0.1677
  207SOL  HW1    620   1.651   2.538   2.271 -2.8104  0.3051  0.1144
  207SOL  HW2    621   1.650   2.379   2.220 -3.3751  0.7196  0.1719
  208SOL  OW     622   1.795   0.002   1.471 -0.0022 -0.1909  0.2882
  208SOL  HW1    623   1.848   3.071   1.391 -0.3492  2.0053  0.1821
  208SOL  HW2    624   1.801   0.107   1.483 -0.6066  0.5351 -1.9441
  209SOL  OW     625   1.800   0.631   1.681 -0.3313  0.6814 -0.1400
  209SOL  HW1    626   1.769   0.701   1.753  2.7389 -2.0960  0.1351
  209SOL  HW2    627   1.904   0.619   1.685  2.4643 -1.2675  0.7918
  210SOL  OW     628   1.647   0.099   0.870  0.7042  0.0198  0.1705
  210SOL  HW1    629   1.639   0.117   0.769 -1.9854  0.0095  3.8646
  210SOL  HW2    630   1.692   0.008   0.887  1.3919  0.5087 -0.5276
  211SOL  OW     631   0.448   0.196   2.565  0.8867 -0.0873  0.1637
  211SOL  HW1    632   0.546   0.163   2.585 -0.5928  0.7801 -2.5816
  211SOL  HW2    633   0.389   0.109   2.561 -0.2554 -1.4870 -0.4172
  212SOL  OW     634   0.598   1.113   0.897  0.4171 -0.0456 -0.2183
  212SOL  HW1    635   0.579   1.102   0.799 -1.3168  0.2514 -0.6451
  212SOL  HW2    636   0.646   1.203   0.913  3.1632 -0.0822  0.5463
  213SOL  OW     637   0.320   3.069   0.602 -0.0325  0.0041  0.1860
  213SOL  HW1    638   0.358   0.045   0.537 -0.1119 -2.6288 -1.1358
  213SOL  HW2    639   0.389   3.022   0.663  0.8267 -1.2439  0.8030
  214SOL  OW     640   2.473   1.784   2.388 -0.1336  0.1733 -0.1103
  214SOL  HW1    641   2.470   1.783   2.489 -2.4363  1.2033  0.0975
  214SOL  HW2    642   2.380   1.789   2.343 -1.8004 -4.0364 -1.1212
  215SOL  OW     643   2.936   0.777   0.908 -0.2498 -0.1445 -0.2683
  215SOL  HW1    644   2.841   0.763   0.869 -1.5065  0.6074 -0.8630
  215SOL  HW2    645   2.935   0.802   1.006  0.3262  2.7157 -0.2492
  216SOL  OW     646   2.556   2.877   2.972  0.2726  0.1588 -0.5800
  216SOL  HW1    647   2.569   2.939   2.889 -2.1400  2.8649  1.8872
  216SOL  HW2    648   2.475   2.904   3.027 -1.9672 -2.6016 -1.6801
  217SOL  OW     649   2.660   1.730   2.008  0.1284 -0.7783 -0.4109
  217SOL  HW1    650   2.603   1.662   1.953 -4.0674  0.9851 -1.9680
  217SOL  HW2    651   2.693   1.682   2.093 -0.8917 -0.9561 -0.3835
  218SOL  OW     652   0.696   2.500   2.310 -0.0984 -0.3988  0.2987
  218SOL  HW1    653   0.595   2.507   2.335 -0.8169 -0.0264 -0.1300
  218SOL  HW2    654   0.703   2.510   2.211 -1.3028 -2.4216  2.3404
  219SOL  OW     655   2.840   2.508   2.872 -0.5155  0.4625 -0.2302
  219SOL  HW1    656   2.827   2.482   2.971 -0.2877  1.7430 -0.1139
  219SOL  HW2    657   2.788   2.593   2.853 -2.8324 -1.0457 -0.2582
  220SOL  OW     658   1.600   2.892   0.042  0.5310 -0.0182 -0.6060
  220SOL  HW1    659   1.610   2.870   0.143 -0.6368 -0.0456 -0.4467
  220SOL  HW2    660   1.696   2.912   0.007  1.2428 -1.2921 -1.9095
  221SOL  OW     661   1.614   1.086   0.246  0.0857 -0.3596 -0.2789
  221SOL  HW1    662   1.678   1.112   0.168  2.2522  0.5986  1.3099
  221SOL  HW2    663   1.623   0.988   0.266  1.7553  1.4160 -1.1458
  222SOL  OW     664   0.981   0.506   2.762 -0.3533 -0.2023  0.2690
  222SOL  HW1    665   1.068   0.529   2.813 -0.6376 -0.2576 -2.9358
  222SOL  HW2    666   0.997   0.477   2.664 -0.8464 -0.1247  1.6137
  223SOL  OW     667   2.615   0.958   2.339 -0.6890 -0.6618  0.4033
  223SOL  HW1    668   2.557   0.951   2.256 -2.2090  3.8793  0.1286
  223SOL  HW2    669   2.656   0.875   2.377  1.6648  0.3965  1.1736
  224SOL  OW     670   0.604   0.429   0.010 -0.0976 -0.3395 -0.8333
  224SOL  HW1    671   0.521   0.482   0.043 -0.8153  1.8343  1.9113
  224SOL  HW2    672   0.674   0.493   3.073  1.6330 -2.3016  0.0351
  225SOL  OW     673   0.909   1.234   1.042  0.2691  0.1254 -0.3988
  225SOL  HW1    674   0.848   1.274   0.966 -1.3341 -1.3870  0.6839
  225SOL  HW2    675   0.858   1.165   1.098 -1.1920  0.7582 -0.5976
  226SOL  OW     676   1.434   1.555   0.882  0.5063 -0.1160  0.2219
  226SOL  HW1    677   1.513   1.497   0.917  1.9422  2.0341  0.4755
  226SOL  HW2    678   1.425   1.550   0.781  1.7025 -1.2958  0.5586
  227SOL  OW     679   0.622   1.582   1.025 -0.7989 -0.2134  0.1928
  227SOL  HW1    680   0.600   1.631   0.939 -0.8269 -0.0452 -0.2261
  227SOL  HW2    681   0.545   1.516   1.049 -0.3836  2.1168  0.7860
  228SOL  OW     682   1.240   2.219   0.580  0.5191  0.0429 -0.6365
  228SOL  HW1    683   1.161   2.200   0.641 -1.0404  1.3172  0.9318
  228SOL  HW2    684   1.209   2.244   0.486  0.7244 -1.4017 -0.3765
  229SOL  OW     685   2.694   0.472   2.802 -0.3216  1.2437 -0.0279
  229SOL  HW1    686   2.709   0.483   2.703 -0.6968 -0.2515 -0.9784
  229SOL  HW2    687   2.773   0.425   2.847 -1.0051 -2.5836 -1.1856
  230SOL  OW     688   0.032   1.480   0.626  0.2908  0.2631  0.2512
  230SOL  HW1    689   0.022   1.396   0.575  0.2070  1.2017  1.9482
  230SOL  HW2    690   0.073   1.551   0.564  1.4866 -2.8085 -1.0984
  231SOL  OW     691   1.638   1.426   0.578  0.3558  0.1602  0.5247
  231SOL  HW1    692   1.713   1.494   0.598  0.2600 -2.0300  0.1775
  231SOL  HW2    693   1.670   1.378   0.492 -0.8991 -0.0661 -1.0341
  232SOL  OW     694   1.522   1.660   1.339  0.2884  0.0810 -0.5119
  232SOL  HW1    695   1.469   1.574   1.335 -1.6380  0.2673  2.2952
  232SOL  HW2    696   1.488   1.719   1.414  0.9073  0.8134  0.3523
  233SOL  OW     697   0.381   1.123   1.065 -0.2033 -0.5371 -0.3204
  233SOL  HW1    698   0.332   1.196   1.016 -1.4905 -0.1047  1.4214
  233SOL  HW2    699   0.480   1.129   1.032 -1.6586 -2.2771 -2.0920
  234SOL  OW     700   0.905   0.375   2.293  0.4331  0.2190 -0.1004
  234SOL  HW1    701   0.831   0.439   2.314 -2.6121  1.8499 -1.0104
  234SOL  HW2    702   0.882   0.285   2.248 -1.0634  0.0249 -0.7302
  235SOL  OW     703   2.588   1.237   1.655  0.3563  0.3885 -0.0298
  235SOL  HW1    704   2.586   1.265   1.555  3.0946  0.9092  3.3636
  235SOL  HW2    705   2.658   1.293   1.706  0.3597  1.7285  0.0455
  236SOL  OW     706   0.981   2.823   2.802 -0.0312 -0.5513  0.2242
  236SOL  HW1    707   0.911   2.898   2.804 -0.7375 -1.1127  0.1767
  236SOL  HW2    708   0.943   2.731   2.791 -0.7706 -0.2131 -0.3235
  237SOL  OW     709   0.091   1.449   2.859  0.3986 -0.3628  0.5410
  237SOL  HW1    710   0.129   1.463   2.767 -2.3675 -0.8544  2.7991
  237SOL  HW2    711   0.170   1.442   2.925  1.0789 -1.4064 -1.0856
  238SOL  OW     712   1.540   1.122   1.749 -0.0922 -0.2804  0.2360
  238SOL  HW1    713   1.627   1.148   1.702  2.0740  0.9180  3.2844
  238SOL  HW2    714   1.463   1.153   1.691 -2.1831  0.7298  2.8691
  239SOL  OW     715   1.310   1.629   0.103  0.0005  0.2290 -0.2754
  239SOL  HW1    716   1.389   1.571   0.132  2.9221  0.3196 -0.4620
  239SOL  HW2    717   1.249   1.639   0.181  1.2331  1.4559  1.4146
  240SOL  OW     718   0.105   2.590   1.239 -0.0074  0.4736  0.0161
  240SOL  HW1    719   0.165   2.671   1.239 -0.3782 -2.7630  0.8846
  240SOL  HW2    720   0.030   2.601   1.173  2.0437 -0.0100 -0.5726
  241SOL  OW     721   2.555   0.625   2.966  0.2249 -0.2983  0.0345
  241SOL  HW1    722   2.599   0.569   2.890  2.5524  3.9204  1.8957
  241SOL  HW2    723   2.623   0.698   2.991 -0.8781  2.7167 -0.9624
  242SOL  OW     724   1.459   2.476   1.259 -0.3837  0.1727 -0.8049
  242SOL  HW1    725   1.466   2.391   1.317 -2.2320 -2.3450 -1.9966
  242SOL  HW2    726   1.388   2.472   1.188 -0.5158 -0.8622 -3.7010
  243SOL  OW     727   2.051   2.468   2.110  0.0687 -0.2908 -1.0418
  243SOL  HW1    728   2.043   2.553   2.163  2.1791  0.5806 -4.0992
  243SOL  HW2    729   2.012   2.470   2.015  1.1493  0.6432  2.5718
  244SOL  OW     730   1.990   0.722   1.971  0.5077 -0.4195 -0.0864
  244SOL  HW1    731   2.022   0.672   1.889  0.1591 -5.2655 -2.3928
  244SOL  HW2    732   1.935   0.649   2.017  3.1012 -0.5512 -1.8652
  245SOL  OW     733   1.768   1.493   0.206 -0.4492  0.2540 -0.4825
  245SOL  HW1    734   1.831   1.496   0.126  1.3876 -0.6981 -1.7258
  245SOL  HW2    735   1.780   1.581   0.261  1.2445 -1.3760 -1.4259
  246SOL  OW     736   1.060   2.139   0.167  0.2599  0.0057 -0.2190
  246SOL  HW1    737   1.018   2.195   0.097  0.6137 -1.2609 -1.2363
  246SOL  HW2    738   1.117   2.198   0.228  2.5074  1.3067 -0.0541
  247SOL  OW     739   1.501   2.826   2.094 -0.5072 -0.0462  0.1790
  247SOL  HW1    740   1.529   2.922   2.109 -0.0061 -0.5098 -0.1117
  247SOL  HW2    741   1.464   2.778   2.176  0.3915 -0.2899 -1.6408
  248SOL  OW     742   0.172   2.613   1.599 -0.1366 -0.2455  0.0954
  248SOL  HW1    743   0.265   2.587   1.569 -0.3179 -0.6766  1.0935
  248SOL  HW2    744   0.101   2.559   1.554  0.9246  1.5111 -0.0633
  249SOL  OW     745   0.079   2.598   0.056 -0.5340  0.2046  0.2920
  249SOL  HW1    746   0.176   2.616   0.082  0.5081 -1.6092 -0.2193
  249SOL  HW2    747   0.017   2.629   0.126 -1.8888 -1.1056  0.2706
  250SOL  OW     748   2.175   0.267   1.171  0.6981  0.3411  0.3289
  250SOL  HW1    749   2.176   0.313   1.083  2.3559 -0.5152 -1.4945
  250SOL  HW2    750   2.082   0.229   1.194 -0.6476 -1.0678 -1.7885
  251SOL  OW     751   1.533   1.038   3.017  0.3996  0.4873  0.2901
  251SOL  HW1    752   1.604   1.095   2.975  1.8367 -0.1358  0.5251
  251SOL  HW2    753   1.466   1.005   2.942  1.5073  1.3377 -2.5331
  252SOL  OW     754   2.192   1.600   2.574 -0.8626 -0.6537 -0.2925
  252SOL  HW1    755   2.113   1.559   2.633  0.2194  0.5137 -1.5253
  252SOL  HW2    756   2.155   1.648   2.490 -1.4414  0.0095  2.6936
  253SOL  OW     757   0.147   2.297   0.311 -0.1139 -0.0513  0.2023
  253SOL  HW1    758   0.063   2.326   0.260  1.7446  0.5435 -1.9934
  253SOL  HW2    759   0.139   2.198   0.342  0.3056  1.8485  0.5494
  254SOL  OW     760   1.847   0.605   0.536  0.3102  0.0878 -0.1535
  254SOL  HW1    761   1.812   0.660   0.614  0.8870  1.4467 -0.9103
  254SOL  HW2    762   1.772   0.586   0.468  1.6982  1.0271 -1.4503
  255SOL  OW     763   0.931   2.683   1.156  0.5452 -0.4092 -0.1211
  255SOL  HW1    764   0.921   2.760   1.219  0.5372  3.0470  2.5250
  255SOL  HW2    765   0.880   2.602   1.198 -2.1755 -1.2515  0.8826
  256SOL  OW     766   2.342   2.809   1.747  0.1529  0.1260  0.2582
  256SOL  HW1    767   2.399   2.836   1.670 -0.7464 -1.5311  0.7575
  256SOL  HW2    768   2.304   2.716   1.726  1.2445 -4.6386  0.4571
  257SOL  OW     769   2.706   2.642   0.205  0.4991  0.3941 -0.4999
  257SOL  HW1    770   2.716   2.725   0.146  2.4144 -1.2525  2.5932
  257SOL  HW2    771   2.689   2.564   0.149 -0.7219  0.5588  2.5068
  258SOL  OW     772   1.173   1.303   1.043 -0.7014  0.6837 -0.2508
  258SOL  HW1    773   1.172   1.389   0.990 -1.3059 -0.0644  2.0282
  258SOL  HW2    774   1.075   1.277   1.049 -2.6248  1.6808 -0.6561
  259SOL  OW     775   1.379   0.555   2.097  0.3750 -0.2386 -0.3393
  259SOL  HW1    776   1.290   0.511   2.118 -0.4480  2.1358 -2.0667
  259SOL  HW2    777   1.372   0.653   2.072 -2.3443 -1.5812  0.6678
  260SOL  OW     778   0.153   0.342   1.393 -0.3366  0.0009 -0.2249
  260SOL  HW1    779   0.191   0.432   1.374 -0.4772  0.3901  0.5735
  260SOL  HW2    780   0.161   0.277   1.315  1.5050 -0.6046  1.0365
  261SOL  OW     781   0.935   0.129   2.975 -0.3305  0.4105  0.1817
  261SOL  HW1    782   0.895   0.180   3.054  0.0839 -0.9006 -0.7001
  261SOL  HW2    783   0.993   0.050   3.000  0.3525  1.2685 -1.2396
  262SOL  OW     784   1.583   1.907   2.606 -0.5866 -0.0970 -0.1065
  262SOL  HW1    785   1.677   1.933   2.620 -2.1031 -1.9558  1.9113
  262SOL  HW2    786   1.520   1.984   2.574  0.9524  0.1562  1.0788
  263SOL  OW     787   0.072   0.670   0.876  0.2441  0.2270  0.3970
  263SOL  HW1    788   0.119   0.703   0.791 -0.1917  2.4761  0.0428
  263SOL  HW2    789   3.075   0.718   0.885 -0.0206 -2.3735  1.6690
  264SOL  OW     790   2.120   1.614   0.186  0.0404  0.3592 -0.1110
  264SOL  HW1    791   2.146   1.573   0.276  0.4695 -1.9845 -0.7636
  264SOL  HW2    792   2.067   1.702   0.208 -0.9607 -0.5702  0.8517
  265SOL  OW     793   1.253   1.897   0.746  0.2071  0.0719  0.3924
  265SOL  HW1    794   1.342   1.903   0.796  4.1514 -1.4637 -2.1850
  265SOL  HW2    795   1.265   1.849   0.658 -1.5445  0.0489  2.7126
  266SOL  OW     796   2.601   1.296   1.389  0.0797 -0.1985 -0.1334
  266SOL  HW1    797   2.553   1.384   1.362 -0.9286 -2.6720  1.2366
  266SOL  HW2    798   2.571   1.218   1.331  1.5282 -0.1172  1.6758
  267SOL  OW     799   0.433   0.823   0.780 -0.5375  0.5375 -0.2052
  267SOL  HW1    800   0.508   0.759   0.757 -0.8142  0.3508  0.1009
  267SOL  HW2    801   0.430   0.838   0.882  1.1836 -0.1431 -0.1134
  268SOL  OW     802   1.359   0.905   0.337  0.2746 -0.3484 -0.4755
  268SOL  HW1    803   1.313   0.882   0.246 -0.2978 -0.9634  0.4271
  268SOL  HW2    804   1.457   0.877   0.337 -1.8774 -0.6843 -0.8758
  269SOL  OW     805   0.675   0.918   1.638 -0.8994  0.4175  0.2463
  269SOL  HW1    806   0.730   1.004   1.615  0.8314 -1.8466  1.1704
  269SOL  HW2    807   0.646   0.919   1.733  0.2131 -1.9537 -0.3150
  270SOL  OW     808   1.160   1.124   0.761  0.1013  0.6701 -0.4432
  270SOL  HW1    809   1.184   1.057   0.837  0.9883  2.2186 -0.5733
  270SOL  HW2    810   1.231   1.124   0.684 -4.1994  4.1882 -0.5552
  271SOL  OW     811   2.513   1.016   2.619  0.6005  0.8322  0.0122
  271SOL  HW1    812   2.591   1.077   2.649  1.6892  1.6565  0.7765
  271SOL  HW2    813   2.513   1.005   2.517 -1.3124  1.2217 -3.4331
  272SOL  OW     814   0.122   1.933   1.581  0.2273  0.4205  0.2918
  272SOL  HW1    815   0.104   1.828   1.593  0.6501 -1.4003  0.5820
  272SOL  HW2    816   0.059   1.978   1.511 -0.0834 -1.2645  1.5853
  273SOL  OW     817   3.054   3.076   2.899  0.0810 -0.1778  0.0747
  273SOL  HW1    818   3.030   2.987   2.861  2.5950 -1.3996 -2.3920
  273SOL  HW2    819   3.073   0.049   2.825 -1.3970  3.7869 -2.1418
  274SOL  OW     820   2.268   2.815   2.029  0.1263 -0.2693  0.8867
  274SOL  HW1    821   2.317   2.827   1.944 -2.9879  0.6910 -1.1685
  274SOL  HW2    822   2.176   2.780   2.013 -0.1317  0.8757  1.3329
  275SOL  OW     823   1.405   0.961   2.301  0.0952  0.0740  0.1336
  275SOL  HW1    824   1.438   0.991   2.391  2.2569 -2.6960 -1.4342
  275SOL  HW2    825   1.409   0.859   2.303 -1.1385  0.2734 -1.1527
  276SOL  OW     826   0.168   0.626   2.766  0.5601 -0.2423  0.7304
  276SOL  HW1    827   0.226   0.576   2.699 -1.0060 -0.4888  0.2985
  276SOL  HW2    828   0.221   0.657   2.846  0.1121 -2.4296 -0.4740
  277SOL  OW     829   1.851   0.276   0.946 -0.3836  0.6522 -0.2011
  277SOL  HW1    830   1.784   0.209   0.912  1.5974 -1.3863 -1.5296
  277SOL  HW2    831   1.875   0.247   1.044  1.3321 -0.2601  2.2723
  278SOL  OW     832   1.452   0.243   2.552  0.2443  0.1537  0.1754
  278SOL  HW1    833   1.507   0.196   2.621  1.6732  1.4095 -0.2524
  278SOL  HW2    834   1.351   0.224   2.564 -0.4230  1.6987  2.0095
  279SOL  OW     835   0.016   2.169   0.893  0.5908  0.3744 -0.1644
  279SOL  HW1    836   3.049   2.089   0.884  0.4154  1.8076  0.9425
  279SOL  HW2    837   0.043   2.193   0.989  2.0415 -2.4916 -0.7657
  280SOL  OW     838   0.765   0.580   2.934 -0.0383  0.2817  0.0841
  280SOL  HW1    839   0.789   0.664   2.984 -0.9491  0.3122  1.4918
  280SOL  HW2    840   0.843   0.539   2.887  0.9749  3.2473  0.2951
  281SOL  OW     841   1.849   2.910   2.564 -0.1528  0.3557 -0.0570
  281SOL  HW1    842   1.775   2.880   2.627  2.5296 -2.1264 -0.0022
  281SOL  HW2    843   1.806   2.964   2.480 -1.1546  5.4430 -0.1455
  282SOL  OW     844   2.849   1.265   1.269  0.2611  0.1894 -0.5722
  282SOL  HW1    845   2.762   1.296   1.310 -1.3816  1.9260 -0.0813
  282SOL  HW2    846   2.845   1.265   1.168  0.7399 -3.2563 -2.7608
  283SOL  OW     847   2.115   2.242   2.500 -0.2358  0.5213  0.1880
  283SOL  HW1    848   2.046   2.298   2.449  0.5702  1.9977 -2.3466
  283SOL  HW2    849   2.204   2.293   2.521  0.8015  3.0835 -1.2866
  284SOL  OW     850   2.272   0.832   2.478  0.3487 -0.2364  0.4047
  284SOL  HW1    851   2.225   0.742   2.461  1.7297 -0.0890  0.6932
  284SOL  HW2    852   2.323   0.858   2.396 -1.8084  0.2320  3.6505
  285SOL  OW     853   0.034   1.503   0.891 -0.5091  0.2528 -0.5169
  285SOL  HW1    854   0.039   1.515   0.790 -1.2324  0.7544  0.9295
  285SOL  HW2    855   3.035   1.515   0.934  2.2074  1.6215  2.0775
  286SOL  OW     856   0.962   2.240   1.784  0.5236  0.5713  0.5362
  286SOL  HW1    857   1.005   2.330   1.752 -1.5061 -0.1944 -0.1752
  286SOL  HW2    858   1.018   2.157   1.768 -1.1549  3.5232 -1.5070
  287SOL  OW     859   1.114   1.711   0.294 -0.2866  0.5884  0.4976
  287SOL  HW1    860   1.155   1.731   0.384  0.4121  1.2049 -0.8465
  287SOL  HW2    861   1.017   1.684   0.313  1.0321 -0.4946 -0.8189
  288SOL  OW     862   2.969   2.225   2.090 -0.4554  0.2559 -0.3041
  288SOL  HW1    863   2.999   2.132   2.051  0.2819  1.3053  2.5410
  288SOL  HW2    864   3.052   2.281   2.110  0.2464 -2.5477 -0.8817
  289SOL  OW     865   2.507   1.562   1.067 -0.1571  0.1603  0.2790
  289SOL  HW1    866   2.471   1.525   1.158 -1.7099 -0.0948 -0.6774
  289SOL  HW2    867   2.533   1.657   1.079 -1.9202  0.1024  0.5433
  290SOL  OW     868   0.767   2.731   2.454  0.9943  0.9927  0.1545
  290SOL  HW1    869   0.748   2.650   2.394 -0.5510 -1.0880 -1.0267
  290SOL  HW2    870   0.709   2.804   2.419  1.0044  1.2123 -0.3842
  291SOL  OW     871   1.514   2.502   0.901 -0.3454 -0.3109  0.3108
  291SOL  HW1    872   1.479   2.598   0.909  2.9075  1.1218  0.3066
  291SOL  HW2    873   1.432   2.440   0.876 -1.0768  1.3974 -0.4914
  292SOL  OW     874   0.713   2.465   2.018 -0.0611  0.8393 -0.1878
  292SOL  HW1    875   0.703   2.539   1.952 -1.2763 -0.3221  0.8303
  292SOL  HW2    876   0.649   2.384   2.006  0.4181 -1.0834  1.5678
  293SOL  OW     877   0.660   2.185   1.742  0.8214 -0.5884 -0.2880
  293SOL  HW1    878   0.679   2.083   1.726 -1.6946  3.1252  0.1743
  293SOL  HW2    879   0.743   2.238   1.755  0.2109  2.0986 -0.1728
  294SOL  OW     880   2.289   0.599   0.674 -0.1113  0.6615 -0.1931
  294SOL  HW1    881   2.375   0.558   0.709 -0.2045 -0.6345 -1.7097
  294SOL  HW2    882   2.257   0.677   0.733  0.1811 -1.1725  1.7496
  295SOL  OW     883   1.196   1.094   2.213  0.0142  0.5396  0.2995
  295SOL  HW1    884   1.125   1.082   2.284 -3.1743  1.0654 -0.6943
  295SOL  HW2    885   1.274   1.029   2.222  1.5918 -0.2160  0.6625
  296SOL  OW     886   1.777   1.186   1.650  0.0453 -0.6772 -0.6428
  296SOL  HW1    887   1.775   1.094   1.609 -0.6434  3.0331 -0.6869
  296SOL  HW2    888   1.868   1.207   1.689 -1.5019  0.3093  1.9992
  297SOL  OW     889   2.956   1.335   0.431  0.1640  1.0158  0.0323
  297SOL  HW1    890   2.893   1.401   0.468 -1.7549 -1.5369  0.3521
  297SOL  HW2    891   2.975   1.349   0.333  0.0983 -1.3552  1.1564
  298SOL  OW     892   1.826   0.880   2.326 -0.1472 -0.8387 -0.2269
  298SOL  HW1    893   1.781   0.939   2.253  1.0999  0.3886  1.3340
  298SOL  HW2    894   1.861   0.943   2.396  0.8837  1.5953  0.2806
  299SOL  OW     895   2.484   2.781   2.199 -0.4178  0.0824 -0.5069
  299SOL  HW1    896   2.532   2.872   2.195 -1.5434  3.6168  0.2862
  299SOL  HW2    897   2.408   2.789   2.130 -3.0182  2.6513 -0.7409
  300SOL  OW     898   2.696   3.045   1.721  0.4065 -0.0533  0.2270
  300SOL  HW1    899   2.756   2.963   1.715  4.5126  0.7338  1.4862
  300SOL  HW2    900   2.613   3.024   1.778  0.1321  0.2888 -0.4828
  301SOL  OW     901   2.232   0.773   2.137  0.3007  0.5889 -0.2776
  301SOL  HW1    902   2.256   0.700   2.206  1.6256 -1.2512 -0.8750
  301SOL  HW2    903   2.139   0.749   2.098  0.6472 -0.7713 -1.5104
  302SOL  OW     904   2.947   0.605   2.934 -0.5194  0.3024  0.3483
  302SOL  HW1    905   2.874   0.674   2.939  1.3961  0.4991 -1.1277
  302SOL  HW2    906   2.959   0.583   2.837  2.0174  0.5488 -1.0698
  303SOL  OW     907   0.902   1.848   1.897  0.6201 -0.1536  0.3902
  303SOL  HW1    908   0.996   1.868   1.923  3.9025 -1.4165  3.8121
  303SOL  HW2    909   0.841   1.888   1.966 -0.9821 -1.3974 -0.5197
  304SOL  OW     910   0.244   0.356   2.917  0.3077  0.4819  0.0728
  304SOL  HW1    911   0.207   0.451   2.928  1.4431 -2.4556  0.1079
  304SOL  HW2    912   0.339   0.361   2.872  0.3370 -0.2503 -1.9005
  305SOL  OW     913   1.102   0.599   3.009  0.4587 -0.1380 -0.1832
  305SOL  HW1    914   1.067   0.682   3.057 -1.2723 -1.3746  2.0472
  305SOL  HW2    915   1.086   0.514   3.065  0.8237  1.4453  1.6023
  306SOL  OW     916   0.317   0.756   2.991 -0.2367  0.6223  0.0264
  306SOL  HW1    917   0.355   0.707   3.074 -0.0386 -3.2118  2.6505
  306SOL  HW2    918   0.220   0.790   3.009  1.7736 -2.6180 -0.2897
  307SOL  OW     919   0.204   0.799   1.288 -0.0125  0.2799 -0.0724
  307SOL  HW1    920   0.239   0.744   1.207  2.3537  0.8312  0.6295
  307SOL  HW2    921   0.232   0.900   1.282 -1.9968 -0.4384 -0.8115
  308SOL  OW     922   0.892   3.076   1.956 -0.3832 -0.0575 -0.1648
  308SOL  HW1    923   0.827   3.072   2.037 -0.2501 -1.1946 -0.5829
  308SOL  HW2    924   0.841   3.046   1.871  2.0975  0.8180  1.4941
  309SOL  OW     925   1.750   1.278   0.385  0.5660 -0.4531  0.1704
  309SOL  HW1    926   1.763   1.343   0.308  1.8334  2.7987 -2.7365
  309SOL  HW2    927   1.703   1.192   0.362  0.1995 -2.1313  1.1911
  310SOL  OW     928   1.096   0.406   2.511  0.3619  0.6719 -0.8510
  310SOL  HW1    929   1.034   0.390   2.433  0.1205 -4.7672  0.6549
  310SOL  HW2    930   1.164   0.479   2.483  3.0315  2.5398  1.1460
  311SOL  OW     931   2.249   3.021   2.189 -0.1701 -0.2444  0.2028
  311SOL  HW1    932   2.270   0.012   2.142 -0.9712  0.6660  3.0276
  311SOL  HW2    933   2.276   2.937   2.134 -1.0383 -0.5630 -0.6058
  312SOL  OW     934   1.705   0.825   1.836  0.1648 -0.0477 -0.1703
  312SOL  HW1    935   1.631   0.867   1.896 -2.0405 -1.8231  1.4091
  312SOL  HW2    936   1.791   0.885   1.820  0.4623 -1.9926  0.3017
  313SOL  OW     937   3.030   0.344   0.317 -0.0798 -0.2634  0.5314
  313SOL  HW1    938   2.950   0.279   0.314 -0.7621  0.1303  0.8679
  313SOL  HW2    939   3.018   0.434   0.262  0.9355  1.0061 -4.4766
  314SOL  OW     940   2.881   1.819   1.514  0.1922 -0.7692  0.0259
  314SOL  HW1    941   2.952   1.870   1.464  1.9169 -0.3467 -2.1042
  314SOL  HW2    942   2.872   1.726   1.480 -2.2721 -2.0418 -2.2551
  315SOL  OW     943   2.871   0.855   1.168 -0.2724  0.2274  0.3610
  315SOL  HW1    944   2.913   0.766   1.193  0.2783  1.1686  0.4747
  315SOL  HW2    945   2.925   0.928   1.202 -0.2601 -0.2094  1.2738
  316SOL  OW     946   0.833   0.808   0.818 -0.5456 -0.0834 -0.3425
  316SOL  HW1    947   0.910   0.746   0.833 -2.5686  0.2685 -0.2230
  316SOL  HW2    948   0.860   0.887   0.761  0.0634 -0.1808  0.8154
  317SOL  OW     949   1.245   3.008   2.234  0.4130  0.1477 -1.2559
  317SOL  HW1    950   1.228   2.907   2.211 -0.5634  1.2104 -0.4901
  317SOL  HW2    951   1.211   3.067   2.161  1.1263 -0.1903 -1.1346
  318SOL  OW     952   0.420   1.940   0.933 -0.4594 -0.0950  0.6719
  318SOL  HW1    953   0.352   1.931   1.013  1.0437  0.8743 -0.2521
  318SOL  HW2    954   0.398   2.027   0.881 -2.0507 -2.7382 -1.0917
  319SOL  OW     955   0.829   2.020   2.701  0.7023 -0.7335  0.4683
  319SOL  HW1    956   0.790   2.111   2.673  0.4166  0.6123  1.3545
  319SOL  HW2    957   0.870   2.025   2.795 -1.1904  3.2574 -2.4444
  320SOL  OW     958   3.080   1.904   0.644  0.3304  0.0163  0.1054
  320SOL  HW1    959   3.046   1.834   0.577  0.8331 -1.1474  0.3855
  320SOL  HW2    960   3.011   1.932   0.712 -2.1169 -1.0179  0.5530
  321SOL  OW     961   0.462   0.043   2.986 -0.4366 -0.1345 -0.5674
  321SOL  HW1    962   0.379   0.018   2.929  1.1773 -0.9977  2.6852
  321SOL  HW2    963   0.515   0.121   2.942  2.0321 -0.9718 -0.1221
  322SOL  OW     964   2.931   1.637   2.411 -0.1309  0.4466  0.0711
  322SOL  HW1    965   2.934   1.734   2.442  0.8983  0.2191  0.9480
  322SOL  HW2    966   2.910   1.571   2.491  2.2656 -0.7705 -0.1624
  323SOL  OW     967   2.980   0.141   0.696 -0.2979  1.3044  0.2587
  323SOL  HW1    968   3.022   0.234   0.675  1.8980 -0.9718  0.3275
  323SOL  HW2    969   2.890   0.131   0.643  0.9392 -1.8948  0.7134
  324SOL  OW     970   0.876   2.328   2.407  0.1282 -0.4257  0.3303
  324SOL  HW1    971   0.812   2.295   2.480 -0.5431  0.4303 -0.1856
  324SOL  HW2    972   0.818   2.395   2.355 -0.4772 -1.4651  1.6157
  325SOL  OW     973   2.499   2.517   2.970  0.2108  0.0770 -0.3590
  325SOL  HW1    974   2.561   2.546   2.893 -0.1716 -0.2694 -1.3581
  325SOL  HW2    975   2.413   2.568   2.972  3.1403  0.6605  0.1047
  326SOL  OW     976   3.066   1.072   1.230  0.1653  0.6699  0.3804
  326SOL  HW1    977   0.072   1.080   1.241 -1.4136  3.5379 -0.2502
  326SOL  HW2    978   3.020   1.125   1.305  2.0940 -1.5676  1.9097
  327SOL  OW     979   2.096   2.809   2.472 -0.0314 -0.0598  0.3465
  327SOL  HW1    980   2.004   2.843   2.500 -0.8433  3.6440 -1.4057
  327SOL  HW2    981   2.078   2.737   2.402  1.0378 -2.5550  2.9913
  328SOL  OW     982   0.690   0.192   1.607  0.1989  0.4689  0.2446
  328SOL  HW1    983   0.587   0.183   1.617  0.2915 -1.3277  1.3388
  328SOL  HW2    984   0.719   0.287   1.644 -1.1756 -4.0634 -3.4228
  329SOL  OW     985   1.499   0.317   1.413 -0.2593 -0.4888 -0.0828
  329SOL  HW1    986   1.495   0.220   1.453  0.1068 -0.5994 -0.7468
  329SOL  HW2    987   1.442   0.383   1.468  0.4335  2.1346  1.6309
  330SOL  OW     988   0.391   0.114   1.351 -0.6016 -0.0999  0.1613
  330SOL  HW1    989   0.300   0.126   1.303 -1.1791 -1.4366 -1.8808
  330SOL  HW2    990   0.470   0.167   1.313  0.9775 -0.6466 -1.0472
  331SOL  OW     991   0.368   1.974   2.992  0.0984  0.6197  0.3767
  331SOL  HW1    992   0.275   1.941   3.018  1.5595  1.2396  0.1758
  331SOL  HW2    993   0.377   2.022   2.902  0.7373  0.2373  0.0664
  332SOL  OW     994   2.587   0.403   1.183  0.5101  0.1612 -0.2990
  332SOL  HW1    995   2.637   0.364   1.102  1.3205  0.0422  0.2679
  332SOL  HW2    996   2.655   0.428   1.259 -2.7016  0.3933 -2.3100
  333SOL  OW     997   2.757   0.401   1.393 -0.0439 -0.0486  0.2984
  333SOL  HW1    998   2.796   0.493   1.425 -0.2889 -1.5629 -0.7004
  333SOL  HW2    999   2.734   0.333   1.467  1.2801 -1.6264 -0.1849
  334SOL  OW    1000   0.730   1.111   0.493  0.2063  0.0450  0.1753
  334SOL  HW1   1001   0.653   1.067   0.540  0.2858 -0.3280  1.7537
  334SOL  HW2   1002   0.818   1.098   0.542 -0.9119 -0.4959  0.0674
  335SOL  OW    1003   2.377   2.780   1.161  0.2836 -0.2394  0.0794
  335SOL  HW1   1004   2.411   2.739   1.244 -1.6710  0.6242  0.4970
  335SOL  HW2   1005   2.449   2.839   1.122  1.8222 -1.6100  1.4482
  336SOL  OW    1006   2.808   0.109   1.914 -0.4014 -0.4612  0.5849
  336SOL  HW1   1007   2.743   0.169   1.966  1.3510  0.1663 -1.8355
  336SOL  HW2   1008   2.759   0.073   1.833  4.3091  0.3078 -2.1339
  337SOL  OW    1009   0.515   2.010   2.586 -0.2136 -0.1454  0.3500
  337SOL  HW1   1010   0.576   1.936   2.624  1.9742 -1.2436 -1.1879
  337SOL  HW2   1011   0.449   1.971   2.517  2.8641  0.4209  1.3024
  338SOL  OW    1012   1.796   1.083   2.160  0.1342  0.3845  0.2415
  338SOL  HW1   1013   1.892   1.124   2.151  0.3730 -0.5386  0.2892
  338SOL  HW2   1014   1.727   1.157   2.155  3.2344  1.1258  0.0399
  339SOL  OW    1015   0.814   1.477   1.223 -0.6292  0.0392  0.5413
  339SOL  HW1   1016   0.786   1.529   1.145 -0.0037 -0.7932  3.0199
  339SOL  HW2   1017   0.750   1.396   1.239  1.4078 -2.3275  2.8255
  340SOL  OW    1018   1.674   2.820   2.779 -0.8426 -0.4805  0.1690
  340SOL  HW1   1019   1.583   2.873   2.758  4.1592 -0.5976  1.9560
  340SOL  HW2   1020   1.707   2.839   2.875 -0.5211  1.3097 -2.7150
  341SOL  OW    1021   2.775   2.858   0.047 -0.1902 -0.3745 -0.5695
  341SOL  HW1   1022   2.858   2.825   0.002  1.5748 -3.7936 -0.1580
  341SOL  HW2   1023   2.700   2.887   3.077  1.2698 -2.6093  2.4037
  342SOL  OW    1024   2.043   1.651   2.047 -0.2782 -0.0905 -0.0922
  342SOL  HW1   1025   2.067   1.731   1.994  1.9249 -3.2197  1.5094
  342SOL  HW2   1026   1.947   1.659   2.084  3.1704 -0.8566 -2.1907
  343SOL  OW    1027   2.263   2.197   1.545 -0.6363  0.3918  0.2249
  343SOL  HW1   1028   2.294   2.255   1.624 -0.3226  1.3185 -3.3249
  343SOL  HW2   1029   2.271   2.095   1.567 -1.5985  0.2919 -0.7793
  344SOL  OW    1030   1.976   2.184   1.615  0.0204 -0.0789  0.0423
  344SOL  HW1   1031   2.069   2.185   1.575  1.3215  0.0275  2.7476
  344SOL  HW2   1032   1.901   2.237   1.564  1.0232 -0.1302 -0.6524
  345SOL  OW    1033   1.932   2.683   1.700 -0.1641  0.1833 -0.0325
  345SOL  HW1   1034   1.943   2.644   1.608 -0.3744 -0.0006  1.6648
  345SOL  HW2   1035   1.894   2.776   1.702 -2.4021 -0.7893 -1.2866
  346SOL  OW    1036   0.685   2.889   1.506  0.2694 -0.1227  0.1115
  346SOL  HW1   1037   0.596   2.932   1.481 -1.4067  0.4062  1.6938
  346SOL  HW2   1038   0.661   2.806   1.554 -1.2710 -0.1641  1.1120
  347SOL  OW    1039   1.082   2.459   1.654  0.5250  0.5217 -0.2207
  347SOL  HW1   1040   1.052   2.547   1.615 -1.0239  1.4181  0.1250
  347SOL  HW2   1041   1.127   2.396   1.585 -0.4357 -1.7002  3.0400
  348SOL  OW    1042   1.256   1.274   1.698  0.4285 -0.1494  0.2209
  348SOL  HW1   1043   1.243   1.252   1.795 -1.4611 -1.9611 -1.2840
  348SOL  HW2   1044   1.228   1.371   1.679 -1.3561  0.5898  1.8902
  349SOL  OW    1045   2.365   1.218   0.866 -0.1297 -0.1643 -0.0847
  349SOL  HW1   1046   2.432   1.263   0.930  0.7024  1.7233 -1.5717
  349SOL  HW2   1047   2.404   1.126   0.842  0.2019  2.2546  1.2852
  350SOL  OW    1048   2.158   2.717   0.810 -0.4493  0.3941  0.5492
  350SOL  HW1   1049   2.090   2.690   0.739 -0.8250  0.5857  1.7090
  350SOL  HW2   1050   2.256   2.692   0.783 -0.2571  0.6883  1.7971
  351SOL  OW    1051   0.831   2.235   1.390  0.0882 -0.4108  0.2997
  351SOL  HW1   1052   0.749   2.201   1.344 -0.8520 -1.3949 -1.7977
  351SOL  HW2   1053   0.890   2.160   1.431 -3.6320 -1.8288 -0.1484
  352SOL  OW    1054   1.963   1.493   0.003  0.9068 -0.1567  0.1496
  352SOL  HW1   1055   2.013   1.444   3.023 -0.2430 -1.1683  0.7951
  352SOL  HW2   1056   2.033   1.530   0.067 -2.1698  1.4398 -0.2050
  353SOL  OW    1057   0.386   1.256   2.416 -0.5504 -0.5036 -0.0539
  353SOL  HW1   1058   0.353   1.349   2.444  1.2652 -1.3294 -0.7907
  353SOL  HW2   1059   0.485   1.257   2.388 -3.7027  0.5629 -0.6566
  354SOL  OW    1060   1.291   0.609   2.448 -0.2995 -0.5019  0.1930
  354SOL  HW1   1061   1.376   0.611   2.395 -0.1452 -0.7448 -1.1464
  354SOL  HW2   1062   1.275   0.697   2.498 -3.1706  0.0321 -0.3307
  355SOL  OW    1063   2.129   2.099   3.029 -0.0466  0.3092  0.1382
  355SOL  HW1   1064   2.099   1.999   3.016 -3.1431  1.0471  1.6338
  355SOL  HW2   1065   2.184   2.127   2.944 -2.0605 -0.8732 -0.6089
  356SOL  OW    1066   0.972   0.019   2.480  0.0969 -0.1229 -0.5155
  356SOL  HW1   1067   0.899   3.091   2.549 -2.4717  0.2121  4.6628
  356SOL  HW2   1068   0.937   0.004   2.385  1.5459 -0.5758 -1.5665
  357SOL  OW    1069   0.130   0.343   2.526  0.5630  0.0580 -0.1253
  357SOL  HW1   1070   0.218   0.364   2.570  1.8032  0.0188  1.9199
  357SOL  HW2   1071   0.151   0.310   2.431  2.8843  2.9559 -0.9015
  358SOL  OW    1072   2.583   1.309   1.016 -0.0992 -0.0571 -0.6501
  358SOL  HW1   1073   2.570   1.411   1.017 -2.7703 -1.9293  2.0360
  358SOL  HW2   1074   2.670   1.275   0.975  0.7501 -0.2457  1.3264
  359SOL  OW    1075   1.491   2.284   2.995  0.2595  0.1114  0.4070
  359SOL  HW1   1076   1.436   2.264   2.912 -1.5219 -1.6182 -0.6141
  359SOL  HW2   1077   1.552   2.360   2.972 -2.5723 -0.7456 -1.0410
  360SOL  OW    1078   0.552   2.288   2.946 -0.0061 -0.0858  0.3176
  360SOL  HW1   1079   0.461   2.300   2.992 -3.0182 -1.5680  1.9830
  360SOL  HW2   1080   0.589   2.200   2.984  0.5311 -0.7190  0.8428
  361SOL  OW    1081   2.093   1.373   2.895  0.4920  0.7979 -0.1722
  361SOL  HW1   1082   2.195   1.356   2.879 -0.8001  1.0533 -1.5047
  361SOL  HW2   1083   2.037   1.388   2.814 -0.3231  2.9827 -0.1361
  362SOL  OW    1084   1.754   0.268   1.350 -0.1985  0.0892  0.0130
  362SOL  HW1   1085   1.650   0.269   1.352  1.4559 -0.6385  1.1492
  362SOL  HW2   1086   1.788   0.348   1.398 -0.6526 -0.1745 -0.4793
  363SOL  OW    1087   1.776   1.396   1.254  0.7034 -0.1389 -0.4228
  363SOL  HW1   1088   1.825   1.308   1.257 -3.2852 -3.1982  1.8739
  363SOL  HW2   1089   1.723   1.408   1.339 -0.3364  0.1250  0.6502
  364SOL  OW    1090   0.459   1.587   2.455  0.4297  0.2917  0.2972
  364SOL  HW1   1091   0.380   1.642   2.472 -0.7284 -1.4934  1.0524
  364SOL  HW2   1092   0.485   1.540   2.541 -1.2301  0.8847 -2.7129
  365SOL  OW    1093   1.915   0.344   0.631 -0.3864  0.0960 -0.2510
  365SOL  HW1   1094   1.863   0.340   0.718 -2.2549 -2.8049 -0.0496
  365SOL  HW2   1095   1.885   0.426   0.577  0.5589  0.3663 -1.5744
  366SOL  OW    1096   1.683   2.684   2.366 -0.0819  0.4743  0.2331
  366SOL  HW1   1097   1.582   2.696   2.379 -0.2718  0.9035  0.1656
  366SOL  HW2   1098   1.726   2.690   2.460 -1.3582  0.8667 -1.2498
  367SOL  OW    1099   1.245   0.209   1.831 -0.0757  0.4666 -0.4966
  367SOL  HW1   1100   1.314   0.265   1.882  0.3814 -0.7364 -2.3905
  367SOL  HW2   1101   1.230   0.126   1.887  0.5136  0.3113 -2.1418
  368SOL  OW    1102   3.080   1.303   2.539  0.1513 -0.1580  1.1245
  368SOL  HW1   1103   3.008   1.363   2.580 -2.0599 -3.2860  0.4539
  368SOL  HW2   1104   3.051   1.248   2.465 -0.3369  0.1600 -0.0902
  369SOL  OW    1105   0.791   0.670   1.243  0.3188  0.1086  0.6114
  369SOL  HW1   1106   0.790   0.577   1.200 -1.6071 -0.3398 -0.0907
  369SOL  HW2   1107   0.763   0.741   1.174 -2.0110  1.7198  0.5069
  370SOL  OW    1108   2.192   3.072   2.460  0.0032 -0.0636  0.0268
  370SOL  HW1   1109   2.233   3.068   2.367  1.2409 -0.2415 -2.4035
  370SOL  HW2   1110   2.148   2.981   2.476  1.1133  0.3029  2.4762
  371SOL  OW    1111   0.425   2.956   1.469 -0.4789 -0.0467 -0.5695
  371SOL  HW1   1112   0.417   3.039   1.416 -0.6803 -1.5206  0.0994
  371SOL  HW2   1113   0.329   2.917   1.483 -0.5659  3.0966 -0.5677
  372SOL  OW    1114   1.527   2.427   1.627  0.1096  0.4246 -0.0819
  372SOL  HW1   1115   1.532   2.361   1.709 -0.2545 -2.9761 -1.5904
  372SOL  HW2   1116   1.551   2.525   1.649 -2.9264  2.9587 -1.3514
  373SOL  OW    1117   3.003   2.260   1.312  0.2847 -0.3686  0.4255
  373SOL  HW1   1118   3.000   2.339   1.377  3.2789  0.9824 -1.2534
  373SOL  HW2   1119   2.966   2.283   1.218  1.8311 -1.4246  0.1361
  374SOL  OW    1120   1.873   1.942   1.410 -0.2512  0.0645  0.0615
  374SOL  HW1   1121   1.923   1.921   1.500 -1.5855 -0.6989  0.4574
  374SOL  HW2   1122   1.866   1.854   1.358 -0.0844  2.9218 -0.7321
  375SOL  OW    1123   3.068   0.252   0.014 -0.4800  0.5466  0.1440
  375SOL  HW1   1124   3.008   0.208   0.082 -0.2669 -0.0565 -0.9103
  375SOL  HW2   1125   0.068   0.206   0.012  0.0899  2.4468  1.6223
  376SOL  OW    1126   1.518   2.193   1.115 -0.4325 -0.1187 -0.0425
  376SOL  HW1   1127   1.493   2.117   1.176 -2.9587  1.7483 -0.4567
  376SOL  HW2   1128   1.438   2.263   1.116 -0.7738 -1.4786 -1.1515
  377SOL  OW    1129   2.981   2.871   2.733  0.1154  0.5591  0.1472
  377SOL  HW1   1130   3.063   2.846   2.678  2.1575  0.9328 -2.8102
  377SOL  HW2   1131   2.898   2.888   2.677 -1.4878 -0.2821 -1.2947
  378SOL  OW    1132   3.045   1.149   0.076  0.1401 -0.6750  0.4957
  378SOL  HW1   1133   3.020   1.245   0.102  1.2791 -2.2771 -2.1932
  378SOL  HW2   1134   3.061   1.135   3.075  0.1555 -0.2264  4.1337
  379SOL  OW    1135   2.701   0.524   2.321  0.1067  0.0363  0.3315
  379SOL  HW1   1136   2.702   0.598   2.394 -0.9171  0.7485 -0.3733
  379SOL  HW2   1137   2.791   0.501   2.276  1.0849 -1.5121  3.0062
  380SOL  OW    1138   0.723   1.850   1.449 -0.0826  0.5514 -0.4207
  380SOL  HW1   1139   0.818   1.833   1.419 -2.5067  2.9138 -1.5816
  380SOL  HW2   1140   0.726   1.913   1.527  1.0759  0.2546  0.1228
  381SOL  OW    1141   1.967   1.141   0.493 -0.0166  0.4540  0.7352
  381SOL  HW1   1142   2.020   1.133   0.404  1.8509 -1.7637 -0.9213
  381SOL  HW2   1143   1.897   1.219   0.487 -2.4259  0.7306 -0.0539
  382SOL  OW    1144   1.777   2.449   0.992 -0.6034  0.3435 -0.5618
  382SOL  HW1   1145   1.682   2.474   0.972 -2.4315 -1.8710 -1.0148
  382SOL  HW2   1146   1.782   2.397   1.077  1.6665  0.8304 -2.2863
  383SOL  OW    1147   1.010   0.971   0.384 -0.4561 -0.9141  0.0500
  383SOL  HW1   1148   0.955   1.055   0.366  0.0254  0.2878  1.7239
  383SOL  HW2   1149   1.098   0.978   0.335 -2.0697 -2.1114  0.0787
  384SOL  OW    1150   0.513   0.440   2.256  0.3056 -0.3409 -0.0140
  384SOL  HW1   1151   0.505   0.338   2.267  0.7482 -0.6987  2.2519
  384SOL  HW2   1152   0.442   0.478   2.188  0.2602  0.5744  0.4783
  385SOL  OW    1153   2.538   1.917   2.803 -0.4515 -0.5328 -0.5855
  385SOL  HW1   1154   2.477   1.850   2.751  1.8467  1.3453  0.2985
  385SOL  HW2   1155   2.636   1.885   2.792 -1.6435  0.1900  0.1441
  386SOL  OW    1156   1.570   0.816   1.133  0.1215  0.4365 -0.2422
  386SOL  HW1   1157   1.607   0.730   1.166  1.4751  0.1031  0.4813
  386SOL  HW2   1158   1.471   0.804   1.125  2.6642 -0.0002  1.5785
  387SOL  OW    1159   1.919   0.980   1.930 -0.3824  0.6776 -0.1897
  387SOL  HW1   1160   1.841   1.013   1.991  1.0064 -0.0112  0.8453
  387SOL  HW2   1161   1.953   0.890   1.962  0.5033 -1.4953 -0.3240
  388SOL  OW    1162   1.358   2.934   2.945  0.2952  0.8015  0.0711
  388SOL  HW1   1163   1.262   2.906   2.974 -1.3959 -2.2047 -0.5757
  388SOL  HW2   1164   1.415   2.922   3.025  0.1598 -2.0423  1.3573
  389SOL  OW    1165   1.975   1.374   1.768  0.3025  0.0636  0.3523
  389SOL  HW1   1166   2.015   1.364   1.675 -2.6268  1.5449  2.6445
  389SOL  HW2   1167   2.019   1.308   1.836 -0.3272 -0.0666  0.4980
  390SOL  OW    1168   2.200   2.359   1.045  0.5898 -0.4085 -0.1304
  390SOL  HW1   1169   2.231   2.348   1.145  0.2010 -0.7583  1.8833
  390SOL  HW2   1170   2.174   2.460   1.033  0.4821  0.6453  0.5213
  391SOL  OW    1171   2.212   1.652   1.337  0.2903  0.0103 -0.1187
  391SOL  HW1   1172   2.167   1.682   1.247  0.3893  2.8637  1.4474
  391SOL  HW2   1173   2.149   1.653   1.415 -2.3443  1.1345 -2.3943
  392SOL  OW    1174   2.929   0.253   1.206 -0.0288  0.1677 -0.0706
  392SOL  HW1   1175   2.961   0.180   1.265 -0.3725  0.0780  1.6165
  392SOL  HW2   1176   2.883   0.325   1.261 -0.6992  0.3827 -1.2679
  393SOL  OW    1177   1.277   2.162   2.310 -0.3998 -0.4805  0.5536
  393SOL  HW1   1178   1.191   2.191   2.263  1.3283  0.7266  0.7086
  393SOL  HW2   1179   1.249   2.097   2.385 -0.1694 -0.4628 -1.2425
  394SOL  OW    1180   0.112   2.367   2.107  0.6096  0.4713  0.1352
  394SOL  HW1   1181   0.134   2.405   2.018  1.6391  2.0237  4.6435
  394SOL  HW2   1182   0.191   2.305   2.133 -1.2943  1.7492  0.3368
  395SOL  OW    1183   0.887   2.907   1.332 -0.2651 -0.6123  0.2043
  395SOL  HW1   1184   0.814   2.881   1.397 -2.8965  1.4990 -1.2623
  395SOL  HW2   1185   0.954   2.966   1.387  3.0816 -0.4012 -1.2583
  396SOL  OW    1186   2.715   2.897   2.600 -0.4237  0.7166  0.1718
  396SOL  HW1   1187   2.655   2.839   2.540 -0.6521 -2.5105 -1.5876
  396SOL  HW2   1188   2.727   2.989   2.558 -1.1552 -0.8354  1.7090
  397SOL  OW    1189   0.194   1.444   2.611  0.1873  0.0259 -0.0018
  397SOL  HW1   1190   0.124   1.379   2.575  2.3271 -0.2002  1.4099
  397SOL  HW2   1191   0.193   1.530   2.554 -1.5703 -1.1522 -0.4282
  398SOL  OW    1192   0.510   2.535   2.870 -0.0308 -0.0221  0.0722
  398SOL  HW1   1193   0.537   2.439   2.883  0.7295  0.5458  1.7759
  398SOL  HW2   1194   0.557   2.592   2.939  0.7085  3.0120  1.3175
  399SOL  OW    1195   1.560   2.472   0.265  0.7586 -0.0056  0.0193
  399SOL  HW1   1196   1.646   2.432   0.231 -1.5803  0.4326  2.3144
  399SOL  HW2   1197   1.565   2.480   0.368  1.2563  1.4003  1.2177
  400SOL  OW    1198   1.166   2.626   0.050 -0.1615  0.6768  0.0045
  400SOL  HW1   1199   1.258   2.642   0.092 -1.1297 -3.1039  2.2995
  400SOL  HW2   1200   1.114   2.563   0.111 -2.2937 -2.5541 -0.0589
  401SOL  OW    1201   2.714   1.319   2.938  0.4805  0.2213 -0.2105
  401SOL  HW1   1202   2.675   1.334   3.030  0.4864 -2.8085  0.9376
  401SOL  HW2   1203   2.791   1.387   2.919 -0.8940 -2.9909  1.9921
  402SOL  OW    1204   2.754   0.833   2.899  0.4907 -0.0163  0.2091
  402SOL  HW1   1205   2.658   0.848   2.859 -0.0304  1.7413  0.2831
  402SOL  HW2   1206   2.818   0.889   2.845 -1.2659  1.2655 -1.8633
  403SOL  OW    1207   0.479   0.498   1.525  0.2474  0.1169  0.0809
  403SOL  HW1   1208   0.397   0.556   1.519  1.0097  0.1709 -1.2620
  403SOL  HW2   1209   0.556   0.563   1.510 -1.7235 -0.0890 -0.6771
  404SOL  OW    1210   1.027   2.796   2.433 -0.1542 -0.0684  0.2002
  404SOL  HW1   1211   0.932   2.763   2.447 -1.2413  1.6105 -2.2638
  404SOL  HW2   1212   1.062   2.838   2.518  0.4640 -1.4238 -0.9122
  405SOL  OW    1213   2.950   0.108   1.442 -0.0050  0.1116  0.5129
  405SOL  HW1   1214   2.857   0.133   1.488 -0.3029 -3.4474 -0.4738
  405SOL  HW2   1215   3.032   0.148   1.491 -0.4521  0.0311  1.0691
  406SOL  OW    1216   1.326   2.103   2.031 -0.8407 -0.1724 -0.6033
  406SOL  HW1   1217   1.331   2.137   2.127  2.2074  0.4040 -0.9034
  406SOL  HW2   1218   1.372   2.172   1.973  1.8784 -2.6357 -0.4417
  407SOL  OW    1219   1.590   0.481   1.722  0.5789  0.2906  0.2282
  407SOL  HW1   1220   1.658   0.553   1.723 -0.4899  1.1686  1.1634
  407SOL  HW2   1221   1.512   0.507   1.660  0.4478  0.2617  3.4469
  408SOL  OW    1222   2.180   2.972   1.184  0.1232 -0.6783  0.3866
  408SOL  HW1   1223   2.250   2.900   1.178  0.5518  0.0403 -2.8149
  408SOL  HW2   1224   2.155   3.004   1.090  0.6368  0.5978  0.6421
  409SOL  OW    1225   2.158   0.105   1.605 -0.1072  0.1183  0.3166
  409SOL  HW1   1226   2.152   0.035   1.679 -2.7808  1.4344 -0.7113
  409SOL  HW2   1227   2.190   0.071   1.511 -0.2853 -0.8488  0.1796
  410SOL  OW    1228   1.834   2.977   0.900  0.3953  0.4388  0.0046
  410SOL  HW1   1229   1.806   2.912   0.976 -0.7722  1.6251  1.7243
  410SOL  HW2   1230   1.931   3.007   0.906  1.2101  0.6195  0.6985
  411SOL  OW    1231   0.132   2.165   1.156 -0.5096  0.4883 -0.5504
  411SOL  HW1   1232   0.185   2.076   1.155  1.1328  0.4513 -0.2011
  411SOL  HW2   1233   0.061   2.167   1.230 -1.3720  0.9474  0.7365
  412SOL  OW    1234   1.778   3.018   1.952  0.1289 -0.6395  0.1467
  412SOL  HW1   1235   1.724   0.003   1.928 -0.5421  1.6358  0.0835
  412SOL  HW2   1236   1.831   3.043   2.035 -0.7032 -1.4104  0.6415
  413SOL  OW    1237   2.783   1.014   0.505  0.4252  0.1502  0.0068
  413SOL  HW1   1238   2.760   1.065   0.415  0.6139 -0.1211  2.0763
  413SOL  HW2   1239   2.810   0.916   0.482 -0.3457 -0.5279 -1.1742
  414SOL  OW    1240   2.998   1.406   0.148 -0.1724 -0.1865  0.5823
  414SOL  HW1   1241   2.923   1.477   0.138 -2.8755  1.2236 -0.3887
  414SOL  HW2   1242   3.089   1.448   0.148  1.5665  0.1455  0.0284
  415SOL  OW    1243   1.843   1.985   2.628 -0.0892  0.1566 -0.5259
  415SOL  HW1   1244   1.866   1.957   2.534  0.0177 -2.6161  0.9952
  415SOL  HW2   1245   1.869   2.083   2.647  1.5175  1.7824  0.5308
  416SOL  OW    1246   2.535   2.053   1.383 -0.5930  0.5248 -0.7058
  416SOL  HW1   1247   2.550   2.128   1.453  0.2471  0.4079  2.0706
  416SOL  HW2   1248   2.438   2.049   1.354  0.8447 -0.9695  0.4401
  417SOL  OW    1249   0.468   0.415   0.795  0.1628 -0.0989 -0.4076
  417SOL  HW1   1250   0.534   0.489   0.770 -0.3682 -0.9026 -0.9726
  417SOL  HW2   1251   0.444   0.425   0.895 -0.1491  1.5683 -0.7166
  418SOL  OW    1252   1.104   0.189   1.292  0.4165 -0.7437 -0.1736
  418SOL  HW1   1253   1.160   0.211   1.378  3.0881 -1.5522  1.4276
  418SOL  HW2   1254   1.006   0.208   1.307  1.1127 -2.1228 -1.8931
  419SOL  OW    1255   1.063   0.431   0.117  0.4926  0.1588 -0.7993
  419SOL  HW1   1256   0.982   0.370   0.112 -0.9645 -2.5105  0.6515
  419SOL  HW2   1257   1.072   0.480   0.206  0.7050  1.5758  2.6435
  420SOL  OW    1258   0.534   1.591   2.204  0.2270 -0.0268  0.1176
  420SOL  HW1   1259   0.468   1.657   2.165  1.4717 -0.0521  0.2117
  420SOL  HW2   1260   0.519   1.583   2.303 -2.7199 -0.7107 -0.8200
  421SOL  OW    1261   1.779   2.816   1.157  0.5539  0.0646 -0.2372
  421SOL  HW1   1262   1.678   2.840   1.146  0.2846 -0.9689 -0.4922
  421SOL  HW2   1263   1.799   2.720   1.186  3.1299  1.4329 -0.3713
  422SOL  OW    1264   0.191   0.231   2.281  0.0109 -0.1926 -0.1130
  422SOL  HW1   1265   0.252   0.146   2.278 -0.1701  0.3429 -1.1907
  422SOL  HW2   1266   0.146   0.258   2.194  2.2562 -1.1927 -0.5888
  423SOL  OW    1267   0.742   1.454   2.895 -0.1343 -0.3846  1.2289
  423SOL  HW1   1268   0.709   1.379   2.959  4.8975 -0.8904 -1.6371
  423SOL  HW2   1269   0.664   1.518   2.895  4.0332  0.2631  1.4972
  424SOL  OW    1270   2.198   2.542   2.631 -0.4088 -0.4727  0.3427
  424SOL  HW1   1271   2.260   2.466   2.603 -2.4092  4.2962  2.0068
  424SOL  HW2   1272   2.256   2.625   2.634  2.3522 -0.1216 -1.0027
  425SOL  OW    1273   0.413   0.669   1.864  0.2234  0.1032  0.4306
  425SOL  HW1   1274   0.381   0.736   1.789 -1.1332 -1.2766 -1.0896
  425SOL  HW2   1275   0.476   0.716   1.926 -0.2218 -2.2397  0.2318
  426SOL  OW    1276   2.189   0.329   1.959 -0.4746 -0.3624 -0.9037
  426SOL  HW1   1277   2.116   0.296   1.897 -1.1804  0.7671 -2.4613
  426SOL  HW2   1278   2.251   0.396   1.908  1.8552  0.3891 -0.2334
  427SOL  OW    1279   0.260   0.656   1.061 -0.5337  0.1002  0.2887
  427SOL  HW1   1280   0.316   0.571   1.072  2.1227  1.5168 -1.3249
  427SOL  HW2   1281   0.186   0.648   0.984  1.0206  0.2288 -4.1916
  428SOL  OW    1282   3.068   0.979   0.772 -0.1806  0.1004  0.3839
  428SOL  HW1   1283   3.002   0.904   0.803 -0.9671  0.7292  2.4499
  428SOL  HW2   1284   3.077   1.052   0.841 -0.8128 -0.0288  0.6871
  429SOL  OW    1285   0.230   2.558   0.851  0.3710  0.1956 -0.2052
  429SOL  HW1   1286   0.233   2.513   0.944 -1.6314 -1.9433  2.3536
  429SOL  HW2   1287   0.223   2.489   0.777  0.6966  0.1992  1.0706
  430SOL  OW    1288   0.746   2.858   0.146 -0.2291  0.1023  0.5832
  430SOL  HW1   1289   0.723   2.820   0.242  1.3280  0.2668  2.5008
  430SOL  HW2   1290   0.825   2.921   0.161 -1.6397 -0.9936 -1.5642
  431SOL  OW    1291   0.073   1.447   1.909  0.0297 -0.0663  0.2982
  431SOL  HW1   1292   0.067   1.359   1.857 -3.9590 -2.2317 -3.1590
  431SOL  HW2   1293   0.058   1.431   2.009 -1.0128  2.8737 -1.0575
  432SOL  OW    1294   1.432   1.701   2.116  0.0503 -0.3847 -0.5121
  432SOL  HW1   1295   1.430   1.599   2.095 -0.3628 -1.3274 -1.0398
  432SOL  HW2   1296   1.398   1.724   2.212  2.7218  0.5224 -0.1192
  433SOL  OW    1297   1.556   0.253   2.301 -0.0591 -0.6672 -0.0164
  433SOL  HW1   1298   1.583   0.352   2.283  1.0813 -3.4777  1.0886
  433SOL  HW2   1299   1.513   0.251   2.394 -0.4884 -0.2260 -0.0486
  434SOL  OW    1300   0.871   2.585   2.704 -0.2344 -0.3556 -1.1051
  434SOL  HW1   1301   0.946   2.531   2.662 -0.1917  0.5800 -0.3123
  434SOL  HW2   1302   0.826   2.641   2.631 -0.5531  1.3741  0.2667
  435SOL  OW    1303   2.501   2.995   1.871 -0.1347  0.0682  0.1265
  435SOL  HW1   1304   2.454   3.090   1.879 -1.3970 -1.3650 -1.1424
  435SOL  HW2   1305   2.427   2.936   1.835  0.5423  1.4718  1.6104
  436SOL  OW    1306   1.201   2.031   2.724 -0.1751 -0.0269 -0.0710
  436SOL  HW1   1307   1.184   1.935   2.760  1.9229  1.2432  1.3713
  436SOL  HW2   1308   1.133   2.098   2.759 -0.5352 -2.6209  2.6894
  437SOL  OW    1309   1.423   2.683   0.130  0.7871 -0.6189 -0.4354
  437SOL  HW1   1310   1.480   2.623   0.190 -1.5489 -0.8549  0.7335
  437SOL  HW2   1311   1.481   2.740   0.069  0.1792  1.0126  1.6421
  438SOL  OW    1312   1.514   1.055   0.678  0.3130 -0.8922 -0.2097
  438SOL  HW1   1313   1.583   1.023   0.607  1.4692 -2.0657 -1.7368
  438SOL  HW2   1314   1.428   1.083   0.635  0.1869  2.4177 -2.0325
  439SOL  OW    1315   2.848   2.077   2.985  0.3502 -0.3281 -0.5701
  439SOL  HW1   1316   2.913   2.020   3.045  1.1378 -0.7184  1.4563
  439SOL  HW2   1317   2.760   2.092   3.033 -1.3610  2.2186 -1.3452
  440SOL  OW    1318   2.899   0.842   2.606  0.5425  0.0541 -0.8360
  440SOL  HW1   1319   2.902   0.915   2.677  0.8182 -2.3195 -1.5299
  440SOL  HW2   1320   2.955   0.759   2.637  0.9481  0.9656  3.5758
  441SOL  OW    1321   1.100   1.686   2.192  0.0465  0.2727  0.4541
  441SOL  HW1   1322   1.045   1.768   2.223  0.6642 -2.3087 -1.2646
  441SOL  HW2   1323   1.164   1.655   2.267  0.0321  2.0101  0.5991
  442SOL  OW    1324   1.345   1.737   2.363  0.3545 -0.0642 -0.0519
  442SOL  HW1   1325   1.299   1.824   2.389 -0.3732  0.4166 -0.9755
  442SOL  HW2   1326   1.391   1.701   2.444  0.6412  0.9169 -1.8560
  443SOL  OW    1327   0.881   2.142   0.952  0.3890  0.8112 -0.2165
  443SOL  HW1   1328   0.930   2.118   0.864  0.5185  0.6014  2.1139
  443SOL  HW2   1329   0.872   2.067   1.015 -3.2896 -0.2498 -0.3123
  444SOL  OW    1330   1.738   1.609   2.067  0.1830 -0.1241 -0.6302
  444SOL  HW1   1331   1.742   1.549   1.988  0.1838 -0.3201  1.7380
  444SOL  HW2   1332   1.641   1.646   2.080 -0.8001  0.0282  0.4586
  445SOL  OW    1333   0.189   0.668   2.286  0.3320 -0.1200 -0.4839
  445SOL  HW1   1334   0.117   0.610   2.332  0.0670  1.2123  0.1910
  445SOL  HW2   1335   0.253   0.709   2.356 -2.3209  2.7872  0.4351
  446SOL  OW    1336   1.335   0.401   0.040 -0.5133 -0.0658  0.1242
  446SOL  HW1   1337   1.353   0.304   0.006 -1.0823  0.3886 -2.0359
  446SOL  HW2   1338   1.235   0.403   0.058 -0.2588  1.7929 -0.2804
  447SOL  OW    1339   1.421   0.059   1.486 -0.2295 -0.1024  0.1842
  447SOL  HW1   1340   1.443   0.035   1.396 -1.4031  0.1072 -0.6522
  447SOL  HW2   1341   1.418   3.074   1.546  0.4002  2.4935 -1.0270
  448SOL  OW    1342   3.050   1.023   2.451  0.8336  0.0575  0.7105
  448SOL  HW1   1343   3.012   0.947   2.506  2.0426  2.2006 -0.6587
  448SOL  HW2   1344   0.056   1.032   2.473  0.2162  1.5503  2.8134
  449SOL  OW    1345   2.862   2.026   2.722 -0.2314 -0.4009  0.1981
  449SOL  HW1   1346   2.899   2.104   2.671  2.2338  0.2510 -0.3348
  449SOL  HW2   1347   2.865   2.046   2.819 -3.6355  0.9621  0.5993
  450SOL  OW    1348   1.448   2.270   1.412  0.9348 -0.6570  0.4674
  450SOL  HW1   1349   1.468   2.335   1.488 -3.1762 -0.7429  1.2288
  450SOL  HW2   1350   1.498   2.179   1.416 -1.9924  1.8239 -0.0534
  451SOL  OW    1351   1.467   1.981   0.926  0.8687  0.5505 -0.1895
  451SOL  HW1   1352   1.497   2.064   0.971 -0.8531  2.4695 -0.5007
  451SOL  HW2   1353   1.448   1.906   0.992 -1.8879 -1.5443  0.5173
  452SOL  OW    1354   0.769   0.402   1.142  0.2824  0.0945  0.3380
  452SOL  HW1   1355   0.811   0.382   1.049 -0.7646  1.0138  1.2468
  452SOL  HW2   1356   0.805   0.339   1.217 -1.4992 -1.1998 -0.5432
  453SOL  OW    1357   0.562   1.494   1.712  0.5438  0.0207 -0.1883
  453SOL  HW1   1358   0.470   1.543   1.697 -2.4139 -3.6825 -0.6438
  453SOL  HW2   1359   0.570   1.463   1.810  1.0983 -0.7869 -0.6038
  454SOL  OW    1360   2.081   0.911   2.886 -0.1069  0.0705 -0.4497
  454SOL  HW1   1361   2.010   0.861   2.941  0.6571 -0.4938  2.3544
  454SOL  HW2   1362   2.178   0.887   2.913 -1.0102  0.0431  0.7467
  455SOL  OW    1363   1.234   2.832   1.442 -0.1227 -0.2277 -0.6773
  455SOL  HW1   1364   1.267   2.865   1.532  1.0348 -1.4858 -0.7383
  455SOL  HW2   1365   1.228   2.902   1.369 -1.4712  0.1084  0.5702
  456SOL  OW    1366   0.890   2.959   0.464 -0.0766  0.3637  0.3579
  456SOL  HW1   1367   0.925   2.976   0.369  0.9865 -0.5417  2.5128
  456SOL  HW2   1368   0.967   2.960   0.532 -1.8461 -1.1164  0.3558
  457SOL  OW    1369   1.682   0.482   1.016 -0.1174 -0.2505 -0.2172
  457SOL  HW1   1370   1.755   0.416   0.991 -0.6650  0.4784 -1.8877
  457SOL  HW2   1371   1.703   0.524   1.106  0.0586 -1.7483  1.9067
  458SOL  OW    1372   2.431   0.775   1.510 -0.9258  0.0958 -0.4064
  458SOL  HW1   1373   2.380   0.850   1.462  0.5856  0.1306  2.8414
  458SOL  HW2   1374   2.387   0.686   1.492 -1.4992  0.2724  2.9246
  459SOL  OW    1375   2.807   2.898   2.266  0.3842 -0.2291 -0.1910
  459SOL  HW1   1376   2.730   2.951   2.226 -1.4551  0.9769  0.4413
  459SOL  HW2   1377   2.879   2.967   2.287 -0.0071 -1.9862  0.4886
  460SOL  OW    1378   1.887   1.057   2.564  0.4638 -0.2548  0.2215
  460SOL  HW1   1379   1.880   1.151   2.526  1.9586  0.3270 -0.5434
  460SOL  HW2   1380   1.983   1.027   2.581 -1.3809 -0.4600  0.2740
  461SOL  OW    1381   0.797   2.377   2.848  0.1831  0.1695 -0.0144
  461SOL  HW1   1382   0.703   2.365   2.876  0.8405 -3.3492 -0.5744
  461SOL  HW2   1383   0.813   2.454   2.779  0.0497  0.0571 -0.1953
  462SOL  OW    1384   2.316   0.528   2.232  0.2011  0.1565  0.4523
  462SOL  HW1   1385   2.284   0.436   2.209 -0.8937  1.1037  0.9358
  462SOL  HW2   1386   2.410   0.543   2.188  1.6058 -0.4179 -0.4050
  463SOL  OW    1387   1.518   2.277   1.883 -0.3849 -0.5772 -0.0585
  463SOL  HW1   1388   1.467   2.345   1.935 -1.5791  2.8080 -0.2668
  463SOL  HW2   1389   1.605   2.256   1.936  1.6511  2.7929 -1.2389
  464SOL  OW    1390   3.037   2.542   1.464 -0.1568  0.2960 -0.0597
  464SOL  HW1   1391   2.960   2.596   1.446 -1.6658  2.0419  0.3563
  464SOL  HW2   1392   0.010   2.557   1.388  0.1985 -0.0774  0.7150
  465SOL  OW    1393   2.001   0.247   1.775  0.5009  0.3401 -0.3080
  465SOL  HW1   1394   1.903   0.248   1.742  0.6082  0.1787 -0.2616
  465SOL  HW2   1395   2.055   0.204   1.699  0.2805  0.9274 -2.7203
  466SOL  OW    1396   1.191   2.904   2.670 -0.5755  0.3865 -0.3374
  466SOL  HW1   1397   1.222   2.994   2.710 -0.7736  0.4719  2.1658
  466SOL  HW2   1398   1.112   2.863   2.715  1.8735  0.3666 -2.1570
  467SOL  OW    1399   0.303   2.711   0.517 -0.1835  0.4815  0.3841
  467SOL  HW1   1400   0.354   2.710   0.606 -0.1953 -0.0972  0.2447
  467SOL  HW2   1401   0.363   2.728   0.435  1.3130  1.7038 -0.0724
  468SOL  OW    1402   2.683   2.056   1.159  0.0057 -0.1839 -0.0756
  468SOL  HW1   1403   2.623   2.077   1.241 -0.9128 -0.5294 -0.5580
  468SOL  HW2   1404   2.749   2.136   1.138 -1.9120 -1.0292 -1.4643
  469SOL  OW    1405   0.576   1.729   0.355 -0.2056 -0.1527 -0.1268
  469SOL  HW1   1406   0.546   1.667   0.426  0.8865  1.4766 -0.3585
  469SOL  HW2   1407   0.536   1.822   0.365 -3.1706 -0.6293  0.7033
  470SOL  OW    1408   2.143   2.982   0.905 -0.2456 -0.0050  0.2123
  470SOL  HW1   1409   2.184   3.064   0.863  0.2673 -4.2112  0.1881
  470SOL  HW2   1410   2.178   2.894   0.865 -0.0492  2.4373 -0.3346
  471SOL  OW    1411   2.641   2.480   1.354  0.3863 -0.1326  0.4039
  471SOL  HW1   1412   2.666   2.449   1.259 -0.0131 -1.5621 -0.2534
  471SOL  HW2   1413   2.615   2.399   1.412  1.9879 -1.3426 -0.8181
  472SOL  OW    1414   0.409   1.599   0.540 -0.5975  0.0979  0.2487
  472SOL  HW1   1415   0.318   1.645   0.527  1.5607  1.2240  0.7220
  472SOL  HW2   1416   0.398   1.506   0.577  1.6892 -0.2975  2.7202
  473SOL  OW    1417   0.580   2.106   1.273 -0.2957 -0.1204  0.5211
  473SOL  HW1   1418   0.491   2.085   1.316 -1.9482 -0.8301 -0.2724
  473SOL  HW2   1419   0.614   2.028   1.222  1.7727  1.7255 -1.6482
  474SOL  OW    1420   0.242   2.403   1.107 -0.0986  0.1948 -0.3220
  474SOL  HW1   1421   0.206   2.484   1.151  0.4340 -2.0860 -0.0171
  474SOL  HW2   1422   0.189   2.319   1.130  1.5697 -0.6111 -1.3276
  475SOL  OW    1423   0.660   0.243   0.703  0.8512 -0.9627  1.0042
  475SOL  HW1   1424   0.573   0.300   0.726 -0.1201  0.2761 -1.3847
  475SOL  HW2   1425   0.628   0.149   0.687 -1.3523 -2.2974  0.7721
  476SOL  OW    1426   0.627   0.736   0.242 -0.0769 -0.3541 -0.2625
  476SOL  HW1   1427   0.599   0.827   0.199 -1.0506 -1.2925  0.0751
  476SOL  HW2   1428   0.720   0.742   0.286 -0.8719 -1.1933 -0.0977
  477SOL  OW    1429   0.718   0.001   1.233 -0.1492 -0.3926 -0.3772
  477SOL  HW1   1430   0.764   3.023   1.285  3.0499  0.9474 -2.1875
  477SOL  HW2   1431   0.618   3.073   1.220 -0.6342  2.6014 -0.9802
  478SOL  OW    1432   1.020   2.222   2.819  0.0843  0.5028  0.1841
  478SOL  HW1   1433   0.927   2.257   2.840 -0.6909 -1.9074 -0.6640
  478SOL  HW2   1434   1.088   2.279   2.870  1.5807  1.3745 -1.0116
  479SOL  OW    1435   1.977   0.739   1.117 -0.9397  0.5318 -0.4954
  479SOL  HW1   1436   2.047   0.690   1.061  0.9070 -1.5311 -0.3521
  479SOL  HW2   1437   1.905   0.783   1.060 -1.2919  1.8941  1.3212
  480SOL  OW    1438   1.951   2.473   0.169 -0.6864 -0.5602  0.5216
  480SOL  HW1   1439   2.032   2.535   0.190  1.7280  0.2812  2.7532
  480SOL  HW2   1440   1.882   2.525   0.118  1.0807  2.8839 -1.5188
  481SOL  OW    1441   0.517   1.701   0.802  0.5379 -0.1714  0.3739
  481SOL  HW1   1442   0.484   1.788   0.840 -3.2983 -0.2454 -0.1361
  481SOL  HW2   1443   0.480   1.680   0.706 -0.7147  1.9362 -1.2763
  482SOL  OW    1444   1.017   2.047   1.512 -0.5459  0.2761 -0.3103
  482SOL  HW1   1445   1.082   2.019   1.582  3.2978  1.7865  1.8290
  482SOL  HW2   1446   1.005   1.972   1.439  1.7795 -1.0660 -2.6961
  483SOL  OW    1447   0.634   1.312   1.524 -0.1463  0.2293  0.2770
  483SOL  HW1   1448   0.711   1.249   1.560 -5.3348  0.9644  2.2669
  483SOL  HW2   1449   0.611   1.381   1.595 -0.0194 -2.0600 -2.5029
  484SOL  OW    1450   2.797   2.987   0.785  0.0577 -0.2049  0.5745
  484SOL  HW1   1451   2.835   3.039   0.864 -1.4425 -1.0051 -1.2723
  484SOL  HW2   1452   2.693   2.976   0.789  0.8287  1.0893 -1.0145
  485SOL  OW    1453   2.693   0.288   0.965 -0.7696 -0.1204 -0.2634
  485SOL  HW1   1454   2.781   0.229   0.963  1.8567 -0.1692 -1.0051
  485SOL  HW2   1455   2.617   0.231   0.929 -2.1097 -1.9792 -0.6274
  486SOL  OW    1456   2.109   2.459   2.872  0.7329  0.2385  0.1946
  486SOL  HW1   1457   2.119   2.485   2.772  1.2468  1.1280 -1.1530
  486SOL  HW2   1458   2.159   2.527   2.926  0.4603 -0.7918 -0.2868
  487SOL  OW    1459   1.468   1.751   1.074 -0.5763 -0.3158  0.4854
  487SOL  HW1   1460   1.475   1.675   1.006 -2.9222 -0.3851  2.5581
  487SOL  HW2   1461   1.489   1.709   1.167 -0.0283  3.0852 -1.1452
  488SOL  OW    1462   2.511   2.753   2.472 -0.7008  0.3079 -0.3606
  488SOL  HW1   1463   2.427   2.762   2.534 -0.7831 -5.4233  0.4323
  488SOL  HW2   1464   2.485   2.759   2.374  0.0413 -1.8222  1.2485
  489SOL  OW    1465   1.501   1.459   0.186 -0.6347 -0.4528  0.6048
  489SOL  HW1   1466   1.461   1.376   0.145  0.7181  0.3115  0.1838
  489SOL  HW2   1467   1.601   1.448   0.196 -1.8355 -0.8080  1.7519
  490SOL  OW    1468   1.360   2.951   2.466 -0.4722 -0.3863 -0.2155
  490SOL  HW1   1469   1.283   2.928   2.530  1.1347 -0.2213  1.9576
  490SOL  HW2   1470   1.328   3.000   2.384  0.8887  1.9285  0.3171
  491SOL  OW    1471   1.461   0.748   1.427  0.0289  0.0283  0.2496
  491SOL  HW1   1472   1.431   0.781   1.518 -2.3333  1.3532 -1.2567
  491SOL  HW2   1473   1.407   0.797   1.354  0.9127  0.5898 -3.5010
  492SOL  OW    1474   1.697   2.452   2.910 -0.1720  0.2813 -0.0252
  492SOL  HW1   1475   1.668   2.483   2.818 -1.2659  0.3708  0.6770
  492SOL  HW2   1476   1.781   2.395   2.905  0.1741  1.0061  0.8058
  493SOL  OW    1477   1.484   2.449   0.592 -0.1028  0.2626  0.2217
  493SOL  HW1   1478   1.489   2.440   0.693  0.5884  0.7480 -0.6092
  493SOL  HW2   1479   1.527   2.367   0.548 -1.5888  1.2062  1.6694
  494SOL  OW    1480   1.332   1.022   2.837  0.1181  0.4500  0.4458
  494SOL  HW1   1481   1.300   1.113   2.880  1.1078  0.6565 -1.6582
  494SOL  HW2   1482   1.267   0.946   2.850  1.2021 -0.0338 -4.5822
  495SOL  OW    1483   2.103   1.169   1.888 -0.4447  0.8122 -0.1843
  495SOL  HW1   1484   2.198   1.145   1.858 -0.4876  1.7915 -0.4934
  495SOL  HW2   1485   2.042   1.091   1.894 -0.0916  1.0256  0.9601
  496SOL  OW    1486   2.239   2.311   1.989  0.8577  0.5927 -0.5108
  496SOL  HW1   1487   2.241   2.223   2.040  2.4570  3.0195 -0.8938
  496SOL  HW2   1488   2.175   2.375   2.038  1.8668 -1.6816 -0.2634
  497SOL  OW    1489   2.395   1.392   2.600 -0.1128 -0.1471  0.2536
  497SOL  HW1   1490   2.359   1.485   2.601  0.1937 -0.0914  1.3329
  497SOL  HW2   1491   2.326   1.334   2.552 -1.5004 -1.3187 -1.3629
  498SOL  OW    1492   1.142   1.669   1.193 -0.1205 -0.4288 -0.5499
  498SOL  HW1   1493   1.203   1.622   1.255  0.3653  0.5021 -0.0751
  498SOL  HW2   1494   1.151   1.632   1.100 -1.8789  1.1937 -0.6302
  499SOL  OW    1495   2.827   2.086   2.297  0.1693 -0.3831 -0.5249
  499SOL  HW1   1496   2.867   2.122   2.205  1.8955  0.2354  0.4398
  499SOL  HW2   1497   2.731   2.060   2.290 -1.1039 -1.6322 -1.1524
  500SOL  OW    1498   1.175   2.410   2.938 -0.2220  0.4299  0.2334
  500SOL  HW1   1499   1.243   2.383   2.870  2.5858 -1.2569 -1.0726
  500SOL  HW2   1500   1.195   2.498   2.988 -0.6311  0.4468  0.0496
  501SOL  OW    1501   1.931   2.294   2.961 -0.2844  0.4194  0.5995
  501SOL  HW1   1502   1.997   2.369   2.935 -0.4493 -0.1114 -1.2081
  501SOL  HW2   1503   1.988   2.214   2.996 -4.3253  1.1979 -0.2560
  502SOL  OW    1504   0.993   0.284   1.949  0.4960 -0.3337 -0.2172
  502SOL  HW1   1505   1.075   0.247   1.896  0.6282 -0.7206 -0.5167
  502SOL  HW2   1506   0.925   0.213   1.971  1.0668  0.9109  0.0729
  503SOL  OW    1507   0.434   0.244   1.607  0.1126 -0.4929 -0.1655
  503SOL  HW1   1508   0.437   0.183   1.524  0.0976 -1.5436  1.2571
  503SOL  HW2   1509   0.442   0.344   1.580  0.0037 -1.0502 -1.4375
  504SOL  OW    1510   1.878   1.136   1.302  0.6529 -0.1526  0.1090
  504SOL  HW1   1511   1.954   1.080   1.265  0.9400  2.2328  0.6019
  504SOL  HW2   1512   1.792   1.083   1.325 -0.2058 -1.5889 -0.0082
  505SOL  OW    1513   2.554   2.056   2.319 -0.4066 -0.1286  0.1534
  505SOL  HW1   1514   2.512   1.987   2.381 -1.0740 -0.5027  0.9235
  505SOL  HW2   1515   2.535   2.027   2.225 -1.0314 -0.7545 -1.9945
  506SOL  OW    1516   2.861   1.541   1.452 -0.2011  0.2145  0.2622
  506SOL  HW1   1517   2.928   1.490   1.508  0.9147  0.0720 -0.3728
  506SOL  HW2   1518   2.775   1.560   1.511  0.7906  0.7258  0.9376
  507SOL  OW    1519   0.956   2.366   2.040 -0.1648 -0.2906  0.0547
  507SOL  HW1   1520   0.963   2.313   1.954 -0.7532  4.3371 -0.5823
  507SOL  HW2   1521   0.864   2.416   2.042  1.5225 -0.3670  1.5539
  508SOL  OW    1522   1.705   0.867   2.662 -0.5613  0.3889 -0.4589
  508SOL  HW1   1523   1.751   0.782   2.691 -0.2425  1.6207  1.2518
  508SOL  HW2   1524   1.768   0.947   2.654 -1.7635 -2.1337 -0.4055
  509SOL  OW    1525   0.615   2.031   3.033  0.3572 -0.0179 -0.3800
  509SOL  HW1   1526   0.671   1.944   3.025 -0.4846  0.6071  0.3275
  509SOL  HW2   1527   0.514   2.001   3.027 -1.1920  0.0123 -0.2137
  510SOL  OW    1528   1.080   3.012   0.664 -0.0468 -0.2947 -0.6540
  510SOL  HW1   1529   1.088   3.018   0.768 -2.5076 -1.1361 -0.2371
  510SOL  HW2   1530   1.134   3.091   0.623  1.1424 -1.4071 -1.8705
  511SOL  OW    1531   1.370   2.947   1.651 -0.4018 -0.3559 -0.4246
  511SOL  HW1   1532   1.468   2.915   1.646  1.0512  0.1279  2.1229
  511SOL  HW2   1533   1.323   2.918   1.740  1.5309 -1.5756 -0.0741
  512SOL  OW    1534   2.563   2.280   1.539 -0.3329  0.4405 -0.0543
  512SOL  HW1   1535   2.487   2.311   1.602  1.5012  4.4291  0.3353
  512SOL  HW2   1536   2.652   2.278   1.595 -0.4813 -0.4007  0.7770
  513SOL  OW    1537   0.406   2.139   0.783 -0.4343 -0.2576  0.2618
  513SOL  HW1   1538   0.335   2.209   0.761 -0.5135  1.1937 -0.3605
  513SOL  HW2   1539   0.496   2.170   0.754 -1.5532 -0.8249  2.7212
  514SOL  OW    1540   0.139   3.054   0.397  0.1666 -0.1584  0.0771
  514SOL  HW1   1541   0.197   3.047   0.482  0.5217  3.4380  0.2833
  514SOL  HW2   1542   0.143   0.045   0.348  0.1584 -1.1477  0.1964
  515SOL  OW    1543   0.682   2.611   0.010  0.2921 -0.3975 -0.1389
  515SOL  HW1   1544   0.710   2.702   0.043 -2.4291 -0.2272 -2.8803
  515SOL  HW2   1545   0.672   2.542   0.087 -1.0734 -2.6317  1.0389
  516SOL  OW    1546   0.436   2.692   0.744 -0.2647  0.0149 -0.4308
  516SOL  HW1   1547   0.356   2.652   0.799 -1.3593  0.5968 -0.1839
  516SOL  HW2   1548   0.513   2.632   0.758  0.0933 -3.2459 -1.4994
  517SOL  OW    1549   1.523   2.130   0.249 -0.3806 -0.1211 -0.7044
  517SOL  HW1   1550   1.545   2.078   0.168  0.6378  1.8361  1.1163
  517SOL  HW2   1551   1.455   2.201   0.224 -0.6795 -2.5263 -0.2607
  518SOL  OW    1552   1.703   1.489   2.953 -0.3724 -0.0450 -0.3032
  518SOL  HW1   1553   1.800   1.501   2.984 -0.9034  1.0247 -0.3909
  518SOL  HW2   1554   1.658   1.579   2.934  0.4330  0.4301  2.7365
  519SOL  OW    1555   0.164   1.709   0.504  0.4819 -0.1629 -0.0316
  519SOL  HW1   1556   0.191   1.795   0.555  2.1400 -1.1544 -0.3447
  519SOL  HW2   1557   0.137   1.731   0.407 -3.2575  1.3401 -1.0287
  520SOL  OW    1558   1.400   1.811   1.541 -0.6267 -0.5158 -0.0380
  520SOL  HW1   1559   1.330   1.779   1.613 -0.7141  4.3061 -0.3877
  520SOL  HW2   1560   1.427   1.908   1.553 -1.8240 -0.1864  1.2468
  521SOL  OW    1561   1.173   3.092   1.983 -0.2311  0.5211  0.0934
  521SOL  HW1   1562   1.213   3.009   1.940 -1.6578  0.3361 -0.1515
  521SOL  HW2   1563   1.069   3.089   1.978 -0.6240 -0.9891 -0.5821
  522SOL  OW    1564   2.803   1.989   1.699 -0.0854  0.7813 -0.0308
  522SOL  HW1   1565   2.806   2.087   1.666  1.0965 -2.4589 -0.4524
  522SOL  HW2   1566   2.824   1.919   1.618  2.8028  0.0395 -2.2431
  523SOL  OW    1567   2.289   0.077   1.954  1.1617 -0.2016 -0.2178
  523SOL  HW1   1568   2.213   0.020   1.915 -0.7195 -0.0336  1.6921
  523SOL  HW2   1569   2.273   0.180   1.952  0.5604 -0.4923 -1.6333
  524SOL  OW    1570   1.635   0.109   2.734  1.1659  0.0169  0.0742
  524SOL  HW1   1571   1.571   0.027   2.737 -2.8499 -0.3467 -2.9880
  524SOL  HW2   1572   1.638   0.161   2.821  0.5789  0.6138 -1.0948
  525SOL  OW    1573   2.092   1.109   0.244 -0.5233  0.0015  0.1291
  525SOL  HW1   1574   2.158   1.180   0.214  1.0971 -1.1087  0.0007
  525SOL  HW2   1575   2.130   1.015   0.219  1.2701 -1.1022 -0.0967
  526SOL  OW    1576   0.366   2.823   2.995  0.7394  0.4434 -0.0802
  526SOL  HW1   1577   0.459   2.857   2.985  1.8316  0.8213  2.2601
  526SOL  HW2   1578   0.359   2.751   3.069 -2.6487  0.7601  2.5137
  527SOL  OW    1579   0.519   1.056   0.645  0.1275  0.5272 -0.0070
  527SOL  HW1   1580   0.487   0.971   0.693 -1.4533  1.5356 -1.1147
  527SOL  HW2   1581   0.448   1.093   0.580 -2.2044 -0.9220  1.3813
  528SOL  OW    1582   1.022   1.205   2.941 -0.2357 -0.6290 -0.0928
  528SOL  HW1   1583   0.992   1.187   2.844 -0.4030 -2.2841  2.0035
  528SOL  HW2   1584   1.117   1.242   2.940  2.2811 -0.4114  2.1020
  529SOL  OW    1585   1.817   1.139   0.096 -0.0502 -0.0309  1.2659
  529SOL  HW1   1586   1.873   1.116   0.011 -0.9289 -0.4177 -0.3523
  529SOL  HW2   1587   1.881   1.177   0.167 -0.2457 -1.3332  0.4894
  530SOL  OW    1588   1.618   0.508   2.219 -0.2935 -0.1381 -0.4165
  530SOL  HW1   1589   1.537   0.508   2.158  0.9372  3.8793  1.0673
  530SOL  HW2   1590   1.626   0.586   2.281  1.6115  0.1226 -0.6611
  531SOL  OW    1591   1.160   0.821   2.825 -0.3632 -0.3152 -0.3563
  531SOL  HW1   1592   1.154   0.731   2.877 -0.8912  1.1385  0.1833
  531SOL  HW2   1593   1.069   0.863   2.804  1.8505 -3.9061 -1.3812
  532SOL  OW    1594   2.708   1.105   0.266  0.6755  0.2436  0.0463
  532SOL  HW1   1595   2.725   1.203   0.244  0.3854 -1.1914 -0.4502
  532SOL  HW2   1596   2.628   1.067   0.213  1.6711 -1.5844 -4.8068
  533SOL  OW    1597   0.682   0.689   1.495  0.1353 -0.2219 -0.1693
  533SOL  HW1   1598   0.672   0.776   1.547  4.0023 -1.1509 -0.2702
  533SOL  HW2   1599   0.725   0.717   1.409 -0.7554 -0.8254 -0.3538
  534SOL  OW    1600   2.154   2.914   0.235 -0.4095  0.3699 -0.0444
  534SOL  HW1   1601   2.052   2.916   0.233 -0.7437 -1.3633 -0.9907
  534SOL  HW2   1602   2.181   2.928   0.335 -0.3374 -2.1553 -1.3601
  535SOL  OW    1603   1.241   0.844   2.570 -0.7185  0.5079 -0.0407
  535SOL  HW1   1604   1.321   0.905   2.562 -1.8553  1.6465 -1.1464
  535SOL  HW2   1605   1.228   0.822   2.671 -0.7083 -1.7742 -0.9313
  536SOL  OW    1606   0.504   2.300   1.122 -0.7264 -0.2527 -0.0200
  536SOL  HW1   1607   0.405   2.326   1.136  2.0487 -1.5982  1.5837
  536SOL  HW2   1608   0.542   2.237   1.191  2.1785  0.4910 -2.3379
  537SOL  OW    1609   2.699   0.397   1.763  0.5441 -0.1236 -0.2442
  537SOL  HW1   1610   2.659   0.353   1.850 -0.4808 -1.0364  3.2759
  537SOL  HW2   1611   2.655   0.484   1.730 -0.0117 -0.4525 -2.3546
  538SOL  OW    1612   0.837   1.652   0.343 -0.3581  0.4635 -0.2648
  538SOL  HW1   1613   0.854   1.617   0.435  0.5650 -0.2294 -1.5446
  538SOL  HW2   1614   0.750   1.705   0.337  0.2566 -1.4231  0.7724
  539SOL  OW    1615   2.315   0.490   1.754  0.6055  0.3187 -0.1378
  539SOL  HW1   1616   2.406   0.524   1.775 -0.7289  2.2250 -1.5373
  539SOL  HW2   1617   2.319   0.434   1.668 -1.0377 -1.3218 -1.0689
  540SOL  OW    1618   2.235   0.271   2.214 -0.2456 -0.0767  0.6518
  540SOL  HW1   1619   2.142   0.251   2.255 -1.2397 -4.1768  2.8304
  540SOL  HW2   1620   2.230   0.281   2.114 -1.3072 -3.0258  1.7837
  541SOL  OW    1621   0.548   1.629   2.919 -0.0215 -0.2625 -0.3739
  541SOL  HW1   1622   0.578   1.697   2.848 -0.9326 -0.7101 -0.0710
  541SOL  HW2   1623   0.545   1.678   3.007 -0.4485  0.4244 -0.9968
  542SOL  OW    1624   0.953   1.889   2.254  0.3789 -0.4073 -0.1537
  542SOL  HW1   1625   0.996   1.978   2.231  0.9415 -0.2681  1.1179
  542SOL  HW2   1626   0.948   1.879   2.355 -0.0249 -2.1677  0.3198
  543SOL  OW    1627   1.629   0.121   0.138 -0.1646  0.3290  0.2735
  543SOL  HW1   1628   1.732   0.128   0.146 -0.7985  0.7577  0.3679
  543SOL  HW2   1629   1.592   0.027   0.167 -1.4821  2.2796  1.2297
  544SOL  OW    1630   2.557   2.500   2.120  0.6773  0.2006  0.2848
  544SOL  HW1   1631   2.543   2.598   2.149  0.9787  0.9245  0.8325
  544SOL  HW2   1632   2.659   2.482   2.111  1.6252  3.6834 -0.6540
  545SOL  OW    1633   2.534   1.536   1.843  0.1558 -0.1625  0.0544
  545SOL  HW1   1634   2.611   1.473   1.846  1.1285 -0.0483  1.1596
  545SOL  HW2   1635   2.444   1.493   1.869 -0.4210 -0.2804  0.4712
  546SOL  OW    1636   3.017   0.609   2.664  0.2847  0.1499  0.8278
  546SOL  HW1   1637   0.009   0.615   2.713 -0.6484  0.7647 -2.4936
  546SOL  HW2   1638   3.026   0.588   2.564 -0.9151 -0.6904 -2.5366
  547SOL  OW    1639   0.699   0.871   1.060 -0.4555  0.1457  0.1310
  547SOL  HW1   1640   0.733   0.864   0.964 -0.1032  1.6897 -0.2230
  547SOL  HW2   1641   0.598   0.869   1.061  0.8067  0.3834  0.2236
  548SOL  OW    1642   1.784   1.722   0.365  0.4757 -0.3068 -0.3962
  548SOL  HW1   1643   1.722   1.789   0.413 -0.2914  2.2493 -0.4272
  548SOL  HW2   1644   1.862   1.773   0.317  0.8989  1.1912 -3.0161
  549SOL  OW    1645   2.386   1.549   2.256  0.1303  0.3192 -0.3595
  549SOL  HW1   1646   2.327   1.629   2.265  2.5401  2.0767  0.0123
  549SOL  HW2   1647   2.483   1.577   2.260 -0.6629 -3.9008  0.4358
  550SOL  OW    1648   2.066   2.269   0.821 -0.5068 -0.4510  0.0397
  550SOL  HW1   1649   2.133   2.307   0.891  2.1068 -0.5358 -2.2733
  550SOL  HW2   1650   2.016   2.344   0.771 -0.8638 -0.6848 -1.7395
  551SOL  OW    1651   0.903   2.663   0.888 -0.3384 -0.0184 -0.1545
  551SOL  HW1   1652   0.857   2.750   0.867 -1.0482 -2.1472  3.3018
  551SOL  HW2   1653   0.937   2.660   0.983  1.8591  0.9446  1.3951
  552SOL  OW    1654   0.273   1.220   0.275 -0.0892  0.4988 -0.2540
  552SOL  HW1   1655   0.264   1.176   0.369  2.1928 -0.8664  4.4667
  552SOL  HW2   1656   0.256   1.157   0.199 -1.0725 -1.1770 -2.0868
  553SOL  OW    1657   0.444   2.387   2.626  0.1017  0.0112  0.4624
  553SOL  HW1   1658   0.414   2.400   2.531  0.3611 -0.4372  2.2352
  553SOL  HW2   1659   0.461   2.472   2.674 -2.1145  0.2211 -3.0562
  554SOL  OW    1660   1.991   1.452   1.084 -0.5139 -0.2865  0.7257
  554SOL  HW1   1661   2.027   1.354   1.083 -1.3196 -3.3306 -4.7354
  554SOL  HW2   1662   1.911   1.452   1.143 -0.4719 -1.2776 -0.2497
  555SOL  OW    1663   1.532   0.008   2.190 -0.1071 -0.6665 -0.4494
  555SOL  HW1   1664   1.549   0.096   2.242 -1.9795 -0.4224 -1.1694
  555SOL  HW2   1665   1.437   3.078   2.200 -0.4205 -1.5889 -2.4962
  556SOL  OW    1666   0.230   0.231   0.982 -0.1872 -0.1919 -0.6354
  556SOL  HW1   1667   0.242   0.134   0.962 -2.7016 -0.0965 -0.4018
  556SOL  HW2   1668   0.186   0.278   0.899 -1.5695 -1.1607 -2.6173
  557SOL  OW    1669   1.515   0.038   1.226 -0.1617 -0.1365 -0.5626
  557SOL  HW1   1670   1.521   3.035   1.204  3.3107 -0.2733  1.1526
  557SOL  HW2   1671   1.529   0.090   1.141 -1.6120  3.2534  1.5761
  558SOL  OW    1672   0.753   0.456   1.687  0.3042 -0.2291  0.3691
  558SOL  HW1   1673   0.713   0.525   1.627 -2.8068  0.7782 -4.4630
  558SOL  HW2   1674   0.836   0.493   1.736  2.5613 -0.7578  0.5635
  559SOL  OW    1675   1.295   0.836   0.095 -0.2780 -0.1608 -0.3046
  559SOL  HW1   1676   1.353   0.780   0.031  0.1536 -1.5645  1.4142
  559SOL  HW2   1677   1.195   0.818   0.070 -0.4287 -3.3929 -0.4851
  560SOL  OW    1678   1.652   1.426   1.005 -0.7969  0.2555 -0.5243
  560SOL  HW1   1679   1.638   1.338   0.963  0.4027 -1.3003 -1.0871
  560SOL  HW2   1680   1.671   1.408   1.103 -2.9616 -0.8202 -0.1353
  561SOL  OW    1681   0.884   1.803   0.681 -0.3384  0.6424 -0.0965
  561SOL  HW1   1682   0.932   1.795   0.771  3.9672 -1.0819 -1.3171
  561SOL  HW2   1683   0.855   1.711   0.652 -1.8107  1.7382 -1.7990
  562SOL  OW    1684   1.931   1.639   2.408 -0.1053  0.4114 -0.0390
  562SOL  HW1   1685   1.883   1.651   2.500  0.6984  1.3384 -0.0399
  562SOL  HW2   1686   1.904   1.556   2.356  1.3229  0.4012  1.3555
  563SOL  OW    1687   1.372   1.439   2.017 -0.0203 -0.3876 -0.9279
  563SOL  HW1   1688   1.298   1.506   1.984 -1.8065 -0.1503  1.0554
  563SOL  HW2   1689   1.336   1.347   2.000 -2.2693  2.1227 -0.4329
  564SOL  OW    1690   2.669   0.824   1.381 -0.0328 -0.3262 -0.5436
  564SOL  HW1   1691   2.576   0.805   1.415 -0.0381 -1.0484  0.3179
  564SOL  HW2   1692   2.659   0.857   1.283 -1.4859 -4.0043 -0.0467
  565SOL  OW    1693   0.907   0.907   2.746 -0.2904 -0.0080 -0.4773
  565SOL  HW1   1694   0.869   0.878   2.835 -1.1029  2.2714  0.5813
  565SOL  HW2   1695   0.858   0.856   2.670  0.8298  2.0853  0.1944
  566SOL  OW    1696   0.044   2.801   0.450  0.2429 -0.0206 -1.0808
  566SOL  HW1   1697   0.063   2.899   0.435  3.5438 -0.2909  2.4490
  566SOL  HW2   1698   0.126   2.752   0.490  2.2771  0.7959  0.8322
  567SOL  OW    1699   1.862   1.090   0.897  0.1841 -0.3678  0.8860
  567SOL  HW1   1700   1.794   1.147   0.845 -1.2513 -3.1496  0.3912
  567SOL  HW2   1701   1.923   1.152   0.944 -0.6790  2.1431 -1.8041
  568SOL  OW    1702   1.473   0.676   2.784  0.3131 -0.1089 -0.2495
  568SOL  HW1   1703   1.499   0.615   2.703  0.7236  0.5672 -0.1187
  568SOL  HW2   1704   1.535   0.750   2.798 -1.7731  2.0917  0.8159
  569SOL  OW    1705   1.370   0.979   0.929 -0.1631 -0.2094 -0.2781
  569SOL  HW1   1706   1.455   0.991   0.875  0.6469  0.5960  0.2379
  569SOL  HW2   1707   1.382   1.039   1.012 -1.0622 -0.1148  0.5999
  570SOL  OW    1708   1.655   2.859   1.529  0.2912 -0.2156  0.6249
  570SOL  HW1   1709   1.608   2.810   1.456 -3.2617 -3.0590 -0.6690
  570SOL  HW2   1710   1.692   2.946   1.499  0.2155 -1.7673 -0.4859
  571SOL  OW    1711   0.364   2.351   0.067  0.4767  0.8122  0.1766
  571SOL  HW1   1712   0.335   2.286   0.140 -2.3267  0.4940 -1.4900
  571SOL  HW2   1713   0.281   2.357   0.008 -0.6639  0.4393  1.5044
  572SOL  OW    1714   0.696   2.229   2.578  0.0661  0.5302  0.1212
  572SOL  HW1   1715   0.642   2.292   2.637 -0.7241 -0.7021  0.8392
  572SOL  HW2   1716   0.640   2.148   2.548  0.1748 -0.4598  0.6048
  573SOL  OW    1717   0.642   1.376   0.621 -0.0632  0.4251  0.3038
  573SOL  HW1   1718   0.666   1.286   0.587  1.0197  0.0354  2.6415
  573SOL  HW2   1719   0.542   1.366   0.650 -1.5418  0.2242  1.6371
  574SOL  OW    1720   1.294   2.380   0.814 -0.3857  0.4940 -0.6564
  574SOL  HW1   1721   1.198   2.413   0.798 -0.1660  2.1086  1.1429
  574SOL  HW2   1722   1.327   2.331   0.728  0.6188 -0.9405 -1.7180
  575SOL  OW    1723   1.094   1.402   0.706  0.2235 -0.0289  0.4245
  575SOL  HW1   1724   1.094   1.316   0.765  0.0138 -1.3569  0.7362
  575SOL  HW2   1725   1.125   1.386   0.612  0.4261 -2.1019  2.0637
  576SOL  OW    1726   2.184   0.608   0.985 -0.5156  0.5007 -0.3938
  576SOL  HW1   1727   2.277   0.603   1.032 -0.2259  3.6406 -2.7508
  576SOL  HW2   1728   2.188   0.688   0.920 -1.8680 -0.6121  2.9425
  577SOL  OW    1729   1.607   0.545   0.414  0.1370 -0.0641 -0.0297
  577SOL  HW1   1730   1.531   0.551   0.486  1.0928 -2.2464 -2.2040
  577SOL  HW2   1731   1.579   0.472   0.345  1.2821 -1.8558 -0.3314
  578SOL  OW    1732   2.430   0.942   2.126  0.1585  0.1287  0.5867
  578SOL  HW1   1733   2.335   0.902   2.130  1.7167 -2.7733  1.0165
  578SOL  HW2   1734   2.408   1.045   2.112  2.8168  0.3644 -2.3875
  579SOL  OW    1735   0.855   1.370   2.224 -0.3227 -0.2437 -0.0262
  579SOL  HW1   1736   0.832   1.470   2.236  2.8542  0.4842  1.8631
  579SOL  HW2   1737   0.863   1.339   2.125  1.3922 -2.4336  1.9250
  580SOL  OW    1738   1.237   2.997   0.306 -0.0358  0.2783 -0.0933
  580SOL  HW1   1739   1.175   2.920   0.325 -0.8098 -0.9203 -1.1530
  580SOL  HW2   1740   1.210   3.052   0.224  0.6855 -1.7102 -0.9023
  581SOL  OW    1741   0.560   0.267   2.900 -0.2924 -0.0862  0.6534
  581SOL  HW1   1742   0.569   0.330   2.979  0.7698  1.7103  0.1325
  581SOL  HW2   1743   0.641   0.271   2.837  1.2948 -0.5939 -2.0106
  582SOL  OW    1744   1.161   2.743   2.205 -0.3050 -0.1203  0.4495
  582SOL  HW1   1745   1.107   2.762   2.292  1.7354 -0.4414 -0.0946
  582SOL  HW2   1746   1.182   2.642   2.199 -0.4460 -0.2948 -0.1547
  583SOL  OW    1747   1.171   2.637   1.864 -0.0659 -0.2067  0.0828
  583SOL  HW1   1748   1.161   2.553   1.806 -1.5811 -0.2806  2.1223
  583SOL  HW2   1749   1.076   2.662   1.903 -0.7243 -1.4374 -0.1948
  584SOL  OW    1750   2.258   2.566   0.422 -0.0355 -0.3163 -0.4503
  584SOL  HW1   1751   2.182   2.511   0.466 -1.3780 -2.7539 -2.5270
  584SOL  HW2   1752   2.315   2.618   0.490  0.5902 -0.0153 -0.1670
  585SOL  OW    1753   1.926   1.145   2.944  0.3680  0.3076  0.5524
  585SOL  HW1   1754   1.988   1.067   2.929  0.2924 -2.7698 -0.3916
  585SOL  HW2   1755   1.980   1.231   2.932 -4.5017 -0.9774  2.6278
  586SOL  OW    1756   0.741   0.869   2.992 -0.2377  0.1832 -0.2621
  586SOL  HW1   1757   0.653   0.886   3.045  0.2444 -2.2054 -1.6886
  586SOL  HW2   1758   0.814   0.927   3.032 -0.6824  0.0087 -0.0481
  587SOL  OW    1759   1.928   2.579   1.187 -0.1382  0.0310  0.5050
  587SOL  HW1   1760   1.882   2.544   1.103  2.8456 -1.0265 -1.8508
  587SOL  HW2   1761   2.022   2.604   1.169  0.7159  0.8534 -0.3760
  588SOL  OW    1762   1.149   0.635   1.124 -0.6926 -0.7998  0.6724
  588SOL  HW1   1763   1.114   0.674   1.036  0.6178 -1.3377  1.2875
  588SOL  HW2   1764   1.155   0.532   1.114  0.9604  1.0003  4.2432
  589SOL  OW    1765   1.808   2.108   0.627  0.0334 -0.0264 -0.2774
  589SOL  HW1   1766   1.908   2.080   0.619  1.1499 -0.8622 -0.6007
  589SOL  HW2   1767   1.759   2.057   0.701 -0.7722 -1.6071  1.3724
  590SOL  OW    1768   2.109   0.376   0.241 -0.9030  0.3196  0.2563
  590SOL  HW1   1769   2.119   0.393   0.342 -0.6112  1.4304  2.5857
  590SOL  HW2   1770   2.133   0.280   0.220  0.2866 -0.6859  1.5492
  591SOL  OW    1771   1.913   2.041   1.837 -0.4159  1.2217 -0.3263
  591SOL  HW1   1772   1.939   2.081   1.743 -1.3100  0.0776 -0.3538
  591SOL  HW2   1773   1.858   2.108   1.896 -3.0433  2.4278 -0.0209
  592SOL  OW    1774   1.288   1.769   0.513 -0.1924  0.1871  0.2569
  592SOL  HW1   1775   1.324   1.690   0.459  0.0052  1.7729  0.5978
  592SOL  HW2   1776   1.319   1.859   0.475 -0.9604  0.6707  0.6455
  593SOL  OW    1777   0.972   2.493   0.247 -0.3868 -0.0282 -0.2615
  593SOL  HW1   1778   0.887   2.509   0.301 -0.0632  0.3995  4.1817
  593SOL  HW2   1779   0.948   2.442   0.159  1.0780 -2.6950  0.5066
  594SOL  OW    1780   2.974   0.414   1.758  0.5428  0.1003 -0.4414
  594SOL  HW1   1781   3.033   0.339   1.719  1.0306 -2.0525 -0.9148
  594SOL  HW2   1782   2.875   0.387   1.759 -1.7490  2.2309  0.8347
  595SOL  OW    1783   2.550   0.893   0.615  0.0243  0.1021 -0.5462
  595SOL  HW1   1784   2.507   0.848   0.538  2.5253 -0.5419 -0.2140
  595SOL  HW2   1785   2.634   0.942   0.588 -1.8326 -1.1661  0.2899
  596SOL  OW    1786   0.843   0.286   0.893  0.3389  0.1856  0.0048
  596SOL  HW1   1787   0.853   0.195   0.936  0.6235  0.7074 -0.4821
  596SOL  HW2   1788   0.763   0.280   0.825 -1.5344 -2.4856  1.3433
  597SOL  OW    1789   2.241   1.724   3.052  0.4029  0.3341  0.0483
  597SOL  HW1   1790   2.169   1.770   3.002 -0.6968  0.1707 -0.6203
  597SOL  HW2   1791   2.207   1.696   0.049  0.9438  0.1554 -1.9827
  598SOL  OW    1792   2.560   2.340   1.884  0.6374  0.0071  0.2303
  598SOL  HW1   1793   2.546   2.386   1.977  0.7282  0.8509 -0.9083
  598SOL  HW2   1794   2.473   2.342   1.834  4.1830 -0.8864  1.6869
  599SOL  OW    1795   2.306   1.263   0.153  0.2318  0.1705  0.3272
  599SOL  HW1   1796   2.334   1.355   0.121 -0.0685  2.5801 -1.8469
  599SOL  HW2   1797   2.372   1.194   0.110 -1.3763  0.6273 -0.4192
  600SOL  OW    1798   0.625   2.926   3.017 -0.7188  0.3751  0.3887
  600SOL  HW1   1799   0.671   2.905   0.011  2.2299  1.8151 -0.4871
  600SOL  HW2   1800   0.570   3.008   3.018  2.3847  1.5073  0.6990
  601SOL  OW    1801   1.620   0.811   0.310 -0.4011 -0.1198  0.2375
  601SOL  HW1   1802   1.653   0.794   0.212 -0.2669 -1.1186 -1.7333
  601SOL  HW2   1803   1.603   0.719   0.357 -0.6766 -0.0883  1.3749
  602SOL  OW    1804   2.562   0.556   2.093  0.6706  0.1638 -0.0675
  602SOL  HW1   1805   2.615   0.569   2.180  1.8073 -0.0148  1.3357
  602SOL  HW2   1806   2.568   0.638   2.035 -3.1540  1.8328  2.4329
  603SOL  OW    1807   2.979   2.841   2.039  0.1893 -0.3512 -0.4399
  603SOL  HW1   1808   2.916   2.875   2.113 -1.1366  0.6760 -1.8009
  603SOL  HW2   1809   2.936   2.760   1.994  2.9700  0.3184 -1.2396
  604SOL  OW    1810   2.890   0.291   2.883 -0.1692  0.5462 -0.2656
  604SOL  HW1   1811   2.966   0.267   2.819  0.5210 -0.0936  0.9416
  604SOL  HW2   1812   2.931   0.294   2.978 -1.4433  0.6781 -0.6784
  605SOL  OW    1813   2.977   0.022   2.317 -0.2194  0.3924  0.1703
  605SOL  HW1   1814   3.003   0.096   2.250 -3.7558 -1.0816  0.1417
  605SOL  HW2   1815   3.057   0.001   2.380 -1.4973 -1.5621 -0.0727
  606SOL  OW    1816   2.696   2.006   0.254 -0.6010 -0.0518  0.2537
  606SOL  HW1   1817   2.711   1.905   0.243 -0.0923  1.8793 -1.8308
  606SOL  HW2   1818   2.682   2.056   0.168 -1.3610 -0.6025  0.0664
  607SOL  OW    1819   1.997   0.171   2.803 -0.2598  0.0141 -0.1717
  607SOL  HW1   1820   1.923   0.226   2.845 -2.4717  0.3169  0.1639
  607SOL  HW2   1821   2.025   0.204   2.710 -0.9980  0.3243 -1.5603
  608SOL  OW    1822   2.150   1.268   2.578  0.6018  0.1240  0.8504
  608SOL  HW1   1823   2.171   1.175   2.606 -1.8456  2.3780 -0.5906
  608SOL  HW2   1824   2.066   1.311   2.612 -0.8635  0.8304 -1.7876
  609SOL  OW    1825   3.057   0.651   1.242  0.0412  0.0703  0.4530
  609SOL  HW1   1826   0.026   0.717   1.281 -4.0335 -1.7291 -0.4692
  609SOL  HW2   1827   0.016   0.599   1.173 -0.0242 -1.4968 -1.0225
  610SOL  OW    1828   0.447   2.766   0.311  0.3764 -0.1831  0.1823
  610SOL  HW1   1829   0.543   2.781   0.337  0.6093 -2.4556  2.4646
  610SOL  HW2   1830   0.411   2.846   0.255  0.3506  1.7181 -0.9968
  611SOL  OW    1831   2.144   1.001   2.649  0.6353  0.0149 -0.2064
  611SOL  HW1   1832   2.111   0.965   2.743  1.2487  0.5506 -0.1146
  611SOL  HW2   1833   2.194   0.929   2.592  2.2928 -3.2625  2.8267
  612SOL  OW    1834   1.872   0.511   2.108  0.0267 -0.6844 -0.1723
  612SOL  HW1   1835   1.772   0.515   2.137  1.0743 -2.2317 -1.0001
  612SOL  HW2   1836   1.892   0.419   2.081 -3.0075  0.4201  1.3841
  613SOL  OW    1837   1.107   1.478   3.073  0.2259 -0.3663 -0.0945
  613SOL  HW1   1838   1.044   1.509   3.001 -0.8316 -0.0601 -1.3208
  613SOL  HW2   1839   1.171   1.551   0.011  1.1183 -1.5573  0.5561
  614SOL  OW    1840   2.995   2.396   0.241 -0.7767  0.3923  0.1005
  614SOL  HW1   1841   3.010   2.495   0.258 -3.5124  1.1252  1.7496
  614SOL  HW2   1842   2.943   2.357   0.317  0.5339  0.7666  2.0769
  615SOL  OW    1843   2.242   1.325   2.309 -0.4718 -0.3315 -0.2064
  615SOL  HW1   1844   2.285   1.420   2.287  2.5219  0.8161  1.1937
  615SOL  HW2   1845   2.201   1.317   2.399 -0.0042 -0.1520  0.3635
  616SOL  OW    1846   0.703   2.765   0.390  0.4556 -0.0700 -0.1807
  616SOL  HW1   1847   0.713   2.668   0.418 -0.4722  2.3544  0.6092
  616SOL  HW2   1848   0.769   2.824   0.443 -0.2520  1.1095  0.6852
  617SOL  OW    1849   0.631   2.415   0.172  0.2541  0.2687  0.2578
  617SOL  HW1   1850   0.689   2.330   0.181 -1.0458 -3.3237  1.6190
  617SOL  HW2   1851   0.547   2.393   0.120  0.2007 -1.3006  2.3573
  618SOL  OW    1852   0.022   0.235   1.616  0.6586 -0.0724 -0.2041
  618SOL  HW1   1853   0.102   0.208   1.673  0.5177  1.8931  3.5987
  618SOL  HW2   1854   0.049   0.281   1.527 -2.2096  0.1000 -0.7110
  619SOL  OW    1855   2.482   2.323   2.319 -0.3783 -0.0158 -0.2104
  619SOL  HW1   1856   2.503   2.374   2.234  1.7736 -0.6330  0.9078
  619SOL  HW2   1857   2.517   2.226   2.318 -1.8159  0.6555  0.1347
  620SOL  OW    1858   2.362   1.302   2.853  0.2131  0.0292 -0.2773
  620SOL  HW1   1859   2.395   1.334   2.762 -3.8821 -1.3451 -1.0735
  620SOL  HW2   1860   2.407   1.212   2.871  2.5913 -0.0839  1.5017
  621SOL  OW    1861   2.100   0.349   0.897  0.2114 -0.5510  0.2510
  621SOL  HW1   1862   2.125   0.449   0.918  0.0119 -5.8727  1.7055
  621SOL  HW2   1863   2.002   0.333   0.887 -0.1285  3.7574 -0.5030
  622SOL  OW    1864   0.069   0.822   0.002  0.1251 -0.1594 -0.1531
  622SOL  HW1   1865   3.074   0.863   0.031  1.0437 -1.2572 -0.5238
  622SOL  HW2   1866   0.091   0.760   0.078 -0.6771  2.3500  1.0365
  623SOL  OW    1867   1.751   2.210   2.003 -0.8758 -0.4339  0.7578
  623SOL  HW1   1868   1.750   2.185   2.101 -1.1322  0.2208  1.3295
  623SOL  HW2   1869   1.816   2.290   1.982  0.6054 -0.1924  1.7591
  624SOL  OW    1870   1.517   2.873   1.125 -0.5121 -0.0616 -0.2613
  624SOL  HW1   1871   1.489   2.825   1.213 -0.2116 -0.1900  1.5224
  624SOL  HW2   1872   1.487   2.817   1.042  0.0547 -0.2596 -2.2169
  625SOL  OW    1873   3.015   2.765   3.022 -0.0130 -0.1581 -0.4295
  625SOL  HW1   1874   3.071   2.689   3.065 -0.4955  1.4074  0.2889
  625SOL  HW2   1875   3.012   2.752   2.923 -1.5053  1.9215 -1.4408
  626SOL  OW    1876   2.435   0.270   0.201 -0.1352  0.4680 -0.6498
  626SOL  HW1   1877   2.416   0.357   0.150  0.5928 -0.0943 -0.6448
  626SOL  HW2   1878   2.352   0.216   0.207 -0.6258  1.3111  2.0122
  627SOL  OW    1879   0.784   0.021   2.198 -0.1347 -0.3231 -1.0078
  627SOL  HW1   1880   0.716   3.067   2.261  1.4157  1.1826 -3.2648
  627SOL  HW2   1881   0.740   0.097   2.150  2.0228  2.1340 -0.2302
  628SOL  OW    1882   0.992   0.981   1.417 -0.0067  0.2276 -0.4156
  628SOL  HW1   1883   0.997   0.881   1.424  0.5773  1.9104  0.2155
  628SOL  HW2   1884   1.078   1.028   1.440  1.1533 -2.6436  1.4485
  629SOL  OW    1885   2.256   1.658   0.698  0.1119 -0.1321 -0.6237
  629SOL  HW1   1886   2.176   1.611   0.738  0.3700 -1.5893 -0.2259
  629SOL  HW2   1887   2.351   1.627   0.729  0.7663  1.3274  0.2494
  630SOL  OW    1888   3.020   0.179   2.087  0.2483  0.5990  0.6593
  630SOL  HW1   1889   0.002   0.220   2.038 -0.1638 -0.6539  0.6128
  630SOL  HW2   1890   2.958   0.138   2.015  3.9963 -1.4573 -2.5780
  631SOL  OW    1891   1.890   0.075   0.488  0.0671  0.4233  0.2637
  631SOL  HW1   1892   1.881   3.084   0.538 -1.8883  1.5418  0.1120
  631SOL  HW2   1893   1.939   0.155   0.537  0.5612  0.8079 -1.2145
  632SOL  OW    1894   1.352   2.327   0.138 -0.0810  0.2880  0.1082
  632SOL  HW1   1895   1.381   2.302   0.045 -2.0650 -0.0444 -0.7265
  632SOL  HW2   1896   1.415   2.397   0.183 -0.1958 -0.9637 -0.6396
  633SOL  OW    1897   0.330   2.983   0.179  0.7488  0.4460  0.2878
  633SOL  HW1   1898   0.266   2.962   0.101  2.6702 -1.4024  1.7501
  633SOL  HW2   1899   0.272   3.010   0.259  2.0007  2.9559  1.6741
  634SOL  OW    1900   2.168   2.627   1.064 -0.1752 -0.2947  0.0404
  634SOL  HW1   1901   2.168   2.667   0.973  1.4581  0.0299 -0.3654
  634SOL  HW2   1902   2.247   2.670   1.113 -1.2072 -1.6318  0.7570
  635SOL  OW    1903   2.511   2.903   1.560 -0.4305  0.8431  0.2181
  635SOL  HW1   1904   2.589   2.937   1.621  1.2540  1.9750  1.6839
  635SOL  HW2   1905   2.469   2.971   1.510  0.5233 -0.7477 -1.2230
  636SOL  OW    1906   1.935   0.160   1.178  0.4014 -0.1400  0.8278
  636SOL  HW1   1907   1.865   0.215   1.234 -0.3329  0.0951  2.0422
  636SOL  HW2   1908   1.935   0.060   1.202 -0.9479 -1.0898 -0.2963
  637SOL  OW    1909   1.480   2.420   2.548  0.6831  0.2342 -0.0023
  637SOL  HW1   1910   1.406   2.472   2.508 -0.0687 -2.8681  0.8008
  637SOL  HW2   1911   1.550   2.487   2.581  1.5251  3.3618  6.4265
  638SOL  OW    1912   0.855   0.027   0.990 -0.3615 -0.2337 -0.5178
  638SOL  HW1   1913   0.815   0.027   1.083  1.1396  0.3122  3.3494
  638SOL  HW2   1914   0.954   0.001   0.996  1.5560  3.8695  1.2060
  639SOL  OW    1915   0.357   2.259   2.176  0.3594  0.8902  0.4096
  639SOL  HW1   1916   0.443   2.254   2.121 -0.6742  0.2687 -0.1177
  639SOL  HW2   1917   0.327   2.179   2.228  2.2048  0.3988  1.2297
  640SOL  OW    1918   2.626   0.294   2.448  0.1669  0.7441 -0.3482
  640SOL  HW1   1919   2.663   0.389   2.417  1.5236  2.0586  0.9206
  640SOL  HW2   1920   2.555   0.303   2.520 -2.4100  0.3029  0.4735
  641SOL  OW    1921   2.831   1.226   0.952 -0.1200 -0.3105  0.1819
  641SOL  HW1   1922   2.924   1.186   0.964 -1.7289  0.8847 -2.4581
  641SOL  HW2   1923   2.789   1.200   0.861  2.1797 -1.0379 -1.9508
  642SOL  OW    1924   1.043   2.069   0.710  0.3001 -0.1372 -0.3992
  642SOL  HW1   1925   0.965   2.015   0.672  1.5768  2.6270 -3.9709
  642SOL  HW2   1926   1.119   2.007   0.741 -0.9566 -2.0030  1.3188
  643SOL  OW    1927   1.609   1.642   1.681 -0.4688  0.3121 -0.0107
  643SOL  HW1   1928   1.663   1.706   1.736  0.9452 -2.6161  1.6463
  643SOL  HW2   1929   1.519   1.681   1.657 -0.6655  0.8684  1.1105
  644SOL  OW    1930   2.272   1.523   0.420  0.3480 -0.3291  0.6682
  644SOL  HW1   1931   2.237   1.557   0.507  1.0321  3.0408  1.0917
  644SOL  HW2   1932   2.281   1.417   0.420 -0.9523 -0.0420  2.7299
  645SOL  OW    1933   1.225   1.939   2.481  0.5146  0.0265  0.3281
  645SOL  HW1   1934   1.130   1.904   2.474  0.0405 -0.4618 -0.3083
  645SOL  HW2   1935   1.235   1.988   2.573  2.1587  1.1361  1.2488
  646SOL  OW    1936   2.029   0.546   0.059 -0.3569  0.0255  0.3292
  646SOL  HW1   1937   2.037   0.482   0.137  1.4497 -0.6369  1.2422
  646SOL  HW2   1938   2.090   0.508   3.079  0.1787  0.8235  2.6586
  647SOL  OW    1939   0.515   2.825   2.100 -0.0012  0.0829 -0.4638
  647SOL  HW1   1940   0.428   2.773   2.107 -0.9909  1.6732 -0.7065
  647SOL  HW2   1941   0.506   2.911   2.048 -1.1291 -0.0184  0.8942
  648SOL  OW    1942   2.685   1.939   0.833 -0.2706  0.9774 -0.5712
  648SOL  HW1   1943   2.624   2.006   0.783 -4.5322 -0.8653  0.5609
  648SOL  HW2   1944   2.633   1.886   0.903  2.4261  3.4484 -0.0272
  649SOL  OW    1945   1.339   2.272   2.742 -0.3004  0.1694 -0.2678
  649SOL  HW1   1946   1.390   2.307   2.663  0.0918 -0.7051 -0.8008
  649SOL  HW2   1947   1.301   2.173   2.730  1.4096  3.2885  0.2594
  650SOL  OW    1948   0.679   1.778   2.687 -0.3294 -1.1955 -0.5960
  650SOL  HW1   1949   0.754   1.715   2.661 -2.1235 -1.5045 -0.2344
  650SOL  HW2   1950   0.717   1.872   2.707  2.6109  0.5244 -0.0825
  651SOL  OW    1951   1.609   1.739   2.888 -0.1540 -0.6187 -0.3235
  651SOL  HW1   1952   1.677   1.798   2.933  1.5898 -1.2082  2.1614
  651SOL  HW2   1953   1.517   1.782   2.911 -2.5548  0.0181 -0.1380
  652SOL  OW    1954   2.738   0.954   1.616  0.0619  0.0639  0.9877
  652SOL  HW1   1955   2.664   1.021   1.630  1.0114  0.8684 -1.1691
  652SOL  HW2   1956   2.714   0.897   1.537  1.2728 -1.5191 -1.4114
  653SOL  OW    1957   1.935   2.508   2.573 -0.1394 -0.0050  0.1882
  653SOL  HW1   1958   1.935   2.475   2.475  1.7429 -1.3468  1.6938
  653SOL  HW2   1959   2.029   2.523   2.610 -0.1805  0.2683  0.3796
  654SOL  OW    1960   2.735   0.197   1.568 -0.1997 -0.0200  0.5295
  654SOL  HW1   1961   2.724   0.101   1.603 -0.6550 -0.0151 -0.5516
  654SOL  HW2   1962   2.722   0.262   1.647 -0.2892 -1.8519  1.7975
  655SOL  OW    1963   0.817   2.302   0.638  0.0482  0.0085 -0.5495
  655SOL  HW1   1964   0.764   2.292   0.722 -1.3372 -0.2442 -3.9537
  655SOL  HW2   1965   0.830   2.208   0.594 -0.7061  1.9255  0.9310
  656SOL  OW    1966   2.953   2.384   0.840  0.3955  0.1691  0.7691
  656SOL  HW1   1967   3.021   2.309   0.845 -0.6287  1.2011  2.3316
  656SOL  HW2   1968   2.955   2.425   0.744  0.7255 -1.3989  0.6186
  657SOL  OW    1969   2.860   1.510   0.973 -0.2042 -0.0625 -0.1002
  657SOL  HW1   1970   2.860   1.409   0.966 -2.5457 -1.2186 -1.8710
  657SOL  HW2   1971   2.800   1.549   0.899  1.6833  2.3284  3.5954
  658SOL  OW    1972   0.607   1.283   1.246 -0.1513 -0.0612 -0.5335
  658SOL  HW1   1973   0.672   1.207   1.229  1.0740 -3.0399 -3.1608
  658SOL  HW2   1974   0.602   1.313   1.346  0.0042 -1.0202 -0.1211
  659SOL  OW    1975   1.706   2.649   1.983  0.5069  0.2348  0.9965
  659SOL  HW1   1976   1.686   2.578   2.054  1.2592  3.5653  2.3776
  659SOL  HW2   1977   1.636   2.722   1.989  1.2481  1.7707  2.2655
  660SOL  OW    1978   1.058   0.551   0.426  0.1363 -0.1530  0.0345
  660SOL  HW1   1979   1.123   0.612   0.479  1.8931  2.4271  2.2174
  660SOL  HW2   1980   1.056   0.461   0.469 -0.7278 -0.0945  1.3333
  661SOL  OW    1981   1.150   3.038   0.940 -0.1179  0.7075 -0.1642
  661SOL  HW1   1982   1.231   3.092   0.912  1.4603 -0.0680  0.6523
  661SOL  HW2   1983   1.177   2.958   0.994 -0.0897  3.2394 -1.2461
  662SOL  OW    1984   2.093   0.238   2.537  0.4177 -0.5681 -0.8997
  662SOL  HW1   1985   2.078   0.274   2.443 -1.9212  0.5404 -1.5824
  662SOL  HW2   1986   2.118   0.139   2.541 -0.5993  0.3767  0.3403
  663SOL  OW    1987   1.495   1.442   2.765  0.0924  0.0988 -0.1443
  663SOL  HW1   1988   1.533   1.380   2.688  0.0449 -0.1852 -1.2178
  663SOL  HW2   1989   1.571   1.452   2.828 -1.4114 -2.9348  0.6712
  664SOL  OW    1990   0.826   0.274   0.091 -0.5121 -0.5122  0.2440
  664SOL  HW1   1991   0.732   0.315   0.074 -2.3998 -0.1823  0.8979
  664SOL  HW2   1992   0.825   0.225   0.182 -2.0685  1.3128 -0.7289
  665SOL  OW    1993   0.568   0.560   2.734  0.1151 -0.2816 -0.7132
  665SOL  HW1   1994   0.636   0.538   2.808 -1.2105  0.5241 -0.3059
  665SOL  HW2   1995   0.553   0.662   2.710  0.3422 -1.2786  0.6379
  666SOL  OW    1996   1.261   1.188   1.972  0.0127  0.2022 -0.5075
  666SOL  HW1   1997   1.234   1.174   2.072 -1.1699  0.4895 -3.0641
  666SOL  HW2   1998   1.333   1.120   1.945  1.7691  1.6170  0.1903
  667SOL  OW    1999   0.866   0.869   2.304  0.2416  0.1492  0.4087
  667SOL  HW1   2000   0.887   0.830   2.215  0.2420 -1.9548  1.2825
  667SOL  HW2   2001   0.944   0.931   2.325  1.3259 -1.3003 -0.7951
  668SOL  OW    2002   2.888   0.634   1.442 -0.6240  0.0448  0.2766
  668SOL  HW1   2003   2.955   0.641   1.362 -0.9338 -0.9390 -1.3703
  668SOL  HW2   2004   2.808   0.699   1.427 -0.9271  1.3370 -2.0616
  669SOL  OW    2005   0.801   1.821   3.028 -0.2631 -0.6270 -0.6148
  669SOL  HW1   2006   0.832   1.761   2.952 -0.2735 -3.1924 -1.7744
  669SOL  HW2   2007   0.863   1.815   0.015  0.0880  2.6753  0.0715
  670SOL  OW    2008   0.276   2.042   2.328  0.1177  0.2664 -0.7806
  670SOL  HW1   2009   0.224   1.974   2.264  3.3836 -0.6787 -0.5731
  670SOL  HW2   2010   0.209   2.085   2.389  1.2415  0.8824 -1.0033
  671SOL  OW    2011   0.221   1.338   0.950 -0.4063  0.1619  0.0174
  671SOL  HW1   2012   0.297   1.374   1.005 -0.3125 -1.4521 -0.7771
  671SOL  HW2   2013   0.145   1.410   0.935 -0.7578 -1.7926 -1.2471
  672SOL  OW    2014   0.211   1.066   2.526  0.2094  0.7148 -0.4607
  672SOL  HW1   2015   0.267   1.146   2.498 -2.5102 -1.0758 -0.1329
  672SOL  HW2   2016   0.200   1.070   2.624  2.1103 -1.0021 -1.6946
  673SOL  OW    2017   2.766   2.298   1.710 -0.5454 -0.0840  0.3889
  673SOL  HW1   2018   2.859   2.322   1.741 -1.7846  1.2905 -0.5580
  673SOL  HW2   2019   2.703   2.316   1.789  0.3616 -0.5327  1.0551
  674SOL  OW    2020   2.905   2.628   1.887  0.1435 -0.1234  0.1903
  674SOL  HW1   2021   2.949   2.566   1.817  3.8923 -1.8933 -0.3127
  674SOL  HW2   2022   2.881   2.569   1.969  1.7267 -1.0803 -1.7302
  675SOL  OW    2023   0.278   1.100   0.524 -0.1782  0.2441  0.5447
  675SOL  HW1   2024   0.266   1.021   0.459  3.0979 -0.3218  1.8982
  675SOL  HW2   2025   0.183   1.127   0.554 -3.5124 -0.0579 -2.1964
  676SOL  OW    2026   2.951   1.607   1.199  0.1359 -0.2367  0.4906
  676SOL  HW1   2027   2.909   1.562   1.282 -0.9581 -1.5692 -0.9216
  676SOL  HW2   2028   2.920   1.564   1.115 -0.2508  1.9781  0.2804
  677SOL  OW    2029   1.642   1.399   1.526 -0.4930  0.6115  0.1390
  677SOL  HW1   2030   1.697   1.340   1.591  1.5998 -0.1825 -0.3953
  677SOL  HW2   2031   1.646   1.496   1.556 -1.7271 -3.6106 -0.0508
  678SOL  OW    2032   2.331   2.354   1.746 -0.2144 -0.2741  0.0107
  678SOL  HW1   2033   2.303   2.446   1.704  1.4614 -0.4520  1.2008
  678SOL  HW2   2034   2.290   2.335   1.838 -0.1198  0.2768 -0.2954
  679SOL  OW    2035   0.092   2.945   0.047  0.3026 -0.0275  0.2166
  679SOL  HW1   2036   0.032   3.007   0.096  0.2439 -1.8685 -0.5312
  679SOL  HW2   2037   0.039   2.862   0.012 -0.3440  1.5092  1.4167
  680SOL  OW    2038   0.744   1.382   0.881  0.3078  0.3591 -0.9701
  680SOL  HW1   2039   0.722   1.387   0.784  1.9463  2.1021 -0.6441
  680SOL  HW2   2040   0.729   1.474   0.923  0.0131 -0.8157 -3.4001
  681SOL  OW    2041   0.780   2.413   1.586  0.0484  0.0427 -0.2009
  681SOL  HW1   2042   0.868   2.452   1.613  0.2783 -1.6452  0.4099
  681SOL  HW2   2043   0.793   2.356   1.501 -1.1498  0.5064  0.0378
  682SOL  OW    2044   0.108   1.879   2.200 -0.4629 -0.1834 -1.0859
  682SOL  HW1   2045   0.075   1.781   2.204  3.1704  2.0882 -0.6600
  682SOL  HW2   2046   0.040   1.938   2.155 -0.9131 -0.5269 -1.4197
  683SOL  OW    2047   2.586   0.798   1.952  0.2369 -0.0475 -0.7773
  683SOL  HW1   2048   2.524   0.852   2.015  0.1444 -2.0440 -2.2143
  683SOL  HW2   2049   2.672   0.839   1.922  1.7566 -1.4256  0.4338
  684SOL  OW    2050   2.529   1.970   2.063 -0.3719  0.0701  0.0223
  684SOL  HW1   2051   2.590   1.887   2.059 -1.7249  0.8368 -0.7452
  684SOL  HW2   2052   2.505   1.989   1.967 -2.1351  0.4756  0.5769
  685SOL  OW    2053   1.675   1.205   2.875 -0.1631 -0.2598  0.1195
  685SOL  HW1   2054   1.772   1.176   2.878 -1.5123  0.4601  1.1194
  685SOL  HW2   2055   1.670   1.289   2.930  2.8830  0.4513  2.3360
  686SOL  OW    2056   2.808   2.813   1.687 -0.0640 -0.2220  0.4280
  686SOL  HW1   2057   2.829   2.762   1.598 -1.2190  1.0203 -0.1240
  686SOL  HW2   2058   2.800   2.756   1.769  1.1362 -1.9532  1.0130
  687SOL  OW    2059   2.426   2.924   0.560  0.1835 -0.2838 -0.0822
  687SOL  HW1   2060   2.485   2.943   0.480 -1.2633  1.3043 -0.4612
  687SOL  HW2   2061   2.332   2.951   0.538 -0.5608  0.3496  0.3813
  688SOL  OW    2062   1.251   2.490   2.425  0.3290  0.3206  0.4776
  688SOL  HW1   2063   1.183   2.479   2.502 -0.8506  0.5269  1.2472
  688SOL  HW2   2064   1.214   2.470   2.330  1.4903 -0.1455 -2.6919
  689SOL  OW    2065   2.359   2.346   2.544  0.3335 -0.1530  0.1786
  689SOL  HW1   2066   2.400   2.344   2.447  0.3466 -1.9590 -2.9263
  689SOL  HW2   2067   2.426   2.302   2.605 -0.8436  1.3203 -1.3123
  690SOL  OW    2068   0.074   1.366   2.193 -0.1331 -0.2866 -0.3682
  690SOL  HW1   2069   3.083   1.326   2.228  1.2370  0.2094 -2.2679
  690SOL  HW2   2070   0.151   1.297   2.197 -0.0049 -0.8346 -0.8989
  691SOL  OW    2071   2.491   1.568   0.774  0.4589 -0.2309 -0.7006
  691SOL  HW1   2072   2.492   1.476   0.731  0.1937 -2.9820 -0.2653
  691SOL  HW2   2073   2.478   1.557   0.873 -0.4793  1.5013  0.2738
  692SOL  OW    2074   0.329   2.699   2.743 -0.2190  0.5512 -0.3587
  692SOL  HW1   2075   0.296   2.738   2.829  0.3824  1.2075  0.2721
  692SOL  HW2   2076   0.404   2.629   2.760  0.1661 -0.6941  0.6447
  693SOL  OW    2077   0.428   0.854   1.044  0.3571  0.1644 -0.2920
  693SOL  HW1   2078   0.360   0.779   1.048 -0.0016  2.0308  0.7158
  693SOL  HW2   2079   0.389   0.945   1.050 -1.8178 -1.7973  1.0281
  694SOL  OW    2080   0.522   0.177   2.298 -0.2063 -0.3230  0.4766
  694SOL  HW1   2081   0.464   0.109   2.256 -0.7035 -2.3450 -1.0178
  694SOL  HW2   2082   0.501   0.178   2.397  1.0500 -0.9730  1.5567
  695SOL  OW    2083   2.342   0.325   1.531  0.3199  0.0962  0.3615
  695SOL  HW1   2084   2.282   0.252   1.573  0.1540 -3.5645 -0.7757
  695SOL  HW2   2085   2.399   0.291   1.456 -0.3231 -2.3231 -2.7552
  696SOL  OW    2086   2.584   3.023   2.152 -0.2219  0.3336  0.1749
  696SOL  HW1   2087   2.578   0.023   2.192 -1.2281 -1.3353  2.8489
  696SOL  HW2   2088   2.585   3.018   2.049 -1.8183  2.4326 -2.6919
  697SOL  OW    2089   2.183   0.127   0.139  0.4469  0.2032  0.2225
  697SOL  HW1   2090   2.226   0.125   0.046 -0.9410 -3.8118 -0.1576
  697SOL  HW2   2091   2.165   0.031   0.168 -3.1687  0.9274  0.2973
  698SOL  OW    2092   2.925   2.063   0.379  0.0368 -0.3348  0.0276
  698SOL  HW1   2093   2.917   2.138   0.449 -0.3988 -1.0205  1.7800
  698SOL  HW2   2094   2.835   2.045   0.341 -2.7555 -0.1027  0.2535
  699SOL  OW    2095   2.696   1.182   2.700  0.1362 -0.0500 -0.2051
  699SOL  HW1   2096   2.693   1.229   2.794 -0.0610  1.3875  0.7959
  699SOL  HW2   2097   2.683   1.248   2.623 -3.4025 -0.9266 -1.8284
  700SOL  OW    2098   1.046   2.438   0.760 -0.5250 -0.0366 -0.3737
  700SOL  HW1   2099   0.980   2.378   0.709 -0.2576  1.0527 -1.0463
  700SOL  HW2   2100   1.002   2.492   0.830 -1.7999 -0.2835  0.7673
  701SOL  OW    2101   1.316   1.104   0.525 -0.1110  0.2607 -0.1856
  701SOL  HW1   2102   1.268   1.185   0.488  0.0531  2.0911  2.8170
  701SOL  HW2   2103   1.353   1.046   0.449 -0.3383 -0.1518  3.3378
  702SOL  OW    2104   1.805   1.712   1.293 -0.4834  0.0321 -1.1080
  702SOL  HW1   2105   1.711   1.692   1.326 -1.7125 -1.0951  1.6631
  702SOL  HW2   2106   1.799   1.749   1.194 -1.8964 -0.7083  1.6280
  703SOL  OW    2107   1.544   0.620   0.823  0.1713  0.0106 -0.0961
  703SOL  HW1   2108   1.606   0.676   0.773  0.7595  1.0420  1.0742
  703SOL  HW2   2109   1.591   0.569   0.899 -2.7409  0.0251 -1.3194
  704SOL  OW    2110   2.458   0.123   0.909 -0.4694 -0.0400 -0.2722
  704SOL  HW1   2111   2.369   0.116   0.866 -4.1908 -1.0092 -1.6012
  704SOL  HW2   2112   2.463   0.080   1.002 -1.1457  2.7189  0.0164
  705SOL  OW    2113   2.907   0.612   0.619  0.6919 -0.2593  0.3847
  705SOL  HW1   2114   2.933   0.678   0.545 -0.4383 -0.7976 -0.3540
  705SOL  HW2   2115   2.910   0.646   0.712 -0.2062  1.1215  1.7029
  706SOL  OW    2116   1.436   0.653   3.040  0.1564  0.3102 -0.0690
  706SOL  HW1   2117   1.453   0.657   2.938  0.3943 -1.9303 -4.1592
  706SOL  HW2   2118   1.379   0.566   3.065  0.3732  0.4789  0.9537
  707SOL  OW    2119   1.968   0.226   2.271 -0.1373 -0.1371 -0.3335
  707SOL  HW1   2120   1.895   0.176   2.322 -1.8178  2.5513 -0.4657
  707SOL  HW2   2121   1.941   0.244   2.173 -4.7891 -1.1130  0.5962
  708SOL  OW    2122   0.224   2.541   1.880  0.6241  0.1178 -0.5670
  708SOL  HW1   2123   0.197   2.596   1.798 -0.5783 -3.7981 -1.4803
  708SOL  HW2   2124   0.239   2.442   1.854 -2.8177  0.7956 -1.5579
  709SOL  OW    2125   1.838   0.441   2.540  0.6135 -0.6696 -0.1727
  709SOL  HW1   2126   1.808   0.349   2.510  2.5596  0.4313 -2.0123
  709SOL  HW2   2127   1.901   0.486   2.472 -0.5505  0.1183  0.6473
  710SOL  OW    2128   2.522   1.108   1.217 -0.0697 -0.3957 -0.1375
  710SOL  HW1   2129   2.547   1.015   1.186  0.7636 -1.5459 -0.5963
  710SOL  HW2   2130   2.547   1.175   1.141 -2.4404  1.5885  0.4034
  711SOL  OW    2131   0.357   2.142   2.776 -0.1329 -0.4162  0.6574
  711SOL  HW1   2132   0.407   2.082   2.712  1.1584 -0.3071  2.6297
  711SOL  HW2   2133   0.371   2.237   2.746 -2.4844 -0.5215 -1.9186
  712SOL  OW    2134   2.891   0.894   0.042 -0.0684 -0.1626 -0.0364
  712SOL  HW1   2135   2.839   0.872   3.053  1.0235 -1.8471  1.4515
  712SOL  HW2   2136   2.920   0.990   0.051 -0.8974 -1.8076  1.3805
  713SOL  OW    2137   2.519   2.952   0.319 -0.3770 -0.0620  0.2221
  713SOL  HW1   2138   2.560   2.865   0.287 -0.5562  2.0128 -0.3010
  713SOL  HW2   2139   2.547   3.024   0.258 -0.8076  3.1950 -0.1049
  714SOL  OW    2140   1.314   0.907   1.591 -0.4566 -0.2431  0.2123
  714SOL  HW1   2141   1.259   0.897   1.678 -0.2186  1.3964  1.9316
  714SOL  HW2   2142   1.297   0.990   1.535  2.2450  0.2507  2.1392
  715SOL  OW    2143   0.625   0.636   0.720 -0.5680  0.3389  0.0206
  715SOL  HW1   2144   0.704   0.685   0.761 -0.7335 -1.0499  0.7308
  715SOL  HW2   2145   0.640   0.609   0.621 -0.4008 -0.7882  2.0024
  716SOL  OW    2146   2.320   0.075   2.685  0.4504 -0.1488  0.4627
  716SOL  HW1   2147   2.370   0.157   2.656 -0.9683 -0.3012  0.2499
  716SOL  HW2   2148   2.287   0.011   2.610  0.4538 -0.2909 -0.9162
  717SOL  OW    2149   1.215   1.158   1.468 -0.8091  0.2058  0.6405
  717SOL  HW1   2150   1.238   1.188   1.568  0.8686 -1.2314  0.9399
  717SOL  HW2   2151   1.137   1.207   1.428  0.4773  1.2402  1.0858
  718SOL  OW    2152   0.404   0.619   0.108  0.5290  0.1564  0.1160
  718SOL  HW1   2153   0.480   0.652   0.168  1.5525 -0.9338 -1.9864
  718SOL  HW2   2154   0.313   0.625   0.156  0.0369  1.4042 -1.5650
  719SOL  OW    2155   2.770   0.040   2.503  0.2282  0.1090  0.2135
  719SOL  HW1   2156   2.712   0.122   2.516  1.2059  0.2121 -0.4185
  719SOL  HW2   2157   2.843   0.048   2.433 -2.4045 -0.2973  0.8601
  720SOL  OW    2158   1.874   0.255   2.020 -0.1142 -0.3394 -0.3072
  720SOL  HW1   2159   1.914   0.255   1.927  1.5634  0.4674 -0.2634
  720SOL  HW2   2160   1.774   0.239   2.018  0.0896  2.8092  1.6405
  721SOL  OW    2161   2.989   2.518   0.595 -0.2125  0.5768  0.2207
  721SOL  HW1   2162   2.966   2.614   0.619 -0.4302 -1.6544 -0.6159
  721SOL  HW2   2163   3.082   2.517   0.552  2.9234 -1.3370  0.9338
  722SOL  OW    2164   1.139   1.570   1.948 -0.5371  0.3417  0.6783
  722SOL  HW1   2165   1.057   1.569   1.891  3.4781  3.5715  0.7896
  722SOL  HW2   2166   1.112   1.599   2.043  0.3950 -0.0647 -1.8823
  723SOL  OW    2167   1.060   0.658   0.855  0.3937 -0.4273  0.2979
  723SOL  HW1   2168   1.146   0.701   0.825 -2.6073  2.8724 -0.1907
  723SOL  HW2   2169   1.075   0.558   0.857  0.5507  0.0723 -1.4071
  724SOL  OW    2170   2.825   2.476   2.103 -0.1661  0.2239 -0.1660
  724SOL  HW1   2171   2.862   2.515   2.190  0.2600  0.6437  1.6964
  724SOL  HW2   2172   2.868   2.383   2.086 -1.5165  1.4833 -1.1006
  725SOL  OW    2173   2.803   0.945   1.872 -0.2717 -0.3044 -0.1452
  725SOL  HW1   2174   2.774   0.938   1.772  3.1214  2.8800  0.2799
  725SOL  HW2   2175   2.899   0.916   1.884  0.1739 -1.4326 -1.8130
  726SOL  OW    2176   1.951   1.470   2.683 -0.1002 -0.4094 -0.5641
  726SOL  HW1   2177   1.901   1.419   2.613 -2.2428 -0.1387  0.9318
  726SOL  HW2   2178   1.902   1.551   2.716  0.7173 -2.6648 -1.2567
  727SOL  OW    2179   1.888   0.769   3.024  0.3070  0.1897  0.5602
  727SOL  HW1   2180   1.795   0.791   3.059  2.8145 -1.6954  0.4163
  727SOL  HW2   2181   1.936   0.696   3.081 -1.0170  1.5437 -1.2376
  728SOL  OW    2182   1.854   1.584   0.626  0.8595 -0.3745 -0.0188
  728SOL  HW1   2183   1.940   1.551   0.672 -1.5080 -0.7781 -1.1793
  728SOL  HW2   2184   1.876   1.638   0.547 -1.1740 -1.5121  0.2831
  729SOL  OW    2185   2.013   1.295   1.496 -0.6908 -0.4881  0.0736
  729SOL  HW1   2186   1.954   1.250   1.427 -0.6782  1.0111  2.8640
  729SOL  HW2   2187   2.014   1.394   1.475  1.2162 -2.2067 -0.0481
  730SOL  OW    2188   0.358   1.794   2.085  0.2672  0.7546 -0.6900
  730SOL  HW1   2189   0.269   1.814   2.138 -0.4745  2.2401  0.7435
  730SOL  HW2   2190   0.345   1.756   1.994  0.1884 -1.6153 -0.9017
  731SOL  OW    2191   1.019   0.805   0.066  0.2535  0.3403 -0.3609
  731SOL  HW1   2192   0.971   0.747   0.136  1.3993  1.6358  0.7673
  731SOL  HW2   2193   0.965   0.886   0.044 -0.0446 -0.0851 -0.5233
  732SOL  OW    2194   0.212   0.188   1.781  0.1384  0.7428 -0.3900
  732SOL  HW1   2195   0.289   0.218   1.721  2.7357  1.2442 -2.0902
  732SOL  HW2   2196   0.203   0.087   1.794  0.1000 -0.3027  0.4912
  733SOL  OW    2197   0.502   1.754   0.070  0.2159 -0.3260 -0.5105
  733SOL  HW1   2198   0.523   1.704   0.156 -1.3621  0.9183 -1.2139
  733SOL  HW2   2199   0.470   1.845   0.093 -1.8422 -1.2134  2.1533
  734SOL  OW    2200   1.412   1.544   0.422 -0.1720 -0.0092  0.1886
  734SOL  HW1   2201   1.488   1.530   0.489 -1.4799 -0.2769  0.0876
  734SOL  HW2   2202   1.443   1.521   0.327  1.0527 -3.3102  1.4979
  735SOL  OW    2203   1.670   1.247   0.778 -0.1182  0.3517  0.5758
  735SOL  HW1   2204   1.621   1.171   0.731  0.4523 -0.3928  0.2946
  735SOL  HW2   2205   1.667   1.320   0.713 -2.9703  1.8333 -0.8283
  736SOL  OW    2206   0.085   2.111   2.778 -0.2935  0.7777  0.6325
  736SOL  HW1   2207   0.021   2.178   2.824 -0.3717  0.2890 -0.4274
  736SOL  HW2   2208   0.180   2.127   2.808  1.9094 -1.3150 -0.5651
  737SOL  OW    2209   0.466   0.964   2.856 -0.7264 -0.2030 -0.1115
  737SOL  HW1   2210   0.426   0.894   2.917 -0.0165  0.8016 -0.7536
  737SOL  HW2   2211   0.500   0.920   2.775 -1.1200  1.3182  0.8640
  738SOL  OW    2212   1.666   1.946   0.763  0.2167 -0.4703 -0.4013
  738SOL  HW1   2213   1.577   1.965   0.810  1.9986 -1.0292 -1.2927
  738SOL  HW2   2214   1.694   1.852   0.790 -0.7125  0.1106  1.6137
  739SOL  OW    2215   1.621   0.166   1.980 -0.4878  0.1748 -0.4407
  739SOL  HW1   2216   1.586   0.099   2.050 -0.3063  1.5480  1.0368
  739SOL  HW2   2217   1.547   0.232   1.957 -0.8125 -0.2569  0.5638
  740SOL  OW    2218   2.265   2.573   1.596  0.1507 -0.6346 -0.2636
  740SOL  HW1   2219   2.169   2.555   1.566 -0.1097  0.9234 -1.1132
  740SOL  HW2   2220   2.313   2.624   1.521 -2.8794 -1.3343 -2.9997
  741SOL  OW    2221   1.888   2.917   0.188 -0.1814  0.0988 -0.1351
  741SOL  HW1   2222   1.853   3.008   0.212 -3.1044 -2.6741 -0.6864
  741SOL  HW2   2223   1.823   2.840   0.212 -0.6710 -0.9844  1.7980
  742SOL  OW    2224   0.666   2.149   0.186 -0.4920  0.3910 -0.1866
  742SOL  HW1   2225   0.658   2.118   0.088 -2.0232 -0.2325 -3.1662
  742SOL  HW2   2226   0.754   2.109   0.228 -3.5064  2.8852  0.8789
  743SOL  OW    2227   3.078   1.997   1.969  0.1629  0.1507 -0.6496
  743SOL  HW1   2228   3.017   1.935   1.916 -1.4216  0.2349 -1.4466
  743SOL  HW2   2229   0.072   2.005   1.921  1.2379  2.4053  0.8190
  744SOL  OW    2230   1.808   2.071   0.301 -0.3216  0.0672  0.0691
  744SOL  HW1   2231   1.779   2.155   0.251  0.7077  0.9627 -2.7766
  744SOL  HW2   2232   1.738   2.046   0.375 -2.3008  0.4837  0.9471
  745SOL  OW    2233   0.046   1.630   2.249  0.1733  0.6679  0.3807
  745SOL  HW1   2234   0.050   1.539   2.206 -0.9742  0.8186 -0.0688
  745SOL  HW2   2235   3.050   1.631   2.301  2.0136  0.2553 -0.2412
  746SOL  OW    2236   1.786   1.897   3.063 -0.2029  0.0309  0.3487
  746SOL  HW1   2237   1.706   1.961   3.084 -0.4490 -0.0144 -0.4157
  746SOL  HW2   2238   1.833   1.871   0.052  2.2832 -0.0842 -2.5055
  747SOL  OW    2239   0.582   2.214   2.021  0.2477 -0.0292 -0.2649
  747SOL  HW1   2240   0.655   2.156   2.065 -0.1321 -0.7477  1.2190
  747SOL  HW2   2241   0.579   2.193   1.925 -1.4046 -1.5098  0.1949
  748SOL  OW    2242   0.684   0.076   2.633  0.2062 -0.1426  0.2130
  748SOL  HW1   2243   0.687   3.085   2.679  0.8610 -0.0079  0.9344
  748SOL  HW2   2244   0.755   0.139   2.670  0.3422  0.5826  1.3862
  749SOL  OW    2245   1.164   1.322   0.182  0.5037  0.4695  0.1625
  749SOL  HW1   2246   1.248   1.289   0.135 -1.8631  0.8296 -0.2724
  749SOL  HW2   2247   1.115   1.382   0.117  2.9743 -0.1597 -0.0337
  750SOL  OW    2248   1.382   0.526   1.577 -0.4909 -0.1747  0.6395
  750SOL  HW1   2249   1.291   0.516   1.620 -1.5715  0.8838 -2.1919
  750SOL  HW2   2250   1.387   0.603   1.510 -0.3433  0.0083 -0.9898
  751SOL  OW    2251   2.083   2.068   0.637  0.7876  0.4280  0.3868
  751SOL  HW1   2252   2.069   2.119   0.542  2.5133  2.7557  2.7191
  751SOL  HW2   2253   2.070   2.138   0.714 -0.6094 -0.6621  1.0813
  752SOL  OW    2254   0.725   2.924   2.756 -0.0883 -0.1961 -0.6422
  752SOL  HW1   2255   0.690   2.930   2.854 -0.2493 -2.7802 -0.8781
  752SOL  HW2   2256   0.658   2.870   2.701  1.4082 -0.4497 -1.3570
  753SOL  OW    2257   0.070   2.169   2.501 -0.7629 -0.5897  0.4471
  753SOL  HW1   2258   0.086   2.169   2.605  2.0728 -0.4107  1.3399
  753SOL  HW2   2259   3.078   2.218   2.483  0.3646 -0.2340  0.0958
  754SOL  OW    2260   0.045   1.891   2.613  0.2504 -0.1740  0.1090
  754SOL  HW1   2261   3.070   1.898   2.544 -0.8988  2.3142  0.1031
  754SOL  HW2   2262   0.056   1.982   2.660  0.3577  0.1961  1.6063
  755SOL  OW    2263   2.296   1.243   0.417  0.0796  0.0025 -0.3890
  755SOL  HW1   2264   2.264   1.151   0.451 -1.8533 -0.3295  0.0751
  755SOL  HW2   2265   2.299   1.244   0.314  0.9246  1.6498 -0.6172
  756SOL  OW    2266   2.258   2.062   2.104 -0.6109 -0.3910 -0.3644
  756SOL  HW1   2267   2.197   2.005   2.042 -2.1211 -1.2482 -0.8341
  756SOL  HW2   2268   2.353   2.026   2.096 -3.0244  1.4405  1.0494
  757SOL  OW    2269   2.685   0.742   2.493 -0.6092  0.3061  0.4903
  757SOL  HW1   2270   2.614   0.740   2.570 -1.4844  0.2826  0.7578
  757SOL  HW2   2271   2.767   0.792   2.533  3.1650  1.0265 -0.0204
  758SOL  OW    2272   2.603   0.300   2.008 -0.3001  0.0210  0.9144
  758SOL  HW1   2273   2.553   0.242   2.079  2.0039 -1.0075 -1.6424
  758SOL  HW2   2274   2.602   0.400   2.034  1.8334 -0.3467  3.1296
  759SOL  OW    2275   2.146   3.001   1.793 -0.7119 -1.1833  0.4606
  759SOL  HW1   2276   2.050   2.963   1.784  0.5768  0.4930 -1.0614
  759SOL  HW2   2277   2.211   2.923   1.768 -1.2569 -1.9558  1.9745
  760SOL  OW    2278   0.187   1.435   1.520  0.1626 -0.3455  0.7246
  760SOL  HW1   2279   0.238   1.400   1.443  1.2560 -1.3700 -0.8261
  760SOL  HW2   2280   0.091   1.407   1.518 -1.1097  0.1854  2.0979
  761SOL  OW    2281   1.645   0.615   1.280 -0.0380 -0.6672 -0.2216
  761SOL  HW1   2282   1.587   0.662   1.351  0.6077 -2.6131  0.4524
  761SOL  HW2   2283   1.719   0.567   1.329 -0.8666  0.1871 -0.2541
  762SOL  OW    2284   0.881   1.911   1.100 -0.2597 -0.1741 -0.2656
  762SOL  HW1   2285   0.782   1.895   1.101 -2.1013  0.6513 -0.6713
  762SOL  HW2   2286   0.935   1.853   1.037  1.7972 -0.7396  1.0889
  763SOL  OW    2287   1.130   0.451   2.131 -0.4699 -0.1132 -0.2682
  763SOL  HW1   2288   1.124   0.396   2.042 -3.0840 -2.8732 -2.0112
  763SOL  HW2   2289   1.044   0.441   2.184  0.6459 -0.8202  1.1574
  764SOL  OW    2290   0.125   2.980   2.418 -0.2908 -0.6488  0.1432
  764SOL  HW1   2291   0.125   2.884   2.455 -0.7241  0.1197  2.8577
  764SOL  HW2   2292   0.127   2.984   2.315  1.0935  1.0441  0.3598
  765SOL  OW    2293   0.189   1.968   0.122  0.7202 -0.8728  0.3231
  765SOL  HW1   2294   0.289   1.972   0.117  1.5815  1.2832  0.0953
  765SOL  HW2   2295   0.155   2.014   0.205 -1.0170  0.4792  1.7722
  766SOL  OW    2296   2.562   2.137   0.499  0.1696 -0.0009 -0.1746
  766SOL  HW1   2297   2.621   2.090   0.427  2.7218  2.0053  1.2724
  766SOL  HW2   2298   2.571   2.241   0.489  1.2612 -4.3070 -1.5662
  767SOL  OW    2299   1.715   1.825   1.829  0.2171 -0.0115 -0.1983
  767SOL  HW1   2300   1.783   1.898   1.832 -1.2285 -0.7599 -1.6416
  767SOL  HW2   2301   1.628   1.862   1.871 -0.6740 -0.6223  2.0956
  768SOL  OW    2302   2.613   1.416   0.086 -0.2922  0.7615  0.1288
  768SOL  HW1   2303   2.519   1.445   0.056  1.6627 -0.8482  3.2266
  768SOL  HW2   2304   2.630   1.456   0.180 -0.5781  0.1990 -0.1728
  769SOL  OW    2305   3.046   2.427   1.712 -0.3842 -0.1208  0.2457
  769SOL  HW1   2306   0.028   2.366   1.732 -1.1113  0.7534 -1.1764
  769SOL  HW2   2307   3.030   2.447   1.611  0.1717 -1.4625  0.0956
  770SOL  OW    2308   2.177   0.575   2.464 -0.0088 -0.3235  0.0715
  770SOL  HW1   2309   2.242   0.547   2.390 -0.7230  0.4154  1.7349
  770SOL  HW2   2310   2.082   0.577   2.427 -0.0299  4.0495  0.1881
  771SOL  OW    2311   2.927   0.456   2.194 -0.4732  0.2139  0.3716
  771SOL  HW1   2312   2.950   0.524   2.117  0.7162  0.4010 -0.3787
  771SOL  HW2   2313   2.956   0.363   2.165 -1.1225  0.4040 -0.2634
  772SOL  OW    2314   2.557   0.625   1.740 -0.1504  0.0509  0.3128
  772SOL  HW1   2315   2.529   0.683   1.661 -1.5839 -2.2377  0.1988
  772SOL  HW2   2316   2.576   0.684   1.819 -0.6811  0.5777  2.5709
  773SOL  OW    2317   0.893   0.872   1.879 -0.2813  0.5027 -0.7852
  773SOL  HW1   2318   0.901   0.813   1.962  1.5779 -0.9977 -1.2719
  773SOL  HW2   2319   0.794   0.890   1.863 -0.5130 -0.4580 -0.8115
  774SOL  OW    2320   2.027   1.243   2.167 -0.3918  0.2381  0.1312
  774SOL  HW1   2321   2.058   1.266   2.072  1.1121  0.9798 -2.0753
  774SOL  HW2   2322   2.106   1.243   2.231  1.3950 -0.6288  1.8242
  775SOL  OW    2323   2.154   2.261   0.145 -0.0941  0.4627  0.3134
  775SOL  HW1   2324   2.157   2.196   0.068  0.5863  1.2117  2.1490
  775SOL  HW2   2325   2.089   2.343   0.133  2.1954  1.3480  4.1337
  776SOL  OW    2326   0.095   1.660   1.305 -0.4333 -0.5750  0.4423
  776SOL  HW1   2327   0.057   1.681   1.397 -1.2373 -0.5096 -1.4219
  776SOL  HW2   2328   0.020   1.646   1.241  1.1527  0.9569 -1.0329
  777SOL  OW    2329   2.957   1.535   1.762  0.6434  0.1554 -0.2393
  777SOL  HW1   2330   2.925   1.621   1.799  5.2255  0.3125 -0.5205
  777SOL  HW2   2331   3.036   1.494   1.816 -1.5695 -0.2457 -0.5258
  778SOL  OW    2332   1.833   0.501   1.444 -0.7629  0.6166  0.2126
  778SOL  HW1   2333   1.786   0.538   1.529 -2.2721  2.1699 -0.0293
  778SOL  HW2   2334   1.914   0.552   1.418 -0.7308  0.2878 -2.5428
  779SOL  OW    2335   2.571   1.330   0.576 -0.5447  0.1748  0.2554
  779SOL  HW1   2336   2.485   1.281   0.561  2.6864  0.7464 -2.7398
  779SOL  HW2   2337   2.610   1.373   0.490  0.5256 -1.5617 -1.2954
  780SOL  OW    2338   2.901   2.772   0.613  0.6531 -0.3243 -0.4053
  780SOL  HW1   2339   2.976   2.798   0.555  0.2395  1.6469  2.1878
  780SOL  HW2   2340   2.878   2.841   0.682  4.1911 -1.9878  0.7654
  781SOL  OW    2341   2.536   1.839   1.051 -0.1817  0.1096 -0.1523
  781SOL  HW1   2342   2.436   1.864   1.033  0.7138  1.1883  1.7686
  781SOL  HW2   2343   2.583   1.920   1.090  3.4754  1.1772  0.0330
  782SOL  OW    2344   2.635   2.690   2.815  0.5465  0.5509  0.1896
  782SOL  HW1   2345   2.634   2.738   2.727 -0.4694 -2.8490 -1.1590
  782SOL  HW2   2346   2.616   2.758   2.888 -1.4436 -1.0951  2.1307
  783SOL  OW    2347   0.774   1.068   1.220 -0.1251  0.3682  0.1818
  783SOL  HW1   2348   0.860   1.041   1.271  1.2881 -2.1918  0.4614
  783SOL  HW2   2349   0.734   0.991   1.165  0.4743 -1.3308 -0.8371
  784SOL  OW    2350   2.160   1.286   0.701 -0.2875 -0.3811 -0.6354
  784SOL  HW1   2351   2.120   1.233   0.625 -3.0824 -1.5909 -0.9345
  784SOL  HW2   2352   2.236   1.242   0.756  0.0369 -0.0673  1.2832
  785SOL  OW    2353   2.369   2.378   0.254  0.0574 -0.0988  0.5007
  785SOL  HW1   2354   2.310   2.323   0.194  1.3225 -0.7160  0.2975
  785SOL  HW2   2355   2.310   2.431   0.321  0.2800 -0.0673 -0.4512
  786SOL  OW    2356   0.744   2.506   0.440 -0.2850  0.1008 -0.2068
  786SOL  HW1   2357   0.779   2.444   0.511  2.1841  0.7429  1.0380
  786SOL  HW2   2358   0.663   2.473   0.391 -0.4180  2.0396 -2.1089
  787SOL  OW    2359   1.493   2.731   1.352 -0.3210  0.1159 -0.4316
  787SOL  HW1   2360   1.503   2.629   1.331  0.9266  0.5333 -0.4349
  787SOL  HW2   2361   1.401   2.752   1.398 -0.9404  2.5692 -1.9977
  788SOL  OW    2362   3.014   0.510   0.083  0.1316  0.1306 -0.1701
  788SOL  HW1   2363   2.981   0.541   3.086 -0.4699  1.1423 -1.8360
  788SOL  HW2   2364   3.051   0.415   0.070  3.1282 -0.4122  0.1127
  789SOL  OW    2365   2.307   1.945   1.678 -0.6466  0.1107  0.0389
  789SOL  HW1   2366   2.355   1.892   1.608  1.1881 -1.6494 -0.5991
  789SOL  HW2   2367   2.372   1.991   1.739  0.5543 -0.0105  3.2346
  790SOL  OW    2368   1.003   2.345   1.106  0.2519 -0.1567 -0.3674
  790SOL  HW1   2369   0.938   2.392   1.163  1.5221 -1.2589  1.4023
  790SOL  HW2   2370   0.967   2.270   1.050 -0.2674 -1.0883  0.0267
  791SOL  OW    2371   0.128   0.640   0.187  0.3739  0.2934 -0.5566
  791SOL  HW1   2372   0.048   0.583   0.159 -0.9762 -0.0449  2.7909
  791SOL  HW2   2373   0.149   0.621   0.286  2.0969 -2.6793 -0.2685
  792SOL  OW    2374   0.403   2.274   1.602 -0.2770  0.0610 -0.4584
  792SOL  HW1   2375   0.488   2.240   1.651 -0.7859  0.4224  0.8640
  792SOL  HW2   2376   0.412   2.371   1.560 -0.9529 -0.4219 -2.3867
  793SOL  OW    2377   1.035   3.080   1.510  0.1685 -0.1031 -0.5488
  793SOL  HW1   2378   1.085   0.068   1.537  0.4814  0.2863  0.4393
  793SOL  HW2   2379   1.019   3.030   1.598  0.6755 -0.5259  1.0767
  794SOL  OW    2380   0.725   1.309   2.647  0.4857  0.1639  0.6826
  794SOL  HW1   2381   0.627   1.336   2.671  0.7871 -1.4315 -0.9685
  794SOL  HW2   2382   0.786   1.365   2.709  2.2582  0.6214  1.8636
  795SOL  OW    2383   0.253   1.158   2.170 -0.3246  0.1022 -0.0729
  795SOL  HW1   2384   0.298   1.147   2.261 -1.3175  0.9311 -3.2325
  795SOL  HW2   2385   0.213   1.065   2.138  2.4906 -0.9018  1.6165
  796SOL  OW    2386   2.476   2.108   0.764 -0.3244  0.3713 -0.2823
  796SOL  HW1   2387   2.504   2.133   0.677 -0.7559  0.8156  0.5346
  796SOL  HW2   2388   2.409   2.031   0.761  2.0559 -1.1295  0.2711
  797SOL  OW    2389   0.089   2.761   2.583  0.3424 -0.5492 -0.9037
  797SOL  HW1   2390   0.040   2.676   2.565  0.6199  1.2126  2.9913
  797SOL  HW2   2391   0.171   2.735   2.641  0.1978  2.1328 -0.8377
  798SOL  OW    2392   1.434   2.085   1.671 -0.3808 -0.6747 -0.3220
  798SOL  HW1   2393   1.449   2.153   1.744  1.0378 -0.2303 -0.6600
  798SOL  HW2   2394   1.519   2.078   1.608 -1.4212 -1.3928  1.5698
  799SOL  OW    2395   0.312   1.459   3.015 -0.2229 -0.2859  0.1135
  799SOL  HW1   2396   0.360   1.368   3.020  0.3265  1.8169 -0.1402
  799SOL  HW2   2397   0.380   1.529   2.988 -1.3310  0.6304 -1.0181
  800SOL  OW    2398   1.000   1.138   1.825 -0.3448 -0.1251  0.4965
  800SOL  HW1   2399   0.962   1.038   1.824  0.2927  1.3671 -1.1436
  800SOL  HW2   2400   1.093   1.135   1.872 -1.5034  0.5598  2.0073
  801SOL  OW    2401   2.603   0.529   0.263 -0.3330 -0.2328  0.3549
  801SOL  HW1   2402   2.678   0.593   0.238 -3.6645  0.6794 -0.2534
  801SOL  HW2   2403   2.554   0.489   0.183  1.1378 -1.3852 -0.9051
  802SOL  OW    2404   2.933   1.877   1.159  0.0228 -0.6202  0.0449
  802SOL  HW1   2405   2.842   1.922   1.165 -0.3616 -1.0794 -0.7844
  802SOL  HW2   2406   2.930   1.776   1.175 -0.3344  0.1098  1.4456
  803SOL  OW    2407   1.914   2.422   1.858 -0.3780  0.1887 -0.0167
  803SOL  HW1   2408   1.880   2.512   1.831 -1.6981 -2.4185 -0.0939
  803SOL  HW2   2409   1.927   2.361   1.779  2.4144  0.1139 -1.8474
  804SOL  OW    2410   2.635   2.695   0.879  0.1863 -0.4998 -0.6457
  804SOL  HW1   2411   2.606   2.608   0.830 -0.3881 -0.2652  0.5453
  804SOL  HW2   2412   2.603   2.781   0.834  4.2702 -1.4659 -2.2679
  805SOL  OW    2413   0.364   1.339   0.697 -0.3197 -0.0677  0.2040
  805SOL  HW1   2414   0.314   1.282   0.631 -0.1776 -0.3213 -1.1930
  805SOL  HW2   2415   0.330   1.340   0.793 -0.9077  1.7989 -1.5423
  806SOL  OW    2416   0.482   2.955   0.786  0.4733 -0.1540 -0.0991
  806SOL  HW1   2417   0.475   2.857   0.783  2.1394  2.8916 -2.2974
  806SOL  HW2   2418   0.575   2.986   0.759  1.8572  1.4070  0.9811
  807SOL  OW    2419   2.425   1.717   2.649  0.2788 -0.0001 -1.0558
  807SOL  HW1   2420   2.331   1.682   2.647  0.5714 -0.0772 -0.2196
  807SOL  HW2   2421   2.490   1.654   2.691  1.7345  0.2313 -0.3934
  808SOL  OW    2422   1.207   0.358   1.084  0.6602  0.2069 -0.5077
  808SOL  HW1   2423   1.312   0.348   1.089 -0.3492  0.2456 -0.5475
  808SOL  HW2   2424   1.162   0.278   1.135  1.4673  1.5495 -3.1169
  809SOL  OW    2425   3.061   1.929   3.079  0.2764  0.6231 -0.0879
  809SOL  HW1   2426   3.091   1.873   2.994  3.0194 -0.5681 -0.6321
  809SOL  HW2   2427   0.045   1.971   0.028 -0.0434 -1.6510 -0.7225
  810SOL  OW    2428   1.931   2.941   0.616 -0.0608  0.2526 -0.3317
  810SOL  HW1   2429   1.925   2.849   0.575  1.3662  0.7956 -1.4068
  810SOL  HW2   2430   1.884   2.938   0.706  1.3386 -1.0764 -1.5505
  811SOL  OW    2431   1.418   1.220   0.107 -0.7798 -0.1724  0.2280
  811SOL  HW1   2432   1.479   1.181   0.176 -0.4025 -1.7560  0.4134
  811SOL  HW2   2433   1.425   1.161   0.026 -1.6310 -1.5637 -0.4876
  812SOL  OW    2434   0.247   1.057   1.281  0.4343  0.1079  0.4107
  812SOL  HW1   2435   0.287   1.098   1.364 -1.0780  0.1673 -0.3007
  812SOL  HW2   2436   0.307   1.084   1.202 -0.6705 -1.5467 -1.0578
  813SOL  OW    2437   2.080   0.635   1.748 -0.6513 -0.8443  0.2068
  813SOL  HW1   2438   2.167   0.585   1.773 -0.0555  2.3878 -0.7844
  813SOL  HW2   2439   2.097   0.716   1.694 -2.9222  0.4850 -1.9864
  814SOL  OW    2440   1.702   2.739   0.296  0.6644  0.0121  0.1780
  814SOL  HW1   2441   1.688   2.712   0.392  0.9352 -0.0659 -0.6025
  814SOL  HW2   2442   1.704   2.658   0.235 -3.7558  0.6652 -2.2365
  815SOL  OW    2443   0.680   0.232   2.059  0.4310  0.1485 -0.1694
  815SOL  HW1   2444   0.644   0.299   1.991  0.7509 -1.2962 -0.7638
  815SOL  HW2   2445   0.608   0.216   2.132  0.4756  0.7255 -0.8485
  816SOL  OW    2446   1.424   2.700   2.336  0.0125 -0.0152 -0.3341
  816SOL  HW1   2447   1.404   2.793   2.372  0.8688 -3.3829 -4.0446
  816SOL  HW2   2448   1.361   2.626   2.373 -0.5326  2.3654  2.4605
  817SOL  OW    2449   2.413   0.235   1.273 -0.3362  0.2027 -0.1816
  817SOL  HW1   2450   2.314   0.250   1.252 -0.0292 -0.3462  1.0216
  817SOL  HW2   2451   2.475   0.305   1.229 -2.3252 -1.1395  2.8427
  818SOL  OW    2452   2.488   1.039   0.089  0.3237 -0.3023  0.2639
  818SOL  HW1   2453   2.451   0.942   0.095 -1.8705 -0.8213 -1.0104
  818SOL  HW2   2454   2.503   1.067   3.084  1.0834 -1.4681 -0.3832
  819SOL  OW    2455   0.675   1.288   3.086  0.0792 -0.0588  0.4529
  819SOL  HW1   2456   0.693   1.347   0.072  1.6969  0.4636 -3.2345
  819SOL  HW2   2457   0.716   1.196   0.009  0.3012 -0.9109 -1.7359
  820SOL  OW    2458   3.061   2.016   1.389 -0.1595  0.4232 -0.1764
  820SOL  HW1   2459   3.056   1.969   1.300  1.2111 -2.4450  2.3492
  820SOL  HW2   2460   3.039   2.114   1.371  2.3953 -0.1881  2.0821
  821SOL  OW    2461   0.452   1.792   1.445  0.1613 -0.1271 -0.3432
  821SOL  HW1   2462   0.411   1.889   1.452 -0.5336  0.3918  2.4863
  821SOL  HW2   2463   0.550   1.804   1.432 -0.8252 -0.4495  1.1918
  822SOL  OW    2464   0.177   1.681   2.487  0.2991 -0.3076  0.5377
  822SOL  HW1   2465   0.117   1.675   2.406  2.5279 -1.0143  0.3662
  822SOL  HW2   2466   0.137   1.757   2.545  0.2520 -2.5477  1.5406
  823SOL  OW    2467   1.945   2.380   2.336 -0.7539 -0.3739 -0.5670
  823SOL  HW1   2468   1.991   2.416   2.249 -0.6311 -1.1882  0.1671
  823SOL  HW2   2469   1.878   2.303   2.324 -0.5897  3.0706  0.9255
  824SOL  OW    2470   1.569   2.039   3.076 -1.1029 -0.4258 -0.2670
  824SOL  HW1   2471   1.563   2.133   3.049  2.5489 -0.5047  1.0862
  824SOL  HW2   2472   1.494   1.980   3.041  2.1679 -2.1906  0.3262
  825SOL  OW    2473   0.463   1.410   0.318  0.3437  0.5812  0.7872
  825SOL  HW1   2474   0.426   1.476   0.383 -0.8425  1.4633  2.8781
  825SOL  HW2   2475   0.388   1.341   0.300  0.6768 -1.9454  0.2284
  826SOL  OW    2476   2.955   1.774   0.405  0.3206 -0.0081 -0.1484
  826SOL  HW1   2477   2.947   1.875   0.411 -0.7480  0.9621 -1.5556
  826SOL  HW2   2478   3.039   1.750   0.356 -2.4412 -1.2843  0.0698
  827SOL  OW    2479   0.437   2.011   0.207  0.4408  0.3202 -0.6682
  827SOL  HW1   2480   0.438   1.989   0.309  1.5122 -0.6098  0.8800
  827SOL  HW2   2481   0.510   2.078   0.188 -1.3404 -0.8188  1.1485
  828SOL  OW    2482   0.089   3.051   0.764 -0.4833 -0.2736 -0.3327
  828SOL  HW1   2483   0.016   0.023   0.732  0.0923 -0.6732  2.3769
  828SOL  HW2   2484   0.174   3.052   0.706 -1.4750 -0.7656  1.2681
  829SOL  OW    2485   1.358   0.142   3.022  0.4443 -0.3060  0.1632
  829SOL  HW1   2486   1.302   0.100   2.943 -0.5469  2.3184 -0.6409
  829SOL  HW2   2487   1.456   0.133   2.995  0.6763  1.8160  0.5761
  830SOL  OW    2488   1.229   3.028   1.250 -0.0387 -0.6753  0.3022
  830SOL  HW1   2489   1.159   0.003   1.275  2.3285  4.4047  0.8843
  830SOL  HW2   2490   1.306   3.078   1.215  0.9005 -0.9434  0.5604
  831SOL  OW    2491   2.056   1.517   0.808  0.4320  0.5676 -0.0576
  831SOL  HW1   2492   2.100   1.433   0.765  0.0374 -1.6688  1.5678
  831SOL  HW2   2493   2.033   1.498   0.902 -0.8745  1.3432  1.6852
  832SOL  OW    2494   1.281   2.334   1.079  0.1844 -0.8357  0.0875
  832SOL  HW1   2495   1.180   2.333   1.094  0.9340 -1.7010 -1.7372
  832SOL  HW2   2496   1.291   2.350   0.977 -0.6771  1.6757 -0.4117
  833SOL  OW    2497   2.525   2.074   1.792 -0.1491 -0.2835  0.0948
  833SOL  HW1   2498   2.567   2.157   1.836  1.1057  1.1067 -0.5164
  833SOL  HW2   2499   2.609   2.023   1.753  1.4530  0.9448 -0.8739
  834SOL  OW    2500   0.814   2.470   1.262 -0.0312 -0.6033 -0.1535
  834SOL  HW1   2501   0.719   2.514   1.251  1.0632 -2.1522  0.9169
  834SOL  HW2   2502   0.819   2.384   1.317  1.8931  1.1576  2.0821
  835SOL  OW    2503   0.022   1.203   1.808 -0.1033  0.0468 -0.8211
  835SOL  HW1   2504   3.063   1.179   1.892  0.4743 -0.6740 -0.1057
  835SOL  HW2   2505   3.090   1.145   1.726  2.1686  4.5096  0.4846
  836SOL  OW    2506   3.067   2.934   1.781  0.3229 -0.2469 -0.2724
  836SOL  HW1   2507   2.990   2.916   1.716  0.0239  0.3750 -1.9252
  836SOL  HW2   2508   3.040   2.918   1.877  3.0593  0.0169  0.7228
  837SOL  OW    2509   1.628   1.889   0.505  0.4713  0.4509  0.1346
  837SOL  HW1   2510   1.542   1.933   0.476 -1.5227 -1.7528  0.7877
  837SOL  HW2   2511   1.651   1.911   0.600  0.9375 -0.1462  1.3594
  838SOL  OW    2512   1.533   2.186   2.403  0.6339  0.4167 -0.2167
  838SOL  HW1   2513   1.543   2.277   2.453 -0.5339 -0.5432 -1.9716
  838SOL  HW2   2514   1.432   2.170   2.381  1.2771  0.6497  0.1293
  839SOL  OW    2515   1.181   2.322   0.346 -0.1724  0.0103 -0.0908
  839SOL  HW1   2516   1.244   2.335   0.277  1.1402  1.2922 -0.7560
  839SOL  HW2   2517   1.108   2.395   0.351 -1.6054  2.1485 -0.6490
  840SOL  OW    2518   1.173   2.470   2.164 -0.3556 -0.3853 -0.1866
  840SOL  HW1   2519   1.099   2.420   2.119 -1.3041 -0.3088  1.4313
  840SOL  HW2   2520   1.264   2.455   2.129  0.2556  1.2214  0.2160
  841SOL  OW    2521   2.303   1.452   1.997  0.3379 -0.2308  0.1145
  841SOL  HW1   2522   2.223   1.503   1.964 -0.2978  0.5016 -3.0835
  841SOL  HW2   2523   2.344   1.504   2.071 -1.8715  0.0227 -0.4065
  842SOL  OW    2524   2.130   1.914   1.912 -0.5741 -0.1734  0.2521
  842SOL  HW1   2525   2.200   1.917   1.835  1.4057 -1.2559  0.0385
  842SOL  HW2   2526   2.042   1.943   1.877 -0.0338  1.5345 -0.1530
  843SOL  OW    2527   1.768   2.157   2.281 -0.1206  0.0645  0.2170
  843SOL  HW1   2528   1.813   2.067   2.291  2.2345 -1.7959  2.6200
  843SOL  HW2   2529   1.683   2.166   2.339 -2.0165 -2.4106  1.2711
  844SOL  OW    2530   1.560   2.914   0.629  0.4208 -0.0446  0.0402
  844SOL  HW1   2531   1.459   2.898   0.656  1.3365 -0.2835 -1.4499
  844SOL  HW2   2532   1.588   3.012   0.636 -0.7998  1.2553 -0.0346
  845SOL  OW    2533   2.151   0.429   0.507 -0.2166  0.2537 -0.6689
  845SOL  HW1   2534   2.201   0.497   0.556  0.8772  2.7031 -2.2995
  845SOL  HW2   2535   2.077   0.385   0.568 -1.6561 -0.8132 -1.3619
  846SOL  OW    2536   0.758   2.013   0.558 -0.5767  0.2770 -0.3250
  846SOL  HW1   2537   0.796   1.935   0.609 -0.1767 -1.9119  0.6913
  846SOL  HW2   2538   0.781   2.011   0.458  1.7904 -2.3865 -2.1031
  847SOL  OW    2539   1.004   2.683   1.494  0.0430 -0.0615  0.1959
  847SOL  HW1   2540   0.973   2.633   1.408 -1.1238 -0.2796 -2.2912
  847SOL  HW2   2541   1.093   2.734   1.473 -0.5127  0.1313 -1.2419
  848SOL  OW    2542   0.925   1.204   0.271  0.2360 -0.0705 -0.2557
  848SOL  HW1   2543   0.837   1.260   0.273 -0.0374  2.5819 -0.5878
  848SOL  HW2   2544   1.005   1.263   0.249 -1.1166 -0.5735 -0.5903
  849SOL  OW    2545   0.354   0.414   2.665 -0.2370  0.1334  0.5437
  849SOL  HW1   2546   0.375   0.314   2.652 -0.1878 -1.6084 -0.1481
  849SOL  HW2   2547   0.445   0.467   2.684  2.0007  0.1697  1.5481
  850SOL  OW    2548   1.090   0.313   0.541  0.3323  0.3205 -0.1268
  850SOL  HW1   2549   1.114   0.220   0.509 -0.6560  1.1702 -1.1866
  850SOL  HW2   2550   1.111   0.323   0.642 -0.2311 -2.1054 -1.6297
  851SOL  OW    2551   1.943   2.698   2.249  0.7814 -0.4355 -0.3276
  851SOL  HW1   2552   1.944   2.794   2.217 -2.1314 -0.0608  1.6178
  851SOL  HW2   2553   1.846   2.675   2.267  1.5748  0.3750 -0.3991
  852SOL  OW    2554   1.266   1.724   1.770  0.4363  0.3821  0.0235
  852SOL  HW1   2555   1.209   1.684   1.846  0.9192 -2.6648 -0.8593
  852SOL  HW2   2556   1.341   1.781   1.810  1.5024 -0.1080 -2.7857
  853SOL  OW    2557   3.008   2.661   0.255 -0.4147 -0.3478 -0.0352
  853SOL  HW1   2558   3.032   2.724   0.333 -3.8420  0.3693  0.1591
  853SOL  HW2   2559   2.905   2.670   0.235  1.9879  0.3122 -2.2645
  854SOL  OW    2560   2.459   2.671   1.416 -0.0130  0.3448 -0.5689
  854SOL  HW1   2561   2.526   2.595   1.395 -1.0407  1.2504  2.7770
  854SOL  HW2   2562   2.499   2.750   1.459  0.0622 -1.6182  1.3475
  855SOL  OW    2563   2.520   2.199   2.723 -0.2670  0.2301 -0.2663
  855SOL  HW1   2564   2.601   2.264   2.731  0.8089  0.6699  3.9553
  855SOL  HW2   2565   2.551   2.099   2.733 -1.3695  1.4777  1.8342
  856SOL  OW    2566   2.771   0.082   0.530 -0.1135 -0.0296 -0.4017
  856SOL  HW1   2567   2.684   0.130   0.496  0.1461  3.0002 -2.0498
  856SOL  HW2   2568   2.749   0.002   0.587 -1.4962 -1.0911 -1.9627
  857SOL  OW    2569   1.293   2.865   1.915 -0.3646 -0.3808 -0.2002
  857SOL  HW1   2570   1.368   2.841   1.984  2.4402 -2.2330 -1.8560
  857SOL  HW2   2571   1.241   2.780   1.889 -1.1785 -0.6173 -0.1779
  858SOL  OW    2572   0.615   1.423   1.983 -0.1531 -0.1696 -0.3241
  858SOL  HW1   2573   0.583   1.485   2.060 -1.3404  2.4373 -0.6115
  858SOL  HW2   2574   0.711   1.399   1.996  2.2443  0.9328 -0.9071
  859SOL  OW    2575   1.858   2.417   0.708 -0.4905 -0.2927 -0.3897
  859SOL  HW1   2576   1.783   2.364   0.662 -2.0321 -1.6310 -1.0475
  859SOL  HW2   2577   1.830   2.457   0.798 -0.5993 -3.2542  0.1284
  860SOL  OW    2578   2.174   2.994   0.506 -0.1178  0.6260 -0.2707
  860SOL  HW1   2579   2.074   2.978   0.521  0.0627  1.0390 -1.6806
  860SOL  HW2   2580   2.193   3.092   0.502  2.1239  0.1241  1.6947
  861SOL  OW    2581   2.045   2.428   0.504  0.1238 -0.0794 -0.2094
  861SOL  HW1   2582   1.991   2.432   0.590 -0.1890  2.9434  0.2192
  861SOL  HW2   2583   2.037   2.337   0.457  2.7346 -1.0657  1.5477
  862SOL  OW    2584   2.921   3.089   0.064  0.1126 -0.2470 -0.0356
  862SOL  HW1   2585   2.969   0.003   3.071 -0.4833  3.1894  3.4155
  862SOL  HW2   2586   2.882   2.993   0.070  1.3802  1.1501  0.0939
  863SOL  OW    2587   1.179   2.808   1.087  0.1452 -0.1635 -0.4635
  863SOL  HW1   2588   1.099   2.745   1.078  0.3901  1.5402  0.0154
  863SOL  HW2   2589   1.159   2.891   1.146  0.5157  0.9385  0.2620
  864SOL  OW    2590   3.078   0.605   1.619 -0.3454  0.3616  0.3380
  864SOL  HW1   2591   3.052   0.520   1.668 -1.3898 -3.6175  1.0883
  864SOL  HW2   2592   2.997   0.625   1.557  2.8907 -0.3162 -2.3306
  865SOL  OW    2593   1.874   2.237   2.704 -0.4507 -0.0909 -0.7302
  865SOL  HW1   2594   1.900   2.234   2.802 -0.1643  0.3693 -0.9907
  865SOL  HW2   2595   1.907   2.321   2.663 -0.2328 -3.1886 -1.5764
  866SOL  OW    2596   2.446   1.059   2.888 -0.2889 -0.7675 -0.2114
  866SOL  HW1   2597   2.406   0.967   2.919 -1.3117  0.5272 -1.8609
  866SOL  HW2   2598   2.476   1.051   2.792  0.2746  2.6005 -0.6861
  867SOL  OW    2599   0.152   0.335   2.014  0.4134 -0.1868  0.1869
  867SOL  HW1   2600   0.193   0.288   1.931 -0.6167 -0.7599  0.8143
  867SOL  HW2   2601   0.223   0.408   2.035 -1.7571  0.5458  0.0351
  868SOL  OW    2602   3.094   1.170   0.970  0.0120 -0.4424  0.2346
  868SOL  HW1   2603   0.004   1.126   1.061  0.1053  0.0446 -1.4000
  868SOL  HW2   2604   0.072   1.239   0.956 -0.4125  0.2787  1.1117
  869SOL  OW    2605   1.142   1.622   2.674  0.8512  0.1655  0.1254
  869SOL  HW1   2606   1.116   1.534   2.631 -0.3722  1.2471 -2.2939
  869SOL  HW2   2607   1.244   1.644   2.663 -0.5475  0.6823 -1.0847
  870SOL  OW    2608   2.862   2.293   1.093 -0.4294 -0.1631 -0.3355
  870SOL  HW1   2609   2.789   2.358   1.090 -3.0401 -1.1750  1.2518
  870SOL  HW2   2610   2.905   2.289   1.001 -0.3809 -4.6989  0.1915
  871SOL  OW    2611   2.889   1.468   2.622 -0.2174 -0.0471  0.0817
  871SOL  HW1   2612   2.798   1.423   2.601 -2.2721 -2.1546 -0.1281
  871SOL  HW2   2613   2.889   1.504   2.720  1.2540  1.2327 -0.0671
  872SOL  OW    2614   1.307   0.848   1.230  0.4052  0.2833 -0.5769
  872SOL  HW1   2615   1.237   0.783   1.202  0.2344 -1.3888  0.0749
  872SOL  HW2   2616   1.283   0.942   1.206  1.9602 -0.1939 -2.0781
  873SOL  OW    2617   2.227   0.404   2.962  0.3883 -0.3235  0.3620
  873SOL  HW1   2618   2.215   0.430   2.865 -0.8716 -2.9489 -0.2673
  873SOL  HW2   2619   2.248   0.300   2.967  2.0509 -0.8362  0.0378
  874SOL  OW    2620   2.469   1.522   1.343 -0.4881 -0.4589 -0.0206
  874SOL  HW1   2621   2.522   1.574   1.411  0.3965  2.1918  2.0763
  874SOL  HW2   2622   2.372   1.559   1.339  0.8256 -0.1385  0.2313
  875SOL  OW    2623   2.727   0.106   2.974  0.2897 -0.5305 -0.6770
  875SOL  HW1   2624   2.692   0.045   2.904 -2.0204 -3.1177 -0.1542
  875SOL  HW2   2625   2.792   0.177   2.938 -1.6787 -2.4814  1.0524
  876SOL  OW    2626   1.808   0.422   2.970  0.2269 -0.4063 -0.2547
  876SOL  HW1   2627   1.877   0.443   3.044  0.1113 -2.1522 -1.3276
  876SOL  HW2   2628   1.787   0.507   2.913  1.3188  1.7034 -0.1281
  877SOL  OW    2629   0.142   0.189   0.255 -0.4399 -0.5967  0.2705
  877SOL  HW1   2630   0.162   0.179   0.155  0.7226  1.2491  1.3590
  877SOL  HW2   2631   0.054   0.238   0.283  2.7271  2.1382  1.3802
  878SOL  OW    2632   2.317   2.797   2.647  0.2618 -0.7025  0.4681
  878SOL  HW1   2633   2.230   2.806   2.592  1.2471  1.3903  0.0034
  878SOL  HW2   2634   2.307   2.842   2.735 -0.9372 -0.0201 -0.0577
  879SOL  OW    2635   1.905   1.928   2.363  0.0950 -0.4809  0.5796
  879SOL  HW1   2636   1.918   1.831   2.335 -0.1825  0.5348 -2.0375
  879SOL  HW2   2637   1.996   1.976   2.362 -0.0897  1.6223 -1.6371
  880SOL  OW    2638   0.781   0.778   2.534  0.3289 -0.0004  0.2060
  880SOL  HW1   2639   0.778   0.679   2.517  0.2568  0.8762 -0.6146
  880SOL  HW2   2640   0.825   0.825   2.448 -0.5866  0.5534 -0.5700
  881SOL  OW    2641   0.444   1.208   2.987 -0.0412  0.0283  0.0671
  881SOL  HW1   2642   0.460   1.123   2.940  1.7491 -0.2691  1.4305
  881SOL  HW2   2643   0.533   1.249   3.014  0.5388  0.4393 -0.9572
  882SOL  OW    2644   0.953   0.536   1.861 -0.4310 -0.4479 -0.7120
  882SOL  HW1   2645   0.931   0.607   1.931  0.2912 -0.8961 -1.0963
  882SOL  HW2   2646   0.954   0.441   1.903  3.4006  3.6303 -0.1948
  883SOL  OW    2647   2.375   1.467   3.065  0.8998  0.4050  0.0476
  883SOL  HW1   2648   2.347   1.566   3.056 -0.3287 -0.2092  2.4178
  883SOL  HW2   2649   2.334   1.410   2.992 -0.2662  3.0611  1.7077
  884SOL  OW    2650   2.641   1.490   0.330 -0.3879 -0.6917 -0.1439
  884SOL  HW1   2651   2.702   1.511   0.406 -2.9347 -1.0457 -1.0732
  884SOL  HW2   2652   2.559   1.552   0.331  2.8228  2.7447 -0.9205
  885SOL  OW    2653   1.367   1.140   1.156  0.0826  0.3764  0.1086
  885SOL  HW1   2654   1.308   1.202   1.106 -0.2818 -0.9281  0.2813
  885SOL  HW2   2655   1.398   1.186   1.241  0.1811 -1.6684 -0.6495
  886SOL  OW    2656   2.253   2.144   2.783  0.1209  0.7249  0.3634
  886SOL  HW1   2657   2.351   2.169   2.786  1.9980 -2.9588  1.8719
  886SOL  HW2   2658   2.218   2.145   2.685 -0.5508 -1.8943  0.7279
  887SOL  OW    2659   1.304   2.820   0.665  0.4466  0.4050  0.4489
  887SOL  HW1   2660   1.223   2.876   0.645 -0.8954 -1.2599  0.5684
  887SOL  HW2   2661   1.282   2.730   0.626  1.2874 -1.3485  1.1793
  888SOL  OW    2662   1.930   0.615   2.354 -0.1217 -0.1811 -0.0418
  888SOL  HW1   2663   1.875   0.696   2.379 -1.8690 -0.6267 -1.5219
  888SOL  HW2   2664   1.913   0.591   2.254  1.6151  2.8402 -1.0071
  889SOL  OW    2665   0.664   3.041   0.583  0.7930  0.1180 -0.1063
  889SOL  HW1   2666   0.762   3.028   0.551  0.8719  1.4893  2.3611
  889SOL  HW2   2667   0.601   3.055   0.505 -3.1613  0.1094  0.7174
  890SOL  OW    2668   2.915   1.896   2.474  0.3731 -0.3098 -0.1163
  890SOL  HW1   2669   2.893   1.965   2.403  1.7705  1.7838 -1.1468
  890SOL  HW2   2670   2.880   1.933   2.566 -1.2987 -0.9942  1.1838
  891SOL  OW    2671   2.995   2.614   1.025  0.1476  0.3559  0.4131
  891SOL  HW1   2672   3.028   2.687   0.967 -0.8383  0.2512 -2.5918
  891SOL  HW2   2673   2.977   2.530   0.973  0.7335 -0.6513 -0.1100
  892SOL  OW    2674   0.337   2.033   1.461 -0.1747 -0.6590 -0.1499
  892SOL  HW1   2675   0.358   2.125   1.506  2.1575 -1.5202 -1.9622
  892SOL  HW2   2676   0.253   1.994   1.504  1.3300  0.4518 -0.2074
  893SOL  OW    2677   2.751   3.014   1.118  0.5707  0.7125  0.3329
  893SOL  HW1   2678   2.808   3.068   1.052  0.7779  0.3388  1.3151
  893SOL  HW2   2679   2.792   2.922   1.132  0.4325  2.6784  2.9411
  894SOL  OW    2680   2.093   1.694   1.081 -0.4102  0.3108 -0.0128
  894SOL  HW1   2681   2.064   1.596   1.085 -1.6165 -2.2579 -0.1088
  894SOL  HW2   2682   2.006   1.749   1.078 -1.7562  1.3026 -0.8529
  895SOL  OW    2683   0.969   1.854   1.349  0.0941  0.2912  0.6489
  895SOL  HW1   2684   1.015   1.768   1.338  0.2223  0.4443  0.6855
  895SOL  HW2   2685   0.939   1.891   1.257  3.0254  0.2181  1.3388
  896SOL  OW    2686   2.288   0.566   1.405  0.4065  0.3826 -0.3237
  896SOL  HW1   2687   2.292   0.483   1.462 -2.3362  0.1789  0.4126
  896SOL  HW2   2688   2.193   0.605   1.396 -1.9968 -0.2823 -0.0755
  897SOL  OW    2689   1.644   2.658   0.549  0.3495  0.0740  0.4433
  897SOL  HW1   2690   1.567   2.591   0.575 -0.0810  2.6386  1.9692
  897SOL  HW2   2691   1.617   2.750   0.589 -1.5336 -0.3866  1.3458
  898SOL  OW    2692   3.067   0.525   2.414  0.4891 -0.2144  0.3860
  898SOL  HW1   2693   3.029   0.488   2.328  2.1215  0.3955  0.1625
  898SOL  HW2   2694   0.038   0.460   2.464 -0.5954  0.8858 -2.5890
  899SOL  OW    2695   3.045   0.854   1.904 -0.0250  0.5210 -0.1263
  899SOL  HW1   2696   0.018   0.860   1.831 -0.4838  0.3594  0.9341
  899SOL  HW2   2697   3.028   0.762   1.942 -0.9569  1.3995 -2.1657
  900SOL  OW    2698   1.126   1.844   2.924 -0.1965  0.7765 -0.0229
  900SOL  HW1   2699   1.105   1.877   3.019 -0.2140  1.0026  2.5233
  900SOL  HW2   2700   1.064   1.772   2.893 -1.4652 -0.4875 -1.8158
  901SOL  OW    2701   2.581   2.410   0.463 -0.5268  0.4917  0.5783
  901SOL  HW1   2702   2.607   2.508   0.478  2.0305  0.2206 -0.6378
  901SOL  HW2   2703   2.494   2.412   0.416 -1.0765  2.1687  0.9832
  902SOL  OW    2704   1.519   2.997   0.320 -0.2980  0.1153 -0.0463
  902SOL  HW1   2705   1.418   2.983   0.325  1.1725 -2.2106  2.8063
  902SOL  HW2   2706   1.569   2.943   0.391  0.1212  1.3626  1.2304
  903SOL  OW    2707   2.354   1.147   1.773 -0.0351  0.4370 -0.1070
  903SOL  HW1   2708   2.430   1.200   1.726  1.4283 -1.1914 -0.5631
  903SOL  HW2   2709   2.402   1.092   1.845 -1.7125 -0.8451 -1.0686
  904SOL  OW    2710   1.060   1.022   2.431 -0.2998 -0.6937 -0.5802
  904SOL  HW1   2711   1.027   1.091   2.497  0.4049  2.0226 -1.9539
  904SOL  HW2   2712   1.118   0.948   2.471  1.0725  0.5542  1.4659
  905SOL  OW    2713   0.538   0.349   1.286  0.4881 -0.3420  0.0416
  905SOL  HW1   2714   0.517   0.419   1.353  0.3829 -1.7587  0.5993
  905SOL  HW2   2715   0.631   0.361   1.247  2.8691  0.5729 -1.4628
  906SOL  OW    2716   1.926   2.132   1.025  0.0833  0.2889  0.0406
  906SOL  HW1   2717   1.979   2.180   0.956 -0.9358 -0.5473  1.0739
  906SOL  HW2   2718   1.847   2.197   1.055 -4.1908 -3.4209 -1.8541
  907SOL  OW    2719   2.296   1.925   0.709 -0.2957 -0.5322  0.4082
  907SOL  HW1   2720   2.209   1.977   0.690  1.4732  1.7852  3.5444
  907SOL  HW2   2721   2.274   1.827   0.709 -1.3151 -0.6941 -1.6810
  908SOL  OW    2722   1.381   2.011   0.447 -0.1321  0.1488 -0.2244
  908SOL  HW1   2723   1.432   2.066   0.380 -0.9543 -2.1785 -0.0010
  908SOL  HW2   2724   1.321   2.069   0.506  1.9890 -0.2559 -0.6203
  909SOL  OW    2725   0.037   2.804   0.911 -0.3367 -0.2520 -0.2429
  909SOL  HW1   2726   0.046   2.889   0.854  1.1938  3.0225 -0.2251
  909SOL  HW2   2727   0.108   2.737   0.884  1.1468  0.6633 -1.0166
  910SOL  OW    2728   2.307   0.988   1.378  0.2827  0.1125  0.4448
  910SOL  HW1   2729   2.377   1.053   1.343  5.2255 -0.9733 -1.3215
  910SOL  HW2   2730   2.257   1.029   1.458 -2.6199  2.6504 -0.8258
  911SOL  OW    2731   1.529   0.362   0.236  0.8976 -0.2867  0.4704
  911SOL  HW1   2732   1.576   0.282   0.187 -1.4686  1.1658  0.7814
  911SOL  HW2   2733   1.458   0.408   0.178  3.8344 -0.1568  0.5333
  912SOL  OW    2734   0.281   0.900   0.331  0.1293  0.2279  0.2263
  912SOL  HW1   2735   0.269   0.915   0.232  2.2914 -0.9546 -1.1962
  912SOL  HW2   2736   0.261   0.807   0.363  0.0191 -2.9791 -2.1089
  913SOL  OW    2737   2.209   0.130   0.799  0.0643  0.2858  0.0742
  913SOL  HW1   2738   2.235   0.153   0.708 -0.6376  0.1014  1.1918
  913SOL  HW2   2739   2.150   0.210   0.831 -1.2693 -0.5022 -1.6759
  914SOL  OW    2740   2.296   0.021   1.387 -0.5841  0.0412 -0.1927
  914SOL  HW1   2741   2.342   0.102   1.355  1.0608  0.7907 -1.9743
  914SOL  HW2   2742   2.254   3.066   1.307  4.1749  0.1840 -1.9456
  915SOL  OW    2743   0.621   0.968   1.897 -0.0255  0.0444 -0.2900
  915SOL  HW1   2744   0.552   1.040   1.910  3.4030  0.2325 -1.9226
  915SOL  HW2   2745   0.602   0.886   1.957 -1.6718 -1.5645 -0.4324
  916SOL  OW    2746   2.019   2.530   1.432  0.3034  0.1941 -0.1363
  916SOL  HW1   2747   1.966   2.549   1.346 -0.1452  1.1021 -0.6328
  916SOL  HW2   2748   2.078   2.456   1.408 -3.0044  0.9191  1.0724
  917SOL  OW    2749   0.134   2.965   2.145  0.2903 -0.1660  0.2750
  917SOL  HW1   2750   0.168   2.878   2.100 -2.7937 -1.6527  3.6434
  917SOL  HW2   2751   0.031   2.974   2.143 -2.4768 -0.0235  0.3895
  918SOL  OW    2752   0.153   2.560   2.302  0.1239  0.3848 -0.6378
  918SOL  HW1   2753   0.093   2.558   2.384 -1.4765  0.2700 -0.8440
  918SOL  HW2   2754   0.153   2.468   2.259 -1.2124  0.5092 -0.0277
  919SOL  OW    2755   0.824   0.322   0.476 -0.0423 -0.0358  0.0313
  919SOL  HW1   2756   0.922   0.326   0.499  2.7753  2.8800 -0.4861
  919SOL  HW2   2757   0.778   0.304   0.564 -0.8762  1.3640  0.2258
  920SOL  OW    2758   2.453   0.763   2.687  0.4555 -0.1240  0.3619
  920SOL  HW1   2759   2.372   0.730   2.630  0.2410 -0.4232 -1.3847
  920SOL  HW2   2760   2.471   0.864   2.672 -2.8768 -0.1457 -0.6711
  921SOL  OW    2761   2.880   1.772   1.855 -0.1152  0.1832 -0.8273
  921SOL  HW1   2762   2.838   1.840   1.793  0.7127  1.3717  0.7480
  921SOL  HW2   2763   2.820   1.754   1.932 -0.1474  0.6495 -0.3083
  922SOL  OW    2764   0.163   2.892   1.520 -0.0502  0.0866 -0.4716
  922SOL  HW1   2765   0.151   2.810   1.579 -2.5225  0.3149  0.8930
  922SOL  HW2   2766   0.078   2.943   1.514  0.9133 -1.0009 -0.5088
  923SOL  OW    2767   0.792   0.120   0.319 -0.0130 -0.0679  0.3688
  923SOL  HW1   2768   0.806   0.191   0.390  1.4922 -1.0412 -0.3600
  923SOL  HW2   2769   0.712   0.062   0.329  0.2822  0.6017 -0.2836
  924SOL  OW    2770   0.954   1.169   2.659  0.6554  0.4256 -0.1536
  924SOL  HW1   2771   0.937   1.067   2.683 -3.7515 -0.2752  0.8392
  924SOL  HW2   2772   0.864   1.210   2.630  0.3439  2.8163 -0.2407
  925SOL  OW    2773   0.536   0.954   0.089  0.0235  0.0582 -0.7732
  925SOL  HW1   2774   0.579   1.020   0.153 -0.9326  1.5730 -0.7372
  925SOL  HW2   2775   0.440   0.975   0.067 -0.9897  1.1470  0.7951
  926SOL  OW    2776   0.610   2.786   1.064 -0.1973 -0.5478 -0.1746
  926SOL  HW1   2777   0.614   2.892   1.071 -1.1319 -0.0091 -3.0071
  926SOL  HW2   2778   0.663   2.758   0.981 -1.6795  0.6094  0.3756
  927SOL  OW    2779   0.791   1.958   1.676 -0.0591  0.2124  0.4851
  927SOL  HW1   2780   0.863   2.014   1.627  1.7197  0.5277  0.8730
  927SOL  HW2   2781   0.833   1.908   1.756  2.0814 -1.1943 -0.4763
  928SOL  OW    2782   1.446   0.374   1.921 -0.0186 -0.3505  0.1092
  928SOL  HW1   2783   1.511   0.410   1.848 -0.1687  2.8826 -2.4589
  928SOL  HW2   2784   1.431   0.449   1.993 -1.4459 -0.2002 -1.8966
  929SOL  OW    2785   0.205   2.290   1.782 -0.4231  0.1831  0.1016
  929SOL  HW1   2786   0.172   2.202   1.812  0.2349 -2.5541  2.1086
  929SOL  HW2   2787   0.282   2.275   1.718 -0.5861  1.6783 -2.1025
  930SOL  OW    2788   1.571   0.711   2.376  0.5224  0.5079 -0.0624
  930SOL  HW1   2789   1.582   0.662   2.462 -0.6452  0.8592 -0.6315
  930SOL  HW2   2790   1.641   0.781   2.355  0.2744  2.1074  0.6943
  931SOL  OW    2791   3.071   0.580   1.968  0.2132  0.0044  0.0524
  931SOL  HW1   2792   3.046   0.535   1.881  0.3152 -1.8505  2.1313
  931SOL  HW2   2793   0.033   0.513   2.015 -1.5457 -0.2019 -1.1181
  932SOL  OW    2794   2.546   0.519   0.749  0.4985 -0.1029  0.6931
  932SOL  HW1   2795   2.562   0.451   0.822  2.6543 -1.0800  2.6287
  932SOL  HW2   2796   2.590   0.488   0.661 -2.4964 -0.9868  0.7462
  933SOL  OW    2797   1.426   0.246   0.489 -0.0524  0.0936  0.5280
  933SOL  HW1   2798   1.459   0.258   0.393  2.0272 -0.2471  2.2109
  933SOL  HW2   2799   1.423   0.338   0.534  1.7249  2.0541  0.5063
  934SOL  OW    2800   2.678   1.640   2.275 -0.5658 -0.2625  0.4473
  934SOL  HW1   2801   2.612   1.705   2.320 -0.1699 -0.8794 -2.4190
  934SOL  HW2   2802   2.749   1.612   2.340  2.6081  2.7895 -0.4112
  935SOL  OW    2803   0.033   0.430   1.097 -0.3575  0.1589  0.4902
  935SOL  HW1   2804   3.051   0.403   1.153 -0.0791  0.6828 -1.1461
  935SOL  HW2   2805   0.062   0.361   1.027  0.5240  0.8125  1.3285
  936SOL  OW    2806   2.659   2.450   1.072  0.0770  0.2142  0.1298
  936SOL  HW1   2807   2.664   2.547   1.039  0.9804 -0.5058  1.8299
  936SOL  HW2   2808   2.587   2.398   1.023 -2.8807  1.6791 -1.9706
  937SOL  OW    2809   1.754   2.292   0.157  0.5533 -0.0734  0.3098
  937SOL  HW1   2810   1.749   2.262   0.059  1.5720 -2.4012  1.9975
  937SOL  HW2   2811   1.833   2.352   0.177 -0.5475  0.1675  3.6613
  938SOL  OW    2812   2.275   1.891   1.022 -0.1263 -0.0666 -0.4859
  938SOL  HW1   2813   2.212   1.811   1.047 -0.9590  0.9013  0.6599
  938SOL  HW2   2814   2.261   1.926   0.931 -0.3970  1.0017 -0.9091
  939SOL  OW    2815   1.130   0.592   1.659 -0.4204  0.0236  0.5410
  939SOL  HW1   2816   1.062   0.572   1.733 -0.1198 -0.8797 -0.1233
  939SOL  HW2   2817   1.082   0.603   1.571 -1.4916 -0.1310 -0.0303
  940SOL  OW    2818   2.032   2.177   0.387 -0.7592 -0.0798  0.1039
  940SOL  HW1   2819   2.108   2.167   0.316 -0.0403 -0.8870 -2.9155
  940SOL  HW2   2820   1.946   2.143   0.349  0.6046 -0.4782 -2.9735
  941SOL  OW    2821   2.648   1.222   2.281  0.0740  0.3058 -0.1154
  941SOL  HW1   2822   2.638   1.119   2.298 -0.2865  2.0063  0.1627
  941SOL  HW2   2823   2.595   1.249   2.199  1.0928 -1.9099 -2.1888
  942SOL  OW    2824   0.111   0.407   0.808 -1.0512  0.1380 -0.3309
  942SOL  HW1   2825   0.092   0.500   0.849  1.0176 -2.2946  1.5356
  942SOL  HW2   2826   0.070   0.401   0.717 -2.1175  1.2520  0.7483
  943SOL  OW    2827   0.528   1.952   2.250 -0.8039 -0.3974  0.0770
  943SOL  HW1   2828   0.466   1.888   2.199 -0.4828 -1.7574 -0.0298
  943SOL  HW2   2829   0.467   2.012   2.304 -2.0593  0.9950 -3.0967
  944SOL  OW    2830   2.189   0.819   0.810 -0.3353  0.1986  0.9555
  944SOL  HW1   2831   2.114   0.872   0.773  1.4603 -2.3045 -0.3830
  944SOL  HW2   2832   2.280   0.872   0.813 -0.7725 -2.6258 -2.4492
  945SOL  OW    2833   2.506   0.174   2.225 -0.0219  0.3300 -0.3745
  945SOL  HW1   2834   2.404   0.190   2.234  0.9261  2.1275 -1.2789
  945SOL  HW2   2835   2.553   0.222   2.299  1.2182 -0.0505  0.4326
  946SOL  OW    2836   2.448   1.818   1.488  0.5051  0.5174  0.0177
  946SOL  HW1   2837   2.390   1.775   1.415  0.9232  1.9718 -2.9209
  946SOL  HW2   2838   2.509   1.891   1.454 -2.8537  1.5298 -0.8831
  947SOL  OW    2839   0.697   0.503   2.487 -0.3399 -0.5004  0.5402
  947SOL  HW1   2840   0.614   0.500   2.427 -0.3851  0.3683  1.6351
  947SOL  HW2   2841   0.663   0.501   2.582 -0.0716 -1.0521  1.3650
  948SOL  OW    2842   1.056   1.325   1.313  0.0643 -0.1775  0.7427
  948SOL  HW1   2843   1.009   1.318   1.227  3.0996 -1.8331  1.6542
  948SOL  HW2   2844   1.028   1.404   1.368  1.4399 -0.2063  3.2070
  949SOL  OW    2845   1.272   1.292   2.926  0.1494 -0.4322 -0.3586
  949SOL  HW1   2846   1.254   1.362   2.994 -2.6044  1.2560  1.3058
  949SOL  HW2   2847   1.350   1.321   2.864 -4.0140  1.5306 -1.4698
  950SOL  OW    2848   0.533   0.008   0.356  0.1040 -0.2906 -0.0202
  950SOL  HW1   2849   0.494   0.101   0.382  1.9109  0.4832  0.2170
  950SOL  HW2   2850   0.478   3.064   0.279  1.6432  2.3044 -1.1021
  951SOL  OW    2851   2.842   2.621   2.328 -0.6052 -0.9006  0.2639
  951SOL  HW1   2852   2.784   2.576   2.398 -1.3966  3.6475 -0.0686
  951SOL  HW2   2853   2.835   2.722   2.322  1.8774  0.7994  3.0753
  952SOL  OW    2854   1.225   2.562   0.577  0.2849 -0.0425 -0.2846
  952SOL  HW1   2855   1.145   2.513   0.624 -0.0268 -2.2730  0.1986
  952SOL  HW2   2856   1.305   2.498   0.572  0.6493  0.1634 -1.3259
  953SOL  OW    2857   2.374   2.668   0.634 -0.0450 -0.0907 -0.2629
  953SOL  HW1   2858   2.465   2.626   0.648 -1.5747  0.2235 -0.7825
  953SOL  HW2   2859   2.384   2.768   0.618  0.7674 -0.4309 -0.2470
  954SOL  OW    2860   1.873   0.119   0.202  0.4734 -0.7426 -0.0706
  954SOL  HW1   2861   1.922   0.207   0.168  1.4475 -0.8166  0.3939
  954SOL  HW2   2862   1.880   0.112   0.307  1.5990 -0.9515 -0.8719
  955SOL  OW    2863   0.665   1.204   2.360 -0.0387 -0.4870  0.2188
  955SOL  HW1   2864   0.686   1.251   2.448 -0.3208 -3.9278 -0.2721
  955SOL  HW2   2865   0.727   1.234   2.281 -1.3589  0.1378  3.5726
  956SOL  OW    2866   0.356   0.039   2.126  0.0942  0.0438 -0.2222
  956SOL  HW1   2867   0.271   3.079   2.116 -0.5204 -1.0069  1.0210
  956SOL  HW2   2868   0.435   0.016   2.058 -1.9666 -1.5522 -2.6050
  957SOL  OW    2869   1.786   2.370   1.493 -0.1732  0.1911 -0.4996
  957SOL  HW1   2870   1.686   2.381   1.518 -0.1015 -3.3659  0.3997
  957SOL  HW2   2871   1.832   2.460   1.482  0.6147  2.2218  0.2703
  958SOL  OW    2872   1.927   1.654   1.758 -0.4853  0.5420 -0.0722
  958SOL  HW1   2873   1.930   1.560   1.796 -1.0866  2.1239  1.7600
  958SOL  HW2   2874   1.847   1.704   1.797 -0.6011  0.8464  0.3607
  959SOL  OW    2875   1.141   1.903   2.005 -0.2421  0.1240 -0.4898
  959SOL  HW1   2876   1.197   1.986   2.026  2.3953  0.5534  2.2710
  959SOL  HW2   2877   1.190   1.830   2.054 -1.3031  2.6533 -0.7046
  960SOL  OW    2878   0.462   1.187   1.972  0.1917  0.0875 -0.0805
  960SOL  HW1   2879   0.391   1.180   2.043 -1.0909  1.0044  1.0491
  960SOL  HW2   2880   0.531   1.258   1.997 -0.9125 -1.1239  0.2357
  961SOL  OW    2881   2.134   0.792   0.220  0.1516  0.0715 -0.3092
  961SOL  HW1   2882   2.115   0.788   0.317 -1.4821 -2.2303  1.4254
  961SOL  HW2   2883   2.082   0.718   0.174  1.0473 -1.6919 -1.2129
  962SOL  OW    2884   0.634   1.140   0.243  0.7561  0.7243 -0.0150
  962SOL  HW1   2885   0.589   1.230   0.245  2.4160 -1.0697 -0.9886
  962SOL  HW2   2886   0.676   1.122   0.334 -0.1307 -0.7809  0.4977
  963SOL  OW    2887   0.250   1.918   1.169 -0.2263 -0.1129  0.2814
  963SOL  HW1   2888   0.304   1.927   1.253  0.6963  1.1448 -1.2478
  963SOL  HW2   2889   0.216   1.821   1.160  0.8086  2.5656 -0.8424
  964SOL  OW    2890   1.155   0.014   0.063  0.6247  0.3249  0.3672
  964SOL  HW1   2891   1.238   0.067   0.034  1.8985  0.5381 -1.7899
  964SOL  HW2   2892   1.142   3.025   0.013  1.2504 -1.4775  1.1167
  965SOL  OW    2893   1.206   1.359   0.459 -0.2990  0.2537 -0.0506
  965SOL  HW1   2894   1.163   1.337   0.367  1.0656 -0.3287 -1.7514
  965SOL  HW2   2895   1.287   1.418   0.442 -1.5042  2.0204 -3.6288
  966SOL  OW    2896   2.686   0.484   0.506  0.3215 -0.3100 -0.3999
  966SOL  HW1   2897   2.768   0.544   0.525  0.3034 -2.0784 -3.0374
  966SOL  HW2   2898   2.650   0.508   0.412  0.2434 -0.9640  0.9578
  967SOL  OW    2899   1.062   2.401   2.589 -0.2977  0.2657 -0.0194
  967SOL  HW1   2900   1.005   2.367   2.512 -0.0974  0.3417  2.9301
  967SOL  HW2   2901   1.081   2.333   2.665  0.3789 -2.5432 -2.6504
  968SOL  OW    2902   1.411   1.682   2.625  0.4721  0.2268 -0.5876
  968SOL  HW1   2903   1.439   1.611   2.694 -0.9654 -0.8600  0.0257
  968SOL  HW2   2904   1.469   1.764   2.644 -0.7141 -1.8255  0.4516
  969SOL  OW    2905   0.345   0.834   2.440 -0.2988 -0.3883  0.4625
  969SOL  HW1   2906   0.299   0.921   2.440 -0.7960  2.6979 -2.1143
  969SOL  HW2   2907   0.433   0.833   2.388 -0.6191 -0.5432  1.8685
  970SOL  OW    2908   1.606   2.040   1.451  0.1827 -0.2181 -0.0195
  970SOL  HW1   2909   1.565   1.981   1.379  1.6115 -1.1731 -1.0231
  970SOL  HW2   2910   1.707   2.014   1.455  0.6613  0.9137 -1.4251
  971SOL  OW    2911   0.943   1.638   2.867  0.0574 -0.0960 -0.3076
  971SOL  HW1   2912   0.869   1.570   2.856 -0.7883  1.7417  0.9471
  971SOL  HW2   2913   1.009   1.636   2.788 -1.0679  0.7405 -0.3088
  972SOL  OW    2914   3.000   2.271   2.897  0.2515  0.3808  0.5217
  972SOL  HW1   2915   2.951   2.355   2.880  0.3481 -1.2150  0.0306
  972SOL  HW2   2916   2.949   2.215   2.966  0.2590 -1.3239  0.1983
  973SOL  OW    2917   0.655   2.539   0.814  0.0296 -0.1155  0.2484
  973SOL  HW1   2918   0.750   2.564   0.825 -0.2160  1.6444 -0.9816
  973SOL  HW2   2919   0.642   2.440   0.832 -0.9968  0.1243  0.5929
  974SOL  OW    2920   0.370   0.884   1.680 -0.2328 -0.0198 -0.3147
  974SOL  HW1   2921   0.331   0.977   1.687  1.0759  0.9234  0.1869
  974SOL  HW2   2922   0.462   0.886   1.637  2.1741 -0.4961  0.0850
  975SOL  OW    2923   0.232   3.010   2.866 -0.1488 -0.1689 -0.4579
  975SOL  HW1   2924   0.278   2.955   2.936 -1.3948 -0.1711 -1.0118
  975SOL  HW2   2925   0.138   3.042   2.890 -0.5745  1.0608  1.8380
  976SOL  OW    2926   1.465   1.232   1.398  0.1180  0.1004 -0.2565
  976SOL  HW1   2927   1.520   1.304   1.445  1.1653 -1.7565 -0.5368
  976SOL  HW2   2928   1.365   1.243   1.417  0.9195  1.0126  1.5650
  977SOL  OW    2929   0.882   0.730   0.336  0.6428 -0.0969 -0.1376
  977SOL  HW1   2930   0.942   0.651   0.367  1.4348  0.9915 -2.8997
  977SOL  HW2   2931   0.928   0.820   0.365  0.3454  0.9798  1.2902
  978SOL  OW    2932   0.870   2.017   0.297 -0.0748  0.1015  0.1322
  978SOL  HW1   2933   0.876   1.915   0.284  0.3636  0.7082 -0.6592
  978SOL  HW2   2934   0.948   2.076   0.263  0.2939  1.1061  1.3948
  979SOL  OW    2935   2.240   2.900   2.880  0.2562  0.0124 -0.0737
  979SOL  HW1   2936   2.157   2.956   2.859  0.3042 -0.6077  2.3860
  979SOL  HW2   2937   2.279   2.934   2.967  2.6592  1.1899 -0.5968
  980SOL  OW    2938   1.161   0.812   1.816  0.2973 -0.1532  0.2294
  980SOL  HW1   2939   1.061   0.836   1.834 -1.1568  1.4028 -0.9802
  980SOL  HW2   2940   1.170   0.729   1.761  4.2797 -0.5877 -1.0240
  981SOL  OW    2941   2.047   1.857   1.615  0.5313 -0.3707 -0.1065
  981SOL  HW1   2942   2.142   1.878   1.644  0.1681 -1.7438 -2.8563
  981SOL  HW2   2943   2.004   1.800   1.686 -0.9526 -2.7077 -0.0681
  982SOL  OW    2944   0.314   3.066   2.599  0.4187  0.1432  0.0839
  982SOL  HW1   2945   0.240   3.048   2.533  1.9249 -0.7144  0.7901
  982SOL  HW2   2946   0.275   3.050   2.691 -1.7373  0.5163 -0.3449
  983SOL  OW    2947   2.989   2.951   1.384 -0.2320  0.2832  0.2470
  983SOL  HW1   2948   2.973   3.050   1.396  2.0820 -1.4805 -1.7149
  983SOL  HW2   2949   2.917   2.898   1.434 -1.5196 -0.2097 -0.0010
  984SOL  OW    2950   2.202   0.446   2.690  1.2001  0.1980  0.2852
  984SOL  HW1   2951   2.156   0.359   2.665 -2.6025  3.5439  0.7306
  984SOL  HW2   2952   2.217   0.501   2.605 -0.7610  1.1379  1.1419
  985SOL  OW    2953   1.467   1.893   1.938  0.4667  0.0282 -0.7332
  985SOL  HW1   2954   1.420   1.980   1.963 -0.2442 -2.2054 -3.5271
  985SOL  HW2   2955   1.449   1.824   2.011 -1.6071 -0.8794 -2.7777
  986SOL  OW    2956   1.627   0.233   2.984 -0.2110  0.2974 -0.1322
  986SOL  HW1   2957   1.618   0.189   3.072  0.0153  0.6715  0.6950
  986SOL  HW2   2958   1.694   0.311   2.982 -3.2227 -2.0052 -0.7522
  987SOL  OW    2959   0.966   1.866   2.529 -0.2053  0.8803 -0.3028
  987SOL  HW1   2960   0.911   1.938   2.586  2.2093 -0.1583 -1.5725
  987SOL  HW2   2961   0.957   1.767   2.559 -0.6439 -0.3985 -0.0982
  988SOL  OW    2962   2.935   0.803   0.397  0.0719  0.0091  0.2047
  988SOL  HW1   2963   3.007   0.873   0.370  0.9398 -1.8651  0.6074
  988SOL  HW2   2964   2.904   0.758   0.315 -2.7112  0.6156 -2.6816
  989SOL  OW    2965   1.864   2.866   3.013  0.3470  0.6105  0.2214
  989SOL  HW1   2966   1.900   2.913   0.001  0.7736 -0.3383  0.0443
  989SOL  HW2   2967   1.889   2.912   2.923  2.6732 -2.0256  1.7252
  990SOL  OW    2968   2.409   0.487   0.052  0.8675  0.0143  0.0062
  990SOL  HW1   2969   2.485   0.521   3.086 -1.5406  1.7137 -1.6784
  990SOL  HW2   2970   2.328   0.453   3.089 -0.9341  0.1443  1.8205
  991SOL  OW    2971   0.893   1.043   0.031  0.0850  0.4905  0.0758
  991SOL  HW1   2972   0.939   1.110   3.065 -0.6621  1.1113 -0.3326
  991SOL  HW2   2973   0.894   1.075   0.127  3.3647  2.3348 -0.7574
  992SOL  OW    2974   1.387   1.841   3.008  0.0367 -0.6914  0.8569
  992SOL  HW1   2975   1.368   1.779   3.085  1.0686  1.4515 -1.8580
  992SOL  HW2   2976   1.299   1.867   2.962 -1.7948 -2.1925  1.3219
  993SOL  OW    2977   0.614   1.855   1.085 -0.4965 -0.5259 -0.1460
  993SOL  HW1   2978   0.613   1.752   1.091 -4.2262 -0.8149 -0.2504
  993SOL  HW2   2979   0.541   1.893   1.023 -1.7653  0.6053  1.7704
  994SOL  OW    2980   2.761   1.377   1.849 -0.1645  0.0878 -0.3795
  994SOL  HW1   2981   2.828   1.442   1.803 -0.0502  0.0612  2.7420
  994SOL  HW2   2982   2.809   1.305   1.903 -0.6666  0.7785 -2.6279
  995SOL  OW    2983   2.866   0.137   0.283  0.0504 -0.6342 -0.1142
  995SOL  HW1   2984   2.889   0.062   0.218 -1.3816  0.3142  1.8200
  995SOL  HW2   2985   2.837   0.105   0.376 -0.0138  0.8863 -0.7869
  996SOL  OW    2986   1.768   2.605   0.034 -0.4215 -0.1747  0.6361
  996SOL  HW1   2987   1.804   2.688   3.085 -0.9503  0.4067  0.1748
  996SOL  HW2   2988   1.720   2.544   3.063 -0.5603  2.5198 -0.5488
  997SOL  OW    2989   0.797   1.648   2.304  0.0610 -0.0494  0.0781
  997SOL  HW1   2990   0.854   1.721   2.265 -0.0302 -0.1728 -1.1644
  997SOL  HW2   2991   0.709   1.632   2.255  1.3596 -1.4858 -0.6451
  998SOL  OW    2992   2.793   2.746   1.157 -0.4519  0.3326  0.0053
  998SOL  HW1   2993   2.872   2.697   1.120 -1.2569 -0.6051 -0.0647
  998SOL  HW2   2994   2.723   2.763   1.085  2.9771 -0.3846 -3.8453
  999SOL  OW    2995   1.481   2.986   2.702  0.0178  0.0714 -0.4825
  999SOL  HW1   2996   1.434   2.981   2.610 -2.3562  1.2033  0.8126
  999SOL  HW2   2997   1.425   2.956   2.781  0.6900 -0.8597  1.1027
 1000SOL  OW    2998   0.769   2.914   0.843 -0.5070  0.5051  0.3825
 1000SOL  HW1   2999   0.778   2.944   0.744  1.1474 -1.2482 -2.2332
 1000SOL  HW2   3000   0.795   2.996   0.901 -1.4574 -1.2193  0.9132
    3.095540047     3.095540047     3.095540047     0.000000000     0.000000000     0.000000000     0.000000000     0.000000000     0.000000000
