1000 SPC/Fw water molecules t=  76.00000 step= 76000
 3000
    1SOL     OW    1   1.836   2.693   0.718 -0.3143  0.1364  0.0083
    1SOL    HW1    2   1.798   2.635   0.645  0.7101 -1.5690  1.5666
    1SOL    HW2    3   1.875   2.784   0.693 -1.9069  0.3417  0.1623
    2SOL     OW    4   0.785   1.202   2.205 -0.3588 -0.6300  0.2633
    2SOL    HW1    5   0.717   1.135   2.243  0.5885  2.2868  0.6786
    2SOL    HW2    6   0.752   1.300   2.217  2.9339  2.1277  1.6905
    3SOL     OW    7   1.489   2.866   2.527  0.0861  0.6220  0.1504
    3SOL    HW1    8   1.572   2.878   2.576 -1.4020  0.8647 -1.0121
    3SOL    HW2    9   1.456   2.769   2.542 -3.7906  2.2719  2.4595
    4SOL     OW   10   1.109   1.850   2.780  0.2128 -0.2458 -0.3194
    4SOL    HW1   11   1.194   1.887   2.751 -4.5855 -1.2076 -0.8035
    4SOL    HW2   12   1.127   1.757   2.819 -0.3191 -0.7956 -0.1078
    5SOL     OW   13   0.614   0.756   1.678 -0.1695 -0.4609 -0.1107
    5SOL    HW1   14   0.661   0.818   1.613  2.6750  1.0820  0.1055
    5SOL    HW2   15   0.579   0.811   1.758  1.7161 -0.6427 -1.7543
    6SOL     OW   16   1.865   0.475   2.714  0.3596  0.2703 -0.5839
    6SOL    HW1   17   1.913   0.502   2.627 -2.1913 -0.7388  2.8011
    6SOL    HW2   18   1.784   0.417   2.691  1.7187 -0.9534  1.3557
    7SOL     OW   19   0.394   0.144   1.481 -0.0068  0.1839  0.1821
    7SOL    HW1   20   0.317   0.201   1.439 -4.5573  1.1319  1.1004
    7SOL    HW2   21   0.399   0.168   1.580  0.6536 -2.5368  0.7500
    8SOL     OW   22   1.818   0.122   1.767  0.4687 -0.6573 -0.1686
    8SOL    HW1   23   1.853   0.034   1.798 -0.0506  2.1255 -1.9934
    8SOL    HW2   24   1.896   0.190   1.772  0.3984 -0.3294 -0.5100
    9SOL     OW   25   0.365   3.085   0.577 -0.2117 -0.2720  0.1953
    9SOL    HW1   26   0.406   3.029   0.655 -1.0369 -0.6161  0.9518
    9SOL    HW2   27   0.265   3.090   0.594 -4.8119  1.5341 -0.9919
   10SOL     OW   28   0.440   2.282   2.356  0.2338  0.0445 -0.5754
   10SOL    HW1   29   0.522   2.304   2.414  1.0045 -2.7497  0.6546
   10SOL    HW2   30   0.455   2.319   2.259 -1.8334  1.8570  0.4828
   11SOL     OW   31   0.558   1.523   0.154 -0.0801 -0.2690  0.1461
   11SOL    HW1   32   0.553   1.461   0.074 -0.3817 -1.2849 -0.6687
   11SOL    HW2   33   0.615   1.482   0.226 -2.4599 -1.4233  1.7285
   12SOL     OW   34   2.894   2.863   1.315  0.1111 -0.0275  0.1324
   12SOL    HW1   35   2.882   2.932   1.242  0.0271 -3.2211  1.8014
   12SOL    HW2   36   2.970   2.798   1.290 -0.2173 -3.3197  0.3332
   13SOL     OW   37   0.830   2.764   0.402 -0.0926  0.1598 -0.9974
   13SOL    HW1   38   0.801   2.731   0.312  1.9150 -0.6965  1.9717
   13SOL    HW2   39   0.865   2.858   0.392 -0.0715 -1.5009  1.6002
   14SOL     OW   40   1.496   1.682   1.391  0.0547 -0.0825 -0.0353
   14SOL    HW1   41   1.454   1.620   1.324 -1.7897  0.9259 -2.1283
   14SOL    HW2   42   1.599   1.682   1.388  1.4069  1.9776  2.0715
   15SOL     OW   43   3.053   1.832   2.619 -0.8014  0.4011 -0.2284
   15SOL    HW1   44   2.998   1.883   2.687 -1.5597  1.7386  2.0815
   15SOL    HW2   45   3.080   1.743   2.666  1.8198 -1.8011  0.1753
   16SOL     OW   46   1.513   0.638   2.657  0.2216  0.4260 -0.4238
   16SOL    HW1   47   1.527   0.719   2.598 -0.4592  1.4815 -0.6532
   16SOL    HW2   48   1.581   0.637   2.734 -0.9101  1.1452 -2.7804
   17SOL     OW   49   2.979   2.264   2.442 -0.1690  0.0834  0.3897
   17SOL    HW1   50   3.053   2.322   2.472  0.4593 -1.7376  1.4718
   17SOL    HW2   51   3.021   2.196   2.377  0.5760 -2.0580  2.6992
   18SOL     OW   52   1.016   1.287   0.774 -0.5680 -0.2284  0.3672
   18SOL    HW1   53   1.037   1.374   0.721  0.3824  1.3158  1.9860
   18SOL    HW2   54   1.049   1.299   0.870 -0.4236  1.2157  0.3992
   19SOL     OW   55   2.716   1.840   2.505 -0.9605  0.1912  0.0752
   19SOL    HW1   56   2.805   1.846   2.452  0.6120  1.0287 -0.8000
   19SOL    HW2   57   2.647   1.795   2.453  0.2936  0.8638  2.4203
   20SOL     OW   58   2.306   2.126   2.536 -0.5125  0.6493 -0.5874
   20SOL    HW1   59   2.382   2.194   2.504  1.1094  3.7336 -1.5124
   20SOL    HW2   60   2.217   2.169   2.569 -0.9681 -0.7263  1.4617
   21SOL     OW   61   1.364   1.701   0.235  0.4889 -0.2938 -0.4050
   21SOL    HW1   62   1.308   1.617   0.256 -1.8978  1.4137 -1.3006
   21SOL    HW2   63   1.407   1.742   0.318  1.0807  0.1428  0.4451
   22SOL     OW   64   2.189   2.253   1.545  0.2887 -0.2088 -0.4773
   22SOL    HW1   65   2.247   2.313   1.491 -3.1062 -3.9985  1.2105
   22SOL    HW2   66   2.089   2.285   1.539 -4.0614  0.8107  0.5252
   23SOL     OW   67   0.050   1.261   1.015 -0.2214 -0.2816  0.3166
   23SOL    HW1   68   0.049   1.158   1.024 -2.7934  2.1642  0.7041
   23SOL    HW2   69   0.139   1.297   0.979 -1.5693 -0.7193  1.7744
   24SOL     OW   70   2.345   1.557   2.127 -0.2425  0.2689  0.6294
   24SOL    HW1   71   2.277   1.520   2.198 -0.9275  0.0224 -0.1121
   24SOL    HW2   72   2.433   1.584   2.167 -2.5833  0.7885 -0.4777
   25SOL     OW   73   1.982   0.264   2.433 -0.2840  0.0060 -0.2787
   25SOL    HW1   74   2.075   0.222   2.442 -3.0716  0.0894  0.2579
   25SOL    HW2   75   1.980   0.347   2.375 -2.5649  2.7787 -0.4954
   26SOL     OW   76   1.030   3.087   0.641 -0.0169 -0.0469  0.5860
   26SOL    HW1   77   1.049   0.040   0.550  0.9383 -0.1248 -2.9276
   26SOL    HW2   78   1.044   0.068   0.708  0.4784 -2.5236  0.0116
   27SOL     OW   79   0.761   1.534   0.586  0.0169  0.8027  0.0924
   27SOL    HW1   80   0.679   1.582   0.561  2.3698 -3.9857 -0.8681
   27SOL    HW2   81   0.735   1.459   0.650 -0.8256  0.2343  0.0306
   28SOL     OW   82   2.310   2.053   1.106  0.6454 -0.0664  0.7177
   28SOL    HW1   83   2.365   2.003   1.174 -2.3583  0.4454 -1.3723
   28SOL    HW2   84   2.210   2.063   1.139 -1.7084  1.5391  0.7285
   29SOL     OW   85   2.231   3.006   1.635  0.4708 -0.1412 -0.0286
   29SOL    HW1   86   2.141   2.957   1.654  1.5590  1.1304  1.5443
   29SOL    HW2   87   2.282   3.028   1.720  3.1914  2.9425  2.6026
   30SOL     OW   88   0.825   2.931   1.150 -0.0042  0.4898 -0.4961
   30SOL    HW1   89   0.802   2.879   1.237 -0.2044  1.8536  1.4557
   30SOL    HW2   90   0.877   3.014   1.173  3.1323 -2.0255 -0.0158
   31SOL     OW   91   3.040   2.016   1.957  0.0823  0.1054 -0.5362
   31SOL    HW1   92   3.064   1.926   1.987 -0.9022  3.5399 -1.3437
   31SOL    HW2   93   2.942   2.037   1.964  2.8372  1.1870 -0.6087
   32SOL     OW   94   1.278   1.569   1.989 -0.3831 -0.3727 -0.6556
   32SOL    HW1   95   1.188   1.600   1.946 -1.8837 -0.1493 -0.2655
   32SOL    HW2   96   1.328   1.649   2.025 -0.2174 -0.4228 -0.3369
   33SOL     OW   97   0.247   0.019   3.038  0.1626  0.9583  0.4059
   33SOL    HW1   98   0.149   0.032   3.030  2.2146 -1.0739  0.9146
   33SOL    HW2   99   0.287   0.001   2.945  1.4328  1.4695  2.7646
   34SOL     OW  100   2.514   2.978   0.516 -0.2887  0.0196  0.6010
   34SOL    HW1  101   2.475   3.013   0.603 -2.7112 -0.5586  0.7960
   34SOL    HW2  102   2.516   2.878   0.527  0.5334  0.3033  0.8843
   35SOL     OW  103   2.695   0.096   1.452  0.4131 -0.0309 -0.3936
   35SOL    HW1  104   2.705   0.181   1.502  0.7293  0.5644  1.2798
   35SOL    HW2  105   2.607   0.060   1.488  1.3914  1.0700 -1.0492
   36SOL     OW  106   2.704   2.760   2.658  0.1634  0.4586 -0.1999
   36SOL    HW1  107   2.732   2.835   2.721 -0.1599 -1.1661 -1.8922
   36SOL    HW2  108   2.785   2.733   2.602  1.9144  0.2722 -0.5414
   37SOL     OW  109   1.577   2.665   2.869  0.1108  0.0715 -0.4933
   37SOL    HW1  110   1.651   2.726   2.905  2.1511 -0.5704 -1.3120
   37SOL    HW2  111   1.524   2.623   2.955 -0.5454 -3.1190  0.8523
   38SOL     OW  112   2.920   0.923   2.985  0.4552  0.1197  0.2588
   38SOL    HW1  113   2.818   0.930   3.004  1.1157  0.6093  2.9340
   38SOL    HW2  114   2.966   0.989   3.044  2.0703  0.2468  1.0071
   39SOL     OW  115   1.715   1.756   2.007  0.0614 -0.1340 -0.3342
   39SOL    HW1  116   1.772   1.801   2.085  2.6864  2.4197 -0.0257
   39SOL    HW2  117   1.688   1.659   2.029 -1.1457  3.3777  0.0848
   40SOL     OW  118   0.396   0.192   2.583 -0.2442 -0.4844  0.2750
   40SOL    HW1  119   0.326   0.128   2.623 -1.1724 -1.6999  0.7442
   40SOL    HW2  120   0.419   0.264   2.653 -0.6260 -0.4825 -1.3831
   41SOL     OW  121   1.743   1.311   1.953  0.4316 -0.3187 -0.2461
   41SOL    HW1  122   1.715   1.385   2.017 -1.0935 -0.5243 -0.2630
   41SOL    HW2  123   1.718   1.336   1.857  0.7431 -0.5869  0.9254
   42SOL     OW  124   0.087   0.352   1.722 -0.7727  0.0205 -0.0869
   42SOL    HW1  125   0.135   0.354   1.627  4.4064  0.1264  0.3934
   42SOL    HW2  126   0.151   0.303   1.787  0.5186 -0.8374 -0.4610
   43SOL     OW  127   1.423   1.350   2.000  0.2483 -0.3968 -0.0963
   43SOL    HW1  128   1.412   1.273   1.935 -3.4636  0.2857 -1.5655
   43SOL    HW2  129   1.348   1.422   1.982 -0.5784  1.7694 -0.0605
   44SOL     OW  130   3.042   0.207   0.128 -0.4117 -0.2772 -0.1178
   44SOL    HW1  131   3.047   0.138   0.047 -0.5888 -0.5665 -1.6767
   44SOL    HW2  132   2.944   0.220   0.149  1.1684  1.2899 -0.5072
   45SOL     OW  133   0.256   2.017   0.910  0.2324 -0.1187 -0.0830
   45SOL    HW1  134   0.317   2.099   0.928 -2.1991 -2.1467  2.7129
   45SOL    HW2  135   0.312   1.932   0.910 -1.2931  1.3559 -0.0758
   46SOL     OW  136   2.383   2.728   1.738 -0.3561 -0.3079 -0.2608
   46SOL    HW1  137   2.370   2.823   1.763  0.9497  0.2998 -1.1609
   46SOL    HW2  138   2.482   2.716   1.722 -0.3023  0.2583  0.8305
   47SOL     OW  139   0.677   1.661   1.221  0.3668  0.5830  0.2591
   47SOL    HW1  140   0.739   1.586   1.198  2.3343  0.7937 -1.1290
   47SOL    HW2  141   0.672   1.733   1.148  0.4998 -1.3580  0.0890
   48SOL     OW  142   0.529   2.546   0.327  0.0988 -0.4974  0.1424
   48SOL    HW1  143   0.581   2.610   0.390  0.8195 -0.0890 -0.7731
   48SOL    HW2  144   0.566   2.561   0.231  3.1472  2.3418 -4.0841
   49SOL     OW  145   2.772   1.463   1.602  0.5940  0.2658  0.4188
   49SOL    HW1  146   2.726   1.509   1.682 -1.1182  0.3691 -0.8021
   49SOL    HW2  147   2.764   1.363   1.622 -1.1742  0.1682  2.2921
   50SOL     OW  148   1.722   0.818   0.612  0.2583 -0.2634 -0.2657
   50SOL    HW1  149   1.798   0.786   0.553 -2.7358  1.4036 -0.3651
   50SOL    HW2  150   1.757   0.829   0.711  1.4897  0.5397 -0.5499
   51SOL     OW  151   1.187   0.634   1.072 -0.7663 -0.5946 -0.0537
   51SOL    HW1  152   1.241   0.709   1.118  3.0274  1.9768  0.2433
   51SOL    HW2  153   1.109   0.609   1.130 -0.3499  5.1103 -0.0544
   52SOL     OW  154   0.988   1.409   0.357  0.0699  0.0418  0.3919
   52SOL    HW1  155   1.004   1.327   0.415 -2.0350  2.4549 -1.0131
   52SOL    HW2  156   0.897   1.451   0.382 -0.1020 -0.0621  0.0629
   53SOL     OW  157   1.316   0.088   2.548  0.0917 -0.3109  0.1634
   53SOL    HW1  158   1.341   0.049   2.638  2.7941 -0.3416 -1.1367
   53SOL    HW2  159   1.254   0.021   2.500 -2.0643 -1.0841  0.2606
   54SOL     OW  160   1.787   0.928   1.622  0.1514 -0.3203 -0.3706
   54SOL    HW1  161   1.722   0.948   1.547 -0.6725  2.4466 -1.5336
   54SOL    HW2  162   1.881   0.937   1.591 -1.8061  0.7435  0.3576
   55SOL     OW  163   2.769   2.715   0.420  0.0015  0.0540 -0.1701
   55SOL    HW1  164   2.825   2.651   0.480  0.0387  0.3849  0.5881
   55SOL    HW2  165   2.674   2.705   0.453 -1.3143 -0.1620  1.3798
   56SOL     OW  166   1.012   2.538   1.982  0.0188  0.2900 -0.3739
   56SOL    HW1  167   1.081   2.464   2.006 -0.5490 -0.6600 -1.0181
   56SOL    HW2  168   0.967   2.516   1.895 -0.1817 -1.7633  0.3683
   57SOL     OW  169   1.836   0.895   2.579  0.6134 -0.0043  0.3998
   57SOL    HW1  170   1.826   0.865   2.674 -0.0932  0.1510 -3.5619
   57SOL    HW2  171   1.745   0.897   2.533 -3.1564 -2.0534  0.4696
   58SOL     OW  172   0.202   1.133   2.151 -0.1210 -0.5768 -0.1999
   58SOL    HW1  173   0.105   1.147   2.126 -0.8937 -0.5150 -0.0702
   58SOL    HW2  174   0.236   1.052   2.096 -2.1034 -0.7060 -0.9196
   59SOL     OW  175   0.511   2.599   2.275  0.1339 -0.6519  0.5223
   59SOL    HW1  176   0.568   2.654   2.211 -0.1132  2.1776  1.1963
   59SOL    HW2  177   0.476   2.520   2.221  0.1642 -0.1864 -1.9719
   60SOL     OW  178   2.537   2.349   0.301  0.0423  0.6413 -0.6426
   60SOL    HW1  179   2.598   2.337   0.382 -0.4433 -0.7705  0.3876
   60SOL    HW2  180   2.587   2.324   0.216 -1.0315  0.8274 -0.6169
   61SOL     OW  181   0.950   2.578   0.589 -0.2069 -0.1841  0.0098
   61SOL    HW1  182   1.008   2.528   0.518  2.1756  0.5070 -0.0103
   61SOL    HW2  183   0.914   2.665   0.556 -0.5905  0.3780  3.9071
   62SOL     OW  184   1.645   2.266   2.720  0.1350  0.0355  0.0201
   62SOL    HW1  185   1.665   2.216   2.634 -0.7095  0.9379 -2.6286
   62SOL    HW2  186   1.562   2.225   2.774 -0.5201 -0.0698  5.1803
   63SOL     OW  187   2.095   0.642   0.027  0.2172  0.3425  0.3426
   63SOL    HW1  188   2.092   0.586   3.034  0.7528 -0.6175 -0.7519
   63SOL    HW2  189   2.189   0.677   0.046  0.6631  2.7906  1.5212
   64SOL     OW  190   0.940   1.438   2.744  0.2724 -0.4521 -0.2420
   64SOL    HW1  191   0.860   1.485   2.785  1.5672 -1.6400 -0.6392
   64SOL    HW2  192   0.973   1.367   2.808 -1.3394  1.2325 -0.8684
   65SOL     OW  193   1.045   3.067   1.280  0.4091  0.2824  0.5784
   65SOL    HW1  194   1.104   2.981   1.267 -2.6002 -1.7993 -2.2883
   65SOL    HW2  195   1.085   0.057   1.232  3.3263  1.0926  1.3522
   66SOL     OW  196   0.563   1.471   1.543 -0.0211  0.3360  0.3064
   66SOL    HW1  197   0.522   1.389   1.505 -1.5490  0.4124  1.9517
   66SOL    HW2  198   0.661   1.456   1.550 -1.7779  0.0442  0.2372
   67SOL     OW  199   2.368   2.577   1.994  0.5653 -0.0348 -0.2301
   67SOL    HW1  200   2.418   2.630   2.068 -1.3635  0.6449 -0.5373
   67SOL    HW2  201   2.378   2.622   1.902  0.7409  1.9257 -0.1400
   68SOL     OW  202   0.860   0.990   1.794 -0.3063  0.0275 -0.5086
   68SOL    HW1  203   0.847   0.985   1.897  0.7972  0.0166  1.2411
   68SOL    HW2  204   0.779   1.019   1.742  0.4806  0.3848  1.2810
   69SOL     OW  205   2.611   2.593   3.086 -0.6149 -0.3009 -0.1961
   69SOL    HW1  206   2.668   2.664   0.042  1.8168  1.4164  1.0634
   69SOL    HW2  207   2.514   2.629   3.079 -0.5811  0.1817  0.5880
   70SOL     OW  208   2.455   0.531   2.797  0.3452 -0.3538 -0.1113
   70SOL    HW1  209   2.424   0.470   2.871  2.3769  1.1021 -0.7135
   70SOL    HW2  210   2.544   0.580   2.823  2.0963  1.2408 -0.4302
   71SOL     OW  211   0.046   2.221   0.443 -0.0110  0.0332 -0.2364
   71SOL    HW1  212   3.062   2.228   0.375  0.1701  1.2214  1.7277
   71SOL    HW2  213   0.136   2.213   0.396  0.6577 -0.4862  0.0077
   72SOL     OW  214   2.731   1.880   0.388  0.2096 -0.3123 -0.5514
   72SOL    HW1  215   2.759   1.792   0.340 -2.6757 -2.1257 -1.0533
   72SOL    HW2  216   2.727   1.954   0.324 -1.5978 -2.5593  0.4537
   73SOL     OW  217   1.039   0.513   0.671  0.4032 -0.0021 -0.4499
   73SOL    HW1  218   1.134   0.475   0.672 -0.5113  2.3419 -0.8427
   73SOL    HW2  219   1.004   0.543   0.763  0.4636  0.5203  0.4437
   74SOL     OW  220   2.890   2.303   2.024  0.0353 -0.0353 -0.1384
   74SOL    HW1  221   2.988   2.276   2.033  0.3284  2.3603 -0.0115
   74SOL    HW2  222   2.885   2.366   1.943  1.4944 -0.1362 -0.5903
   75SOL     OW  223   1.701   1.808   1.749 -0.1535  0.2999  0.0048
   75SOL    HW1  224   1.703   1.812   1.849 -0.9610  1.0142  0.9409
   75SOL    HW2  225   1.615   1.767   1.712  2.1448  1.9966  0.5944
   76SOL     OW  226   1.271   2.097   1.284  0.0560 -0.1595 -0.2383
   76SOL    HW1  227   1.254   2.159   1.206  2.1516  1.1437  0.5059
   76SOL    HW2  228   1.189   2.100   1.347 -1.7709  0.1478  2.3505
   77SOL     OW  229   2.789   1.733   1.876  0.3308 -0.4015  0.2968
   77SOL    HW1  230   2.775   1.632   1.890 -1.1934 -2.1718 -1.7252
   77SOL    HW2  231   2.809   1.784   1.961 -0.2615 -2.5947  4.1926
   78SOL     OW  232   1.616   0.492   0.833  0.1628 -0.9281  0.3293
   78SOL    HW1  233   1.590   0.405   0.876 -1.6742 -0.5522  0.4764
   78SOL    HW2  234   1.596   0.577   0.890 -0.5650  0.4449  2.9077
   79SOL     OW  235   1.983   1.491   1.718 -0.3118 -0.0403 -0.5242
   79SOL    HW1  236   2.027   1.405   1.688 -0.9100  0.3447 -0.9632
   79SOL    HW2  237   1.987   1.512   1.819 -0.0293  3.4767  0.8413
   80SOL     OW  238   1.369   0.348   1.198 -0.2119 -0.6047  0.0528
   80SOL    HW1  239   1.399   0.249   1.199  1.6833 -1.8190 -0.2693
   80SOL    HW2  240   1.332   0.389   1.287  0.6940  1.1203  1.6024
   81SOL     OW  241   0.738   2.366   0.579  0.3518 -0.0296  0.4448
   81SOL    HW1  242   0.801   2.444   0.580 -2.6439 -1.2822  0.5451
   81SOL    HW2  243   0.787   2.281   0.610 -0.2849 -1.0152 -0.1132
   82SOL     OW  244   1.527   0.502   1.890 -0.5601  0.3791 -0.3163
   82SOL    HW1  245   1.595   0.544   1.832  0.7069 -0.0830  1.8910
   82SOL    HW2  246   1.437   0.529   1.853  1.9662  1.4932  1.4334
   83SOL     OW  247   0.352   2.029   0.606  0.2235 -0.0416 -0.3146
   83SOL    HW1  248   0.306   2.055   0.522  1.2115 -1.6503  2.1415
   83SOL    HW2  249   0.315   2.086   0.681 -0.0614 -0.2077 -3.6187
   84SOL     OW  250   2.618   1.266   3.048  0.4887  0.6827 -0.2730
   84SOL    HW1  251   2.699   1.317   3.014 -0.3181  0.6157 -0.5975
   84SOL    HW2  252   2.531   1.318   3.033  1.3921 -1.5331  0.2763
   85SOL     OW  253   2.877   2.469   1.529 -0.1812 -0.2645  0.1510
   85SOL    HW1  254   2.838   2.561   1.501 -0.5542  0.7551  1.1747
   85SOL    HW2  255   2.861   2.402   1.455  1.3670  1.0542 -3.0468
   86SOL     OW  256   1.661   2.856   0.956 -0.5789  0.0327 -0.0899
   86SOL    HW1  257   1.727   2.931   0.954  1.0775 -0.7090  1.0213
   86SOL    HW2  258   1.714   2.772   0.940 -1.4963  4.6718  1.5490
   87SOL     OW  259   2.739   1.470   0.506  0.2436  0.2104  0.3524
   87SOL    HW1  260   2.669   1.495   0.435  2.8673  0.8639 -1.6068
   87SOL    HW2  261   2.716   1.383   0.557 -1.2201  2.2198  0.0608
   88SOL     OW  262   0.979   0.527   1.203  0.0755 -0.2638  0.1301
   88SOL    HW1  263   1.020   0.498   1.294 -0.0952 -2.5123  1.1388
   88SOL    HW2  264   0.954   0.442   1.150  0.0506 -2.2565 -3.6145
   89SOL     OW  265   0.884   2.791   1.963  0.5768  0.0648 -0.0883
   89SOL    HW1  266   0.856   2.837   1.875  0.0060  1.7308  0.8997
   89SOL    HW2  267   0.942   2.710   1.948 -0.4087  1.8623 -0.8541
   90SOL     OW  268   0.033   1.713   1.119 -0.4156 -0.8903  0.7147
   90SOL    HW1  269   3.063   1.692   1.035 -0.4071  1.3275  0.1260
   90SOL    HW2  270   0.056   1.811   1.130  1.2995  0.9949 -0.0348
   91SOL     OW  271   1.212   1.710   1.157  0.3155  0.1195 -0.2878
   91SOL    HW1  272   1.177   1.699   1.252 -1.4992 -0.8466 -0.2598
   91SOL    HW2  273   1.218   1.623   1.107  1.6648 -0.4461  0.9974
   92SOL     OW  274   2.759   2.840   1.778  0.2585 -0.3625 -0.1237
   92SOL    HW1  275   2.718   2.753   1.746  1.0164  1.9477  0.0649
   92SOL    HW2  276   2.699   2.888   1.847 -1.2029 -2.0423 -1.2048
   93SOL     OW  277   3.034   1.194   2.822  0.0138 -0.1620 -0.2739
   93SOL    HW1  278   2.934   1.190   2.793 -1.3733  0.7030  0.8219
   93SOL    HW2  279   0.001   1.117   2.784  2.7416 -1.2795 -0.5565
   94SOL     OW  280   2.376   2.976   1.881  0.1700  0.0859  0.3756
   94SOL    HW1  281   2.312   2.944   1.958  0.1027  0.6020  1.1419
   94SOL    HW2  282   2.466   3.006   1.917  1.4043  2.2000 -1.1157
   95SOL     OW  283   1.690   0.959   2.162 -0.0877 -0.6015  0.1309
   95SOL    HW1  284   1.609   0.914   2.205  0.0623 -1.7688  0.8519
   95SOL    HW2  285   1.687   0.970   2.060  0.6113 -0.6320  1.3085
   96SOL     OW  286   2.606   0.875   1.653  0.4772 -0.1697 -0.0427
   96SOL    HW1  287   2.693   0.840   1.692  1.2031 -0.0250 -0.9787
   96SOL    HW2  288   2.618   0.910   1.558 -1.3802 -0.4303 -2.4413
   97SOL     OW  289   2.458   3.058   1.515  0.3716  0.3851  0.8535
   97SOL    HW1  290   2.499   2.983   1.457  0.3639 -1.0927 -1.6221
   97SOL    HW2  291   2.366   3.027   1.549 -0.7302  1.5561 -0.9657
   98SOL     OW  292   2.137   2.561   1.355  0.1090  0.0035 -0.5181
   98SOL    HW1  293   2.229   2.600   1.384 -2.8875 -1.6733  0.8008
   98SOL    HW2  294   2.078   2.546   1.436 -2.4584  1.1832  0.0584
   99SOL     OW  295   2.729   0.321   1.585 -0.0253  0.2510 -0.0562
   99SOL    HW1  296   2.685   0.383   1.655 -0.8033  1.1147  3.6303
   99SOL    HW2  297   2.811   0.283   1.638  0.5632 -1.3049 -2.6562
  100SOL     OW  298   2.268   1.754   1.930 -0.4432  0.6003  0.6129
  100SOL    HW1  299   2.307   1.660   1.930  1.4707  2.3660 -2.1490
  100SOL    HW2  300   2.188   1.770   1.998 -0.1004  0.5846 -0.3789
  101SOL     OW  301   2.068   3.022   0.238  0.5083  0.2186 -0.3722
  101SOL    HW1  302   2.167   3.022   0.259  1.8781 -0.5145 -1.0327
  101SOL    HW2  303   2.035   0.028   0.249  0.1475 -1.5989  0.6745
  102SOL     OW  304   0.541   0.628   1.149 -0.1449 -0.1122  0.2044
  102SOL    HW1  305   0.516   0.598   1.241 -3.0426  1.5860  1.9294
  102SOL    HW2  306   0.462   0.626   1.088  3.9935 -2.2333  2.5804
  103SOL     OW  307   2.564   3.064   2.529  0.1194 -0.5308  0.0306
  103SOL    HW1  308   2.566   0.019   2.620  2.7135 -0.6330  1.6762
  103SOL    HW2  309   2.514   2.980   2.527  0.8169  2.5207 -0.8033
  104SOL     OW  310   3.033   2.862   1.847  0.1319 -0.4451  0.1705
  104SOL    HW1  311   3.053   2.764   1.874  0.8090 -2.8610 -1.4889
  104SOL    HW2  312   2.932   2.862   1.830 -1.4931 -0.8367 -0.9241
  105SOL     OW  313   1.312   0.957   2.042  0.0191  0.0378 -0.5258
  105SOL    HW1  314   1.241   1.032   2.041 -0.1584  0.0303 -1.6292
  105SOL    HW2  315   1.265   0.867   2.036 -0.9089 -1.1265  1.3219
  106SOL     OW  316   1.882   0.484   0.835 -0.4447  0.2047 -0.1545
  106SOL    HW1  317   1.906   0.493   0.932 -0.0200  0.7483 -1.5647
  106SOL    HW2  318   1.786   0.467   0.821  1.5968 -0.2136 -0.2910
  107SOL     OW  319   0.650   1.052   1.299  0.8644 -0.4601 -0.2751
  107SOL    HW1  320   0.577   1.046   1.227  1.8108  1.7619  1.5098
  107SOL    HW2  321   0.740   1.062   1.252  0.1005 -1.1302 -1.0917
  108SOL     OW  322   0.001   0.310   2.318  0.5345  0.3029 -0.0838
  108SOL    HW1  323   3.082   0.299   2.217 -3.3760 -1.5990  0.7180
  108SOL    HW2  324   0.024   0.220   2.359  0.2109  1.3354  0.6455
  109SOL     OW  325   1.927   2.972   0.008 -0.0302  0.3538 -0.5449
  109SOL    HW1  326   1.999   2.974   0.086  1.5198 -1.2853  0.9548
  109SOL    HW2  327   1.887   3.066   3.078 -0.8022 -0.0732 -1.5959
  110SOL     OW  328   3.050   1.577   2.770  0.1452 -0.2293 -0.3887
  110SOL    HW1  329   2.966   1.515   2.764 -1.1895 -0.0250  0.0649
  110SOL    HW2  330   3.074   1.611   2.865  0.9513  1.7295 -1.3256
  111SOL     OW  331   2.576   0.198   2.347  0.3057  0.1021  0.2963
  111SOL    HW1  332   2.575   0.267   2.427  0.6670 -0.4878  2.0888
  111SOL    HW2  333   2.591   0.101   2.380  2.3038 -1.8807  0.7967
  112SOL     OW  334   2.624   2.826   1.079 -0.4422  0.0936  0.1850
  112SOL    HW1  335   2.680   2.744   1.051 -0.0135 -0.4739 -1.0349
  112SOL    HW2  336   2.643   2.906   1.019 -1.5596  0.2237  3.4570
  113SOL     OW  337   2.207   2.179   2.169  0.0227  0.2346 -0.4068
  113SOL    HW1  338   2.265   2.114   2.116  1.8372 -2.0036 -2.5273
  113SOL    HW2  339   2.110   2.145   2.177  0.0298  3.7148  4.3253
  114SOL     OW  340   2.699   0.091   0.444  0.2572  0.7639  0.8038
  114SOL    HW1  341   2.629   0.017   0.465 -2.4893  1.0720  0.4212
  114SOL    HW2  342   2.773   0.093   0.511 -1.0758 -1.0465 -1.0349
  115SOL     OW  343   2.747   1.845   3.084  0.1308 -0.0435  0.4259
  115SOL    HW1  344   2.792   1.783   0.061  1.0422  1.5649 -1.0267
  115SOL    HW2  345   2.783   1.819   2.992  0.7070 -1.2676 -1.5441
  116SOL     OW  346   3.008   1.458   1.908 -0.0855 -0.0736 -0.4619
  116SOL    HW1  347   3.075   1.434   1.836 -0.1944  0.2951 -1.3122
  116SOL    HW2  348   3.032   1.411   1.994 -0.3714 -2.8364  1.1828
  117SOL     OW  349   2.199   0.113   0.924  0.1350  0.2276 -0.2589
  117SOL    HW1  350   2.176   0.011   0.932  0.5816  0.7726  0.7048
  117SOL    HW2  351   2.149   0.170   0.990 -0.3668  4.1794 -1.4695
  118SOL     OW  352   0.027   2.214   1.801 -0.2643  0.0014  0.4478
  118SOL    HW1  353   3.085   2.145   1.864 -1.0650 -1.1228 -2.4816
  118SOL    HW2  354   0.125   2.192   1.776  0.4961 -3.9344  0.5677
  119SOL     OW  355   1.051   2.019   1.448 -0.4705 -0.4487  0.5568
  119SOL    HW1  356   0.948   2.020   1.445  2.0223  1.4275  1.0172
  119SOL    HW2  357   1.077   1.945   1.387 -0.8996  1.3841  0.1408
  120SOL     OW  358   0.314   1.893   1.513  0.1571 -0.4679 -0.0016
  120SOL    HW1  359   0.254   1.862   1.590  0.5248  3.8411 -1.5159
  120SOL    HW2  360   0.324   1.824   1.440  0.7247  0.6795 -0.8402
  121SOL     OW  361   1.903   1.381   1.028 -0.0859  0.3623 -0.1567
  121SOL    HW1  362   1.816   1.429   1.043  3.1183  3.3294 -0.5137
  121SOL    HW2  363   1.978   1.434   1.080  0.0452  2.4888  0.7890
  122SOL     OW  364   2.007   1.888   2.847  0.0889  0.8759  0.4547
  122SOL    HW1  365   1.946   1.806   2.862  0.4330 -0.3730  2.4080
  122SOL    HW2  366   2.092   1.857   2.799 -0.5620 -0.4561 -0.7309
  123SOL     OW  367   2.979   2.879   0.439  0.4230  0.1347 -0.0960
  123SOL    HW1  368   2.923   2.960   0.414 -1.3896  0.3463  0.8127
  123SOL    HW2  369   2.910   2.812   0.468 -0.5766  0.0654 -0.3090
  124SOL     OW  370   1.076   1.012   0.133 -0.4898  0.1765 -0.3288
  124SOL    HW1  371   0.982   1.046   0.145 -0.4907  3.1297  1.8061
  124SOL    HW2  372   1.075   0.934   0.064  1.0681 -2.2528  0.1051
  125SOL     OW  373   3.058   1.441   2.339  0.7358  0.3031 -0.7866
  125SOL    HW1  374   0.009   1.533   2.333  0.8758 -3.2133 -1.4745
  125SOL    HW2  375   0.034   1.372   2.368 -1.3852 -0.3890  0.7817
  126SOL     OW  376   0.147   2.501   0.335  0.0259 -0.1866  0.1575
  126SOL    HW1  377   0.138   2.605   0.355  0.9229  1.4144  1.2833
  126SOL    HW2  378   0.204   2.462   0.406 -1.8125  0.2215  0.1238
  127SOL     OW  379   2.980   1.609   0.464  0.0067  0.4020 -0.4031
  127SOL    HW1  380   2.880   1.583   0.466 -0.5888 -1.7767  1.4547
  127SOL    HW2  381   3.034   1.528   0.434 -0.4864 -0.5419 -0.5334
  128SOL     OW  382   1.012   1.181   0.518 -0.0610  0.0932  0.0615
  128SOL    HW1  383   1.023   1.217   0.613 -1.0674  0.3412 -2.9268
  128SOL    HW2  384   1.089   1.116   0.498  1.5596 -1.3433 -0.5940
  129SOL     OW  385   1.899   2.112   1.375 -0.1752 -0.2019  0.0794
  129SOL    HW1  386   1.901   2.190   1.443  1.1071  3.9514  0.5538
  129SOL    HW2  387   1.819   2.105   1.310  0.8078 -0.1501  1.4954
  130SOL     OW  388   2.002   1.014   0.706 -0.9212  0.2739  0.6395
  130SOL    HW1  389   1.938   1.074   0.653  1.4294  2.1939 -2.8067
  130SOL    HW2  390   2.052   1.077   0.766 -0.1181 -5.1868 -0.6462
  131SOL     OW  391   2.962   0.841   2.732  0.1532  0.5165 -0.2114
  131SOL    HW1  392   2.970   0.866   2.835  0.9626 -0.6878  4.1965
  131SOL    HW2  393   2.869   0.868   2.694 -3.5013  1.0149 -0.5411
  132SOL     OW  394   1.487   1.264   2.245  0.4837 -0.1326 -0.0881
  132SOL    HW1  395   1.585   1.247   2.266  1.6402  0.4431  2.6646
  132SOL    HW2  396   1.484   1.283   2.147 -0.0069 -1.3926  0.3179
  133SOL     OW  397   3.086   1.107   0.022  0.0434  0.4377 -0.1859
  133SOL    HW1  398   0.055   1.178   3.075 -1.1691  0.5161 -0.2559
  133SOL    HW2  399   3.045   1.144   0.103 -0.4381 -0.1062 -2.2986
  134SOL     OW  400   2.731   0.816   0.640 -0.2620  0.0475  0.1669
  134SOL    HW1  401   2.755   0.894   0.703 -0.3745 -2.4421  1.0671
  134SOL    HW2  402   2.804   0.746   0.639 -1.7529 -0.9799  0.1588
  135SOL     OW  403   2.054   0.893   2.997 -0.0150  0.7435  0.1087
  135SOL    HW1  404   2.047   0.799   3.031 -0.7954  1.1637 -3.3044
  135SOL    HW2  405   2.023   0.961   3.069  0.1433  0.2158 -0.3752
  136SOL     OW  406   1.793   2.098   1.680  0.5154  0.1523  0.2540
  136SOL    HW1  407   1.782   1.997   1.682  1.9835  1.7716 -0.0951
  136SOL    HW2  408   1.753   2.142   1.761 -0.0202  0.0212  1.2220
  137SOL     OW  409   2.237   2.611   0.649  0.1098 -0.0690  0.5698
  137SOL    HW1  410   2.262   2.536   0.715  0.0046 -1.9461 -0.1880
  137SOL    HW2  411   2.303   2.606   0.569 -0.4287  0.3439 -0.4400
  138SOL     OW  412   2.320   0.410   1.537 -0.1307 -1.0236  0.0342
  138SOL    HW1  413   2.261   0.333   1.567 -0.2551 -1.1715  1.0473
  138SOL    HW2  414   2.341   0.477   1.609 -2.2284 -1.3789  1.3421
  139SOL     OW  415   2.591   0.083   2.809 -0.1325  0.4139 -0.0257
  139SOL    HW1  416   2.509   0.074   2.870 -0.4464  1.3480  1.7933
  139SOL    HW2  417   2.624   0.181   2.805  0.6148  0.8311  1.1057
  140SOL     OW  418   1.182   1.761   2.259  0.0541 -0.2317  0.1875
  140SOL    HW1  419   1.085   1.787   2.284 -2.0647 -0.8279 -0.8860
  140SOL    HW2  420   1.213   1.679   2.308 -0.2345  1.0829 -0.1511
  141SOL     OW  421   0.831   0.622   2.356 -0.5441  0.6011 -0.1733
  141SOL    HW1  422   0.743   0.609   2.307  0.9643 -0.3110  1.8670
  141SOL    HW2  423   0.882   0.701   2.314 -1.2803  0.7116 -0.0649
  142SOL     OW  424   2.621   2.522   2.824 -0.3796 -0.7886  0.3460
  142SOL    HW1  425   2.630   2.533   2.925  0.5675  1.3046  0.1333
  142SOL    HW2  426   2.686   2.584   2.775 -0.0653 -0.0949  0.4998
  143SOL     OW  427   0.911   2.101   0.299 -0.2632  0.5495 -0.1157
  143SOL    HW1  428   0.863   2.182   0.271  0.4827 -1.3662 -0.5247
  143SOL    HW2  429   0.960   2.109   0.389 -0.5880  0.6494 -0.0991
  144SOL     OW  430   1.465   2.600   0.002 -0.0427  0.2749 -0.6146
  144SOL    HW1  431   1.425   2.506   3.079  2.3796 -1.2084  0.6159
  144SOL    HW2  432   1.424   2.650   0.084 -0.3418  2.2801  2.1243
  145SOL     OW  433   1.573   1.889   2.691 -0.6922 -0.2415  0.1503
  145SOL    HW1  434   1.664   1.927   2.719 -0.8876 -3.4635  1.7507
  145SOL    HW2  435   1.587   1.863   2.592 -1.4226  0.6759  0.9844
  146SOL     OW  436   2.753   2.971   2.822  0.2129 -0.0472 -0.0319
  146SOL    HW1  437   2.767   2.936   2.918  2.5485  0.9633  0.5547
  146SOL    HW2  438   2.692   3.054   2.821 -2.6095 -1.6761 -0.9315
  147SOL     OW  439   2.873   1.350   0.851 -0.4970  0.1255 -0.0379
  147SOL    HW1  440   2.958   1.310   0.895  2.0663 -3.5142  1.0259
  147SOL    HW2  441   2.884   1.444   0.818  0.1506  1.8602 -1.9931
  148SOL     OW  442   2.150   2.633   0.216  0.3207 -0.0255  0.1191
  148SOL    HW1  443   2.106   2.616   0.310  3.1076 -0.2249  0.0010
  148SOL    HW2  444   2.082   2.684   0.156  0.8590  3.0260 -1.7835
  149SOL     OW  445   0.465   1.828   2.670  0.2024  0.4690 -0.5378
  149SOL    HW1  446   0.557   1.841   2.711 -0.2520 -1.1341 -2.8850
  149SOL    HW2  447   0.393   1.874   2.732  3.5227  0.0988  0.3808
  150SOL     OW  448   0.340   2.430   0.497 -0.2687 -0.1994 -0.0309
  150SOL    HW1  449   0.391   2.496   0.436  1.7239 -2.0085 -2.1923
  150SOL    HW2  450   0.408   2.399   0.567  2.0094  0.2654 -1.3017
  151SOL     OW  451   0.433   1.198   0.306  0.0664 -0.1343  0.6563
  151SOL    HW1  452   0.416   1.110   0.263 -1.2137 -1.0022  0.5017
  151SOL    HW2  453   0.397   1.199   0.402  1.1241 -0.7957  3.2212
  152SOL     OW  454   2.565   1.934   0.602  0.4780  0.1054 -0.6129
  152SOL    HW1  455   2.606   1.942   0.510 -0.5866  0.5945 -0.4210
  152SOL    HW2  456   2.484   1.869   0.593 -2.5820 -4.8719 -2.5168
  153SOL     OW  457   1.749   2.274   0.648  0.2936  0.3694 -0.3502
  153SOL    HW1  458   1.850   2.279   0.662 -0.8087 -1.3744  0.1342
  153SOL    HW2  459   1.732   2.205   0.577  0.1938 -1.4598 -0.1262
  154SOL     OW  460   0.975   2.555   0.855  0.5006  0.8156 -0.2513
  154SOL    HW1  461   0.969   2.559   0.752 -0.5667 -0.0221 -1.5852
  154SOL    HW2  462   0.882   2.536   0.893  1.0776  0.1029  0.6148
  155SOL     OW  463   2.881   1.920   0.802 -0.3818 -0.1637 -0.2027
  155SOL    HW1  464   2.827   1.837   0.776  0.6097  0.8395  0.8331
  155SOL    HW2  465   2.968   1.919   0.742 -0.7545  1.7740 -2.3952
  156SOL     OW  466   2.644   2.331   0.050  0.3251  0.7308  0.6382
  156SOL    HW1  467   2.559   2.274   0.037  0.5759 -2.4046 -0.2348
  156SOL    HW2  468   2.635   2.429   0.033 -2.2724 -3.8874  0.1699
  157SOL     OW  469   0.595   2.267   1.359  0.9588 -0.3826  0.7487
  157SOL    HW1  470   0.670   2.234   1.295  0.5097 -1.9705  0.1526
  157SOL    HW2  471   0.502   2.228   1.333 -0.7750 -1.0285 -2.1314
  158SOL     OW  472   1.541   0.568   0.318  0.3173  0.2482 -0.2104
  158SOL    HW1  473   1.535   0.547   0.418 -1.8875 -1.3808  3.7367
  158SOL    HW2  474   1.619   0.515   0.278 -0.7151 -0.7182  1.0276
  159SOL     OW  475   1.337   0.740   0.439 -0.0927  0.0018  0.1846
  159SOL    HW1  476   1.399   0.666   0.471  2.1156 -1.3863  1.2487
  159SOL    HW2  477   1.267   0.706   0.372  1.0682  0.8913 -0.4213
  160SOL     OW  478   0.726   1.274   0.760 -0.2134  0.1730  0.0730
  160SOL    HW1  479   0.678   1.194   0.807  0.0293  0.6799 -1.0841
  160SOL    HW2  480   0.827   1.274   0.773  3.0124 -1.2379 -1.4141
  161SOL     OW  481   0.058   2.409   2.602 -0.1956  0.2110 -0.7491
  161SOL    HW1  482   0.017   2.378   2.684  3.0097  0.5031 -1.8832
  161SOL    HW2  483   0.158   2.396   2.600 -0.6017  0.4819 -0.6460
  162SOL     OW  484   0.180   2.449   1.012 -0.2211  0.2379 -0.0904
  162SOL    HW1  485   0.101   2.408   1.063 -0.2855 -2.2010 -0.5686
  162SOL    HW2  486   0.137   2.489   0.928 -3.0096 -4.2336 -0.2489
  163SOL     OW  487   2.972   0.402   2.765 -0.1014 -0.0278 -0.3499
  163SOL    HW1  488   3.009   0.480   2.708  2.0757 -0.2995 -4.2737
  163SOL    HW2  489   3.030   0.403   2.853 -0.4269  1.3727  0.4837
  164SOL     OW  490   0.523   2.973   2.752 -0.0043  0.1667  0.2025
  164SOL    HW1  491   0.424   2.969   2.762  1.5144 -2.5234  0.9007
  164SOL    HW2  492   0.555   2.889   2.707 -3.4549 -1.9733 -4.7757
  165SOL     OW  493   2.387   0.627   1.706  0.3374 -0.9046  0.1625
  165SOL    HW1  494   2.308   0.689   1.722  0.1665 -0.9862  0.4986
  165SOL    HW2  495   2.472   0.685   1.692 -0.7946  1.5911  1.6710
  166SOL     OW  496   1.918   2.335   1.646  0.2101  0.7572 -0.4377
  166SOL    HW1  497   1.908   2.376   1.738 -0.6100  0.3229 -1.5570
  166SOL    HW2  498   1.892   2.236   1.653 -0.6490 -0.0525  1.5885
  167SOL     OW  499   0.595   1.056   2.317 -0.6037  0.7473 -1.1277
  167SOL    HW1  500   0.575   1.138   2.378 -0.7021 -0.5684 -2.8638
  167SOL    HW2  501   0.675   1.003   2.357  0.9858  1.4091  0.4808
  168SOL     OW  502   2.307   3.065   2.274 -0.0184  0.3316 -0.2502
  168SOL    HW1  503   2.360   0.048   2.230  0.0363 -1.8885  1.4793
  168SOL    HW2  504   2.257   3.014   2.203  1.4319  3.7794  2.5691
  169SOL     OW  505   0.383   0.930   0.166  0.1509  0.0963 -0.0081
  169SOL    HW1  506   0.420   0.840   0.169 -1.2699  1.6239  0.4923
  169SOL    HW2  507   0.284   0.925   0.137  0.6683 -1.1474 -0.1197
  170SOL     OW  508   0.141   1.335   1.764 -0.2301  0.5617 -0.0934
  170SOL    HW1  509   0.154   1.375   1.670 -0.7258 -0.1193 -1.6761
  170SOL    HW2  510   0.210   1.373   1.826  0.2261 -1.9121 -2.2877
  171SOL     OW  511   1.193   2.313   2.050 -0.2202 -0.4083 -0.5506
  171SOL    HW1  512   1.225   2.330   1.959 -1.2761 -0.2581  3.1558
  171SOL    HW2  513   1.269   2.331   2.114 -0.7749  1.0089 -0.6103
  172SOL     OW  514   1.121   2.611   2.250 -0.4232 -0.2862  0.1127
  172SOL    HW1  515   1.067   2.606   2.168 -0.6114  1.3995  2.0453
  172SOL    HW2  516   1.200   2.671   2.231 -0.5940  0.0554 -0.1385
  173SOL     OW  517   1.387   2.382   0.579 -0.8990  0.0756  0.3787
  173SOL    HW1  518   1.365   2.302   0.637 -1.5401  1.7586 -1.1701
  173SOL    HW2  519   1.432   2.452   0.636 -0.3331 -1.4989  2.2880
  174SOL     OW  520   2.327   3.084   0.326 -0.0157 -0.3651 -0.0031
  174SOL    HW1  521   2.393   3.060   0.398 -2.5724  0.4915 -1.9483
  174SOL    HW2  522   2.336   0.091   0.304 -0.6004 -0.9092  0.7137
  175SOL     OW  523   0.951   1.693   0.499 -0.3223 -0.0746  0.4917
  175SOL    HW1  524   0.949   1.729   0.402 -1.0782  2.8346 -0.5528
  175SOL    HW2  525   0.877   1.622   0.516  4.2394 -0.3257  0.3401
  176SOL     OW  526   0.528   1.661   0.523 -0.8838 -0.4020 -0.3281
  176SOL    HW1  527   0.563   1.755   0.554  0.2602  1.3310  2.7514
  176SOL    HW2  528   0.432   1.668   0.490  0.7271  0.8349  0.1841
  177SOL     OW  529   1.176   1.228   1.500 -0.1866  0.0631 -1.0325
  177SOL    HW1  530   1.086   1.227   1.554 -1.1083 -0.1458  2.8987
  177SOL    HW2  531   1.255   1.225   1.570  1.8596 -2.3401  3.6673
  178SOL     OW  532   2.385   1.725   0.384 -0.1153 -0.3016 -0.0412
  178SOL    HW1  533   2.346   1.810   0.344 -3.2007  0.0055 -0.3289
  178SOL    HW2  534   2.442   1.670   0.319 -1.4384 -1.7762  1.2945
  179SOL     OW  535   1.318   2.349   3.064 -0.5379 -0.0715 -0.0971
  179SOL    HW1  536   1.356   2.277   3.004  1.5196  1.6525  1.8136
  179SOL    HW2  537   1.224   2.325   0.007 -0.6415  2.0152 -2.1626
  180SOL     OW  538   2.014   1.508   1.988 -0.5082 -0.0336 -0.2761
  180SOL    HW1  539   2.048   1.594   2.032  1.2976  1.3514 -0.8567
  180SOL    HW2  540   2.084   1.435   1.986  1.5824 -0.0393  2.5348
  181SOL     OW  541   0.817   0.958   2.436 -0.0969  0.4827 -0.5023
  181SOL    HW1  542   0.888   0.954   2.367 -0.5576  1.2261  1.7650
  181SOL    HW2  543   0.851   0.961   2.533 -2.3340  0.0488  2.1200
  182SOL     OW  544   2.890   1.036   2.407  0.0684  0.5095 -0.4695
  182SOL    HW1  545   2.828   0.960   2.442 -1.4773 -2.3101 -1.8196
  182SOL    HW2  546   2.875   1.118   2.465  0.8946  3.6435  0.0732
  183SOL     OW  547   1.464   0.815   2.253  0.0429 -0.6585  0.3763
  183SOL    HW1  548   1.439   0.722   2.235 -3.0219 -0.9023 -0.1553
  183SOL    HW2  549   1.400   0.882   2.207 -0.4018  1.3003  0.8399
  184SOL     OW  550   0.427   0.577   1.627  0.3372 -0.2865 -0.2690
  184SOL    HW1  551   0.508   0.634   1.637  0.5409 -1.9225 -1.2592
  184SOL    HW2  552   0.344   0.623   1.662 -0.5335 -1.3859  1.6145
  185SOL     OW  553   1.998   1.785   0.750  0.2240  0.7033  0.0420
  185SOL    HW1  554   2.062   1.844   0.696  0.3375 -0.4973 -1.9931
  185SOL    HW2  555   2.038   1.769   0.845  1.6227  3.1040  2.6249
  186SOL     OW  556   0.230   1.916   0.199 -0.0370 -0.2384  0.2496
  186SOL    HW1  557   0.298   1.870   0.135  2.4156 -2.5918  0.7052
  186SOL    HW2  558   0.193   1.847   0.266  0.8105 -2.3685 -1.8026
  187SOL     OW  559   1.962   1.913   0.157  0.1822 -0.2319  0.3012
  187SOL    HW1  560   1.998   1.932   0.252 -2.3147 -0.0229  0.5900
  187SOL    HW2  561   1.988   1.987   0.092 -0.9502 -3.7361  0.5602
  188SOL     OW  562   0.888   2.259   0.909 -0.0051 -0.0645  0.4868
  188SOL    HW1  563   0.840   2.255   1.001 -0.6942  1.9750  0.1418
  188SOL    HW2  564   0.923   2.352   0.887  1.7771 -0.3079 -0.7593
  189SOL     OW  565   1.842   1.219   2.567 -0.1738  0.1064  0.0973
  189SOL    HW1  566   1.889   1.198   2.661  1.7052 -2.8474 -2.0206
  189SOL    HW2  567   1.747   1.248   2.573  0.3929 -1.5224  0.8463
  190SOL     OW  568   1.096   2.177   2.301 -0.3341  0.1244  0.0574
  190SOL    HW1  569   0.993   2.182   2.311  0.1175 -0.8225 -3.5076
  190SOL    HW2  570   1.133   2.189   2.209  0.9464 -2.0108  1.2153
  191SOL     OW  571   2.357   0.763   1.415 -0.1409 -0.0860 -0.6715
  191SOL    HW1  572   2.267   0.748   1.460 -0.6390  2.7285  1.8564
  191SOL    HW2  573   2.431   0.763   1.484  0.2704 -1.9814  1.6573
  192SOL     OW  574   2.587   0.433   1.790 -0.2000 -0.2239 -0.2358
  192SOL    HW1  575   2.495   0.471   1.777  3.7111  0.6721  1.2884
  192SOL    HW2  576   2.632   0.488   1.862  0.7162 -0.9483 -0.6410
  193SOL     OW  577   0.747   0.106   0.612 -0.0114 -0.2040 -0.2947
  193SOL    HW1  578   0.712   0.078   0.525 -0.7746  0.5997  2.4264
  193SOL    HW2  579   0.835   0.071   0.633 -2.5381  0.8392 -0.3065
  194SOL     OW  580   1.282   2.423   1.827 -0.2539 -0.1396  0.6061
  194SOL    HW1  581   1.307   2.393   1.730 -1.1346 -0.2993 -0.8955
  194SOL    HW2  582   1.228   2.511   1.814  0.1800  0.6763 -2.7452
  195SOL     OW  583   2.473   1.094   0.821  0.5603  0.3901  0.4768
  195SOL    HW1  584   2.433   1.188   0.820 -0.3678  0.0772  0.6747
  195SOL    HW2  585   2.410   1.033   0.765 -0.5024 -0.3414  0.8023
  196SOL     OW  586   0.973   2.179   1.832  0.3097 -0.0804  0.3204
  196SOL    HW1  587   0.930   2.267   1.806 -0.1526  0.4519 -1.4731
  196SOL    HW2  588   0.923   2.138   1.913 -2.2944  0.2062  0.9704
  197SOL     OW  589   0.368   0.621   2.486 -0.1766  0.2175  0.0722
  197SOL    HW1  590   0.308   0.688   2.439  4.2154 -2.1292 -0.2265
  197SOL    HW2  591   0.343   0.528   2.453 -2.0058 -0.6768  1.8292
  198SOL     OW  592   1.465   0.865   0.188  0.2457 -0.5819 -0.2570
  198SOL    HW1  593   1.412   0.786   0.217 -0.4280 -2.3470 -1.1680
  198SOL    HW2  594   1.406   0.940   0.152 -1.9262 -0.6795  0.5062
  199SOL     OW  595   2.744   0.546   1.996 -0.0068  0.6726 -0.0810
  199SOL    HW1  596   2.716   0.478   2.068  2.4243  2.0071 -0.7398
  199SOL    HW2  597   2.734   0.641   2.028  2.8018 -0.4157 -0.4207
  200SOL     OW  598   2.255   2.457   2.379  0.1152  0.4516  0.0902
  200SOL    HW1  599   2.288   2.552   2.381  0.6232 -2.3543 -0.2145
  200SOL    HW2  600   2.158   2.446   2.410  1.1916 -1.6531  0.0573
  201SOL     OW  601   2.335   0.158   1.354 -0.4681  0.3480  0.3381
  201SOL    HW1  602   2.320   0.233   1.415  3.6493 -4.8122 -4.8052
  201SOL    HW2  603   2.387   0.081   1.406  1.0029 -1.4834  0.2661
  202SOL     OW  604   0.124   2.742   0.387  0.3452  0.0192  0.4099
  202SOL    HW1  605   0.041   2.795   0.426 -0.2016  2.1168  0.2347
  202SOL    HW2  606   0.207   2.800   0.411  0.9467  0.2199 -0.2374
  203SOL     OW  607   1.146   2.169   2.736 -0.1141  0.6144  0.1068
  203SOL    HW1  608   1.045   2.164   2.714 -1.1611 -2.1456 -0.7679
  203SOL    HW2  609   1.193   2.094   2.690  0.0649  1.3638  0.6544
  204SOL     OW  610   0.581   1.920   2.445  0.3567  0.8758 -0.1042
  204SOL    HW1  611   0.675   1.936   2.482 -3.8183  0.0220  0.3064
  204SOL    HW2  612   0.512   1.902   2.520 -1.6762  1.1107 -1.0030
  205SOL     OW  613   0.888   0.964   1.195 -0.4069 -0.1694 -0.5091
  205SOL    HW1  614   0.866   0.865   1.162 -0.3558 -0.8315 -1.4692
  205SOL    HW2  615   0.974   0.968   1.254  0.2576  0.2565  1.0576
  206SOL     OW  616   0.232   0.629   2.713  0.3856 -0.6434  0.3764
  206SOL    HW1  617   0.138   0.654   2.682 -0.0514 -2.6475 -1.1038
  206SOL    HW2  618   0.299   0.631   2.634 -1.6501 -1.2568  1.5204
  207SOL     OW  619   1.811   2.278   2.019  0.2785  0.0745 -0.1910
  207SOL    HW1  620   1.865   2.361   2.006 -2.9364 -1.4422 -1.9415
  207SOL    HW2  621   1.736   2.271   1.952  0.5925  1.9642  0.1092
  208SOL     OW  622   0.736   2.778   1.348  0.5375 -0.2437  0.0127
  208SOL    HW1  623   0.706   2.685   1.322 -0.6576  1.1287  1.5218
  208SOL    HW2  624   0.658   2.836   1.387  1.1009  0.5315  0.1311
  209SOL     OW  625   1.350   1.363   0.001  0.1845 -0.1557 -0.4326
  209SOL    HW1  626   1.302   1.420   0.071  0.1590  1.4799  0.2731
  209SOL    HW2  627   1.454   1.375   0.012  2.1312  1.2687 -2.7048
  210SOL     OW  628   2.273   0.627   0.871  0.7069 -0.6292  0.3767
  210SOL    HW1  629   2.325   0.610   0.786 -1.1833  0.7125 -0.6184
  210SOL    HW2  630   2.187   0.678   0.841 -2.1072  0.4784 -0.5421
  211SOL     OW  631   1.411   2.718   0.239  0.2206 -0.2160  0.3317
  211SOL    HW1  632   1.319   2.733   0.266  2.3777 -0.3163 -2.8437
  211SOL    HW2  633   1.467   2.786   0.289  2.2901  1.6769 -0.7488
  212SOL     OW  634   2.044   2.213   0.728 -0.0636 -0.7751  0.7560
  212SOL    HW1  635   2.127   2.271   0.730 -4.1208 -0.6022  1.8394
  212SOL    HW2  636   2.001   2.205   0.822  1.0687 -2.8293  0.1323
  213SOL     OW  637   1.693   0.611   2.868  0.0530  0.4246  0.0499
  213SOL    HW1  638   1.775   0.559   2.827  1.3093  0.4142 -1.9663
  213SOL    HW2  639   1.716   0.713   2.891  2.3322  2.5906  2.4964
  214SOL     OW  640   0.665   1.754   1.835 -0.4023 -0.0646 -0.1388
  214SOL    HW1  641   0.749   1.775   1.889  1.4835 -0.8730 -0.0893
  214SOL    HW2  642   0.656   1.814   1.752 -1.3528 -0.4888 -0.9620
  215SOL     OW  643   0.024   1.392   0.354 -0.1724 -0.2197  0.2255
  215SOL    HW1  644   0.115   1.429   0.320  0.3045 -1.4111 -2.3011
  215SOL    HW2  645   0.046   1.341   0.438  0.1224 -1.6659 -1.1870
  216SOL     OW  646   0.210   2.908   2.443 -0.1570  0.2402 -0.2927
  216SOL    HW1  647   0.312   2.885   2.439  1.1956 -0.6422  1.2263
  216SOL    HW2  648   0.155   2.851   2.503  1.1635  2.4751 -0.5544
  217SOL     OW  649   2.617   1.049   1.233  0.0367 -0.2536  0.3825
  217SOL    HW1  650   2.651   0.985   1.159 -0.0003 -1.1596  0.4599
  217SOL    HW2  651   2.700   1.097   1.267  0.6656 -0.2734 -2.4404
  218SOL     OW  652   1.157   1.851   2.000 -0.2647  0.2429 -0.3298
  218SOL    HW1  653   1.258   1.835   1.992  0.8703 -0.0871 -0.4267
  218SOL    HW2  654   1.138   1.850   2.098  0.7251  1.1782  0.9548
  219SOL     OW  655   2.002   1.476   0.200  0.2001 -0.5382 -0.1877
  219SOL    HW1  656   2.075   1.420   0.153  3.4395  0.4410  0.6209
  219SOL    HW2  657   1.950   1.418   0.267 -1.4588 -1.5027  0.7468
  220SOL     OW  658   2.105   1.024   0.295 -0.0278  0.4828  0.5289
  220SOL    HW1  659   2.196   1.047   0.245  0.5135  0.4410 -1.5606
  220SOL    HW2  660   2.123   0.941   0.351  1.8211  2.1033 -0.4379
  221SOL     OW  661   0.153   0.333   0.250  0.9017  0.4777 -0.1763
  221SOL    HW1  662   0.224   0.341   0.175 -2.8923 -1.3735  0.3236
  221SOL    HW2  663   0.065   0.302   0.212  0.6910  3.0845  1.4887
  222SOL     OW  664   1.372   1.404   0.641  0.4100 -0.0059 -0.6854
  222SOL    HW1  665   1.422   1.493   0.654  0.1003 -0.3010  2.2012
  222SOL    HW2  666   1.276   1.436   0.639  2.5497 -1.4652  0.6404
  223SOL     OW  667   0.916   0.310   2.986  0.4624  0.0923 -0.6882
  223SOL    HW1  668   0.929   0.213   3.020 -0.8528 -1.3833 -0.4486
  223SOL    HW2  669   0.983   0.337   2.911 -0.9801 -1.5493 -3.4555
  224SOL     OW  670   1.729   0.240   1.357 -0.0391 -0.1672  0.0780
  224SOL    HW1  671   1.669   0.192   1.427 -1.0559 -0.1457  1.4593
  224SOL    HW2  672   1.718   0.202   1.263 -1.9572  1.9027 -0.2760
  225SOL     OW  673   0.278   2.462   1.432  0.5535 -0.0100 -0.1335
  225SOL    HW1  674   0.282   2.391   1.358 -1.2908  0.4675 -0.8522
  225SOL    HW2  675   0.186   2.446   1.476 -0.9529  1.2828  0.4148
  226SOL     OW  676   0.851   1.613   0.053  0.1171  0.4078  0.3311
  226SOL    HW1  677   0.896   1.517   0.059  3.1055 -2.6869  2.3294
  226SOL    HW2  678   0.909   1.691   0.084  3.2018  1.0325 -1.2489
  227SOL     OW  679   0.917   1.567   0.845 -0.2378  0.0076 -0.1671
  227SOL    HW1  680   0.859   1.647   0.819  2.1855 -2.9949 -1.0098
  227SOL    HW2  681   0.888   1.535   0.937  0.1285  0.0070 -2.4264
  228SOL     OW  682   0.282   1.668   0.451 -0.3784  0.3238  0.0109
  228SOL    HW1  683   0.206   1.732   0.446  0.2108  0.2525 -2.8270
  228SOL    HW2  684   0.265   1.588   0.385 -0.0731  0.8496 -0.1282
  229SOL     OW  685   2.228   0.075   2.713 -1.1367 -0.1431  0.3641
  229SOL    HW1  686   2.135   0.120   2.737 -1.9029  0.4803  0.4479
  229SOL    HW2  687   2.266   0.016   2.785 -0.3365  2.3289 -1.2586
  230SOL     OW  688   1.798   1.159   0.535 -0.1688 -0.1478 -0.1697
  230SOL    HW1  689   1.740   1.237   0.568 -1.0865 -0.6614 -3.5754
  230SOL    HW2  690   1.741   1.098   0.476 -2.2716 -0.7470 -1.0417
  231SOL     OW  691   1.281   1.543   2.387  0.1981 -0.3101 -0.1556
  231SOL    HW1  692   1.383   1.555   2.369 -0.1139 -0.1209  2.4583
  231SOL    HW2  693   1.243   1.467   2.333  0.8696  2.5081 -1.7517
  232SOL     OW  694   2.486   2.209   0.724  0.1339 -0.2412  0.2638
  232SOL    HW1  695   2.586   2.210   0.700  0.8281 -0.2467 -1.2258
  232SOL    HW2  696   2.460   2.122   0.776 -0.5059 -0.9170  1.2184
  233SOL     OW  697   0.505   2.405   0.737  0.6220  0.2218 -0.4029
  233SOL    HW1  698   0.593   2.388   0.683 -1.4331  0.7825  2.6934
  233SOL    HW2  699   0.508   2.495   0.793 -1.0290  1.9320  2.5312
  234SOL     OW  700   0.617   0.590   2.748  0.0504  0.4429 -0.3664
  234SOL    HW1  701   0.583   0.664   2.683 -0.4588  0.8258  1.5508
  234SOL    HW2  702   0.596   0.606   2.848  0.5400  0.6986 -0.3926
  235SOL     OW  703   2.696   0.419   2.230  0.0695  0.5486  0.4093
  235SOL    HW1  704   2.695   0.320   2.243  0.4344  1.6882 -2.2485
  235SOL    HW2  705   2.787   0.460   2.250 -0.5143 -1.4467  0.4465
  236SOL     OW  706   1.788   2.816   1.283 -0.2495 -1.2056 -0.2850
  236SOL    HW1  707   1.872   2.786   1.229  2.6556 -0.3143  0.6982
  236SOL    HW2  708   1.750   2.742   1.337  1.3197  0.0104 -0.7099
  237SOL     OW  709   0.895   1.822   2.259 -0.2490 -0.2583 -0.4182
  237SOL    HW1  710   0.840   1.906   2.266 -0.1712 -5.0663 -0.9264
  237SOL    HW2  711   0.854   1.748   2.313  0.0660  1.8889 -0.7183
  238SOL     OW  712   1.048   0.255   2.337 -0.2874  0.3101 -0.1282
  238SOL    HW1  713   1.121   0.297   2.397 -0.2522 -0.8224  1.4229
  238SOL    HW2  714   1.004   0.173   2.374  1.6303 -1.9737 -0.4330
  239SOL     OW  715   0.487   2.387   2.119 -0.2728 -0.5481  0.2157
  239SOL    HW1  716   0.571   2.379   2.061  1.9951  0.2164 -2.6898
  239SOL    HW2  717   0.404   2.384   2.063  1.5693 -0.9840  0.2537
  240SOL     OW  718   2.510   2.702   0.552  0.2586 -0.1363  0.5420
  240SOL    HW1  719   2.513   2.687   0.652 -1.5510  0.5947 -1.7302
  240SOL    HW2  720   2.458   2.633   0.496 -1.3648 -0.7391  3.1176
  241SOL     OW  721   2.436   1.384   0.779  0.2153 -0.2184  0.3499
  241SOL    HW1  722   2.492   1.439   0.847 -0.9242  0.2652 -3.3927
  241SOL    HW2  723   2.347   1.429   0.773 -0.2744  1.7302  2.0797
  242SOL     OW  724   1.925   2.491   1.870 -0.5991  0.0152  0.8670
  242SOL    HW1  725   2.013   2.449   1.907  3.2610  1.4249 -1.1561
  242SOL    HW2  726   1.915   2.586   1.898  1.1022  0.4027 -0.0361
  243SOL     OW  727   0.965   2.687   1.556  0.4353 -0.1183 -0.0515
  243SOL    HW1  728   0.932   2.703   1.458 -3.8950 -1.5774 -1.5459
  243SOL    HW2  729   0.939   2.772   1.609  1.4806 -1.6322  0.4357
  244SOL     OW  730   2.084   0.494   2.901  0.3677 -0.1539  0.1165
  244SOL    HW1  731   2.009   0.470   2.839 -0.4938  0.7557  1.7323
  244SOL    HW2  732   2.175   0.504   2.850  0.9529  2.6059 -1.2602
  245SOL     OW  733   1.553   0.548   1.194  0.2857  0.4309 -0.0338
  245SOL    HW1  734   1.548   0.613   1.116 -0.0863 -1.1820 -2.3569
  245SOL    HW2  735   1.487   0.466   1.184  0.8300  0.0452 -0.4652
  246SOL     OW  736   1.770   2.527   3.068  0.3654 -0.4125  0.4572
  246SOL    HW1  737   1.830   2.606   0.011 -0.8397 -0.0337  0.4807
  246SOL    HW2  738   1.671   2.548   3.082 -0.7732 -0.9023  0.3976
  247SOL     OW  739   1.121   0.948   2.460  0.4120  0.0113  0.6590
  247SOL    HW1  740   1.188   0.945   2.539  4.0525  2.7110  2.8290
  247SOL    HW2  741   1.118   1.042   2.416  0.8315  0.4000  0.0981
  248SOL     OW  742   0.285   2.173   1.766  0.8512 -0.8605 -0.0334
  248SOL    HW1  743   0.295   2.118   1.851 -0.8486  1.6483 -1.0269
  248SOL    HW2  744   0.379   2.177   1.723 -3.0921  1.1857 -0.3777
  249SOL     OW  745   2.563   0.416   0.431 -0.0751 -0.4094  0.1981
  249SOL    HW1  746   2.544   0.431   0.330  1.9290 -0.2473  1.5910
  249SOL    HW2  747   2.532   0.317   0.451 -0.1493 -0.6443 -1.4370
  250SOL     OW  748   2.725   0.306   2.809  1.0754 -0.0229  0.2608
  250SOL    HW1  749   2.728   0.364   2.892  2.0095  0.0595 -0.6002
  250SOL    HW2  750   2.813   0.329   2.760 -0.2290  3.4346  0.7423
  251SOL     OW  751   1.390   0.898   2.910  0.3215 -0.2652  0.6307
  251SOL    HW1  752   1.369   0.971   2.981  0.0832  0.9038  2.0993
  251SOL    HW2  753   1.389   0.808   2.950 -0.6116  1.0878 -0.7616
  252SOL     OW  754   1.412   2.090   1.966  0.2466 -0.3183  0.1199
  252SOL    HW1  755   1.312   2.115   1.959  0.4443 -1.3278 -0.6262
  252SOL    HW2  756   1.452   2.088   2.056 -2.0839 -0.4679  0.2318
  253SOL     OW  757   2.244   2.582   0.970  0.4836  0.1761 -0.2574
  253SOL    HW1  758   2.309   2.656   0.986  1.5381 -1.0835  0.1530
  253SOL    HW2  759   2.232   2.526   1.058  0.6473 -1.5026  1.9412
  254SOL     OW  760   2.141   1.362   0.605 -0.6994 -0.0011  0.1826
  254SOL    HW1  761   2.096   1.324   0.525 -0.4557 -1.5294 -0.8892
  254SOL    HW2  762   2.110   1.326   0.691  2.7220  2.5780 -2.6788
  255SOL     OW  763   1.447   0.074   1.166 -0.3032 -0.0332  0.3984
  255SOL    HW1  764   1.389   0.010   1.108  0.8560  1.6042  0.2681
  255SOL    HW2  765   1.514   0.029   1.230 -0.0823  0.2533  2.2790
  256SOL     OW  766   1.689   2.636   1.460  0.2406  0.2043  0.9423
  256SOL    HW1  767   1.657   2.557   1.403  0.9566  0.8538  0.9802
  256SOL    HW2  768   1.611   2.679   1.506 -0.7193 -1.7599  0.0935
  257SOL     OW  769   0.662   2.753   2.631  0.0961 -0.1990  0.1115
  257SOL    HW1  770   0.715   2.754   2.542  2.8622  1.6007 -1.1482
  257SOL    HW2  771   0.721   2.714   2.710  0.2058 -0.2545  2.9863
  258SOL     OW  772   1.068   2.495   0.358 -0.6198  0.3599 -0.3646
  258SOL    HW1  773   1.036   2.478   0.263  0.7352  1.7817 -0.6762
  258SOL    HW2  774   1.110   2.407   0.389  1.0056  0.1654 -0.2061
  259SOL     OW  775   1.491   0.249   2.901  0.1026  0.7402 -0.6630
  259SOL    HW1  776   1.521   0.266   2.997 -0.4701  1.2482 -0.1538
  259SOL    HW2  777   1.540   0.304   2.829  1.2197  1.5097 -2.0525
  260SOL     OW  778   2.400   0.468   1.283  0.3402 -0.4732 -0.5960
  260SOL    HW1  779   2.414   0.371   1.256  0.6954 -0.1627  0.1304
  260SOL    HW2  780   2.374   0.465   1.381  1.4962  1.1945  0.2872
  261SOL     OW  781   0.843   0.528   2.621  0.9385  0.3338 -0.4362
  261SOL    HW1  782   0.768   0.571   2.678 -0.7648 -0.5070  0.9915
  261SOL    HW2  783   0.858   0.568   2.532 -0.0770 -1.0396 -0.0507
  262SOL     OW  784   1.076   2.424   2.417 -0.7398 -0.3986  0.1787
  262SOL    HW1  785   1.116   2.341   2.376  1.2416  1.7571  0.3719
  262SOL    HW2  786   1.096   2.510   2.369  1.2274 -1.3252  0.3395
  263SOL     OW  787   0.252   1.951   2.798 -0.2864  0.2512  0.3690
  263SOL    HW1  788   0.300   2.039   2.781 -3.2326  2.4963 -1.1042
  263SOL    HW2  789   0.149   1.972   2.801 -2.7015 -0.3446 -2.0300
  264SOL     OW  790   1.110   1.523   0.643  0.0089  0.3312  1.2828
  264SOL    HW1  791   1.051   1.562   0.717  2.2565 -2.2455  0.6253
  264SOL    HW2  792   1.088   1.557   0.550 -1.2401 -2.8802 -2.0750
  265SOL     OW  793   1.181   2.262   0.439 -0.2831  0.0621 -0.1884
  265SOL    HW1  794   1.201   2.197   0.362 -0.9374 -1.4591  0.5775
  265SOL    HW2  795   1.264   2.291   0.492  1.7652 -0.0897 -1.0615
  266SOL     OW  796   1.969   0.817   1.117 -0.0591  0.4807 -0.1960
  266SOL    HW1  797   1.941   0.716   1.115  0.2564 -0.0253 -1.2069
  266SOL    HW2  798   2.071   0.825   1.124  0.7303 -2.1624 -1.9512
  267SOL     OW  799   2.803   1.188   2.667  0.0033  0.1601  0.4386
  267SOL    HW1  800   2.799   1.286   2.643  0.1665  0.4126  0.8231
  267SOL    HW2  801   2.709   1.159   2.699  2.2806  2.0579 -1.0143
  268SOL     OW  802   1.448   0.039   0.210 -0.0230  0.4366  0.5751
  268SOL    HW1  803   1.533   0.007   0.253  0.0153  0.7254 -1.7369
  268SOL    HW2  804   1.383   0.065   0.281  0.7068  1.7634 -2.0894
  269SOL     OW  805   2.754   0.564   2.533 -0.6225 -0.0379  0.2648
  269SOL    HW1  806   2.673   0.512   2.508  2.1862  0.4514  0.1805
  269SOL    HW2  807   2.831   0.548   2.464  2.1379  0.5763 -3.6262
  270SOL     OW  808   3.038   1.495   0.065 -0.4663  0.0869  0.2787
  270SOL    HW1  809   0.011   1.421   0.030 -2.6644  1.4348  0.4071
  270SOL    HW2  810   3.044   1.583   0.015  1.4196 -0.8771  0.0114
  271SOL     OW  811   2.560   1.121   2.711  0.1331 -0.3442  0.2762
  271SOL    HW1  812   2.486   1.182   2.688  0.6788  0.4890  2.0639
  271SOL    HW2  813   2.539   1.024   2.686 -1.1260 -3.2429 -2.0877
  272SOL     OW  814   2.888   2.510   2.359 -0.2107  0.3212 -0.4505
  272SOL    HW1  815   2.900   2.406   2.361 -1.1028  0.0278 -2.7482
  272SOL    HW2  816   2.836   2.529   2.269  0.4149 -1.8474 -2.5442
  273SOL     OW  817   0.279   2.645   0.685 -0.2342 -0.4675  0.1748
  273SOL    HW1  818   0.370   2.671   0.727  2.5687 -1.1710 -0.9107
  273SOL    HW2  819   0.285   2.558   0.630 -1.1059 -1.6574  0.2250
  274SOL     OW  820   0.771   2.116   0.717 -0.0244  0.0844  0.4588
  274SOL    HW1  821   0.851   2.095   0.658 -0.5403  0.9832  0.8712
  274SOL    HW2  822   0.797   2.150   0.807 -0.8357 -1.3800  0.9969
  275SOL     OW  823   2.571   1.524   0.219  0.4657 -0.2007  0.0887
  275SOL    HW1  824   2.515   1.474   0.288  0.7143 -2.4325  3.1545
  275SOL    HW2  825   2.536   1.532   0.126 -1.4626 -1.5558  0.1539
  276SOL     OW  826   2.790   1.583   1.164 -0.2643  0.6287  0.5288
  276SOL    HW1  827   2.760   1.518   1.237  2.3777 -1.0251  2.8691
  276SOL    HW2  828   2.793   1.686   1.195  1.4025  0.9566 -1.5614
  277SOL     OW  829   2.810   0.038   0.777 -0.0222  0.1297  0.3072
  277SOL    HW1  830   2.731   0.007   0.828  1.4545  0.4255 -0.4208
  277SOL    HW2  831   2.873   3.050   0.772 -0.3562 -1.0312 -2.3218
  278SOL     OW  832   1.595   0.163   2.501  0.1279  0.2488  0.0739
  278SOL    HW1  833   1.505   0.117   2.489  3.1480  1.3025  1.5681
  278SOL    HW2  834   1.667   0.122   2.450 -3.2646  0.7379  1.9979
  279SOL     OW  835   1.414   2.714   1.064  0.5242  0.1996  0.3316
  279SOL    HW1  836   1.479   2.775   1.009 -0.0655  0.7269 -2.8973
  279SOL    HW2  837   1.381   2.637   1.007  1.8046  0.6368 -0.1864
  280SOL     OW  838   0.910   0.930   0.625 -0.1321  0.0793  0.2188
  280SOL    HW1  839   0.939   0.919   0.722  0.5373 -0.5518 -0.0290
  280SOL    HW2  840   0.937   1.017   0.590  1.3842  0.9045  1.5748
  281SOL     OW  841   2.381   1.292   2.614  0.2446 -0.4071 -0.8805
  281SOL    HW1  842   2.425   1.385   2.628 -0.1002  0.6397  0.9781
  281SOL    HW2  843   2.365   1.273   2.518  0.5887  0.9298  1.5519
  282SOL     OW  844   2.969   1.205   0.235 -0.4647 -0.1325  0.0441
  282SOL    HW1  845   2.894   1.196   0.301  0.6313  2.1865 -0.2896
  282SOL    HW2  846   3.029   1.284   0.259 -1.0409 -2.4729 -2.0995
  283SOL     OW  847   1.805   2.689   2.499  0.0850 -0.2563 -0.3300
  283SOL    HW1  848   1.768   2.683   2.403 -1.5750  1.2978  2.0827
  283SOL    HW2  849   1.767   2.608   2.556  1.7510 -1.5328  0.3628
  284SOL     OW  850   0.923   0.076   0.041 -0.4347  0.2278 -0.4653
  284SOL    HW1  851   0.959   3.070   0.068  0.5627 -0.8040  1.3056
  284SOL    HW2  852   0.866   0.119   0.115  0.0794  3.0323  1.6690
  285SOL     OW  853   2.156   1.411   2.371  0.2436 -0.0847  0.0326
  285SOL    HW1  854   2.066   1.400   2.319 -0.1380  2.4828  1.3045
  285SOL    HW2  855   2.131   1.439   2.462 -3.1092 -1.2100  0.9624
  286SOL     OW  856   1.324   2.143   0.734 -0.1916  0.0168  0.1512
  286SOL    HW1  857   1.292   2.068   0.677 -2.7875  1.3471  1.6314
  286SOL    HW2  858   1.389   2.110   0.807  1.0128  1.2576  1.5991
  287SOL     OW  859   1.801   0.146   1.116 -0.5703 -0.0484 -0.1065
  287SOL    HW1  860   1.896   0.186   1.124 -0.8193  0.7280  1.1088
  287SOL    HW2  861   1.810   0.057   1.065 -2.8295  4.5677 -2.7378
  288SOL     OW  862   0.754   2.829   2.395 -0.4362 -0.5413 -0.1634
  288SOL    HW1  863   0.857   2.840   2.403 -1.8754  0.1280 -0.9425
  288SOL    HW2  864   0.714   2.831   2.303 -1.3969 -1.6786  1.3525
  289SOL     OW  865   0.035   1.276   0.599 -0.1326 -0.1854 -0.3075
  289SOL    HW1  866   0.072   1.337   0.675  0.5970  2.8514 -0.3260
  289SOL    HW2  867   3.052   1.217   0.637 -0.6558  0.7159 -1.3362
  290SOL     OW  868   1.225   2.204   1.035 -0.7306 -0.2227 -0.0679
  290SOL    HW1  869   1.325   2.176   1.039  1.6814 -0.6508  1.8338
  290SOL    HW2  870   1.174   2.132   0.985  2.2085 -2.1577  0.5416
  291SOL     OW  871   1.561   2.799   0.463 -0.1364 -0.0068  0.2052
  291SOL    HW1  872   1.491   2.843   0.527 -0.4612  1.0487  1.8682
  291SOL    HW2  873   1.598   2.706   0.491  1.7235  1.9727 -1.7445
  292SOL     OW  874   0.574   0.138   2.251 -0.1749 -0.1618  0.7469
  292SOL    HW1  875   0.580   0.234   2.290  0.6135  2.6556 -0.8308
  292SOL    HW2  876   0.559   0.073   2.333  0.2543 -2.6811  3.0416
  293SOL     OW  877   2.389   1.990   0.857  0.2995 -0.1917 -0.1301
  293SOL    HW1  878   2.397   1.890   0.847 -0.2867 -0.2757 -0.0657
  293SOL    HW2  879   2.344   2.018   0.949 -0.6273  2.8153  0.2872
  294SOL     OW  880   0.784   0.184   2.047  0.0947  0.6972 -0.9192
  294SOL    HW1  881   0.862   0.131   2.090  0.0684 -1.1532  1.7127
  294SOL    HW2  882   0.702   0.186   2.102  3.3876  0.3920 -2.0728
  295SOL     OW  883   1.309   1.469   1.061  0.0104  0.7082  0.4330
  295SOL    HW1  884   1.393   1.423   1.095 -0.8994 -0.4029  0.4968
  295SOL    HW2  885   1.227   1.402   1.051  1.8583 -1.0813  2.0823
  296SOL     OW  886   2.153   1.978   0.652  0.5681  0.0947  0.0174
  296SOL    HW1  887   2.244   1.968   0.699  1.6871 -1.3322 -0.4540
  296SOL    HW2  888   2.104   2.059   0.683  3.4154 -0.5293  1.7963
  297SOL     OW  889   2.351   3.022   2.913 -0.2796  0.0852  0.2636
  297SOL    HW1  890   2.347   2.928   2.873  0.5110 -0.4409 -0.8680
  297SOL    HW2  891   2.340   3.018   3.015  0.9062  0.9018 -2.4326
  298SOL     OW  892   1.221   0.338   2.569  0.0709 -0.3461 -0.5665
  298SOL    HW1  893   1.137   0.341   2.628 -3.6758  0.4562  0.7965
  298SOL    HW2  894   1.255   0.243   2.560 -0.5892 -0.5615  1.2690
  299SOL     OW  895   1.238   2.906   1.876 -0.4307 -0.0313 -0.0758
  299SOL    HW1  896   1.230   2.964   1.791 -3.4886  1.2154 -3.6785
  299SOL    HW2  897   1.218   2.967   1.957 -0.9193 -0.8417 -0.1127
  300SOL     OW  898   2.661   3.011   1.987 -0.2335 -0.0496 -0.4667
  300SOL    HW1  899   2.673   2.986   2.084  1.4813  0.9379 -3.1381
  300SOL    HW2  900   2.649   0.020   1.973  1.0502  2.7436  0.5441
  301SOL     OW  901   2.088   0.496   1.929  0.1078 -0.1139 -0.3700
  301SOL    HW1  902   2.167   0.463   1.985  1.9786 -1.5268  2.3128
  301SOL    HW2  903   2.057   0.421   1.865 -0.9613 -1.7647 -2.2283
  302SOL     OW  904   0.331   2.406   3.078 -0.2317  0.2436  0.2667
  302SOL    HW1  905   0.290   2.328   3.027 -1.8208 -0.0215  1.7987
  302SOL    HW2  906   0.252   2.463   0.018  1.5905 -3.3961  0.7759
  303SOL     OW  907   1.593   2.183   1.472 -0.0820 -0.2033  0.1673
  303SOL    HW1  908   1.566   2.096   1.420 -2.1035  0.3911 -1.7842
  303SOL    HW2  909   1.658   2.164   1.545  1.3659  4.5567 -2.5938
  304SOL     OW  910   2.927   0.892   1.298  0.3003  0.2063 -0.2369
  304SOL    HW1  911   2.864   0.812   1.286  3.0550  1.2670  0.4660
  304SOL    HW2  912   2.888   0.983   1.270  1.1378  1.3709  1.4819
  305SOL     OW  913   0.668   0.852   0.722  0.1222  0.3394 -0.0923
  305SOL    HW1  914   0.682   0.748   0.738  2.7052 -0.9685 -0.6172
  305SOL    HW2  915   0.734   0.870   0.646  0.5829 -0.4728 -1.9690
  306SOL     OW  916   0.347   1.083   2.845 -0.3007  0.0489 -0.0596
  306SOL    HW1  917   0.441   1.068   2.815  0.0473 -0.4422  0.6289
  306SOL    HW2  918   0.307   0.989   2.828  3.1110  0.9414 -0.5592
  307SOL     OW  919   1.338   0.420   1.477  0.5337 -0.1814 -0.6999
  307SOL    HW1  920   1.379   0.511   1.497  0.4686 -2.2129 -1.1439
  307SOL    HW2  921   1.354   0.346   1.548  1.1733 -2.0358  0.6972
  308SOL     OW  922   0.459   0.950   1.121 -0.2046  0.4990  0.1169
  308SOL    HW1  923   0.368   0.930   1.080  1.2102  1.4809  0.6646
  308SOL    HW2  924   0.472   0.882   1.197 -2.6101 -0.2398  1.1410
  309SOL     OW  925   2.481   0.841   0.950  0.0396  0.8561 -0.2758
  309SOL    HW1  926   2.446   0.769   0.889  2.6833 -2.1950  2.6606
  309SOL    HW2  927   2.473   0.933   0.903  1.1003  1.6632 -0.5290
  310SOL     OW  928   0.699   1.559   2.898 -0.7762 -0.5104  0.2692
  310SOL    HW1  929   0.758   1.568   2.979 -2.0588  0.7720 -0.7589
  310SOL    HW2  930   0.619   1.504   2.921  2.3251  2.0761  2.1926
  311SOL     OW  931   2.352   2.724   2.344  0.0306  0.6752  0.2762
  311SOL    HW1  932   2.421   2.699   2.271  1.0357 -2.3211 -0.2990
  311SOL    HW2  933   2.391   2.775   2.421  0.5176 -1.5258 -0.9297
  312SOL     OW  934   2.006   2.153   0.045 -0.0499 -0.0021  0.0970
  312SOL    HW1  935   2.028   2.159   3.037  0.1989  0.7529 -0.5487
  312SOL    HW2  936   2.021   2.242   0.093  1.2382  0.4145  0.4958
  313SOL     OW  937   0.746   0.201   0.225  0.1119  0.3070  0.7580
  313SOL    HW1  938   0.672   0.196   0.291  1.7731  1.5351  1.6049
  313SOL    HW2  939   0.709   0.212   0.129  1.1082 -1.4828 -0.1769
  314SOL     OW  940   2.270   1.187   2.841  0.4934  0.4788 -0.4947
  314SOL    HW1  941   2.236   1.092   2.839 -1.0034  3.3281  0.1026
  314SOL    HW2  942   2.313   1.219   2.757 -0.9679 -0.8169  2.6003
  315SOL     OW  943   1.603   0.374   2.686 -0.3191  0.1132 -0.6642
  315SOL    HW1  944   1.593   0.296   2.618 -0.5076 -0.1607  0.6502
  315SOL    HW2  945   1.545   0.458   2.660  0.8795  0.5496  0.9895
  316SOL     OW  946   3.035   0.990   0.662  0.0530  0.4819  0.6591
  316SOL    HW1  947   2.958   0.974   0.727 -0.9312 -1.6299 -2.4750
  316SOL    HW2  948   3.004   0.967   0.566  0.6543  0.6750 -1.7922
  317SOL     OW  949   0.593   2.680   0.071  0.5438 -0.1011 -0.1657
  317SOL    HW1  950   0.558   2.645   3.077 -0.4449 -1.0166  1.0773
  317SOL    HW2  951   0.545   2.766   0.101 -0.2517  0.1368 -1.2060
  318SOL     OW  952   2.353   2.819   1.014 -0.0328  0.4197  0.0941
  318SOL    HW1  953   2.288   2.885   1.049  1.7439  2.5735  1.4139
  318SOL    HW2  954   2.444   2.844   1.047 -0.8217  0.8643  1.1605
  319SOL     OW  955   1.186   1.415   2.632 -0.1844  0.1528  0.1654
  319SOL    HW1  956   1.093   1.444   2.658 -1.3806  0.3289  0.1858
  319SOL    HW2  957   1.224   1.450   2.544  1.6146  0.0973 -0.2541
  320SOL     OW  958   0.642   1.869   1.049  0.6843  0.2257 -0.3270
  320SOL    HW1  959   0.568   1.813   1.000 -2.8430 -0.0169 -0.0634
  320SOL    HW2  960   0.611   1.967   1.057 -2.1456  0.7501 -0.2656
  321SOL     OW  961   1.286   2.797   2.165 -0.4439 -0.5380  0.1795
  321SOL    HW1  962   1.245   2.840   2.078 -3.8604  1.7350  1.1206
  321SOL    HW2  963   1.341   2.867   2.212 -0.5502 -0.6146  1.5442
  322SOL     OW  964   2.315   1.903   2.377  0.1091 -0.3167 -0.7530
  322SOL    HW1  965   2.218   1.870   2.363  0.0788  0.6658 -0.4597
  322SOL    HW2  966   2.326   1.985   2.435 -1.0901  0.8928 -1.9463
  323SOL     OW  967   2.768   0.331   0.774 -0.2091  0.2260  0.3700
  323SOL    HW1  968   2.782   0.230   0.780 -1.4863 -0.0909 -1.7449
  323SOL    HW2  969   2.779   0.366   0.681 -0.3188 -2.7707  0.5160
  324SOL     OW  970   2.950   2.683   2.566  0.2996 -0.3117 -0.0697
  324SOL    HW1  971   3.047   2.671   2.587 -0.3835 -2.1404 -0.5551
  324SOL    HW2  972   2.912   2.600   2.519 -0.8293 -2.9753 -2.3517
  325SOL     OW  973   1.040   0.696   2.738 -0.0291 -0.2744 -0.4279
  325SOL    HW1  974   1.129   0.646   2.726  0.8386 -0.0048  2.7771
  325SOL    HW2  975   0.961   0.636   2.719  1.6356 -0.9279  0.9735
  326SOL     OW  976   2.427   2.388   1.478 -0.4827 -0.1929 -0.0106
  326SOL    HW1  977   2.423   2.490   1.480  1.4092 -1.0864 -1.2978
  326SOL    HW2  978   2.520   2.354   1.502 -1.0525  0.5364  1.0937
  327SOL     OW  979   2.325   2.965   0.091 -0.3733 -0.0054  0.5103
  327SOL    HW1  980   2.316   3.004   0.185  1.6036  1.0655 -0.3552
  327SOL    HW2  981   2.340   2.862   0.092 -0.3237 -1.1238  1.8777
  328SOL     OW  982   0.219   0.950   1.519  0.3041 -0.3348  0.4533
  328SOL    HW1  983   0.258   0.883   1.455 -1.3382  0.4135 -1.3705
  328SOL    HW2  984   0.263   1.042   1.506 -1.1734  1.0219  0.5886
  329SOL     OW  985   2.109   0.720   1.528  0.1067  0.1308  0.3785
  329SOL    HW1  986   2.128   0.717   1.628  0.9259 -0.9968  4.3687
  329SOL    HW2  987   2.038   0.654   1.509  2.7356  3.7407  1.0594
  330SOL     OW  988   0.235   0.823   0.913  0.2673 -0.5496 -0.4184
  330SOL    HW1  989   0.300   0.791   0.839  1.4247 -1.7251 -1.2616
  330SOL    HW2  990   0.214   0.750   0.974  1.5820  1.6171 -3.0137
  331SOL     OW  991   0.396   1.411   1.850  0.2038  0.3622 -0.3868
  331SOL    HW1  992   0.493   1.391   1.868 -2.6001  0.4982 -1.1787
  331SOL    HW2  993   0.383   1.505   1.810  0.2849  1.2042  1.0269
  332SOL     OW  994   0.060   2.402   1.576  0.2511  0.2400 -0.1701
  332SOL    HW1  995   3.049   2.412   1.571 -0.7019 -1.0288 -1.1476
  332SOL    HW2  996   0.088   2.356   1.663 -0.5495  0.2196  1.8837
  333SOL     OW  997   2.999   2.967   0.851 -0.4149 -0.7919  0.3594
  333SOL    HW1  998   3.079   2.956   0.785  1.4787  0.0456  0.7637
  333SOL    HW2  999   2.983   2.877   0.894 -0.6849  1.0911 -0.4963
  334SOL     OW 1000   0.310   1.213   0.558  0.1658  0.2407  0.2811
  334SOL    HW1 1001   0.212   1.244   0.556  4.3195  1.8364  0.8531
  334SOL    HW2 1002   0.371   1.280   0.609 -1.7588  0.4280 -2.2465
  335SOL     OW 1003   0.508   2.551   2.931  0.1991  0.2020 -0.1665
  335SOL    HW1 1004   0.437   2.491   2.977  1.4148  0.9660  0.6807
  335SOL    HW2 1005   0.463   2.608   2.858 -0.4144 -0.0752  0.2021
  336SOL     OW 1006   0.058   2.537   2.240  0.2697  0.3952 -0.0242
  336SOL    HW1 1007   0.057   2.441   2.199 -0.0497 -0.2946  0.0051
  336SOL    HW2 1008   3.077   2.538   2.313 -3.2154 -3.3050 -1.7912
  337SOL     OW 1009   1.579   2.242   1.805  0.4149 -0.0452  0.1722
  337SOL    HW1 1010   1.521   2.312   1.755  0.6089  0.7900 -0.7088
  337SOL    HW2 1011   1.525   2.178   1.857  0.3877  0.9781 -0.3486
  338SOL     OW 1012   1.004   0.340   2.728  0.3224 -0.2553 -0.2574
  338SOL    HW1 1013   0.939   0.416   2.710  2.8441 -1.0796  1.0647
  338SOL    HW2 1014   0.957   0.252   2.715  2.7082  2.3085 -0.1962
  339SOL     OW 1015   0.439   0.870   2.237  0.3533  0.1536  0.9004
  339SOL    HW1 1016   0.377   0.880   2.155 -0.7695 -1.3766 -0.2670
  339SOL    HW2 1017   0.504   0.951   2.257 -0.3928  0.7488  2.2701
  340SOL     OW 1018   2.083   0.298   0.718 -0.1483 -0.0712 -0.3518
  340SOL    HW1 1019   2.149   0.245   0.775  0.8885 -1.1859 -0.4846
  340SOL    HW2 1020   2.049   0.375   0.772  0.4878 -0.0520  0.8957
  341SOL     OW 1021   2.059   1.254   0.835  0.1809  0.2791 -0.1927
  341SOL    HW1 1022   1.984   1.308   0.873  1.8654 -0.2970 -1.4741
  341SOL    HW2 1023   2.090   1.198   0.916  0.2353 -1.1231  0.5036
  342SOL     OW 1024   2.104   2.614   2.897  0.2778  0.1223 -0.7949
  342SOL    HW1 1025   2.199   2.582   2.876  0.4406  0.2751  2.4073
  342SOL    HW2 1026   2.034   2.548   2.865  0.5579  0.9241  0.9818
  343SOL     OW 1027   0.917   2.441   1.744 -0.5342  0.8206 -0.2599
  343SOL    HW1 1028   0.966   2.462   1.658 -0.6747 -1.1011  2.7258
  343SOL    HW2 1029   0.820   2.466   1.735 -0.1136  1.1388  1.6039
  344SOL     OW 1030   2.359   2.663   1.466  0.0867  0.3441 -0.0807
  344SOL    HW1 1031   2.336   2.683   1.567  0.4692 -1.1375  0.7871
  344SOL    HW2 1032   2.391   2.749   1.421 -0.6772 -0.5006  0.1714
  345SOL     OW 1033   2.453   2.097   3.081  0.1287 -0.7693 -0.4324
  345SOL    HW1 1034   2.458   2.023   3.003 -0.4974 -2.1393 -2.7825
  345SOL    HW2 1035   2.377   2.076   0.057  0.7878 -2.0057  0.6699
  346SOL     OW 1036   1.633   2.424   1.317  0.4884  0.0081 -0.2472
  346SOL    HW1 1037   1.681   2.384   1.232 -1.2608  1.0552 -0.6227
  346SOL    HW2 1038   1.596   2.350   1.380 -0.3128  1.5147 -0.6056
  347SOL     OW 1039   1.259   1.819   1.707 -0.2357  0.6460 -0.5977
  347SOL    HW1 1040   1.269   1.919   1.729 -0.6369 -3.1864  0.9845
  347SOL    HW2 1041   1.175   1.783   1.753  0.0731 -2.5049  0.0157
  348SOL     OW 1042   0.329   2.000   1.986 -0.2472  0.0930 -0.3149
  348SOL    HW1 1043   0.264   2.010   2.063  1.2013  0.3689 -1.1979
  348SOL    HW2 1044   0.387   1.914   1.998  0.5729 -1.4939  0.4417
  349SOL     OW 1045   1.764   1.681   1.398  0.0809  0.5574  0.2597
  349SOL    HW1 1046   1.787   1.592   1.438  1.8914  2.6034 -2.3777
  349SOL    HW2 1047   1.853   1.725   1.389  0.5906 -0.7772  2.6822
  350SOL     OW 1048   2.373   2.152   0.431 -0.0141  0.0765  0.2701
  350SOL    HW1 1049   2.441   2.226   0.404  1.1593  2.2207  0.5095
  350SOL    HW2 1050   2.360   2.158   0.530  1.5111  0.3371 -2.0082
  351SOL     OW 1051   0.960   0.013   1.543 -0.9252  0.1142  0.3521
  351SOL    HW1 1052   0.899   0.096   1.542  0.5743 -1.1982 -1.3728
  351SOL    HW2 1053   0.977   3.067   1.450 -0.5971 -1.2288  3.5575
  352SOL     OW 1054   0.191   1.383   0.812 -0.4902  0.0241  0.2571
  352SOL    HW1 1055   0.274   1.320   0.792  1.6079 -2.5237  0.9268
  352SOL    HW2 1056   0.226   1.478   0.801  0.7398 -1.3561  2.7808
  353SOL     OW 1057   1.032   1.537   2.120  0.8574 -0.4228  0.8844
  353SOL    HW1 1058   1.109   1.475   2.150 -0.0787  0.8181 -2.1222
  353SOL    HW2 1059   1.051   1.633   2.152 -0.4812 -1.1517  1.5239
  354SOL     OW 1060   1.651   2.833   2.102 -0.3435 -0.2424  0.1064
  354SOL    HW1 1061   1.628   2.932   2.117  0.0188 -3.3199  0.1137
  354SOL    HW2 1062   1.613   2.807   2.014 -0.9560 -1.5140  0.3671
  355SOL     OW 1063   2.201   1.323   0.113 -0.3514  0.2500  0.3761
  355SOL    HW1 1064   2.246   1.252   0.166  0.9896  0.6445 -0.6036
  355SOL    HW2 1065   2.268   1.349   0.042 -0.8879 -1.9852  1.5395
  356SOL     OW 1066   2.903   1.685   1.480  0.3571  0.5407 -0.5663
  356SOL    HW1 1067   2.848   1.603   1.519 -2.6737 -2.4707  2.5130
  356SOL    HW2 1068   2.982   1.655   1.420  2.4167 -0.9063  0.9678
  357SOL     OW 1069   0.385   2.709   1.556  0.5720  0.2655  0.4724
  357SOL    HW1 1070   0.350   2.632   1.491 -0.9005 -1.5648 -1.8047
  357SOL    HW2 1071   0.348   2.800   1.524 -0.2224  0.2421  1.2614
  358SOL     OW 1072   2.539   1.687   1.441  0.0721  0.4699 -0.1248
  358SOL    HW1 1073   2.581   1.696   1.533  1.0668 -1.5320  2.7826
  358SOL    HW2 1074   2.590   1.609   1.396  3.0161 -2.8125 -0.5544
  359SOL     OW 1075   2.211   2.814   2.715 -0.1484 -0.2968 -0.1709
  359SOL    HW1 1076   2.176   2.862   2.633  0.0556  1.2598  1.8989
  359SOL    HW2 1077   2.135   2.755   2.754  0.5902 -1.7768  0.3190
  360SOL     OW 1078   1.271   3.063   1.004  0.4902  0.1322  0.5078
  360SOL    HW1 1079   1.318   3.085   0.914  1.4235 -0.4285 -3.0117
  360SOL    HW2 1080   1.244   2.962   1.000  0.7037  1.0260 -0.7586
  361SOL     OW 1081   2.136   0.416   0.322  0.1670 -0.1876 -0.8069
  361SOL    HW1 1082   2.073   0.422   0.401 -2.2324  2.2002 -0.5173
  361SOL    HW2 1083   2.169   0.507   0.291 -1.1198  1.5068 -0.4022
  362SOL     OW 1084   1.754   1.140   0.935 -0.2283 -0.2638 -0.0099
  362SOL    HW1 1085   1.810   1.203   0.998  1.9074  1.4446  0.1201
  362SOL    HW2 1086   1.662   1.183   0.914 -0.6574  0.4122  1.5312
  363SOL     OW 1087   2.357   1.008   2.191  0.1604  0.1562  0.6584
  363SOL    HW1 1088   2.280   0.950   2.220 -0.3069  1.8804  0.0228
  363SOL    HW2 1089   2.339   1.026   2.091  0.4432  1.6026 -0.1858
  364SOL     OW 1090   0.385   0.290   1.165  0.3590  0.6387 -0.1265
  364SOL    HW1 1091   0.361   0.366   1.104  2.3050 -0.3424 -0.5729
  364SOL    HW2 1092   0.323   0.208   1.142 -1.3561 -1.2494 -0.6172
  365SOL     OW 1093   0.629   0.124   2.822 -0.5460 -0.0736  0.0248
  365SOL    HW1 1094   0.588   0.028   2.809 -1.7692  0.9860 -0.7676
  365SOL    HW2 1095   0.712   0.132   2.764 -0.6022  4.2947  0.6115
  366SOL     OW 1096   1.922   2.415   2.867 -0.0298 -1.0374  0.4169
  366SOL    HW1 1097   1.855   2.451   2.932  0.4129 -5.3703 -0.2657
  366SOL    HW2 1098   1.956   2.323   2.897 -0.7618 -2.3654 -0.2627
  367SOL     OW 1099   2.990   2.442   0.259 -0.4741  0.1382 -0.8515
  367SOL    HW1 1100   2.935   2.524   0.228 -2.9595 -0.0785 -4.5249
  367SOL    HW2 1101   3.079   2.454   0.310  1.8781  0.0640 -0.1830
  368SOL     OW 1102   2.986   1.337   1.204  0.3928  0.3813 -0.3180
  368SOL    HW1 1103   2.914   1.406   1.180  0.1265 -1.2192 -0.5093
  368SOL    HW2 1104   3.035   1.310   1.122  0.2829  1.3854  3.0039
  369SOL     OW 1105   0.867   0.114   2.702 -0.7769 -0.7379 -0.0802
  369SOL    HW1 1106   0.885   0.093   2.604  2.6610  0.2403 -0.6324
  369SOL    HW2 1107   0.944   0.091   2.764  0.4089  0.1192 -1.3005
  370SOL     OW 1108   2.810   0.454   0.539  0.3377  0.2071  0.3592
  370SOL    HW1 1109   2.715   0.467   0.498  0.2231  1.9602 -0.4497
  370SOL    HW2 1110   2.849   0.370   0.492  0.6829  1.7383 -1.2545
  371SOL     OW 1111   1.502   2.173   1.024  0.3834 -0.2051  0.1704
  371SOL    HW1 1112   1.581   2.154   1.089 -2.7142  0.7582 -1.4186
  371SOL    HW2 1113   1.530   2.253   0.960  2.3677 -0.9985 -2.3922
  372SOL     OW 1114   3.061   0.608   2.606 -0.1351 -0.3831 -0.8703
  372SOL    HW1 1115   3.029   0.612   2.511 -0.4142  0.9622  0.5570
  372SOL    HW2 1116   3.033   0.691   2.661  0.4421  1.7264 -0.2744
  373SOL     OW 1117   2.932   1.669   0.943 -0.4404  0.2667  0.4968
  373SOL    HW1 1118   2.867   1.727   0.891  0.8991  3.6987  0.5631
  373SOL    HW2 1119   2.891   1.645   1.035 -2.2722  1.4634 -0.4971
  374SOL     OW 1120   0.853   2.699   2.845 -0.1497 -0.1369 -0.1617
  374SOL    HW1 1121   0.822   2.789   2.887 -1.8216  0.8016 -0.8052
  374SOL    HW2 1122   0.951   2.714   2.818  1.8526 -1.1843  1.4110
  375SOL     OW 1123   3.077   2.853   0.086  0.0301 -0.2164  0.5905
  375SOL    HW1 1124   0.043   2.907   0.154  2.8231 -1.3772  1.6415
  375SOL    HW2 1125   0.046   2.823   0.005  2.0686 -0.2574  1.4277
  376SOL     OW 1126   3.020   2.098   1.553 -0.0240 -0.0171 -0.0579
  376SOL    HW1 1127   3.045   2.137   1.645 -0.4248 -0.6029  0.0783
  376SOL    HW2 1128   2.990   2.004   1.566  1.1770  3.1275  0.8666
  377SOL     OW 1129   1.695   2.188   2.456 -0.5493  0.2386 -0.1423
  377SOL    HW1 1130   1.611   2.144   2.425 -0.1771  0.2677 -0.7885
  377SOL    HW2 1131   1.724   2.268   2.399 -0.6837  1.1760 -2.2921
  378SOL     OW 1132   0.507   0.351   2.763  0.1458  0.5160  0.1599
  378SOL    HW1 1133   0.562   0.439   2.761  2.0952  2.8495 -0.9720
  378SOL    HW2 1134   0.558   0.272   2.799  0.5450 -0.2962 -1.6660
  379SOL     OW 1135   0.532   0.674   0.379 -0.4320 -0.0855  0.1357
  379SOL    HW1 1136   0.480   0.719   0.454  1.8749 -1.7794 -1.3134
  379SOL    HW2 1137   0.619   0.720   0.361 -1.1176  1.3392  1.0041
  380SOL     OW 1138   0.007   1.751   1.941  0.1217  0.0146  0.1012
  380SOL    HW1 1139   3.020   1.691   1.911 -0.9674  1.7888 -0.1368
  380SOL    HW2 1140   0.092   1.701   1.965 -1.7999  0.8158  1.1624
  381SOL     OW 1141   0.253   0.914   1.987 -0.6248  0.2722 -0.2122
  381SOL    HW1 1142   0.224   0.816   1.982  1.2332  1.3010 -1.9866
  381SOL    HW2 1143   0.217   0.957   1.904  1.4447 -0.6285 -1.9590
  382SOL     OW 1144   2.125   1.887   0.388 -0.1489 -0.0766 -0.3218
  382SOL    HW1 1145   2.080   1.794   0.406 -0.6024 -0.2523  0.3369
  382SOL    HW2 1146   2.146   1.930   0.479 -1.5710  2.9827  0.6974
  383SOL     OW 1147   3.074   1.999   2.870  0.1802 -0.0810  0.2790
  383SOL    HW1 1148   3.084   2.032   2.963  0.4108  2.6694 -0.4194
  383SOL    HW2 1149   3.021   2.057   2.803 -1.6153 -1.8737  0.4415
  384SOL     OW 1150   0.843   2.185   2.779 -0.1406  0.0842 -0.8662
  384SOL    HW1 1151   0.762   2.161   2.839 -3.2410 -2.5039  0.2323
  384SOL    HW2 1152   0.856   2.289   2.777  2.4923 -0.2296 -1.4618
  385SOL     OW 1153   2.763   1.698   0.674  0.4356 -0.6678 -0.1210
  385SOL    HW1 1154   2.743   1.609   0.627 -0.7944 -1.0291 -1.2093
  385SOL    HW2 1155   2.711   1.776   0.626 -0.5090  4.0113 -0.9004
  386SOL     OW 1156   2.250   1.597   1.494  0.2943 -0.1443  0.4682
  386SOL    HW1 1157   2.342   1.617   1.452  2.3370  0.5662 -0.7837
  386SOL    HW2 1158   2.206   1.687   1.508 -0.2550 -1.1926  0.4751
  387SOL     OW 1159   2.820   1.193   2.209  0.0943  0.2211 -0.0310
  387SOL    HW1 1160   2.849   1.130   2.283  1.3437 -0.4385  1.9129
  387SOL    HW2 1161   2.758   1.256   2.257 -1.6153 -2.8724 -1.1008
  388SOL     OW 1162   2.725   1.464   1.928  0.4683  0.3131  0.7280
  388SOL    HW1 1163   2.687   1.467   2.021  0.4328  1.0268 -1.0386
  388SOL    HW2 1164   2.826   1.455   1.920 -2.6596  1.0633  0.5711
  389SOL     OW 1165   1.972   1.172   1.926  0.5260  0.0042  0.4320
  389SOL    HW1 1166   2.020   1.197   1.838 -1.6586  1.6109 -2.0928
  389SOL    HW2 1167   1.898   1.237   1.948  1.3433 -1.1336  0.8112
  390SOL     OW 1168   1.892   0.102   0.713  0.1589  0.0962 -0.1547
  390SOL    HW1 1169   1.967   0.167   0.697 -2.2958  0.4401  3.1660
  390SOL    HW2 1170   1.807   0.145   0.678 -1.3827 -0.9173  0.0849
  391SOL     OW 1171   2.169   1.740   1.253  0.1905  0.0691 -0.0175
  391SOL    HW1 1172   2.260   1.782   1.250 -0.2815 -0.2855 -1.2387
  391SOL    HW2 1173   2.098   1.784   1.313 -0.5938 -0.4954  1.0053
  392SOL     OW 1174   2.488   2.669   0.820  0.0222  0.1861 -0.1073
  392SOL    HW1 1175   2.426   2.719   0.883 -0.2503 -2.0439  0.1068
  392SOL    HW2 1176   2.560   2.618   0.871  0.9351 -2.5523 -1.0042
  393SOL     OW 1177   1.437   1.684   2.835 -0.0512 -0.3595 -0.7857
  393SOL    HW1 1178   1.499   1.604   2.857  0.1330 -1.4099  0.6691
  393SOL    HW2 1179   1.488   1.752   2.776 -0.4272  2.6395  0.4407
  394SOL     OW 1180   0.216   0.012   2.711  0.2147  0.2550 -0.2993
  394SOL    HW1 1181   0.131   0.068   2.710 -1.5114 -0.1532  2.3978
  394SOL    HW2 1182   0.201   3.011   2.751 -0.4992  0.7970 -0.1491
  395SOL     OW 1183   0.742   0.579   0.752  0.6027  0.4949  0.0620
  395SOL    HW1 1184   0.669   0.527   0.807 -2.1528 -1.4735  1.6890
  395SOL    HW2 1185   0.821   0.593   0.815 -0.6915 -2.0709  0.1328
  396SOL     OW 1186   1.456   0.885   0.691  0.4848 -0.1682  0.6723
  396SOL    HW1 1187   1.552   0.860   0.691  2.7128 -0.0963 -0.3798
  396SOL    HW2 1188   1.411   0.863   0.605 -0.8317  0.9518  2.0846
  397SOL     OW 1189   0.584   0.642   2.225 -0.0022 -0.2303 -0.5924
  397SOL    HW1 1190   0.517   0.569   2.205  2.0492  1.9366  0.3927
  397SOL    HW2 1191   0.535   0.728   2.237 -0.1037 -1.4569  1.8822
  398SOL     OW 1192   1.050   0.126   0.397  0.5176  0.0238  0.0614
  398SOL    HW1 1193   1.007   0.211   0.436 -1.4290  0.4152 -1.6236
  398SOL    HW2 1194   1.101   0.149   0.313 -0.5343  1.7658  1.9536
  399SOL     OW 1195   2.004   2.886   1.655 -0.5952  0.0000 -0.0636
  399SOL    HW1 1196   1.965   2.926   1.740  3.7133  0.7234  0.5570
  399SOL    HW2 1197   1.961   2.796   1.633 -0.2201  0.0116 -0.1969
  400SOL     OW 1198   0.881   1.829   1.991  0.6193  0.4806  0.4966
  400SOL    HW1 1199   0.887   1.801   2.090 -0.2774 -0.8215 -0.9705
  400SOL    HW2 1200   0.971   1.803   1.943 -0.5425 -1.3500  0.7204
  401SOL     OW 1201   0.609   1.289   2.709  0.1902  1.0312  0.5238
  401SOL    HW1 1202   0.608   1.342   2.795  3.1060 -1.0420 -2.1020
  401SOL    HW2 1203   0.594   1.188   2.728 -1.3578  0.1154 -1.6753
  402SOL     OW 1204   2.891   2.029   1.065 -0.1939  0.2043  0.1338
  402SOL    HW1 1205   2.892   1.990   0.972 -0.2761  0.9245  0.5243
  402SOL    HW2 1206   2.844   1.965   1.128 -0.8013  0.9221 -1.7299
  403SOL     OW 1207   0.219   0.826   2.406  0.1883 -0.2611  0.2385
  403SOL    HW1 1208   0.130   0.849   2.349 -4.4168  2.2103 -1.4533
  403SOL    HW2 1209   0.303   0.842   2.351  0.4178 -3.5414  0.9945
  404SOL     OW 1210   0.282   2.380   1.949  0.2774 -0.3828  0.1986
  404SOL    HW1 1211   0.296   2.317   1.872  3.3991 -1.4800  1.1082
  404SOL    HW2 1212   0.278   2.479   1.927 -1.1027 -3.1937  1.7508
  405SOL     OW 1213   0.253   0.267   1.949  0.0282 -0.9288  0.3016
  405SOL    HW1 1214   0.328   0.244   1.886 -0.0895 -2.2452 -0.8293
  405SOL    HW2 1215   0.256   0.199   2.022 -1.2852  0.1139 -0.1307
  406SOL     OW 1216   1.563   1.577   2.351 -0.2215 -0.5485 -0.3009
  406SOL    HW1 1217   1.597   1.508   2.421 -1.7609  0.6748  0.5532
  406SOL    HW2 1218   1.599   1.673   2.389  1.5139  3.5957 -1.1850
  407SOL     OW 1219   1.203   1.326   2.210 -0.2037 -0.1501  0.2378
  407SOL    HW1 1220   1.168   1.255   2.150  0.2865  0.1358  1.3527
  407SOL    HW2 1221   1.303   1.303   2.215 -0.2352  0.3369 -0.7194
  408SOL     OW 1222   0.862   0.021   2.413 -0.1131  0.2387  0.7150
  408SOL    HW1 1223   0.767   3.081   2.433 -1.4286  0.9833  0.8155
  408SOL    HW2 1224   0.879   3.075   2.319 -0.7618 -1.4893 -0.3358
  409SOL     OW 1225   0.267   1.640   0.717  0.4630 -0.2878  0.4026
  409SOL    HW1 1226   0.169   1.665   0.726  1.0882 -0.7937  1.7280
  409SOL    HW2 1227   0.285   1.635   0.618 -0.0209 -0.7502  1.8422
  410SOL     OW 1228   2.554   1.188   0.212  0.4310  0.1892  0.5199
  410SOL    HW1 1229   2.627   1.200   0.284  0.7128 -0.0827 -2.3779
  410SOL    HW2 1230   2.586   1.219   0.117 -2.3725  0.2742  1.3951
  411SOL     OW 1231   0.213   0.104   1.086  0.0402 -0.0440  0.4019
  411SOL    HW1 1232   0.149   0.085   1.165  1.9491  1.5877 -2.3763
  411SOL    HW2 1233   0.238   0.018   1.038  0.9048  2.2163  0.7586
  412SOL     OW 1234   1.579   1.074   1.463  0.3323 -0.0070 -0.3811
  412SOL    HW1 1235   1.634   1.148   1.413  1.9861  2.6140 -2.3355
  412SOL    HW2 1236   1.555   1.001   1.395 -0.6763  1.9880  0.5263
  413SOL     OW 1237   0.860   2.886   1.672 -0.3303 -0.3360 -0.3032
  413SOL    HW1 1238   0.770   2.857   1.635  1.0423  2.6646  2.1841
  413SOL    HW2 1239   0.902   2.971   1.629  3.2673  0.7696  2.4196
  414SOL     OW 1240   2.720   1.548   2.745  0.0774  0.4964 -0.6950
  414SOL    HW1 1241   2.767   1.518   2.830  3.8196  0.5086  2.3679
  414SOL    HW2 1242   2.765   1.521   2.664 -3.9088 -0.2250  0.3778
  415SOL     OW 1243   0.734   2.421   2.972 -0.7336  0.1098 -0.3303
  415SOL    HW1 1244   0.648   2.463   2.944  0.9940  1.2179  1.7604
  415SOL    HW2 1245   0.783   2.489   3.033 -1.5318  1.9474  1.1292
  416SOL     OW 1246   1.897   2.870   0.394  0.4116 -0.9493 -0.0934
  416SOL    HW1 1247   1.932   2.777   0.404  2.4762 -0.5282 -0.2914
  416SOL    HW2 1248   1.948   2.916   0.322  0.7389 -2.6573  2.0555
  417SOL     OW 1249   0.335   0.593   0.756 -0.2092 -1.2546  0.4122
  417SOL    HW1 1250   0.362   0.636   0.669 -0.3067  0.4652  0.8809
  417SOL    HW2 1251   0.318   0.493   0.738  0.1484 -1.7773 -2.4358
  418SOL     OW 1252   2.461   0.191   1.036  0.2359  0.4243  0.4649
  418SOL    HW1 1253   2.363   0.188   1.050  0.3761  2.6488  0.1191
  418SOL    HW2 1254   2.485   0.251   0.955  1.1994 -0.4832 -1.6773
  419SOL     OW 1255   0.163   2.888   0.719  0.2242  0.2460  0.3520
  419SOL    HW1 1256   0.156   2.951   0.638 -0.8537  1.8965 -0.1863
  419SOL    HW2 1257   0.199   2.797   0.701 -1.6981  0.3259 -0.3521
  420SOL     OW 1258   0.211   1.469   1.546  0.0290 -0.0180 -0.2307
  420SOL    HW1 1259   0.270   1.541   1.589  0.4148 -0.2542  1.2730
  420SOL    HW2 1260   0.173   1.501   1.461  0.2154 -2.3627  1.1852
  421SOL     OW 1261   1.213   2.855   0.564 -0.3483 -0.3646  0.3774
  421SOL    HW1 1262   1.135   2.914   0.592 -1.3280 -1.0059  2.4606
  421SOL    HW2 1263   1.190   2.805   0.479  0.7393 -0.2934 -3.0019
  422SOL     OW 1264   0.416   0.512   1.345 -0.4559  0.5141  0.0553
  422SOL    HW1 1265   0.399   0.519   1.450 -0.7009 -0.2887  2.4762
  422SOL    HW2 1266   0.411   0.416   1.314  1.6563 -0.7084  0.1528
  423SOL     OW 1267   0.960   1.247   1.692  0.0528  0.0289 -0.2347
  423SOL    HW1 1268   0.977   1.283   1.787  1.8909  2.0004  2.6011
  423SOL    HW2 1269   0.928   1.151   1.687 -0.8589  0.2150 -0.2335
  424SOL     OW 1270   1.981   1.700   0.015 -0.4424  0.1509  0.0379
  424SOL    HW1 1271   1.963   1.789   0.071  0.0416  1.4534  0.9685
  424SOL    HW2 1272   1.988   1.615   0.071  2.3744 -1.1382 -2.4336
  425SOL     OW 1273   0.182   0.099   2.168  0.2535 -0.0223 -0.2254
  425SOL    HW1 1274   0.115   0.033   2.129  0.3482 -0.2539 -0.5030
  425SOL    HW2 1275   0.189   0.097   2.269  1.3810 -0.1450  2.3364
  426SOL     OW 1276   0.266   2.854   2.785 -0.0382  0.9415  0.4581
  426SOL    HW1 1277   0.240   2.843   2.883 -0.1123 -0.1682  0.2858
  426SOL    HW2 1278   0.291   2.767   2.740 -0.7553 -0.5786 -0.4999
  427SOL     OW 1279   0.926   0.939   2.703 -0.1633  0.1407 -0.3104
  427SOL    HW1 1280   0.978   1.022   2.682 -1.2912  0.3983  3.2306
  427SOL    HW2 1281   0.990   0.856   2.696  1.0034 -2.4868 -2.0128
  428SOL     OW 1282   2.784   1.198   1.643  0.0416  0.3353  0.1371
  428SOL    HW1 1283   2.708   1.156   1.692  1.3747 -0.0435 -0.6823
  428SOL    HW2 1284   2.870   1.164   1.691 -0.5647  0.1669  0.0206
  429SOL     OW 1285   2.355   3.075   0.739 -0.0297  0.3359 -0.0791
  429SOL    HW1 1286   2.294   0.052   0.787  0.1759  0.8580  2.7530
  429SOL    HW2 1287   2.306   2.991   0.717  0.0836 -0.4331 -2.4862
  430SOL     OW 1288   0.744   1.507   2.151  0.1352 -0.6396 -0.7480
  430SOL    HW1 1289   0.695   1.583   2.196  1.4756  2.2748  0.0712
  430SOL    HW2 1290   0.842   1.516   2.171 -1.0493 -1.8275  0.1319
  431SOL     OW 1291   2.683   1.444   1.358  0.2698 -0.3434  0.1826
  431SOL    HW1 1292   2.731   1.433   1.446 -1.5742 -0.5099 -2.5941
  431SOL    HW2 1293   2.616   1.370   1.347  1.4066  1.0774  0.3469
  432SOL     OW 1294   1.001   2.767   2.445 -0.2076 -0.2941  0.0312
  432SOL    HW1 1295   1.023   2.735   2.540 -0.3972 -0.3274 -0.9673
  432SOL    HW2 1296   1.052   2.711   2.378 -1.1183 -1.0564  2.1821
  433SOL     OW 1297   1.630   0.267   1.996  0.1143  0.0807 -0.2271
  433SOL    HW1 1298   1.677   0.222   1.917 -1.7664  0.9841 -1.7850
  433SOL    HW2 1299   1.591   0.351   1.956 -1.3829  0.5893 -2.8789
  434SOL     OW 1300   0.673   2.415   2.447 -0.2721  0.5972  0.5455
  434SOL    HW1 1301   0.640   2.506   2.426  0.8834 -0.9177  1.8574
  434SOL    HW2 1302   0.734   2.418   2.528 -1.2521 -0.8715 -0.3791
  435SOL     OW 1303   0.425   2.870   0.167 -0.2561  0.7102  0.5943
  435SOL    HW1 1304   0.443   2.970   0.151  0.9083  1.2366  0.5840
  435SOL    HW2 1305   0.380   2.862   0.259  0.5664 -3.7981 -1.0160
  436SOL     OW 1306   0.721   0.698   1.975 -0.2073 -0.1856 -0.4037
  436SOL    HW1 1307   0.647   0.754   1.937  2.6151 -3.0887  2.8113
  436SOL    HW2 1308   0.694   0.652   2.067  0.8396  0.9452  0.0904
  437SOL     OW 1309   0.304   2.389   2.567  0.0468  0.2079 -0.3719
  437SOL    HW1 1310   0.333   2.361   2.475  0.9299 -0.4758  1.4559
  437SOL    HW2 1311   0.337   2.316   2.628 -0.4488  0.2652 -2.9209
  438SOL     OW 1312   0.858   1.365   1.473 -0.3352  0.3660 -0.2348
  438SOL    HW1 1313   0.882   1.460   1.493 -0.3130 -1.0043 -1.8004
  438SOL    HW2 1314   0.890   1.305   1.551 -0.0501  0.9088  1.3101
  439SOL     OW 1315   2.537   0.821   2.255  0.5632  0.6328 -0.1211
  439SOL    HW1 1316   2.616   0.855   2.307 -0.4898  0.0485 -0.1715
  439SOL    HW2 1317   2.483   0.902   2.226 -1.5972 -0.6413  1.5131
  440SOL     OW 1318   0.446   0.589   0.141  0.8705 -0.2495 -0.0073
  440SOL    HW1 1319   0.408   0.496   0.124 -0.4042  1.7585 -2.9551
  440SOL    HW2 1320   0.476   0.614   0.234  2.6620  0.9240 -1.4054
  441SOL     OW 1321   1.359   2.281   1.606 -0.2088  0.4057  0.1805
  441SOL    HW1 1322   1.429   2.253   1.536 -1.1648 -1.9749 -0.5556
  441SOL    HW2 1323   1.283   2.213   1.623 -0.9969 -1.7583 -1.7893
  442SOL     OW 1324   1.917   1.540   0.673 -0.0884  0.1186  0.3995
  442SOL    HW1 1325   1.940   1.626   0.720  1.5578  2.9935 -0.6639
  442SOL    HW2 1326   1.999   1.479   0.672  1.8273 -2.2186  0.1353
  443SOL     OW 1327   2.658   2.042   2.687 -0.1790  0.0193 -0.4581
  443SOL    HW1 1328   2.615   2.133   2.665  2.2642 -1.2751 -1.2476
  443SOL    HW2 1329   2.663   1.973   2.613  1.7910 -0.4934 -1.0328
  444SOL     OW 1330   1.593   1.409   2.871 -0.2864 -0.4781  0.2002
  444SOL    HW1 1331   1.614   1.424   2.968  0.8684 -1.2123 -0.3363
  444SOL    HW2 1332   1.509   1.357   2.846  1.4441  1.2678  1.0012
  445SOL     OW 1333   2.547   2.687   2.174 -0.1774 -0.1037 -0.0449
  445SOL    HW1 1334   2.615   2.612   2.166  0.6125  1.1159  1.9138
  445SOL    HW2 1335   2.589   2.784   2.194 -0.8431  4.0134 -0.6245
  446SOL     OW 1336   0.743   0.907   1.502 -0.0971  0.6371 -0.3639
  446SOL    HW1 1337   0.720   0.956   1.421  1.9307  0.3350 -0.3253
  446SOL    HW2 1338   0.821   0.840   1.481  1.2359 -0.3445  0.9262
  447SOL     OW 1339   0.940   0.907   0.914  0.0278 -0.3900 -0.3892
  447SOL    HW1 1340   0.863   0.919   0.975  1.5626  0.9865  0.2261
  447SOL    HW2 1341   1.018   0.968   0.938  0.7669  0.2187 -0.1954
  448SOL     OW 1342   0.930   1.004   2.053  0.0847 -0.1263  0.0045
  448SOL    HW1 1343   0.858   1.071   2.088 -2.5021  2.8233 -0.9595
  448SOL    HW2 1344   0.961   0.932   2.116 -0.1519  1.7928 -1.9856
  449SOL     OW 1345   0.043   2.081   2.329 -0.1737  0.0658 -0.5627
  449SOL    HW1 1346   3.067   2.006   2.309 -0.5508  1.3570 -0.6780
  449SOL    HW2 1347   0.140   2.053   2.334  1.8966 -1.6831 -1.8124
  450SOL     OW 1348   2.390   1.917   2.101  0.1582  0.0695 -0.2719
  450SOL    HW1 1349   2.396   1.911   2.206 -1.0534 -0.8340  2.0871
  450SOL    HW2 1350   2.342   1.838   2.057 -2.0405  0.9214 -0.2194
  451SOL     OW 1351   2.349   1.134   1.273 -0.3788 -0.4066 -0.3446
  451SOL    HW1 1352   2.299   1.092   1.196  4.5014  1.2938 -1.3806
  451SOL    HW2 1353   2.449   1.105   1.270  1.5741 -0.0997  2.8422
  452SOL     OW 1354   0.338   1.206   1.522 -0.1330 -0.1081  0.4505
  452SOL    HW1 1355   0.270   1.282   1.554 -0.0296  2.4112  0.2638
  452SOL    HW2 1356   0.395   1.235   1.442 -2.1051 -2.2633  1.5603
  453SOL     OW 1357   0.369   1.200   0.983 -0.4467  0.1174  0.1869
  453SOL    HW1 1358   0.462   1.175   0.947  1.4940  0.8390  1.6621
  453SOL    HW2 1359   0.335   1.117   1.029 -3.2623  0.4889 -1.5214
  454SOL     OW 1360   0.272   1.453   0.272 -0.7586 -0.3611 -0.2323
  454SOL    HW1 1361   0.350   1.516   0.255 -3.7727  0.3114  2.3794
  454SOL    HW2 1362   0.291   1.356   0.253  1.5896 -1.3285 -0.8472
  455SOL     OW 1363   1.765   0.881   0.881  0.0736 -0.5970  0.2891
  455SOL    HW1 1364   1.769   0.981   0.880  0.4106 -1.7331 -0.1403
  455SOL    HW2 1365   1.822   0.841   0.954 -2.4171  1.0364 -2.6641
  456SOL     OW 1366   1.598   2.360   0.861 -0.3436  0.1248  0.1967
  456SOL    HW1 1367   1.551   2.441   0.822  3.5135  0.8133  0.4704
  456SOL    HW2 1368   1.647   2.317   0.782 -1.0562 -0.8620 -5.2018
  457SOL     OW 1369   1.724   0.082   2.766  0.0189 -0.1004 -0.1699
  457SOL    HW1 1370   1.724   3.073   2.749 -0.9704 -0.0685 -1.2120
  457SOL    HW2 1371   1.661   0.117   2.696  0.3766 -0.8305  0.5258
  458SOL     OW 1372   2.453   0.374   0.039  0.3918 -0.0065 -0.7731
  458SOL    HW1 1373   2.392   0.344   3.054 -1.7962 -1.8700  0.5531
  458SOL    HW2 1374   2.551   0.375   0.013 -1.4587 -0.3094  0.6743
  459SOL     OW 1375   3.041   1.263   2.094  1.2195 -0.0085 -0.5213
  459SOL    HW1 1376   0.005   1.327   2.156 -0.6426  0.6982 -1.4234
  459SOL    HW2 1377   2.942   1.253   2.124 -1.3422 -0.9011 -2.2430
  460SOL     OW 1378   0.319   0.807   2.916 -0.2327 -0.0798 -0.4047
  460SOL    HW1 1379   0.289   0.754   2.836 -2.0642  0.9179  1.3016
  460SOL    HW2 1380   0.404   0.772   2.956 -3.9191 -0.7308 -1.8329
  461SOL     OW 1381   0.008   2.305   0.697 -0.0029  0.0348  0.4904
  461SOL    HW1 1382   0.025   2.226   0.755 -2.6745  2.7907 -2.2115
  461SOL    HW2 1383   0.002   2.274   0.599 -2.4043  0.1046 -1.1199
  462SOL     OW 1384   0.062   3.033   1.673  0.1210 -0.2091  0.4085
  462SOL    HW1 1385   0.026   2.962   1.735  1.8015 -2.7903 -0.1417
  462SOL    HW2 1386   3.079   3.056   1.607  1.4695 -2.8008  1.5790
  463SOL     OW 1387   1.962   2.044   2.012 -0.3030 -0.2996  0.1837
  463SOL    HW1 1388   2.050   2.070   1.962 -0.0197  3.3761  0.7700
  463SOL    HW2 1389   1.899   2.125   2.023 -0.3510  0.9476 -0.6795
  464SOL     OW 1390   0.252   2.814   1.266 -0.0601 -0.1304  0.1086
  464SOL    HW1 1391   0.277   2.877   1.350  0.9574  2.5348  3.4458
  464SOL    HW2 1392   0.268   2.862   1.176 -0.1237 -0.8994 -2.3795
  465SOL     OW 1393   0.646   0.155   1.384  0.2565  0.5139  0.1272
  465SOL    HW1 1394   0.703   0.208   1.451 -1.1322  2.2909  1.7462
  465SOL    HW2 1395   0.545   0.161   1.414 -0.1021  0.2842  1.6871
  466SOL     OW 1396   1.306   2.002   2.349  0.0919 -0.1023 -0.0023
  466SOL    HW1 1397   1.289   1.906   2.316  0.4666 -1.9678 -0.7893
  466SOL    HW2 1398   1.229   2.067   2.326 -0.9761  0.4881 -0.7788
  467SOL     OW 1399   0.005   1.667   0.707  0.1127  0.3917  0.3868
  467SOL    HW1 1400   3.031   1.636   0.773 -1.1839  0.3063 -1.9825
  467SOL    HW2 1401   3.055   1.668   0.616 -0.1570 -1.3356  1.4526
  468SOL     OW 1402   2.274   1.842   2.720 -0.2696 -0.1017 -0.7219
  468SOL    HW1 1403   2.281   1.742   2.726 -0.2073  0.9275 -3.5146
  468SOL    HW2 1404   2.281   1.873   2.622 -0.1858 -1.1500  0.3022
  469SOL     OW 1405   0.996   2.111   0.554  0.2784 -0.5717 -0.6025
  469SOL    HW1 1406   1.076   2.174   0.546  1.4700  0.1304 -1.7556
  469SOL    HW2 1407   1.029   2.030   0.605  1.3074 -1.8314  1.7957
  470SOL     OW 1408   1.975   1.839   1.412 -0.0968  0.5598  0.1900
  470SOL    HW1 1409   1.956   1.936   1.392  1.2079 -1.7369 -1.2847
  470SOL    HW2 1410   1.974   1.819   1.515 -4.3506  0.8596 -0.3817
  471SOL     OW 1411   0.449   2.293   0.206 -0.5630  0.8263 -0.1162
  471SOL    HW1 1412   0.451   2.371   0.270  0.1199 -2.6304 -0.2727
  471SOL    HW2 1413   0.418   2.324   0.115 -1.5998  1.9726  0.6910
  472SOL     OW 1414   2.509   1.709   2.397  0.6352 -0.1378 -0.3233
  472SOL    HW1 1415   2.495   1.656   2.480  2.0085  1.5770 -1.3137
  472SOL    HW2 1416   2.445   1.783   2.385  2.9643 -1.7047  1.0193
  473SOL     OW 1417   1.440   2.563   0.774  0.0869  0.0566 -0.2266
  473SOL    HW1 1418   1.363   2.550   0.838  0.0210  2.1986 -0.5908
  473SOL    HW2 1419   1.440   2.658   0.743 -2.3029 -1.7755 -1.3389
  474SOL     OW 1420   2.944   3.068   1.469 -0.3592 -0.2359  0.1166
  474SOL    HW1 1421   2.937   2.976   1.421 -2.2034  0.5352  0.1384
  474SOL    HW2 1422   2.851   0.025   1.467 -3.9580 -1.8176  0.9501
  475SOL     OW 1423   1.888   2.976   1.907  0.0513 -0.3044 -0.2841
  475SOL    HW1 1424   1.930   3.021   1.986  2.2215 -0.0584 -0.0333
  475SOL    HW2 1425   1.864   2.881   1.935 -2.8178  0.5620 -0.0942
  476SOL     OW 1426   0.316   0.559   1.024  0.4949 -0.2418  0.1996
  476SOL    HW1 1427   0.234   0.516   1.063  0.9425 -1.5872  0.8765
  476SOL    HW2 1428   0.317   0.569   0.922 -0.2941  1.6944  0.9656
  477SOL     OW 1429   0.562   2.131   1.077  0.1083 -0.4064 -0.1999
  477SOL    HW1 1430   0.522   2.188   0.999 -2.0867  2.4469  0.3607
  477SOL    HW2 1431   0.626   2.194   1.124  0.3286  0.2188 -1.1906
  478SOL     OW 1432   0.878   2.454   2.637 -0.5870  0.0174  0.4181
  478SOL    HW1 1433   0.924   2.468   2.547 -2.8718 -1.3580 -5.5169
  478SOL    HW2 1434   0.911   2.523   2.705 -3.4748 -0.2875 -0.5936
  479SOL     OW 1435   0.206   0.631   1.974  0.3895 -0.1510 -0.6121
  479SOL    HW1 1436   0.125   0.589   1.924  0.8381  1.0564  0.5900
  479SOL    HW2 1437   0.254   0.561   2.027 -0.6685  0.7262 -0.5796
  480SOL     OW 1438   0.188   2.217   2.908  0.4299  0.1018 -0.0759
  480SOL    HW1 1439   0.173   2.133   2.965 -0.1644  1.8994 -1.2258
  480SOL    HW2 1440   0.100   2.266   2.899 -2.2262  0.2820  0.0952
  481SOL     OW 1441   1.630   0.006   2.168 -0.1260 -0.6252  0.4889
  481SOL    HW1 1442   1.699   0.037   2.241  4.7373 -0.9255 -0.8999
  481SOL    HW2 1443   1.607   0.072   2.092 -2.7204 -2.2056  1.5535
  482SOL     OW 1444   1.649   1.853   2.989 -0.0817  0.6612 -0.6792
  482SOL    HW1 1445   1.630   1.805   3.079  0.4182  1.4159 -0.0030
  482SOL    HW2 1446   1.563   1.900   2.961 -3.1099  0.5928  1.2258
  483SOL     OW 1447   1.098   2.698   2.690  0.3201 -0.1705 -0.3994
  483SOL    HW1 1448   1.187   2.648   2.708 -2.1840  1.4649  2.8949
  483SOL    HW2 1449   1.122   2.797   2.707 -0.5241  1.3423  5.2061
  484SOL     OW 1450   0.510   2.655   0.896  0.2636  0.1725  0.8147
  484SOL    HW1 1451   0.562   2.743   0.909  0.5516  0.5408 -0.1671
  484SOL    HW2 1452   0.439   2.645   0.970 -0.1149  2.2743  1.0777
  485SOL     OW 1453   2.040   0.744   0.799  0.2763  0.5419 -0.4523
  485SOL    HW1 1454   2.006   0.836   0.780  0.7095 -1.0759  3.3398
  485SOL    HW2 1455   1.969   0.682   0.843  1.2594 -2.3682  2.3734
  486SOL     OW 1456   1.891   2.732   2.034  0.0330  0.5423  0.7966
  486SOL    HW1 1457   1.966   2.704   2.099  1.6661  2.3373 -1.3215
  486SOL    HW2 1458   1.811   2.771   2.082  2.2054 -0.2947  2.3620
  487SOL     OW 1459   1.245   1.873   0.714  0.6762 -0.0880  0.2265
  487SOL    HW1 1460   1.141   1.875   0.694 -4.0199  1.7910  0.1681
  487SOL    HW2 1461   1.272   1.799   0.778  1.9730  1.6360 -1.7042
  488SOL     OW 1462   2.044   0.194   0.211 -0.3101 -0.3149  0.2840
  488SOL    HW1 1463   2.088   0.277   0.250 -0.6520  1.3882  0.5116
  488SOL    HW2 1464   2.041   0.203   0.108  0.2433 -1.2483  1.1476
  489SOL     OW 1465   1.945   2.927   0.641  0.2855 -0.2798 -0.1192
  489SOL    HW1 1466   1.918   3.022   0.658  0.6891  3.2751 -3.1211
  489SOL    HW2 1467   1.929   2.906   0.542  2.5740  0.0456  0.5182
  490SOL     OW 1468   1.730   2.860   2.951 -0.4835  0.2147  0.4682
  490SOL    HW1 1469   1.808   2.889   3.006 -4.0173  1.6129  0.4348
  490SOL    HW2 1470   1.650   2.915   2.983  1.8108 -0.7040  1.0428
  491SOL     OW 1471   0.910   0.311   1.051  0.3699  0.4082  0.4033
  491SOL    HW1 1472   0.984   0.251   1.075 -2.4331  1.1986 -2.9445
  491SOL    HW2 1473   0.819   0.288   1.092  1.8412  1.0664 -0.3680
  492SOL     OW 1474   1.641   3.039   0.375  0.1556  0.2088 -0.5514
  492SOL    HW1 1475   1.578   3.036   0.456 -1.2620 -0.3095 -0.4744
  492SOL    HW2 1476   1.695   2.952   0.385  2.8664 -1.8193  3.1859
  493SOL     OW 1477   1.663   2.522   2.658 -0.7710 -0.2539  0.2759
  493SOL    HW1 1478   1.672   2.582   2.742  2.4167 -0.9866  2.0918
  493SOL    HW2 1479   1.652   2.424   2.689  0.7181 -2.1544  1.5420
  494SOL     OW 1480   0.605   1.042   0.906 -0.6432 -0.1175  0.2079
  494SOL    HW1 1481   0.562   1.010   0.990 -0.2541  0.2387  1.0850
  494SOL    HW2 1482   0.619   0.966   0.838 -3.7874  1.5293 -1.0803
  495SOL     OW 1483   2.936   0.201   1.746 -0.0942 -0.3488  0.5175
  495SOL    HW1 1484   3.035   0.232   1.735 -0.4378 -0.3634 -2.3866
  495SOL    HW2 1485   2.911   0.185   1.843  1.7637  1.2417  0.1030
  496SOL     OW 1486   2.470   2.305   2.181 -0.0378 -0.2535 -0.1768
  496SOL    HW1 1487   2.465   2.399   2.143 -0.5175 -0.7914  1.1501
  496SOL    HW2 1488   2.376   2.274   2.200  2.0438  1.0149  0.1753
  497SOL     OW 1489   1.532   1.174   2.507 -0.6771 -0.0899  0.0845
  497SOL    HW1 1490   1.504   1.220   2.422 -3.6576  2.1666 -0.1781
  497SOL    HW2 1491   1.543   1.074   2.507 -0.0608 -1.4459  0.9548
  498SOL     OW 1492   0.748   1.773   0.824  0.0343 -0.3704  0.0176
  498SOL    HW1 1493   0.714   1.820   0.907 -3.1169 -1.1230 -1.6614
  498SOL    HW2 1494   0.674   1.779   0.751 -2.5572  0.3969 -1.3694
  499SOL     OW 1495   0.300   1.668   1.119  0.7647 -0.2315 -0.0776
  499SOL    HW1 1496   0.196   1.684   1.129 -3.3271  4.2824  0.4122
  499SOL    HW2 1497   0.346   1.682   1.209 -0.0720  0.6356 -0.2431
  500SOL     OW 1498   1.514   2.471   0.323 -0.2347  0.1485  0.1586
  500SOL    HW1 1499   1.463   2.559   0.297 -1.8406 -3.4473 -0.1133
  500SOL    HW2 1500   1.477   2.425   0.411  0.3808  0.2624 -1.9556
  501SOL     OW 1501   1.970   2.538   0.901 -0.3067 -0.5733 -0.3246
  501SOL    HW1 1502   2.065   2.572   0.908 -2.7717 -1.6915 -3.3996
  501SOL    HW2 1503   1.915   2.600   0.839 -2.7230 -0.2088  1.2771
  502SOL     OW 1504   0.292   0.751   1.326 -0.2523 -0.5234 -0.5816
  502SOL    HW1 1505   0.201   0.739   1.287  0.6017 -1.4903  2.0407
  502SOL    HW2 1506   0.339   0.661   1.326  0.2551  1.8636 -0.9522
  503SOL     OW 1507   2.146   0.208   1.614  0.3530  0.0707  0.2086
  503SOL    HW1 1508   2.092   0.220   1.529  3.1821  0.4200  2.6478
  503SOL    HW2 1509   2.167   0.114   1.633 -0.1762 -0.1478  0.6711
  504SOL     OW 1510   2.046   0.907   1.968 -0.4385  0.5542 -0.4633
  504SOL    HW1 1511   2.042   0.875   2.067  2.6878 -0.1104 -0.7551
  504SOL    HW2 1512   2.013   1.001   1.958  0.4592  0.1184  2.3275
  505SOL     OW 1513   1.258   0.003   2.082 -0.0785  0.3598 -0.5469
  505SOL    HW1 1514   1.254   0.101   2.060 -0.4937 -3.3315  2.3237
  505SOL    HW2 1515   1.281   3.079   2.177 -0.6254  0.5489 -0.8734
  506SOL     OW 1516   0.420   0.291   1.714 -0.1249  0.0806 -0.1818
  506SOL    HW1 1517   0.417   0.389   1.712  0.9209 -5.8122  0.4198
  506SOL    HW2 1518   0.516   0.265   1.743  0.5763 -0.4742  1.0633
  507SOL     OW 1519   1.579   0.235   0.069  0.1130  0.0200  0.2619
  507SOL    HW1 1520   1.647   0.300   0.115  1.2559  0.0911  1.7215
  507SOL    HW2 1521   1.522   0.180   0.133 -1.4809  1.1435  2.5728
  508SOL     OW 1522   2.324   0.615   2.550 -0.1960 -0.0000 -0.3590
  508SOL    HW1 1523   2.383   0.589   2.633  2.7849  2.4895  0.2458
  508SOL    HW2 1524   2.360   0.589   2.455 -0.3378 -2.2397 -0.7408
  509SOL     OW 1525   0.680   1.457   1.900 -0.0911  0.0912 -0.2407
  509SOL    HW1 1526   0.700   1.469   1.999  2.3636  0.6753  0.1331
  509SOL    HW2 1527   0.676   1.545   1.853  1.5818  1.1338 -1.7550
  510SOL     OW 1528   2.961   0.449   0.955  0.4053  0.2551 -0.2247
  510SOL    HW1 1529   3.014   0.527   0.918  0.4127  0.8203  1.2945
  510SOL    HW2 1530   2.903   0.408   0.881 -0.0372 -0.0113 -2.0829
  511SOL     OW 1531   1.743   1.589   1.114  0.2498  0.1387 -0.4762
  511SOL    HW1 1532   1.719   1.662   1.045  0.6467  3.3900  1.5314
  511SOL    HW2 1533   1.786   1.628   1.198  1.1491 -0.8418 -1.5066
  512SOL     OW 1534   0.669   1.353   0.364  0.0136 -0.7942  0.3747
  512SOL    HW1 1535   0.584   1.298   0.364  2.1498  2.8647 -0.1133
  512SOL    HW2 1536   0.670   1.409   0.448  0.5667 -0.0490  3.0363
  513SOL     OW 1537   0.382   2.264   0.937 -0.0444  0.1840 -0.1744
  513SOL    HW1 1538   0.324   2.337   0.982 -0.4166  1.3162 -0.0133
  513SOL    HW2 1539   0.414   2.299   0.846  0.4776  1.0411 -0.0662
  514SOL     OW 1540   0.080   2.092   0.037  0.3717  0.3236 -0.2546
  514SOL    HW1 1541   0.003   2.136   0.091 -2.6122 -1.4066 -0.8927
  514SOL    HW2 1542   0.127   2.030   0.103 -0.9562 -0.2609  0.4305
  515SOL     OW 1543   2.799   0.269   0.242 -0.0750 -0.4530  0.1470
  515SOL    HW1 1544   2.736   0.191   0.244 -1.1592  3.1423  0.1340
  515SOL    HW2 1545   2.849   0.265   0.331  0.0497  1.4959  1.2039
  516SOL     OW 1546   2.093   2.923   0.978 -0.4100  0.1789  0.6779
  516SOL    HW1 1547   2.064   2.856   1.049 -2.4149  0.9387 -1.6455
  516SOL    HW2 1548   2.132   2.881   0.892 -0.0175 -0.2641  2.3378
  517SOL     OW 1549   1.234   1.464   0.278 -0.1867 -0.0429  0.0096
  517SOL    HW1 1550   1.278   1.372   0.304  1.7321 -0.8027  0.5474
  517SOL    HW2 1551   1.139   1.464   0.315  2.9899 -0.3418  1.0671
  518SOL     OW 1552   1.552   0.807   1.334  0.2427  0.3988 -0.4625
  518SOL    HW1 1553   1.540   0.715   1.292 -1.9093  1.2908  2.3239
  518SOL    HW2 1554   1.586   0.877   1.263  0.8627  1.6838 -0.3376
  519SOL     OW 1555   2.728   2.345   0.492 -0.5117  0.1853  0.1893
  519SOL    HW1 1556   2.738   2.260   0.549 -2.2034 -3.9296 -0.2634
  519SOL    HW2 1557   2.786   2.422   0.525 -0.1057 -1.0160 -0.2021
  520SOL     OW 1558   2.228   2.086   1.889 -0.5337  0.3777  0.1648
  520SOL    HW1 1559   2.250   2.006   1.829 -1.4303 -1.9349  0.8800
  520SOL    HW2 1560   2.286   2.167   1.864 -0.6979  1.4744  2.0633
  521SOL     OW 1561   1.415   2.977   2.292 -0.0805 -0.2962 -0.3090
  521SOL    HW1 1562   1.448   2.938   2.382 -1.6530 -0.8117  2.8115
  521SOL    HW2 1563   1.492   3.021   2.243 -0.3963  1.2453 -0.1215
  522SOL     OW 1564   2.898   0.162   1.996  0.6135  0.5965 -0.0821
  522SOL    HW1 1565   2.968   0.222   2.025 -3.0005 -2.7196 -2.6588
  522SOL    HW2 1566   2.910   0.070   2.037  1.1571  3.5969  1.9021
  523SOL     OW 1567   1.184   2.090   1.658 -0.0243  0.4809 -0.1005
  523SOL    HW1 1568   1.117   2.133   1.720  0.6084  0.2282 -2.2103
  523SOL    HW2 1569   1.143   2.061   1.565  1.5747  0.1163  2.3495
  524SOL     OW 1570   2.073   2.153   2.876 -0.1929  0.2464  0.3676
  524SOL    HW1 1571   2.172   2.181   2.873  2.8887  3.4272 -2.2636
  524SOL    HW2 1572   2.069   2.049   2.856 -2.7111  0.0270  1.9180
  525SOL     OW 1573   2.954   0.962   0.396  0.5667  0.2737 -0.4342
  525SOL    HW1 1574   3.059   0.961   0.384  1.3092 -0.2339  1.2774
  525SOL    HW2 1575   2.906   0.899   0.331 -1.7352 -1.5894  0.0906
  526SOL     OW 1576   1.028   2.773   1.057  0.1955 -0.0353 -0.1068
  526SOL    HW1 1577   1.003   2.686   1.014 -2.0737 -0.4658  1.1013
  526SOL    HW2 1578   0.944   2.825   1.083  0.3982 -1.4239 -0.6381
  527SOL     OW 1579   2.275   1.604   0.611  0.6637  0.3126 -0.0448
  527SOL    HW1 1580   2.222   1.515   0.611 -1.0523 -0.2566  0.6043
  527SOL    HW2 1581   2.309   1.639   0.519  1.2255 -2.1601 -0.7824
  528SOL     OW 1582   0.578   0.787   2.576  0.2089  0.2170 -0.3371
  528SOL    HW1 1583   0.632   0.838   2.507 -1.3290  0.8587  0.1331
  528SOL    HW2 1584   0.498   0.741   2.536 -0.2561  1.3936 -0.0764
  529SOL     OW 1585   0.518   1.382   2.981 -0.0083  0.3507 -0.0778
  529SOL    HW1 1586   0.423   1.418   2.952 -3.9394 -0.5926  0.0942
  529SOL    HW2 1587   0.513   1.279   2.999  2.0154 -0.3213 -0.1309
  530SOL     OW 1588   1.458   1.106   1.862  0.4524 -0.8072  0.0902
  530SOL    HW1 1589   1.535   1.046   1.836 -0.9541 -1.5025 -0.4708
  530SOL    HW2 1590   1.397   1.060   1.937  0.2618 -0.9701  1.7163
  531SOL     OW 1591   1.389   2.175   2.869 -0.1433 -0.4258 -0.0334
  531SOL    HW1 1592   1.289   2.181   2.843  0.6421 -1.9845 -1.4461
  531SOL    HW2 1593   1.394   2.078   2.910  0.0470 -0.1297 -0.6695
  532SOL     OW 1594   2.398   0.616   0.133  0.3562  0.0356 -0.0884
  532SOL    HW1 1595   2.387   0.625   0.235 -1.4457  0.9978  0.2332
  532SOL    HW2 1596   2.421   0.520   0.111 -0.3388  1.7546  0.3886
  533SOL     OW 1597   3.022   0.530   1.887 -0.1552 -0.8416  0.1953
  533SOL    HW1 1598   3.031   0.463   1.809 -0.0800 -1.6428 -0.4682
  533SOL    HW2 1599   2.923   0.546   1.899 -1.3833 -1.6740 -1.9751
  534SOL     OW 1600   1.827   0.159   0.360 -0.4850 -0.1363  0.2634
  534SOL    HW1 1601   1.773   0.073   0.347  1.6579  1.0130 -1.8946
  534SOL    HW2 1602   1.916   0.153   0.310 -0.4581 -0.3857  0.1899
  535SOL     OW 1603   0.642   0.259   3.080  1.0001  0.8265  0.0310
  535SOL    HW1 1604   0.729   0.312   3.068  1.5408 -1.6132  1.2118
  535SOL    HW2 1605   0.624   0.213   2.993 -1.0731 -0.3429  2.0187
  536SOL     OW 1606   0.407   1.635   1.671 -0.0697 -0.4674 -0.6088
  536SOL    HW1 1607   0.411   1.729   1.707  0.4835 -1.7488  0.5981
  536SOL    HW2 1608   0.492   1.600   1.624  2.4363  1.0056  0.7405
  537SOL     OW 1609   0.313   2.655   1.907  0.4693 -0.1950  0.9122
  537SOL    HW1 1610   0.389   2.666   1.842  0.1717  2.8251  0.0506
  537SOL    HW2 1611   0.306   2.735   1.963  0.1365 -1.6844 -0.6455
  538SOL     OW 1612   2.977   2.192   0.197  0.6297 -0.1677 -0.6117
  538SOL    HW1 1613   2.979   2.293   0.214  0.0704  2.4396 -0.6608
  538SOL    HW2 1614   2.880   2.161   0.189  3.0531  1.4839  2.4769
  539SOL     OW 1615   2.697   0.631   2.817 -0.2976 -0.1389  0.5420
  539SOL    HW1 1616   2.727   0.618   2.722 -1.5674 -0.4871  0.6395
  539SOL    HW2 1617   2.781   0.644   2.880  3.5606 -0.3045 -0.2496
  540SOL     OW 1618   1.708   0.798   0.098 -0.5213 -0.0759  0.2353
  540SOL    HW1 1619   1.790   0.861   0.114  0.6045  0.5656  0.8838
  540SOL    HW2 1620   1.621   0.845   0.126  1.3781  0.5042  1.0960
  541SOL     OW 1621   0.865   0.480   1.708  0.0392 -0.0607 -0.1478
  541SOL    HW1 1622   0.882   0.486   1.807 -0.7313 -2.5730 -2.5641
  541SOL    HW2 1623   0.828   0.569   1.674  0.7049 -2.1284  0.3189
  542SOL     OW 1624   1.786   2.373   2.281  0.0397 -0.3567 -0.3399
  542SOL    HW1 1625   1.727   2.455   2.259 -0.2644  0.8323 -2.0350
  542SOL    HW2 1626   1.799   2.316   2.193  0.6253 -3.2026 -3.0445
  543SOL     OW 1627   0.904   2.924   0.820 -0.1103  0.3121  0.8774
  543SOL    HW1 1628   0.930   2.984   0.740 -0.7086  2.6952  0.6857
  543SOL    HW2 1629   0.982   2.891   0.869 -2.7334  1.3585  0.7089
  544SOL     OW 1630   2.619   1.591   2.196 -0.5804  0.0026  0.1616
  544SOL    HW1 1631   2.681   1.656   2.150 -2.1754  0.2574 -0.8504
  544SOL    HW2 1632   2.570   1.638   2.273  0.4747  1.4131 -0.3478
  545SOL     OW 1633   1.480   1.953   1.370  0.0495 -0.1585  0.2559
  545SOL    HW1 1634   1.400   2.011   1.342 -1.3108 -2.5798  0.8481
  545SOL    HW2 1635   1.465   1.852   1.366 -2.8620 -1.7892  1.0468
  546SOL     OW 1636   0.561   0.001   2.502 -0.0778 -0.4221  0.1110
  546SOL    HW1 1637   0.503   0.086   2.521 -0.0426  2.3512  1.0755
  546SOL    HW2 1638   0.556   3.025   2.577 -1.1063  0.9441 -2.1297
  547SOL     OW 1639   1.337   0.252   0.490 -0.9817  0.2638  0.0688
  547SOL    HW1 1640   1.345   0.318   0.570  0.4369  0.1051 -0.3423
  547SOL    HW2 1641   1.340   0.303   0.403  0.1067 -1.2093 -1.7846
  548SOL     OW 1642   1.389   1.925   2.984  0.2698 -0.1560 -0.1575
  548SOL    HW1 1643   1.368   1.840   2.935  0.7174 -1.3807  0.7858
  548SOL    HW2 1644   1.336   1.935   3.068 -0.1120 -1.9548 -3.2533
  549SOL     OW 1645   1.887   1.021   0.102  0.0285 -0.2389  0.4036
  549SOL    HW1 1646   1.949   1.031   0.183 -1.1752 -0.9725  0.1358
  549SOL    HW2 1647   1.872   1.109   0.054 -2.0568  1.0985 -2.2886
  550SOL     OW 1648   2.358   1.951   0.216  0.4432 -0.0156 -0.3922
  550SOL    HW1 1649   2.266   1.928   0.253  2.8128  0.5231  0.7283
  550SOL    HW2 1650   2.390   2.029   0.275 -0.4759 -0.1066  0.9628
  551SOL     OW 1651   1.461   0.653   1.567 -0.2160 -0.2584 -0.0689
  551SOL    HW1 1652   1.489   0.725   1.496 -1.4636  3.2237  0.2429
  551SOL    HW2 1653   1.545   0.627   1.621  1.4835  2.0473  1.2085
  552SOL     OW 1654   3.032   2.347   2.856 -0.3116  0.3024  0.6706
  552SOL    HW1 1655   2.960   2.286   2.813 -2.8858 -1.8262 -1.7100
  552SOL    HW2 1656   2.984   2.403   2.927 -1.2106 -0.3224 -0.5918
  553SOL     OW 1657   2.866   2.389   0.843  0.2597 -0.6302 -0.1002
  553SOL    HW1 1658   2.955   2.352   0.808  1.5270  2.2529 -2.7095
  553SOL    HW2 1659   2.825   2.325   0.915  0.9969  3.1010 -0.2689
  554SOL     OW 1660   1.981   1.759   1.661  0.0596 -0.1191  0.2175
  554SOL    HW1 1661   2.002   1.658   1.657  0.1997  0.0225 -0.3588
  554SOL    HW2 1662   1.896   1.775   1.713  0.7106  0.7895  0.7006
  555SOL     OW 1663   1.522   2.099   2.235 -0.5393 -0.2803  0.1917
  555SOL    HW1 1664   1.435   2.059   2.274 -2.3298 -1.4150 -3.1117
  555SOL    HW2 1665   1.502   2.194   2.205  0.2609 -1.6234  0.3141
  556SOL     OW 1666   1.188   1.702   1.445  0.5654  0.1367  0.0896
  556SOL    HW1 1667   1.220   1.738   1.536  0.9551  3.2454 -0.7197
  556SOL    HW2 1668   1.220   1.605   1.429 -0.3416 -1.5161 -0.6577
  557SOL     OW 1669   1.582   0.137   1.580 -0.2855  0.0477  0.0252
  557SOL    HW1 1670   1.670   0.146   1.636  0.6894  0.6665  0.5733
  557SOL    HW2 1671   1.492   0.160   1.633 -4.6005  0.3527 -0.4349
  558SOL     OW 1672   0.538   3.019   2.069  0.2677  0.4331  0.3447
  558SOL    HW1 1673   0.515   3.049   1.972 -0.3089 -1.6479 -3.6538
  558SOL    HW2 1674   0.520   0.001   2.139  1.4231  0.5768 -3.5243
  559SOL     OW 1675   2.066   2.360   0.182 -0.4467 -0.1437 -0.1525
  559SOL    HW1 1676   2.081   2.463   0.178  0.5304  3.4468  0.0261
  559SOL    HW2 1677   2.084   2.322   0.276  1.9950 -0.1700  2.3974
  560SOL     OW 1678   1.283   2.079   0.260 -0.1027  0.2789  0.0273
  560SOL    HW1 1679   1.321   1.991   0.294  0.7659  0.9171  0.7461
  560SOL    HW2 1680   1.359   2.133   0.220 -0.5577 -0.8318  0.9880
  561SOL     OW 1681   1.237   0.248   2.970  0.0715  0.4920 -0.5192
  561SOL    HW1 1682   1.254   0.348   2.994  2.8110  0.5155 -1.3062
  561SOL    HW2 1683   1.322   0.219   2.932 -1.8615  0.5311 -1.7430
  562SOL     OW 1684   0.280   1.404   2.119  0.2209 -0.0147  0.1057
  562SOL    HW1 1685   0.249   1.310   2.144 -1.4296  1.0293 -2.1688
  562SOL    HW2 1686   0.332   1.403   2.032  0.6272  0.8469 -0.1279
  563SOL     OW 1687   1.294   1.985   2.615  0.4183  0.6751 -0.0780
  563SOL    HW1 1688   1.300   1.968   2.516  0.8247  2.2874  0.8550
  563SOL    HW2 1689   1.387   2.008   2.652 -0.9787 -0.6040 -1.7810
  564SOL     OW 1690   2.665   1.238   0.653  0.6613  0.2123  0.1325
  564SOL    HW1 1691   2.596   1.165   0.689 -1.6359 -0.5639 -0.8596
  564SOL    HW2 1692   2.700   1.293   0.729 -1.0668 -0.3482 -2.5152
  565SOL     OW 1693   0.458   1.130   3.087  0.0742 -0.2833 -0.2092
  565SOL    HW1 1694   0.394   1.117   3.008  0.0913  1.2771  0.4457
  565SOL    HW2 1695   0.450   1.047   0.050 -0.9144  0.7727 -1.5409
  566SOL     OW 1696   2.460   2.813   2.575 -0.3163 -0.7965  0.4459
  566SOL    HW1 1697   2.545   2.768   2.604 -2.7495 -1.3566  1.8856
  566SOL    HW2 1698   2.382   2.776   2.631  2.1820  0.9976  1.7340
  567SOL     OW 1699   1.513   1.436   1.243  0.2795  0.2737  0.1888
  567SOL    HW1 1700   1.576   1.484   1.177  3.1702 -0.5006  1.9227
  567SOL    HW2 1701   1.571   1.359   1.282  0.5679  1.2646  0.0856
  568SOL     OW 1702   1.413   1.250   2.747  0.5300 -0.6900 -0.1519
  568SOL    HW1 1703   1.327   1.293   2.719  1.2957 -1.9464 -1.0370
  568SOL    HW2 1704   1.445   1.184   2.676  1.5274 -1.8215 -1.6770
  569SOL     OW 1705   2.252   1.656   3.054 -0.0631 -1.1354  0.3491
  569SOL    HW1 1706   2.332   1.711   3.090  1.5259 -0.2175  0.5480
  569SOL    HW2 1707   2.165   1.695   0.001 -4.5749  2.0636  1.0641
  570SOL     OW 1708   2.921   2.513   1.807 -0.0303  0.6996  0.0847
  570SOL    HW1 1709   2.923   2.458   1.718 -1.4332 -0.7383 -1.6086
  570SOL    HW2 1710   3.009   2.556   1.827 -0.1178  0.9409 -0.0908
  571SOL     OW 1711   2.879   1.876   1.659  0.0589 -0.1572  0.9589
  571SOL    HW1 1712   2.866   1.797   1.590 -0.2620  2.0274 -1.4568
  571SOL    HW2 1713   2.879   1.829   1.749  0.7858  1.6365 -4.9955
  572SOL     OW 1714   1.830   2.159   0.379 -0.2396 -0.4312  0.1360
  572SOL    HW1 1715   1.787   2.231   0.325  2.3316  1.2743 -1.2178
  572SOL    HW2 1716   1.931   2.161   0.361 -0.2436 -1.2555 -3.4223
  573SOL     OW 1717   1.375   1.881   0.467  0.6758 -0.1491  0.6155
  573SOL    HW1 1718   1.471   1.918   0.479 -1.3197 -1.1773  0.2492
  573SOL    HW2 1719   1.334   1.898   0.553  1.1524  0.4879 -4.7665
  574SOL     OW 1720   1.611   3.020   1.351 -0.2576  0.3803  0.4107
  574SOL    HW1 1721   1.682   2.952   1.319 -1.4566  0.8370  1.1397
  574SOL    HW2 1722   1.628   3.057   1.443 -1.9712 -2.3752  0.8823
  575SOL     OW 1723   0.489   1.305   1.324  0.2926  0.0052  0.2995
  575SOL    HW1 1724   0.553   1.225   1.316  0.6971 -2.5940 -0.7971
  575SOL    HW2 1725   0.478   1.356   1.232  1.9119 -1.1876  0.0642
  576SOL     OW 1726   2.782   0.644   1.231 -0.5838  0.5088 -0.5504
  576SOL    HW1 1727   2.811   0.582   1.302  2.0962  0.7979  0.3591
  576SOL    HW2 1728   2.716   0.593   1.173  2.6262  0.2116  1.7497
  577SOL     OW 1729   1.556   0.883   2.498 -0.4104  0.0563 -0.2226
  577SOL    HW1 1730   1.470   0.896   2.554  0.3367  1.0205  0.7930
  577SOL    HW2 1731   1.529   0.859   2.402 -0.8992 -0.1444  0.9034
  578SOL     OW 1732   2.065   1.148   2.411 -0.2208  0.3629  0.0777
  578SOL    HW1 1733   1.983   1.152   2.472  1.3935 -0.5794  0.9995
  578SOL    HW2 1734   2.132   1.213   2.442 -2.2626 -1.0622 -0.5347
  579SOL     OW 1735   0.732   1.784   1.473  0.2279 -0.2058  0.3704
  579SOL    HW1 1736   0.666   1.840   1.525 -0.1466 -3.0922 -2.2739
  579SOL    HW2 1737   0.705   1.773   1.373 -2.6727  1.7756 -0.6041
  580SOL     OW 1738   1.519   2.196   0.143 -0.6679 -0.5628 -0.2769
  580SOL    HW1 1739   1.496   2.278   0.085  1.1853 -1.8555 -1.5060
  580SOL    HW2 1740   1.605   2.159   0.107 -0.5895 -0.6141  0.0974
  581SOL     OW 1741   0.960   0.586   1.973 -0.2680  0.1342  0.3495
  581SOL    HW1 1742   0.864   0.621   1.992  1.2431 -0.4324 -1.7636
  581SOL    HW2 1743   0.973   0.506   2.037 -0.2039  0.6024 -0.5869
  582SOL     OW 1744   0.899   1.273   1.226 -0.0068  0.2181  0.3169
  582SOL    HW1 1745   0.905   1.169   1.243 -1.7213 -2.4970  1.9545
  582SOL    HW2 1746   0.916   1.325   1.313  2.2137 -0.3004  0.4933
  583SOL     OW 1747   0.623   1.092   1.932  0.3301 -0.4241  0.1323
  583SOL    HW1 1748   0.612   1.138   1.843 -1.0318  0.6907  0.7362
  583SOL    HW2 1749   0.686   1.143   1.996  3.1971  1.7213  1.4312
  584SOL     OW 1750   2.010   2.617   0.475 -0.3394 -0.7333 -0.3294
  584SOL    HW1 1751   1.933   2.552   0.461  0.8578  0.9535  1.1633
  584SOL    HW2 1752   2.063   2.596   0.560  0.0252  0.7241  1.7731
  585SOL     OW 1753   1.785   0.127   3.021 -0.0226  0.1780 -0.6536
  585SOL    HW1 1754   1.707   0.165   3.076  1.1593  1.6002  0.0292
  585SOL    HW2 1755   1.768   0.129   2.920  1.2685  1.6406  3.3266
  586SOL     OW 1756   2.991   2.009   0.544 -0.4619 -0.2455  0.4028
  586SOL    HW1 1757   2.893   2.039   0.541 -0.4857  0.0590  2.2050
  586SOL    HW2 1758   3.046   2.078   0.496  0.5065 -0.3979 -0.3583
  587SOL     OW 1759   1.770   1.771   0.293  0.4183  0.1906 -0.4308
  587SOL    HW1 1760   1.823   1.706   0.355 -1.9440  1.8749  0.1709
  587SOL    HW2 1761   1.828   1.809   0.215 -1.0940  2.3091 -1.4660
  588SOL     OW 1762   0.315   0.333   0.706 -0.3055  0.1340 -0.3728
  588SOL    HW1 1763   0.254   0.288   0.776 -0.3688 -0.3555  2.1059
  588SOL    HW2 1764   0.414   0.305   0.713  1.6999 -1.6512 -1.4698
  589SOL     OW 1765   1.192   1.010   0.996  0.6488 -0.3030  0.0067
  589SOL    HW1 1766   1.264   1.045   0.938  1.6313 -1.2548  1.4776
  589SOL    HW2 1767   1.233   0.951   1.071  2.3695 -2.4728 -1.6164
  590SOL     OW 1768   1.329   1.064   0.043 -0.1482 -0.2479 -0.0241
  590SOL    HW1 1769   1.362   1.160   0.063 -1.0761 -0.0742 -1.4247
  590SOL    HW2 1770   1.227   1.058   0.051  1.4669 -0.8834 -0.6249
  591SOL     OW 1771   2.472   2.331   2.454  0.3829  0.6399  0.3486
  591SOL    HW1 1772   2.389   2.390   2.438  1.3672  0.3023 -0.1951
  591SOL    HW2 1773   2.524   2.318   2.362  4.7729  1.7333  0.0948
  592SOL     OW 1774   1.702   2.012   1.196  0.4163 -0.1561 -0.0735
  592SOL    HW1 1775   1.767   1.951   1.153 -0.8478  2.3874  1.5141
  592SOL    HW2 1776   1.639   1.963   1.260 -2.8447 -0.5884  0.5345
  593SOL     OW 1777   1.119   0.169   1.108  0.2982  0.1453 -0.0543
  593SOL    HW1 1778   1.170   0.091   1.065 -1.9962  2.3007 -0.3594
  593SOL    HW2 1779   1.189   0.239   1.137  2.1872  1.9470  1.7365
  594SOL     OW 1780   2.927   0.527   2.319  0.0315  0.2502  0.3187
  594SOL    HW1 1781   2.992   0.594   2.279 -0.4038  0.6364  0.7389
  594SOL    HW2 1782   2.978   0.440   2.332 -2.2312  0.7521 -2.3503
  595SOL     OW 1783   0.632   2.537   1.278  0.1118  0.0846  0.2026
  595SOL    HW1 1784   0.536   2.542   1.238  0.0383 -0.7375  1.0383
  595SOL    HW2 1785   0.646   2.451   1.320 -1.1362 -0.9251 -0.0955
  596SOL     OW 1786   0.053   0.778   1.177 -0.3531 -0.7870 -0.0085
  596SOL    HW1 1787   0.086   0.855   1.120 -1.6076  1.0715 -1.1713
  596SOL    HW2 1788   3.059   0.809   1.229  1.5270  2.7615  0.7720
  597SOL     OW 1789   1.590   1.698   0.098 -0.6657  0.3743 -0.1475
  597SOL    HW1 1790   1.497   1.706   0.141 -1.0341 -0.4867  0.2011
  597SOL    HW2 1791   1.661   1.716   0.168 -3.3604 -1.9178  0.2180
  598SOL     OW 1792   0.552   2.717   1.757  0.2873  0.1489  0.1186
  598SOL    HW1 1793   0.503   2.701   1.668  0.8190 -0.7730  0.0664
  598SOL    HW2 1794   0.619   2.642   1.774 -0.8626  1.0565 -0.0433
  599SOL     OW 1795   2.471   1.947   2.862 -0.1391 -0.3083  0.4042
  599SOL    HW1 1796   2.392   1.904   2.809 -1.7648 -2.5005  0.6233
  599SOL    HW2 1797   2.550   1.980   2.801  2.5239 -2.9913  3.4604
  600SOL     OW 1798   0.767   0.812   0.311  0.1898 -0.4290 -0.6161
  600SOL    HW1 1799   0.767   0.914   0.291 -2.2202  1.2522 -3.8813
  600SOL    HW2 1800   0.851   0.770   0.356  1.8139 -0.4378  1.0421
  601SOL     OW 1801   0.976   0.710   0.475 -0.1553 -0.1984 -0.2741
  601SOL    HW1 1802   0.931   0.792   0.514 -1.8602  1.4589  1.0017
  601SOL    HW2 1803   0.988   0.647   0.553 -0.0113  3.7042 -1.0855
  602SOL     OW 1804   1.434   2.821   0.730  0.0880  0.3434  0.7727
  602SOL    HW1 1805   1.457   2.903   0.784  0.0525  0.0448  1.0012
  602SOL    HW2 1806   1.348   2.835   0.674  1.9229  0.3770 -1.5225
  603SOL     OW 1807   0.673   2.778   2.112 -0.1760  0.0842 -0.0688
  603SOL    HW1 1808   0.632   2.865   2.091  0.4167  0.0929 -0.1310
  603SOL    HW2 1809   0.759   2.768   2.056  1.0813  1.6239 -1.3084
  604SOL     OW 1810   2.883   2.864   2.383  0.3082 -0.1758  0.0410
  604SOL    HW1 1811   2.955   2.860   2.311  1.0124  0.1491  1.7314
  604SOL    HW2 1812   2.909   2.802   2.455  0.0698  1.6119 -3.2804
  605SOL     OW 1813   2.625   2.068   1.357 -0.5720  0.5934  0.8431
  605SOL    HW1 1814   2.621   2.093   1.452  0.9756  1.1717 -0.0167
  605SOL    HW2 1815   2.545   2.011   1.335  1.6025  1.1758  1.4751
  606SOL     OW 1816   0.270   1.500   2.892  0.4013  0.1084 -0.1771
  606SOL    HW1 1817   0.243   1.597   2.921  2.1119  1.2511 -1.2379
  606SOL    HW2 1818   0.265   1.490   2.789 -0.9366  1.1861 -1.3595
  607SOL     OW 1819   0.848   3.041   0.387  0.2580  0.2664 -0.2763
  607SOL    HW1 1820   0.812   0.016   0.313 -0.1981  2.1765 -0.7469
  607SOL    HW2 1821   0.934   3.083   0.428 -0.1568  1.3925 -0.0565
  608SOL     OW 1822   1.765   1.214   2.284 -0.6582 -0.6416  0.3983
  608SOL    HW1 1823   1.821   1.200   2.369  1.4758 -1.9129  0.0350
  608SOL    HW2 1824   1.761   1.133   2.227 -1.5302 -0.0188  0.4972
  609SOL     OW 1825   0.129   0.266   0.898  0.0758  0.0430 -0.0645
  609SOL    HW1 1826   0.147   0.194   0.965 -0.2501 -0.4234 -1.6296
  609SOL    HW2 1827   0.077   0.346   0.937 -0.1372  0.3588  1.1055
  610SOL     OW 1828   0.609   2.737   0.563  0.4936  0.0532 -0.2054
  610SOL    HW1 1829   0.698   2.753   0.513 -1.2935  0.4927  2.5780
  610SOL    HW2 1830   0.634   2.744   0.660  0.7762 -1.2073 -2.1128
  611SOL     OW 1831   1.807   0.877   2.854 -0.0489  0.2386 -0.0072
  611SOL    HW1 1832   1.898   0.884   2.896 -4.5415 -1.3120  0.2291
  611SOL    HW2 1833   1.746   0.946   2.886  1.3963 -4.1068 -1.6384
  612SOL     OW 1834   0.813   2.168   2.335 -0.2308 -0.0715  0.3685
  612SOL    HW1 1835   0.821   2.096   2.403  1.0449 -2.2339 -0.0430
  612SOL    HW2 1836   0.793   2.257   2.378  0.0377 -0.7878 -1.5997
  613SOL     OW 1837   0.953   2.420   0.140  0.2290  0.3140 -0.1944
  613SOL    HW1 1838   0.870   2.371   0.174 -0.8894 -2.8820 -0.8546
  613SOL    HW2 1839   1.010   2.352   0.089  0.3911 -0.4498 -1.3375
  614SOL     OW 1840   2.763   2.676   1.425  0.1364 -0.3956  0.6235
  614SOL    HW1 1841   2.801   2.762   1.382  1.6142 -0.4849 -1.6023
  614SOL    HW2 1842   2.736   2.603   1.358 -0.5785 -0.1061  2.9599
  615SOL     OW 1843   2.376   1.389   3.000  0.7298  0.2342 -0.3834
  615SOL    HW1 1844   2.343   1.483   2.980 -4.0289  2.0263 -3.0788
  615SOL    HW2 1845   2.335   1.320   2.938 -0.3469 -1.1080 -0.7789
  616SOL     OW 1846   1.679   0.228   0.594 -0.2879 -0.2935  0.0723
  616SOL    HW1 1847   1.709   0.224   0.498 -2.0783 -2.5632  2.1266
  616SOL    HW2 1848   1.581   0.251   0.607 -0.3223 -0.6792  0.3640
  617SOL     OW 1849   1.096   0.889   2.994 -0.4306  0.5820  0.7162
  617SOL    HW1 1850   1.103   0.983   2.954  0.3379  2.7404 -1.4659
  617SOL    HW2 1851   1.073   0.817   2.923  0.3212 -1.2895  1.5063
  618SOL     OW 1852   0.652   0.175   1.788 -0.5796  0.1470  0.0567
  618SOL    HW1 1853   0.729   0.174   1.858 -1.5756 -0.6995  1.6243
  618SOL    HW2 1854   0.616   0.078   1.784 -3.3480  2.0795 -1.6811
  619SOL     OW 1855   2.830   1.169   1.378  0.3137  0.2998  0.1788
  619SOL    HW1 1856   2.910   1.207   1.326  1.1357  2.2804  0.2242
  619SOL    HW2 1857   2.816   1.200   1.476 -1.2639 -1.5223 -3.3110
  620SOL     OW 1858   2.204   0.904   2.777 -0.0828  0.3162  0.7359
  620SOL    HW1 1859   2.151   0.909   2.693  0.2824  1.6355  0.8279
  620SOL    HW2 1860   2.143   0.896   2.857 -0.2749  1.0460 -5.0045
  621SOL     OW 1861   2.559   2.844   1.345 -0.3299  0.4667 -0.4498
  621SOL    HW1 1862   2.550   2.871   1.248 -0.6445 -0.9285 -0.5221
  621SOL    HW2 1863   2.626   2.767   1.364 -1.5261 -0.5021  0.6452
  622SOL     OW 1864   1.323   0.950   2.664 -0.2491  0.3605  0.4557
  622SOL    HW1 1865   1.248   1.021   2.661 -0.5607  0.7357  0.6786
  622SOL    HW2 1866   1.344   0.927   2.765 -0.7484 -0.2563  0.1232
  623SOL     OW 1867   1.249   0.551   2.997  0.5018  0.1876  0.1162
  623SOL    HW1 1868   1.327   0.608   3.019 -1.5830  1.7192 -0.3320
  623SOL    HW2 1869   1.241   0.536   2.895 -2.8889 -1.1728  0.8559
  624SOL     OW 1870   1.885   0.640   0.190 -0.2410 -0.0057 -0.0559
  624SOL    HW1 1871   1.804   0.701   0.165 -1.3097 -0.2446  1.1657
  624SOL    HW2 1872   1.953   0.645   0.119 -0.4502 -2.0303  1.5255
  625SOL     OW 1873   1.106   1.263   1.039  0.8767 -0.1807  0.4637
  625SOL    HW1 1874   1.139   1.167   1.034 -0.1349  0.8745  0.1611
  625SOL    HW2 1875   1.022   1.263   1.097 -3.7116  1.4399  1.5912
  626SOL     OW 1876   1.602   1.082   2.889  0.3438 -0.3385 -0.1081
  626SOL    HW1 1877   1.532   1.010   2.900 -0.8391  0.3558  1.9397
  626SOL    HW2 1878   1.574   1.154   2.826  1.6382 -0.8715  3.3753
  627SOL     OW 1879   0.951   3.016   2.131 -0.0220  0.0373 -0.3165
  627SOL    HW1 1880   0.914   2.939   2.077 -1.9834 -2.9447  0.1183
  627SOL    HW2 1881   1.038   3.048   2.091 -1.6264 -0.8026 -0.0480
  628SOL     OW 1882   2.432   0.197   2.131  0.4434  1.1747  0.0482
  628SOL    HW1 1883   2.500   0.205   2.055 -2.6238 -0.6034 -1.9175
  628SOL    HW2 1884   2.483   0.184   2.218  1.1290  0.2493  1.8846
  629SOL     OW 1885   0.798   0.943   2.936  0.2145 -0.2328 -0.1030
  629SOL    HW1 1886   0.850   0.933   2.849 -1.9157  0.5040  2.2332
  629SOL    HW2 1887   0.824   0.869   3.002 -1.7744 -1.6397  3.1324
  630SOL     OW 1888   1.257   0.306   2.097  0.1354 -0.3677 -0.2805
  630SOL    HW1 1889   1.171   0.330   2.152 -1.7762  0.2608  0.9891
  630SOL    HW2 1890   1.339   0.313   2.157 -1.0192  0.6335 -0.5352
  631SOL     OW 1891   2.958   0.668   0.606 -0.0864  0.5147 -0.2066
  631SOL    HW1 1892   2.905   0.590   0.567  0.1331 -1.3966  0.9159
  631SOL    HW2 1893   3.044   0.680   0.557 -1.2168 -0.0750  1.4661
  632SOL     OW 1894   2.114   1.105   1.046  0.1972  0.0775 -0.0939
  632SOL    HW1 1895   2.032   1.119   1.108 -0.0781 -2.5285 -0.4098
  632SOL    HW2 1896   2.164   1.022   1.052 -1.4688  1.9717  0.9966
  633SOL     OW 1897   1.530   0.713   0.967  0.2413 -0.0276 -0.4680
  633SOL    HW1 1898   1.433   0.750   0.963 -2.1268  2.8998  1.4975
  633SOL    HW2 1899   1.605   0.785   0.951  2.3976  3.2640 -1.0746
  634SOL     OW 1900   1.870   3.050   0.924 -0.5212 -0.6761 -0.1399
  634SOL    HW1 1901   1.961   3.003   0.945 -1.1749  3.2216  0.7502
  634SOL    HW2 1902   1.873   0.012   0.835 -0.2459  1.5679 -0.7038
  635SOL     OW 1903   1.587   0.997   1.139  0.5410 -0.0107  0.6245
  635SOL    HW1 1904   1.504   1.000   1.079 -2.0254 -0.8914 -1.5932
  635SOL    HW2 1905   1.670   1.032   1.092 -0.6222  1.6977 -0.6898
  636SOL     OW 1906   0.965   0.630   0.895  0.2994 -0.2683 -0.0325
  636SOL    HW1 1907   1.035   0.587   0.954 -1.1674 -0.1364 -1.5934
  636SOL    HW2 1908   0.954   0.728   0.918 -0.8639 -0.3867  0.3141
  637SOL     OW 1909   2.097   2.230   0.424 -0.0141  0.5710 -0.0700
  637SOL    HW1 1910   2.179   2.179   0.415  0.2794  0.5273  0.1050
  637SOL    HW2 1911   2.058   2.237   0.519  2.2987  0.4368 -2.0463
  638SOL     OW 1912   1.736   2.877   2.675 -0.1200  0.0072  0.7312
  638SOL    HW1 1913   1.767   2.860   2.772 -0.7499  2.0104 -0.3769
  638SOL    HW2 1914   1.775   2.809   2.608  0.5584 -0.4454 -1.7085
  639SOL     OW 1915   0.804   2.208   1.176 -0.1199 -0.3433  0.2906
  639SOL    HW1 1916   0.881   2.275   1.201  0.7565  1.0467  2.3761
  639SOL    HW2 1917   0.835   2.112   1.181 -1.4347 -0.9452  1.1170
  640SOL     OW 1918   2.905   2.549   0.608 -0.4050  0.3732  0.2096
  640SOL    HW1 1919   2.882   2.485   0.686  0.1951  0.3844  0.8403
  640SOL    HW2 1920   3.001   2.584   0.620  0.9839  1.1805  2.9031
  641SOL     OW 1921   0.370   0.348   0.044  0.1898 -0.1256 -0.3422
  641SOL    HW1 1922   0.468   0.321   0.034  1.2962  1.9533 -0.3467
  641SOL    HW2 1923   0.340   0.390   3.048  0.6443  2.0206 -1.3730
  642SOL     OW 1924   2.834   0.979   0.848 -0.6999 -0.0257 -0.1554
  642SOL    HW1 1925   2.828   0.917   0.929 -0.5715  0.8435  2.3571
  642SOL    HW2 1926   2.794   1.065   0.881  0.5310 -0.7301  1.0824
  643SOL     OW 1927   0.490   1.776   2.034  0.4286  0.0510 -0.1631
  643SOL    HW1 1928   0.563   1.768   1.962  3.2760  1.0458 -0.5095
  643SOL    HW2 1929   0.520   1.745   2.124  0.2916  1.7925  2.4503
  644SOL     OW 1930   1.710   2.534   0.535 -0.0624 -0.1673 -0.6590
  644SOL    HW1 1931   1.714   2.443   0.578  0.1166  1.0276 -1.4379
  644SOL    HW2 1932   1.668   2.518   0.444  1.1686 -1.7367 -1.1425
  645SOL     OW 1933   1.746   2.401   1.079 -0.4876 -0.3618  0.3528
  645SOL    HW1 1934   1.839   2.424   1.039  1.9070 -0.2764 -0.7447
  645SOL    HW2 1935   1.676   2.423   1.005 -0.9603  1.6898 -0.2336
  646SOL     OW 1936   1.153   2.748   0.327  0.1610  0.0128 -0.2702
  646SOL    HW1 1937   1.102   2.661   0.330 -0.8536  2.4136 -0.3195
  646SOL    HW2 1938   1.107   2.817   0.265  1.2581 -2.8425 -1.4833
  647SOL     OW 1939   0.536   3.023   1.770 -0.4406  0.0616 -0.5699
  647SOL    HW1 1940   0.442   3.034   1.804  4.1038 -2.4247  1.3603
  647SOL    HW2 1941   0.548   2.928   1.739  3.0810  0.0946  0.0784
  648SOL     OW 1942   1.913   1.060   1.241 -0.0130 -0.3952 -0.1782
  648SOL    HW1 1943   1.953   1.080   1.335  0.0187  0.4943  3.6628
  648SOL    HW2 1944   1.942   0.969   1.205  0.7194 -0.7652 -0.8395
  649SOL     OW 1945   1.805   2.027   2.740  0.2097 -0.3809  0.3005
  649SOL    HW1 1946   1.881   1.988   2.800  1.4162  0.8104  0.0455
  649SOL    HW2 1947   1.815   2.133   2.739 -0.6717  3.0155  1.4696
  650SOL     OW 1948   2.555   1.740   1.714  0.0491  0.5295 -0.4140
  650SOL    HW1 1949   2.637   1.779   1.762 -0.3635  2.3332  1.4515
  650SOL    HW2 1950   2.473   1.798   1.735  0.4158 -2.2409 -1.3303
  651SOL     OW 1951   1.181   1.590   2.930  0.0150  0.8115 -0.6288
  651SOL    HW1 1952   1.132   1.505   2.910  1.0977 -0.6920 -0.6275
  651SOL    HW2 1953   1.271   1.588   2.897 -4.7716 -1.2633  0.2058
  652SOL     OW 1954   1.225   2.794   3.025 -0.2674 -0.3927  0.4193
  652SOL    HW1 1955   1.244   2.694   3.026 -2.4546  0.4234 -0.4683
  652SOL    HW2 1956   1.233   2.843   2.932  0.3370 -1.0457  2.6632
  653SOL     OW 1957   2.080   2.165   1.188 -1.1082 -0.3829 -0.4252
  653SOL    HW1 1958   2.016   2.153   1.269 -2.2045  0.9927 -1.2711
  653SOL    HW2 1959   2.033   2.160   1.101  2.4049  1.2159  2.2536
  654SOL     OW 1960   2.778   2.535   2.122  0.3177 -0.1678  0.4507
  654SOL    HW1 1961   2.817   2.603   2.058 -0.7876 -3.0102  0.5491
  654SOL    HW2 1962   2.789   2.437   2.088 -0.1428 -0.1179  0.7949
  655SOL     OW 1963   2.743   2.252   1.024 -0.1187  0.0459  0.0989
  655SOL    HW1 1964   2.778   2.157   1.016  0.7051 -0.2836 -0.2318
  655SOL    HW2 1965   2.650   2.254   1.076 -1.1445 -0.5697  2.8110
  656SOL     OW 1966   0.396   2.645   2.651 -0.3198  0.2450 -0.3378
  656SOL    HW1 1967   0.483   2.684   2.609 -0.0665 -0.7280  0.2832
  656SOL    HW2 1968   0.367   2.562   2.605  2.0528  1.0082  3.0668
  657SOL     OW 1969   3.053   0.720   0.204 -0.1865  0.9311  0.1600
  657SOL    HW1 1970   3.080   0.694   0.300 -0.1884 -0.6700 -3.5702
  657SOL    HW2 1971   0.036   0.771   0.156  0.6792 -1.6120 -2.3168
  658SOL     OW 1972   1.387   1.892   1.033  0.2078 -0.5202  0.3401
  658SOL    HW1 1973   1.319   1.842   1.089 -0.2162 -0.5683 -0.1233
  658SOL    HW2 1974   1.420   1.972   1.085 -0.9714 -2.2986  2.6693
  659SOL     OW 1975   1.776   0.494   1.320  0.1330 -0.3171  0.6208
  659SOL    HW1 1976   1.768   0.390   1.324 -0.1962 -0.4096  0.2293
  659SOL    HW2 1977   1.682   0.528   1.289  1.5030 -3.1543  2.0004
  660SOL     OW 1978   1.352   1.234   0.396 -0.0096 -0.1119 -0.6838
  660SOL    HW1 1979   1.303   1.148   0.418 -0.3820  0.3898  2.4609
  660SOL    HW2 1980   1.372   1.287   0.480 -1.1809 -1.8253 -2.8694
  661SOL     OW 1981   0.054   1.813   0.404 -0.7308 -0.0407  0.3622
  661SOL    HW1 1982   3.082   1.735   0.399 -0.0291  3.6126 -0.2182
  661SOL    HW2 1983   0.006   1.885   0.452  0.0178 -1.3681  1.4706
  662SOL     OW 1984   0.001   0.876   2.266  0.0959  0.0293 -0.2133
  662SOL    HW1 1985   3.059   0.858   2.170 -2.5384  1.5484  2.5262
  662SOL    HW2 1986   3.039   0.942   2.319  1.4300  0.1487 -1.8542
  663SOL     OW 1987   2.110   1.490   1.175  0.1088 -0.0302  0.6622
  663SOL    HW1 1988   2.142   1.586   1.185 -0.6628 -3.1077 -0.3960
  663SOL    HW2 1989   2.100   1.444   1.267  1.5796  0.5993 -4.3803
  664SOL     OW 1990   0.589   0.454   0.937  0.8404 -0.3354 -0.3013
  664SOL    HW1 1991   0.559   0.542   0.990 -3.6433  2.8371  2.3769
  664SOL    HW2 1992   0.634   0.387   1.001 -0.0775 -0.6130  1.2273
  665SOL     OW 1993   1.176   2.929   2.778 -0.0842 -0.4495  0.3965
  665SOL    HW1 1994   1.262   2.984   2.754 -1.0358  1.5988 -1.3970
  665SOL    HW2 1995   1.113   2.989   2.829  1.8416 -3.1083  1.9570
  666SOL     OW 1996   0.389   0.482   2.143 -0.0893 -0.0969  0.1508
  666SOL    HW1 1997   0.398   0.409   2.073 -0.2529  1.9049 -2.0353
  666SOL    HW2 1998   0.352   0.450   2.233  0.7484  0.4419  0.2691
  667SOL     OW 1999   1.905   1.447   2.271  0.0263 -0.2837 -0.6877
  667SOL    HW1 2000   1.881   1.492   2.181 -1.6983 -0.9207 -2.7301
  667SOL    HW2 2001   1.847   1.368   2.285  3.5032  0.0482  0.8798
  668SOL     OW 2002   0.170   1.489   2.645 -0.2576  0.6633  0.1063
  668SOL    HW1 2003   0.169   1.384   2.635  1.1830 -0.4052  1.4735
  668SOL    HW2 2004   0.086   1.519   2.689  3.2383  0.7617 -1.7015
  669SOL     OW 2005   2.173   2.980   2.503 -0.4361  0.1712 -0.0017
  669SOL    HW1 2006   2.190   3.055   2.570 -0.6086  1.1506  1.7105
  669SOL    HW2 2007   2.231   2.986   2.422 -1.0420  0.4842  1.5706
  670SOL     OW 2008   2.740   0.839   2.516 -0.1972  0.4956  0.3007
  670SOL    HW1 2009   2.772   0.742   2.510 -0.0848  1.0913  0.1113
  670SOL    HW2 2010   2.656   0.843   2.568  1.7968  1.0362 -2.7228
  671SOL     OW 2011   2.488   1.760   0.040 -0.3450 -0.3442 -0.3674
  671SOL    HW1 2012   2.453   1.831   0.106  1.7718 -0.2641 -0.7535
  671SOL    HW2 2013   2.564   1.803   3.075  1.0192 -1.2387  0.3668
  672SOL     OW 2014   2.637   1.362   2.326 -0.1995  0.0466  0.1873
  672SOL    HW1 2015   2.552   1.302   2.320 -1.0092 -0.5968  0.0977
  672SOL    HW2 2016   2.624   1.450   2.273 -0.3149  0.6613 -1.0814
  673SOL     OW 2017   0.006   1.566   1.342  0.2867 -0.4877 -0.2422
  673SOL    HW1 2018   0.040   1.602   1.251  1.0467 -1.4975 -1.0250
  673SOL    HW2 2019   3.074   1.467   1.333  0.6823  1.9198 -0.8754
  674SOL     OW 2020   1.429   1.814   2.022 -0.1843  0.3424 -0.0720
  674SOL    HW1 2021   1.437   1.912   1.989 -0.0395  0.5197  1.8914
  674SOL    HW2 2022   1.521   1.769   2.017  2.7557  0.7562  0.0434
  675SOL     OW 2023   2.937   0.277   1.170  0.2150  0.2279 -0.0996
  675SOL    HW1 2024   2.922   0.340   1.092 -0.2814  1.8849 -1.8544
  675SOL    HW2 2025   2.869   0.201   1.171 -0.3344  3.8864  0.7735
  676SOL     OW 2026   2.445   1.387   0.431  0.2816  0.6135 -0.4161
  676SOL    HW1 2027   2.347   1.367   0.418  1.2078 -0.8930 -1.5115
  676SOL    HW2 2028   2.467   1.359   0.526 -0.1416  0.7199  2.6998
  677SOL     OW 2029   1.645   1.516   2.097 -0.1066  0.0043  0.0012
  677SOL    HW1 2030   1.606   1.535   2.190 -0.5453  0.7928 -0.8068
  677SOL    HW2 2031   1.572   1.479   2.033 -1.2447 -1.8366  0.6837
  678SOL     OW 2032   2.517   1.536   0.986 -0.4734 -0.3476  0.0530
  678SOL    HW1 2033   2.607   1.562   1.029 -0.6693 -1.3295  3.4411
  678SOL    HW2 2034   2.470   1.484   1.060  0.1461  1.0489  0.2808
  679SOL     OW 2035   0.359   2.607   1.130 -1.2134 -0.1613 -0.0799
  679SOL    HW1 2036   0.284   2.556   1.085 -1.2404 -2.4836 -0.1360
  679SOL    HW2 2037   0.326   2.685   1.187  2.4405  0.8329 -0.9605
  680SOL     OW 2038   2.792   1.845   1.258  0.3959 -0.3675  0.1376
  680SOL    HW1 2039   2.848   1.801   1.335  2.8803  0.3072 -1.9849
  680SOL    HW2 2040   2.729   1.916   1.295 -0.7280 -0.3942  3.8538
  681SOL     OW 2041   0.791   0.729   1.113  0.4360  0.0122 -0.4427
  681SOL    HW1 2042   0.840   0.650   1.158  1.4173 -1.9302  0.0121
  681SOL    HW2 2043   0.690   0.702   1.112  0.2578 -0.5022  1.0322
  682SOL     OW 2044   1.437   0.039   0.776  0.1141  0.0126 -0.5248
  682SOL    HW1 2045   1.506   0.103   0.804 -3.5239  1.7886  0.2513
  682SOL    HW2 2046   1.420   0.040   0.676 -0.9351  0.2071 -0.8782
  683SOL     OW 2047   2.376   1.522   1.744  0.4764  0.4739  0.2829
  683SOL    HW1 2048   2.448   1.590   1.734  1.0049 -2.8733 -0.1879
  683SOL    HW2 2049   2.305   1.522   1.671 -0.1614 -1.1670 -1.0026
  684SOL     OW 2050   0.171   1.858   1.730 -0.2443 -0.3856 -0.0123
  684SOL    HW1 2051   0.180   1.957   1.758  0.8698 -0.1462  0.2833
  684SOL    HW2 2052   0.127   1.804   1.808  0.4399 -3.3274  2.8350
  685SOL     OW 2053   1.984   1.661   0.403  0.7617 -0.2676  0.1441
  685SOL    HW1 2054   1.978   1.602   0.489  0.1379 -2.0436  1.5909
  685SOL    HW2 2055   2.009   1.605   0.321  0.2235  1.2034 -0.2091
  686SOL     OW 2056   3.076   0.131   0.715 -0.1861 -0.2079  0.0211
  686SOL    HW1 2057   0.028   0.195   0.784  0.2286  1.3470 -0.2302
  686SOL    HW2 2058   2.994   0.085   0.746  3.7037  1.0075 -0.7356
  687SOL     OW 2059   1.418   0.008   2.839  0.0622 -0.0589  0.1999
  687SOL    HW1 2060   1.452   0.105   2.862  0.6846  0.7872 -0.3419
  687SOL    HW2 2061   1.444   3.032   2.915  0.9365 -0.6445 -1.8116
  688SOL     OW 2062   1.670   1.788   2.468 -0.1552 -0.1671 -0.0118
  688SOL    HW1 2063   1.746   1.734   2.506 -3.1444 -0.2332  1.5276
  688SOL    HW2 2064   1.697   1.838   2.382 -0.2176 -1.1106 -1.7433
  689SOL     OW 2065   2.743   1.078   1.962  0.2169  0.3357 -0.3145
  689SOL    HW1 2066   2.744   1.140   2.041  1.1997  0.5001 -1.6190
  689SOL    HW2 2067   2.836   1.076   1.915  0.9270 -2.0294 -1.2536
  690SOL     OW 2068   1.891   1.900   1.025  0.6265  0.1371 -0.3631
  690SOL    HW1 2069   1.978   1.859   0.993  1.3384  0.4003 -0.4192
  690SOL    HW2 2070   1.805   1.858   0.990 -0.6950 -0.1032 -2.5783
  691SOL     OW 2071   0.786   1.454   1.069 -0.2633 -0.5849 -0.0707
  691SOL    HW1 2072   0.825   1.381   1.128 -0.1441  0.2417 -0.2183
  691SOL    HW2 2073   0.694   1.432   1.032  1.6774  0.9275 -0.9985
  692SOL     OW 2074   2.219   2.893   2.079  0.2876 -0.0485  0.2245
  692SOL    HW1 2075   2.138   2.957   2.077 -0.6840  1.1403 -1.8750
  692SOL    HW2 2076   2.190   2.804   2.116 -0.1591  1.6057 -2.4904
  693SOL     OW 2077   2.832   1.430   2.529  0.8839 -0.0207 -0.0522
  693SOL    HW1 2078   2.918   1.430   2.479 -1.5867 -0.0925  1.0228
  693SOL    HW2 2079   2.760   1.416   2.458  1.2698 -1.1415 -1.5463
  694SOL     OW 2080   2.065   0.257   1.118 -0.1615 -0.7491 -0.1955
  694SOL    HW1 2081   2.052   0.251   1.220  2.2340  1.5328  0.0040
  694SOL    HW2 2082   2.113   0.339   1.083  1.6861  1.2917 -2.8121
  695SOL     OW 2083   1.148   1.132   2.688  0.1431 -0.3673 -0.2553
  695SOL    HW1 2084   1.139   1.174   2.777 -0.1939 -1.1933  1.1956
  695SOL    HW2 2085   1.142   1.200   2.614 -0.5912 -1.7706 -0.3107
  696SOL     OW 2086   1.950   0.351   1.728 -0.5453  0.0813  0.1307
  696SOL    HW1 2087   1.909   0.437   1.690  1.0130  0.2752 -2.6655
  696SOL    HW2 2088   2.038   0.316   1.684  2.0105  0.0542  2.1551
  697SOL     OW 2089   1.488   0.323   2.237  0.2957  0.6983  0.2917
  697SOL    HW1 2090   1.526   0.289   2.327  1.8356 -2.1211 -3.3083
  697SOL    HW2 2091   1.550   0.304   2.159 -2.9985 -0.7703 -0.1802
  698SOL     OW 2092   1.914   1.652   2.478 -0.1326  0.0486 -0.4183
  698SOL    HW1 2093   1.941   1.622   2.570  0.3704  1.5632 -0.4142
  698SOL    HW2 2094   1.892   1.568   2.428  0.5763  0.5043 -1.8422
  699SOL     OW 2095   1.644   0.981   0.383 -0.4766 -0.4354  0.0492
  699SOL    HW1 2096   1.584   0.959   0.305 -0.4078  0.0519 -0.4480
  699SOL    HW2 2097   1.639   0.900   0.448 -0.1980  0.7894 -1.6570
  700SOL     OW 2098   1.491   2.953   3.072 -0.1827  0.0807  0.3356
  700SOL    HW1 2099   1.474   3.016   0.059 -0.5663 -1.8050  1.9594
  700SOL    HW2 2100   1.418   2.885   3.067  0.2210  1.1895 -0.3097
  701SOL     OW 2101   0.086   0.454   1.167  0.1702 -0.1207  0.4318
  701SOL    HW1 2102   3.089   0.415   1.137  0.6027  0.6278  0.0642
  701SOL    HW2 2103   0.067   0.518   1.245  0.6306  2.7544  2.3295
  702SOL     OW 2104   2.001   0.187   1.376 -0.3509 -0.1283 -0.5338
  702SOL    HW1 2105   1.908   0.214   1.404  3.4600 -0.0298 -2.5570
  702SOL    HW2 2106   2.004   0.084   1.365  0.2190 -1.9608  2.3245
  703SOL     OW 2107   2.866   0.438   1.392 -0.0883  0.1096 -0.2661
  703SOL    HW1 2108   2.789   0.403   1.447  3.4532  1.0634 -2.7212
  703SOL    HW2 2109   2.910   0.373   1.325  2.1446  1.0532 -1.2880
  704SOL     OW 2110   1.042   2.339   1.195 -0.0438  0.0606  0.4273
  704SOL    HW1 2111   1.090   2.394   1.264 -0.8858  1.0817  2.1314
  704SOL    HW2 2112   1.098   2.296   1.124 -0.0688  1.3202  2.6439
  705SOL     OW 2113   0.103   1.697   2.276  0.5579 -0.0040 -0.2029
  705SOL    HW1 2114   0.113   1.676   2.175  0.5383 -1.0138 -0.5084
  705SOL    HW2 2115   0.194   1.686   2.323 -0.4919  1.8287 -1.1940
  706SOL     OW 2116   2.568   0.358   2.566  0.2047  0.3140 -0.0857
  706SOL    HW1 2117   2.480   0.412   2.581 -0.5496  2.0703 -1.3974
  706SOL    HW2 2118   2.608   0.322   2.654 -2.2666  1.3795 -2.2516
  707SOL     OW 2119   1.650   2.620   2.273  0.0498 -0.6651 -0.3659
  707SOL    HW1 2120   1.631   2.688   2.201  1.1067  2.2467  1.2926
  707SOL    HW2 2121   1.565   2.586   2.316 -1.6490 -0.4202  0.4896
  708SOL     OW 2122   0.473   2.351   1.597  0.4111 -0.3845  0.2828
  708SOL    HW1 2123   0.407   2.404   1.541  0.7374 -0.1263  3.0914
  708SOL    HW2 2124   0.548   2.308   1.536  1.3107 -0.7462  0.2689
  709SOL     OW 2125   2.883   0.873   1.735  0.1328 -0.1165 -0.5798
  709SOL    HW1 2126   2.932   0.822   1.798 -1.6471 -0.5709 -0.4261
  709SOL    HW2 2127   2.937   0.884   1.650  1.0066 -1.2631  2.3597
  710SOL     OW 2128   0.187   0.318   1.440 -0.0338  0.0971 -0.1046
  710SOL    HW1 2129   0.139   0.258   1.376 -0.9126 -1.2294  0.5560
  710SOL    HW2 2130   0.133   0.403   1.438  1.0972  0.3535  0.9534
  711SOL     OW 2131   2.975   2.729   0.974  0.5979 -0.2119  0.0539
  711SOL    HW1 2132   3.008   2.717   1.068 -2.4265 -1.3842 -2.0504
  711SOL    HW2 2133   3.047   2.683   0.916  2.0280  1.5081 -2.1032
  712SOL     OW 2134   0.448   2.803   2.426 -0.2825  0.2881 -0.0607
  712SOL    HW1 2135   0.542   2.826   2.454 -1.2040 -0.4764  2.1179
  712SOL    HW2 2136   0.443   2.711   2.382 -0.0254  1.9205 -1.3634
  713SOL     OW 2137   2.367   0.269   0.281  0.3662  0.6405  0.4899
  713SOL    HW1 2138   2.278   0.313   0.296  0.6665  0.9254  0.7689
  713SOL    HW2 2139   2.403   0.301   0.189 -2.2842 -0.0948  0.4324
  714SOL     OW 2140   1.621   1.410   0.044 -0.5311 -0.1254 -0.0816
  714SOL    HW1 2141   1.640   1.509   0.060 -2.1209 -0.5751 -0.3869
  714SOL    HW2 2142   1.633   1.357   0.125 -2.1425  0.9176 -2.3667
  715SOL     OW 2143   0.209   0.479   0.492 -0.2627  0.2647 -0.0021
  715SOL    HW1 2144   0.192   0.428   0.403  1.6701 -0.6891  0.2302
  715SOL    HW2 2145   0.263   0.424   0.559  0.9397  0.5608 -1.1475
  716SOL     OW 2146   1.204   0.400   1.829  0.5157 -0.0104  0.2743
  716SOL    HW1 2147   1.246   0.367   1.915 -0.6274 -1.4485  1.6316
  716SOL    HW2 2148   1.123   0.454   1.846  1.7854  0.5006  1.0583
  717SOL     OW 2149   0.298   0.446   2.896 -0.5936  0.4597 -0.1303
  717SOL    HW1 2150   0.370   0.389   2.849 -2.2481  1.0493 -2.2933
  717SOL    HW2 2151   0.265   0.530   2.842 -1.3923  1.2477  0.3069
  718SOL     OW 2152   1.300   0.444   0.312 -0.0793 -0.2474 -0.6251
  718SOL    HW1 2153   1.225   0.518   0.305 -0.3052  2.5815 -2.6230
  718SOL    HW2 2154   1.388   0.487   0.278  0.2059 -1.1168 -0.8047
  719SOL     OW 2155   2.348   2.247   2.886 -0.6179  0.0597  0.0345
  719SOL    HW1 2156   2.417   2.274   2.815 -0.8576 -0.6899 -0.5636
  719SOL    HW2 2157   2.396   2.191   2.956 -0.7537 -0.2753 -1.9801
  720SOL     OW 2158   1.151   0.952   1.394  0.1149 -0.2135 -0.2786
  720SOL    HW1 2159   1.180   1.042   1.431 -1.2851 -0.8178  1.1437
  720SOL    HW2 2160   1.174   0.876   1.457  0.7001  0.0287  0.8450
  721SOL     OW 2161   3.086   2.678   1.228 -0.3511  0.2400  0.0805
  721SOL    HW1 2162   3.084   2.577   1.242 -2.0363  1.1367 -0.9050
  721SOL    HW2 2163   0.077   2.724   1.265  0.6527 -1.4088  0.6893
  722SOL     OW 2164   0.691   1.814   2.814 -0.2490  0.5244 -0.3130
  722SOL    HW1 2165   0.681   1.717   2.852 -1.5391 -0.4551 -1.5162
  722SOL    HW2 2166   0.723   1.881   2.883 -1.2424 -0.9177 -1.8210
  723SOL     OW 2167   1.941   0.383   0.513  0.2743  0.1650 -0.2160
  723SOL    HW1 2168   1.887   0.295   0.503  2.2648  0.2923  2.4629
  723SOL    HW2 2169   2.005   0.380   0.592  0.8957  0.4648  0.2293
  724SOL     OW 2170   0.604   2.178   2.895  0.1587  0.7859 -0.2529
  724SOL    HW1 2171   0.668   2.124   2.958 -1.3174 -0.6018 -2.5300
  724SOL    HW2 2172   0.616   2.276   2.914  0.9191 -0.9846 -1.9356
  725SOL     OW 2173   0.018   0.975   0.959 -0.0206 -0.2160 -0.5154
  725SOL    HW1 2174   3.011   0.976   0.927 -0.1158 -1.1948  0.4127
  725SOL    HW2 2175   0.070   0.904   0.911  0.9838  1.6439  3.1547
  726SOL     OW 2176   2.391   0.551   0.643 -0.4242 -0.3158 -0.2258
  726SOL    HW1 2177   2.372   0.625   0.575 -2.4660  1.0260 -0.1673
  726SOL    HW2 2178   2.446   0.475   0.598  0.5348 -0.3440 -0.9495
  727SOL     OW 2179   2.135   0.921   2.296  0.1063  0.1313 -0.6237
  727SOL    HW1 2180   2.104   1.014   2.311  1.4294 -2.2055 -1.6138
  727SOL    HW2 2181   2.124   0.873   2.385 -1.0544 -0.9738  0.0902
  728SOL     OW 2182   1.996   2.999   1.389 -0.4628 -0.0746 -0.4340
  728SOL    HW1 2183   2.013   2.967   1.486 -0.9280 -1.3949  0.3857
  728SOL    HW2 2184   1.918   2.949   1.344  1.0908 -0.5176  1.1758
  729SOL     OW 2185   2.446   0.559   2.328  0.4415  0.2250 -0.1017
  729SOL    HW1 2186   2.532   0.507   2.292  0.1800 -0.0752 -0.2394
  729SOL    HW2 2187   2.443   0.659   2.307 -0.5997  1.9086 -0.6702
  730SOL     OW 2188   0.923   0.708   1.481 -0.3196  0.0270  0.1132
  730SOL    HW1 2189   0.905   0.607   1.473  0.3362 -2.3266 -1.1729
  730SOL    HW2 2190   1.023   0.737   1.484  0.3026  0.8590 -1.3826
  731SOL     OW 2191   0.414   0.045   0.165 -0.4998 -0.7540 -0.5879
  731SOL    HW1 2192   0.403   0.125   0.228  2.1190  2.2274  1.6193
  731SOL    HW2 2193   0.357   0.059   0.082  2.5387  0.6440  1.4454
  732SOL     OW 2194   0.619   0.451   0.534 -0.1972  0.1368  0.2373
  732SOL    HW1 2195   0.665   0.490   0.615 -1.9187 -0.8073 -2.0922
  732SOL    HW2 2196   0.603   0.516   0.459  0.4160 -1.7163 -1.2833
  733SOL     OW 2197   1.603   1.424   2.606 -0.2137 -0.4353 -0.0345
  733SOL    HW1 2198   1.575   1.332   2.573  0.2626  0.4101  0.0736
  733SOL    HW2 2199   1.616   1.423   2.704  1.3929 -0.2301 -0.4115
  734SOL     OW 2200   2.968   1.832   2.361 -0.3037 -0.3294  0.2668
  734SOL    HW1 2201   3.022   1.760   2.318 -0.4142 -2.2832  0.4604
  734SOL    HW2 2202   3.001   1.838   2.459 -1.1059  0.7537  0.0125
  735SOL     OW 2203   1.935   0.546   1.102  0.3147  0.1369 -0.1611
  735SOL    HW1 2204   2.029   0.521   1.124 -1.4824  0.1587  0.1134
  735SOL    HW2 2205   1.874   0.543   1.184  1.4617 -1.3497 -2.8278
  736SOL     OW 2206   1.085   1.269   2.920  0.3762  0.0345  0.7100
  736SOL    HW1 2207   1.023   1.279   3.000 -0.1220  0.6822  1.9200
  736SOL    HW2 2208   1.178   1.290   2.948 -0.8072  0.6714  2.2199
  737SOL     OW 2209   2.975   0.222   0.456 -0.1938 -0.0388 -0.3544
  737SOL    HW1 2210   3.050   0.227   0.393  1.7631  1.7810  1.2747
  737SOL    HW2 2211   3.018   0.231   0.550 -1.3740  0.2595  0.5282
  738SOL     OW 2212   0.651   2.458   1.768 -0.6961  0.1543  0.6942
  738SOL    HW1 2213   0.568   2.448   1.715  1.0885  1.7486  2.6858
  738SOL    HW2 2214   0.657   2.392   1.839  0.1496  3.3490 -1.1957
  739SOL     OW 2215   1.163   2.997   2.453  0.6785 -0.0654 -0.2586
  739SOL    HW1 2216   1.071   2.951   2.481 -0.2199 -1.9293  0.4342
  739SOL    HW2 2217   1.208   2.948   2.374  0.3180 -0.6281 -3.5875
  740SOL     OW 2218   1.950   2.638   1.579 -0.4579 -0.2328 -0.6101
  740SOL    HW1 2219   1.866   2.668   1.540  1.5332  1.2953  0.9616
  740SOL    HW2 2220   1.941   2.548   1.614 -3.5556  3.8429 -0.6663
  741SOL     OW 2221   2.343   0.728   0.433 -0.0166  0.1855 -0.3581
  741SOL    HW1 2222   2.436   0.768   0.413 -0.5219  1.6614  1.8395
  741SOL    HW2 2223   2.274   0.802   0.459 -1.2849 -2.3143 -0.1966
  742SOL     OW 2224   1.349   2.619   2.715 -0.0737  0.3648  0.1777
  742SOL    HW1 2225   1.355   2.522   2.681  0.9617  0.0401  0.4598
  742SOL    HW2 2226   1.439   2.648   2.759  2.4173  0.1157  0.7615
  743SOL     OW 2227   2.435   1.085   1.702  0.3840  0.8914  0.3524
  743SOL    HW1 2228   2.473   1.160   1.760  1.3803  1.3426  0.6773
  743SOL    HW2 2229   2.498   1.002   1.702 -1.9325 -0.4229  0.0252
  744SOL     OW 2230   2.509   0.386   0.857  0.2771 -0.2769 -0.5481
  744SOL    HW1 2231   2.605   0.370   0.836 -1.8940  0.1498  2.0163
  744SOL    HW2 2232   2.454   0.447   0.787  0.2614 -0.9132  0.1628
  745SOL     OW 2233   2.518   1.315   1.825 -0.0196 -0.6102 -0.3995
  745SOL    HW1 2234   2.459   1.387   1.785  1.9114 -0.8193 -2.0908
  745SOL    HW2 2235   2.599   1.349   1.874 -2.4690 -0.1711  1.4068
  746SOL     OW 2236   1.378   1.671   0.895 -0.1927 -0.1799  0.0212
  746SOL    HW1 2237   1.365   1.754   0.953 -0.2304 -0.3811 -0.8784
  746SOL    HW2 2238   1.372   1.591   0.961  1.3159 -0.0248  0.0678
  747SOL     OW 2239   1.492   1.691   1.656  0.0785  0.2988 -0.2168
  747SOL    HW1 2240   1.408   1.735   1.690  0.9677 -1.4469 -0.4420
  747SOL    HW2 2241   1.492   1.699   1.555  0.6711  1.6356 -0.9090
  748SOL     OW 2242   0.211   2.760   3.045 -0.3354 -0.7129  0.1288
  748SOL    HW1 2243   0.269   2.803   0.027  0.4157 -0.5466  2.7606
  748SOL    HW2 2244   0.172   2.667   3.078 -1.6621  0.6813  2.7590
  749SOL     OW 2245   0.184   1.282   2.381 -0.5521 -0.3444 -0.2279
  749SOL    HW1 2246   0.210   1.199   2.327 -1.6490 -0.5829 -0.3115
  749SOL    HW2 2247   0.207   1.272   2.482  0.8653 -3.1629 -3.5996
  750SOL     OW 2248   1.851   0.642   1.962 -0.1723 -0.2536  0.1662
  750SOL    HW1 2249   1.943   0.601   1.948  1.4299  2.3152 -1.6359
  750SOL    HW2 2250   1.839   0.685   2.054 -0.4844  0.8562  0.2960
  751SOL     OW 2251   2.595   0.799   0.412 -0.3827  0.4742  0.9153
  751SOL    HW1 2252   2.656   0.780   0.334  0.9052 -0.4340  0.2475
  751SOL    HW2 2253   2.655   0.795   0.493 -1.1792 -1.4705 -0.9091
  752SOL     OW 2254   3.080   2.128   0.904 -0.0987  0.2854  0.7413
  752SOL    HW1 2255   3.030   2.106   0.987  1.8305 -2.2023 -2.8395
  752SOL    HW2 2256   0.088   2.103   0.911 -1.3536  1.0777 -1.3444
  753SOL     OW 2257   1.265   2.467   0.959  0.4338 -0.3218 -0.0748
  753SOL    HW1 2258   1.255   2.366   0.979  3.9441 -1.4516 -1.8511
  753SOL    HW2 2259   1.178   2.511   0.931 -3.8088  0.4182  2.4077
  754SOL     OW 2260   0.292   3.050   1.852 -0.4554 -0.1832  0.1051
  754SOL    HW1 2261   0.274   2.990   1.933  1.3299  0.0541 -2.6842
  754SOL    HW2 2262   0.203   3.066   1.802 -1.1360 -0.2282 -0.0852
  755SOL     OW 2263   2.123   0.844   0.526 -0.5187 -0.1038 -0.1766
  755SOL    HW1 2264   2.060   0.760   0.512 -1.5378  0.0716  2.0500
  755SOL    HW2 2265   2.086   0.909   0.593  0.9972  0.0361  2.0442
  756SOL     OW 2266   2.068   2.243   2.593 -0.1487  0.0337  1.0664
  756SOL    HW1 2267   2.044   2.230   2.691 -1.0014  1.2206  0.2533
  756SOL    HW2 2268   2.036   2.335   2.551 -2.0726  0.8480 -0.9806
  757SOL     OW 2269   1.914   0.668   0.471  0.1826 -0.1240  0.0001
  757SOL    HW1 2270   1.913   0.682   0.366 -0.4499  1.7738 -3.5264
  757SOL    HW2 2271   1.891   0.579   0.507 -0.0174 -1.3321  2.1323
  758SOL     OW 2272   2.195   0.495   1.094 -0.4169  0.3236 -0.0895
  758SOL    HW1 2273   2.264   0.489   1.164  0.5358  4.3623 -1.8442
  758SOL    HW2 2274   2.241   0.539   1.015 -1.0866  1.7268  0.6793
  759SOL     OW 2275   2.586   0.537   1.085  0.0968  0.6207  0.2491
  759SOL    HW1 2276   2.511   0.523   1.158 -1.1628 -0.6918 -2.2615
  759SOL    HW2 2277   2.547   0.496   0.999  0.4266 -0.6483 -0.4830
  760SOL     OW 2278   2.399   1.402   1.205 -0.4362  0.3246 -0.4945
  760SOL    HW1 2279   2.308   1.440   1.179 -1.5110  2.2258 -1.0891
  760SOL    HW2 2280   2.386   1.302   1.217  1.1314  2.1017  0.0140
  761SOL     OW 2281   0.511   0.201   0.389  0.8209  0.7384 -0.4613
  761SOL    HW1 2282   0.528   0.294   0.423 -0.2891 -1.5297 -3.3252
  761SOL    HW2 2283   0.477   0.138   0.463 -0.6268 -2.2350  1.9284
  762SOL     OW 2284   0.883   1.956   1.196 -0.1680  0.4648  0.4739
  762SOL    HW1 2285   0.964   1.942   1.131 -0.3500 -0.3945 -2.1659
  762SOL    HW2 2286   0.819   1.881   1.177  0.1534 -4.0381 -0.2349
  763SOL     OW 2287   1.440   1.252   1.611 -0.4820  0.1671 -0.1685
  763SOL    HW1 2288   1.462   1.203   1.701  1.9209 -1.0881  1.4657
  763SOL    HW2 2289   1.481   1.190   1.540 -1.3351 -2.2746 -1.2002
  764SOL     OW 2290   0.349   1.639   2.506 -0.0258  0.0502 -0.0434
  764SOL    HW1 2291   0.277   1.585   2.557  0.9512 -2.5262 -2.1296
  764SOL    HW2 2292   0.390   1.707   2.568  0.5062 -1.3053 -2.1021
  765SOL     OW 2293   1.179   2.528   1.380  0.4641  0.5372 -0.3076
  765SOL    HW1 2294   1.142   2.568   1.471 -0.9615  1.6827  2.1132
  765SOL    HW2 2295   1.270   2.566   1.351  4.4358 -0.5416 -0.0770
  766SOL     OW 2296   2.563   2.292   2.708 -0.1519 -0.1531  0.7082
  766SOL    HW1 2297   2.603   2.358   2.772  0.0268 -0.0907  0.1860
  766SOL    HW2 2298   2.549   2.325   2.613  1.1669  1.1278  0.3072
  767SOL     OW 2299   0.849   1.354   2.510 -0.0573  0.2505 -0.1958
  767SOL    HW1 2300   0.862   1.400   2.601  0.8547 -1.5002 -2.7614
  767SOL    HW2 2301   0.758   1.316   2.502  0.6198  1.6381 -2.1417
  768SOL     OW 2302   1.155   1.748   0.067  0.0073 -0.4094  0.2455
  768SOL    HW1 2303   1.185   1.681   3.084 -0.4040 -0.9224  2.5203
  768SOL    HW2 2304   1.237   1.771   0.122 -1.5333  0.9338  0.7427
  769SOL     OW 2305   0.335   2.256   1.265  0.0287 -0.1296  0.2046
  769SOL    HW1 2306   0.363   2.212   1.179  0.7772 -1.0533  1.2610
  769SOL    HW2 2307   0.258   2.204   1.309 -1.0856  0.8262  0.2053
  770SOL     OW 2308   1.066   1.202   2.414  0.0288  0.3551  0.4408
  770SOL    HW1 2309   0.978   1.245   2.431  2.8116 -0.4338 -0.5668
  770SOL    HW2 2310   1.115   1.250   2.343  0.4459  1.8223  0.2958
  771SOL     OW 2311   0.034   2.807   2.254  0.5214  0.1215  0.0279
  771SOL    HW1 2312   0.103   2.848   2.320  1.2149 -2.1174  3.8076
  771SOL    HW2 2313   0.036   2.709   2.241 -0.8480  1.3135  0.4109
  772SOL     OW 2314   2.381   2.284   1.796 -0.4923 -0.2020  0.5170
  772SOL    HW1 2315   2.393   2.377   1.831  2.8994 -1.0013 -0.9711
  772SOL    HW2 2316   2.357   2.292   1.693  1.4448 -1.0956 -1.2955
  773SOL     OW 2317   0.567   1.951   1.639 -0.7336  0.4708 -0.1319
  773SOL    HW1 2318   0.472   1.946   1.598  0.3388  1.5231 -1.9486
  773SOL    HW2 2319   0.572   2.015   1.717 -0.2366 -2.6006 -2.3189
  774SOL     OW 2320   1.430   0.565   2.141  0.1880  0.4619  0.9247
  774SOL    HW1 2321   1.489   0.546   2.059 -1.4517 -2.4974  0.2404
  774SOL    HW2 2322   1.425   0.474   2.197 -0.6836 -1.5209  1.0209
  775SOL     OW 2323   1.972   2.706   0.043 -0.0610  0.3016 -0.2760
  775SOL    HW1 2324   1.946   2.803   0.017  0.9808  0.5381 -1.3500
  775SOL    HW2 2325   2.018   2.663   3.051 -2.6679 -2.1994  0.6544
  776SOL     OW 2326   0.010   0.338   2.052  0.2083 -0.3152 -0.2700
  776SOL    HW1 2327   3.055   0.416   2.005  0.6511  1.7684  0.2274
  776SOL    HW2 2328   0.111   0.320   2.021  2.2088 -1.6681  0.8199
  777SOL     OW 2329   2.524   2.049   1.886  0.1584 -0.6118 -0.0607
  777SOL    HW1 2330   2.472   2.006   1.960  0.4222  0.6425 -0.0707
  777SOL    HW2 2331   2.486   2.144   1.875  0.2740  1.7276 -1.9205
  778SOL     OW 2332   1.892   0.785   2.181 -0.0442 -0.1469  0.1166
  778SOL    HW1 2333   1.980   0.820   2.220 -1.6266 -0.6848 -1.0449
  778SOL    HW2 2334   1.820   0.850   2.184 -0.2320  0.1319 -2.0553
  779SOL     OW 2335   2.337   0.962   0.650 -0.3252 -0.0075  0.1188
  779SOL    HW1 2336   2.276   0.893   0.609  2.6082  2.5006  0.1482
  779SOL    HW2 2337   2.390   1.000   0.572  1.9937 -0.0187 -0.0300
  780SOL     OW 2338   2.290   0.296   2.916 -0.4168  0.4075  0.1181
  780SOL    HW1 2339   2.207   0.271   2.967 -2.1398  0.0559  2.0316
  780SOL    HW2 2340   2.299   0.242   2.832 -2.3289  1.3543 -0.6040
  781SOL     OW 2341   0.165   2.086   1.387  0.4393 -0.1291  0.2100
  781SOL    HW1 2342   0.074   2.079   1.441 -3.1044  0.3340  5.2670
  781SOL    HW2 2343   0.240   2.020   1.421  1.5081 -0.4387 -1.1014
  782SOL     OW 2344   2.354   2.546   2.879 -0.0579 -0.1029  0.2449
  782SOL    HW1 2345   2.454   2.561   2.850  2.2779  2.4773 -0.8025
  782SOL    HW2 2346   2.336   2.446   2.893 -1.0438 -0.3607 -0.0613
  783SOL     OW 2347   0.423   1.668   1.373  0.0888 -0.0955 -0.1284
  783SOL    HW1 2348   0.418   1.631   1.465  2.0718  0.5400  0.6842
  783SOL    HW2 2349   0.517   1.656   1.336  1.7582 -0.8316  1.1298
  784SOL     OW 2350   1.500   0.643   3.037 -0.0218  0.0917  0.0406
  784SOL    HW1 2351   1.583   0.620   2.985 -0.9935 -1.0539  0.3173
  784SOL    HW2 2352   1.528   0.652   0.046 -0.6482  1.6055  1.4157
  785SOL     OW 2353   2.585   3.041   0.899  0.0794 -0.6414  0.1313
  785SOL    HW1 2354   2.507   3.039   0.833 -1.4625  2.2434  0.4882
  785SOL    HW2 2355   2.562   0.030   0.959  1.1857 -0.6553  1.2223
  786SOL     OW 2356   0.816   2.083   2.028  0.3231  0.0631  0.4913
  786SOL    HW1 2357   0.848   1.987   2.023 -1.2767 -0.2067 -0.2974
  786SOL    HW2 2358   0.809   2.122   2.120 -1.0546 -0.9546  0.4593
  787SOL     OW 2359   1.297   0.863   1.195 -0.5994 -0.3606 -0.1474
  787SOL    HW1 2360   1.229   0.898   1.262  0.9552 -0.5719  1.6204
  787SOL    HW2 2361   1.381   0.842   1.245 -2.9075 -3.0264 -0.8727
  788SOL     OW 2362   0.097   0.704   0.449  0.1827 -0.3618 -0.2470
  788SOL    HW1 2363   0.157   0.770   0.499  2.5920  0.9484  0.8406
  788SOL    HW2 2364   0.140   0.611   0.448  0.0491 -0.9039 -2.4498
  789SOL     OW 2365   0.097   1.986   1.131 -0.0085 -0.1686 -0.4233
  789SOL    HW1 2366   0.163   1.998   1.054 -1.6853 -1.2047  0.8665
  789SOL    HW2 2367   0.127   2.026   1.215 -1.2707 -0.7465 -2.1276
  790SOL     OW 2368   1.009   0.826   2.248  0.2907  0.1048  0.1775
  790SOL    HW1 2369   1.062   0.762   2.191  0.9018  1.3568  0.4986
  790SOL    HW2 2370   1.061   0.844   2.340  1.2826  0.1688  2.5404
  791SOL     OW 2371   1.556   0.599   0.591  0.2187 -0.4537 -0.1067
  791SOL    HW1 2372   1.619   0.674   0.567 -0.6871 -2.1190 -2.7356
  791SOL    HW2 2373   1.583   0.554   0.681 -2.1407  0.0736  4.0738
  792SOL     OW 2374   1.499   2.778   1.874 -0.1057 -0.0468 -0.4763
  792SOL    HW1 2375   1.411   2.827   1.889  1.5172 -0.0916 -0.3695
  792SOL    HW2 2376   1.505   2.737   1.783  2.1490 -0.8371  0.1478
  793SOL     OW 2377   1.332   0.444   0.676  0.5411  0.1327 -0.2503
  793SOL    HW1 2378   1.390   0.522   0.652  0.0863 -1.3534 -0.4907
  793SOL    HW2 2379   1.325   0.432   0.776 -0.8303  0.1634 -1.5473
  794SOL     OW 2380   0.506   0.853   1.918 -0.7764  0.2308  0.5283
  794SOL    HW1 2381   0.410   0.858   1.959 -2.0961 -0.2024 -1.4254
  794SOL    HW2 2382   0.551   0.947   1.936 -1.0148 -1.1035  1.4945
  795SOL     OW 2383   0.319   2.014   2.303  0.0246 -0.1734  0.7264
  795SOL    HW1 2384   0.368   2.102   2.318 -0.4902 -1.9092  0.2443
  795SOL    HW2 2385   0.385   1.937   2.314 -1.0990 -1.3533 -3.4928
  796SOL     OW 2386   2.700   0.807   2.039  0.0065  0.0962 -0.0238
  796SOL    HW1 2387   2.629   0.787   2.109  2.3689 -2.5771 -0.9764
  796SOL    HW2 2388   2.711   0.905   2.017  0.0543 -3.2662  0.6534
  797SOL     OW 2389   2.932   2.471   3.066 -0.6273  0.1476 -0.7386
  797SOL    HW1 2390   2.931   2.548   0.047 -1.2921  0.5551  1.6195
  797SOL    HW2 2391   2.848   2.420   3.071  0.2083  0.9373 -0.3892
  798SOL     OW 2392   0.064   2.285   2.110 -0.2469  0.0493  0.2978
  798SOL    HW1 2393   0.136   2.331   2.056  0.6357  0.5431 -0.9700
  798SOL    HW2 2394   0.098   2.198   2.152  0.8980  0.6716 -2.3321
  799SOL     OW 2395   0.389   2.186   2.736 -0.5763  0.0833  0.0596
  799SOL    HW1 2396   0.480   2.190   2.782  1.4082  1.1239  2.2751
  799SOL    HW2 2397   0.312   2.211   2.798  0.8883 -0.3789 -3.0155
  800SOL     OW 2398   0.765   2.000   3.007  0.1939 -0.4796  0.2285
  800SOL    HW1 2399   0.731   1.965   0.007  1.9287  2.0248 -1.3406
  800SOL    HW2 2400   0.868   2.015   3.006 -0.0939  0.7055  2.0041
  801SOL     OW 2401   1.807   1.430   1.481 -0.3255 -0.1586 -0.0012
  801SOL    HW1 2402   1.907   1.426   1.478  0.1211 -0.5447  3.1875
  801SOL    HW2 2403   1.778   1.466   1.570  0.0505 -0.1430  0.0756
  802SOL     OW 2404   2.732   1.132   0.406  0.0190 -0.0441 -0.4238
  802SOL    HW1 2405   2.713   1.159   0.502  2.9596 -2.3704 -1.4801
  802SOL    HW2 2406   2.814   1.068   0.407  0.1515 -2.4817 -1.4713
  803SOL     OW 2407   0.892   1.776   2.636 -0.5206  0.3078  0.1304
  803SOL    HW1 2408   0.812   1.802   2.693  1.6046  0.0029  0.7013
  803SOL    HW2 2409   0.982   1.797   2.679  1.4040 -0.0752 -0.8430
  804SOL     OW 2410   1.592   1.215   0.257  0.5249 -0.1399 -0.3192
  804SOL    HW1 2411   1.502   1.235   0.306  1.2945 -3.9584  0.7083
  804SOL    HW2 2412   1.637   1.127   0.282 -0.8235 -0.9007 -2.8854
  805SOL     OW 2413   2.474   1.535   2.652  0.0160  0.1651 -0.2406
  805SOL    HW1 2414   2.403   1.545   2.725  4.4618  1.6616 -1.8316
  805SOL    HW2 2415   2.568   1.528   2.696 -0.7246 -0.7604 -1.7153
  806SOL     OW 2416   0.368   2.854   0.436 -0.2736 -0.3418 -0.6045
  806SOL    HW1 2417   0.364   2.947   0.477 -1.4816 -1.1937  2.5364
  806SOL    HW2 2418   0.441   2.790   0.469 -0.1064 -1.5328 -0.0799
  807SOL     OW 2419   1.946   1.492   2.725 -0.1364 -0.2396  0.0855
  807SOL    HW1 2420   1.887   1.548   2.785  2.0487  0.5673  1.8154
  807SOL    HW2 2421   1.965   1.397   2.763 -1.8726  0.5532 -0.7078
  808SOL     OW 2422   0.476   1.374   0.693 -0.0959  0.6669 -0.3896
  808SOL    HW1 2423   0.568   1.325   0.700 -0.2844 -1.3775  3.3295
  808SOL    HW2 2424   0.477   1.477   0.691  1.4990  0.0992  2.2449
  809SOL     OW 2425   2.465   1.025   0.437 -0.9151 -0.2919  0.1494
  809SOL    HW1 2426   2.504   1.104   0.381 -0.5609  1.7949 -2.2517
  809SOL    HW2 2427   2.525   0.940   0.422 -1.6757 -0.2722 -0.2313
  810SOL     OW 2428   0.815   1.087   0.323 -0.6094 -0.5157 -0.0006
  810SOL    HW1 2429   0.741   1.134   0.275  3.5871  0.0162  1.8763
  810SOL    HW2 2430   0.859   1.152   0.389  0.6562  0.2827  1.1665
  811SOL     OW 2431   1.431   2.626   1.311 -0.3252  0.0697 -0.0940
  811SOL    HW1 2432   1.437   2.677   1.219  1.8778  1.0695 -0.8099
  811SOL    HW2 2433   1.491   2.543   1.313 -0.0198 -1.2802  0.3938
  812SOL     OW 2434   1.188   2.659   1.728  0.1754  0.0589  0.1942
  812SOL    HW1 2435   1.198   2.744   1.781 -1.0789 -0.3997 -0.4226
  812SOL    HW2 2436   1.103   2.659   1.670 -1.4157 -2.3487 -1.4226
  813SOL     OW 2437   1.361   0.197   1.711 -0.3178  0.2361 -0.4673
  813SOL    HW1 2438   1.305   0.273   1.752 -0.3216  1.8453 -2.4677
  813SOL    HW2 2439   1.299   0.125   1.673 -0.8971  4.2633  0.0653
  814SOL     OW 2440   1.274   2.385   2.598  0.8415  0.9416  0.5961
  814SOL    HW1 2441   1.193   2.407   2.535 -0.5273  3.5985 -2.7010
  814SOL    HW2 2442   1.247   2.306   2.656 -1.7302 -1.9349 -2.2916
  815SOL     OW 2443   0.679   0.364   2.399  0.3800 -0.0983 -0.4523
  815SOL    HW1 2444   0.681   0.310   2.486 -0.6082 -1.5738 -1.2127
  815SOL    HW2 2445   0.740   0.446   2.400  0.6047  1.0848 -1.2198
  816SOL     OW 2446   2.028   0.274   3.046 -0.6434 -0.7593  1.0315
  816SOL    HW1 2447   2.005   0.367   3.011  1.9932 -0.1108 -1.7823
  816SOL    HW2 2448   1.952   0.213   3.008 -0.5507 -0.8873  1.2098
  817SOL     OW 2449   2.254   0.205   2.475  0.0928  0.5729 -0.1521
  817SOL    HW1 2450   2.324   0.153   2.428  2.2344 -1.0406  2.2031
  817SOL    HW2 2451   2.243   0.177   2.571  0.2804  1.9113  0.1232
  818SOL     OW 2452   1.742   0.406   0.237  0.5510  0.0857 -0.1034
  818SOL    HW1 2453   1.799   0.489   0.214  0.0619  0.8900 -0.0508
  818SOL    HW2 2454   1.796   0.330   0.281  0.2188 -1.0679  0.8037
  819SOL     OW 2455   2.239   1.580   2.793  0.8794 -0.2279  0.3468
  819SOL    HW1 2456   2.145   1.534   2.771 -1.7885 -0.0057 -1.2850
  819SOL    HW2 2457   2.237   1.621   2.888  1.5388  0.1388 -1.5391
  820SOL     OW 2458   3.063   1.737   2.991 -0.1208  0.1652  0.2753
  820SOL    HW1 2459   3.020   1.820   2.953 -1.0912 -2.8411  0.8249
  820SOL    HW2 2460   0.074   1.749   3.008 -0.7476 -0.1225 -0.3926
  821SOL     OW 2461   0.274   2.946   0.984 -0.1189  0.2630  0.0656
  821SOL    HW1 2462   0.361   2.976   0.947 -0.4454 -0.9906  2.6715
  821SOL    HW2 2463   0.215   2.910   0.907  1.3084  1.7779  1.0840
  822SOL     OW 2464   2.870   2.681   0.156 -0.7568  0.4051  0.1826
  822SOL    HW1 2465   2.824   2.711   0.244  2.7456  1.3631  0.0803
  822SOL    HW2 2466   2.949   2.745   0.137  0.4232  1.0905 -1.6963
  823SOL     OW 2467   1.264   0.554   2.724 -0.1382  0.5400 -0.0758
  823SOL    HW1 2468   1.261   0.462   2.688  1.8055 -0.7510  3.2065
  823SOL    HW2 2469   1.352   0.599   2.696 -2.6817 -0.4765 -1.4621
  824SOL     OW 2470   2.779   2.057   2.022  0.0990 -0.3059  0.0977
  824SOL    HW1 2471   2.681   2.054   1.987  1.9229 -0.0025 -0.8676
  824SOL    HW2 2472   2.807   2.154   2.029  0.3505  0.4515  1.4500
  825SOL     OW 2473   2.922   2.150   2.698 -0.1363 -0.9512 -0.4790
  825SOL    HW1 2474   2.827   2.121   2.671 -1.1801  0.6846  0.3398
  825SOL    HW2 2475   2.963   2.175   2.608  3.1961 -1.2433 -1.2572
  826SOL     OW 2476   2.378   1.254   2.334 -0.1808 -0.0943 -0.4393
  826SOL    HW1 2477   2.346   1.168   2.289  0.8526  0.6634 -1.3412
  826SOL    HW2 2478   2.306   1.326   2.336  2.0687 -0.5044 -0.7492
  827SOL     OW 2479   2.246   2.376   1.181 -0.3452 -0.3544  0.0616
  827SOL    HW1 2480   2.215   2.281   1.182  1.7679 -0.4545  1.1962
  827SOL    HW2 2481   2.200   2.434   1.250 -1.1161 -0.5809  0.4467
  828SOL     OW 2482   0.293   2.976   1.499 -0.2858 -0.5054 -0.5166
  828SOL    HW1 2483   0.203   2.991   1.543 -0.3906  1.3114 -0.3011
  828SOL    HW2 2484   0.346   3.059   1.495 -0.8157 -1.9621 -2.8558
  829SOL     OW 2485   1.494   2.480   2.454  0.7287 -0.0977 -0.8984
  829SOL    HW1 2486   1.559   2.515   2.523 -0.9924  0.8091 -0.9597
  829SOL    HW2 2487   1.408   2.456   2.506  0.3484 -1.0818  3.4338
  830SOL     OW 2488   0.895   0.339   0.465  0.2731 -0.1867 -0.9453
  830SOL    HW1 2489   0.802   0.311   0.495  0.9022 -0.5278 -1.7156
  830SOL    HW2 2490   0.934   0.412   0.521  1.2313 -1.1945 -1.3810
  831SOL     OW 2491   2.855   1.401   2.953 -0.1807  0.1502 -0.5179
  831SOL    HW1 2492   2.889   1.444   3.037 -0.0753  0.2680 -0.4831
  831SOL    HW2 2493   2.923   1.330   2.918  2.1986 -4.4533 -1.6586
  832SOL     OW 2494   1.761   1.916   2.241  0.1665  0.2923 -0.3951
  832SOL    HW1 2495   1.666   1.959   2.224 -0.5131  2.1996 -0.3788
  832SOL    HW2 2496   1.836   1.983   2.269 -0.4737  1.1230  0.3928
  833SOL     OW 2497   0.958   0.382   2.124  0.1609 -0.3527  0.3746
  833SOL    HW1 2498   0.997   0.343   2.210 -0.6549 -0.1724 -0.4526
  833SOL    HW2 2499   0.878   0.330   2.096  0.3637 -1.9677 -1.2704
  834SOL     OW 2500   0.643   1.114   1.643 -0.1936  0.2208  1.0204
  834SOL    HW1 2501   0.674   1.043   1.574 -1.8408  1.1164  1.9917
  834SOL    HW2 2502   0.545   1.131   1.619 -1.0005 -1.0108  2.3135
  835SOL     OW 2503   2.657   0.971   3.017 -0.4002  0.0659 -0.5490
  835SOL    HW1 2504   2.575   0.915   3.030  2.1164  2.6056 -2.2837
  835SOL    HW2 2505   2.650   1.072   3.035 -0.3898  4.0006 -0.0830
  836SOL     OW 2506   0.929   1.821   0.232 -0.6441 -0.2102 -0.3807
  836SOL    HW1 2507   0.919   1.920   0.260  0.1980  1.7757  0.8993
  836SOL    HW2 2508   1.021   1.801   0.187  0.1717 -1.4323 -1.2517
  837SOL     OW 2509   1.643   1.793   0.934 -0.0282  0.0416  0.1158
  837SOL    HW1 2510   1.683   1.818   0.839 -0.4305  0.6640 -2.3506
  837SOL    HW2 2511   1.552   1.831   0.951 -0.1780 -1.4796 -0.7031
  838SOL     OW 2512   1.136   1.145   2.023 -0.6312 -0.1298 -0.7310
  838SOL    HW1 2513   1.053   1.088   2.035  2.4697  4.0283  0.2370
  838SOL    HW2 2514   1.118   1.224   1.963 -0.2403 -2.3585 -1.3465
  839SOL     OW 2515   0.846   2.020   2.554 -0.2288 -0.1308  0.1933
  839SOL    HW1 2516   0.909   1.941   2.565 -0.1463 -0.1751  0.6239
  839SOL    HW2 2517   0.824   2.073   2.641  1.4019 -0.7367 -2.1135
  840SOL     OW 2518   0.726   2.316   0.275 -0.3406 -0.1810  0.0938
  840SOL    HW1 2519   0.637   2.304   0.236  2.9151  0.2124  0.5355
  840SOL    HW2 2520   0.713   2.348   0.371 -0.6229 -0.4009 -1.1618
  841SOL     OW 2521   1.773   2.394   0.263  0.1376  0.4091 -0.1170
  841SOL    HW1 2522   1.671   2.404   0.265 -1.3843 -0.1290  2.8201
  841SOL    HW2 2523   1.816   2.405   0.170 -0.1056 -0.0272  0.6045
  842SOL     OW 2524   0.562   0.699   3.011 -0.5006  0.2507 -0.1461
  842SOL    HW1 2525   0.510   0.645   3.082 -1.6556 -2.1045  0.4288
  842SOL    HW2 2526   0.661   0.709   3.035  0.4487 -0.3998 -1.2839
  843SOL     OW 2527   1.047   0.214   0.806 -0.6032 -0.5840  0.3074
  843SOL    HW1 2528   0.983   0.246   0.883 -0.3321  1.3058  1.1868
  843SOL    HW2 2529   1.121   0.289   0.793  2.4707  2.3461 -0.3118
  844SOL     OW 2530   2.920   3.040   2.590 -0.0805  0.1145  0.2760
  844SOL    HW1 2531   2.874   2.990   2.514 -0.5826  1.3808 -0.0590
  844SOL    HW2 2532   2.883   3.018   2.682 -0.2835 -0.9213  0.1937
  845SOL     OW 2533   2.526   2.303   1.203 -0.1913 -0.0312  0.3190
  845SOL    HW1 2534   2.430   2.328   1.176 -0.8575  0.6174 -1.1062
  845SOL    HW2 2535   2.535   2.249   1.289 -0.7996 -2.4715 -2.1514
  846SOL     OW 2536   2.815   1.824   2.136  0.0857 -0.4699 -0.6656
  846SOL    HW1 2537   2.791   1.916   2.099  0.7329 -1.6061  0.1881
  846SOL    HW2 2538   2.890   1.834   2.209 -0.0164  2.2030  1.3526
  847SOL     OW 2539   1.202   0.746   1.565  0.0402 -0.6560 -0.0010
  847SOL    HW1 2540   1.152   0.764   1.658  2.5796 -1.3331 -0.4200
  847SOL    HW2 2541   1.295   0.713   1.586 -0.2012  2.3778 -0.8730
  848SOL     OW 2542   2.852   2.941   3.080  0.5054  0.3691  0.1140
  848SOL    HW1 2543   2.784   2.981   0.052 -1.4584 -0.2027 -2.1664
  848SOL    HW2 2544   2.926   2.898   0.038 -1.0705  1.8726 -1.6350
  849SOL     OW 2545   0.754   2.956   2.903 -0.4257 -0.0387 -0.5294
  849SOL    HW1 2546   0.668   2.949   2.850  1.9566  0.6754  2.6575
  849SOL    HW2 2547   0.749   3.030   2.973 -0.1721 -0.4726 -0.0887
  850SOL     OW 2548   1.212   2.856   1.242  0.1815  0.4998  0.2608
  850SOL    HW1 2549   1.297   2.812   1.203  0.8301 -1.3373  0.5031
  850SOL    HW2 2550   1.135   2.814   1.196  1.1082 -0.5711 -0.4380
  851SOL     OW 2551   2.633   0.199   1.956 -0.5827 -0.3899  0.4087
  851SOL    HW1 2552   2.607   0.256   1.881  0.5929  0.3435  5.3288
  851SOL    HW2 2553   2.737   0.199   1.963 -0.6493  0.9017 -1.1114
  852SOL     OW 2554   2.060   0.551   2.557 -0.0183 -0.4320 -0.7367
  852SOL    HW1 2555   2.049   0.543   2.456  0.5645  0.8281  0.1044
  852SOL    HW2 2556   2.161   0.564   2.577  1.0252  2.1734  3.1906
  853SOL     OW 2557   0.082   3.074   0.506 -0.1122  0.3011 -0.4406
  853SOL    HW1 2558   0.056   0.054   0.570  3.9965  0.8323 -1.9680
  853SOL    HW2 2559   0.011   3.006   0.491  2.4207  1.1638 -1.0627
  854SOL     OW 2560   2.234   1.337   1.958  0.7540  0.1044 -0.2633
  854SOL    HW1 2561   2.240   1.241   1.986 -2.0479 -0.7724  0.2050
  854SOL    HW2 2562   2.321   1.382   1.965  1.8530 -1.7838 -0.2431
  855SOL     OW 2563   0.854   2.692   0.138 -0.0764 -0.4592  0.1547
  855SOL    HW1 2564   0.760   2.699   0.099  0.7399  1.1375 -1.1646
  855SOL    HW2 2565   0.889   2.598   0.118  0.6004  1.6895  2.1604
  856SOL     OW 2566   3.051   0.140   2.738  0.3183 -0.4363 -0.4657
  856SOL    HW1 2567   3.002   0.091   2.665 -0.3275 -1.1567 -2.1911
  856SOL    HW2 2568   3.030   0.242   2.730  1.0191  1.8532 -0.3514
  857SOL     OW 2569   1.210   3.079   1.651 -0.2687 -0.2753 -0.0711
  857SOL    HW1 2570   1.261   3.021   1.581  1.2052 -3.2316 -2.9498
  857SOL    HW2 2571   1.118   0.025   1.617  2.0170 -0.0883  1.1237
  858SOL     OW 2572   2.663   2.322   1.617  0.3125 -0.0673 -0.4836
  858SOL    HW1 2573   2.645   2.221   1.646 -2.5851 -1.8520 -0.4247
  858SOL    HW2 2574   2.762   2.339   1.582 -0.0506  1.8189 -1.6421
  859SOL     OW 2575   1.449   2.535   2.017 -0.4784  0.7274  0.7761
  859SOL    HW1 2576   1.420   2.502   1.923  2.8387 -1.1557  0.0316
  859SOL    HW2 2577   1.460   2.633   2.016  0.3096  1.8192 -0.9780
  860SOL     OW 2578   2.344   2.685   0.027 -0.1777  0.5166 -0.6659
  860SOL    HW1 2579   2.339   2.648   3.023  1.2616  0.9191  0.5656
  860SOL    HW2 2580   2.270   2.655   0.084  1.3167  3.0520  0.1991
  861SOL     OW 2581   2.183   2.855   0.724 -0.3808  0.5350  0.4622
  861SOL    HW1 2582   2.090   2.886   0.694 -0.8873 -2.0006  1.2462
  861SOL    HW2 2583   2.205   2.762   0.687  1.1109  0.2315 -1.2473
  862SOL     OW 2584   1.804   0.075   2.360  0.1335  0.2273  0.1833
  862SOL    HW1 2585   1.856   3.078   2.379  0.2425  1.4581 -0.1084
  862SOL    HW2 2586   1.870   0.155   2.369 -0.1890  2.7562  2.4566
  863SOL     OW 2587   0.025   0.634   0.823 -0.6106 -0.6994 -0.7514
  863SOL    HW1 2588   0.122   0.627   0.793 -1.5936  0.5888  0.9116
  863SOL    HW2 2589   3.055   0.648   0.742 -0.1270 -2.7233  0.6640
  864SOL     OW 2590   0.307   2.887   2.068  0.9150 -0.2580 -0.5558
  864SOL    HW1 2591   0.407   2.920   2.061  1.2094 -1.3447 -0.9524
  864SOL    HW2 2592   0.269   2.912   2.160 -0.0896  0.7012  1.0754
  865SOL     OW 2593   0.726   1.143   0.006 -0.4817 -0.0679  0.1188
  865SOL    HW1 2594   0.758   1.056   3.052 -0.5731  0.4807  1.9418
  865SOL    HW2 2595   0.623   1.146   0.021 -2.6400  1.8845  0.3995
  866SOL     OW 2596   2.787   0.802   0.216 -0.1562 -0.3379  0.7130
  866SOL    HW1 2597   2.880   0.763   0.197 -0.3316  0.7211  2.1208
  866SOL    HW2 2598   2.759   0.869   0.147 -1.1142 -2.5999  0.2307
  867SOL     OW 2599   3.068   0.043   2.980 -0.3056  0.4969  0.2682
  867SOL    HW1 2600   2.994   3.064   2.997  0.4916 -2.7559  1.2642
  867SOL    HW2 2601   3.055   0.079   2.888  0.9099 -1.5370  0.0430
  868SOL     OW 2602   1.379   3.086   0.510 -0.1903 -0.8623  0.4980
  868SOL    HW1 2603   1.365   0.097   0.498  1.7437 -1.9180 -0.5158
  868SOL    HW2 2604   1.285   3.052   0.519  3.1173 -1.8759  0.9175
  869SOL     OW 2605   1.518   1.627   0.680 -0.1945 -0.7731  0.5038
  869SOL    HW1 2606   1.458   1.647   0.763 -0.6316  0.2192  0.8539
  869SOL    HW2 2607   1.589   1.701   0.662  2.5706  2.8349  0.7541
  870SOL     OW 2608   1.734   1.839   0.680  0.4862 -0.0611  0.3054
  870SOL    HW1 2609   1.836   1.828   0.684  3.3650 -0.2563 -0.2220
  870SOL    HW2 2610   1.697   1.890   0.596  0.7594  0.9039  0.2707
  871SOL     OW 2611   1.251   1.457   1.361  0.0955 -0.0193  0.3347
  871SOL    HW1 2612   1.214   1.370   1.403 -3.3435 -3.0475  1.1909
  871SOL    HW2 2613   1.323   1.437   1.290 -1.5529  0.5596 -0.5730
  872SOL     OW 2614   1.046   1.572   1.792  0.0283 -0.1663  0.0808
  872SOL    HW1 2615   1.032   1.578   1.693 -1.7832  1.9671  2.8702
  872SOL    HW2 2616   1.016   1.479   1.823  1.1214 -2.9255  0.5066
  873SOL     OW 2617   0.878   1.600   2.407  0.0060 -0.5532  0.1116
  873SOL    HW1 2618   0.888   1.504   2.431 -2.2720 -2.0401 -2.0580
  873SOL    HW2 2619   0.874   1.654   2.492 -1.4336 -3.5747 -0.3466
  874SOL     OW 2620   0.460   1.434   1.085 -0.3350 -0.3055 -0.2844
  874SOL    HW1 2621   0.392   1.511   1.098 -2.2706  1.6281  2.5468
  874SOL    HW2 2622   0.419   1.359   1.033  0.5150 -0.6390 -1.8727
  875SOL     OW 2623   2.698   0.103   1.181  0.3528 -0.4034  0.1566
  875SOL    HW1 2624   2.608   0.141   1.160 -0.9263 -0.8426 -2.3812
  875SOL    HW2 2625   2.702   0.071   1.279  1.1285 -0.1472 -1.7568
  876SOL     OW 2626   0.808   0.732   0.036 -0.1708 -0.0194  0.3406
  876SOL    HW1 2627   0.873   0.659   0.040  2.6726 -0.0853 -1.1749
  876SOL    HW2 2628   0.796   0.774   0.130  0.8118  1.0983  2.1306
  877SOL     OW 2629   0.031   0.127   1.296 -0.0260 -0.0168 -0.0889
  877SOL    HW1 2630   3.055   0.189   1.253  0.6376  0.1299 -1.5479
  877SOL    HW2 2631   3.075   0.057   1.355 -0.7478 -0.4503 -1.2988
  878SOL     OW 2632   1.728   2.095   0.025  0.1824  0.0184  0.1242
  878SOL    HW1 2633   1.828   2.118   0.030 -1.3242 -0.3010  2.1763
  878SOL    HW2 2634   1.716   2.005   3.072  0.7547  4.8693 -1.0420
  879SOL     OW 2635   2.288   2.010   1.489 -0.1721  0.4773 -0.4636
  879SOL    HW1 2636   2.267   2.108   1.505  0.5133  0.0289  1.2456
  879SOL    HW2 2637   2.275   1.964   1.581  2.1947 -1.0221 -1.3724
  880SOL     OW 2638   0.814   0.253   1.596 -0.0333  0.1214  0.2723
  880SOL    HW1 2639   0.732   0.209   1.642 -0.7037  0.1788  2.0377
  880SOL    HW2 2640   0.835   0.343   1.651  1.3161  0.6613  0.5783
  881SOL     OW 2641   1.025   1.944   3.018 -0.3243 -0.5176 -0.3273
  881SOL    HW1 2642   1.038   1.925   2.919 -0.5879  1.1174 -0.7889
  881SOL    HW2 2643   1.053   1.866   3.077  1.7610 -4.1554  0.4894
  882SOL     OW 2644   2.131   1.248   1.720 -0.1765  0.5379  0.0216
  882SOL    HW1 2645   2.177   1.217   1.634 -1.1057  0.3771 -1.0985
  882SOL    HW2 2646   2.186   1.308   1.781  0.2941 -1.6012 -0.9883
  883SOL     OW 2647   1.187   0.717   2.063  0.0025  0.3021  0.2892
  883SOL    HW1 2648   1.107   0.665   2.034  1.4594 -0.8361 -1.7818
  883SOL    HW2 2649   1.263   0.657   2.088 -2.4221  3.2351 -0.3321
  884SOL     OW 2650   2.724   0.420   0.005 -0.3640 -0.3164  0.6783
  884SOL    HW1 2651   2.775   0.388   0.089  1.3943  0.1274  2.0178
  884SOL    HW2 2652   2.772   0.496   3.052 -1.3824  0.4849  1.5711
  885SOL     OW 2653   0.290   2.138   0.343 -0.2867  0.0270 -0.1194
  885SOL    HW1 2654   0.259   2.053   0.296  0.1511 -0.1690 -1.9333
  885SOL    HW2 2655   0.351   2.191   0.277 -0.9956  1.1484 -0.7218
  886SOL     OW 2656   1.986   1.235   2.802 -0.4015  0.0470 -0.0802
  886SOL    HW1 2657   2.078   1.207   2.828  2.6297 -1.7911 -3.6085
  886SOL    HW2 2658   1.921   1.193   2.869  0.0995 -0.2494  0.5347
  887SOL     OW 2659   1.703   0.695   1.739  0.4315 -0.2207  0.2909
  887SOL    HW1 2660   1.756   0.677   1.821 -0.4014  2.5876 -0.6386
  887SOL    HW2 2661   1.728   0.787   1.698  0.4591 -1.0275 -0.7840
  888SOL     OW 2662   2.983   1.139   1.840 -0.0022 -0.3348  0.8014
  888SOL    HW1 2663   3.062   1.081   1.808  1.2625  0.4261 -0.2223
  888SOL    HW2 2664   3.016   1.200   1.915 -0.5451 -2.9231  0.2582
  889SOL     OW 2665   2.731   2.597   0.965  0.2150  0.3437 -0.1550
  889SOL    HW1 2666   2.817   2.652   0.969 -1.5947  0.4265 -0.1857
  889SOL    HW2 2667   2.761   2.512   0.917 -0.1302 -4.0445 -1.4183
  890SOL     OW 2668   0.124   2.669   2.558 -0.0260 -0.0861 -0.1000
  890SOL    HW1 2669   0.098   2.572   2.547 -1.1352  0.1246 -1.8797
  890SOL    HW2 2670   0.219   2.669   2.595  0.4078 -0.1341 -0.8523
  891SOL     OW 2671   0.439   1.763   0.103 -0.4075  0.6659  0.0275
  891SOL    HW1 2672   0.512   1.831   0.126  0.5749 -0.0322 -0.7557
  891SOL    HW2 2673   0.477   1.664   0.105  0.0681 -5.4265 -0.4413
  892SOL     OW 2674   3.040   2.364   1.159  0.6224  0.5628  0.5757
  892SOL    HW1 2675   3.017   2.308   1.240  2.1918  1.6384  0.8405
  892SOL    HW2 2676   2.951   2.398   1.117  0.1603 -1.2106  2.8259
  893SOL     OW 2677   0.601   2.987   1.462 -0.2364 -0.0417 -0.3067
  893SOL    HW1 2678   0.644   3.074   1.428  0.8119 -1.0053 -0.7947
  893SOL    HW2 2679   0.558   2.997   1.552 -0.5032 -0.9706 -1.2375
  894SOL     OW 2680   2.378   1.734   0.830 -0.5035 -0.0846  0.4895
  894SOL    HW1 2681   2.421   1.668   0.895  2.0032 -0.0557  0.5181
  894SOL    HW2 2682   2.357   1.673   0.751 -0.6274  1.0627 -1.1041
  895SOL     OW 2683   2.634   2.631   1.683 -0.1357 -0.1962  0.1815
  895SOL    HW1 2684   2.646   2.534   1.698  0.3343  2.0172  0.6165
  895SOL    HW2 2685   2.691   2.666   1.609 -1.7338  1.1530  1.6375
  896SOL     OW 2686   1.061   0.443   1.439  0.8474  0.2756 -0.4924
  896SOL    HW1 2687   1.158   0.458   1.463 -5.0741 -0.4906 -1.4425
  896SOL    HW2 2688   0.996   0.433   1.518  0.8451  3.1602 -1.7001
  897SOL     OW 2689   0.932   1.614   1.506  0.2761  0.0300 -0.3400
  897SOL    HW1 2690   0.851   1.676   1.498  1.2432 -0.9050  1.9338
  897SOL    HW2 2691   1.018   1.660   1.470  2.1819 -3.3694  0.3191
  898SOL     OW 2692   1.457   2.727   1.597  0.5344  1.0537 -0.4076
  898SOL    HW1 2693   1.435   2.816   1.553 -0.4946  0.0583  0.5612
  898SOL    HW2 2694   1.386   2.656   1.584  1.5123  0.4006 -2.1651
  899SOL     OW 2695   1.022   0.509   0.059 -0.0494  0.0395  0.2465
  899SOL    HW1 2696   1.106   0.523   0.002 -1.6554  2.2174 -1.9764
  899SOL    HW2 2697   0.974   0.423   0.032 -0.1574  0.3427  0.1387
  900SOL     OW 2698   1.418   2.355   2.224 -0.2251 -0.1115  0.1383
  900SOL    HW1 2699   1.459   2.394   2.303  1.8173 -2.1244 -0.3882
  900SOL    HW2 2700   1.445   2.414   2.143 -0.1489 -0.0416 -2.8393
  901SOL     OW 2701   1.108   2.174   0.066 -0.1392 -0.1643  0.1862
  901SOL    HW1 2702   1.054   2.117   3.090  0.9190 -2.6815  0.0742
  901SOL    HW2 2703   1.124   2.124   0.152 -2.0367  2.2027 -2.1285
  902SOL     OW 2704   1.536   1.351   0.865 -0.8059 -0.5697 -0.1710
  902SOL    HW1 2705   1.624   1.380   0.825 -0.9492 -0.3310  0.2473
  902SOL    HW2 2706   1.458   1.376   0.800  0.7058  1.0142 -0.4396
  903SOL     OW 2707   2.321   1.068   0.146  0.6773  0.4017  0.7163
  903SOL    HW1 2708   2.348   0.978   0.111  2.2312  2.6641 -1.4857
  903SOL    HW2 2709   2.404   1.113   0.182 -1.2741 -1.9034 -0.2852
  904SOL     OW 2710   0.937   1.332   0.067  0.4112  0.1672 -0.0098
  904SOL    HW1 2711   0.870   1.257   0.050 -3.2380  0.0189  1.0833
  904SOL    HW2 2712   0.974   1.339   0.162 -0.7884  0.4578  1.7445
  905SOL     OW 2713   2.247   2.989   1.290 -0.0233  0.3735  0.4171
  905SOL    HW1 2714   2.163   2.981   1.346 -1.6691 -3.7731 -0.7476
  905SOL    HW2 2715   2.282   3.084   1.287 -1.1036 -0.1973  1.5970
  906SOL     OW 2716   2.706   2.525   1.224  0.0142 -0.4200  0.0275
  906SOL    HW1 2717   2.722   2.560   1.131 -2.5902 -0.3903  1.2630
  906SOL    HW2 2718   2.637   2.451   1.212 -0.1777 -3.2495  1.2670
  907SOL     OW 2719   1.186   0.992   0.408 -0.0217 -0.2586  0.2695
  907SOL    HW1 2720   1.241   0.905   0.400  0.8915 -0.3692 -0.2206
  907SOL    HW2 2721   1.126   1.009   0.323 -2.8673 -2.0838 -2.4175
  908SOL     OW 2722   1.567   0.235   0.971  0.4297  0.0979 -0.1534
  908SOL    HW1 2723   1.514   0.166   1.029 -0.6955 -0.7611 -0.8055
  908SOL    HW2 2724   1.666   0.215   0.984  2.7826 -2.3217  3.7464
  909SOL     OW 2725   2.264   1.150   1.509  0.5061  0.2425 -0.1256
  909SOL    HW1 2726   2.326   1.100   1.573  1.3366 -0.3526  1.5677
  909SOL    HW2 2727   2.298   1.129   1.419 -1.1440 -0.7110  2.2915
  910SOL     OW 2728   2.018   0.486   2.272  0.6628 -0.1282 -0.0214
  910SOL    HW1 2729   1.939   0.537   2.226  1.2306 -0.7872 -1.1078
  910SOL    HW2 2730   2.089   0.446   2.214 -1.7506 -1.7028  0.6475
  911SOL     OW 2731   2.519   0.847   2.683  0.2136 -0.1776 -0.1579
  911SOL    HW1 2732   2.424   0.857   2.654  2.0902  1.3147 -0.4404
  911SOL    HW2 2733   2.529   0.804   2.772  0.9714  0.4333 -2.1660
  912SOL     OW 2734   0.158   1.053   1.758 -0.3318  0.4642 -0.4578
  912SOL    HW1 2735   0.192   1.003   1.675  1.9586  1.0128  1.9558
  912SOL    HW2 2736   0.149   1.152   1.743 -1.6962 -1.6484  0.4488
  913SOL     OW 2737   2.869   2.256   1.376 -0.3088  0.3729  0.2705
  913SOL    HW1 2738   2.932   2.196   1.436 -0.9096  0.0110  4.8084
  913SOL    HW2 2739   2.799   2.197   1.334  0.7262 -0.2782 -0.2463
  914SOL     OW 2740   1.731   1.019   1.900  0.6020 -0.2649  0.3807
  914SOL    HW1 2741   1.732   1.119   1.918  0.0471  2.1158 -3.2394
  914SOL    HW2 2742   1.806   0.998   1.836 -1.2179 -3.0621  0.4431
  915SOL     OW 2743   2.259   0.849   1.141 -0.1904  0.1809  0.4108
  915SOL    HW1 2744   2.304   0.825   1.233  2.3793  0.2996 -0.7627
  915SOL    HW2 2745   2.332   0.838   1.075  0.6646  3.1223  2.5661
  916SOL     OW 2746   1.902   2.162   0.939 -0.4389 -0.6899  0.3717
  916SOL    HW1 2747   1.816   2.216   0.965 -1.3438 -1.1200 -0.4516
  916SOL    HW2 2748   1.883   2.068   0.973  1.3749  2.9645  1.5975
  917SOL     OW 2749   1.945   2.073   2.385 -0.4812  0.3755  0.4679
  917SOL    HW1 2750   1.860   2.094   2.434  3.9470 -0.1980  1.3523
  917SOL    HW2 2751   2.017   2.131   2.432  0.7936  0.6937 -0.1788
  918SOL     OW 2752   1.976   2.448   2.441 -0.1900 -0.1428 -0.1425
  918SOL    HW1 2753   1.947   2.546   2.460  0.8636  2.5656  0.1198
  918SOL    HW2 2754   1.912   2.410   2.369  1.8761  1.0815 -0.4406
  919SOL     OW 2755   1.363   2.953   1.434  0.5408  0.1292  0.9102
  919SOL    HW1 2756   1.293   2.932   1.360 -0.0108 -0.1179  0.2974
  919SOL    HW2 2757   1.451   2.993   1.398 -1.0113  1.3190  0.5655
  920SOL     OW 2758   0.064   0.069   2.430 -0.0022 -0.1659  0.7096
  920SOL    HW1 2759   0.117   3.072   2.425 -0.9163 -0.9174 -0.3155
  920SOL    HW2 2760   3.059   0.036   2.454  0.2131  0.1016  1.8600
  921SOL     OW 2761   3.061   0.841   1.556 -0.2524  0.0249  0.5944
  921SOL    HW1 2762   3.014   0.872   1.470 -2.3640  0.5397 -1.8684
  921SOL    HW2 2763   0.070   0.864   1.550  1.7828  0.8562 -1.3357
  922SOL     OW 2764   2.373   2.533   0.386 -0.6021  0.1880 -0.0658
  922SOL    HW1 2765   2.310   2.559   0.311  2.2552 -2.5229  5.1194
  922SOL    HW2 2766   2.437   2.459   0.348  0.6867 -2.3526 -2.3225
  923SOL     OW 2767   0.598   1.908   0.607  0.8772 -0.4761  0.3545
  923SOL    HW1 2768   0.658   1.986   0.631 -2.8714  1.0054  1.2959
  923SOL    HW2 2769   0.498   1.940   0.607 -2.2253  1.4548 -1.5893
  924SOL     OW 2770   1.107   0.621   0.279 -0.4105 -0.7387  0.4252
  924SOL    HW1 2771   1.047   0.655   0.358  1.1900 -1.3630 -1.1555
  924SOL    HW2 2772   1.060   0.591   0.191 -1.3948  0.0686  0.4392
  925SOL     OW 2773   2.722   0.842   1.056 -0.0847 -0.0217 -0.0017
  925SOL    HW1 2774   2.742   0.772   1.125 -1.5683 -0.3129 -0.8208
  925SOL    HW2 2775   2.639   0.816   1.005 -1.4803  0.5752 -0.3624
  926SOL     OW 2776   0.657   0.255   1.141  0.0657  0.0568 -0.0610
  926SOL    HW1 2777   0.557   0.239   1.125  0.1949 -2.7641  1.4646
  926SOL    HW2 2778   0.678   0.211   1.231  2.7475  3.5620 -1.6704
  927SOL     OW 2779   0.445   1.492   2.319 -0.5059  0.4777 -0.2566
  927SOL    HW1 2780   0.408   1.554   2.392 -0.2912  0.6712  1.2837
  927SOL    HW2 2781   0.372   1.448   2.264  0.9733 -1.9004  0.0067
  928SOL     OW 2782   0.275   0.357   2.385  0.0723  0.3937 -0.2824
  928SOL    HW1 2783   0.171   0.341   2.380 -0.9082 -1.6519  1.6399
  928SOL    HW2 2784   0.321   0.300   2.459  2.5959 -2.4646 -0.3272
  929SOL     OW 2785   2.889   3.024   1.106  0.0824  0.3624 -0.1258
  929SOL    HW1 2786   2.933   3.033   1.017 -1.4619 -1.3857  1.5080
  929SOL    HW2 2787   2.815   3.090   1.122  1.9445 -2.6802  2.0887
  930SOL     OW 2788   2.148   0.729   1.805  0.1500  0.1566 -0.5406
  930SOL    HW1 2789   2.122   0.648   1.857  0.0196  4.2205 -0.4738
  930SOL    HW2 2790   2.110   0.808   1.861 -0.1271 -1.4692  0.5612
  931SOL     OW 2791   1.808   1.194   3.008 -0.2789  0.2104  0.6316
  931SOL    HW1 2792   1.728   1.142   2.969 -0.5755 -3.9333 -0.2738
  931SOL    HW2 2793   1.773   1.281   3.053  0.7360 -2.2732 -0.3242
  932SOL     OW 2794   1.981   1.262   0.362  0.0324  0.3104  0.0255
  932SOL    HW1 2795   2.019   1.176   0.320 -0.1987 -2.0050 -1.3724
  932SOL    HW2 2796   1.911   1.229   0.426  0.1351 -0.5320 -0.3802
  933SOL     OW 2797   2.140   1.780   0.974 -0.2824 -0.5388 -0.7315
  933SOL    HW1 2798   2.229   1.772   0.931 -0.2998 -0.5529  0.0254
  933SOL    HW2 2799   2.153   1.776   1.078  0.4656 -0.0475  5.4574
  934SOL     OW 2800   2.084   0.825   2.550  0.3146 -0.4462 -0.1266
  934SOL    HW1 2801   2.076   0.723   2.559  1.8672 -1.0947 -0.8518
  934SOL    HW2 2802   1.992   0.866   2.568  0.3696  2.1974 -2.0498
  935SOL     OW 2803   0.210   0.955   0.618  0.1199 -0.7076  0.3613
  935SOL    HW1 2804   0.245   1.045   0.584  0.9280 -1.6080 -1.8122
  935SOL    HW2 2805   0.118   0.969   0.660  0.5106  1.6690  1.6045
  936SOL     OW 2806   0.499   3.027   0.800  0.3594 -0.4085 -0.4292
  936SOL    HW1 2807   0.581   2.973   0.837 -1.0450  0.6595  2.1325
  936SOL    HW2 2808   0.525   0.034   0.787  1.9874  1.1337 -1.1393
  937SOL     OW 2809   3.058   3.017   2.073  0.0550  0.0446 -0.0681
  937SOL    HW1 2810   3.046   2.945   2.143 -0.1228  1.0197  1.6490
  937SOL    HW2 2811   3.065   2.982   1.982 -1.2745 -1.9015  2.3592
  938SOL     OW 2812   0.101   2.531   0.057 -0.2936 -0.0512 -0.1617
  938SOL    HW1 2813   0.014   2.492   0.015  2.7189  1.0126  1.7349
  938SOL    HW2 2814   0.096   2.532   0.157  0.2606  2.0756 -1.6253
  939SOL     OW 2815   1.064   1.914   0.997  0.5634 -0.1481  0.0121
  939SOL    HW1 2816   1.035   1.901   0.902  1.9387  1.0045  0.5168
  939SOL    HW2 2817   1.092   1.833   1.042  2.1675  5.1731 -0.9426
  940SOL     OW 2818   0.049   0.369   2.965  0.8665 -0.4125 -0.3253
  940SOL    HW1 2819   0.057   0.306   3.044  1.1886 -1.6501 -0.2966
  940SOL    HW2 2820   0.143   0.384   2.928 -1.0616  2.0397 -0.4708
  941SOL     OW 2821   1.985   0.206   2.730  0.0172  0.4310  0.4949
  941SOL    HW1 2822   1.991   0.275   2.659  1.9335 -0.5808  0.6802
  941SOL    HW2 2823   1.892   0.165   2.741  0.5847  0.7361 -2.1643
  942SOL     OW 2824   1.301   0.423   0.934 -0.5118 -0.1417  0.1824
  942SOL    HW1 2825   1.370   0.371   0.986  1.6085 -1.0661  1.2338
  942SOL    HW2 2826   1.259   0.494   0.996 -0.7740 -1.1910 -3.1052
  943SOL     OW 2827   1.041   0.786   1.772 -0.2277  0.3186  0.8491
  943SOL    HW1 2828   1.017   0.700   1.817  0.3246 -0.8338  0.1667
  943SOL    HW2 2829   0.969   0.853   1.795 -1.7588  0.8940  0.4499
  944SOL     OW 2830   2.025   0.972   1.494  0.0555  0.8678 -0.1893
  944SOL    HW1 2831   2.071   0.878   1.494 -0.9505  0.0389  1.4138
  944SOL    HW2 2832   2.090   1.042   1.530 -1.4730 -0.8389 -0.5799
  945SOL     OW 2833   2.663   0.001   0.182  0.5809 -0.1326 -0.2619
  945SOL    HW1 2834   2.666   0.029   0.282  0.4384  3.4739  0.4731
  945SOL    HW2 2835   2.570   3.053   0.161 -0.9307  0.8509  1.2734
  946SOL     OW 2836   2.970   0.759   2.036 -0.4267  0.2286  0.2671
  946SOL    HW1 2837   2.872   0.763   2.015  6.1861 -2.0847  0.6166
  946SOL    HW2 2838   3.002   0.665   2.004 -0.6532 -2.4798 -2.1372
  947SOL     OW 2839   1.018   2.907   0.106  0.0381 -0.5567  0.3579
  947SOL    HW1 2840   1.092   2.885   0.035  1.3828  0.6609  0.0348
  947SOL    HW2 2841   0.942   2.838   0.119  0.5785  1.4132 -2.0589
  948SOL     OW 2842   2.420   1.895   1.313 -0.0142 -0.1888  0.1078
  948SOL    HW1 2843   2.372   1.948   1.385  0.7398 -0.4905  0.9983
  948SOL    HW2 2844   2.458   1.815   1.362 -1.8845 -3.3833  1.3620
  949SOL     OW 2845   0.118   1.310   3.016  0.1845 -0.5003 -0.0891
  949SOL    HW1 2846   0.061   1.283   2.937  0.3610 -2.0455  0.2277
  949SOL    HW2 2847   0.189   1.377   2.990  2.3733 -1.8723  2.7342
  950SOL     OW 2848   0.738   2.537   0.995 -0.0384  0.1202 -0.3583
  950SOL    HW1 2849   0.735   2.523   1.095 -0.2360 -0.6847 -0.5287
  950SOL    HW2 2850   0.654   2.589   0.968 -0.1785 -1.3156  0.0892
  951SOL     OW 2851   0.544   1.275   2.440  0.0724  0.1380 -0.2069
  951SOL    HW1 2852   0.497   1.361   2.401 -0.9655  0.7905  0.2276
  951SOL    HW2 2853   0.559   1.290   2.539  0.9371 -0.2659  1.9169
  952SOL     OW 2854   0.430   0.792   0.608 -0.3620 -0.3560  0.3391
  952SOL    HW1 2855   0.512   0.823   0.663 -0.1248 -0.6855 -1.4807
  952SOL    HW2 2856   0.353   0.864   0.608  0.7153 -1.2340 -1.4742
  953SOL     OW 2857   2.643   2.946   2.264 -0.7952 -0.0728 -0.3675
  953SOL    HW1 2858   2.555   2.964   2.306  0.4282  1.3214  0.0424
  953SOL    HW2 2859   2.717   2.933   2.333  1.4547 -0.9116 -0.2591
  954SOL     OW 2860   1.435   1.064   0.882  0.0084 -0.6347 -0.1317
  954SOL    HW1 2861   1.460   1.155   0.853 -0.3041  1.6938  0.7222
  954SOL    HW2 2862   1.432   0.995   0.806 -0.7208  1.7950 -0.4433
  955SOL     OW 2863   0.667   1.915   0.182  0.1064 -0.1978 -0.2326
  955SOL    HW1 2864   0.751   1.859   0.192 -1.1675  0.0907  0.6381
  955SOL    HW2 2865   0.658   1.975   0.260  1.7178 -2.7152 -0.6803
  956SOL     OW 2866   2.281   0.429   2.124  0.1398  0.3018 -0.5476
  956SOL    HW1 2867   2.313   0.502   2.184 -0.4460 -2.1288  1.2594
  956SOL    HW2 2868   2.336   0.341   2.122  1.0702 -1.7061 -0.4658
  957SOL     OW 2869   2.139   2.435   2.037 -0.2870  0.3830 -0.7372
  957SOL    HW1 2870   2.228   2.478   2.010 -0.9835 -0.3905  2.8822
  957SOL    HW2 2871   2.151   2.348   2.090  0.3517  0.2002 -2.8987
  958SOL     OW 2872   1.698   1.251   1.311 -0.0756 -0.2781 -0.2668
  958SOL    HW1 2873   1.737   1.313   1.379 -0.5318 -0.2259 -0.1508
  958SOL    HW2 2874   1.775   1.198   1.269  2.9239 -3.0086 -1.8497
  959SOL     OW 2875   2.053   1.793   2.082 -0.0430 -0.3018 -0.3554
  959SOL    HW1 2876   2.018   1.881   2.036  1.3353  3.1946 -3.7799
  959SOL    HW2 2877   2.051   1.801   2.185 -1.2789  0.7026 -0.9625
  960SOL     OW 2878   0.602   1.009   2.777  0.1283 -0.0196 -0.3087
  960SOL    HW1 2879   0.591   0.930   2.716  0.6248 -1.2915 -2.0722
  960SOL    HW2 2880   0.670   0.981   2.846 -2.2069  0.1263 -1.5393
  961SOL     OW 2881   0.208   1.227   2.648  0.6562 -0.0343  0.0683
  961SOL    HW1 2882   0.251   1.190   2.729 -1.7925  0.5050 -2.6139
  961SOL    HW2 2883   0.147   1.150   2.614  0.2000  1.2738  0.6925
  962SOL     OW 2884   0.602   1.713   2.263  0.2275 -0.5081 -0.4042
  962SOL    HW1 2885   0.547   1.640   2.307 -1.3308  1.5315 -0.7373
  962SOL    HW2 2886   0.590   1.802   2.311  0.2400 -0.8007  0.3425
  963SOL     OW 2887   2.726   2.072   0.164 -0.0613  0.2615  0.4355
  963SOL    HW1 2888   2.669   2.147   0.128  1.4387 -0.3335 -0.3213
  963SOL    HW2 2889   2.726   1.992   0.099 -0.2932  0.4673  0.3030
  964SOL     OW 2890   0.584   2.125   1.862 -0.3875 -0.0463  0.1809
  964SOL    HW1 2891   0.506   2.101   1.920  1.9717  3.6565 -2.3464
  964SOL    HW2 2892   0.672   2.116   1.909 -4.2350  3.7510  1.8207
  965SOL     OW 2893   1.666   1.961   0.459 -0.1851 -0.7972 -0.1195
  965SOL    HW1 2894   1.730   2.032   0.422 -2.2347  1.3167  3.5447
  965SOL    HW2 2895   1.687   1.874   0.410 -0.9339 -1.5441 -1.0943
  966SOL     OW 2896   2.803   1.659   0.230  0.4784 -0.3373  0.4107
  966SOL    HW1 2897   2.884   1.594   0.218  0.6152 -0.7655  1.7939
  966SOL    HW2 2898   2.712   1.608   0.231 -0.0143 -0.4773  0.6241
  967SOL     OW 2899   2.020   3.061   2.138  0.0315  0.1779 -0.0280
  967SOL    HW1 2900   1.986   3.007   2.222 -2.7945 -0.6307  2.3324
  967SOL    HW2 2901   1.977   0.061   2.146  1.1113  2.3558 -0.0633
  968SOL     OW 2902   1.230   0.197   0.197 -0.0664  0.1434 -0.8995
  968SOL    HW1 2903   1.222   0.202   0.095 -0.1819  1.2530 -1.5177
  968SOL    HW2 2904   1.240   0.291   0.240  4.3049 -1.1227 -1.8878
  969SOL     OW 2905   0.232   1.646   2.037  0.1470  0.2097  0.3112
  969SOL    HW1 2906   0.324   1.690   2.023  1.7188 -0.7402 -1.4688
  969SOL    HW2 2907   0.240   1.556   2.087 -1.6453  0.2354  1.2522
  970SOL     OW 2908   1.996   2.711   1.131  0.6692 -0.1769 -0.0126
  970SOL    HW1 2909   2.065   2.690   1.204  0.0715 -0.1234  0.4826
  970SOL    HW2 2910   1.973   2.630   1.073 -0.4355  0.1701  1.9273
  971SOL     OW 2911   2.275   2.365   0.798 -0.3859  0.2193  0.1249
  971SOL    HW1 2912   2.293   2.421   0.882  1.1036  1.2374 -1.6673
  971SOL    HW2 2913   2.359   2.315   0.771 -0.2737  0.6188 -0.4398
  972SOL     OW 2914   0.064   1.003   2.580  0.2776 -0.3621 -0.1750
  972SOL    HW1 2915   0.106   0.932   2.523 -4.1704 -0.0999 -0.0011
  972SOL    HW2 2916   3.058   0.986   2.597  0.4412 -0.0247  1.1497
  973SOL     OW 2917   0.550   0.229   0.786 -0.2912 -0.0071  0.0857
  973SOL    HW1 2918   0.557   0.306   0.852 -1.3808 -2.7189 -2.4134
  973SOL    HW2 2919   0.617   0.220   0.711 -1.2095  1.2011  0.2654
  974SOL     OW 2920   2.294   1.041   1.925 -0.5027 -0.1700  0.8785
  974SOL    HW1 2921   2.339   1.048   1.830 -2.5277  0.7687 -1.2144
  974SOL    HW2 2922   2.222   0.972   1.926  0.3575 -0.5057 -0.8786
  975SOL     OW 2923   0.141   3.030   0.251  0.1449 -0.5233 -0.0344
  975SOL    HW1 2924   0.143   3.068   0.345 -1.4674 -0.7987  3.1835
  975SOL    HW2 2925   0.221   3.067   0.199 -1.4583  0.7710  1.2460
  976SOL     OW 2926   0.406   1.777   0.902 -0.2521  0.0680 -0.3839
  976SOL    HW1 2927   0.368   1.724   0.983 -0.5419 -2.6389  3.2023
  976SOL    HW2 2928   0.360   1.753   0.814  0.0303 -0.4569  1.8717
  977SOL     OW 2929   0.970   1.847   0.706 -0.2226  0.2789  0.3305
  977SOL    HW1 2930   0.983   1.782   0.626  0.6075 -0.6097 -0.3873
  977SOL    HW2 2931   0.882   1.824   0.763 -3.0416 -1.2083  3.6303
  978SOL     OW 2932   0.146   0.878   0.041  0.6923  0.2678 -0.3339
  978SOL    HW1 2933   0.211   0.857   3.057 -1.8807  0.8390 -2.6571
  978SOL    HW2 2934   0.092   0.960   0.019  2.3083  1.0933  0.1419
  979SOL     OW 2935   1.692   1.430   0.616 -0.9899  0.5277 -0.2060
  979SOL    HW1 2936   1.778   1.487   0.639  3.4368  0.8011 -2.1133
  979SOL    HW2 2937   1.608   1.491   0.603 -2.1123 -0.7928 -0.0213
  980SOL     OW 2938   0.773   2.437   2.092  0.1090 -0.0543 -0.2071
  980SOL    HW1 2939   0.857   2.482   2.058 -2.9260 -0.4245 -3.1284
  980SOL    HW2 2940   0.759   2.433   2.191  1.4407 -2.1546 -0.3092
  981SOL     OW 2941   2.395   0.842   3.068 -0.4668 -0.2257 -0.3878
  981SOL    HW1 2942   2.320   0.853   2.997  1.5418  2.6109  0.7000
  981SOL    HW2 2943   2.389   0.752   0.028 -1.1896 -1.2178  0.4181
  982SOL     OW 2944   0.047   2.630   1.953  0.9862 -0.4417  0.2338
  982SOL    HW1 2945   0.054   2.613   2.051 -0.2307  0.3462 -0.3296
  982SOL    HW2 2946   0.140   2.636   1.906  1.5335  0.6322  1.2759
  983SOL     OW 2947   1.883   0.570   1.545 -0.6422  0.3473  0.0833
  983SOL    HW1 2948   1.848   0.541   1.453 -1.5520 -1.7749 -1.0230
  983SOL    HW2 2949   1.810   0.619   1.598 -1.3168  0.1922  2.7449
  984SOL     OW 2950   1.942   2.938   2.353  0.2124  0.3393 -0.1276
  984SOL    HW1 2951   2.012   2.939   2.421 -2.7897  1.0179 -0.9909
  984SOL    HW2 2952   1.881   2.859   2.360  1.4796  2.3354 -0.1455
  985SOL     OW 2953   1.640   1.428   1.702  0.5323 -0.4123  0.0187
  985SOL    HW1 2954   1.570   1.362   1.661 -2.4086 -4.4994  0.0328
  985SOL    HW2 2955   1.607   1.522   1.693  0.8133 -1.5322 -0.7736
  986SOL     OW 2956   2.096   2.649   2.191  0.3128 -0.1034 -0.0929
  986SOL    HW1 2957   2.096   2.564   2.138 -0.1062  0.0363 -3.4828
  986SOL    HW2 2958   2.153   2.643   2.275 -2.5949 -0.1269 -1.4250
  987SOL     OW 2959   2.816   1.827   2.800 -0.6846 -0.4823  0.0119
  987SOL    HW1 2960   2.789   1.753   2.734  0.9138  0.7198  0.2772
  987SOL    HW2 2961   2.757   1.902   2.772 -0.8591 -1.9552 -0.4359
  988SOL     OW 2962   0.015   0.572   1.466  0.5471  0.3077  0.1301
  988SOL    HW1 2963   0.012   0.668   1.500 -0.4050 -3.0293  0.7312
  988SOL    HW2 2964   3.012   0.530   1.446 -1.4555 -0.2872  0.0550
  989SOL     OW 2965   2.095   1.390   1.439 -0.6419 -0.1757  0.1136
  989SOL    HW1 2966   2.142   1.303   1.449  0.4031  3.1617  1.1657
  989SOL    HW2 2967   2.138   1.463   1.489 -1.1708 -0.0388  1.1000
  990SOL     OW 2968   2.903   0.635   2.996  0.1676 -0.5169 -0.3475
  990SOL    HW1 2969   2.973   0.578   3.043 -1.6684  0.4933  1.5090
  990SOL    HW2 2970   2.913   0.735   3.003 -0.3179 -0.6572 -0.0404
  991SOL     OW 2971   0.245   1.756   2.984 -0.1992  0.2541  0.5973
  991SOL    HW1 2972   0.253   1.831   2.909 -1.9053  2.6891  0.8045
  991SOL    HW2 2973   0.314   1.781   3.056  1.4740  1.4058  0.0986
  992SOL     OW 2974   2.233   1.887   1.711  0.1598  0.2433  0.6998
  992SOL    HW1 2975   2.133   1.881   1.702 -0.6485 -0.2404 -1.9974
  992SOL    HW2 2976   2.257   1.831   1.793 -2.9239  1.1523  0.1910
  993SOL     OW 2977   0.676   2.882   0.927  0.1421  0.5647 -0.5077
  993SOL    HW1 2978   0.693   2.895   1.025  1.7593  0.4829  0.2387
  993SOL    HW2 2979   0.766   2.897   0.886 -0.1261  1.7573 -2.3189
  994SOL     OW 2980   2.689   2.053   1.660  0.0696 -0.3678  0.6761
  994SOL    HW1 2981   2.777   2.000   1.654  1.3374  1.5688 -0.3763
  994SOL    HW2 2982   2.633   2.029   1.742  0.8839 -2.2778  0.9198
  995SOL     OW 2983   2.059   1.833   2.350 -0.1845 -0.3138 -0.6144
  995SOL    HW1 2984   2.013   1.920   2.365  0.9393  0.1053 -0.6320
  995SOL    HW2 2985   2.001   1.758   2.390 -1.3310 -1.5391  1.7002
  996SOL     OW 2986   1.824   1.669   2.892 -0.4491  0.3395  0.1729
  996SOL    HW1 2987   1.741   1.728   2.908  0.6137  0.1195 -0.9477
  996SOL    HW2 2988   1.888   1.693   2.971  0.8089  1.1206 -0.4494
  997SOL     OW 2989   0.935   1.357   1.942 -0.3584 -0.3304 -0.9017
  997SOL    HW1 2990   0.833   1.365   1.934 -2.0133 -0.1678 -0.4031
  997SOL    HW2 2991   0.965   1.435   2.009  0.4499  2.3431  0.5763
  998SOL     OW 2992   2.749   2.127   0.668  0.3511  0.0150  0.2031
  998SOL    HW1 2993   2.685   2.047   0.657  1.4177 -3.4053  2.9726
  998SOL    HW2 2994   2.822   2.093   0.731 -1.3298 -0.2127  0.4236
  999SOL     OW 2995   0.032   2.592   0.767  0.1904 -0.0139  0.6823
  999SOL    HW1 2996   0.014   2.495   0.760 -0.3913  0.2612 -0.1309
  999SOL    HW2 2997   0.124   2.614   0.729 -0.2031 -0.0040  2.3394
 1000SOL     OW 2998   1.038   0.044   2.884  0.2268 -0.3167  0.1468
 1000SOL    HW1 2999   0.965   0.040   2.957 -2.5023 -1.9991 -0.9944
 1000SOL    HW2 3000   1.106   0.110   2.911 -1.3652 -0.5135 -1.9702
   3.09051   3.09051   3.09051
