1000 SPC/Fw water molecules t=  26.00000 step= 26000
 3000
    1SOL     OW    1   1.800   2.673   0.348 -0.0958  0.3017  0.0058
    1SOL    HW1    2   1.847   2.633   0.269 -2.3032 -0.8304  0.5957
    1SOL    HW2    3   1.704   2.634   0.352 -1.3247  0.7039  2.0142
    2SOL     OW    4   1.124   0.677   2.069 -0.2084 -0.0142  0.1487
    2SOL    HW1    5   1.211   0.660   2.115 -2.0428  0.5105 -0.1740
    2SOL    HW2    6   1.040   0.696   2.125  0.3623  1.6443 -0.6901
    3SOL     OW    7   0.953   3.053   2.782 -0.0738 -0.0089 -0.4526
    3SOL    HW1    8   0.994   0.034   2.713  0.2001  0.4874 -0.0257
    3SOL    HW2    9   0.867   3.080   2.831  1.0791  2.0876  1.5509
    4SOL     OW   10   1.391   1.601   2.986 -0.0922 -0.1035  0.1864
    4SOL    HW1   11   1.368   1.625   3.081 -1.5126 -0.5011 -1.6349
    4SOL    HW2   12   1.397   1.679   2.922 -3.2448 -1.1311 -0.9781
    5SOL     OW   13   0.674   1.125   1.954  0.6509 -0.2210 -0.2419
    5SOL    HW1   14   0.667   1.056   1.876 -2.2260 -0.2833  0.1231
    5SOL    HW2   15   0.769   1.166   1.954  0.6302 -0.5154  0.6681
    6SOL     OW   16   2.022   0.908   2.566  0.1952 -0.0634 -0.2113
    6SOL    HW1   17   2.064   0.831   2.623  0.5245 -1.3832 -1.6000
    6SOL    HW2   18   2.087   0.939   2.496 -0.2842  0.1197  1.7066
    7SOL     OW   19   0.552   0.810   1.111  0.6897 -0.3442 -0.4072
    7SOL    HW1   20   0.511   0.749   1.036 -0.5518  0.7268 -3.5430
    7SOL    HW2   21   0.506   0.899   1.118  2.3168  1.3121 -2.0552
    8SOL     OW   22   1.948   2.887   1.816 -0.2146 -0.2998  0.1322
    8SOL    HW1   23   1.874   2.911   1.879  0.4864  0.9222  2.3614
    8SOL    HW2   24   1.990   2.972   1.779  0.0354 -1.6852  0.3645
    9SOL     OW   25   0.093   2.683   0.711  0.0270  0.6441  0.8621
    9SOL    HW1   26   0.161   2.737   0.654  1.8038  1.5347 -1.0696
    9SOL    HW2   27   3.087   2.729   0.708 -0.1909 -0.9538 -0.8080
   10SOL     OW   28   2.858   2.361   2.239  0.1883 -0.4308 -0.0191
   10SOL    HW1   29   2.873   2.407   2.146  0.6620  0.3978 -0.9895
   10SOL    HW2   30   2.893   2.267   2.242  0.7518  0.7486  1.1201
   11SOL     OW   31   0.755   1.611   2.941  0.5005 -0.3677 -0.1117
   11SOL    HW1   32   0.688   1.582   3.011  1.0761 -2.5140  0.4816
   11SOL    HW2   33   0.776   1.714   2.944  0.4797  1.4421 -0.3621
   12SOL     OW   34   2.225   2.585   1.223 -0.3414 -0.7550  0.2568
   12SOL    HW1   35   2.233   2.666   1.161  0.6573 -2.8050  0.2949
   12SOL    HW2   36   2.140   2.592   1.274  1.9005  1.9455 -0.7755
   13SOL     OW   37   0.360   0.017   2.747  0.1968 -0.4468 -0.0185
   13SOL    HW1   38   0.300   0.048   2.825 -1.5445  1.2817  0.6176
   13SOL    HW2   39   0.390   0.101   2.695 -0.0837  0.8994 -1.5146
   14SOL     OW   40   1.434   1.217   1.490  0.1029 -0.2641  0.5180
   14SOL    HW1   41   1.434   1.168   1.576 -1.0464 -1.9317  3.5011
   14SOL    HW2   42   1.387   1.307   1.504  0.0597 -1.3291  3.8931
   15SOL     OW   43   0.485   1.542   1.991 -0.1199 -0.4316  0.2035
   15SOL    HW1   44   0.440   1.510   1.907 -0.3853  0.6430 -1.2684
   15SOL    HW2   45   0.528   1.466   2.046 -1.7185 -0.0249 -0.2636
   16SOL     OW   46   1.626   0.802   2.703  0.0079  0.2587 -0.4213
   16SOL    HW1   47   1.544   0.795   2.760  0.3144 -1.2543 -0.8869
   16SOL    HW2   48   1.678   0.887   2.725  0.5943 -0.2543  2.5392
   17SOL     OW   49   2.951   2.465   1.979  0.0938  0.5448 -0.0738
   17SOL    HW1   50   3.009   2.537   2.028  0.2479 -0.3785 -1.2444
   17SOL    HW2   51   3.016   2.395   1.939  2.6134 -2.4567 -2.0576
   18SOL     OW   52   1.728   1.222   0.489  0.2301 -0.2084  0.0079
   18SOL    HW1   53   1.831   1.232   0.495 -2.6844 -2.1810 -0.5833
   18SOL    HW2   54   1.683   1.271   0.414 -0.1608  1.2421  3.0923
   19SOL     OW   55   0.173   1.206   2.080  0.0403  0.5243 -0.7167
   19SOL    HW1   56   0.234   1.128   2.105 -0.0201  0.6652 -0.0207
   19SOL    HW2   57   0.169   1.211   1.976 -2.2525 -0.6730 -0.7575
   20SOL     OW   58   1.996   2.406   2.852 -0.0174 -0.2630  0.3498
   20SOL    HW1   59   2.095   2.414   2.867 -2.3026  2.8206 -0.0240
   20SOL    HW2   60   1.948   2.495   2.855  0.8868 -1.7691 -2.6364
   21SOL     OW   61   1.879   1.817   0.824  0.0985  0.8183 -0.2477
   21SOL    HW1   62   1.896   1.911   0.820  0.1963 -1.9051  1.4380
   21SOL    HW2   63   1.883   1.793   0.920 -1.2566  1.5173 -1.9166
   22SOL     OW   64   2.172   2.091   1.235 -0.4588 -0.0666 -0.3850
   22SOL    HW1   65   2.126   2.121   1.321 -1.6933  1.8279 -1.3302
   22SOL    HW2   66   2.110   2.120   1.155  0.2188 -1.1612  1.1714
   23SOL     OW   67   0.165   1.046   1.302 -0.4394  0.3069 -0.3241
   23SOL    HW1   68   0.182   1.130   1.354  0.5457 -1.3004 -2.1920
   23SOL    HW2   69   0.072   1.047   1.258 -1.6244 -2.2992 -1.4783
   24SOL     OW   70   1.570   1.113   1.759  0.4268  0.2601  0.6999
   24SOL    HW1   71   1.566   1.044   1.836 -0.3202  1.8581 -0.0261
   24SOL    HW2   72   1.643   1.187   1.777  0.6072  3.3913 -0.3587
   25SOL     OW   73   1.934   0.146   2.152 -0.7341 -0.1684 -0.4669
   25SOL    HW1   74   1.984   0.058   2.187 -0.0535 -1.3414 -1.2027
   25SOL    HW2   75   1.904   0.209   2.226  2.1180  1.2733 -0.9540
   26SOL     OW   76   0.868   2.982   0.741  0.7228  0.3010  0.0164
   26SOL    HW1   77   0.795   3.055   0.751 -3.1160  0.9838  1.7439
   26SOL    HW2   78   0.830   2.908   0.687  0.9917  3.5803 -0.8694
   27SOL     OW   79   1.275   1.263   1.000 -0.0871 -0.2086 -0.0836
   27SOL    HW1   80   1.336   1.282   0.924 -0.8060  0.6452  1.1754
   27SOL    HW2   81   1.315   1.319   1.077  0.4567 -0.4136 -2.2365
   28SOL     OW   82   2.381   2.155   1.067  0.5267  0.2759 -0.3626
   28SOL    HW1   83   2.331   2.123   1.151 -1.6157  1.1394  1.4680
   28SOL    HW2   84   2.365   2.259   1.054  0.2747  0.5410  1.2473
   29SOL     OW   85   2.051   3.000   2.218 -0.0243 -0.1344 -0.7240
   29SOL    HW1   86   2.003   2.914   2.197  4.1052  2.7921  3.1401
   29SOL    HW2   87   2.148   2.982   2.227 -0.6018 -0.7344  0.2851
   30SOL     OW   88   0.033   2.929   1.935 -0.4142 -0.2471  0.5901
   30SOL    HW1   89   3.035   2.920   1.884  2.6155  1.5222  3.2456
   30SOL    HW2   90   0.049   3.015   1.988  2.5313 -1.2498  0.6819
   31SOL     OW   91   0.059   1.659   2.073  0.1970  0.2590 -0.3978
   31SOL    HW1   92   0.123   1.724   2.120  0.6099  2.7835 -0.9081
   31SOL    HW2   93   3.083   1.711   2.014  1.3868  1.5630  0.5524
   32SOL     OW   94   1.292   2.406   2.369 -0.3317 -0.1707  0.3488
   32SOL    HW1   95   1.267   2.393   2.267 -0.1008  0.7057 -2.8724
   32SOL    HW2   96   1.369   2.348   2.400 -0.8799  0.1222  0.3666
   33SOL     OW   97   0.269   0.208   2.934  0.2817 -0.7246 -0.6624
   33SOL    HW1   98   0.314   0.174   3.017 -0.6594  0.4443 -1.4109
   33SOL    HW2   99   0.244   0.307   2.943  2.3029  0.7586 -0.6818
   34SOL     OW  100   2.727   0.275   0.290 -0.2009 -0.2201 -0.0319
   34SOL    HW1  101   2.775   0.182   0.299  0.2569  3.3085 -0.2754
   34SOL    HW2  102   2.770   0.333   0.214 -0.6410  1.5277 -1.2748
   35SOL     OW  103   2.812   2.656   1.646 -0.5413 -0.3981 -0.0730
   35SOL    HW1  104   2.739   2.625   1.710  0.4105 -2.2854 -0.3471
   35SOL    HW2  105   2.781   2.639   1.549 -0.9139  0.2372 -3.2075
   36SOL     OW  106   2.331   2.908   2.281  0.1168 -0.1950 -0.0319
   36SOL    HW1  107   2.328   2.898   2.385 -0.0828  1.0133  0.9098
   36SOL    HW2  108   2.369   3.004   2.256  1.1831  2.0737  0.9443
   37SOL     OW  109   1.560   3.079   0.067 -0.5324 -0.4439 -0.0141
   37SOL    HW1  110   1.583   0.020   0.164 -1.0964 -0.1547  2.8599
   37SOL    HW2  111   1.461   3.078   0.050  3.4165 -2.4593  2.2043
   38SOL     OW  112   0.338   0.439   0.167  0.4653 -0.0068 -0.1551
   38SOL    HW1  113   0.290   0.451   0.257 -1.3073  2.5967 -0.1895
   38SOL    HW2  114   0.393   0.521   0.142 -2.1639  2.3199 -0.1009
   39SOL     OW  115   0.926   1.903   2.149 -0.1492  0.0080  0.1804
   39SOL    HW1  116   0.936   1.820   2.208 -1.1224 -0.8508  0.9181
   39SOL    HW2  117   0.962   1.984   2.196 -0.0477 -0.0537 -0.0274
   40SOL     OW  118   0.066   0.577   2.731  0.0544 -0.0214  0.4777
   40SOL    HW1  119   0.043   0.571   2.629  2.4110  1.0767 -0.2415
   40SOL    HW2  120   0.093   0.671   2.760  1.4865  1.3077  0.5071
   41SOL     OW  121   1.187   0.719   1.793  0.0147  0.1929  0.7076
   41SOL    HW1  122   1.287   0.736   1.783 -1.3638  1.9298 -0.6109
   41SOL    HW2  123   1.173   0.697   1.888 -0.1773 -1.3954 -1.0632
   42SOL     OW  124   2.714   0.189   1.374 -0.1570 -0.0663 -0.4644
   42SOL    HW1  125   2.802   0.195   1.421  0.3373 -1.7490  0.0934
   42SOL    HW2  126   2.644   0.128   1.420 -1.9035 -1.5863  0.6702
   43SOL     OW  127   1.485   0.702   1.768  0.0195  0.3766 -0.2094
   43SOL    HW1  128   1.502   0.711   1.666 -1.0810  1.8463 -1.9974
   43SOL    HW2  129   1.486   0.606   1.792  0.4687  3.7836 -0.1254
   44SOL     OW  130   0.172   0.442   2.951  0.5629  0.2250 -0.0487
   44SOL    HW1  131   0.097   0.429   3.018  2.0394 -1.4722  1.0593
   44SOL    HW2  132   0.128   0.469   2.865 -1.4646  0.6447 -1.2361
   45SOL     OW  133   0.408   1.792   1.761 -0.6906 -0.9063  0.3380
   45SOL    HW1  134   0.486   1.791   1.829 -0.9786  1.2523 -0.7881
   45SOL    HW2  135   0.435   1.813   1.666  1.1969 -2.6478  0.9582
   46SOL     OW  136   2.263   2.636   1.663  0.2604 -0.6972  0.2239
   46SOL    HW1  137   2.311   2.667   1.746  1.0648  0.3923 -1.0780
   46SOL    HW2  138   2.164   2.649   1.662 -0.5687  0.0540 -0.6158
   47SOL     OW  139   0.200   1.949   1.340 -0.1366  0.0005  0.4144
   47SOL    HW1  140   0.189   1.866   1.393  1.2454  0.9714  1.4265
   47SOL    HW2  141   0.219   1.928   1.245  0.9862  1.2002  2.0254
   48SOL     OW  142   0.845   2.577   2.824  0.3068  0.7092 -0.2459
   48SOL    HW1  143   0.771   2.537   2.764 -3.0533 -0.8639 -1.5139
   48SOL    HW2  144   0.795   2.626   2.901  1.2579  2.2848  2.0609
   49SOL     OW  145   2.633   1.292   1.734 -0.0351  0.1692 -0.0358
   49SOL    HW1  146   2.702   1.366   1.718 -0.1134  1.8731  1.1291
   49SOL    HW2  147   2.650   1.252   1.828  1.2609 -0.1720  1.6315
   50SOL     OW  148   1.378   2.915   0.532 -0.3989 -0.6269  0.1412
   50SOL    HW1  149   1.275   2.914   0.548  1.3524 -1.1292 -0.2609
   50SOL    HW2  150   1.432   2.861   0.596 -4.1442  2.7610  2.2383
   51SOL     OW  151   1.104   0.399   1.072 -0.0017 -0.3177  0.1367
   51SOL    HW1  152   1.029   0.385   1.137  0.0815  2.1128  2.2996
   51SOL    HW2  153   1.190   0.346   1.085  0.0385  3.5187 -2.8553
   52SOL     OW  154   0.685   1.413   0.310  0.2500  0.2223 -0.3355
   52SOL    HW1  155   0.642   1.320   0.295  1.3516  0.2028 -2.9243
   52SOL    HW2  156   0.690   1.443   0.408  2.4379 -0.5311  0.2074
   53SOL     OW  157   1.119   2.811   2.556  0.2257  0.1319 -0.3098
   53SOL    HW1  158   1.159   2.897   2.590 -1.4961 -1.6867 -0.3525
   53SOL    HW2  159   1.189   2.761   2.501  0.5525 -0.8977 -0.5792
   54SOL     OW  160   2.076   0.203   1.920 -0.2482 -0.6387  0.5633
   54SOL    HW1  161   2.019   0.190   2.002  2.2027 -1.6670  0.5852
   54SOL    HW2  162   2.156   0.261   1.940  0.2482 -0.2720 -0.7246
   55SOL     OW  163   2.725   2.321   0.209 -0.4172 -0.1121  0.2783
   55SOL    HW1  164   2.767   2.336   0.116  0.1698 -0.0593 -0.4998
   55SOL    HW2  165   2.689   2.407   0.246  2.2849  1.7444  0.3054
   56SOL     OW  166   0.783   3.077   1.834 -0.0223  0.1154  0.4815
   56SOL    HW1  167   0.711   0.062   1.837 -1.4386  2.1155 -1.4309
   56SOL    HW2  168   0.750   2.992   1.881  0.7510  1.5153  0.5123
   57SOL     OW  169   1.919   1.152   2.527  0.1405  0.5804  0.1324
   57SOL    HW1  170   1.959   1.066   2.560  3.0512  1.3165  0.0589
   57SOL    HW2  171   1.824   1.133   2.497  2.1254  1.1903  0.4674
   58SOL     OW  172   0.118   0.924   2.246  0.3455 -0.3701 -0.5344
   58SOL    HW1  173   0.194   0.980   2.210  0.1777 -1.4556  3.2013
   58SOL    HW2  174   0.035   0.950   2.194 -0.7611 -1.3127  3.5534
   59SOL     OW  175   0.883   2.572   1.639  0.2426  0.2410 -0.4084
   59SOL    HW1  176   0.786   2.610   1.631 -3.5011  2.8815 -2.2391
   59SOL    HW2  177   0.934   2.601   1.557  1.5972 -0.0048  0.8593
   60SOL     OW  178   1.928   2.588   0.130 -0.6527  0.2130 -0.7352
   60SOL    HW1  179   2.017   2.554   0.172  3.0719 -0.2327  0.8069
   60SOL    HW2  180   1.917   2.577   0.029  1.8788 -1.1637 -0.5970
   61SOL     OW  181   1.557   2.485   0.555  0.3078  0.5593  0.9610
   61SOL    HW1  182   1.628   2.416   0.573 -1.1413  1.6333  0.2224
   61SOL    HW2  183   1.476   2.462   0.612 -0.2373  1.8706 -0.8300
   62SOL     OW  184   1.776   2.910   0.113 -0.2710 -0.6479 -0.1022
   62SOL    HW1  185   1.698   2.972   0.089  0.2040  3.4777  0.6267
   62SOL    HW2  186   1.759   2.813   0.089 -0.1726 -1.9902 -2.7918
   63SOL     OW  187   2.475   0.357   3.083  0.6592 -0.1520  0.0981
   63SOL    HW1  188   2.482   0.406   2.992  2.2273 -0.3360 -0.5774
   63SOL    HW2  189   2.550   0.396   0.049  0.3219  1.1242 -4.3592
   64SOL     OW  190   1.394   1.049   2.737  0.9722  0.4473 -0.0370
   64SOL    HW1  191   1.359   0.955   2.739 -0.4206  1.0144  0.9236
   64SOL    HW2  192   1.320   1.122   2.724 -1.0815  0.3688 -0.8609
   65SOL     OW  193   0.528   2.333   1.413  0.1014 -0.3823 -0.7103
   65SOL    HW1  194   0.474   2.274   1.349  0.5767 -1.4471 -1.1607
   65SOL    HW2  195   0.585   2.400   1.367 -2.8732  1.2280 -0.2987
   66SOL     OW  196   1.043   1.229   1.273  0.1297 -0.0014 -0.7406
   66SOL    HW1  197   1.118   1.165   1.271 -4.3811 -0.3019 -0.3221
   66SOL    HW2  198   1.032   1.256   1.376  1.3891  1.1285  4.2313
   67SOL     OW  199   2.265   2.061   1.918  0.2544 -0.6390 -0.3219
   67SOL    HW1  200   2.308   2.148   1.886  1.6036  3.7359  0.9903
   67SOL    HW2  201   2.224   2.015   1.841 -0.7725 -0.4123  1.2962
   68SOL     OW  202   0.746   1.398   1.617  0.5816 -0.2686  0.4375
   68SOL    HW1  203   0.669   1.398   1.683  1.3587  1.6040 -1.7659
   68SOL    HW2  204   0.832   1.399   1.672 -0.4843  1.4740 -1.6503
   69SOL     OW  205   0.090   2.872   3.023  0.2065  0.0586 -0.2283
   69SOL    HW1  206   0.191   2.855   3.007  1.7106  1.3939  2.8187
   69SOL    HW2  207   0.074   2.959   3.074  0.4401  1.9703  1.1552
   70SOL     OW  208   2.228   0.962   2.398 -0.2657  0.5405 -0.8616
   70SOL    HW1  209   2.249   0.904   2.317  0.9154 -1.7769  0.3694
   70SOL    HW2  210   2.253   1.058   2.375  2.2889  2.7451  2.4510
   71SOL     OW  211   0.783   1.925   0.942  0.4654 -0.5282  0.4331
   71SOL    HW1  212   0.713   1.990   0.986 -2.9726  3.2715  0.6156
   71SOL    HW2  213   0.741   1.865   0.870  0.8887 -2.5723 -1.4511
   72SOL     OW  214   2.632   1.959   0.575 -0.4297  0.1907  0.2739
   72SOL    HW1  215   2.689   2.006   0.644 -1.4563 -0.8222 -1.4483
   72SOL    HW2  216   2.543   2.006   0.561  0.1536 -0.3028 -0.7566
   73SOL     OW  217   1.495   0.538   1.063 -0.3327 -0.8710 -0.0954
   73SOL    HW1  218   1.535   0.539   0.968  0.4869  0.1622 -0.3556
   73SOL    HW2  219   1.423   0.610   1.074 -0.8083  1.1518  1.3790
   74SOL     OW  220   2.687   1.964   1.942 -0.7781  0.1532 -0.4476
   74SOL    HW1  221   2.727   2.059   1.935  2.8522 -0.0385 -2.6753
   74SOL    HW2  222   2.706   1.925   2.032  0.4250 -2.0357  0.4037
   75SOL     OW  223   1.571   1.667   1.789 -0.0165  0.3536  0.5396
   75SOL    HW1  224   1.491   1.604   1.793  2.2893  0.2251 -1.0328
   75SOL    HW2  225   1.658   1.619   1.812  0.6533 -0.1859  0.3831
   76SOL     OW  226   1.535   1.749   1.001 -0.1435 -0.4515 -0.3202
   76SOL    HW1  227   1.554   1.847   0.976 -0.1413 -0.6735 -1.3300
   76SOL    HW2  228   1.617   1.703   1.044 -0.6502  0.3939  3.4261
   77SOL     OW  229   2.596   1.041   1.611  0.4324 -0.3496 -0.4146
   77SOL    HW1  230   2.592   1.143   1.642  0.5216  1.3530  0.4046
   77SOL    HW2  231   2.525   1.018   1.539 -1.1318  1.7042 -3.5031
   78SOL     OW  232   1.632   0.787   0.252  0.5286 -0.0275 -0.1167
   78SOL    HW1  233   1.647   0.746   0.160 -2.2344 -0.8410 -1.5179
   78SOL    HW2  234   1.605   0.717   0.319 -0.6944 -0.6670 -2.1117
   79SOL     OW  235   1.082   1.388   2.099  0.0745  0.0212  0.1792
   79SOL    HW1  236   1.155   1.335   2.148  0.9342  0.9079  0.8922
   79SOL    HW2  237   1.003   1.332   2.070  2.1217 -1.7919  1.6880
   80SOL     OW  238   1.060   0.370   1.506  0.4359 -0.5896  0.0147
   80SOL    HW1  239   1.046   0.469   1.518  0.9975 -0.3857 -0.6430
   80SOL    HW2  240   1.097   0.327   1.590 -1.2258  1.0497  2.5107
   81SOL     OW  241   0.322   2.548   0.338  0.2085  0.5608 -0.3057
   81SOL    HW1  242   0.338   2.580   0.242  1.6789  0.8880 -2.0612
   81SOL    HW2  243   0.386   2.474   0.371 -1.2895 -0.9996  0.1906
   82SOL     OW  244   1.163   0.279   1.762  0.4816  0.2147  0.1143
   82SOL    HW1  245   1.070   0.303   1.791 -0.4742  2.1040 -0.6115
   82SOL    HW2  246   1.196   0.200   1.811  1.4721  2.2971 -0.1206
   83SOL     OW  247   0.468   2.224   0.864  0.2929 -0.1392 -0.0011
   83SOL    HW1  248   0.372   2.214   0.892  0.7093 -0.9653 -1.4334
   83SOL    HW2  249   0.493   2.139   0.821  0.9239  2.4864  0.5349
   84SOL     OW  250   2.830   1.665   0.839 -0.5551  0.2001  0.1135
   84SOL    HW1  251   2.801   1.580   0.787 -0.1672  1.1763  1.3827
   84SOL    HW2  252   2.926   1.662   0.875 -1.3369 -1.5365  0.8534
   85SOL     OW  253   2.224   1.819   1.249  0.3293  0.4861  0.3038
   85SOL    HW1  254   2.193   1.917   1.245  0.8387  0.2399 -0.7869
   85SOL    HW2  255   2.144   1.755   1.253  0.7707  1.0167 -1.0865
   86SOL     OW  256   1.577   2.282   1.897 -0.4539 -0.4986  0.1759
   86SOL    HW1  257   1.570   2.379   1.882 -1.9762 -2.3019  3.4743
   86SOL    HW2  258   1.600   2.262   1.993 -1.2748 -3.2447  1.1296
   87SOL     OW  259   2.293   1.504   0.535  0.3250 -0.3371  0.3074
   87SOL    HW1  260   2.207   1.540   0.492  0.2412  1.4268 -2.7448
   87SOL    HW2  261   2.374   1.537   0.473  0.1690  0.5965 -3.4225
   88SOL     OW  262   0.420   2.986   0.811  0.4599 -0.2011  0.2479
   88SOL    HW1  263   0.496   2.919   0.790  1.5934 -2.0342  1.8230
   88SOL    HW2  264   0.427   2.996   0.911  1.1228 -1.1901 -0.5356
   89SOL     OW  265   0.604   0.666   1.770  0.6065  0.3353 -1.1850
   89SOL    HW1  266   0.673   0.698   1.701  2.8339 -0.0776 -0.7278
   89SOL    HW2  267   0.642   0.658   1.860 -1.3518  1.6142  0.8932
   90SOL     OW  268   2.917   1.899   0.438  0.0840 -0.1651 -0.1760
   90SOL    HW1  269   2.998   1.893   0.503 -0.1996 -0.7077  0.5620
   90SOL    HW2  270   2.869   1.992   0.436 -1.9723  2.0694 -2.0390
   91SOL     OW  271   1.110   1.641   0.928 -0.0957  0.1967 -0.2506
   91SOL    HW1  272   1.112   1.575   1.005 -1.4704 -1.7627 -1.1213
   91SOL    HW2  273   1.200   1.655   0.878 -0.3938 -0.8015 -1.3256
   92SOL     OW  274   2.325   2.940   1.747 -0.2518 -0.5993 -0.3056
   92SOL    HW1  275   2.392   3.015   1.776 -1.7789 -0.6379  1.7525
   92SOL    HW2  276   2.343   2.917   1.649  2.4935  0.2260  2.7030
   93SOL     OW  277   0.647   1.421   2.778  0.3619 -0.0329  0.1198
   93SOL    HW1  278   0.703   1.490   2.836  0.1271  1.3786 -1.2493
   93SOL    HW2  279   0.591   1.471   2.717  2.0317 -0.4779 -0.0114
   94SOL     OW  280   2.517   0.033   1.784  0.4132 -0.3690 -0.1082
   94SOL    HW1  281   2.510   0.133   1.787  1.9426  1.8877  2.1709
   94SOL    HW2  282   2.586   3.085   1.850  2.0378 -1.4822  0.8413
   95SOL     OW  283   1.830   0.503   1.759 -0.0630 -0.5774 -0.2740
   95SOL    HW1  284   1.758   0.429   1.771 -3.6242  1.8239 -0.2988
   95SOL    HW2  285   1.914   0.470   1.714 -2.1274 -0.2645 -0.7933
   96SOL     OW  286   0.221   0.462   1.742  0.6216  0.3718 -0.1878
   96SOL    HW1  287   0.171   0.431   1.659  0.4780  1.2774  1.4469
   96SOL    HW2  288   0.233   0.565   1.752  0.0901  0.5475  0.9236
   97SOL     OW  289   2.075   0.196   1.468 -0.1745  0.5961  0.1531
   97SOL    HW1  290   1.985   0.204   1.421 -2.1427 -1.0566 -3.8521
   97SOL    HW2  291   2.076   0.139   1.552 -1.1220  0.0464 -1.3573
   98SOL     OW  292   2.020   2.540   1.811 -0.3423 -0.2311  0.6395
   98SOL    HW1  293   2.104   2.490   1.778  0.4469  0.8987 -0.7171
   98SOL    HW2  294   1.989   2.495   1.894  0.5288 -1.7076 -1.9646
   99SOL     OW  295   0.755   0.886   0.755  0.0989  0.3627 -0.1930
   99SOL    HW1  296   0.820   0.948   0.705 -1.2737  0.4916 -0.3929
   99SOL    HW2  297   0.662   0.922   0.752  0.7020 -1.2540  0.8669
  100SOL     OW  298   2.663   1.632   1.911 -0.4015  0.5881  0.5434
  100SOL    HW1  299   2.594   1.663   1.981 -1.6717 -0.1535 -0.4730
  100SOL    HW2  300   2.648   1.662   1.811  0.5493  1.7416 -0.8230
  101SOL     OW  301   1.832   0.146   0.324  0.4985 -0.1666 -0.1314
  101SOL    HW1  302   1.822   0.248   0.308  1.0872  0.4856 -0.6474
  101SOL    HW2  303   1.735   0.105   0.334 -2.9077  0.5576 -0.4924
  102SOL     OW  304   0.072   3.002   1.126  0.1663 -0.8252  0.1300
  102SOL    HW1  305   0.021   3.075   1.078 -1.8851  1.3488  1.6517
  102SOL    HW2  306   0.102   2.926   1.061 -0.9317  1.0842 -0.4668
  103SOL     OW  307   0.082   0.030   2.252 -0.0209  0.1424  0.1252
  103SOL    HW1  308   3.076   0.035   2.290 -0.0670 -2.2612 -0.1387
  103SOL    HW2  309   0.131   3.035   2.284  0.5975 -1.6781 -0.5021
  104SOL     OW  310   0.244   2.090   1.568 -0.2023  0.0283 -0.5129
  104SOL    HW1  311   0.214   2.029   1.488 -0.3833 -1.5122  0.1749
  104SOL    HW2  312   0.173   2.158   1.597 -1.0404 -0.0124 -0.3912
  105SOL     OW  313   0.651   1.964   2.066 -0.0450  0.1953  0.3741
  105SOL    HW1  314   0.740   1.954   2.108 -3.2940  2.2790 -0.7441
  105SOL    HW2  315   0.662   2.009   1.973  2.9716  3.2415 -3.4385
  106SOL     OW  316   1.897   2.927   0.668  0.2125  0.0630 -0.1531
  106SOL    HW1  317   1.990   2.965   0.661 -4.1626 -1.9807  1.6572
  106SOL    HW2  318   1.860   2.940   0.764 -0.4732 -2.2718 -1.1399
  107SOL     OW  319   0.603   1.145   1.210 -0.0008 -0.6837  0.6397
  107SOL    HW1  320   0.534   1.115   1.142 -3.9830 -3.1893 -1.1919
  107SOL    HW2  321   0.692   1.167   1.167 -1.4037  1.9682  2.2190
  108SOL     OW  322   2.797   1.056   2.398  0.1582 -0.0344  0.6968
  108SOL    HW1  323   2.858   1.139   2.402  0.9195 -0.6242  0.8163
  108SOL    HW2  324   2.770   1.043   2.301 -1.0369  1.1250  2.7017
  109SOL     OW  325   2.044   2.948   0.023 -0.0363  0.1883 -0.3702
  109SOL    HW1  326   2.069   3.023   3.053  2.1809  0.0634  1.1645
  109SOL    HW2  327   1.943   2.950   0.039  0.5728 -0.6126  1.1325
  110SOL     OW  328   0.098   1.972   3.021  0.4230  0.2699  0.0219
  110SOL    HW1  329   3.083   1.959   3.022  0.9127 -2.8725  0.7818
  110SOL    HW2  330   0.147   1.886   2.991  1.3583  0.0760 -2.1698
  111SOL     OW  331   2.791   0.720   2.192  0.6666  0.1067 -0.3770
  111SOL    HW1  332   2.867   0.652   2.179  0.4404  0.1823 -0.0760
  111SOL    HW2  333   2.741   0.712   2.280 -0.8756  0.2532 -1.1561
  112SOL     OW  334   2.027   2.564   1.405  0.3738 -0.1165 -0.0841
  112SOL    HW1  335   1.981   2.622   1.474  0.4953  0.5975  0.5965
  112SOL    HW2  336   2.062   2.485   1.455  1.1073 -1.2847  0.0420
  113SOL     OW  337   1.973   2.236   2.640  0.2809  0.5048  0.0699
  113SOL    HW1  338   2.044   2.166   2.655 -1.7879  3.3259 -0.5446
  113SOL    HW2  339   1.982   2.303   2.713 -1.2787 -2.0639 -0.5952
  114SOL     OW  340   0.422   0.330   0.473 -0.4497  0.2073 -0.6676
  114SOL    HW1  341   0.371   0.244   0.459 -0.9955 -1.2744 -3.2633
  114SOL    HW2  342   0.508   0.331   0.417 -0.0608  1.7568 -2.6048
  115SOL     OW  343   3.050   1.300   0.007  0.4548 -0.3471 -0.2896
  115SOL    HW1  344   3.007   1.241   0.079  2.7994  0.4432  1.7893
  115SOL    HW2  345   0.046   1.333   0.047 -4.6407 -0.6208 -2.0489
  116SOL     OW  346   3.075   0.830   1.806  0.2297 -0.4150 -0.0123
  116SOL    HW1  347   0.017   0.895   1.734  0.2815  0.0756 -0.7980
  116SOL    HW2  348   3.065   0.737   1.765  1.8735  1.2244 -0.3786
  117SOL     OW  349   2.267   0.237   1.278  0.0790  0.0845 -0.3605
  117SOL    HW1  350   2.334   0.312   1.288  0.7991  0.6098 -1.3245
  117SOL    HW2  351   2.199   0.239   1.356  0.3124  0.9160  1.2443
  118SOL     OW  352   2.698   2.531   2.020  0.1696 -0.1168  0.4464
  118SOL    HW1  353   2.643   2.562   1.937  2.9161 -1.4628 -0.7398
  118SOL    HW2  354   2.802   2.525   2.000  0.7935  1.1129  1.2881
  119SOL     OW  355   0.488   1.796   1.510  0.5858 -0.0694 -0.4841
  119SOL    HW1  356   0.529   1.866   1.443 -0.8376  1.9553 -2.9153
  119SOL    HW2  357   0.556   1.724   1.537  0.2442 -1.4663  0.6050
  120SOL     OW  358   0.427   1.348   1.522 -0.1164 -0.0447  0.3434
  120SOL    HW1  359   0.481   1.355   1.433  1.3188  2.1597 -1.2823
  120SOL    HW2  360   0.485   1.310   1.595 -1.4499  2.4308 -1.7527
  121SOL     OW  361   1.700   0.900   0.946  0.4542 -0.4905 -0.0558
  121SOL    HW1  362   1.650   0.908   1.034  0.0698 -1.1906  0.6421
  121SOL    HW2  363   1.686   0.977   0.879 -0.9996 -1.5064  0.8577
  122SOL     OW  364   2.363   2.507   2.641  0.1723 -0.0115 -0.4705
  122SOL    HW1  365   2.327   2.596   2.674 -0.1586 -0.0535 -1.6103
  122SOL    HW2  366   2.309   2.476   2.556 -4.2292 -0.8174 -1.1742
  123SOL     OW  367   2.898   0.055   0.274 -0.3241 -0.1579  0.6971
  123SOL    HW1  368   2.854   0.030   0.187  1.4486  0.9958 -0.5256
  123SOL    HW2  369   2.886   3.065   0.339  0.0967 -0.0428 -1.1003
  124SOL     OW  370   1.622   1.291   0.241  0.5575  0.2176 -0.2519
  124SOL    HW1  371   1.521   1.294   0.225 -1.1327  1.9849 -1.2470
  124SOL    HW2  372   1.665   1.220   0.184  1.2627 -1.2699  3.4426
  125SOL     OW  373   0.364   1.035   2.178 -0.0064  0.0199 -0.2121
  125SOL    HW1  374   0.404   1.107   2.236 -0.5989  1.7563 -1.3561
  125SOL    HW2  375   0.426   0.961   2.144 -1.2272  1.6459 -3.4372
  126SOL     OW  376   3.034   2.677   0.054  0.1602 -0.4709  0.4626
  126SOL    HW1  377   3.053   2.641   0.146 -0.4893 -1.9375 -0.7073
  126SOL    HW2  378   3.069   2.769   0.050 -1.6592 -2.0835 -1.9063
  127SOL     OW  379   2.983   1.898   0.143 -0.0519 -0.3034  0.6004
  127SOL    HW1  380   2.961   1.888   0.244  0.4594 -1.3961  0.4133
  127SOL    HW2  381   2.908   1.953   0.102  2.5154  0.4417 -0.7244
  128SOL     OW  382   1.275   0.984   0.825  0.2027  0.5302  0.3816
  128SOL    HW1  383   1.262   1.084   0.804  1.6633  0.2225  2.1645
  128SOL    HW2  384   1.269   0.962   0.924 -2.3737 -1.9410 -1.0886
  129SOL     OW  385   2.595   1.978   1.064 -0.2625  0.1869 -0.1052
  129SOL    HW1  386   2.559   1.887   1.097 -3.1282 -2.7670  0.2891
  129SOL    HW2  387   2.523   2.047   1.047  0.2291  0.3526 -0.2579
  130SOL     OW  388   2.063   0.980   0.239  0.4683 -0.0304 -0.0157
  130SOL    HW1  389   2.107   1.072   0.222 -0.4327  0.5135  1.7113
  130SOL    HW2  390   1.961   0.993   0.251 -1.1408  1.2284  0.7608
  131SOL     OW  391   2.902   1.401   2.601 -0.4274 -0.4323 -0.4380
  131SOL    HW1  392   2.861   1.495   2.578 -0.8106  1.9204 -1.1552
  131SOL    HW2  393   2.937   1.395   2.698 -1.5318 -0.1663  0.9601
  132SOL     OW  394   0.934   1.196   1.946 -0.2700  0.3580  0.0364
  132SOL    HW1  395   0.957   1.275   1.887 -0.1938 -0.5599 -0.9539
  132SOL    HW2  396   1.007   1.121   1.938  3.6320  1.5274  2.0178
  133SOL     OW  397   0.436   1.548   0.623 -0.4251 -0.3463 -0.3743
  133SOL    HW1  398   0.533   1.546   0.593 -1.8318  0.0757 -0.8168
  133SOL    HW2  399   0.438   1.494   0.711  1.6609 -0.3767  1.9291
  134SOL     OW  400   2.784   1.123   0.032 -0.2365 -0.3716  0.2661
  134SOL    HW1  401   2.801   1.099   3.027 -4.2848 -0.1879 -1.0658
  134SOL    HW2  402   2.720   1.198   0.044 -0.4353  0.0167  1.4553
  135SOL     OW  403   1.683   0.636   0.023 -0.4791  0.5879 -0.4631
  135SOL    HW1  404   1.747   0.692   3.057 -0.7781  0.4880  0.9390
  135SOL    HW2  405   1.733   0.546   0.047 -1.2669 -0.9923  0.0195
  136SOL     OW  406   1.907   1.653   1.502  0.0804 -0.2690 -0.2348
  136SOL    HW1  407   1.955   1.617   1.420 -2.1619  1.2493  1.7028
  136SOL    HW2  408   1.807   1.634   1.494 -1.5512 -2.2879 -2.6741
  137SOL     OW  409   2.308   2.421   1.022  0.1166 -0.3481 -0.4079
  137SOL    HW1  410   2.279   2.493   1.083 -1.8251 -3.2925 -3.2908
  137SOL    HW2  411   2.229   2.395   0.962 -0.9510  0.6055  2.5251
  138SOL     OW  412   2.266   0.527   1.772 -0.1635  0.3990 -0.1798
  138SOL    HW1  413   2.264   0.507   1.872 -1.6659  0.3736 -0.3259
  138SOL    HW2  414   2.171   0.510   1.737  1.1026 -3.0362 -1.4655
  139SOL     OW  415   2.536   2.797   2.838  0.5765 -0.2132  0.4720
  139SOL    HW1  416   2.554   2.748   2.921  0.4896  1.5015  1.6426
  139SOL    HW2  417   2.473   2.752   2.776 -1.4720  1.2821 -0.1153
  140SOL     OW  418   1.511   1.832   2.400  0.6753  0.1781  0.3887
  140SOL    HW1  419   1.534   1.901   2.323  2.0733  1.0888 -1.0126
  140SOL    HW2  420   1.436   1.763   2.373 -0.9494 -1.5846 -2.4559
  141SOL     OW  421   0.869   1.055   2.402 -0.0157 -0.0923  0.4750
  141SOL    HW1  422   0.851   1.151   2.425 -0.1992 -0.2852 -2.3308
  141SOL    HW2  423   0.927   1.014   2.468 -1.5235  1.0269 -1.9030
  142SOL     OW  424   2.372   2.652   1.910  0.7237  0.1126  0.3379
  142SOL    HW1  425   2.441   2.722   1.937 -0.8529 -2.4882 -1.4669
  142SOL    HW2  426   2.303   2.634   1.985 -0.9046  1.2769 -1.6869
  143SOL     OW  427   1.063   2.410   0.241  0.2309 -0.1490 -0.3729
  143SOL    HW1  428   1.079   2.513   0.233 -0.4539  2.7187 -2.4614
  143SOL    HW2  429   0.998   2.392   0.320 -0.3503 -0.8731  1.1435
  144SOL     OW  430   1.019   2.641   0.652 -0.1153  0.7942  0.5137
  144SOL    HW1  431   1.059   2.734   0.627  2.4665 -0.9375  0.6351
  144SOL    HW2  432   0.922   2.653   0.678 -2.4941  1.8513  1.5153
  145SOL     OW  433   1.739   2.653   2.461  0.1148  0.1574 -0.1157
  145SOL    HW1  434   1.654   2.639   2.520 -3.2783 -0.2763  2.3680
  145SOL    HW2  435   1.745   2.749   2.435 -1.0316 -3.6551  4.0428
  146SOL     OW  436   2.102   2.801   0.283 -0.1316 -0.0532  0.5142
  146SOL    HW1  437   2.013   2.791   0.324  0.9100 -1.4438 -2.4810
  146SOL    HW2  438   2.102   2.869   0.213  0.1889 -1.3297  0.1635
  147SOL     OW  439   0.210   1.716   1.483 -0.1093 -0.5469 -0.1862
  147SOL    HW1  440   0.308   1.737   1.506 -0.9228 -0.6348  0.8169
  147SOL    HW2  441   0.200   1.648   1.405 -1.4001 -0.0128  3.4572
  148SOL     OW  442   1.708   2.925   0.491  0.1744 -0.4294 -0.2415
  148SOL    HW1  443   1.780   2.935   0.561 -0.3552 -2.3417 -1.1258
  148SOL    HW2  444   1.738   2.853   0.427  2.0481 -1.1915 -0.4925
  149SOL     OW  445   0.565   1.945   3.015 -0.1898  0.2281  0.4113
  149SOL    HW1  446   0.665   1.919   3.025 -2.5221 -0.4578  0.8623
  149SOL    HW2  447   0.549   2.029   2.967  1.5699 -0.5245  0.1325
  150SOL     OW  448   0.406   2.610   1.004  0.0644 -0.0070 -0.1248
  150SOL    HW1  449   0.391   2.603   1.104 -0.7378 -2.3410 -0.8704
  150SOL    HW2  450   0.328   2.661   0.966  0.1309  0.9788 -1.6819
  151SOL     OW  451   0.566   1.213   2.924  0.0294  0.3263 -0.7095
  151SOL    HW1  452   0.601   1.293   2.873 -3.1002  0.7357  3.4317
  151SOL    HW2  453   0.465   1.206   2.931 -1.0347  1.1906  0.1710
  152SOL     OW  454   2.932   2.250   0.930 -0.4831 -0.5607 -0.5915
  152SOL    HW1  455   2.852   2.206   0.890  2.7064  1.6833  1.1355
  152SOL    HW2  456   2.954   2.343   0.887  2.2203  2.2999 -1.7179
  153SOL     OW  457   1.742   2.256   0.526  1.0091 -0.2532 -0.0322
  153SOL    HW1  458   1.763   2.271   0.426  3.1479  1.8601 -2.4651
  153SOL    HW2  459   1.722   2.158   0.537 -0.4513  2.0136  0.5217
  154SOL     OW  460   0.660   2.927   1.447 -0.3505 -0.6197  0.6385
  154SOL    HW1  461   0.579   2.986   1.457 -0.0026 -0.8931  0.0367
  154SOL    HW2  462   0.742   2.969   1.486 -0.2832  1.2122  0.3119
  155SOL     OW  463   2.842   2.167   0.400  0.1872 -0.2891  0.1188
  155SOL    HW1  464   2.851   2.217   0.492  1.7320  3.2726  1.1600
  155SOL    HW2  465   2.792   2.225   0.335  1.0727 -0.0519  1.1752
  156SOL     OW  466   2.468   1.956   0.144 -0.5864  0.1753  0.0343
  156SOL    HW1  467   2.525   1.978   0.064 -0.2235 -2.5520 -0.1960
  156SOL    HW2  468   2.530   1.922   0.213  0.5099 -0.1397  0.8937
  157SOL     OW  469   0.446   2.754   1.849  0.2419 -0.4599  0.0573
  157SOL    HW1  470   0.347   2.754   1.835  1.0759 -0.6789 -1.3287
  157SOL    HW2  471   0.469   2.746   1.950  1.0361 -1.8682  1.0288
  158SOL     OW  472   1.282   0.725   1.125 -0.6521  0.0450  0.0857
  158SOL    HW1  473   1.275   0.828   1.126  1.2558  1.2097  0.6936
  158SOL    HW2  474   1.235   0.681   1.201  0.9631 -2.4635 -0.3223
  159SOL     OW  475   1.762   1.068   0.049  0.4091  0.3625  0.2325
  159SOL    HW1  476   1.782   1.053   0.146  0.0470  1.6309  0.4588
  159SOL    HW2  477   1.832   1.127   0.006 -1.9892 -3.5446  1.5569
  160SOL     OW  478   1.307   1.851   0.328 -0.0094 -0.2516  0.1234
  160SOL    HW1  479   1.383   1.916   0.302  1.1038  0.2684 -0.8169
  160SOL    HW2  480   1.293   1.818   0.425 -2.0424  0.5219 -2.5004
  161SOL     OW  481   2.183   2.052   2.660  0.6440  0.2168  0.4939
  161SOL    HW1  482   2.241   2.086   2.739  0.7184  1.3141 -0.6360
  161SOL    HW2  483   2.188   1.948   2.653  3.0966  2.3869  0.1148
  162SOL     OW  484   0.082   2.327   1.655  0.4245  0.3300  0.4728
  162SOL    HW1  485   0.042   2.352   1.565 -0.0879 -0.1091  0.7463
  162SOL    HW2  486   0.184   2.350   1.650  2.8724  0.2598  0.4621
  163SOL     OW  487   0.370   0.541   2.661 -0.3886 -0.2350  0.6752
  163SOL    HW1  488   0.389   0.599   2.746  2.3793  1.2616  2.6562
  163SOL    HW2  489   0.308   0.586   2.597  0.6983 -0.4720 -2.2347
  164SOL     OW  490   0.070   2.762   2.775  0.2068  0.7596  0.0695
  164SOL    HW1  491   0.098   2.829   2.706 -0.4163 -1.7873  0.7617
  164SOL    HW2  492   0.053   2.807   2.866  0.8741  2.6235  3.2873
  165SOL     OW  493   2.727   0.717   1.428 -0.5535 -0.1738 -0.2036
  165SOL    HW1  494   2.641   0.745   1.375  0.9441 -1.3199 -2.1194
  165SOL    HW2  495   2.808   0.758   1.384 -0.3244  0.8549 -0.1763
  166SOL     OW  496   2.006   1.550   1.258 -0.0066 -0.4067  0.2834
  166SOL    HW1  497   2.012   1.447   1.239  2.6870 -0.3075 -0.9182
  166SOL    HW2  498   2.036   1.600   1.172  0.1925  3.2692 -0.1037
  167SOL     OW  499   0.275   0.720   2.465  0.0325  0.3515  0.5379
  167SOL    HW1  500   0.246   0.638   2.413  0.3956  1.6695 -3.6581
  167SOL    HW2  501   0.225   0.798   2.428  0.9227 -1.1565  1.3860
  168SOL     OW  502   2.208   0.286   2.305  0.4878  0.6319  0.1598
  168SOL    HW1  503   2.148   0.226   2.362  0.1904  1.0388  1.4515
  168SOL    HW2  504   2.202   0.384   2.336  0.8149 -3.2604 -0.9883
  169SOL     OW  505   0.677   0.990   3.048 -0.2392  0.1561  0.0895
  169SOL    HW1  506   0.609   0.929   0.006  0.1897 -1.7316  0.1388
  169SOL    HW2  507   0.631   1.065   2.990 -1.6161  0.1925  0.9921
  170SOL     OW  508   0.993   1.280   1.526  0.0869 -0.5757  0.2986
  170SOL    HW1  509   0.912   1.242   1.568 -0.1603 -0.1837 -0.4008
  170SOL    HW2  510   1.075   1.251   1.577  0.0364  0.7602  1.0966
  171SOL     OW  511   1.318   2.612   1.383  0.1290 -0.0104 -0.4978
  171SOL    HW1  512   1.255   2.691   1.375  1.6236 -0.0563  0.8024
  171SOL    HW2  513   1.405   2.649   1.343 -3.1745 -1.4517  1.0140
  172SOL     OW  514   1.010   0.121   1.960  0.1140 -0.4415  0.0792
  172SOL    HW1  515   1.073   0.048   1.993 -1.3034  2.2042 -0.2865
  172SOL    HW2  516   0.916   0.096   1.941  1.4868  1.1052  0.6861
  173SOL     OW  517   1.148   2.473   0.841 -0.1277 -0.2039 -0.3249
  173SOL    HW1  518   1.122   2.543   0.772  2.3470 -1.9276  0.3843
  173SOL    HW2  519   1.073   2.405   0.848  1.5222  0.9373 -0.2261
  174SOL     OW  520   2.232   0.047   0.300 -0.5231 -0.2472 -0.0631
  174SOL    HW1  521   2.225   0.023   0.400  1.8598  0.5580 -1.0072
  174SOL    HW2  522   2.329   0.084   0.282  1.2194  0.5161 -2.0253
  175SOL     OW  523   1.640   1.075   0.699  0.3060  0.1413  0.1186
  175SOL    HW1  524   1.669   1.152   0.643  1.4954  0.4076  1.7398
  175SOL    HW2  525   1.573   1.016   0.646  1.8494 -1.1514 -3.6497
  176SOL     OW  526   1.210   1.762   0.567  0.1655  0.4410  0.2728
  176SOL    HW1  527   1.166   1.828   0.631 -2.4624  1.8820  1.8002
  176SOL    HW2  528   1.152   1.680   0.550 -1.1505 -1.8310 -1.8606
  177SOL     OW  529   1.818   1.374   1.021  0.0749  0.1191  0.1619
  177SOL    HW1  530   1.737   1.398   0.962 -1.1211 -0.2710  0.0333
  177SOL    HW2  531   1.892   1.320   0.966  0.8116 -4.5515 -2.4953
  178SOL     OW  532   2.065   1.681   0.098  0.2107  0.3275 -0.0671
  178SOL    HW1  533   2.033   1.602   0.041  0.0189 -1.2929 -4.6952
  178SOL    HW2  534   2.165   1.695   0.084 -0.3057  0.8603 -1.8595
  179SOL     OW  535   1.288   3.003   0.064 -0.0171 -0.6507 -0.1975
  179SOL    HW1  536   1.326   2.937   0.134 -0.7007  1.2041  0.1532
  179SOL    HW2  537   1.244   2.964   3.068  1.5983  0.0061  0.9678
  180SOL     OW  538   1.952   1.249   1.463 -0.2560 -0.0905  0.4550
  180SOL    HW1  539   1.859   1.281   1.490 -0.8259  2.0483  1.7429
  180SOL    HW2  540   1.972   1.243   1.365 -0.5992  0.8539  4.6532
  181SOL     OW  541   0.866   0.747   1.854 -0.5142  0.5545 -0.4424
  181SOL    HW1  542   0.931   0.824   1.885  0.4735  3.1764 -0.6390
  181SOL    HW2  543   0.908   0.658   1.874 -1.5223  0.0351  1.1197
  182SOL     OW  544   0.094   0.977   2.519 -0.0990  0.6927 -0.1693
  182SOL    HW1  545   3.086   0.975   2.545 -1.5006 -3.2080  0.9217
  182SOL    HW2  546   0.098   0.982   2.418  0.9531  1.8152 -0.9335
  183SOL     OW  547   1.396   0.705   2.421 -0.0040  0.2591  0.5022
  183SOL    HW1  548   1.488   0.693   2.459 -0.0518 -0.6168 -0.5796
  183SOL    HW2  549   1.336   0.640   2.471  1.3271 -1.6216  1.3152
  184SOL     OW  550   0.741   0.462   1.124  0.3424 -0.0496  0.1925
  184SOL    HW1  551   0.775   0.521   1.051 -0.2706  1.2441  0.9269
  184SOL    HW2  552   0.816   0.404   1.167 -2.2405 -4.3021  0.4690
  185SOL     OW  553   2.303   1.239   0.454 -0.3666  0.1131 -0.4265
  185SOL    HW1  554   2.404   1.243   0.426  0.3051 -2.2581 -1.2491
  185SOL    HW2  555   2.284   1.313   0.514  2.1853 -3.2187 -0.6028
  186SOL     OW  556   0.166   1.976   0.275  0.0247  0.0017 -0.4859
  186SOL    HW1  557   0.166   1.894   0.329  0.3504  4.4886 -2.4492
  186SOL    HW2  558   0.112   1.957   0.189 -2.7644  1.1801 -0.5402
  187SOL     OW  559   1.861   2.185   2.926  0.2522 -0.3565 -0.1051
  187SOL    HW1  560   1.926   2.113   2.975  2.6551 -3.0426  0.1188
  187SOL    HW2  561   1.912   2.270   2.906 -0.8421  0.7640 -0.2441
  188SOL     OW  562   1.534   2.226   1.528  0.2387 -0.0453 -0.1238
  188SOL    HW1  563   1.497   2.143   1.477 -0.3112 -2.3856 -2.1765
  188SOL    HW2  564   1.459   2.275   1.573  0.3462 -0.5450  1.7737
  189SOL     OW  565   2.373   1.417   2.631  0.3519  0.2443 -0.5388
  189SOL    HW1  566   2.305   1.365   2.688 -0.5267 -1.4657  1.1250
  189SOL    HW2  567   2.335   1.441   2.538  0.6206 -1.2769 -0.5081
  190SOL     OW  568   0.773   2.586   2.111 -0.0403  0.1768  0.0536
  190SOL    HW1  569   0.758   2.482   2.116 -1.7732 -4.8479 -1.2981
  190SOL    HW2  570   0.683   2.629   2.138  0.1584  0.8031  0.9483
  191SOL     OW  571   2.767   1.004   1.243 -0.2048 -0.4941 -0.0852
  191SOL    HW1  572   2.795   1.025   1.338  1.2628 -4.0933  0.7476
  191SOL    HW2  573   2.698   1.073   1.213  1.4942  0.1864  0.2142
  192SOL     OW  574   2.296   0.611   1.155 -0.2175  0.1057  0.5819
  192SOL    HW1  575   2.326   0.538   1.217 -3.6634 -0.6618  1.0871
  192SOL    HW2  576   2.204   0.575   1.120 -0.0316  1.3758  1.4944
  193SOL     OW  577   0.904   0.315   0.229  0.5634 -1.0660 -0.1303
  193SOL    HW1  578   0.922   0.265   0.142  0.5680 -1.6918 -1.7734
  193SOL    HW2  579   0.847   0.260   0.297 -0.1750 -4.0622 -0.7554
  194SOL     OW  580   1.222   2.430   1.233  0.1869  0.1395 -0.1292
  194SOL    HW1  581   1.227   2.480   1.318 -0.3852 -0.0652 -0.4777
  194SOL    HW2  582   1.264   2.495   1.168 -0.4361  3.8890  2.3021
  195SOL     OW  583   2.788   1.086   0.465 -0.7177  0.7216  0.2284
  195SOL    HW1  584   2.832   1.050   0.552  0.1728  0.7822 -0.4826
  195SOL    HW2  585   2.730   1.010   0.427  0.7560 -2.8951  0.5715
  196SOL     OW  586   0.522   2.083   1.562  0.2734 -0.0269  0.3309
  196SOL    HW1  587   0.425   2.095   1.585 -0.0795  0.6443 -3.4614
  196SOL    HW2  588   0.561   2.161   1.511 -0.1502  0.9440  2.0385
  197SOL     OW  589   2.982   0.547   2.123 -0.1181 -0.3180 -0.7693
  197SOL    HW1  590   3.051   0.528   2.051  0.0433  1.2816  0.1826
  197SOL    HW2  591   2.934   0.465   2.152 -4.6198  2.6095  0.0179
  198SOL     OW  592   2.003   1.410   0.220  0.6740 -0.1063  0.0264
  198SOL    HW1  593   1.978   1.441   0.124  0.6466  2.7683  4.3428
  198SOL    HW2  594   2.019   1.484   0.285  0.9179 -0.9683  0.5166
  199SOL     OW  595   2.557   0.486   1.755 -0.2496  0.2566 -0.0364
  199SOL    HW1  596   2.458   0.515   1.767 -0.6245 -0.1612  0.0631
  199SOL    HW2  597   2.569   0.468   1.654 -0.6634 -0.5246 -3.2683
  200SOL     OW  598   2.084   0.104   2.939 -0.0486  0.5067 -0.1453
  200SOL    HW1  599   2.071   0.104   3.044 -1.2075  0.6786  1.3434
  200SOL    HW2  600   2.083   0.191   2.888  0.5053 -2.6318  1.0202
  201SOL     OW  601   2.508   3.080   1.021  0.1584  0.1230  0.2407
  201SOL    HW1  602   2.586   0.053   1.048 -0.9361 -0.8263 -1.0266
  201SOL    HW2  603   2.427   0.052   0.994 -0.4197 -1.4875  1.4409
  202SOL     OW  604   2.684   2.551   0.349  0.0789  0.0596 -0.0067
  202SOL    HW1  605   2.713   2.556   0.445 -0.2204 -0.0620 -2.0890
  202SOL    HW2  606   2.676   2.639   0.299 -0.6342 -3.2952 -2.4885
  203SOL     OW  607   1.637   1.799   0.550  0.1145 -0.0058 -0.3016
  203SOL    HW1  608   1.568   1.836   0.616  0.9695 -2.9007 -0.5061
  203SOL    HW2  609   1.717   1.861   0.552 -1.3912  0.8715  0.3453
  204SOL     OW  610   0.221   1.816   2.234  0.0601 -0.0013 -0.4716
  204SOL    HW1  611   0.321   1.803   2.229 -2.8550 -0.6297  1.3928
  204SOL    HW2  612   0.177   1.753   2.304  1.9519 -1.1362 -1.2384
  205SOL     OW  613   0.758   0.575   0.659 -0.2676 -0.2881  0.1113
  205SOL    HW1  614   0.823   0.594   0.583 -1.1528 -2.4217  0.6300
  205SOL    HW2  615   0.793   0.590   0.758 -1.9820  0.3530  2.2410
  206SOL     OW  616   0.381   0.605   2.954  0.4067  0.4127  0.0734
  206SOL    HW1  617   0.322   0.520   2.941 -2.5050 -2.8470  0.5881
  206SOL    HW2  618   0.327   0.674   2.999  1.4798 -1.0465 -0.4288
  207SOL     OW  619   1.233   2.411   2.059 -0.4118  0.1702  0.3116
  207SOL    HW1  620   1.153   2.470   2.057 -1.3996  2.0599 -2.1031
  207SOL    HW2  621   1.239   2.350   1.980  0.7132 -1.5310 -0.0511
  208SOL     OW  622   2.563   3.087   1.506 -0.2018 -0.4824 -0.4344
  208SOL    HW1  623   2.563   0.017   1.606 -1.5303 -1.8008 -1.0276
  208SOL    HW2  624   2.487   3.030   1.481  2.7665  2.1995 -0.2454
  209SOL     OW  625   1.813   0.859   0.589  0.3129  0.7085 -0.0711
  209SOL    HW1  626   1.794   0.774   0.644  1.0651 -0.9159 -0.2223
  209SOL    HW2  627   1.741   0.931   0.605 -0.0003  0.2126  0.3449
  210SOL     OW  628   2.617   0.869   0.393 -0.2030 -0.3297  0.4604
  210SOL    HW1  629   2.540   0.878   0.465 -2.9704  1.2902 -0.6197
  210SOL    HW2  630   2.582   0.863   0.297 -1.3201  0.7264 -1.5158
  211SOL     OW  631   1.172   0.072   0.272  0.0508 -0.0314  0.0802
  211SOL    HW1  632   1.230   0.155   0.278 -5.3062  0.0365 -0.4059
  211SOL    HW2  633   1.211   3.087   0.210 -0.4110 -0.9726 -3.1271
  212SOL     OW  634   1.854   1.968   0.536  0.1500 -0.3479  0.1555
  212SOL    HW1  635   1.899   1.994   0.625 -1.3021 -0.8938 -2.2026
  212SOL    HW2  636   1.915   1.971   0.457  0.4074 -0.2130 -1.8776
  213SOL     OW  637   2.546   0.110   0.010 -0.0946 -0.8903 -0.0445
  213SOL    HW1  638   2.510   0.059   3.020  0.4750  1.5848  1.2580
  213SOL    HW2  639   2.520   0.209   0.010  1.4669  2.0749  0.7951
  214SOL     OW  640   0.939   2.330   2.136 -0.9661  0.2348 -0.2087
  214SOL    HW1  641   0.932   2.248   2.193  0.5484  1.8201 -0.7021
  214SOL    HW2  642   0.957   2.412   2.197  1.7226  1.2374  2.0967
  215SOL     OW  643   0.362   1.223   0.879 -0.4241  0.5666 -0.0174
  215SOL    HW1  644   0.269   1.248   0.869  1.3304 -2.4934 -0.1379
  215SOL    HW2  645   0.427   1.300   0.884 -1.5293 -1.3349  1.3125
  216SOL     OW  646   0.223   2.548   2.782 -0.3254 -0.1400  0.1367
  216SOL    HW1  647   0.319   2.580   2.778 -0.4887 -3.9540  1.4365
  216SOL    HW2  648   0.163   2.631   2.779  0.7728  0.4007 -1.8599
  217SOL     OW  649   2.950   1.318   1.490  0.2628  0.0527  0.0012
  217SOL    HW1  650   3.043   1.314   1.451  1.8060 -2.4347 -2.5381
  217SOL    HW2  651   2.920   1.230   1.530  1.1104  1.0397  1.3178
  218SOL     OW  652   0.883   2.300   1.634 -0.0649 -1.0423  0.0344
  218SOL    HW1  653   0.890   2.400   1.624 -2.8625  1.7439  1.4411
  218SOL    HW2  654   0.907   2.277   1.727 -4.6526  1.9427 -0.1194
  219SOL     OW  655   2.031   1.589   0.419 -0.0577  0.1113  0.3247
  219SOL    HW1  656   1.963   1.619   0.351  1.0066  2.4803 -3.1524
  219SOL    HW2  657   2.026   1.638   0.505 -0.3646 -0.4537 -2.4101
  220SOL     OW  658   2.191   0.572   0.288 -0.0036 -0.4255  0.0410
  220SOL    HW1  659   2.293   0.557   0.270  2.8833 -0.3594  0.1757
  220SOL    HW2  660   2.169   0.527   0.375  0.6850  1.8603  0.1591
  221SOL     OW  661   3.023   0.815   0.242  0.0437  0.6637  0.3698
  221SOL    HW1  662   0.023   0.788   0.281 -0.6803  1.7898  0.3700
  221SOL    HW2  663   3.005   0.775   0.147  1.2638 -0.7502 -0.7900
  222SOL     OW  664   1.649   1.411   0.829 -0.0546 -0.0365  0.2373
  222SOL    HW1  665   1.564   1.378   0.796 -0.3716  0.4747  3.0824
  222SOL    HW2  666   1.691   1.482   0.764 -1.7430 -0.5183  1.6892
  223SOL     OW  667   1.199   0.176   2.945 -0.3078 -0.4243 -0.4445
  223SOL    HW1  668   1.236   0.082   2.923  1.5919 -2.9650  1.7621
  223SOL    HW2  669   1.147   0.168   3.035 -2.8264 -0.6352  0.7324
  224SOL     OW  670   0.855   2.827   1.057 -0.5337 -0.2484  0.6180
  224SOL    HW1  671   0.831   2.914   1.103  0.2424 -0.0789  0.1913
  224SOL    HW2  672   0.957   2.816   1.058  2.2499  2.4758  0.0264
  225SOL     OW  673   0.674   2.869   1.938  0.4889 -0.3837 -0.2613
  225SOL    HW1  674   0.610   2.825   1.873 -2.6807 -0.6780  1.9572
  225SOL    HW2  675   0.739   2.800   1.975 -2.0617  2.4714  0.4499
  226SOL     OW  676   1.538   1.576   0.372 -0.5918 -0.1601 -0.2201
  226SOL    HW1  677   1.537   1.658   0.441 -0.4213  3.2594 -0.6304
  226SOL    HW2  678   1.639   1.550   0.349  4.3719 -3.4333  1.2758
  227SOL     OW  679   0.640   1.940   1.291  0.3626  0.0111  0.2121
  227SOL    HW1  680   0.640   2.013   1.221 -1.7876 -1.6575 -0.8692
  227SOL    HW2  681   0.662   1.846   1.258 -1.9535  1.3119 -1.5019
  228SOL     OW  682   0.079   1.883   0.621  0.3752 -0.2261 -0.4440
  228SOL    HW1  683   0.113   1.818   0.546 -0.9493  0.5882 -2.6579
  228SOL    HW2  684   0.126   1.974   0.614  0.4550  1.0757 -0.1244
  229SOL     OW  685   2.873   0.278   2.935 -0.3715 -0.6992 -0.0812
  229SOL    HW1  686   2.800   0.235   2.879 -2.4101  0.3858  4.9673
  229SOL    HW2  687   2.956   0.217   2.932 -2.6167  1.0972 -1.0194
  230SOL     OW  688   2.304   0.850   0.443 -0.2723  0.2999 -0.2764
  230SOL    HW1  689   2.212   0.831   0.403 -0.2101  1.6188  1.3841
  230SOL    HW2  690   2.297   0.902   0.532  0.3672  3.2163  2.1409
  231SOL     OW  691   1.886   1.483   3.047  0.1101 -0.1588 -0.5118
  231SOL    HW1  692   1.791   1.489   3.082  1.3498  1.2163 -0.0898
  231SOL    HW2  693   1.897   1.535   2.965 -1.3768  0.4677  2.1829
  232SOL     OW  694   2.459   1.717   1.166 -0.2597 -0.6881  0.5770
  232SOL    HW1  695   2.529   1.692   1.233  0.7843  1.6546 -0.6846
  232SOL    HW2  696   2.371   1.744   1.210 -3.1396 -2.7048 -0.6901
  233SOL     OW  697   0.274   2.674   1.537  0.3246 -0.3944  0.5323
  233SOL    HW1  698   0.322   2.598   1.586 -1.4381  0.3408 -0.9166
  233SOL    HW2  699   0.175   2.657   1.541  0.5870  0.7400  1.4399
  234SOL     OW  700   0.738   0.205   2.466 -0.0352 -0.6430  0.1018
  234SOL    HW1  701   0.829   0.159   2.480 -1.9290 -4.1936  1.2311
  234SOL    HW2  702   0.719   0.253   2.557  0.9370 -0.3604  2.2556
  235SOL     OW  703   2.765   0.988   2.131 -0.2377  0.0635  0.3680
  235SOL    HW1  704   2.863   1.009   2.108  1.6133 -0.7128 -0.9441
  235SOL    HW2  705   2.756   0.889   2.139 -0.0716  0.6613  2.3304
  236SOL     OW  706   1.208   2.735   1.801 -0.2916 -0.2406 -0.3290
  236SOL    HW1  707   1.119   2.697   1.799  5.1128  2.5192 -1.1353
  236SOL    HW2  708   1.278   2.666   1.812 -2.0257 -0.0714 -3.9320
  237SOL     OW  709   0.477   1.574   2.640  0.6358  0.2232 -0.6137
  237SOL    HW1  710   0.505   1.596   2.545  1.3404  0.2446 -1.1971
  237SOL    HW2  711   0.438   1.654   2.691 -2.3603  0.6114 -0.7495
  238SOL     OW  712   0.958   0.586   2.439 -0.0968 -0.2870  0.4140
  238SOL    HW1  713   0.936   0.651   2.363  1.1679  0.1402  0.3211
  238SOL    HW2  714   0.874   0.580   2.504 -1.0433  0.5894 -1.4541
  239SOL     OW  715   0.413   2.116   2.108 -0.6572  0.2485  0.1296
  239SOL    HW1  716   0.489   2.050   2.091 -0.9722  1.6078  1.1878
  239SOL    HW2  717   0.427   2.210   2.073 -0.0318  1.4308  0.3836
  240SOL     OW  718   2.519   3.005   0.396 -0.3502  0.0256 -0.4120
  240SOL    HW1  719   2.435   2.991   0.456 -1.4142 -1.1280  4.4893
  240SOL    HW2  720   2.532   0.008   0.358  0.4074 -0.7958 -0.4000
  241SOL     OW  721   0.231   1.053   0.099  0.2408  0.3484 -0.4269
  241SOL    HW1  722   0.178   1.077   0.181 -0.4161  1.7696 -2.9711
  241SOL    HW2  723   0.243   1.120   0.026 -1.3976  1.2874  0.9647
  242SOL     OW  724   1.520   2.569   1.741  0.2932 -0.1421 -0.1901
  242SOL    HW1  725   1.616   2.556   1.717  0.4953 -0.6738  0.5320
  242SOL    HW2  726   1.464   2.501   1.690 -0.0857  2.2065  0.3688
  243SOL     OW  727   0.656   2.468   1.853  0.3383  0.7261 -0.2024
  243SOL    HW1  728   0.667   2.537   1.781  0.5717 -2.2828 -0.0388
  243SOL    HW2  729   0.717   2.392   1.845  0.6867  0.9426 -1.0790
  244SOL     OW  730   2.355   0.645   2.616 -0.4356  0.1027 -0.1606
  244SOL    HW1  731   2.294   0.630   2.698 -0.2412  1.1995  1.4935
  244SOL    HW2  732   2.453   0.623   2.637 -1.0665 -0.8351  1.1898
  245SOL     OW  733   1.586   2.662   1.356 -0.2636 -0.0493  0.1940
  245SOL    HW1  734   1.612   2.717   1.436 -1.3261 -0.3664  0.1404
  245SOL    HW2  735   1.601   2.711   1.264 -0.4643 -2.9061  1.0633
  246SOL     OW  736   1.432   0.155   0.524 -0.0382 -0.5343 -0.1786
  246SOL    HW1  737   1.395   0.156   0.618 -4.9074 -0.3842  0.0312
  246SOL    HW2  738   1.372   0.207   0.465  1.7029 -1.7041 -1.9942
  247SOL     OW  739   1.784   0.518   2.101  0.3690  0.0941  0.6355
  247SOL    HW1  740   1.729   0.436   2.065 -2.7585 -3.1909 -3.7069
  247SOL    HW2  741   1.834   0.556   2.022 -2.1670 -0.2263 -1.1436
  248SOL     OW  742   3.035   1.964   1.954  0.3836  0.0231  0.3746
  248SOL    HW1  743   0.047   1.949   1.946  0.7369 -2.3570  1.3149
  248SOL    HW2  744   2.987   1.878   1.938 -1.7650 -3.2814  2.5705
  249SOL     OW  745   0.028   0.210   0.376  0.2851 -0.1662  0.3981
  249SOL    HW1  746   3.028   0.170   0.341 -1.2186  0.5188 -0.3857
  249SOL    HW2  747   0.011   0.270   0.457 -0.6420  0.0267  0.5884
  250SOL     OW  748   2.633   3.084   2.359  0.0347 -0.1263 -0.4238
  250SOL    HW1  749   2.607   2.989   2.396 -1.1677 -3.5381 -0.6938
  250SOL    HW2  750   2.560   0.033   2.295  0.2207  1.2467 -3.5484
  251SOL     OW  751   1.401   0.640   3.086 -0.3210 -0.7192  0.6578
  251SOL    HW1  752   1.380   0.542   0.009 -0.5468  0.2296  0.5535
  251SOL    HW2  753   1.504   0.661   3.086  0.2519  1.5548 -3.2380
  252SOL     OW  754   0.959   2.551   2.304 -0.0890 -0.4423  0.4459
  252SOL    HW1  755   1.033   2.621   2.302  2.8123 -0.8188  2.0002
  252SOL    HW2  756   0.875   2.586   2.256  1.2988 -0.3484 -0.2504
  253SOL     OW  757   2.496   2.529   0.791 -0.3981  0.2084  0.0440
  253SOL    HW1  758   2.424   2.597   0.805  0.6206 -0.1824  0.1091
  253SOL    HW2  759   2.560   2.545   0.712  0.0155  1.1069  0.1546
  254SOL     OW  760   2.272   1.357   1.173 -0.0517 -0.0449  0.1890
  254SOL    HW1  761   2.314   1.383   1.264  1.0434  2.8261  3.9224
  254SOL    HW2  762   2.343   1.355   1.101  0.3082  2.9497  0.7551
  255SOL     OW  763   0.738   2.548   1.249 -0.2379 -0.1429  0.2447
  255SOL    HW1  764   0.667   2.614   1.213 -0.3866  1.0701  1.4349
  255SOL    HW2  765   0.771   2.484   1.178 -0.1528  0.9501  1.0062
  256SOL     OW  766   2.003   1.770   1.711  0.3704 -0.1375 -0.6097
  256SOL    HW1  767   1.957   1.726   1.630  0.5335  2.7182  2.0551
  256SOL    HW2  768   2.028   1.697   1.776  0.6016  4.1040  0.5482
  257SOL     OW  769   0.225   2.396   2.539  0.1345  0.3616  0.2660
  257SOL    HW1  770   0.303   2.327   2.547 -1.7445 -0.5946  1.0625
  257SOL    HW2  771   0.220   2.451   2.626  1.8851 -1.2060 -1.5996
  258SOL     OW  772   0.643   2.778   0.903 -0.1997 -0.4667 -0.3880
  258SOL    HW1  773   0.735   2.790   0.952  1.6335 -0.4575 -0.1911
  258SOL    HW2  774   0.574   2.727   0.962 -1.1150 -3.1264  0.5802
  259SOL     OW  775   1.479   0.344   2.798  0.0696  0.1218  0.1930
  259SOL    HW1  776   1.494   0.305   2.889 -1.2353  1.3821  0.0673
  259SOL    HW2  777   1.384   0.380   2.789 -0.6183 -2.5957  0.6316
  260SOL     OW  778   0.345   0.340   1.168  0.0687 -0.5079 -0.0638
  260SOL    HW1  779   0.249   0.335   1.131 -0.6523  0.8654  0.3036
  260SOL    HW2  780   0.409   0.295   1.104  0.4795  0.0910  1.7696
  261SOL     OW  781   0.499   0.057   2.361 -0.2094  0.3743  0.0916
  261SOL    HW1  782   0.494   0.062   2.257  0.7836 -1.0353  4.2121
  261SOL    HW2  783   0.580   0.108   2.393 -2.4910 -2.3814  1.3987
  262SOL     OW  784   0.963   2.563   1.906 -0.3788  0.0135  0.2447
  262SOL    HW1  785   0.934   2.548   1.807 -0.7543 -1.7054 -3.4233
  262SOL    HW2  786   0.889   2.563   1.977 -0.5703  1.2394  0.9604
  263SOL     OW  787   0.749   2.261   0.108  0.0796  0.2297  0.0664
  263SOL    HW1  788   0.845   2.223   0.099  2.0503  0.1374  1.3618
  263SOL    HW2  789   0.687   2.191   0.148  2.7087  0.9906 -1.4660
  264SOL     OW  790   1.748   1.679   1.158 -0.0883  0.6140 -0.1392
  264SOL    HW1  791   1.787   1.757   1.209 -0.2011 -0.4157 -0.0056
  264SOL    HW2  792   1.820   1.615   1.129  0.2413  1.1567  1.1053
  265SOL     OW  793   0.945   2.418   0.482 -0.1014 -0.1218 -0.1954
  265SOL    HW1  794   0.903   2.383   0.572  0.4904 -1.6248  0.2275
  265SOL    HW2  795   1.022   2.483   0.507  0.5225 -0.1511  2.2801
  266SOL     OW  796   2.820   0.987   0.745 -0.0445  0.3450  0.0290
  266SOL    HW1  797   2.763   0.906   0.779  1.2476 -1.3894  2.2431
  266SOL    HW2  798   2.918   0.979   0.766 -2.6873  1.6670 -3.4540
  267SOL     OW  799   0.243   1.430   0.033  0.5154 -0.1185  0.1738
  267SOL    HW1  800   0.297   1.401   0.113 -0.7519 -0.6682 -0.4884
  267SOL    HW2  801   0.248   1.530   0.015 -1.5799 -0.2043 -0.3453
  268SOL     OW  802   1.753   0.433   0.535  0.2446  0.2840 -0.2867
  268SOL    HW1  803   1.740   0.334   0.564  1.2342 -0.5790 -1.6738
  268SOL    HW2  804   1.822   0.473   0.600 -2.9180 -1.8047  1.3317
  269SOL     OW  805   3.060   0.689   2.401 -0.1190 -0.1916  0.5212
  269SOL    HW1  806   3.047   0.775   2.351  0.6588 -1.8853  2.8727
  269SOL    HW2  807   0.004   0.616   2.339 -0.4389  0.1894 -2.4514
  270SOL     OW  808   0.087   1.187   0.401 -0.3526  0.2995  0.0080
  270SOL    HW1  809   0.062   1.167   0.496  2.3657  1.1838 -0.2823
  270SOL    HW2  810   0.015   1.174   0.331 -0.0817  2.0263 -1.3180
  271SOL     OW  811   2.777   1.418   2.020  0.2407  0.2968 -0.4336
  271SOL    HW1  812   2.732   1.505   1.990 -0.5943  0.9485  1.7656
  271SOL    HW2  813   2.878   1.420   1.998 -1.7613 -0.5198 -0.4137
  272SOL     OW  814   2.257   2.349   1.782  0.1907  0.4396  0.2840
  272SOL    HW1  815   2.341   2.318   1.742 -0.1067 -0.6645  0.0986
  272SOL    HW2  816   2.275   2.388   1.875  2.3068  0.5958 -0.6860
  273SOL     OW  817   0.042   2.527   0.243  0.1348  0.3286  0.4175
  273SOL    HW1  818   0.132   2.507   0.279 -0.3354  1.6110  0.0942
  273SOL    HW2  819   0.019   2.466   0.172  2.0254  4.6278  1.0322
  274SOL     OW  820   0.840   2.286   0.726 -0.0255  0.5213 -0.6856
  274SOL    HW1  821   0.778   2.220   0.683  1.6627  1.8881  2.0845
  274SOL    HW2  822   0.875   2.251   0.815  0.0487  1.0562 -0.5736
  275SOL     OW  823   1.654   2.058   2.796  0.4412  0.6022 -0.0489
  275SOL    HW1  824   1.735   2.109   2.827 -0.6458  0.9244 -1.1759
  275SOL    HW2  825   1.674   1.989   2.725 -2.0074  2.8721  2.1500
  276SOL     OW  826   2.346   1.636   1.789  0.3516 -0.5624  0.5558
  276SOL    HW1  827   2.376   1.543   1.759  0.6948 -0.4172  1.6980
  276SOL    HW2  828   2.413   1.710   1.772 -0.1091 -1.7276  0.8058
  277SOL     OW  829   2.119   0.046   0.730  0.0052 -0.4488  0.3156
  277SOL    HW1  830   2.138   0.033   0.830  0.2116  1.5322 -3.7221
  277SOL    HW2  831   2.040   0.108   0.724  2.1658  1.5024  2.1698
  278SOL     OW  832   1.632   0.542   2.613  0.5117  0.1603  0.5144
  278SOL    HW1  833   1.571   0.490   2.679 -2.3247 -3.3683 -0.8172
  278SOL    HW2  834   1.631   0.643   2.627 -0.2681 -0.5792  1.1236
  279SOL     OW  835   1.115   2.776   1.072 -0.1407  0.1119 -0.2587
  279SOL    HW1  836   1.196   2.711   1.057  1.4226 -1.3088  1.2118
  279SOL    HW2  837   1.093   2.782   1.172  0.6976 -3.0332  0.1423
  280SOL     OW  838   1.387   1.146   0.438 -0.0134 -0.6595  0.2897
  280SOL    HW1  839   1.398   1.075   0.514 -1.2366 -0.7155  1.7644
  280SOL    HW2  840   1.478   1.159   0.390 -3.1805 -0.9534  1.5051
  281SOL     OW  841   2.318   1.795   0.340  0.3475  0.5100 -0.1861
  281SOL    HW1  842   2.416   1.814   0.319 -1.2900 -0.6961 -0.0277
  281SOL    HW2  843   2.309   1.779   0.441  1.5082 -1.8660  0.2227
  282SOL     OW  844   2.805   1.311   0.296  0.6997 -0.9773 -0.4681
  282SOL    HW1  845   2.810   1.226   0.345  1.9155  2.0930 -1.7511
  282SOL    HW2  846   2.896   1.345   0.268  1.2231  0.6122 -0.8996
  283SOL     OW  847   1.811   2.917   2.924  0.1168  0.5074 -0.0003
  283SOL    HW1  848   1.820   2.999   2.864 -0.4448  0.9227 -0.7065
  283SOL    HW2  849   1.798   2.945   3.022  1.5375  0.3217 -0.9682
  284SOL     OW  850   0.717   0.012   2.945  0.2944  0.2144 -0.2343
  284SOL    HW1  851   0.703   0.112   2.943  1.1675  1.3668 -0.2160
  284SOL    HW2  852   0.737   3.066   3.038 -0.5909  0.0562  0.5126
  285SOL     OW  853   1.907   1.743   2.904  0.9377  0.4490 -0.3617
  285SOL    HW1  854   1.821   1.789   2.902 -1.1228 -0.3618 -0.4775
  285SOL    HW2  855   1.966   1.768   2.827 -1.2377  2.9696 -1.2023
  286SOL     OW  856   1.775   2.030   1.499  0.3613  0.3230  0.1870
  286SOL    HW1  857   1.699   1.963   1.521 -2.4697  0.0374  0.9449
  286SOL    HW2  858   1.742   2.128   1.506  0.1677  1.6841 -1.8446
  287SOL     OW  859   1.648   0.129   1.547  0.5211  0.4715  0.2247
  287SOL    HW1  860   1.713   0.052   1.547 -3.8422  2.5234  1.0935
  287SOL    HW2  861   1.556   0.095   1.529 -0.4197 -1.9146  1.4046
  288SOL     OW  862   0.493   2.663   2.148 -0.0356 -0.6865 -0.3239
  288SOL    HW1  863   0.475   2.747   2.203  4.7454 -0.5555 -1.9526
  288SOL    HW2  864   0.405   2.630   2.114  0.8091 -0.2235 -1.0521
  289SOL     OW  865   0.386   1.850   0.817  0.0510  0.2681  0.4149
  289SOL    HW1  866   0.320   1.848   0.891 -0.1818 -0.9648 -0.2581
  289SOL    HW2  867   0.354   1.916   0.747  0.5172  0.3845  1.2018
  290SOL     OW  868   1.019   1.852   1.866 -0.2770  0.2197 -0.2041
  290SOL    HW1  869   0.975   1.857   1.961  2.2025  0.1036 -0.1312
  290SOL    HW2  870   1.080   1.932   1.850  2.5390  3.9321 -1.1554
  291SOL     OW  871   1.718   0.173   0.596 -0.4087  0.1184  0.4204
  291SOL    HW1  872   1.620   0.157   0.575 -2.2381  0.3988  1.1223
  291SOL    HW2  873   1.775   0.121   0.528  3.7084 -2.2245 -3.6187
  292SOL     OW  874   0.483   0.284   1.400 -0.1718  0.6646 -0.3871
  292SOL    HW1  875   0.511   0.369   1.446  0.2115  0.0188 -4.3096
  292SOL    HW2  876   0.415   0.300   1.323  0.6207 -3.1927 -0.1694
  293SOL     OW  877   2.292   1.739   0.947 -0.2620  0.3329  0.0389
  293SOL    HW1  878   2.351   1.752   1.032 -0.9251  2.0880  0.7915
  293SOL    HW2  879   2.335   1.660   0.896  1.8742 -0.5775 -0.3893
  294SOL     OW  880   0.267   0.184   2.430 -0.8386  0.4815  0.3617
  294SOL    HW1  881   0.201   0.165   2.357 -0.5519 -1.3648 -1.0395
  294SOL    HW2  882   0.352   0.133   2.410  0.3387 -0.3294  0.1357
  295SOL     OW  883   1.114   1.489   0.530  0.5242 -0.1357  0.2857
  295SOL    HW1  884   1.211   1.459   0.517 -0.7809  0.3341 -1.1925
  295SOL    HW2  885   1.060   1.478   0.443 -3.0554  2.4769  1.5502
  296SOL     OW  886   2.035   1.644   0.995 -0.4562  0.6313  0.2399
  296SOL    HW1  887   2.116   1.704   0.988 -2.1389 -0.5756  0.1063
  296SOL    HW2  888   2.051   1.556   0.948  1.0046  0.1561  3.1461
  297SOL     OW  889   1.867   0.552   2.770 -0.8792 -0.0436  0.0532
  297SOL    HW1  890   1.867   0.627   2.844  0.5038  0.1871  0.4900
  297SOL    HW2  891   1.782   0.557   2.719  2.4903  1.8068  3.1582
  298SOL     OW  892   1.244   0.011   2.611  0.2397 -1.0918 -0.4569
  298SOL    HW1  893   1.299   0.012   2.697 -1.2687 -2.3642 -0.4378
  298SOL    HW2  894   1.303   0.039   2.529  4.4975  0.1753 -0.6566
  299SOL     OW  895   0.906   0.485   1.919 -0.6147 -0.5901  0.1100
  299SOL    HW1  896   0.967   0.444   1.988  1.8016 -1.1162 -0.7464
  299SOL    HW2  897   0.897   0.421   1.838  0.0449  0.0137 -3.3145
  300SOL     OW  898   2.911   0.240   1.549 -1.0413 -0.3030  0.2098
  300SOL    HW1  899   2.974   0.310   1.514  0.4909 -1.3262  1.7860
  300SOL    HW2  900   2.947   0.206   1.636 -1.0794 -1.1161 -1.8958
  301SOL     OW  901   1.926   0.772   1.830  0.3227 -0.1447 -0.0257
  301SOL    HW1  902   1.872   0.854   1.807  1.4038  0.4110 -1.1223
  301SOL    HW2  903   1.898   0.686   1.781  2.5665 -4.4068 -0.8995
  302SOL     OW  904   0.767   3.002   0.108  0.0162  0.2408 -0.2714
  302SOL    HW1  905   0.734   3.053   0.193  1.7812  1.5451  2.3027
  302SOL    HW2  906   0.833   2.935   0.141 -1.9398  1.5275 -1.1148
  303SOL     OW  907   1.894   2.018   1.839 -0.6583 -0.3047 -0.5390
  303SOL    HW1  908   1.870   2.098   1.778  1.4072  0.0818  0.1604
  303SOL    HW2  909   1.913   1.934   1.782 -0.4520 -2.4439  1.4080
  304SOL     OW  910   0.229   0.070   0.739 -0.2207  0.4925  0.0929
  304SOL    HW1  911   0.249   0.082   0.640  0.9364 -1.5141  0.6668
  304SOL    HW2  912   0.301   0.009   0.772  0.0266  1.0463  1.6488
  305SOL     OW  913   1.280   0.888   0.370  0.5906 -0.1676  0.1624
  305SOL    HW1  914   1.352   0.938   0.316  0.2117 -1.0636 -0.7646
  305SOL    HW2  915   1.240   0.804   0.320 -3.9179 -2.4545 -2.9373
  306SOL     OW  916   0.685   1.597   0.119  0.1266 -0.0764  0.2685
  306SOL    HW1  917   0.707   1.514   0.178 -1.6823 -0.2022 -0.6657
  306SOL    HW2  918   0.773   1.650   0.097  1.0331  3.0305 -0.5430
  307SOL     OW  919   0.695   0.621   2.038  0.4434 -0.0524  0.3113
  307SOL    HW1  920   0.660   0.564   2.115  2.0733  1.3790 -0.1836
  307SOL    HW2  921   0.762   0.571   1.982  0.8480 -0.5712 -1.6097
  308SOL     OW  922   0.500   0.013   1.073  0.1998  0.0691 -0.1527
  308SOL    HW1  923   0.522   0.103   1.031 -1.3153  0.6831  0.2303
  308SOL    HW2  924   0.574   3.069   1.131 -0.3333  1.2935 -0.3134
  309SOL     OW  925   2.192   1.226   0.213 -0.1487 -0.8779  0.0495
  309SOL    HW1  926   2.241   1.220   0.304 -2.0311 -1.8308  1.6242
  309SOL    HW2  927   2.112   1.292   0.216 -1.1874  0.4190  2.7534
  310SOL     OW  928   1.186   1.415   3.020 -0.4809  0.3756  0.1472
  310SOL    HW1  929   1.267   1.463   2.978 -1.1815 -1.0426  0.3712
  310SOL    HW2  930   1.149   1.469   0.012  1.4774 -0.0958 -3.0903
  311SOL     OW  931   1.910   2.457   2.033  0.1746  0.2448  0.2397
  311SOL    HW1  932   1.915   2.355   2.039  1.0469  2.6470  1.2812
  311SOL    HW2  933   1.832   2.487   2.087 -0.4004  0.0478 -2.2241
  312SOL     OW  934   2.340   2.975   0.017  0.8130  0.4575 -0.6396
  312SOL    HW1  935   2.247   3.002   0.054 -2.8488  1.7481  2.2900
  312SOL    HW2  936   2.349   3.002   3.009 -1.8955 -1.3966  0.3340
  313SOL     OW  937   0.535   0.641   0.112 -0.3102 -0.2118  0.2271
  313SOL    HW1  938   0.543   0.620   0.013  0.5061 -0.0813 -0.1382
  313SOL    HW2  939   0.613   0.601   0.164  0.7525  0.7943  0.6567
  314SOL     OW  940   2.653   1.460   2.845 -0.8129 -0.7773  0.1447
  314SOL    HW1  941   2.590   1.527   2.801  1.0410  1.3250 -2.5071
  314SOL    HW2  942   2.744   1.508   2.845  0.0643  0.0281  0.7466
  315SOL     OW  943   1.638   0.738   2.155  0.3353  0.4767 -0.2025
  315SOL    HW1  944   1.657   0.637   2.144  1.4137 -0.6458 -0.7757
  315SOL    HW2  945   1.696   0.782   2.227  3.0565 -0.4526  0.0784
  316SOL     OW  946   0.027   1.182   0.698  0.0133  0.1731 -0.6069
  316SOL    HW1  947   3.078   1.096   0.741  2.6404 -0.7018 -2.3847
  316SOL    HW2  948   0.064   1.241   0.767 -0.1350 -0.3520 -0.4936
  317SOL     OW  949   0.670   0.043   0.319 -0.0111 -0.4677 -0.7097
  317SOL    HW1  950   0.625   0.118   0.274  1.2344 -1.9067  0.5604
  317SOL    HW2  951   0.620   0.018   0.403 -2.5566  1.0795  0.1894
  318SOL     OW  952   1.773   2.469   0.950 -0.1651 -0.5374 -0.4824
  318SOL    HW1  953   1.824   2.444   1.035  0.4192  2.5801 -0.5106
  318SOL    HW2  954   1.824   2.459   0.862  1.2283  0.0512 -2.5893
  319SOL     OW  955   1.366   1.397   0.504 -0.0481  0.2612 -0.1659
  319SOL    HW1  956   1.363   1.296   0.480  1.1892 -1.9621 -2.5514
  319SOL    HW2  957   1.445   1.437   0.460 -3.9813 -0.0539 -0.2979
  320SOL     OW  958   0.665   2.148   1.091 -0.1591  0.3150 -0.2919
  320SOL    HW1  959   0.583   2.200   1.065  1.5138 -2.0021 -0.4262
  320SOL    HW2  960   0.751   2.206   1.098  1.9130 -2.5569  1.7922
  321SOL     OW  961   2.266   2.430   2.039  0.4518  0.1503 -0.2783
  321SOL    HW1  962   2.210   2.351   2.080 -1.4973  0.7088  1.2013
  321SOL    HW2  963   2.252   2.513   2.097  1.5815  0.8663 -0.0203
  322SOL     OW  964   2.639   2.327   2.422 -0.8492  0.1570 -0.1241
  322SOL    HW1  965   2.704   2.358   2.351 -0.9686  0.2237 -1.3370
  322SOL    HW2  966   2.571   2.265   2.381  1.1566  1.1498 -2.6572
  323SOL     OW  967   2.602   0.723   0.681 -0.7963 -0.4025 -0.2548
  323SOL    HW1  968   2.531   0.790   0.703 -1.0658  1.3548  0.3761
  323SOL    HW2  969   2.565   0.638   0.632 -1.5635 -0.4418 -1.4911
  324SOL     OW  970   2.262   2.165   2.387 -0.4019  0.6295  0.2471
  324SOL    HW1  971   2.235   2.263   2.398  2.7525 -0.0237  4.1367
  324SOL    HW2  972   2.241   2.113   2.469 -0.9654 -0.2853 -1.4122
  325SOL     OW  973   1.212   0.528   2.536  0.1811 -0.2698  0.1716
  325SOL    HW1  974   1.123   0.566   2.504 -0.7631  2.3084 -0.5892
  325SOL    HW2  975   1.196   0.473   2.621 -0.7372  0.4674 -1.9071
  326SOL     OW  976   2.494   2.253   0.802 -0.4911  0.1717 -0.1369
  326SOL    HW1  977   2.501   2.354   0.798  1.7599  0.0080 -0.4281
  326SOL    HW2  978   2.471   2.233   0.900 -0.1001 -0.0769  0.2292
  327SOL     OW  979   2.754   3.021   0.073  0.8102 -0.4877  0.0887
  327SOL    HW1  980   2.667   3.071   0.053  0.3134  0.7998  1.8084
  327SOL    HW2  981   2.802   2.996   3.082 -1.2148  2.6918 -0.3587
  328SOL     OW  982   1.148   0.747   0.705  0.6338 -0.3836  0.0820
  328SOL    HW1  983   1.164   0.683   0.781  0.7424  2.0549 -1.1276
  328SOL    HW2  984   1.165   0.840   0.736 -0.8906 -0.6640  1.3162
  329SOL     OW  985   2.157   0.831   1.430  0.4504 -0.0890 -0.1501
  329SOL    HW1  986   2.189   0.915   1.376  0.6236  1.5197 -2.6837
  329SOL    HW2  987   2.231   0.804   1.496 -0.8656 -3.4417  1.6982
  330SOL     OW  988   0.963   0.668   0.498  0.6238 -0.2484 -0.5129
  330SOL    HW1  989   0.962   0.715   0.409 -0.4189 -1.2611 -1.2172
  330SOL    HW2  990   1.025   0.714   0.567  1.6064  0.2852  1.4186
  331SOL     OW  991   0.769   1.763   1.785  0.4008 -0.0721  0.0771
  331SOL    HW1  992   0.859   1.794   1.826 -2.1558  1.4643 -1.0401
  331SOL    HW2  993   0.791   1.725   1.696  1.9808  2.6748 -0.6666
  332SOL     OW  994   1.916   2.185   2.059 -0.1285  0.2035  0.1020
  332SOL    HW1  995   2.013   2.181   2.095 -2.6697  0.2141 -0.0178
  332SOL    HW2  996   1.901   2.131   1.974 -0.5416 -3.1147 -0.4782
  333SOL     OW  997   2.944   0.032   0.989 -0.2105 -0.4615 -0.0333
  333SOL    HW1  998   2.871   0.076   1.037 -0.7217 -3.5507 -1.2686
  333SOL    HW2  999   2.921   3.029   0.957  1.0073  0.6990 -2.9064
  334SOL     OW 1000   0.041   1.751   0.877 -0.3420 -0.2926 -0.0857
  334SOL    HW1 1001   0.099   1.676   0.841 -2.5502  2.2092  2.0181
  334SOL    HW2 1002   0.048   1.833   0.815  0.5942 -0.5266 -0.7656
  335SOL     OW 1003   0.489   2.686   2.817  0.2482  0.5903  0.0917
  335SOL    HW1 1004   0.546   2.611   2.773 -0.2346 -1.0278  1.2008
  335SOL    HW2 1005   0.519   2.777   2.789  1.6779 -3.2829  2.1126
  336SOL     OW 1006   0.173   2.705   1.851 -0.3324  0.1060 -0.6420
  336SOL    HW1 1007   0.108   2.663   1.786 -0.2121 -2.4820 -1.2362
  336SOL    HW2 1008   0.138   2.797   1.876  0.0801  2.3973  2.4026
  337SOL     OW 1009   1.245   1.984   2.208 -0.0750 -0.5346 -0.3923
  337SOL    HW1 1010   1.214   1.902   2.263 -0.3066 -2.9098  2.3600
  337SOL    HW2 1011   1.347   1.984   2.211 -0.0736 -0.1857  0.0757
  338SOL     OW 1012   1.000   0.078   2.530 -0.2660  0.1029 -0.7421
  338SOL    HW1 1013   0.957   3.075   2.510 -1.4794  0.4219 -0.0048
  338SOL    HW2 1014   1.096   0.072   2.564  2.9070 -1.3411  0.3002
  339SOL     OW 1015   0.128   1.193   2.705  0.1831  0.0986 -0.1532
  339SOL    HW1 1016   0.136   1.119   2.633  1.3316 -3.0641 -0.0007
  339SOL    HW2 1017   0.044   1.176   2.755  1.4371 -2.5770 -3.7368
  340SOL     OW 1018   2.032   0.587   1.351  0.4749 -0.1897 -0.5257
  340SOL    HW1 1019   2.082   0.676   1.362 -0.0130  2.5378 -0.8710
  340SOL    HW2 1020   2.029   0.563   1.249  0.4798 -2.3881 -4.4912
  341SOL     OW 1021   1.960   1.134   0.965 -0.3189  0.3288  0.5732
  341SOL    HW1 1022   1.971   1.090   0.874  0.4706  0.5204  0.5515
  341SOL    HW2 1023   1.900   1.077   1.022  0.8859  1.1748  0.7395
  342SOL     OW 1024   2.246   2.749   2.736  0.4751 -0.0198 -0.4274
  342SOL    HW1 1025   2.215   2.730   2.834 -0.6695 -0.3945  3.0369
  342SOL    HW2 1026   2.166   2.743   2.674  1.4313 -1.7770  1.2647
  343SOL     OW 1027   2.987   2.644   1.123  0.6424  0.5486 -0.2657
  343SOL    HW1 1028   3.079   2.607   1.140 -0.1377 -1.3342  0.0945
  343SOL    HW2 1029   2.918   2.592   1.175  1.2946  0.6818 -0.1867
  344SOL     OW 1030   2.356   2.754   0.847 -0.5989 -0.1397  0.1673
  344SOL    HW1 1031   2.443   2.808   0.823  0.3733  1.1970 -0.3172
  344SOL    HW2 1032   2.298   2.745   0.765 -0.0947 -2.0427  3.0953
  345SOL     OW 1033   2.436   2.330   0.202 -0.2028 -0.0143  0.0329
  345SOL    HW1 1034   2.531   2.298   0.167  2.9824  0.4429 -1.9391
  345SOL    HW2 1035   2.444   2.360   0.301 -0.3611  0.4282  0.3272
  346SOL     OW 1036   1.211   1.975   1.641  0.3393 -0.1666 -0.7413
  346SOL    HW1 1037   1.292   1.998   1.693  2.2537  0.9990 -0.8152
  346SOL    HW2 1038   1.231   1.916   1.561  2.3440 -0.2991 -0.7920
  347SOL     OW 1039   1.217   2.082   1.926 -0.0144 -0.3595 -0.1493
  347SOL    HW1 1040   1.230   2.050   2.023  0.2434 -0.9683  0.3472
  347SOL    HW2 1041   1.302   2.061   1.873 -0.3153  0.8219  1.8229
  348SOL     OW 1042   1.063   1.544   1.419 -0.2147 -0.4443 -0.0155
  348SOL    HW1 1043   1.025   1.477   1.487  0.1199 -1.6685 -0.2458
  348SOL    HW2 1044   0.999   1.621   1.408  0.4836 -1.6529  1.1969
  349SOL     OW 1045   1.684   1.321   1.487  0.4972 -0.2134 -0.2858
  349SOL    HW1 1046   1.700   1.316   1.586 -1.3930  0.4609  1.4262
  349SOL    HW2 1047   1.604   1.264   1.464  3.2217  1.0621  1.2005
  350SOL     OW 1048   2.246   2.378   0.590  0.7277  0.2158  0.7801
  350SOL    HW1 1049   2.330   2.407   0.541 -2.2944 -0.4343  0.0199
  350SOL    HW2 1050   2.173   2.338   0.532 -5.0020  1.3500 -3.3478
  351SOL     OW 1051   0.383   0.016   1.813 -0.0389  0.3215 -0.6138
  351SOL    HW1 1052   0.315   3.062   1.752  1.2680 -0.1336  1.0113
  351SOL    HW2 1053   0.335   0.034   1.903 -1.6582  0.1959  0.1333
  352SOL     OW 1054   0.644   1.128   0.332  0.0839  0.2478  0.1806
  352SOL    HW1 1055   0.639   1.132   0.435 -3.0776 -2.4289  1.2699
  352SOL    HW2 1056   0.557   1.086   0.297  0.9602  1.5606 -0.0886
  353SOL     OW 1057   1.047   1.805   2.765 -0.1272 -0.5213 -0.0106
  353SOL    HW1 1058   1.036   1.780   2.862  0.6156  1.9120 -0.5988
  353SOL    HW2 1059   0.962   1.834   2.719  1.7818  2.1851 -1.0981
  354SOL     OW 1060   1.632   2.803   1.936  0.3503 -0.2769  0.5295
  354SOL    HW1 1061   1.568   2.730   1.970  0.0299  0.1780  0.5482
  354SOL    HW2 1062   1.711   2.799   1.994 -2.6529  2.1186 -0.0086
  355SOL     OW 1063   2.360   1.071   0.041 -0.1634  0.1218 -0.4188
  355SOL    HW1 1064   2.364   1.101   3.033 -0.4142  0.4212  0.5884
  355SOL    HW2 1065   2.311   1.141   0.097  2.2328  4.8686  0.1379
  356SOL     OW 1066   0.332   2.220   1.256  0.9194 -0.0767 -0.5999
  356SOL    HW1 1067   0.306   2.123   1.256 -0.7090  1.2567 -0.6278
  356SOL    HW2 1068   0.281   2.268   1.179  0.1037 -0.2122  0.7542
  357SOL     OW 1069   2.923   2.905   1.757  0.1780  0.1731  0.4876
  357SOL    HW1 1070   2.877   2.816   1.733  0.2468 -0.5750 -0.7253
  357SOL    HW2 1071   2.948   2.949   1.667  0.6960 -2.2302  0.2472
  358SOL     OW 1072   2.368   1.888   1.475 -0.3784  0.0691  0.2106
  358SOL    HW1 1073   2.322   1.882   1.382 -2.3026 -1.0110 -2.0278
  358SOL    HW2 1074   2.438   1.813   1.483 -3.5207 -0.3558 -1.2208
  359SOL     OW 1075   1.949   2.479   2.463  0.2817  0.5271 -0.0033
  359SOL    HW1 1076   1.862   2.529   2.466 -0.3434  0.5675 -0.1732
  359SOL    HW2 1077   1.951   2.407   2.539  3.1078 -1.9336 -0.5298
  360SOL     OW 1078   1.102   2.924   0.843 -0.3486  0.3070 -0.0379
  360SOL    HW1 1079   1.012   2.945   0.806  0.1613 -1.1268  1.5467
  360SOL    HW2 1080   1.099   2.862   0.922 -2.6182 -1.5922  0.5021
  361SOL     OW 1081   1.891   0.211   0.816 -0.3059  0.9305  0.2882
  361SOL    HW1 1082   1.822   0.175   0.746  1.5804 -3.1526 -0.1955
  361SOL    HW2 1083   1.844   0.225   0.904 -1.3292 -0.8459 -1.7347
  362SOL     OW 1084   1.540   0.702   1.496 -0.0815  0.0213  0.1762
  362SOL    HW1 1085   1.617   0.635   1.481  1.1624  1.3415 -1.2248
  362SOL    HW2 1086   1.567   0.798   1.498 -1.1065  1.7076  2.0996
  363SOL     OW 1087   1.834   1.593   1.974 -0.1496  0.3491 -0.2308
  363SOL    HW1 1088   1.790   1.508   2.008 -0.7685 -2.2704 -0.0180
  363SOL    HW2 1089   1.931   1.575   1.944 -0.7858 -1.3900 -0.1248
  364SOL     OW 1090   0.638   0.630   1.322  0.0190 -0.0969  0.0762
  364SOL    HW1 1091   0.687   0.567   1.253 -0.9313 -0.3563 -1.3267
  364SOL    HW2 1092   0.588   0.699   1.263  0.5074  2.7055 -0.3839
  365SOL     OW 1093   0.408   0.277   2.631 -0.1198  1.0212 -0.1444
  365SOL    HW1 1094   0.395   0.375   2.666 -0.4294  1.6228 -0.6078
  365SOL    HW2 1095   0.370   0.260   2.538  0.2775 -2.1158 -1.9124
  366SOL     OW 1096   2.241   1.387   3.080 -0.6824 -0.1960 -0.3272
  366SOL    HW1 1097   2.252   1.487   0.017  0.9038 -2.0452 -0.3507
  366SOL    HW2 1098   2.228   1.335   0.077 -0.2127  0.9085 -2.6281
  367SOL     OW 1099   2.756   2.458   2.930 -0.0853 -0.3958 -0.4602
  367SOL    HW1 1100   2.774   2.558   2.949  0.1319 -0.0867  0.8389
  367SOL    HW2 1101   2.752   2.445   2.829  0.3426 -1.7791 -2.2579
  368SOL     OW 1102   0.120   1.334   0.891  0.0157 -0.9063  0.1253
  368SOL    HW1 1103   0.029   1.320   0.936  1.7615  0.8567 -0.5348
  368SOL    HW2 1104   0.150   1.435   0.896  0.8584  3.5878  2.3637
  369SOL     OW 1105   0.466   2.861   2.369 -0.1843 -0.2599  0.4244
  369SOL    HW1 1106   0.549   2.828   2.413  1.4552  0.2836 -1.3885
  369SOL    HW2 1107   0.481   2.959   2.355  0.0673 -3.1358  1.1050
  370SOL     OW 1108   3.055   0.608   0.804  0.0267  0.2092 -0.3008
  370SOL    HW1 1109   3.059   0.650   0.712  0.9292  1.5222  0.7390
  370SOL    HW2 1110   2.957   0.588   0.826 -2.3402  0.2612  1.7383
  371SOL     OW 1111   1.318   2.433   1.604 -0.1035 -0.4006  0.1790
  371SOL    HW1 1112   1.318   2.508   1.537 -2.6928 -3.1401  3.7311
  371SOL    HW2 1113   1.249   2.359   1.578  0.0226 -0.2373 -0.1010
  372SOL     OW 1114   2.692   0.232   2.466  0.0691 -0.0944 -0.0136
  372SOL    HW1 1115   2.661   0.136   2.455 -0.9340  1.3567 -0.8664
  372SOL    HW2 1116   2.792   0.229   2.491 -3.6105 -0.9862 -2.6295
  373SOL     OW 1117   0.129   2.170   0.622  0.0136  0.3140 -0.2566
  373SOL    HW1 1118   0.190   2.251   0.643  0.2055  2.4855 -2.0737
  373SOL    HW2 1119   0.099   2.181   0.527  1.4588  1.2637  0.0107
  374SOL     OW 1120   0.180   2.973   2.593 -0.3815 -0.3243  0.4251
  374SOL    HW1 1121   0.254   3.028   2.643  0.4820  0.7367  0.5226
  374SOL    HW2 1122   0.208   2.938   2.502 -0.2865  0.5039 -2.0550
  375SOL     OW 1123   0.677   0.278   2.723 -0.2130  0.0706  0.1697
  375SOL    HW1 1124   0.702   0.296   2.821  1.4967 -0.4351  2.5856
  375SOL    HW2 1125   0.577   0.260   2.709 -0.7565 -0.6641 -1.9327
  376SOL     OW 1126   2.754   2.246   1.940 -0.0964  0.2233 -0.0919
  376SOL    HW1 1127   2.712   2.263   2.032  1.1003 -0.7248 -1.1692
  376SOL    HW2 1128   2.853   2.271   1.934 -2.9979 -1.3166 -0.7607
  377SOL     OW 1129   1.339   3.033   2.860  0.2322 -0.4642  0.5867
  377SOL    HW1 1130   1.268   2.963   2.869 -2.9831  2.5789 -0.7755
  377SOL    HW2 1131   1.428   2.997   2.834 -0.9475  0.9555 -1.8010
  378SOL     OW 1132   2.901   0.515   2.544  0.0785 -0.0396  0.6645
  378SOL    HW1 1133   2.952   0.575   2.478  1.3916  1.6029 -0.9214
  378SOL    HW2 1134   2.938   0.422   2.532 -0.0817 -3.0677  1.0315
  379SOL     OW 1135   0.833   1.013   0.166  0.4879 -0.3505 -0.0774
  379SOL    HW1 1136   0.788   1.036   0.076  0.8620 -0.6429  0.1098
  379SOL    HW2 1137   0.777   1.041   0.247 -0.9132  0.6624 -0.3302
  380SOL     OW 1138   0.309   1.553   1.737 -0.2806  0.1313  0.3088
  380SOL    HW1 1139   0.334   1.649   1.753 -0.8038  0.0796 -0.9199
  380SOL    HW2 1140   0.367   1.508   1.668  0.7585  0.7813 -0.8014
  381SOL     OW 1141   2.983   1.244   2.403  0.3865  0.3776 -0.4031
  381SOL    HW1 1142   3.057   1.305   2.371 -0.8136 -0.9453 -1.1994
  381SOL    HW2 1143   2.935   1.297   2.479  2.1591  0.7447 -3.0776
  382SOL     OW 1144   2.073   1.967   0.343  0.6814  0.0563  0.2274
  382SOL    HW1 1145   2.128   2.055   0.340 -1.3081 -1.4062 -0.1041
  382SOL    HW2 1146   2.132   1.889   0.325 -1.7493  0.7092 -0.2152
  383SOL     OW 1147   0.578   2.049   0.204  0.3579  0.2581 -0.1564
  383SOL    HW1 1148   0.624   1.984   0.265 -0.1221  0.9937 -0.1304
  383SOL    HW2 1149   0.551   2.005   0.119  0.6497  1.4645 -2.5344
  384SOL     OW 1150   0.633   2.115   2.434  0.1071  0.0153  0.0799
  384SOL    HW1 1151   0.727   2.131   2.466  0.0944  0.8506  1.0011
  384SOL    HW2 1152   0.596   2.176   2.365  3.2542 -0.5498  2.2528
  385SOL     OW 1153   2.335   1.826   0.607 -0.2740 -0.0216  0.2763
  385SOL    HW1 1154   2.396   1.773   0.671 -1.1139 -2.6731  2.7319
  385SOL    HW2 1155   2.345   1.928   0.623 -1.4733 -0.7685  0.6909
  386SOL     OW 1156   2.231   1.049   1.147 -0.6405  0.4234  0.3020
  386SOL    HW1 1157   2.282   0.984   1.081 -0.4029 -3.4614 -1.6854
  386SOL    HW2 1158   2.263   1.146   1.141  2.0661  2.3182 -0.6087
  387SOL     OW 1159   3.024   1.026   2.081 -0.3297  0.0198  0.2811
  387SOL    HW1 1160   3.080   1.108   2.090 -1.7508  1.6323  1.2336
  387SOL    HW2 1161   3.042   0.968   2.002  0.4323 -1.2058  1.0099
  388SOL     OW 1162   0.489   1.764   2.140  0.1096  0.1294  0.1177
  388SOL    HW1 1163   0.551   1.839   2.109 -1.7515 -1.4859 -1.2935
  388SOL    HW2 1164   0.465   1.699   2.063  0.2871  1.9557 -0.4748
  389SOL     OW 1165   0.706   0.984   1.730 -0.0300  0.2459 -0.1484
  389SOL    HW1 1166   0.699   1.023   1.638 -1.5117 -0.2536  0.9446
  389SOL    HW2 1167   0.750   0.893   1.729 -2.1165 -2.7248 -0.2339
  390SOL     OW 1168   2.525   2.961   0.774 -0.2942 -0.2640  0.3905
  390SOL    HW1 1169   2.442   2.981   0.718  0.1753 -0.9126 -0.7189
  390SOL    HW2 1170   2.528   2.998   0.871 -1.7307  2.2897  3.4073
  391SOL     OW 1171   1.638   1.596   1.394  0.0430  0.4300  0.2235
  391SOL    HW1 1172   1.653   1.497   1.424  2.4247  1.4701 -0.5545
  391SOL    HW2 1173   1.649   1.614   1.293  0.1108  0.5689  2.4236
  392SOL     OW 1174   2.822   2.718   2.956  0.0656  0.8488 -0.2218
  392SOL    HW1 1175   2.830   2.817   2.948 -1.4397  2.7812 -0.0566
  392SOL    HW2 1176   2.899   2.681   3.011  0.8755  0.7169 -1.3424
  393SOL     OW 1177   1.574   2.532   2.834 -0.2995  0.2789  0.0931
  393SOL    HW1 1178   1.673   2.530   2.851 -0.7851  1.2836  0.4212
  393SOL    HW2 1179   1.548   2.596   2.759  2.1503  0.3726  0.6688
  394SOL     OW 1180   3.003   2.490   2.432 -0.2494  0.2053 -0.2453
  394SOL    HW1 1181   2.975   2.515   2.527 -1.0296 -0.9886 -2.5630
  394SOL    HW2 1182   2.928   2.445   2.378  0.5770 -0.5928  1.5586
  395SOL     OW 1183   3.058   0.397   0.595  0.0040 -0.2931  0.0134
  395SOL    HW1 1184   2.972   0.443   0.594 -2.1246 -0.6857 -0.6882
  395SOL    HW2 1185   3.072   0.336   0.678 -0.6836  2.4946  1.6117
  396SOL     OW 1186   2.140   0.528   0.572 -0.0093  0.0464  0.2625
  396SOL    HW1 1187   2.104   0.613   0.528 -0.8972  1.0183 -0.3106
  396SOL    HW2 1188   2.057   0.485   0.619 -1.3063  1.4215  4.8221
  397SOL     OW 1189   0.204   0.560   2.221  0.7004  0.0444 -0.4269
  397SOL    HW1 1190   0.282   0.493   2.202  2.3459 -1.3721  1.9801
  397SOL    HW2 1191   0.176   0.614   2.139  2.8374  2.6635 -1.6750
  398SOL     OW 1192   0.995   3.074   0.444  0.3285  0.1792 -0.3992
  398SOL    HW1 1193   1.067   0.040   0.391 -0.1052  0.3517 -0.0983
  398SOL    HW2 1194   0.937   0.049   0.499  1.5445  1.1839  1.0811
  399SOL     OW 1195   2.271   0.394   2.060 -0.7003  0.3017 -0.5338
  399SOL    HW1 1196   2.266   0.334   2.145  1.7995 -1.5968  0.5314
  399SOL    HW2 1197   2.253   0.487   2.086  0.4588 -1.8973 -1.6221
  400SOL     OW 1198   0.876   2.174   2.552  0.1689  0.7031 -0.0677
  400SOL    HW1 1199   0.972   2.208   2.550  0.5553  1.1703  0.7176
  400SOL    HW2 1200   0.854   2.155   2.651  1.6436 -1.4397 -0.1972
  401SOL     OW 1201   0.331   1.346   2.549  0.3051  0.2516 -0.1499
  401SOL    HW1 1202   0.378   1.423   2.596  0.8349 -3.6572 -1.8733
  401SOL    HW2 1203   0.256   1.304   2.610 -3.8415 -0.8374  1.1628
  402SOL     OW 1204   0.320   2.700   0.558 -0.0817 -0.4651 -0.0209
  402SOL    HW1 1205   0.296   2.630   0.484 -1.0578 -4.9180 -2.4744
  402SOL    HW2 1206   0.416   2.685   0.592  1.1811 -0.3008  1.3814
  403SOL     OW 1207   0.513   1.276   1.802  0.4408  0.9121 -0.4218
  403SOL    HW1 1208   0.573   1.213   1.861  2.5064 -0.7228  2.6370
  403SOL    HW2 1209   0.419   1.253   1.811  1.5461  0.4227  0.0414
  404SOL     OW 1210   2.505   2.317   2.066  0.0676 -0.4889 -0.2147
  404SOL    HW1 1211   2.571   2.392   2.039 -1.5846 -1.1506  1.3562
  404SOL    HW2 1212   2.410   2.336   2.031 -0.9992  1.9742 -0.5531
  405SOL     OW 1213   0.097   0.350   1.960 -0.1215 -0.1566  0.1148
  405SOL    HW1 1214   0.163   0.390   2.024 -1.3697  0.2395 -0.9787
  405SOL    HW2 1215   0.105   0.391   1.869 -1.4704 -1.7345 -1.3581
  406SOL     OW 1216   1.233   1.510   2.638  0.4024  0.7033  0.1583
  406SOL    HW1 1217   1.257   1.603   2.662 -3.1369 -3.3670  1.5046
  406SOL    HW2 1218   1.136   1.502   2.618 -0.0193  0.5021 -1.1015
  407SOL     OW 1219   1.894   0.975   2.797 -0.0465  0.2656  0.5266
  407SOL    HW1 1220   1.812   1.040   2.784 -3.2346  1.6822 -2.1451
  407SOL    HW2 1221   1.939   0.957   2.704  2.6814  0.0611  0.2941
  408SOL     OW 1222   0.179   2.854   2.341  0.6221  0.5923 -0.2502
  408SOL    HW1 1223   0.279   2.868   2.335  0.9341  1.7324 -1.3986
  408SOL    HW2 1224   0.164   2.755   2.314 -1.2669 -3.3983 -3.4039
  409SOL     OW 1225   0.081   2.275   1.103 -0.0628 -0.2505  0.3684
  409SOL    HW1 1226   3.083   2.267   1.044  1.2035 -0.7793 -0.0588
  409SOL    HW2 1227   0.063   2.354   1.169 -2.7046  2.8073  1.4844
  410SOL     OW 1228   2.804   1.652   0.394 -0.9955  0.1654 -0.2953
  410SOL    HW1 1229   2.849   1.744   0.414  0.2287  1.6654  3.6548
  410SOL    HW2 1230   2.864   1.593   0.340 -0.3864 -1.0859  0.9115
  411SOL     OW 1231   2.722   0.135   1.106 -0.4597  0.3026  0.1590
  411SOL    HW1 1232   2.685   0.153   1.202  0.4897  0.3195  0.7631
  411SOL    HW2 1233   2.756   0.220   1.063 -2.4589 -1.2445  2.8859
  412SOL     OW 1234   2.046   0.451   1.611 -0.0078  0.4490 -0.3827
  412SOL    HW1 1235   2.044   0.355   1.586 -0.9501  0.0507  3.8136
  412SOL    HW2 1236   2.048   0.509   1.526  0.3122 -1.1509 -0.9570
  413SOL     OW 1237   0.387   0.420   2.097 -0.2179  0.1155  0.0522
  413SOL    HW1 1238   0.427   0.427   2.002  1.6673 -0.4915 -1.1672
  413SOL    HW2 1239   0.450   0.387   2.167 -1.7864 -0.5687 -3.4331
  414SOL     OW 1240   3.085   1.055   2.945 -0.3608  0.0841 -0.7395
  414SOL    HW1 1241   0.001   1.144   2.991 -2.2569 -1.0874 -3.2780
  414SOL    HW2 1242   3.002   1.008   2.972  0.9353  1.5507  0.3978
  415SOL     OW 1243   0.769   2.714   3.040  0.0614 -0.2336  0.1627
  415SOL    HW1 1244   0.858   2.724   3.081 -3.6846 -0.2390 -1.6804
  415SOL    HW2 1245   0.711   2.798   3.048  0.3131  0.4803  1.3147
  416SOL     OW 1246   1.422   0.053   2.387 -0.2404  0.0180 -0.3561
  416SOL    HW1 1247   1.485   3.085   2.329 -2.0398 -1.0787  0.6925
  416SOL    HW2 1248   1.395   0.144   2.345  2.0226  1.1998  2.4074
  417SOL     OW 1249   0.451   0.672   0.912  0.4813 -0.4759  0.4416
  417SOL    HW1 1250   0.529   0.613   0.914  0.4893  0.8667  1.1904
  417SOL    HW2 1251   0.361   0.619   0.912 -3.3799  2.0529 -0.2328
  418SOL     OW 1252   2.739   0.007   0.646  0.5237 -0.1832  0.2638
  418SOL    HW1 1253   2.664   3.040   0.682  1.8252  4.1295  2.5790
  418SOL    HW2 1254   2.720   0.105   0.644  5.6871 -1.1822 -0.4840
  419SOL     OW 1255   0.290   2.924   0.403 -0.5549 -0.0044  0.0333
  419SOL    HW1 1256   0.332   2.902   0.313 -1.3514  1.6849  1.8514
  419SOL    HW2 1257   0.291   2.845   0.468 -1.1689  0.1438 -0.1617
  420SOL     OW 1258   0.247   1.195   1.810  0.0374  0.1855 -0.4881
  420SOL    HW1 1259   0.199   1.277   1.769 -2.4940 -1.4023 -1.6933
  420SOL    HW2 1260   0.229   1.112   1.751  0.9434 -2.4239  0.0728
  421SOL     OW 1261   1.872   2.429   0.695 -0.7530 -0.1938 -0.3698
  421SOL    HW1 1262   1.917   2.512   0.656  1.4569 -3.0616  2.0499
  421SOL    HW2 1263   1.832   2.368   0.624 -1.7794  0.0966 -2.3141
  422SOL     OW 1264   0.263   0.551   1.307 -0.0918  0.1090 -0.0941
  422SOL    HW1 1265   0.339   0.491   1.275  0.3196 -1.9056  0.9041
  422SOL    HW2 1266   0.299   0.645   1.334  0.1420  0.0225 -0.5980
  423SOL     OW 1267   0.957   1.436   1.791 -0.2130 -0.2030  0.0015
  423SOL    HW1 1268   1.025   1.492   1.738  1.8933  2.0406  0.7600
  423SOL    HW2 1269   0.919   1.489   1.870  1.3086 -0.7071 -0.3351
  424SOL     OW 1270   1.832   2.263   0.288  0.1594  0.4842  0.2246
  424SOL    HW1 1271   1.779   2.311   0.217  0.4647 -0.5298  0.5631
  424SOL    HW2 1272   1.837   2.162   0.261 -1.7698 -3.1543  1.5438
  425SOL     OW 1273   2.726   3.036   1.933 -0.3729  0.2699 -0.5986
  425SOL    HW1 1274   2.777   0.023   1.984  0.7811 -0.5187  0.3125
  425SOL    HW2 1275   2.793   2.990   1.876 -0.4908  1.2430 -0.9801
  426SOL     OW 1276   2.923   2.613   2.651  0.4947  0.1127  0.0128
  426SOL    HW1 1277   2.998   2.659   2.703  0.1794 -1.9495 -0.0499
  426SOL    HW2 1278   2.833   2.609   2.700 -2.1497  0.0675 -1.5791
  427SOL     OW 1279   1.098   0.465   0.324 -0.8547  0.1674  0.3954
  427SOL    HW1 1280   1.033   0.401   0.275 -3.0408 -2.7686 -2.8170
  427SOL    HW2 1281   1.042   0.527   0.384 -1.2888  1.8010 -3.4252
  428SOL     OW 1282   2.866   0.514   1.249 -0.0218  0.1927 -0.2979
  428SOL    HW1 1283   2.886   0.411   1.246 -0.4556  2.0401  0.1802
  428SOL    HW2 1284   2.785   0.545   1.203  5.1004 -1.4517  0.1676
  429SOL     OW 1285   2.066   3.058   0.990 -0.7183  0.4035 -0.0271
  429SOL    HW1 1286   1.976   3.026   0.966  1.7502  1.2219 -0.7013
  429SOL    HW2 1287   2.131   2.979   1.002  0.7680 -1.2548  0.6050
  430SOL     OW 1288   0.805   1.637   2.500  0.3119  0.2894  0.0794
  430SOL    HW1 1289   0.803   1.713   2.572  0.7772  0.6492 -0.4988
  430SOL    HW2 1290   0.720   1.637   2.445  0.0942  2.3652  0.2169
  431SOL     OW 1291   2.933   1.748   1.211  0.2280  0.0837 -0.9953
  431SOL    HW1 1292   2.944   1.760   1.310 -0.1193  2.8939 -2.1937
  431SOL    HW2 1293   2.931   1.836   1.166 -0.7067 -1.2224 -1.1018
  432SOL     OW 1294   1.319   2.659   2.451  0.2884 -1.1157  0.3855
  432SOL    HW1 1295   1.337   2.731   2.379  0.9957  1.0893 -0.5787
  432SOL    HW2 1296   1.326   2.561   2.423 -0.5470  0.7883  1.5366
  433SOL     OW 1297   1.587   0.344   2.429 -0.1165  0.5434  0.0248
  433SOL    HW1 1298   1.488   0.348   2.398  1.7930  2.0054 -0.3158
  433SOL    HW2 1299   1.608   0.427   2.481 -0.2521 -0.1894  0.6004
  434SOL     OW 1300   0.460   2.375   2.011  0.5185  0.4819 -0.0098
  434SOL    HW1 1301   0.531   2.403   1.941  1.8375 -1.3867 -0.5811
  434SOL    HW2 1302   0.375   2.434   2.016 -0.2387 -3.5999 -1.6672
  435SOL     OW 1303   0.265   0.113   0.449 -0.1674 -0.2630  0.0963
  435SOL    HW1 1304   0.184   0.176   0.436 -0.2911 -0.1262  2.0277
  435SOL    HW2 1305   0.257   0.029   0.396  1.2889 -0.7789  3.1919
  436SOL     OW 1306   0.464   1.213   2.365  0.0674  0.0412 -0.5416
  436SOL    HW1 1307   0.431   1.273   2.441 -1.5822  1.1500 -0.7410
  436SOL    HW2 1308   0.492   1.120   2.397  0.6544 -2.2672 -0.4643
  437SOL     OW 1309   0.589   2.485   2.644  0.3308  0.2165 -0.0751
  437SOL    HW1 1310   0.661   2.470   2.572 -1.2860  1.0930  0.6808
  437SOL    HW2 1311   0.529   2.402   2.650  1.1309  1.3214  0.2106
  438SOL     OW 1312   0.931   1.085   0.647 -0.4108  0.2220  0.3315
  438SOL    HW1 1313   0.984   1.128   0.725  0.1002  2.3546  1.6508
  438SOL    HW2 1314   0.986   1.078   0.561  0.8236  1.4345 -0.4518
  439SOL     OW 1315   2.580   1.449   2.247  0.1745 -0.1302 -0.2808
  439SOL    HW1 1316   2.660   1.412   2.196  3.8021  1.2055 -2.0376
  439SOL    HW2 1317   2.588   1.426   2.345 -0.2789 -0.5401 -0.6163
  440SOL     OW 1318   2.785   0.740   2.790  0.4839  0.1062 -0.1499
  440SOL    HW1 1319   2.812   0.773   2.696  1.9935 -1.6300  0.8875
  440SOL    HW2 1320   2.831   0.651   2.810  1.6106  0.3510 -1.8288
  441SOL     OW 1321   1.127   2.221   1.533 -0.0829 -0.1215 -0.4437
  441SOL    HW1 1322   1.033   2.257   1.530  2.7311 -0.1835 -1.8647
  441SOL    HW2 1323   1.139   2.128   1.583 -0.2249 -1.5044  3.2550
  442SOL     OW 1324   2.198   1.246   0.866 -0.1290 -0.4792  0.0881
  442SOL    HW1 1325   2.120   1.233   0.928  0.0175 -0.2406 -0.6346
  442SOL    HW2 1326   2.163   1.304   0.789 -1.4565  1.0271 -0.1623
  443SOL     OW 1327   2.359   2.111   2.878  0.2511 -0.0815  0.1095
  443SOL    HW1 1328   2.456   2.097   2.906 -0.5056 -2.3238 -2.4368
  443SOL    HW2 1329   2.330   2.205   2.886  1.9701 -0.6744 -0.1499
  444SOL     OW 1330   1.745   1.574   2.631  0.0814  0.0166 -0.6643
  444SOL    HW1 1331   1.774   1.575   2.535  0.4411 -1.1368  0.6385
  444SOL    HW2 1332   1.689   1.655   2.662 -0.8352  3.1995  0.9535
  445SOL     OW 1333   0.166   2.240   2.209  0.2871 -0.2595 -0.0738
  445SOL    HW1 1334   0.249   2.214   2.155  1.3417 -0.6254 -0.8879
  445SOL    HW2 1335   0.163   2.339   2.227  0.3753  2.6322 -1.4072
  446SOL     OW 1336   1.113   0.912   1.593 -0.1127 -0.1262  0.3359
  446SOL    HW1 1337   1.130   0.851   1.668 -1.0264  0.1252 -0.1974
  446SOL    HW2 1338   1.012   0.907   1.565 -1.0241 -1.7298  1.9561
  447SOL     OW 1339   1.090   1.076   0.429  0.1281 -0.0206  0.1557
  447SOL    HW1 1340   1.059   1.119   0.343 -1.3889 -0.2218  0.2343
  447SOL    HW2 1341   1.165   1.010   0.417  0.0169 -1.3130  1.7319
  448SOL     OW 1342   0.748   1.284   2.502  0.5134 -0.3223  0.7697
  448SOL    HW1 1343   0.781   1.375   2.540  1.4394  1.5112  2.3046
  448SOL    HW2 1344   0.661   1.286   2.440  0.1366 -1.9312 -0.5966
  449SOL     OW 1345   0.098   1.938   2.667  0.2905  0.1284 -0.0674
  449SOL    HW1 1346   0.159   1.984   2.598  1.6767  1.6098 -1.9220
  449SOL    HW2 1347   0.075   1.845   2.639  0.3693  2.5808  0.8317
  450SOL     OW 1348   2.102   1.591   1.897 -0.0472  0.3194  0.3434
  450SOL    HW1 1349   2.110   1.584   1.998  0.2753  1.4973  1.5101
  450SOL    HW2 1350   2.193   1.610   1.855  1.7648 -0.9998 -0.4898
  451SOL     OW 1351   2.725   1.360   1.348 -0.1378  0.0009 -0.1401
  451SOL    HW1 1352   2.750   1.430   1.274  1.7865  1.6597 -2.1631
  451SOL    HW2 1353   2.814   1.333   1.399 -0.0719  0.6319 -0.4844
  452SOL     OW 1354   0.848   1.191   1.096  0.3669  0.4586  0.5383
  452SOL    HW1 1355   0.836   1.092   1.083 -1.2659 -0.7166  1.6102
  452SOL    HW2 1356   0.920   1.209   1.164  0.0935  0.3781  1.0026
  453SOL     OW 1357   0.655   1.799   0.749 -0.4768  0.0057  0.0836
  453SOL    HW1 1358   0.560   1.818   0.786  0.8608  0.8077  0.3344
  453SOL    HW2 1359   0.666   1.700   0.734 -3.0630  1.6283  3.3228
  454SOL     OW 1360   1.082   1.588   0.126  0.0438 -0.5334  0.3238
  454SOL    HW1 1361   1.152   1.644   0.175  0.9702 -0.5859  0.8364
  454SOL    HW2 1362   1.024   1.542   0.194 -1.4208 -0.8083 -0.9004
  455SOL     OW 1363   1.738   0.493   1.225 -0.1438 -0.0629  0.1769
  455SOL    HW1 1364   1.733   0.498   1.328  0.9628  1.3889  1.8753
  455SOL    HW2 1365   1.647   0.516   1.181 -1.7568 -3.1271 -0.0700
  456SOL     OW 1366   1.669   2.718   0.903  0.6613 -0.2394  0.2502
  456SOL    HW1 1367   1.622   2.722   0.812 -1.3230  1.1400 -0.4957
  456SOL    HW2 1368   1.716   2.627   0.928  2.3015 -1.4417 -0.7883
  457SOL     OW 1369   2.113   0.700   2.732 -0.4262  0.0677  0.5719
  457SOL    HW1 1370   2.044   0.635   2.759 -0.9033  0.7843 -0.6464
  457SOL    HW2 1371   2.169   0.734   2.809 -0.9585  3.2672  0.1387
  458SOL     OW 1372   2.616   0.476   2.571  0.0333  0.3137  0.2648
  458SOL    HW1 1373   2.628   0.381   2.541  0.8877  0.7101  1.0623
  458SOL    HW2 1374   2.704   0.522   2.587 -1.6919 -0.8407 -0.7601
  459SOL     OW 1375   2.323   1.473   2.366 -0.2087 -0.1164  1.0794
  459SOL    HW1 1376   2.410   1.481   2.317 -1.9057  1.6343 -2.5731
  459SOL    HW2 1377   2.248   1.514   2.314 -0.0961 -0.9062 -0.9266
  460SOL     OW 1378   0.809   0.775   2.932  0.4804  0.3982  0.6693
  460SOL    HW1 1379   0.782   0.863   2.978  0.4776  0.4653  2.8409
  460SOL    HW2 1380   0.900   0.784   2.893 -0.4995  1.6806  2.4334
  461SOL     OW 1381   0.103   2.226   0.021 -0.2437  0.0286 -0.5490
  461SOL    HW1 1382   0.072   2.226   0.117 -1.1604  2.2900 -0.2869
  461SOL    HW2 1383   0.091   2.136   3.060 -0.5396 -0.5570 -0.6464
  462SOL     OW 1384   1.011   3.031   2.182 -0.0207 -0.4570 -0.1192
  462SOL    HW1 1385   0.974   2.969   2.253  0.5405 -0.9190  0.3063
  462SOL    HW2 1386   0.938   0.011   2.166  0.5139  0.7556  0.6571
  463SOL     OW 1387   1.659   2.248   2.156 -0.2764  0.2665 -0.3405
  463SOL    HW1 1388   1.603   2.164   2.171  1.1884  1.3444 -0.1353
  463SOL    HW2 1389   1.752   2.215   2.126 -0.3053  3.1288  0.0278
  464SOL     OW 1390   2.674   2.558   1.031  0.1759  0.4749  0.3905
  464SOL    HW1 1391   2.668   2.653   1.057  0.1081  2.4080  0.4300
  464SOL    HW2 1392   2.620   2.543   0.944 -0.8382  0.5264  3.0448
  465SOL     OW 1393   0.106   0.173   1.406  0.3355  0.3743 -0.0863
  465SOL    HW1 1394   0.091   0.087   1.459 -0.3579  0.4663 -0.0117
  465SOL    HW2 1395   0.180   0.155   1.344 -1.0297  0.4549 -0.3611
  466SOL     OW 1396   1.080   2.337   2.556  0.0693 -0.6595  0.8560
  466SOL    HW1 1397   1.083   2.421   2.616  0.6479  0.7013 -0.7431
  466SOL    HW2 1398   1.155   2.339   2.487  1.5297 -2.9738 -0.2732
  467SOL     OW 1399   0.006   2.201   0.280  0.4199 -0.2018  0.1959
  467SOL    HW1 1400   3.003   2.165   0.312  0.3142 -0.3077 -1.4475
  467SOL    HW2 1401   0.082   2.137   0.273 -2.4474 -0.2969 -0.6440
  468SOL     OW 1402   1.980   1.970   3.031 -0.2969  0.3905  0.7288
  468SOL    HW1 1403   1.975   1.877   2.988  0.6643 -1.0840 -1.0643
  468SOL    HW2 1404   2.068   1.980   3.087  2.8451  1.1683  1.4537
  469SOL     OW 1405   1.142   2.096   0.826 -0.5329  0.2800 -0.1957
  469SOL    HW1 1406   1.186   2.056   0.911  0.6013 -1.9279  2.7789
  469SOL    HW2 1407   1.215   2.129   0.759 -2.2917 -0.7864 -1.3731
  470SOL     OW 1408   1.933   0.723   0.968  0.1073 -0.3653 -0.2830
  470SOL    HW1 1409   1.838   0.759   0.950 -2.7604 -0.9772  0.6887
  470SOL    HW2 1410   1.971   0.767   1.053  1.6086  2.0501  2.2904
  471SOL     OW 1411   0.377   2.123   0.374  0.2501 -0.1879  0.0061
  471SOL    HW1 1412   0.459   2.099   0.322 -2.5202  1.9473  4.2106
  471SOL    HW2 1413   0.292   2.079   0.333  0.1683 -0.4964  1.5793
  472SOL     OW 1414   2.470   1.630   2.722 -0.6774  0.2455  0.4888
  472SOL    HW1 1415   2.507   1.683   2.643  2.4616 -0.8789  1.4829
  472SOL    HW2 1416   2.424   1.543   2.698  1.7305  0.9415 -2.2596
  473SOL     OW 1417   1.471   1.948   0.731 -0.2962 -0.1742  0.1186
  473SOL    HW1 1418   1.415   2.019   0.688 -3.6558  0.5001  1.4705
  473SOL    HW2 1419   1.528   1.986   0.806 -0.4669 -2.8013  1.4354
  474SOL     OW 1420   2.709   0.341   0.905 -0.4254  0.0333 -0.6357
  474SOL    HW1 1421   2.679   0.284   0.823 -1.5887 -3.4385 -2.3395
  474SOL    HW2 1422   2.736   0.437   0.880  2.0103 -0.1300 -1.2265
  475SOL     OW 1423   2.391   2.632   1.424  0.5955  0.1118 -0.0191
  475SOL    HW1 1424   2.353   2.626   1.517  3.0119  2.8238 -0.5943
  475SOL    HW2 1425   2.323   2.595   1.357 -1.1552  2.8032  1.2538
  476SOL     OW 1426   0.588   0.358   0.718 -0.0483  0.7265  0.1986
  476SOL    HW1 1427   0.524   0.360   0.638  1.2829  0.5450 -0.3331
  476SOL    HW2 1428   0.660   0.428   0.703 -0.1307 -3.3065 -0.4209
  477SOL     OW 1429   1.199   2.168   1.271 -0.1333  0.1139  0.0805
  477SOL    HW1 1430   1.233   2.261   1.248  1.2481 -2.3341 -0.8607
  477SOL    HW2 1431   1.167   2.178   1.366  1.7935  2.6467  2.4382
  478SOL     OW 1432   1.138   2.463   2.938 -0.5158 -0.2838 -0.7164
  478SOL    HW1 1433   1.121   2.505   2.845 -0.8840 -0.6600 -0.0501
  478SOL    HW2 1434   1.088   2.374   2.952  0.4557 -2.3845  0.1876
  479SOL     OW 1435   2.617   0.777   1.670  0.1131 -0.8967 -0.6844
  479SOL    HW1 1436   2.630   0.877   1.679  1.1246 -0.6150  2.0276
  479SOL    HW2 1437   2.672   0.740   1.597  1.3978  1.9915  2.3120
  480SOL     OW 1438   2.799   2.226   2.641 -0.4904 -0.4923 -0.0405
  480SOL    HW1 1439   2.874   2.283   2.682 -0.6958  0.9398 -1.4616
  480SOL    HW2 1440   2.747   2.267   2.562 -0.1848 -0.9701  0.2911
  481SOL     OW 1441   1.679   0.082   2.040  0.1837  0.0588 -0.6701
  481SOL    HW1 1442   1.779   0.070   2.052 -0.5790  1.7592  1.3501
  481SOL    HW2 1443   1.654   0.182   2.049  1.3363  0.3628  0.9084
  482SOL     OW 1444   1.495   2.295   2.734  0.6467 -0.0649  0.3155
  482SOL    HW1 1445   1.510   2.389   2.768 -1.1323 -1.2878  0.0778
  482SOL    HW2 1446   1.559   2.230   2.777  0.4337 -1.8841 -1.6030
  483SOL     OW 1447   1.065   2.575   2.697 -0.6867  0.1444  0.2233
  483SOL    HW1 1448   0.977   2.585   2.751 -1.9649  0.2006  4.1778
  483SOL    HW2 1449   1.069   2.655   2.631 -1.7231  0.9394 -0.5566
  484SOL     OW 1450   2.724   2.929   1.346 -0.4754 -0.2518  0.5498
  484SOL    HW1 1451   2.666   2.991   1.400  0.4730 -2.3428 -1.9658
  484SOL    HW2 1452   2.824   2.939   1.364 -1.7032 -1.9215  0.8139
  485SOL     OW 1453   1.996   0.727   0.450  0.0217  0.5093  0.0810
  485SOL    HW1 1454   1.922   0.782   0.496 -2.2925 -0.4450  2.7247
  485SOL    HW2 1455   2.017   0.765   0.357 -1.1443 -1.2592  1.9510
  486SOL     OW 1456   2.230   2.676   2.157  0.0406  0.0364  0.1939
  486SOL    HW1 1457   2.277   2.750   2.213  1.7019  1.0762  2.0655
  486SOL    HW2 1458   2.145   2.712   2.106 -3.4690  3.7232 -4.2616
  487SOL     OW 1459   1.551   0.616   0.446  0.0359 -0.2034  0.3214
  487SOL    HW1 1460   1.459   0.599   0.476  1.6972  0.6282 -1.8325
  487SOL    HW2 1461   1.620   0.574   0.505 -2.7604  0.7256 -2.3344
  488SOL     OW 1462   2.586   2.842   2.451  0.1512 -0.4473  0.4093
  488SOL    HW1 1463   2.597   2.776   2.376  0.2832  2.0577  1.3709
  488SOL    HW2 1464   2.497   2.840   2.492  4.5396  0.0899 -0.5053
  489SOL     OW 1465   1.592   0.032   0.342 -0.2336  0.0110 -0.1860
  489SOL    HW1 1466   1.520   0.080   0.399  0.4184  0.9498  2.9458
  489SOL    HW2 1467   1.625   3.030   0.385  1.5395 -5.4976  1.9479
  490SOL     OW 1468   1.811   0.379   0.049  0.1822  0.0699  0.1519
  490SOL    HW1 1469   1.838   0.411   0.141 -0.3429 -0.3030 -0.0661
  490SOL    HW2 1470   1.885   0.399   3.070  0.0171  0.9605  2.2433
  491SOL     OW 1471   0.612   2.792   1.199  0.6504 -0.4499 -0.3295
  491SOL    HW1 1472   0.626   2.846   1.288 -1.4123 -0.4384  4.5219
  491SOL    HW2 1473   0.697   2.792   1.149 -4.0508  0.7103  0.4928
  492SOL     OW 1474   1.569   2.740   0.640 -0.6708 -0.1345  0.3311
  492SOL    HW1 1475   1.588   2.650   0.590 -1.6527 -0.7747 -0.7794
  492SOL    HW2 1476   1.601   2.818   0.580  0.1024 -2.8904  0.0973
  493SOL     OW 1477   1.017   2.227   2.938  0.2947 -0.2518  0.3458
  493SOL    HW1 1478   1.089   2.198   2.874 -0.9062  4.1606  1.1280
  493SOL    HW2 1479   1.034   2.195   3.037 -0.0575  0.8572  0.7967
  494SOL     OW 1480   0.676   1.180   0.620  0.2710  0.7041  0.6721
  494SOL    HW1 1481   0.621   1.113   0.679  0.5366 -0.9751  2.1476
  494SOL    HW2 1482   0.774   1.153   0.624 -2.0169  0.3320  0.1489
  495SOL     OW 1483   2.678   0.435   1.512  0.6135 -0.1807  0.0527
  495SOL    HW1 1484   2.709   0.346   1.479 -0.3294  0.5222  2.4741
  495SOL    HW2 1485   2.722   0.517   1.469  0.7126  1.3857 -3.5194
  496SOL     OW 1486   2.218   2.462   2.408  0.0311  0.3392  0.7804
  496SOL    HW1 1487   2.250   2.541   2.355  2.7212  1.1389 -0.8794
  496SOL    HW2 1488   2.116   2.470   2.422 -1.0137  0.1597 -3.1310
  497SOL     OW 1489   1.683   1.336   2.798 -0.0117  0.3452  0.0484
  497SOL    HW1 1490   1.725   1.420   2.769  1.2437  0.3696 -1.3567
  497SOL    HW2 1491   1.701   1.310   2.895  2.9411  1.1403 -0.9241
  498SOL     OW 1492   0.990   2.256   0.959 -0.9124  0.1492 -0.5742
  498SOL    HW1 1493   1.053   2.193   0.904 -1.0123  2.2164  0.2166
  498SOL    HW2 1494   0.975   2.219   1.052  0.0605  0.2013 -0.8193
  499SOL     OW 1495   0.190   2.105   0.888 -0.4221 -0.1071 -0.4386
  499SOL    HW1 1496   0.169   2.118   0.787  0.7687  0.0040  1.4669
  499SOL    HW2 1497   0.133   2.163   0.946 -0.2310 -0.4895 -1.9234
  500SOL     OW 1498   1.119   2.711   0.229 -0.6903 -0.4289 -0.2881
  500SOL    HW1 1499   1.029   2.755   0.262 -1.9735 -0.1648 -1.9873
  500SOL    HW2 1500   1.195   2.767   0.264 -2.3462 -0.9309  0.0903
  501SOL     OW 1501   1.933   2.665   0.589 -0.2297  0.2155 -0.2276
  501SOL    HW1 1502   1.922   2.755   0.635  1.0834  2.9055 -0.2429
  501SOL    HW2 1503   1.880   2.669   0.499 -0.0323 -1.4288  0.5914
  502SOL     OW 1504   0.090   0.344   1.064 -0.4498 -0.5313 -0.3657
  502SOL    HW1 1505   0.016   0.352   1.135 -1.4565  1.6743 -0.3094
  502SOL    HW2 1506   0.068   0.307   0.975  0.5944  3.6114  0.7962
  503SOL     OW 1507   2.076   0.019   1.716 -0.1293 -0.5461 -0.1799
  503SOL    HW1 1508   2.067   0.095   1.787  0.5029  1.6617  0.2241
  503SOL    HW2 1509   2.158   3.046   1.735 -0.2279 -3.2784  3.3231
  504SOL     OW 1510   1.913   0.976   2.000 -0.7047 -0.5264  0.2770
  504SOL    HW1 1511   1.992   1.028   1.961  0.7967 -0.5329  1.4522
  504SOL    HW2 1512   1.921   0.879   1.973  0.4943  2.0977 -0.4319
  505SOL     OW 1513   1.795   2.910   2.394  0.5193  0.2413 -0.3315
  505SOL    HW1 1514   1.843   2.978   2.452 -0.5132 -1.1141  0.0638
  505SOL    HW2 1515   1.735   2.943   2.322 -0.2579  2.6062  2.0939
  506SOL     OW 1516   0.320   0.775   1.753  0.1292 -0.2328 -0.1825
  506SOL    HW1 1517   0.337   0.855   1.813  0.6729 -0.2993  0.1813
  506SOL    HW2 1518   0.407   0.730   1.721 -0.5044 -0.0954 -0.3601
  507SOL     OW 1519   1.885   0.438   0.293  0.1511 -0.0444 -0.2461
  507SOL    HW1 1520   1.833   0.478   0.376 -0.8266 -2.3788  0.6646
  507SOL    HW2 1521   1.983   0.436   0.312  0.9499 -1.4021 -0.8527
  508SOL     OW 1522   2.178   0.647   2.127  0.7744 -0.0030 -0.1623
  508SOL    HW1 1523   2.097   0.645   2.192  2.7793  0.1829  2.2841
  508SOL    HW2 1524   2.244   0.705   2.169 -1.5702 -2.4073 -3.4673
  509SOL     OW 1525   0.389   1.809   2.751  0.1013 -0.3957  0.0679
  509SOL    HW1 1526   0.409   1.871   2.834  0.5419 -3.2464 -0.5088
  509SOL    HW2 1527   0.408   1.857   2.664 -0.3091 -0.2860  0.4028
  510SOL     OW 1528   3.076   0.904   0.806  0.3330 -0.1972  0.4199
  510SOL    HW1 1529   3.048   0.843   0.725 -0.6593 -1.6087  0.1349
  510SOL    HW2 1530   0.058   0.865   0.868  1.7418  0.7383  0.4793
  511SOL     OW 1531   1.670   1.290   1.219 -0.1881  0.6763  0.2882
  511SOL    HW1 1532   1.707   1.326   1.308 -0.9029  1.8080 -0.2014
  511SOL    HW2 1533   1.723   1.320   1.135 -1.5301  0.5613 -1.0090
  512SOL     OW 1534   0.468   2.059   0.622  0.0064  0.5295  0.1183
  512SOL    HW1 1535   0.572   2.050   0.620 -2.6548  1.6138 -0.3689
  512SOL    HW2 1536   0.431   2.112   0.542 -0.2317  0.8227 -2.3099
  513SOL     OW 1537   0.573   2.475   0.828 -0.1680  0.1311 -0.2843
  513SOL    HW1 1538   0.525   2.528   0.902 -1.7544  0.5127 -2.7523
  513SOL    HW2 1539   0.560   2.378   0.839 -1.0457  1.2835 -2.4479
  514SOL     OW 1540   0.733   2.044   0.644  0.1852  0.1754  0.6187
  514SOL    HW1 1541   0.742   1.965   0.708  2.1012 -1.4328 -0.9501
  514SOL    HW2 1542   0.821   2.064   0.588  0.7139  1.0972  1.5474
  515SOL     OW 1543   0.314   0.030   0.124  0.2581 -0.0462 -0.0724
  515SOL    HW1 1544   0.345   3.018   0.134  1.4510 -2.6754 -1.7593
  515SOL    HW2 1545   0.213   0.033   0.109 -1.2618  0.0956  0.7359
  516SOL     OW 1546   1.884   3.045   1.255 -0.0132 -0.4650  0.2100
  516SOL    HW1 1547   1.858   0.055   1.283 -0.7365  0.5173 -1.1650
  516SOL    HW2 1548   1.944   3.041   1.176  0.4755 -2.1860  0.9678
  517SOL     OW 1549   1.781   1.589   0.677  0.4829  0.0232  0.7254
  517SOL    HW1 1550   1.720   1.632   0.609  1.6087 -1.0022 -0.7008
  517SOL    HW2 1551   1.817   1.657   0.742 -0.5721 -0.6361 -0.7575
  518SOL     OW 1552   1.496   2.776   1.096  0.0175  0.1286 -0.0640
  518SOL    HW1 1553   1.424   2.707   1.075 -2.1742  1.2889  3.7394
  518SOL    HW2 1554   1.568   2.786   1.016  1.4832 -0.8710 -3.2922
  519SOL     OW 1555   2.906   2.300   3.063 -0.3093  0.1821  0.2179
  519SOL    HW1 1556   2.990   2.339   3.022 -0.3531 -1.1677 -0.7933
  519SOL    HW2 1557   2.825   2.348   3.024 -1.4067  1.3695  1.0442
  520SOL     OW 1558   1.847   1.932   2.436  0.7395  0.3111  0.0623
  520SOL    HW1 1559   1.840   2.033   2.438 -0.8991 -2.0500 -1.9777
  520SOL    HW2 1560   1.886   1.900   2.347  0.3461 -0.8790 -0.2709
  521SOL     OW 1561   1.284   3.032   2.160 -0.1470 -0.0956 -0.7074
  521SOL    HW1 1562   1.320   3.062   2.251  0.3447 -2.1152  1.6690
  521SOL    HW2 1563   1.185   3.038   2.157 -0.7466 -3.6232 -0.2899
  522SOL     OW 1564   0.266   2.571   2.066 -0.3848  0.3542  0.0235
  522SOL    HW1 1565   0.201   2.609   2.000  0.2353 -2.3573 -0.3015
  522SOL    HW2 1566   0.223   2.572   2.158 -1.6423  2.6681  2.3086
  523SOL     OW 1567   0.990   2.238   1.881 -0.1184  0.2441  0.0085
  523SOL    HW1 1568   0.985   2.287   1.974  1.0404 -0.5897  2.9091
  523SOL    HW2 1569   1.065   2.171   1.893 -2.0432  0.2016  2.3769
  524SOL     OW 1570   2.285   2.135   0.314  0.2354 -0.0649 -0.6862
  524SOL    HW1 1571   2.324   2.051   0.281  0.1765  0.7866 -1.3629
  524SOL    HW2 1572   2.340   2.213   0.282 -0.1436 -0.8609 -0.7464
  525SOL     OW 1573   2.779   1.017   2.864 -0.6696 -0.1400  0.6977
  525SOL    HW1 1574   2.718   1.074   2.807 -0.9777  1.2399 -0.7355
  525SOL    HW2 1575   2.786   0.919   2.836  2.6238 -1.1709 -0.8551
  526SOL     OW 1576   0.229   2.817   0.924 -0.1309 -0.7288  0.6349
  526SOL    HW1 1577   0.184   2.755   0.860 -0.8868  0.5865  0.3596
  526SOL    HW2 1578   0.265   2.895   0.874 -1.1250 -0.2450 -0.9464
  527SOL     OW 1579   3.010   1.416   0.586  0.6011 -0.0056  0.3082
  527SOL    HW1 1580   3.035   1.330   0.636  1.2134 -0.4852  2.5614
  527SOL    HW2 1581   2.906   1.428   0.593 -1.7394  0.8619 -1.2262
  528SOL     OW 1582   0.587   0.990   2.413 -0.5531  0.2648  0.2090
  528SOL    HW1 1583   0.568   0.899   2.456  1.2810 -0.8579 -2.5768
  528SOL    HW2 1584   0.687   1.000   2.385  2.5721  0.7994 -0.5324
  529SOL     OW 1585   0.956   1.438   0.306 -0.0676  0.3559 -0.2511
  529SOL    HW1 1586   1.001   1.369   0.242 -1.4049  0.8316 -0.3941
  529SOL    HW2 1587   0.861   1.414   0.325  1.7810  0.9348 -0.5716
  530SOL     OW 1588   1.091   0.946   1.934 -0.0187  0.0873  0.2878
  530SOL    HW1 1589   1.148   0.875   1.899 -1.3875  0.5086  0.6357
  530SOL    HW2 1590   1.088   0.951   2.038 -0.6343 -0.0112  0.8279
  531SOL     OW 1591   1.005   2.161   0.117  0.0036  0.1011 -0.1156
  531SOL    HW1 1592   1.035   2.083   0.176  0.5342  1.7710 -0.5327
  531SOL    HW2 1593   1.029   2.247   0.162 -0.9759  0.4261  1.3411
  532SOL     OW 1594   2.375   0.840   2.200 -0.2478 -0.1179 -0.0815
  532SOL    HW1 1595   2.407   0.839   2.102 -1.0279  1.3437 -0.4559
  532SOL    HW2 1596   2.453   0.818   2.261 -4.4566 -2.3942 -1.5528
  533SOL     OW 1597   3.042   0.152   1.815  0.2001 -0.2636 -0.3123
  533SOL    HW1 1598   2.965   0.168   1.881 -1.8871  0.8189 -0.8332
  533SOL    HW2 1599   0.030   0.210   1.836 -0.9743 -2.5043 -0.4457
  534SOL     OW 1600   2.497   0.132   0.268 -0.0488 -0.0638 -0.3970
  534SOL    HW1 1601   2.572   0.188   0.296  0.4748 -0.1962  0.3281
  534SOL    HW2 1602   2.495   0.100   0.168 -1.9548 -1.4786  0.5083
  535SOL     OW 1603   0.504   0.209   0.156  0.3478  0.2683 -0.5159
  535SOL    HW1 1604   0.454   0.300   0.167 -1.5163  2.6178 -0.7842
  535SOL    HW2 1605   0.438   0.129   0.164  1.1505  0.1727 -0.8943
  536SOL     OW 1606   0.977   1.818   1.390 -0.2405 -0.1418  0.0983
  536SOL    HW1 1607   0.955   1.906   1.433 -0.3631 -0.0995  2.2754
  536SOL    HW2 1608   0.953   1.821   1.290 -2.4713  0.4644  2.1996
  537SOL     OW 1609   0.021   2.615   1.656 -0.2452  0.5363 -0.0355
  537SOL    HW1 1610   3.020   2.663   1.635 -3.1774 -0.1795  2.8190
  537SOL    HW2 1611   0.009   2.516   1.673  0.8062 -0.4657 -0.2885
  538SOL     OW 1612   0.514   2.343   0.364 -0.1952  0.0154  0.5480
  538SOL    HW1 1613   0.611   2.320   0.341  1.2566 -1.4096  0.4220
  538SOL    HW2 1614   0.454   2.262   0.361  0.4997  1.1633 -0.4944
  539SOL     OW 1615   1.996   1.290   2.292 -0.2642 -0.4130  0.1562
  539SOL    HW1 1616   1.973   1.242   2.380 -0.6248  0.7237  1.4217
  539SOL    HW2 1617   2.088   1.252   2.262 -1.6083 -0.9266 -1.2655
  540SOL     OW 1618   1.884   0.749   2.957  0.1224  0.4789  0.3609
  540SOL    HW1 1619   1.968   0.754   3.008 -2.1360 -2.1202  0.8238
  540SOL    HW2 1620   1.879   0.836   2.906  0.8910  0.1031 -0.6797
  541SOL     OW 1621   0.560   0.746   2.522 -0.2940  0.0339  0.5213
  541SOL    HW1 1622   0.461   0.727   2.521 -0.1875 -1.2742  2.1400
  541SOL    HW2 1623   0.589   0.767   2.616 -1.0273 -0.8978  0.7093
  542SOL     OW 1624   1.455   2.590   1.999  0.2176  0.3291 -0.0394
  542SOL    HW1 1625   1.396   2.517   2.031  2.5875  1.8987  0.8346
  542SOL    HW2 1626   1.477   2.591   1.896  0.5078 -1.5574 -0.5271
  543SOL     OW 1627   0.652   2.709   0.304 -0.3681 -0.2845  0.2581
  543SOL    HW1 1628   0.641   2.638   0.236  2.3680 -1.4209  0.2042
  543SOL    HW2 1629   0.639   2.663   0.396  2.6500  0.0824  0.6360
  544SOL     OW 1630   2.624   1.882   2.257 -0.3328  0.0991 -0.3365
  544SOL    HW1 1631   2.585   1.974   2.246  2.2141 -5.1498  0.0616
  544SOL    HW2 1632   2.722   1.884   2.285  1.1290  0.4675 -1.5375
  545SOL     OW 1633   1.365   1.512   1.840  0.0060 -0.6319  0.5244
  545SOL    HW1 1634   1.326   1.524   1.936 -1.7754 -2.6413  0.5148
  545SOL    HW2 1635   1.296   1.541   1.775  0.5409  2.7656  1.4781
  546SOL     OW 1636   2.965   0.227   2.517  0.3920  0.5300  0.0915
  546SOL    HW1 1637   2.984   0.139   2.557  1.4450 -0.6740 -1.6634
  546SOL    HW2 1638   3.048   0.264   2.471  1.1066  0.2563 -0.9858
  547SOL     OW 1639   1.286   0.141   1.122  0.0352  0.3430  0.0193
  547SOL    HW1 1640   1.340   0.220   1.151 -2.6344 -0.0825 -3.4438
  547SOL    HW2 1641   1.338   0.056   1.150 -1.1491  0.6728 -3.0712
  548SOL     OW 1642   1.275   1.953   3.058 -0.5105  0.0173 -0.5624
  548SOL    HW1 1643   1.310   1.993   0.053 -0.0640 -0.7916  1.3176
  548SOL    HW2 1644   1.245   2.028   2.991 -2.4057  2.5283 -0.9952
  549SOL     OW 1645   2.427   0.761   0.207  0.4483  0.5495  0.6390
  549SOL    HW1 1646   2.460   0.834   0.145  0.3669 -2.4297  1.2217
  549SOL    HW2 1647   2.375   0.804   0.280 -0.5906 -0.5253 -1.4311
  550SOL     OW 1648   2.707   2.108   0.843  0.0466  0.0824 -0.1628
  550SOL    HW1 1649   2.639   2.171   0.806  4.4600  1.2214  1.0428
  550SOL    HW2 1650   2.664   2.042   0.915 -0.1449 -1.2105  1.5268
  551SOL     OW 1651   0.930   0.341   1.272  0.0383 -0.1468 -0.7637
  551SOL    HW1 1652   0.858   0.272   1.296 -0.2718  0.8424  1.2005
  551SOL    HW2 1653   0.979   0.373   1.359 -1.0140  1.3079  1.5366
  552SOL     OW 1654   2.998   1.432   2.847  0.4451 -0.1598 -0.3591
  552SOL    HW1 1655   0.004   1.476   2.834  2.1504 -1.0496 -0.8825
  552SOL    HW2 1656   2.990   1.379   2.938  1.4550 -0.8001  0.5738
  553SOL     OW 1657   2.441   2.463   0.429 -0.4333  0.0090 -0.6805
  553SOL    HW1 1658   2.528   2.511   0.430  0.8776  0.2439 -1.2132
  553SOL    HW2 1659   2.370   2.518   0.374 -1.2222  0.5491 -0.8691
  554SOL     OW 1660   2.224   1.174   1.656  0.6330 -0.0544 -0.3990
  554SOL    HW1 1661   2.130   1.206   1.637  1.2159  0.6175  1.7963
  554SOL    HW2 1662   2.220   1.073   1.668 -1.8023  0.1686  0.4112
  555SOL     OW 1663   0.996   2.103   2.300 -0.5957 -0.4333  0.0705
  555SOL    HW1 1664   1.097   2.092   2.314 -1.8029  0.0700 -4.2399
  555SOL    HW2 1665   0.939   2.126   2.381 -2.6518 -0.5513 -2.2842
  556SOL     OW 1666   1.190   1.168   1.669  0.1329 -0.3439  0.0959
  556SOL    HW1 1667   1.214   1.196   1.763  1.2366  1.8869 -1.4123
  556SOL    HW2 1668   1.183   1.066   1.656  2.2986  1.2189  3.8788
  557SOL     OW 1669   1.147   0.146   1.369  0.1661 -0.0505  0.8160
  557SOL    HW1 1670   1.188   0.157   1.276  1.1329  0.2871 -3.1690
  557SOL    HW2 1671   1.105   0.233   1.403  1.2696 -1.7292 -0.0338
  558SOL     OW 1672   0.535   0.354   2.322  0.5075  0.0349  0.2162
  558SOL    HW1 1673   0.594   0.303   2.390 -0.8306  2.3522  0.5976
  558SOL    HW2 1674   0.559   0.458   2.325 -1.9432  0.2987  2.9356
  559SOL     OW 1675   1.352   2.846   0.275 -0.0801  0.6403 -0.3539
  559SOL    HW1 1676   1.375   2.867   0.372 -0.1751  1.6128  0.5623
  559SOL    HW2 1677   1.412   2.772   0.235  0.1459 -1.6735 -0.1761
  560SOL     OW 1678   1.406   2.084   0.158 -0.3475  0.2544  0.0408
  560SOL    HW1 1679   1.484   2.020   0.187 -1.8044  1.0421 -0.4675
  560SOL    HW2 1680   1.445   2.175   0.142  2.3101 -2.9785  1.2037
  561SOL     OW 1681   1.439   0.240   0.843 -0.1311  0.2770  0.7276
  561SOL    HW1 1682   1.503   0.160   0.864  0.4147  2.4170  0.5143
  561SOL    HW2 1683   1.347   0.218   0.880 -0.2939 -1.5815 -0.4679
  562SOL     OW 1684   0.566   0.884   2.106 -0.1431  0.2974 -0.4354
  562SOL    HW1 1685   0.607   0.792   2.086  0.0877  0.3392 -0.0218
  562SOL    HW2 1686   0.627   0.962   2.077  1.0890  1.6517 -1.5644
  563SOL     OW 1687   1.246   2.150   2.788  0.2737  0.3823 -0.8705
  563SOL    HW1 1688   1.208   2.100   2.706 -0.6524 -1.0500 -1.2044
  563SOL    HW2 1689   1.317   2.216   2.757 -0.5013  2.1608 -0.4554
  564SOL     OW 1690   2.747   0.817   1.049  0.0420 -0.3041 -0.0451
  564SOL    HW1 1691   2.767   0.888   1.118  0.4753  1.6250 -0.9050
  564SOL    HW2 1692   2.641   0.804   1.042 -2.0211 -2.0692  1.3683
  565SOL     OW 1693   1.223   1.157   3.084  0.0925 -0.2415 -0.3693
  565SOL    HW1 1694   1.219   1.249   3.040 -0.4220 -0.1890  0.5981
  565SOL    HW2 1695   1.315   1.119   0.006 -1.0511  0.8432  1.1057
  566SOL     OW 1696   2.149   2.714   2.989 -0.2363  0.1337 -0.3029
  566SOL    HW1 1697   2.114   2.805   3.011  1.2434  0.5180 -0.2879
  566SOL    HW2 1698   2.162   2.640   3.063  1.1845  0.6083 -0.5665
  567SOL     OW 1699   1.576   1.034   1.209 -0.1173  0.1392 -0.1323
  567SOL    HW1 1700   1.602   1.134   1.198 -0.4244  0.5811  1.2340
  567SOL    HW2 1701   1.566   1.003   1.304 -0.8984 -1.1258  3.9401
  568SOL     OW 1702   1.461   1.383   2.545  0.3344 -0.4254  0.5787
  568SOL    HW1 1703   1.385   1.442   2.576 -1.1662  0.2493 -1.0998
  568SOL    HW2 1704   1.533   1.375   2.615 -3.4767  0.6593 -0.2775
  569SOL     OW 1705   2.087   1.702   0.669 -0.5561  0.0556  0.3849
  569SOL    HW1 1706   2.161   1.768   0.657  0.1233 -1.9823  0.1847
  569SOL    HW2 1707   2.006   1.752   0.716 -0.0603  2.5621  1.9108
  570SOL     OW 1708   2.493   2.125   2.253  0.3672  0.6327 -0.6408
  570SOL    HW1 1709   2.501   2.210   2.196 -1.6110  1.6910 -1.0438
  570SOL    HW2 1710   2.395   2.109   2.289  1.2024  1.3251  1.4311
  571SOL     OW 1711   2.537   1.881   1.747 -0.1511  0.0066  0.1447
  571SOL    HW1 1712   2.575   1.906   1.839 -1.4227  0.7275  0.6905
  571SOL    HW2 1713   2.531   1.961   1.689 -1.2010 -0.8841 -0.1582
  572SOL     OW 1714   1.371   2.553   3.009  0.0483 -0.2657 -0.4656
  572SOL    HW1 1715   1.277   2.523   2.976  0.0453 -1.6344 -0.4511
  572SOL    HW2 1716   1.439   2.562   2.931 -0.0970  0.6648 -1.4177
  573SOL     OW 1717   1.920   1.861   1.305 -0.0687 -0.6061  0.6428
  573SOL    HW1 1718   1.909   1.953   1.344 -1.0745 -1.8308 -0.6576
  573SOL    HW2 1719   1.913   1.793   1.379 -0.6474  0.0352 -1.9972
  574SOL     OW 1720   1.089   2.798   1.354  0.1340 -0.1860 -0.2037
  574SOL    HW1 1721   1.019   2.729   1.384  0.7828 -2.0693  2.2085
  574SOL    HW2 1722   1.069   2.895   1.389 -0.0933  2.8121  4.7146
  575SOL     OW 1723   0.814   0.641   0.906  0.3208  0.0394  0.3406
  575SOL    HW1 1724   0.912   0.624   0.894 -0.2281  2.5464 -0.6395
  575SOL    HW2 1725   0.778   0.729   0.863  0.8396 -0.5324  0.9582
  576SOL     OW 1726   2.455   0.407   1.314 -0.1262 -0.4329  0.0747
  576SOL    HW1 1727   2.496   0.458   1.235 -0.1643 -0.4610 -0.3872
  576SOL    HW2 1728   2.512   0.409   1.394 -2.4643  1.6918 -1.7798
  577SOL     OW 1729   2.380   0.312   2.552 -0.3134  0.3458  0.3655
  577SOL    HW1 1730   2.468   0.362   2.565  1.3050 -1.7226 -1.5295
  577SOL    HW2 1731   2.302   0.371   2.521  3.4102 -1.2184 -0.8399
  578SOL     OW 1732   1.830   1.859   2.051 -0.1324  0.1677  0.0368
  578SOL    HW1 1733   1.811   1.761   2.021  1.1518 -1.3280  0.3415
  578SOL    HW2 1734   1.864   1.921   1.974 -1.5866  1.0352  0.3925
  579SOL     OW 1735   0.702   1.659   1.250 -1.0780  0.2704 -0.0157
  579SOL    HW1 1736   0.774   1.664   1.175  2.3703  0.5527  1.1786
  579SOL    HW2 1737   0.636   1.584   1.240  0.0330  2.7293  0.6247
  580SOL     OW 1738   1.510   2.704   2.636  0.2513  0.6423 -0.0046
  580SOL    HW1 1739   1.424   2.701   2.581 -0.5408  0.3282  1.4742
  580SOL    HW2 1740   1.539   2.798   2.659  0.0779  0.0880 -0.9377
  581SOL     OW 1741   0.565   0.609   2.300  0.5858 -0.1342  0.3261
  581SOL    HW1 1742   0.585   0.663   2.384  0.4572  2.7773  0.6718
  581SOL    HW2 1743   0.480   0.646   2.253 -2.2846  0.8333  0.0960
  582SOL     OW 1744   0.529   0.735   0.640  0.1831  0.3692  0.1442
  582SOL    HW1 1745   0.616   0.682   0.635  0.2157 -0.4306  1.4960
  582SOL    HW2 1746   0.488   0.721   0.733 -1.7893 -0.0874 -0.5493
  583SOL     OW 1747   0.784   1.567   1.994  0.2508 -0.0497 -0.4735
  583SOL    HW1 1748   0.719   1.518   2.057 -1.0036 -3.7284  1.1720
  583SOL    HW2 1749   0.741   1.642   1.942  0.4601 -0.4643 -1.1129
  584SOL     OW 1750   2.311   2.653   0.295  0.1216 -0.3596 -0.2788
  584SOL    HW1 1751   2.223   2.704   0.298 -2.2900 -0.5609 -2.4084
  584SOL    HW2 1752   2.360   2.675   0.204 -0.3190  0.1945  1.5600
  585SOL     OW 1753   2.283   0.766   2.939 -0.0666  0.2833 -0.0610
  585SOL    HW1 1754   2.378   0.800   2.961  1.2009  0.1981 -0.3431
  585SOL    HW2 1755   2.223   0.781   3.020  1.0397 -0.7715  1.4253
  586SOL     OW 1756   0.692   1.852   0.336 -0.0170 -0.0800 -0.2385
  586SOL    HW1 1757   0.629   1.778   0.363 -0.1306  2.6737  0.4902
  586SOL    HW2 1758   0.789   1.836   0.366 -0.4354 -0.1059 -0.1307
  587SOL     OW 1759   1.608   2.050   0.951 -0.0974  0.2892  0.3806
  587SOL    HW1 1760   1.708   2.046   0.966 -2.2103  0.0876  2.0190
  587SOL    HW2 1761   1.569   2.108   1.024  1.1875 -2.8914 -1.9014
  588SOL     OW 1762   0.565   0.281   0.988 -0.1196 -0.3717 -0.4935
  588SOL    HW1 1763   0.626   0.350   1.045 -1.4452 -0.3348  0.5115
  588SOL    HW2 1764   0.568   0.311   0.891  1.3267 -2.0389 -2.4163
  589SOL     OW 1765   1.444   3.031   1.202 -0.0768 -0.5190  0.5202
  589SOL    HW1 1766   1.446   2.936   1.171 -2.2624  0.9339 -2.2387
  589SOL    HW2 1767   1.440   3.051   1.305  0.2497  0.4270  0.9706
  590SOL     OW 1768   1.466   0.991   0.200 -0.1994 -0.3125  0.4194
  590SOL    HW1 1769   1.536   0.918   0.228  2.4044 -1.2353 -1.6677
  590SOL    HW2 1770   1.476   1.014   0.101 -3.0675  1.3833 -1.9237
  591SOL     OW 1771   2.159   2.185   2.142 -1.1931 -0.2835 -0.4118
  591SOL    HW1 1772   2.186   2.140   2.230  2.0127 -0.0478  1.6305
  591SOL    HW2 1773   2.187   2.131   2.059 -2.6120  1.6664 -3.7048
  592SOL     OW 1774   1.461   1.996   1.378  0.3030  0.0832  0.2680
  592SOL    HW1 1775   1.523   1.928   1.424 -0.4598  0.9095 -1.2928
  592SOL    HW2 1776   1.367   1.959   1.356  0.6548 -2.0482 -1.0838
  593SOL     OW 1777   0.899   0.221   0.592 -0.1046 -0.1842 -0.0887
  593SOL    HW1 1778   0.811   0.198   0.640  0.2544  0.4745 -0.9314
  593SOL    HW2 1779   0.950   0.302   0.637  2.6637  2.4298  0.7376
  594SOL     OW 1780   0.142   0.723   2.007  0.0529 -0.2216 -0.0534
  594SOL    HW1 1781   0.080   0.773   1.942  1.2435 -1.2172  0.6489
  594SOL    HW2 1782   0.237   0.743   1.977  1.4796  1.6763 -0.6122
  595SOL     OW 1783   2.927   2.765   0.690  0.3888 -0.1367  0.2830
  595SOL    HW1 1784   2.900   2.817   0.606 -1.3194  2.3122 -1.1449
  595SOL    HW2 1785   2.884   2.798   0.772  1.5959 -0.0026 -0.8237
  596SOL     OW 1786   0.090   0.433   1.481 -0.2637  0.3058 -0.0156
  596SOL    HW1 1787   0.155   0.473   1.417 -4.2498 -0.0239  2.1943
  596SOL    HW2 1788   0.086   0.331   1.468 -1.3453 -0.2531 -0.1897
  597SOL     OW 1789   2.273   1.052   0.639 -0.4731 -0.1390  0.1334
  597SOL    HW1 1790   2.306   1.126   0.573 -0.6560  0.3988 -1.8973
  597SOL    HW2 1791   2.194   1.076   0.702 -0.0320  0.1346 -0.4583
  598SOL     OW 1792   0.607   0.195   1.759 -0.1265 -0.2443  0.2920
  598SOL    HW1 1793   0.535   0.125   1.758 -0.0801 -1.8200 -0.3719
  598SOL    HW2 1794   0.566   0.283   1.791 -1.2652 -1.4277 -1.8666
  599SOL     OW 1795   2.744   1.603   0.059  0.4370  0.2496 -0.3066
  599SOL    HW1 1796   2.844   1.637   0.059  1.6428 -0.9654 -0.2745
  599SOL    HW2 1797   2.719   1.556   0.145 -0.8217 -1.2836  0.1486
  600SOL     OW 1798   1.046   0.998   2.925 -0.1265  0.2987 -0.5817
  600SOL    HW1 1799   0.978   1.057   2.879  0.3253  1.4988  0.8585
  600SOL    HW2 1800   1.105   1.054   2.994 -2.0304 -0.3334  3.2286
  601SOL     OW 1801   1.122   1.205   2.644 -0.0308  0.5667  0.2351
  601SOL    HW1 1802   1.135   1.305   2.624  2.3970  5.0540 -1.8464
  601SOL    HW2 1803   1.036   1.193   2.695  4.9369  3.3001 -1.5806
  602SOL     OW 1804   1.097   3.016   1.526  0.1664  0.3155 -0.3814
  602SOL    HW1 1805   1.180   2.971   1.564  0.6740  2.8914 -1.4729
  602SOL    HW2 1806   1.120   0.004   1.464 -1.4375 -1.6315 -2.5128
  603SOL     OW 1807   0.908   2.926   2.401  0.0234 -0.2475  0.2551
  603SOL    HW1 1808   0.806   2.901   2.425 -3.4448  0.7226  2.1173
  603SOL    HW2 1809   0.967   2.868   2.458  0.0899 -1.2561 -1.4787
  604SOL     OW 1810   2.872   0.125   2.069 -0.2114  0.3400  0.1022
  604SOL    HW1 1811   2.865   0.220   2.102  0.7236  0.5244 -0.2377
  604SOL    HW2 1812   2.877   0.062   2.147 -0.5521 -1.3319 -2.3638
  605SOL     OW 1813   2.449   2.267   1.370  0.2683 -0.6049  0.5039
  605SOL    HW1 1814   2.474   2.201   1.444 -0.4612  0.1528  0.0432
  605SOL    HW2 1815   2.369   2.327   1.396 -0.3423 -1.7573 -1.1707
  606SOL     OW 1816   2.839   1.753   2.876 -0.2066 -0.1586 -0.2924
  606SOL    HW1 1817   2.883   1.823   2.817  1.9934 -0.0505  1.1860
  606SOL    HW2 1818   2.890   1.728   2.960 -0.0707  0.2278  0.0670
  607SOL     OW 1819   1.079   0.359   0.745 -0.1092  0.1537  0.2186
  607SOL    HW1 1820   1.136   0.437   0.769  0.0205  0.8731 -1.3871
  607SOL    HW2 1821   1.118   0.269   0.770  1.8165  2.7643 -1.7464
  608SOL     OW 1822   1.514   1.501   2.286 -0.3605  0.1944  0.2025
  608SOL    HW1 1823   1.480   1.449   2.366  2.0220  3.2121 -0.5909
  608SOL    HW2 1824   1.599   1.555   2.302 -1.9277 -0.3659 -2.5033
  609SOL     OW 1825   2.776   0.601   0.873 -0.1690  0.2555 -0.4303
  609SOL    HW1 1826   2.758   0.661   0.953 -0.2336 -2.3232  0.7267
  609SOL    HW2 1827   2.728   0.635   0.791  1.0488 -1.6802  1.1641
  610SOL     OW 1828   0.674   2.527   0.105  0.0495 -0.3469  1.0426
  610SOL    HW1 1829   0.716   2.595   0.042  1.5462 -0.9661  1.1488
  610SOL    HW2 1830   0.728   2.440   0.103  2.1241  1.4369 -0.4737
  611SOL     OW 1831   2.023   1.240   0.533  0.1185 -0.5252 -0.0533
  611SOL    HW1 1832   2.090   1.207   0.465  1.7759  2.4375  2.0379
  611SOL    HW2 1833   2.037   1.342   0.543  0.0391  1.4303  1.2134
  612SOL     OW 1834   0.791   2.427   2.470  0.2605 -0.1149  0.1980
  612SOL    HW1 1835   0.819   2.340   2.511  0.5403 -0.3552 -0.6881
  612SOL    HW2 1836   0.863   2.456   2.411 -2.4267 -1.5857  1.1336
  613SOL     OW 1837   1.371   1.648   0.177  0.6945 -0.6919 -0.0019
  613SOL    HW1 1838   1.423   1.596   0.244 -1.5029  1.2037 -0.1231
  613SOL    HW2 1839   1.331   1.728   0.219  0.0896  2.0642  1.7948
  614SOL     OW 1840   2.534   2.268   1.724  0.8646  0.3323  0.0538
  614SOL    HW1 1841   2.534   2.192   1.656 -1.0817 -2.1231  1.4320
  614SOL    HW2 1842   2.611   2.250   1.790  3.8824 -0.2287  0.8307
  615SOL     OW 1843   2.578   1.322   0.005 -0.3360 -0.1628  0.3822
  615SOL    HW1 1844   2.652   1.368   3.034  2.2122  0.2146 -1.8357
  615SOL    HW2 1845   2.485   1.342   3.061 -0.3320 -1.4029  0.9765
  616SOL     OW 1846   1.607   0.075   0.995 -0.5256 -0.2138 -0.1861
  616SOL    HW1 1847   1.659   0.159   1.032 -0.2542  0.5219  0.6547
  616SOL    HW2 1848   1.543   0.034   1.066 -1.8150 -1.0342 -1.1833
  617SOL     OW 1849   0.879   1.182   2.780  0.0368  0.1422  0.1457
  617SOL    HW1 1850   0.798   1.171   2.718 -0.3545  0.6898 -1.4307
  617SOL    HW2 1851   0.879   1.270   2.823  1.1421  0.9801  0.9774
  618SOL     OW 1852   0.519   0.515   1.519 -0.2394 -0.5005  0.2017
  618SOL    HW1 1853   0.554   0.552   1.607  0.3954 -0.6948 -0.7490
  618SOL    HW2 1854   0.538   0.580   1.440 -1.6938  0.2396  1.2220
  619SOL     OW 1855   3.011   0.827   1.472  0.1999  0.3750 -0.4104
  619SOL    HW1 1856   3.061   0.777   1.399 -1.5929  0.1027 -0.0700
  619SOL    HW2 1857   2.985   0.769   1.548  1.3571  3.4731  0.0858
  620SOL     OW 1858   1.960   1.220   3.013 -0.2412 -0.1244 -0.0120
  620SOL    HW1 1859   2.049   1.212   2.962 -1.2145  0.7381 -1.0612
  620SOL    HW2 1860   1.943   1.319   3.027 -0.6430 -2.1311  0.5386
  621SOL     OW 1861   2.305   3.074   1.207 -0.5958  0.3797 -0.5385
  621SOL    HW1 1862   2.389   3.058   1.150  3.1314  3.4068  0.5631
  621SOL    HW2 1863   2.293   0.083   1.232  0.0663 -1.3209  3.8700
  622SOL     OW 1864   1.379   0.624   2.160  0.7581  0.9460  0.4475
  622SOL    HW1 1865   1.459   0.674   2.134 -3.3783 -0.2387  1.2262
  622SOL    HW2 1866   1.367   0.625   2.266  0.8109  1.3744 -0.0727
  623SOL     OW 1867   0.973   0.517   2.752 -0.1148  0.0087  0.2820
  623SOL    HW1 1868   0.874   0.496   2.744  0.2717 -2.1256  1.5761
  623SOL    HW2 1869   0.992   0.618   2.762  0.4874 -0.0775 -2.1635
  624SOL     OW 1870   1.941   0.483   0.737 -0.0638 -0.6449 -0.0493
  624SOL    HW1 1871   1.893   0.534   0.810  2.9855  1.4669 -0.4797
  624SOL    HW2 1872   1.939   0.384   0.754  1.7998  2.7398 -1.8070
  625SOL     OW 1873   0.918   1.540   0.743  0.0048 -0.0416 -0.1160
  625SOL    HW1 1874   0.966   1.597   0.809 -2.5642 -1.7671 -1.1740
  625SOL    HW2 1875   0.987   1.488   0.688 -0.3737  1.0520 -1.5482
  626SOL     OW 1876   1.655   1.080   2.711  0.1239  0.2136 -0.2031
  626SOL    HW1 1877   1.663   1.184   2.722 -0.6043  1.5641 -0.4062
  626SOL    HW2 1878   1.555   1.058   2.711 -0.8169 -0.5686 -0.1031
  627SOL     OW 1879   0.846   0.294   1.716  0.1547 -0.0946 -0.5030
  627SOL    HW1 1880   0.751   0.259   1.731 -2.0994  1.4437  1.7682
  627SOL    HW2 1881   0.875   0.277   1.622  0.9990 -1.3459  2.7732
  628SOL     OW 1882   2.174   0.519   2.452 -0.1127 -0.1164  0.2536
  628SOL    HW1 1883   2.094   0.575   2.429 -0.5067  0.7027  4.7101
  628SOL    HW2 1884   2.227   0.576   2.515 -1.6287 -0.2554 -0.3603
  629SOL     OW 1885   0.962   1.443   2.877 -0.0281  0.5148 -0.1896
  629SOL    HW1 1886   1.050   1.430   2.934  4.7689 -0.1503  0.9151
  629SOL    HW2 1887   0.890   1.507   2.920 -1.9398 -0.2335  2.5648
  630SOL     OW 1888   1.061   0.318   2.379 -0.2638 -0.0066 -0.9218
  630SOL    HW1 1889   1.015   0.390   2.434  0.4283  0.1867  0.8055
  630SOL    HW2 1890   1.051   0.227   2.418  0.1518  2.1262  0.2909
  631SOL     OW 1891   2.627   1.217   1.117 -0.1471 -0.2154 -0.0122
  631SOL    HW1 1892   2.661   1.288   1.184  0.2108  1.1646 -1.6412
  631SOL    HW2 1893   2.567   1.254   1.048  2.8433 -1.4517  0.9888
  632SOL     OW 1894   2.398   1.570   0.770 -0.3464  0.1521 -0.0648
  632SOL    HW1 1895   2.489   1.612   0.752  0.3665  0.3402 -2.3191
  632SOL    HW2 1896   2.355   1.542   0.680 -0.3920  0.2465 -2.1604
  633SOL     OW 1897   1.087   1.315   0.801  0.3748  0.7307 -0.3488
  633SOL    HW1 1898   1.146   1.322   0.885  3.7278 -0.0491 -0.3657
  633SOL    HW2 1899   1.133   1.354   0.724 -3.6747 -1.5051  1.1346
  634SOL     OW 1900   1.824   2.954   0.931 -0.2250  0.3671 -0.0760
  634SOL    HW1 1901   1.755   3.027   0.951  0.1455  0.9533 -2.4495
  634SOL    HW2 1902   1.787   2.861   0.947 -1.2172 -0.2940 -2.0450
  635SOL     OW 1903   1.762   0.548   1.482  0.0825 -0.4025 -0.1131
  635SOL    HW1 1904   1.854   0.557   1.447 -0.6825  0.7183 -0.5083
  635SOL    HW2 1905   1.757   0.492   1.568  1.8810 -1.0594  0.1592
  636SOL     OW 1906   1.422   0.933   0.603 -0.2181  0.4416 -0.2973
  636SOL    HW1 1907   1.369   0.943   0.684  0.6681 -1.1579 -2.1710
  636SOL    HW2 1908   1.360   0.897   0.535 -3.0815  2.9040 -0.2857
  637SOL     OW 1909   1.489   2.346   0.105  0.0443  0.0729  0.4676
  637SOL    HW1 1910   1.414   2.383   0.052  1.2919 -0.6503  1.6702
  637SOL    HW2 1911   1.577   2.351   0.049  1.5308 -0.1862  1.6176
  638SOL     OW 1912   1.129   2.904   2.943 -0.5291 -0.0219  0.0769
  638SOL    HW1 1913   1.097   2.819   2.983  1.0333 -0.2127  1.3619
  638SOL    HW2 1914   1.064   2.946   2.878 -0.2909  3.0677  0.0209
  639SOL     OW 1915   1.237   1.793   1.428 -0.5504 -0.4462  0.2605
  639SOL    HW1 1916   1.298   1.765   1.348  0.5618 -0.1342 -3.1393
  639SOL    HW2 1917   1.136   1.785   1.397 -0.7822  1.4380  1.0148
  640SOL     OW 1918   0.430   2.859   0.180 -0.2639  0.4527  0.4793
  640SOL    HW1 1919   0.402   2.816   0.089 -0.4476 -0.1688 -0.0894
  640SOL    HW2 1920   0.518   2.814   0.216  2.8127 -0.8243  0.8527
  641SOL     OW 1921   0.089   0.330   0.123  0.1286 -0.2566  0.3270
  641SOL    HW1 1922   0.065   0.283   0.211 -0.3034 -1.1034  1.1443
  641SOL    HW2 1923   0.189   0.370   0.120  3.7398  0.4846 -0.4822
  642SOL     OW 1924   0.430   1.603   1.147  0.6613 -0.1435  0.1576
  642SOL    HW1 1925   0.437   1.703   1.135  1.2112 -1.8018  1.1858
  642SOL    HW2 1926   0.341   1.580   1.198  0.4966  0.1420  2.9386
  643SOL     OW 1927   0.441   1.915   2.512 -0.2400 -0.0005 -0.1746
  643SOL    HW1 1928   0.516   1.981   2.484  1.3131 -0.4365  1.6176
  643SOL    HW2 1929   0.348   1.932   2.480  2.3143 -1.5443 -1.9489
  644SOL     OW 1930   1.536   2.543   0.300  0.6106 -0.0764  0.1305
  644SOL    HW1 1931   1.497   2.462   0.243  2.1899  0.7771 -1.9124
  644SOL    HW2 1932   1.533   2.532   0.403  1.3500  0.2255  0.6955
  645SOL     OW 1933   1.767   2.219   1.708  0.3296 -0.6616 -0.2887
  645SOL    HW1 1934   1.677   2.204   1.752 -0.5488 -0.1085  1.9852
  645SOL    HW2 1935   1.783   2.316   1.691 -0.4851 -1.7281  2.2240
  646SOL     OW 1936   0.889   2.844   0.305 -0.1200 -0.4148 -0.1834
  646SOL    HW1 1937   0.898   2.931   0.364 -0.9110  2.6151  1.9609
  646SOL    HW2 1938   0.799   2.797   0.319 -0.4360  0.9942  3.5880
  647SOL     OW 1939   0.242   0.124   2.045  0.1726 -0.2559 -0.3391
  647SOL    HW1 1940   0.194   0.209   2.004 -1.9365  1.2035 -1.8048
  647SOL    HW2 1941   0.186   0.093   2.125 -2.1501 -0.6079  1.8508
  648SOL     OW 1942   2.741   1.221   0.867  0.3138 -0.5228 -0.3967
  648SOL    HW1 1943   2.762   1.136   0.815 -3.2763  0.7405 -1.4784
  648SOL    HW2 1944   2.694   1.207   0.953  2.9341  0.9029 -0.7537
  649SOL     OW 1945   2.025   2.756   2.585  0.2793  0.0427  0.0488
  649SOL    HW1 1946   1.994   2.714   2.499  0.7313  0.4537 -1.2875
  649SOL    HW2 1947   1.993   2.852   2.590 -3.8085 -2.2975  0.5965
  650SOL     OW 1948   2.382   1.375   1.685  0.7691 -0.0304 -0.1043
  650SOL    HW1 1949   2.313   1.304   1.684  2.1464  5.0653  1.3268
  650SOL    HW2 1950   2.471   1.337   1.699 -3.2626  0.9859  0.7896
  651SOL     OW 1951   1.283   1.764   2.652  0.0175 -0.0003 -0.5175
  651SOL    HW1 1952   1.191   1.793   2.675 -0.0834  0.1734 -1.1557
  651SOL    HW2 1953   1.353   1.790   2.727  1.0220 -0.5007 -0.4907
  652SOL     OW 1954   0.711   2.789   2.559 -0.2969 -0.0844 -0.2473
  652SOL    HW1 1955   0.753   2.698   2.575 -2.7520  0.4709 -2.7534
  652SOL    HW2 1956   0.688   2.841   2.643  1.4665  0.7061  3.7060
  653SOL     OW 1957   2.237   2.005   0.873  0.1155  0.4478 -0.0417
  653SOL    HW1 1958   2.244   1.901   0.867  1.5683 -2.2861  0.3196
  653SOL    HW2 1959   2.311   2.052   0.934  3.5282  2.0652  2.4987
  654SOL     OW 1960   2.493   2.850   2.041  0.3516  0.1978 -0.2234
  654SOL    HW1 1961   2.440   2.929   2.080 -0.0449  1.8936  2.8584
  654SOL    HW2 1962   2.567   2.889   1.988  0.5308 -0.2108 -1.4271
  655SOL     OW 1963   2.812   2.153   1.405  0.3960  0.7374  0.9614
  655SOL    HW1 1964   2.764   2.206   1.324 -3.3580  2.8519 -1.5300
  655SOL    HW2 1965   2.901   2.115   1.378 -1.6275  0.8885 -0.9112
  656SOL     OW 1966   2.543   1.706   3.002 -0.0652  0.2315  0.4340
  656SOL    HW1 1967   2.517   1.704   2.901 -2.5824  0.9064 -1.0980
  656SOL    HW2 1968   2.628   1.658   3.029 -1.3264 -1.2049 -1.8109
  657SOL     OW 1969   0.351   1.160   0.448  0.3516 -0.1721 -0.2335
  657SOL    HW1 1970   0.250   1.182   0.433 -1.4118  2.1026 -2.3248
  657SOL    HW2 1971   0.363   1.061   0.467  1.5704 -0.5110  2.0985
  658SOL     OW 1972   1.343   1.480   1.455 -0.3294  0.1864  0.1587
  658SOL    HW1 1973   1.410   1.547   1.420  3.6691  0.8822 -1.4721
  658SOL    HW2 1974   1.251   1.526   1.456  1.3153  0.1594  1.3826
  659SOL     OW 1975   0.764   3.069   1.187  0.1813  0.0487 -0.2884
  659SOL    HW1 1976   0.796   0.050   1.118  1.6437  0.7823  0.9781
  659SOL    HW2 1977   0.781   0.015   1.277 -1.2542 -0.0881  0.8895
  660SOL     OW 1978   2.455   0.818   1.043  0.3933 -0.1215  0.0277
  660SOL    HW1 1979   2.437   0.842   0.946  0.0132  0.4371  1.7095
  660SOL    HW2 1980   2.389   0.751   1.080  5.2387 -0.9811  0.4463
  661SOL     OW 1981   0.435   1.707   0.003 -0.0912 -0.2298 -0.1105
  661SOL    HW1 1982   0.490   1.658   0.069 -1.4134  0.2084 -2.2787
  661SOL    HW2 1983   0.489   1.787   3.060 -1.6352 -3.0493 -2.7677
  662SOL     OW 1984   2.507   0.861   1.961  0.0352 -0.3227  0.1408
  662SOL    HW1 1985   2.607   0.857   1.943 -1.6409  0.2928 -1.2647
  662SOL    HW2 1986   2.463   0.932   1.905  0.2434 -1.0932  1.9718
  663SOL     OW 1987   2.016   1.284   1.210  0.3558 -0.1986  0.6345
  663SOL    HW1 1988   1.975   1.236   1.133 -0.5078  0.9433 -0.7574
  663SOL    HW2 1989   2.114   1.314   1.186  0.8311 -0.2741  0.7371
  664SOL     OW 1990   0.284   0.012   1.250  0.5183 -0.0469  0.0367
  664SOL    HW1 1991   0.351   3.087   1.175 -1.4201  1.2000 -0.2618
  664SOL    HW2 1992   0.202   3.036   1.231  1.7773 -1.1794 -1.1501
  665SOL     OW 1993   1.588   0.233   3.036  0.0590  0.3807  0.4581
  665SOL    HW1 1994   1.667   0.286   3.066  0.8993 -0.4612 -0.8065
  665SOL    HW2 1995   1.586   0.134   3.072 -0.3170 -2.2576  3.2075
  666SOL     OW 1996   0.488   0.052   2.099 -0.0759  0.4019 -0.0880
  666SOL    HW1 1997   0.393   0.090   2.084 -2.1265  0.6088  2.3849
  666SOL    HW2 1998   0.510   3.073   2.022 -1.3782  1.1226 -0.2568
  667SOL     OW 1999   1.743   1.328   1.764  0.3611 -0.1931 -0.0075
  667SOL    HW1 2000   1.844   1.308   1.785 -1.1091 -0.0668 -0.1990
  667SOL    HW2 2001   1.694   1.367   1.846 -1.8923 -0.9895  0.9459
  668SOL     OW 2002   0.031   1.591   2.348 -0.0794  0.5749 -0.1219
  668SOL    HW1 2003   0.086   1.507   2.357 -0.1777  0.2438 -3.1962
  668SOL    HW2 2004   0.004   1.603   2.253 -0.1187 -1.3435  1.9109
  669SOL     OW 2005   2.457   2.738   0.083  0.6273 -0.1017  0.0385
  669SOL    HW1 2006   2.530   2.767   0.144 -1.1360 -4.4387 -0.9868
  669SOL    HW2 2007   2.399   2.814   0.055  0.1458  0.3984  2.1809
  670SOL     OW 2008   2.677   1.186   1.969 -0.1023 -0.3164  0.0756
  670SOL    HW1 2009   2.710   1.107   2.025  1.9507 -0.9642  1.5212
  670SOL    HW2 2010   2.710   1.275   2.008  0.4913 -2.1079  1.6222
  671SOL     OW 2011   2.628   1.844   0.336 -0.0756  0.0277 -0.0477
  671SOL    HW1 2012   2.682   1.759   0.338  1.9279  0.6543 -0.8994
  671SOL    HW2 2013   2.622   1.883   0.433 -1.7613  1.0616  2.7450
  672SOL     OW 2014   1.274   1.194   2.141  0.4712  0.3063 -0.7256
  672SOL    HW1 2015   1.288   1.226   2.045 -2.2936 -0.1464  0.5286
  672SOL    HW2 2016   1.216   1.109   2.138 -0.5097  0.1109 -2.5450
  673SOL     OW 2017   2.896   1.853   1.494 -0.1190  0.3311  0.2917
  673SOL    HW1 2018   2.866   1.946   1.486  1.9944 -2.7351  2.9966
  673SOL    HW2 2019   2.983   1.840   1.544 -3.1958 -1.0285 -0.5310
  674SOL     OW 2020   1.164   1.641   1.692 -0.4455 -0.2338 -0.0935
  674SOL    HW1 2021   1.161   1.673   1.594  0.2794 -0.4993  1.1956
  674SOL    HW2 2022   1.115   1.706   1.755 -0.2282  1.3674 -1.7549
  675SOL     OW 2023   0.109   0.818   1.049  0.6508  0.4002 -0.0331
  675SOL    HW1 2024   0.056   0.790   1.134 -0.0640  0.1889  1.2980
  675SOL    HW2 2025   0.187   0.759   1.033 -0.4343  2.0853 -0.3929
  676SOL     OW 2026   2.961   1.276   1.052  0.0953 -0.3337 -0.3688
  676SOL    HW1 2027   2.883   1.255   0.990 -2.4224 -1.4239  0.5898
  676SOL    HW2 2028   2.988   1.194   1.102 -0.4494  1.1224 -1.2491
  677SOL     OW 2029   1.777   1.652   2.347 -0.5814  0.2630 -0.1610
  677SOL    HW1 2030   1.868   1.684   2.311  1.0545  1.2572 -0.4618
  677SOL    HW2 2031   1.733   1.736   2.384  1.1968 -0.8684 -1.8566
  678SOL     OW 2032   2.751   1.545   1.149  0.1492  0.2860 -0.1717
  678SOL    HW1 2033   2.747   1.540   1.047 -1.2373  0.1560 -0.9582
  678SOL    HW2 2034   2.809   1.625   1.170 -0.9422 -2.5602  0.8083
  679SOL     OW 2035   0.712   2.770   0.652  0.6185  0.1418 -0.2729
  679SOL    HW1 2036   0.678   2.687   0.611 -0.3686  2.0400  1.2992
  679SOL    HW2 2037   0.682   2.780   0.750  2.2020  0.3716 -1.2902
  680SOL     OW 2038   0.227   1.895   1.074  0.1252 -0.5020  0.7611
  680SOL    HW1 2039   0.240   1.981   1.032 -1.2942 -2.1999  3.2829
  680SOL    HW2 2040   0.150   1.842   1.028 -0.1984  0.4098 -1.6629
  681SOL     OW 2041   0.882   0.193   1.021 -0.2730  0.4025 -0.3724
  681SOL    HW1 2042   0.965   0.251   1.035  0.9022 -0.9456  0.9405
  681SOL    HW2 2043   0.876   0.167   0.924 -2.8357  0.9958 -0.9339
  682SOL     OW 2044   1.662   2.845   1.554  0.2601  0.2699 -0.6521
  682SOL    HW1 2045   1.590   2.874   1.618 -1.1877 -0.1807 -0.5976
  682SOL    HW2 2046   1.733   2.919   1.543 -0.6153 -2.3363  0.8970
  683SOL     OW 2047   2.456   1.364   1.416 -0.4879  0.0547 -0.5000
  683SOL    HW1 2048   2.419   1.368   1.512  1.4980 -0.7056  0.0005
  683SOL    HW2 2049   2.557   1.341   1.417 -0.5972  0.4281 -0.0495
  684SOL     OW 2050   0.089   1.412   1.704  0.5052 -0.2379  0.2661
  684SOL    HW1 2051   0.024   1.437   1.777 -0.2106 -1.3958 -3.7219
  684SOL    HW2 2052   0.174   1.474   1.710 -1.1843 -0.0685 -2.3858
  685SOL     OW 2053   1.815   1.707   0.211  0.3756  0.0017 -0.1754
  685SOL    HW1 2054   1.748   1.735   0.140  2.0981 -0.3394  2.0347
  685SOL    HW2 2055   1.910   1.707   0.177 -2.4763  0.4662 -1.3923
  686SOL     OW 2056   0.006   0.685   1.263  0.0373  0.0887 -0.0191
  686SOL    HW1 2057   0.073   0.617   1.295 -1.2930 -1.1641  1.3477
  686SOL    HW2 2058   3.007   0.633   1.230 -1.7512  0.3045  1.0831
  687SOL     OW 2059   1.801   0.064   2.797 -0.7422 -0.0924  0.3897
  687SOL    HW1 2060   1.854   0.150   2.814 -0.5861  1.5610  0.5987
  687SOL    HW2 2061   1.716   0.092   2.748  2.6421 -1.8741  1.0545
  688SOL     OW 2062   1.243   2.032   2.524  0.2117 -0.2534  0.0341
  688SOL    HW1 2063   1.322   2.081   2.486  0.9387 -2.2149 -0.8101
  688SOL    HW2 2064   1.253   1.930   2.520 -0.5582  0.7846  3.4951
  689SOL     OW 2065   2.155   1.107   1.922 -0.2045 -0.0275  0.5571
  689SOL    HW1 2066   2.243   1.132   1.962 -1.0596 -0.6312  0.3917
  689SOL    HW2 2067   2.157   1.032   1.851 -1.7958 -2.1355 -0.6670
  690SOL     OW 2068   2.036   2.083   1.480 -0.5995  0.3073  0.4192
  690SOL    HW1 2069   1.938   2.092   1.501  0.2564  2.1168 -1.1860
  690SOL    HW2 2070   2.089   2.033   1.551  2.0245  1.3570 -0.3448
  691SOL     OW 2071   0.450   1.799   0.518 -0.5798 -0.0684  0.4541
  691SOL    HW1 2072   0.488   1.872   0.579  0.1670  0.9135  0.5606
  691SOL    HW2 2073   0.438   1.705   0.563  2.0110 -1.2580 -2.3116
  692SOL     OW 2074   2.832   2.906   2.670 -0.0329  0.0662  0.1886
  692SOL    HW1 2075   2.740   2.913   2.625  0.4755 -0.6523  1.2522
  692SOL    HW2 2076   2.871   2.810   2.674 -1.0321 -1.4858  1.2479
  693SOL     OW 2077   3.063   1.416   1.998  0.1766 -0.6911  0.6183
  693SOL    HW1 2078   0.006   1.505   2.044 -1.3660  0.4765  1.0554
  693SOL    HW2 2079   0.032   1.346   2.039 -0.2325  0.1557 -0.5766
  694SOL     OW 2080   2.520   0.225   2.029  0.3270  0.1203 -0.3362
  694SOL    HW1 2081   2.618   0.253   2.028 -4.0157 -2.7395 -2.1782
  694SOL    HW2 2082   2.457   0.302   2.036  1.2027  0.3581  0.1363
  695SOL     OW 2083   0.925   0.746   2.222  0.7665  0.0127 -0.1674
  695SOL    HW1 2084   0.850   0.732   2.157  1.1416 -0.4182  0.4251
  695SOL    HW2 2085   0.945   0.845   2.236 -1.9060 -0.0938 -2.7124
  696SOL     OW 2086   1.933   2.735   1.600 -0.3498 -0.2557 -0.3862
  696SOL    HW1 2087   1.968   2.771   1.692 -0.5101  5.2461 -0.6683
  696SOL    HW2 2088   1.833   2.764   1.585  0.8992 -0.9841  0.0482
  697SOL     OW 2089   1.358   0.320   2.305  0.1434  0.7393 -0.4141
  697SOL    HW1 2090   1.261   0.340   2.342 -2.0610  1.5691  0.4326
  697SOL    HW2 2091   1.372   0.344   2.208  0.5517  0.4444  1.1913
  698SOL     OW 2092   2.266   1.810   2.376 -1.0043  0.0750 -0.5521
  698SOL    HW1 2093   2.326   1.830   2.299  0.1441 -0.4978  0.7697
  698SOL    HW2 2094   2.171   1.809   2.345 -2.1137  0.3120 -0.1212
  699SOL     OW 2095   2.109   0.755   0.082  0.4648 -0.2305 -0.1662
  699SOL    HW1 2096   2.128   0.676   0.144  0.5956  0.3946 -1.8592
  699SOL    HW2 2097   2.116   0.847   0.130  1.1823  0.7381 -1.3155
  700SOL     OW 2098   1.176   0.121   0.874 -0.4829  0.1935 -0.1732
  700SOL    HW1 2099   1.190   0.133   0.976  0.6923 -0.5520 -1.6680
  700SOL    HW2 2100   1.156   0.024   0.856 -0.3099  0.9164 -0.3049
  701SOL     OW 2101   0.160   0.763   0.388  0.5659 -0.1038  0.2703
  701SOL    HW1 2102   0.179   0.661   0.394 -0.3433 -2.4735  2.0479
  701SOL    HW2 2103   0.227   0.827   0.432 -0.8299  0.5192 -2.0071
  702SOL     OW 2104   1.396   0.044   1.465 -0.3803  0.3404 -0.1147
  702SOL    HW1 2105   1.326   0.101   1.424  1.6497  1.9816  1.9564
  702SOL    HW2 2106   1.361   3.066   1.533 -1.5671  1.7052  0.1705
  703SOL     OW 2107   3.031   1.018   1.150  0.1386  0.2777  0.5529
  703SOL    HW1 2108   2.947   0.987   1.199 -0.9171 -0.2430 -0.8023
  703SOL    HW2 2109   3.055   0.946   1.078  0.0830 -0.6772 -1.7449
  704SOL     OW 2110   0.977   2.508   1.397  0.7508  0.6149  0.3791
  704SOL    HW1 2111   1.033   2.448   1.338  1.3557  0.9609  1.2502
  704SOL    HW2 2112   0.880   2.513   1.368 -0.7064 -2.1267 -0.0210
  705SOL     OW 2113   0.208   1.729   2.978  0.8653  0.2145 -0.2394
  705SOL    HW1 2114   0.198   1.668   2.897  0.2722  1.7906  0.9740
  705SOL    HW2 2115   0.300   1.715   3.018  0.0189  0.1726 -0.5917
  706SOL     OW 2116   0.056   0.017   0.069 -0.1203 -0.5086 -0.1981
  706SOL    HW1 2117   0.024   0.075   3.078 -2.9913  2.2667  0.8313
  706SOL    HW2 2118   3.074   0.021   0.141  0.2540 -1.6872 -3.0049
  707SOL     OW 2119   1.586   3.007   2.227 -0.2143 -0.5513 -0.3434
  707SOL    HW1 2120   1.611   3.072   2.156 -0.4645  0.4914  1.8608
  707SOL    HW2 2121   1.507   2.949   2.205 -1.7097 -0.3690 -5.6006
  708SOL     OW 2122   0.275   2.941   1.619 -0.0032 -0.1377 -0.4245
  708SOL    HW1 2123   0.346   2.988   1.567 -3.7134 -1.0518  1.7569
  708SOL    HW2 2124   0.271   2.837   1.606  0.9881 -2.6006 -1.1717
  709SOL     OW 2125   3.050   0.597   1.660 -0.0060  0.0375 -0.0452
  709SOL    HW1 2126   3.085   0.535   1.585  0.7491 -1.6628 -0.1797
  709SOL    HW2 2127   2.966   0.553   1.702 -0.2812 -0.3182  2.1051
  710SOL     OW 2128   0.509   1.022   0.766  0.6840 -0.3642  0.1251
  710SOL    HW1 2129   0.458   1.096   0.814  0.8709 -0.5166  2.1073
  710SOL    HW2 2130   0.449   0.950   0.738 -1.1102  0.5439  2.2634
  711SOL     OW 2131   2.349   2.917   1.470 -0.2996 -0.0980 -0.2136
  711SOL    HW1 2132   2.374   2.819   1.448  2.9633 -1.6371 -0.2752
  711SOL    HW2 2133   2.295   2.966   1.398  1.3065 -1.2823  1.8931
  712SOL     OW 2134   0.158   2.545   2.320 -0.2708 -0.0062 -0.0343
  712SOL    HW1 2135   0.057   2.538   2.340 -2.4145 -0.1901 -0.5108
  712SOL    HW2 2136   0.209   2.486   2.388  1.5336 -0.5125  0.1730
  713SOL     OW 2137   2.654   0.261   0.646 -0.0291  0.6682 -0.2624
  713SOL    HW1 2138   2.562   0.248   0.608  0.9346  0.4402 -3.0353
  713SOL    HW2 2139   2.701   0.323   0.586 -2.0416 -0.5195  3.3640
  714SOL     OW 2140   1.657   1.854   2.620 -0.6190 -0.2585 -0.4385
  714SOL    HW1 2141   1.579   1.853   2.553 -1.7867 -0.3166 -1.0867
  714SOL    HW2 2142   1.744   1.868   2.569  0.2657 -2.6084 -1.4011
  715SOL     OW 2143   0.190   0.571   0.950 -0.6460 -0.2262  0.1197
  715SOL    HW1 2144   0.182   0.481   0.999 -1.2599 -1.5143 -0.8053
  715SOL    HW2 2145   0.098   0.598   0.912  2.2253  0.9464  0.5591
  716SOL     OW 2146   0.762   0.735   1.554  0.1546  0.2756  0.0836
  716SOL    HW1 2147   0.817   0.817   1.525 -1.4052  1.1925 -0.3166
  716SOL    HW2 2148   0.719   0.685   1.473 -1.0901  0.2119  0.5416
  717SOL     OW 2149   0.734   0.529   2.620  0.7170 -0.6820  1.3233
  717SOL    HW1 2150   0.703   0.443   2.665 -1.3062  0.6127  0.6585
  717SOL    HW2 2151   0.656   0.590   2.594 -2.3619 -1.5198  0.4458
  718SOL     OW 2152   1.314   0.567   0.585 -0.0411 -0.0362 -0.2262
  718SOL    HW1 2153   1.251   0.638   0.623  1.0700 -0.6024  3.7319
  718SOL    HW2 2154   1.275   0.511   0.516  2.5529  4.7746  2.9093
  719SOL     OW 2155   3.060   2.334   2.694 -0.7999  0.1898  0.0853
  719SOL    HW1 2156   0.013   2.364   2.607  0.1358 -1.4219 -0.9074
  719SOL    HW2 2157   3.068   2.399   2.770 -0.2765  2.7998 -1.1578
  720SOL     OW 2158   1.009   0.633   1.578 -0.1124 -0.0157  0.3212
  720SOL    HW1 2159   1.070   0.642   1.661 -1.7979 -3.1397 -0.7859
  720SOL    HW2 2160   0.912   0.660   1.591  0.8676 -3.4551  1.2150
  721SOL     OW 2161   2.875   2.827   0.961 -0.0138  0.0915  0.9766
  721SOL    HW1 2162   2.929   2.756   1.011 -3.2945 -3.3030  0.4706
  721SOL    HW2 2163   2.787   2.842   1.009  0.4000 -1.6813  2.4416
  722SOL     OW 2164   0.977   1.455   2.602 -0.3333  0.0052 -0.1816
  722SOL    HW1 2165   0.971   1.463   2.705  0.8381  1.0844  0.8040
  722SOL    HW2 2166   0.910   1.513   2.555 -1.2313 -0.2535 -1.7553
  723SOL     OW 2167   2.494   0.816   1.318  0.1560 -0.0101  0.4424
  723SOL    HW1 2168   2.499   0.802   1.218  0.1873  2.7476 -1.8232
  723SOL    HW2 2169   2.432   0.894   1.346  1.9557  0.5353  2.9701
  724SOL     OW 2170   1.036   1.922   0.309  0.4230  0.3755 -0.3008
  724SOL    HW1 2171   0.969   1.860   0.352 -0.9633 -0.7692 -0.4820
  724SOL    HW2 2172   1.135   1.897   0.322  1.1551  1.4987  1.4263
  725SOL     OW 2173   0.309   0.816   1.338  0.3905  0.1660  0.3241
  725SOL    HW1 2174   0.246   0.892   1.313 -0.9704  0.1699 -0.3005
  725SOL    HW2 2175   0.400   0.842   1.302 -3.3633  0.1966 -0.0153
  726SOL     OW 2176   2.619   1.208   2.762 -0.2188  0.1429  0.7415
  726SOL    HW1 2177   2.647   1.308   2.770 -2.6588 -0.2261 -2.6139
  726SOL    HW2 2178   2.526   1.191   2.802  0.0098 -1.4744  1.7015
  727SOL     OW 2179   1.982   1.378   2.701  0.0017 -0.1125 -0.1544
  727SOL    HW1 2180   1.945   1.469   2.673 -0.4214 -2.8090 -2.5174
  727SOL    HW2 2181   1.947   1.303   2.640 -1.4737  0.0504 -1.0932
  728SOL     OW 2182   1.661   2.374   1.350  0.6322  0.1847 -0.4526
  728SOL    HW1 2183   1.642   2.475   1.336 -0.1387 -0.4024  1.9235
  728SOL    HW2 2184   1.602   2.329   1.425 -3.2760  0.6433  4.9068
  729SOL     OW 2185   1.814   0.878   2.388 -0.3030  0.0536 -0.4145
  729SOL    HW1 2186   1.870   0.873   2.475  0.2244  0.0199  2.1029
  729SOL    HW2 2187   1.761   0.961   2.384  0.1717 -2.2746 -1.4311
  730SOL     OW 2188   1.181   0.590   0.911  0.5435  0.3614  0.2914
  730SOL    HW1 2189   1.216   0.667   0.975 -2.0620 -1.0938 -0.1812
  730SOL    HW2 2190   1.142   0.513   0.973 -3.0419 -3.5866 -0.4823
  731SOL     OW 2191   0.664   0.517   2.978  0.6700  0.0517 -0.0279
  731SOL    HW1 2192   0.730   0.594   2.988  1.4970  0.4961 -3.5790
  731SOL    HW2 2193   0.579   0.548   2.933  2.5349 -0.3086  3.1692
  732SOL     OW 2194   0.392   0.890   0.479  0.2359  0.4317 -0.2339
  732SOL    HW1 2195   0.408   0.889   0.378  0.1295  0.3262 -1.0663
  732SOL    HW2 2196   0.457   0.828   0.530  0.9235  1.2070  1.3810
  733SOL     OW 2197   1.292   1.551   2.117  0.4254  0.1581  0.5771
  733SOL    HW1 2198   1.198   1.507   2.122  0.7042 -2.4387  1.1842
  733SOL    HW2 2199   1.362   1.523   2.187  0.2948 -1.4710 -1.0713
  734SOL     OW 2200   0.015   2.479   2.947 -0.0763  0.1081 -0.5081
  734SOL    HW1 2201   3.086   2.549   3.019 -1.1887 -2.0143 -0.3023
  734SOL    HW2 2202   0.100   2.505   2.895 -0.4210  0.3253 -1.5730
  735SOL     OW 2203   2.344   0.459   0.878  0.0750  0.0044  0.1445
  735SOL    HW1 2204   2.291   0.541   0.913  0.4718 -0.2080 -2.8927
  735SOL    HW2 2205   2.360   0.474   0.775  3.5972 -0.1868 -2.1962
  736SOL     OW 2206   2.121   1.567   2.190 -0.0979  0.5045 -0.2882
  736SOL    HW1 2207   2.044   1.508   2.231 -1.5022  0.3329 -0.8985
  736SOL    HW2 2208   2.112   1.669   2.202  1.6944 -0.7349  0.2884
  737SOL     OW 2209   3.040   0.761   0.572  0.2734  0.4134 -0.1271
  737SOL    HW1 2210   2.958   0.729   0.523  2.2657  0.7061 -0.1220
  737SOL    HW2 2211   0.032   0.772   0.511  1.2352  0.6144  1.7142
  738SOL     OW 2212   0.827   2.091   1.474  0.3924  0.7842 -0.3336
  738SOL    HW1 2213   0.838   2.149   1.559 -2.0101 -0.3627  0.0291
  738SOL    HW2 2214   0.737   2.057   1.468  2.2709  0.1676 -0.6310
  739SOL     OW 2215   1.400   2.766   2.209  0.7882 -0.2768  0.0885
  739SOL    HW1 2216   1.420   2.682   2.152  0.9848 -0.6310 -1.3576
  739SOL    HW2 2217   1.356   2.841   2.151 -1.7894  1.1997 -1.3600
  740SOL     OW 2218   1.881   2.402   1.196  0.3282  0.3413  0.5711
  740SOL    HW1 2219   1.797   2.372   1.253  0.3606 -0.1049  2.8332
  740SOL    HW2 2220   1.951   2.448   1.259 -0.5868 -1.0100  1.6925
  741SOL     OW 2221   2.191   0.356   0.017 -0.2508 -0.2753  0.3760
  741SOL    HW1 2222   2.128   0.295   0.067 -1.2738  2.5987  2.3016
  741SOL    HW2 2223   2.273   0.380   0.070 -3.4527 -2.1148 -2.2545
  742SOL     OW 2224   1.030   2.676   3.076 -1.1280  0.2708 -0.5648
  742SOL    HW1 2225   1.067   2.589   3.043  0.5414  0.5705 -2.2899
  742SOL    HW2 2226   1.060   2.690   0.087 -0.3554 -0.1257 -0.7858
  743SOL     OW 2227   2.388   1.139   2.049 -0.2914 -0.5623 -0.6574
  743SOL    HW1 2228   2.435   1.207   1.991 -3.4957 -0.3497  3.4785
  743SOL    HW2 2229   2.460   1.086   2.098  2.0820 -1.1369 -1.0259
  744SOL     OW 2230   2.775   0.451   0.481 -0.3448 -0.3414  0.2028
  744SOL    HW1 2231   2.758   0.388   0.402  1.7638 -2.6470 -1.4324
  744SOL    HW2 2232   2.792   0.545   0.450  0.7502  1.8409  1.2251
  745SOL     OW 2233   2.380   1.044   1.439  0.1686 -0.0960 -0.4621
  745SOL    HW1 2234   2.313   1.067   1.514  0.9045 -0.0281 -0.7051
  745SOL    HW2 2235   2.415   1.129   1.397 -0.2614 -1.8341 -2.5988
  746SOL     OW 2236   1.365   1.382   0.768  0.2518  0.6288  0.0819
  746SOL    HW1 2237   1.381   1.482   0.788 -2.6752 -1.0377  0.0074
  746SOL    HW2 2238   1.357   1.370   0.669  0.4611 -0.9970 -0.9054
  747SOL     OW 2239   1.126   1.482   1.149 -0.1134  0.2098  0.3839
  747SOL    HW1 2240   1.092   1.488   1.241 -1.2494 -0.2140 -3.9175
  747SOL    HW2 2241   1.153   1.386   1.136 -0.5473 -1.5537 -1.3546
  748SOL     OW 2242   0.345   2.773   3.023 -0.1323  0.4731 -0.3167
  748SOL    HW1 2243   0.407   2.754   2.944  0.9653 -2.2148 -0.0927
  748SOL    HW2 2244   0.338   2.686   3.073  0.0195  1.1095 -0.6926
  749SOL     OW 2245   0.135   0.859   2.785  1.1105  0.5627 -0.2643
  749SOL    HW1 2246   0.081   0.933   2.832 -1.0849  2.5450  1.2987
  749SOL    HW2 2247   0.165   0.876   2.692 -0.3357  0.0976  2.1417
  750SOL     OW 2248   1.563   0.909   1.946  0.2507 -0.7469  0.2116
  750SOL    HW1 2249   1.517   0.831   1.900 -1.5387 -1.1716  1.3758
  750SOL    HW2 2250   1.603   0.873   2.035  0.7857 -4.3980 -1.3889
  751SOL     OW 2251   2.834   0.704   0.400 -0.3063 -0.0152  0.2701
  751SOL    HW1 2252   2.897   0.755   0.339  3.9304  1.1991 -1.0794
  751SOL    HW2 2253   2.744   0.755   0.421  1.8079  4.0419 -1.1506
  752SOL     OW 2254   2.656   2.863   1.089  0.3426 -0.2738  0.4386
  752SOL    HW1 2255   2.689   2.876   1.185  0.7295 -1.3003 -0.1386
  752SOL    HW2 2256   2.614   2.948   1.057 -1.6495 -2.8220  0.6465
  753SOL     OW 2257   0.931   2.181   1.224  0.1197 -0.0828  0.5241
  753SOL    HW1 2258   1.029   2.157   1.227 -1.3083  1.3073 -1.7348
  753SOL    HW2 2259   0.877   2.146   1.306  1.0077  0.3834  0.3031
  754SOL     OW 2260   3.082   2.692   2.088 -0.1980  0.1700 -0.4993
  754SOL    HW1 2261   3.047   2.707   2.186  0.9001 -0.9412  3.8672
  754SOL    HW2 2262   3.083   2.777   2.038 -0.5175 -0.8074  1.7993
  755SOL     OW 2263   2.479   0.515   0.341  0.5654  0.2913  0.4182
  755SOL    HW1 2264   2.570   0.496   0.302 -0.9272  0.0861 -1.2319
  755SOL    HW2 2265   2.452   0.597   0.292  0.3983  0.8703 -1.9466
  756SOL     OW 2266   2.271   2.406   2.872  0.2085  0.2524  0.3471
  756SOL    HW1 2267   2.332   2.444   2.801 -1.7321  0.9003  0.7288
  756SOL    HW2 2268   2.291   2.438   2.968  0.5411 -0.4054  0.7183
  757SOL     OW 2269   2.430   0.506   0.606 -0.1990 -0.6125 -0.0916
  757SOL    HW1 2270   2.465   0.491   0.510  0.5909 -0.0264 -0.1578
  757SOL    HW2 2271   2.331   0.530   0.605 -1.1360  0.4651  0.1314
  758SOL     OW 2272   2.147   0.902   1.745 -0.4605 -0.3288  0.2534
  758SOL    HW1 2273   2.067   0.843   1.761  2.8704 -2.2401  3.3481
  758SOL    HW2 2274   2.224   0.850   1.706  2.1975 -1.1207 -1.4546
  759SOL     OW 2275   2.568   0.512   1.090 -0.0864 -0.1846 -0.1259
  759SOL    HW1 2276   2.499   0.569   1.035 -0.3718  2.3069 -0.8226
  759SOL    HW2 2277   2.627   0.447   1.038 -0.8405  1.6016  0.0955
  760SOL     OW 2278   0.199   1.529   1.292 -0.2509  0.3408 -0.4583
  760SOL    HW1 2279   0.212   1.438   1.338 -1.0599 -3.0577  1.6507
  760SOL    HW2 2280   0.127   1.520   1.224 -0.7365 -0.3741 -1.6990
  761SOL     OW 2281   0.945   0.777   0.242  0.5207  0.3360  0.3178
  761SOL    HW1 2282   0.894   0.858   0.204 -0.8753  0.5556  0.9674
  761SOL    HW2 2283   1.033   0.761   0.196 -1.4074 -2.3122 -0.6435
  762SOL     OW 2284   0.928   1.789   1.128 -0.2095 -0.1517 -0.1004
  762SOL    HW1 2285   0.878   1.849   1.070  1.9559  2.1624  2.0032
  762SOL    HW2 2286   1.006   1.757   1.073  1.9090 -0.3758 -0.1848
  763SOL     OW 2287   1.103   0.666   1.327 -0.4258 -0.1907 -0.2249
  763SOL    HW1 2288   1.052   0.661   1.418  3.2061 -0.7487 -0.8699
  763SOL    HW2 2289   1.059   0.730   1.259  2.5323 -0.7527  0.3768
  764SOL     OW 2290   0.332   2.328   3.004  0.0180  0.0302 -0.7422
  764SOL    HW1 2291   0.246   2.282   3.039  0.7074  1.6358 -0.4974
  764SOL    HW2 2292   0.307   2.391   2.930 -0.1733  0.6857  3.5887
  765SOL     OW 2293   0.652   2.709   1.655 -0.0012 -0.1053  0.4866
  765SOL    HW1 2294   0.569   2.731   1.712  1.2036  1.5234  1.0739
  765SOL    HW2 2295   0.654   2.763   1.568  0.1766  0.1703 -0.2891
  766SOL     OW 2296   2.522   1.675   2.145 -0.3027  0.0455 -0.5805
  766SOL    HW1 2297   2.570   1.748   2.203  2.8566 -0.6894  2.1934
  766SOL    HW2 2298   2.560   1.586   2.178 -1.2188 -2.2356 -1.1740
  767SOL     OW 2299   1.435   1.160   2.383  0.0364 -0.1882  0.1695
  767SOL    HW1 2300   1.459   1.229   2.455  1.4958  1.2737  2.1900
  767SOL    HW2 2301   1.369   1.193   2.316 -0.1993 -0.4707 -0.7254
  768SOL     OW 2302   1.604   1.942   0.266 -0.3539  0.1398 -0.0213
  768SOL    HW1 2303   1.619   1.863   0.326  1.2376  0.7104 -1.1590
  768SOL    HW2 2304   1.696   1.975   0.231 -1.9168  1.4418 -1.7998
  769SOL     OW 2305   0.495   1.469   0.917 -0.0381  0.0603  0.0124
  769SOL    HW1 2306   0.448   1.526   0.982  1.1520 -1.7711  1.1068
  769SOL    HW2 2307   0.595   1.454   0.934  0.0126 -1.7124  0.3261
  770SOL     OW 2308   1.305   0.940   2.324 -0.1805 -0.4501  0.4367
  770SOL    HW1 2309   1.380   1.011   2.346  0.7833 -0.4587  3.0874
  770SOL    HW2 2310   1.340   0.848   2.340 -1.0607  0.5001  0.9515
  771SOL     OW 2311   2.912   3.039   2.311 -0.5986 -0.4028 -0.0550
  771SOL    HW1 2312   2.815   3.056   2.327  2.4208 -1.0818  0.8900
  771SOL    HW2 2313   2.932   2.942   2.321 -1.3925  0.5160 -1.1003
  772SOL     OW 2314   2.055   1.814   2.220  0.5606  0.3025  0.1056
  772SOL    HW1 2315   1.985   1.839   2.154  1.2598 -0.5993  1.8407
  772SOL    HW2 2316   2.148   1.845   2.192 -3.1133  1.0226  1.8975
  773SOL     OW 2317   0.554   1.418   1.293 -0.0465 -0.6332 -0.0273
  773SOL    HW1 2318   0.497   1.468   1.227  0.9467  0.4773  1.1291
  773SOL    HW2 2319   0.574   1.323   1.262 -1.9113  0.4708 -3.0477
  774SOL     OW 2320   1.374   0.766   2.804  0.0094  0.1208 -0.0887
  774SOL    HW1 2321   1.301   0.716   2.758  2.6994 -1.0183  2.8882
  774SOL    HW2 2322   1.386   0.733   2.902  0.8636 -0.8449  4.1507
  775SOL     OW 2323   1.585   2.655   0.056 -0.0241 -0.3441  0.0380
  775SOL    HW1 2324   1.585   2.611   0.145 -0.3857  2.0542 -1.2063
  775SOL    HW2 2325   1.504   2.633   0.003 -1.7437 -1.6015  0.7591
  776SOL     OW 2326   0.148   0.987   1.641  0.7293 -0.0044  0.5487
  776SOL    HW1 2327   0.212   0.905   1.639  0.1170 -0.0515 -0.7344
  776SOL    HW2 2328   0.096   1.004   1.553 -1.6097 -0.8877 -0.9103
  777SOL     OW 2329   2.287   1.848   2.092  0.4067 -0.3333  0.0530
  777SOL    HW1 2330   2.364   1.785   2.089 -2.6106  1.6224  1.5774
  777SOL    HW2 2331   2.294   1.930   2.033 -2.8748 -2.9968 -1.3077
  778SOL     OW 2332   1.686   1.113   2.358  0.1541  0.1955  0.3082
  778SOL    HW1 2333   1.586   1.133   2.377 -3.5206  1.3495 -2.1489
  778SOL    HW2 2334   1.715   1.157   2.270  1.7628 -0.1071 -0.2348
  779SOL     OW 2335   2.998   1.082   0.209 -0.1151  0.1536  0.4556
  779SOL    HW1 2336   3.019   0.985   0.235 -1.8881 -0.0123 -1.9460
  779SOL    HW2 2337   2.908   1.091   0.168  1.4452  0.2142  4.3593
  780SOL     OW 2338   2.320   0.062   2.632  0.3880  0.5177 -0.3628
  780SOL    HW1 2339   2.222   0.081   2.655  0.0671  0.8551  1.8384
  780SOL    HW2 2340   2.363   0.148   2.596  0.7621 -2.3188 -1.0906
  781SOL     OW 2341   0.020   1.786   1.658 -0.3900 -0.4756 -0.0205
  781SOL    HW1 2342   0.066   1.854   1.723  0.5989  1.1249 -0.8799
  781SOL    HW2 2343   0.087   1.739   1.599 -2.5860  1.8782 -0.7195
  782SOL     OW 2344   2.574   2.029   2.632 -0.4455  0.0125  0.3731
  782SOL    HW1 2345   2.657   2.093   2.633  2.4136  2.9976  0.0896
  782SOL    HW2 2346   2.491   2.081   2.657 -2.0283  0.1179  0.0502
  783SOL     OW 2347   0.766   1.412   0.962 -0.4965 -0.2968 -0.2193
  783SOL    HW1 2348   0.800   1.324   1.006 -0.0557 -2.1202 -0.5161
  783SOL    HW2 2349   0.838   1.440   0.900  0.0918  0.6060 -1.9461
  784SOL     OW 2350   2.592   0.947   0.099  0.1115 -0.2708  0.1769
  784SOL    HW1 2351   2.512   1.006   0.084 -1.5187  0.4769 -3.3023
  784SOL    HW2 2352   2.684   0.995   0.077  2.9860 -0.6333 -4.2443
  785SOL     OW 2353   2.121   2.368   0.836 -0.2782 -0.3829  0.1215
  785SOL    HW1 2354   2.025   2.385   0.808 -1.4590 -0.5280  1.0696
  785SOL    HW2 2355   2.188   2.365   0.754 -0.1368  0.1773  0.5622
  786SOL     OW 2356   0.438   2.242   2.613 -0.1167  0.2626  0.3852
  786SOL    HW1 2357   0.459   2.204   2.517  0.8653 -0.0420 -3.1995
  786SOL    HW2 2358   0.390   2.177   2.678  0.2563 -0.2255 -0.3732
  787SOL     OW 2359   1.321   0.527   1.403 -0.7433 -0.0857 -0.5393
  787SOL    HW1 2360   1.242   0.579   1.370  1.6916 -1.7775 -1.9494
  787SOL    HW2 2361   1.395   0.590   1.438  1.6900  0.0778 -1.2062
  788SOL     OW 2362   0.435   0.899   0.216  0.1164  0.3047  0.5632
  788SOL    HW1 2363   0.445   0.800   0.182 -1.9463  0.2040  0.5876
  788SOL    HW2 2364   0.380   0.960   0.154 -1.3364  1.5942  1.1169
  789SOL     OW 2365   3.055   2.078   1.328 -0.1681 -0.3430  0.1943
  789SOL    HW1 2366   0.068   2.052   1.321  1.6441 -2.2919  0.7072
  789SOL    HW2 2367   3.007   2.062   1.240  1.9311 -2.8690 -0.5145
  790SOL     OW 2368   1.338   0.387   2.045 -0.4840 -0.6551 -0.2741
  790SOL    HW1 2369   1.348   0.490   2.071 -2.7900  1.5726 -0.5046
  790SOL    HW2 2370   1.241   0.358   2.059  3.6825  0.0258  2.4208
  791SOL     OW 2371   1.215   0.687   0.191 -0.1208  0.0282 -0.5796
  791SOL    HW1 2372   1.294   0.677   0.130  0.0461 -0.6886  2.3166
  791SOL    HW2 2373   1.204   0.603   0.239  2.3512  2.4455 -1.2624
  792SOL     OW 2374   1.307   2.939   1.676  0.0593  0.0323  0.3924
  792SOL    HW1 2375   1.274   2.857   1.731 -3.0486 -0.1681  1.1040
  792SOL    HW2 2376   1.392   2.975   1.716  0.0994  0.5784 -0.5562
  793SOL     OW 2377   0.679   0.095   0.735 -0.1322  0.5772 -0.0262
  793SOL    HW1 2378   0.634   0.184   0.758 -0.1578  0.7998  1.9937
  793SOL    HW2 2379   0.616   0.035   0.689 -1.3511  1.2084 -2.4380
  794SOL     OW 2380   0.592   1.330   2.127  0.3629  0.1550  0.3692
  794SOL    HW1 2381   0.628   1.261   2.063  0.0276 -2.6302 -1.6281
  794SOL    HW2 2382   0.548   1.280   2.206 -0.4823  0.6473  1.3791
  795SOL     OW 2383   3.067   1.724   2.572  0.0271 -0.3086  0.4320
  795SOL    HW1 2384   0.001   1.684   2.481 -1.2649 -1.4222  1.6220
  795SOL    HW2 2385   2.965   1.725   2.592  1.5821 -3.1869  2.3208
  796SOL     OW 2386   1.800   1.194   2.115  0.0715 -0.0526 -0.1821
  796SOL    HW1 2387   1.828   1.104   2.082  2.1505  2.0572  1.1726
  796SOL    HW2 2388   1.873   1.237   2.168 -1.5621 -1.6533 -1.0371
  797SOL     OW 2389   3.033   0.004   2.643 -0.1337  0.1146  0.2138
  797SOL    HW1 2390   0.030   3.053   2.595  1.8074  1.0442 -1.0061
  797SOL    HW2 2391   2.954   3.024   2.651 -0.2686 -0.0446  3.0104
  798SOL     OW 2392   2.985   2.134   2.187  0.1970  0.7787  0.3213
  798SOL    HW1 2393   2.974   2.080   2.100 -0.1588  0.8337 -2.8359
  798SOL    HW2 2394   3.075   2.175   2.203 -1.0847 -1.3611 -0.8998
  799SOL     OW 2395   2.866   2.037   2.996 -0.0888  0.3037 -0.3755
  799SOL    HW1 2396   2.894   2.129   3.031  0.4671  1.3616  1.8660
  799SOL    HW2 2397   2.872   2.029   2.895  1.0224 -1.5241  1.1286
  800SOL     OW 2398   1.348   1.676   0.817  0.0414  0.5024 -0.1050
  800SOL    HW1 2399   1.355   1.708   0.723  0.6917 -0.3250  3.1499
  800SOL    HW2 2400   1.431   1.705   0.871  0.5055 -0.8962  0.4409
  801SOL     OW 2401   2.157   0.668   0.825 -0.1936 -0.1529 -0.0551
  801SOL    HW1 2402   2.123   0.598   0.763 -0.0806  2.9425  0.4807
  801SOL    HW2 2403   2.084   0.697   0.890  3.0069 -0.5318 -0.1744
  802SOL     OW 2404   2.550   1.520   0.422 -0.1720 -0.1778  0.3748
  802SOL    HW1 2405   2.552   1.434   0.367 -1.1317 -0.1443 -0.3458
  802SOL    HW2 2406   2.645   1.561   0.428  5.0119 -1.8897 -0.2241
  803SOL     OW 2407   1.446   1.859   2.873  0.0022  0.5275  0.0362
  803SOL    HW1 2408   1.524   1.904   2.831  2.5216  0.7251 -1.2446
  803SOL    HW2 2409   1.411   1.916   2.948 -1.8809 -0.6247 -2.1299
  804SOL     OW 2410   1.863   2.028   0.189  0.0425  0.4568  0.3132
  804SOL    HW1 2411   1.943   1.998   0.242 -1.2395  1.3165  2.2916
  804SOL    HW2 2412   1.881   2.027   0.091 -0.1063  2.0137 -1.1827
  805SOL     OW 2413   2.344   1.638   0.094 -0.4851 -0.3208  0.4167
  805SOL    HW1 2414   2.416   1.676   0.031 -1.4860  1.5644  1.7056
  805SOL    HW2 2415   2.335   1.698   0.173 -1.1757  0.8718 -2.3303
  806SOL     OW 2416   0.665   0.388   0.399  0.1298  0.7459 -0.2290
  806SOL    HW1 2417   0.709   0.446   0.325 -2.4340  0.9917  0.6009
  806SOL    HW2 2418   0.727   0.368   0.473 -1.1396  2.2281 -1.5228
  807SOL     OW 2419   2.210   1.328   2.809  0.2337 -0.4399 -0.0887
  807SOL    HW1 2420   2.228   1.362   2.904  1.8801  0.7897 -0.2705
  807SOL    HW2 2421   2.118   1.360   2.781 -1.4573  1.3943  1.3869
  808SOL     OW 2422   0.108   1.501   0.429 -0.4368  0.3287  0.1046
  808SOL    HW1 2423   0.125   1.407   0.383  0.6329 -3.8661  0.8370
  808SOL    HW2 2424   0.031   1.496   0.490 -1.1477  0.2677 -0.7649
  809SOL     OW 2425   2.639   0.698   2.402  0.2798  0.1362  0.3018
  809SOL    HW1 2426   2.591   0.627   2.452  0.8743  0.4103  1.2794
  809SOL    HW2 2427   2.645   0.784   2.456 -1.9736 -1.3547  1.1268
  810SOL     OW 2428   1.025   1.225   0.182  0.3562 -0.2674 -0.0430
  810SOL    HW1 2429   1.104   1.197   0.118 -2.4363 -0.8615  0.8512
  810SOL    HW2 2430   0.953   1.149   0.174 -2.5138 -0.0093 -0.4047
  811SOL     OW 2431   1.316   2.598   1.026 -0.3601  0.5903 -0.1784
  811SOL    HW1 2432   1.246   2.551   0.965  1.0449 -1.9473  2.8712
  811SOL    HW2 2433   1.404   2.543   1.011 -0.2748 -0.3554  0.6683
  812SOL     OW 2434   0.357   2.416   1.621 -0.4935 -0.4001 -0.4031
  812SOL    HW1 2435   0.428   2.388   1.547  2.4807  2.5095 -2.3174
  812SOL    HW2 2436   0.389   2.405   1.717 -1.5643 -0.3391 -0.9568
  813SOL     OW 2437   1.056   0.349   2.095  0.7299 -0.4751  0.0563
  813SOL    HW1 2438   1.032   0.257   2.058 -0.0591 -0.6897 -0.3159
  813SOL    HW2 2439   1.049   0.355   2.199  1.3647 -0.3616  3.5713
  814SOL     OW 2440   1.581   2.935   2.752 -0.0899 -0.1818  0.1366
  814SOL    HW1 2441   1.652   2.917   2.819 -0.7379  0.5418 -0.7342
  814SOL    HW2 2442   1.601   3.023   2.711  2.8395 -0.6651 -1.4750
  815SOL     OW 2443   0.476   0.448   1.838 -0.0323 -0.2099 -0.2803
  815SOL    HW1 2444   0.383   0.449   1.793 -1.1246  0.7362  1.0223
  815SOL    HW2 2445   0.541   0.518   1.798  1.3882  1.8188 -0.9281
  816SOL     OW 2446   2.258   0.439   2.853 -0.0830 -0.2887  0.0283
  816SOL    HW1 2447   2.355   0.462   2.846  1.7000 -0.2169 -0.1054
  816SOL    HW2 2448   2.226   0.426   2.952  0.8393 -1.2446  1.6949
  817SOL     OW 2449   2.050   0.196   2.508  0.0265 -0.1498 -0.2190
  817SOL    HW1 2450   1.972   0.247   2.473  0.7585 -0.9186  2.6167
  817SOL    HW2 2451   2.061   0.226   2.605 -1.3114  2.3792  2.0493
  818SOL     OW 2452   2.051   0.140   0.129  0.1944 -0.3753 -0.1315
  818SOL    HW1 2453   1.970   0.161   0.181  0.4762 -0.1759  0.7816
  818SOL    HW2 2454   2.124   0.118   0.198 -0.3807  0.8624 -2.3913
  819SOL     OW 2455   2.227   2.003   0.028 -0.3402 -0.0385  0.0516
  819SOL    HW1 2456   2.310   1.969   0.078  1.8038  0.6319 -0.7537
  819SOL    HW2 2457   2.250   2.034   3.021 -1.4452  2.0717 -0.5654
  820SOL     OW 2458   0.212   1.739   0.416 -0.0303 -0.1899 -0.6054
  820SOL    HW1 2459   0.307   1.759   0.446 -3.4754 -0.6054 -0.4579
  820SOL    HW2 2460   0.192   1.643   0.421  0.6879  1.2626 -0.1647
  821SOL     OW 2461   0.125   2.546   1.220  0.2125  0.0446 -0.0890
  821SOL    HW1 2462   0.211   2.597   1.229 -1.6181  0.5434  0.6822
  821SOL    HW2 2463   0.101   2.488   1.299 -0.9513 -0.5765  1.6119
  822SOL     OW 2464   2.660   2.552   2.647  0.9488 -0.2049  0.7637
  822SOL    HW1 2465   2.604   2.471   2.624  0.3022  1.4528  1.1198
  822SOL    HW2 2466   2.667   2.618   2.569  1.0327  5.1062 -1.2815
  823SOL     OW 2467   1.598   0.159   2.656 -0.3492 -0.0061 -0.2417
  823SOL    HW1 2468   1.558   0.241   2.706 -1.9561 -1.9369 -0.1221
  823SOL    HW2 2469   1.584   0.184   2.558 -0.7972 -0.9973  0.4623
  824SOL     OW 2470   2.694   1.714   1.608  0.2867 -0.2781 -0.0659
  824SOL    HW1 2471   2.641   1.784   1.656  0.5714  0.0501  3.3296
  824SOL    HW2 2472   2.759   1.761   1.547  0.3650 -1.3403  2.3378
  825SOL     OW 2473   2.563   1.797   2.529  0.0992  0.7343  0.2036
  825SOL    HW1 2474   2.566   1.892   2.576 -0.9073  0.7226  1.5140
  825SOL    HW2 2475   2.578   1.815   2.434 -0.6225 -0.4918  1.3727
  826SOL     OW 2476   2.259   1.214   2.307  0.0871  0.2763 -0.2510
  826SOL    HW1 2477   2.302   1.220   2.215  0.5745 -1.1690 -0.6019
  826SOL    HW2 2478   2.276   1.301   2.362  0.0299 -0.6403 -0.7326
  827SOL     OW 2479   2.179   2.315   1.499 -0.3183 -0.3253  0.1290
  827SOL    HW1 2480   2.192   2.343   1.597  0.6108  2.5126  1.3407
  827SOL    HW2 2481   2.111   2.238   1.495 -1.6709 -0.2863  0.6897
  828SOL     OW 2482   2.681   2.670   1.423 -0.4521 -0.2124 -0.4203
  828SOL    HW1 2483   2.682   2.773   1.408 -1.5505  0.7752 -0.5734
  828SOL    HW2 2484   2.583   2.641   1.402 -0.8819 -2.8247 -1.6885
  829SOL     OW 2485   1.497   2.232   2.460 -0.4560 -0.0956  0.3296
  829SOL    HW1 2486   1.485   2.262   2.557  0.8160  1.2242  0.2417
  829SOL    HW2 2487   1.594   2.206   2.441 -1.1995  1.0224 -3.1080
  830SOL     OW 2488   1.496   0.501   0.784 -0.5682  0.7870 -0.1067
  830SOL    HW1 2489   1.423   0.535   0.727  1.6230 -0.5701  1.6895
  830SOL    HW2 2490   1.482   0.402   0.810 -1.3744  0.8778 -2.7618
  831SOL     OW 2491   2.539   1.284   0.282  0.2628  0.0580 -0.0216
  831SOL    HW1 2492   2.533   1.306   0.181  1.0401  4.4901 -0.2471
  831SOL    HW2 2493   2.636   1.276   0.307 -1.4200  0.1049  0.3397
  832SOL     OW 2494   1.460   2.034   1.768  0.2803 -0.2667 -0.4349
  832SOL    HW1 2495   1.541   1.972   1.766 -1.6385  3.0009 -2.0002
  832SOL    HW2 2496   1.485   2.134   1.778  2.3029  0.5150 -0.8531
  833SOL     OW 2497   2.936   2.740   2.322 -0.3265 -0.0471 -0.5855
  833SOL    HW1 2498   2.963   2.658   2.379  0.4189 -0.6477 -0.8208
  833SOL    HW2 2499   2.835   2.735   2.310 -0.7344  0.3031 -0.8431
  834SOL     OW 2500   0.864   0.944   1.438 -0.4219  0.2641  0.3574
  834SOL    HW1 2501   0.807   1.028   1.451 -1.8138 -0.8608 -0.0725
  834SOL    HW2 2502   0.923   0.946   1.353  1.1253 -1.9517 -0.9475
  835SOL     OW 2503   2.926   0.849   2.562 -0.2130 -0.2486 -0.3121
  835SOL    HW1 2504   2.984   0.775   2.513 -0.5028 -1.8976  1.1936
  835SOL    HW2 2505   2.886   0.923   2.505  3.2601 -2.9916  4.2665
  836SOL     OW 2506   1.217   1.989   1.050  0.5254 -0.3502 -0.8481
  836SOL    HW1 2507   1.206   2.063   1.119 -0.4375  0.4395 -1.5778
  836SOL    HW2 2508   1.269   1.915   1.090 -0.8803 -3.1522  0.5372
  837SOL     OW 2509   1.984   0.916   1.167  0.1298  0.0860  0.2238
  837SOL    HW1 2510   2.073   0.957   1.150  1.6936 -1.0078 -0.8467
  837SOL    HW2 2511   1.920   0.968   1.232 -1.3174  1.5682  3.4526
  838SOL     OW 2512   1.199   1.762   2.363  0.0445  0.1671  0.3010
  838SOL    HW1 2513   1.116   1.713   2.328  2.9097 -4.9116 -0.0425
  838SOL    HW2 2514   1.213   1.745   2.462  0.7413  0.5840 -1.9715
  839SOL     OW 2515   0.580   2.223   2.971 -0.1291  0.4509  0.7303
  839SOL    HW1 2516   0.483   2.257   2.982 -0.1036  2.0966  2.2436
  839SOL    HW2 2517   0.643   2.254   3.046  2.2454  2.0966 -1.6095
  840SOL     OW 2518   0.391   2.555   0.059  0.3558  0.0185  0.5148
  840SOL    HW1 2519   0.373   2.461   0.035  0.6968  0.5623 -0.0247
  840SOL    HW2 2520   0.485   2.547   0.092 -1.3750  0.5670  0.9136
  841SOL     OW 2521   1.727   2.362   3.080  0.4243 -0.5876 -0.4093
  841SOL    HW1 2522   1.758   2.297   3.010 -2.7181  2.3918  0.7543
  841SOL    HW2 2523   1.773   2.455   3.074  0.1098 -0.4286  1.1769
  842SOL     OW 2524   1.067   0.789   2.765 -0.1490 -0.6370  0.2055
  842SOL    HW1 2525   1.067   0.873   2.823 -0.3992  1.3910 -0.2717
  842SOL    HW2 2526   1.077   0.814   2.668 -0.7907  1.5845 -1.0615
  843SOL     OW 2527   1.120   2.884   0.578 -0.3968  0.6003  0.1096
  843SOL    HW1 2528   1.077   2.942   0.507  1.8799 -2.1812  0.3868
  843SOL    HW2 2529   1.120   2.933   0.666  1.3378 -1.4203  0.0910
  844SOL     OW 2530   2.335   2.912   2.539 -0.3978  0.4743  0.1686
  844SOL    HW1 2531   2.346   3.006   2.582 -1.9138 -1.3442 -0.3407
  844SOL    HW2 2532   2.307   2.843   2.605  4.3734  1.6918 -1.5021
  845SOL     OW 2533   2.664   2.313   1.203 -0.3168  0.1763 -0.3678
  845SOL    HW1 2534   2.570   2.297   1.241 -0.1612  0.6062  0.7010
  845SOL    HW2 2535   2.662   2.387   1.128 -1.2730 -0.3730 -3.1550
  846SOL     OW 2536   2.876   1.854   2.315 -0.5151 -0.2426  0.2567
  846SOL    HW1 2537   2.932   1.940   2.291  2.5627  1.6982 -0.8936
  846SOL    HW2 2538   2.899   1.814   2.408 -2.6981 -0.1024  1.2111
  847SOL     OW 2539   1.371   0.424   1.649 -0.4500  0.1852  0.6191
  847SOL    HW1 2540   1.333   0.466   1.566 -0.7330  3.5039  1.5037
  847SOL    HW2 2541   1.299   0.374   1.703  2.5638 -1.6192 -2.2500
  848SOL     OW 2542   2.911   0.373   0.107 -0.0436 -0.4853 -0.6417
  848SOL    HW1 2543   2.891   0.350   0.013  1.1482 -1.9352  0.2702
  848SOL    HW2 2544   3.013   0.384   0.117 -1.8333 -0.2478 -2.0394
  849SOL     OW 2545   0.688   0.270   3.055  0.1183  0.4262 -0.1309
  849SOL    HW1 2546   0.698   0.372   3.036  1.5458  1.1868 -0.6243
  849SOL    HW2 2547   0.624   0.240   0.039 -2.3779 -1.6830  0.5736
  850SOL     OW 2548   0.799   2.454   1.004  0.4178 -0.0236 -0.1730
  850SOL    HW1 2549   0.884   2.399   0.984  1.1358 -1.9251 -1.4729
  850SOL    HW2 2550   0.752   2.485   0.917 -2.5967 -1.6680  0.0118
  851SOL     OW 2551   2.408   0.078   2.225 -0.1034  0.7082 -0.0278
  851SOL    HW1 2552   2.445   0.117   2.141 -0.6083 -2.0390  4.3228
  851SOL    HW2 2553   2.335   0.139   2.262 -0.1568 -0.8212  0.9361
  852SOL     OW 2554   1.653   1.390   2.023  0.0705 -0.0488 -0.1154
  852SOL    HW1 2555   1.568   1.408   2.071 -0.9191  0.8836 -2.6934
  852SOL    HW2 2556   1.710   1.324   2.073 -0.9425  1.4628 -0.1496
  853SOL     OW 2557   2.718   2.541   0.612 -0.0132 -0.0571 -0.1007
  853SOL    HW1 2558   2.747   2.448   0.595 -1.4507  3.0184  1.5310
  853SOL    HW2 2559   2.790   2.582   0.670  0.7262 -0.2654  0.1302
  854SOL     OW 2560   2.310   0.180   0.979 -0.2430 -0.2886  0.2448
  854SOL    HW1 2561   2.327   0.260   0.914 -0.2754 -2.3219  0.7495
  854SOL    HW2 2562   2.272   0.207   1.069  1.6357  3.4679  0.0094
  855SOL     OW 2563   1.328   2.163   0.624 -0.0011  0.8433 -0.4067
  855SOL    HW1 2564   1.316   2.186   0.523  1.6586  2.1151  2.1937
  855SOL    HW2 2565   1.347   2.245   0.681  3.6734 -2.0366 -0.6885
  856SOL     OW 2566   2.941   0.532   2.890  0.1183 -0.8071  0.5753
  856SOL    HW1 2567   3.018   0.529   2.822  0.3905  2.2982  1.9396
  856SOL    HW2 2568   2.902   0.439   2.893 -1.0736  0.8238 -0.6288
  857SOL     OW 2569   1.545   3.045   1.815 -0.6255  0.1670 -0.8051
  857SOL    HW1 2570   1.562   2.955   1.872  0.4325 -1.0807 -0.3787
  857SOL    HW2 2571   1.555   0.038   1.876  2.5765 -0.1396 -1.6319
  858SOL     OW 2572   2.579   2.079   1.515  0.1830 -0.6351 -0.2570
  858SOL    HW1 2573   2.667   2.101   1.468 -0.6331 -0.0254  1.5084
  858SOL    HW2 2574   2.526   2.012   1.463  2.9024  1.7330 -3.0327
  859SOL     OW 2575   1.521   2.202   1.187 -0.1455  0.3566  0.9197
  859SOL    HW1 2576   1.460   2.146   1.242  1.9700  4.3491 -1.5302
  859SOL    HW2 2577   1.586   2.256   1.238 -0.8374 -0.1430 -1.6512
  860SOL     OW 2578   2.308   2.500   0.020 -0.0434 -0.0663 -0.3375
  860SOL    HW1 2579   2.357   2.584   0.016 -2.5475 -1.1173 -2.7746
  860SOL    HW2 2580   2.345   2.432   0.084 -0.6513 -0.0641 -1.3637
  861SOL     OW 2581   1.517   2.400   0.989 -0.1420  0.1587 -0.3375
  861SOL    HW1 2582   1.529   2.326   1.058  3.1475 -1.9594  1.1333
  861SOL    HW2 2583   1.609   2.429   0.965 -0.5533 -1.1339  3.3675
  862SOL     OW 2584   1.953   3.048   2.597  0.3462 -0.2402  0.5949
  862SOL    HW1 2585   1.996   0.032   2.538 -0.6857 -1.0146  0.6393
  862SOL    HW2 2586   1.898   0.004   2.676 -2.1629  1.9539  1.4058
  863SOL     OW 2587   0.191   0.472   0.428 -0.1727 -0.2621 -0.5178
  863SOL    HW1 2588   0.271   0.416   0.454 -2.9596 -2.7715  1.7119
  863SOL    HW2 2589   0.119   0.458   0.496 -1.9419 -0.9229  0.0246
  864SOL     OW 2590   2.584   2.553   1.771 -0.2882 -0.0007 -0.0916
  864SOL    HW1 2591   2.589   2.453   1.763  1.0782  0.7365 -3.6282
  864SOL    HW2 2592   2.488   2.582   1.789 -1.6811 -1.6805 -0.0941
  865SOL     OW 2593   2.916   1.993   2.720 -0.4307 -0.2050 -0.6874
  865SOL    HW1 2594   3.021   1.987   2.712 -0.5862  1.9951 -0.3511
  865SOL    HW2 2595   2.878   2.083   2.688 -0.9171 -1.0954  0.3652
  866SOL     OW 2596   2.535   0.499   2.861  0.0605 -0.2471 -0.2276
  866SOL    HW1 2597   2.571   0.481   2.767  0.3856  0.9517 -2.3565
  866SOL    HW2 2598   2.578   0.583   2.904  0.9920  2.1092 -2.1233
  867SOL     OW 2599   0.600   2.933   2.781 -0.4177  0.3517  0.1287
  867SOL    HW1 2600   0.635   2.991   2.854 -2.2611  2.1162 -0.8923
  867SOL    HW2 2601   0.519   2.974   2.742  1.0120 -2.0262  1.1722
  868SOL     OW 2602   1.378   2.404   0.744  0.5638 -0.4416  0.0609
  868SOL    HW1 2603   1.419   2.374   0.835  0.8346 -2.1381  3.3526
  868SOL    HW2 2604   1.282   2.441   0.769 -5.2404 -0.2092  1.9161
  869SOL     OW 2605   1.402   1.382   1.206  0.3711  0.9015 -0.0268
  869SOL    HW1 2606   1.501   1.357   1.184  0.5190 -1.4381  1.1977
  869SOL    HW2 2607   1.385   1.368   1.304 -0.2926 -0.4745  0.2569
  870SOL     OW 2608   1.856   1.972   1.046  0.8323  0.1221 -0.1211
  870SOL    HW1 2609   1.900   2.063   1.060 -3.7313 -1.3701 -0.4274
  870SOL    HW2 2610   1.876   1.908   1.120 -0.9237  3.2008 -1.9981
  871SOL     OW 2611   1.314   1.693   1.186 -0.5061  0.0926 -0.5300
  871SOL    HW1 2612   1.264   1.611   1.158 -1.5556  0.9889  0.1094
  871SOL    HW2 2613   1.392   1.703   1.123 -0.2039  3.6600 -4.2462
  872SOL     OW 2614   1.241   0.995   1.106 -0.1025  0.1749 -0.1277
  872SOL    HW1 2615   1.267   0.997   1.204 -1.6081 -2.7748 -2.0420
  872SOL    HW2 2616   1.255   1.092   1.074 -1.2448  0.4440 -0.5009
  873SOL     OW 2617   1.070   0.993   2.202  0.4741  0.3542 -0.2081
  873SOL    HW1 2618   0.998   1.035   2.258 -0.3381 -2.5096 -0.1911
  873SOL    HW2 2619   1.143   0.954   2.266  1.1870 -2.1206 -1.0613
  874SOL     OW 2620   0.371   1.029   1.065 -0.7096 -0.3574 -0.0159
  874SOL    HW1 2621   0.292   0.981   1.109  2.2743  1.5711  1.4056
  874SOL    HW2 2622   0.342   1.091   0.989  0.1357 -2.9374 -1.8211
  875SOL     OW 2623   2.636   2.806   0.273  0.1306 -0.7913 -0.2574
  875SOL    HW1 2624   2.578   2.872   0.325  0.8823  0.1751  1.1575
  875SOL    HW2 2625   2.703   2.865   0.226  0.5941 -0.6435  1.0920
  876SOL     OW 2626   1.208   0.376   2.777 -0.9472  0.0898 -0.6304
  876SOL    HW1 2627   1.204   0.293   2.831  1.0513  1.0445  0.7632
  876SOL    HW2 2628   1.123   0.431   2.781  1.3091 -0.9570  2.8125
  877SOL     OW 2629   3.002   2.996   1.376  0.6612  0.0637  0.5131
  877SOL    HW1 2630   3.047   3.034   1.455  1.7178 -2.5996 -0.6439
  877SOL    HW2 2631   3.057   2.989   1.291 -2.2918  0.2137 -2.1110
  878SOL     OW 2632   1.809   2.623   2.978  0.2171  0.5579  0.1822
  878SOL    HW1 2633   1.717   2.630   3.019 -2.6608 -0.8977  3.5044
  878SOL    HW2 2634   1.843   2.713   2.943  2.2054 -0.6075 -2.1110
  879SOL     OW 2635   2.208   1.952   1.674 -0.1408  0.1898  0.0228
  879SOL    HW1 2636   2.272   1.927   1.597 -0.2357 -0.1312  0.2367
  879SOL    HW2 2637   2.142   1.871   1.695  1.5692 -1.0329 -1.6704
  880SOL     OW 2638   0.789   0.931   1.048 -0.2637  0.1004 -0.5100
  880SOL    HW1 2639   0.723   0.870   1.099  1.2438 -0.0926  0.4636
  880SOL    HW2 2640   0.770   0.926   0.950 -0.6841  2.1186  0.2261
  881SOL     OW 2641   1.052   1.781   3.031  0.1364 -0.1274 -0.2486
  881SOL    HW1 2642   1.135   1.841   3.042 -0.0240 -1.1234  1.4564
  881SOL    HW2 2643   1.054   1.696   0.004 -1.4906  2.9574 -1.0388
  882SOL     OW 2644   1.799   0.285   1.059 -0.1637  0.1039  0.6334
  882SOL    HW1 2645   1.776   0.366   1.117  0.7289  1.5080 -0.3380
  882SOL    HW2 2646   1.895   0.249   1.072 -1.8293  0.1439  2.1481
  883SOL     OW 2647   1.957   0.656   2.288  0.0986 -0.0869  0.0759
  883SOL    HW1 2648   1.918   0.752   2.297 -0.3325  1.2400 -0.7032
  883SOL    HW2 2649   1.906   0.601   2.219  0.3873 -1.0255 -1.0148
  884SOL     OW 2650   2.646   0.511   0.105 -0.5711 -0.3696  0.6013
  884SOL    HW1 2651   2.752   0.504   0.101  2.8358 -0.1239  0.7683
  884SOL    HW2 2652   2.620   0.588   0.039 -0.1916 -1.1321  1.0644
  885SOL     OW 2653   0.993   1.886   0.736 -0.3460  0.5305  0.2468
  885SOL    HW1 2654   1.055   1.965   0.723 -0.8919 -0.6243  0.8647
  885SOL    HW2 2655   0.949   1.895   0.827  0.0329 -1.0211  2.2816
  886SOL     OW 2656   1.626   1.491   0.007  0.4690  0.2506  0.1579
  886SOL    HW1 2657   1.620   1.477   0.105  1.1984 -0.4047 -0.4847
  886SOL    HW2 2658   1.538   1.514   3.046 -1.6118  0.7336 -0.7470
  887SOL     OW 2659   1.619   0.353   1.691 -0.6617 -0.7258  0.3051
  887SOL    HW1 2660   1.631   0.271   1.625 -3.2766  0.0438 -1.9041
  887SOL    HW2 2661   1.522   0.389   1.679 -0.2625  0.5049  0.7750
  888SOL     OW 2662   2.827   1.483   1.709 -0.2127  0.6288 -0.6159
  888SOL    HW1 2663   2.897   1.434   1.653  1.1342 -0.5233 -1.1598
  888SOL    HW2 2664   2.798   1.565   1.667  1.0321 -2.6069  1.0459
  889SOL     OW 2665   2.992   2.507   0.878  0.0845  0.5865  0.1800
  889SOL    HW1 2666   3.038   2.553   0.805 -3.1382 -1.8172  1.8274
  889SOL    HW2 2667   2.986   2.562   0.963  0.6071  0.8083  1.9650
  890SOL     OW 2668   0.227   2.042   2.392 -0.1442 -0.4095  0.2447
  890SOL    HW1 2669   0.229   1.967   2.326 -0.4749 -2.1799 -0.7105
  890SOL    HW2 2670   0.207   2.132   2.342 -1.0825  0.3133 -0.8918
  891SOL     OW 2671   0.908   1.769   0.508 -0.2399  0.5304  0.4736
  891SOL    HW1 2672   0.928   1.813   0.598 -1.8932 -0.5201 -2.1205
  891SOL    HW2 2673   0.912   1.670   0.526  1.0630 -1.0359 -0.3817
  892SOL     OW 2674   3.081   2.363   1.387 -0.0891 -0.4976  0.0728
  892SOL    HW1 2675   2.995   2.402   1.356  0.9974 -4.2179  0.8311
  892SOL    HW2 2676   3.077   2.262   1.360  0.8716 -1.5953  0.9651
  893SOL     OW 2677   0.058   3.085   1.592 -0.0051 -0.1271 -0.3181
  893SOL    HW1 2678   0.006   0.031   1.677  1.8727  0.0095 -0.5972
  893SOL    HW2 2679   0.144   3.037   1.618  0.7504 -0.2771  1.0521
  894SOL     OW 2680   2.597   1.760   0.749 -0.6024  0.5982  0.3704
  894SOL    HW1 2681   2.694   1.719   0.762  1.5886  2.9121  0.1477
  894SOL    HW2 2682   2.593   1.847   0.697  1.6110  1.6340 -0.5422
  895SOL     OW 2683   1.789   2.477   1.661  0.0022 -0.2291  0.1051
  895SOL    HW1 2684   1.873   2.497   1.715  0.7876 -0.5792  1.4395
  895SOL    HW2 2685   1.813   2.488   1.569  1.2349 -1.6389  3.7105
  896SOL     OW 2686   0.429   0.034   1.470  0.4775  0.2716 -0.4119
  896SOL    HW1 2687   0.370   0.013   1.388  0.3630  1.3311 -2.1560
  896SOL    HW2 2688   0.452   0.131   1.476 -0.3149  1.2981 -0.6804
  897SOL     OW 2689   1.228   1.070   1.369  0.2322  0.0383 -0.4400
  897SOL    HW1 2690   1.177   1.015   1.436  2.0418 -0.0572 -0.3089
  897SOL    HW2 2691   1.289   1.134   1.415  0.0628 -1.2554 -3.5864
  898SOL     OW 2692   0.840   3.076   1.583  0.4540 -0.4243 -0.9755
  898SOL    HW1 2693   0.821   3.087   1.683  0.2256  0.4111  3.5457
  898SOL    HW2 2694   0.934   3.041   1.570  3.8080 -0.6376  2.4674
  899SOL     OW 2695   1.374   0.373   0.018  0.2438 -0.0322 -0.2964
  899SOL    HW1 2696   1.453   0.325   3.071  0.5027  1.8141 -3.7722
  899SOL    HW2 2697   1.303   0.357   3.039  2.7952  0.8307 -1.2289
  900SOL     OW 2698   0.773   0.109   2.149 -0.1744  0.1951  0.2526
  900SOL    HW1 2699   0.790   0.183   2.216 -2.2546  0.2484 -2.4983
  900SOL    HW2 2700   0.679   0.123   2.114  3.6913  0.3915  2.7845
  901SOL     OW 2701   0.942   2.109   0.502  0.0521  0.0147 -0.2498
  901SOL    HW1 2702   0.961   2.210   0.505 -2.2770  0.4354 -0.0478
  901SOL    HW2 2703   0.996   2.057   0.432  0.8539 -0.4628 -0.4639
  902SOL     OW 2704   2.051   0.496   1.086  0.2030  0.0029  0.6435
  902SOL    HW1 2705   1.973   0.545   1.047  3.3749 -1.2142  2.7892
  902SOL    HW2 2706   2.047   0.395   1.065  0.5949  1.2148 -1.3009
  903SOL     OW 2707   2.639   0.916   2.571 -0.2500 -0.9927  0.3991
  903SOL    HW1 2708   2.552   0.927   2.628 -2.5132  0.5663  0.3108
  903SOL    HW2 2709   2.659   0.995   2.509 -2.2480 -0.5106 -1.4612
  904SOL     OW 2710   1.366   1.313   0.217  0.1500 -0.1706 -0.2123
  904SOL    HW1 2711   1.334   1.231   0.271  1.0353  1.2609 -1.6884
  904SOL    HW2 2712   1.296   1.347   0.153 -0.6458 -1.0977 -0.0797
  905SOL     OW 2713   1.844   3.033   1.531 -0.4640  0.2412 -0.1540
  905SOL    HW1 2714   1.927   3.035   1.594  4.1204 -0.8104  1.6646
  905SOL    HW2 2715   1.857   3.001   1.435 -1.0509 -2.4769 -0.2625
  906SOL     OW 2716   2.232   2.830   1.090 -0.1986  0.1907  0.2855
  906SOL    HW1 2717   2.280   2.909   1.141  0.1896  2.5908  0.5997
  906SOL    HW2 2718   2.291   2.789   1.016  2.4087 -0.8857  1.4974
  907SOL     OW 2719   1.790   0.996   0.303  0.0943 -0.2320  0.1347
  907SOL    HW1 2720   1.741   0.907   0.293  2.6890 -1.1631 -1.4825
  907SOL    HW2 2721   1.755   1.057   0.378  0.1256 -1.0202  1.7660
  908SOL     OW 2722   1.833   0.209   1.359 -0.2488  0.5779 -0.5159
  908SOL    HW1 2723   1.786   0.190   1.442  0.8732  2.4293 -3.7807
  908SOL    HW2 2724   1.766   0.258   1.301  1.4725 -2.0665  4.0107
  909SOL     OW 2725   2.306   3.007   0.594  0.0322  0.1283  0.4647
  909SOL    HW1 2726   2.270   2.911   0.597 -0.6275 -0.1491 -1.4479
  909SOL    HW2 2727   2.246   3.069   0.651  0.7963 -2.8176  1.0788
  910SOL     OW 2728   2.621   0.493   2.027 -0.1770 -0.4413 -0.0709
  910SOL    HW1 2729   2.630   0.575   2.088 -0.6763 -0.7653  0.4515
  910SOL    HW2 2730   2.590   0.508   1.930  0.4360  1.3762  1.5753
  911SOL     OW 2731   2.688   0.170   2.766 -0.1995  0.2658 -0.1237
  911SOL    HW1 2732   2.662   0.203   2.674  0.6947  0.7054  0.2016
  911SOL    HW2 2733   2.627   0.103   2.807  1.2466 -0.2780 -0.6087
  912SOL     OW 2734   0.707   1.157   1.474 -0.0776 -0.0628  0.9597
  912SOL    HW1 2735   0.650   1.156   1.387 -0.5472  0.5426 -1.6791
  912SOL    HW2 2736   0.713   1.252   1.509 -0.8062  1.1399  2.4842
  913SOL     OW 2737   2.839   2.493   1.294 -0.3787 -0.4993 -0.0840
  913SOL    HW1 2738   2.780   2.553   1.353 -1.3372 -2.0598 -0.4307
  913SOL    HW2 2739   2.776   2.419   1.269  2.1473  0.9046 -1.9081
  914SOL     OW 2740   1.895   0.974   1.523  0.7010 -0.2521  0.4937
  914SOL    HW1 2741   1.916   1.072   1.528 -2.0662 -2.0391 -1.0639
  914SOL    HW2 2742   1.972   0.924   1.481 -1.0473 -0.8502 -0.8326
  915SOL     OW 2743   3.083   1.520   1.116 -0.1322  0.1798 -0.2683
  915SOL    HW1 2744   3.039   1.610   1.129  0.1937 -2.2677 -1.6283
  915SOL    HW2 2745   3.016   1.442   1.120 -0.7410 -2.5591 -0.9325
  916SOL     OW 2746   1.993   2.193   1.054 -0.4760 -0.0637  0.3186
  916SOL    HW1 2747   1.952   2.269   1.106  1.8767 -0.4437 -1.7358
  916SOL    HW2 2748   2.024   2.220   0.959  1.6494 -0.0986 -4.1087
  917SOL     OW 2749   1.690   2.512   2.187 -0.0701  0.0452  0.0785
  917SOL    HW1 2750   1.711   2.533   2.288 -2.6504  1.1612  3.6797
  917SOL    HW2 2751   1.647   2.419   2.175 -1.4239 -0.9338 -0.2657
  918SOL     OW 2752   1.795   2.205   2.444  0.2950 -0.3415  0.5359
  918SOL    HW1 2753   1.815   2.287   2.384  1.9478  4.4200  0.1421
  918SOL    HW2 2754   1.841   2.216   2.535 -1.6050  0.5735 -2.7913
  919SOL     OW 2755   0.749   0.154   1.395 -0.1967  0.2972  0.1993
  919SOL    HW1 2756   0.661   0.205   1.396  2.1379  0.3863  0.3581
  919SOL    HW2 2757   0.762   0.085   1.468  3.3180 -2.7753  0.1146
  920SOL     OW 2758   2.806   0.359   2.201  0.2396  0.5341 -0.0383
  920SOL    HW1 2759   2.728   0.398   2.146 -0.2112 -1.3459  1.2037
  920SOL    HW2 2760   2.771   0.356   2.299  1.5877  0.9849 -1.2428
  921SOL     OW 2761   2.841   1.063   1.492 -0.0370  0.9926 -0.3710
  921SOL    HW1 2762   2.903   0.979   1.497  2.2779  0.2164  0.6564
  921SOL    HW2 2763   2.747   1.052   1.534 -0.4069 -1.6471  0.6023
  922SOL     OW 2764   2.387   2.090   0.598 -0.0867 -0.1603 -0.4000
  922SOL    HW1 2765   2.332   2.139   0.528  0.6477 -1.3758  0.4751
  922SOL    HW2 2766   2.406   2.163   0.663 -0.3232 -0.7088 -1.9013
  923SOL     OW 2767   0.586   2.544   0.553  0.7435  0.1246 -0.1474
  923SOL    HW1 2768   0.564   2.473   0.482  2.9324 -1.5183 -0.9235
  923SOL    HW2 2769   0.585   2.494   0.642  2.3082 -0.5530 -2.2966
  924SOL     OW 2770   1.087   0.949   2.533 -0.2201  0.1658  0.6982
  924SOL    HW1 2771   1.109   1.038   2.578 -0.3597 -0.1696  0.4352
  924SOL    HW2 2772   1.156   0.942   2.458 -1.8260  0.4792  1.3612
  925SOL     OW 2773   2.730   1.441   0.706  0.4161 -0.1674 -0.0229
  925SOL    HW1 2774   2.707   1.363   0.766 -1.5090  1.1905 -3.0006
  925SOL    HW2 2775   2.653   1.470   0.647  0.9963 -0.0754  0.9870
  926SOL     OW 2776   0.016   0.229   0.824 -0.0947 -0.0480  0.2829
  926SOL    HW1 2777   0.102   0.188   0.791 -1.6746  0.8534 -1.1199
  926SOL    HW2 2778   3.044   0.156   0.862  2.8732 -0.6856 -0.3235
  927SOL     OW 2779   0.301   2.091   2.804  0.1090  0.2772 -0.6492
  927SOL    HW1 2780   0.273   2.157   2.874  0.1737 -1.2541  2.1917
  927SOL    HW2 2781   0.236   2.013   2.786  0.9215 -0.0383 -1.6410
  928SOL     OW 2782   0.103   0.409   2.426 -0.3293 -0.4727  0.5262
  928SOL    HW1 2783   0.170   0.340   2.451 -0.6115  0.9047 -2.6285
  928SOL    HW2 2784   0.139   0.467   2.349  1.5931 -0.2280 -1.7071
  929SOL     OW 2785   2.862   2.030   1.121  0.1419 -0.3007 -0.3060
  929SOL    HW1 2786   2.758   2.026   1.102 -2.0589 -1.6761 -0.6148
  929SOL    HW2 2787   2.909   2.090   1.052 -0.1603 -0.3664 -1.5634
  930SOL     OW 2788   1.848   0.335   2.361 -0.5144 -0.0172 -0.3814
  930SOL    HW1 2789   1.751   0.332   2.385  0.4718  1.4133 -0.2217
  930SOL    HW2 2790   1.869   0.432   2.331 -0.7650  3.1343  0.5237
  931SOL     OW 2791   2.357   1.110   2.859 -0.5105 -0.3863  0.4102
  931SOL    HW1 2792   2.294   1.184   2.833 -0.5268 -1.7360  0.5725
  931SOL    HW2 2793   2.346   1.036   2.790  0.3352  2.2418  0.1218
  932SOL     OW 2794   1.985   1.033   0.717 -0.2173  0.1806 -0.5278
  932SOL    HW1 2795   1.945   0.948   0.675  0.0243  0.8723  0.3798
  932SOL    HW2 2796   1.974   1.112   0.655  0.0035  2.1032 -0.9714
  933SOL     OW 2797   2.430   1.343   0.958  0.2521  0.7003  0.1599
  933SOL    HW1 2798   2.342   1.303   0.928 -1.6268  0.1486  1.9378
  933SOL    HW2 2799   2.440   1.436   0.917  0.6922  0.6132 -0.7581
  934SOL     OW 2800   2.368   0.924   2.647 -0.3654  0.0660 -0.1602
  934SOL    HW1 2801   2.328   0.957   2.563  0.3449 -1.9864  1.8442
  934SOL    HW2 2802   2.349   0.826   2.650  0.6981 -2.5389 -1.1225
  935SOL     OW 2803   0.183   1.574   0.729 -0.5658  0.6662 -0.2443
  935SOL    HW1 2804   0.271   1.574   0.672  0.0286 -1.4468  1.4032
  935SOL    HW2 2805   0.109   1.524   0.686  1.2291  1.5028 -2.0541
  936SOL     OW 2806   3.037   2.513   0.515 -0.5880  0.2315  0.2914
  936SOL    HW1 2807   0.015   2.573   0.570  1.6208  0.9639 -0.7569
  936SOL    HW2 2808   3.057   2.520   0.415  1.5406 -1.1562  0.7030
  937SOL     OW 2809   3.017   2.220   1.855  0.2699 -0.1867  0.1508
  937SOL    HW1 2810   3.082   2.255   1.779  2.8086  0.9566 -1.5700
  937SOL    HW2 2811   3.008   2.121   1.858  0.2456 -2.0032 -1.7264
  938SOL     OW 2812   2.601   1.987   3.008  0.6032  0.2694 -0.2168
  938SOL    HW1 2813   2.699   2.005   2.995 -2.2326  0.3618 -1.2020
  938SOL    HW2 2814   2.578   1.887   3.006 -1.1026 -0.9186  2.3264
  939SOL     OW 2815   0.996   0.913   1.205  0.9170 -0.7028 -0.2619
  939SOL    HW1 2816   1.057   0.979   1.162 -4.1990 -0.2085  0.4006
  939SOL    HW2 2817   0.913   0.902   1.143 -0.9904 -0.1907 -3.6220
  940SOL     OW 2818   2.461   3.068   2.852 -0.6131 -0.5015 -0.0072
  940SOL    HW1 2819   2.410   0.027   2.778  1.9631 -1.0130 -0.7818
  940SOL    HW2 2820   2.483   2.970   2.829  0.6406 -1.5331  1.4830
  941SOL     OW 2821   2.643   2.700   2.231 -0.1056 -0.7011  0.1204
  941SOL    HW1 2822   2.688   2.629   2.180 -0.1239  1.2776  0.4827
  941SOL    HW2 2823   2.569   2.739   2.168 -1.5083 -1.2802  1.2279
  942SOL     OW 2824   1.421   0.343   1.227  0.3661 -0.1353 -0.1611
  942SOL    HW1 2825   1.488   0.392   1.164  2.8043  1.3956 -1.2728
  942SOL    HW2 2826   1.380   0.404   1.298 -0.3629 -0.3438 -2.8168
  943SOL     OW 2827   0.561   1.687   2.405 -0.3181  0.5760  0.5220
  943SOL    HW1 2828   0.536   1.690   2.307 -0.6411  1.6122  0.8779
  943SOL    HW2 2829   0.517   1.768   2.448 -1.7252  0.1388  0.7217
  944SOL     OW 2830   2.370   0.863   0.800  0.1573 -0.1572  0.0404
  944SOL    HW1 2831   2.296   0.792   0.802  0.9934  1.2122  2.3465
  944SOL    HW2 2832   2.355   0.938   0.735  0.3397  1.9642  0.2022
  945SOL     OW 2833   0.018   0.107   2.890  0.4153 -0.1960  0.4610
  945SOL    HW1 2834   3.086   0.079   2.794 -2.8741  1.1921 -0.1006
  945SOL    HW2 2835   0.102   0.162   2.894  0.2584 -0.5690  1.0598
  946SOL     OW 2836   0.159   1.306   1.473  0.0262 -0.2859  0.0801
  946SOL    HW1 2837   0.257   1.322   1.483 -2.1406 -2.6341 -0.2979
  946SOL    HW2 2838   0.117   1.341   1.559 -1.4425  2.0463 -0.9522
  947SOL     OW 2839   0.992   0.097   0.074  0.1402  0.0160 -0.2679
  947SOL    HW1 2840   1.040   0.088   0.162 -1.0061  1.0658  0.6087
  947SOL    HW2 2841   0.916   0.027   0.069 -3.0461 -1.3806  0.7927
  948SOL     OW 2842   2.501   1.646   1.442 -0.2510  0.4728 -0.5463
  948SOL    HW1 2843   2.594   1.658   1.486  1.6726 -2.0668  0.8329
  948SOL    HW2 2844   2.481   1.544   1.429  0.0551  0.0501 -1.3301
  949SOL     OW 2845   0.201   0.801   3.036  0.1968 -0.3642  0.1146
  949SOL    HW1 2846   0.207   0.891   3.084 -0.9698  2.6103 -1.7521
  949SOL    HW2 2847   0.181   0.821   2.939  2.3339  0.2463  1.0698
  950SOL     OW 2848   0.367   2.670   1.276 -0.0067  0.2846 -0.0458
  950SOL    HW1 2849   0.327   2.679   1.372 -1.8764 -2.2234  0.5430
  950SOL    HW2 2850   0.451   2.720   1.263 -0.6050 -1.7823  1.4221
  951SOL     OW 2851   0.800   1.844   2.684  0.2534  0.1778 -0.7827
  951SOL    HW1 2852   0.744   1.816   2.763 -1.8145  0.0150  0.0905
  951SOL    HW2 2853   0.810   1.944   2.679  0.5123 -1.0959  1.3603
  952SOL     OW 2854   0.707   1.467   0.581 -0.3349 -0.2841 -0.4180
  952SOL    HW1 2855   0.711   1.367   0.607  0.6626 -0.9187 -0.5569
  952SOL    HW2 2856   0.791   1.509   0.625  0.7651 -0.7382  1.7884
  953SOL     OW 2857   2.230   1.743   2.635 -0.0281  0.1551  0.1089
  953SOL    HW1 2858   2.250   1.756   2.535  1.0494 -0.4356  2.7892
  953SOL    HW2 2859   2.311   1.705   2.675 -3.9793 -0.0296 -0.5011
  954SOL     OW 2860   1.699   0.694   0.790  0.1756 -0.4438  0.2116
  954SOL    HW1 2861   1.623   0.626   0.803 -1.5169 -0.9877 -2.0853
  954SOL    HW2 2862   1.685   0.786   0.830  3.0643 -0.8390 -3.1123
  955SOL     OW 2863   0.814   1.897   2.972 -0.3610 -0.3713  0.3497
  955SOL    HW1 2864   0.816   1.985   2.917  0.7634  0.3825 -0.0711
  955SOL    HW2 2865   0.905   1.865   3.010 -1.2175 -1.1728 -1.9500
  956SOL     OW 2866   2.842   0.518   1.795  0.2116  0.3942 -0.7161
  956SOL    HW1 2867   2.767   0.467   1.750 -3.8163  1.6391 -1.0767
  956SOL    HW2 2868   2.805   0.554   1.880  0.5158 -1.0364  1.4173
  957SOL     OW 2869   1.568   1.957   2.177 -0.1874  0.5376  0.3137
  957SOL    HW1 2870   1.669   1.943   2.148  2.3510 -0.8123 -1.3564
  957SOL    HW2 2871   1.508   1.906   2.117  3.3080  0.0643  1.0951
  958SOL     OW 2872   1.625   0.964   1.503  0.2578 -0.1063  0.1337
  958SOL    HW1 2873   1.584   1.019   1.578  1.6158 -0.9944 -0.9157
  958SOL    HW2 2874   1.725   0.963   1.512  0.9891 -1.8118 -0.1634
  959SOL     OW 2875   1.444   1.787   2.037  0.3074 -0.0764  0.1952
  959SOL    HW1 2876   1.477   1.738   1.955 -0.4352  3.4001  1.1578
  959SOL    HW2 2877   1.390   1.734   2.104 -0.4840  0.0593 -0.1345
  960SOL     OW 2878   0.563   0.846   2.764  0.0526  0.2559 -0.7131
  960SOL    HW1 2879   0.531   0.938   2.795 -0.5392 -1.1594 -1.1719
  960SOL    HW2 2880   0.640   0.817   2.823 -4.2731  0.0441  0.2529
  961SOL     OW 2881   0.292   1.208   2.951 -0.4640 -0.3119  0.0737
  961SOL    HW1 2882   0.229   1.204   2.872 -0.9698 -0.0420  0.2599
  961SOL    HW2 2883   0.291   1.296   3.003  3.4509 -0.2937  0.2827
  962SOL     OW 2884   0.804   2.124   2.831 -0.2343  0.7625 -0.5219
  962SOL    HW1 2885   0.706   2.161   2.847 -0.5507  1.2668 -0.1360
  962SOL    HW2 2886   0.883   2.181   2.870 -0.4363 -1.4227 -2.4994
  963SOL     OW 2887   3.004   1.679   3.082 -0.0548  0.2523 -0.1994
  963SOL    HW1 2888   0.004   1.687   3.034 -2.7765 -1.6789  2.3808
  963SOL    HW2 2889   2.979   1.769   0.045 -1.9727  2.4864  2.0066
  964SOL     OW 2890   0.492   2.390   2.300 -0.6230 -0.4261  0.1878
  964SOL    HW1 2891   0.527   2.392   2.205 -0.4247 -0.6039 -2.2714
  964SOL    HW2 2892   0.460   2.484   2.330 -0.5412  1.9045  2.6002
  965SOL     OW 2893   1.597   1.827   1.533  0.0780 -0.4989  0.2084
  965SOL    HW1 2894   1.598   1.744   1.476 -0.6562  1.5393 -0.7213
  965SOL    HW2 2895   1.569   1.794   1.621  0.8647 -1.8368 -2.1638
  966SOL     OW 2896   3.003   1.517   0.237  0.7532 -0.0579 -0.5241
  966SOL    HW1 2897   3.082   1.543   0.301  0.8330  1.2506  0.0934
  966SOL    HW2 2898   3.023   1.538   0.139  1.0694 -0.6879 -0.9074
  967SOL     OW 2899   1.958   2.740   2.050  0.1916 -0.2738 -0.1295
  967SOL    HW1 2900   1.947   2.639   2.043 -0.0071 -0.5528 -0.6120
  967SOL    HW2 2901   1.977   2.775   1.958 -1.5827 -0.0561  0.5889
  968SOL     OW 2902   1.490   1.070   3.028  0.0508  0.0458 -0.5875
  968SOL    HW1 2903   1.591   1.061   3.054 -0.4109  1.4287  1.3724
  968SOL    HW2 2904   1.474   1.041   2.931 -1.5673 -1.9181  0.0207
  969SOL     OW 2905   0.155   1.332   2.319 -0.4010 -0.2240 -0.3729
  969SOL    HW1 2906   0.184   1.294   2.227 -0.6546  0.6737  0.1016
  969SOL    HW2 2907   0.235   1.326   2.382  1.0168  0.4197  0.2331
  970SOL     OW 2908   2.201   2.741   0.597  0.3947  0.1741 -0.0227
  970SOL    HW1 2909   2.252   2.693   0.525  0.1024 -1.4689 -1.7694
  970SOL    HW2 2910   2.105   2.703   0.599 -2.3947 -1.0957 -0.5559
  971SOL     OW 2911   1.997   2.080   0.759 -0.3607 -0.2282 -0.1411
  971SOL    HW1 2912   2.092   2.070   0.798  0.2130 -2.1867  0.4681
  971SOL    HW2 2913   1.988   2.168   0.708 -0.2132  1.2364 -1.9168
  972SOL     OW 2914   0.131   1.574   2.767  0.4585 -0.2163  0.4448
  972SOL    HW1 2915   0.083   1.652   2.719  0.1374  0.3182 -0.6309
  972SOL    HW2 2916   0.137   1.498   2.702  0.0572  1.7335  2.4084
  973SOL     OW 2917   0.769   0.551   0.195 -0.5352  0.0424 -0.1524
  973SOL    HW1 2918   0.841   0.475   0.178  3.3039 -1.7175  0.6129
  973SOL    HW2 2919   0.812   0.645   0.207  0.5898  1.9578 -1.1232
  974SOL     OW 2920   2.337   0.765   1.625 -0.7282 -0.0814  0.2088
  974SOL    HW1 2921   2.298   0.675   1.655  0.8060  0.9368 -2.0906
  974SOL    HW2 2922   2.436   0.760   1.612  0.2472  2.2127 -2.8557
  975SOL     OW 2923   2.960   2.991   0.536 -0.5601  0.2304  0.2673
  975SOL    HW1 2924   3.045   3.038   0.564  0.3203 -1.0538 -3.7238
  975SOL    HW2 2925   2.884   3.026   0.592 -1.2142 -1.6710 -3.4268
  976SOL     OW 2926   0.729   1.650   1.525 -0.1376 -0.0149  0.2644
  976SOL    HW1 2927   0.729   1.548   1.538  2.0437 -1.2203  4.1307
  976SOL    HW2 2928   0.739   1.681   1.429 -2.6040 -2.6050  0.5235
  977SOL     OW 2929   1.326   2.228   0.363  0.3479  0.2537  0.7310
  977SOL    HW1 2930   1.379   2.172   0.298 -0.6712 -1.6750  0.1259
  977SOL    HW2 2931   1.278   2.304   0.314 -1.5150  1.9732 -1.3517
  978SOL     OW 2932   3.036   0.697   3.082  0.0155  0.3172 -0.1087
  978SOL    HW1 2933   2.999   0.647   3.006 -1.1774 -0.9772  2.9133
  978SOL    HW2 2934   0.048   0.725   3.063  0.9007  2.7401  0.5550
  979SOL     OW 2935   1.997   1.455   0.767  0.7215  0.4541  0.0422
  979SOL    HW1 2936   2.047   1.535   0.736 -0.8867  0.1830 -0.5298
  979SOL    HW2 2937   1.897   1.469   0.750 -2.4705  1.9983  1.6104
  980SOL     OW 2938   0.650   2.013   1.791  0.5091 -0.6075 -0.1891
  980SOL    HW1 2939   0.697   1.928   1.771 -0.1565  2.3942  0.8465
  980SOL    HW2 2940   0.597   2.042   1.707 -0.4343 -0.3972  1.9412
  981SOL     OW 2941   2.619   1.386   2.515  0.4623 -0.7308  0.1626
  981SOL    HW1 2942   2.703   1.372   2.564  0.1272  1.9161  1.0285
  981SOL    HW2 2943   2.532   1.384   2.569  0.2611  1.4681 -1.8481
  982SOL     OW 2944   0.172   1.946   1.812 -0.3420 -0.0830 -0.0434
  982SOL    HW1 2945   0.230   1.991   1.740 -0.8064  2.5325  0.3816
  982SOL    HW2 2946   0.235   1.890   1.866  1.9063  0.4999  3.8526
  983SOL     OW 2947   1.602   0.350   1.982  0.6760 -0.4709 -0.3147
  983SOL    HW1 2948   1.507   0.357   2.020  1.1697 -1.8650  0.0254
  983SOL    HW2 2949   1.607   0.320   1.880 -0.9190 -3.2194 -3.6959
  984SOL     OW 2950   2.906   2.979   2.912 -0.4625 -0.5735 -0.3437
  984SOL    HW1 2951   2.996   3.026   2.901  1.7553  1.8580  2.6363
  984SOL    HW2 2952   2.867   2.954   2.822  2.6170  1.2159  2.0743
  985SOL     OW 2953   1.357   1.241   1.889  0.0237 -0.1804  0.2576
  985SOL    HW1 2954   1.390   1.340   1.870  0.8190  1.3834  4.6605
  985SOL    HW2 2955   1.421   1.174   1.856  0.7429 -0.7329 -1.7673
  986SOL     OW 2956   2.039   0.318   2.761 -0.3211  0.4452 -0.2289
  986SOL    HW1 2957   2.125   0.367   2.783 -1.3971 -1.7546 -0.8014
  986SOL    HW2 2958   1.966   0.384   2.744  2.1346  0.5262  2.0326
  987SOL     OW 2959   2.811   1.688   2.602 -0.0860  0.5253 -0.0838
  987SOL    HW1 2960   2.808   1.706   2.701 -0.5956 -1.8140 -1.3983
  987SOL    HW2 2961   2.725   1.717   2.559  1.6757  1.4040  1.2122
  988SOL     OW 2962   2.985   0.267   1.264 -0.3424 -0.0259 -0.6153
  988SOL    HW1 2963   3.074   0.234   1.297  1.4461 -1.6836  0.3898
  988SOL    HW2 2964   2.922   0.186   1.255 -1.5266  1.1862  1.6012
  989SOL     OW 2965   2.051   0.217   1.094 -0.0298  0.3117 -0.4110
  989SOL    HW1 2966   2.055   0.123   1.052  0.3335 -0.9472  0.6282
  989SOL    HW2 2967   2.118   0.211   1.171  1.1906  0.2073  3.4802
  990SOL     OW 2968   2.617   0.724   3.001 -0.0041  0.3568  0.1902
  990SOL    HW1 2969   2.684   0.755   2.931 -1.2808 -0.2102 -0.3645
  990SOL    HW2 2970   2.612   0.799   3.065  2.9731 -2.1891 -1.3250
  991SOL     OW 2971   0.387   1.391   0.273 -0.1837  0.2032  0.5007
  991SOL    HW1 2972   0.369   1.313   0.339  0.9688 -1.6667 -0.0658
  991SOL    HW2 2973   0.469   1.440   0.302  1.6665  0.9441  0.4979
  992SOL     OW 2974   2.019   1.304   1.796 -0.2337 -0.9526  0.8445
  992SOL    HW1 2975   2.063   1.391   1.818 -1.0852 -0.4472 -2.1311
  992SOL    HW2 2976   2.060   1.227   1.846 -2.6221 -1.0182 -1.0325
  993SOL     OW 2977   0.303   2.401   0.710  0.1934 -0.0283  0.1851
  993SOL    HW1 2978   0.262   2.497   0.719  0.3711  0.2937  0.0659
  993SOL    HW2 2979   0.401   2.392   0.741 -1.7435  1.1229 -1.0443
  994SOL     OW 2980   2.955   1.696   1.892 -0.3981 -0.0006  0.0516
  994SOL    HW1 2981   2.871   1.641   1.879 -0.1073  0.8805  2.4372
  994SOL    HW2 2982   3.015   1.688   1.812  1.8117  0.2313  1.5942
  995SOL     OW 2983   1.976   1.822   2.668 -0.2943 -0.4053  0.3309
  995SOL    HW1 2984   1.941   1.857   2.578  1.6618  2.2181 -0.4661
  995SOL    HW2 2985   2.065   1.771   2.650  0.9546 -4.3087 -0.1831
  996SOL     OW 2986   2.066   2.305   0.409  0.0513  0.4179 -0.1938
  996SOL    HW1 2987   1.973   2.280   0.372 -0.9046  0.9912  0.6527
  996SOL    HW2 2988   2.133   2.286   0.337 -0.0279 -0.8215 -3.2704
  997SOL     OW 2989   0.971   1.651   2.260  0.3116  0.2975 -0.1566
  997SOL    HW1 2990   0.922   1.634   2.350 -0.8361 -0.9868  0.2674
  997SOL    HW2 2991   0.953   1.576   2.192 -1.0268  2.1012  0.7378
  998SOL     OW 2992   2.883   2.314   0.637  0.1401 -0.3781  0.2799
  998SOL    HW1 2993   2.939   2.269   0.709 -0.6135 -0.7065 -1.1108
  998SOL    HW2 2994   2.940   2.383   0.590  0.7910 -0.7837  0.0569
  999SOL     OW 2995   0.543   3.011   0.545  0.5791 -0.1508  0.0107
  999SOL    HW1 2996   0.451   2.980   0.513 -1.8527 -0.9532 -0.4114
  999SOL    HW2 2997   0.605   2.930   0.566  2.8216  1.1184 -0.1827
 1000SOL     OW 2998   1.311   0.276   0.284  0.0980 -0.1489  0.4663
 1000SOL    HW1 2999   1.374   0.322   0.215  0.2716  0.8579 -1.4699
 1000SOL    HW2 3000   1.232   0.340   0.304 -3.2311  1.1666 -0.3188
   3.08744   3.08744   3.08744
