1000 SPC/Fw water molecules t= 233.00000 step= 233000
 3000
    1SOL     OW    1   0.056   2.713   0.955 -0.0629  0.5563  0.2724
    1SOL    HW1    2   0.113   2.748   1.033  1.3333  0.1079 -0.1503
    1SOL    HW2    3   3.087   2.781   0.937  0.2024  0.1393  1.0331
    2SOL     OW    4   1.879   1.780   1.667  0.2973 -0.2472 -0.4185
    2SOL    HW1    5   1.915   1.696   1.622  1.9563  1.4389 -1.3662
    2SOL    HW2    6   1.806   1.820   1.604  0.0122  1.2294 -0.0302
    3SOL     OW    7   1.729   2.379   2.480  0.8267  0.1660 -0.5115
    3SOL    HW1    8   1.657   2.419   2.538  0.0480 -1.1092  2.2201
    3SOL    HW2    9   1.821   2.418   2.490  2.6547 -2.8670 -0.7453
    4SOL     OW   10   2.137   2.043   2.186 -0.2366  0.4588 -0.1769
    4SOL    HW1   11   2.096   2.105   2.256  0.8850 -0.2064 -0.6515
    4SOL    HW2   12   2.223   1.997   2.214 -0.1867 -1.8788 -2.4243
    5SOL     OW   13   1.340   1.231   1.575  0.0177  0.0307  0.7375
    5SOL    HW1   14   1.333   1.249   1.473 -0.6491  1.7834 -1.7294
    5SOL    HW2   15   1.272   1.163   1.604 -2.4074 -1.1871  0.7701
    6SOL     OW   16   2.438   3.008   0.079  0.1407  0.2495  0.0748
    6SOL    HW1   17   2.515   2.938   0.081  0.2898  1.3078  0.1924
    6SOL    HW2   18   2.348   2.969   0.044  1.0107 -0.5937 -0.2446
    7SOL     OW   19   2.924   1.541   1.510  0.0758  0.8611  0.3340
    7SOL    HW1   20   2.905   1.475   1.582 -0.3473  0.5168 -3.6081
    7SOL    HW2   21   3.013   1.527   1.459  2.1174 -0.4479  0.2654
    8SOL     OW   22   1.095   0.454   0.814 -0.8413 -0.6256  0.1353
    8SOL    HW1   23   1.171   0.448   0.878  1.3884 -0.6726 -1.3391
    8SOL    HW2   24   1.021   0.389   0.842 -2.9980  3.1356  1.4929
    9SOL     OW   25   1.302   0.555   2.510 -0.2159  0.0285  0.0208
    9SOL    HW1   26   1.338   0.626   2.572 -1.2708  0.1709 -1.2383
    9SOL    HW2   27   1.342   0.561   2.417  1.1543 -1.6568  0.2438
   10SOL     OW   28   0.545   2.270   0.231  0.2556  0.3342  0.0595
   10SOL    HW1   29   0.487   2.189   0.232  3.3362 -0.6099  0.7431
   10SOL    HW2   30   0.572   2.294   0.328  1.0102  1.0455 -0.9171
   11SOL     OW   31   0.993   0.924   0.214 -0.0690 -0.1126  0.1019
   11SOL    HW1   32   0.921   0.921   0.282  1.7932  2.2914 -2.0750
   11SOL    HW2   33   0.977   1.000   0.145 -0.8969  2.5771  2.5838
   12SOL     OW   34   0.092   0.313   1.529  0.1473 -0.1491 -0.4457
   12SOL    HW1   35   0.007   0.365   1.545  1.3475 -0.8591  1.1023
   12SOL    HW2   36   0.160   0.359   1.588 -3.7581  0.4934  1.1886
   13SOL     OW   37   1.312   3.088   0.081 -0.0366  0.8416 -0.1706
   13SOL    HW1   38   1.239   0.024   0.022  0.9026  0.6742 -1.0933
   13SOL    HW2   39   1.287   3.098   0.176  1.8813  3.7737 -1.1599
   14SOL     OW   40   1.182   2.546   1.265  0.8245 -0.3879  0.2870
   14SOL    HW1   41   1.137   2.552   1.358  1.5425 -1.8526 -0.9315
   14SOL    HW2   42   1.200   2.450   1.244  1.6351  1.5918 -2.2626
   15SOL     OW   43   2.511   1.013   1.413 -0.0850  0.1418 -0.1430
   15SOL    HW1   44   2.592   1.048   1.458 -0.4637 -1.3248  0.0521
   15SOL    HW2   45   2.472   0.934   1.467 -1.8900 -1.0924 -0.8201
   16SOL     OW   46   1.962   2.656   2.882  0.0708  0.1183 -0.3604
   16SOL    HW1   47   1.952   2.679   2.783 -1.0480  0.4845  0.5061
   16SOL    HW2   48   1.933   2.735   2.941 -0.7437  2.5903  2.6227
   17SOL     OW   49   0.814   3.080   1.399 -0.2099 -0.1368 -0.1184
   17SOL    HW1   50   0.906   3.078   1.356 -0.4557  1.9012 -0.2327
   17SOL    HW2   51   0.822   3.080   1.499  1.8346 -0.1474  0.4306
   18SOL     OW   52   1.674   0.487   2.945  0.1561  0.1847 -0.1083
   18SOL    HW1   53   1.676   0.386   2.940  0.9749 -0.4131  2.1822
   18SOL    HW2   54   1.729   0.518   3.022  0.4166  0.8368  2.7231
   19SOL     OW   55   1.991   1.913   0.023 -0.5238 -0.2129 -0.0273
   19SOL    HW1   56   1.981   1.818   0.066  0.1413  0.4874 -0.1132
   19SOL    HW2   57   2.070   1.967   0.056 -1.2154 -0.0292  0.9565
   20SOL     OW   58   1.986   1.545   1.589  1.1422  0.0356 -0.1642
   20SOL    HW1   59   2.086   1.525   1.604  0.3918 -1.2700  2.2903
   20SOL    HW2   60   1.939   1.460   1.554  1.5453  1.7651  2.0277
   21SOL     OW   61   0.721   1.426   2.867  0.0455  0.1792 -0.3995
   21SOL    HW1   62   0.744   1.428   2.769 -3.2037 -0.3768  1.8375
   21SOL    HW2   63   0.808   1.425   2.922  1.3327  0.5123  0.4595
   22SOL     OW   64   1.864   2.865   1.429 -0.2127  0.0286 -0.3783
   22SOL    HW1   65   1.796   2.941   1.440  0.8415  0.5900  0.5133
   22SOL    HW2   66   1.921   2.868   1.345 -0.4776 -2.8217 -0.2132
   23SOL     OW   67   3.052   0.589   1.581 -0.6700 -0.3700  0.0456
   23SOL    HW1   68   0.027   0.639   1.536 -3.6863  2.2336 -2.3733
   23SOL    HW2   69   2.971   0.606   1.526 -2.1982 -1.5401  2.5742
   24SOL     OW   70   2.266   2.446   1.005  0.6958  0.6732  0.1599
   24SOL    HW1   71   2.268   2.440   1.102  1.5261  1.4633 -2.3734
   24SOL    HW2   72   2.186   2.392   0.970 -0.3291 -0.8694 -0.5501
   25SOL     OW   73   1.572   2.845   2.376 -0.7085  0.1730 -0.1314
   25SOL    HW1   74   1.656   2.787   2.380  0.1245  1.9594  1.8884
   25SOL    HW2   75   1.497   2.790   2.334  2.2260  0.2153 -1.5563
   26SOL     OW   76   1.941   2.725   2.611  0.2764  0.3766 -0.2046
   26SOL    HW1   77   2.019   2.780   2.570 -2.7779 -0.1466 -1.5669
   26SOL    HW2   78   1.854   2.774   2.621 -0.9993 -0.9333  1.3076
   27SOL     OW   79   0.318   1.691   3.054 -0.7272  0.3359 -0.2015
   27SOL    HW1   80   0.348   1.723   0.044 -0.8778 -2.8971  1.6696
   27SOL    HW2   81   0.226   1.645   3.057  1.6176 -0.6120 -1.2659
   28SOL     OW   82   2.718   1.180   1.508  0.5140 -0.3722  0.1628
   28SOL    HW1   83   2.735   1.237   1.426  1.7899  0.2861 -5.2307
   28SOL    HW2   84   2.725   1.234   1.594  4.0189 -0.8717  3.2145
   29SOL     OW   85   2.684   2.628   1.782  0.9324  0.5828 -0.3143
   29SOL    HW1   86   2.705   2.571   1.866 -2.0021  0.0503  1.9434
   29SOL    HW2   87   2.684   2.726   1.796 -2.5548 -3.9894 -2.6487
   30SOL     OW   88   1.598   0.210   2.909 -0.1352  0.2947 -0.2833
   30SOL    HW1   89   1.520   0.268   2.885  1.2749 -2.7069 -2.5583
   30SOL    HW2   90   1.587   0.168   3.003  0.2276 -1.1383  0.4939
   31SOL     OW   91   2.664   2.903   1.854  0.1508 -0.8461  0.2438
   31SOL    HW1   92   2.670   2.962   1.937 -0.9416 -4.5721  0.3379
   31SOL    HW2   93   2.683   2.959   1.769  1.7435  1.3075 -3.0440
   32SOL     OW   94   1.042   1.552   1.592 -0.7827  0.0237  0.0097
   32SOL    HW1   95   0.947   1.574   1.619  0.2927  0.9864 -0.0398
   32SOL    HW2   96   1.051   1.539   1.489  0.7280  2.0172  2.0715
   33SOL     OW   97   0.330   2.596   2.274 -0.0728 -0.0591 -0.8346
   33SOL    HW1   98   0.298   2.545   2.192 -0.7893  1.9236  0.2690
   33SOL    HW2   99   0.261   2.665   2.299 -0.0603 -2.1873  2.2325
   34SOL     OW  100   1.603   0.067   0.589 -0.4224 -0.4016 -0.1034
   34SOL    HW1  101   1.536   0.118   0.647  0.8785  1.3862  1.3016
   34SOL    HW2  102   1.694   0.072   0.625 -4.3425  0.6712  3.9864
   35SOL     OW  103   2.104   3.082   0.854  0.1436 -0.1254 -0.4950
   35SOL    HW1  104   2.077   3.052   0.762 -1.0704  0.5179  0.8141
   35SOL    HW2  105   2.057   0.063   0.892 -0.2387  2.3984 -0.7070
   36SOL     OW  106   1.832   2.827   2.075 -0.7950 -0.1158  0.1367
   36SOL    HW1  107   1.879   2.827   1.983 -0.8721  0.4427  0.8755
   36SOL    HW2  108   1.760   2.756   2.078 -1.7259 -0.1169  0.0652
   37SOL     OW  109   0.942   2.869   2.466 -0.0051 -0.8026 -0.2557
   37SOL    HW1  110   0.905   2.863   2.371 -1.3742  0.4984  0.5363
   37SOL    HW2  111   1.028   2.816   2.472  0.5206  0.0165  0.2127
   38SOL     OW  112   0.060   2.719   2.615 -0.2242 -0.2888 -0.4859
   38SOL    HW1  113   0.095   2.624   2.627 -2.6136  1.0762  1.3936
   38SOL    HW2  114   0.134   2.787   2.601  1.2929  0.3410  4.3052
   39SOL     OW  115   2.717   1.244   1.978 -0.4695  0.7141  0.5209
   39SOL    HW1  116   2.750   1.338   1.998 -0.8046  0.4332 -0.3399
   39SOL    HW2  117   2.620   1.227   2.007  1.2351  1.6398 -0.6157
   40SOL     OW  118   0.056   2.916   2.958  0.3926 -0.3528  0.9447
   40SOL    HW1  119   3.073   2.896   2.901 -0.7716  2.3266  2.3543
   40SOL    HW2  120   0.112   2.838   2.952 -3.6508  4.1267 -1.0590
   41SOL     OW  121   1.779   0.550   0.862  0.3215  0.2777 -0.0403
   41SOL    HW1  122   1.856   0.549   0.794 -1.1032 -0.4071 -1.2906
   41SOL    HW2  123   1.747   0.647   0.867  0.8231  1.0602  0.6759
   42SOL     OW  124   0.533   0.390   1.211  0.1077  0.3489 -0.3459
   42SOL    HW1  125   0.622   0.341   1.200 -1.5604  1.9782  0.3448
   42SOL    HW2  126   0.503   0.431   1.122  0.5320 -1.0057 -1.2561
   43SOL     OW  127   2.659   1.274   2.949  0.2634  0.2298 -0.3976
   43SOL    HW1  128   2.635   1.178   2.927 -0.3848  3.2807 -2.5353
   43SOL    HW2  129   2.682   1.317   2.860 -1.7876  0.3743 -0.2413
   44SOL     OW  130   0.095   2.673   0.692 -0.0010 -0.5137  0.4025
   44SOL    HW1  131   0.173   2.727   0.659  2.3662  0.4771  0.8362
   44SOL    HW2  132   0.078   2.677   0.789 -1.9332 -0.1340  1.6348
   45SOL     OW  133   0.355   2.721   1.592  0.0290  0.3248 -0.5200
   45SOL    HW1  134   0.304   2.646   1.548  0.5226  0.1840 -1.0387
   45SOL    HW2  135   0.374   2.785   1.517 -0.0945  1.2355  0.9045
   46SOL     OW  136   2.348   2.498   2.284 -0.4875  0.0842  0.1195
   46SOL    HW1  137   2.383   2.418   2.333 -1.5436  3.3209 -1.9935
   46SOL    HW2  138   2.419   2.533   2.217  0.8072  0.2138 -0.1156
   47SOL     OW  139   2.132   2.051   1.129 -0.3570  0.2629  0.5073
   47SOL    HW1  140   2.065   2.122   1.107  0.0348 -2.2537  0.6385
   47SOL    HW2  141   2.090   1.958   1.147 -0.7645 -1.3537  4.9241
   48SOL     OW  142   0.546   1.574   0.205 -0.4115  1.1071 -0.0966
   48SOL    HW1  143   0.629   1.578   0.150 -0.9942 -0.5962 -0.8491
   48SOL    HW2  144   0.528   1.485   0.239  2.2702  3.7307  1.6015
   49SOL     OW  145   2.865   0.330   2.504  0.1547 -0.0995 -0.0127
   49SOL    HW1  146   2.810   0.319   2.416  0.5520 -1.5409 -1.6527
   49SOL    HW2  147   2.949   0.388   2.481  0.2931  2.9121 -3.7073
   50SOL     OW  148   2.455   0.559   0.185  0.4692 -0.4390 -0.3668
   50SOL    HW1  149   2.367   0.553   0.133 -2.4006 -1.4174  1.5404
   50SOL    HW2  150   2.539   0.551   0.124 -2.3436 -2.0238 -1.2801
   51SOL     OW  151   2.065   0.753   0.936  0.4086 -0.1011  0.1819
   51SOL    HW1  152   2.123   0.838   0.938  0.2689 -0.7877 -1.4552
   51SOL    HW2  153   1.992   0.769   1.006  0.4909  2.8672 -1.0613
   52SOL     OW  154   1.101   1.238   2.877  0.5583  0.3686 -0.1067
   52SOL    HW1  155   1.146   1.329   2.851 -0.7150  2.3926 -2.7659
   52SOL    HW2  156   1.169   1.192   2.939  1.7287 -1.3917 -0.2138
   53SOL     OW  157   0.686   1.708   2.027  0.6858 -0.2844 -0.2298
   53SOL    HW1  158   0.612   1.711   2.097 -2.0001  0.0444 -1.6384
   53SOL    HW2  159   0.702   1.612   1.993  0.4787 -2.1498  0.0217
   54SOL     OW  160   2.024   0.377   1.204 -0.1566 -0.5205  0.0592
   54SOL    HW1  161   1.993   0.309   1.271  0.9120  1.0066 -0.6255
   54SOL    HW2  162   2.121   0.399   1.210 -1.7676 -2.3988 -3.1257
   55SOL     OW  163   2.508   2.118   1.289 -0.7974 -0.0568 -0.0354
   55SOL    HW1  164   2.514   2.022   1.257  0.2329  2.5031  1.7380
   55SOL    HW2  165   2.415   2.155   1.292  0.6936 -0.1984 -0.8590
   56SOL     OW  166   0.835   0.034   1.674  0.6086 -0.2655 -0.0226
   56SOL    HW1  167   0.866   3.087   1.761 -0.5144 -0.8654 -2.7285
   56SOL    HW2  168   0.914   0.092   1.646 -0.4866 -0.0054  2.1531
   57SOL     OW  169   1.721   1.392   0.079 -0.4045 -0.9734  0.1089
   57SOL    HW1  170   1.719   1.467   0.009 -2.1895  1.9368  1.0383
   57SOL    HW2  171   1.699   1.429   0.171 -2.1264 -0.8216 -0.6571
   58SOL     OW  172   3.048   0.529   2.488 -0.5400 -0.2181 -0.4308
   58SOL    HW1  173   0.004   0.576   2.417  2.0528  0.1323  0.1626
   58SOL    HW2  174   3.077   0.557   2.583 -0.1842  0.4782  0.0942
   59SOL     OW  175   0.961   2.524   2.475 -0.1093 -0.3301 -0.0130
   59SOL    HW1  176   1.028   2.594   2.508 -0.8432 -0.7611  2.1240
   59SOL    HW2  177   0.912   2.481   2.550  3.6760 -0.9656  1.5357
   60SOL     OW  178   2.558   2.495   0.670 -0.0574 -0.4004  0.1474
   60SOL    HW1  179   2.566   2.421   0.597  0.5506  0.4757 -0.7793
   60SOL    HW2  180   2.518   2.585   0.636 -1.7482 -0.3118  0.2162
   61SOL     OW  181   1.190   2.190   0.771  0.6514 -0.0759 -0.1054
   61SOL    HW1  182   1.177   2.290   0.757  0.9512  2.7504  0.1353
   61SOL    HW2  183   1.205   2.150   0.678  0.3736  1.2359  0.8621
   62SOL     OW  184   2.500   1.987   2.532  0.1996  0.4511  0.3285
   62SOL    HW1  185   2.446   2.048   2.590 -0.5449 -0.6288  0.2371
   62SOL    HW2  186   2.473   1.887   2.531  3.4217  0.0978  0.4845
   63SOL     OW  187   2.188   2.930   0.005 -0.5621 -0.3879  0.4189
   63SOL    HW1  188   2.196   2.973   3.014 -0.7066 -1.2001  0.5594
   63SOL    HW2  189   2.104   2.971   0.045 -1.6766  0.4635 -1.6563
   64SOL     OW  190   1.294   0.855   2.917  0.4659  0.4450  0.0849
   64SOL    HW1  191   1.314   0.772   2.978  0.4853 -1.8769 -0.0611
   64SOL    HW2  192   1.305   0.824   2.819  0.6971 -3.4903 -1.8035
   65SOL     OW  193   1.507   2.513   0.130 -0.0544 -0.3628 -0.0344
   65SOL    HW1  194   1.456   2.553   0.050 -1.9882 -0.3487 -1.8361
   65SOL    HW2  195   1.606   2.491   0.111 -0.1284 -1.9440 -0.2835
   66SOL     OW  196   0.365   1.343   1.720 -0.1382 -0.0348 -0.0850
   66SOL    HW1  197   0.341   1.248   1.686 -1.8804 -0.6658  0.5888
   66SOL    HW2  198   0.281   1.405   1.733 -4.3789  1.4791  2.8389
   67SOL     OW  199   2.525   2.882   2.875 -0.0685  0.6440  0.6229
   67SOL    HW1  200   2.426   2.848   2.875 -1.1772 -0.6968  3.2433
   67SOL    HW2  201   2.545   2.941   2.793  0.8669  1.0899  0.8821
   68SOL     OW  202   0.665   2.403   1.291  0.7635  0.6583  0.3909
   68SOL    HW1  203   0.710   2.334   1.351 -0.6734  3.0405  2.0386
   68SOL    HW2  204   0.694   2.488   1.333  0.3143 -2.5063  2.9087
   69SOL     OW  205   0.593   2.280   0.494 -0.1583  0.0825 -0.0723
   69SOL    HW1  206   0.667   2.341   0.528 -0.5855  0.6869 -0.0763
   69SOL    HW2  207   0.509   2.291   0.556 -1.1470  1.9290  0.2203
   70SOL     OW  208   2.716   1.022   2.629  0.1906 -0.0256 -0.1661
   70SOL    HW1  209   2.806   1.055   2.668  1.6947 -0.5703 -1.0441
   70SOL    HW2  210   2.734   0.936   2.576 -0.0859 -0.9255 -1.7444
   71SOL     OW  211   0.432   1.137   2.641 -0.5294 -0.3533 -0.0198
   71SOL    HW1  212   0.360   1.095   2.583 -0.9098  0.4245  0.1487
   71SOL    HW2  213   0.444   1.236   2.613 -0.0362 -0.1671  0.7600
   72SOL     OW  214   0.162   2.161   0.345 -0.0747 -0.5452  0.3299
   72SOL    HW1  215   0.247   2.131   0.294  2.2623 -1.3648 -1.0382
   72SOL    HW2  216   0.161   2.266   0.341 -1.2954 -2.3639 -1.6930
   73SOL     OW  217   0.980   1.235   0.355 -0.0848 -0.3986 -0.1328
   73SOL    HW1  218   0.947   1.328   0.344 -0.3614 -0.1183  0.8304
   73SOL    HW2  219   1.074   1.231   0.397 -0.5720  1.2992 -1.5597
   74SOL     OW  220   2.798   0.053   0.378 -0.7218  0.5452 -0.5267
   74SOL    HW1  221   2.706   0.093   0.365  1.3343 -1.3881  0.1442
   74SOL    HW2  222   2.863   0.120   0.339  0.0531  0.1912  0.4065
   75SOL     OW  223   2.258   1.496   1.903 -0.2177 -0.0135  0.6199
   75SOL    HW1  224   2.302   1.468   1.820 -0.3256 -1.1927 -1.0827
   75SOL    HW2  225   2.198   1.582   1.896 -0.7333  1.4836 -1.5244
   76SOL     OW  226   2.002   2.696   1.574  0.0526 -0.0221  0.1665
   76SOL    HW1  227   1.949   2.777   1.534  0.7043 -2.5121 -1.1369
   76SOL    HW2  228   2.046   2.633   1.505  3.0882 -2.4758  0.6998
   77SOL     OW  229   2.518   0.596   1.264  0.1585 -0.1327  0.8741
   77SOL    HW1  230   2.492   0.565   1.361  0.6731 -1.7841  1.3327
   77SOL    HW2  231   2.615   0.575   1.247 -2.6490  0.3343  2.4013
   78SOL     OW  232   2.066   0.916   2.951 -0.3256 -0.0837  0.0129
   78SOL    HW1  233   2.045   0.826   2.998 -1.3032 -1.8467 -0.9599
   78SOL    HW2  234   1.983   0.951   2.900 -1.9933 -1.3404 -2.2708
   79SOL     OW  235   0.329   1.501   2.231 -0.2829  0.0552 -0.2124
   79SOL    HW1  236   0.285   1.418   2.188  2.7146  0.3822  1.5742
   79SOL    HW2  237   0.388   1.458   2.299 -3.0493 -1.7040  0.7795
   80SOL     OW  238   1.628   1.022   1.126 -0.3104  0.2192 -0.7153
   80SOL    HW1  239   1.549   0.973   1.081  1.5720  0.9488 -0.2537
   80SOL    HW2  240   1.704   1.032   1.061 -2.8797 -0.2050 -0.6822
   81SOL     OW  241   0.942   0.462   1.425  0.4589 -0.5006 -0.4082
   81SOL    HW1  242   0.860   0.437   1.478  1.5589  1.0908 -0.8393
   81SOL    HW2  243   0.919   0.511   1.339 -0.0460 -0.0654 -0.6077
   82SOL     OW  244   1.313   2.289   1.782  0.2720  0.2030 -0.0842
   82SOL    HW1  245   1.289   2.237   1.866 -0.8573 -1.5651 -1.8489
   82SOL    HW2  246   1.355   2.223   1.717 -1.8790 -2.3541  1.6732
   83SOL     OW  247   0.676   3.086   0.923  0.7707  0.1018 -0.2529
   83SOL    HW1  248   0.734   0.019   0.997 -0.4380  0.3167  2.6709
   83SOL    HW2  249   0.690   0.022   0.833 -0.7523 -0.7638 -0.2639
   84SOL     OW  250   0.053   0.850   3.082  1.0946 -0.0704  0.7023
   84SOL    HW1  251   0.144   0.883   3.048  1.1468  1.7794  2.1787
   84SOL    HW2  252   3.074   0.901   3.049 -0.4230  1.7579 -1.3189
   85SOL     OW  253   2.894   2.540   1.631 -0.5164  0.2987  0.2609
   85SOL    HW1  254   2.922   2.603   1.553  0.0129  1.7211 -2.3887
   85SOL    HW2  255   2.839   2.595   1.695  0.5349 -0.2599  0.0414
   86SOL     OW  256   3.038   2.804   1.874  0.4413 -0.0711  0.1980
   86SOL    HW1  257   2.963   2.762   1.929  2.6681 -1.5977  0.7752
   86SOL    HW2  258   3.018   2.899   1.841 -0.8631 -0.1609 -2.0999
   87SOL     OW  259   2.955   2.986   0.057 -0.1166  0.1264 -0.3019
   87SOL    HW1  260   2.977   2.980   3.060  0.7851  0.2802  0.3556
   87SOL    HW2  261   2.853   2.979   0.073 -0.0362 -0.3999  3.7233
   88SOL     OW  262   0.327   2.054   1.252 -0.2094 -0.0138  0.2001
   88SOL    HW1  263   0.360   2.149   1.272 -2.7153  2.7815 -0.2028
   88SOL    HW2  264   0.274   2.056   1.169 -0.8731  1.3137 -2.0642
   89SOL     OW  265   1.235   0.885   1.894 -0.1169 -0.4355 -0.1928
   89SOL    HW1  266   1.149   0.829   1.864 -2.4008 -1.9755 -1.4163
   89SOL    HW2  267   1.313   0.853   1.840  2.7462  1.3758 -1.4233
   90SOL     OW  268   2.817   1.528   1.982 -0.6345 -0.0907 -0.6598
   90SOL    HW1  269   2.832   1.494   2.079 -0.3033  1.4577  1.4962
   90SOL    HW2  270   2.821   1.629   1.982  0.9062 -2.6322  1.6125
   91SOL     OW  271   1.478   1.752   0.723  0.1967  0.8262  0.5266
   91SOL    HW1  272   1.537   1.787   0.799  2.6845 -1.4788 -2.6442
   91SOL    HW2  273   1.391   1.709   0.754  1.6193 -0.4235 -1.9755
   92SOL     OW  274   2.412   0.397   1.119 -0.2371 -0.4143  0.0718
   92SOL    HW1  275   2.457   0.417   1.027  1.1903 -0.8298 -0.3304
   92SOL    HW2  276   2.436   0.471   1.184 -1.1791 -2.8310  0.3103
   93SOL     OW  277   2.455   1.372   0.014  0.3064  0.0511 -0.4201
   93SOL    HW1  278   2.524   1.350   3.049  0.6701 -0.3142 -0.1215
   93SOL    HW2  279   2.363   1.404   3.076 -2.7681 -0.3799  1.3189
   94SOL     OW  280   2.465   2.312   2.435 -0.1805  0.2098 -0.5390
   94SOL    HW1  281   2.454   2.229   2.380 -2.6134 -1.0149  1.6789
   94SOL    HW2  282   2.556   2.350   2.451 -0.6897  0.1649 -0.0553
   95SOL     OW  283   1.824   0.541   1.147 -0.0933 -0.1513 -0.2269
   95SOL    HW1  284   1.795   0.544   1.047 -1.5551 -1.0771  1.1820
   95SOL    HW2  285   1.895   0.468   1.160 -0.8032  0.5292 -0.2988
   96SOL     OW  286   2.793   0.081   1.726 -0.0822  0.0953  0.1286
   96SOL    HW1  287   2.718   0.146   1.743  1.9739 -0.0865  0.1400
   96SOL    HW2  288   2.754   0.007   1.659 -1.2390 -4.5274 -0.9713
   97SOL     OW  289   2.050   2.939   1.233  0.0398  0.6883 -0.0723
   97SOL    HW1  290   2.070   2.908   1.138 -1.3790 -1.2339 -1.4670
   97SOL    HW2  291   2.040   3.043   1.241 -0.9791  0.0391  0.3907
   98SOL     OW  292   1.422   2.509   1.534  0.3533  0.1316 -0.1062
   98SOL    HW1  293   1.479   2.578   1.483 -0.7193  0.6754  1.7851
   98SOL    HW2  294   1.438   2.416   1.502 -0.0285 -1.0672  1.1037
   99SOL     OW  295   2.790   3.058   2.044 -0.4244  0.1936 -0.0478
   99SOL    HW1  296   2.860   3.031   1.975 -2.5708 -1.0506 -2.6445
   99SOL    HW2  297   2.804   3.013   2.134 -0.6146 -1.7030  1.4917
  100SOL     OW  298   0.247   0.774   2.746 -0.1956  0.2044 -0.0612
  100SOL    HW1  299   0.275   0.828   2.831 -2.2076  1.4352  1.0129
  100SOL    HW2  300   0.309   0.694   2.734  2.3123  0.7195 -1.8031
  101SOL     OW  301   1.884   0.767   0.177 -0.3484  0.3049 -0.2420
  101SOL    HW1  302   1.891   0.736   0.275  2.0577 -2.3358  1.1540
  101SOL    HW2  303   1.877   0.870   0.161  1.0182  3.5396  0.8260
  102SOL     OW  304   0.194   0.688   1.479  0.2255  0.0656  0.0423
  102SOL    HW1  305   0.208   0.739   1.566  1.5301  0.1522  2.0272
  102SOL    HW2  306   0.262   0.614   1.478  0.5788  1.2827  2.3181
  103SOL     OW  307   3.066   0.995   2.025 -0.0009 -0.2613  0.3150
  103SOL    HW1  308   0.033   0.919   2.012  0.4185 -0.9662 -1.5072
  103SOL    HW2  309   3.052   1.026   2.120 -1.2680 -0.3918 -2.8252
  104SOL     OW  310   0.227   0.231   2.755 -0.5610  0.3346  0.0698
  104SOL    HW1  311   0.321   0.202   2.728 -0.3765 -1.0022  0.7484
  104SOL    HW2  312   0.173   0.229   2.669 -1.0403  1.1222  0.2720
  105SOL     OW  313   2.156   1.823   1.628 -0.4037 -0.2270 -0.4539
  105SOL    HW1  314   2.058   1.799   1.647  1.2403 -1.7970  1.1033
  105SOL    HW2  315   2.200   1.834   1.718 -1.2371 -0.2723 -0.3160
  106SOL     OW  316   1.852   0.372   0.368 -0.6307 -0.0298 -0.8284
  106SOL    HW1  317   1.949   0.367   0.331  1.7843 -2.5390  1.2548
  106SOL    HW2  318   1.847   0.367   0.467 -0.0353  1.6797 -2.4802
  107SOL     OW  319   0.172   1.908   1.678  0.1740 -0.1137 -0.1512
  107SOL    HW1  320   0.131   2.000   1.695 -0.5549  0.4931 -0.5048
  107SOL    HW2  321   0.160   1.889   1.576  1.2083 -1.0329  0.7704
  108SOL     OW  322   2.810   2.939   2.289  0.0655  0.3336  0.2118
  108SOL    HW1  323   2.868   2.852   2.284 -0.4239 -1.1811  1.3833
  108SOL    HW2  324   2.865   3.025   2.312  0.3036  0.2261  2.8729
  109SOL     OW  325   1.644   0.158   0.349 -0.0186 -0.1168  0.8155
  109SOL    HW1  326   1.732   0.201   0.368 -3.6264 -2.2700 -1.5082
  109SOL    HW2  327   1.612   0.106   0.430 -0.2896 -4.0513  0.2536
  110SOL     OW  328   0.350   2.058   2.455 -0.0700  0.0869  0.5869
  110SOL    HW1  329   0.385   2.137   2.507  2.3485 -1.8653 -0.6261
  110SOL    HW2  330   0.404   1.975   2.480 -2.5558  1.9591  0.6229
  111SOL     OW  331   1.585   2.694   2.041 -0.4287  0.1667 -0.3650
  111SOL    HW1  332   1.590   2.607   2.090 -1.5134 -1.4274 -0.2289
  111SOL    HW2  333   1.491   2.711   2.010 -0.8122  2.9564  0.2317
  112SOL     OW  334   1.824   2.749   2.332  0.5739  0.0237  0.3726
  112SOL    HW1  335   1.907   2.776   2.386 -1.1082 -1.2012  1.2482
  112SOL    HW2  336   1.836   2.770   2.232 -1.6418  3.1823 -1.6958
  113SOL     OW  337   1.838   2.567   1.787  0.0749  0.8257 -0.3066
  113SOL    HW1  338   1.923   2.573   1.727  2.6106 -2.2089 -2.8946
  113SOL    HW2  339   1.849   2.508   1.874 -1.1417 -3.8220  1.7114
  114SOL     OW  340   0.012   0.728   0.702 -0.3198 -0.4672 -0.6028
  114SOL    HW1  341   0.050   0.745   0.606  0.6219 -1.3245 -0.2734
  114SOL    HW2  342   3.068   0.637   0.707  2.3289 -0.5664 -0.3970
  115SOL     OW  343   0.290   0.892   2.973 -0.6358  0.7777 -0.2033
  115SOL    HW1  344   0.309   0.991   3.000  0.4580  0.4470 -1.1834
  115SOL    HW2  345   0.366   0.827   3.000 -1.2113 -3.3100 -1.3291
  116SOL     OW  346   0.140   1.307   2.141  0.0708  0.1594 -0.3026
  116SOL    HW1  347   0.136   1.257   2.056  0.8458 -1.0637 -2.3489
  116SOL    HW2  348   0.134   1.233   2.210  0.4526  2.4764 -0.9929
  117SOL     OW  349   2.570   2.910   0.702 -0.2154 -0.6480  0.0361
  117SOL    HW1  350   2.644   2.978   0.723  1.0859  0.2909 -0.0258
  117SOL    HW2  351   2.545   2.928   0.606  1.5730  0.1634  0.9189
  118SOL     OW  352   1.180   1.937   1.717 -0.2553  0.3143 -0.4470
  118SOL    HW1  353   1.188   1.863   1.647  1.3928 -1.1426 -0.4235
  118SOL    HW2  354   1.266   1.937   1.772 -1.0160 -0.6008 -1.7808
  119SOL     OW  355   0.871   2.415   2.712 -0.0907 -0.3821 -0.3842
  119SOL    HW1  356   0.948   2.453   2.761 -0.7791 -1.6121 -1.0139
  119SOL    HW2  357   0.783   2.465   2.737  2.2599  0.8123 -2.5742
  120SOL     OW  358   0.552   0.734   3.029  0.2807  0.4982  0.2689
  120SOL    HW1  359   0.538   0.640   2.995 -2.7186  2.9069  1.2155
  120SOL    HW2  360   0.593   0.788   2.954 -0.9679  0.6774 -0.6451
  121SOL     OW  361   1.794   2.633   1.222  0.6662 -0.4234 -0.4551
  121SOL    HW1  362   1.795   2.712   1.159 -0.5232 -2.2286 -0.2358
  121SOL    HW2  363   1.713   2.572   1.205  0.5458 -1.2090  0.7772
  122SOL     OW  364   2.421   2.221   1.917 -0.4208 -0.0053 -0.8792
  122SOL    HW1  365   2.396   2.315   1.936  0.7692 -1.3944  0.0662
  122SOL    HW2  366   2.473   2.216   1.828 -1.1994 -1.6805 -0.4329
  123SOL     OW  367   0.298   2.840   0.373 -0.0008  0.0855 -0.1205
  123SOL    HW1  368   0.347   2.756   0.352 -0.3808  0.7723 -1.1071
  123SOL    HW2  369   0.203   2.841   0.337  1.2865 -0.5874  2.0048
  124SOL     OW  370   2.407   0.974   2.431 -0.0500  0.2227 -0.5528
  124SOL    HW1  371   2.309   0.986   2.410  3.6991 -1.5921  1.8333
  124SOL    HW2  372   2.458   1.065   2.445 -0.6251  2.3162  0.9457
  125SOL     OW  373   0.401   1.109   0.638  0.2855  0.6724  0.1700
  125SOL    HW1  374   0.480   1.172   0.635 -0.8418  2.9342  2.9151
  125SOL    HW2  375   0.316   1.155   0.605  0.3597  2.7240  0.5717
  126SOL     OW  376   2.674   1.799   0.825 -0.4122 -0.4342 -0.3541
  126SOL    HW1  377   2.765   1.785   0.777  1.8108  4.4787  0.3241
  126SOL    HW2  378   2.673   1.882   0.891 -3.1599 -0.3252 -1.8541
  127SOL     OW  379   3.018   2.322   1.733 -0.1963 -0.4077 -0.3593
  127SOL    HW1  380   3.003   2.419   1.702  1.0026 -0.7573 -1.9299
  127SOL    HW2  381   2.935   2.272   1.754  1.3337  0.0027  1.8776
  128SOL     OW  382   0.943   0.682   3.012 -0.6072  0.6437  0.1658
  128SOL    HW1  383   0.903   0.703   3.097 -0.2322  1.0392 -2.4109
  128SOL    HW2  384   0.882   0.723   2.942  3.8983  2.4431  0.4868
  129SOL     OW  385   2.524   1.202   1.016 -0.3823 -0.6985 -0.2670
  129SOL    HW1  386   2.548   1.179   0.922 -0.9603  0.6172  0.8357
  129SOL    HW2  387   2.602   1.167   1.076  0.6956 -0.4204  1.4769
  130SOL     OW  388   2.325   1.198   1.381  0.7252  0.3736  0.4164
  130SOL    HW1  389   2.374   1.109   1.373  0.2914  0.3115 -3.2299
  130SOL    HW2  390   2.392   1.274   1.364  1.7066  1.1276  0.7088
  131SOL     OW  391   2.563   0.146   0.120 -0.4294  0.6123  0.4547
  131SOL    HW1  392   2.543   0.170   0.218 -2.3929 -2.9337  0.2709
  131SOL    HW2  393   2.499   0.072   0.090  1.8333 -0.7269 -1.8170
  132SOL     OW  394   2.788   2.194   1.836  0.0215 -0.2756 -0.5473
  132SOL    HW1  395   2.696   2.222   1.796 -1.1226  0.3041 -0.9923
  132SOL    HW2  396   2.773   2.134   1.915 -1.5367  2.5580 -2.9851
  133SOL     OW  397   0.743   0.836   1.208 -1.0397 -0.1929 -0.0001
  133SOL    HW1  398   0.812   0.759   1.206  0.1093  0.7038  1.8565
  133SOL    HW2  399   0.791   0.924   1.206  2.1497 -1.1011 -0.0431
  134SOL     OW  400   0.243   1.229   0.437  0.0489  0.1154 -0.2767
  134SOL    HW1  401   0.154   1.256   0.471  2.2037 -1.9322  2.2077
  134SOL    HW2  402   0.235   1.179   0.349  1.9902  0.5023  1.2671
  135SOL     OW  403   2.089   1.055   1.373  0.6510 -0.2185  0.4610
  135SOL    HW1  404   2.163   1.122   1.342 -0.4636  1.8823 -2.9690
  135SOL    HW2  405   2.049   1.089   1.457  1.5962  1.3832 -1.6990
  136SOL     OW  406   2.673   0.662   0.542  0.1985 -0.0947  0.6683
  136SOL    HW1  407   2.635   0.712   0.462  0.4697  0.2234 -0.6362
  136SOL    HW2  408   2.672   0.722   0.627  1.9194  0.4491  0.6423
  137SOL     OW  409   2.480   1.417   1.316  0.0729 -0.2871  0.0513
  137SOL    HW1  410   2.572   1.385   1.291 -2.3054  1.8401 -1.0612
  137SOL    HW2  411   2.415   1.402   1.237 -3.6534 -0.3361 -0.4513
  138SOL     OW  412   1.845   0.832   1.549  0.2315 -0.2155  0.4358
  138SOL    HW1  413   1.769   0.807   1.614 -1.0836 -1.1588 -0.6504
  138SOL    HW2  414   1.892   0.753   1.506  0.6774  1.0672  0.8141
  139SOL     OW  415   1.963   3.068   0.052  0.2202 -0.3471  0.0243
  139SOL    HW1  416   1.930   3.028   3.068 -0.0392  1.8489 -0.6046
  139SOL    HW2  417   1.891   3.047   0.123 -1.7566  1.4326 -0.2567
  140SOL     OW  418   1.420   1.875   1.860  0.1317  0.4359  0.5834
  140SOL    HW1  419   1.509   1.839   1.892  0.4959  0.5001  1.1296
  140SOL    HW2  420   1.357   1.796   1.864  0.6803  2.4976 -0.0657
  141SOL     OW  421   1.929   1.902   0.863 -0.7555 -0.1798  0.8731
  141SOL    HW1  422   2.020   1.933   0.905  0.9651 -0.6963  0.9625
  141SOL    HW2  423   1.920   1.800   0.852  0.7584 -2.7532  0.0203
  142SOL     OW  424   0.016   0.962   0.243  0.3642 -0.3439 -0.1524
  142SOL    HW1  425   0.035   0.909   0.159  1.8938  1.6724  2.0068
  142SOL    HW2  426   0.042   0.913   0.329  0.6807  1.9593 -1.2010
  143SOL     OW  427   0.439   2.100   2.760 -0.1755 -0.6587  0.1429
  143SOL    HW1  428   0.343   2.128   2.731  0.8065 -0.0730 -0.6274
  143SOL    HW2  429   0.442   2.008   2.800 -0.5457  1.1485  0.7231
  144SOL     OW  430   1.075   0.199   1.591 -0.0471  0.3840  0.0557
  144SOL    HW1  431   1.106   0.245   1.505 -2.5337  2.2607  0.9316
  144SOL    HW2  432   1.129   0.227   1.671  2.5204  1.2943  1.1651
  145SOL     OW  433   2.632   1.079   0.368  0.0408 -0.1934  0.4336
  145SOL    HW1  434   2.559   1.012   0.387  0.7372 -0.6102  1.5987
  145SOL    HW2  435   2.599   1.172   0.324  0.3957  2.1805 -0.7122
  146SOL     OW  436   2.344   2.415   0.349  0.0742  0.2498  0.0780
  146SOL    HW1  437   2.337   2.434   0.246  0.9226  0.4991 -1.3565
  146SOL    HW2  438   2.253   2.436   0.391 -0.0017 -0.9014 -3.6044
  147SOL     OW  439   2.302   2.474   1.303 -0.7941  0.2308  0.0363
  147SOL    HW1  440   2.315   2.376   1.336  0.2902 -1.9432  0.2697
  147SOL    HW2  441   2.341   2.544   1.370  1.4173  0.5217 -2.8070
  148SOL     OW  442   1.517   3.071   2.261  0.2290  0.5524  0.0732
  148SOL    HW1  443   1.554   3.060   2.169 -2.5409  1.4821  2.4001
  148SOL    HW2  444   1.546   2.989   2.323  0.9571 -1.7245  1.9468
  149SOL     OW  445   1.049   0.527   2.577 -0.4384  0.4240 -0.3053
  149SOL    HW1  446   1.144   0.542   2.545 -1.0749  1.4413 -0.6589
  149SOL    HW2  447   1.029   0.596   2.653  2.7121  0.4716  1.5953
  150SOL     OW  448   0.727   2.722   0.187 -0.3226  0.3566  0.1207
  150SOL    HW1  449   0.763   2.645   0.132 -2.1364  1.9802 -0.8774
  150SOL    HW2  450   0.709   2.687   0.280  0.3319  0.4478 -2.8246
  151SOL     OW  451   0.116   1.737   0.283 -0.4984  0.6602  0.1625
  151SOL    HW1  452   0.128   1.637   0.246  0.4306 -2.1032  0.8132
  151SOL    HW2  453   0.094   1.729   0.383 -0.1857  1.9580 -1.4525
  152SOL     OW  454   0.123   0.267   0.577  0.3016 -0.3710  0.0009
  152SOL    HW1  455   0.127   0.245   0.675 -0.8454 -0.8800 -1.1239
  152SOL    HW2  456   0.080   0.190   0.526 -1.2483  1.5269 -0.0504
  153SOL     OW  457   2.388   3.032   0.920 -0.5006 -0.3463 -0.1121
  153SOL    HW1  458   2.333   2.965   0.970 -0.8945  0.9385 -0.7597
  153SOL    HW2  459   2.395   3.010   0.817  1.5973  0.8683 -4.4861
  154SOL     OW  460   1.074   0.729   1.751  0.0300 -0.1588 -0.0032
  154SOL    HW1  461   0.977   0.736   1.739  3.7938 -3.7551  0.2071
  154SOL    HW2  462   1.108   0.637   1.706  0.6617 -0.5511 -2.2962
  155SOL     OW  463   2.911   1.475   0.869  0.4568  0.0577  0.1036
  155SOL    HW1  464   2.817   1.464   0.902  1.2183  2.9015  0.3490
  155SOL    HW2  465   2.937   1.572   0.850  0.2584 -1.6476  1.2455
  156SOL     OW  466   2.412   1.963   0.272 -0.3619 -0.4734 -0.0625
  156SOL    HW1  467   2.399   1.861   0.281  1.1294  0.0286  0.7725
  156SOL    HW2  468   2.497   1.999   0.312 -1.1838  0.1003 -1.6974
  157SOL     OW  469   1.035   3.095   0.732  0.1092 -0.5568 -0.9133
  157SOL    HW1  470   1.000   2.999   0.731 -1.1050  1.4193  0.0668
  157SOL    HW2  471   1.133   3.101   0.764  1.6301 -0.3150  2.9073
  158SOL     OW  472   2.196   0.325   2.551  0.3915  0.3045 -0.0618
  158SOL    HW1  473   2.284   0.306   2.591 -1.2112 -2.3490 -1.2751
  158SOL    HW2  474   2.200   0.386   2.467 -1.6629  0.0909 -1.3111
  159SOL     OW  475   0.314   0.041   0.227 -0.2495  0.2984 -0.4271
  159SOL    HW1  476   0.227   0.030   0.177 -4.2423 -0.2386 -0.3313
  159SOL    HW2  477   0.322   0.135   0.264 -2.1204  2.1504 -0.9604
  160SOL     OW  478   1.116   2.174   3.042 -0.5214  0.0019  0.6462
  160SOL    HW1  479   1.142   2.077   3.062 -0.4478  2.0425 -0.2506
  160SOL    HW2  480   1.189   2.239   3.062  2.9330 -1.9083 -0.4270
  161SOL     OW  481   2.701   1.631   2.395 -0.3888 -0.3953  0.4491
  161SOL    HW1  482   2.707   1.730   2.413 -0.7374  2.0493 -0.5970
  161SOL    HW2  483   2.605   1.605   2.399  1.5219 -0.3238  0.8111
  162SOL     OW  484   2.981   2.916   1.297 -0.3974 -0.1539  0.2050
  162SOL    HW1  485   2.978   2.927   1.199 -1.7229  2.7142  3.5990
  162SOL    HW2  486   3.051   2.976   1.335 -2.8188 -0.5055 -2.8054
  163SOL     OW  487   1.918   0.389   2.705 -0.2422  0.0644  0.1434
  163SOL    HW1  488   1.851   0.315   2.707  0.4737 -1.3842  0.5244
  163SOL    HW2  489   2.005   0.356   2.664  2.0582  0.2536  0.7781
  164SOL     OW  490   2.941   1.737   0.791 -0.2974 -0.2457 -0.1911
  164SOL    HW1  491   2.971   1.756   0.690  0.3667 -1.4725 -0.7186
  164SOL    HW2  492   2.964   1.818   0.850  0.8932 -0.9649  0.3931
  165SOL     OW  493   2.965   0.234   1.985 -0.5414 -0.1957 -0.0828
  165SOL    HW1  494   2.890   0.176   1.945 -0.1789 -1.7845  0.7917
  165SOL    HW2  495   2.977   0.313   1.919 -2.5322 -2.0714 -2.7233
  166SOL     OW  496   2.026   0.562   0.739  0.3680  0.3095  0.5189
  166SOL    HW1  497   2.123   0.545   0.709  2.2203 -2.1619  1.4336
  166SOL    HW2  498   2.032   0.634   0.814  0.2341 -1.3416  0.0247
  167SOL     OW  499   0.515   0.435   0.555  0.1796 -0.2044  0.7302
  167SOL    HW1  500   0.475   0.527   0.540 -1.8295 -2.3091 -1.0555
  167SOL    HW2  501   0.494   0.396   0.644 -3.1634  0.2290 -6.4452
  168SOL     OW  502   1.970   3.008   2.210  0.6602  0.0238  0.0456
  168SOL    HW1  503   1.913   2.938   2.161  1.4530  0.1162  1.1759
  168SOL    HW2  504   1.909   3.076   2.255 -0.8964  0.1549 -0.9086
  169SOL     OW  505   0.909   1.110   0.807  0.0641  0.3786 -0.2769
  169SOL    HW1  506   0.900   1.116   0.702 -1.2155  0.9371  2.0079
  169SOL    HW2  507   0.813   1.083   0.848 -2.2562  0.4304  1.5231
  170SOL     OW  508   2.869   0.671   1.378 -0.4657 -0.3131 -0.0975
  170SOL    HW1  509   2.844   0.670   1.282 -0.8824  2.1322  0.2839
  170SOL    HW2  510   2.806   0.733   1.424  0.0256 -0.9223  0.6913
  171SOL     OW  511   0.837   2.596   1.676  0.2909 -0.2778 -0.3985
  171SOL    HW1  512   0.880   2.503   1.668  0.6255  0.2493 -2.1716
  171SOL    HW2  513   0.904   2.666   1.641  1.4472  1.0846 -0.8014
  172SOL     OW  514   0.323   2.621   1.264 -0.2971 -0.0576  0.1878
  172SOL    HW1  515   0.280   2.576   1.342  2.5486 -0.4956  0.0988
  172SOL    HW2  516   0.265   2.699   1.231 -0.5940 -2.9636 -0.2514
  173SOL     OW  517   1.318   0.303   2.909  0.3500  0.2314  0.0173
  173SOL    HW1  518   1.270   0.215   2.936 -2.0142 -0.4992  1.2861
  173SOL    HW2  519   1.272   0.385   2.951 -2.7167  0.6296  1.0138
  174SOL     OW  520   1.524   0.145   2.490 -0.4954 -0.1643 -0.0195
  174SOL    HW1  521   1.459   0.194   2.552  0.0715 -0.3131 -2.4602
  174SOL    HW2  522   1.475   0.075   2.434  0.2463 -1.1196 -1.1474
  175SOL     OW  523   1.833   2.542   0.093 -0.2526 -0.0813 -0.8431
  175SOL    HW1  524   1.891   2.479   0.151  0.8086 -1.2790 -0.6689
  175SOL    HW2  525   1.796   2.486   0.019  0.7598 -0.7661  1.6024
  176SOL     OW  526   1.735   0.193   2.676  0.3444 -0.1640 -0.2254
  176SOL    HW1  527   1.693   0.198   2.767 -0.7812  0.5687  1.4451
  176SOL    HW2  528   1.671   0.167   2.603  0.1148  1.4434  0.1125
  177SOL     OW  529   0.900   1.505   0.309  0.5470  0.1598 -0.2214
  177SOL    HW1  530   0.873   1.556   0.393 -1.4094 -0.8569  0.8629
  177SOL    HW2  531   0.862   1.549   0.226  0.9341  3.5120 -0.4471
  178SOL     OW  532   2.960   2.035   2.499 -0.1880 -0.3084 -0.8190
  178SOL    HW1  533   2.901   2.079   2.571 -0.9560 -0.3014 -2.1368
  178SOL    HW2  534   3.037   1.990   2.547 -1.5820  1.2553 -1.1673
  179SOL     OW  535   0.624   2.499   2.732 -0.4993  0.6040  0.2134
  179SOL    HW1  536   0.585   2.504   2.825  0.0943  0.3823 -1.1260
  179SOL    HW2  537   0.613   2.585   2.680 -2.0025 -2.6189  0.5180
  180SOL     OW  538   1.942   1.851   1.180  0.2422  0.3569 -0.4198
  180SOL    HW1  539   2.001   1.805   1.251 -1.0490  0.4124  1.9000
  180SOL    HW2  540   1.856   1.796   1.168  0.3681 -0.2885 -0.5321
  181SOL     OW  541   1.817   1.016   2.255  0.4410  0.1220  0.5661
  181SOL    HW1  542   1.771   1.086   2.197 -0.2694 -1.1693  1.2208
  181SOL    HW2  543   1.774   1.005   2.344  2.4620  0.7935  1.3719
  182SOL     OW  544   2.556   2.880   2.407 -0.3297 -0.6013 -0.1938
  182SOL    HW1  545   2.645   2.902   2.358  0.6267  1.0109  0.3719
  182SOL    HW2  546   2.489   2.870   2.330 -3.3046 -1.1394 -0.7129
  183SOL     OW  547   1.373   0.775   2.673  0.4294  0.0603 -0.5741
  183SOL    HW1  548   1.374   0.844   2.598 -0.4941  1.4472  0.0640
  183SOL    HW2  549   1.466   0.757   2.713 -0.3363  3.2308  1.6225
  184SOL     OW  550   0.860   0.891   1.529 -0.1691  0.2217  0.1472
  184SOL    HW1  551   0.956   0.919   1.528  0.0620 -1.1450  1.2193
  184SOL    HW2  552   0.809   0.966   1.490  2.5329 -4.2389  0.5903
  185SOL     OW  553   2.189   0.978   0.929  0.4229  0.0367  0.0876
  185SOL    HW1  554   2.168   1.042   1.004  3.0758 -0.6638  0.2787
  185SOL    HW2  555   2.164   1.011   0.837 -2.2000  0.9187 -0.6720
  186SOL     OW  556   0.434   1.853   2.836  0.7036  0.2546 -0.4550
  186SOL    HW1  557   0.519   1.797   2.851  0.3466 -3.2561  0.7804
  186SOL    HW2  558   0.368   1.813   2.903  1.0346  2.0156  1.5247
  187SOL     OW  559   2.547   1.301   0.254  0.1617 -1.1711  0.0646
  187SOL    HW1  560   2.624   1.348   0.303  0.9066 -0.1725 -0.5598
  187SOL    HW2  561   2.532   1.348   0.162  2.5376  1.3649 -0.2485
  188SOL     OW  562   0.147   1.739   0.554 -0.1850  0.8047  0.3967
  188SOL    HW1  563   0.069   1.806   0.564  0.6605  1.2222  0.7182
  188SOL    HW2  564   0.236   1.782   0.595 -0.0234  0.1844  3.2408
  189SOL     OW  565   2.406   0.407   0.407  0.3188 -0.6576  0.0936
  189SOL    HW1  566   2.442   0.481   0.341 -0.8838  3.7949 -0.2076
  189SOL    HW2  567   2.459   0.322   0.403 -1.9306  0.4011  1.3525
  190SOL     OW  568   1.406   1.495   2.136 -0.1398  0.3176 -0.3281
  190SOL    HW1  569   1.372   1.591   2.136  0.8404 -4.4525 -1.9130
  190SOL    HW2  570   1.326   1.442   2.099  0.5159 -1.2308 -0.4078
  191SOL     OW  571   2.457   0.196   1.747  0.1147 -0.2141  0.1170
  191SOL    HW1  572   2.381   0.254   1.707  0.5917  1.0712  1.9687
  191SOL    HW2  573   2.486   0.228   1.842  0.6291 -0.9963  3.2469
  192SOL     OW  574   1.949   1.080   1.621  0.6620 -0.3424 -0.0785
  192SOL    HW1  575   1.868   1.142   1.622 -0.3950 -0.1294  0.8954
  192SOL    HW2  576   1.918   1.002   1.572 -0.0744  0.9941  2.2743
  193SOL     OW  577   0.980   0.675   0.705  0.2907  0.2767  0.0612
  193SOL    HW1  578   0.946   0.653   0.611 -2.0193 -1.2156 -1.0942
  193SOL    HW2  579   1.009   0.594   0.757 -0.4647  0.2569  0.5482
  194SOL     OW  580   1.243   2.865   0.972  0.3867 -0.0725  0.2345
  194SOL    HW1  581   1.334   2.825   0.983 -3.3899  1.4054  0.7050
  194SOL    HW2  582   1.252   2.959   0.934 -1.0883 -1.4794 -0.0067
  195SOL     OW  583   2.277   0.480   0.644 -0.6786  1.0363  0.5509
  195SOL    HW1  584   2.352   0.462   0.570  5.7978 -0.1263 -1.8875
  195SOL    HW2  585   2.233   0.391   0.666  0.6720 -1.5789  1.5254
  196SOL     OW  586   1.018   1.962   1.489  0.3374 -0.2099  0.5010
  196SOL    HW1  587   1.107   2.009   1.468  0.5129  0.7491  0.0195
  196SOL    HW2  588   1.014   1.930   1.582 -0.2597  0.8056 -3.2866
  197SOL     OW  589   0.447   2.616   0.366 -0.2027 -0.2093  0.1982
  197SOL    HW1  590   0.538   2.578   0.393  2.4817 -0.5216 -0.4344
  197SOL    HW2  591   0.447   2.639   0.270 -2.8665 -1.6724 -0.1509
  198SOL     OW  592   1.091   0.893   0.833 -0.3465  0.4160  0.3060
  198SOL    HW1  593   1.022   0.965   0.824 -0.8670  0.9900  0.8989
  198SOL    HW2  594   1.064   0.812   0.777 -1.5844  0.9712  1.9468
  199SOL     OW  595   0.091   0.092   1.722  0.6283  0.0842  0.1975
  199SOL    HW1  596   0.098   0.173   1.664  2.6571  0.0728 -0.3177
  199SOL    HW2  597   0.174   0.034   1.716  3.5492  0.9895 -2.0045
  200SOL     OW  598   2.197   1.849   2.677 -0.2100  0.2038 -0.5572
  200SOL    HW1  599   2.113   1.899   2.650  0.4992 -1.6789  1.2983
  200SOL    HW2  600   2.264   1.836   2.601  0.7863 -0.1000 -2.0812
  201SOL     OW  601   2.663   2.562   1.323 -0.1194  0.3098 -0.0542
  201SOL    HW1  602   2.601   2.632   1.289  3.7484 -0.1462  2.5406
  201SOL    HW2  603   2.738   2.597   1.387  1.4084 -1.1054  2.1755
  202SOL     OW  604   2.582   0.202   0.423 -0.0730 -0.1796  0.2159
  202SOL    HW1  605   2.634   0.288   0.404  0.0175  1.3740  1.8013
  202SOL    HW2  606   2.575   0.185   0.523 -0.6102 -0.7374  0.1315
  203SOL     OW  607   1.282   1.753   2.173  0.1045 -0.0429  0.2285
  203SOL    HW1  608   1.330   1.792   2.252 -1.4659  0.3063 -0.4442
  203SOL    HW2  609   1.227   1.820   2.124  2.7588 -2.0734  2.4648
  204SOL     OW  610   0.807   1.506   1.877 -0.0712  0.1849 -0.1042
  204SOL    HW1  611   0.782   1.555   1.795  0.5055 -3.7683  1.7603
  204SOL    HW2  612   0.827   1.410   1.854  1.6881  1.8060  1.2610
  205SOL     OW  613   1.037   2.122   1.835 -0.5234 -0.1784  0.4774
  205SOL    HW1  614   1.081   2.042   1.795  0.1858  2.5298 -0.0057
  205SOL    HW2  615   1.093   2.161   1.908  0.1296 -1.3244 -1.6121
  206SOL     OW  616   0.085   0.389   2.930  0.2443 -0.1998  0.2409
  206SOL    HW1  617   0.182   0.370   2.917 -3.2026  0.8657  3.0759
  206SOL    HW2  618   0.026   0.307   2.935  0.2845  1.4803  2.6208
  207SOL     OW  619   1.587   3.003   1.981  0.3729  0.6929  0.1630
  207SOL    HW1  620   1.546   2.939   1.908  0.2056 -1.5768  0.1312
  207SOL    HW2  621   1.682   2.972   2.014  0.4082 -2.3018 -6.3392
  208SOL     OW  622   0.536   2.256   1.709  0.7091  0.0306  0.0814
  208SOL    HW1  623   0.607   2.196   1.661  0.1733  0.1189  0.8073
  208SOL    HW2  624   0.576   2.349   1.729 -3.3000  1.5582 -1.5659
  209SOL     OW  625   1.964   1.237   2.831  0.7188  0.0268  0.0336
  209SOL    HW1  626   1.910   1.308   2.781  1.5407  0.8247 -0.9782
  209SOL    HW2  627   1.959   1.250   2.931  2.8735  0.0270  2.7322
  210SOL     OW  628   3.023   0.551   1.009 -0.1047 -0.4529 -0.2466
  210SOL    HW1  629   3.012   0.537   0.909  0.8607 -1.2654 -1.8133
  210SOL    HW2  630   2.937   0.557   1.064  1.2680 -0.4063 -0.6990
  211SOL     OW  631   0.922   1.014   1.095 -0.3427 -0.3126  0.5320
  211SOL    HW1  632   0.912   1.012   0.992 -2.3480  1.0023  1.6111
  211SOL    HW2  633   0.890   1.105   1.130 -0.5372  2.1454  0.0688
  212SOL     OW  634   1.060   1.765   0.883  0.1445  0.1233 -0.8146
  212SOL    HW1  635   1.034   1.796   0.977  0.2078  0.0395 -2.4906
  212SOL    HW2  636   1.153   1.723   0.879  1.9198 -0.9513  0.3119
  213SOL     OW  637   1.464   0.214   1.650 -0.2388  0.1877 -0.2952
  213SOL    HW1  638   1.415   0.211   1.736  1.4007  1.4520 -0.3879
  213SOL    HW2  639   1.564   0.243   1.668  0.0023 -1.9806 -0.2549
  214SOL     OW  640   1.638   1.661   2.487  0.3237  0.5602  0.0980
  214SOL    HW1  641   1.586   1.575   2.506  0.5547  1.8785 -0.3267
  214SOL    HW2  642   1.582   1.745   2.504 -1.8208  1.5706  1.1866
  215SOL     OW  643   0.150   1.698   1.191 -0.1092 -0.1820 -0.2489
  215SOL    HW1  644   0.115   1.628   1.257  2.1388 -0.9787  2.4773
  215SOL    HW2  645   0.236   1.654   1.149  0.8087 -1.8358 -0.5175
  216SOL     OW  646   0.716   0.010   2.183 -0.1122  0.3208  0.7696
  216SOL    HW1  647   0.727   0.071   2.105  2.0300 -1.5623  0.5908
  216SOL    HW2  648   0.741   0.055   2.272 -0.0391  1.3681  0.9408
  217SOL     OW  649   2.356   0.243   3.058 -0.2774 -0.5092  0.5561
  217SOL    HW1  650   2.362   0.252   2.958 -1.5831  1.6427  1.1073
  217SOL    HW2  651   2.449   0.232   3.097 -2.8115  1.6416  0.9605
  218SOL     OW  652   2.057   1.787   2.173  0.1431 -0.1801 -0.0407
  218SOL    HW1  653   1.961   1.766   2.190 -0.5726 -0.2134  0.3662
  218SOL    HW2  654   2.072   1.891   2.175  0.8780  2.6431  1.6857
  219SOL     OW  655   1.548   1.204   0.345  0.3158  0.2723 -0.7136
  219SOL    HW1  656   1.646   1.208   0.369  1.0132  1.6772 -0.8881
  219SOL    HW2  657   1.545   1.179   0.246  1.7881  0.8570  0.1888
  220SOL     OW  658   1.435   1.968   1.103  0.4755 -0.5140 -0.6136
  220SOL    HW1  659   1.371   1.926   1.182 -0.0771 -0.1973  2.8366
  220SOL    HW2  660   1.383   2.054   1.068 -0.1031  1.6957  1.0103
  221SOL     OW  661   0.085   0.570   0.047 -0.4416  0.5977  0.8013
  221SOL    HW1  662   0.070   0.667   0.018  0.2422  2.5168 -0.4754
  221SOL    HW2  663   0.084   0.500   3.070  3.1613 -0.9122 -0.4953
  222SOL     OW  664   1.035   2.779   1.634  0.2535 -0.2133 -0.0363
  222SOL    HW1  665   1.075   2.702   1.582  0.5847 -1.6914 -0.0448
  222SOL    HW2  666   1.066   2.872   1.612  0.2344 -0.1988  2.8940
  223SOL     OW  667   1.306   3.023   2.711 -0.3776  0.2970  0.0652
  223SOL    HW1  668   1.249   0.003   2.724 -0.8341  1.7260  2.5696
  223SOL    HW2  669   1.405   3.043   2.743 -0.3409 -2.2782  0.1427
  224SOL     OW  670   2.764   1.052   1.150  0.4514  0.1043  0.2562
  224SOL    HW1  671   2.864   1.042   1.178  4.7123  1.1772  0.6611
  224SOL    HW2  672   2.720   0.963   1.174 -2.7678  0.0088  0.6825
  225SOL     OW  673   0.958   1.240   1.520 -0.1420  0.2452  0.2525
  225SOL    HW1  674   1.002   1.332   1.531 -3.7239  4.5645  0.0031
  225SOL    HW2  675   1.018   1.178   1.461  1.5917 -0.4610 -1.2823
  226SOL     OW  676   1.561   2.462   2.680 -0.2038  0.2445  0.0666
  226SOL    HW1  677   1.464   2.487   2.708 -1.5328 -0.8904  0.2351
  226SOL    HW2  678   1.599   2.400   2.749  2.1855  2.9807  0.9911
  227SOL     OW  679   0.624   2.088   1.214 -0.0868  0.2550 -0.2174
  227SOL    HW1  680   0.537   2.037   1.208  0.7095 -2.0153 -3.0140
  227SOL    HW2  681   0.607   2.178   1.253  0.9283 -3.0714 -2.4265
  228SOL     OW  682   0.476   2.618   1.015 -0.1780 -0.4287 -0.7445
  228SOL    HW1  683   0.511   2.720   1.019  1.2540  0.5712  0.1491
  228SOL    HW2  684   0.406   2.591   1.088 -2.2672  0.0174 -0.9454
  229SOL     OW  685   2.278   1.172   0.161  0.0643  0.5575  0.1189
  229SOL    HW1  686   2.358   1.232   0.155 -3.2194  1.2111  0.2224
  229SOL    HW2  687   2.278   1.122   0.072 -2.7954  1.3946  0.1204
  230SOL     OW  688   1.083   1.136   2.157 -0.2402 -0.0135 -1.0147
  230SOL    HW1  689   0.983   1.108   2.172 -0.7665  1.1205 -0.7795
  230SOL    HW2  690   1.140   1.048   2.170  0.1512 -0.8508 -1.2208
  231SOL     OW  691   1.522   2.109   1.707 -0.0283 -0.1165 -0.1041
  231SOL    HW1  692   1.613   2.126   1.750  0.2634 -0.0894  1.2129
  231SOL    HW2  693   1.475   2.037   1.763 -2.6397  0.5172 -0.2014
  232SOL     OW  694   1.981   2.415   0.881  0.0637 -0.4557  0.3989
  232SOL    HW1  695   1.918   2.495   0.910 -0.6966  0.9996  0.3990
  232SOL    HW2  696   1.961   2.375   0.788 -0.4051  0.0681  1.9453
  233SOL     OW  697   1.569   2.240   2.877 -0.0574  0.0540 -0.0581
  233SOL    HW1  698   1.581   2.185   2.788 -0.3561  0.7403  1.8936
  233SOL    HW2  699   1.544   2.176   2.951  1.2714 -0.4681  1.6981
  234SOL     OW  700   0.761   2.938   2.671 -0.1002  0.0659 -0.0253
  234SOL    HW1  701   0.849   2.923   2.629 -2.3819  1.7468 -0.7343
  234SOL    HW2  702   0.690   2.990   2.622  0.2043  0.1764  1.2044
  235SOL     OW  703   2.939   2.460   0.172  0.1164 -0.1116 -0.6913
  235SOL    HW1  704   2.914   2.450   0.276 -1.5602 -0.7871  1.7870
  235SOL    HW2  705   2.961   2.373   0.125 -1.0220  2.8458 -1.9541
  236SOL     OW  706   2.090   2.499   2.222 -0.2078  0.0210  0.3227
  236SOL    HW1  707   2.189   2.479   2.231 -0.6185 -1.7608  2.2204
  236SOL    HW2  708   2.052   2.496   2.319 -2.0624  0.7374  3.2358
  237SOL     OW  709   1.833   1.209   1.232 -0.2717 -0.1107  0.1823
  237SOL    HW1  710   1.795   1.122   1.272  0.4764 -0.9881 -1.1421
  237SOL    HW2  711   1.778   1.231   1.148 -1.6188 -1.0207 -1.4517
  238SOL     OW  712   1.994   0.452   2.123 -0.1951 -0.7589  0.2235
  238SOL    HW1  713   1.963   0.548   2.103 -1.2969  0.3899  4.0664
  238SOL    HW2  714   1.926   0.407   2.183  1.7525 -0.6184  2.1812
  239SOL     OW  715   0.539   1.572   1.672  0.6898  0.1500 -0.3466
  239SOL    HW1  716   0.504   1.666   1.686  1.4043 -0.0686 -1.9053
  239SOL    HW2  717   0.483   1.501   1.713  1.5342  2.5056 -1.3772
  240SOL     OW  718   3.074   2.167   0.530 -0.1965  0.2130 -0.1122
  240SOL    HW1  719   3.069   2.260   0.575 -0.2226 -0.0179  0.6834
  240SOL    HW2  720   0.046   2.161   0.457 -1.1074 -1.5140  0.9191
  241SOL     OW  721   1.733   2.096   0.818  0.0328  0.1812  0.0509
  241SOL    HW1  722   1.811   2.038   0.860 -0.2643 -0.0889 -1.0432
  241SOL    HW2  723   1.694   2.046   0.735 -1.4661 -2.0689 -0.7420
  242SOL     OW  724   1.358   1.371   0.083 -0.0188 -0.3852  0.0290
  242SOL    HW1  725   1.369   1.270   0.086 -1.1501 -1.4842  0.2479
  242SOL    HW2  726   1.380   1.409   3.093 -2.1605 -1.2240  2.3121
  243SOL     OW  727   0.685   2.846   2.172 -0.4984  0.3019 -0.6170
  243SOL    HW1  728   0.705   2.942   2.192 -0.5903 -0.9437  0.0682
  243SOL    HW2  729   0.619   2.858   2.098  1.8622  2.5545  2.3566
  244SOL     OW  730   1.700   2.906   2.630 -0.0701 -0.0322  0.0200
  244SOL    HW1  731   1.637   2.951   2.697 -0.2583 -3.7637  0.9052
  244SOL    HW2  732   1.651   2.864   2.552  2.0131 -3.1776  0.3091
  245SOL     OW  733   1.463   2.901   3.037  0.1349  0.1315 -0.5078
  245SOL    HW1  734   1.556   2.883   3.077 -1.6181  0.4834  0.6411
  245SOL    HW2  735   1.403   2.961   3.097  1.7518  2.6041 -2.1683
  246SOL     OW  736   1.117   0.105   2.798  0.1425  0.3038 -0.1034
  246SOL    HW1  737   1.056   0.166   2.752 -0.9166 -2.8950  1.6502
  246SOL    HW2  738   1.063   0.028   2.842  1.4558 -2.5943  0.3978
  247SOL     OW  739   0.155   0.807   1.990 -0.3989  0.1661  0.2901
  247SOL    HW1  740   0.206   0.824   2.077 -0.8276 -0.3386  0.9045
  247SOL    HW2  741   0.117   0.715   1.983 -0.1396 -2.4745 -1.2246
  248SOL     OW  742   0.943   0.802   2.357  0.3976  0.2103  0.0103
  248SOL    HW1  743   0.900   0.717   2.388  2.1616  1.9310 -1.0715
  248SOL    HW2  744   0.998   0.789   2.271  1.4583 -0.6663  0.4299
  249SOL     OW  745   2.124   0.341   0.332  0.2465  0.0039  0.0297
  249SOL    HW1  746   2.122   0.256   0.272 -1.9397 -1.5457  0.8088
  249SOL    HW2  747   2.219   0.352   0.361  0.4699  0.2646  1.7077
  250SOL     OW  748   0.700   0.184   0.689  0.0814  0.1655 -0.2617
  250SOL    HW1  749   0.755   0.254   0.642 -1.9540 -0.1742 -0.9988
  250SOL    HW2  750   0.610   0.218   0.729  0.5611 -0.3629  2.5917
  251SOL     OW  751   0.948   0.235   2.578  0.1563  0.5714  0.4082
  251SOL    HW1  752   0.986   0.328   2.558 -0.4048  0.9792  1.3338
  251SOL    HW2  753   0.996   0.167   2.518 -2.1408  0.3555 -0.6141
  252SOL     OW  754   1.664   1.885   2.041  0.1522 -0.4347  1.4384
  252SOL    HW1  755   1.723   1.937   1.976  1.8783  0.4202 -0.6815
  252SOL    HW2  756   1.717   1.846   2.119 -1.3780 -0.6318 -1.2040
  253SOL     OW  757   1.895   2.879   1.803 -0.5523  0.3497 -0.5781
  253SOL    HW1  758   1.985   2.901   1.757  3.3062  1.8131  1.1775
  253SOL    HW2  759   1.856   2.796   1.758 -0.2635 -0.3257  3.2936
  254SOL     OW  760   0.793   2.145   1.927  0.8974  0.0411  0.3287
  254SOL    HW1  761   0.889   2.127   1.901 -1.6248  0.5981 -2.1419
  254SOL    HW2  762   0.785   2.245   1.926  0.6616 -2.6286 -3.9726
  255SOL     OW  763   1.262   0.697   0.466  0.4618 -0.3211 -0.6373
  255SOL    HW1  764   1.190   0.627   0.493 -0.0964  0.4845  1.7179
  255SOL    HW2  765   1.246   0.720   0.371 -1.1789 -0.9518  1.8389
  256SOL     OW  766   1.814   1.983   1.826  0.1646 -0.4921 -0.2569
  256SOL    HW1  767   1.835   1.891   1.790 -0.9534  0.4469 -0.7653
  256SOL    HW2  768   1.815   2.056   1.752 -1.2538 -0.6470  0.4603
  257SOL     OW  769   0.490   2.312   2.575  0.1165  0.0759  0.5433
  257SOL    HW1  770   0.539   2.390   2.618 -1.1398  1.9060 -0.4710
  257SOL    HW2  771   0.491   2.229   2.635 -0.0658  0.4389 -0.0590
  258SOL     OW  772   0.765   0.395   2.186 -0.6059  0.2745  0.5878
  258SOL    HW1  773   0.846   0.334   2.212  2.1616 -0.5655  1.1489
  258SOL    HW2  774   0.783   0.451   2.102  1.4791  0.8675 -2.9858
  259SOL     OW  775   0.838   0.553   2.420  0.5351 -0.5265 -0.0794
  259SOL    HW1  776   0.920   0.534   2.477 -0.4328  1.3446  0.1813
  259SOL    HW2  777   0.840   0.502   2.332  2.0366  1.8879  0.6339
  260SOL     OW  778   1.451   0.518   0.557 -0.1551 -0.3223  0.2744
  260SOL    HW1  779   1.393   0.600   0.520 -1.1652  1.0686 -1.1931
  260SOL    HW2  780   1.388   0.436   0.569 -0.4547  0.4248  0.0887
  261SOL     OW  781   0.398   2.826   2.856 -0.3340  0.1339  0.4775
  261SOL    HW1  782   0.494   2.811   2.883  2.3342  1.9235  2.0289
  261SOL    HW2  783   0.335   2.777   2.923 -0.8742  1.7599  4.1873
  262SOL     OW  784   2.186   3.005   2.837  0.2418  0.0968  0.3045
  262SOL    HW1  785   2.237   3.070   2.775  1.5236  1.4893  0.8016
  262SOL    HW2  786   2.087   3.022   2.837  0.1648 -0.5941 -1.6266
  263SOL     OW  787   3.085   2.216   2.865 -0.5508 -0.0627 -0.6690
  263SOL    HW1  788   3.020   2.145   2.825  0.4688  0.0050 -0.7543
  263SOL    HW2  789   3.067   2.249   2.962 -0.1036  1.9970  1.5728
  264SOL     OW  790   0.716   1.193   1.171  0.2877  0.0465 -0.3732
  264SOL    HW1  791   0.612   1.214   1.178 -4.6443  0.6219  0.5564
  264SOL    HW2  792   0.772   1.278   1.135  0.8712  1.8021 -0.8853
  265SOL     OW  793   0.518   1.310   0.300 -0.0819 -0.2282  0.2411
  265SOL    HW1  794   0.433   1.277   0.342 -1.6137 -0.5093 -0.8006
  265SOL    HW2  795   0.559   1.234   0.247  1.1185 -0.4749 -0.0582
  266SOL     OW  796   1.650   1.561   0.638  0.4825  0.1278 -0.5503
  266SOL    HW1  797   1.583   1.631   0.678 -0.6870  3.5647  2.0315
  266SOL    HW2  798   1.734   1.615   0.613  1.0131  0.4925  0.0391
  267SOL     OW  799   2.718   0.522   0.100 -0.7647 -0.3290  0.1466
  267SOL    HW1  800   2.735   0.437   0.045  0.9323  2.4682 -2.0116
  267SOL    HW2  801   2.743   0.609   0.049 -0.5849 -1.2606 -0.2740
  268SOL     OW  802   2.912   3.077   2.876  0.6684  0.3121 -0.1278
  268SOL    HW1  803   2.945   2.990   2.833 -0.5314 -1.0978  1.4781
  268SOL    HW2  804   2.843   0.018   2.811 -1.5170  1.8720 -1.8221
  269SOL     OW  805   1.798   0.352   2.307  0.4383 -0.2379  0.3425
  269SOL    HW1  806   1.815   0.424   2.373 -3.1555 -1.1801 -1.7777
  269SOL    HW2  807   1.708   0.365   2.264 -1.7789  0.3782 -0.0548
  270SOL     OW  808   0.895   0.945   2.582  0.1265 -0.5638  0.3457
  270SOL    HW1  809   0.921   0.886   2.503  1.2176  1.9940  2.4241
  270SOL    HW2  810   0.797   0.957   2.582  3.9021 -3.1618  0.7883
  271SOL     OW  811   2.603   0.762   0.284 -0.3762 -0.6946 -0.1092
  271SOL    HW1  812   2.616   0.853   0.240  0.9958  1.3193  0.7512
  271SOL    HW2  813   2.538   0.699   0.238 -0.6568 -0.1889  1.4422
  272SOL     OW  814   2.832   1.650   2.702 -0.2423 -0.0247 -0.3154
  272SOL    HW1  815   2.854   1.717   2.631  0.5004  0.4438 -0.7290
  272SOL    HW2  816   2.863   1.685   2.793  1.0791  2.2055 -2.8261
  273SOL     OW  817   2.260   0.514   0.006  0.0244  0.2719 -0.5854
  273SOL    HW1  818   2.252   0.415   0.020  0.7457  2.7096  2.4661
  273SOL    HW2  819   2.307   0.545   3.026 -1.0002 -0.4182 -0.4723
  274SOL     OW  820   0.098   2.480   1.066  0.0792 -0.4494  0.2660
  274SOL    HW1  821   0.184   2.447   1.029 -3.3468  0.1726 -2.4709
  274SOL    HW2  822   0.078   2.569   1.018 -0.6909 -1.2399  0.6564
  275SOL     OW  823   2.163   1.552   0.501  0.2065 -0.1920  0.3159
  275SOL    HW1  824   2.260   1.550   0.533  1.2830 -1.9235 -2.0305
  275SOL    HW2  825   2.135   1.648   0.513  0.0055 -1.1432  1.1393
  276SOL     OW  826   0.158   1.210   2.780  0.1091  0.3147 -0.3685
  276SOL    HW1  827   0.234   1.143   2.776 -2.0333  0.8871 -0.4388
  276SOL    HW2  828   0.110   1.195   2.689  1.3378 -1.2522 -0.9234
  277SOL     OW  829   1.593   2.705   1.444 -0.3369 -0.3529  0.0840
  277SOL    HW1  830   1.632   2.717   1.536  1.1017 -0.4568 -4.1270
  277SOL    HW2  831   1.665   2.710   1.374 -2.9362 -2.5902  2.4464
  278SOL     OW  832   1.423   0.530   1.889 -0.2511 -0.4075  0.2521
  278SOL    HW1  833   1.326   0.504   1.914 -0.3293 -0.0617  0.7315
  278SOL    HW2  834   1.429   0.603   1.813  0.1508  2.4669 -1.9639
  279SOL     OW  835   1.867   1.727   0.602  0.4299 -0.2347 -0.7796
  279SOL    HW1  836   1.964   1.743   0.626  1.1243 -0.3770  1.7824
  279SOL    HW2  837   1.818   1.815   0.589 -1.6756 -0.3492  1.7102
  280SOL     OW  838   0.581   1.756   0.789 -0.3617 -0.1410  0.2202
  280SOL    HW1  839   0.566   1.668   0.836 -1.5509  3.2129 -0.2982
  280SOL    HW2  840   0.674   1.761   0.750 -0.4676  1.0084  0.6159
  281SOL     OW  841   2.802   0.063   2.598  0.5509  0.6835  0.3218
  281SOL    HW1  842   2.806   0.156   2.560  0.8117 -1.4885 -1.2775
  281SOL    HW2  843   2.895   0.016   2.590 -0.9277  0.2913  2.8958
  282SOL     OW  844   0.391   0.849   0.729  0.6443  0.1869 -0.5916
  282SOL    HW1  845   0.348   0.804   0.646 -1.1833  0.7784 -0.7526
  282SOL    HW2  846   0.424   0.945   0.708  2.4461 -0.1561 -1.9049
  283SOL     OW  847   1.952   2.071   0.392  0.9564  0.2329  0.6807
  283SOL    HW1  848   2.026   2.081   0.461 -2.2287  1.3736  2.8024
  283SOL    HW2  849   1.988   2.040   0.301  1.9890 -0.0320 -1.3394
  284SOL     OW  850   1.456   1.441   0.460 -0.5713 -0.1045 -0.0380
  284SOL    HW1  851   1.518   1.470   0.541 -0.2196 -1.5864  0.3862
  284SOL    HW2  852   1.482   1.351   0.422  1.8507  1.4959  0.5677
  285SOL     OW  853   2.352   0.054   2.654 -0.1841  0.4543 -0.3759
  285SOL    HW1  854   2.381   0.141   2.696  0.5589  0.8157  1.5328
  285SOL    HW2  855   2.427   3.086   2.659 -0.6554 -0.8081 -1.8093
  286SOL     OW  856   1.162   3.025   1.560 -0.3540  0.7731 -0.1919
  286SOL    HW1  857   1.206   3.015   1.466 -0.4706  1.2301 -2.9374
  286SOL    HW2  858   1.111   0.008   1.574  1.7882 -2.0604  0.7717
  287SOL     OW  859   0.863   1.403   1.125  0.0954 -0.2649  0.6200
  287SOL    HW1  860   0.931   1.376   1.050  2.4265 -2.2798  0.3356
  287SOL    HW2  861   0.823   1.495   1.111  1.9048 -0.6636  0.6726
  288SOL     OW  862   1.549   3.042   2.827 -0.0519  0.0724 -0.1183
  288SOL    HW1  863   1.585   0.029   2.857 -2.5238  0.9080 -0.8216
  288SOL    HW2  864   1.505   2.991   2.904  0.2997  0.7747 -0.7494
  289SOL     OW  865   0.081   1.537   2.800 -0.0209 -0.6573 -0.8629
  289SOL    HW1  866   0.027   1.517   2.720  3.8747 -1.0299  1.0947
  289SOL    HW2  867   0.070   1.465   2.871 -1.0566 -0.2205  4.0939
  290SOL     OW  868   1.560   2.331   0.884 -0.4261  0.0847 -0.3034
  290SOL    HW1  869   1.531   2.370   0.790 -0.6397 -0.7090 -0.9697
  290SOL    HW2  870   1.620   2.256   0.870 -0.4310  3.7781 -0.7838
  291SOL     OW  871   2.317   1.908   2.963 -0.1451 -0.3681  0.7658
  291SOL    HW1  872   2.269   1.954   3.039 -1.0858 -2.1397 -2.1052
  291SOL    HW2  873   2.256   1.899   2.878  1.3987  0.8137 -3.7524
  292SOL     OW  874   1.138   0.816   2.136  0.9029  0.3431  0.2783
  292SOL    HW1  875   1.217   0.830   2.201 -1.0644  1.2127  0.8289
  292SOL    HW2  876   1.170   0.836   2.039 -1.5354 -0.0604  0.6263
  293SOL     OW  877   2.091   2.846   0.987 -0.1280 -0.4111 -0.2811
  293SOL    HW1  878   2.090   2.927   0.928 -1.1323  0.0257 -0.5441
  293SOL    HW2  879   2.148   2.771   0.947 -1.2784  0.3912 -0.2134
  294SOL     OW  880   0.319   0.446   2.473 -0.0260 -0.0316  1.0039
  294SOL    HW1  881   0.341   0.482   2.567  0.6043  0.0335  0.2741
  294SOL    HW2  882   0.401   0.432   2.417 -1.2158  1.3353  0.1828
  295SOL     OW  883   1.492   1.789   0.432 -0.1308  0.0440  0.4704
  295SOL    HW1  884   1.490   1.783   0.535  0.3986  1.4675  0.7379
  295SOL    HW2  885   1.425   1.729   0.382 -1.8930  3.4165 -0.4493
  296SOL     OW  886   2.428   1.689   0.254 -0.6844  0.1767  0.0292
  296SOL    HW1  887   2.444   1.691   0.155  0.3863  1.3809  0.5009
  296SOL    HW2  888   2.371   1.612   0.282 -1.3505 -2.1139  2.0613
  297SOL     OW  889   2.148   0.137   0.140  0.5562 -0.4004 -0.6570
  297SOL    HW1  890   2.086   0.064   0.097 -0.5958 -4.0608  1.8745
  297SOL    HW2  891   2.227   0.157   0.078 -1.6550  0.0465  1.0413
  298SOL     OW  892   1.333   2.469   2.168  0.7243  0.0125  0.2307
  298SOL    HW1  893   1.280   2.433   2.245  2.2648  0.9749 -4.1733
  298SOL    HW2  894   1.433   2.443   2.177  0.6890  0.0852 -0.1200
  299SOL     OW  895   1.253   3.056   2.235 -0.2420  0.0143 -0.1119
  299SOL    HW1  896   1.353   3.062   2.235 -2.2391 -1.1767 -0.6224
  299SOL    HW2  897   1.216   2.964   2.216  0.9958 -0.9285 -1.3566
  300SOL     OW  898   1.880   2.931   2.931  0.3016 -0.1784  0.2381
  300SOL    HW1  899   1.805   2.896   2.993  0.5098  0.3317  0.9231
  300SOL    HW2  900   1.849   2.972   2.845 -1.7590  0.4579 -0.4417
  301SOL     OW  901   1.479   1.456   1.357 -0.0674 -0.5706  0.0130
  301SOL    HW1  902   1.426   1.375   1.325  0.0900 -0.6724  0.0593
  301SOL    HW2  903   1.558   1.479   1.298  2.0457  0.2705  1.6191
  302SOL     OW  904   2.584   2.344   0.447  0.0310  0.3963  0.1139
  302SOL    HW1  905   2.673   2.387   0.442 -0.7672  0.1940 -1.0851
  302SOL    HW2  906   2.517   2.400   0.396  1.3734 -1.5000 -0.8140
  303SOL     OW  907   2.726   2.427   2.395  0.1910 -0.2414  0.1316
  303SOL    HW1  908   2.801   2.488   2.364  0.5613 -0.2096  0.4817
  303SOL    HW2  909   2.707   2.363   2.317  1.3111  1.0897  0.1272
  304SOL     OW  910   2.952   0.425   1.806 -0.1171 -0.0413 -0.0838
  304SOL    HW1  911   3.001   0.467   1.732 -1.5108  0.4605  0.6371
  304SOL    HW2  912   2.890   0.494   1.853 -1.6714  1.2954  0.9098
  305SOL     OW  913   0.615   1.944   1.912 -0.0101 -0.1409 -0.5366
  305SOL    HW1  914   0.652   1.866   1.967 -0.0403  0.7387  0.2095
  305SOL    HW2  915   0.668   2.028   1.920 -0.0056 -1.7513 -0.2988
  306SOL     OW  916   2.880   0.770   1.726  0.0571  0.3424 -0.6221
  306SOL    HW1  917   2.965   0.713   1.752  4.7250 -1.9454 -0.6492
  306SOL    HW2  918   2.866   0.856   1.781 -1.0106  0.2842 -0.9705
  307SOL     OW  919   1.695   1.274   1.840 -0.2380 -0.1072  0.1422
  307SOL    HW1  920   1.644   1.362   1.863 -0.7118  0.6163 -0.0065
  307SOL    HW2  921   1.661   1.241   1.747  0.2862 -0.6184  1.2570
  308SOL     OW  922   2.669   1.469   0.981 -0.4105  0.2531  0.6183
  308SOL    HW1  923   2.632   1.381   1.004 -0.6935 -0.4790 -1.7029
  308SOL    HW2  924   2.589   1.534   0.959 -1.6359  3.5140 -1.7700
  309SOL     OW  925   2.360   1.665   1.331  0.0320 -0.3729 -0.3145
  309SOL    HW1  926   2.375   1.729   1.409 -0.4108 -0.8131  0.6731
  309SOL    HW2  927   2.414   1.578   1.334  3.1737 -0.1390 -0.4720
  310SOL     OW  928   2.730   1.377   2.704 -0.0387 -0.4634 -0.1702
  310SOL    HW1  929   2.682   1.375   2.614 -1.6018 -0.7476 -0.3601
  310SOL    HW2  930   2.775   1.467   2.712  0.2239 -2.4523 -0.1319
  311SOL     OW  931   0.082   1.999   3.040  0.2881 -0.5472 -0.0821
  311SOL    HW1  932   0.059   1.982   0.037 -0.1347  1.1791  2.1796
  311SOL    HW2  933   0.055   1.922   2.981  0.0894  0.8740  0.2540
  312SOL     OW  934   2.325   1.617   1.068  0.1172  0.1063  0.2467
  312SOL    HW1  935   2.306   1.518   1.074 -0.6330  0.9604 -1.8632
  312SOL    HW2  936   2.341   1.655   1.161  3.0919  2.1390 -1.1289
  313SOL     OW  937   2.513   2.770   1.228 -0.8405 -0.1601  0.5236
  313SOL    HW1  938   2.498   2.795   1.134  1.1970 -1.0090  2.2130
  313SOL    HW2  939   2.440   2.804   1.286 -0.4917  1.1161 -1.9804
  314SOL     OW  940   1.089   1.763   0.461 -0.0215  0.5572  0.3236
  314SOL    HW1  941   1.142   1.681   0.437  1.6925  2.3723 -0.3900
  314SOL    HW2  942   1.039   1.753   0.547  1.7426  0.4459 -0.4712
  315SOL     OW  943   0.944   2.666   2.234 -0.1458  0.0735  0.1613
  315SOL    HW1  944   0.880   2.630   2.167  3.3372 -0.3847  1.6970
  315SOL    HW2  945   0.935   2.611   2.323  1.9276  1.5568  5.0935
  316SOL     OW  946   2.900   1.146   0.273  0.3918  0.2966  0.6180
  316SOL    HW1  947   2.979   1.084   0.264 -2.0625  0.2965  3.0932
  316SOL    HW2  948   2.854   1.128   0.358  0.5451  1.0822 -1.5396
  317SOL     OW  949   1.014   0.323   0.422 -0.3780  1.2527 -0.1568
  317SOL    HW1  950   0.914   0.348   0.425 -1.1428  2.3549 -1.1863
  317SOL    HW2  951   1.021   0.221   0.421 -2.2014  1.1114 -3.7751
  318SOL     OW  952   2.846   2.455   0.438  0.0601 -0.0854 -0.6111
  318SOL    HW1  953   2.881   2.419   0.528  0.7331 -0.9379  2.2511
  318SOL    HW2  954   2.864   2.556   0.425  3.5980  0.1911 -1.4337
  319SOL     OW  955   0.503   1.378   2.517  0.2665  0.1820  0.2350
  319SOL    HW1  956   0.461   1.443   2.585  1.3045  0.9805  0.0185
  319SOL    HW2  957   0.606   1.384   2.520  1.1033  1.0302 -1.0543
  320SOL     OW  958   0.581   2.517   1.739 -0.0488  0.0421  0.3647
  320SOL    HW1  959   0.656   2.568   1.702  0.5876 -2.5172  2.8807
  320SOL    HW2  960   0.521   2.570   1.800  2.3557 -1.8761 -2.7573
  321SOL     OW  961   1.337   2.303   0.170  0.8057  0.1494  0.1951
  321SOL    HW1  962   1.361   2.226   0.229 -0.7860  0.3457 -1.5182
  321SOL    HW2  963   1.407   2.373   0.155  1.4446 -2.2512  0.9913
  322SOL     OW  964   2.823   0.975   1.899  0.1547  0.1626  0.1696
  322SOL    HW1  965   2.783   1.065   1.915  1.8529  0.5618 -0.4074
  322SOL    HW2  966   2.918   0.972   1.938 -1.1649  2.0107  0.6741
  323SOL     OW  967   2.425   1.001   0.555 -0.2991  0.1333  0.0047
  323SOL    HW1  968   2.351   0.932   0.550 -2.4973 -2.0831 -0.7255
  323SOL    HW2  969   2.389   1.092   0.530  1.2148 -0.1244  1.2767
  324SOL     OW  970   0.421   2.674   0.101 -0.6017 -0.5716 -0.5265
  324SOL    HW1  971   0.376   2.750   0.049 -1.5463  1.9679 -0.0553
  324SOL    HW2  972   0.390   2.583   0.077  0.3093  2.3198 -0.4506
  325SOL     OW  973   1.440   0.595   2.265  0.6678  0.0493  0.1158
  325SOL    HW1  974   1.487   0.669   2.217 -1.2720 -0.2672  0.7352
  325SOL    HW2  975   1.480   0.509   2.228 -2.6977  0.7875 -0.7854
  326SOL     OW  976   2.290   2.729   1.525 -0.1341  0.0646  0.0850
  326SOL    HW1  977   2.368   2.665   1.545 -0.3441 -1.9600 -2.2420
  326SOL    HW2  978   2.323   2.808   1.465 -1.0133  0.8287  0.7772
  327SOL     OW  979   1.978   0.625   2.789  0.2175  0.0781  0.1369
  327SOL    HW1  980   1.986   0.634   2.886 -0.5047 -0.6097 -1.6143
  327SOL    HW2  981   1.947   0.527   2.762 -0.1147 -0.5256 -1.1287
  328SOL     OW  982   3.001   1.052   2.297  0.5774 -0.1792 -0.2879
  328SOL    HW1  983   2.918   1.114   2.287 -0.7342 -1.2401 -1.3647
  328SOL    HW2  984   2.996   0.974   2.363  1.0546 -1.0266 -1.0065
  329SOL     OW  985   1.297   0.206   1.871  0.3366 -0.2763 -0.7571
  329SOL    HW1  986   1.221   0.158   1.928 -0.5938 -1.1706  2.6049
  329SOL    HW2  987   1.389   0.207   1.920 -0.2090  1.8815  0.1071
  330SOL     OW  988   2.992   1.856   1.512 -0.0107  0.2847 -0.2585
  330SOL    HW1  989   3.070   1.874   1.454 -1.8366 -0.0336  7.3987
  330SOL    HW2  990   2.954   1.767   1.492 -0.6822 -1.0209  1.9426
  331SOL     OW  991   0.554   1.261   1.901  0.2975  0.1085 -0.0092
  331SOL    HW1  992   0.485   1.286   1.826 -2.6207  1.7890 -3.6516
  331SOL    HW2  993   0.646   1.277   1.857  0.9488  0.9516 -0.6016
  332SOL     OW  994   0.307   2.912   1.378 -0.2013 -1.5183  0.0482
  332SOL    HW1  995   0.401   2.949   1.372 -0.5288  0.3903  0.0203
  332SOL    HW2  996   0.249   2.992   1.408  1.3024  5.0282  0.7156
  333SOL     OW  997   2.136   2.925   1.689 -0.6148  0.6097 -0.8408
  333SOL    HW1  998   2.230   2.955   1.713  1.5069  0.9571 -2.2971
  333SOL    HW2  999   2.132   2.839   1.627 -1.1518 -2.8913 -0.2773
  334SOL     OW 1000   0.889   2.041   1.221 -0.1974 -0.1644 -0.4530
  334SOL    HW1 1001   0.790   2.077   1.213 -2.1408 -0.1356 -1.5781
  334SOL    HW2 1002   0.938   2.071   1.137 -3.5924  3.3535 -1.3357
  335SOL     OW 1003   0.680   2.221   2.875  0.5279  0.4133 -0.7046
  335SOL    HW1 1004   0.704   2.283   2.802  2.9940 -0.3421  1.1621
  335SOL    HW2 1005   0.587   2.181   2.864 -1.0834  0.9686 -1.9268
  336SOL     OW 1006   0.095   0.115   2.043  0.5220 -0.2452 -0.2167
  336SOL    HW1 1007   0.106   0.106   1.943  2.8812  0.5017  2.3084
  336SOL    HW2 1008   0.010   0.175   2.043  1.4996  0.4658 -3.1675
  337SOL     OW 1009   2.650   2.051   0.067 -0.0459  0.1066 -0.3425
  337SOL    HW1 1010   2.588   2.077   0.146 -1.2752 -1.7178 -0.3636
  337SOL    HW2 1011   2.631   1.957   0.034 -0.3948  1.0177  0.5452
  338SOL     OW 1012   1.225   2.132   1.416 -0.4334  0.1454  0.0500
  338SOL    HW1 1013   1.310   2.169   1.461  0.8457 -0.6912  0.6079
  338SOL    HW2 1014   1.180   2.203   1.355 -0.8563  1.2609 -2.5574
  339SOL     OW 1015   0.019   0.581   2.020 -0.6745  1.0511  0.2009
  339SOL    HW1 1016   0.016   0.501   1.955  0.6120 -0.7716  0.7852
  339SOL    HW2 1017   0.075   0.561   2.103 -0.7278  1.2753 -1.6707
  340SOL     OW 1018   1.589   2.665   0.700 -0.1764  0.5366 -0.3858
  340SOL    HW1 1019   1.619   2.665   0.601 -0.1972  2.3447 -3.0280
  340SOL    HW2 1020   1.497   2.612   0.699 -4.2074 -1.6008 -1.0393
  341SOL     OW 1021   1.688   1.284   1.015  0.4007 -0.2097 -0.0385
  341SOL    HW1 1022   1.685   1.294   0.911  1.6379  0.7815 -3.1999
  341SOL    HW2 1023   1.667   1.374   1.056 -0.3031 -2.4639  0.8754
  342SOL     OW 1024   0.244   1.346   0.750  0.2465  0.0004 -0.7704
  342SOL    HW1 1025   0.286   1.424   0.701 -1.9544  4.0844 -1.1476
  342SOL    HW2 1026   0.144   1.332   0.716 -3.2980 -0.0451 -1.0824
  343SOL     OW 1027   1.401   0.097   1.209  0.0841  0.2175  0.5352
  343SOL    HW1 1028   1.327   0.122   1.146  2.3917  0.0985  3.1203
  343SOL    HW2 1029   1.419   0.174   1.278  2.5391 -1.6747  2.1713
  344SOL     OW 1030   2.000   2.508   1.358 -0.0720  0.3578  0.1606
  344SOL    HW1 1031   2.087   2.537   1.319 -0.0468  0.6093  1.2292
  344SOL    HW2 1032   1.923   2.559   1.318 -3.3661 -2.5507 -2.2673
  345SOL     OW 1033   2.894   2.509   2.860 -0.7867  0.1210 -0.0873
  345SOL    HW1 1034   2.823   2.577   2.833 -0.3659  0.7011 -0.9487
  345SOL    HW2 1035   2.992   2.536   2.841  1.6762  3.7375  0.5568
  346SOL     OW 1036   0.234   1.676   0.855  0.3724 -0.3244 -0.1131
  346SOL    HW1 1037   0.270   1.697   0.765 -2.8928 -0.2323 -0.6811
  346SOL    HW2 1038   0.152   1.734   0.875 -0.4712  1.2175  0.1000
  347SOL     OW 1039   1.774   2.601   0.883 -0.0140  0.4108  1.1755
  347SOL    HW1 1040   1.695   2.614   0.821 -1.0743 -4.1802 -2.5432
  347SOL    HW2 1041   1.791   2.683   0.943  0.4821  0.7644 -1.0238
  348SOL     OW 1042   1.249   1.404   2.763 -0.7842  0.0139 -0.2075
  348SOL    HW1 1043   1.299   1.343   2.708 -3.4448  3.5215  1.5878
  348SOL    HW2 1044   1.190   1.455   2.700  1.4858  1.1180  1.6031
  349SOL     OW 1045   2.442   1.158   2.093 -0.0070  0.3424 -0.0586
  349SOL    HW1 1046   2.414   1.154   1.996  0.7651  0.7877  1.4732
  349SOL    HW2 1047   2.443   1.061   2.128  1.0173 -0.3756 -0.1543
  350SOL     OW 1048   3.087   2.406   1.352  0.0661  0.0105  0.3290
  350SOL    HW1 1049   3.055   2.308   1.362  1.5578  1.6379 -0.6928
  350SOL    HW2 1050   0.039   2.421   1.267 -1.2061  1.3318  1.6493
  351SOL     OW 1051   0.502   0.175   2.748  0.3177  0.1569  0.0320
  351SOL    HW1 1052   0.533   0.131   2.834  3.1568  3.3512  1.3956
  351SOL    HW2 1053   0.553   0.262   2.740 -0.4639 -0.1107  1.1625
  352SOL     OW 1054   0.806   2.617   1.402  0.4334 -0.0830  0.5682
  352SOL    HW1 1055   0.814   2.623   1.502  0.4751  0.6722  0.2535
  352SOL    HW2 1056   0.717   2.662   1.369 -1.6621  0.7731 -2.3714
  353SOL     OW 1057   1.016   0.733   2.734 -0.4350 -0.1171  0.2988
  353SOL    HW1 1058   0.996   0.820   2.689  1.4600  0.5579  1.9511
  353SOL    HW2 1059   1.089   0.741   2.803 -2.7169  0.3757 -0.3808
  354SOL     OW 1060   1.387   1.084   0.510 -0.4517 -0.4162  0.3442
  354SOL    HW1 1061   1.388   0.984   0.516 -0.3808  0.8113 -0.8122
  354SOL    HW2 1062   1.456   1.110   0.440  1.0139 -1.4289  1.0100
  355SOL     OW 1063   2.561   0.206   0.738  0.7225  0.0195  0.6121
  355SOL    HW1 1064   2.628   0.154   0.790 -0.9736  1.3656 -0.1974
  355SOL    HW2 1065   2.581   0.303   0.739  0.8053 -1.1351 -3.4991
  356SOL     OW 1066   2.943   0.883   2.493 -0.1953  0.3867 -0.1576
  356SOL    HW1 1067   3.007   0.837   2.561  0.0083 -0.8766 -1.2305
  356SOL    HW2 1068   2.901   0.811   2.436 -0.1637  1.4232 -0.1646
  357SOL     OW 1069   0.560   2.876   1.929  0.0126  0.2918  0.4548
  357SOL    HW1 1070   0.581   2.942   1.852 -2.6769 -0.3345 -1.3252
  357SOL    HW2 1071   0.498   2.800   1.897  1.1642  2.1729  0.0923
  358SOL     OW 1072   2.913   1.171   2.718 -0.0249 -0.6711  0.2087
  358SOL    HW1 1073   2.840   1.237   2.716  2.2438 -2.3112 -0.9256
  358SOL    HW2 1074   3.001   1.205   2.675  2.3384 -0.1720 -0.7363
  359SOL     OW 1075   2.397   2.529   2.918  0.0256 -0.0947  0.0736
  359SOL    HW1 1076   2.358   2.612   2.875 -1.0507  0.6038 -0.1988
  359SOL    HW2 1077   2.405   2.453   2.855 -0.5088  1.6385  4.2366
  360SOL     OW 1078   1.837   1.010   0.959  0.1810  0.3880 -0.2727
  360SOL    HW1 1079   1.895   1.089   0.930 -0.9012 -1.6123 -1.3492
  360SOL    HW2 1080   1.876   0.983   1.051  2.7157  1.0109 -0.6358
  361SOL     OW 1081   1.803   2.828   1.041  0.0520 -0.0202  0.0355
  361SOL    HW1 1082   1.760   2.913   1.003  1.5654  2.2617 -2.9168
  361SOL    HW2 1083   1.899   2.847   1.055 -2.8021  3.8424 -1.7667
  362SOL     OW 1084   1.291   1.181   0.770  0.3352  0.7585 -0.3963
  362SOL    HW1 1085   1.353   1.155   0.698  0.6995  0.6036  0.8584
  362SOL    HW2 1086   1.194   1.155   0.756 -2.7719  0.5129  0.8494
  363SOL     OW 1087   0.089   1.869   2.631  0.3331 -0.4541  0.3998
  363SOL    HW1 1088   0.152   1.941   2.629 -2.6274 -0.6969  0.4643
  363SOL    HW2 1089   0.111   1.792   2.567  0.3348 -0.1383  1.1402
  364SOL     OW 1090   1.501   0.748   1.458  0.1794 -0.1595 -0.1007
  364SOL    HW1 1091   1.481   0.651   1.483 -3.1904 -3.2351  0.2132
  364SOL    HW2 1092   1.546   0.744   1.366 -0.5951  0.9159 -0.2172
  365SOL     OW 1093   0.136   0.008   1.393  0.4204 -0.6411 -0.3018
  365SOL    HW1 1094   0.149   0.060   1.306  0.9726  0.3037  0.9487
  365SOL    HW2 1095   0.085   0.063   1.461 -0.2827  0.6088 -0.4999
  366SOL     OW 1096   2.977   1.409   0.209  0.3550 -0.0305  0.0184
  366SOL    HW1 1097   2.936   1.496   0.257  1.1511 -1.7742  1.4128
  366SOL    HW2 1098   2.942   1.325   0.252  0.3909  2.5174  0.4137
  367SOL     OW 1099   2.784   2.084   2.700 -0.8550 -0.1945  0.0736
  367SOL    HW1 1100   2.697   2.036   2.689  2.6233 -1.1743  0.6339
  367SOL    HW2 1101   2.784   2.160   2.767  2.2238 -1.7998  4.5396
  368SOL     OW 1102   3.026   1.970   0.954  0.0016 -0.0931  0.0164
  368SOL    HW1 1103   2.949   2.005   1.010  0.7769 -3.6241  0.4227
  368SOL    HW2 1104   3.061   2.042   0.889  0.6299  1.5582  0.2410
  369SOL     OW 1105   0.742   0.388   0.442  0.2355 -0.2083 -0.4715
  369SOL    HW1 1106   0.710   0.348   0.352  1.9496 -2.5520 -0.9163
  369SOL    HW2 1107   0.663   0.415   0.496  2.3476  1.4624  1.3973
  370SOL     OW 1108   0.604   0.730   1.437 -0.3537 -0.4501  0.2175
  370SOL    HW1 1109   0.617   0.766   1.342  1.5681 -1.0156 -0.7210
  370SOL    HW2 1110   0.694   0.717   1.477 -1.4024  0.8741 -0.5931
  371SOL     OW 1111   2.397   1.885   0.612  0.3975 -0.3414  0.5716
  371SOL    HW1 1112   2.300   1.845   0.622 -2.8108 -0.2728 -0.1084
  371SOL    HW2 1113   2.392   1.981   0.577  0.4222 -0.6898 -2.9648
  372SOL     OW 1114   0.251   0.921   2.534  0.2787 -0.3077  0.3732
  372SOL    HW1 1115   0.228   0.855   2.604  1.4674  0.9540 -0.6587
  372SOL    HW2 1116   0.242   0.878   2.442  0.6558  1.7520  0.8745
  373SOL     OW 1117   2.767   1.375   0.403 -0.3310 -0.4718 -0.3412
  373SOL    HW1 1118   2.810   1.467   0.409 -1.3717 -2.0698 -0.3054
  373SOL    HW2 1119   2.808   1.311   0.472  1.4554  0.1263  3.5309
  374SOL     OW 1120   0.354   2.395   0.068 -0.0115 -0.4641  0.0995
  374SOL    HW1 1121   0.321   2.317   0.005  0.6915  0.9774  0.8749
  374SOL    HW2 1122   0.407   2.361   0.149  0.6698 -1.5996  1.8376
  375SOL     OW 1123   0.688   0.268   0.214  0.0818 -0.0930 -0.5881
  375SOL    HW1 1124   0.738   0.279   0.124  3.0038 -0.8844 -0.0226
  375SOL    HW2 1125   0.606   0.212   0.203  0.3812 -1.0897  2.6860
  376SOL     OW 1126   0.184   3.003   2.210 -0.3971  0.0167 -0.1979
  376SOL    HW1 1127   0.140   3.084   2.170  2.3072  0.2443 -0.4689
  376SOL    HW2 1128   0.284   3.008   2.192  1.3879 -0.1514 -0.5024
  377SOL     OW 1129   0.457   1.769   2.214 -0.2162 -0.0198 -0.0661
  377SOL    HW1 1130   0.475   1.782   2.311 -1.6821 -2.2417 -1.2316
  377SOL    HW2 1131   0.405   1.685   2.198  2.4751  2.2437 -0.1509
  378SOL     OW 1132   1.499   0.836   0.468  0.1420  0.1310 -0.2078
  378SOL    HW1 1133   1.518   0.862   0.372  1.9657 -0.2713  0.9991
  378SOL    HW2 1134   1.418   0.773   0.477  2.7302  0.8453 -1.7923
  379SOL     OW 1135   1.097   1.469   0.120 -0.2596  0.3547 -0.4864
  379SOL    HW1 1136   1.053   1.488   0.208  3.3721 -0.5421  1.6209
  379SOL    HW2 1137   1.168   1.399   0.129  0.1143 -1.7043 -0.5085
  380SOL     OW 1138   2.785   2.062   2.059  0.2383 -0.7322 -0.4004
  380SOL    HW1 1139   2.725   1.979   2.069 -1.1588  2.2648  2.4397
  380SOL    HW2 1140   2.853   2.057   2.131 -1.4580 -2.3866 -3.1367
  381SOL     OW 1141   0.456   0.862   1.788  0.2245  0.0088  0.6318
  381SOL    HW1 1142   0.497   0.898   1.706 -1.9959 -1.0709 -0.5121
  381SOL    HW2 1143   0.360   0.853   1.773  0.9727 -0.3205  0.5479
  382SOL     OW 1144   2.763   2.275   2.882  0.7345  0.0286 -0.4521
  382SOL    HW1 1145   2.814   2.361   2.859  0.5642 -4.3271  0.3118
  382SOL    HW2 1146   2.728   2.278   2.977  0.2206  1.7705  0.7273
  383SOL     OW 1147   2.359   1.896   2.249  0.4932  0.5277  0.0674
  383SOL    HW1 1148   2.374   1.798   2.222 -0.9600 -0.8698 -3.5849
  383SOL    HW2 1149   2.382   1.921   2.343  0.3446  0.7065 -1.9192
  384SOL     OW 1150   0.695   2.323   2.341 -0.4895 -0.1926  0.0185
  384SOL    HW1 1151   0.682   2.415   2.301 -0.8740 -2.2370  1.5585
  384SOL    HW2 1152   0.600   2.304   2.379  0.1351  0.7076 -1.4808
  385SOL     OW 1153   2.688   2.028   1.011  0.4979 -0.0536 -0.7632
  385SOL    HW1 1154   2.755   2.098   1.044  1.2927 -1.3748 -1.8032
  385SOL    HW2 1155   2.648   1.988   1.096  0.8482 -3.4372  4.3969
  386SOL     OW 1156   1.720   0.888   3.014 -0.3152  0.2046 -0.7853
  386SOL    HW1 1157   1.711   0.789   3.036 -1.0224  0.4537  0.0511
  386SOL    HW2 1158   1.798   0.923   3.074  0.4919 -1.2618  1.0842
  387SOL     OW 1159   0.515   0.979   1.530  0.5858  0.8220  0.1318
  387SOL    HW1 1160   0.534   0.891   1.480  2.4171 -2.1128  0.3829
  387SOL    HW2 1161   0.591   1.044   1.523 -1.5441 -0.8132 -0.8369
  388SOL     OW 1162   2.878   0.972   1.486 -0.0578 -0.6501  0.1045
  388SOL    HW1 1163   2.817   0.891   1.495  1.0688 -0.1178 -0.6901
  388SOL    HW2 1164   2.839   1.062   1.520 -0.9202  0.3640  2.8326
  389SOL     OW 1165   1.678   1.023   2.505  0.3907  0.6418  0.3662
  389SOL    HW1 1166   1.667   1.105   2.559 -0.5267 -1.6153 -0.5749
  389SOL    HW2 1167   1.711   0.944   2.555 -0.1103  4.3129 -0.3727
  390SOL     OW 1168   2.122   2.086   0.618 -0.3759  0.0674 -0.2017
  390SOL    HW1 1169   2.114   2.114   0.717 -0.0640  0.2389  0.4001
  390SOL    HW2 1170   2.209   2.115   0.577  0.8357 -2.9755  0.8958
  391SOL     OW 1171   1.544   2.913   0.858  0.1108 -0.2876 -0.0085
  391SOL    HW1 1172   1.557   2.854   0.773  1.0830  0.5412 -1.3417
  391SOL    HW2 1173   1.534   2.857   0.944 -0.4736  1.4153 -0.2081
  392SOL     OW 1174   2.640   3.013   1.603 -0.0830 -0.4561  0.1104
  392SOL    HW1 1175   2.695   2.960   1.535  1.0726 -0.3450 -0.7327
  392SOL    HW2 1176   2.552   3.037   1.559  1.5268  0.7136  0.4112
  393SOL     OW 1177   1.906   2.006   2.890 -0.1196 -0.1132  0.2110
  393SOL    HW1 1178   1.937   2.103   2.895  1.2537  1.2582  2.8281
  393SOL    HW2 1179   1.938   1.954   2.976  0.0999  0.1729  3.6289
  394SOL     OW 1180   0.497   2.520   2.972 -0.0085 -0.1158 -0.0829
  394SOL    HW1 1181   0.433   2.460   3.026 -2.6052 -2.5893 -1.5543
  394SOL    HW2 1182   0.525   2.599   3.020 -2.0046 -2.3817 -0.8982
  395SOL     OW 1183   0.743   1.640   1.066  0.0230 -0.0494 -0.6805
  395SOL    HW1 1184   0.713   1.592   0.982 -0.9217  1.8843  0.4437
  395SOL    HW2 1185   0.654   1.672   1.106  0.0604  3.7895 -1.7391
  396SOL     OW 1186   2.148   1.032   2.407  0.6940  0.1486 -0.6902
  396SOL    HW1 1187   2.109   1.062   2.321  1.8150 -1.9412  1.9657
  396SOL    HW2 1188   2.132   1.107   2.476 -1.3418  1.3319  1.4528
  397SOL     OW 1189   2.897   0.738   2.822  0.1738 -0.2890  0.0600
  397SOL    HW1 1190   2.801   0.713   2.787 -1.4511  0.4826 -1.3540
  397SOL    HW2 1191   2.971   0.678   2.789  0.0558 -2.0430 -0.4382
  398SOL     OW 1192   1.316   0.370   0.273 -0.1940 -0.5955  0.3459
  398SOL    HW1 1193   1.417   0.395   0.277  3.2294  0.3058  1.2470
  398SOL    HW2 1194   1.295   0.271   0.292 -1.1836  0.4961 -1.8053
  399SOL     OW 1195   1.815   0.008   1.675  0.0835  0.0876  0.1069
  399SOL    HW1 1196   1.759   3.089   1.593 -2.5039 -1.5224 -1.3319
  399SOL    HW2 1197   1.829   3.030   1.733  1.8346  0.5071 -2.6108
  400SOL     OW 1198   0.018   2.321   2.161  0.2349 -0.2384  0.4134
  400SOL    HW1 1199   3.070   2.232   2.158  3.5841  0.2907  1.6330
  400SOL    HW2 1200   0.061   2.342   2.067 -1.0399  0.7700 -0.8961
  401SOL     OW 1201   0.597   3.082   0.212 -0.9777  0.5311 -0.0399
  401SOL    HW1 1202   0.498   3.068   0.229 -0.5752 -0.1039  0.4631
  401SOL    HW2 1203   0.631   3.016   0.141 -0.4535 -1.9914  0.0698
  402SOL     OW 1204   0.204   2.537   1.470 -0.5872  0.0966  0.6341
  402SOL    HW1 1205   0.245   2.461   1.526  0.2995 -0.1338  1.5007
  402SOL    HW2 1206   0.109   2.513   1.445  0.5384  0.2206 -0.0482
  403SOL     OW 1207   0.274   1.115   1.504  0.1903 -0.1546  0.4081
  403SOL    HW1 1208   0.191   1.069   1.548 -1.1454 -2.8484 -2.4685
  403SOL    HW2 1209   0.361   1.061   1.509  3.0645 -0.1243  2.1121
  404SOL     OW 1210   2.907   2.534   2.204 -0.1310 -0.9582 -0.6208
  404SOL    HW1 1211   2.979   2.467   2.187  0.5226 -0.8147  3.0359
  404SOL    HW2 1212   2.927   2.608   2.274 -1.5695 -0.5833  0.3803
  405SOL     OW 1213   2.714   0.344   2.274  0.4763  0.2133  0.4361
  405SOL    HW1 1214   2.646   0.278   2.233 -1.5426  0.7034  1.0198
  405SOL    HW2 1215   2.676   0.439   2.272  2.9381 -0.1455 -2.7930
  406SOL     OW 1216   1.944   2.351   0.264 -0.4782 -0.1468  0.3344
  406SOL    HW1 1217   2.001   2.355   0.351  0.4115 -2.2148 -0.0890
  406SOL    HW2 1218   1.870   2.284   0.270  3.2738  1.7908 -0.4648
  407SOL     OW 1219   1.940   1.445   0.394 -0.2305 -0.7333  0.1771
  407SOL    HW1 1220   2.004   1.482   0.467 -0.1539 -2.1250  2.0681
  407SOL    HW2 1221   1.856   1.503   0.386 -0.5088  0.4094 -1.2072
  408SOL     OW 1222   0.500   0.396   2.276 -0.1136  0.3836  0.8440
  408SOL    HW1 1223   0.455   0.350   2.194  1.2827 -0.5090  0.0134
  408SOL    HW2 1224   0.600   0.371   2.275  0.9516 -0.2699  0.5809
  409SOL     OW 1225   2.861   1.656   0.407 -0.5548  0.0589 -0.4965
  409SOL    HW1 1226   2.756   1.667   0.418 -0.2068  0.1955  1.5588
  409SOL    HW2 1227   2.901   1.737   0.356 -1.3892  0.3780 -0.0676
  410SOL     OW 1228   2.094   1.722   1.356 -0.3118  0.4362  0.1322
  410SOL    HW1 1229   2.185   1.699   1.314 -0.3858  1.1723  0.6132
  410SOL    HW2 1230   2.095   1.723   1.459  0.7794 -0.8026  1.0684
  411SOL     OW 1231   0.091   0.512   0.447  0.1625  0.1017  0.2369
  411SOL    HW1 1232   0.023   0.499   0.375 -1.5628 -2.2602  0.2232
  411SOL    HW2 1233   0.105   0.429   0.504  1.9444  1.7048  1.4837
  412SOL     OW 1234   1.999   0.658   3.070  0.4487 -0.1427 -0.0221
  412SOL    HW1 1235   1.943   0.698   0.050 -0.6446  0.4055  3.0838
  412SOL    HW2 1236   2.079   0.600   0.002  3.7518 -2.7375 -0.6676
  413SOL     OW 1237   1.130   0.495   1.634 -0.5663 -0.6551  0.0735
  413SOL    HW1 1238   1.225   0.489   1.593  0.1305  1.8395  1.5451
  413SOL    HW2 1239   1.066   0.458   1.562  0.0096  0.2402 -1.1254
  414SOL     OW 1240   0.242   1.094   0.211 -0.1451 -1.2042  0.0253
  414SOL    HW1 1241   0.277   1.103   0.113 -1.8892 -1.1185 -3.4137
  414SOL    HW2 1242   0.150   1.055   0.208  2.9682 -0.7266  0.3165
  415SOL     OW 1243   0.320   1.505   0.520  0.4646  0.7129  0.5294
  415SOL    HW1 1244   0.246   1.575   0.505 -0.0403 -0.9122 -0.8904
  415SOL    HW2 1245   0.287   1.413   0.492  0.8541 -0.9245 -0.8292
  416SOL     OW 1246   1.934   0.650   0.435 -0.3763  0.4764  0.1472
  416SOL    HW1 1247   1.874   0.572   0.453 -2.0329 -2.8096  1.3835
  416SOL    HW2 1248   2.032   0.615   0.428  2.5531  2.9965 -1.2135
  417SOL     OW 1249   3.032   0.091   0.878 -0.6152  0.2484 -0.1476
  417SOL    HW1 1250   0.023   0.129   0.875  1.2692  1.2468 -0.1328
  417SOL    HW2 1251   2.985   0.119   0.790  0.4078 -0.4686  2.2051
  418SOL     OW 1252   2.294   0.978   3.067  0.5071  0.5555 -0.3659
  418SOL    HW1 1253   2.349   0.899   3.045 -0.0855  2.7252  0.4516
  418SOL    HW2 1254   2.197   0.959   3.038  2.2444  0.4957  0.4220
  419SOL     OW 1255   0.577   0.607   0.255  0.3484 -0.0980  0.8425
  419SOL    HW1 1256   0.507   0.543   0.218  2.0662 -1.2185  1.3245
  419SOL    HW2 1257   0.662   0.558   0.283 -2.6006  1.9568 -0.1484
  420SOL     OW 1258   0.584   1.503   0.888 -0.4483  0.2221 -0.2624
  420SOL    HW1 1259   0.621   1.437   0.818  0.0248  0.5014 -1.5928
  420SOL    HW2 1260   0.501   1.466   0.929  1.9398  0.4603 -2.0918
  421SOL     OW 1261   0.364   2.060   0.183  0.2650  0.4811  0.2171
  421SOL    HW1 1262   0.365   1.958   0.178 -0.0321  0.2923 -2.0377
  421SOL    HW2 1263   0.339   2.110   0.097  0.1557 -0.7431 -0.5610
  422SOL     OW 1264   2.598   0.303   1.538  0.2151  0.1347 -0.6561
  422SOL    HW1 1265   2.547   0.245   1.609  2.5967  2.6281 -0.4695
  422SOL    HW2 1266   2.585   0.254   1.450 -0.8152 -3.3136 -2.9797
  423SOL     OW 1267   2.120   1.817   0.623  0.1973 -0.2516 -0.3682
  423SOL    HW1 1268   2.139   1.795   0.722 -0.5975 -0.6352 -1.4091
  423SOL    HW2 1269   2.123   1.920   0.616  0.9783  0.4434 -0.7094
  424SOL     OW 1270   1.964   1.270   0.017  0.0929  0.6766 -0.0568
  424SOL    HW1 1271   2.033   1.340   0.048  0.5799  2.8280  0.1592
  424SOL    HW2 1272   1.875   1.308   0.055 -0.7005  1.6884  0.1825
  425SOL     OW 1273   0.174   2.937   2.481 -0.0309 -0.4560  0.0503
  425SOL    HW1 1274   0.258   2.877   2.500  0.4282 -1.5403  0.6513
  425SOL    HW2 1275   0.166   2.959   2.378  1.1051 -1.2013 -0.6709
  426SOL     OW 1276   2.273   2.736   2.806 -0.5458 -0.1298 -0.5491
  426SOL    HW1 1277   2.193   2.802   2.819 -3.5257  3.4198  2.1353
  426SOL    HW2 1278   2.292   2.738   2.706 -0.5192  1.9702  0.7153
  427SOL     OW 1279   0.812   1.019   2.202  0.0671 -0.2633 -0.0457
  427SOL    HW1 1280   0.837   0.946   2.269  0.4550 -0.7937 -0.2788
  427SOL    HW2 1281   0.726   1.073   2.228 -1.3101  0.5374  1.3817
  428SOL     OW 1282   2.350   1.405   2.149  0.4861 -0.3626  0.4093
  428SOL    HW1 1283   2.385   1.310   2.141  1.0792 -0.8570 -0.1625
  428SOL    HW2 1284   2.299   1.425   2.062 -2.7066 -1.1747 -0.6003
  429SOL     OW 1285   2.340   0.073   0.651 -0.3192  0.1262  0.1928
  429SOL    HW1 1286   2.342   0.106   0.556  1.4814  0.4719 -0.8229
  429SOL    HW2 1287   2.420   0.110   0.703 -0.3360  3.0029  0.7693
  430SOL     OW 1288   1.836   1.469   2.166  0.1639 -0.0014 -0.5912
  430SOL    HW1 1289   1.855   1.415   2.083 -0.6302  1.8432 -1.5001
  430SOL    HW2 1290   1.754   1.427   2.219  0.1109 -0.1212 -0.3417
  431SOL     OW 1291   2.858   1.952   1.718 -0.7656 -0.1975  0.6502
  431SOL    HW1 1292   2.899   1.923   1.630  1.7829  0.0815 -0.8634
  431SOL    HW2 1293   2.861   2.051   1.737  2.1913 -1.3848  1.6361
  432SOL     OW 1294   0.784   2.649   1.993 -0.4362  0.2475  0.0383
  432SOL    HW1 1295   0.799   2.642   1.895  0.1182  0.3284  1.1419
  432SOL    HW2 1296   0.723   2.731   2.017  0.2540 -1.6191  3.3204
  433SOL     OW 1297   1.761   3.076   0.907 -0.2330 -1.1083 -0.3705
  433SOL    HW1 1298   1.821   3.098   0.827  0.9159 -0.9846  1.5806
  433SOL    HW2 1299   1.673   3.042   0.873  1.3822  1.9940 -1.4463
  434SOL     OW 1300   0.321   2.213   1.894 -0.0318  0.6883  0.1795
  434SOL    HW1 1301   0.385   2.232   1.817 -0.7604 -1.4431  2.2273
  434SOL    HW2 1302   0.337   2.116   1.929  1.6649 -1.3604  1.0334
  435SOL     OW 1303   0.581   1.551   0.497 -0.5289  1.3454  0.0614
  435SOL    HW1 1304   0.598   1.629   0.437  0.2985 -1.2560  1.3279
  435SOL    HW2 1305   0.481   1.529   0.494  0.7030  0.0833  0.8984
  436SOL     OW 1306   0.150   1.530   1.672 -0.1529 -0.4206 -0.3866
  436SOL    HW1 1307   0.097   1.607   1.713 -0.4478 -0.4288 -1.1498
  436SOL    HW2 1308   0.198   1.550   1.584 -1.9640 -3.3036 -1.3730
  437SOL     OW 1309   1.147   0.495   3.051  0.1471 -0.4259 -0.6138
  437SOL    HW1 1310   1.224   0.559   3.078 -1.8863 -1.1578 -0.7859
  437SOL    HW2 1311   1.062   0.550   3.044  3.2282 -0.5294 -1.9587
  438SOL     OW 1312   0.427   1.802   1.422 -0.5401  0.1011  0.4688
  438SOL    HW1 1313   0.394   1.885   1.379  0.9209 -3.1515  1.0533
  438SOL    HW2 1314   0.423   1.815   1.522 -0.7517 -0.6223 -0.5695
  439SOL     OW 1315   1.867   1.618   3.025  0.0278 -0.0278  0.5551
  439SOL    HW1 1316   1.905   1.639   0.015  0.9393 -0.4347 -1.7858
  439SOL    HW2 1317   1.939   1.634   2.958 -1.0662 -1.0384  1.4982
  440SOL     OW 1318   1.687   0.323   0.801 -0.1065  0.1778  0.2059
  440SOL    HW1 1319   1.591   0.321   0.767  2.1113 -0.9275 -0.1013
  440SOL    HW2 1320   1.716   0.415   0.837  0.4934  1.5311 -2.4746
  441SOL     OW 1321   0.574   2.723   1.311 -0.0588 -0.4511  0.1514
  441SOL    HW1 1322   0.474   2.707   1.295  1.3589 -2.3329  0.7184
  441SOL    HW2 1323   0.607   2.819   1.291  1.0330  1.5190 -1.8453
  442SOL     OW 1324   2.525   2.392   0.944  0.3404 -0.0006 -0.3039
  442SOL    HW1 1325   2.518   2.426   0.848  0.4767  0.2559 -1.8094
  442SOL    HW2 1326   2.437   2.395   0.993  2.0750  0.3511 -1.2836
  443SOL     OW 1327   2.845   0.669   2.345  0.0530  0.1579 -0.2210
  443SOL    HW1 1328   2.748   0.645   2.317  0.8643 -2.9619 -3.6971
  443SOL    HW2 1329   2.894   0.594   2.392 -0.4576  1.5241  1.5086
  444SOL     OW 1330   1.404   0.980   2.489 -0.7311 -0.5454 -0.1631
  444SOL    HW1 1331   1.503   0.997   2.498 -0.1460 -0.8218 -1.8516
  444SOL    HW2 1332   1.388   0.949   2.395  1.3880 -2.8223 -0.2424
  445SOL     OW 1333   2.762   2.104   1.437 -0.1244 -0.3342 -0.4948
  445SOL    HW1 1334   2.784   2.197   1.483  0.1839  4.3933 -0.7138
  445SOL    HW2 1335   2.672   2.110   1.387  0.0708 -0.8145  0.4186
  446SOL     OW 1336   0.016   1.267   0.612  0.0652 -0.1862  0.2340
  446SOL    HW1 1337   3.061   1.182   0.603  2.6042  0.1846 -1.3944
  446SOL    HW2 1338   3.067   1.354   0.624 -0.6814 -1.1812  1.0734
  447SOL     OW 1339   0.766   2.273   0.867  0.3790 -0.1740 -0.0834
  447SOL    HW1 1340   0.736   2.350   0.925  0.0853 -0.9728 -1.8763
  447SOL    HW2 1341   0.695   2.202   0.860  0.9910  0.9214  2.6954
  448SOL     OW 1342   1.476   1.602   1.573 -0.1904  0.2081 -0.1246
  448SOL    HW1 1343   1.472   1.545   1.660 -3.0168 -1.9919 -1.9839
  448SOL    HW2 1344   1.491   1.554   1.482  1.3487  0.1985  0.9661
  449SOL     OW 1345   0.683   1.746   2.841 -0.7088  0.0155 -0.3213
  449SOL    HW1 1346   0.701   1.648   2.842  2.8543 -0.8207  1.1580
  449SOL    HW2 1347   0.729   1.791   2.919 -1.2651 -0.9272  0.0197
  450SOL     OW 1348   2.663   2.261   2.187  0.0808  0.0795 -0.2167
  450SOL    HW1 1349   2.584   2.206   2.223  1.1395 -1.1960 -0.7434
  450SOL    HW2 1350   2.721   2.198   2.131 -1.1864  0.7909 -0.4626
  451SOL     OW 1351   2.073   0.616   1.652 -0.1151 -0.0103 -0.6253
  451SOL    HW1 1352   2.087   0.674   1.569 -2.0132  1.9328 -4.9214
  451SOL    HW2 1353   2.086   0.673   1.735 -1.3960 -2.3884  0.0528
  452SOL     OW 1354   0.864   2.837   1.196  0.4171  0.0432  0.3582
  452SOL    HW1 1355   0.847   2.775   1.277 -0.5607 -1.8949  0.9867
  452SOL    HW2 1356   0.834   2.787   1.109  0.7727 -0.6335  1.5708
  453SOL     OW 1357   0.957   1.779   1.148  0.0256  0.2222  0.5137
  453SOL    HW1 1358   0.863   1.744   1.121 -1.5878  1.6411 -0.2518
  453SOL    HW2 1359   0.943   1.858   1.206 -0.6969 -2.0523  0.6475
  454SOL     OW 1360   2.990   1.074   0.877 -0.8439  0.7224  0.0448
  454SOL    HW1 1361   3.075   1.030   0.833  2.0684 -1.0986 -0.1020
  454SOL    HW2 1362   3.025   1.139   0.950  0.5548 -0.8809 -1.6646
  455SOL     OW 1363   0.337   0.313   0.409 -0.1836 -0.0302 -0.3719
  455SOL    HW1 1364   0.259   0.298   0.471  0.3462  1.2637  0.0750
  455SOL    HW2 1365   0.424   0.346   0.455  1.2953  1.1692  1.1575
  456SOL     OW 1366   2.081   2.390   0.495  0.1531  0.1211 -0.0326
  456SOL    HW1 1367   2.107   2.483   0.534  0.9575  2.2046  1.4803
  456SOL    HW2 1368   2.034   2.334   0.566 -0.0862 -0.0944  0.2959
  457SOL     OW 1369   1.375   2.641   3.033 -0.9283  0.3858 -0.3588
  457SOL    HW1 1370   1.424   2.729   3.031 -0.8687 -0.0808 -0.4758
  457SOL    HW2 1371   1.360   2.616   2.936  0.8634  3.0400  1.2230
  458SOL     OW 1372   2.734   2.922   0.269  0.1669  0.5038 -0.1273
  458SOL    HW1 1373   2.702   2.918   0.172  1.0756  3.7619 -0.8760
  458SOL    HW2 1374   2.757   3.017   0.287 -0.2580  0.6851 -1.2578
  459SOL     OW 1375   2.275   0.444   1.719  0.4084 -0.1474  0.6272
  459SOL    HW1 1376   2.234   0.394   1.795  2.7281 -0.3130 -2.4836
  459SOL    HW2 1377   2.198   0.500   1.675 -3.2440 -0.7508  0.0640
  460SOL     OW 1378   3.031   0.478   0.237 -0.1602  0.1857  0.2351
  460SOL    HW1 1379   3.095   0.513   0.162  1.5542  0.2915 -0.6911
  460SOL    HW2 1380   2.962   0.551   0.249  2.1193  0.3449  1.5445
  461SOL     OW 1381   0.141   1.903   1.417  0.4558  0.1366  0.6910
  461SOL    HW1 1382   0.181   1.842   1.346  0.1703 -0.7622 -0.7123
  461SOL    HW2 1383   0.155   2.002   1.387  0.4355  2.9329  1.8305
  462SOL     OW 1384   2.933   2.980   1.008  0.3448  0.0860  0.3261
  462SOL    HW1 1385   2.994   3.050   0.963  0.1563  0.4139 -1.0916
  462SOL    HW2 1386   2.879   3.031   1.077  0.8296  0.5476  0.0828
  463SOL     OW 1387   2.798   1.006   0.033 -0.1491  0.2429 -0.0291
  463SOL    HW1 1388   2.798   1.077   0.105  0.5827  1.8319  0.4849
  463SOL    HW2 1389   2.866   1.027   3.059  1.4298  1.6565  0.1724
  464SOL     OW 1390   0.571   2.873   1.026  0.1909  0.0238  0.3171
  464SOL    HW1 1391   0.609   2.953   0.971 -2.4146  2.1837  0.2014
  464SOL    HW2 1392   0.575   2.901   1.121  1.0167  1.1221 -3.7231
  465SOL     OW 1393   0.871   0.580   1.181 -0.0650 -0.5849 -0.0792
  465SOL    HW1 1394   0.969   0.615   1.185  1.7872  0.0144  0.8044
  465SOL    HW2 1395   0.830   0.605   1.085 -0.8152 -0.4035  0.1637
  466SOL     OW 1396   1.605   2.424   2.223  0.1979 -0.1906 -0.2710
  466SOL    HW1 1397   1.650   2.352   2.173 -0.5579  1.3630  3.2012
  466SOL    HW2 1398   1.638   2.423   2.321 -0.2548  1.4826  0.3957
  467SOL     OW 1399   0.824   0.209   1.964  0.3778  0.6190  0.2777
  467SOL    HW1 1400   0.854   0.291   1.910  1.0729  0.3777 -0.9851
  467SOL    HW2 1401   0.903   0.148   1.982  1.5050 -0.6298  1.2043
  468SOL     OW 1402   0.329   1.102   2.247  0.0404 -0.1283 -0.4650
  468SOL    HW1 1403   0.331   1.084   2.146 -0.6123  0.6392  2.0718
  468SOL    HW2 1404   0.416   1.142   2.283 -1.7806 -2.7666 -0.6606
  469SOL     OW 1405   0.824   2.411   0.627 -0.3302  0.1138  0.0698
  469SOL    HW1 1406   0.871   2.500   0.651 -0.9214  2.0263  0.7806
  469SOL    HW2 1407   0.810   2.348   0.706 -1.3552 -0.5389  1.0006
  470SOL     OW 1408   2.455   1.669   2.069  0.0905 -0.1009 -0.1005
  470SOL    HW1 1409   2.457   1.702   1.972 -0.3870  1.5445 -1.7316
  470SOL    HW2 1410   2.427   1.575   2.089 -2.5654  1.4258  2.1796
  471SOL     OW 1411   1.194   2.779   2.762 -0.4552 -0.0226  0.3841
  471SOL    HW1 1412   1.142   2.766   2.851 -1.3804 -3.1216  0.9553
  471SOL    HW2 1413   1.240   2.872   2.765  2.0254 -3.8501 -1.8640
  472SOL     OW 1414   0.392   2.654   1.859 -0.4873 -0.3811 -0.0879
  472SOL    HW1 1415   0.311   2.636   1.915 -1.2977 -0.9666  0.7765
  472SOL    HW2 1416   0.371   2.651   1.760  1.4948 -1.6284  0.8544
  473SOL     OW 1417   0.843   3.096   2.885  0.3147  0.3368  0.4281
  473SOL    HW1 1418   0.818   3.020   2.819  0.1442 -2.5907  0.7005
  473SOL    HW2 1419   0.760   0.028   2.934  0.0914  0.2873  0.9296
  474SOL     OW 1420   1.995   0.227   0.963 -0.4880 -0.3403 -0.0996
  474SOL    HW1 1421   1.899   0.198   0.970  0.1223 -0.0113 -0.3086
  474SOL    HW2 1422   2.028   0.293   1.037  0.6978  0.1555  0.0329
  475SOL     OW 1423   1.528   0.417   1.247  0.2112  0.4518  0.6827
  475SOL    HW1 1424   1.504   0.377   1.159  0.6452  0.6061 -1.3125
  475SOL    HW2 1425   1.573   0.511   1.235  0.8773  0.5221  1.8992
  476SOL     OW 1426   0.685   1.060   0.932  0.6633  0.2630 -0.8484
  476SOL    HW1 1427   0.606   1.077   0.875 -0.7217 -0.8655  1.0056
  476SOL    HW2 1428   0.677   1.093   1.027 -0.8703  1.7589 -0.6453
  477SOL     OW 1429   1.156   2.456   0.779  0.1073  0.3686  0.0106
  477SOL    HW1 1430   1.099   2.506   0.711 -1.1487 -1.4221 -0.8114
  477SOL    HW2 1431   1.158   2.504   0.873  1.5559  0.5788 -0.6560
  478SOL     OW 1432   2.986   2.720   2.401  0.2644  0.0993  0.2826
  478SOL    HW1 1433   3.017   2.731   2.498 -3.0459 -0.5348 -1.9773
  478SOL    HW2 1434   3.066   2.720   2.338 -0.8581 -2.7963  1.1370
  479SOL     OW 1435   2.642   0.514   0.947 -0.5853  0.1613 -0.2794
  479SOL    HW1 1436   2.551   0.557   0.950 -1.9177 -1.0617 -0.9129
  479SOL    HW2 1437   2.662   0.489   0.850 -2.2504 -0.3266 -2.2761
  480SOL     OW 1438   0.077   2.586   0.137  0.0118 -0.8982 -0.2198
  480SOL    HW1 1439   3.086   2.546   0.138  0.7877 -1.1935  1.5958
  480SOL    HW2 1440   0.080   2.679   0.173 -1.3633  0.3244 -1.4363
  481SOL     OW 1441   2.306   1.965   1.847  0.2657  1.0463  1.0084
  481SOL    HW1 1442   2.209   1.979   1.870  0.6491 -1.0357 -1.4141
  481SOL    HW2 1443   2.358   2.046   1.879 -0.1275  0.8421 -0.4700
  482SOL     OW 1444   1.615   2.119   2.616 -0.6129 -0.4264  0.1564
  482SOL    HW1 1445   1.702   2.173   2.589  2.1153  1.1186  0.7780
  482SOL    HW2 1446   1.543   2.128   2.544  0.1681 -0.2900 -3.3351
  483SOL     OW 1447   0.801   1.652   1.632  0.7645  0.6177 -0.4698
  483SOL    HW1 1448   0.797   1.736   1.576  0.6900  0.9067 -1.7885
  483SOL    HW2 1449   0.713   1.603   1.622  3.2954 -1.1310  1.9784
  484SOL     OW 1450   0.456   0.505   1.440 -0.5689 -0.0048 -0.2376
  484SOL    HW1 1451   0.499   0.599   1.442 -1.7156  3.4813 -2.8176
  484SOL    HW2 1452   0.473   0.460   1.350  1.0886 -1.9319  0.7552
  485SOL     OW 1453   2.330   1.220   2.858 -0.3013 -0.0402 -0.1207
  485SOL    HW1 1454   2.242   1.172   2.873  0.5044  1.6391 -1.2244
  485SOL    HW2 1455   2.406   1.157   2.873 -1.1820  1.2449 -1.2373
  486SOL     OW 1456   1.425   3.049   1.633  0.2107 -0.1243  0.0737
  486SOL    HW1 1457   1.446   0.047   1.650  1.3352  0.8803  1.9824
  486SOL    HW2 1458   1.330   3.044   1.593 -0.8021  1.3483 -0.5199
  487SOL     OW 1459   0.332   2.313   1.528 -0.3237 -0.2134  0.5631
  487SOL    HW1 1460   0.408   2.305   1.596 -1.3674 -0.7356  0.0469
  487SOL    HW2 1461   0.363   2.299   1.429 -0.1920 -1.8802  0.6878
  488SOL     OW 1462   2.498   2.097   2.850  0.0630 -0.3654 -0.0794
  488SOL    HW1 1463   2.434   2.037   2.897 -1.7306  1.2624 -0.6839
  488SOL    HW2 1464   2.582   2.122   2.898  0.1815 -0.2978  2.7322
  489SOL     OW 1465   2.129   3.004   0.592  0.1026  0.2453  0.0125
  489SOL    HW1 1466   2.144   2.930   0.524  0.0845  2.0879 -1.6910
  489SOL    HW2 1467   2.218   3.046   0.620 -0.3133  1.7306 -0.8194
  490SOL     OW 1468   1.151   2.332   2.770  0.2283 -0.7404  0.0831
  490SOL    HW1 1469   1.157   2.279   2.681  0.1440 -1.6471 -0.2643
  490SOL    HW2 1470   1.134   2.273   2.851 -0.3773 -1.0247  1.2219
  491SOL     OW 1471   0.346   1.550   1.477 -0.0545 -0.2362 -0.1367
  491SOL    HW1 1472   0.380   1.643   1.447  2.9316  1.2979  0.7779
  491SOL    HW2 1473   0.423   1.510   1.528  5.5384 -0.0385  2.4951
  492SOL     OW 1474   1.220   1.327   2.015 -0.2092 -0.0686  0.3650
  492SOL    HW1 1475   1.156   1.274   2.077 -1.0012 -3.1650  0.0785
  492SOL    HW2 1476   1.196   1.332   1.914 -0.5049  1.3486 -3.7003
  493SOL     OW 1477   2.483   1.604   0.836 -0.1716  0.0851  0.2157
  493SOL    HW1 1478   2.413   1.626   0.908  0.2605 -0.1787  2.4974
  493SOL    HW2 1479   2.539   1.690   0.813  2.3173 -0.8693  2.6615
  494SOL     OW 1480   0.182   1.951   1.033  0.1184 -0.2443 -0.4081
  494SOL    HW1 1481   0.092   1.962   0.987  2.3499  2.5524 -0.3600
  494SOL    HW2 1482   0.186   1.872   1.089 -1.2219  4.3421 -2.9936
  495SOL     OW 1483   2.306   2.674   0.881  0.3836 -0.1689  0.1991
  495SOL    HW1 1484   2.390   2.722   0.906 -1.1800 -0.3382  0.6631
  495SOL    HW2 1485   2.296   2.590   0.934  2.5951 -1.2867  1.1928
  496SOL     OW 1486   2.448   0.035   1.430 -0.4908  0.6794 -0.0993
  496SOL    HW1 1487   2.508   0.080   1.360 -0.4744  1.6241 -0.5194
  496SOL    HW2 1488   2.362   0.088   1.445 -0.0380  1.2621 -2.5051
  497SOL     OW 1489   2.417   0.743   2.577  0.0470 -0.1491 -0.5486
  497SOL    HW1 1490   2.393   0.693   2.494  1.6543  0.6940  1.3596
  497SOL    HW2 1491   2.420   0.843   2.556 -1.3611 -0.7491 -1.5393
  498SOL     OW 1492   3.044   2.131   1.372 -0.1550 -0.2940  0.5235
  498SOL    HW1 1493   3.102   2.136   1.461  2.6874 -2.1442  2.8422
  498SOL    HW2 1494   2.967   2.061   1.388  0.7010 -0.9214  0.7412
  499SOL     OW 1495   0.948   2.243   2.264 -0.3993 -0.3459  0.7602
  499SOL    HW1 1496   0.865   2.276   2.310  1.1887 -4.0834 -1.9539
  499SOL    HW2 1497   0.957   2.297   2.178  2.9068 -1.9643 -0.2786
  500SOL     OW 1498   1.221   2.125   0.491 -0.3447  0.2858 -0.5816
  500SOL    HW1 1499   1.160   2.208   0.475 -0.6408  3.1997 -0.4711
  500SOL    HW2 1500   1.223   2.075   0.401  1.6803 -1.5813  0.4524
  501SOL     OW 1501   1.660   3.050   1.442  0.1268 -0.3808  0.0490
  501SOL    HW1 1502   1.657   3.067   1.340  0.6326 -0.2579 -4.3543
  501SOL    HW2 1503   1.564   3.042   1.479 -5.1367  0.3217 -1.9824
  502SOL     OW 1504   2.480   0.548   1.527 -0.4662 -0.4168  0.0296
  502SOL    HW1 1505   2.454   0.580   1.621  0.5960 -1.8212 -0.8592
  502SOL    HW2 1506   2.524   0.450   1.528  0.5904 -2.4506  0.6026
  503SOL     OW 1507   2.786   1.230   2.247 -0.0978 -0.2400 -0.8249
  503SOL    HW1 1508   2.814   1.330   2.236 -2.2405 -1.1494 -0.3689
  503SOL    HW2 1509   2.764   1.190   2.155 -1.7237 -0.5209 -2.5130
  504SOL     OW 1510   1.688   1.015   1.395 -0.5848  0.6894  0.3790
  504SOL    HW1 1511   1.733   0.942   1.451  1.0052  1.9947  0.6219
  504SOL    HW2 1512   1.652   0.988   1.305  0.1135  0.4475 -2.4682
  505SOL     OW 1513   0.581   2.991   1.290 -0.7298  0.2822 -0.0678
  505SOL    HW1 1514   0.670   3.014   1.336  1.4043  0.2961  1.3788
  505SOL    HW2 1515   0.535   3.081   1.278 -0.2276 -3.5457 -0.7750
  506SOL     OW 1516   2.977   0.229   0.308  0.0949  0.0285  0.1389
  506SOL    HW1 1517   2.995   0.330   0.305 -0.0864 -1.0927  1.1485
  506SOL    HW2 1518   3.033   0.174   0.241  0.3675  0.8007 -0.1504
  507SOL     OW 1519   2.767   2.578   3.102 -0.5333  0.3355 -0.1867
  507SOL    HW1 1520   2.807   2.569   3.007  0.2962  1.8121  0.1389
  507SOL    HW2 1521   2.831   2.549   0.076 -0.1761  2.9845  1.2015
  508SOL     OW 1522   1.171   0.435   1.916  0.0621 -0.3537 -0.3829
  508SOL    HW1 1523   1.147   0.484   1.831  2.6963 -1.4440  1.1157
  508SOL    HW2 1524   1.221   0.347   1.893  0.6464  0.1963 -0.3546
  509SOL     OW 1525   1.639   1.782   1.245 -0.3139 -0.8390 -0.7214
  509SOL    HW1 1526   1.642   1.822   1.338  0.2307 -1.8295 -1.1767
  509SOL    HW2 1527   1.580   1.839   1.188  1.5321 -2.8513  1.2924
  510SOL     OW 1528   2.555   0.859   1.199  0.0913 -0.0082 -0.3388
  510SOL    HW1 1529   2.531   0.761   1.225 -0.5151  0.3172  1.5864
  510SOL    HW2 1530   2.527   0.920   1.274 -2.0897 -2.2305  0.2413
  511SOL     OW 1531   1.292   1.888   1.328  0.1571  0.0081  0.6933
  511SOL    HW1 1532   1.267   1.983   1.352 -1.1728 -2.1307 -0.0376
  511SOL    HW2 1533   1.272   1.831   1.408 -0.8434  0.1972 -2.2460
  512SOL     OW 1534   2.965   1.499   0.599  0.5381  0.0825  0.1532
  512SOL    HW1 1535   2.899   1.500   0.675 -0.4662  0.7621 -0.2905
  512SOL    HW2 1536   2.929   1.562   0.530 -1.4540 -2.0077  4.6724
  513SOL     OW 1537   0.107   1.507   0.138  0.0326  0.6496  0.5305
  513SOL    HW1 1538   0.145   1.449   0.067 -0.8221 -2.8782  1.5243
  513SOL    HW2 1539   0.016   1.472   0.167 -0.3851 -2.5995  0.2846
  514SOL     OW 1540   2.427   2.143   2.210 -0.7856  0.7718 -0.4645
  514SOL    HW1 1541   2.395   2.049   2.223 -0.7407  3.4409  2.0848
  514SOL    HW2 1542   2.413   2.175   2.116  1.4307  0.9802  1.1821
  515SOL     OW 1543   2.131   1.109   0.670  0.2078 -0.0755  0.1212
  515SOL    HW1 1544   2.150   1.017   0.630  0.4131  0.4372 -0.0065
  515SOL    HW2 1545   2.184   1.177   0.624  0.0554 -0.2548 -0.1994
  516SOL     OW 1546   2.319   2.696   0.192 -0.1065  0.1307  0.3392
  516SOL    HW1 1547   2.283   2.764   0.127  0.1750 -1.4220 -1.6915
  516SOL    HW2 1548   2.392   2.639   0.150 -0.3511  0.9702 -0.5068
  517SOL     OW 1549   0.809   1.376   2.589 -0.4830 -0.1752 -0.2785
  517SOL    HW1 1550   0.895   1.319   2.578 -0.3286 -0.3432  0.3254
  517SOL    HW2 1551   0.827   1.467   2.540  1.5830  2.1151 -0.1036
  518SOL     OW 1552   0.357   0.214   2.111 -0.0752  0.4166 -0.6109
  518SOL    HW1 1553   0.399   0.121   2.117  3.1131  0.4166 -0.0378
  518SOL    HW2 1554   0.257   0.203   2.103 -0.0204  1.6301 -1.0699
  519SOL     OW 1555   0.924   1.170   0.083  0.3351  0.4709  0.4678
  519SOL    HW1 1556   0.909   1.253   0.031 -2.2946 -2.3173  1.6428
  519SOL    HW2 1557   0.921   1.187   0.185  0.1464 -0.8158 -0.7816
  520SOL     OW 1558   2.701   2.492   2.038  0.5586 -0.1734  0.1446
  520SOL    HW1 1559   2.672   2.412   2.091 -0.4282  2.5625 -2.4751
  520SOL    HW2 1560   2.782   2.531   2.087  1.7076 -0.6920  2.7338
  521SOL     OW 1561   0.358   1.969   2.000  0.4890  0.7111 -0.0319
  521SOL    HW1 1562   0.349   1.886   2.059  0.0158  1.9837  0.5103
  521SOL    HW2 1563   0.454   1.989   1.981 -2.5354 -2.0094  1.0391
  522SOL     OW 1564   1.427   2.845   1.817  0.0415 -0.1937  0.0703
  522SOL    HW1 1565   1.335   2.798   1.836  0.5865 -0.6291 -0.6001
  522SOL    HW2 1566   1.428   2.920   1.752  1.8239 -1.1881  3.6985
  523SOL     OW 1567   2.082   2.293   1.523 -0.7720 -0.7960  0.0899
  523SOL    HW1 1568   2.135   2.226   1.468 -0.0711 -1.1827  1.4534
  523SOL    HW2 1569   2.064   2.384   1.476  1.6286 -0.0814 -0.7444
  524SOL     OW 1570   0.706   2.605   0.416 -0.1278 -0.2358  0.7631
  524SOL    HW1 1571   0.704   2.683   0.476  2.4410  0.1831  1.2998
  524SOL    HW2 1572   0.767   2.533   0.455  0.9878  0.3125  1.4808
  525SOL     OW 1573   2.873   0.199   0.614  0.2088  0.3320  0.0671
  525SOL    HW1 1574   2.893   0.184   0.516  2.9108  2.7631  2.4447
  525SOL    HW2 1575   2.842   0.111   0.655  1.5298 -0.7058 -1.5620
  526SOL     OW 1576   1.031   0.045   0.461  0.2970 -0.5558 -0.1883
  526SOL    HW1 1577   0.954   0.008   0.409  2.8032  1.3575 -0.1846
  526SOL    HW2 1578   1.022   0.013   0.558 -0.1680 -0.3373  1.5070
  527SOL     OW 1579   1.919   1.624   0.890  0.0573  0.2855  0.0677
  527SOL    HW1 1580   1.937   1.587   0.981 -3.1936  0.4290  0.5576
  527SOL    HW2 1581   1.819   1.617   0.876  2.1318  2.4308 -0.7750
  528SOL     OW 1582   2.602   2.616   2.518 -0.3882 -0.1858 -0.0668
  528SOL    HW1 1583   2.637   2.544   2.455  0.5093 -0.9411 -1.8646
  528SOL    HW2 1584   2.580   2.703   2.469  4.2302  0.5723  2.1257
  529SOL     OW 1585   1.093   1.574   2.625 -0.1152  0.1636  0.1152
  529SOL    HW1 1586   1.004   1.610   2.599  0.3339 -0.3790 -0.2753
  529SOL    HW2 1587   1.154   1.539   2.549  1.4793  0.7648  1.5499
  530SOL     OW 1588   1.560   1.099   2.902 -0.2321 -0.0869  0.1772
  530SOL    HW1 1589   1.617   1.018   2.908  1.7150 -0.0795  1.5209
  530SOL    HW2 1590   1.578   1.153   2.817  0.3097  1.1131 -0.3702
  531SOL     OW 1591   0.348   0.925   0.401 -0.4804  0.0062 -0.5200
  531SOL    HW1 1592   0.391   0.990   0.464  0.2205 -1.4305 -1.8040
  531SOL    HW2 1593   0.306   0.978   0.326  1.1205  4.7128 -0.9799
  532SOL     OW 1594   1.735   1.325   0.751 -0.1050 -0.3998 -0.2790
  532SOL    HW1 1595   1.759   1.267   0.672  1.1066 -3.5197  3.6168
  532SOL    HW2 1596   1.697   1.415   0.723 -1.6309 -0.4652  1.5503
  533SOL     OW 1597   0.750   0.155   2.416 -0.5598 -0.2757 -0.2149
  533SOL    HW1 1598   0.681   0.097   2.460  1.7338  1.2623 -2.1779
  533SOL    HW2 1599   0.810   0.196   2.488 -2.2801  1.3076 -0.2604
  534SOL     OW 1600   0.667   2.776   2.870  0.1179 -0.4956  0.5444
  534SOL    HW1 1601   0.736   2.711   2.899 -0.3151 -0.2704 -0.6556
  534SOL    HW2 1602   0.699   2.830   2.792 -0.3722  0.8090 -2.1079
  535SOL     OW 1603   0.399   0.234   0.028 -0.1029  0.0263  0.2387
  535SOL    HW1 1604   0.388   0.320   0.078  0.7098 -1.1878 -1.8515
  535SOL    HW2 1605   0.323   0.207   3.074  2.0770  1.0878  0.3018
  536SOL     OW 1606   0.272   0.836   2.277  0.5349 -0.4355 -0.0879
  536SOL    HW1 1607   0.289   0.942   2.289  3.2383  1.7525  2.8897
  536SOL    HW2 1608   0.356   0.780   2.270 -3.2437 -0.7253 -0.7977
  537SOL     OW 1609   1.138   0.291   1.325 -0.4711  0.0611  0.3519
  537SOL    HW1 1610   1.100   0.233   1.252  0.8308  1.4942  0.9632
  537SOL    HW2 1611   1.074   0.371   1.341 -0.8722 -0.1984 -0.3112
  538SOL     OW 1612   0.900   1.839   0.258 -0.0636  0.2706 -0.2793
  538SOL    HW1 1613   0.904   1.941   0.240 -0.5525  1.8766  0.7488
  538SOL    HW2 1614   0.981   1.805   0.309 -0.5689 -0.4757  1.4518
  539SOL     OW 1615   2.567   1.321   1.765 -0.2427  0.1344 -0.9625
  539SOL    HW1 1616   2.656   1.310   1.813 -2.3276  1.3970  0.1350
  539SOL    HW2 1617   2.565   1.406   1.715  0.7239  1.9635  0.0867
  540SOL     OW 1618   2.058   1.668   1.899 -0.2852 -0.1868  0.2004
  540SOL    HW1 1619   1.978   1.689   1.845  0.4570  3.3316  0.4361
  540SOL    HW2 1620   2.055   1.713   1.989 -2.9757 -1.4502 -1.1836
  541SOL     OW 1621   0.739   1.121   1.431  0.0074 -0.3945 -0.1368
  541SOL    HW1 1622   0.815   1.177   1.471 -1.0009  1.4922  0.4588
  541SOL    HW2 1623   0.722   1.139   1.335 -3.0541  0.1283  0.6954
  542SOL     OW 1624   1.630   0.787   2.130 -0.4135  0.4744  0.3365
  542SOL    HW1 1625   1.716   0.832   2.152 -0.7420  1.5661  4.1652
  542SOL    HW2 1626   1.655   0.710   2.063 -0.3061  1.3219  1.4980
  543SOL     OW 1627   1.124   0.559   0.253 -0.2922  0.4032  0.3671
  543SOL    HW1 1628   1.153   0.617   0.173  0.7250  2.2527  0.1308
  543SOL    HW2 1629   1.193   0.490   0.276 -2.3577 -1.6067  0.3434
  544SOL     OW 1630   2.679   1.829   2.130  0.1915 -0.7809  0.1303
  544SOL    HW1 1631   2.597   1.778   2.104  2.4324  1.8909  0.8184
  544SOL    HW2 1632   2.688   1.837   2.233  0.3285  2.9656  3.7664
  545SOL     OW 1633   1.797   2.217   1.672 -0.0125  0.0077 -0.4522
  545SOL    HW1 1634   1.872   2.246   1.616 -0.8132  2.2825 -1.0178
  545SOL    HW2 1635   1.739   2.299   1.691  3.2880  1.3232  1.6085
  546SOL     OW 1636   0.176   0.072   2.963 -0.0089 -0.3097  0.3520
  546SOL    HW1 1637   0.204   0.128   2.878  1.3831  4.2175 -0.1147
  546SOL    HW2 1638   0.130   3.086   2.943 -1.0595 -0.7227  0.4723
  547SOL     OW 1639   2.244   0.944   0.329 -0.4955  0.3817 -0.4367
  547SOL    HW1 1640   2.216   0.868   0.273 -1.1680 -1.5143  1.7495
  547SOL    HW2 1641   2.232   1.041   0.283 -4.3918  1.8008 -1.1407
  548SOL     OW 1642   2.386   1.752   2.511  0.2602  0.0465  0.5280
  548SOL    HW1 1643   2.369   1.690   2.438 -0.5199  2.4042 -0.3259
  548SOL    HW2 1644   2.403   1.711   2.603  1.1792  0.5779 -1.2236
  549SOL     OW 1645   2.161   0.256   0.735 -0.2517  0.5709 -0.3543
  549SOL    HW1 1646   2.124   0.238   0.827  2.6360 -2.5141 -0.8232
  549SOL    HW2 1647   2.231   0.189   0.701 -1.2142  1.2315  0.5222
  550SOL     OW 1648   2.464   2.048   0.844 -0.1293 -0.3580 -0.3493
  550SOL    HW1 1649   2.534   2.065   0.910 -0.8508 -3.7783 -0.7577
  550SOL    HW2 1650   2.467   1.956   0.802  0.4660  0.0504  1.0826
  551SOL     OW 1651   0.880   0.399   1.778  0.5191  0.1043  0.2794
  551SOL    HW1 1652   0.825   0.360   1.701  0.1805 -2.3880  0.8862
  551SOL    HW2 1653   0.899   0.499   1.768  2.6010 -0.4775 -1.1579
  552SOL     OW 1654   0.226   2.450   2.596  0.2013  0.1479 -0.1008
  552SOL    HW1 1655   0.163   2.401   2.533  0.4606  2.8527 -1.8659
  552SOL    HW2 1656   0.322   2.448   2.559 -1.0131 -0.1909 -0.7138
  553SOL     OW 1657   0.803   3.016   0.359  0.3378  0.5039 -0.3743
  553SOL    HW1 1658   0.744   3.074   0.299  0.3351  0.4932  2.0496
  553SOL    HW2 1659   0.755   2.975   0.437  2.0334 -0.4956 -2.0255
  554SOL     OW 1660   2.085   2.339   1.813  0.7535 -0.4807  0.0398
  554SOL    HW1 1661   2.115   2.257   1.871  1.8384 -1.1377  3.0509
  554SOL    HW2 1662   2.071   2.308   1.717  0.0728  0.2276  2.7378
  555SOL     OW 1663   1.266   2.122   2.009 -0.0650 -0.3943 -0.2818
  555SOL    HW1 1664   1.341   2.122   2.074 -0.6751 -1.4665  3.8551
  555SOL    HW2 1665   1.216   2.035   2.033  0.0550 -2.4916  0.2718
  556SOL     OW 1666   1.646   1.508   1.133  0.2547 -0.1947 -0.3733
  556SOL    HW1 1667   1.682   1.598   1.159 -0.7792  0.1877 -2.4218
  556SOL    HW2 1668   1.553   1.521   1.088 -1.0469 -0.0088 -1.0351
  557SOL     OW 1669   1.911   2.424   2.026  0.1278 -0.4238 -0.3431
  557SOL    HW1 1670   1.972   2.395   1.958 -0.5173  1.4273  3.6106
  557SOL    HW2 1671   1.960   2.466   2.106  1.6520 -0.1392 -0.1872
  558SOL     OW 1672   0.338   0.424   1.923  0.3970 -0.1771  0.3676
  558SOL    HW1 1673   0.327   0.362   2.002  0.8577 -0.2716  0.8342
  558SOL    HW2 1674   0.389   0.506   1.963 -1.0327  1.5426  2.5725
  559SOL     OW 1675   2.313   2.923   1.326 -0.3934  0.7414  0.1288
  559SOL    HW1 1676   2.353   3.017   1.355  1.0422  1.7757 -2.2486
  559SOL    HW2 1677   2.213   2.928   1.315 -1.3987 -0.6734 -1.5748
  560SOL     OW 1678   1.024   2.327   0.384 -0.2915 -0.4778 -0.1410
  560SOL    HW1 1679   0.970   2.373   0.457  1.9991 -1.8453 -0.8495
  560SOL    HW2 1680   1.036   2.393   0.310 -0.6915 -3.2476  3.2935
  561SOL     OW 1681   1.049   0.283   0.135 -0.6942  0.0022 -0.1224
  561SOL    HW1 1682   1.101   0.355   0.082  3.0265 -0.1933 -1.6685
  561SOL    HW2 1683   1.042   0.308   0.233  1.2088 -0.4050  0.2229
  562SOL     OW 1684   0.732   0.364   2.709  0.0058  0.3279 -0.9659
  562SOL    HW1 1685   0.829   0.332   2.699  1.6400  1.0117 -0.1393
  562SOL    HW2 1686   0.702   0.424   2.637  0.1893 -1.8434  2.4169
  563SOL     OW 1687   1.672   1.909   2.782  0.4052 -0.4806 -0.3622
  563SOL    HW1 1688   1.759   1.928   2.823 -1.7623 -3.2111 -2.8554
  563SOL    HW2 1689   1.667   1.953   2.691  1.2538 -0.8130 -0.8515
  564SOL     OW 1690   2.706   1.114   0.828 -0.1791  0.2770 -0.1804
  564SOL    HW1 1691   2.668   1.024   0.797  0.6824  2.2269 -1.6873
  564SOL    HW2 1692   2.796   1.103   0.878  1.4861 -2.2412 -1.5168
  565SOL     OW 1693   1.341   0.307   2.626 -0.6982  0.2074  0.5220
  565SOL    HW1 1694   1.333   0.313   2.731 -1.2523 -0.1011  2.6031
  565SOL    HW2 1695   1.333   0.399   2.583  2.3576 -1.0386  0.1505
  566SOL     OW 1696   1.544   0.339   2.180 -0.1034  0.0615  1.3274
  566SOL    HW1 1697   1.500   0.263   2.232 -1.2101 -0.4649  0.7478
  566SOL    HW2 1698   1.556   0.308   2.083 -0.5881 -0.9081  2.9872
  567SOL     OW 1699   2.444   1.485   0.593 -0.7045 -0.0073 -0.2150
  567SOL    HW1 1700   2.454   1.513   0.692  0.8682 -1.9319 -2.4833
  567SOL    HW2 1701   2.529   1.522   0.554 -2.8071  0.3056  1.4641
  568SOL     OW 1702   1.710   1.960   0.552  0.2191  0.1789 -0.3338
  568SOL    HW1 1703   1.773   2.020   0.499 -1.7067 -0.9995  1.8203
  568SOL    HW2 1704   1.629   1.933   0.499  1.4523  0.6792  0.7334
  569SOL     OW 1705   2.057   1.640   2.834 -0.2640  0.5098 -0.2499
  569SOL    HW1 1706   2.040   1.572   2.761 -1.8784 -1.0171  0.1170
  569SOL    HW2 1707   2.063   1.734   2.795 -0.2138 -0.5102 -0.9095
  570SOL     OW 1708   2.992   3.061   1.828 -0.0735 -0.6404  0.0944
  570SOL    HW1 1709   2.919   0.025   1.804 -0.8750 -0.0870  0.8852
  570SOL    HW2 1710   3.071   0.006   1.788 -1.7041 -1.9937  0.1190
  571SOL     OW 1711   0.120   0.261   2.506  0.0734  0.5019 -0.5687
  571SOL    HW1 1712   0.046   0.309   2.463  1.2897 -0.3439 -0.8554
  571SOL    HW2 1713   0.208   0.304   2.485 -3.9915  0.7622 -0.3604
  572SOL     OW 1714   0.852   1.585   0.571  0.3037  0.0024  0.0172
  572SOL    HW1 1715   0.753   1.565   0.551  0.1823  0.5925  0.4498
  572SOL    HW2 1716   0.858   1.673   0.618 -0.7800 -1.5939 -2.5479
  573SOL     OW 1717   0.873   2.612   2.933  0.0089 -0.2372  0.2757
  573SOL    HW1 1718   0.958   2.671   2.947  0.4626 -0.5974  1.3353
  573SOL    HW2 1719   0.854   2.554   3.016 -1.6775 -2.4008  1.2345
  574SOL     OW 1720   0.968   0.224   0.861 -0.3895  0.5100 -0.0162
  574SOL    HW1 1721   0.892   0.194   0.919  3.9911  0.5408 -2.2108
  574SOL    HW2 1722   0.996   0.145   0.800 -0.8697  4.3081 -0.4451
  575SOL     OW 1723   0.017   1.022   1.591 -0.1312 -0.3784 -0.8041
  575SOL    HW1 1724   3.028   0.982   1.566 -0.5408 -1.8277  2.0917
  575SOL    HW2 1725   0.011   1.123   1.619  0.7039  1.1741 -0.6888
  576SOL     OW 1726   1.698   0.378   1.489 -0.0778 -0.3011  0.5009
  576SOL    HW1 1727   1.773   0.319   1.454 -1.4488  0.0632 -0.2959
  576SOL    HW2 1728   1.638   0.380   1.409 -1.0269 -2.2292 -2.1570
  577SOL     OW 1729   0.136   1.173   1.895 -0.2485 -0.1082  0.3921
  577SOL    HW1 1730   0.074   1.102   1.927  3.0017  3.0762 -4.2861
  577SOL    HW2 1731   0.230   1.136   1.912 -1.1942 -1.4771  1.3491
  578SOL     OW 1732   1.778   0.067   2.330  0.1108  0.1504  0.1764
  578SOL    HW1 1733   1.802   0.166   2.342  1.5732 -1.9636 -0.9259
  578SOL    HW2 1734   1.680   0.054   2.354 -1.1725 -0.6394 -2.6059
  579SOL     OW 1735   2.070   2.068   1.924  0.1992  0.6172  0.2944
  579SOL    HW1 1736   2.085   2.055   2.029  0.3524 -1.4685  1.8263
  579SOL    HW2 1737   1.979   2.035   1.888  0.2412 -0.9087 -1.1191
  580SOL     OW 1738   2.152   1.590   2.315  0.4501  0.3162 -0.7301
  580SOL    HW1 1739   2.107   1.665   2.264 -1.3206  3.5728 -0.7785
  580SOL    HW2 1740   2.191   1.520   2.254 -1.4231  0.2970  2.0424
  581SOL     OW 1741   1.300   1.118   3.008  0.1514  0.0344 -0.6448
  581SOL    HW1 1742   1.262   1.020   3.005 -0.1354 -2.6629 -1.5326
  581SOL    HW2 1743   1.394   1.112   2.971 -3.4201  0.6034 -0.3401
  582SOL     OW 1744   0.782   2.205   1.441  0.2670 -0.5419  0.4492
  582SOL    HW1 1745   0.754   2.156   1.527  0.7851  0.1089  2.0662
  582SOL    HW2 1746   0.826   2.139   1.376  0.5965  0.7890  0.3674
  583SOL     OW 1747   1.321   1.240   1.294  0.3420 -0.5790  0.0107
  583SOL    HW1 1748   1.219   1.219   1.291 -3.0650 -1.3518 -1.3361
  583SOL    HW2 1749   1.366   1.202   1.209 -0.2864 -0.5546 -0.4860
  584SOL     OW 1750   1.424   2.441   0.653 -0.0382  0.3705  0.3961
  584SOL    HW1 1751   1.448   2.382   0.574  5.2531 -0.1833  0.8472
  584SOL    HW2 1752   1.322   2.439   0.680 -2.3761  2.9693 -1.6113
  585SOL     OW 1753   2.505   2.566   0.048 -0.3853 -0.7199  0.0271
  585SOL    HW1 1754   2.608   2.557   0.036 -3.4173  0.8184  1.1645
  585SOL    HW2 1755   2.451   2.545   3.065 -2.9855  0.4126  1.1594
  586SOL     OW 1756   2.772   1.906   0.581  0.3429 -0.0269  0.2325
  586SOL    HW1 1757   2.686   1.859   0.543 -1.8614 -1.2929 -1.0700
  586SOL    HW2 1758   2.748   2.001   0.608 -0.3815  3.2398  0.7173
  587SOL     OW 1759   1.211   1.662   3.052  0.7703  0.3672  0.1456
  587SOL    HW1 1760   1.280   1.608   3.001  0.2720 -1.3632  2.6142
  587SOL    HW2 1761   1.168   1.609   0.025  1.0680 -0.3284 -0.7953
  588SOL     OW 1762   0.447   0.309   0.779 -0.2880 -0.2144  0.6509
  588SOL    HW1 1763   0.406   0.216   0.778 -0.1655 -0.5641 -0.5660
  588SOL    HW2 1764   0.419   0.374   0.853 -0.5237 -2.2042 -0.6256
  589SOL     OW 1765   1.224   0.357   0.598  0.2608  0.2498 -0.5355
  589SOL    HW1 1766   1.154   0.340   0.526 -1.8325 -3.1638  2.1166
  589SOL    HW2 1767   1.193   0.407   0.681  0.4296  2.7706  2.1071
  590SOL     OW 1768   2.187   2.305   0.097 -0.3280  0.0671 -0.0053
  590SOL    HW1 1769   2.103   2.325   0.153  0.7060  1.6318  0.7173
  590SOL    HW2 1770   2.195   2.370   0.018 -2.4235 -0.0226 -0.4860
  591SOL     OW 1771   0.094   2.749   2.226  1.0228 -0.4462 -0.3541
  591SOL    HW1 1772   0.136   2.843   2.219 -0.7766  3.4098 -0.7897
  591SOL    HW2 1773   0.102   2.700   2.132 -1.0667 -3.0699  1.5607
  592SOL     OW 1774   0.027   1.536   2.252  0.0891 -0.2368 -0.1925
  592SOL    HW1 1775   0.077   1.453   2.217  1.4345 -0.9049 -1.5745
  592SOL    HW2 1776   0.055   1.613   2.187  0.1278 -1.4566 -3.6669
  593SOL     OW 1777   1.962   1.541   1.150 -0.2922 -0.4609 -0.4817
  593SOL    HW1 1778   2.014   1.587   1.225  1.2721  0.2171  3.2847
  593SOL    HW2 1779   1.892   1.474   1.178 -1.1169  0.0487  2.2811
  594SOL     OW 1780   0.313   1.145   3.049 -0.1331  0.2227  0.3752
  594SOL    HW1 1781   0.400   1.194   3.053 -0.2692 -0.5017 -0.4027
  594SOL    HW2 1782   0.244   1.217   3.039  0.4148  0.6441  2.0054
  595SOL     OW 1783   1.024   1.344   0.902  0.4659  0.3357 -0.2677
  595SOL    HW1 1784   0.977   1.262   0.860 -0.4419 -3.6806 -0.2379
  595SOL    HW2 1785   1.056   1.414   0.835  0.7850  1.9724  1.5812
  596SOL     OW 1786   2.739   1.320   1.261 -0.0272  0.4450  0.5772
  596SOL    HW1 1787   2.706   1.235   1.212 -0.1453 -1.3339  0.3125
  596SOL    HW2 1788   2.817   1.371   1.220 -0.0228  2.4973 -0.6216
  597SOL     OW 1789   0.982   2.351   1.615  0.2972  0.6402 -0.0812
  597SOL    HW1 1790   0.942   2.286   1.548  1.4084 -1.9766 -1.5181
  597SOL    HW2 1791   0.998   2.303   1.707 -2.3366 -0.7316  2.8335
  598SOL     OW 1792   2.210   2.600   1.801 -0.3388 -0.4323  0.0712
  598SOL    HW1 1793   2.152   2.515   1.814 -2.1491 -0.1779  0.7185
  598SOL    HW2 1794   2.213   2.640   1.709 -1.7055  1.4784 -2.4768
  599SOL     OW 1795   0.645   1.121   0.140  0.1512  0.2137  0.0491
  599SOL    HW1 1796   0.741   1.136   0.155 -1.0301  2.3892 -3.3602
  599SOL    HW2 1797   0.607   1.026   0.163  2.0753 -1.4767  0.5454
  600SOL     OW 1798   0.949   1.010   2.946 -0.4692 -0.5058  0.4859
  600SOL    HW1 1799   0.928   1.054   3.033 -2.3659 -1.3333 -1.7467
  600SOL    HW2 1800   1.002   1.068   2.880  0.0715 -0.4789 -1.1828
  601SOL     OW 1801   0.808   0.658   1.628 -0.0016  0.5956  0.1912
  601SOL    HW1 1802   0.829   0.739   1.574  1.0318  0.5032 -1.5085
  601SOL    HW2 1803   0.761   0.684   1.713 -2.3797  1.4000  1.1087
  602SOL     OW 1804   0.420   2.311   0.706 -0.3437 -0.2213  0.1990
  602SOL    HW1 1805   0.416   2.235   0.771 -1.3387  1.7774  1.9644
  602SOL    HW2 1806   0.327   2.351   0.698  0.2613 -0.7918  1.0855
  603SOL     OW 1807   0.943   2.408   2.048  0.3250  0.0504  0.3444
  603SOL    HW1 1808   0.873   2.478   2.029 -0.9522 -1.6596  1.1869
  603SOL    HW2 1809   1.035   2.444   2.025  0.6470  0.0611  2.5011
  604SOL     OW 1810   0.308   2.159   3.024 -0.3530  0.0265  0.3307
  604SOL    HW1 1811   0.361   2.114   2.953  0.7609 -0.0560  1.1032
  604SOL    HW2 1812   0.216   2.115   3.032 -1.9216  0.6366 -0.2601
  605SOL     OW 1813   2.129   1.251   1.779 -0.8919  0.2481 -0.2821
  605SOL    HW1 1814   2.071   1.194   1.719 -0.4641  1.7422 -0.2033
  605SOL    HW2 1815   2.176   1.328   1.730 -0.1767  0.3505 -0.6582
  606SOL     OW 1816   0.708   0.917   2.880 -0.1832  0.6463 -0.4153
  606SOL    HW1 1817   0.650   0.997   2.903  1.8113 -1.5020  0.1370
  606SOL    HW2 1818   0.805   0.940   2.905  0.4994  1.0927 -0.2859
  607SOL     OW 1819   1.083   1.056   1.307 -0.8021  0.4327 -0.0234
  607SOL    HW1 1820   1.161   0.989   1.326 -2.8838  2.0922 -2.2969
  607SOL    HW2 1821   1.039   1.031   1.215 -1.1320  0.4154 -1.6386
  608SOL     OW 1822   2.837   1.782   1.922  0.6624 -0.1611  0.1650
  608SOL    HW1 1823   2.765   1.793   1.997 -1.1624 -0.5420  1.5949
  608SOL    HW2 1824   2.834   1.854   1.851 -0.4676  1.3593  1.7183
  609SOL     OW 1825   2.264   0.059   0.379 -0.2466 -0.2349  0.7290
  609SOL    HW1 1826   2.211   0.088   0.295 -1.3844  0.6586  2.5098
  609SOL    HW2 1827   2.213   3.092   0.430  1.5102  2.2411 -3.1545
  610SOL     OW 1828   2.935   2.670   1.386 -0.4873 -0.5220  0.3441
  610SOL    HW1 1829   2.977   2.758   1.349  2.2947  0.3381 -1.8215
  610SOL    HW2 1830   2.988   2.587   1.355 -3.1434  0.4249 -3.4389
  611SOL     OW 1831   1.641   2.347   0.424  0.2663  0.0340 -0.3437
  611SOL    HW1 1832   1.649   2.327   0.325 -1.2535 -0.9815  1.6782
  611SOL    HW2 1833   1.583   2.276   0.468 -0.9396  0.6384 -1.4871
  612SOL     OW 1834   0.561   3.095   1.747  0.0087  0.1227  0.1541
  612SOL    HW1 1835   0.653   0.017   1.712 -1.5372 -1.0878  0.0310
  612SOL    HW2 1836   0.520   0.077   1.796 -0.8904  3.1050 -0.1691
  613SOL     OW 1837   3.033   1.907   0.569 -0.0352 -0.3417 -0.0913
  613SOL    HW1 1838   3.055   2.004   0.550 -0.0433  0.0756  4.1514
  613SOL    HW2 1839   2.930   1.895   0.567  1.6527 -1.5885  0.2856
  614SOL     OW 1840   1.844   0.475   1.725  0.7121 -0.0789  0.2636
  614SOL    HW1 1841   1.933   0.505   1.691 -1.2163 -2.5476  1.2798
  614SOL    HW2 1842   1.784   0.456   1.641 -0.4804 -1.0896  1.1285
  615SOL     OW 1843   1.391   1.498   1.067 -0.1486 -0.3484 -0.3077
  615SOL    HW1 1844   1.342   1.569   1.122 -0.1161 -1.2794  0.4338
  615SOL    HW2 1845   1.345   1.406   1.067 -0.1135 -1.6759  0.8595
  616SOL     OW 1846   1.752   1.614   0.343  0.2198 -0.2262 -0.3454
  616SOL    HW1 1847   1.753   1.669   0.428  0.2506 -0.3641  0.3329
  616SOL    HW2 1848   1.694   1.652   0.265  0.7206  0.6582  0.4065
  617SOL     OW 1849   1.631   0.669   0.115 -0.3157  0.2243  0.7579
  617SOL    HW1 1850   1.597   0.596   0.177  3.4482 -0.8632  1.0610
  617SOL    HW2 1851   1.725   0.697   0.130 -0.5067  1.8939 -0.9558
  618SOL     OW 1852   0.618   0.679   2.546 -0.1360 -0.7573  0.2439
  618SOL    HW1 1853   0.691   0.634   2.489  0.9205  0.5827 -0.3503
  618SOL    HW2 1854   0.634   0.778   2.568  0.6930 -2.1221  1.3885
  619SOL     OW 1855   2.794   1.682   1.115  0.1730 -0.2240  0.4934
  619SOL    HW1 1856   2.895   1.693   1.106 -1.4430  1.6752  0.6512
  619SOL    HW2 1857   2.755   1.612   1.052  0.9223  0.8082  0.4154
  620SOL     OW 1858   2.070   2.891   2.435  0.1966 -0.2601 -0.6185
  620SOL    HW1 1859   2.038   2.907   2.340  1.2263 -0.1215  1.9184
  620SOL    HW2 1860   2.096   2.983   2.469 -1.8829 -0.9601 -0.7663
  621SOL     OW 1861   2.933   1.677   2.996  0.1271 -0.0512  0.0602
  621SOL    HW1 1862   3.016   1.718   2.960 -3.2262  0.2422  1.3200
  621SOL    HW2 1863   2.930   1.574   3.001 -0.1532  0.5530 -1.1169
  622SOL     OW 1864   1.536   0.161   1.964  0.1990 -0.6521  0.1922
  622SOL    HW1 1865   1.539   0.064   1.964 -0.1448  4.4214 -0.2400
  622SOL    HW2 1866   1.604   0.198   1.891  2.5311 -1.6247 -0.6785
  623SOL     OW 1867   0.718   2.488   1.026  0.2477  0.6737 -0.0184
  623SOL    HW1 1868   0.732   2.439   1.115  0.1969  1.2786 -0.6526
  623SOL    HW2 1869   0.624   2.535   1.030 -2.8195  0.0273 -0.3275
  624SOL     OW 1870   0.055   0.078   0.097  0.8724  0.6333  0.6637
  624SOL    HW1 1871   3.093   3.095   0.094  0.6677 -0.3201  2.1848
  624SOL    HW2 1872   0.110   0.086   0.008  0.2117  0.5687  1.8604
  625SOL     OW 1873   0.865   1.799   0.704 -0.3465  0.0493 -0.3100
  625SOL    HW1 1874   0.933   1.798   0.782  0.3750  0.3688  0.4052
  625SOL    HW2 1875   0.846   1.892   0.663  0.1998  1.8899 -2.7344
  626SOL     OW 1876   2.746   0.303   3.034 -0.4225  0.2672  0.0336
  626SOL    HW1 1877   2.843   0.271   3.006  1.0586 -0.5095  2.4375
  626SOL    HW2 1878   2.699   0.240   3.100  0.3393 -1.4546  1.6444
  627SOL     OW 1879   1.467   1.989   2.931 -0.0486 -0.1883  0.3653
  627SOL    HW1 1880   1.546   1.940   2.882  0.9516 -0.3580 -0.5167
  627SOL    HW2 1881   1.385   2.003   2.870 -1.0554 -1.0172 -1.0786
  628SOL     OW 1882   0.196   2.690   2.999  0.8292 -0.4839 -0.5347
  628SOL    HW1 1883   0.186   2.628   2.917  0.7029 -0.3751 -0.1985
  628SOL    HW2 1884   0.164   2.645   3.083 -0.3370 -0.7208 -1.4621
  629SOL     OW 1885   0.429   2.875   2.592 -0.2813  0.4170 -0.2746
  629SOL    HW1 1886   0.403   2.858   2.689  0.2418 -1.1466 -1.9816
  629SOL    HW2 1887   0.508   2.815   2.563 -0.0771  1.2157  0.7731
  630SOL     OW 1888   1.371   1.083   2.020  0.3206  0.9455 -0.1673
  630SOL    HW1 1889   1.317   1.017   1.962 -2.4338  0.9829  2.4275
  630SOL    HW2 1890   1.328   1.173   2.005 -4.6962  3.0560  0.8379
  631SOL     OW 1891   1.871   1.027   0.130 -0.2148 -0.3799 -0.0059
  631SOL    HW1 1892   1.810   1.083   0.194 -2.7131 -1.2712 -0.4976
  631SOL    HW2 1893   1.933   1.092   0.076  1.0365  0.7392 -1.3748
  632SOL     OW 1894   2.597   0.428   1.966  0.4457  0.0702  0.4352
  632SOL    HW1 1895   2.685   0.479   1.971 -0.4080  0.8160  0.5699
  632SOL    HW2 1896   2.614   0.327   1.974 -0.4560  0.5780 -1.6052
  633SOL     OW 1897   0.781   1.578   0.060  0.2453  0.0462 -0.5657
  633SOL    HW1 1898   0.761   1.670   0.010  0.0752  2.6244  1.1174
  633SOL    HW2 1899   0.772   1.499   3.096 -1.2901 -2.7697 -2.6356
  634SOL     OW 1900   2.344   2.700   2.562 -0.0078  0.3318 -0.1791
  634SOL    HW1 1901   2.326   2.762   2.491 -0.1583 -3.3171  3.3931
  634SOL    HW2 1902   2.428   2.642   2.542  3.5771 -0.7937 -1.2261
  635SOL     OW 1903   2.194   0.634   0.366 -0.5313  0.2574 -0.1094
  635SOL    HW1 1904   2.296   0.625   0.376  0.4543  0.2075 -0.4318
  635SOL    HW2 1905   2.154   0.543   0.339 -1.5316 -1.7260 -1.1445
  636SOL     OW 1906   0.611   1.264   0.574  0.6119 -0.1300 -0.4600
  636SOL    HW1 1907   0.704   1.228   0.555  0.9580 -0.4210 -0.2246
  636SOL    HW2 1908   0.594   1.351   0.522  0.5116  2.3957  0.4349
  637SOL     OW 1909   2.899   2.190   0.091 -0.0159  0.3275  0.2367
  637SOL    HW1 1910   2.829   2.127   0.047 -1.8401  2.7433  1.5594
  637SOL    HW2 1911   2.981   2.138   0.107  0.4791  0.7001 -1.0166
  638SOL     OW 1912   1.329   2.714   2.317 -0.6154 -0.2727  0.2298
  638SOL    HW1 1913   1.274   2.763   2.247 -1.7122  3.8789 -2.4591
  638SOL    HW2 1914   1.350   2.622   2.283 -2.1884 -0.8407 -0.2794
  639SOL     OW 1915   1.211   1.924   0.276 -0.0001 -0.6047 -0.7571
  639SOL    HW1 1916   1.204   1.900   0.179 -2.3530 -2.6022  0.8931
  639SOL    HW2 1917   1.194   1.846   0.338  0.8339  1.5414 -0.4500
  640SOL     OW 1918   1.904   0.025   0.651 -0.0001 -0.3871  0.8184
  640SOL    HW1 1919   1.912   0.126   0.651 -0.8092 -1.9371 -0.0154
  640SOL    HW2 1920   1.978   3.093   0.595  0.5477 -0.9669  2.1626
  641SOL     OW 1921   3.010   3.025   0.491  0.4154  0.1711  0.4019
  641SOL    HW1 1922   2.984   2.959   0.568 -0.5126  0.2547 -0.9647
  641SOL    HW2 1923   2.933   3.061   0.439  1.7784  2.9269 -0.7587
  642SOL     OW 1924   0.680   0.385   1.539  0.1911 -0.0844  0.0179
  642SOL    HW1 1925   0.606   0.441   1.503  1.9793 -3.1371  0.6130
  642SOL    HW2 1926   0.643   0.343   1.622 -0.2497  1.1390 -1.5528
  643SOL     OW 1927   0.587   1.199   2.307 -0.0233  0.2858  0.0685
  643SOL    HW1 1928   0.569   1.222   2.404  0.4526 -0.7353 -0.2570
  643SOL    HW2 1929   0.633   1.279   2.257 -1.9595  1.2162  0.8582
  644SOL     OW 1930   1.109   2.487   0.189  0.0781 -0.1024  0.2321
  644SOL    HW1 1931   1.156   2.573   0.217 -3.1842 -1.4912  0.0361
  644SOL    HW2 1932   1.176   2.415   0.175 -3.7546  2.6753  0.7012
  645SOL     OW 1933   1.673   2.210   0.189  0.4299 -0.2737 -0.1954
  645SOL    HW1 1934   1.729   2.238   0.103  1.3042 -0.6261 -2.2037
  645SOL    HW2 1935   1.631   2.117   0.180  1.4083 -0.1895  0.7797
  646SOL     OW 1936   0.391   1.432   3.094 -0.1092  0.4774 -0.2175
  646SOL    HW1 1937   0.414   1.503   3.025  1.9359  0.3993  0.8532
  646SOL    HW2 1938   0.412   1.464   0.087  1.9739  0.2040  1.4184
  647SOL     OW 1939   0.856   0.086   1.094  0.4831  0.2781 -0.2259
  647SOL    HW1 1940   0.928   0.025   1.138  2.6660  0.2004 -0.0371
  647SOL    HW2 1941   0.790   0.124   1.162 -1.2128  0.2997  2.7589
  648SOL     OW 1942   1.591   0.678   1.194  0.0297  0.0710  0.7496
  648SOL    HW1 1943   1.543   0.708   1.110  0.5521  2.6149  1.0870
  648SOL    HW2 1944   1.681   0.635   1.163  2.7723 -1.0450  2.2133
  649SOL     OW 1945   1.272   1.909   0.018  0.1481  0.9585 -0.4319
  649SOL    HW1 1946   1.348   1.938   3.061 -3.5864  1.1220 -1.7504
  649SOL    HW2 1947   1.235   1.819   3.084  0.0020 -1.9905 -1.2118
  650SOL     OW 1948   2.862   1.488   2.240 -0.6568  0.1269  0.2110
  650SOL    HW1 1949   2.801   1.549   2.298  2.1747 -1.7038 -0.0495
  650SOL    HW2 1950   2.961   1.514   2.246  0.8746  1.8534 -0.2369
  651SOL     OW 1951   1.320   2.539   2.787  0.4443  0.2118 -0.4418
  651SOL    HW1 1952   1.274   2.445   2.791  2.0104 -1.8698  2.1122
  651SOL    HW2 1953   1.256   2.613   2.764  3.4383  1.4622  0.2264
  652SOL     OW 1954   2.708   1.785   3.101 -0.2928 -0.3471 -0.3414
  652SOL    HW1 1955   2.792   1.742   3.062  0.5065  2.4145  2.0974
  652SOL    HW2 1956   2.630   1.729   3.081  3.3198  3.2776  0.1901
  653SOL     OW 1957   0.144   0.132   1.156 -0.0292  0.9192  0.2502
  653SOL    HW1 1958   0.086   0.119   1.072 -0.0745 -1.3245  1.8724
  653SOL    HW2 1959   0.128   0.222   1.197  0.4243  0.3891 -0.4061
  654SOL     OW 1960   2.219   0.433   2.294 -0.0397  0.2134 -0.1445
  654SOL    HW1 1961   2.291   0.370   2.250  0.8384 -4.0392  0.4413
  654SOL    HW2 1962   2.137   0.423   2.245  2.0555 -0.5716  1.9254
  655SOL     OW 1963   0.353   2.948   0.871  0.3763 -0.6117 -0.1676
  655SOL    HW1 1964   0.341   2.896   0.783 -1.8491  0.0057 -1.0355
  655SOL    HW2 1965   0.427   2.909   0.931  1.9361  0.7589 -0.6840
  656SOL     OW 1966   2.962   0.048   2.316 -0.0424  0.4165 -0.1824
  656SOL    HW1 1967   2.986   0.135   2.264  2.3793 -0.4647  2.0474
  656SOL    HW2 1968   3.026   0.040   2.394 -2.1682  0.2746  1.1199
  657SOL     OW 1969   2.611   0.650   2.722 -1.0300  0.1885  0.2684
  657SOL    HW1 1970   2.529   0.676   2.668  1.0920 -0.2671  2.5089
  657SOL    HW2 1971   2.630   0.549   2.727  1.1870 -2.1392 -1.5162
  658SOL     OW 1972   2.199   2.066   0.879  0.0516 -0.4926 -0.8219
  658SOL    HW1 1973   2.298   2.068   0.851 -2.6401 -0.0370 -0.1755
  658SOL    HW2 1974   2.193   2.064   0.984  0.1680 -1.9493  0.5160
  659SOL     OW 1975   1.922   2.724   0.281 -0.5417 -0.4713 -0.0677
  659SOL    HW1 1976   1.855   2.696   0.352  1.3447 -0.7899 -0.5172
  659SOL    HW2 1977   1.914   2.667   0.197 -3.0670 -2.1883  2.5160
  660SOL     OW 1978   1.617   1.240   2.671  0.6529 -0.6560  0.3140
  660SOL    HW1 1979   1.558   1.298   2.617  4.6315 -0.8769  0.3738
  660SOL    HW2 1980   1.698   1.296   2.699 -1.0403  0.4496 -1.1023
  661SOL     OW 1981   2.515   2.575   1.540 -0.0255 -0.5604  0.1815
  661SOL    HW1 1982   2.579   2.553   1.464  1.4901 -0.1721 -0.4592
  661SOL    HW2 1983   2.574   2.589   1.624  2.1611 -1.8108  1.4948
  662SOL     OW 1984   0.759   0.862   0.408  0.0508 -0.3040  0.1773
  662SOL    HW1 1985   0.686   0.840   0.338 -2.2822 -3.3723  0.5915
  662SOL    HW2 1986   0.797   0.779   0.442  0.5295  1.3431  0.2206
  663SOL     OW 1987   1.841   2.296   0.645 -0.3179 -0.1824 -0.8000
  663SOL    HW1 1988   1.811   2.220   0.706  1.2217 -1.0583 -3.1341
  663SOL    HW2 1989   1.769   2.327   0.579  1.9250  2.2100 -2.4587
  664SOL     OW 1990   0.765   1.862   1.450  0.4577  0.1677  0.4336
  664SOL    HW1 1991   0.726   1.864   1.361 -0.1652  2.4486  0.2129
  664SOL    HW2 1992   0.861   1.887   1.449  0.2761  2.3095 -0.8948
  665SOL     OW 1993   1.658   2.286   1.990  0.1377 -0.0679 -0.0806
  665SOL    HW1 1994   1.612   2.317   1.904  1.1578  1.4570  0.5964
  665SOL    HW2 1995   1.725   2.356   2.021  0.0780  1.4425  0.7270
  666SOL     OW 1996   0.235   2.439   0.333 -0.1490  0.0173  0.5635
  666SOL    HW1 1997   0.310   2.497   0.361 -0.9209 -0.7011  1.1326
  666SOL    HW2 1998   0.217   2.456   0.235 -2.7371  0.7846  0.4422
  667SOL     OW 1999   2.504   1.564   1.607  0.1887  0.1795 -0.4360
  667SOL    HW1 2000   2.464   1.620   1.683 -1.9696 -0.8717 -2.4652
  667SOL    HW2 2001   2.554   1.622   1.539 -2.1088  0.7498 -1.8160
  668SOL     OW 2002   0.431   0.560   2.706 -0.3580 -0.3103 -0.2425
  668SOL    HW1 2003   0.501   0.608   2.648 -0.6335 -0.3561  2.3023
  668SOL    HW2 2004   0.467   0.511   2.786 -0.9239  0.6707 -2.0347
  669SOL     OW 2005   2.020   2.276   2.882 -0.7085 -0.0274 -0.4878
  669SOL    HW1 2006   2.040   2.338   2.805  0.2584 -0.0667 -0.4569
  669SOL    HW2 2007   2.058   2.312   2.968 -0.3160 -0.4673 -0.7964
  670SOL     OW 2008   2.537   1.666   2.746  0.5618  0.5698  0.0458
  670SOL    HW1 2009   2.512   1.696   2.839 -2.4171  1.8944  2.0012
  670SOL    HW2 2010   2.635   1.640   2.735 -0.4743 -0.4443 -1.9159
  671SOL     OW 2011   0.317   1.523   1.065 -0.4007  0.4976 -0.4202
  671SOL    HW1 2012   0.287   1.566   0.978  0.8988  1.6618  1.4221
  671SOL    HW2 2013   0.271   1.431   1.075  1.6488 -0.7494  0.1754
  672SOL     OW 2014   2.622   0.775   1.999  0.5155 -0.1399  0.2984
  672SOL    HW1 2015   2.671   0.842   1.944  0.0183 -1.3314 -2.0832
  672SOL    HW2 2016   2.560   0.817   2.072 -0.7578 -0.8787  3.7971
  673SOL     OW 2017   2.423   2.502   1.968  0.3388  0.6604 -0.2174
  673SOL    HW1 2018   2.519   2.523   1.966 -0.3657 -1.1149 -0.5961
  673SOL    HW2 2019   2.363   2.556   1.913 -0.3861 -3.6427  2.1106
  674SOL     OW 2020   1.199   2.467   1.937  0.0642  0.5205 -0.0928
  674SOL    HW1 2021   1.245   2.417   1.862 -0.9008  0.4859  3.3926
  674SOL    HW2 2022   1.251   2.457   2.023 -0.3782 -0.8825 -3.8806
  675SOL     OW 2023   0.506   0.728   0.941 -0.5475  0.1024  0.2335
  675SOL    HW1 2024   0.501   0.788   1.020  0.0661 -1.9791 -1.0692
  675SOL    HW2 2025   0.466   0.771   0.853 -0.9145  0.4095 -1.0736
  676SOL     OW 2026   1.858   1.098   0.622  0.0128 -0.2612  0.3586
  676SOL    HW1 2027   1.843   0.996   0.622  0.0788  1.6873  0.5068
  676SOL    HW2 2028   1.955   1.108   0.652  1.2633 -0.9286 -1.0630
  677SOL     OW 2029   3.068   1.472   2.567  0.1951 -0.0132 -0.0699
  677SOL    HW1 2030   3.102   1.428   2.482 -0.5466  0.6168 -1.3941
  677SOL    HW2 2031   2.988   1.535   2.552 -2.4934 -1.0950  0.6721
  678SOL     OW 2032   2.594   1.862   1.185 -0.7189  0.3650 -0.4124
  678SOL    HW1 2033   2.671   1.804   1.146  1.8730 -1.9439 -1.6491
  678SOL    HW2 2034   2.564   1.816   1.270  0.2126 -3.4314 -0.1757
  679SOL     OW 2035   1.915   2.691   0.643 -0.0807 -0.1616 -0.6095
  679SOL    HW1 2036   2.015   2.692   0.644 -1.6435  0.3062 -0.2607
  679SOL    HW2 2037   1.882   2.643   0.723  1.8230  0.1129  0.9631
  680SOL     OW 2038   0.113   2.381   1.907  0.4276 -0.0576 -0.6464
  680SOL    HW1 2039   0.187   2.314   1.883 -2.0893  0.6811 -0.5446
  680SOL    HW2 2040   0.036   2.360   1.848 -0.7069 -0.7006 -0.1060
  681SOL     OW 2041   2.862   1.411   1.737  0.1597 -0.1154 -0.5219
  681SOL    HW1 2042   2.941   1.345   1.738  1.5675  0.4433  0.4714
  681SOL    HW2 2043   2.857   1.466   1.823 -0.4957 -1.3099  1.2130
  682SOL     OW 2044   0.996   2.154   0.973  0.2714  0.0206  0.6672
  682SOL    HW1 2045   0.914   2.205   0.937  0.7245  1.5805 -0.9689
  682SOL    HW2 2046   1.058   2.144   0.890  1.2611  1.0187 -2.4720
  683SOL     OW 2047   2.071   1.204   1.114 -0.2243 -0.2517  0.6292
  683SOL    HW1 2048   2.048   1.235   1.014  0.4629  0.9088  0.1374
  683SOL    HW2 2049   1.994   1.191   1.178  0.8075 -0.1802  0.7048
  684SOL     OW 2050   0.047   1.792   2.875 -0.5860 -0.2366  0.4755
  684SOL    HW1 2051   0.081   1.698   2.876 -1.9126  2.8129  2.8113
  684SOL    HW2 2052   0.062   1.824   2.777  2.3704 -0.2271 -3.0059
  685SOL     OW 2053   1.574   1.145   0.093 -0.3735 -0.3794 -0.4115
  685SOL    HW1 2054   1.543   1.115   3.101 -1.2707 -1.3634  0.1185
  685SOL    HW2 2055   1.630   1.229   0.089  0.1710  1.7175 -0.8201
  686SOL     OW 2056   0.177   0.851   1.258 -0.4182 -0.2690  0.1048
  686SOL    HW1 2057   0.274   0.862   1.231 -0.3266  0.3111  1.3425
  686SOL    HW2 2058   0.169   0.814   1.354 -0.1196 -1.8526  3.0466
  687SOL     OW 2059   1.055   2.108   2.569  0.2197  0.0201 -0.0482
  687SOL    HW1 2060   1.080   2.039   2.498  1.1865  1.0367  0.4628
  687SOL    HW2 2061   0.968   2.155   2.547  1.0143 -0.5183  0.8274
  688SOL     OW 2062   0.416   1.804   1.737  0.4373 -0.2464  0.0149
  688SOL    HW1 2063   0.325   1.847   1.739 -0.0809  0.3845  0.0976
  688SOL    HW2 2064   0.482   1.847   1.802 -0.0306  0.7950  0.8480
  689SOL     OW 2065   1.625   1.193   1.584 -1.2545 -0.7839  0.0522
  689SOL    HW1 2066   1.526   1.221   1.576 -0.0227  2.1036  1.0923
  689SOL    HW2 2067   1.646   1.117   1.525 -0.3107  2.0630 -0.1553
  690SOL     OW 2068   2.440   0.854   0.927 -0.0373 -0.2274  0.0412
  690SOL    HW1 2069   2.476   0.872   1.024 -0.1350  0.9813  3.2192
  690SOL    HW2 2070   2.360   0.915   0.903  0.8340  0.1634 -1.9761
  691SOL     OW 2071   0.668   2.036   1.631  0.3499  0.4000 -0.0746
  691SOL    HW1 2072   0.687   1.961   1.565 -0.6841  1.3709 -1.5460
  691SOL    HW2 2073   0.654   2.012   1.728 -0.9453  2.3200  0.4131
  692SOL     OW 2074   2.112   0.101   1.272  0.6472  0.3662  0.0296
  692SOL    HW1 2075   2.195   0.106   1.209  2.3771  2.6717 -2.3201
  692SOL    HW2 2076   2.145   0.116   1.366 -1.1292 -1.0119 -0.9845
  693SOL     OW 2077   0.389   1.074   1.984  0.2213 -0.3060  0.1296
  693SOL    HW1 2078   0.436   1.168   1.975  1.6722  1.8805  0.4649
  693SOL    HW2 2079   0.447   1.010   1.933 -0.5725  1.7256  1.0476
  694SOL     OW 2080   1.919   0.223   1.442 -0.7577  0.5763  0.4904
  694SOL    HW1 2081   1.970   0.231   1.530 -1.2360 -1.5711 -1.4515
  694SOL    HW2 2082   1.883   0.130   1.434  2.1843  2.2908 -1.8774
  695SOL     OW 2083   1.222   1.409   1.738  0.0517 -0.1819 -0.2216
  695SOL    HW1 2084   1.150   1.457   1.683 -0.4573  0.1276 -1.1927
  695SOL    HW2 2085   1.284   1.347   1.677  1.5535 -1.6069  0.2488
  696SOL     OW 2086   1.731   2.834   0.028 -0.5215  0.5272 -0.1547
  696SOL    HW1 2087   1.752   2.888   0.110 -3.3663 -0.4401 -0.6820
  696SOL    HW2 2088   1.768   2.740   0.034  0.1553  1.5971  0.7930
  697SOL     OW 2089   0.914   0.615   0.442 -0.1953 -0.1773  0.6403
  697SOL    HW1 2090   0.848   0.539   0.454 -1.5206  2.4026  0.5752
  697SOL    HW2 2091   0.984   0.587   0.375 -1.6060 -2.0573  0.2202
  698SOL     OW 2092   1.507   1.400   2.504 -0.7317  0.2342 -0.1372
  698SOL    HW1 2093   1.561   1.379   2.418 -0.4610 -2.9839 -2.9179
  698SOL    HW2 2094   1.410   1.382   2.488  3.6921  0.7139  2.7332
  699SOL     OW 2095   1.409   1.223   1.025  0.1598 -0.3614 -0.6271
  699SOL    HW1 2096   1.510   1.215   1.039 -2.0647  2.6362  0.6184
  699SOL    HW2 2097   1.384   1.209   0.928 -1.0649 -1.1378  2.0397
  700SOL     OW 2098   1.420   2.950   0.506 -0.0012  0.1787 -0.4135
  700SOL    HW1 2099   1.437   2.868   0.444 -1.3403 -0.2190 -0.3844
  700SOL    HW2 2100   1.507   2.985   0.539 -1.4450 -2.9867  1.1816
  701SOL     OW 2101   2.141   0.065   2.478  0.7955  0.0265  0.0510
  701SOL    HW1 2102   2.222   0.076   2.543  1.8079 -0.8901 -4.0800
  701SOL    HW2 2103   2.066   0.128   2.493 -0.7828 -0.4354 -2.1361
  702SOL     OW 2104   1.024   0.025   0.014 -0.3132 -0.5709 -0.1776
  702SOL    HW1 2105   1.024   0.119   0.058  0.9413  1.6314 -2.6113
  702SOL    HW2 2106   0.963   0.013   3.032 -3.7493 -1.5713  0.1286
  703SOL     OW 2107   2.326   2.837   2.264  0.3623 -0.1578  0.0662
  703SOL    HW1 2108   2.314   2.819   2.164 -0.7278  0.1522 -0.1378
  703SOL    HW2 2109   2.236   2.863   2.306 -0.9797  2.0123  0.1483
  704SOL     OW 2110   0.353   2.383   1.010  0.2360  0.0149  0.1925
  704SOL    HW1 2111   0.366   2.291   0.974  0.1113  1.7071  0.8047
  704SOL    HW2 2112   0.422   2.448   0.970  0.0286  0.3791 -2.6750
  705SOL     OW 2113   2.432   0.328   2.161  0.2769 -0.2193 -0.7337
  705SOL    HW1 2114   2.488   0.390   2.102 -0.8297  2.0880  0.2135
  705SOL    HW2 2115   2.417   0.235   2.119  0.9423 -0.5818  1.4608
  706SOL     OW 2116   1.751   3.013   0.241  0.0210  0.5764  0.6121
  706SOL    HW1 2117   1.769   2.973   0.334  0.1721  1.2472  2.4763
  706SOL    HW2 2118   1.708   0.003   0.249 -0.1480 -2.1787 -3.4611
  707SOL     OW 2119   1.102   1.916   2.077 -0.4866  0.1308 -0.2706
  707SOL    HW1 2120   1.026   1.946   2.142  0.6367  0.2787  0.3657
  707SOL    HW2 2121   1.062   1.868   1.996  3.6763  1.6252 -0.7485
  708SOL     OW 2122   0.120   2.623   1.986 -0.5141 -0.1790  0.1378
  708SOL    HW1 2123   0.117   2.531   1.940  0.8525  3.7946  2.1141
  708SOL    HW2 2124   0.071   2.700   1.941  1.1483  0.7785  0.2549
  709SOL     OW 2125   1.708   0.234   1.780  0.3745  0.0738 -0.0813
  709SOL    HW1 2126   1.766   0.314   1.757 -1.2493 -1.0434 -3.5533
  709SOL    HW2 2127   1.750   0.142   1.757  1.7217 -0.8007 -1.3620
  710SOL     OW 2128   2.211   0.855   2.075  0.8131  0.3390  0.1618
  710SOL    HW1 2129   2.197   0.811   1.981 -2.5771 -1.4767  0.4660
  710SOL    HW2 2130   2.136   0.932   2.090 -1.8187  3.1808 -1.7659
  711SOL     OW 2131   0.898   2.099   0.230 -0.0288 -0.4167  0.3289
  711SOL    HW1 2132   0.968   2.156   0.280  0.8032  0.1377  0.8243
  711SOL    HW2 2133   0.851   2.152   0.156 -0.2518 -2.3423  0.0710
  712SOL     OW 2134   0.618   2.610   2.291  0.1431 -0.0009  0.2519
  712SOL    HW1 2135   0.517   2.615   2.296 -0.8982  0.2851  0.6489
  712SOL    HW2 2136   0.658   2.691   2.242 -0.1496 -0.6737 -2.9209
  713SOL     OW 2137   1.812   1.201   0.378  0.4588 -0.0335  0.4391
  713SOL    HW1 2138   1.888   1.269   0.369  2.4722  2.6464  0.1546
  713SOL    HW2 2139   1.813   1.148   0.465  1.8697 -2.8196  0.2740
  714SOL     OW 2140   0.540   1.692   1.215 -0.1155  0.3068 -0.0891
  714SOL    HW1 2141   0.473   1.624   1.175  1.6464  0.0795 -0.1098
  714SOL    HW2 2142   0.508   1.738   1.305 -1.1730  1.9454  3.5476
  715SOL     OW 2143   1.908   3.085   2.699 -0.0799  0.4582  0.9248
  715SOL    HW1 2144   1.880   0.082   2.693  1.9015 -0.4112  0.2662
  715SOL    HW2 2145   1.845   3.022   2.649 -1.1741  0.3983  0.1763
  716SOL     OW 2146   2.644   0.162   1.980 -0.0994 -1.3763 -0.1459
  716SOL    HW1 2147   2.552   0.153   2.021 -1.2164  1.1659 -0.4369
  716SOL    HW2 2148   2.710   0.095   2.023 -0.4635 -1.7196 -2.1275
  717SOL     OW 2149   0.137   0.953   0.802 -0.7836  0.5248  0.1301
  717SOL    HW1 2150   0.227   0.921   0.759 -0.9404  1.1775 -2.9976
  717SOL    HW2 2151   0.067   0.873   0.797 -2.1174 -0.7361 -1.2001
  718SOL     OW 2152   1.017   1.183   2.612  0.0824  0.2959  0.2075
  718SOL    HW1 2153   0.978   1.091   2.592 -0.7471 -0.2641 -2.4366
  718SOL    HW2 2154   1.029   1.197   2.711  0.6108 -0.3976 -2.8911
  719SOL     OW 2155   2.918   1.404   3.023 -0.3872 -0.0585 -0.3591
  719SOL    HW1 2156   2.948   1.408   0.018  0.5061  0.1197 -0.5728
  719SOL    HW2 2157   2.839   1.340   3.016 -1.0743  1.0922  0.8809
  720SOL     OW 2158   1.294   0.963   1.016  0.0385 -0.2261  0.0556
  720SOL    HW1 2159   1.297   1.064   1.031 -0.3652  1.1003  0.0903
  720SOL    HW2 2160   1.219   0.938   0.954  1.4711  0.3255  1.3599
  721SOL     OW 2161   2.723   0.451   0.363  0.2484 -0.5396 -0.2911
  721SOL    HW1 2162   2.708   0.477   0.265 -0.2566 -0.3600  1.2123
  721SOL    HW2 2163   2.704   0.524   0.437  1.1517 -0.6715 -0.8892
  722SOL     OW 2164   1.831   0.820   2.645 -0.1581  0.5333 -0.6243
  722SOL    HW1 2165   1.904   0.764   2.681 -1.4197  0.4170 -0.7172
  722SOL    HW2 2166   1.744   0.767   2.656 -3.6096  0.2138 -1.3447
  723SOL     OW 2167   0.046   0.786   0.437  0.6182  0.0609 -0.4362
  723SOL    HW1 2168   3.048   0.781   0.422  1.1566  1.7518  1.7641
  723SOL    HW2 2169   0.079   0.691   0.453  0.1425  0.6155 -0.6499
  724SOL     OW 2170   0.724   1.406   2.177  0.4314 -0.4201  0.6482
  724SOL    HW1 2171   0.714   1.375   2.082  0.2233 -2.5884 -1.1869
  724SOL    HW2 2172   0.811   1.457   2.197 -0.2942  1.9418  1.2216
  725SOL     OW 2173   2.099   0.801   1.841 -0.6142 -0.2575  0.3246
  725SOL    HW1 2174   2.169   0.852   1.786  0.6980  1.3854  1.9574
  725SOL    HW2 2175   2.017   0.862   1.857 -1.3843  0.3529 -0.4746
  726SOL     OW 2176   1.809   2.903   0.484 -0.0621  0.2394 -0.0196
  726SOL    HW1 2177   1.862   2.832   0.524 -3.2994 -1.7552 -2.3161
  726SOL    HW2 2178   1.833   2.994   0.531  0.3179  1.5844 -0.1684
  727SOL     OW 2179   1.602   1.349   2.254  0.2973 -0.0433  0.1252
  727SOL    HW1 2180   1.605   1.255   2.210  1.0998  0.2082 -3.9822
  727SOL    HW2 2181   1.527   1.405   2.210 -1.3521 -1.6533 -1.0342
  728SOL     OW 2182   1.401   2.737   1.273  0.1653 -0.0775 -0.4071
  728SOL    HW1 2183   1.335   2.659   1.281  1.1368 -2.1671  1.1087
  728SOL    HW2 2184   1.465   2.747   1.354  1.8291 -0.1559  4.2003
  729SOL     OW 2185   1.939   0.908   1.193 -0.0135  0.3310  0.2289
  729SOL    HW1 2186   1.996   0.972   1.247 -2.2658 -0.4031 -0.1820
  729SOL    HW2 2187   1.934   0.820   1.243  2.7243  1.8647 -2.0336
  730SOL     OW 2188   0.162   1.673   2.470  0.7457 -0.7016  0.0245
  730SOL    HW1 2189   0.081   1.639   2.419  0.8675 -2.0549  0.7284
  730SOL    HW2 2190   0.219   1.715   2.398 -1.5783 -0.0620  1.0753
  731SOL     OW 2191   0.339   0.073   0.719  0.8066 -0.0679  0.4996
  731SOL    HW1 2192   0.361   0.035   0.627 -1.4277  0.7019  2.3208
  731SOL    HW2 2193   0.343   3.099   0.792  4.4186 -1.0888 -0.0595
  732SOL     OW 2194   1.263   0.833   0.216 -0.1989  0.3132 -0.3418
  732SOL    HW1 2195   1.325   0.911   0.242  3.7119 -0.3737  0.9023
  732SOL    HW2 2196   1.170   0.876   0.216  1.5881 -1.8570  0.6502
  733SOL     OW 2197   0.614   2.025   0.830 -0.0994  0.0200 -0.1262
  733SOL    HW1 2198   0.611   1.926   0.867  1.3128 -2.4850  1.0038
  733SOL    HW2 2199   0.634   2.018   0.728  1.1286  0.9977  1.0533
  734SOL     OW 2200   0.082   2.473   2.820  0.2899  0.1947  0.8058
  734SOL    HW1 2201   0.160   2.475   2.755  0.3555 -1.0364 -1.5184
  734SOL    HW2 2202   0.031   2.383   2.821  4.4228 -0.5474  0.0021
  735SOL     OW 2203   1.269   0.874   1.368  0.1845  0.0156  0.3716
  735SOL    HW1 2204   1.244   0.792   1.309 -0.5380 -0.1520  0.5762
  735SOL    HW2 2205   1.350   0.859   1.427  2.1261 -0.5019  3.3441
  736SOL     OW 2206   2.142   2.508   3.021 -0.2600 -0.0514  0.1466
  736SOL    HW1 2207   2.074   2.563   2.971  0.8798 -1.9215 -1.6548
  736SOL    HW2 2208   2.232   2.519   2.975 -0.9612 -0.7670 -1.0296
  737SOL     OW 2209   2.811   3.047   0.717 -0.0670  0.1752  0.2730
  737SOL    HW1 2210   2.847   2.953   0.735 -0.1735  1.0335 -1.5150
  737SOL    HW2 2211   2.760   3.071   0.804 -1.3133 -1.6260  1.2690
  738SOL     OW 2212   2.333   0.133   1.101  0.1411 -0.1806  0.0250
  738SOL    HW1 2213   2.368   0.230   1.103 -1.5192 -0.7511  0.1220
  738SOL    HW2 2214   2.355   0.098   1.012  2.5176 -1.3084  3.5752
  739SOL     OW 2215   1.732   2.614   0.437  0.3938  0.2704  0.4381
  739SOL    HW1 2216   1.709   2.518   0.410 -0.0726  0.7491  2.6463
  739SOL    HW2 2217   1.802   2.622   0.509 -0.2255 -1.2486 -0.6307
  740SOL     OW 2218   1.502   0.303   0.985  0.2030  0.2073 -0.0119
  740SOL    HW1 2219   1.444   0.233   0.948 -0.6919 -0.1142  1.4425
  740SOL    HW2 2220   1.599   0.292   0.954  1.8491 -1.3274  1.3523
  741SOL     OW 2221   2.599   0.870   0.719 -0.2385 -0.2653  0.6928
  741SOL    HW1 2222   2.545   0.852   0.804 -0.0236 -2.2113 -0.6723
  741SOL    HW2 2223   2.533   0.914   0.649 -1.7216  1.4934 -4.6335
  742SOL     OW 2224   0.893   1.972   2.254 -0.0873  0.5307 -0.1541
  742SOL    HW1 2225   0.858   1.959   2.349  1.1864 -1.2493  0.7120
  742SOL    HW2 2226   0.918   2.071   2.249  0.0482 -0.0061  0.4554
  743SOL     OW 2227   1.694   0.821   1.811 -0.2339 -0.0730 -0.2027
  743SOL    HW1 2228   1.756   0.896   1.839 -1.6320 -1.6511  0.4358
  743SOL    HW2 2229   1.723   0.732   1.853  1.2487 -2.4566 -0.7684
  744SOL     OW 2230   2.204   0.630   1.234 -0.0294 -0.0222  0.1102
  744SOL    HW1 2231   2.277   0.614   1.163  1.9902  1.0963  0.8994
  744SOL    HW2 2232   2.237   0.702   1.300  1.5655  2.5359  2.0211
  745SOL     OW 2233   1.822   1.335   1.477  0.3210 -0.0907 -0.7318
  745SOL    HW1 2234   1.741   1.293   1.519  1.0359 -1.4186 -2.9049
  745SOL    HW2 2235   1.846   1.296   1.387  2.5943  0.0569  0.0286
  746SOL     OW 2236   2.185   1.754   0.877 -0.3753 -0.1909 -0.1534
  746SOL    HW1 2237   2.113   1.681   0.874 -1.3529 -1.7546 -0.9708
  746SOL    HW2 2238   2.252   1.731   0.951 -0.6893  0.2263 -1.7747
  747SOL     OW 2239   1.987   1.245   0.847 -0.0306  0.9421 -0.2621
  747SOL    HW1 2240   2.055   1.217   0.776 -1.7118 -2.1256  1.8303
  747SOL    HW2 2241   1.903   1.283   0.806  1.4045 -1.0269  0.6181
  748SOL     OW 2242   0.380   2.136   0.898  0.4677 -0.5505  0.2803
  748SOL    HW1 2243   0.316   2.072   0.949  1.9426  2.8114  1.7121
  748SOL    HW2 2244   0.469   2.083   0.888 -3.2625 -2.3649 -0.0008
  749SOL     OW 2245   2.399   0.094   2.043  0.4903  0.0475 -0.7729
  749SOL    HW1 2246   2.333   0.070   2.118  0.3691  3.9334  1.3273
  749SOL    HW2 2247   2.370   0.039   1.962  0.9723 -1.1941  0.1440
  750SOL     OW 2248   2.376   0.591   0.909 -0.0250  0.0084 -0.1566
  750SOL    HW1 2249   2.325   0.561   0.831  0.6864  1.1150  0.9168
  750SOL    HW2 2250   2.372   0.695   0.918  1.8169  1.0691 -0.7618
  751SOL     OW 2251   2.487   2.976   0.446 -0.1393 -0.1367 -0.1135
  751SOL    HW1 2252   2.550   2.934   0.380 -2.9678  0.3026  1.4398
  751SOL    HW2 2253   2.408   3.026   0.394  2.2753 -0.0661  0.2611
  752SOL     OW 2254   0.348   2.776   0.649  0.6799  0.2602  0.2858
  752SOL    HW1 2255   0.411   2.693   0.652  0.9382 -0.2595 -0.9803
  752SOL    HW2 2256   0.318   2.803   0.554  1.5803  0.9646  2.2761
  753SOL     OW 2257   1.672   0.569   1.958 -0.2160  0.0449  0.7337
  753SOL    HW1 2258   1.575   0.555   1.932  3.4165 -0.8027  0.9692
  753SOL    HW2 2259   1.739   0.526   1.895  1.8294 -0.0355  0.1663
  754SOL     OW 2260   1.605   2.425   1.728  0.0377 -0.1316 -0.1571
  754SOL    HW1 2261   1.684   2.488   1.724 -1.4122  2.5471 -1.9960
  754SOL    HW2 2262   1.529   2.466   1.673  0.7748  0.7795  1.2157
  755SOL     OW 2263   2.744   0.413   0.685  0.3935 -0.3742 -0.2863
  755SOL    HW1 2264   2.710   0.487   0.624  0.6417  1.0713 -1.8224
  755SOL    HW2 2265   2.795   0.339   0.632  2.4076 -1.7736 -2.3106
  756SOL     OW 2266   1.417   1.535   2.933  0.0568  0.4186 -0.4204
  756SOL    HW1 2267   1.371   1.479   2.862  0.4207  1.3254  1.5079
  756SOL    HW2 2268   1.494   1.588   2.892 -0.9291  1.1286 -0.9331
  757SOL     OW 2269   1.167   0.133   1.040 -0.0226 -0.1017 -0.7568
  757SOL    HW1 2270   1.132   0.045   1.079 -2.4076  2.0196 -1.2118
  757SOL    HW2 2271   1.104   0.167   0.966 -0.9422 -1.6853  2.7872
  758SOL     OW 2272   0.742   0.224   1.319  0.1089 -0.3512 -0.2730
  758SOL    HW1 2273   0.731   0.300   1.388 -0.0235  0.5041  0.9152
  758SOL    HW2 2274   0.765   0.135   1.360 -1.3594  3.0039  0.4660
  759SOL     OW 2275   0.404   0.475   0.975 -0.0905 -0.3007  0.5580
  759SOL    HW1 2276   0.469   0.546   0.951 -1.3050  0.7919  0.5475
  759SOL    HW2 2277   0.311   0.514   0.988  0.1156  1.3912 -0.0708
  760SOL     OW 2278   2.303   1.335   1.109  0.0669 -0.0223  0.5022
  760SOL    HW1 2279   2.375   1.275   1.070 -0.4495  1.3130  1.8178
  760SOL    HW2 2280   2.214   1.279   1.121 -4.4053 -1.8635  1.8450
  761SOL     OW 2281   1.575   0.464   0.304  0.3425  0.7366  0.6119
  761SOL    HW1 2282   1.671   0.428   0.313  1.4349  0.2025 -1.0116
  761SOL    HW2 2283   1.544   0.515   0.384 -1.8451 -0.0416 -1.9482
  762SOL     OW 2284   1.978   2.291   1.122  0.8588  0.1979 -0.2419
  762SOL    HW1 2285   1.962   2.336   1.032 -0.5018  1.2773  1.0081
  762SOL    HW2 2286   1.967   2.354   1.197 -0.4528 -0.6670 -1.3784
  763SOL     OW 2287   1.458   1.449   1.852 -0.1624  0.0496  0.1613
  763SOL    HW1 2288   1.455   1.472   1.950  2.0573 -0.3624  2.7894
  763SOL    HW2 2289   1.358   1.436   1.821  0.2973 -0.0313  0.1479
  764SOL     OW 2290   2.719   1.898   2.415  0.2023  0.4938  0.1983
  764SOL    HW1 2291   2.800   1.952   2.439  0.4019  0.2373 -0.8308
  764SOL    HW2 2292   2.636   1.944   2.444  2.1424 -1.4149 -1.0909
  765SOL     OW 2293   0.880   2.696   0.963  0.1017  0.1501  0.0000
  765SOL    HW1 2294   0.810   2.622   0.967  0.3047  1.3649 -1.4491
  765SOL    HW2 2295   0.978   2.663   0.965  1.5938 -2.3731  2.5247
  766SOL     OW 2296   0.463   1.811   2.522  0.1428  0.1658 -0.9225
  766SOL    HW1 2297   0.417   1.733   2.572  1.1671 -3.0757 -2.5183
  766SOL    HW2 2298   0.555   1.823   2.562 -0.3565  1.4629  2.5052
  767SOL     OW 2299   1.981   0.788   2.416  0.3164 -0.2864 -0.0360
  767SOL    HW1 2300   2.061   0.850   2.402  0.7706  2.0111 -0.0075
  767SOL    HW2 2301   1.915   0.828   2.483  0.0240  1.0275  0.6873
  768SOL     OW 2302   1.139   2.707   2.523 -0.0811 -0.7270  0.1729
  768SOL    HW1 2303   1.225   2.714   2.462  0.2254  0.4779 -0.6425
  768SOL    HW2 2304   1.156   2.725   2.623  0.2195 -0.1826 -1.1667
  769SOL     OW 2305   2.964   2.394   0.972 -0.0277 -0.1627 -0.0301
  769SOL    HW1 2306   2.885   2.445   1.010  1.5157 -3.0166  2.4873
  769SOL    HW2 2307   3.053   2.428   1.008 -2.1071  0.5076  0.1159
  770SOL     OW 2308   0.684   2.914   3.090  0.0701 -0.0686  0.2967
  770SOL    HW1 2309   0.672   2.840   0.057 -1.8255  3.8038 -3.7330
  770SOL    HW2 2310   0.678   2.877   2.996  0.7917 -2.0144  2.1897
  771SOL     OW 2311   1.183   2.358   2.341 -0.5919 -0.7921 -0.3482
  771SOL    HW1 2312   1.102   2.303   2.314  0.8433 -3.0974 -1.3745
  771SOL    HW2 2313   1.166   2.439   2.402  0.1014  2.0864 -0.3064
  772SOL     OW 2314   2.163   0.297   1.941  0.1732 -0.1254  0.2727
  772SOL    HW1 2315   2.107   0.345   2.017  0.8091  1.0407  2.7062
  772SOL    HW2 2316   2.144   0.194   1.943  0.9881 -1.4349  0.5324
  773SOL     OW 2317   0.927   3.009   1.929 -0.1322 -0.1091 -0.2265
  773SOL    HW1 2318   0.934   2.906   1.931  0.6936 -1.0594 -0.6173
  773SOL    HW2 2319   0.989   3.048   2.003 -0.8465 -1.2115 -3.3760
  774SOL     OW 2320   1.401   0.906   2.220  0.2678 -0.5800  0.8470
  774SOL    HW1 2321   1.391   0.991   2.158  0.0572 -1.6751  0.3487
  774SOL    HW2 2322   1.479   0.859   2.182 -2.4014  2.4468 -2.1085
  775SOL     OW 2323   2.151   2.864   0.378  0.1558 -0.7105  0.4096
  775SOL    HW1 2324   2.223   2.797   0.346 -0.2211  0.8122  0.4615
  775SOL    HW2 2325   2.059   2.829   0.356  0.4083 -1.5999 -2.1458
  776SOL     OW 2326   2.384   1.154   1.823  0.2747 -0.2906 -0.4507
  776SOL    HW1 2327   2.449   1.233   1.824  3.7101  0.0482  1.1278
  776SOL    HW2 2328   2.290   1.194   1.820  1.6308  0.4041  1.1221
  777SOL     OW 2329   0.043   1.150   2.531  0.3295  0.0969  0.2000
  777SOL    HW1 2330   0.108   1.073   2.539 -0.8925 -0.2205  1.5686
  777SOL    HW2 2331   3.080   1.137   2.453  1.4901 -0.7427 -0.4366
  778SOL     OW 2332   2.456   0.886   2.154  0.5049  0.3006  0.2983
  778SOL    HW1 2333   2.369   0.873   2.105  1.7914 -0.2410 -1.7034
  778SOL    HW2 2334   2.443   0.887   2.253  0.8838  1.0246 -0.7043
  779SOL     OW 2335   2.988   0.203   3.009 -0.1176 -0.1316  0.5000
  779SOL    HW1 2336   3.035   0.164   3.090  0.9684  1.5375  0.8304
  779SOL    HW2 2337   2.950   0.121   2.956 -0.5377 -1.4126  0.9846
  780SOL     OW 2338   2.239   0.008   2.219 -0.1704 -0.5323 -0.3787
  780SOL    HW1 2339   2.233   0.061   2.304 -0.0918 -0.3434  3.7243
  780SOL    HW2 2340   2.156   3.054   2.204  0.0666  1.4221  2.4902
  781SOL     OW 2341   0.193   0.864   1.726 -0.1776 -0.0301 -0.4790
  781SOL    HW1 2342   0.124   0.927   1.679  0.4424  0.5361 -1.4097
  781SOL    HW2 2343   0.164   0.837   1.822  2.2787  1.1588  1.3726
  782SOL     OW 2344   2.236   2.038   0.079  0.2637  0.0585 -0.3969
  782SOL    HW1 2345   2.308   2.010   0.147 -2.0847 -1.5390 -2.0423
  782SOL    HW2 2346   2.213   2.137   0.085 -0.1679 -1.9410 -2.5196
  783SOL     OW 2347   0.416   2.305   1.264  0.4165 -0.2165 -0.3368
  783SOL    HW1 2348   0.359   2.327   1.180  1.7541 -1.0968 -1.8937
  783SOL    HW2 2349   0.486   2.376   1.278 -0.5451 -2.1455  1.5269
  784SOL     OW 2350   2.604   0.590   2.266 -0.9111 -0.1219 -0.0426
  784SOL    HW1 2351   2.521   0.591   2.321  0.6247 -2.3817 -0.4959
  784SOL    HW2 2352   2.600   0.654   2.184 -0.7336  0.0926 -3.3414
  785SOL     OW 2353   0.131   0.368   1.269  0.4426  0.4841 -0.1532
  785SOL    HW1 2354   0.168   0.458   1.259 -0.9892 -4.0064 -0.8217
  785SOL    HW2 2355   0.114   0.341   1.368 -1.5725  0.1837  1.4467
  786SOL     OW 2356   1.479   2.718   0.371  0.2951 -0.2140  0.3646
  786SOL    HW1 2357   1.476   2.668   0.279  3.0988 -1.8865 -4.2381
  786SOL    HW2 2358   1.573   2.704   0.411 -0.2143  0.2708  0.8256
  787SOL     OW 2359   1.411   0.197   0.712  0.8180 -0.0142  0.4389
  787SOL    HW1 2360   1.337   0.266   0.690 -0.2044 -0.6967 -1.9744
  787SOL    HW2 2361   1.365   0.110   0.737  0.2955  1.5488 -1.6858
  788SOL     OW 2362   2.991   1.399   1.121  0.0231 -0.1870  0.0306
  788SOL    HW1 2363   2.970   1.410   1.024 -2.1392 -0.4683 -2.1981
  788SOL    HW2 2364   3.043   1.311   1.127 -0.3386  0.7610  0.6704
  789SOL     OW 2365   2.825   0.583   2.006  0.0072  0.2403  0.3536
  789SOL    HW1 2366   2.759   0.656   2.017  0.2306 -4.4687 -2.9988
  789SOL    HW2 2367   2.906   0.600   2.060 -0.6925 -3.6905 -0.5707
  790SOL     OW 2368   0.821   0.306   3.069 -0.0330 -0.0519  0.3709
  790SOL    HW1 2369   0.826   0.277   2.974  3.3877  0.0489  1.8511
  790SOL    HW2 2370   0.909   0.300   0.009 -2.0189  0.6009 -2.4558
  791SOL     OW 2371   2.689   2.857   0.010 -0.2683 -0.1470  0.2475
  791SOL    HW1 2372   2.638   2.876   3.022  0.1800  0.1490  0.1869
  791SOL    HW2 2373   2.720   2.761   0.007  2.2495 -3.1710 -0.9831
  792SOL     OW 2374   1.430   0.774   1.736  0.0886 -0.1415  0.0624
  792SOL    HW1 2375   1.428   0.783   1.633  0.4888  1.5628 -1.5801
  792SOL    HW2 2376   1.527   0.795   1.765 -1.8266 -0.0899  0.1385
  793SOL     OW 2377   2.781   0.623   1.129 -0.1569  0.4600  0.2245
  793SOL    HW1 2378   2.742   0.560   1.053 -2.5509 -2.3639 -1.6907
  793SOL    HW2 2379   2.811   0.702   1.072  0.8749 -0.4473  0.1176
  794SOL     OW 2380   2.965   0.329   2.230  0.5564  0.2667 -0.3177
  794SOL    HW1 2381   2.868   0.348   2.254 -2.5633  0.6902  1.7384
  794SOL    HW2 2382   2.975   0.311   2.128 -1.8759 -0.6649 -2.3345
  795SOL     OW 2383   0.798   1.854   3.070 -0.1269  0.0779  0.0495
  795SOL    HW1 2384   0.837   1.928   3.009 -1.4689 -1.2105 -1.4385
  795SOL    HW2 2385   0.853   1.835   0.049 -3.1799  0.5247 -0.9239
  796SOL     OW 2386   2.266   0.575   2.738 -0.5311  0.1518  0.5925
  796SOL    HW1 2387   2.312   0.651   2.680  0.2923  1.2876 -2.6677
  796SOL    HW2 2388   2.172   0.605   2.764  0.5111 -1.8398 -1.0412
  797SOL     OW 2389   2.457   1.681   3.036  0.0901  0.5742 -0.2366
  797SOL    HW1 2390   2.414   1.593   3.009  0.1666  0.5536  1.4704
  797SOL    HW2 2391   2.397   1.759   3.003 -2.2879 -0.5007 -2.8745
  798SOL     OW 2392   2.953   0.253   1.275  0.5315  0.0518  0.1071
  798SOL    HW1 2393   2.949   0.271   1.376  2.2115  0.0552  0.5546
  798SOL    HW2 2394   3.026   0.310   1.228  0.1870 -1.6931 -3.9360
  799SOL     OW 2395   0.292   0.419   1.666 -0.4053 -0.8285  0.2319
  799SOL    HW1 2396   0.365   0.368   1.616  1.1403 -1.0662 -1.2706
  799SOL    HW2 2397   0.309   0.441   1.763 -0.8665 -0.7556 -3.1242
  800SOL     OW 2398   0.384   1.789   0.202 -0.1235  0.1382  0.1236
  800SOL    HW1 2399   0.282   1.779   0.226 -1.8551 -1.2826  0.7586
  800SOL    HW2 2400   0.427   1.705   0.236  0.3071  2.9142  1.0506
  801SOL     OW 2401   1.628   1.847   0.933  0.1602 -0.1403  0.4952
  801SOL    HW1 2402   1.551   1.893   0.980  0.2551 -0.7796 -1.2331
  801SOL    HW2 2403   1.716   1.893   0.936 -0.7265 -0.1516  0.5407
  802SOL     OW 2404   1.596   0.906   0.231 -0.3218  0.3779 -0.3930
  802SOL    HW1 2405   1.604   0.833   0.163 -0.9025  2.2000  0.8839
  802SOL    HW2 2406   1.594   1.001   0.185  1.3742  3.6920  0.3841
  803SOL     OW 2407   0.954   1.767   1.914  0.3109  0.1553 -0.2018
  803SOL    HW1 2408   0.868   1.815   1.938  0.7153  1.1712 -0.2808
  803SOL    HW2 2409   0.928   1.680   1.869  1.2669  0.0456 -0.6690
  804SOL     OW 2410   1.577   2.467   1.137  0.1006  0.1102  0.5434
  804SOL    HW1 2411   1.566   2.386   1.198  0.6882 -2.2234  0.0310
  804SOL    HW2 2412   1.613   2.440   1.043 -0.7020 -1.7546  1.2882
  805SOL     OW 2413   0.122   2.269   2.420 -0.0819 -0.4186 -0.0257
  805SOL    HW1 2414   0.093   2.316   2.335  2.4665  0.6899  1.5620
  805SOL    HW2 2415   0.154   2.179   2.407 -1.3602  2.1419 -0.1460
  806SOL     OW 2416   0.992   2.905   0.178  0.3602  0.3153 -0.2367
  806SOL    HW1 2417   1.007   2.992   0.123 -1.8332  3.2893  0.4425
  806SOL    HW2 2418   0.921   2.921   0.252 -0.4576  2.2675  1.3354
  807SOL     OW 2419   2.535   1.039   2.837 -0.0225 -0.4868 -0.3364
  807SOL    HW1 2420   2.511   0.957   2.892  0.3987  1.2119  1.8916
  807SOL    HW2 2421   2.594   1.021   2.754 -1.2828  3.5872  2.4502
  808SOL     OW 2422   1.351   2.191   1.002  0.1118  0.1355 -0.0431
  808SOL    HW1 2423   1.430   2.241   0.968 -1.2706 -0.8979 -1.5809
  808SOL    HW2 2424   1.285   2.174   0.924 -0.7584 -0.0297  0.3541
  809SOL     OW 2425   0.409   3.045   0.497  0.1040  0.6680  0.0919
  809SOL    HW1 2426   0.362   2.957   0.460 -0.8393 -2.9115 -0.6727
  809SOL    HW2 2427   0.424   0.006   0.418  1.6129 -0.0722 -0.8771
  810SOL     OW 2428   1.281   1.605   0.841  0.3149 -0.1035 -0.2821
  810SOL    HW1 2429   1.338   1.552   0.912  3.0319 -2.3177  0.5645
  810SOL    HW2 2430   1.216   1.546   0.784 -1.1746 -0.5840 -0.4589
  811SOL     OW 2431   1.294   2.990   1.340 -0.4775  0.1686  0.2163
  811SOL    HW1 2432   1.329   2.897   1.338 -1.3828  3.5728 -1.4196
  811SOL    HW2 2433   1.351   3.044   1.278  0.1054 -2.4189  1.1322
  812SOL     OW 2434   1.295   0.070   0.341 -0.5336  0.1702  0.5779
  812SOL    HW1 2435   1.356   0.016   0.404  1.1437 -2.0083 -2.3376
  812SOL    HW2 2436   1.204   0.069   0.375  5.7790  0.0298 -2.2155
  813SOL     OW 2437   1.094   0.105   2.052 -0.0991  0.0477  0.5071
  813SOL    HW1 2438   1.068   0.176   2.119  0.2532 -2.5084  0.6480
  813SOL    HW2 2439   1.158   0.036   2.089  1.8691  1.0578 -2.2403
  814SOL     OW 2440   1.051   3.039   1.242  0.1874  0.2481 -0.1429
  814SOL    HW1 2441   0.995   2.964   1.202  0.0371  0.7383 -0.3304
  814SOL    HW2 2442   1.138   2.996   1.277  1.0090 -0.2244 -3.0448
  815SOL     OW 2443   0.154   2.418   0.643 -0.2212  0.1617  0.0574
  815SOL    HW1 2444   0.179   2.415   0.543 -1.5617 -1.2840 -0.8454
  815SOL    HW2 2445   0.126   2.510   0.677 -0.3014 -3.4562 -0.0288
  816SOL     OW 2446   2.412   1.306   2.579 -0.1242  0.0006 -0.4306
  816SOL    HW1 2447   2.418   1.290   2.680  0.2302 -3.8253  0.1001
  816SOL    HW2 2448   2.479   1.246   2.521 -1.6390 -0.1550 -3.8334
  817SOL     OW 2449   1.992   2.486   2.469  0.0544  0.4253 -0.3262
  817SOL    HW1 2450   2.053   2.452   2.543 -1.0119 -1.4320  0.0708
  817SOL    HW2 2451   1.960   2.583   2.494 -1.5107  0.5883  1.2146
  818SOL     OW 2452   1.218   1.314   0.505  0.0637  0.4356 -0.1433
  818SOL    HW1 2453   1.240   1.220   0.529  0.2665  0.7070 -0.0301
  818SOL    HW2 2454   1.301   1.371   0.484 -1.3005 -1.1433  0.6706
  819SOL     OW 2455   1.509   1.937   0.213  0.7716  0.2591 -0.5269
  819SOL    HW1 2456   1.507   1.903   0.310 -1.8891 -2.6342  2.6826
  819SOL    HW2 2457   1.414   1.932   0.177  1.0536  0.0372 -1.7500
  820SOL     OW 2458   0.568   0.881   0.169  0.4965  0.2920 -0.8150
  820SOL    HW1 2459   0.549   0.832   0.082 -2.0058  1.1966  2.8208
  820SOL    HW2 2460   0.517   0.835   0.241  0.9010 -1.0094 -0.8194
  821SOL     OW 2461   0.448   0.113   1.245 -0.0368 -0.6578  0.2813
  821SOL    HW1 2462   0.488   0.203   1.249 -0.9518 -1.9849 -0.2150
  821SOL    HW2 2463   0.346   0.120   1.233  0.5857  0.1464 -0.9795
  822SOL     OW 2464   2.043   2.184   2.424  0.2232  0.3471  0.0463
  822SOL    HW1 2465   1.996   2.270   2.452  0.6912 -0.7229  2.9866
  822SOL    HW2 2466   2.018   2.111   2.492 -1.2288 -0.0395 -0.7591
  823SOL     OW 2467   0.740   0.711   1.908  0.1919 -0.1083 -0.1209
  823SOL    HW1 2468   0.824   0.686   1.956  0.5323 -2.0933 -0.1340
  823SOL    HW2 2469   0.657   0.679   1.955  2.1443  1.3597  2.9677
  824SOL     OW 2470   2.236   0.190   1.486  0.2922 -0.0441 -0.1865
  824SOL    HW1 2471   2.251   0.292   1.468  2.1336  0.5316 -1.5974
  824SOL    HW2 2472   2.177   0.175   1.568 -1.2120 -2.7541  3.9766
  825SOL     OW 2473   0.628   1.173   2.969 -0.3300 -0.1315 -0.4325
  825SOL    HW1 2474   0.647   1.163   3.072 -1.2790  1.5398  0.3906
  825SOL    HW2 2475   0.638   1.267   2.924 -0.4718  3.4723 -2.4378
  826SOL     OW 2476   1.853   0.555   2.497  0.1200  0.0751 -0.3296
  826SOL    HW1 2477   1.904   0.627   2.452 -1.0721 -3.0803 -1.5266
  826SOL    HW2 2478   1.887   0.540   2.593 -0.1865  1.9507  2.4641
  827SOL     OW 2479   0.807   2.190   2.556  0.0594 -0.1517  0.0948
  827SOL    HW1 2480   0.756   2.217   2.471 -1.3148 -1.3795  2.3067
  827SOL    HW2 2481   0.817   2.264   2.627 -1.0556  1.4247  0.7505
  828SOL     OW 2482   2.599   0.206   1.287  0.0541 -0.3335 -0.4085
  828SOL    HW1 2483   2.683   0.163   1.240  0.1527 -0.5417 -0.5389
  828SOL    HW2 2484   2.537   0.247   1.218  1.9466  1.0615 -0.3664
  829SOL     OW 2485   1.236   1.738   1.552 -0.4802 -0.1968  0.0027
  829SOL    HW1 2486   1.327   1.688   1.542  1.7710 -0.3234  0.2312
  829SOL    HW2 2487   1.164   1.668   1.568  0.9077  0.9297 -0.2975
  830SOL     OW 2488   0.834   0.994   1.938 -0.2341  1.0997 -0.5589
  830SOL    HW1 2489   0.806   0.901   1.904  0.8974  0.6808 -0.0872
  830SOL    HW2 2490   0.836   0.998   2.039  1.1592 -0.4490 -2.1883
  831SOL     OW 2491   2.833   1.885   0.255  0.1451 -0.1625 -0.2178
  831SOL    HW1 2492   2.768   1.874   0.180  1.8494 -2.6126  1.1501
  831SOL    HW2 2493   2.919   1.936   0.233 -1.2335 -1.0655 -0.6883
  832SOL     OW 2494   1.097   2.746   0.385  0.0011 -0.0446  0.5165
  832SOL    HW1 2495   1.085   2.798   0.299  0.6275  1.0585 -1.4006
  832SOL    HW2 2496   1.166   2.794   0.448  2.1616 -1.6043  2.4582
  833SOL     OW 2497   2.888   0.275   1.535  0.0449 -0.0312 -0.4972
  833SOL    HW1 2498   2.910   0.221   1.621 -2.4816 -1.4647  1.2600
  833SOL    HW2 2499   2.786   0.286   1.525  0.2956  1.4264 -1.8220
  834SOL     OW 2500   0.253   1.152   0.942 -0.2187 -0.1134  0.2147
  834SOL    HW1 2501   0.238   1.226   0.875  0.9858  1.8675 -1.4913
  834SOL    HW2 2502   0.207   1.069   0.905 -3.0485 -2.0784  2.7802
  835SOL     OW 2503   2.544   2.778   0.954 -0.0190 -0.0432 -0.5030
  835SOL    HW1 2504   2.549   2.831   0.866 -0.6712  1.6233 -1.1339
  835SOL    HW2 2505   2.629   2.720   0.967 -0.1103 -1.3645 -0.8296
  836SOL     OW 2506   1.328   1.789   2.666 -0.6439  0.4080  0.0481
  836SOL    HW1 2507   1.297   1.863   2.734 -2.0358  0.8912  0.2586
  836SOL    HW2 2508   1.270   1.707   2.666  1.3543  2.3697  0.8363
  837SOL     OW 2509   1.662   1.730   0.129 -0.0008  0.4933  0.3858
  837SOL    HW1 2510   1.594   1.801   0.154  1.7222 -0.7664  0.2555
  837SOL    HW2 2511   1.683   1.748   0.030 -2.4864  2.9836 -3.9537
  838SOL     OW 2512   0.162   0.590   2.255  0.6579  0.0026 -0.1749
  838SOL    HW1 2513   0.190   0.529   2.332 -1.7446  1.0545 -0.0673
  838SOL    HW2 2514   0.192   0.689   2.273  0.8652  0.8274  1.6029
  839SOL     OW 2515   0.634   0.945   2.618  0.3282 -0.1602  0.0256
  839SOL    HW1 2516   0.572   1.024   2.630  2.9769 -0.2393  1.3220
  839SOL    HW2 2517   0.657   0.921   2.712 -3.6031  3.8175 -4.1648
  840SOL     OW 2518   1.361   0.673   3.098 -0.0039 -0.0591  0.4940
  840SOL    HW1 2519   1.461   0.654   0.000 -1.3525 -0.2587  2.8178
  840SOL    HW2 2520   1.333   0.729   0.077  2.7885 -1.7886 -1.9974
  841SOL     OW 2521   0.681   2.767   0.623 -0.1243  0.1600 -0.0119
  841SOL    HW1 2522   0.612   2.708   0.668 -0.9623 -0.4340 -2.2676
  841SOL    HW2 2523   0.653   2.866   0.627 -0.8831  1.6683  2.4076
  842SOL     OW 2524   0.342   0.665   0.528 -0.7350  0.1369  0.3342
  842SOL    HW1 2525   0.276   0.607   0.478  1.8186 -1.0607  1.4856
  842SOL    HW2 2526   0.348   0.755   0.476  1.4401  1.7508 -0.4581
  843SOL     OW 2527   0.481   0.935   1.167 -0.5901  0.2179 -0.0321
  843SOL    HW1 2528   0.573   0.929   1.205  0.4868 -2.1103  0.6740
  843SOL    HW2 2529   0.453   1.032   1.165 -3.1184  1.4156 -1.2786
  844SOL     OW 2530   2.128   2.458   2.705 -0.0308 -1.0904 -0.0967
  844SOL    HW1 2531   2.118   2.546   2.757 -1.1998  1.6550  3.2163
  844SOL    HW2 2532   2.222   2.414   2.720  0.8420 -1.8360  0.0603
  845SOL     OW 2533   2.049   0.189   1.686  0.0662 -0.5854 -0.5852
  845SOL    HW1 2534   2.100   0.220   1.772  1.9037  2.2334  1.7126
  845SOL    HW2 2535   1.992   0.109   1.706  1.7746  0.4629 -1.3761
  846SOL     OW 2536   2.460   1.506   2.385 -0.4868  0.1424 -0.1095
  846SOL    HW1 2537   2.410   1.460   2.313  0.4462 -0.5239  0.6977
  846SOL    HW2 2538   2.439   1.443   2.462  0.1253  0.9710 -1.8410
  847SOL     OW 2539   2.123   0.013   1.910 -0.2410  0.3819 -0.0869
  847SOL    HW1 2540   2.073   3.079   1.985  3.3646  2.5542 -2.2582
  847SOL    HW2 2541   2.144   3.036   1.845  1.3976 -2.8725 -0.4881
  848SOL     OW 2542   0.038   2.859   0.272 -0.6967 -0.0212 -0.0883
  848SOL    HW1 2543   3.084   2.897   0.198 -1.1113 -0.0341 -1.1018
  848SOL    HW2 2544   3.090   2.891   0.352  0.1808  1.0452  0.2870
  849SOL     OW 2545   0.235   2.850   1.112  0.0279  0.0090  0.1633
  849SOL    HW1 2546   0.271   2.885   1.201  1.4079 -0.2403  1.0786
  849SOL    HW2 2547   0.270   2.901   1.031 -0.0356  1.0106  0.1431
  850SOL     OW 2548   0.359   1.859   0.655 -0.0435  0.0450 -0.0388
  850SOL    HW1 2549   0.445   1.828   0.710 -0.2016  0.5214  1.1273
  850SOL    HW2 2550   0.373   1.956   0.621 -2.7336  0.7125 -1.6421
  851SOL     OW 2551   2.498   0.738   2.964 -0.5372  0.7143 -0.5229
  851SOL    HW1 2552   2.517   0.705   2.866  0.5612  0.9638 -1.7511
  851SOL    HW2 2553   2.586   0.751   3.018  0.5103 -1.5293  0.3513
  852SOL     OW 2554   1.974   1.972   2.616  0.6382  0.3214  0.7039
  852SOL    HW1 2555   1.925   1.891   2.578  1.9311 -0.3857 -0.9808
  852SOL    HW2 2556   1.938   2.000   2.708 -2.5542  0.7526  1.3482
  853SOL     OW 2557   0.628   1.817   0.362 -0.7872  0.2748 -0.7973
  853SOL    HW1 2558   0.553   1.816   0.288 -3.1520 -1.0103 -0.1707
  853SOL    HW2 2559   0.722   1.819   0.327 -0.6731 -0.3348  0.3712
  854SOL     OW 2560   1.625   1.137   2.074  0.4975 -0.8399  0.6880
  854SOL    HW1 2561   1.534   1.107   2.039 -1.7744 -3.0224 -0.7940
  854SOL    HW2 2562   1.683   1.146   1.991 -0.7749  1.4382 -2.3116
  855SOL     OW 2563   0.738   2.242   0.042  0.5096  0.0676  0.8607
  855SOL    HW1 2564   0.653   2.217   0.096 -1.1178 -1.5829 -0.7351
  855SOL    HW2 2565   0.712   2.224   3.044 -0.6876  1.5892 -1.3952
  856SOL     OW 2566   0.442   3.059   2.120  0.1488  0.1887 -0.6913
  856SOL    HW1 2567   0.484   3.022   2.038 -0.6890 -2.3752  3.6786
  856SOL    HW2 2568   0.518   3.072   2.185 -0.2421  0.2783  3.1956
  857SOL     OW 2569   0.560   0.264   1.842 -0.0413  0.4745  0.1338
  857SOL    HW1 2570   0.631   0.247   1.912  3.2985 -1.5470 -1.9232
  857SOL    HW2 2571   0.484   0.322   1.876 -4.4690  1.2368  1.3517
  858SOL     OW 2572   0.179   1.985   2.214  0.1892 -0.0184  0.0241
  858SOL    HW1 2573   0.245   1.996   2.296  2.6443 -0.8072 -1.3885
  858SOL    HW2 2574   0.230   2.005   2.128 -0.3010 -0.2522 -0.2142
  859SOL     OW 2575   1.809   2.090   1.133  0.1687  0.1372 -0.3464
  859SOL    HW1 2576   1.857   2.177   1.136 -1.9740 -0.4748  0.3643
  859SOL    HW2 2577   1.865   2.016   1.176 -1.0257 -0.0013  1.6557
  860SOL     OW 2578   1.892   0.299   0.624  0.5113 -0.1255  0.5964
  860SOL    HW1 2579   1.979   0.321   0.672 -1.7960 -0.0609 -2.9876
  860SOL    HW2 2580   1.811   0.321   0.683 -0.9890 -1.5793  1.2333
  861SOL     OW 2581   0.173   0.630   1.081  0.2603 -0.2101 -0.3663
  861SOL    HW1 2582   0.175   0.726   1.118  0.4147 -1.3214 -2.7246
  861SOL    HW2 2583   0.078   0.599   1.058 -0.8335 -1.8925  0.8075
  862SOL     OW 2584   2.236   0.822   1.450  0.1386  0.0259  0.5425
  862SOL    HW1 2585   2.279   0.846   1.537  1.1560 -0.0734 -0.0393
  862SOL    HW2 2586   2.171   0.894   1.428 -0.5546 -0.7029  1.2861
  863SOL     OW 2587   0.303   1.326   1.341  0.9404  0.3732 -0.0440
  863SOL    HW1 2588   0.291   1.251   1.403  1.6966  1.2924 -0.3825
  863SOL    HW2 2589   0.328   1.402   1.405  1.5671 -1.2917  1.5761
  864SOL     OW 2590   2.406   3.015   1.774 -0.0502 -0.3575  0.3346
  864SOL    HW1 2591   2.485   2.955   1.787  1.8468  1.0997 -0.7521
  864SOL    HW2 2592   2.441   0.006   1.754 -0.4521 -0.3489  0.4434
  865SOL     OW 2593   1.193   0.485   2.198 -0.3657 -0.1744  0.0799
  865SOL    HW1 2594   1.236   0.455   2.114 -0.3593  1.5820 -0.2849
  865SOL    HW2 2595   1.242   0.559   2.243 -0.0332 -2.3212 -2.2741
  866SOL     OW 2596   2.200   2.609   0.610  0.3159 -0.2142 -0.5339
  866SOL    HW1 2597   2.241   2.603   0.703 -0.3105 -0.5754  2.2131
  866SOL    HW2 2598   2.269   2.653   0.555 -0.0964 -1.5634  1.5133
  867SOL     OW 2599   2.775   2.629   0.809  0.4813 -0.3300  0.2578
  867SOL    HW1 2600   2.720   2.594   0.731 -1.4749  1.5803  1.7568
  867SOL    HW2 2601   2.754   2.579   0.895 -0.4297 -0.1641  2.2346
  868SOL     OW 2602   1.663   1.660   2.863  0.0350  0.3895 -0.7482
  868SOL    HW1 2603   1.746   1.664   2.927  1.9107 -1.0149  0.3964
  868SOL    HW2 2604   1.646   1.746   2.814  2.4019  0.4326 -1.2789
  869SOL     OW 2605   2.730   2.144   0.716  0.1062 -0.3329 -0.0117
  869SOL    HW1 2606   2.754   2.092   0.800  4.1293 -0.2664 -0.3936
  869SOL    HW2 2607   2.642   2.195   0.715 -4.7679  1.8905  1.8230
  870SOL     OW 2608   2.630   2.078   0.391  0.0059 -0.1044 -0.2815
  870SOL    HW1 2609   2.724   2.045   0.390 -2.9807 -0.1700  0.5250
  870SOL    HW2 2610   2.627   2.173   0.410  1.8537 -0.9797 -1.2777
  871SOL     OW 2611   0.444   1.203   1.148 -0.8373 -0.1716  0.0308
  871SOL    HW1 2612   0.382   1.251   1.214 -1.8517  0.4253 -0.2066
  871SOL    HW2 2613   0.396   1.182   1.056 -0.0864  0.7093  1.4206
  872SOL     OW 2614   0.843   1.647   2.495  0.0427 -0.1193 -0.1787
  872SOL    HW1 2615   0.858   1.633   2.395 -1.2500  0.1235  0.5541
  872SOL    HW2 2616   0.827   1.747   2.512 -0.9138 -1.1402 -2.0936
  873SOL     OW 2617   0.304   3.031   1.704 -0.0241  0.1018  0.0236
  873SOL    HW1 2618   0.292   2.932   1.686 -2.9070  0.2822 -2.3522
  873SOL    HW2 2619   0.399   3.060   1.710 -3.6474 -1.1238  0.8294
  874SOL     OW 2620   0.958   0.620   2.050  0.0377 -0.1730 -0.8404
  874SOL    HW1 2621   1.015   0.540   2.022 -0.3095  2.0754  0.3479
  874SOL    HW2 2622   1.022   0.693   2.094  1.6923  2.6984  2.7745
  875SOL     OW 2623   2.780   0.046   1.172  0.4652 -0.3711 -0.2565
  875SOL    HW1 2624   2.853   0.111   1.200 -0.9110 -0.9498 -2.0457
  875SOL    HW2 2625   2.749   3.087   1.249  0.1302  0.1985  0.0690
  876SOL     OW 2626   0.846   1.113   0.541 -0.2789  0.5085  0.8422
  876SOL    HW1 2627   0.804   1.021   0.525 -1.7951 -0.9931 -1.2338
  876SOL    HW2 2628   0.881   1.152   0.450 -0.1236 -1.0671 -3.8010
  877SOL     OW 2629   1.168   1.019   1.622  0.5122  0.4017  0.1414
  877SOL    HW1 2630   1.235   0.958   1.578  2.6500  1.6345  1.3053
  877SOL    HW2 2631   1.135   0.986   1.713 -0.2242  0.5419  2.0749
  878SOL     OW 2632   2.333   2.159   0.452 -0.5543  0.6524  0.3478
  878SOL    HW1 2633   2.362   2.088   0.380  3.5141 -3.1827 -2.8981
  878SOL    HW2 2634   2.359   2.255   0.428 -1.1795  0.5243 -2.0641
  879SOL     OW 2635   2.619   1.884   1.618  0.1749  0.0817  0.0380
  879SOL    HW1 2636   2.628   1.844   1.528  0.0007  1.4351  1.3962
  879SOL    HW2 2637   2.705   1.923   1.646  1.9049  1.4243 -1.3378
  880SOL     OW 2638   1.133   2.616   1.006  0.1325  0.5224 -0.0265
  880SOL    HW1 2639   1.176   2.704   0.987 -0.4762 -0.3449 -1.5448
  880SOL    HW2 2640   1.140   2.593   1.104 -1.3327  1.1826 -3.2900
  881SOL     OW 2641   0.662   2.022   0.565 -0.2032  0.4066 -0.0959
  881SOL    HW1 2642   0.656   1.946   0.494  0.8888  0.3412 -2.1511
  881SOL    HW2 2643   0.664   2.119   0.523 -2.1769  0.5293  0.4633
  882SOL     OW 2644   2.179   0.867   0.567 -0.0228 -0.0886  0.1228
  882SOL    HW1 2645   2.197   0.901   0.469  1.5968  0.1034  1.7924
  882SOL    HW2 2646   2.145   0.769   0.556  0.0281 -2.4266 -0.3012
  883SOL     OW 2647   1.462   0.712   0.939  0.1528 -0.2375 -0.1137
  883SOL    HW1 2648   1.408   0.790   0.978  3.5491  0.0074  1.5092
  883SOL    HW2 2649   1.517   0.756   0.867 -2.2903 -0.7001  0.4996
  884SOL     OW 2650   2.839   2.730   0.424 -0.0497 -0.3072  0.0219
  884SOL    HW1 2651   2.815   2.782   0.341 -0.8974 -2.1684  0.9601
  884SOL    HW2 2652   2.876   2.787   0.501  1.1901 -1.7208 -0.8766
  885SOL     OW 2653   1.261   1.554   2.426  0.1980  0.8195 -0.0763
  885SOL    HW1 2654   1.326   1.529   2.350  0.5141  1.0562 -2.7477
  885SOL    HW2 2655   1.232   1.650   2.415  2.6808 -0.6302 -1.2724
  886SOL     OW 2656   1.373   1.850   2.412  0.2492 -0.1657 -0.0533
  886SOL    HW1 2657   1.358   1.818   2.507 -0.7472  0.2335 -1.8090
  886SOL    HW2 2658   1.376   1.955   2.423  2.2510  2.4732  1.8378
  887SOL     OW 2659   1.169   0.717   1.156  0.0840 -0.0687  0.6207
  887SOL    HW1 2660   1.206   0.642   1.104 -1.4864  2.3524  2.1941
  887SOL    HW2 2661   1.179   0.806   1.110  0.3210  1.0043 -0.2764
  888SOL     OW 2662   2.436   0.643   1.780 -0.5125  0.2083  0.6076
  888SOL    HW1 2663   2.365   0.569   1.802 -2.3659 -0.5770 -0.0651
  888SOL    HW2 2664   2.515   0.637   1.846 -0.3326 -0.1567 -0.7775
  889SOL     OW 2665   0.030   2.181   0.819 -0.4211  0.6426 -0.3031
  889SOL    HW1 2666   0.061   2.184   0.717  0.0600 -0.2696 -2.0491
  889SOL    HW2 2667   0.001   2.276   0.846  0.3755  1.0712  0.1267
  890SOL     OW 2668   1.471   2.181   0.535  0.5159 -0.0808  0.0117
  890SOL    HW1 2669   1.501   2.095   0.570 -0.4450  0.1253  2.0934
  890SOL    HW2 2670   1.368   2.174   0.531 -1.5722  1.0591 -0.7364
  891SOL     OW 2671   2.764   0.752   3.059  0.7050 -0.0034 -0.3843
  891SOL    HW1 2672   2.753   0.845   0.002 -0.9766 -0.7841 -0.0690
  891SOL    HW2 2673   2.818   0.758   2.973  3.2062  2.5141 -0.8109
  892SOL     OW 2674   2.898   2.166   1.112 -0.3653 -0.4050  0.6249
  892SOL    HW1 2675   2.912   2.250   1.058 -1.9186  0.1443  2.0419
  892SOL    HW2 2676   2.960   2.158   1.189 -2.6024 -0.4094  0.5630
  893SOL     OW 2677   1.291   0.516   1.011  0.5230  0.0326 -0.1267
  893SOL    HW1 2678   1.326   0.429   1.040 -1.5906  3.9159 -1.0988
  893SOL    HW2 2679   1.358   0.565   0.955 -1.9379  0.9371  1.3686
  894SOL     OW 2680   3.027   0.467   0.740  0.7155 -0.1384 -0.5041
  894SOL    HW1 2681   0.009   0.415   0.727 -1.7156  0.1984 -0.4098
  894SOL    HW2 2682   2.949   0.426   0.694  1.6374  2.2753  1.0084
  895SOL     OW 2683   2.040   1.502   2.553  0.2382  0.3834 -0.0513
  895SOL    HW1 2684   2.089   1.528   2.464 -0.9258  0.7450  0.9047
  895SOL    HW2 2685   2.067   1.411   2.589  1.3119  1.0731 -0.3149
  896SOL     OW 2686   1.956   0.647   1.381 -0.4758  0.6174 -0.3710
  896SOL    HW1 2687   2.039   0.641   1.320  1.7202  0.9293 -0.2126
  896SOL    HW2 2688   1.888   0.582   1.341 -1.0220 -1.0580 -2.3120
  897SOL     OW 2689   0.058   1.477   1.314 -0.3589 -0.3559  0.2647
  897SOL    HW1 2690   0.127   1.402   1.327 -0.5180 -3.1273 -3.5769
  897SOL    HW2 2691   0.004   1.448   1.233  3.3230 -2.6330  0.9918
  898SOL     OW 2692   2.166   2.713   2.033 -0.2755 -0.0737 -0.0846
  898SOL    HW1 2693   2.187   2.678   1.936  1.5926 -0.9231 -2.0527
  898SOL    HW2 2694   2.160   2.638   2.100  0.0955  0.5216 -0.2275
  899SOL     OW 2695   1.195   1.671   1.175 -0.3987 -0.1606 -1.0643
  899SOL    HW1 2696   1.240   1.747   1.220  0.6606 -2.4896 -0.8312
  899SOL    HW2 2697   1.098   1.689   1.154  1.0619  1.0429 -0.6740
  900SOL     OW 2698   1.414   2.136   2.414  0.3635 -0.3278 -0.3177
  900SOL    HW1 2699   1.454   2.127   2.323  0.8611 -1.8401 -1.0346
  900SOL    HW2 2700   1.342   2.206   2.425  1.2308  1.4848  0.7712
  901SOL     OW 2701   0.887   1.629   2.205 -0.2618 -0.4495  0.1188
  901SOL    HW1 2702   0.803   1.657   2.145 -2.7807  0.0490 -3.2304
  901SOL    HW2 2703   0.977   1.649   2.159  2.5316  3.7672  0.3666
  902SOL     OW 2704   2.130   1.440   0.171 -0.7354 -1.3287 -0.2718
  902SOL    HW1 2705   2.203   1.372   0.192 -3.3623  1.7389  1.9957
  902SOL    HW2 2706   2.069   1.456   0.250 -1.1883  1.0083 -0.9441
  903SOL     OW 2707   1.975   1.685   0.177 -0.0395  0.2395  0.1228
  903SOL    HW1 2708   2.047   1.611   0.177 -0.1312  1.1539  0.4551
  903SOL    HW2 2709   1.899   1.662   0.243  2.8174 -0.5759  0.8175
  904SOL     OW 2710   1.293   1.206   2.577  0.3038  0.2787  0.1208
  904SOL    HW1 2711   1.336   1.133   2.519  1.4954 -0.3484  0.1181
  904SOL    HW2 2712   1.194   1.181   2.598 -2.2967  1.6907 -2.5237
  905SOL     OW 2713   2.641   0.020   0.923  0.1741 -0.1851  0.5696
  905SOL    HW1 2714   2.695   0.026   1.011  1.3997  0.3676 -0.9107
  905SOL    HW2 2715   2.550   3.079   0.947  0.6011  0.6653  2.2210
  906SOL     OW 2716   3.088   1.976   0.188  0.7350  0.2263  0.0537
  906SOL    HW1 2717   0.016   2.037   0.265  0.2564  1.2823  1.7715
  906SOL    HW2 2718   0.015   1.881   0.215 -0.0362 -2.0202 -0.6293
  907SOL     OW 2719   1.558   0.106   0.079  0.0518 -0.0007  0.9069
  907SOL    HW1 2720   1.471   0.054   0.078  0.9758 -1.4737 -0.5633
  907SOL    HW2 2721   1.571   0.155   0.165  1.1887 -0.7436 -1.7708
  908SOL     OW 2722   1.655   2.735   1.707  0.0555  0.1752 -0.1934
  908SOL    HW1 2723   1.719   2.670   1.755  0.6377  1.1466 -0.3089
  908SOL    HW2 2724   1.578   2.760   1.763 -0.0919  1.2493 -2.7278
  909SOL     OW 2725   2.681   0.769   1.552  0.0103 -0.1262  0.6352
  909SOL    HW1 2726   2.618   0.687   1.562 -1.8942 -1.8868  0.4461
  909SOL    HW2 2727   2.753   0.762   1.627  2.0496 -0.1591 -1.9889
  910SOL     OW 2728   1.055   0.053   2.410  0.2279  0.2751  0.3349
  910SOL    HW1 2729   1.154   0.029   2.394  1.3269  1.5104  1.8857
  910SOL    HW2 2730   1.000   3.078   2.452 -2.2167  1.2199 -0.5889
  911SOL     OW 2731   2.598   1.175   2.444 -0.4177 -0.5465  0.4436
  911SOL    HW1 2732   2.649   1.104   2.501 -0.3512 -1.4153  2.0749
  911SOL    HW2 2733   2.658   1.192   2.359 -0.0029 -1.3585  0.4525
  912SOL     OW 2734   2.572   2.232   1.700 -0.2013  0.1026  0.2383
  912SOL    HW1 2735   2.623   2.303   1.640  1.2146 -1.1387 -2.1179
  912SOL    HW2 2736   2.499   2.189   1.648  1.1572 -1.6390  4.4443
  913SOL     OW 2737   2.724   2.365   1.522  0.2233 -0.8884  0.1018
  913SOL    HW1 2738   2.787   2.429   1.575 -0.8245  0.3456 -0.7363
  913SOL    HW2 2739   2.701   2.387   1.424  2.2598  0.9419  2.3275
  914SOL     OW 2740   2.239   2.121   1.363 -0.2980  0.3464  0.1723
  914SOL    HW1 2741   2.259   2.038   1.415 -1.4954  2.1889 -2.4402
  914SOL    HW2 2742   2.205   2.102   1.267 -0.4920 -0.4332  1.4548
  915SOL     OW 2743   1.152   2.562   1.551  0.7113  0.3132  0.4452
  915SOL    HW1 2744   1.094   2.482   1.571 -1.4292  2.0376 -0.6618
  915SOL    HW2 2745   1.250   2.547   1.554 -0.9069  0.7030 -2.6686
  916SOL     OW 2746   2.723   2.512   1.054  0.6039 -0.1872  0.7070
  916SOL    HW1 2747   2.706   2.511   1.151 -1.4276 -1.7456 -0.5484
  916SOL    HW2 2748   2.654   2.460   1.001  0.4902  1.1649 -0.9969
  917SOL     OW 2749   2.965   0.995   2.930 -1.0079 -0.8556 -0.5983
  917SOL    HW1 2750   2.951   0.919   2.864 -0.3789  0.3146  0.4242
  917SOL    HW2 2751   2.964   1.083   2.883 -0.2700 -1.4144  1.3292
  918SOL     OW 2752   1.885   1.715   2.608  0.2581 -0.2175 -0.3658
  918SOL    HW1 2753   1.951   1.652   2.566  1.2810  2.4305  1.4973
  918SOL    HW2 2754   1.791   1.711   2.571  0.6111  2.1681 -0.2102
  919SOL     OW 2755   1.467   2.247   1.462 -0.5230  0.6270  0.2613
  919SOL    HW1 2756   1.515   2.204   1.542 -4.0701  0.1656 -0.9427
  919SOL    HW2 2757   1.510   2.225   1.372 -1.0205  0.4168 -2.5803
  920SOL     OW 2758   0.572   0.068   2.998 -0.0114  0.2011  0.1132
  920SOL    HW1 2759   0.594   3.076   3.029  0.6029  0.2770 -1.9476
  920SOL    HW2 2760   0.506   0.109   3.068  1.1897  0.0098  1.2992
  921SOL     OW 2761   2.575   3.015   2.649  0.1407  0.1076  0.0591
  921SOL    HW1 2762   2.566   2.973   2.557  1.0215 -1.3135 -4.4542
  921SOL    HW2 2763   2.655   3.086   2.638  2.0788  3.1347  0.7653
  922SOL     OW 2764   2.385   1.878   1.496 -0.4900  0.2791  0.0934
  922SOL    HW1 2765   2.463   1.910   1.555 -0.2840  1.2959 -1.4574
  922SOL    HW2 2766   2.304   1.848   1.558 -1.4869 -1.5232 -0.4767
  923SOL     OW 2767   0.889   2.066   2.920 -0.5145 -0.3851 -0.0814
  923SOL    HW1 2768   0.822   2.122   2.865  1.8817 -0.1044 -1.6723
  923SOL    HW2 2769   0.951   2.127   2.974 -1.6182 -1.7950 -0.5771
  924SOL     OW 2770   1.628   0.644   2.698  0.3670  0.1906  0.4525
  924SOL    HW1 2771   1.637   0.587   2.783  0.6307  1.8070 -1.5449
  924SOL    HW2 2772   1.630   0.586   2.613 -0.0546 -0.1950 -2.1695
  925SOL     OW 2773   2.886   0.723   0.340  0.1181 -0.0950 -0.1971
  925SOL    HW1 2774   2.827   0.769   0.273  0.4677 -0.5862  0.5338
  925SOL    HW2 2775   2.836   0.699   0.425  0.6274  0.5764 -1.7923
  926SOL     OW 2776   0.147   0.256   0.870 -0.7832 -0.2136  0.1425
  926SOL    HW1 2777   0.232   0.225   0.825  2.3699  0.5437 -1.8932
  926SOL    HW2 2778   0.162   0.307   0.959  0.6341 -0.1015 -0.8755
  927SOL     OW 2779   1.089   1.490   0.664 -0.1600  0.1298 -0.1577
  927SOL    HW1 2780   1.120   1.418   0.598  0.4990 -2.6436  2.6140
  927SOL    HW2 2781   0.994   1.521   0.636 -0.4103  0.2273  0.4056
  928SOL     OW 2782   3.063   3.081   2.569 -0.0532  0.1191 -0.0752
  928SOL    HW1 2783   0.017   3.007   2.535  1.4283  3.6248  0.9120
  928SOL    HW2 2784   0.018   0.047   2.620 -1.8367 -1.1621  3.3761
  929SOL     OW 2785   2.255   0.441   1.413  0.3946  0.0338  0.8241
  929SOL    HW1 2786   2.201   0.494   1.345 -1.4465 -0.2475  1.9243
  929SOL    HW2 2787   2.283   0.504   1.486  0.6487 -1.0190 -2.8209
  930SOL     OW 2788   1.590   2.197   1.226  0.4645  0.5510  0.4429
  930SOL    HW1 2789   1.680   2.152   1.197  1.1134 -3.1228  1.6642
  930SOL    HW2 2790   1.517   2.149   1.176  0.3111 -3.7477 -1.1427
  931SOL     OW 2791   1.708   0.806   0.846 -0.7375  0.3709  0.7479
  931SOL    HW1 2792   1.731   0.811   0.745  1.3559 -0.0803 -2.0273
  931SOL    HW2 2793   1.748   0.893   0.889  0.3160  2.2956  1.2672
  932SOL     OW 2794   3.017   0.958   1.215 -0.1935 -0.1710 -0.1228
  932SOL    HW1 2795   2.956   0.962   1.295 -0.8042  0.8310  1.1898
  932SOL    HW2 2796   0.001   0.905   1.233  1.3730  0.0411 -2.6099
  933SOL     OW 2797   2.490   1.770   1.824  0.3332  0.1409 -0.2540
  933SOL    HW1 2798   2.567   1.804   1.764  0.8778 -0.1871 -1.5013
  933SOL    HW2 2799   2.423   1.847   1.841  0.2063  1.1536  1.9162
  934SOL     OW 2800   1.674   0.033   1.183  0.0321 -0.2312 -0.3778
  934SOL    HW1 2801   1.580   0.069   1.180  0.9773 -0.2076 -0.0978
  934SOL    HW2 2802   1.710   0.022   1.088  1.4292 -0.1080 -2.4008
  935SOL     OW 2803   0.034   1.167   1.107  0.0090 -0.1465  0.9051
  935SOL    HW1 2804   3.087   1.091   1.149 -0.3163 -0.5451 -1.2665
  935SOL    HW2 2805   0.127   1.136   1.084 -5.9559 -0.1741 -0.1888
  936SOL     OW 2806   2.850   0.819   0.957  0.1288  0.0198 -0.5395
  936SOL    HW1 2807   2.902   0.905   0.959  0.2786  1.8762  1.8053
  936SOL    HW2 2808   2.773   0.826   0.884 -1.7647 -1.0690 -3.7131
  937SOL     OW 2809   1.310   3.051   0.764 -0.1250  0.1650  0.3482
  937SOL    HW1 2810   1.319   3.017   0.670 -0.0212  0.6522  0.9229
  937SOL    HW2 2811   1.392   3.020   0.814  3.8881 -1.2534  1.0332
  938SOL     OW 2812   2.924   2.380   0.697  0.2075 -0.6724  0.1226
  938SOL    HW1 2813   2.857   2.299   0.706 -2.1318 -2.5076 -0.0245
  938SOL    HW2 2814   2.907   2.445   0.772 -0.9409 -3.7793 -3.4812
  939SOL     OW 2815   0.748   1.888   2.606 -0.1817  0.2404 -0.1545
  939SOL    HW1 2816   0.768   1.989   2.611  1.7731 -0.7701  1.5564
  939SOL    HW2 2817   0.720   1.847   2.696 -0.9088  0.1540  3.4454
  940SOL     OW 2818   2.725   2.700   2.739  0.4590  0.1768  0.1463
  940SOL    HW1 2819   2.686   2.660   2.651 -1.4941 -0.9107 -3.8919
  940SOL    HW2 2820   2.650   2.769   2.762  0.0575 -0.1535  0.2200
  941SOL     OW 2821   1.113   2.743   3.035  0.2332 -0.4312  0.3384
  941SOL    HW1 2822   1.063   2.778   0.010  2.6359 -1.6130 -1.8874
  941SOL    HW2 2823   1.200   2.700   3.060  2.1473  0.3602  0.3963
  942SOL     OW 2824   1.652   1.846   1.525  0.1032  0.1700 -0.1466
  942SOL    HW1 2825   1.597   1.763   1.535  3.1352 -1.6563  0.3215
  942SOL    HW2 2826   1.628   1.919   1.586  0.7229 -1.1779 -0.1031
  943SOL     OW 2827   2.282   1.394   1.598 -0.1924  0.2427 -0.5257
  943SOL    HW1 2828   2.255   1.323   1.531 -1.1185 -1.8215 -1.8773
  943SOL    HW2 2829   2.369   1.447   1.574  1.5438  0.5153 -1.6103
  944SOL     OW 2830   1.900   0.981   1.866 -0.4154  0.9536  0.3855
  944SOL    HW1 2831   1.908   1.038   1.779 -3.6663 -1.3821 -2.9047
  944SOL    HW2 2832   1.890   1.035   1.952 -1.9630 -0.9543  0.2842
  945SOL     OW 2833   2.706   2.918   1.344  0.0181 -0.0848  0.2105
  945SOL    HW1 2834   2.626   2.871   1.296  0.0954 -0.7550 -0.7780
  945SOL    HW2 2835   2.801   2.879   1.325  3.3221 -3.0710  0.5502
  946SOL     OW 2836   0.803   1.223   1.779  0.1658  0.2422 -0.5680
  946SOL    HW1 2837   0.871   1.228   1.704 -0.2022 -0.3545  0.1721
  946SOL    HW2 2838   0.816   1.135   1.835  0.3046 -3.7778  2.6160
  947SOL     OW 2839   0.493   2.573   0.727 -0.9423 -0.1436 -0.1290
  947SOL    HW1 2840   0.506   2.603   0.825  0.6169  3.5714  0.8948
  947SOL    HW2 2841   0.470   2.471   0.719  0.3791 -1.0807 -2.3480
  948SOL     OW 2842   3.099   1.291   1.708 -0.3745 -0.6157  0.0771
  948SOL    HW1 2843   0.048   1.251   1.788  2.5057  3.5429  0.6655
  948SOL    HW2 2844   0.042   1.383   1.679  0.7666  0.0422 -3.3361
  949SOL     OW 2845   0.492   0.677   2.289 -0.7580  0.0878 -0.5142
  949SOL    HW1 2846   0.539   0.701   2.378  0.7144 -2.0060  0.0560
  949SOL    HW2 2847   0.486   0.574   2.288  1.0530 -1.8859 -0.7214
  950SOL     OW 2848   0.783   0.654   0.937  0.0099  0.3907  0.4580
  950SOL    HW1 2849   0.692   0.701   0.921 -0.4062 -1.0697  1.1910
  950SOL    HW2 2850   0.841   0.659   0.852  0.0836  0.5676 -1.1301
  951SOL     OW 2851   1.245   1.669   1.884 -0.0130 -0.2774 -0.1207
  951SOL    HW1 2852   1.245   1.670   1.986  0.5530 -1.9840  0.9648
  951SOL    HW2 2853   1.156   1.655   1.842 -0.8771 -0.2809 -2.1853
  952SOL     OW 2854   0.923   1.395   3.027  0.5720 -0.1430 -0.0313
  952SOL    HW1 2855   0.980   1.446   3.095  1.1216  1.3179 -0.5193
  952SOL    HW2 2856   0.983   1.340   2.964 -0.1088 -1.5715  0.0061
  953SOL     OW 2857   1.150   2.831   2.159  0.1193 -0.4308 -0.4156
  953SOL    HW1 2858   1.084   2.771   2.206  0.7368  1.4263 -0.8655
  953SOL    HW2 2859   1.148   2.811   2.065 -1.4767  2.0291  5.2927
  954SOL     OW 2860   2.336   1.258   0.515 -0.0483  0.0633 -0.1797
  954SOL    HW1 2861   2.359   1.250   0.416 -0.5186 -1.1676 -2.5139
  954SOL    HW2 2862   2.377   1.340   0.562  1.8783  0.0302  0.9305
  955SOL     OW 2863   0.176   2.141   2.682 -0.1662 -0.7843  0.2678
  955SOL    HW1 2864   0.144   2.199   2.606 -1.4711  1.6940 -1.0329
  955SOL    HW2 2865   0.114   2.153   2.762 -1.2752 -2.0452 -1.8191
  956SOL     OW 2866   1.058   1.445   1.325 -0.0775  0.1660 -0.2653
  956SOL    HW1 2867   1.141   1.493   1.290  2.2177  1.8315  2.1198
  956SOL    HW2 2868   0.986   1.428   1.256  1.2233 -1.1558  1.4042
  957SOL     OW 2869   2.103   1.233   2.598 -0.3291  0.3825 -0.2611
  957SOL    HW1 2870   2.044   1.215   2.673  2.7320  2.9607  0.9684
  957SOL    HW2 2871   2.203   1.235   2.623 -0.2293  0.0715  3.6680
  958SOL     OW 2872   1.466   2.694   1.024 -0.1730 -0.2704  0.3772
  958SOL    HW1 2873   1.514   2.603   1.012  0.9263 -0.4560  2.0760
  958SOL    HW2 2874   1.449   2.703   1.127  1.2127 -0.4022  2.9477
  959SOL     OW 2875   1.802   1.717   2.248 -0.5312  0.4617 -0.1724
  959SOL    HW1 2876   1.823   1.628   2.205  0.9935  1.0718  0.6360
  959SOL    HW2 2877   1.733   1.704   2.319  1.5661  0.0838  0.1470
  960SOL     OW 2878   0.044   0.598   2.745 -0.2344 -0.4302 -0.4341
  960SOL    HW1 2879   0.113   0.675   2.748  0.6034  1.4220 -0.6333
  960SOL    HW2 2880   0.073   0.521   2.805 -1.7196  0.1004 -0.6776
  961SOL     OW 2881   0.456   0.656   1.996 -0.3878 -0.4010 -0.0771
  961SOL    HW1 2882   0.448   0.699   2.088  0.2766  2.1323 -0.5741
  961SOL    HW2 2883   0.455   0.725   1.919  2.1497 -1.2155  0.5936
  962SOL     OW 2884   1.285   1.609   0.321  0.4086  0.4327 -0.3220
  962SOL    HW1 2885   1.277   1.576   0.226  0.3027  1.2666  0.0066
  962SOL    HW2 2886   1.352   1.556   0.373  0.2600 -1.5648 -0.6528
  963SOL     OW 2887   1.770   2.344   3.025 -0.4213 -0.0814  0.2981
  963SOL    HW1 2888   1.853   2.365   2.967  0.1069 -1.0132  0.0896
  963SOL    HW2 2889   1.687   2.316   2.967 -0.8776  1.5847 -0.3280
  964SOL     OW 2890   1.020   2.623   0.616 -0.0355  0.2553  0.4417
  964SOL    HW1 2891   1.032   2.630   0.516  0.4086  1.4307  0.0361
  964SOL    HW2 2892   0.989   2.709   0.659  0.3830 -1.8286  2.6872
  965SOL     OW 2893   0.934   2.835   0.739  0.4951 -0.6906 -0.3022
  965SOL    HW1 2894   0.850   2.853   0.684 -0.6191  1.8118  0.1568
  965SOL    HW2 2895   0.909   2.790   0.828 -0.0766 -0.2420 -2.3388
  966SOL     OW 2896   0.070   1.281   3.022  0.2049 -0.6420 -0.2287
  966SOL    HW1 2897   0.088   1.253   2.928 -3.4342 -2.6941 -0.1094
  966SOL    HW2 2898   3.075   1.275   3.044  0.8952  1.3138  0.0485
  967SOL     OW 2899   1.182   2.729   1.896 -0.3468 -0.7333 -0.1636
  967SOL    HW1 2900   1.192   2.631   1.922 -1.2011 -2.8108 -2.3145
  967SOL    HW2 2901   1.141   2.735   1.804  1.4797  2.3578  1.5431
  968SOL     OW 2902   1.761   0.829   0.589 -0.3061  0.0507  0.4206
  968SOL    HW1 2903   1.834   0.761   0.559  4.6477 -3.3536  2.4035
  968SOL    HW2 2904   1.674   0.833   0.530 -0.0149  1.2606 -1.6863
  969SOL     OW 2905   0.098   1.745   2.093 -0.1750  0.3295 -0.2061
  969SOL    HW1 2906   0.066   1.756   2.000  0.0172 -0.5429  3.1190
  969SOL    HW2 2907   0.117   1.828   2.146  1.4144  2.9321  1.1060
  970SOL     OW 2908   2.710   1.695   1.399 -0.3905  0.1195  0.1200
  970SOL    HW1 2909   2.714   1.654   1.306  0.4758 -2.3859  2.3135
  970SOL    HW2 2910   2.781   1.644   1.452  2.0455 -1.2013 -0.5634
  971SOL     OW 2911   1.385   0.483   1.529  0.1730 -0.3564  1.1988
  971SOL    HW1 2912   1.414   0.448   1.437 -0.4905  1.3173 -0.6875
  971SOL    HW2 2913   1.385   0.401   1.594  0.7702 -0.2245  0.3486
  972SOL     OW 2914   0.568   0.015   2.553  0.0769  0.2851  0.0928
  972SOL    HW1 2915   0.511   3.036   2.558  1.5587  1.1638  0.0208
  972SOL    HW2 2916   0.530   0.084   2.620  0.4463 -0.9498 -2.8623
  973SOL     OW 2917   2.849   1.143   0.538  0.3618 -0.4600  0.1748
  973SOL    HW1 2918   2.843   1.162   0.639  1.1522  1.5627  1.6424
  973SOL    HW2 2919   2.758   1.111   0.502  1.0715  0.2386 -2.2843
  974SOL     OW 2920   2.048   1.109   2.163 -0.3106 -0.3883 -0.7786
  974SOL    HW1 2921   1.967   1.104   2.228 -1.3707  0.8511 -1.1786
  974SOL    HW2 2922   2.035   1.187   2.101 -0.1885  0.9432  1.0699
  975SOL     OW 2923   2.939   2.793   0.677  0.3156 -0.1100  0.4310
  975SOL    HW1 2924   3.036   2.760   0.670 -0.1093 -0.2029 -1.5761
  975SOL    HW2 2925   2.883   2.724   0.729  0.6594 -2.3873  1.0919
  976SOL     OW 2926   3.095   1.724   1.781 -0.3627 -0.3598  0.5982
  976SOL    HW1 2927   0.014   1.804   1.724 -0.6634 -1.9862 -1.0811
  976SOL    HW2 2928   3.000   1.727   1.815 -3.1835  0.0786  1.2919
  977SOL     OW 2929   0.853   2.477   0.062  0.4230  0.0812 -0.4553
  977SOL    HW1 2930   0.804   2.386   0.053 -0.4388  1.1044 -0.0851
  977SOL    HW2 2931   0.954   2.474   0.096  2.5867  1.1162 -1.3649
  978SOL     OW 2932   1.210   1.994   2.783  0.3156  0.1126  0.4468
  978SOL    HW1 2933   1.164   1.964   2.872 -0.5663  1.9494  1.9082
  978SOL    HW2 2934   1.152   2.027   2.705  1.7876 -1.0176  0.4919
  979SOL     OW 2935   1.160   2.262   1.184 -0.1875  0.2631 -0.0402
  979SOL    HW1 2936   1.238   2.240   1.120  1.4884  0.2219  0.4955
  979SOL    HW2 2937   1.069   2.240   1.137 -1.2986  0.5526 -2.9945
  980SOL     OW 2938   0.333   1.592   2.648 -0.1347  0.0098  0.0906
  980SOL    HW1 2939   0.269   1.632   2.573  0.6832 -0.0014 -1.3695
  980SOL    HW2 2940   0.278   1.560   2.724  1.6237 -3.2121  0.7968
  981SOL     OW 2941   2.708   0.383   2.739  0.0273  0.1069  0.2138
  981SOL    HW1 2942   2.775   0.350   2.669  1.0202 -0.8635 -1.4755
  981SOL    HW2 2943   2.756   0.384   2.827  3.1171  0.3710  1.4789
  982SOL     OW 2944   2.951   2.836   2.751 -0.3473  0.0119  0.5831
  982SOL    HW1 2945   3.020   2.797   2.687  0.4107  1.3809  0.3772
  982SOL    HW2 2946   2.861   2.784   2.753 -1.9704 -0.1083 -0.9036
  983SOL     OW 2947   2.306   0.917   1.699 -0.8153 -0.7345  0.1936
  983SOL    HW1 2948   2.354   1.010   1.728  2.3072  5.2157  1.4452
  983SOL    HW2 2949   2.361   0.832   1.725  0.5598 -0.7592 -0.3726
  984SOL     OW 2950   1.013   0.282   2.247  0.2623  0.0095  0.0946
  984SOL    HW1 2951   1.075   0.362   2.251 -0.1011  1.7400  0.3334
  984SOL    HW2 2952   1.041   0.201   2.300  0.5277 -1.4516 -2.3896
  985SOL     OW 2953   1.507   2.120   2.147  0.0196 -0.0962 -0.1706
  985SOL    HW1 2954   1.556   2.030   2.126  1.0808 -3.1122 -1.1516
  985SOL    HW2 2955   1.541   2.195   2.088 -1.2902  1.6450  0.8298
  986SOL     OW 2956   1.955   0.736   2.092  0.1996  0.2451 -0.0788
  986SOL    HW1 2957   1.934   0.788   2.178  0.7504 -1.0328  1.0229
  986SOL    HW2 2958   2.056   0.714   2.092  1.6239 -2.8743  1.3802
  987SOL     OW 2959   2.345   0.671   2.335 -0.2303  0.3419 -0.0475
  987SOL    HW1 2960   2.310   0.738   2.270 -0.2551 -2.9262  0.0983
  987SOL    HW2 2961   2.302   0.579   2.322 -0.9941 -4.1454 -2.5367
  988SOL     OW 2962   2.406   0.337   2.792 -0.4608 -0.5459 -0.2578
  988SOL    HW1 2963   2.504   0.363   2.792  1.4214  0.3916  3.5576
  988SOL    HW2 2964   2.344   0.409   2.750 -2.3558 -0.3752 -2.0248
  989SOL     OW 2965   2.359   2.298   2.711  0.3507 -0.0336  0.0024
  989SOL    HW1 2966   2.389   2.213   2.762 -0.3765  0.7013 -2.0165
  989SOL    HW2 2967   2.412   2.319   2.625 -2.1446  0.8555 -1.8793
  990SOL     OW 2968   0.331   0.443   0.162 -0.0101  0.6541 -0.4834
  990SOL    HW1 2969   0.295   0.387   0.239 -0.5622 -0.2263 -0.9256
  990SOL    HW2 2970   0.256   0.503   0.133  0.9682 -0.8018  2.8169
  991SOL     OW 2971   0.547   0.456   2.946  0.3285 -0.3549 -0.1848
  991SOL    HW1 2972   0.496   0.396   3.011  1.4149 -1.5915 -0.2363
  991SOL    HW2 2973   0.633   0.409   2.925 -0.4479 -1.3997  0.9712
  992SOL     OW 2974   2.997   2.087   2.214 -0.3106  0.2583  0.6834
  992SOL    HW1 2975   2.970   2.079   2.311 -1.5417 -0.6990 -0.7413
  992SOL    HW2 2976   3.090   2.043   2.205 -0.2145 -0.6885  0.2499
  993SOL     OW 2977   0.656   3.020   0.608 -0.8297 -0.3188  0.2906
  993SOL    HW1 2978   0.569   3.046   0.568  2.9611 -0.6395 -0.2432
  993SOL    HW2 2979   0.702   0.006   0.647  1.2269  2.0746  0.9478
  994SOL     OW 2980   0.093   2.167   1.602 -0.4615 -0.2491  0.1069
  994SOL    HW1 2981   0.024   2.214   1.655  0.6186 -2.5519 -2.8142
  994SOL    HW2 2982   0.179   2.222   1.602 -0.7310  1.3433  2.2253
  995SOL     OW 2983   2.247   1.469   2.960 -0.3953  0.5598  0.0991
  995SOL    HW1 2984   2.257   1.390   2.897 -0.0794  3.4883 -1.3728
  995SOL    HW2 2985   2.186   1.541   2.920  0.4245  0.8529 -1.6979
  996SOL     OW 2986   1.819   1.436   2.733  0.2044  0.0369 -0.1288
  996SOL    HW1 2987   1.761   1.511   2.775 -3.0155  0.7167  1.6087
  996SOL    HW2 2988   1.853   1.467   2.640 -1.7887 -1.5530 -1.8746
  997SOL     OW 2989   1.945   1.282   1.973  0.2253 -0.2990 -0.5508
  997SOL    HW1 2990   2.023   1.284   1.906  0.1601  1.4047  2.6479
  997SOL    HW2 2991   1.859   1.279   1.928  3.2509  2.2158  0.8092
  998SOL     OW 2992   2.585   1.725   0.479 -0.0229 -0.1523 -0.3845
  998SOL    HW1 2993   2.525   1.770   0.546  2.4713 -1.2108  0.0532
  998SOL    HW2 2994   2.546   1.723   0.385  1.4931 -1.0376  0.2577
  999SOL     OW 2995   2.420   2.706   0.468  0.5807  0.1320  0.5070
  999SOL    HW1 2996   2.447   2.804   0.472 -0.2947  0.1004 -0.7448
  999SOL    HW2 2997   2.389   2.673   0.375 -1.0224 -1.4754 -1.4488
 1000SOL     OW 2998   0.651   2.704   2.547  0.6280 -0.3224 -0.6410
 1000SOL    HW1 2999   0.659   2.655   2.460  0.7418  0.0996 -1.4099
 1000SOL    HW2 3000   0.742   2.755   2.557  1.4144  1.3200  1.8712
   3.10215   3.10215   3.10215
