1000 SPC/Fw water molecules t= 309.00000 step= 309000
 3000
    1SOL     OW    1   2.959   0.008   0.756  0.4745 -0.6619  0.0055
    1SOL    HW1    2   2.875   3.081   0.735 -1.2258 -1.0975 -0.1514
    1SOL    HW2    3   2.979   0.010   0.858  0.6221  0.8357 -0.2833
    2SOL     OW    4   0.012   2.432   0.729  0.1229  0.1027  0.0851
    2SOL    HW1    5   3.104   2.397   0.816  0.2764  1.5847 -2.4843
    2SOL    HW2    6   0.049   2.353   0.674 -1.4838  0.8073  1.0913
    3SOL     OW    7   0.585   2.841   2.938  0.0902  0.1032  0.2388
    3SOL    HW1    8   0.646   2.767   2.896 -0.4558 -1.0544  1.4160
    3SOL    HW2    9   0.532   2.882   2.860  0.1074 -3.0234  1.8441
    4SOL     OW   10   2.142   2.378   1.872 -0.0773 -0.0570  0.2286
    4SOL    HW1   11   2.084   2.311   1.824 -0.8803  0.2757  1.1065
    4SOL    HW2   12   2.206   2.327   1.932 -0.3545 -0.2231 -1.5243
    5SOL     OW   13   1.560   0.959   1.250  0.1320 -0.5070 -0.5384
    5SOL    HW1   14   1.501   0.929   1.171  0.6081  0.1231  1.1888
    5SOL    HW2   15   1.499   1.015   1.311 -0.4129  2.6687  2.2670
    6SOL     OW   16   2.024   2.794   0.189  0.4381  0.2044  0.7059
    6SOL    HW1   17   2.009   2.896   0.204 -0.6801  0.9532 -1.7502
    6SOL    HW2   18   1.996   2.738   0.269 -0.6695  0.1812  0.6038
    7SOL     OW   19   2.702   1.348   1.198 -0.0574 -0.3189  0.2221
    7SOL    HW1   20   2.739   1.442   1.218  0.0189  1.5948  0.1037
    7SOL    HW2   21   2.656   1.310   1.284 -2.7806 -2.0122  0.7714
    8SOL     OW   22   1.406   2.398   1.581 -0.2576  0.0693  0.6505
    8SOL    HW1   23   1.343   2.325   1.559  0.5323  1.9873  0.8063
    8SOL    HW2   24   1.390   2.481   1.528  0.9906  0.9149  1.2455
    9SOL     OW   25   1.384   2.868   2.330  0.1239 -0.0730 -0.0174
    9SOL    HW1   26   1.290   2.847   2.348 -0.7858  2.5093 -0.3000
    9SOL    HW2   27   1.389   2.880   2.227 -2.2318 -0.6746  0.1628
   10SOL     OW   28   0.740   1.859   1.307  0.3877 -0.0763 -0.6028
   10SOL    HW1   29   0.841   1.855   1.291 -2.1888 -0.1570  0.6778
   10SOL    HW2   30   0.710   1.959   1.302  0.2231 -0.1456  2.3338
   11SOL     OW   31   1.943   1.827   1.230  0.1715 -0.6419 -0.1880
   11SOL    HW1   32   1.990   1.849   1.321 -1.7369 -0.2958  1.6789
   11SOL    HW2   33   1.923   1.912   1.170 -1.9260  4.5383 -1.6878
   12SOL     OW   34   2.530   2.731   1.550 -0.4688  0.0688 -0.4092
   12SOL    HW1   35   2.627   2.724   1.527 -1.3861 -1.4104  0.7702
   12SOL    HW2   36   2.516   2.736   1.653 -0.8743  2.4717  0.9006
   13SOL     OW   37   2.362   3.093   0.378  0.1304 -0.2957  0.3811
   13SOL    HW1   38   2.341   3.014   0.443  0.0363  0.7558  2.4768
   13SOL    HW2   39   2.445   3.074   0.327 -4.1440 -2.7763  1.6622
   14SOL     OW   40   1.674   2.362   0.529  0.1648  0.4706  0.1458
   14SOL    HW1   41   1.646   2.350   0.430  0.6040 -1.1382 -0.5528
   14SOL    HW2   42   1.641   2.291   0.593  1.1940 -1.1202  0.9950
   15SOL     OW   43   2.888   2.033   1.889 -0.1019 -0.4809  0.1251
   15SOL    HW1   44   2.952   1.974   1.945  1.4394 -3.0572  0.4740
   15SOL    HW2   45   2.863   2.122   1.933  3.9320  0.4509  1.3723
   16SOL     OW   46   2.172   2.697   0.659  0.3141  0.4479 -0.6036
   16SOL    HW1   47   2.092   2.716   0.600  0.5066  3.4539 -2.0670
   16SOL    HW2   48   2.146   2.711   0.755  0.4462 -1.8866 -0.0269
   17SOL     OW   49   0.638   0.262   1.208 -0.0508 -0.0699 -0.7754
   17SOL    HW1   50   0.692   0.325   1.266 -1.3131  1.6462 -0.8867
   17SOL    HW2   51   0.609   0.307   1.123 -1.0976  1.1617 -0.8394
   18SOL     OW   52   1.988   0.950   0.091 -0.2516 -0.8262 -0.1079
   18SOL    HW1   53   1.917   0.883   0.070  0.1239 -0.7624 -0.1140
   18SOL    HW2   54   2.025   0.986   0.004  1.8991  1.3740  1.0152
   19SOL     OW   55   1.781   1.952   0.532  0.0785 -0.8275  0.1455
   19SOL    HW1   56   1.866   1.923   0.582  0.8334 -0.3023 -0.8412
   19SOL    HW2   57   1.802   1.990   0.443  3.3430 -0.6893 -0.1584
   20SOL     OW   58   2.445   1.908   2.163 -0.4090  0.2572 -0.1173
   20SOL    HW1   59   2.356   1.920   2.224 -1.9761  0.2804  3.0015
   20SOL    HW2   60   2.455   1.989   2.097  0.2988  2.6557 -1.8095
   21SOL     OW   61   1.738   0.621   0.866 -0.5782  0.5427 -0.4006
   21SOL    HW1   62   1.696   0.680   0.794  2.0531  1.4309 -1.2507
   21SOL    HW2   63   1.843   0.636   0.862  0.1890 -0.0653  0.0408
   22SOL     OW   64   2.273   0.057   1.557  0.0673  0.1772  0.9539
   22SOL    HW1   65   2.172   0.061   1.586 -3.9992  2.6386  1.2881
   22SOL    HW2   66   2.284   0.099   1.463 -0.1255 -0.5005  0.2210
   23SOL     OW   67   0.033   0.486   2.007  0.6656  0.4190  0.2498
   23SOL    HW1   68   3.083   0.420   2.018 -1.2923  1.1054  1.9550
   23SOL    HW2   69   0.004   0.573   1.967 -0.5814  0.0096 -0.1222
   24SOL     OW   70   2.613   2.801   0.448  0.6154 -0.5023 -0.1785
   24SOL    HW1   71   2.539   2.864   0.480 -1.1863 -1.8086  2.0837
   24SOL    HW2   72   2.679   2.799   0.524 -0.2665 -2.0749  0.7070
   25SOL     OW   73   1.589   0.092   2.291  0.1007 -0.4516 -0.4445
   25SOL    HW1   74   1.610   0.029   2.369 -0.1598 -2.1506  0.6714
   25SOL    HW2   75   1.499   0.139   2.309 -0.9019  1.4838 -1.9281
   26SOL     OW   76   1.243   2.394   0.316 -0.2163 -0.8746  0.7113
   26SOL    HW1   77   1.259   2.348   0.401  0.1560  0.3544  2.8371
   26SOL    HW2   78   1.306   2.473   0.315  0.6155 -1.4113 -0.2446
   27SOL     OW   79   2.393   1.708   2.891 -0.2911  0.2261  0.1900
   27SOL    HW1   80   2.376   1.647   2.812 -0.3087  0.0190  1.1012
   27SOL    HW2   81   2.407   1.654   2.973 -1.1345  0.5455 -3.6277
   28SOL     OW   82   0.877   1.420   1.692  0.0251  0.3086 -0.2288
   28SOL    HW1   83   0.898   1.324   1.673  0.5261  0.5696  1.5132
   28SOL    HW2   84   0.801   1.455   1.636  1.7916 -0.0852 -0.1408
   29SOL     OW   85   2.791   2.425   1.578 -0.4027 -0.1959  0.2975
   29SOL    HW1   86   2.800   2.521   1.545  1.1271  0.0986  1.0093
   29SOL    HW2   87   2.731   2.373   1.511  0.2539  2.9160 -1.1141
   30SOL     OW   88   1.257   0.627   1.075 -0.1077 -0.1867  0.0487
   30SOL    HW1   89   1.164   0.599   1.056  3.5790 -0.7780  1.2950
   30SOL    HW2   90   1.316   0.547   1.053 -0.2319  1.2079  1.8170
   31SOL     OW   91   2.170   2.835   1.897  0.2187 -0.7667 -0.1036
   31SOL    HW1   92   2.165   2.739   1.925 -0.6419  0.5615  0.7011
   31SOL    HW2   93   2.088   2.886   1.926  0.9462  4.1846 -1.4773
   32SOL     OW   94   1.196   1.627   0.607  1.1362  0.2911 -0.7952
   32SOL    HW1   95   1.123   1.572   0.661 -1.6166 -0.0702 -2.5630
   32SOL    HW2   96   1.172   1.633   0.508  2.6149 -0.0870 -0.8405
   33SOL     OW   97   0.293   0.289   2.537  0.4899  0.3285  0.3548
   33SOL    HW1   98   0.364   0.355   2.520 -1.2326 -1.0372  0.3026
   33SOL    HW2   99   0.255   0.254   2.449 -1.4082 -0.0380  2.0464
   34SOL     OW  100   1.884   3.021   0.641 -0.1055 -0.5965 -0.3116
   34SOL    HW1  101   1.840   3.053   0.727 -0.2038 -0.0573  1.6009
   34SOL    HW2  102   1.951   3.089   0.607 -1.9589 -1.0268  0.6083
   35SOL     OW  103   2.201   2.678   1.227  0.3644 -0.1430 -0.3133
   35SOL    HW1  104   2.209   2.776   1.206  0.0427 -0.0270 -1.0787
   35SOL    HW2  105   2.106   2.646   1.205 -1.1010 -1.9625 -0.2680
   36SOL     OW  106   1.780   2.403   2.914  0.2624 -0.0394  0.3443
   36SOL    HW1  107   1.757   2.307   2.892  1.0953 -1.1466 -0.7078
   36SOL    HW2  108   1.796   2.461   2.835 -1.9097 -1.1855  0.3013
   37SOL     OW  109   1.345   0.140   2.373 -0.0410  0.6533 -0.3846
   37SOL    HW1  110   1.342   0.245   2.371  0.9479  3.8362 -0.0984
   37SOL    HW2  111   1.306   0.120   2.466  0.0257  1.2929 -0.0029
   38SOL     OW  112   0.219   0.184   2.793  0.1871  0.1787  0.3918
   38SOL    HW1  113   0.229   0.193   2.693  3.7158 -1.1594  1.3921
   38SOL    HW2  114   0.285   0.114   2.824  0.3271  2.7570 -1.8184
   39SOL     OW  115   2.395   1.149   1.610 -0.3036 -0.5255  0.0279
   39SOL    HW1  116   2.418   1.162   1.707  1.1644 -0.5986 -2.6587
   39SOL    HW2  117   2.300   1.182   1.604  2.8257 -2.0304  0.3490
   40SOL     OW  118   1.247   2.871   0.123  0.7286 -0.0335 -0.4765
   40SOL    HW1  119   1.240   2.937   0.203 -3.9169  1.3289 -1.0594
   40SOL    HW2  120   1.151   2.838   0.109 -4.0430 -1.6371 -0.4011
   41SOL     OW  121   2.463   1.493   1.101 -0.1686 -0.4510  0.1441
   41SOL    HW1  122   2.430   1.471   1.194  1.2570  1.3407  0.9660
   41SOL    HW2  123   2.556   1.461   1.094 -3.3831 -2.2025  0.8538
   42SOL     OW  124   1.020   0.404   1.303  0.0654  0.7523 -0.2212
   42SOL    HW1  125   0.925   0.435   1.307 -2.0853  2.8195 -1.0084
   42SOL    HW2  126   1.078   0.463   1.363 -0.7209 -3.7677 -0.9814
   43SOL     OW  127   3.046   1.642   2.433  0.3109 -0.5941 -0.2771
   43SOL    HW1  128   3.025   1.633   2.534  0.1177 -0.5802  0.0866
   43SOL    HW2  129   3.037   1.742   2.401  0.9606  2.3624 -0.9266
   44SOL     OW  130   2.438   0.152   1.846 -0.2925  0.5104  0.1254
   44SOL    HW1  131   2.383   0.065   1.850 -1.4027  0.9898  0.9151
   44SOL    HW2  132   2.489   0.175   1.935  2.6088  2.1120  0.5644
   45SOL     OW  133   1.026   3.064   1.980  0.0009  0.0586  0.1248
   45SOL    HW1  134   1.024   3.095   1.879  1.4972  0.3968 -1.9850
   45SOL    HW2  135   1.091   3.119   2.035  0.6149 -0.2081  2.3592
   46SOL     OW  136   1.169   2.918   2.580 -0.4002  0.4897  0.7182
   46SOL    HW1  137   1.094   2.883   2.635  1.7962 -0.3812  1.1236
   46SOL    HW2  138   1.258   2.925   2.633  2.3800  2.2892 -0.3176
   47SOL     OW  139   1.992   1.810   0.650  0.2030 -0.1156 -0.0467
   47SOL    HW1  140   2.032   1.846   0.733 -0.6496 -0.8711 -1.2228
   47SOL    HW2  141   2.028   1.716   0.630 -0.4670 -1.9989  0.6550
   48SOL     OW  142   1.082   2.195   0.676 -1.1104  0.5911 -0.0235
   48SOL    HW1  143   1.012   2.214   0.605  0.6394  0.2830 -0.8433
   48SOL    HW2  144   1.057   2.111   0.722  0.7432  1.9185  0.9600
   49SOL     OW  145   2.306   2.757   2.484 -0.2627 -0.0338 -0.0808
   49SOL    HW1  146   2.238   2.803   2.425  1.2412  0.1008 -1.0937
   49SOL    HW2  147   2.314   2.807   2.570  1.0051 -2.7477 -0.2222
   50SOL     OW  148   1.621   3.019   0.167  0.4011 -0.1147 -0.2203
   50SOL    HW1  149   1.719   3.046   0.177 -0.6058 -2.1202 -0.0651
   50SOL    HW2  150   1.565   3.099   0.159 -0.7955 -0.1787  3.1452
   51SOL     OW  151   2.258   0.943   1.005  0.1219 -0.4650 -0.0700
   51SOL    HW1  152   2.197   0.942   0.926 -0.5599 -1.3912  1.6577
   51SOL    HW2  153   2.316   1.030   1.013  2.1873  0.4050 -1.2324
   52SOL     OW  154   1.218   1.542   1.086  0.0550 -0.2862  0.2313
   52SOL    HW1  155   1.308   1.579   1.121  1.1770  2.5602 -2.7795
   52SOL    HW2  156   1.155   1.542   1.163  0.9195  2.8664  0.9182
   53SOL     OW  157   0.912   1.900   2.587  0.0318  0.3043  0.1873
   53SOL    HW1  158   0.986   1.832   2.566 -1.5021 -2.1348  0.8181
   53SOL    HW2  159   0.919   1.940   2.681  1.5052 -1.0277 -3.5622
   54SOL     OW  160   2.641   0.847   1.719  0.5248  0.0347 -0.0640
   54SOL    HW1  161   2.731   0.883   1.731 -4.0335  0.2087  0.3092
   54SOL    HW2  162   2.636   0.754   1.765 -0.6764  0.8434 -3.9068
   55SOL     OW  163   2.679   1.939   0.509 -0.1874  0.4861  0.3909
   55SOL    HW1  164   2.760   1.876   0.494  0.1380 -1.7412  0.1809
   55SOL    HW2  165   2.703   2.027   0.550  0.4775 -0.7468  0.7551
   56SOL     OW  166   1.357   0.246   1.830 -0.1473 -0.1846  0.1503
   56SOL    HW1  167   1.332   0.145   1.827 -0.1916 -2.7705  0.7123
   56SOL    HW2  168   1.273   0.301   1.839 -0.4815  1.6645 -2.6705
   57SOL     OW  169   1.279   1.484   2.843  0.4450  0.2297  0.1995
   57SOL    HW1  170   1.375   1.519   2.823  0.5411 -1.5666  0.6166
   57SOL    HW2  171   1.268   1.383   2.850 -1.7282  1.5143 -0.3471
   58SOL     OW  172   3.030   0.676   1.853  0.5436 -0.7129 -0.0612
   58SOL    HW1  173   3.078   0.657   1.762  1.4955 -0.5013 -1.9054
   58SOL    HW2  174   2.944   0.624   1.864 -2.3993  0.1104 -0.5234
   59SOL     OW  175   1.605   2.755   0.244  0.8283  0.0326 -0.2179
   59SOL    HW1  176   1.607   2.691   0.164  2.4118 -0.5697  2.5400
   59SOL    HW2  177   1.609   2.856   0.217 -0.0546 -0.7670  1.8848
   60SOL     OW  178   3.010   1.901   3.111  0.3853 -0.5029  0.6177
   60SOL    HW1  179   2.991   1.931   0.084 -0.8197  0.1803  1.1886
   60SOL    HW2  180   3.017   1.982   3.049  0.4791  0.4223  0.4624
   61SOL     OW  181   0.823   2.905   1.005  0.5376 -0.2749 -0.0435
   61SOL    HW1  182   0.906   2.947   0.962  0.9888  2.0223 -0.6131
   61SOL    HW2  183   0.772   2.852   0.935 -1.7818  1.0020  1.2955
   62SOL     OW  184   1.817   2.002   2.536 -0.1082  0.2622  0.5588
   62SOL    HW1  185   1.864   1.978   2.449  1.7600  0.3963  6.4178
   62SOL    HW2  186   1.719   1.984   2.543 -0.3125 -0.2804 -1.0142
   63SOL     OW  187   2.340   2.472   0.666  0.0931  0.5885 -0.1557
   63SOL    HW1  188   2.284   2.555   0.689  0.9927 -0.3280 -0.7889
   63SOL    HW2  189   2.395   2.484   0.576 -0.9638  1.4086 -2.1569
   64SOL     OW  190   1.388   0.817   2.429  0.2565  0.3750 -0.0436
   64SOL    HW1  191   1.293   0.774   2.451 -0.6364  0.1765  2.5563
   64SOL    HW2  192   1.462   0.745   2.445  1.1154 -0.9427 -2.3486
   65SOL     OW  193   1.927   1.613   2.461  0.7304 -0.2938 -0.2721
   65SOL    HW1  194   1.935   1.515   2.436 -0.7113  0.2640 -0.8354
   65SOL    HW2  195   1.858   1.651   2.398  2.1435  0.1288 -1.2720
   66SOL     OW  196   0.299   0.833   1.634  0.0744 -0.0251  0.0914
   66SOL    HW1  197   0.271   0.929   1.625 -0.3001  1.9242 -0.6578
   66SOL    HW2  198   0.393   0.824   1.673  0.2508 -0.3283  0.2187
   67SOL     OW  199   2.335   2.865   2.719  0.0611 -0.0505  0.0178
   67SOL    HW1  200   2.343   2.803   2.800 -1.1640 -0.1666 -0.0013
   67SOL    HW2  201   2.397   2.946   2.725  0.9793 -1.9683  0.1082
   68SOL     OW  202   1.151   2.769   1.336 -0.0537  0.5952 -0.9226
   68SOL    HW1  203   1.174   2.864   1.365 -1.5215  1.1031 -0.3863
   68SOL    HW2  204   1.090   2.760   1.260  2.9546 -1.9781  1.5007
   69SOL     OW  205   0.531   2.534   0.049 -0.0973 -1.0034 -0.0179
   69SOL    HW1  206   0.622   2.510   0.091  1.4396 -0.5751  1.5151
   69SOL    HW2  207   0.504   2.452   3.116 -0.5587  1.2946 -1.5303
   70SOL     OW  208   2.705   0.044   2.320 -0.1977 -0.0202  0.2707
   70SOL    HW1  209   2.628   3.114   2.355  2.2011  1.1570 -0.4309
   70SOL    HW2  210   2.670   0.110   2.250 -2.9974 -0.1232  0.6718
   71SOL     OW  211   0.409   1.185   2.549 -0.1478  0.0016 -0.1701
   71SOL    HW1  212   0.335   1.184   2.479 -4.1796 -0.3403  1.3615
   71SOL    HW2  213   0.379   1.236   2.634  0.2031  1.8644  4.0215
   72SOL     OW  214   3.010   2.113   2.913  0.7331 -0.2109  0.0126
   72SOL    HW1  215   2.925   2.171   2.919 -3.7787  0.5041 -1.0793
   72SOL    HW2  216   3.002   2.044   2.839  1.9550 -0.9417  0.6020
   73SOL     OW  217   1.482   1.090   0.552 -0.8946  0.4973 -0.6857
   73SOL    HW1  218   1.550   1.031   0.507  0.3458  0.3357 -1.6146
   73SOL    HW2  219   1.408   1.102   0.478  2.5999  1.8566 -2.2435
   74SOL     OW  220   2.320   2.719   2.950 -0.0966  0.1891 -0.5633
   74SOL    HW1  221   2.261   2.637   2.937  0.8477 -0.9779 -0.1577
   74SOL    HW2  222   2.323   2.757   3.044 -2.6736  1.2309 -0.2759
   75SOL     OW  223   2.294   1.864   0.763  0.2034 -0.0607  0.3272
   75SOL    HW1  224   2.320   1.826   0.856  0.2056 -3.4183 -1.3772
   75SOL    HW2  225   2.332   1.810   0.690  0.8867  2.1607  3.0759
   76SOL     OW  226   2.036   2.492   1.618  0.2789 -0.1926  0.4202
   76SOL    HW1  227   2.121   2.515   1.569 -1.4601  0.3564  2.7366
   76SOL    HW2  228   2.051   2.448   1.708 -0.3848 -1.3060 -0.1232
   77SOL     OW  229   2.483   3.074   2.057  0.7543 -0.2802  0.0613
   77SOL    HW1  230   2.551   0.031   2.044  2.1980  2.0202 -0.5339
   77SOL    HW2  231   2.445   3.038   1.968  0.2527  1.3036 -0.3214
   78SOL     OW  232   1.722   0.882   2.893 -0.1280 -0.4122 -0.4654
   78SOL    HW1  233   1.629   0.841   2.892  0.1702 -0.5908  0.3009
   78SOL    HW2  234   1.784   0.831   2.956  1.3148 -2.7668  0.3798
   79SOL     OW  235   2.410   1.482   2.381  0.3343 -0.3857  0.0751
   79SOL    HW1  236   2.493   1.537   2.415  3.5435 -1.1506 -1.6966
   79SOL    HW2  237   2.324   1.530   2.403 -1.0519 -1.5175 -0.0647
   80SOL     OW  238   2.053   1.657   1.654  0.6000 -0.3618  0.7861
   80SOL    HW1  239   2.013   1.575   1.695 -1.3344  2.4817 -2.3346
   80SOL    HW2  240   2.129   1.681   1.714 -1.1382 -2.4556 -2.4483
   81SOL     OW  241   1.705   0.499   1.295 -0.4666 -0.1181  0.1546
   81SOL    HW1  242   1.720   0.582   1.236  0.4193  2.4066 -2.2660
   81SOL    HW2  243   1.613   0.489   1.337  1.2097 -1.8977 -0.8211
   82SOL     OW  244   1.660   2.647   1.671  0.3990 -0.0954 -0.3156
   82SOL    HW1  245   1.674   2.559   1.625  2.3372 -1.9472 -0.6300
   82SOL    HW2  246   1.697   2.657   1.764 -3.0629  2.0367 -3.4119
   83SOL     OW  247   2.963   0.181   0.414 -0.4294 -0.7320 -0.3872
   83SOL    HW1  248   3.019   0.217   0.490 -0.3335  4.1024 -0.0794
   83SOL    HW2  249   3.003   0.205   0.323 -0.6762  4.3405  0.4959
   84SOL     OW  250   0.459   1.043   0.089  0.1156 -0.5517 -0.0678
   84SOL    HW1  251   0.493   1.068   0.182  0.6408  0.0417 -0.8253
   84SOL    HW2  252   0.415   1.124   0.044 -0.3038 -1.9802 -0.2664
   85SOL     OW  253   2.723   2.027   1.535  0.4291 -0.1029 -0.4142
   85SOL    HW1  254   2.809   2.017   1.590  3.9957 -1.7709  0.5573
   85SOL    HW2  255   2.642   2.011   1.596 -0.1929 -0.3989 -0.8032
   86SOL     OW  256   0.107   2.784   1.427  0.5202 -0.5196 -0.1123
   86SOL    HW1  257   0.189   2.726   1.412  1.3741  0.6315 -2.4299
   86SOL    HW2  258   0.121   2.879   1.386  0.3406  0.2417 -0.8394
   87SOL     OW  259   0.502   2.908   2.208  0.2980 -0.0363 -0.3819
   87SOL    HW1  260   0.598   2.932   2.220 -2.2861 -0.6749 -1.5829
   87SOL    HW2  261   0.440   2.988   2.230 -1.9338  2.1033  1.7899
   88SOL     OW  262   0.463   2.111   1.024 -0.4738 -0.4133  0.4036
   88SOL    HW1  263   0.515   2.199   0.997  1.3506  0.1145  1.7107
   88SOL    HW2  264   0.448   2.065   0.936 -0.0550 -1.1134  1.9081
   89SOL     OW  265   0.984   0.692   1.679 -0.3192 -0.0160 -0.0186
   89SOL    HW1  266   1.084   0.704   1.693 -0.1411  0.6691  0.8095
   89SOL    HW2  267   0.951   0.604   1.709 -1.7943 -1.8811 -0.7728
   90SOL     OW  268   2.886   0.921   1.801 -0.1621 -0.2809  0.0679
   90SOL    HW1  269   2.956   0.854   1.815 -3.0518  0.3282 -1.5377
   90SOL    HW2  270   2.869   0.977   1.886  2.1639 -0.2608  0.9625
   91SOL     OW  271   1.368   1.137   1.053  0.5398 -0.0616 -0.6044
   91SOL    HW1  272   1.396   1.074   0.979  0.2503  2.4840 -1.7934
   91SOL    HW2  273   1.447   1.196   1.088  3.7700 -1.3262  0.0509
   92SOL     OW  274   2.392   1.172   1.029  0.2540 -0.0671 -0.2120
   92SOL    HW1  275   2.401   1.238   0.949 -2.0499  1.2785  0.7194
   92SOL    HW2  276   2.305   1.186   1.081 -1.4307 -0.9686 -2.8505
   93SOL     OW  277   2.388   0.616   2.609  0.0566 -0.4304  0.2887
   93SOL    HW1  278   2.474   0.591   2.560 -1.0396 -2.2275  0.9603
   93SOL    HW2  279   2.309   0.582   2.561  0.3168 -1.4241  0.8191
   94SOL     OW  280   2.296   1.916   2.577 -0.1513  0.0553 -0.7881
   94SOL    HW1  281   2.270   1.923   2.479 -0.1496  0.4468 -1.2353
   94SOL    HW2  282   2.271   1.999   2.631  0.4588 -2.2556  0.4035
   95SOL     OW  283   2.171   0.656   1.154  0.2441 -0.3509  0.3930
   95SOL    HW1  284   2.136   0.562   1.186  1.7402 -0.1340  1.1673
   95SOL    HW2  285   2.268   0.662   1.182  0.4082 -2.0307  1.7841
   96SOL     OW  286   2.630   2.936   1.780 -0.1618  0.5735 -0.2436
   96SOL    HW1  287   2.540   2.893   1.810 -1.7313 -0.3512 -0.0004
   96SOL    HW2  288   2.610   3.013   1.720 -1.3680 -0.0229  4.2201
   97SOL     OW  289   2.603   0.802   1.277 -0.3404  0.0050  0.4245
   97SOL    HW1  290   2.584   0.889   1.234 -2.6138 -1.7799 -0.6914
   97SOL    HW2  291   2.587   0.801   1.374  0.7667 -1.4947 -1.7456
   98SOL     OW  292   1.518   2.071   1.795  0.4793 -0.2630  0.2847
   98SOL    HW1  293   1.419   2.056   1.814  0.6399  0.9947 -1.0084
   98SOL    HW2  294   1.534   2.171   1.804 -1.7922  0.9118  1.1000
   99SOL     OW  295   3.030   2.301   1.618 -0.5098  0.1412  0.2756
   99SOL    HW1  296   2.934   2.342   1.615 -1.2740  0.8586  0.8330
   99SOL    HW2  297   3.075   2.320   1.711 -1.8178  3.4997  3.4574
  100SOL     OW  298   1.055   0.919   3.039  0.0982  0.5575 -0.4800
  100SOL    HW1  299   0.988   0.916   3.118 -1.8431  0.0594  0.6113
  100SOL    HW2  300   1.127   0.990   3.065  3.9937  2.2897  1.6104
  101SOL     OW  301   2.112   0.257   2.834  0.0584  0.2446  0.1012
  101SOL    HW1  302   2.041   0.186   2.858 -2.1595 -0.4270  2.8567
  101SOL    HW2  303   2.136   0.301   2.920  0.1571 -0.1194 -0.3068
  102SOL     OW  304   0.598   0.535   1.793  0.0032  0.1981  0.0289
  102SOL    HW1  305   0.578   0.633   1.789  3.2314 -5.3606 -1.4753
  102SOL    HW2  306   0.569   0.490   1.882  1.8802  0.5343 -0.0743
  103SOL     OW  307   0.520   0.447   2.813 -0.4647  0.9532  0.2668
  103SOL    HW1  308   0.577   0.522   2.848 -1.8797 -2.6152  1.3175
  103SOL    HW2  309   0.508   0.373   2.886 -2.0985  0.5329  3.7563
  104SOL     OW  310   1.075   0.444   2.544  0.3001 -0.4666  0.1810
  104SOL    HW1  311   1.033   0.424   2.453 -1.0787  0.5722 -0.0927
  104SOL    HW2  312   1.019   0.393   2.616  1.2567 -0.1018  0.0900
  105SOL     OW  313   2.214   1.987   1.803 -0.3277 -0.4455  0.1466
  105SOL    HW1  314   2.208   1.885   1.790  1.2475 -2.0022  1.3251
  105SOL    HW2  315   2.290   1.998   1.872  2.0265  0.1988 -0.5160
  106SOL     OW  316   1.638   0.477   0.503 -0.4863  0.0241  0.4774
  106SOL    HW1  317   1.587   0.400   0.541  2.9409 -0.6728  1.2722
  106SOL    HW2  318   1.740   0.467   0.523  2.7917 -2.2634  2.0259
  107SOL     OW  319   2.766   1.961   0.859 -0.4076 -0.2257 -0.4682
  107SOL    HW1  320   2.768   1.998   0.954 -1.5473 -1.3227  2.5379
  107SOL    HW2  321   2.861   1.940   0.824  0.3033 -1.2705  1.2204
  108SOL     OW  322   2.789   2.708   1.497  0.2586 -0.0871  0.1551
  108SOL    HW1  323   2.835   2.758   1.577 -0.3100  0.0928 -2.5038
  108SOL    HW2  324   2.844   2.712   1.413 -1.5472  0.1970 -2.1767
  109SOL     OW  325   2.043   2.776   0.934 -0.0427 -0.0979  0.0104
  109SOL    HW1  326   1.977   2.720   0.990 -1.0733  0.5293 -3.2521
  109SOL    HW2  327   2.031   2.873   0.959 -0.6347 -1.1423  1.0098
  110SOL     OW  328   0.714   1.826   2.430 -0.3423  0.0022  0.0277
  110SOL    HW1  329   0.673   1.737   2.453 -1.9379  0.2683 -1.7778
  110SOL    HW2  330   0.778   1.864   2.503 -2.1320  0.3987  1.7994
  111SOL     OW  331   1.765   2.471   2.100  0.2765  0.2671  0.2328
  111SOL    HW1  332   1.693   2.490   2.173  3.0545  0.6941 -1.7360
  111SOL    HW2  333   1.746   2.388   2.049  1.4015 -0.3042  3.0939
  112SOL     OW  334   2.018   2.094   3.013 -0.1879 -0.3194  0.1585
  112SOL    HW1  335   2.112   2.115   3.050 -0.5265  3.8812 -0.4105
  112SOL    HW2  336   2.013   2.088   2.913  1.3001  2.2952  1.7471
  113SOL     OW  337   1.779   2.116   1.503 -0.1305 -0.3875  0.4884
  113SOL    HW1  338   1.866   2.122   1.451  2.8107  0.1526 -0.0334
  113SOL    HW2  339   1.803   2.059   1.586  1.4681  0.4136  2.6824
  114SOL     OW  340   2.837   1.167   0.731 -0.0162  0.0347 -0.8049
  114SOL    HW1  341   2.845   1.191   0.829  0.4571  1.5397 -4.8418
  114SOL    HW2  342   2.741   1.141   0.703 -2.0561  1.7584  2.2363
  115SOL     OW  343   0.664   0.814   0.060  0.5419  0.6472 -0.0469
  115SOL    HW1  344   0.571   0.856   0.051  0.4128  1.5772  0.5289
  115SOL    HW2  345   0.660   0.724   0.111 -0.8278  1.2929 -0.0594
  116SOL     OW  346   2.617   1.606   2.471  0.1588 -0.2107  0.1863
  116SOL    HW1  347   2.675   1.533   2.506 -1.7039  0.8594 -0.0875
  116SOL    HW2  348   2.641   1.697   2.510 -0.4568 -3.7734  0.5841
  117SOL     OW  349   0.069   3.039   0.643  0.0190  0.3743  0.2521
  117SOL    HW1  350   0.072   2.997   0.553  1.8578 -0.0926  0.7878
  117SOL    HW2  351   3.103   3.091   0.658 -2.5567 -0.8835  0.5268
  118SOL     OW  352   0.939   1.670   2.812 -0.4087  0.2041 -0.2702
  118SOL    HW1  353   0.963   1.751   2.872  0.9264 -1.1092  2.9404
  118SOL    HW2  354   0.834   1.669   2.800 -2.9650  2.4952  0.2763
  119SOL     OW  355   0.460   2.250   0.459  0.5283  0.2148  0.4142
  119SOL    HW1  356   0.469   2.276   0.559 -3.1829  1.6652 -2.0186
  119SOL    HW2  357   0.406   2.322   0.410 -0.2751 -2.7565  1.0559
  120SOL     OW  358   1.040   0.673   0.077  0.6297 -0.0781  0.6840
  120SOL    HW1  359   1.073   0.727   0.156  0.7779  0.4583  0.4436
  120SOL    HW2  360   1.081   0.703   3.108  1.4995  0.0950 -0.2401
  121SOL     OW  361   1.307   2.654   0.580  0.0270  0.0439 -0.0686
  121SOL    HW1  362   1.356   2.587   0.639 -1.4162 -1.2449  0.4297
  121SOL    HW2  363   1.326   2.624   0.480 -0.3032 -0.4496 -2.0626
  122SOL     OW  364   2.279   2.567   1.479  0.4675  0.0893  0.5870
  122SOL    HW1  365   2.363   2.611   1.506 -1.5592 -1.7074  0.3242
  122SOL    HW2  366   2.236   2.609   1.393 -1.8997  0.7530 -4.9163
  123SOL     OW  367   0.615   2.077   0.692  0.1377 -0.2948  0.3674
  123SOL    HW1  368   0.556   2.152   0.725 -1.3641 -0.9310 -0.4958
  123SOL    HW2  369   0.577   2.041   0.605 -1.2043 -1.2195 -0.8554
  124SOL     OW  370   2.728   0.668   0.188  0.5664 -0.3642 -0.2004
  124SOL    HW1  371   2.715   0.582   0.139 -0.2021  0.2204  3.6843
  124SOL    HW2  372   2.696   0.667   0.283 -0.2169 -1.7132 -1.1678
  125SOL     OW  373   0.476   1.073   0.376 -0.0182  0.5250 -0.9150
  125SOL    HW1  374   0.465   0.977   0.419  0.1973 -0.3720 -0.7271
  125SOL    HW2  375   0.442   1.144   0.439  2.6567 -0.5186 -1.3095
  126SOL     OW  376   0.111   1.864   1.044 -0.0471 -0.3703 -0.3188
  126SOL    HW1  377   0.178   1.790   1.021 -0.1621  3.9358  0.5964
  126SOL    HW2  378   0.062   1.849   1.131  1.0207 -2.9318 -0.8076
  127SOL     OW  379   1.250   1.946   2.077  0.4052  0.0439 -0.3063
  127SOL    HW1  380   1.161   1.947   2.132 -0.4529  2.3931  1.2410
  127SOL    HW2  381   1.251   2.009   1.999 -1.9401 -0.8697 -0.6371
  128SOL     OW  382   1.263   1.084   0.393 -0.1868  0.2306 -0.2159
  128SOL    HW1  383   1.354   1.070   0.344  1.5541 -0.7260 -0.1967
  128SOL    HW2  384   1.230   1.174   0.371  0.7610 -2.3374  0.9672
  129SOL     OW  385   2.004   1.286   0.921  0.0207  0.2531  0.2830
  129SOL    HW1  386   2.085   1.343   0.940 -2.4876  1.2730  0.5975
  129SOL    HW2  387   1.968   1.301   0.826  1.8221 -2.2169  2.6416
  130SOL     OW  388   2.549   1.615   1.433 -0.2378  0.2049  0.0780
  130SOL    HW1  389   2.598   1.657   1.356  0.9290  0.3433 -2.5023
  130SOL    HW2  390   2.505   1.524   1.408  0.1785 -0.1086  0.0479
  131SOL     OW  391   3.071   2.658   2.947 -0.2907 -0.6384 -0.0374
  131SOL    HW1  392   2.993   2.593   2.970 -0.9817 -0.0247  0.5003
  131SOL    HW2  393   3.071   2.743   3.008  0.7722  1.2536  3.4677
  132SOL     OW  394   0.139   1.384   0.714 -0.8116  0.4506  0.0662
  132SOL    HW1  395   0.131   1.382   0.613 -0.6358 -1.4962 -0.7218
  132SOL    HW2  396   0.117   1.285   0.745  0.7410 -3.2940  1.2458
  133SOL     OW  397   0.763   0.376   1.622 -0.1068 -0.5511  0.3884
  133SOL    HW1  398   0.692   0.412   1.684  0.0200 -0.8171  0.7330
  133SOL    HW2  399   0.846   0.341   1.670 -0.5198 -0.7897  1.7259
  134SOL     OW  400   0.220   1.780   2.907 -0.0542 -0.6495  0.7752
  134SOL    HW1  401   0.228   1.858   2.967 -1.4933 -0.2113 -0.7449
  134SOL    HW2  402   0.260   1.802   2.812  0.8627 -0.4361 -2.6445
  135SOL     OW  403   1.762   0.565   1.800 -1.0262 -0.0555  0.2290
  135SOL    HW1  404   1.776   0.626   1.717 -2.1646 -0.1025 -1.2137
  135SOL    HW2  405   1.762   0.625   1.882 -1.0961 -1.2969 -0.3122
  136SOL     OW  406   3.019   1.177   0.149 -0.1143 -0.2848 -0.6504
  136SOL    HW1  407   3.119   1.148   0.162  4.4041 -0.1694  0.9832
  136SOL    HW2  408   2.974   1.187   0.244 -1.7957 -0.5114 -0.7368
  137SOL     OW  409   3.086   1.299   1.023  0.0788  0.1565  0.3649
  137SOL    HW1  410   0.022   1.257   0.950 -1.1252 -0.1981 -1.1765
  137SOL    HW2  411   3.120   1.381   1.065  2.1839 -2.6590 -5.8865
  138SOL     OW  412   1.975   0.847   1.110  0.3195  0.1812 -0.5803
  138SOL    HW1  413   2.063   0.806   1.137 -2.9826  1.6550  2.5412
  138SOL    HW2  414   1.902   0.780   1.100  0.7596 -1.3703 -1.0059
  139SOL     OW  415   1.366   2.628   0.313  0.0559 -0.2234  0.4687
  139SOL    HW1  416   1.460   2.662   0.286  2.3606  1.7780 -0.8949
  139SOL    HW2  417   1.299   2.688   0.267  2.1967 -1.7704  0.7158
  140SOL     OW  418   1.502   1.526   1.867  0.0247  0.0315  0.4183
  140SOL    HW1  419   1.426   1.586   1.892 -1.7394  0.6231  0.4931
  140SOL    HW2  420   1.468   1.467   1.795 -2.8192  2.6208 -2.6883
  141SOL     OW  421   1.410   2.003   0.666  0.6470 -0.0959 -0.0968
  141SOL    HW1  422   1.501   2.033   0.699 -1.0671  0.9248 -1.6265
  141SOL    HW2  423   1.423   1.914   0.620  1.1135 -0.5412 -0.2192
  142SOL     OW  424   1.068   0.401   0.272  0.4222 -0.0098  1.0218
  142SOL    HW1  425   1.093   0.378   0.174 -0.8062 -0.3585 -1.3998
  142SOL    HW2  426   0.985   0.457   0.280 -0.7094 -1.6550 -0.1537
  143SOL     OW  427   0.425   2.019   2.641 -0.2025 -0.4906  0.6940
  143SOL    HW1  428   0.341   2.048   2.691  3.9143  0.2087  0.1291
  143SOL    HW2  429   0.421   2.055   2.541 -0.0698 -0.4627 -2.0601
  144SOL     OW  430   1.431   2.636   1.058 -0.0359 -0.0228 -0.1135
  144SOL    HW1  431   1.447   2.542   1.099  0.9873 -1.9382 -2.5604
  144SOL    HW2  432   1.514   2.664   1.011 -0.4957 -0.6123 -0.6256
  145SOL     OW  433   1.957   0.997   2.756 -0.4148  0.1686  0.0589
  145SOL    HW1  434   2.021   1.019   2.834  1.1422  2.4488 -1.5665
  145SOL    HW2  435   1.869   0.955   2.790 -0.1141 -0.3647 -1.0912
  146SOL     OW  436   0.204   2.601   0.864 -0.3794 -0.0442  0.0152
  146SOL    HW1  437   0.167   2.695   0.858 -1.3788  0.3280 -1.9833
  146SOL    HW2  438   0.142   2.540   0.813  0.6577  2.9636  1.8444
  147SOL     OW  439   2.345   3.033   1.799 -0.0753  0.2263 -0.3987
  147SOL    HW1  440   2.278   2.965   1.828 -0.2121 -2.8552  1.1151
  147SOL    HW2  441   2.316   3.076   1.711 -0.5297  3.7570 -2.3029
  148SOL     OW  442   0.764   3.023   1.975  0.2107  0.1757  0.8048
  148SOL    HW1  443   0.863   3.048   1.980  0.6918  0.8202  0.2995
  148SOL    HW2  444   0.727   2.987   1.885 -2.4027 -1.0881 -1.6294
  149SOL     OW  445   1.720   0.352   2.574  0.0759 -0.7664 -0.4689
  149SOL    HW1  446   1.668   0.284   2.629 -1.5724  0.8309  2.9531
  149SOL    HW2  447   1.713   0.343   2.471 -2.5230 -2.7095  1.3516
  150SOL     OW  448   3.064   0.169   0.124  0.4460  0.0205 -0.0663
  150SOL    HW1  449   3.008   0.165   0.041 -2.0294  2.4139  2.0666
  150SOL    HW2  450   3.073   0.263   0.158  0.5856 -0.7508  0.8033
  151SOL     OW  451   0.556   1.842   0.522  1.4012 -0.8569  0.1513
  151SOL    HW1  452   0.631   1.833   0.590 -2.0411 -2.8725  0.0117
  151SOL    HW2  453   0.519   1.749   0.505  0.6889 -0.3244 -1.8273
  152SOL     OW  454   2.943   0.508   0.412 -0.2312  0.9966  0.2446
  152SOL    HW1  455   2.853   0.464   0.424 -0.3498 -0.3823  1.2688
  152SOL    HW2  456   2.980   0.533   0.505 -1.2895  0.4146  1.0801
  153SOL     OW  457   2.784   0.338   1.232 -0.4178 -0.2813  0.0211
  153SOL    HW1  458   2.868   0.320   1.178  2.4963  1.4738 -2.5083
  153SOL    HW2  459   2.701   0.353   1.177 -1.1287 -2.1785  0.1607
  154SOL     OW  460   1.223   0.003   2.165 -0.5439 -0.3302  0.2760
  154SOL    HW1  461   1.250   0.042   2.252 -1.3385 -2.2419 -2.4663
  154SOL    HW2  462   1.290   3.052   2.136  2.1902  1.2527 -1.0421
  155SOL     OW  463   0.448   1.860   1.105  0.2043 -0.5114  0.0683
  155SOL    HW1  464   0.448   1.962   1.085 -2.3774  4.2018  0.3542
  155SOL    HW2  465   0.513   1.834   1.180  1.3458 -0.8701  2.3010
  156SOL     OW  466   2.224   2.106   0.098 -0.2157 -0.3099 -0.5766
  156SOL    HW1  467   2.194   2.197   0.131  0.8694 -0.7386 -0.8326
  156SOL    HW2  468   2.196   2.037   0.161 -1.3624  0.6486 -0.6890
  157SOL     OW  469   0.839   0.574   0.244 -0.0301  0.6239  0.6238
  157SOL    HW1  470   0.784   0.640   0.296  0.5355  1.1412  0.4511
  157SOL    HW2  471   0.886   0.617   0.160  1.9303  0.5526 -1.0568
  158SOL     OW  472   2.474   0.087   2.704  0.3601  0.0965 -0.2120
  158SOL    HW1  473   2.473   0.089   2.804  0.3401  1.3491  1.2461
  158SOL    HW2  474   2.416   0.160   2.664 -0.4337 -2.5002  0.9243
  159SOL     OW  475   0.048   0.289   0.567  0.3675 -0.1835  0.1311
  159SOL    HW1  476   0.107   0.367   0.538  1.2798 -0.3164  2.3711
  159SOL    HW2  477   0.101   0.239   0.636 -0.8617  0.2506 -0.9368
  160SOL     OW  478   1.467   1.723   2.362 -0.6092  0.0554  0.0610
  160SOL    HW1  479   1.450   1.719   2.462  1.0726 -1.7191  2.3425
  160SOL    HW2  480   1.442   1.816   2.329 -1.1997  0.4192 -0.4990
  161SOL     OW  481   2.948   0.969   2.657  0.3578 -0.1122 -0.0092
  161SOL    HW1  482   2.911   0.873   2.649 -1.0499 -3.8533 -0.7296
  161SOL    HW2  483   2.983   0.985   2.752 -1.4946 -1.1038 -1.3684
  162SOL     OW  484   0.492   2.309   1.413 -0.1286  0.6085 -0.0400
  162SOL    HW1  485   0.478   2.210   1.382  0.6794 -1.2140 -0.8492
  162SOL    HW2  486   0.503   2.368   1.325 -1.1851 -2.7125 -1.4029
  163SOL     OW  487   2.009   0.214   2.339  0.1263 -0.0995  0.3341
  163SOL    HW1  488   2.038   0.121   2.319 -2.3902  2.1959 -1.4069
  163SOL    HW2  489   2.030   0.239   2.434 -2.7556 -0.4323 -2.3252
  164SOL     OW  490   2.140   1.692   0.335 -0.4794  0.3429 -0.4200
  164SOL    HW1  491   2.064   1.690   0.267 -0.9766  0.4580 -2.3949
  164SOL    HW2  492   2.145   1.605   0.387 -2.0866  1.4005 -0.8702
  165SOL     OW  493   0.068   0.357   1.365  0.2878 -0.2172  0.1851
  165SOL    HW1  494   0.072   0.459   1.363 -0.1680  4.5856 -0.4021
  165SOL    HW2  495   0.128   0.303   1.303 -1.9239 -0.1748  3.0375
  166SOL     OW  496   2.108   1.042   2.984 -0.2178 -0.3892  0.0697
  166SOL    HW1  497   2.203   1.007   2.992 -0.7809  0.0771  1.6358
  166SOL    HW2  498   2.109   1.142   3.015 -0.9719  0.9897  2.2568
  167SOL     OW  499   2.831   0.895   0.076 -0.3981 -0.1771 -1.0850
  167SOL    HW1  500   2.804   0.804   0.115  1.5406  0.3898 -0.3779
  167SOL    HW2  501   2.928   0.891   0.048 -0.3196  3.2071  2.0865
  168SOL     OW  502   1.494   2.716   2.701  0.0719 -0.0600  0.1808
  168SOL    HW1  503   1.419   2.784   2.725 -3.4274  2.2717  3.4118
  168SOL    HW2  504   1.567   2.718   2.769  0.2089 -0.9036  1.3858
  169SOL     OW  505   0.443   1.614   0.412 -0.0003 -0.0142 -0.6385
  169SOL    HW1  506   0.526   1.593   0.350  0.9548 -0.1858 -1.1087
  169SOL    HW2  507   0.385   1.532   0.408  0.3947  0.1682  0.8979
  170SOL     OW  508   0.409   0.330   1.327  0.2003  0.3580 -0.3354
  170SOL    HW1  509   0.424   0.354   1.424  2.0187 -0.4227 -0.4320
  170SOL    HW2  510   0.485   0.291   1.281 -2.4561  1.3936  2.3158
  171SOL     OW  511   1.326   2.225   2.715  0.3213 -0.0996 -0.5146
  171SOL    HW1  512   1.285   2.163   2.640 -0.9546  0.3319 -1.5861
  171SOL    HW2  513   1.386   2.295   2.664 -1.4186  2.3394 -2.8442
  172SOL     OW  514   2.980   2.760   1.296 -0.2031 -0.3550  0.8074
  172SOL    HW1  515   2.995   2.700   1.219 -2.1581  1.1382  0.1161
  172SOL    HW2  516   3.065   2.769   1.354 -0.0105  1.3527  0.7885
  173SOL     OW  517   1.593   0.556   2.928 -0.1549 -0.1974 -0.2132
  173SOL    HW1  518   1.629   0.562   3.022 -4.4029 -1.2633 -0.6859
  173SOL    HW2  519   1.655   0.568   2.848 -0.1611  0.2939  0.7325
  174SOL     OW  520   1.011   0.105   2.777  0.1797  0.3326  0.1970
  174SOL    HW1  521   0.967   0.021   2.823 -0.8561  0.8524 -0.9392
  174SOL    HW2  522   1.038   0.171   2.852 -1.9621 -0.9520  1.3654
  175SOL     OW  523   2.257   2.062   0.555 -0.4812 -0.5308 -0.0627
  175SOL    HW1  524   2.187   2.126   0.594 -2.1983 -1.4958 -1.4458
  175SOL    HW2  525   2.255   1.979   0.609  0.3629  0.2291 -0.6471
  176SOL     OW  526   1.361   3.116   3.122 -0.2625 -0.4473 -0.2162
  176SOL    HW1  527   1.276   0.036   0.031 -0.3904 -1.8797 -0.0726
  176SOL    HW2  528   1.332   3.059   3.041 -2.0726  0.7937 -1.5440
  177SOL     OW  529   1.152   1.662   0.355 -0.0589 -0.5741 -0.2909
  177SOL    HW1  530   1.083   1.733   0.333  0.3638 -0.7892 -0.7115
  177SOL    HW2  531   1.233   1.657   0.291  1.8156  0.7405  0.6427
  178SOL     OW  532   2.480   2.293   3.019 -0.1552 -0.2454 -0.8138
  178SOL    HW1  533   2.440   2.367   3.078 -0.2036  1.1221  2.6788
  178SOL    HW2  534   2.512   2.218   3.082  1.4623 -3.0174 -1.0201
  179SOL     OW  535   2.619   2.848   2.918 -0.7854 -0.6041  0.8123
  179SOL    HW1  536   2.525   2.813   2.934  1.8649  0.3485  0.8228
  179SOL    HW2  537   2.643   2.843   2.820 -0.3297 -0.4978 -2.3886
  180SOL     OW  538   1.601   1.659   0.755 -0.1742 -0.0949 -0.2227
  180SOL    HW1  539   1.581   1.725   0.831  1.7463 -1.3447  1.7857
  180SOL    HW2  540   1.546   1.573   0.778  0.0849  1.0727 -0.1548
  181SOL     OW  541   1.914   0.725   2.412 -0.2157  0.3714 -0.4687
  181SOL    HW1  542   1.887   0.821   2.383 -0.9149  2.6200 -0.6299
  181SOL    HW2  543   1.890   0.660   2.336  0.0830 -1.8421  0.1189
  182SOL     OW  544   2.544   3.016   2.510  0.0250 -0.5270 -0.7498
  182SOL    HW1  545   2.594   2.939   2.552 -1.3226 -0.1966 -1.2247
  182SOL    HW2  546   2.530   3.088   2.581  0.0164  0.5055 -1.3762
  183SOL     OW  547   1.793   0.568   2.233  0.2066 -0.2252 -0.3876
  183SOL    HW1  548   1.855   0.580   2.149 -1.1482 -0.3156 -1.2257
  183SOL    HW2  549   1.766   0.472   2.256 -1.0573  3.0966 -1.9672
  184SOL     OW  550   3.095   1.223   1.288 -0.2701  0.2439 -0.7856
  184SOL    HW1  551   3.066   1.237   1.190 -1.5288  0.4341 -1.3844
  184SOL    HW2  552   3.048   1.137   1.321  0.2618  0.2064  1.8800
  185SOL     OW  553   1.953   0.692   0.422  0.0882  0.3820 -0.3665
  185SOL    HW1  554   2.012   0.762   0.463 -0.1803  2.1982 -0.6108
  185SOL    HW2  555   1.946   0.611   0.485  0.8338 -0.0619 -1.2096
  186SOL     OW  556   0.307   2.676   3.077 -0.3985  0.6723  0.5432
  186SOL    HW1  557   0.397   2.632   3.099 -2.4830 -0.4785  1.6916
  186SOL    HW2  558   0.288   2.753   0.017 -1.9668 -2.4847 -0.8600
  187SOL     OW  559   2.371   0.953   2.989  0.0028  0.2401  0.2711
  187SOL    HW1  560   2.369   0.917   2.895  0.5209  1.2936  1.3652
  187SOL    HW2  561   2.463   0.937   3.032 -0.4176  1.7410  1.5026
  188SOL     OW  562   3.007   1.448   1.423  0.2027 -0.0340  0.1005
  188SOL    HW1  563   3.059   1.370   1.377  2.5848 -0.1244 -0.4477
  188SOL    HW2  564   3.002   1.418   1.521 -0.7487 -1.1420  1.6625
  189SOL     OW  565   2.572   0.328   2.999  0.1379  0.2741 -0.4717
  189SOL    HW1  566   2.577   0.374   2.904 -0.0997 -0.5589 -0.0244
  189SOL    HW2  567   2.571   0.384   3.081 -1.4778 -0.9740 -2.6185
  190SOL     OW  568   1.426   0.957   1.862 -0.0709  0.8541 -0.5161
  190SOL    HW1  569   1.485   0.908   1.799  0.9642  1.2323 -1.5907
  190SOL    HW2  570   1.474   1.017   1.923  0.3775  0.8079 -1.2338
  191SOL     OW  571   0.504   0.423   2.025 -0.0910  0.5136  0.5770
  191SOL    HW1  572   0.527   0.320   2.020  0.6662  0.7577  0.0313
  191SOL    HW2  573   0.416   0.452   2.071 -0.3920  0.0643 -0.3085
  192SOL     OW  574   2.116   1.485   1.292  0.4435 -0.4620 -0.2276
  192SOL    HW1  575   2.114   1.550   1.215  1.9998  1.3625  5.2076
  192SOL    HW2  576   2.046   1.511   1.358 -0.1160 -0.4023  0.4427
  193SOL     OW  577   1.395   0.844   1.040 -0.7474  0.1289 -0.0827
  193SOL    HW1  578   1.402   0.874   0.945  0.8035 -3.0517  0.7494
  193SOL    HW2  579   1.318   0.779   1.050 -0.0597  3.4540  1.6515
  194SOL     OW  580   0.837   2.403   1.696  0.0843  0.6868  0.9746
  194SOL    HW1  581   0.939   2.400   1.667  1.5316 -1.1977 -0.8382
  194SOL    HW2  582   0.802   2.315   1.654  1.7926 -0.2611  0.5492
  195SOL     OW  583   1.974   0.086   3.092  0.0863  0.4940  0.2695
  195SOL    HW1  584   1.944   0.057   2.998  0.6801 -0.6196 -0.7207
  195SOL    HW2  585   2.077   0.081   3.096  0.0162  1.1751 -2.5530
  196SOL     OW  586   0.854   2.018   1.913  0.2429 -0.1000  0.0009
  196SOL    HW1  587   0.919   2.023   1.833  3.3530 -0.1463  0.1276
  196SOL    HW2  588   0.904   1.977   1.994  0.0434 -0.1936  0.7548
  197SOL     OW  589   1.247   0.167   1.310 -0.4018  0.5446 -0.3799
  197SOL    HW1  590   1.344   0.204   1.308  1.8426 -1.2361 -0.4777
  197SOL    HW2  591   1.182   0.239   1.276  1.8510  0.5151 -0.8370
  198SOL     OW  592   0.895   0.876   0.953  0.3276  0.0880  0.6856
  198SOL    HW1  593   0.926   0.868   1.047  2.2400  2.4854  1.5110
  198SOL    HW2  594   0.842   0.795   0.913 -0.8931 -2.4608 -2.0357
  199SOL     OW  595   0.116   2.766   1.685  0.1435 -0.4231  0.3146
  199SOL    HW1  596   0.154   2.854   1.726 -1.5434  0.3903  0.1899
  199SOL    HW2  597   0.106   2.779   1.583  3.4649  0.2253  0.3952
  200SOL     OW  598   1.950   2.186   2.149  0.7479  0.6617 -0.3568
  200SOL    HW1  599   1.915   2.175   2.058 -0.8775  1.4410  1.8909
  200SOL    HW2  600   2.044   2.217   2.145  1.6951 -0.8539 -0.8217
  201SOL     OW  601   0.388   1.583   2.064  0.4004  0.7641  0.7139
  201SOL    HW1  602   0.452   1.541   2.000 -1.2818 -2.0431  0.4433
  201SOL    HW2  603   0.426   1.664   2.107 -0.5149  0.4531 -2.3907
  202SOL     OW  604   2.034   0.517   0.210 -0.4818  0.3764 -0.0450
  202SOL    HW1  605   1.968   0.459   0.157 -1.6267  0.2367  1.0144
  202SOL    HW2  606   1.984   0.576   0.276  0.9739 -1.0431 -1.3128
  203SOL     OW  607   0.971   2.367   2.268  0.4568  0.3947  0.6942
  203SOL    HW1  608   0.984   2.345   2.366 -0.7785 -2.4647 -1.0204
  203SOL    HW2  609   0.880   2.419   2.258  0.2059  1.3340 -0.9727
  204SOL     OW  610   1.257   2.076   1.832  0.0544 -0.7098 -0.6258
  204SOL    HW1  611   1.178   2.041   1.778 -1.8916 -0.5867 -1.3728
  204SOL    HW2  612   1.250   2.178   1.819 -1.1003  1.3805 -3.6800
  205SOL     OW  613   1.655   1.794   2.054  0.0155 -0.2349  0.2958
  205SOL    HW1  614   1.552   1.781   2.040 -3.3404  0.1179 -1.8012
  205SOL    HW2  615   1.706   1.761   1.972  0.3745  0.9201 -1.7306
  206SOL     OW  616   0.432   0.730   2.442 -0.3289  0.6830 -0.3451
  206SOL    HW1  617   0.469   0.636   2.425  2.6212 -1.3566  2.8206
  206SOL    HW2  618   0.501   0.786   2.500  0.6129 -1.4398  2.1671
  207SOL     OW  619   1.122   2.803   1.940 -0.2405 -0.2113 -0.1366
  207SOL    HW1  620   1.084   2.896   1.958  1.1014 -2.0934 -0.6065
  207SOL    HW2  621   1.087   2.760   1.853 -1.0544 -0.8121  0.7911
  208SOL     OW  622   0.628   2.878   1.742  0.0893  0.4838 -0.0093
  208SOL    HW1  623   0.640   2.782   1.716 -2.0265  1.1700  0.7613
  208SOL    HW2  624   0.561   2.876   1.823 -0.5004 -0.1836  0.6191
  209SOL     OW  625   1.557   0.182   0.095  0.0927  0.2208  0.4274
  209SOL    HW1  626   1.514   0.104   0.044 -2.3289  1.0483  0.1804
  209SOL    HW2  627   1.533   0.267   0.050  2.2714 -3.1403  0.4102
  210SOL     OW  628   3.013   0.622   0.680  0.1330 -0.2995 -0.3030
  210SOL    HW1  629   2.914   0.620   0.698 -0.7787  0.1255 -0.2796
  210SOL    HW2  630   3.052   0.691   0.741 -2.5284 -1.8412 -4.0099
  211SOL     OW  631   0.736   0.449   1.363 -0.2970  1.0912  0.2803
  211SOL    HW1  632   0.715   0.548   1.365  0.6699 -0.4220 -0.2398
  211SOL    HW2  633   0.739   0.411   1.461 -0.7023  2.0633  1.1808
  212SOL     OW  634   1.468   2.023   1.099 -0.1606  0.5595 -0.0420
  212SOL    HW1  635   1.468   1.929   1.051 -1.7904 -2.7080  0.0592
  212SOL    HW2  636   1.379   2.070   1.100  1.6263  1.1442  1.1935
  213SOL     OW  637   2.257   0.385   1.769  0.0138  0.0318 -0.3856
  213SOL    HW1  638   2.321   0.307   1.782 -1.7351  1.1648 -1.1759
  213SOL    HW2  639   2.300   0.460   1.823 -1.6870  1.1728  0.4960
  214SOL     OW  640   0.834   2.569   2.723 -0.2049  0.5685  0.5838
  214SOL    HW1  641   0.793   2.567   2.818  0.4638  1.0824 -0.4407
  214SOL    HW2  642   0.795   2.492   2.667 -0.9160 -2.3753 -1.3737
  215SOL     OW  643   2.882   1.621   1.651  0.1261  0.3821 -0.3790
  215SOL    HW1  644   2.802   1.641   1.592  0.6674  1.0270 -1.9631
  215SOL    HW2  645   2.965   1.668   1.618  0.9064  1.8897  0.5597
  216SOL     OW  646   0.688   0.993   1.658 -0.0826  0.5333 -0.4152
  216SOL    HW1  647   0.658   1.075   1.718 -0.8440  0.0712  1.4465
  216SOL    HW2  648   0.622   0.985   1.577  0.1698  2.0643 -1.5934
  217SOL     OW  649   2.723   0.357   0.543  0.3233  0.0240  1.1111
  217SOL    HW1  650   2.688   0.413   0.620 -1.3614  0.2958 -2.5187
  217SOL    HW2  651   2.816   0.313   0.556  0.1955 -0.3143  0.7778
  218SOL     OW  652   1.866   2.018   1.049  0.0640 -0.7196  0.6337
  218SOL    HW1  653   1.912   2.110   1.060 -0.8597  4.1529  1.9041
  218SOL    HW2  654   1.765   2.031   1.039 -0.6709  1.3976  1.8587
  219SOL     OW  655   1.626   0.003   0.538 -0.3388  0.1267 -0.2310
  219SOL    HW1  656   1.565   3.045   0.537  1.0900  2.2763 -1.6471
  219SOL    HW2  657   1.715   3.103   0.583 -2.6514 -0.6450  0.0177
  220SOL     OW  658   1.661   2.103   0.727 -0.1666  0.3269 -0.2680
  220SOL    HW1  659   1.731   2.165   0.769 -0.1487  1.1500  0.0032
  220SOL    HW2  660   1.714   2.042   0.663  0.8035 -0.0348 -2.0716
  221SOL     OW  661   2.695   1.078   0.209 -0.2924 -0.5199  0.1793
  221SOL    HW1  662   2.661   1.156   0.160  2.9056 -0.4202 -0.1042
  221SOL    HW2  663   2.764   1.025   0.155 -0.7034 -1.1641  2.1348
  222SOL     OW  664   0.827   2.338   1.349 -0.5703 -0.6429 -0.2734
  222SOL    HW1  665   0.798   2.431   1.315 -1.8901 -0.0059  0.1084
  222SOL    HW2  666   0.924   2.317   1.335 -2.6637 -0.0509 -0.8150
  223SOL     OW  667   1.380   0.129   0.354 -0.2078 -0.2333  0.1489
  223SOL    HW1  668   1.355   0.198   0.416  0.1654 -0.7714 -1.8382
  223SOL    HW2  669   1.412   0.175   0.271 -2.9524 -1.4468  0.7109
  224SOL     OW  670   2.801   0.968   1.022 -0.1406 -0.2683  0.0902
  224SOL    HW1  671   2.727   0.991   1.093 -0.3197 -1.0711 -1.4144
  224SOL    HW2  672   2.841   1.058   0.994  0.2183  1.8762  0.0221
  225SOL     OW  673   0.745   1.525   1.476 -0.6627 -0.3079 -0.3231
  225SOL    HW1  674   0.809   1.542   1.396  1.0990  0.9456 -0.6561
  225SOL    HW2  675   0.678   1.464   1.443  1.0603 -0.4305  3.4126
  226SOL     OW  676   0.721   2.792   0.781 -0.0395  0.0176 -0.3350
  226SOL    HW1  677   0.728   2.821   0.681  1.6755 -0.4968 -0.5367
  226SOL    HW2  678   0.646   2.722   0.795 -0.9035  1.7884 -1.6490
  227SOL     OW  679   1.208   1.807   1.732 -0.3963  0.2678 -0.1113
  227SOL    HW1  680   1.174   1.710   1.758 -0.2044 -1.4499  0.4806
  227SOL    HW2  681   1.290   1.827   1.789 -0.9493  0.8577 -3.1419
  228SOL     OW  682   0.949   0.249   1.775  0.1288 -0.0838  0.0396
  228SOL    HW1  683   0.909   0.256   1.871  0.3698  0.8076  1.4315
  228SOL    HW2  684   0.978   0.153   1.750 -0.1898  1.8632 -0.4736
  229SOL     OW  685   2.708   0.652   2.875 -0.2864  0.2264  0.2416
  229SOL    HW1  686   2.661   0.733   2.914  0.0868 -2.1971 -1.3453
  229SOL    HW2  687   2.768   0.608   2.941  0.0038 -1.2494  0.6881
  230SOL     OW  688   0.436   0.742   1.431 -0.3065 -0.1984  0.1904
  230SOL    HW1  689   0.412   0.671   1.364 -1.4537 -1.9354  0.2081
  230SOL    HW2  690   0.374   0.740   1.512  0.2179  2.7902 -0.6979
  231SOL     OW  691   0.965   3.045   1.476  0.4117 -0.2110  0.3876
  231SOL    HW1  692   0.893   3.095   1.423 -4.2168  3.2012  0.8900
  231SOL    HW2  693   1.053   3.041   1.429 -0.6547 -1.4976  0.3408
  232SOL     OW  694   0.004   2.145   0.386  1.1634 -0.0496 -0.8515
  232SOL    HW1  695   0.091   2.096   0.370  1.8572  0.1592  0.1431
  232SOL    HW2  696   0.006   2.225   0.328  1.1701 -0.6668  0.5675
  233SOL     OW  697   1.087   2.607   2.970  0.3721  0.0947  0.1600
  233SOL    HW1  698   1.095   2.606   2.867 -3.2945  4.7643  1.4537
  233SOL    HW2  699   1.175   2.626   3.018  1.0957 -2.3161 -0.1237
  234SOL     OW  700   0.610   1.180   1.850  0.1906  0.0886  0.2119
  234SOL    HW1  701   0.518   1.137   1.870 -0.5655 -0.5544  1.9451
  234SOL    HW2  702   0.674   1.183   1.927  1.5222 -1.1217  1.3099
  235SOL     OW  703   0.069   2.272   2.616 -0.1144 -0.1606 -0.2496
  235SOL    HW1  704   0.150   2.306   2.563  0.3270  1.6142 -1.6520
  235SOL    HW2  705   3.117   2.341   2.625 -0.2026 -2.3637 -3.3698
  236SOL     OW  706   1.715   2.152   2.877  0.3018 -0.4833  0.2048
  236SOL    HW1  707   1.628   2.160   2.930 -1.1975  2.5088  1.1618
  236SOL    HW2  708   1.714   2.064   2.825 -0.1227  1.0712  0.4945
  237SOL     OW  709   1.969   1.027   0.916 -0.3332  0.8518 -0.5401
  237SOL    HW1  710   1.985   0.975   1.003 -1.1111 -1.0458 -0.2942
  237SOL    HW2  711   2.000   1.124   0.914  2.3594  0.4361  1.4864
  238SOL     OW  712   1.143   2.520   2.073  0.4160  0.1321 -0.2987
  238SOL    HW1  713   1.080   2.451   2.115 -2.8415 -0.2594 -1.5659
  238SOL    HW2  714   1.124   2.613   2.105 -1.4977 -0.0979  0.7477
  239SOL     OW  715   0.757   2.413   1.950  0.2547 -0.3463  0.0874
  239SOL    HW1  716   0.760   2.311   1.968  0.5055 -0.4571  0.4825
  239SOL    HW2  717   0.791   2.425   1.851  0.8850  4.2138  0.3306
  240SOL     OW  718   2.613   0.061   0.597  0.3389 -0.7798 -0.1994
  240SOL    HW1  719   2.678   0.015   0.534 -0.0495 -0.9444  0.1307
  240SOL    HW2  720   2.631   0.165   0.586  1.5787  3.6065 -0.6321
  241SOL     OW  721   1.173   1.546   3.074  0.0253  0.4549  0.1894
  241SOL    HW1  722   1.131   1.457   3.117 -1.4344 -1.1977  0.4182
  241SOL    HW2  723   1.207   1.525   2.980  0.7522  0.4035 -3.5324
  242SOL     OW  724   2.617   0.876   3.034  0.3215  0.3739  0.3248
  242SOL    HW1  725   2.657   0.865   0.005 -0.3406  1.5077  1.0165
  242SOL    HW2  726   2.662   0.958   2.988  1.8700  2.6792  0.5572
  243SOL     OW  727   0.857   0.552   1.957  0.1575 -0.1305  0.2373
  243SOL    HW1  728   0.869   0.653   1.981 -3.1317  2.1114  2.4674
  243SOL    HW2  729   0.784   0.541   1.885 -2.4812  3.6659 -0.9541
  244SOL     OW  730   1.327   2.659   3.101 -0.4149  0.1341 -0.0407
  244SOL    HW1  731   1.415   2.607   3.098 -2.2996  0.2058 -2.9620
  244SOL    HW2  732   1.332   2.730   0.051  0.1933 -2.9656 -0.0704
  245SOL     OW  733   1.659   2.282   0.274  0.6387  0.3326 -0.8872
  245SOL    HW1  734   1.621   2.221   0.202 -0.1597  1.2067 -1.1259
  245SOL    HW2  735   1.758   2.277   0.272 -2.4775 -2.8581  2.3533
  246SOL     OW  736   0.949   1.110   2.219 -0.1091 -0.0258 -0.0648
  246SOL    HW1  737   1.022   1.043   2.195 -0.1720  0.4223 -0.7932
  246SOL    HW2  738   0.871   1.051   2.251 -1.1336 -0.0416  0.5257
  247SOL     OW  739   0.166   0.713   2.468 -0.2746  0.0339 -1.0175
  247SOL    HW1  740   0.264   0.744   2.452  2.2516  0.3034  0.2645
  247SOL    HW2  741   0.155   0.636   2.536 -0.0765 -2.4256  0.0196
  248SOL     OW  742   0.186   1.208   1.990  0.3197  0.3658 -0.4742
  248SOL    HW1  743   0.093   1.168   2.001  2.8437  1.4620 -1.6259
  248SOL    HW2  744   0.254   1.155   2.047  0.8039  1.0307 -2.0021
  249SOL     OW  745   3.092   0.417   0.188 -0.0584 -0.6508  0.1311
  249SOL    HW1  746   3.109   0.477   0.108 -1.7801  0.4259  3.0604
  249SOL    HW2  747   3.017   0.454   0.250 -0.9376 -0.0596 -2.0129
  250SOL     OW  748   2.893   0.011   3.101 -0.3531  0.1555 -0.5944
  250SOL    HW1  749   2.965   3.068   3.064  0.3781  1.2373 -2.2185
  250SOL    HW2  750   2.801   3.089   3.107 -1.0285 -0.5908 -0.8761
  251SOL     OW  751   1.161   1.472   2.016 -0.0720  0.0849  0.2176
  251SOL    HW1  752   1.161   1.480   2.117  0.6881 -0.0526 -0.4566
  251SOL    HW2  753   1.176   1.376   1.991  0.5786  0.6178 -3.2656
  252SOL     OW  754   2.087   1.868   1.462  0.0176  0.2319 -0.1855
  252SOL    HW1  755   2.191   1.860   1.454  1.1437 -0.3507 -0.7479
  252SOL    HW2  756   2.058   1.802   1.534  0.6221 -3.1566  0.6572
  253SOL     OW  757   1.997   2.496   2.244  0.1201 -0.0515 -0.2214
  253SOL    HW1  758   1.926   2.463   2.178  0.6099  3.3192  3.7425
  253SOL    HW2  759   2.000   2.434   2.325  2.5082  1.8774  1.3563
  254SOL     OW  760   0.598   2.227   2.223  0.4913 -0.3476  0.2846
  254SOL    HW1  761   0.613   2.330   2.224 -0.2469  1.3913 -0.9424
  254SOL    HW2  762   0.601   2.178   2.129 -0.6748  0.8253  0.4008
  255SOL     OW  763   1.619   0.382   0.899  0.4811 -0.4199  0.1034
  255SOL    HW1  764   1.583   0.340   0.812 -1.8114  0.1492  0.7600
  255SOL    HW2  765   1.671   0.471   0.889 -1.2815 -0.4608 -1.2899
  256SOL     OW  766   2.333   2.266   1.425  0.8504  0.2016  0.0671
  256SOL    HW1  767   2.286   2.352   1.458  0.4404 -0.5081  0.0890
  256SOL    HW2  768   2.317   2.254   1.327  2.5336 -1.3316 -0.2681
  257SOL     OW  769   0.377   2.581   2.805 -0.1907  0.4572  0.3714
  257SOL    HW1  770   0.287   2.538   2.822 -1.3292  0.2128  0.3445
  257SOL    HW2  771   0.408   2.634   2.884 -1.8320  1.1432  0.7716
  258SOL     OW  772   0.676   0.814   2.143  0.1689 -0.4387 -0.2224
  258SOL    HW1  773   0.683   0.892   2.211  0.0024 -0.0204  0.9377
  258SOL    HW2  774   0.743   0.819   2.067  1.6322  2.6196  2.2622
  259SOL     OW  775   1.066   1.182   2.449  0.1445 -0.0204 -0.1222
  259SOL    HW1  776   1.130   1.257   2.470 -0.3180 -0.7814 -0.4075
  259SOL    HW2  777   1.058   1.170   2.348  1.5779  0.8302 -1.4686
  260SOL     OW  778   2.125   0.900   0.468  0.1394  0.1029 -0.1426
  260SOL    HW1  779   2.213   0.907   0.512 -2.3551 -0.7442 -1.6036
  260SOL    HW2  780   2.128   0.876   0.363  0.0522  2.3649 -0.9842
  261SOL     OW  781   1.038   0.050   0.650  0.4483  0.3881 -0.2085
  261SOL    HW1  782   1.014   0.103   0.565  1.2777 -2.1071  2.5397
  261SOL    HW2  783   1.128   0.071   0.690 -1.5986 -3.0841  0.1224
  262SOL     OW  784   2.169   2.521   2.582 -0.0752  0.5034  0.8946
  262SOL    HW1  785   2.231   2.587   2.532  1.4605 -2.5418 -1.5735
  262SOL    HW2  786   2.089   2.504   2.519 -1.0068  2.9139 -0.7786
  263SOL     OW  787   0.452   1.638   3.011  0.1538 -0.0801  0.0463
  263SOL    HW1  788   0.511   1.640   2.931 -0.3789 -1.4138 -2.6607
  263SOL    HW2  789   0.356   1.663   2.984  0.2752 -0.8106 -0.5831
  264SOL     OW  790   0.456   1.653   1.512  0.0256  0.0746  0.0269
  264SOL    HW1  791   0.444   1.754   1.532  0.7857  1.6989 -0.1227
  264SOL    HW2  792   0.553   1.634   1.491  0.8386  0.5426  1.4564
  265SOL     OW  793   0.958   0.818   0.533 -0.0782  0.2379  0.4916
  265SOL    HW1  794   1.023   0.765   0.472 -3.0423 -1.2097  1.3798
  265SOL    HW2  795   0.921   0.903   0.492  1.8927  0.6923  1.3984
  266SOL     OW  796   1.094   1.816   3.006 -0.4697 -0.4638  0.0249
  266SOL    HW1  797   1.142   1.830   2.917  1.2853 -2.5611  0.4703
  266SOL    HW2  798   1.108   1.723   3.037  0.6658  1.8320  1.6721
  267SOL     OW  799   0.274   0.393   3.007  0.1539  0.3392 -0.2035
  267SOL    HW1  800   0.235   0.317   2.956  0.3284  1.5610  1.4442
  267SOL    HW2  801   0.348   0.351   3.065  0.7443 -0.3720  2.5508
  268SOL     OW  802   1.000   0.451   2.850  0.1472 -0.1179 -0.8292
  268SOL    HW1  803   0.908   0.422   2.887 -1.4766  0.2982 -0.7874
  268SOL    HW2  804   1.002   0.551   2.824  2.5797  2.0281 -0.8289
  269SOL     OW  805   1.661   0.050   2.740 -0.3785 -0.2533  0.2100
  269SOL    HW1  806   1.646   0.015   2.640  0.5029 -1.8971 -1.6757
  269SOL    HW2  807   1.591   0.116   2.760  1.8460 -3.6303  1.4328
  270SOL     OW  808   0.798   0.742   2.726 -0.2494 -0.5972  0.8074
  270SOL    HW1  809   0.793   0.677   2.649  4.0869  2.0116 -0.8695
  270SOL    HW2  810   0.872   0.808   2.709 -2.5273  0.1342 -0.6782
  271SOL     OW  811   0.175   1.048   0.188  0.3779  0.6989  0.1181
  271SOL    HW1  812   0.269   1.019   0.160 -0.0245 -1.8901  1.1093
  271SOL    HW2  813   0.145   1.001   0.277 -1.7356 -0.4360  0.1954
  272SOL     OW  814   2.283   1.275   2.527 -0.0380  0.1141 -0.6031
  272SOL    HW1  815   2.325   1.350   2.468  1.1420 -2.4665  0.8007
  272SOL    HW2  816   2.325   1.269   2.618  1.3412 -0.8153 -0.2754
  273SOL     OW  817   3.013   0.409   2.352 -0.0578 -0.4957  0.0352
  273SOL    HW1  818   3.105   0.401   2.316 -0.8322  1.6038  1.3666
  273SOL    HW2  819   3.012   0.433   2.452 -0.0310 -0.1623  0.8621
  274SOL     OW  820   2.773   0.151   1.697  0.0837  0.7859  0.0806
  274SOL    HW1  821   2.682   0.108   1.683 -0.0201 -2.0488  3.6453
  274SOL    HW2  822   2.782   0.242   1.657  0.8835 -1.6199 -1.6579
  275SOL     OW  823   1.941   1.413   0.158  0.5782 -0.3406  0.4693
  275SOL    HW1  824   1.962   1.512   0.137  0.8248  2.0296  1.8206
  275SOL    HW2  825   1.858   1.412   0.216  3.8300 -1.5873 -1.2915
  276SOL     OW  826   0.280   1.327   2.792  0.0844 -0.3336  0.2796
  276SOL    HW1  827   0.240   1.419   2.783  1.2458  0.4359 -1.2492
  276SOL    HW2  828   0.221   1.250   2.776  1.0014  1.3216  0.4343
  277SOL     OW  829   1.826   2.750   2.293 -0.1078  0.3096  0.3937
  277SOL    HW1  830   1.860   2.655   2.276 -0.9182  1.2822  2.2574
  277SOL    HW2  831   1.749   2.739   2.352  1.7509  0.5657 -3.5506
  278SOL     OW  832   2.026   3.079   1.275 -0.5425  0.7437  0.3905
  278SOL    HW1  833   1.944   3.019   1.258 -3.7567  1.6640 -2.0519
  278SOL    HW2  834   2.009   0.004   1.361  1.0078 -0.7188  2.1039
  279SOL     OW  835   0.960   1.382   2.852  0.0715 -0.5691  0.3747
  279SOL    HW1  836   1.018   1.460   2.821 -0.7595  0.7581 -3.1354
  279SOL    HW2  837   0.940   1.391   2.951  0.3948  0.3699  0.7629
  280SOL     OW  838   0.781   1.411   0.450 -0.2329 -0.0825 -0.1406
  280SOL    HW1  839   0.726   1.468   0.388 -0.0976  0.7765  1.0256
  280SOL    HW2  840   0.879   1.438   0.448 -0.0257 -0.8793  1.0664
  281SOL     OW  841   0.050   2.715   2.078  0.0358 -0.0199  0.1912
  281SOL    HW1  842   3.097   2.648   2.082 -1.8464 -1.9830 -2.0405
  281SOL    HW2  843   0.091   2.734   2.170 -0.1431 -1.0498 -1.4906
  282SOL     OW  844   0.160   2.161   1.050  0.3380 -0.2734  0.2704
  282SOL    HW1  845   0.260   2.156   1.032 -1.3354  2.4643 -0.1831
  282SOL    HW2  846   0.127   2.068   1.051  0.0941  2.8041  1.7727
  283SOL     OW  847   1.332   2.233   2.278 -0.7989 -0.3440  0.3295
  283SOL    HW1  848   1.258   2.218   2.208  3.6116  0.3708  1.8532
  283SOL    HW2  849   1.369   2.327   2.269 -0.3872 -1.2170  0.0251
  284SOL     OW  850   2.363   0.984   0.153  0.1191 -0.0478  0.0759
  284SOL    HW1  851   2.322   1.068   0.190  2.7986 -1.2160  2.3531
  284SOL    HW2  852   2.360   0.974   0.051 -0.3137  0.0847  0.3541
  285SOL     OW  853   2.706   2.831   2.646  0.2236 -0.2096  0.3097
  285SOL    HW1  854   2.788   2.875   2.690 -0.7468 -0.3646  1.4090
  285SOL    HW2  855   2.736   2.742   2.609  1.4845 -0.3852  0.1003
  286SOL     OW  856   1.910   2.709   1.166 -0.3503  0.5010 -0.0675
  286SOL    HW1  857   1.891   2.781   1.241 -1.1194 -0.0544  0.9068
  286SOL    HW2  858   1.865   2.619   1.191 -1.5590 -1.7510  1.8097
  287SOL     OW  859   0.601   1.224   1.131 -1.0300  0.3853 -0.3603
  287SOL    HW1  860   0.582   1.257   1.040 -2.6242 -1.8212  4.3013
  287SOL    HW2  861   0.689   1.169   1.132  2.1424 -2.9047 -1.3327
  288SOL     OW  862   1.255   2.200   0.119 -0.2630  0.1422  0.0731
  288SOL    HW1  863   1.255   2.274   0.189  0.6839  2.1292  1.5093
  288SOL    HW2  864   1.338   2.144   0.123 -2.2105  0.4677 -0.5785
  289SOL     OW  865   0.217   1.853   2.408  0.3032  0.1380  0.3840
  289SOL    HW1  866   0.214   1.759   2.376  0.0062  2.0963 -2.8100
  289SOL    HW2  867   0.309   1.881   2.433 -1.8844  0.6156 -0.5177
  290SOL     OW  868   1.216   2.152   1.008  0.4918  0.1973 -0.0065
  290SOL    HW1  869   1.155   2.222   1.045 -2.2650  0.1603  3.5820
  290SOL    HW2  870   1.174   2.059   1.001  0.4762 -1.2626  0.9941
  291SOL     OW  871   1.846   1.444   2.935  0.0206  0.4028 -0.0299
  291SOL    HW1  872   1.922   1.433   2.873 -0.1860  1.7092  1.9461
  291SOL    HW2  873   1.863   1.530   2.987  0.2643 -1.5339  0.7053
  292SOL     OW  874   1.314   1.373   1.721 -0.5305  0.3385 -0.1660
  292SOL    HW1  875   1.234   1.440   1.722 -3.6958  0.6654  0.8221
  292SOL    HW2  876   1.284   1.274   1.735 -2.5143  1.1050 -1.3443
  293SOL     OW  877   1.680   2.777   1.013  0.3841  0.6375 -0.1798
  293SOL    HW1  878   1.747   2.783   1.089 -0.2525  0.0466  1.1858
  293SOL    HW2  879   1.712   2.724   0.928  1.5524  0.1197  0.4778
  294SOL     OW  880   0.166   1.186   2.348 -0.1361 -0.0596 -0.3011
  294SOL    HW1  881   0.162   1.281   2.379  1.6349 -2.9959  0.3093
  294SOL    HW2  882   0.093   1.131   2.394 -2.3396  0.5889 -0.5784
  295SOL     OW  883   0.888   1.996   2.848  0.1161  0.0410  0.3607
  295SOL    HW1  884   0.963   2.061   2.874 -0.7078  1.0000  1.8581
  295SOL    HW2  885   0.826   1.986   2.931 -1.0972  1.4774  1.8819
  296SOL     OW  886   1.747   1.746   2.306 -0.2722 -0.4809  0.4268
  296SOL    HW1  887   1.727   1.762   2.205 -0.4296 -0.2815 -1.1174
  296SOL    HW2  888   1.658   1.728   2.350  3.5037 -1.5297 -0.5132
  297SOL     OW  889   2.856   0.707   2.654  0.1154  0.4922 -0.2170
  297SOL    HW1  890   2.915   0.623   2.632 -0.3740 -0.5367  0.4655
  297SOL    HW2  891   2.784   0.683   2.722  0.9545  0.1329  1.4537
  298SOL     OW  892   0.967   2.184   2.501  0.1587 -0.2846 -0.0573
  298SOL    HW1  893   0.923   2.195   2.594  1.6287  0.0828  1.1684
  298SOL    HW2  894   0.909   2.136   2.436  0.0586  3.7632  4.3338
  299SOL     OW  895   0.932   2.842   2.684 -0.1514  0.6938 -0.7460
  299SOL    HW1  896   0.856   2.865   2.616 -1.0236 -1.2436 -2.2141
  299SOL    HW2  897   0.912   2.743   2.706 -0.4480 -3.7194  0.2377
  300SOL     OW  898   2.885   0.517   3.031  0.4317  0.3328 -0.3993
  300SOL    HW1  899   2.882   0.408   3.019 -0.8697 -2.9867 -0.9411
  300SOL    HW2  900   2.979   0.546   3.052  0.0801 -1.7407 -1.2253
  301SOL     OW  901   1.278   0.743   1.314  0.2401  0.7543  0.6216
  301SOL    HW1  902   1.299   0.703   1.218  0.8809 -0.8507  2.2364
  301SOL    HW2  903   1.274   0.846   1.317  0.8498  2.0593 -1.9756
  302SOL     OW  904   3.020   1.871   2.740  0.3123  0.1602  0.4116
  302SOL    HW1  905   3.101   1.914   2.690  0.1867  0.0797  0.4957
  302SOL    HW2  906   3.014   1.769   2.725  0.8146 -2.5843 -0.9249
  303SOL     OW  907   2.994   3.115   2.518  0.0176 -0.0933 -0.3101
  303SOL    HW1  908   2.952   3.046   2.454 -0.8860 -0.0042  0.0408
  303SOL    HW2  909   2.937   0.076   2.529  0.0120 -1.5066  0.7488
  304SOL     OW  910   3.061   0.348   1.639 -0.1353 -0.1773 -0.3481
  304SOL    HW1  911   3.093   0.341   1.544 -1.2641 -1.2802  0.7176
  304SOL    HW2  912   0.022   0.353   1.701  0.1377  0.9569  1.0547
  305SOL     OW  913   0.037   2.993   2.151 -0.2516  0.0667 -0.2429
  305SOL    HW1  914   0.057   2.903   2.111 -0.0018  1.1502 -0.0770
  305SOL    HW2  915   3.084   2.985   2.214 -0.5229  0.1228  0.5796
  306SOL     OW  916   2.619   1.216   1.425  0.3001  0.1054  0.5617
  306SOL    HW1  917   2.706   1.184   1.462  0.0043  1.2547 -1.4748
  306SOL    HW2  918   2.548   1.217   1.499  0.5185  2.1913 -0.2366
  307SOL     OW  919   2.073   0.425   1.275  0.0289  0.5642 -0.1759
  307SOL    HW1  920   2.088   0.450   1.371 -1.1892  0.1509 -0.7163
  307SOL    HW2  921   1.991   0.361   1.258 -0.5806  1.5807  1.8377
  308SOL     OW  922   0.158   2.138   1.402  0.5361 -0.2364 -0.3136
  308SOL    HW1  923   0.073   2.192   1.377  0.4563 -2.3683 -1.1242
  308SOL    HW2  924   0.168   2.055   1.341  0.4756 -1.8201  1.5245
  309SOL     OW  925   2.363   1.838   1.438 -0.1647  0.3427  0.0726
  309SOL    HW1  926   2.418   1.751   1.448 -3.0409 -0.7865  1.7428
  309SOL    HW2  927   2.401   1.913   1.495 -1.8049 -0.4086  0.4021
  310SOL     OW  928   2.776   1.743   3.115 -0.3012 -0.3795 -0.1936
  310SOL    HW1  929   2.868   1.795   3.111  3.4534 -2.0771 -1.8630
  310SOL    HW2  930   2.744   1.713   0.081 -1.0792 -0.1196 -2.3396
  311SOL     OW  931   2.201   1.653   2.517 -0.2041 -0.0317 -0.1216
  311SOL    HW1  932   2.110   1.629   2.477  0.1979  1.0274  1.1737
  311SOL    HW2  933   2.201   1.749   2.557  0.8542  2.3974  1.2209
  312SOL     OW  934   2.433   2.314   0.885 -0.7227 -0.0911 -0.4550
  312SOL    HW1  935   2.457   2.216   0.863  1.9204  0.9882  1.3196
  312SOL    HW2  936   2.375   2.357   0.814  0.1181  0.4287  1.0386
  313SOL     OW  937   3.001   2.558   1.112  0.0013  0.3749 -0.5273
  313SOL    HW1  938   3.044   2.489   1.048  1.3930 -2.7325 -0.3206
  313SOL    HW2  939   2.899   2.549   1.110  0.7032 -0.8064  1.0188
  314SOL     OW  940   1.292   2.153   1.381  0.4604  0.4227 -0.1278
  314SOL    HW1  941   1.390   2.154   1.360 -0.2222  0.7108 -0.8577
  314SOL    HW2  942   1.265   2.075   1.444  0.0650  0.1155  0.3927
  315SOL     OW  943   0.170   2.745   2.317  0.1330 -0.0705 -0.1044
  315SOL    HW1  944   0.120   2.702   2.397  0.4310  0.3453  4.6544
  315SOL    HW2  945   0.198   2.842   2.338 -0.7026  0.1365 -0.0680
  316SOL     OW  946   3.050   1.953   0.821 -0.6818  0.1279  0.2909
  316SOL    HW1  947   3.099   1.948   0.908 -2.8876 -0.6088 -1.0960
  316SOL    HW2  948   3.026   1.857   0.788 -1.4333  2.1975 -0.1618
  317SOL     OW  949   1.957   0.148   0.346 -0.4962 -0.1155 -0.1242
  317SOL    HW1  950   1.857   0.161   0.331  2.5050 -1.1318  0.5983
  317SOL    HW2  951   1.972   0.128   0.448 -0.8940  1.4022  1.6142
  318SOL     OW  952   2.828   2.844   0.239 -0.0261 -0.3964 -0.5120
  318SOL    HW1  953   2.808   2.815   0.143  1.4803 -1.1779 -1.2413
  318SOL    HW2  954   2.765   2.911   0.279  2.1923  0.1292 -0.5472
  319SOL     OW  955   1.354   1.588   0.185  0.2338 -0.0367 -0.1012
  319SOL    HW1  956   1.429   1.658   0.184  0.8044 -3.4026  0.8906
  319SOL    HW2  957   1.308   1.579   0.092 -1.4963 -2.8758 -0.7056
  320SOL     OW  958   0.524   2.991   2.693  0.8890  0.5160  0.2517
  320SOL    HW1  959   0.574   2.944   2.617  0.5269  1.3070 -1.1447
  320SOL    HW2  960   0.432   2.949   2.707  0.6642 -0.8144  0.1439
  321SOL     OW  961   1.067   0.032   0.085 -0.1622  0.0764  0.2240
  321SOL    HW1  962   1.090   0.014   0.182 -1.6641  0.0148 -0.1919
  321SOL    HW2  963   1.003   3.083   0.054  1.9691  0.2413  1.2427
  322SOL     OW  964   2.443   1.223   1.855 -0.2311  0.2164  0.5849
  322SOL    HW1  965   2.379   1.201   1.933  0.3438 -0.5799 -0.0915
  322SOL    HW2  966   2.512   1.290   1.891 -1.6062  1.1130  1.0103
  323SOL     OW  967   2.570   1.023   0.464 -0.4453 -0.2262  0.4567
  323SOL    HW1  968   2.587   0.923   0.471  0.6059  0.1757 -0.7904
  323SOL    HW2  969   2.601   1.060   0.373 -1.1329  1.4410 -0.0567
  324SOL     OW  970   0.190   0.488   2.708  0.1508  0.2896 -0.1492
  324SOL    HW1  971   0.267   0.506   2.771  0.3182  1.2278  0.1927
  324SOL    HW2  972   0.202   0.396   2.660 -1.7808  2.2590  0.3613
  325SOL     OW  973   1.362   2.916   2.062 -0.2288  0.0105 -0.3385
  325SOL    HW1  974   1.432   2.911   1.989  1.7228  1.9963  0.7910
  325SOL    HW2  975   1.277   2.868   2.029 -1.7161  0.8181  2.0130
  326SOL     OW  976   2.561   0.031   1.595 -0.2544 -0.5187 -0.5231
  326SOL    HW1  977   2.463   0.053   1.605 -0.2440  0.0002  2.5015
  326SOL    HW2  978   2.601   0.057   1.508 -1.1385  2.1242  4.1351
  327SOL     OW  979   1.876   0.725   3.058  0.1774 -0.8477 -0.3976
  327SOL    HW1  980   1.831   0.651   3.114 -2.1813 -2.8105  2.7690
  327SOL    HW2  981   1.949   0.683   2.999 -0.3704  0.5487  2.7457
  328SOL     OW  982   2.865   1.470   2.305  0.2234  0.1812  0.4434
  328SOL    HW1  983   2.901   1.377   2.291  0.0916  3.4918 -0.3626
  328SOL    HW2  984   2.926   1.525   2.361 -0.7071  0.6884  0.3460
  329SOL     OW  985   1.394   2.670   1.764 -0.6590 -0.2741  0.0492
  329SOL    HW1  986   1.379   2.650   1.863  1.2950  1.7177  2.0987
  329SOL    HW2  987   1.486   2.647   1.738 -2.0287  0.5872  0.9871
  330SOL     OW  988   2.691   1.620   1.854 -0.7354 -0.1443 -0.3888
  330SOL    HW1  989   2.763   1.597   1.786 -0.8433 -0.4207  0.0271
  330SOL    HW2  990   2.728   1.634   1.948 -2.2832 -0.7189 -1.3696
  331SOL     OW  991   0.056   2.164   0.676 -0.7680 -0.0024 -0.0798
  331SOL    HW1  992   0.023   2.085   0.732 -0.1387  0.1500 -0.3714
  331SOL    HW2  993   0.055   2.136   0.575 -0.2614 -0.0618 -1.7996
  332SOL     OW  994   0.635   0.345   0.530  0.3541  0.1732  0.1570
  332SOL    HW1  995   0.552   0.369   0.588 -1.9478 -0.3453  4.3902
  332SOL    HW2  996   0.719   0.381   0.575 -3.0352  0.7253 -1.0242
  333SOL     OW  997   2.043   2.868   2.401 -0.5416  0.2251 -0.5714
  333SOL    HW1  998   1.970   2.812   2.353 -1.5540 -1.4767  3.5422
  333SOL    HW2  999   2.043   2.966   2.370 -1.1574  3.1155  0.1055
  334SOL     OW 1000   1.165   1.299   0.987  0.3823 -0.1253  0.6328
  334SOL    HW1 1001   1.240   1.242   1.005  0.4781  1.9309  0.5957
  334SOL    HW2 1002   1.185   1.396   1.004 -0.0245 -1.3102 -2.2336
  335SOL     OW 1003   0.089   2.596   2.520 -0.1502 -0.5113 -0.1506
  335SOL    HW1 1004   0.164   2.538   2.544 -3.6242  0.4957  0.6954
  335SOL    HW2 1005   0.021   2.587   2.594  2.0024  2.7845  2.4366
  336SOL     OW 1006   2.739   2.533   1.856 -0.9872 -0.0704  0.4122
  336SOL    HW1 1007   2.824   2.591   1.876  0.8776  3.1406  0.1495
  336SOL    HW2 1008   2.759   2.477   1.777 -1.4563  1.8967  2.4626
  337SOL     OW 1009   2.085   1.552   0.731 -0.2033 -0.2369  0.1014
  337SOL    HW1 1010   2.140   1.511   0.808  0.2719  0.6535 -2.8782
  337SOL    HW2 1011   1.986   1.562   0.762 -1.2992  1.8328  2.6905
  338SOL     OW 1012   1.199   1.901   1.492  0.2202  0.1864  0.5413
  338SOL    HW1 1013   1.189   1.856   1.581 -0.2012  2.5449 -1.3901
  338SOL    HW2 1014   1.286   1.875   1.442  1.5433  1.9739 -0.3781
  339SOL     OW 1015   3.011   0.544   1.130  0.1329 -0.1214  0.6682
  339SOL    HW1 1016   3.106   0.583   1.138  0.8361 -3.9454 -0.5735
  339SOL    HW2 1017   2.948   0.600   1.189 -1.2005 -0.4103  2.4361
  340SOL     OW 1018   1.755   2.668   1.926  0.4648 -0.3141  0.5197
  340SOL    HW1 1019   1.769   2.586   1.988  1.1716 -2.1197 -1.4315
  340SOL    HW2 1020   1.770   2.756   1.974 -3.4303  0.9844  1.1540
  341SOL     OW 1021   2.206   1.466   0.957  0.1005 -0.3019  0.4405
  341SOL    HW1 1022   2.305   1.461   0.968 -3.0490 -1.9555  0.3875
  341SOL    HW2 1023   2.176   1.548   1.013  3.4034  1.8402  0.8006
  342SOL     OW 1024   0.341   1.754   0.788 -0.1656  0.0750  0.3321
  342SOL    HW1 1025   0.398   1.668   0.788  1.8598 -1.8381 -0.8484
  342SOL    HW2 1026   0.246   1.733   0.754 -2.0027  0.2103 -1.7022
  343SOL     OW 1027   2.486   0.918   1.536  0.1628  0.1877  0.2428
  343SOL    HW1 1028   2.432   0.997   1.569  0.5127 -2.4774  2.0661
  343SOL    HW2 1029   2.551   0.897   1.613  1.9539 -0.6117  1.9642
  344SOL     OW 1030   2.269   0.285   0.801  0.3082 -0.3417 -0.0548
  344SOL    HW1 1031   2.272   0.387   0.779  2.9661  2.2835 -0.7764
  344SOL    HW2 1032   2.301   0.236   0.718 -0.3060  2.0444  0.9642
  345SOL     OW 1033   2.979   2.496   2.370 -0.6291  0.5356 -0.0303
  345SOL    HW1 1034   3.055   2.513   2.441  3.2135  0.0667  2.6803
  345SOL    HW2 1035   2.923   2.580   2.363  3.4751 -2.4953  1.4108
  346SOL     OW 1036   0.017   1.411   0.464  0.2805 -0.1456 -0.2663
  346SOL    HW1 1037   3.101   1.339   0.410 -0.3982  2.0821  1.6179
  346SOL    HW2 1038   3.081   1.490   0.459  0.7463 -0.3255  2.4363
  347SOL     OW 1039   1.843   2.866   1.347 -0.0894  0.0549 -0.1980
  347SOL    HW1 1040   1.909   2.864   1.423 -1.0788 -0.5151  0.5103
  347SOL    HW2 1041   1.750   2.860   1.380  0.9541 -3.0030 -1.2336
  348SOL     OW 1042   1.268   1.096   1.685  0.6274 -0.0900  0.2077
  348SOL    HW1 1043   1.324   1.046   1.754 -4.0432  1.3787 -2.2953
  348SOL    HW2 1044   1.167   1.070   1.689 -1.5968  0.4066 -0.7107
  349SOL     OW 1045   2.365   1.643   2.045 -0.3947  0.4808  0.3073
  349SOL    HW1 1046   2.441   1.576   2.032  0.5140 -0.3607 -0.0289
  349SOL    HW2 1047   2.381   1.715   2.112 -0.7408 -1.8753 -1.7613
  350SOL     OW 1048   2.800   2.152   0.625  0.1205  0.3208 -0.2837
  350SOL    HW1 1049   2.805   2.226   0.694  1.0121  0.5504 -0.3473
  350SOL    HW2 1050   2.877   2.144   0.560 -1.1809  3.2099 -1.5526
  351SOL     OW 1051   0.211   0.351   1.754  0.2566 -0.1900  0.3212
  351SOL    HW1 1052   0.259   0.270   1.787  2.4117  0.7525 -0.1991
  351SOL    HW2 1053   0.211   0.430   1.823 -0.1861  1.1641  0.3430
  352SOL     OW 1054   1.144   2.701   1.657 -0.3417 -0.2681 -0.4358
  352SOL    HW1 1055   1.139   2.728   1.557  0.4154 -0.3385 -3.6582
  352SOL    HW2 1056   1.240   2.701   1.693  1.2250 -0.2183 -0.8772
  353SOL     OW 1057   0.637   1.388   2.763  0.4448  0.2808  0.2987
  353SOL    HW1 1058   0.714   1.364   2.703  2.2184 -0.0011  0.3250
  353SOL    HW2 1059   0.555   1.358   2.720  4.1011 -0.1537  0.0795
  354SOL     OW 1060   1.541   1.779   0.163  0.3195  0.3209 -0.4024
  354SOL    HW1 1061   1.566   1.777   0.261  0.4203 -0.7803  0.3609
  354SOL    HW2 1062   1.620   1.752   0.098  1.0589  1.5805 -3.6175
  355SOL     OW 1063   1.982   0.277   0.785  0.5023  0.0482  0.2235
  355SOL    HW1 1064   1.926   0.284   0.873  1.0723  0.3862  0.5781
  355SOL    HW2 1065   2.079   0.298   0.818 -2.2340  2.6643  0.2346
  356SOL     OW 1066   0.043   1.369   3.051 -0.2395 -0.2842  1.0147
  356SOL    HW1 1067   0.114   1.356   0.001 -0.6191 -1.4172  0.4390
  356SOL    HW2 1068   3.085   1.314   3.065  1.7418 -1.0471 -1.9728
  357SOL     OW 1069   0.062   0.057   1.754 -0.8516 -0.4145 -0.3159
  357SOL    HW1 1070   0.132   3.113   1.786  0.1448  0.3398  1.9094
  357SOL    HW2 1071   3.098   0.060   1.804  1.1759  1.2867  0.6229
  358SOL     OW 1072   0.382   1.284   3.060 -0.5953  0.1022 -0.0066
  358SOL    HW1 1073   0.331   1.288   2.972 -2.3807  1.5354  2.3867
  358SOL    HW2 1074   0.321   1.314   0.014 -0.0656 -0.1692 -0.1315
  359SOL     OW 1075   2.583   2.607   2.508  0.4269  0.6748 -0.3671
  359SOL    HW1 1076   2.492   2.658   2.514 -2.3853  2.7268  1.5040
  359SOL    HW2 1077   2.629   2.626   2.418 -0.5322  1.2219 -0.4515
  360SOL     OW 1078   1.521   1.434   0.882 -0.3217  0.4084  0.9813
  360SOL    HW1 1079   1.452   1.376   0.828 -0.7559 -0.5575 -3.1060
  360SOL    HW2 1080   1.529   1.403   0.976 -2.0325 -1.2894 -2.6594
  361SOL     OW 1081   2.182   2.389   1.040  0.6609  0.3897 -0.0872
  361SOL    HW1 1082   2.227   2.297   1.048 -0.1035  0.7051 -0.2661
  361SOL    HW2 1083   2.232   2.459   1.089  0.4184 -0.7049 -2.1955
  362SOL     OW 1084   2.088   1.663   1.089 -0.4808  0.0676  0.4513
  362SOL    HW1 1085   2.117   1.728   1.014 -1.5196  1.0048  0.3055
  362SOL    HW2 1086   2.025   1.715   1.154 -1.6142 -0.5765 -1.0752
  363SOL     OW 1087   2.586   2.298   0.313  0.3870 -0.4012 -0.0277
  363SOL    HW1 1088   2.531   2.228   0.361 -1.1038 -0.1494  1.4056
  363SOL    HW2 1089   2.651   2.243   0.260 -1.1599 -0.1848 -5.0369
  364SOL     OW 1090   2.698   0.107   1.358  0.4556  0.0835  0.0584
  364SOL    HW1 1091   2.728   0.201   1.330 -0.1474 -0.7974  4.0219
  364SOL    HW2 1092   2.767   0.038   1.329  1.0538 -1.7428 -0.9303
  365SOL     OW 1093   0.611   2.947   1.189 -0.4781 -0.2226 -0.0504
  365SOL    HW1 1094   0.667   2.904   1.119 -1.3241  0.0331 -2.1090
  365SOL    HW2 1095   0.622   2.901   1.280  0.3399  1.6544  1.4555
  366SOL     OW 1096   2.943   1.592   0.299  0.2203 -0.5615 -0.2366
  366SOL    HW1 1097   2.844   1.571   0.289 -1.2134 -1.2220  0.3352
  366SOL    HW2 1098   2.986   1.610   0.210 -0.0036 -2.4260  1.8403
  367SOL     OW 1099   2.225   2.470   2.835 -0.3676  0.4244 -0.0477
  367SOL    HW1 1100   2.213   2.498   2.740 -1.4905  0.1258  2.4201
  367SOL    HW2 1101   2.293   2.394   2.836 -0.1172 -0.0453 -0.6628
  368SOL     OW 1102   2.527   2.089   0.759 -0.0364  0.1284 -0.1487
  368SOL    HW1 1103   2.473   2.051   0.682 -2.0645 -1.6993 -0.3040
  368SOL    HW2 1104   2.620   2.048   0.761 -1.1185  0.6301 -0.7907
  369SOL     OW 1105   0.797   1.102   0.708 -0.0492  0.0088 -0.5469
  369SOL    HW1 1106   0.855   1.073   0.790  1.5796 -2.6825 -0.6816
  369SOL    HW2 1107   0.846   1.106   0.619  0.1072  0.3326 -0.8426
  370SOL     OW 1108   0.590   0.125   0.876  0.7515 -0.2042  0.1027
  370SOL    HW1 1109   0.687   0.136   0.871 -3.9678 -2.1834 -2.8697
  370SOL    HW2 1110   0.561   0.027   0.882 -0.0006 -1.3310 -0.3548
  371SOL     OW 1111   2.413   1.181   2.809  0.4755 -0.1350 -0.8159
  371SOL    HW1 1112   2.511   1.145   2.828  3.2029  0.9751 -0.2694
  371SOL    HW2 1113   2.348   1.107   2.840 -1.3260  2.5848  0.6037
  372SOL     OW 1114   0.788   0.509   2.528 -0.3254  0.2275  0.2563
  372SOL    HW1 1115   0.850   0.509   2.445  1.6607 -5.0097 -1.9219
  372SOL    HW2 1116   0.798   0.417   2.572  0.2126 -0.7303 -3.1466
  373SOL     OW 1117   0.648   0.676   2.935  0.4795  0.8389 -0.2725
  373SOL    HW1 1118   0.697   0.702   2.852 -0.3414  0.7407  3.9086
  373SOL    HW2 1119   0.685   0.724   3.015 -1.1562 -0.0549 -3.1074
  374SOL     OW 1120   0.822   2.146   0.220 -0.2062 -0.0562 -0.7146
  374SOL    HW1 1121   0.894   2.104   0.161 -1.3571 -1.7014  1.0268
  374SOL    HW2 1122   0.748   2.084   0.250 -0.7003  1.8687 -0.7445
  375SOL     OW 1123   0.850   0.135   0.856 -0.0855 -0.6067  0.1190
  375SOL    HW1 1124   0.904   0.112   0.941 -0.8072 -1.4983  0.7101
  375SOL    HW2 1125   0.895   0.096   0.772  4.6291  0.6753  0.2925
  376SOL     OW 1126   0.004   2.355   1.851  0.0072  0.4277  0.1195
  376SOL    HW1 1127   3.090   2.388   1.941 -1.1012  0.5288 -3.1943
  376SOL    HW2 1128   0.092   2.410   1.830  1.2613  1.3034 -0.2115
  377SOL     OW 1129   2.513   2.064   0.032  0.0001 -0.3579  0.1765
  377SOL    HW1 1130   2.413   2.071   0.033  0.1531 -0.4879  0.3504
  377SOL    HW2 1131   2.542   1.986   3.094  0.0070  0.5935  0.5172
  378SOL     OW 1132   1.912   0.440   0.568  0.3829  0.1514 -0.3810
  378SOL    HW1 1133   1.917   0.363   0.507 -0.5849  0.2646 -0.2839
  378SOL    HW2 1134   1.927   0.404   0.663  1.0471  0.0653 -0.0123
  379SOL     OW 1135   1.360   1.037   0.785  0.3299  0.2493  0.2942
  379SOL    HW1 1136   1.270   1.002   0.754  2.1586 -0.6016  0.7130
  379SOL    HW2 1137   1.416   1.084   0.714 -1.1293  1.3307  0.9920
  380SOL     OW 1138   2.483   2.094   1.956  0.1032  0.5107  0.0140
  380SOL    HW1 1139   2.525   2.012   1.908  2.7295  0.5845  0.0275
  380SOL    HW2 1140   2.547   2.169   1.972 -0.0124 -2.0901 -0.7615
  381SOL     OW 1141   3.004   1.211   2.275  0.6012 -0.1220  0.0759
  381SOL    HW1 1142   3.004   1.130   2.334  0.6952 -1.0701 -4.0890
  381SOL    HW2 1143   3.054   1.197   2.189 -0.5044 -0.7444  2.1244
  382SOL     OW 1144   2.907   2.397   0.180  0.1657  0.0474 -0.0317
  382SOL    HW1 1145   2.844   2.319   0.186 -0.0637 -2.1496  0.2703
  382SOL    HW2 1146   2.890   2.467   0.251 -0.3179 -3.2941 -1.8947
  383SOL     OW 1147   1.447   0.859   2.160 -0.2197 -0.4167 -0.3366
  383SOL    HW1 1148   1.471   0.957   2.147  0.3228  0.0602 -0.7126
  383SOL    HW2 1149   1.434   0.834   2.261  1.0294  1.3404 -0.2048
  384SOL     OW 1150   1.202   2.059   2.524  0.2396 -0.0222 -0.3984
  384SOL    HW1 1151   1.242   2.067   2.430 -1.5965  0.6608  1.3461
  384SOL    HW2 1152   1.105   2.093   2.524  0.3772  0.3251  1.6002
  385SOL     OW 1153   2.114   2.375   0.121  0.1481  0.1779 -0.2371
  385SOL    HW1 1154   2.084   2.430   0.042  1.9205  0.9281 -1.0191
  385SOL    HW2 1155   2.183   2.419   0.178  2.6768 -2.5746  4.2209
  386SOL     OW 1156   1.756   1.455   0.355 -0.2790 -0.2676  0.1905
  386SOL    HW1 1157   1.747   1.553   0.372 -2.7788 -0.7936  0.5586
  386SOL    HW2 1158   1.729   1.406   0.441 -1.2011  1.2940  0.4131
  387SOL     OW 1159   2.855   1.087   1.585 -0.5594  0.3111  0.2255
  387SOL    HW1 1160   2.884   1.175   1.621 -1.6577 -1.4967  2.2961
  387SOL    HW2 1161   2.876   1.022   1.657 -1.3528  1.9981  2.0747
  388SOL     OW 1162   0.525   0.981   1.454 -0.2382  0.4767  0.2212
  388SOL    HW1 1163   0.493   1.038   1.376  2.8849  2.5552 -4.0558
  388SOL    HW2 1164   0.506   0.880   1.451  4.4178 -1.1526  1.5582
  389SOL     OW 1165   2.272   1.217   2.077  0.2685 -0.2191  0.1429
  389SOL    HW1 1166   2.320   1.172   2.155 -0.0909  0.4086 -0.0980
  389SOL    HW2 1167   2.175   1.191   2.074  3.1690  0.2791  1.3012
  390SOL     OW 1168   1.121   1.910   0.646  0.6079  0.5922  0.5393
  390SOL    HW1 1169   1.198   1.969   0.669 -2.4652 -3.1305 -1.5045
  390SOL    HW2 1170   1.153   1.820   0.623 -1.0379 -0.0065  1.9767
  391SOL     OW 1171   1.077   1.932   0.986 -0.7208 -0.0176 -0.3648
  391SOL    HW1 1172   1.129   1.854   0.945  1.5600 -0.0839  0.1823
  391SOL    HW2 1173   0.984   1.948   0.951 -2.3769  0.3800 -1.0038
  392SOL     OW 1174   2.653   2.678   2.109  0.0281  0.9447 -0.2371
  392SOL    HW1 1175   2.559   2.679   2.142  0.7178 -2.2608  0.6219
  392SOL    HW2 1176   2.659   2.628   2.022  0.2987 -0.5511 -1.1717
  393SOL     OW 1177   1.466   2.241   2.957 -0.3411  0.1111 -0.7500
  393SOL    HW1 1178   1.416   2.235   2.870 -1.3611 -0.1886 -1.4096
  393SOL    HW2 1179   1.399   2.240   3.037 -1.9976 -2.4303  0.7463
  394SOL     OW 1180   0.163   0.331   2.284  0.0260 -0.5420  0.2661
  394SOL    HW1 1181   0.223   0.404   2.242  0.1037  0.5405  0.1476
  394SOL    HW2 1182   0.151   0.261   2.211 -1.4651  0.5316 -3.1494
  395SOL     OW 1183   0.311   0.976   0.943 -0.5401  0.1535 -0.0089
  395SOL    HW1 1184   0.356   0.990   1.037  0.8569  0.8714  1.4013
  395SOL    HW2 1185   0.385   0.988   0.872  0.6680 -0.2492  2.2026
  396SOL     OW 1186   2.351   1.506   2.705 -0.8447  0.2053 -0.2873
  396SOL    HW1 1187   2.452   1.480   2.705  0.1345  1.9772  2.0770
  396SOL    HW2 1188   2.329   1.562   2.622 -0.6420 -0.3123 -1.7812
  397SOL     OW 1189   0.398   0.794   2.989  0.0452  0.9311 -0.0895
  397SOL    HW1 1190   0.388   0.881   2.938  0.7521  1.7183  0.0224
  397SOL    HW2 1191   0.484   0.747   2.957 -1.4752  2.7158  0.4366
  398SOL     OW 1192   1.032   2.659   0.564  0.5144 -0.1487  0.7143
  398SOL    HW1 1193   1.131   2.653   0.570 -0.7173  0.5621 -0.4455
  398SOL    HW2 1194   1.009   2.755   0.564  1.6437 -1.7572 -1.2051
  399SOL     OW 1195   2.144   2.600   2.027  0.4818  0.4325 -0.3997
  399SOL    HW1 1196   2.100   2.575   2.116  1.3260 -1.4480 -1.2792
  399SOL    HW2 1197   2.147   2.516   1.969 -1.7570  1.5700  0.3462
  400SOL     OW 1198   0.105   1.297   1.724 -0.5173 -0.0658 -0.1289
  400SOL    HW1 1199   0.130   1.259   1.816 -2.1543  0.9150  1.4498
  400SOL    HW2 1200   0.170   1.370   1.701 -0.9038 -1.2290 -1.7138
  401SOL     OW 1201   0.544   1.009   0.702  0.0657  0.7685  0.6121
  401SOL    HW1 1202   0.539   0.917   0.740 -1.3047 -0.4165 -2.2278
  401SOL    HW2 1203   0.639   1.052   0.695 -0.9489 -0.2553 -0.7449
  402SOL     OW 1204   0.772   2.966   2.263  0.7754 -0.2128 -0.3637
  402SOL    HW1 1205   0.858   3.012   2.297 -0.5114  0.8399 -0.8617
  402SOL    HW2 1206   0.767   2.979   2.163  1.0005 -3.5758  0.4636
  403SOL     OW 1207   2.627   1.894   1.826 -0.5705  0.3470 -0.3769
  403SOL    HW1 1208   2.723   1.922   1.844 -1.6070  2.5227  4.7374
  403SOL    HW2 1209   2.626   1.793   1.832  0.0658 -0.2462 -1.5802
  404SOL     OW 1210   2.727   2.256   1.989 -0.2110  0.1676 -0.0588
  404SOL    HW1 1211   2.696   2.248   2.085  1.2101  2.5031 -0.2815
  404SOL    HW2 1212   2.712   2.348   1.952 -0.1106  0.0873  1.0023
  405SOL     OW 1213   1.906   0.045   2.832 -0.3484 -0.2745  0.5877
  405SOL    HW1 1214   1.949   3.071   2.829  0.1783  0.3525 -1.4415
  405SOL    HW2 1215   1.812   0.053   2.794 -3.6667  3.6041  1.9293
  406SOL     OW 1216   0.993   1.857   0.285 -0.2359 -0.4278 -0.5297
  406SOL    HW1 1217   1.030   1.916   0.210  0.4897 -2.1633  0.7221
  406SOL    HW2 1218   0.946   1.910   0.358 -2.6010  1.3875 -1.5994
  407SOL     OW 1219   1.562   1.398   0.151 -0.2441 -0.5640  0.2186
  407SOL    HW1 1220   1.475   1.449   0.166  0.8526  0.8927  0.0202
  407SOL    HW2 1221   1.631   1.417   0.226  5.7551  0.4800  1.6064
  408SOL     OW 1222   0.450   0.364   1.589  0.6799  0.1318 -0.6707
  408SOL    HW1 1223   0.356   0.376   1.628 -0.1505 -0.2004 -0.5560
  408SOL    HW2 1224   0.512   0.434   1.627 -0.8214 -1.1653  3.2453
  409SOL     OW 1225   2.830   1.501   2.929 -0.0242  0.6390 -0.1078
  409SOL    HW1 1226   2.735   1.473   2.903 -0.7155 -1.3583  1.1246
  409SOL    HW2 1227   2.835   1.583   2.986  0.7849  1.3763 -0.8936
  410SOL     OW 1228   2.826   2.840   0.613 -0.1912 -0.1631  0.1794
  410SOL    HW1 1229   2.806   2.841   0.713  0.3246 -0.1916  0.1733
  410SOL    HW2 1230   2.872   2.753   0.599  2.3948  0.1176  0.0233
  411SOL     OW 1231   0.306   0.747   0.728  0.0002  0.3389 -0.0318
  411SOL    HW1 1232   0.406   0.748   0.760  4.9534  0.5233  2.2035
  411SOL    HW2 1233   0.248   0.818   0.771  2.3113  0.3868 -0.2911
  412SOL     OW 1234   1.375   2.925   0.557 -0.2399 -0.6223 -0.5373
  412SOL    HW1 1235   1.398   2.952   0.462  0.3512 -0.4742 -2.9201
  412SOL    HW2 1236   1.349   2.821   0.554 -1.9215 -0.8917  1.6770
  413SOL     OW 1237   1.996   0.538   2.036  0.4891 -0.8636 -0.7040
  413SOL    HW1 1238   2.053   0.454   2.052 -1.4867  0.7939 -2.6993
  413SOL    HW2 1239   1.955   0.527   1.946  1.4291  1.4789  1.0856
  414SOL     OW 1240   0.103   0.912   0.409  0.4369  0.1924  0.5136
  414SOL    HW1 1241   0.034   0.845   0.377  0.5835 -1.2375  2.2189
  414SOL    HW2 1242   0.077   0.933   0.508 -1.3856 -1.9603  1.5398
  415SOL     OW 1243   2.893   1.242   0.366  0.0404 -0.1932  0.6995
  415SOL    HW1 1244   2.803   1.194   0.357 -1.1883 -1.9395 -2.0073
  415SOL    HW2 1245   2.880   1.340   0.390  1.0032 -1.7206  0.7484
  416SOL     OW 1246   2.619   0.432   2.761 -0.8382 -0.8500  0.7317
  416SOL    HW1 1247   2.623   0.423   2.661 -1.9740  0.8704  2.8980
  416SOL    HW2 1248   2.664   0.519   2.790 -0.4174  0.6146  1.1955
  417SOL     OW 1249   2.323   0.207   0.544  0.7083  0.7308  0.0901
  417SOL    HW1 1250   2.367   0.127   0.497  1.2434  0.0145 -2.5128
  417SOL    HW2 1251   2.340   0.285   0.482  1.7942  2.0693 -1.2372
  418SOL     OW 1252   0.451   0.291   0.065  0.1303  0.6513  0.0728
  418SOL    HW1 1253   0.499   0.348   0.132 -1.6924 -2.8993 -0.3745
  418SOL    HW2 1254   0.386   0.220   0.103 -0.5959 -1.7497 -0.5966
  419SOL     OW 1255   0.644   0.647   1.051  0.8378 -0.0460 -0.0096
  419SOL    HW1 1256   0.629   0.659   1.153  0.7656  2.4950  2.0596
  419SOL    HW2 1257   0.629   0.553   1.023 -1.0867  1.6754  3.6877
  420SOL     OW 1258   0.121   0.823   1.072 -0.3110 -0.3164  0.4787
  420SOL    HW1 1259   0.200   0.873   1.024  0.5624  0.7605  0.4319
  420SOL    HW2 1260   0.141   0.828   1.174  1.5231  1.1797 -2.0889
  421SOL     OW 1261   0.708   1.881   3.044  0.0196 -0.1299  0.7306
  421SOL    HW1 1262   0.696   1.796   2.991 -2.2435 -1.1140  0.4045
  421SOL    HW2 1263   0.616   1.918   3.070  0.1227 -0.8090  0.7861
  422SOL     OW 1264   2.615   0.208   2.093 -0.3251  0.2998  0.1252
  422SOL    HW1 1265   2.653   0.290   2.046 -0.0386  0.1731  0.2211
  422SOL    HW2 1266   2.537   0.235   2.155 -1.6627  1.3519  1.6314
  423SOL     OW 1267   1.976   1.688   0.123 -0.5000 -0.2175  0.9798
  423SOL    HW1 1268   2.020   1.683   0.026 -1.7866 -1.4737 -1.8892
  423SOL    HW2 1269   1.906   1.761   0.129 -0.4896 -1.0813 -3.7685
  424SOL     OW 1270   1.439   1.450   2.296  0.0941  0.3430 -0.1238
  424SOL    HW1 1271   1.453   1.544   2.327  0.5756 -2.1812 -0.9694
  424SOL    HW2 1272   1.455   1.385   2.375  0.4857 -1.1486  0.0936
  425SOL     OW 1273   3.045   2.379   2.109 -0.7065 -0.5919 -0.3099
  425SOL    HW1 1274   3.090   2.299   2.153  1.6301 -1.4462  0.2509
  425SOL    HW2 1275   3.013   2.446   2.186  0.4646 -0.6542  1.8567
  426SOL     OW 1276   2.370   2.881   0.545  0.2596 -0.4889  0.2039
  426SOL    HW1 1277   2.313   2.806   0.574 -0.7266  2.2390  1.6944
  426SOL    HW2 1278   2.405   2.933   0.626  2.7339 -3.2823 -0.1620
  427SOL     OW 1279   0.552   0.952   2.566  0.1186 -0.6093  0.0080
  427SOL    HW1 1280   0.490   1.034   2.570  2.4914 -1.7101 -2.0972
  427SOL    HW2 1281   0.589   0.931   2.656 -0.8917 -0.9951  0.4113
  428SOL     OW 1282   2.683   1.402   2.620  0.0389  0.5379  0.1146
  428SOL    HW1 1283   2.688   1.301   2.608 -1.0555  0.4864  0.7943
  428SOL    HW2 1284   2.648   1.416   2.713  1.1442 -3.9988 -3.0834
  429SOL     OW 1285   2.338   0.608   0.450 -0.3252 -0.2025 -0.0692
  429SOL    HW1 1286   2.287   0.663   0.383  0.6595  1.8668  0.4849
  429SOL    HW2 1287   2.387   0.535   0.406 -0.3431  1.5234 -2.8412
  430SOL     OW 1288   1.532   2.068   2.505  0.4777 -0.2822  0.4061
  430SOL    HW1 1289   1.579   2.158   2.493  1.9002  3.9410  1.0283
  430SOL    HW2 1290   1.498   2.035   2.413 -0.4315  0.5175 -1.3972
  431SOL     OW 1291   0.124   1.671   1.779  0.0674  0.2826 -0.0731
  431SOL    HW1 1292   0.062   1.624   1.844  0.3302 -1.3044  1.1852
  431SOL    HW2 1293   0.202   1.608   1.759 -1.4197 -1.7826 -1.1238
  432SOL     OW 1294   1.443   1.971   2.275 -0.2556  0.8040 -0.2303
  432SOL    HW1 1295   1.506   2.018   2.213  0.1500 -2.5827 -1.9547
  432SOL    HW2 1296   1.345   1.984   2.253 -0.0598  0.8097  0.5673
  433SOL     OW 1297   0.887   2.248   0.510  0.0695 -0.7560  0.0466
  433SOL    HW1 1298   0.870   2.345   0.489  2.2160  2.1365 -0.0936
  433SOL    HW2 1299   0.886   2.194   0.427  2.6777 -0.0551  4.6042
  434SOL     OW 1300   0.407   2.074   2.363 -0.3337  0.3196 -0.1475
  434SOL    HW1 1301   0.484   2.139   2.348 -0.2284  1.4007  0.1889
  434SOL    HW2 1302   0.341   2.093   2.292 -2.3368  1.1324  1.2580
  435SOL     OW 1303   0.282   1.375   0.411  0.0091 -0.9848  0.2032
  435SOL    HW1 1304   0.181   1.369   0.408  0.8637  2.7762  0.9719
  435SOL    HW2 1305   0.325   1.317   0.477 -1.2787  1.8699  3.1859
  436SOL     OW 1306   0.199   2.518   1.763  0.7530 -0.0025 -0.1209
  436SOL    HW1 1307   0.162   2.614   1.753 -2.0269  2.5776 -1.6760
  436SOL    HW2 1308   0.291   2.511   1.712  0.8220  1.7118  0.6975
  437SOL     OW 1309   0.999   0.146   0.403  0.4876 -0.2932  0.0590
  437SOL    HW1 1310   1.041   0.225   0.352 -0.5042  0.3595  1.5616
  437SOL    HW2 1311   0.898   0.147   0.389  2.0243  1.2666 -2.8300
  438SOL     OW 1312   0.558   2.352   0.691  0.1546 -0.2367  0.3503
  438SOL    HW1 1313   0.624   2.350   0.612  0.1251 -2.8652 -2.7615
  438SOL    HW2 1314   0.600   2.330   0.778 -0.3203 -1.0310 -2.7093
  439SOL     OW 1315   0.411   2.522   1.570  0.4510  0.2162 -0.1587
  439SOL    HW1 1316   0.438   2.429   1.530 -0.6431 -2.3538  0.1908
  439SOL    HW2 1317   0.384   2.592   1.498  1.2935 -0.2087  2.3281
  440SOL     OW 1318   1.779   2.948   1.777  0.5430 -0.0437  0.3256
  440SOL    HW1 1319   1.799   2.924   1.878  1.6662 -1.2743  0.1461
  440SOL    HW2 1320   1.833   2.885   1.718  0.8364 -1.8698  1.2290
  441SOL     OW 1321   2.832   0.489   1.713 -0.3735  0.1356 -0.2008
  441SOL    HW1 1322   2.784   0.508   1.626  1.8672  0.9452 -1.0055
  441SOL    HW2 1323   2.917   0.430   1.698 -1.9081 -2.6212 -1.2842
  442SOL     OW 1324   1.887   2.236   0.786 -0.6847  0.0802  0.0165
  442SOL    HW1 1325   1.887   2.279   0.875 -0.7122 -2.0960 -0.1284
  442SOL    HW2 1326   1.979   2.235   0.742  0.1042 -0.1424  1.9909
  443SOL     OW 1327   2.772   0.524   2.261 -0.1358  0.0777  0.0846
  443SOL    HW1 1328   2.859   0.483   2.285 -0.7138 -1.1328  0.5910
  443SOL    HW2 1329   2.769   0.556   2.162 -0.8211  1.1185 -0.2461
  444SOL     OW 1330   2.008   0.950   1.702 -0.6032 -0.5209  0.1350
  444SOL    HW1 1331   2.052   1.042   1.693 -3.2080  1.4147 -0.4298
  444SOL    HW2 1332   2.043   0.902   1.785 -4.3165  1.4655  0.5735
  445SOL     OW 1333   2.750   2.328   1.223 -0.4662  0.4457 -0.3465
  445SOL    HW1 1334   2.695   2.290   1.300  0.8088 -0.8428 -3.5610
  445SOL    HW2 1335   2.743   2.427   1.212 -0.3669 -1.6695  1.7981
  446SOL     OW 1336   2.852   1.413   0.594  0.0182 -0.7325 -0.0902
  446SOL    HW1 1337   2.868   1.324   0.646 -1.5455 -2.3931  1.1185
  446SOL    HW2 1338   2.866   1.495   0.654 -1.2372  0.6749 -2.6814
  447SOL     OW 1339   0.541   1.260   0.864  0.3115 -1.3096  0.2355
  447SOL    HW1 1340   0.564   1.175   0.817 -0.2437  3.5697  1.6630
  447SOL    HW2 1341   0.577   1.345   0.815  1.2241  2.4884  0.2209
  448SOL     OW 1342   1.523   1.391   1.432 -0.0367  0.5072  0.2417
  448SOL    HW1 1343   1.594   1.400   1.505 -0.7135 -0.9031  0.2521
  448SOL    HW2 1344   1.430   1.408   1.458 -1.5948  0.5643  1.8121
  449SOL     OW 1345   1.103   1.295   0.079 -0.0642  0.1618 -0.4888
  449SOL    HW1 1346   1.156   1.220   0.036 -1.1495  1.4312 -1.9311
  449SOL    HW2 1347   0.997   1.284   0.071 -1.9487  0.9713 -0.9469
  450SOL     OW 1348   2.460   2.368   2.259 -0.3643 -0.0728 -0.0669
  450SOL    HW1 1349   2.449   2.459   2.214 -1.1099  0.5214 -0.2370
  450SOL    HW2 1350   2.549   2.358   2.305 -0.6191 -0.1411  2.5970
  451SOL     OW 1351   1.871   2.893   2.619  0.3219 -0.2831 -0.4416
  451SOL    HW1 1352   1.923   2.921   2.703  1.3546 -0.8263  3.1405
  451SOL    HW2 1353   1.924   2.880   2.537 -3.0704 -0.5872  3.9084
  452SOL     OW 1354   1.439   3.030   1.539  0.3027 -0.0618  0.4419
  452SOL    HW1 1355   1.371   3.067   1.473  4.1740 -1.5621 -1.1148
  452SOL    HW2 1356   1.485   2.952   1.502  0.6400 -0.1331  0.0394
  453SOL     OW 1357   1.710   1.009   0.807  0.0037  0.0675  0.1111
  453SOL    HW1 1358   1.805   1.000   0.848  1.0740  0.6423  1.8505
  453SOL    HW2 1359   1.661   1.089   0.839  1.2526 -1.6972  1.0162
  454SOL     OW 1360   0.333   1.464   0.889 -0.3033 -0.0163  0.0817
  454SOL    HW1 1361   0.260   1.434   0.831  1.3318  0.7280 -0.1144
  454SOL    HW2 1362   0.407   1.389   0.889  1.6624 -0.2508 -1.2577
  455SOL     OW 1363   2.594   3.080   0.265  0.0591  0.9857  0.0552
  455SOL    HW1 1364   2.623   3.063   0.167  2.6509  0.1155 -0.0467
  455SOL    HW2 1365   2.678   3.093   0.323 -1.0500  2.3847 -0.4599
  456SOL     OW 1366   2.723   2.601   1.136 -0.0471  0.0175  0.1360
  456SOL    HW1 1367   2.756   2.695   1.115  2.4899  2.1063 -0.8990
  456SOL    HW2 1368   2.642   2.572   1.079  0.8678 -2.3319  0.9522
  457SOL     OW 1369   1.204   3.045   0.324 -0.2346  0.7649  0.9045
  457SOL    HW1 1370   1.257   0.008   0.349 -0.2031  1.3373 -0.3595
  457SOL    HW2 1371   1.136   3.018   0.395 -0.2467 -0.9442 -0.5643
  458SOL     OW 1372   2.606   0.720   0.457  0.1345 -0.2656 -0.7365
  458SOL    HW1 1373   2.649   0.683   0.538 -0.9534 -2.2980  1.1688
  458SOL    HW2 1374   2.504   0.702   0.462  0.0700 -0.0350  1.1506
  459SOL     OW 1375   2.002   0.312   2.587  0.1867  0.0279  0.1208
  459SOL    HW1 1376   1.904   0.330   2.602  0.4953 -2.0367 -2.3455
  459SOL    HW2 1377   2.049   0.274   2.671 -2.7034 -0.0547 -0.6428
  460SOL     OW 1378   2.705   0.183   2.594 -0.0955 -0.1800 -0.0090
  460SOL    HW1 1379   2.615   0.170   2.639 -0.3726  0.1069 -0.5306
  460SOL    HW2 1380   2.696   0.155   2.496  0.6107  1.2792  0.2281
  461SOL     OW 1381   1.217   1.721   0.886  0.0541 -0.0746 -0.0449
  461SOL    HW1 1382   1.205   1.643   0.952  0.5220  0.9001 -0.4504
  461SOL    HW2 1383   1.210   1.689   0.791 -2.8919  1.8206  1.0737
  462SOL     OW 1384   2.479   2.928   1.361  0.2437 -0.0566 -0.2308
  462SOL    HW1 1385   2.497   3.023   1.401  0.0671  1.4759 -2.9495
  462SOL    HW2 1386   2.492   2.856   1.424  0.6140 -1.6805 -0.3371
  463SOL     OW 1387   2.579   1.099   0.713  0.2962 -0.3243  0.5899
  463SOL    HW1 1388   2.574   1.066   0.613  0.7988  0.9529  1.3485
  463SOL    HW2 1389   2.590   1.023   0.777  1.0628  0.9319 -2.2738
  464SOL     OW 1390   0.306   2.637   1.116 -0.3805  0.7163  0.0645
  464SOL    HW1 1391   0.264   2.614   1.027 -0.3782  1.7914  0.1336
  464SOL    HW2 1392   0.248   2.594   1.186  1.1040  2.4641 -0.6026
  465SOL     OW 1393   3.080   1.645   0.069  0.5691  0.3334 -0.3951
  465SOL    HW1 1394   3.078   1.574   3.119  0.9207  1.9770  1.4752
  465SOL    HW2 1395   3.064   1.736   0.030 -3.6017 -1.1002  0.4289
  466SOL     OW 1396   1.413   0.354   3.018 -0.3078 -0.2961  0.1279
  466SOL    HW1 1397   1.328   0.378   3.065 -0.3980  0.8944  0.1412
  466SOL    HW2 1398   1.463   0.438   2.987  0.5936 -0.3727  1.2397
  467SOL     OW 1399   1.162   0.601   2.275 -0.1799  0.6249  0.2312
  467SOL    HW1 1400   1.233   0.603   2.198  1.6566 -1.7850  0.5461
  467SOL    HW2 1401   1.210   0.628   2.361 -0.1119 -2.7588  2.0520
  468SOL     OW 1402   0.704   1.017   2.319 -0.1516 -0.3171 -0.7299
  468SOL    HW1 1403   0.667   0.967   2.402  2.5557 -0.1313  1.6514
  468SOL    HW2 1404   0.682   1.115   2.322  0.0468 -0.6021 -2.0016
  469SOL     OW 1405   0.102   2.200   3.037  0.4407  0.0737 -0.7048
  469SOL    HW1 1406   0.019   2.166   2.987 -0.3261 -1.0148 -0.8170
  469SOL    HW2 1407   0.125   2.296   2.998 -1.3884 -1.0558 -0.3600
  470SOL     OW 1408   2.628   1.860   2.928 -0.0277  0.2114  0.3039
  470SOL    HW1 1409   2.535   1.822   2.902  2.9090  1.1028 -1.7511
  470SOL    HW2 1410   2.686   1.812   2.994 -0.2634  1.1310  0.4667
  471SOL     OW 1411   2.325   0.559   2.252 -0.3796 -0.4587  0.8222
  471SOL    HW1 1412   2.325   0.649   2.210 -0.1758 -3.0474  0.4847
  471SOL    HW2 1413   2.277   0.556   2.343 -1.5054 -2.4167  0.7537
  472SOL     OW 1414   0.508   2.473   1.196  0.1406  0.1326 -0.1064
  472SOL    HW1 1415   0.572   2.528   1.249  0.3202  0.5736 -0.2640
  472SOL    HW2 1416   0.425   2.524   1.158 -3.3961 -1.7452  0.1968
  473SOL     OW 1417   0.346   0.004   2.242 -0.4455  0.3325 -0.8540
  473SOL    HW1 1418   0.405   0.081   2.269 -0.3202  0.1189 -1.3581
  473SOL    HW2 1419   0.273   0.040   2.177  1.2990  2.1562 -2.8703
  474SOL     OW 1420   1.726   0.054   2.033 -0.0540 -0.0501 -0.2214
  474SOL    HW1 1421   1.706   0.133   1.973 -1.1460 -1.0563  0.5316
  474SOL    HW2 1422   1.685   0.061   2.126 -1.9973  1.6343  0.3705
  475SOL     OW 1423   1.636   2.603   0.791 -0.2713  0.3630  0.2095
  475SOL    HW1 1424   1.580   2.522   0.789  2.9274  0.4265 -0.9961
  475SOL    HW2 1425   1.633   2.647   0.698  0.8369  2.2175 -1.8526
  476SOL     OW 1426   0.317   0.552   0.954  0.6582 -0.3061  0.4482
  476SOL    HW1 1427   0.225   0.518   0.909  0.1678 -1.9417 -2.3490
  476SOL    HW2 1428   0.354   0.635   0.914 -0.1013 -0.4962  0.2461
  477SOL     OW 1429   1.311   2.244   0.555 -0.4007 -0.3294 -0.1221
  477SOL    HW1 1430   1.381   2.167   0.576  1.6730 -1.5441  0.7435
  477SOL    HW2 1431   1.221   2.227   0.610 -1.3212 -1.9906  0.3510
  478SOL     OW 1432   0.253   2.387   2.462  0.2573  0.1647 -0.4303
  478SOL    HW1 1433   0.345   2.388   2.505  1.3049 -1.5862  1.0214
  478SOL    HW2 1434   0.256   2.401   2.363 -1.4691 -0.1060 -0.4171
  479SOL     OW 1435   2.595   0.422   1.043  0.1642  0.5458  0.3798
  479SOL    HW1 1436   2.669   0.419   0.969  0.3712  1.3429 -2.4464
  479SOL    HW2 1437   2.528   0.346   1.032  0.8015  0.2984  0.7787
  480SOL     OW 1438   3.105   3.033   0.278  0.1295 -0.3375  0.2840
  480SOL    HW1 1439   3.092   0.002   0.237  0.2916  0.2594 -2.0887
  480SOL    HW2 1440   3.066   2.970   0.210  0.1351 -2.0873 -0.0508
  481SOL     OW 1441   2.616   2.240   1.435 -0.2015  0.1946 -0.1365
  481SOL    HW1 1442   2.515   2.239   1.440 -0.0094 -2.2535  0.9473
  481SOL    HW2 1443   2.647   2.154   1.481 -0.7125  0.7522  1.2689
  482SOL     OW 1444   1.104   2.574   2.708  0.2585  0.1366  0.0705
  482SOL    HW1 1445   1.150   2.526   2.630  3.0245 -0.9127  1.0036
  482SOL    HW2 1446   1.009   2.539   2.714  0.7442  0.8947  2.0483
  483SOL     OW 1447   0.583   2.674   2.370 -0.2375 -0.0087 -0.6577
  483SOL    HW1 1448   0.541   2.753   2.319 -1.1324 -1.1951 -1.8585
  483SOL    HW2 1449   0.639   2.616   2.309 -2.5108  0.6737  2.1405
  484SOL     OW 1450   1.281   0.697   1.690  0.1647  0.1170 -0.0500
  484SOL    HW1 1451   1.364   0.747   1.668  1.8155  0.0438  2.6964
  484SOL    HW2 1452   1.293   0.656   1.780  1.4667  0.1169 -0.6931
  485SOL     OW 1453   2.340   0.889   2.725 -0.2508 -0.4316  0.8033
  485SOL    HW1 1454   2.368   0.793   2.703 -1.9557  2.5716  2.6078
  485SOL    HW2 1455   2.299   0.934   2.641  0.0389  2.7125 -2.4558
  486SOL     OW 1456   2.325   3.073   0.998  0.2808 -0.1693  0.8371
  486SOL    HW1 1457   2.314   3.010   1.076  0.9717 -1.2275 -0.5375
  486SOL    HW2 1458   2.389   3.038   0.930  1.2839  0.7994  0.0281
  487SOL     OW 1459   0.575   2.041   1.668  0.0198 -0.3503 -0.1522
  487SOL    HW1 1460   0.633   1.959   1.684 -1.4285 -0.2538 -0.3156
  487SOL    HW2 1461   0.506   2.030   1.588 -2.5416 -3.1349 -1.3503
  488SOL     OW 1462   2.562   1.434   2.869 -0.0403 -0.6280  0.0533
  488SOL    HW1 1463   2.540   1.485   2.949  0.6956  1.7073 -2.9976
  488SOL    HW2 1464   2.525   1.344   2.884 -1.1531  3.2606  2.6322
  489SOL     OW 1465   1.802   0.016   0.869  0.0694 -0.2577  0.4298
  489SOL    HW1 1466   1.881   3.108   0.928  0.6387 -3.1751 -0.2406
  489SOL    HW2 1467   1.775   0.106   0.906  0.8815 -0.6883 -0.8482
  490SOL     OW 1468   0.940   1.072   0.457  0.3314  0.1526 -0.5158
  490SOL    HW1 1469   1.026   1.129   0.456  1.1526  2.1703 -3.0293
  490SOL    HW2 1470   0.867   1.110   0.394 -0.4588 -1.6414  0.9164
  491SOL     OW 1471   0.609   2.321   0.950 -0.6777  0.0845 -0.7769
  491SOL    HW1 1472   0.709   2.314   0.951  0.4119 -2.6652 -1.8565
  491SOL    HW2 1473   0.580   2.393   1.019  0.0614  3.0511  0.6138
  492SOL     OW 1474   1.313   1.697   1.972 -0.9855 -0.0007 -0.0112
  492SOL    HW1 1475   1.281   1.789   2.004 -1.6354  3.4211 -2.6907
  492SOL    HW2 1476   1.256   1.621   2.001  1.2376  2.1442  0.2697
  493SOL     OW 1477   2.892   2.563   0.625 -0.1805 -0.1569  0.4028
  493SOL    HW1 1478   2.972   2.509   0.658  0.1269 -0.3506  2.2667
  493SOL    HW2 1479   2.810   2.544   0.681  1.0341 -0.8157 -2.9783
  494SOL     OW 1480   2.754   2.129   0.184  0.5161 -0.0890  0.2202
  494SOL    HW1 1481   2.661   2.091   0.162 -1.2236  2.3623 -1.3537
  494SOL    HW2 1482   2.820   2.053   0.202  3.3118 -1.2341  3.0528
  495SOL     OW 1483   2.904   2.478   3.043 -0.0901  0.0245  0.1651
  495SOL    HW1 1484   2.840   2.401   3.008 -2.4253 -3.6371 -0.5546
  495SOL    HW2 1485   2.924   2.453   0.018  1.0445 -3.8126 -1.5545
  496SOL     OW 1486   2.743   0.504   1.443  0.1782 -0.7630  0.0630
  496SOL    HW1 1487   2.639   0.506   1.448  2.9326 -0.8752 -0.4681
  496SOL    HW2 1488   2.771   0.434   1.376  0.1590 -0.7627  1.2287
  497SOL     OW 1489   2.908   1.223   3.010  0.3544  0.0821  0.4976
  497SOL    HW1 1490   2.919   1.225   3.110  4.6715  2.1011 -3.1469
  497SOL    HW2 1491   2.902   1.313   2.968  1.0067 -0.4255 -1.9138
  498SOL     OW 1492   3.061   1.560   1.938  0.1146  0.1256  0.3379
  498SOL    HW1 1493   2.984   1.589   1.992  2.7223  0.6177  0.2369
  498SOL    HW2 1494   3.114   1.491   1.993 -1.4028  0.4596  0.3017
  499SOL     OW 1495   0.720   2.351   2.628 -0.4347 -0.0434 -0.0095
  499SOL    HW1 1496   0.643   2.396   2.585  2.5971  3.5158 -1.6785
  499SOL    HW2 1497   0.687   2.298   2.707  0.3793  1.9491 -4.1963
  500SOL     OW 1498   1.883   0.356   0.032  0.1663 -0.3327 -0.3971
  500SOL    HW1 1499   1.974   0.356   3.111 -1.0698 -0.6499 -0.0050
  500SOL    HW2 1500   1.863   0.262   0.053  3.0071  1.8271  1.0569
  501SOL     OW 1501   1.325   3.103   1.787 -0.4173 -0.1310 -0.8021
  501SOL    HW1 1502   1.377   3.100   1.698  0.5433  1.0603 -1.3405
  501SOL    HW2 1503   1.382   3.058   1.863 -1.0509 -1.9348 -0.7972
  502SOL     OW 1504   2.549   0.936   2.001  0.4099 -0.0469  0.5456
  502SOL    HW1 1505   2.535   1.014   1.943 -1.5165 -3.6941  3.4031
  502SOL    HW2 1506   2.549   0.854   1.939  2.0956 -0.3218 -1.1393
  503SOL     OW 1507   2.222   1.987   2.338 -0.7143  0.4345  0.3591
  503SOL    HW1 1508   2.222   2.085   2.367 -0.9395  2.5509  1.5147
  503SOL    HW2 1509   2.127   1.956   2.309  0.3747  2.9764 -0.8310
  504SOL     OW 1510   1.516   0.671   1.508  0.1689  0.6864 -0.5701
  504SOL    HW1 1511   1.457   0.670   1.426 -1.4211  2.0421  1.3580
  504SOL    HW2 1512   1.490   0.590   1.563 -0.2198  0.4173  0.1349
  505SOL     OW 1513   0.891   0.830   1.969  0.1520 -0.0433 -0.2979
  505SOL    HW1 1514   0.971   0.867   2.016 -2.5257  1.1873 -0.4538
  505SOL    HW2 1515   0.891   0.864   1.877 -2.8012 -0.6304  1.1808
  506SOL     OW 1516   0.531   0.449   2.514 -0.1340 -0.5126  0.0129
  506SOL    HW1 1517   0.512   0.437   2.614  1.1423 -2.0818  1.4533
  506SOL    HW2 1518   0.629   0.476   2.510 -1.3608  1.2594 -0.4834
  507SOL     OW 1519   0.253   0.130   0.185 -0.0520  0.3728 -0.0689
  507SOL    HW1 1520   0.261   0.064   0.259  0.3627 -0.5883 -0.8346
  507SOL    HW2 1521   0.156   0.153   0.165 -0.2629  1.3597 -3.3330
  508SOL     OW 1522   1.406   1.108   1.456  0.0739  0.0964 -0.3550
  508SOL    HW1 1523   1.363   1.103   1.551  0.6788 -1.1214  4.8631
  508SOL    HW2 1524   1.445   1.198   1.441  0.0517 -0.3512 -2.1124
  509SOL     OW 1525   1.567   2.173   1.320  0.5042 -0.0281  0.0066
  509SOL    HW1 1526   1.576   2.119   1.237  4.2099  2.6073  0.3472
  509SOL    HW2 1527   1.646   2.156   1.379 -0.3233  2.3979 -2.5658
  510SOL     OW 1528   2.642   1.347   1.992  0.0659  0.4189 -0.0851
  510SOL    HW1 1529   2.674   1.440   1.973 -2.2339 -2.2815  0.9576
  510SOL    HW2 1530   2.657   1.330   2.091 -1.0194  0.6228 -0.1240
  511SOL     OW 1531   0.836   2.170   1.558 -0.5329  0.3966  0.2276
  511SOL    HW1 1532   0.821   2.236   1.478 -0.0996  0.8846 -0.8920
  511SOL    HW2 1533   0.754   2.116   1.576 -1.4602 -1.2917  1.3278
  512SOL     OW 1534   2.610   1.749   0.819 -0.1979  0.0756 -0.2111
  512SOL    HW1 1535   2.559   1.746   0.732  1.7311  2.2584 -0.2345
  512SOL    HW2 1536   2.671   1.830   0.829  0.6505 -0.7376  0.9532
  513SOL     OW 1537   0.111   1.535   2.856  0.0687 -0.0979  0.0799
  513SOL    HW1 1538   0.159   1.623   2.880  2.8232  2.2227  2.4011
  513SOL    HW2 1539   0.086   1.478   2.939 -0.0781 -2.6412 -1.4057
  514SOL     OW 1540   2.955   2.209   2.370 -0.2098 -0.5842 -0.0665
  514SOL    HW1 1541   3.054   2.184   2.362  0.5979  1.3914 -2.2274
  514SOL    HW2 1542   2.940   2.309   2.380  1.7863  2.1552 -0.3895
  515SOL     OW 1543   2.149   1.226   1.128  0.1762  0.1989 -0.0408
  515SOL    HW1 1544   2.074   1.212   1.062 -0.5152  0.0828 -1.1398
  515SOL    HW2 1545   2.131   1.307   1.183 -1.4057 -0.1625 -2.1034
  516SOL     OW 1546   2.148   1.945   0.302 -0.7527 -0.3322 -0.7052
  516SOL    HW1 1547   2.193   1.999   0.378  1.8137  2.0105  0.6443
  516SOL    HW2 1548   2.143   1.848   0.314 -2.8763 -1.0382 -0.3538
  517SOL     OW 1549   0.828   1.207   0.067  0.5846  0.3376  0.7834
  517SOL    HW1 1550   0.754   1.237   0.002 -0.3403 -1.9958 -0.7428
  517SOL    HW2 1551   0.797   1.219   0.162  1.6039 -1.2525 -0.3114
  518SOL     OW 1552   2.845   2.943   1.959 -0.0392 -0.3278 -0.2629
  518SOL    HW1 1553   2.895   2.866   1.914  0.8927 -0.6474 -2.4583
  518SOL    HW2 1554   2.755   2.954   1.905 -0.8072 -0.0042 -1.4765
  519SOL     OW 1555   1.387   1.732   2.624 -0.1387  0.7361  0.3162
  519SOL    HW1 1556   1.361   1.806   2.685  1.7177 -1.7942  0.2631
  519SOL    HW2 1557   1.436   1.665   2.681 -0.0617 -0.7978  0.1941
  520SOL     OW 1558   2.360   2.978   2.288  0.3221 -0.0556  0.1111
  520SOL    HW1 1559   2.426   3.010   2.213  0.3032  1.5489  0.1329
  520SOL    HW2 1560   2.409   2.974   2.380 -0.4142  0.5477  2.7228
  521SOL     OW 1561   0.183   1.805   2.099  0.3432 -0.3288  0.3290
  521SOL    HW1 1562   0.264   1.865   2.078  3.0846 -0.4160  0.5112
  521SOL    HW2 1563   0.179   1.718   2.047 -0.4855 -2.2991 -1.5624
  522SOL     OW 1564   0.643   2.624   1.646 -0.3407 -0.2732  0.0887
  522SOL    HW1 1565   0.557   2.581   1.605 -0.8662 -1.4113 -0.3506
  522SOL    HW2 1566   0.703   2.556   1.688  1.5822  0.9003  2.0632
  523SOL     OW 1567   3.074   2.313   1.341  0.1834 -0.2727 -0.4908
  523SOL    HW1 1568   3.052   2.298   1.440 -1.2311  0.9675 -0.4009
  523SOL    HW2 1569   2.992   2.332   1.281  0.0676  0.0150 -1.2841
  524SOL     OW 1570   1.395   2.458   0.730 -0.9700 -0.4646 -0.2460
  524SOL    HW1 1571   1.379   2.391   0.655  1.6109 -1.5459  1.5656
  524SOL    HW2 1572   1.406   2.407   0.819 -0.5072 -0.9802 -0.7822
  525SOL     OW 1573   2.605   1.068   1.168  0.2646  0.3527 -0.8223
  525SOL    HW1 1574   2.599   1.112   1.259 -1.2832  1.9541 -0.7797
  525SOL    HW2 1575   2.540   1.105   1.100  3.4595 -2.2128 -1.7753
  526SOL     OW 1576   0.868   2.275   0.867  0.0621  0.2702 -0.4615
  526SOL    HW1 1577   0.914   2.303   0.781 -0.5652 -2.2259  0.9671
  526SOL    HW2 1578   0.854   2.173   0.870 -0.3583  2.6613  0.3949
  527SOL     OW 1579   2.120   2.280   0.638 -0.1324  0.0432  0.0540
  527SOL    HW1 1580   2.048   2.346   0.609  0.9758 -0.4474  1.7587
  527SOL    HW2 1581   2.213   2.325   0.645  0.8243 -0.2204  3.9452
  528SOL     OW 1582   2.280   0.403   0.148 -0.0708 -0.0879  0.1600
  528SOL    HW1 1583   2.212   0.474   0.183 -0.0970  0.9756  1.1256
  528SOL    HW2 1584   2.257   0.311   0.180 -1.3280  1.9893 -1.6351
  529SOL     OW 1585   1.146   1.536   2.314  0.2284 -0.4538  0.2882
  529SOL    HW1 1586   1.238   1.499   2.326 -2.0087  0.3134 -2.3011
  529SOL    HW2 1587   1.121   1.583   2.395  1.3933 -0.1499 -3.0576
  530SOL     OW 1588   2.381   1.120   2.326 -0.2068  0.3019 -0.8148
  530SOL    HW1 1589   2.468   1.085   2.358 -1.4862  0.2289 -1.8857
  530SOL    HW2 1590   2.330   1.185   2.388 -0.7357  0.6319 -2.2662
  531SOL     OW 1591   0.895   0.951   0.126  0.0759  0.1776 -0.7174
  531SOL    HW1 1592   0.883   1.053   0.113 -0.0425 -0.8634 -0.1588
  531SOL    HW2 1593   0.800   0.913   0.127 -1.0094  2.3949  0.0897
  532SOL     OW 1594   1.779   1.317   0.624 -0.3955 -0.3828  0.1174
  532SOL    HW1 1595   1.853   1.247   0.602  1.5234 -2.3167 -0.3789
  532SOL    HW2 1596   1.690   1.281   0.665 -2.0004 -0.4025  0.2682
  533SOL     OW 1597   0.370   0.786   2.185 -0.2195 -0.4312  0.1794
  533SOL    HW1 1598   0.456   0.809   2.136  0.9522 -1.1316  1.5133
  533SOL    HW2 1599   0.397   0.762   2.280  2.0760 -0.1240 -0.7432
  534SOL     OW 1600   1.443   0.217   2.778 -0.5105 -0.1327 -0.1880
  534SOL    HW1 1601   1.442   0.260   2.871  0.1188 -1.4216  0.1464
  534SOL    HW2 1602   1.353   0.209   2.737  2.6115 -0.1464  1.4714
  535SOL     OW 1603   0.732   0.143   0.335 -0.1232  0.0260 -0.5795
  535SOL    HW1 1604   0.691   0.053   0.303 -4.6729  0.4624  2.0852
  535SOL    HW2 1605   0.696   0.157   0.429  1.2328 -1.8477 -0.3945
  536SOL     OW 1606   0.801   0.391   3.009  0.0352  0.2397 -0.5336
  536SOL    HW1 1607   0.701   0.387   3.028 -1.7197  0.1921  0.1202
  536SOL    HW2 1608   0.856   0.338   3.075  0.6940  1.5830  0.9663
  537SOL     OW 1609   1.515   2.912   1.851 -1.1052  0.1463 -0.6729
  537SOL    HW1 1610   1.482   2.834   1.794  0.0767 -3.7286 -0.8982
  537SOL    HW2 1611   1.618   2.924   1.839  0.1825  1.4595 -1.7267
  538SOL     OW 1612   0.306   2.889   0.135 -0.1261 -0.3053 -0.0579
  538SOL    HW1 1613   0.259   2.961   0.182  2.0309  2.4146  0.0710
  538SOL    HW2 1614   0.397   2.923   0.108  1.7945  1.9823  1.4633
  539SOL     OW 1615   2.795   1.127   1.979 -0.0984  0.4490 -0.0083
  539SOL    HW1 1616   2.757   1.094   2.071 -3.5849 -1.9021 -0.8773
  539SOL    HW2 1617   2.727   1.192   1.940 -0.1812  1.9335  1.3728
  540SOL     OW 1618   2.274   2.236   2.067 -0.1816 -0.2783 -0.7281
  540SOL    HW1 1619   2.329   2.284   2.137  1.4998  1.6876  0.5408
  540SOL    HW2 1620   2.329   2.170   2.007  1.3478 -1.0551 -0.7648
  541SOL     OW 1621   0.379   2.708   1.376  0.2746  0.4238  0.7078
  541SOL    HW1 1622   0.374   2.686   1.273 -2.5798  0.9609 -0.7118
  541SOL    HW2 1623   0.422   2.801   1.393  0.4070 -0.7196 -2.0521
  542SOL     OW 1624   2.775   0.477   1.979 -0.0670  0.2178 -0.3577
  542SOL    HW1 1625   2.785   0.489   1.880 -2.1307 -1.1687  2.7297
  542SOL    HW2 1626   2.845   0.407   2.012  0.1659 -3.4794  0.5067
  543SOL     OW 1627   0.995   0.576   1.042  0.2238 -0.2966  0.0416
  543SOL    HW1 1628   0.982   0.479   1.014 -1.0537 -0.1698 -1.6255
  543SOL    HW2 1629   0.905   0.614   1.071 -0.2169 -1.1925  0.9276
  544SOL     OW 1630   2.370   2.214   1.132 -0.2627 -0.1436 -0.5444
  544SOL    HW1 1631   2.419   2.132   1.168 -1.6722  1.7835 -2.6668
  544SOL    HW2 1632   2.410   2.241   1.041 -1.9234  2.1554 -0.1929
  545SOL     OW 1633   1.447   1.635   1.226  0.7857 -0.8707  0.0536
  545SOL    HW1 1634   1.550   1.618   1.230  0.1493 -0.6456 -0.3750
  545SOL    HW2 1635   1.418   1.704   1.299  0.4329 -0.2699  2.7402
  546SOL     OW 1636   2.915   0.254   2.744 -0.4826  0.3264  0.4134
  546SOL    HW1 1637   2.836   0.242   2.683 -1.5714  1.0597 -1.9304
  546SOL    HW2 1638   2.893   0.259   2.840 -0.7233 -1.5170 -0.5062
  547SOL     OW 1639   2.328   0.307   2.667  0.4735 -0.6072  0.3124
  547SOL    HW1 1640   2.236   0.303   2.714  4.5818 -1.1750 -0.4224
  547SOL    HW2 1641   2.373   0.396   2.697 -0.2010  1.2662 -1.0863
  548SOL     OW 1642   2.748   1.976   2.735 -0.4684  0.1416 -0.4871
  548SOL    HW1 1643   2.706   1.934   2.819  2.0080  0.2284 -0.6685
  548SOL    HW2 1644   2.839   1.932   2.715  1.0616 -2.2543 -2.1157
  549SOL     OW 1645   2.270   0.547   0.740  0.2306  0.6222 -0.7045
  549SOL    HW1 1646   2.330   0.620   0.768 -0.3288 -0.7165  0.0020
  549SOL    HW2 1647   2.258   0.543   0.639 -0.6659 -1.3090  1.7402
  550SOL     OW 1648   2.624   1.259   0.025  0.0792 -0.4074 -0.1213
  550SOL    HW1 1649   2.626   1.195   3.069 -0.5050  1.8754  0.3737
  550SOL    HW2 1650   2.528   1.283   0.046 -2.1531 -2.3817 -0.6426
  551SOL     OW 1651   1.339   2.559   1.361  0.1532  0.3473 -0.3108
  551SOL    HW1 1652   1.257   2.622   1.355 -1.4817  0.8127 -0.0114
  551SOL    HW2 1653   1.351   2.504   1.276  1.1515 -1.8539  0.7007
  552SOL     OW 1654   2.762   2.300   2.906  0.0464  0.1827 -0.3670
  552SOL    HW1 1655   2.764   2.359   2.823 -1.1536  0.1846  1.9739
  552SOL    HW2 1656   2.665   2.292   2.941 -1.0440 -1.5530  1.3535
  553SOL     OW 1657   0.543   0.058   0.551  0.4879 -0.2133 -0.0356
  553SOL    HW1 1658   0.526   0.155   0.582 -1.5459  0.3215 -0.3216
  553SOL    HW2 1659   0.585   3.120   0.622 -0.1014 -2.4263 -0.1335
  554SOL     OW 1660   1.798   1.979   1.732  0.6962 -0.5180  0.1429
  554SOL    HW1 1661   1.702   2.015   1.742  2.0577 -0.0956  0.0283
  554SOL    HW2 1662   1.815   1.884   1.777  2.8562 -2.4713  1.8853
  555SOL     OW 1663   1.410   2.532   2.016 -0.1404  0.2628 -0.0927
  555SOL    HW1 1664   1.465   2.544   2.104 -0.5276 -0.9379  1.2014
  555SOL    HW2 1665   1.311   2.536   2.033  0.0927 -0.5498  1.1329
  556SOL     OW 1666   1.963   1.116   0.630  0.0956 -0.7464 -0.0396
  556SOL    HW1 1667   1.946   1.057   0.711 -1.3400  1.2353  1.7188
  556SOL    HW2 1668   2.000   1.063   0.552  0.3532  0.6538  1.1837
  557SOL     OW 1669   1.505   2.347   1.846  0.2079 -0.2609  0.4091
  557SOL    HW1 1670   1.448   2.352   1.764 -0.1274  0.8230 -0.7354
  557SOL    HW2 1671   1.467   2.404   1.926  2.2781  2.6976  1.3421
  558SOL     OW 1672   3.111   1.021   2.469 -0.0598 -0.0222 -0.2772
  558SOL    HW1 1673   3.048   0.999   2.542  0.8517 -1.3571 -0.3262
  558SOL    HW2 1674   0.007   0.937   2.415 -1.4204 -4.6479  0.9979
  559SOL     OW 1675   2.395   2.653   2.189  0.8412 -0.2043  0.0815
  559SOL    HW1 1676   2.314   2.621   2.132  0.4323 -0.9294 -2.7202
  559SOL    HW2 1677   2.362   2.733   2.246 -2.3433  2.6913  4.1229
  560SOL     OW 1678   0.160   3.034   2.459 -0.1004 -0.2770  0.2319
  560SOL    HW1 1679   0.066   3.072   2.453 -0.3964 -3.6460  1.7347
  560SOL    HW2 1680   0.227   3.069   2.389  1.3290  2.3335  1.8227
  561SOL     OW 1681   1.692   0.746   0.429  0.4408 -0.4598  0.5072
  561SOL    HW1 1682   1.643   0.653   0.442  1.4726 -1.3597 -0.0200
  561SOL    HW2 1683   1.789   0.734   0.406 -1.0679  2.7188 -0.9939
  562SOL     OW 1684   0.810   1.213   2.029  0.1849  0.4149 -0.0228
  562SOL    HW1 1685   0.848   1.181   2.119 -0.2565 -3.4015  1.1042
  562SOL    HW2 1686   0.768   1.311   2.035  0.4134  3.9535  0.0621
  563SOL     OW 1687   1.487   2.055   0.097  0.1096 -0.4390 -0.6256
  563SOL    HW1 1688   1.495   1.961   0.127 -0.9818  0.4015 -0.6638
  563SOL    HW2 1689   1.571   2.087   0.050 -2.0385  0.8857  1.7733
  564SOL     OW 1690   0.345   2.047   0.770 -0.1481  0.2383  0.4018
  564SOL    HW1 1691   0.261   2.091   0.738  0.4966  0.1388  2.8387
  564SOL    HW2 1692   0.338   1.946   0.782  2.9095 -0.5194  0.3718
  565SOL     OW 1693   0.557   2.956   0.048  0.0366 -0.1490 -0.3747
  565SOL    HW1 1694   0.556   2.909   3.077 -3.8550 -1.2515  0.9462
  565SOL    HW2 1695   0.585   3.052   0.034  1.6121 -1.8232 -0.1299
  566SOL     OW 1696   1.593   2.586   3.120  0.4650  0.6516  0.1565
  566SOL    HW1 1697   1.606   2.487   3.121 -1.5551  0.7530 -0.3331
  566SOL    HW2 1698   1.629   2.629   3.036 -0.4090 -0.9380 -0.6708
  567SOL     OW 1699   2.447   1.756   1.028  0.2910 -0.1968  0.5836
  567SOL    HW1 1700   2.505   1.739   0.946 -0.4591  0.0541 -0.1326
  567SOL    HW2 1701   2.427   1.667   1.072 -0.0537 -1.2707 -0.4978
  568SOL     OW 1702   1.599   0.995   2.529 -0.0533 -0.0616  0.4437
  568SOL    HW1 1703   1.538   0.918   2.495 -1.4878 -0.2653 -2.3532
  568SOL    HW2 1704   1.576   1.019   2.628 -0.6536  1.9985  1.7502
  569SOL     OW 1705   2.268   1.725   1.800 -0.1044 -0.2794 -0.1433
  569SOL    HW1 1706   2.323   1.669   1.736 -1.5606  1.8318  2.5224
  569SOL    HW2 1707   2.277   1.696   1.899  0.4916  3.1620  1.0064
  570SOL     OW 1708   2.967   2.711   1.835  0.0619 -0.0214 -0.1545
  570SOL    HW1 1709   3.063   2.691   1.859  0.5973  0.1041 -1.1145
  570SOL    HW2 1710   2.963   2.774   1.751 -1.4767  0.6680 -0.8778
  571SOL     OW 1711   0.158   0.599   1.368  0.3235 -0.2606 -0.6175
  571SOL    HW1 1712   0.235   0.579   1.306 -0.4994  0.8977 -1.6713
  571SOL    HW2 1713   0.118   0.691   1.354 -1.7167  0.0416 -0.3593
  572SOL     OW 1714   0.753   1.718   0.678  0.2909 -0.2437 -0.1425
  572SOL    HW1 1715   0.724   1.746   0.774  1.2048 -0.3439  1.2107
  572SOL    HW2 1716   0.829   1.775   0.638 -0.3303 -1.5473 -0.4290
  573SOL     OW 1717   1.107   0.850   0.297 -0.0955 -0.4258 -0.5719
  573SOL    HW1 1718   1.021   0.880   0.259  2.6925 -0.9924  0.3826
  573SOL    HW2 1719   1.164   0.933   0.326  1.8498  0.5301  0.2539
  574SOL     OW 1720   0.191   0.596   0.315  0.7077 -0.4819 -0.4076
  574SOL    HW1 1721   0.265   0.607   0.245  0.1426  2.2851  0.8973
  574SOL    HW2 1722   0.119   0.538   0.275 -0.4679  0.6117  1.0863
  575SOL     OW 1723   1.038   1.847   1.248 -0.3488 -0.1068  0.4625
  575SOL    HW1 1724   1.055   1.883   1.154 -1.0413 -2.8194 -1.8936
  575SOL    HW2 1725   1.091   1.890   1.324 -3.1610 -0.6722  1.8016
  576SOL     OW 1726   2.945   0.091   1.875 -0.0529  0.3523  0.2538
  576SOL    HW1 1727   2.879   0.125   1.800  0.0638  1.8041 -0.4439
  576SOL    HW2 1728   2.894   0.029   1.931  1.1616  0.5398 -0.2469
  577SOL     OW 1729   2.802   1.649   2.103  0.0083  0.2027  0.0490
  577SOL    HW1 1730   2.748   1.724   2.144 -1.5930  1.1408  3.3464
  577SOL    HW2 1731   2.831   1.587   2.177  0.6792 -0.0822  1.2621
  578SOL     OW 1732   1.005   3.058   2.383  0.1772 -0.3397 -0.7249
  578SOL    HW1 1733   1.066   3.081   2.307 -0.6793  0.8255 -0.9749
  578SOL    HW2 1734   1.057   3.029   2.467  0.5324 -3.0752  2.3471
  579SOL     OW 1735   1.962   1.932   2.288 -0.0135  0.1690  0.0893
  579SOL    HW1 1736   1.947   2.013   2.229 -1.3334 -2.3774 -0.5952
  579SOL    HW2 1737   1.895   1.856   2.265 -1.0938  0.3405 -1.8523
  580SOL     OW 1738   1.801   0.976   2.106  0.0645  0.1309  0.5748
  580SOL    HW1 1739   1.786   0.886   2.062  1.1877  1.1251  2.0079
  580SOL    HW2 1740   1.827   0.974   2.204  2.8150  4.1808 -1.8711
  581SOL     OW 1741   1.281   1.330   2.567  0.5457  0.2642  0.4206
  581SOL    HW1 1742   1.381   1.306   2.554 -0.4521  0.8347 -0.8643
  581SOL    HW2 1743   1.256   1.381   2.651 -0.4672  1.6022  0.7805
  582SOL     OW 1744   0.082   2.097   1.927 -0.2444  0.0681  0.0594
  582SOL    HW1 1745   0.046   2.062   2.015 -0.7717 -1.0512  1.2729
  582SOL    HW2 1746   0.050   2.191   1.908  1.6245 -1.1040 -1.1664
  583SOL     OW 1747   1.789   1.436   1.063  0.3149  0.2543  0.2975
  583SOL    HW1 1748   1.830   1.461   0.973 -3.1141 -1.9638 -1.2259
  583SOL    HW2 1749   1.777   1.521   1.124  0.9844  0.6174  0.0483
  584SOL     OW 1750   0.784   2.430   0.145 -0.3266  0.3213 -0.4483
  584SOL    HW1 1751   0.853   2.465   0.208 -1.6643  1.6116 -0.5744
  584SOL    HW2 1752   0.787   2.327   0.160 -0.0920 -1.9142 -0.1521
  585SOL     OW 1753   0.248   2.432   0.362  0.2209 -0.0826 -0.3029
  585SOL    HW1 1754   0.184   2.409   0.284  2.1176 -2.8384  0.1706
  585SOL    HW2 1755   0.316   2.503   0.341  1.4135  0.0708  2.3478
  586SOL     OW 1756   2.124   1.451   0.454  0.4118 -0.4148 -0.3867
  586SOL    HW1 1757   2.071   1.369   0.414 -0.2889 -4.4392 -0.3559
  586SOL    HW2 1758   2.095   1.472   0.553  0.7546 -2.7980  5.2240
  587SOL     OW 1759   2.948   1.934   0.280 -0.0026 -0.0223 -0.6433
  587SOL    HW1 1760   3.027   1.988   0.320  2.1038  1.0066 -0.7355
  587SOL    HW2 1761   2.914   1.871   0.355  2.2495  0.7002 -1.2356
  588SOL     OW 1762   3.012   0.818   0.879 -0.0529 -0.0462 -0.0973
  588SOL    HW1 1763   3.083   0.786   0.947  2.1267  1.2412  2.2847
  588SOL    HW2 1764   2.942   0.872   0.929  4.3082  2.4077  0.0287
  589SOL     OW 1765   1.099   0.537   0.737 -0.1945 -0.4747  0.2730
  589SOL    HW1 1766   1.189   0.568   0.714 -1.8368 -2.2952 -0.3918
  589SOL    HW2 1767   1.050   0.599   0.797  1.0222  2.1951 -0.4267
  590SOL     OW 1768   2.409   2.464   0.156 -0.3846 -0.1219 -0.4224
  590SOL    HW1 1769   2.478   2.409   0.204  2.0490 -0.7712  1.4631
  590SOL    HW2 1770   2.439   2.565   0.151  0.1875  0.6712 -0.4928
  591SOL     OW 1771   0.478   2.525   1.954  0.4299  0.2079  0.0675
  591SOL    HW1 1772   0.572   2.494   1.936 -0.4349  0.4429  0.4258
  591SOL    HW2 1773   0.413   2.490   1.881 -0.6539 -3.0100 -2.7821
  592SOL     OW 1774   0.563   1.455   1.914 -0.1443 -0.9170  0.6463
  592SOL    HW1 1775   0.654   1.504   1.914 -0.6257 -0.7157  0.5735
  592SOL    HW2 1776   0.573   1.359   1.889 -2.2239 -1.4844 -2.1712
  593SOL     OW 1777   1.439   1.878   1.340  0.0271 -0.2716 -0.2063
  593SOL    HW1 1778   1.474   1.944   1.268  0.8274 -0.4865  3.0772
  593SOL    HW2 1779   1.494   1.895   1.428  0.1422  0.1734  3.2190
  594SOL     OW 1780   0.440   1.022   2.848  0.4379  0.3649 -0.1783
  594SOL    HW1 1781   0.483   1.102   2.897  1.4000  1.6664  0.3071
  594SOL    HW2 1782   0.345   1.037   2.811 -0.6186  1.9225 -0.4561
  595SOL     OW 1783   1.818   0.262   1.005 -0.1435  0.6845 -0.1524
  595SOL    HW1 1784   1.735   0.310   0.976 -1.3799 -1.5036  0.1483
  595SOL    HW2 1785   1.837   0.270   1.106 -0.4103  1.5871  1.5105
  596SOL     OW 1786   0.415   1.049   1.188 -0.3111 -0.6571  0.6961
  596SOL    HW1 1787   0.495   1.114   1.183 -1.4960  0.5881  1.3741
  596SOL    HW2 1788   0.329   1.100   1.208  0.8328  1.3065 -0.9134
  597SOL     OW 1789   3.010   2.539   2.681  0.2450 -0.1989  0.4904
  597SOL    HW1 1790   3.036   2.574   2.770 -3.0766 -4.4332  0.2233
  597SOL    HW2 1791   2.910   2.536   2.679  0.0124  0.4825 -0.7762
  598SOL     OW 1792   2.196   2.122   2.722  0.1199  0.2984  0.9429
  598SOL    HW1 1793   2.106   2.164   2.735  0.8949  0.3906  1.4974
  598SOL    HW2 1794   2.270   2.194   2.727  0.1173  1.2775  0.3026
  599SOL     OW 1795   1.516   0.449   0.241 -0.3037  0.3446 -0.0720
  599SOL    HW1 1796   1.417   0.435   0.246  0.8548 -2.4006  1.7180
  599SOL    HW2 1797   1.554   0.450   0.331 -0.3544 -0.7610  2.4047
  600SOL     OW 1798   0.845   0.200   0.096  0.1229 -0.1955 -0.0879
  600SOL    HW1 1799   0.800   0.206   0.188  0.4033 -1.3559 -2.3502
  600SOL    HW2 1800   0.940   0.164   0.108  0.2582  1.3600  1.5645
  601SOL     OW 1801   0.439   0.092   1.506  0.6052  0.4065  0.1338
  601SOL    HW1 1802   0.490   0.168   1.545  2.1202 -1.2634 -0.1637
  601SOL    HW2 1803   0.344   0.119   1.479  0.8311  0.5575 -0.0879
  602SOL     OW 1804   0.145   2.855   0.851  0.0370  0.0131 -0.1375
  602SOL    HW1 1805   0.106   2.926   0.792  1.7992 -1.1216 -0.3885
  602SOL    HW2 1806   0.145   2.888   0.947 -2.5357  1.3419 -2.1851
  603SOL     OW 1807   0.695   2.864   2.518 -0.1941  0.4622  0.6234
  603SOL    HW1 1808   0.727   2.930   2.447  0.2606  0.2801 -0.6071
  603SOL    HW2 1809   0.677   2.770   2.476 -2.3997 -1.3130 -1.7724
  604SOL     OW 1810   1.008   2.756   0.086  0.0636 -0.7458 -0.2361
  604SOL    HW1 1811   1.008   2.686   0.165 -0.6759  0.7150 -1.4000
  604SOL    HW2 1812   1.011   2.709   3.117  0.5471 -2.0189 -2.4991
  605SOL     OW 1813   1.602   0.848   1.699 -0.4536 -0.3204  0.4947
  605SOL    HW1 1814   1.596   0.785   1.623 -0.6603 -0.3994  1.9153
  605SOL    HW2 1815   1.664   0.924   1.677 -2.4337 -0.8449  0.7079
  606SOL     OW 1816   1.231   0.845   2.806 -0.0241 -0.1418 -0.7134
  606SOL    HW1 1817   1.208   0.865   2.710  2.5128  0.5638 -1.0243
  606SOL    HW2 1818   1.154   0.879   2.867  1.5275  0.9152  1.6223
  607SOL     OW 1819   0.242   1.237   1.311  0.0905 -0.2758 -0.1493
  607SOL    HW1 1820   0.137   1.236   1.299  0.6709 -1.3891 -0.6939
  607SOL    HW2 1821   0.267   1.337   1.302 -1.8845 -0.3662 -3.4674
  608SOL     OW 1822   2.634   2.193   2.593  0.3577  0.2054 -0.3177
  608SOL    HW1 1823   2.630   2.167   2.495 -0.4301  3.8399  0.6598
  608SOL    HW2 1824   2.695   2.130   2.651 -1.6028  1.2946 -0.2169
  609SOL     OW 1825   2.219   0.170   0.272 -0.3205 -0.3327  0.4123
  609SOL    HW1 1826   2.124   0.163   0.305  1.5615  2.7955 -2.2902
  609SOL    HW2 1827   2.276   0.093   0.308  0.2356  0.7926 -2.5316
  610SOL     OW 1828   0.790   2.581   1.245  0.1830 -0.5804  0.3730
  610SOL    HW1 1829   0.864   2.622   1.186  1.8328 -0.8454  0.5732
  610SOL    HW2 1830   0.772   2.642   1.324  0.4959  0.6501  1.8771
  611SOL     OW 1831   1.011   1.467   0.706 -0.4602 -0.1794  0.2785
  611SOL    HW1 1832   0.920   1.485   0.743  0.1128  0.7146  0.2589
  611SOL    HW2 1833   1.026   1.369   0.695 -0.6533  1.0318 -1.0445
  612SOL     OW 1834   0.521   0.212   2.312 -0.7749 -0.6224  0.0639
  612SOL    HW1 1835   0.528   0.278   2.391  1.7121  2.2024  0.5312
  612SOL    HW2 1836   0.576   0.237   2.234  1.3412 -0.8750  0.2262
  613SOL     OW 1837   2.892   1.770   0.497  0.1978 -0.0927  0.0738
  613SOL    HW1 1838   2.940   1.751   0.587 -0.2865  1.6320  2.1872
  613SOL    HW2 1839   2.910   1.695   0.427 -1.1986  0.9381  0.3159
  614SOL     OW 1840   1.848   0.337   1.708  0.0527  0.3254  0.2199
  614SOL    HW1 1841   1.823   0.432   1.739  1.0600 -2.1094 -1.0712
  614SOL    HW2 1842   1.795   0.320   1.626 -0.1764 -0.7212  1.5119
  615SOL     OW 1843   1.032   1.574   1.288  0.7841  0.8757 -0.4470
  615SOL    HW1 1844   1.104   1.525   1.343 -1.5291  1.3264 -0.5011
  615SOL    HW2 1845   1.038   1.674   1.305  0.4785 -3.0004  0.0882
  616SOL     OW 1846   1.532   1.560   2.786  0.3713  0.3767 -0.1044
  616SOL    HW1 1847   1.564   1.486   2.849  2.6702 -0.3189  0.8682
  616SOL    HW2 1848   1.605   1.629   2.772 -0.8777 -1.1733  0.7401
  617SOL     OW 1849   1.637   2.665   0.501  0.3049  0.7353 -0.2893
  617SOL    HW1 1850   1.642   2.700   0.403 -0.6173  0.7707  1.5536
  617SOL    HW2 1851   1.652   2.567   0.515 -1.9891  0.2035 -0.6838
  618SOL     OW 1852   0.996   0.928   2.628  0.3426 -0.6016  0.5781
  618SOL    HW1 1853   1.008   0.996   2.706  0.4650  0.2049 -0.9562
  618SOL    HW2 1854   0.979   0.984   2.542  0.7037  0.8739 -0.3874
  619SOL     OW 1855   2.624   1.479   0.454  0.2072  0.3434 -0.1215
  619SOL    HW1 1856   2.530   1.456   0.486 -0.5424  0.3141  1.3095
  619SOL    HW2 1857   2.695   1.441   0.516  1.6099  0.2838  0.0812
  620SOL     OW 1858   2.304   2.906   0.043 -0.3212 -0.5247 -0.0737
  620SOL    HW1 1859   2.369   2.863   0.109 -1.4363 -1.0689 -1.5921
  620SOL    HW2 1860   2.207   2.875   0.067 -4.4163 -2.2488  0.8935
  621SOL     OW 1861   2.346   1.306   0.041  0.2830  0.4157  0.1206
  621SOL    HW1 1862   2.326   1.293   0.143 -0.5980 -0.1985 -0.8970
  621SOL    HW2 1863   2.261   1.311   3.114 -0.8713 -0.5024  0.8389
  622SOL     OW 1864   1.222   2.443   2.482  0.5720  0.0778  0.0727
  622SOL    HW1 1865   1.206   2.347   2.452 -0.0179 -0.6118  0.2032
  622SOL    HW2 1866   1.310   2.453   2.527 -1.4291 -1.1661  1.0965
  623SOL     OW 1867   0.646   1.537   0.249  0.5216  0.3636 -0.3987
  623SOL    HW1 1868   0.713   1.610   0.223  1.7724  1.1872  0.0208
  623SOL    HW2 1869   0.559   1.534   0.196 -0.4114 -0.5753  2.1749
  624SOL     OW 1870   0.408   0.021   2.903  0.4186  0.5240 -0.2309
  624SOL    HW1 1871   0.481   0.048   2.961 -1.5573  0.3126 -1.0343
  624SOL    HW2 1872   0.437   3.069   2.841 -0.0651 -0.9510  0.7768
  625SOL     OW 1873   0.884   1.974   0.510 -0.2305 -0.2144  0.1189
  625SOL    HW1 1874   0.841   2.060   0.549  0.9865  2.9488 -2.0115
  625SOL    HW2 1875   0.973   1.965   0.561 -1.1787  0.7965 -0.0574
  626SOL     OW 1876   2.470   0.087   2.963  0.5526 -0.5059 -0.3502
  626SOL    HW1 1877   2.375   0.069   3.002 -0.4270 -0.5627  1.0367
  626SOL    HW2 1878   2.508   0.182   2.982  0.6110  0.8342  1.5264
  627SOL     OW 1879   1.537   1.276   2.504  0.4353  0.2820  0.2921
  627SOL    HW1 1880   1.562   1.180   2.490 -1.8699  0.1622 -0.4623
  627SOL    HW2 1881   1.613   1.318   2.563 -0.1655  1.4610  1.0038
  628SOL     OW 1882   0.912   0.445   2.307  0.1846 -0.3883 -0.1172
  628SOL    HW1 1883   0.997   0.491   2.272  1.0352 -0.5950 -0.8577
  628SOL    HW2 1884   0.823   0.475   2.263  0.0260 -2.0267 -1.7581
  629SOL     OW 1885   0.352   0.129   1.883 -0.0617  0.3193 -0.0392
  629SOL    HW1 1886   0.368   0.058   1.816 -1.1185  2.2467 -1.6824
  629SOL    HW2 1887   0.438   0.137   1.937 -1.0185  1.3167 -1.4614
  630SOL     OW 1888   2.343   0.661   1.869 -0.1655  0.2238  0.1489
  630SOL    HW1 1889   2.335   0.680   1.769  2.4352 -2.5633  1.2871
  630SOL    HW2 1890   2.263   0.698   1.919  0.7252 -0.5512  1.3400
  631SOL     OW 1891   2.278   1.213   0.293  0.1567 -0.0758 -0.4767
  631SOL    HW1 1892   2.309   1.267   0.374 -0.1357  0.6851 -0.2507
  631SOL    HW2 1893   2.178   1.192   0.305 -2.9668 -0.4702  1.7744
  632SOL     OW 1894   2.091   0.289   2.091  0.0684 -0.3257 -0.2652
  632SOL    HW1 1895   2.051   0.222   2.029  0.9721 -0.6031  3.8563
  632SOL    HW2 1896   2.068   0.267   2.191  2.3519 -0.2981  2.5366
  633SOL     OW 1897   0.706   2.855   0.522 -0.4423 -0.7993  0.0638
  633SOL    HW1 1898   0.654   2.766   0.510 -2.9276 -0.2174 -0.7251
  633SOL    HW2 1899   0.666   2.918   0.454 -3.1490 -0.9247 -0.9286
  634SOL     OW 1900   1.391   3.005   2.719  0.0313  0.0236  0.0348
  634SOL    HW1 1901   1.491   3.025   2.741  0.8906 -0.0291 -2.1205
  634SOL    HW2 1902   1.335   3.010   2.804  0.4879 -1.1659 -2.2207
  635SOL     OW 1903   2.524   0.475   0.085  0.3214  0.2314  0.2743
  635SOL    HW1 1904   2.524   0.574   0.095  0.0098 -0.7081 -1.1990
  635SOL    HW2 1905   2.429   0.443   0.110  1.1795 -0.1560  1.1945
  636SOL     OW 1906   0.806   1.552   1.112 -0.1970  0.0799  0.4044
  636SOL    HW1 1907   0.876   1.586   1.175  0.3985  0.1276  0.9382
  636SOL    HW2 1908   0.830   1.455   1.087 -2.6186 -0.9336  1.5170
  637SOL     OW 1909   0.170   2.881   0.425 -0.3325  0.5348 -0.1891
  637SOL    HW1 1910   0.163   2.785   0.462 -2.4762 -1.9641 -0.9639
  637SOL    HW2 1911   0.089   2.908   0.373 -0.3105 -0.8731  1.6889
  638SOL     OW 1912   0.368   3.073   0.380  0.1411 -0.7191  0.3575
  638SOL    HW1 1913   0.413   0.001   0.457  0.7591  0.1777  0.9202
  638SOL    HW2 1914   0.293   3.006   0.400 -2.5301 -0.7445 -0.4226
  639SOL     OW 1915   1.244   1.327   0.291  0.4762 -0.0841  0.1962
  639SOL    HW1 1916   1.172   1.338   0.220 -0.5420 -0.9939 -1.5773
  639SOL    HW2 1917   1.295   1.416   0.296 -3.9053  0.1195 -2.6955
  640SOL     OW 1918   1.179   2.621   0.909 -0.1230 -0.3933  0.3060
  640SOL    HW1 1919   1.278   2.636   0.939  3.1348  0.8346  0.5141
  640SOL    HW2 1920   1.154   2.674   0.826  0.8806  0.1525  0.0910
  641SOL     OW 1921   0.141   2.639   0.561 -0.5573  0.2362 -0.0449
  641SOL    HW1 1922   0.060   2.610   0.617 -0.7828  1.1717  1.8060
  641SOL    HW2 1923   0.161   2.582   0.480  1.9425  0.9435  0.1746
  642SOL     OW 1924   1.077   0.025   1.716 -0.0504  0.2502  0.4588
  642SOL    HW1 1925   1.165   3.102   1.741  1.7885  2.2552 -3.2749
  642SOL    HW2 1926   1.029   3.088   1.651 -0.8373 -2.3835 -1.6266
  643SOL     OW 1927   0.793   2.055   2.314 -0.2151  0.2575  0.2349
  643SOL    HW1 1928   0.733   2.138   2.295 -1.0062  0.0152  1.0119
  643SOL    HW2 1929   0.737   1.978   2.343  3.9936 -0.7693 -0.2797
  644SOL     OW 1930   0.965   2.917   0.558 -0.2456  0.6261  0.1529
  644SOL    HW1 1931   0.862   2.904   0.548  1.5561  1.3609  0.0840
  644SOL    HW2 1932   1.009   3.006   0.583 -0.7875 -1.0319 -0.4541
  645SOL     OW 1933   1.090   1.674   2.572 -0.5531  0.0611  0.0045
  645SOL    HW1 1934   1.054   1.672   2.665  1.0657  1.2306  1.9729
  645SOL    HW2 1935   1.183   1.710   2.573  0.5185  0.4762 -0.9468
  646SOL     OW 1936   0.732   1.184   0.325  0.2577 -0.2485 -0.2726
  646SOL    HW1 1937   0.658   1.119   0.332  2.4395 -0.8562 -0.2708
  646SOL    HW2 1938   0.714   1.277   0.375  0.6856 -0.3195  2.3887
  647SOL     OW 1939   1.144   0.293   1.061  0.0501 -0.5144  0.0219
  647SOL    HW1 1940   1.110   0.345   1.143  0.6897  0.9136 -0.0856
  647SOL    HW2 1941   1.106   0.201   1.054  2.4719  0.3558 -0.4472
  648SOL     OW 1942   2.894   2.908   1.657  0.4330  0.4421 -0.4564
  648SOL    HW1 1943   2.802   2.931   1.697  0.0676 -1.0370 -2.5763
  648SOL    HW2 1944   2.938   2.988   1.616  0.5832 -0.3086  0.0885
  649SOL     OW 1945   0.519   2.076   0.062  0.5814 -0.4786 -0.4708
  649SOL    HW1 1946   0.535   2.154   0.001 -0.6131  0.3245  0.0217
  649SOL    HW2 1947   0.550   2.084   0.160  0.9317  0.9490 -1.2087
  650SOL     OW 1948   0.359   1.955   1.516  0.2645 -0.0883 -0.5543
  650SOL    HW1 1949   0.319   1.947   1.606  1.3321 -0.1305 -4.3661
  650SOL    HW2 1950   0.308   2.026   1.468  0.2391 -1.5199  1.0654
  651SOL     OW 1951   3.097   2.936   2.988  0.1244 -0.1208  0.3177
  651SOL    HW1 1952   0.070   2.929   3.018 -1.1580 -0.7044  0.8877
  651SOL    HW2 1953   3.089   3.010   2.916 -2.2213 -1.5487  0.3040
  652SOL     OW 1954   2.432   1.797   0.297  0.2484 -0.2597  0.3344
  652SOL    HW1 1955   2.453   1.891   0.336  1.4644  2.6114 -0.7208
  652SOL    HW2 1956   2.340   1.787   0.255 -2.5728 -1.8912  1.3362
  653SOL     OW 1957   0.201   0.208   1.183 -0.1272 -0.2054 -0.5152
  653SOL    HW1 1958   0.226   0.153   1.097  0.5757  1.2169 -1.1934
  653SOL    HW2 1959   0.283   0.250   1.232  0.5010 -0.2867  3.0626
  654SOL     OW 1960   1.620   2.967   2.924  0.6188  0.3521  0.1064
  654SOL    HW1 1961   1.643   3.055   2.875 -3.2072 -0.1492  3.0652
  654SOL    HW2 1962   1.603   2.982   3.024  1.8668 -0.3900  1.3832
  655SOL     OW 1963   0.993   2.705   1.115 -0.4003  0.4444 -0.1128
  655SOL    HW1 1964   0.929   2.777   1.085  0.0922  2.9056 -0.5776
  655SOL    HW2 1965   1.060   2.684   1.039  0.5585 -0.0644  0.9583
  656SOL     OW 1966   0.469   2.786   1.951  0.0983  0.3336 -0.3570
  656SOL    HW1 1967   0.453   2.823   2.044 -0.0591 -0.7553  2.1663
  656SOL    HW2 1968   0.467   2.682   1.949  1.8140 -0.8454  1.9843
  657SOL     OW 1969   2.125   0.773   1.992 -0.3957  0.2238  0.3142
  657SOL    HW1 1970   2.186   0.804   2.064  1.7969  0.6108  0.6968
  657SOL    HW2 1971   2.080   0.685   2.022  1.0203 -0.4337  1.6949
  658SOL     OW 1972   2.471   1.980   1.186 -0.5072  0.0588  0.2746
  658SOL    HW1 1973   2.432   1.946   1.275  1.5341 -2.3634  0.8403
  658SOL    HW2 1974   2.461   1.907   1.115  0.3557 -0.7532  2.3017
  659SOL     OW 1975   2.503   2.751   0.192  0.2344  0.0853 -0.3095
  659SOL    HW1 1976   2.586   2.715   0.144 -0.9587  1.1106  0.8919
  659SOL    HW2 1977   2.526   2.766   0.292  0.9965  0.3412  3.5670
  660SOL     OW 1978   1.011   1.113   2.832  0.3070 -0.1911  0.3754
  660SOL    HW1 1979   1.000   1.211   2.837  0.2743 -1.8894  0.7652
  660SOL    HW2 1980   0.967   1.061   2.910 -1.2848 -0.1810  0.0381
  661SOL     OW 1981   2.528   2.555   0.964 -0.2045 -0.0654  0.2258
  661SOL    HW1 1982   2.466   2.628   0.946  3.0098 -2.5727 -0.5930
  661SOL    HW2 1983   2.492   2.459   0.964  2.0472  1.3832 -1.8718
  662SOL     OW 1984   0.578   0.699   0.330 -0.1595 -0.2056 -0.2448
  662SOL    HW1 1985   0.558   0.600   0.340  1.7777  0.6044 -1.9252
  662SOL    HW2 1986   0.510   0.763   0.376 -2.3525 -0.2275  2.8586
  663SOL     OW 1987   1.103   2.175   2.882  0.2527 -0.4848 -0.4459
  663SOL    HW1 1988   1.114   2.221   2.970  0.6486 -0.7905 -0.0843
  663SOL    HW2 1989   1.172   2.212   2.814 -0.7742 -0.1109  2.0542
  664SOL     OW 1990   0.740   2.769   1.428  0.2243  0.0778 -0.2517
  664SOL    HW1 1991   0.717   2.712   1.510  0.8639 -2.4920 -1.4968
  664SOL    HW2 1992   0.801   2.849   1.443  2.7823 -0.8323  2.6511
  665SOL     OW 1993   1.837   1.729   1.877  0.0981 -0.1002 -0.0637
  665SOL    HW1 1994   1.824   1.636   1.840 -0.4382 -0.8522  0.4725
  665SOL    HW2 1995   1.922   1.737   1.934 -1.6101 -0.6506 -1.5356
  666SOL     OW 1996   0.399   2.657   0.281 -0.1578 -0.8105  0.0942
  666SOL    HW1 1997   0.450   2.626   0.199  3.2143  1.4111 -1.1253
  666SOL    HW2 1998   0.361   2.747   0.267  1.3886 -0.5423 -0.7199
  667SOL     OW 1999   1.860   1.562   1.455 -0.1588  0.5581 -0.2662
  667SOL    HW1 2000   1.813   1.478   1.486 -0.1421  3.7796 -0.7465
  667SOL    HW2 2001   1.932   1.592   1.521  0.2560 -3.2723 -0.6532
  668SOL     OW 2002   0.155   0.111   2.085  0.1308 -0.2712  0.2497
  668SOL    HW1 2003   0.207   0.100   1.996  0.4925  0.7294  1.1716
  668SOL    HW2 2004   0.079   0.043   2.091  1.0522  2.4339 -1.2775
  669SOL     OW 2005   1.726   2.235   2.317  0.1835  0.3505  0.0516
  669SOL    HW1 2006   1.822   2.253   2.283  1.7698  0.4858 -0.0236
  669SOL    HW2 2007   1.688   2.159   2.255 -1.1251 -0.9880  1.6507
  670SOL     OW 2008   2.464   2.071   0.390 -0.2596  0.2172  0.2913
  670SOL    HW1 2009   2.535   2.014   0.437 -2.8251 -0.5439 -1.6685
  670SOL    HW2 2010   2.379   2.084   0.448 -0.6233  1.2400  3.2741
  671SOL     OW 2011   0.572   1.367   1.358 -0.1040 -0.3694 -0.1426
  671SOL    HW1 2012   0.578   1.339   1.259 -0.2137  1.9272 -1.3768
  671SOL    HW2 2013   0.475   1.369   1.386 -1.7379  2.9635 -0.1204
  672SOL     OW 2014   2.613   1.351   2.268  0.7892 -0.2470 -0.1585
  672SOL    HW1 2015   2.527   1.384   2.319 -0.0410 -1.0444  1.9188
  672SOL    HW2 2016   2.694   1.405   2.287 -3.3919 -1.8795 -1.2865
  673SOL     OW 2017   2.958   1.885   2.339  0.0743  0.0316 -0.2577
  673SOL    HW1 2018   2.862   1.913   2.315 -2.3383  0.4597  1.7294
  673SOL    HW2 2019   3.019   1.966   2.348  0.1648 -2.7928  3.9141
  674SOL     OW 2020   0.922   2.711   2.235 -0.0120 -0.4886 -0.3265
  674SOL    HW1 2021   0.999   2.714   2.305  0.4893  0.2340 -0.4556
  674SOL    HW2 2022   0.879   2.808   2.239  0.5408 -0.6273  1.2034
  675SOL     OW 2023   0.858   0.824   1.494  0.2842 -0.4054 -0.0184
  675SOL    HW1 2024   0.911   0.769   1.556 -1.4943  1.4523  0.4932
  675SOL    HW2 2025   0.807   0.894   1.550 -0.5526 -0.4764 -2.8562
  676SOL     OW 2026   1.521   0.775   0.194 -0.4067 -0.1686  0.4306
  676SOL    HW1 2027   1.593   0.724   0.142  0.8682 -0.4071 -1.2491
  676SOL    HW2 2028   1.552   0.795   0.289  0.2045 -1.5373 -0.9431
  677SOL     OW 2029   3.019   1.599   2.704 -0.4300 -0.0265 -0.4330
  677SOL    HW1 2030   2.955   1.532   2.743  1.5064  0.2361 -0.3523
  677SOL    HW2 2031   3.113   1.575   2.739 -1.0548 -2.0799 -0.2692
  678SOL     OW 2032   2.876   3.019   1.310 -1.0799 -0.2761  0.1489
  678SOL    HW1 2033   2.920   3.056   1.395  2.0849  0.7503  1.2373
  678SOL    HW2 2034   2.896   2.921   1.299  2.0026 -0.7591 -1.8717
  679SOL     OW 2035   2.062   0.090   0.598  0.0659 -0.2929  0.3500
  679SOL    HW1 2036   2.020   0.148   0.671  0.0912  1.3603  0.2443
  679SOL    HW2 2037   2.164   0.102   0.586  0.9058  1.5042 -1.2842
  680SOL     OW 2038   0.244   2.195   2.160 -0.2089 -0.0237 -0.2974
  680SOL    HW1 2039   0.267   2.142   2.079  0.7606 -1.5277  0.0663
  680SOL    HW2 2040   0.277   2.292   2.158  0.9695 -0.8194  1.2972
  681SOL     OW 2041   0.322   1.499   1.310  0.2563  0.1056 -0.1166
  681SOL    HW1 2042   0.295   1.537   1.218 -4.1690  1.7189 -2.0545
  681SOL    HW2 2043   0.337   1.579   1.373 -0.0523  1.2107 -0.2951
  682SOL     OW 2044   0.234   2.255   1.647 -0.4790 -0.1282  0.2369
  682SOL    HW1 2045   0.205   2.210   1.561  2.0635  0.6763  1.1443
  682SOL    HW2 2046   0.185   2.341   1.652  0.7297  1.2254  0.4212
  683SOL     OW 2047   3.094   1.794   1.557  0.3027  0.2124 -0.6141
  683SOL    HW1 2048   3.050   1.882   1.588 -0.6889 -0.2239  1.3417
  683SOL    HW2 2049   0.038   1.762   1.625 -1.1993 -0.2545  0.8921
  684SOL     OW 2050   2.647   1.645   0.237  0.4187  0.0081  0.2081
  684SOL    HW1 2051   2.562   1.703   0.238  1.3735  1.4060  0.4251
  684SOL    HW2 2052   2.644   1.593   0.326  1.1452  0.7239 -1.7786
  685SOL     OW 2053   1.312   0.664   0.360 -0.1695  0.0638  0.7427
  685SOL    HW1 2054   1.390   0.679   0.295  0.4839 -0.0445 -0.4215
  685SOL    HW2 2055   1.227   0.713   0.329 -0.2946 -1.2123 -0.4603
  686SOL     OW 2056   0.319   0.075   0.973  0.8029  0.2492  0.0631
  686SOL    HW1 2057   0.388   0.108   0.906  1.5388  0.3367 -0.4194
  686SOL    HW2 2058   0.354   0.063   1.066  0.5305  1.5161 -0.0510
  687SOL     OW 2059   0.878   1.323   2.607 -0.3698  0.2116 -0.0308
  687SOL    HW1 2060   0.906   1.238   2.565 -0.2609  0.8851  1.4744
  687SOL    HW2 2061   0.903   1.311   2.708  0.5191  0.5941 -0.0835
  688SOL     OW 2062   1.114   1.550   1.754  0.0898 -0.2185 -0.0029
  688SOL    HW1 2063   1.022   1.518   1.732  1.4801 -0.9998  0.5545
  688SOL    HW2 2064   1.128   1.537   1.857  0.5577 -0.2154  1.5998
  689SOL     OW 2065   2.322   0.219   1.326  0.1870  0.0245 -0.2846
  689SOL    HW1 2066   2.354   0.164   1.241 -1.2686 -0.2143  0.5789
  689SOL    HW2 2067   2.267   0.302   1.301 -0.0956 -0.8296 -0.8897
  690SOL     OW 2068   2.963   1.534   0.962 -0.1789 -0.5712 -0.8449
  690SOL    HW1 2069   3.010   1.564   1.049  2.8442  1.1323  0.7604
  690SOL    HW2 2070   2.998   1.439   0.945 -0.8563  2.8286  0.8720
  691SOL     OW 2071   0.169   2.516   1.297  0.2020  0.2746 -0.6737
  691SOL    HW1 2072   0.191   2.413   1.294 -2.7403 -1.1542 -1.0282
  691SOL    HW2 2073   0.069   2.530   1.298  1.1858 -1.9466  0.2396
  692SOL     OW 2074   2.028   3.046   0.999 -0.2561  0.0466 -0.5549
  692SOL    HW1 2075   2.119   3.078   0.972 -0.2079  0.4132 -1.9649
  692SOL    HW2 2076   2.029   3.050   1.102  4.4921  2.3847  1.3328
  693SOL     OW 2077   0.422   1.627   2.496 -0.1234 -0.5004 -0.3145
  693SOL    HW1 2078   0.484   1.585   2.427  0.2020 -1.9677  1.3813
  693SOL    HW2 2079   0.322   1.593   2.481  1.2414 -0.6163  0.8042
  694SOL     OW 2080   1.814   0.995   1.331  0.3795  0.0456 -0.2960
  694SOL    HW1 2081   1.879   0.927   1.290  0.3252 -0.2868 -1.6250
  694SOL    HW2 2082   1.721   0.977   1.295  2.4420 -0.0795  3.0961
  695SOL     OW 2083   0.970   0.873   1.224 -0.1413 -0.1525  0.3453
  695SOL    HW1 2084   0.932   0.843   1.314 -2.2287  2.7053  0.2573
  695SOL    HW2 2085   1.069   0.862   1.218  0.7861  0.6078 -2.3591
  696SOL     OW 2086   1.328   3.002   0.796  0.1182 -0.5703  0.0126
  696SOL    HW1 2087   1.423   3.020   0.823  0.1047  1.3969 -3.4334
  696SOL    HW2 2088   1.332   2.964   0.703  2.8432  1.7122  1.2204
  697SOL     OW 2089   1.230   0.526   1.457 -0.2208  0.4682 -0.7141
  697SOL    HW1 2090   1.257   0.530   1.556 -0.1205 -1.9744  2.2208
  697SOL    HW2 2091   1.247   0.610   1.407  0.3680 -1.0808  0.1959
  698SOL     OW 2092   1.555   1.098   2.088  0.3632 -0.4367 -0.3349
  698SOL    HW1 2093   1.643   1.061   2.119 -2.8861  5.0193 -0.3332
  698SOL    HW2 2094   1.560   1.202   2.085  0.0161 -2.8848 -0.7868
  699SOL     OW 2095   1.722   0.700   1.139  0.0434 -0.2581  0.3116
  699SOL    HW1 2096   1.708   0.669   1.046  0.3554  2.6985 -0.9715
  699SOL    HW2 2097   1.663   0.781   1.163  2.5286 -1.5975 -0.2122
  700SOL     OW 2098   1.009   2.545   0.282  0.4129 -0.2681  0.4920
  700SOL    HW1 2099   1.006   2.606   0.365  1.6159 -0.7781 -0.9437
  700SOL    HW2 2100   1.078   2.475   0.303 -2.7263  2.0623  0.6429
  701SOL     OW 2101   2.024   2.476   3.009  0.0876  0.5516 -0.4040
  701SOL    HW1 2102   1.939   2.425   2.980  0.9168 -1.9925  0.4089
  701SOL    HW2 2103   2.099   2.449   2.941 -1.8962 -0.9619 -1.8593
  702SOL     OW 2104   0.866   0.388   0.676  0.0077  0.6626  0.0086
  702SOL    HW1 2105   0.958   0.425   0.693  2.2217 -1.6275  0.8522
  702SOL    HW2 2106   0.848   0.299   0.730 -2.0211 -1.9633  0.2547
  703SOL     OW 2107   2.437   0.242   2.414  0.0797 -0.1061  0.7003
  703SOL    HW1 2108   2.382   0.269   2.494  0.4852 -0.1627 -0.9339
  703SOL    HW2 2109   2.396   0.265   2.323 -0.1244 -1.5819 -2.2300
  704SOL     OW 2110   0.258   2.034   0.402  0.0165  0.3978  0.1393
  704SOL    HW1 2111   0.284   1.945   0.447  1.0544  1.1416 -0.5619
  704SOL    HW2 2112   0.324   2.103   0.431 -2.0656 -1.2003  0.6370
  705SOL     OW 2113   2.831   2.738   2.327  0.0042  0.3569 -0.2003
  705SOL    HW1 2114   2.779   2.711   2.243  0.9704  0.8092  2.2239
  705SOL    HW2 2115   2.854   2.836   2.319 -0.0226 -2.8130  0.8764
  706SOL     OW 2116   2.339   2.760   0.936 -0.6383  0.7900  0.1334
  706SOL    HW1 2117   2.241   2.780   0.972 -3.6626  0.7580 -2.1329
  706SOL    HW2 2118   2.373   2.828   0.871  0.6171 -0.3922 -0.0848
  707SOL     OW 2119   0.742   2.506   2.204 -0.3219 -0.2059 -0.2750
  707SOL    HW1 2120   0.739   2.472   2.111 -0.1970 -0.5915  2.4886
  707SOL    HW2 2121   0.803   2.587   2.211  1.6858 -1.5354  1.8647
  708SOL     OW 2122   0.070   2.058   2.312 -0.3809  0.6280  0.0242
  708SOL    HW1 2123   0.119   1.983   2.361  2.3121  1.6374  0.2928
  708SOL    HW2 2124   0.126   2.103   2.240 -1.2008  0.2278 -0.7933
  709SOL     OW 2125   1.995   0.016   1.933  0.2523  0.0459 -0.3280
  709SOL    HW1 2126   2.005   0.057   1.841 -0.8649 -0.2632  0.0560
  709SOL    HW2 2127   1.900   0.020   1.964 -2.4588  0.6995  0.9392
  710SOL     OW 2128   1.580   0.602   2.434 -0.4717  0.1473  0.3079
  710SOL    HW1 2129   1.618   0.579   2.522  2.0716 -0.7242  0.5714
  710SOL    HW2 2130   1.653   0.601   2.362  0.4429 -0.3565 -2.9861
  711SOL     OW 2131   0.639   2.140   2.790 -0.7907  0.2831  0.0853
  711SOL    HW1 2132   0.718   2.081   2.783 -2.1233  0.3740  1.1461
  711SOL    HW2 2133   0.564   2.085   2.745  0.1095 -3.8239 -2.3701
  712SOL     OW 2134   0.477   2.490   2.561 -0.0899  0.4460 -0.4914
  712SOL    HW1 2135   0.448   2.516   2.654 -1.0727 -2.3615  2.2636
  712SOL    HW2 2136   0.493   2.568   2.498  0.5050 -0.6598 -0.5916
  713SOL     OW 2137   1.765   1.360   2.603 -0.1713  0.4294 -0.2213
  713SOL    HW1 2138   1.850   1.359   2.545 -2.0223 -0.0263 -1.2341
  713SOL    HW2 2139   1.777   1.382   2.698 -2.0528  0.2229 -2.2125
  714SOL     OW 2140   1.604   1.371   2.081  0.0593  0.0937 -0.4540
  714SOL    HW1 2141   1.561   1.415   1.998  0.5470 -0.8358  0.2254
  714SOL    HW2 2142   1.558   1.400   2.165  0.2650  1.4979 -0.5870
  715SOL     OW 2143   2.153   0.513   2.486  0.8211 -0.1482  1.3230
  715SOL    HW1 2144   2.084   0.452   2.532 -0.8868 -1.4168  1.4269
  715SOL    HW2 2145   2.103   0.585   2.433  0.1287 -0.6871 -2.3845
  716SOL     OW 2146   2.995   2.028   1.657  0.1758 -0.6205 -0.0783
  716SOL    HW1 2147   2.946   2.025   1.747  0.6579 -0.4876 -0.6180
  716SOL    HW2 2148   3.017   2.124   1.641 -0.0952  1.5549  2.0601
  717SOL     OW 2149   2.455   1.339   0.814 -0.0611  0.3164  0.0218
  717SOL    HW1 2150   2.532   1.399   0.840 -2.4016  0.6684 -3.4491
  717SOL    HW2 2151   2.493   1.255   0.765  1.9383 -0.4202  0.8202
  718SOL     OW 2152   0.961   1.936   2.136 -0.1794  0.5984 -0.3440
  718SOL    HW1 2153   0.906   1.997   2.201 -1.5675  0.2423 -0.2819
  718SOL    HW2 2154   0.948   1.835   2.155 -0.5561 -1.0327  0.6032
  719SOL     OW 2155   1.981   0.743   2.675  0.0648  0.0604 -0.3675
  719SOL    HW1 2156   1.968   0.724   2.576 -0.7296 -0.3497 -1.0508
  719SOL    HW2 2157   1.980   0.842   2.691 -0.1776 -2.3209 -1.6631
  720SOL     OW 2158   0.553   0.389   0.960 -0.3308 -0.3493 -0.2783
  720SOL    HW1 2159   0.575   0.304   0.905 -1.8639  0.5042  2.7441
  720SOL    HW2 2160   0.456   0.419   0.948  3.1122  0.5150 -0.8094
  721SOL     OW 2161   3.010   0.775   0.327 -0.0232 -0.3885  0.5647
  721SOL    HW1 2162   3.010   0.682   0.358  2.7752  1.9127 -2.1466
  721SOL    HW2 2163   2.916   0.818   0.329 -2.9118 -0.2056  1.7702
  722SOL     OW 2164   3.032   0.494   2.657  0.2705  0.0351  0.3496
  722SOL    HW1 2165   2.983   0.415   2.694 -0.0216 -0.0166 -0.5162
  722SOL    HW2 2166   3.117   0.513   2.703 -0.4665  0.4150 -0.5003
  723SOL     OW 2167   1.690   0.174   0.336 -0.3292 -0.2838 -0.0970
  723SOL    HW1 2168   1.620   0.198   0.264 -1.7759 -0.4707 -0.7111
  723SOL    HW2 2169   1.646   0.136   0.417 -0.1043 -0.1265 -2.9465
  724SOL     OW 2170   0.609   1.748   2.171  0.4593 -0.0933 -0.5117
  724SOL    HW1 2171   0.641   1.768   2.078 -0.0195  0.2670  2.7038
  724SOL    HW2 2172   0.634   1.823   2.237  0.6544 -0.7800 -1.4654
  725SOL     OW 2173   1.572   2.988   0.908  0.0132  0.2716 -0.4613
  725SOL    HW1 2174   1.594   2.896   0.947  0.8920 -0.2011 -0.8650
  725SOL    HW2 2175   1.653   3.044   0.904 -1.0711 -2.8985  2.4692
  726SOL     OW 2176   1.927   2.279   0.314 -0.0799 -0.0238  0.0278
  726SOL    HW1 2177   1.992   2.308   0.241  1.4615  2.2082  0.2386
  726SOL    HW2 2178   1.925   2.350   0.387 -1.2221 -2.5534 -3.4997
  727SOL     OW 2179   1.720   1.631   1.227 -0.0550 -0.5892  0.1988
  727SOL    HW1 2180   1.773   1.611   1.312 -2.6411 -1.8837 -0.2787
  727SOL    HW2 2181   1.753   1.723   1.191 -0.3313  0.6424 -1.3708
  728SOL     OW 2182   1.908   2.760   1.613  0.6444 -0.1913  0.0832
  728SOL    HW1 2183   1.979   2.693   1.593 -4.8597  1.2543 -1.4948
  728SOL    HW2 2184   1.818   2.718   1.603  0.6173  1.2470 -0.5908
  729SOL     OW 2185   2.032   2.131   1.406 -0.4205 -0.0929 -0.0098
  729SOL    HW1 2186   2.075   2.202   1.464 -0.1897  0.3499 -0.8124
  729SOL    HW2 2187   2.074   2.039   1.409  0.1457 -1.6168 -2.3509
  730SOL     OW 2188   1.474   0.802   2.930  0.0550 -0.0408  0.3963
  730SOL    HW1 2189   1.388   0.820   2.877 -1.3154 -0.2176  0.5232
  730SOL    HW2 2190   1.503   0.705   2.927 -1.5136  1.6681  1.4457
  731SOL     OW 2191   0.420   0.360   0.679 -0.0359  0.9076 -0.5229
  731SOL    HW1 2192   0.352   0.298   0.722 -0.9739  1.9220  0.0975
  731SOL    HW2 2193   0.373   0.436   0.630  2.2678  1.7451  0.8163
  732SOL     OW 2194   1.538   0.265   0.646 -0.1495  0.0028  0.5897
  732SOL    HW1 2195   1.435   0.243   0.659 -2.2123 -0.3873  1.1118
  732SOL    HW2 2196   1.584   0.184   0.611 -4.5109  0.4071 -0.1146
  733SOL     OW 2197   0.737   1.796   1.573 -0.0392  0.9193  0.0273
  733SOL    HW1 2198   0.750   1.706   1.537  3.1572  0.8848 -0.4519
  733SOL    HW2 2199   0.720   1.848   1.486 -0.6882  1.7854 -2.5652
  734SOL     OW 2200   2.708   2.692   0.012  0.0859  0.2819  0.2608
  734SOL    HW1 2201   2.681   2.754   3.053 -1.3546 -1.6027  0.8721
  734SOL    HW2 2202   2.763   2.612   3.105  0.5229 -0.1141 -0.1631
  735SOL     OW 2203   1.224   3.026   1.346 -0.4491  0.7949  0.1952
  735SOL    HW1 2204   1.213   0.007   1.336 -2.5214  1.9946  0.6827
  735SOL    HW2 2205   1.284   2.988   1.275  0.2102 -0.4314  3.5631
  736SOL     OW 2206   1.898   2.019   0.253 -0.0733 -0.1429  0.6106
  736SOL    HW1 2207   1.987   1.970   0.269  1.3692  0.0291 -0.3319
  736SOL    HW2 2208   1.912   2.117   0.276  0.6886  0.4283  0.3662
  737SOL     OW 2209   0.037   1.521   1.134 -0.3793  0.0771  0.2084
  737SOL    HW1 2210   0.134   1.540   1.099  2.3990  0.7589 -3.6142
  737SOL    HW2 2211   0.022   1.558   1.228  2.5137 -0.2880 -2.2385
  738SOL     OW 2212   2.021   2.309   2.443 -0.0467 -0.2048  0.6110
  738SOL    HW1 2213   1.966   2.280   2.524 -0.9341  1.6711  1.4912
  738SOL    HW2 2214   2.119   2.293   2.462  1.0510  0.2576  2.8243
  739SOL     OW 2215   1.180   1.909   2.762 -0.5139  0.9941 -0.5115
  739SOL    HW1 2216   1.202   1.931   2.661 -1.9888  0.3173 -2.1519
  739SOL    HW2 2217   1.125   1.981   2.800  1.4639  0.8471  4.5274
  740SOL     OW 2218   1.375   2.913   1.139 -0.3218 -0.7020 -0.0030
  740SOL    HW1 2219   1.401   2.820   1.166 -1.5982 -0.3409 -0.5461
  740SOL    HW2 2220   1.421   2.930   1.049  1.5618 -0.0100  0.2509
  741SOL     OW 2221   0.096   1.138   0.822  0.5608  0.2859  0.1666
  741SOL    HW1 2222   0.161   1.078   0.871 -0.9983  0.2591 -0.0966
  741SOL    HW2 2223   0.026   1.081   0.776 -0.1230 -0.5042 -1.4761
  742SOL     OW 2224   0.605   1.545   2.335 -0.7256 -0.0741  0.6709
  742SOL    HW1 2225   0.701   1.549   2.377 -0.7882  0.5307  0.8431
  742SOL    HW2 2226   0.594   1.610   2.257  2.1237  0.5646  0.2544
  743SOL     OW 2227   1.145   0.858   2.060 -0.0621  0.2331  0.7563
  743SOL    HW1 2228   1.209   0.938   2.055 -2.6829  1.1080 -1.5816
  743SOL    HW2 2229   1.192   0.767   2.063  0.4935 -3.7990 -0.3077
  744SOL     OW 2230   2.072   0.182   1.724 -0.4291 -0.2371  0.3490
  744SOL    HW1 2231   1.990   0.242   1.723  1.0398  0.0732  2.5548
  744SOL    HW2 2232   2.153   0.242   1.732 -3.6637 -0.1428 -1.6857
  745SOL     OW 2233   2.216   1.397   1.659  0.2334 -0.5612  0.0503
  745SOL    HW1 2234   2.310   1.442   1.656  2.6757 -1.9436  2.4637
  745SOL    HW2 2235   2.198   1.347   1.573 -0.8327  0.1133 -1.2815
  746SOL     OW 2236   2.011   1.178   0.280 -0.2366  0.2666  0.1464
  746SOL    HW1 2237   1.966   1.256   0.233  0.4059  0.0614 -0.7452
  746SOL    HW2 2238   2.005   1.089   0.232  0.7690 -0.7221  0.2948
  747SOL     OW 2239   2.696   1.482   0.886  0.5218  0.0737  0.2594
  747SOL    HW1 2240   2.788   1.477   0.933  0.7441 -1.6645  1.8746
  747SOL    HW2 2241   2.683   1.578   0.854 -0.2903 -2.3519 -1.4153
  748SOL     OW 2242   0.236   1.765   0.448  0.3682 -0.1649 -0.6668
  748SOL    HW1 2243   0.231   1.809   0.360  0.7853  0.4156 -0.4652
  748SOL    HW2 2244   0.308   1.694   0.439 -2.9438  2.9954  0.3819
  749SOL     OW 2245   2.738   2.431   2.668 -0.4614  0.2272 -0.3370
  749SOL    HW1 2246   2.703   2.334   2.644  1.5274 -3.1574  2.2811
  749SOL    HW2 2247   2.678   2.499   2.623 -0.6449 -0.8854  0.2843
  750SOL     OW 2248   2.399   0.743   0.919  0.0276  0.2371 -0.1609
  750SOL    HW1 2249   2.329   0.818   0.936  0.9089  1.2458  0.9287
  750SOL    HW2 2250   2.399   0.675   0.995  2.2343  1.7477 -0.3549
  751SOL     OW 2251   2.622   3.040   3.108 -0.4957  0.0125  0.5117
  751SOL    HW1 2252   2.558   3.103   3.066 -1.7445 -0.7928  0.4039
  751SOL    HW2 2253   2.623   2.956   3.058  0.8009  1.4404  1.8115
  752SOL     OW 2254   2.966   2.805   0.923  0.4160 -0.4577 -0.4740
  752SOL    HW1 2255   3.011   2.853   0.998  0.0292  0.6989 -2.1780
  752SOL    HW2 2256   3.014   2.716   0.903  1.8758 -2.2402  2.1220
  753SOL     OW 2257   1.843   0.993   2.370  0.2389  0.6741 -0.7994
  753SOL    HW1 2258   1.920   1.038   2.412 -3.2934  0.2652 -0.6194
  753SOL    HW2 2259   1.756   1.012   2.417  0.8235 -0.2082 -2.2588
  754SOL     OW 2260   2.002   2.153   1.773  0.0313 -0.1442  0.1139
  754SOL    HW1 2261   1.917   2.103   1.763  0.4722  0.0142 -0.4231
  754SOL    HW2 2262   2.085   2.095   1.798 -0.7924  0.8607 -1.9971
  755SOL     OW 2263   2.639   0.850   0.840 -0.3776  0.1604 -0.0816
  755SOL    HW1 2264   2.550   0.807   0.874 -0.3940 -0.5918 -0.1070
  755SOL    HW2 2265   2.691   0.886   0.919  0.5748  0.3236  2.0309
  756SOL     OW 2266   0.639   1.313   3.024  0.2962  0.2043  0.3546
  756SOL    HW1 2267   0.539   1.295   3.049  0.4624  1.8663  3.3089
  756SOL    HW2 2268   0.652   1.343   2.928 -0.2541 -2.3531 -2.3489
  757SOL     OW 2269   1.500   2.407   1.173  0.2189  0.6258 -0.4863
  757SOL    HW1 2270   1.492   2.373   1.077 -3.6378  0.4965 -1.3957
  757SOL    HW2 2271   1.527   2.332   1.235 -1.7065  0.0039  0.3502
  758SOL     OW 2272   1.089   2.420   1.586  0.4891  0.4527  0.0259
  758SOL    HW1 2273   1.097   2.397   1.487  0.5929 -0.0450  0.3835
  758SOL    HW2 2274   1.137   2.504   1.607 -2.3954 -1.1221  1.1759
  759SOL     OW 2275   2.841   1.227   1.004 -0.0590 -0.7094  0.4637
  759SOL    HW1 2276   2.779   1.251   1.080  3.2162 -0.2671 -2.9738
  759SOL    HW2 2277   2.938   1.258   1.024  1.2232 -1.5643  2.0217
  760SOL     OW 2278   2.167   1.193   1.448  0.2993  0.3467 -0.3981
  760SOL    HW1 2279   2.184   1.098   1.405  0.9268 -4.5367  0.1137
  760SOL    HW2 2280   2.075   1.225   1.410 -3.3391  1.5942  1.4075
  761SOL     OW 2281   1.962   3.037   0.176  0.0078  0.2902  0.1275
  761SOL    HW1 2282   1.946   3.108   0.248 -3.2399  0.8652  0.0457
  761SOL    HW2 2283   1.969   3.075   0.083  0.4181 -1.7631  1.0480
  762SOL     OW 2284   2.077   1.453   2.829 -0.6535  0.7330 -0.2058
  762SOL    HW1 2285   2.161   1.431   2.778 -4.4550 -1.3438 -1.4750
  762SOL    HW2 2286   2.093   1.531   2.890 -1.3565 -3.3293  0.4751
  763SOL     OW 2287   0.492   2.276   1.758  0.3122 -0.1117 -0.2353
  763SOL    HW1 2288   0.527   2.186   1.725  0.8639  0.4746  3.0290
  763SOL    HW2 2289   0.395   2.281   1.733  1.0918 -4.6356  1.2260
  764SOL     OW 2290   0.044   2.329   0.178 -0.0920  0.0964 -0.7832
  764SOL    HW1 2291   3.069   2.364   0.188 -0.7706  0.9722  0.5225
  764SOL    HW2 2292   0.060   2.267   0.100 -2.5511  1.2559  2.5936
  765SOL     OW 2293   0.403   0.000   1.219 -0.1084 -0.2501 -0.1345
  765SOL    HW1 2294   0.443   0.054   1.296 -1.1153  2.7055  0.2706
  765SOL    HW2 2295   0.475   3.058   1.192 -2.9086 -2.6126 -3.6907
  766SOL     OW 2296   2.684   2.173   2.258 -0.9189 -0.1445 -0.0074
  766SOL    HW1 2297   2.770   2.194   2.307 -3.4431 -0.5164  1.2107
  766SOL    HW2 2298   2.663   2.073   2.251  2.8009 -0.5352 -1.0944
  767SOL     OW 2299   2.750   0.936   2.198 -0.3418 -0.5473  0.1008
  767SOL    HW1 2300   2.666   0.904   2.149  1.4880 -0.0001 -0.0657
  767SOL    HW2 2301   2.829   0.894   2.157 -0.4969  1.7542  0.9748
  768SOL     OW 2302   0.884   0.246   2.588 -0.1688  0.3263 -0.0987
  768SOL    HW1 2303   0.798   0.195   2.571  1.3083  2.5878 -0.4222
  768SOL    HW2 2304   0.945   0.197   2.655  2.8259  1.6127 -0.6928
  769SOL     OW 2305   2.715   2.892   0.879 -0.3446 -0.0037  0.5164
  769SOL    HW1 2306   2.811   2.869   0.900  0.4562 -1.8801  1.1869
  769SOL    HW2 2307   2.664   2.863   0.961  1.1604 -0.5936 -3.1412
  770SOL     OW 2308   0.280   2.862   2.708 -0.2103 -0.2506  0.0607
  770SOL    HW1 2309   0.217   2.891   2.634  1.3531  1.0035 -1.1564
  770SOL    HW2 2310   0.242   2.779   2.752 -3.4569 -0.8468  0.8124
  771SOL     OW 2311   1.634   2.080   2.096  0.4145 -0.0265  0.2416
  771SOL    HW1 2312   1.667   2.145   2.027  1.1676 -0.3611  0.6075
  771SOL    HW2 2313   1.638   1.983   2.065 -0.7181  0.7219  0.1518
  772SOL     OW 2314   1.244   2.928   2.951  0.0164  1.0899 -0.2351
  772SOL    HW1 2315   1.146   2.939   2.940 -1.1191 -0.1007 -1.9743
  772SOL    HW2 2316   1.266   2.856   3.023 -1.2205  0.8275  0.7602
  773SOL     OW 2317   2.317   0.703   1.579 -0.8010 -0.1870  0.3056
  773SOL    HW1 2318   2.361   0.791   1.557 -0.5029 -0.0681 -2.0016
  773SOL    HW2 2319   2.230   0.688   1.526  0.0206  0.1528  0.2225
  774SOL     OW 2320   0.926   1.212   1.118  0.5140 -0.0061 -0.1336
  774SOL    HW1 2321   0.991   1.241   1.040  0.4982 -1.4065 -1.0609
  774SOL    HW2 2322   0.915   1.111   1.119  0.0276  2.1321  0.4904
  775SOL     OW 2323   1.968   2.745   3.059 -0.3322  0.1884 -0.1306
  775SOL    HW1 2324   1.975   2.789   0.027  0.5245  0.0290 -1.3240
  775SOL    HW2 2325   2.003   2.650   3.069 -0.0950  1.8489 -0.7433
  776SOL     OW 2326   2.061   0.816   1.471  0.3518 -0.6724 -0.1521
  776SOL    HW1 2327   2.054   0.869   1.559 -0.8515  0.5676  2.4560
  776SOL    HW2 2328   2.093   0.865   1.387 -1.4901  1.0692 -1.9222
  777SOL     OW 2329   0.368   1.095   2.184  0.5694  0.1660  0.2951
  777SOL    HW1 2330   0.297   1.115   2.252  1.2649 -0.5674  1.4660
  777SOL    HW2 2331   0.458   1.139   2.204 -2.3688 -0.3380  0.9013
  778SOL     OW 2332   0.281   0.628   0.038 -0.2002 -1.5519 -0.2018
  778SOL    HW1 2333   0.332   0.706   3.116  2.3466 -2.9045 -1.3157
  778SOL    HW2 2334   0.284   0.545   3.100  1.9979  1.3410 -1.3475
  779SOL     OW 2335   0.668   0.089   2.553  0.1728  0.2578  0.4699
  779SOL    HW1 2336   0.604   0.111   2.476  1.3129 -2.8145  1.2692
  779SOL    HW2 2337   0.630   0.035   2.634 -1.1661 -0.7917  0.8729
  780SOL     OW 2338   2.053   1.118   2.514 -0.0892  0.4435  0.1443
  780SOL    HW1 2339   2.019   1.089   2.608  0.0343  1.4564  1.9351
  780SOL    HW2 2340   2.133   1.171   2.523 -2.2827 -2.2801 -1.6007
  781SOL     OW 2341   3.062   1.104   2.017 -0.2206 -0.2514  0.2711
  781SOL    HW1 2342   2.969   1.130   1.983 -2.4821  0.0061  0.8027
  781SOL    HW2 2343   3.056   1.010   2.049  0.5837  2.2485  4.7950
  782SOL     OW 2344   0.666   1.679   2.829  0.2930 -0.3365  0.2218
  782SOL    HW1 2345   0.668   1.576   2.830 -2.1547  0.4895 -1.2896
  782SOL    HW2 2346   0.588   1.713   2.774  1.6441 -0.9138 -1.3909
  783SOL     OW 2347   1.104   2.328   1.323 -0.3582  0.0559  0.3245
  783SOL    HW1 2348   1.172   2.255   1.337  1.6916 -0.5564  0.1698
  783SOL    HW2 2349   1.094   2.341   1.218 -0.1940 -2.3621 -5.9641
  784SOL     OW 2350   1.749   0.567   2.710  0.2115  0.2286  0.0550
  784SOL    HW1 2351   1.830   0.626   2.696  1.7396 -0.0720  1.1986
  784SOL    HW2 2352   1.761   0.489   2.648  1.2295  0.5846  1.0758
  785SOL     OW 2353   0.616   0.156   2.001 -0.5034  0.4363 -0.0264
  785SOL    HW1 2354   0.647   0.059   2.010 -0.8800  0.1444 -1.8816
  785SOL    HW2 2355   0.699   0.223   1.995  0.3794 -0.1789 -0.2015
  786SOL     OW 2356   0.592   2.038   0.327 -0.0939 -0.6234 -0.1051
  786SOL    HW1 2357   0.573   1.958   0.385 -0.3881  1.9041 -3.4755
  786SOL    HW2 2358   0.569   2.123   0.373 -2.0669 -2.6169 -2.0352
  787SOL     OW 2359   1.273   0.383   0.451  0.1349  0.9360  0.5295
  787SOL    HW1 2360   1.289   0.472   0.492 -5.2829 -0.4767 -3.1544
  787SOL    HW2 2361   1.186   0.386   0.398 -0.7696  1.5863  0.6114
  788SOL     OW 2362   2.812   1.577   1.285  0.0596  0.0095 -0.6772
  788SOL    HW1 2363   2.833   1.678   1.271 -1.0578 -0.6842  1.6844
  788SOL    HW2 2364   2.884   1.542   1.350  0.4262  2.5626 -0.1973
  789SOL     OW 2365   2.657   1.112   2.378 -0.2506  0.6119  0.9568
  789SOL    HW1 2366   2.695   1.043   2.310  0.8221  1.4302  0.9498
  789SOL    HW2 2367   2.649   1.199   2.332 -0.6215 -0.7090  0.9783
  790SOL     OW 2368   0.606   0.431   0.261  0.3652 -0.1596 -0.5332
  790SOL    HW1 2369   0.608   0.347   0.325 -0.4403 -3.4211  0.3164
  790SOL    HW2 2370   0.703   0.467   0.256 -1.3012  1.7838  1.0043
  791SOL     OW 2371   2.852   0.253   3.006 -0.0078 -0.0248 -1.0441
  791SOL    HW1 2372   2.753   0.273   2.990  1.3864 -2.0450 -2.9782
  791SOL    HW2 2373   2.865   0.161   3.048 -0.5206 -0.1554  0.4898
  792SOL     OW 2374   1.358   0.402   2.403 -0.0875 -0.2687 -0.1110
  792SOL    HW1 2375   1.280   0.431   2.465 -4.1161  3.4716  2.5611
  792SOL    HW2 2376   1.427   0.477   2.391 -0.1617  0.1522  0.3924
  793SOL     OW 2377   2.824   0.452   0.871  0.2401 -0.2989 -0.1530
  793SOL    HW1 2378   2.878   0.393   0.808 -2.8477 -1.0737  0.4261
  793SOL    HW2 2379   2.875   0.487   0.951 -1.5038  1.5352 -1.0020
  794SOL     OW 2380   0.275   0.526   2.131  0.5102 -0.0410 -0.4060
  794SOL    HW1 2381   0.286   0.627   2.151 -2.6466 -1.3682  1.7849
  794SOL    HW2 2382   0.177   0.513   2.107 -2.7870 -1.5798 -0.2762
  795SOL     OW 2383   0.433   1.241   0.578 -0.4412  0.0733 -0.3425
  795SOL    HW1 2384   0.518   1.294   0.598 -0.1149  0.6273 -2.7506
  795SOL    HW2 2385   0.434   1.150   0.630 -1.1283 -2.0321 -0.6014
  796SOL     OW 2386   3.087   0.860   3.115 -0.5975  0.6422  0.4140
  796SOL    HW1 2387   0.020   0.884   0.076 -0.1100 -0.9855  1.8774
  796SOL    HW2 2388   3.098   0.760   3.093 -0.1953  0.6126  2.1189
  797SOL     OW 2389   1.869   2.520   2.657  0.2809  0.4806  0.1817
  797SOL    HW1 2390   1.966   2.507   2.679 -0.2334 -0.3400 -0.2525
  797SOL    HW2 2391   1.830   2.608   2.675  1.6423 -3.0335 -1.2813
  798SOL     OW 2392   0.158   0.134   1.485  0.1591  0.0035 -0.0576
  798SOL    HW1 2393   0.091   0.198   1.442 -1.8413 -0.2468  2.3917
  798SOL    HW2 2394   0.130   0.122   1.585 -0.7654 -2.8395 -1.3471
  799SOL     OW 2395   2.598   0.659   1.917 -0.4667 -0.1383  0.2547
  799SOL    HW1 2396   2.499   0.647   1.906  3.5934  1.5097  0.3523
  799SOL    HW2 2397   2.637   0.569   1.951 -2.0701 -0.2448  1.2776
  800SOL     OW 2398   0.114   1.644   0.665  0.4993  0.1583  0.4428
  800SOL    HW1 2399   0.122   1.539   0.675 -2.2069 -0.1432  1.5758
  800SOL    HW2 2400   0.165   1.673   0.582 -1.8311  1.9282  1.2541
  801SOL     OW 2401   1.702   1.737   0.408 -0.1269 -0.0064 -0.4137
  801SOL    HW1 2402   1.611   1.722   0.450  1.3150  0.7756  0.7086
  801SOL    HW2 2403   1.751   1.812   0.462  0.3996  1.2565  0.2576
  802SOL     OW 2404   1.284   1.207   2.809 -0.0156 -0.2060  0.0876
  802SOL    HW1 2405   1.216   1.138   2.803  2.4251  0.9621 -1.7667
  802SOL    HW2 2406   1.355   1.185   2.749 -0.8551  2.2496  1.2136
  803SOL     OW 2407   0.221   1.942   1.764 -0.5373  0.3734  0.8501
  803SOL    HW1 2408   0.176   2.025   1.809  0.2491  1.2767 -1.2684
  803SOL    HW2 2409   0.184   1.847   1.782 -1.8757 -0.3368  1.4389
  804SOL     OW 2410   1.460   2.272   0.926  0.4858  0.2322  0.1593
  804SOL    HW1 2411   1.506   2.198   0.871  0.5730 -1.9255 -1.0440
  804SOL    HW2 2412   1.363   2.245   0.945  3.5075 -1.3046 -0.7991
  805SOL     OW 2413   2.420   2.289   2.741 -0.0241 -0.3969 -0.8467
  805SOL    HW1 2414   2.452   2.296   2.837  1.5648 -0.6137 -1.1541
  805SOL    HW2 2415   2.490   2.246   2.678  2.4359  0.3331 -1.2163
  806SOL     OW 2416   2.950   0.283   0.708  0.1419 -0.1584  0.3702
  806SOL    HW1 2417   2.956   0.195   0.759  0.1124  1.8612  2.0541
  806SOL    HW2 2418   3.033   0.301   0.651 -1.2548  0.9782  0.6854
  807SOL     OW 2419   2.680   1.094   2.913 -0.0002 -0.0510  0.1901
  807SOL    HW1 2420   2.698   1.091   2.813  2.9239  1.2056 -1.7965
  807SOL    HW2 2421   2.752   1.155   2.950  2.2267 -0.0258 -0.8857
  808SOL     OW 2422   0.812   2.013   0.867  0.1914 -0.3525 -0.4122
  808SOL    HW1 2423   0.749   2.031   0.788  0.2159 -3.1866  0.1454
  808SOL    HW2 2424   0.753   1.968   0.935  0.0883  1.9363 -2.2166
  809SOL     OW 2425   2.904   2.985   2.249  0.2865  0.0466  0.0172
  809SOL    HW1 2426   2.889   2.953   2.157 -2.1031  3.7882  3.4912
  809SOL    HW2 2427   2.835   3.055   2.272  0.5582 -2.2963  0.3055
  810SOL     OW 2428   1.597   0.778   0.676  0.2167 -0.0773  0.2390
  810SOL    HW1 2429   1.637   0.782   0.580  3.7301 -2.0533  0.5465
  810SOL    HW2 2430   1.585   0.870   0.714 -0.2071 -0.4557 -1.2863
  811SOL     OW 2431   1.771   2.897   2.062  0.0344  0.2467 -0.3153
  811SOL    HW1 2432   1.786   2.854   2.152  2.1286  1.7026  0.7889
  811SOL    HW2 2433   1.752   3.000   2.068  0.3398  0.1740  1.2261
  812SOL     OW 2434   1.924   2.469   0.509  0.3494  0.0261 -0.1040
  812SOL    HW1 2435   1.841   2.437   0.559 -0.4618 -1.7617  0.2258
  812SOL    HW2 2436   1.939   2.568   0.526  0.1386 -1.9313 -0.2068
  813SOL     OW 2437   1.154   0.423   1.877  0.5301  0.2516  0.6030
  813SOL    HW1 2438   1.074   0.366   1.841 -1.7797 -0.4078  0.0535
  813SOL    HW2 2439   1.132   0.463   1.968  1.5062 -0.8771 -0.1941
  814SOL     OW 2440   0.166   3.024   1.298  0.6814 -0.5251  0.3661
  814SOL    HW1 2441   0.251   3.034   1.243  0.5267  1.8672  2.5515
  814SOL    HW2 2442   0.144   3.104   1.356  0.3137  4.1673 -0.3632
  815SOL     OW 2443   0.205   0.131   0.736 -0.2855 -0.6456 -0.5443
  815SOL    HW1 2444   0.163   0.053   0.683  1.8581  0.4651  0.3848
  815SOL    HW2 2445   0.225   0.106   0.832  2.4258 -0.7644 -0.4512
  816SOL     OW 2446   2.681   1.886   2.276  0.6455  0.5606 -0.3244
  816SOL    HW1 2447   2.654   1.869   2.373  0.1889  0.9430  2.7030
  816SOL    HW2 2448   2.595   1.884   2.217  0.3975 -0.7590 -1.3229
  817SOL     OW 2449   1.301   0.155   0.774  0.1295 -0.2263 -0.3306
  817SOL    HW1 2450   1.254   0.208   0.845 -0.7289 -0.8904  0.1686
  817SOL    HW2 2451   1.306   0.056   0.797 -2.0273  0.5573  1.2718
  818SOL     OW 2452   1.697   0.538   0.077 -0.0176 -0.4030 -0.2649
  818SOL    HW1 2453   1.770   0.471   0.044 -0.7133 -0.0707 -1.7414
  818SOL    HW2 2454   1.629   0.489   0.137  1.7136  1.3514  2.3401
  819SOL     OW 2455   2.252   0.052   0.020  0.3053  0.4329  0.0257
  819SOL    HW1 2456   2.287   0.103   0.103 -0.8894 -2.3204 -1.7900
  819SOL    HW2 2457   2.277   3.075   0.020  1.1975  0.2033  2.0613
  820SOL     OW 2458   1.545   1.103   2.820 -0.4604 -0.0858  0.1355
  820SOL    HW1 2459   1.557   1.201   2.854  1.2210 -0.0560  0.9352
  820SOL    HW2 2460   1.599   1.036   2.874  1.0553 -2.2308 -0.3068
  821SOL     OW 2461   0.393   0.579   1.217  0.7266  0.6085  0.3525
  821SOL    HW1 2462   0.420   0.487   1.255  0.5737 -0.3426  1.8295
  821SOL    HW2 2463   0.350   0.564   1.127  1.1719  1.3397  0.5487
  822SOL     OW 2464   1.129   2.711   2.412 -0.6083 -0.0377 -0.7497
  822SOL    HW1 2465   1.153   2.623   2.458 -1.1893 -0.9747  3.2742
  822SOL    HW2 2466   1.141   2.789   2.477  1.2569 -1.5420  0.8956
  823SOL     OW 2467   0.339   1.523   1.718  0.2619 -0.0727 -0.1212
  823SOL    HW1 2468   0.371   1.565   1.628 -0.5059  1.9537 -0.5767
  823SOL    HW2 2469   0.411   1.512   1.791  1.1914 -0.6331  1.6009
  824SOL     OW 2470   1.595   2.730   2.442  0.3066  0.4449 -0.7251
  824SOL    HW1 2471   1.587   2.736   2.543  3.3858 -0.2071  0.0641
  824SOL    HW2 2472   1.523   2.782   2.389  1.9523 -2.3190  0.4628
  825SOL     OW 2473   1.480   1.122   0.250 -0.3742  0.2086  0.3119
  825SOL    HW1 2474   1.470   1.062   0.166  0.3185 -0.2581  0.3676
  825SOL    HW2 2475   1.513   1.214   0.237 -1.6346 -3.5220 -1.9518
  826SOL     OW 2476   2.088   0.622   2.910 -0.5293 -0.0981  0.6496
  826SOL    HW1 2477   2.045   0.654   2.820  0.2663 -1.1145 -3.5954
  826SOL    HW2 2478   2.185   0.630   2.912 -3.6959 -1.5717  2.7400
  827SOL     OW 2479   0.478   2.320   3.006  0.1638 -0.0741 -0.1715
  827SOL    HW1 2480   0.393   2.278   2.963 -2.0131 -3.2662  0.0570
  827SOL    HW2 2481   0.546   2.343   2.932 -0.7189  0.6431  1.2952
  828SOL     OW 2482   2.986   0.971   1.360  0.0382  0.0022  0.0701
  828SOL    HW1 2483   2.945   0.892   1.309  2.3906  2.6612  1.7184
  828SOL    HW2 2484   2.925   0.997   1.435  1.8127 -0.1420  1.0443
  829SOL     OW 2485   0.680   1.743   0.941 -0.3305  0.0300 -0.2997
  829SOL    HW1 2486   0.594   1.769   0.981  0.0986  0.1032 -0.1240
  829SOL    HW2 2487   0.729   1.683   1.004  0.8506 -1.4465 -1.3433
  830SOL     OW 2488   1.044   1.178   1.366 -0.1674 -0.2004 -0.5225
  830SOL    HW1 2489   1.102   1.108   1.315  0.2306  1.9360 -1.1929
  830SOL    HW2 2490   0.987   1.226   1.296 -0.3964  0.2893 -2.9826
  831SOL     OW 2491   0.265   1.968   0.004 -0.1354  0.2810 -0.2031
  831SOL    HW1 2492   0.225   2.061   3.114 -1.5310  1.7768  0.2451
  831SOL    HW2 2493   0.357   1.976   0.047 -0.6869  2.2531 -1.6285
  832SOL     OW 2494   0.626   0.101   3.074  0.1601 -0.0679 -0.4570
  832SOL    HW1 2495   0.569   0.167   0.005 -0.9024 -1.1650  0.9837
  832SOL    HW2 2496   0.718   0.110   3.112  0.0239  1.6061 -1.9550
  833SOL     OW 2497   0.685   0.543   2.223  0.2339  0.1677 -0.0075
  833SOL    HW1 2498   0.675   0.645   2.219  0.1043 -1.9117 -0.5525
  833SOL    HW2 2499   0.646   0.505   2.132 -0.1895  1.4418 -2.3522
  834SOL     OW 2500   0.080   0.484   0.868  0.5978  0.6245  0.2227
  834SOL    HW1 2501   0.026   0.522   0.796  1.6377 -1.6654  2.6901
  834SOL    HW2 2502   0.043   0.407   0.918  2.4205  1.8679 -3.3888
  835SOL     OW 2503   2.965   0.024   1.055  0.4114  0.2917  0.9347
  835SOL    HW1 2504   2.978   0.124   1.068  0.9419 -0.4246 -0.2024
  835SOL    HW2 2505   2.890   3.116   1.114  2.1035  1.2894  0.9804
  836SOL     OW 2506   0.237   2.171   2.807  0.0920 -0.3315  0.4459
  836SOL    HW1 2507   0.164   2.182   2.736  0.7184  0.5661  0.2410
  836SOL    HW2 2508   0.204   2.191   2.903  0.5761 -0.3209  2.6684
  837SOL     OW 2509   1.725   1.745   2.807  0.1434 -0.2443  0.3364
  837SOL    HW1 2510   1.819   1.777   2.783  0.7905 -0.2263  3.5692
  837SOL    HW2 2511   1.653   1.814   2.784  0.2186 -1.7294 -1.2508
  838SOL     OW 2512   0.122   0.866   1.342  0.2034  0.6306  0.3413
  838SOL    HW1 2513   0.170   0.863   1.432 -1.8609 -1.0217  0.9535
  838SOL    HW2 2514   0.039   0.926   1.352 -2.3964  0.0361 -0.1298
  839SOL     OW 2515   1.084   0.953   0.752  0.2525  0.1707 -0.6381
  839SOL    HW1 2516   1.022   0.907   0.826 -2.7644 -4.4055  0.6607
  839SOL    HW2 2517   1.065   0.911   0.664  1.3935  1.1025  0.6978
  840SOL     OW 2518   1.674   0.037   1.609 -0.9928  0.6710 -0.4002
  840SOL    HW1 2519   1.722   3.099   1.676 -0.8545 -0.3603  0.5669
  840SOL    HW2 2520   1.590   3.118   1.574  0.1074 -1.7637  0.7590
  841SOL     OW 2521   0.551   2.630   0.512  0.1916 -0.3398  0.7539
  841SOL    HW1 2522   0.485   2.642   0.435  0.3122 -1.0990  0.7279
  841SOL    HW2 2523   0.499   2.603   0.595 -0.1484 -0.6965 -0.6843
  842SOL     OW 2524   0.552   0.770   0.830 -0.7106 -0.4428  0.2074
  842SOL    HW1 2525   0.560   0.725   0.926  0.5493 -0.9670  2.1027
  842SOL    HW2 2526   0.635   0.752   0.775 -1.4463  2.1936  0.7542
  843SOL     OW 2527   1.035   1.186   1.874 -0.0185 -0.3856  0.3404
  843SOL    HW1 2528   0.950   1.186   1.930 -0.2395 -1.5315 -1.5556
  843SOL    HW2 2529   1.014   1.165   1.776  1.1503 -0.7902 -0.2258
  844SOL     OW 2530   1.050   2.023   0.075  0.2799  0.2281 -0.1432
  844SOL    HW1 2531   1.062   1.951   0.005 -2.3167 -1.0443 -0.4755
  844SOL    HW2 2532   1.130   2.085   0.069  0.8186  0.6134 -2.1230
  845SOL     OW 2533   2.281   2.243   2.417 -0.3592  0.5606  0.3617
  845SOL    HW1 2534   2.338   2.310   2.361  2.1129  2.1274  0.5718
  845SOL    HW2 2535   2.339   2.217   2.498 -1.5216 -0.0533  3.1141
  846SOL     OW 2536   1.928   2.186   2.683  0.1235 -0.1582  0.6476
  846SOL    HW1 2537   1.869   2.174   2.763  2.0336  2.6759  0.9186
  846SOL    HW2 2538   1.884   2.133   2.608  1.1957  0.5180  0.8438
  847SOL     OW 2539   2.024   2.931   2.848  0.7373  0.3305  0.0446
  847SOL    HW1 2540   2.110   2.926   2.795 -0.5261  0.8032  1.4016
  847SOL    HW2 2541   2.026   2.865   2.924  1.3262  4.5287  0.6607
  848SOL     OW 2542   0.823   0.683   0.762  0.6604  0.2615  0.6569
  848SOL    HW1 2543   0.783   0.593   0.750  1.9185  0.9192  0.6938
  848SOL    HW2 2544   0.892   0.704   0.691  1.9765  3.0880  0.6323
  849SOL     OW 2545   0.795   0.017   1.281  0.2617 -0.0093 -0.0844
  849SOL    HW1 2546   0.732   3.073   1.237 -0.8136  1.5437 -0.1996
  849SOL    HW2 2547   0.743   0.104   1.290 -1.3965 -0.2916  1.4718
  850SOL     OW 2548   0.411   1.532   0.129  0.1971 -0.1615  0.1447
  850SOL    HW1 2549   0.354   1.618   0.150  0.1667  2.1360  0.0094
  850SOL    HW2 2550   0.439   1.529   0.035  1.7139 -2.6326  3.3390
  851SOL     OW 2551   3.061   0.989   0.657 -0.2117  0.1357 -0.2571
  851SOL    HW1 2552   2.978   1.050   0.648 -1.1472  1.9574 -0.8094
  851SOL    HW2 2553   3.050   0.921   0.735  3.4398 -0.9674 -0.3261
  852SOL     OW 2554   1.743   2.259   1.919 -0.0539 -0.5933 -0.1823
  852SOL    HW1 2555   1.811   2.261   1.842  1.9294 -1.2462  0.1340
  852SOL    HW2 2556   1.650   2.299   1.890 -2.2051  0.6796 -3.9150
  853SOL     OW 2557   0.227   1.736   0.126 -0.9024 -0.2755  0.0333
  853SOL    HW1 2558   0.130   1.731   0.149 -1.6674 -1.7889 -0.2013
  853SOL    HW2 2559   0.253   1.817   0.066 -0.3828  0.1005  0.8208
  854SOL     OW 2560   1.774   1.313   1.541 -0.1860  0.3514 -0.1722
  854SOL    HW1 2561   1.844   1.289   1.469 -0.3628  0.1314  1.2368
  854SOL    HW2 2562   1.740   1.227   1.584  0.1008 -1.6517  1.9536
  855SOL     OW 2563   0.837   2.557   3.010 -0.3962 -0.1801 -0.0908
  855SOL    HW1 2564   0.938   2.583   3.003 -1.7608  1.6498 -2.8567
  855SOL    HW2 2565   0.809   2.524   3.102 -1.2172 -5.5621  2.1896
  856SOL     OW 2566   2.947   0.305   2.063 -0.0330  0.3085  0.1123
  856SOL    HW1 2567   2.955   0.226   2.003  0.6318 -0.2572  3.2466
  856SOL    HW2 2568   2.944   0.275   2.160  1.8235 -0.8103 -3.2058
  857SOL     OW 2569   0.539   0.800   1.796 -0.6411  0.4228  0.3631
  857SOL    HW1 2570   0.485   0.863   1.857  2.6548  1.0255 -0.7502
  857SOL    HW2 2571   0.634   0.826   1.781  2.1598 -0.8028 -1.3606
  858SOL     OW 2572   0.605   1.265   2.329 -0.2460  0.3145  0.3677
  858SOL    HW1 2573   0.544   1.235   2.405 -2.0102 -0.8696 -2.2433
  858SOL    HW2 2574   0.626   1.365   2.338  1.3548 -0.0410 -2.6856
  859SOL     OW 2575   2.526   0.411   0.363 -0.0140 -0.4862  0.4549
  859SOL    HW1 2576   2.604   0.376   0.421  2.0715  0.3749  0.4428
  859SOL    HW2 2577   2.561   0.424   0.271 -1.5099  0.4007 -2.1403
  860SOL     OW 2578   1.723   2.723   2.906 -0.8947 -0.6487 -0.3658
  860SOL    HW1 2579   1.671   2.810   2.915 -2.3956  0.2750 -0.8537
  860SOL    HW2 2580   1.813   2.726   2.953  2.3086 -1.6189  0.9806
  861SOL     OW 2581   0.368   0.845   0.459 -0.5048  0.2669 -0.0747
  861SOL    HW1 2582   0.277   0.861   0.426  0.3426 -0.1578  1.2655
  861SOL    HW2 2583   0.364   0.795   0.549 -2.2234  0.4175  0.8103
  862SOL     OW 2584   1.745   0.319   2.308 -0.0551  0.3279  0.0058
  862SOL    HW1 2585   1.842   0.290   2.311  1.8892 -0.0623  0.7332
  862SOL    HW2 2586   1.675   0.238   2.311 -3.5286  0.2090  1.2421
  863SOL     OW 2587   2.725   2.075   1.099  0.0267 -0.4902  0.3974
  863SOL    HW1 2588   2.633   2.038   1.117  4.9427 -0.0510 -0.2696
  863SOL    HW2 2589   2.724   2.169   1.141 -0.5967 -2.9070  2.8902
  864SOL     OW 2590   2.424   2.751   1.815 -0.1280 -0.1385 -0.3240
  864SOL    HW1 2591   2.329   2.773   1.828  4.6823 -0.4333  0.6223
  864SOL    HW2 2592   2.457   2.662   1.859  1.0572 -1.2079 -1.9455
  865SOL     OW 2593   1.439   0.442   1.640 -0.0757 -0.5215 -0.2202
  865SOL    HW1 2594   1.506   0.388   1.595 -2.7059  2.0473 -1.6803
  865SOL    HW2 2595   1.386   0.385   1.697  1.6755  1.1056 -3.7936
  866SOL     OW 2596   2.509   2.995   0.757  0.1072  0.5528  0.1102
  866SOL    HW1 2597   2.535   3.079   0.708  0.9838 -2.5547  1.2274
  866SOL    HW2 2598   2.588   2.969   0.811 -3.1621  2.6756 -1.5330
  867SOL     OW 2599   2.811   3.055   0.422 -0.4284 -0.1075  0.0524
  867SOL    HW1 2600   2.895   3.113   0.412 -0.3478  0.3448  1.6748
  867SOL    HW2 2601   2.831   2.980   0.490  0.6378 -1.2475  0.9107
  868SOL     OW 2602   1.109   2.196   2.125 -0.4819  0.0581 -0.1475
  868SOL    HW1 2603   1.124   2.231   2.031  2.4701  0.1490 -1.7699
  868SOL    HW2 2604   1.043   2.249   2.181  1.6057  1.2235  2.5655
  869SOL     OW 2605   1.767   2.040   0.022  0.1113  0.2358  0.3296
  869SOL    HW1 2606   1.817   2.041   0.107  0.0995  1.0787 -0.8372
  869SOL    HW2 2607   1.828   2.054   3.065  3.6119  0.0918  0.7869
  870SOL     OW 2608   2.540   2.515   0.496  0.3624  0.0095 -0.3509
  870SOL    HW1 2609   2.578   2.601   0.462  1.8529  1.2689 -0.6664
  870SOL    HW2 2610   2.551   2.443   0.429 -1.4199  2.5343  3.9040
  871SOL     OW 2611   0.194   1.078   1.555 -0.1858  0.0473 -0.3682
  871SOL    HW1 2612   0.240   1.110   1.468 -0.0472  1.4398  0.6208
  871SOL    HW2 2613   0.138   1.152   1.589  1.3546 -2.8352 -2.2368
  872SOL     OW 2614   0.839   1.534   2.449  0.2904 -0.2151  0.0846
  872SOL    HW1 2615   0.929   1.583   2.445  2.2240  0.5624 -0.5554
  872SOL    HW2 2616   0.835   1.452   2.509  0.4659 -0.0423 -1.1431
  873SOL     OW 2617   0.465   2.937   1.494 -0.1720 -0.0703  0.3798
  873SOL    HW1 2618   0.536   2.888   1.554  2.1948 -1.9953  0.9378
  873SOL    HW2 2619   0.480   3.041   1.493 -0.9300  2.9409 -1.7958
  874SOL     OW 2620   1.328   0.644   2.054 -0.1191  0.2452  0.1088
  874SOL    HW1 2621   1.377   0.724   2.092 -1.0410 -0.7832  0.0041
  874SOL    HW2 2622   1.395   0.582   2.006 -1.3194  0.8402 -1.2462
  875SOL     OW 2623   2.560   2.860   1.102  0.1613  0.1627  0.0428
  875SOL    HW1 2624   2.541   2.884   1.203 -1.9899  4.6092  2.3023
  875SOL    HW2 2625   2.499   2.786   1.068  2.0278  1.4944 -0.1736
  876SOL     OW 2626   1.101   1.228   0.744  0.1034 -0.1847  0.0531
  876SOL    HW1 2627   1.132   1.276   0.829  0.3885 -0.5061 -0.1645
  876SOL    HW2 2628   1.111   1.123   0.748 -0.8999  0.3387 -0.0416
  877SOL     OW 2629   3.074   0.280   1.049  0.7460  0.4080 -0.3297
  877SOL    HW1 2630   3.053   0.362   1.107  1.0883 -0.8486  1.7607
  877SOL    HW2 2631   0.030   0.236   1.087 -1.4322 -2.8405  0.4791
  878SOL     OW 2632   2.464   1.531   3.111  0.0396  0.0257 -0.0662
  878SOL    HW1 2633   2.537   1.569   0.050 -0.4696  1.6448 -0.5279
  878SOL    HW2 2634   2.416   1.459   0.041  0.4549 -1.1324  1.8231
  879SOL     OW 2635   2.802   1.879   1.300  0.1118  0.0429  0.2589
  879SOL    HW1 2636   2.773   1.922   1.388 -1.7915  1.5159 -3.6502
  879SOL    HW2 2637   2.778   1.942   1.223  2.0941  0.8283  0.2209
  880SOL     OW 2638   0.647   2.112   1.270  0.0541  0.0907 -0.0064
  880SOL    HW1 2639   0.583   2.148   1.198 -0.7995 -1.3367 -0.4878
  880SOL    HW2 2640   0.709   2.191   1.293  0.4385  1.3201 -0.2132
  881SOL     OW 2641   1.362   1.329   0.692 -0.5118 -0.0183  0.5934
  881SOL    HW1 2642   1.268   1.301   0.705  2.0845  1.9988 -1.0201
  881SOL    HW2 2643   1.393   1.304   0.600  0.3771 -2.1997 -1.8675
  882SOL     OW 2644   2.721   1.117   2.636  0.1787 -0.1047 -0.3793
  882SOL    HW1 2645   2.685   1.107   2.537  0.1230 -1.9556  1.0113
  882SOL    HW2 2646   2.799   1.052   2.653 -0.1396  0.4376  1.3189
  883SOL     OW 2647   1.391   0.399   1.058 -0.2016  0.0517 -0.3429
  883SOL    HW1 2648   1.315   0.336   1.043  2.6112  0.9434  0.2094
  883SOL    HW2 2649   1.463   0.384   0.986  2.8044 -0.2683 -0.2290
  884SOL     OW 2650   0.031   2.955   1.083 -0.2071  0.0120  0.2291
  884SOL    HW1 2651   3.084   3.030   1.086 -0.5686  2.0801  1.1903
  884SOL    HW2 2652   0.079   2.959   1.177  0.5986 -0.3780  0.4304
  885SOL     OW 2653   1.212   1.418   1.435  0.4595  0.6694  0.2616
  885SOL    HW1 2654   1.164   1.345   1.382  1.0450  2.9562 -0.0184
  885SOL    HW2 2655   1.221   1.389   1.534 -1.7051 -1.7861  0.3122
  886SOL     OW 2656   1.262   1.105   3.052 -0.8362 -0.1093  0.2973
  886SOL    HW1 2657   1.352   1.060   3.076  0.6681  0.2857 -2.3195
  886SOL    HW2 2658   1.275   1.143   2.956 -0.6680  1.7942  2.2653
  887SOL     OW 2659   1.350   0.662   0.629  0.1367 -0.5572 -0.9218
  887SOL    HW1 2660   1.338   0.678   0.528 -0.1819  2.2650 -1.2778
  887SOL    HW2 2661   1.447   0.690   0.652 -0.5087 -0.9123 -1.8071
  888SOL     OW 2662   2.157   1.428   1.924  0.5923 -0.1922  0.0214
  888SOL    HW1 2663   2.186   1.406   1.830 -1.0522  1.9762  0.4834
  888SOL    HW2 2664   2.202   1.366   1.989  0.0911  0.0501 -3.2816
  889SOL     OW 2665   2.672   2.542   0.746 -0.4416 -0.3476 -0.4368
  889SOL    HW1 2666   2.628   2.544   0.838  1.8200 -1.5935  0.1069
  889SOL    HW2 2667   2.596   2.544   0.678 -0.4959 -0.3274  0.9051
  890SOL     OW 2668   1.500   1.770   1.008  0.2569  0.3951  0.4435
  890SOL    HW1 2669   1.410   1.741   0.965 -1.2501  0.0124  0.7341
  890SOL    HW2 2670   1.526   1.713   1.088 -0.3720 -0.0602 -0.8931
  891SOL     OW 2671   2.574   0.477   2.458  0.0665  0.1571 -0.1345
  891SOL    HW1 2672   2.642   0.518   2.392 -2.7613  3.9195  0.5444
  891SOL    HW2 2673   2.537   0.392   2.420  1.3671  2.6484  0.3801
  892SOL     OW 2674   0.888   0.161   2.262 -0.3128 -0.0898 -0.3225
  892SOL    HW1 2675   0.905   0.103   2.341  1.6406 -0.3507  1.6915
  892SOL    HW2 2676   0.906   0.260   2.295  0.2805  1.8460  0.1711
  893SOL     OW 2677   1.641   0.296   1.509 -0.5572 -0.2165  0.2799
  893SOL    HW1 2678   1.639   0.198   1.541  0.1326 -1.3217  0.1961
  893SOL    HW2 2679   1.599   0.308   1.418  2.0540 -1.5260  1.2835
  894SOL     OW 2680   2.728   0.626   0.690  0.4217  0.3312 -0.4801
  894SOL    HW1 2681   2.751   0.545   0.750 -0.3705 -0.3880 -0.6876
  894SOL    HW2 2682   2.695   0.699   0.750  0.3940 -2.1247 -0.9770
  895SOL     OW 2683   1.697   2.342   2.562  0.0206  0.0035 -0.1467
  895SOL    HW1 2684   1.766   2.411   2.592 -1.6408 -1.4757  0.0004
  895SOL    HW2 2685   1.719   2.300   2.469 -1.0464  1.0719  0.6780
  896SOL     OW 2686   1.901   0.095   1.480 -0.2590 -0.2429  0.0687
  896SOL    HW1 2687   1.951   0.162   1.540 -0.0459 -1.0982  2.2449
  896SOL    HW2 2688   1.807   0.076   1.509  2.4835  1.8225 -1.4238
  897SOL     OW 2689   0.654   1.792   1.896 -0.9442  0.3789  0.3269
  897SOL    HW1 2690   0.654   1.762   1.802 -2.5042  0.6234  2.0568
  897SOL    HW2 2691   0.708   1.877   1.907  0.3617  1.4133  1.2291
  898SOL     OW 2692   2.017   1.652   2.067 -0.1096 -0.5259 -0.3161
  898SOL    HW1 2693   2.072   1.590   2.011 -0.6856  1.4375 -1.4189
  898SOL    HW2 2694   2.012   1.626   2.163 -0.1764  1.3702 -1.2071
  899SOL     OW 2695   1.913   2.305   1.047  0.0833  0.3442  0.2013
  899SOL    HW1 2696   2.005   2.340   1.026  1.3266  2.6910 -2.1946
  899SOL    HW2 2697   1.866   2.369   1.110  1.1328 -0.1289  2.2769
  900SOL     OW 2698   0.956   3.004   2.935  0.3757 -0.1686 -0.4462
  900SOL    HW1 2699   0.879   2.992   3.003  0.0524 -1.0193 -0.9949
  900SOL    HW2 2700   0.943   2.962   2.844  2.7630  1.4945 -0.4131
  901SOL     OW 2701   0.942   1.665   2.169 -0.1286 -0.7427 -0.4564
  901SOL    HW1 2702   0.854   1.663   2.222  0.1460  1.2988  0.8145
  901SOL    HW2 2703   1.021   1.630   2.223  0.9416  0.9141  1.8823
  902SOL     OW 2704   2.140   0.385   3.043  0.5219  0.1537 -0.4650
  902SOL    HW1 2705   2.139   0.479   3.002 -0.5115  0.7939 -2.6373
  902SOL    HW2 2706   2.198   0.387   0.005  1.8661  0.2328  4.8632
  903SOL     OW 2707   2.346   0.842   2.186  0.2770 -0.3323  0.2536
  903SOL    HW1 2708   2.422   0.874   2.124 -0.4106  0.8776 -0.0296
  903SOL    HW2 2709   2.329   0.914   2.258  0.9493  1.2400  1.7025
  904SOL     OW 2710   1.763   1.039   1.588  0.2723 -0.0041  0.4957
  904SOL    HW1 2711   1.779   1.022   1.490  1.4894  2.6664  1.8192
  904SOL    HW2 2712   1.844   1.029   1.645 -2.3761  1.3767 -0.6854
  905SOL     OW 2713   2.032   0.600   0.888 -0.0934 -0.0264 -0.1172
  905SOL    HW1 2714   2.090   0.555   0.817  3.0164  0.4227 -0.0359
  905SOL    HW2 2715   2.068   0.579   0.980 -0.1911  1.2201  0.2538
  906SOL     OW 2716   2.461   1.717   0.577  0.3730  0.4954  0.5309
  906SOL    HW1 2717   2.436   1.617   0.558 -0.5685 -2.3714 -1.4318
  906SOL    HW2 2718   2.485   1.766   0.488  1.3625  2.3388 -0.1725
  907SOL     OW 2719   1.126   2.939   0.962 -0.2901  0.3367 -0.1537
  907SOL    HW1 2720   1.192   2.912   1.029 -3.1755  4.9196  0.6981
  907SOL    HW2 2721   1.171   2.971   0.877 -0.7460 -0.5829  0.6605
  908SOL     OW 2722   1.575   2.490   2.294  0.0541 -0.0487 -0.2088
  908SOL    HW1 2723   1.598   2.402   2.333 -0.0284  2.2722  1.2498
  908SOL    HW2 2724   1.558   2.558   2.368 -1.0193 -0.4180 -1.1223
  909SOL     OW 2725   2.360   0.310   2.163 -0.1079 -0.5104  0.4624
  909SOL    HW1 2726   2.355   0.407   2.199  1.8152  0.5643  1.7213
  909SOL    HW2 2727   2.270   0.290   2.122  0.4979  0.7298 -0.1729
  910SOL     OW 2728   1.160   0.702   2.530 -0.4215 -0.0610  0.1237
  910SOL    HW1 2729   1.128   0.609   2.535 -0.2054  0.8694  0.4591
  910SOL    HW2 2730   1.104   0.768   2.575  1.8836 -1.5861  1.5014
  911SOL     OW 2731   3.054   1.024   2.905  0.3171 -0.2406 -0.5670
  911SOL    HW1 2732   3.078   0.966   2.984 -0.5137  0.0060 -2.1299
  911SOL    HW2 2733   3.004   1.109   2.936  0.9691 -1.1646  0.2418
  912SOL     OW 2734   3.092   2.336   0.998 -0.2185 -0.1006 -0.4653
  912SOL    HW1 2735   3.029   2.280   1.052  0.6366  1.6089 -0.4449
  912SOL    HW2 2736   0.061   2.288   1.005 -0.5355  0.2341 -3.6316
  913SOL     OW 2737   2.585   1.880   2.532 -0.1642 -0.1548 -0.2393
  913SOL    HW1 2738   2.489   1.881   2.570 -0.4447 -0.4653 -0.2073
  913SOL    HW2 2739   2.647   1.924   2.605 -2.2928  1.8534  0.5434
  914SOL     OW 2740   1.828   1.530   0.788  0.3007 -0.1464  0.0701
  914SOL    HW1 2741   1.817   1.447   0.728 -0.3369  1.0999 -3.0745
  914SOL    HW2 2742   1.757   1.596   0.763  1.0995  0.3008  0.0099
  915SOL     OW 2743   0.347   2.468   2.199  0.0968  0.2683  0.0649
  915SOL    HW1 2744   0.315   2.560   2.230  2.3663  0.8408 -3.8316
  915SOL    HW2 2745   0.405   2.478   2.113  2.2160 -0.3497 -3.3710
  916SOL     OW 2746   0.997   0.057   1.096 -0.6615 -1.0786  0.4452
  916SOL    HW1 2747   1.052   3.096   1.065  0.6618 -0.3780 -0.0407
  916SOL    HW2 2748   0.932   0.040   1.170  0.2418  1.2163 -1.2847
  917SOL     OW 2749   2.356   0.588   2.910 -0.3171  0.0222 -0.5598
  917SOL    HW1 2750   2.407   0.520   2.971  1.1211  0.2397  1.5326
  917SOL    HW2 2751   2.421   0.624   2.836  1.7123  0.0728 -2.4572
  918SOL     OW 2752   1.449   2.443   2.594 -1.4793 -0.0323  0.2283
  918SOL    HW1 2753   1.456   2.522   2.659 -1.4485  2.0366 -0.8776
  918SOL    HW2 2754   1.540   2.393   2.581 -1.1076 -1.5042  1.6924
  919SOL     OW 2755   1.763   2.494   1.219 -0.6300 -0.1011  0.7079
  919SOL    HW1 2756   1.782   2.461   1.313 -0.2947  1.6063 -1.9684
  919SOL    HW2 2757   1.666   2.472   1.192  0.5441  0.5003  0.5454
  920SOL     OW 2758   1.232   0.111   2.633 -0.6536  0.0323  0.1816
  920SOL    HW1 2759   1.140   0.085   2.660 -0.9676  1.9684  4.0664
  920SOL    HW2 2760   1.288   0.030   2.655  2.7642  0.8903  2.9065
  921SOL     OW 2761   0.166   1.083   2.752  0.7062 -0.5637 -0.5416
  921SOL    HW1 2762   0.146   1.064   2.657  0.6317 -1.5347 -1.1865
  921SOL    HW2 2763   0.084   1.047   2.807 -3.1672 -2.9246  0.0602
  922SOL     OW 2764   3.082   1.832   1.278  0.4884 -0.4410 -0.2032
  922SOL    HW1 2765   2.979   1.840   1.283  0.2130 -0.3984 -0.1415
  922SOL    HW2 2766   3.108   1.797   1.371 -1.9160 -0.3693 -1.8927
  923SOL     OW 2767   0.167   1.445   2.131 -0.5819  0.2233 -0.1732
  923SOL    HW1 2768   0.238   1.509   2.097  2.0054 -0.4158 -0.0214
  923SOL    HW2 2769   0.189   1.350   2.099 -2.4742  0.9631  0.2662
  924SOL     OW 2770   1.632   3.032   2.516 -0.0847 -0.8133  0.4237
  924SOL    HW1 2771   1.543   2.980   2.514 -0.1681  1.7627 -2.3550
  924SOL    HW2 2772   1.717   2.981   2.546  2.7529  0.6954  0.6868
  925SOL     OW 2773   2.985   1.701   0.739 -0.3653  0.5882 -0.0658
  925SOL    HW1 2774   3.081   1.668   0.719 -1.2409 -2.7113 -0.8272
  925SOL    HW2 2775   2.958   1.657   0.832  0.9881 -0.2251  1.1276
  926SOL     OW 2776   2.463   0.617   1.157 -0.3638  0.1591 -0.3774
  926SOL    HW1 2777   2.508   0.538   1.116  2.1658  0.0449 -1.9058
  926SOL    HW2 2778   2.524   0.660   1.220  1.2327 -1.0394 -1.6718
  927SOL     OW 2779   1.850   0.278   1.266 -0.2451  0.3127  0.1044
  927SOL    HW1 2780   1.815   0.373   1.288  0.9723 -0.6763 -1.2245
  927SOL    HW2 2781   1.820   0.202   1.333 -2.4893 -2.4010  0.1807
  928SOL     OW 2782   0.075   0.837   2.253  0.4088 -0.3510  0.1786
  928SOL    HW1 2783   0.166   0.850   2.215  1.0917  1.8686  0.6993
  928SOL    HW2 2784   0.080   0.774   2.335  1.6557  0.2916 -1.1668
  929SOL     OW 2785   2.212   0.971   1.279  0.1080 -0.1550  0.4007
  929SOL    HW1 2786   2.287   0.921   1.238 -0.7827  0.6191 -0.5282
  929SOL    HW2 2787   2.162   1.027   1.209  0.0116  0.8997 -0.8803
  930SOL     OW 2788   1.774   2.441   1.480 -0.4614  0.3044  0.5704
  930SOL    HW1 2789   1.737   2.348   1.476  1.5752 -1.6135  2.1737
  930SOL    HW2 2790   1.860   2.437   1.536  1.2425  2.4219 -0.1546
  931SOL     OW 2791   1.920   1.256   1.325 -0.0724 -0.3853 -0.2114
  931SOL    HW1 2792   1.914   1.326   1.255  2.6325 -2.1801  0.6745
  931SOL    HW2 2793   1.868   1.173   1.292  1.4851 -1.4353 -0.0282
  932SOL     OW 2794   0.102   0.647   1.650  0.1053  0.2687  0.3770
  932SOL    HW1 2795   0.131   0.612   1.557  1.9114  0.8779 -1.3914
  932SOL    HW2 2796   0.172   0.711   1.686  1.0962 -1.5799  2.1709
  933SOL     OW 2797   2.435   2.052   1.593  0.3822 -0.2491 -0.0518
  933SOL    HW1 2798   2.391   2.122   1.529 -1.6331 -2.0091 -0.7474
  933SOL    HW2 2799   2.394   2.059   1.687  0.5736  1.3506 -1.5907
  934SOL     OW 2800   1.159   2.336   1.885 -0.1999  0.0120  0.0801
  934SOL    HW1 2801   1.116   2.368   1.800  0.0756 -0.5064 -0.3306
  934SOL    HW2 2802   1.156   2.409   1.958 -0.0562 -0.3548  3.7236
  935SOL     OW 2803   2.958   1.336   1.668 -0.1521 -0.6501 -1.2387
  935SOL    HW1 2804   3.051   1.302   1.699  1.5703  2.3330  2.2336
  935SOL    HW2 2805   2.920   1.424   1.706  2.4347  1.9422  1.1202
  936SOL     OW 2806   2.850   0.721   1.279  0.2937  0.0942 -0.1851
  936SOL    HW1 2807   2.837   0.655   1.352 -2.5466 -0.8122 -3.1410
  936SOL    HW2 2808   2.759   0.765   1.251  0.2413 -2.6544 -0.0153
  937SOL     OW 2809   1.440   0.382   1.324  0.0607 -0.2298  0.2116
  937SOL    HW1 2810   1.424   0.378   1.225  0.7833  0.4105 -0.4475
  937SOL    HW2 2811   1.358   0.417   1.377 -0.7317  0.9247  2.2918
  938SOL     OW 2812   0.517   2.983   0.780 -0.5726 -0.1349 -0.7467
  938SOL    HW1 2813   0.420   2.958   0.794  1.7142  1.6679  0.4620
  938SOL    HW2 2814   0.584   2.906   0.779  0.6924  1.8615  2.8343
  939SOL     OW 2815   0.114   1.971   2.633 -0.0979  0.0087 -0.2806
  939SOL    HW1 2816   0.141   1.915   2.554 -0.9168  0.1916  0.7662
  939SOL    HW2 2817   0.075   2.059   2.606 -0.8746  0.9388  1.4455
  940SOL     OW 2818   1.718   1.758   3.084 -0.1265 -0.5942 -0.5496
  940SOL    HW1 2819   1.734   1.859   3.098 -0.1378 -0.7037 -1.4690
  940SOL    HW2 2820   1.719   1.734   2.983  0.6275 -3.8204 -1.6642
  941SOL     OW 2821   1.907   2.751   0.535 -0.2903  0.0371  0.6273
  941SOL    HW1 2822   1.927   2.847   0.552 -0.3988 -1.2005  0.9747
  941SOL    HW2 2823   1.803   2.746   0.532 -1.2633 -1.3679 -1.1210
  942SOL     OW 2824   2.064   1.893   0.919  0.0185  0.2569  0.3747
  942SOL    HW1 2825   1.999   1.953   0.971 -0.8644  1.3979 -0.3093
  942SOL    HW2 2826   2.147   1.941   0.883  2.9450  0.7108  0.1275
  943SOL     OW 2827   1.838   0.625   1.539  0.1876 -0.4557 -0.3593
  943SOL    HW1 2828   1.741   0.627   1.507  0.0926  0.3350  1.8494
  943SOL    HW2 2829   1.902   0.667   1.471 -0.7226  1.3277 -0.0942
  944SOL     OW 2830   1.669   0.722   2.027 -0.1705 -0.1453 -0.2042
  944SOL    HW1 2831   1.692   0.659   2.104  0.9001  0.3269  0.4853
  944SOL    HW2 2832   1.590   0.774   2.066 -0.9335  0.1266  1.9397
  945SOL     OW 2833   2.263   2.946   1.215 -0.4636 -0.0741  0.4293
  945SOL    HW1 2834   2.347   2.952   1.268 -3.1999  1.2589 -2.2045
  945SOL    HW2 2835   2.193   3.010   1.248 -1.6402  0.6724 -2.0583
  946SOL     OW 2836   0.666   1.472   0.711 -0.2095 -0.1589 -0.0155
  946SOL    HW1 2837   0.697   1.569   0.717 -1.6154  1.5203  0.0571
  946SOL    HW2 2838   0.706   1.438   0.625  2.9094 -0.7547  0.3081
  947SOL     OW 2839   1.049   2.343   1.061  0.1269  0.5173  0.2606
  947SOL    HW1 2840   1.100   2.422   1.026  0.6615  1.3385 -0.2093
  947SOL    HW2 2841   0.978   2.315   0.995 -1.2961  0.5221  0.8557
  948SOL     OW 2842   0.273   1.636   1.066 -0.6930  0.2914 -0.4856
  948SOL    HW1 2843   0.302   1.571   0.992 -1.2683  3.7045  1.7871
  948SOL    HW2 2844   0.343   1.711   1.066 -1.5573 -1.5066 -0.2884
  949SOL     OW 2845   0.940   1.141   1.622 -0.3561  0.3059 -0.0455
  949SOL    HW1 2846   0.840   1.117   1.627  1.3708  0.3263  1.3181
  949SOL    HW2 2847   0.974   1.135   1.523  0.3598 -1.5504 -3.5079
  950SOL     OW 2848   0.685   0.712   1.333  0.7776  0.3473  0.4151
  950SOL    HW1 2849   0.754   0.751   1.397 -1.3645 -1.5902  0.5746
  950SOL    HW2 2850   0.594   0.729   1.376  0.3563 -1.1685 -0.7993
  951SOL     OW 2851   0.607   2.137   1.974 -0.0093  0.1331 -0.0473
  951SOL    HW1 2852   0.570   2.189   1.895 -0.6936  0.5603 -0.1893
  951SOL    HW2 2853   0.687   2.077   1.949  4.7316  0.4458 -1.3850
  952SOL     OW 2854   0.784   1.740   0.134 -0.0615  0.0170 -0.5667
  952SOL    HW1 2855   0.759   1.819   0.073  0.6693  1.2773 -0.8374
  952SOL    HW2 2856   0.865   1.765   0.191  1.0090 -0.8944 -0.3176
  953SOL     OW 2857   0.844   2.974   0.075  0.8671  0.5369  0.1291
  953SOL    HW1 2858   0.748   2.930   0.069 -3.4426 -0.6985  0.3687
  953SOL    HW2 2859   0.912   2.901   0.101 -2.0182 -0.7139  1.2901
  954SOL     OW 2860   1.599   1.373   2.994 -0.0138  0.1729 -0.3946
  954SOL    HW1 2861   1.585   1.385   3.094 -0.7727  0.2669 -1.5289
  954SOL    HW2 2862   1.697   1.391   2.969  0.1716 -0.7188 -0.1344
  955SOL     OW 2863   0.163   2.464   2.964  0.0037 -0.2606  0.0908
  955SOL    HW1 2864   0.210   2.523   3.028 -0.7086 -0.2821  0.9964
  955SOL    HW2 2865   0.069   2.505   2.949 -0.8036  0.5732 -0.9759
  956SOL     OW 2866   1.235   1.009   1.266 -0.2741 -0.1212  0.1993
  956SOL    HW1 2867   1.280   1.036   1.177 -2.4837  1.6946 -1.6331
  956SOL    HW2 2868   1.294   1.034   1.347 -1.8431 -0.7996  0.7928
  957SOL     OW 2869   1.548   1.907   1.581 -0.3108  0.6068 -0.0168
  957SOL    HW1 2870   1.599   1.824   1.607 -3.1397  1.4266  0.0226
  957SOL    HW2 2871   1.531   1.969   1.662  0.0018 -0.5938 -0.8547
  958SOL     OW 2872   1.039   2.049   1.674  0.7542  0.0889 -0.7450
  958SOL    HW1 2873   1.049   1.978   1.602  1.3365  2.1473 -0.6120
  958SOL    HW2 2874   0.971   2.114   1.638 -0.8555 -0.5585 -0.8744
  959SOL     OW 2875   1.563   1.316   1.132 -0.0669  0.3917  0.5132
  959SOL    HW1 2876   1.648   1.363   1.102 -2.1024  3.1519  2.2395
  959SOL    HW2 2877   1.541   1.342   1.231 -1.9558 -1.6266  1.0869
  960SOL     OW 2878   0.219   1.309   0.146  0.1047  0.0403  0.1961
  960SOL    HW1 2879   0.290   1.354   0.200  1.9194 -3.1534 -2.8213
  960SOL    HW2 2880   0.214   1.211   0.159  2.4248  1.8776 -2.7797
  961SOL     OW 2881   0.826   1.515   1.968 -0.0791 -0.1172 -0.4780
  961SOL    HW1 2882   0.865   1.494   1.879 -3.1999 -1.4850  2.5016
  961SOL    HW2 2883   0.881   1.582   2.022  2.4059 -0.3665 -2.1278
  962SOL     OW 2884   1.465   1.661   0.529  0.4768  0.2304  0.5971
  962SOL    HW1 2885   1.512   1.647   0.616 -1.5839  0.0408 -2.2377
  962SOL    HW2 2886   1.368   1.659   0.535 -0.2722  3.0038 -1.3576
  963SOL     OW 2887   1.550   1.950   2.747  0.1707  0.0517 -0.0862
  963SOL    HW1 2888   1.548   1.981   2.655  0.1001 -1.4930  2.6330
  963SOL    HW2 2889   1.467   1.981   2.794  1.1082 -1.2152 -0.9131
  964SOL     OW 2890   0.611   3.012   0.311  0.2535  0.0538 -0.0784
  964SOL    HW1 2891   0.514   3.034   0.340 -1.6041 -1.3774  0.5379
  964SOL    HW2 2892   0.614   2.972   0.217  3.4573  0.2087  0.2146
  965SOL     OW 2893   0.472   2.596   0.775 -0.6016 -0.2259 -0.5214
  965SOL    HW1 2894   0.507   2.501   0.778  1.0509 -0.4339 -0.6131
  965SOL    HW2 2895   0.381   2.611   0.820 -1.0355 -1.2317  3.1350
  966SOL     OW 2896   0.462   1.764   2.698 -0.2991  0.1213 -0.1519
  966SOL    HW1 2897   0.447   1.854   2.663  0.3580 -1.3376 -0.0992
  966SOL    HW2 2898   0.436   1.699   2.620  0.4210 -0.9657 -1.6506
  967SOL     OW 2899   2.947   2.892   2.735 -0.4556 -0.0264 -0.3138
  967SOL    HW1 2900   2.994   2.979   2.712  2.0370  0.9609 -1.0465
  967SOL    HW2 2901   3.003   2.846   2.803  0.4453  3.7934 -1.1338
  968SOL     OW 2902   2.222   0.775   0.247  0.0190 -0.1648 -0.3908
  968SOL    HW1 2903   2.164   0.734   0.172  1.4331 -1.3353 -1.7061
  968SOL    HW2 2904   2.258   0.863   0.219  0.6923  0.1034  0.1166
  969SOL     OW 2905   0.405   0.984   1.950 -0.2246  0.2152  0.0829
  969SOL    HW1 2906   0.314   0.950   1.922  0.9517  0.0520  1.2177
  969SOL    HW2 2907   0.403   1.026   2.041 -3.0239 -2.0638  0.0508
  970SOL     OW 2908   2.369   1.398   1.357  0.2329  0.0850  0.2671
  970SOL    HW1 2909   2.286   1.458   1.340 -0.2875 -0.7001  1.6291
  970SOL    HW2 2910   2.344   1.308   1.396  2.5929  0.0240  0.6981
  971SOL     OW 2911   2.377   0.208   1.032  0.4053  0.4418 -0.2024
  971SOL    HW1 2912   2.338   0.239   0.943  0.1602  0.7797 -0.6834
  971SOL    HW2 2913   2.377   0.108   1.034 -0.4574 -0.7526 -1.5595
  972SOL     OW 2914   0.285   2.980   1.755 -0.0224  0.7310  0.7242
  972SOL    HW1 2915   0.346   2.936   1.819 -0.3465  1.7852  0.8808
  972SOL    HW2 2916   0.330   2.967   1.664 -2.6036 -1.2015  0.3401
  973SOL     OW 2917   0.025   0.579   3.103 -0.5590 -0.5716 -0.6476
  973SOL    HW1 2918   0.115   0.609   0.029  2.6355  0.0710  1.0264
  973SOL    HW2 2919   0.054   0.515   3.032 -0.6766  1.0362  0.9934
  974SOL     OW 2920   1.863   1.432   2.119  0.1838  0.1648  0.3713
  974SOL    HW1 2921   1.772   1.396   2.104  0.5940  1.3880 -0.6979
  974SOL    HW2 2922   1.872   1.520   2.073 -1.0142 -1.5126 -1.9717
  975SOL     OW 2923   2.989   0.015   1.546 -0.1678  0.6803 -0.5866
  975SOL    HW1 2924   3.070   0.062   1.583  1.3240 -1.1105 -0.5027
  975SOL    HW2 2925   2.901   0.056   1.578 -1.0344 -0.4094 -0.2671
  976SOL     OW 2926   0.380   1.992   2.027  0.5033 -0.4938 -0.4405
  976SOL    HW1 2927   0.456   2.055   2.010 -2.7569 -0.7627 -0.3328
  976SOL    HW2 2928   0.336   1.965   1.940 -1.0282 -1.3691  0.0553
  977SOL     OW 2929   0.795   2.511   0.540 -0.2150  0.2659  0.4050
  977SOL    HW1 2930   0.705   2.549   0.517 -0.3129 -1.2790 -0.1481
  977SOL    HW2 2931   0.871   2.579   0.554 -0.1807 -0.5492 -0.1030
  978SOL     OW 2932   0.168   1.511   2.391 -0.2323  0.1553 -0.2618
  978SOL    HW1 2933   0.176   1.490   2.293 -2.7370  1.4210  1.1372
  978SOL    HW2 2934   0.070   1.545   2.408 -3.6413  0.8678 -4.1481
  979SOL     OW 2935   1.572   2.779   1.444 -0.0697  0.0798  0.0453
  979SOL    HW1 2936   1.587   2.726   1.527  2.2067 -0.1080  0.0848
  979SOL    HW2 2937   1.542   2.718   1.373  1.2340 -1.9339  1.4595
  980SOL     OW 2938   0.837   1.493   3.088  0.8092 -0.9630  0.1566
  980SOL    HW1 2939   0.819   1.584   0.006 -0.4639 -1.8986 -4.1186
  980SOL    HW2 2940   0.761   1.428   3.115  1.1799 -2.8614  0.5277
  981SOL     OW 2941   2.107   3.094   2.223 -0.0906  0.1595  0.1004
  981SOL    HW1 2942   2.203   3.064   2.242 -0.7986 -0.1452  0.7902
  981SOL    HW2 2943   2.079   3.075   2.125  0.7405 -1.1954  0.3703
  982SOL     OW 2944   3.119   0.018   2.819  0.7889  0.0880  0.4210
  982SOL    HW1 2945   3.040   0.053   2.768 -0.1101  1.2451 -0.1170
  982SOL    HW2 2946   0.073   0.082   2.825 -3.2450 -2.8359  1.3817
  983SOL     OW 2947   1.981   1.176   2.085 -0.3389  0.2434 -0.5807
  983SOL    HW1 2948   1.932   1.268   2.085  0.6486  0.7574  0.2670
  983SOL    HW2 2949   1.920   1.096   2.108 -1.9350 -3.2285 -2.3288
  984SOL     OW 2950   1.528   0.467   1.957 -0.0987  0.4330  0.7236
  984SOL    HW1 2951   1.492   0.371   1.938  0.7208  1.5212 -1.0528
  984SOL    HW2 2952   1.593   0.504   1.888  2.7643 -0.1329  0.4558
  985SOL     OW 2953   1.899   1.466   1.771  0.2754 -0.6923 -0.5815
  985SOL    HW1 2954   1.850   1.384   1.743  1.0360  0.4199  1.8920
  985SOL    HW2 2955   1.970   1.446   1.842 -0.9548  1.1867  0.4803
  986SOL     OW 2956   2.092   0.454   1.537 -0.1878 -0.3382  0.6272
  986SOL    HW1 2957   2.147   0.445   1.621  2.0892 -0.9905 -4.2772
  986SOL    HW2 2958   1.992   0.464   1.558  0.5721  0.8638  2.2729
  987SOL     OW 2959   2.480   0.438   1.480 -0.0783  0.2331 -0.3661
  987SOL    HW1 2960   2.408   0.505   1.504 -0.1024 -1.6639  0.6841
  987SOL    HW2 2961   2.440   0.348   1.456 -0.7608 -0.1687 -1.2300
  988SOL     OW 2962   2.975   0.836   2.090 -0.1296  0.2441 -0.4166
  988SOL    HW1 2963   2.982   0.773   2.009 -2.9249  1.7657 -1.5688
  988SOL    HW2 2964   3.049   0.813   2.158  1.2500 -2.0084 -1.1267
  989SOL     OW 2965   2.087   1.690   2.964  0.2873 -0.6218  0.3179
  989SOL    HW1 2966   2.043   1.709   2.875 -3.6503  1.6559 -0.2352
  989SOL    HW2 2967   2.180   1.735   2.971  0.7673 -0.1396 -1.9832
  990SOL     OW 2968   1.136   0.418   3.104 -0.0740  0.2960 -0.1518
  990SOL    HW1 2969   1.127   0.414   3.004 -0.8660  0.2681  0.6417
  990SOL    HW2 2970   1.114   0.512   0.004  0.4165  1.5682 -1.0532
  991SOL     OW 2971   1.488   0.970   0.013  0.3207 -0.1962 -0.4832
  991SOL    HW1 2972   1.517   0.903   0.081 -2.0561 -2.7971  0.7468
  991SOL    HW2 2973   1.469   0.914   3.051  0.7372 -0.1990  0.7527
  992SOL     OW 2974   2.091   1.293   3.065 -0.1920 -0.1485 -0.1826
  992SOL    HW1 2975   2.027   1.304   2.987  3.1475  0.8245  2.8888
  992SOL    HW2 2976   2.057   1.335   0.029  1.5273 -0.6458 -1.7195
  993SOL     OW 2977   0.244   0.525   0.576 -0.4191  0.3029  0.3007
  993SOL    HW1 2978   0.243   0.561   0.476 -3.1611 -0.9289 -1.6005
  993SOL    HW2 2979   0.243   0.606   0.638 -0.8348  1.0554  1.8460
  994SOL     OW 2980   3.033   1.898   2.071  0.0276  0.1217 -0.4704
  994SOL    HW1 2981   2.987   1.901   2.162 -0.3384 -4.1369  0.7910
  994SOL    HW2 2982   3.121   1.854   2.088 -3.5142  1.1449  1.8200
  995SOL     OW 2983   1.928   1.341   2.387 -0.3759  0.3480 -0.0040
  995SOL    HW1 2984   1.871   1.333   2.303 -1.7997  0.5450  1.5483
  995SOL    HW2 2985   1.979   1.254   2.408 -0.4826 -1.1925  1.2838
  996SOL     OW 2986   1.954   1.796   2.677  0.1324 -0.3264  0.5859
  996SOL    HW1 2987   1.923   1.886   2.639 -0.1665 -0.5984  1.6276
  996SOL    HW2 2988   1.941   1.722   2.612 -1.0624 -0.6305  0.6856
  997SOL     OW 2989   2.469   1.541   1.674  0.0157  0.2733  0.2037
  997SOL    HW1 2990   2.494   1.563   1.577  2.4733  2.0580  0.2832
  997SOL    HW2 2991   2.550   1.546   1.739 -0.0109 -1.0689  1.1921
  998SOL     OW 2992   2.377   1.456   0.580  0.3458 -0.1356 -0.7443
  998SOL    HW1 2993   2.289   1.436   0.536  0.6624 -0.3971 -0.3761
  998SOL    HW2 2994   2.375   1.431   0.679 -2.3134  0.3544 -0.1626
  999SOL     OW 2995   2.843   2.589   0.360 -0.2390  0.1747  0.2799
  999SOL    HW1 2996   2.854   2.578   0.462 -2.1776 -0.7547  1.1070
  999SOL    HW2 2997   2.851   2.686   0.333 -1.3396  0.2748  0.3856
 1000SOL     OW 2998   0.869   0.279   2.022  0.0069 -0.8112  0.1307
 1000SOL    HW1 2999   0.882   0.231   2.113  1.9748  1.8947  0.7527
 1000SOL    HW2 3000   0.888   0.377   2.042 -2.4422 -0.6336  0.1615
   3.12242   3.12242   3.12242
