1000 SPC/Fw water molecules t= 217.00000 step= 217000
 3000
    1SOL     OW    1   3.093   2.812   0.784  0.2704  0.2193 -0.3148
    1SOL    HW1    2   0.009   2.789   0.872 -0.9148 -0.3692  0.6061
    1SOL    HW2    3   0.006   2.893   0.750 -1.9465 -2.4523  2.4970
    2SOL     OW    4   1.945   1.531   1.889 -0.6540 -0.0623 -0.0718
    2SOL    HW1    5   1.988   1.622   1.899 -1.8533 -1.1053  0.0230
    2SOL    HW2    6   1.944   1.480   1.976  0.4809  0.4491  0.1686
    3SOL     OW    7   1.723   2.355   2.177 -0.1949 -0.0488  0.4623
    3SOL    HW1    8   1.716   2.428   2.249  1.7962 -0.6569  0.8648
    3SOL    HW2    9   1.728   2.259   2.217 -0.0973 -2.3617 -0.5786
    4SOL     OW   10   2.138   1.877   2.459  0.2259  0.5450 -0.6241
    4SOL    HW1   11   2.210   1.841   2.521  0.3548 -1.9664 -1.4182
    4SOL    HW2   12   2.051   1.893   2.511  1.3477  2.0596  1.1412
    5SOL     OW   13   1.276   0.806   1.499  0.3663 -0.0478 -0.1679
    5SOL    HW1   14   1.372   0.807   1.469 -0.2655 -0.4508 -1.6167
    5SOL    HW2   15   1.259   0.725   1.548 -0.1200  3.5665 -0.2943
    6SOL     OW   16   2.602   0.495   2.959  0.1455  0.0625 -0.1051
    6SOL    HW1   17   2.683   0.461   3.005 -1.7824  1.7807 -0.4124
    6SOL    HW2   18   2.611   0.483   2.859  0.6331  0.0975  2.0413
    7SOL     OW   19   0.565   1.588   1.460 -0.8135 -0.0432  0.1792
    7SOL    HW1   20   0.566   1.494   1.420 -0.5687  0.6631  3.1069
    7SOL    HW2   21   0.613   1.651   1.396  1.3744  0.3313  0.7055
    8SOL     OW   22   1.126   0.438   0.780  0.6283 -1.0220 -0.5426
    8SOL    HW1   23   1.090   0.355   0.826  0.7961  0.1562  0.6664
    8SOL    HW2   24   1.093   0.526   0.831  0.9065 -2.1119  0.1553
    9SOL     OW   25   1.094   0.607   2.602  0.1718  0.0405 -0.4456
    9SOL    HW1   26   1.049   0.663   2.529  0.0771  1.9877 -2.2118
    9SOL    HW2   27   1.086   0.506   2.590  1.6243  3.7492  0.1861
   10SOL     OW   28   0.746   2.479   0.197 -0.7029 -0.4092  0.8481
   10SOL    HW1   29   0.801   2.514   0.118  1.2012 -2.2247 -0.8813
   10SOL    HW2   30   0.790   2.501   0.287 -0.1275  0.2518  2.0830
   11SOL     OW   31   0.680   1.195   3.123  0.0019 -0.7742  0.5995
   11SOL    HW1   32   0.618   1.123   0.022  0.2140  1.5484 -2.9518
   11SOL    HW2   33   0.752   1.226   0.058  0.4935 -0.0800  0.7630
   12SOL     OW   34   0.190   0.387   1.637  0.1442  0.0868 -0.1014
   12SOL    HW1   35   0.183   0.331   1.553 -1.8901 -0.8234  0.4236
   12SOL    HW2   36   0.246   0.347   1.712 -1.7026  1.7558  2.1956
   13SOL     OW   37   1.147   3.088   0.313 -0.6182 -0.2514  0.2236
   13SOL    HW1   38   1.138   0.037   0.246 -4.4668  1.9253 -0.8512
   13SOL    HW2   39   1.196   3.124   0.398  0.3715  3.1869  0.5842
   14SOL     OW   40   1.144   2.472   1.283  0.5728  0.4008  0.1927
   14SOL    HW1   41   1.099   2.388   1.247  2.4102  0.0233 -1.3950
   14SOL    HW2   42   1.198   2.509   1.204 -2.2304 -1.0518 -1.5604
   15SOL     OW   43   2.811   1.333   1.824 -0.0285 -0.2678 -0.4034
   15SOL    HW1   44   2.768   1.284   1.746  0.7008  1.3119  1.4728
   15SOL    HW2   45   2.916   1.327   1.814  0.2861 -0.7754 -0.0584
   16SOL     OW   46   1.681   3.077   0.054  0.5369  0.2170  0.0030
   16SOL    HW1   47   1.620   0.018   0.090  0.4708  0.0664  1.8959
   16SOL    HW2   48   1.751   3.116   3.122 -1.6940 -1.5554  0.4388
   17SOL     OW   49   0.774   0.120   1.468 -0.0907 -0.4719 -0.1703
   17SOL    HW1   50   0.827   0.125   1.379  0.1965 -1.2435  0.1165
   17SOL    HW2   51   0.673   0.147   1.458 -1.7498  0.9570 -0.2448
   18SOL     OW   52   1.183   0.640   0.056  0.4924 -0.8105  0.3096
   18SOL    HW1   53   1.269   0.597   0.024 -1.9462  2.1876 -2.8289
   18SOL    HW2   54   1.195   0.727   0.102  2.2022 -2.9752  0.9056
   19SOL     OW   55   2.221   1.897   2.930  0.0381  0.0878  0.5487
   19SOL    HW1   56   2.143   1.956   2.902  0.7172  1.0290 -1.8753
   19SOL    HW2   57   2.187   1.837   3.005 -5.2804  0.1023  2.4517
   20SOL     OW   58   2.005   1.602   1.483 -0.0350  0.3170 -0.1644
   20SOL    HW1   59   1.952   1.681   1.518  0.0994 -2.8168 -0.3916
   20SOL    HW2   60   1.940   1.526   1.482  0.4078 -0.9695  1.2579
   21SOL     OW   61   1.042   1.115   2.907 -0.0776 -0.1484 -0.5008
   21SOL    HW1   62   1.061   1.111   2.808 -1.3475  2.1534 -0.8988
   21SOL    HW2   63   1.094   1.190   2.953  0.9489  1.3653  1.1626
   22SOL     OW   64   2.051   3.106   1.299 -0.2291 -0.1574  0.1811
   22SOL    HW1   65   1.958   3.128   1.337  0.7578 -1.1151 -0.7175
   22SOL    HW2   66   2.049   3.040   1.222  0.2428 -4.3011 -0.3454
   23SOL     OW   67   2.959   0.709   1.649 -0.0101  0.2104 -0.1686
   23SOL    HW1   68   3.029   0.749   1.714  0.9435  0.3389 -0.5075
   23SOL    HW2   69   2.953   0.765   1.563 -1.7492  1.9306  1.8018
   24SOL     OW   70   2.409   2.573   1.358  0.1052 -0.0460 -0.3320
   24SOL    HW1   71   2.327   2.630   1.337  0.2748 -0.8905 -2.6582
   24SOL    HW2   72   2.491   2.624   1.332 -0.0382 -0.6601 -0.4622
   25SOL     OW   73   1.727   2.763   2.715 -0.0214 -0.2395  0.1351
   25SOL    HW1   74   1.763   2.672   2.746  0.2004 -1.9965  1.1875
   25SOL    HW2   75   1.741   2.780   2.614 -0.7157  0.2315  1.9098
   26SOL     OW   76   1.437   2.818   0.321 -0.1727  0.1658  0.2925
   26SOL    HW1   77   1.518   2.752   0.350  1.7522 -0.5943 -0.2484
   26SOL    HW2   78   1.352   2.766   0.300  0.6757  1.4404  0.7176
   27SOL     OW   79   0.407   1.668   2.729  0.2448 -0.2245 -0.3081
   27SOL    HW1   80   0.355   1.753   2.717 -0.7571  0.7025  0.9123
   27SOL    HW2   81   0.505   1.682   2.704 -0.6905  0.4741 -0.8291
   28SOL     OW   82   3.002   1.313   1.493  0.0297  0.2499 -0.0448
   28SOL    HW1   83   2.958   1.393   1.450 -1.7038 -3.8585 -2.6079
   28SOL    HW2   84   3.081   1.344   1.553  2.2142  0.4409 -0.6160
   29SOL     OW   85   2.616   2.353   2.228 -0.1831 -0.2947 -0.2931
   29SOL    HW1   86   2.682   2.349   2.306 -0.7450  0.4398 -0.4166
   29SOL    HW2   87   2.651   2.288   2.158 -1.5743  0.1973 -0.5602
   30SOL     OW   88   1.500   0.129   0.142 -0.0412  0.3564  0.3766
   30SOL    HW1   89   1.442   0.161   0.061 -2.6332  1.4636  2.0891
   30SOL    HW2   90   1.569   0.196   0.169 -3.3547 -2.2066  1.1158
   31SOL     OW   91   2.967   2.712   2.067 -0.3129 -0.4165 -0.4711
   31SOL    HW1   92   2.865   2.709   2.081 -2.6052  0.1963  1.6712
   31SOL    HW2   93   3.026   2.648   2.123  0.1697 -3.5513 -0.5356
   32SOL     OW   94   1.276   1.547   1.388 -0.2057 -0.1674  0.1843
   32SOL    HW1   95   1.253   1.451   1.359 -2.4416 -0.7982  2.0419
   32SOL    HW2   96   1.374   1.549   1.407 -3.2362 -1.4418 -0.5454
   33SOL     OW   97   0.091   2.586   2.881 -0.0388 -0.2322  0.4064
   33SOL    HW1   98   0.133   2.573   2.792  0.1144  0.6720  1.2268
   33SOL    HW2   99   3.121   2.577   2.869  2.1953 -0.4233 -0.8080
   34SOL     OW  100   1.872   0.151   0.896  0.1878  0.7159  0.2954
   34SOL    HW1  101   1.851   0.240   0.842 -0.7333  3.0288 -2.0461
   34SOL    HW2  102   1.941   0.095   0.844 -0.5877  2.0972  0.5371
   35SOL     OW  103   2.088   3.117   0.817  0.0285  0.0500 -0.4087
   35SOL    HW1  104   2.079   3.061   0.726 -0.2907 -3.2165 -1.6094
   35SOL    HW2  105   2.038   3.071   0.891 -0.2334  2.5983 -0.2329
   36SOL     OW  106   1.819   2.822   2.443  0.2117  0.5341 -0.0835
   36SOL    HW1  107   1.911   2.777   2.429 -0.3212  0.8258 -1.6962
   36SOL    HW2  108   1.828   2.915   2.396 -0.4240  0.9533 -1.8747
   37SOL     OW  109   1.026   2.609   2.336 -0.2053  0.2819 -0.2909
   37SOL    HW1  110   1.049   2.555   2.255  0.0965 -1.5014 -0.5492
   37SOL    HW2  111   1.011   2.544   2.414  0.8029  1.5122  0.3117
   38SOL     OW  112   2.721   3.074   2.783 -0.0985 -0.6165  0.2028
   38SOL    HW1  113   2.758   2.981   2.815  1.0591 -2.5003  0.7619
   38SOL    HW2  114   2.618   3.085   2.795 -3.8015 -2.2995 -1.1399
   39SOL     OW  115   2.137   1.355   1.818 -0.8680 -0.1395  0.3367
   39SOL    HW1  116   2.217   1.401   1.773  2.1311 -0.2009 -0.2571
   39SOL    HW2  117   2.074   1.425   1.862 -0.3534 -1.0731  1.2321
   40SOL     OW  118   0.215   3.069   2.875  0.2928  0.5633 -0.1556
   40SOL    HW1  119   0.284   0.002   2.914 -0.2376  3.2119  2.2794
   40SOL    HW2  120   0.238   2.969   2.895  0.5522 -1.8861 -0.6361
   41SOL     OW  121   1.748   0.583   0.861 -0.1803 -0.3825 -0.2251
   41SOL    HW1  122   1.655   0.587   0.822  0.0368 -2.2432 -0.7523
   41SOL    HW2  123   1.807   0.519   0.808 -3.1405 -0.8908  1.3765
   42SOL     OW  124   0.549   0.886   1.438 -0.5737  0.0375 -0.4112
   42SOL    HW1  125   0.478   0.855   1.369 -1.5513  3.0278  0.7857
   42SOL    HW2  126   0.578   0.819   1.509  0.6952 -0.2635  0.9335
   43SOL     OW  127   2.770   1.451   2.583  0.3717 -0.3580  0.2956
   43SOL    HW1  128   2.683   1.391   2.579 -1.2413  0.6471  1.4747
   43SOL    HW2  129   2.769   1.510   2.665  0.9109  0.3844 -0.9813
   44SOL     OW  130   3.123   2.742   0.455  0.3084  0.3446  0.3903
   44SOL    HW1  131   3.052   2.820   0.461  1.4404  0.4759 -1.2523
   44SOL    HW2  132   0.085   2.775   0.482 -1.2206 -3.9113  1.6544
   45SOL     OW  133   0.234   2.585   2.060  0.1359 -0.1505  0.2645
   45SOL    HW1  134   0.159   2.654   2.053  3.5660 -1.2506  0.7673
   45SOL    HW2  135   0.322   2.626   2.031 -0.2241 -0.9421  2.5332
   46SOL     OW  136   2.240   2.530   2.274  0.7447 -0.0750 -0.2346
   46SOL    HW1  137   2.303   2.475   2.332 -0.8477  2.0797  0.4111
   46SOL    HW2  138   2.283   2.550   2.183  1.6946 -0.0559 -0.1667
   47SOL     OW  139   2.284   1.937   1.545  0.3866  0.2554  0.1409
   47SOL    HW1  140   2.341   2.010   1.589  0.0355  2.0681  1.0887
   47SOL    HW2  141   2.189   1.942   1.581  2.5764  0.2933 -1.8676
   48SOL     OW  142   0.693   1.664   0.273 -0.7060  0.1965 -0.2749
   48SOL    HW1  143   0.652   1.604   0.348 -0.8612  0.1039  2.7787
   48SOL    HW2  144   0.765   1.725   0.313  1.0826 -0.9411  2.7623
   49SOL     OW  145   2.585   0.431   2.670  0.1178 -0.3250  0.7777
   49SOL    HW1  146   2.543   0.358   2.617 -2.0309  1.9341 -2.3301
   49SOL    HW2  147   2.534   0.521   2.654 -2.1873  1.7194  1.0535
   50SOL     OW  148   2.267   0.925   0.377  0.2414 -0.2202 -0.3538
   50SOL    HW1  149   2.187   0.958   0.432  0.4405  0.0233 -0.3852
   50SOL    HW2  150   2.268   0.822   0.369 -4.0211  2.5944 -1.1674
   51SOL     OW  151   1.937   0.732   1.111  0.7840  0.1697 -0.3817
   51SOL    HW1  152   1.898   0.637   1.120 -0.3323 -2.3981 -0.7300
   51SOL    HW2  153   2.040   0.735   1.108  2.7342  2.0919 -0.7607
   52SOL     OW  154   1.223   1.292   3.000  0.1612  0.1688 -0.1946
   52SOL    HW1  155   1.167   1.351   3.064  0.0025 -2.1332  0.0702
   52SOL    HW2  156   1.322   1.320   2.994  0.9929  0.9239  2.5077
   53SOL     OW  157   1.129   1.548   1.935 -0.7405 -0.3242  0.0506
   53SOL    HW1  158   1.078   1.529   2.020 -0.6311  3.2959 -3.8379
   53SOL    HW2  159   1.075   1.506   1.860  0.4321 -1.3835 -0.9534
   54SOL     OW  160   1.991   0.313   1.123 -0.0699  0.0537  0.0926
   54SOL    HW1  161   2.046   0.265   1.200  1.1674 -0.8560 -2.5303
   54SOL    HW2  162   1.932   0.242   1.070 -2.9935  1.8991 -0.0379
   55SOL     OW  163   2.620   2.287   0.931 -0.2045 -0.2492  0.1687
   55SOL    HW1  164   2.556   2.312   0.858  1.1455 -1.7935  1.2168
   55SOL    HW2  165   2.576   2.252   1.015 -1.1481  1.1766 -2.3244
   56SOL     OW  166   0.981   2.823   1.676  0.3975 -0.3871  0.0589
   56SOL    HW1  167   0.985   2.776   1.586 -0.0631 -1.1618 -1.0848
   56SOL    HW2  168   0.978   2.923   1.665 -0.8716  0.1060  0.4828
   57SOL     OW  169   1.567   1.411   0.392 -0.3171  0.6196  0.5646
   57SOL    HW1  170   1.652   1.361   0.367 -0.9990  0.3189  2.6500
   57SOL    HW2  171   1.592   1.503   0.421 -0.2567 -0.3186 -3.2792
   58SOL     OW  172   3.017   0.547   2.557  0.4152  0.4999 -0.2106
   58SOL    HW1  173   2.954   0.625   2.548  1.1545 -0.2049  1.7640
   58SOL    HW2  174   2.977   0.470   2.615 -0.2755 -1.5514 -1.0011
   59SOL     OW  175   1.047   2.667   2.634 -0.0884 -0.1917  0.3213
   59SOL    HW1  176   1.138   2.706   2.629  0.9957  0.6451 -1.8032
   59SOL    HW2  177   1.039   2.564   2.619  3.5235 -1.1339 -0.5444
   60SOL     OW  178   2.312   2.561   0.652  0.3113  0.3320  0.0462
   60SOL    HW1  179   2.311   2.537   0.552  1.3690 -0.7641 -0.8434
   60SOL    HW2  180   2.293   2.654   0.671  0.8991  0.0808  3.3196
   61SOL     OW  181   1.273   2.288   0.861  0.4217  0.0502 -0.2051
   61SOL    HW1  182   1.202   2.354   0.899  0.7806 -1.1325 -0.2254
   61SOL    HW2  183   1.338   2.278   0.934 -2.9265 -1.0249 -3.4858
   62SOL     OW  184   2.502   2.143   2.539  0.0614  0.2339 -0.9951
   62SOL    HW1  185   2.441   2.115   2.616 -1.2383 -0.0529 -1.5855
   62SOL    HW2  186   2.539   2.065   2.491  1.3108  1.7917  0.1350
   63SOL     OW  187   2.376   0.437   3.056  0.0763  0.8541  0.1718
   63SOL    HW1  188   2.458   0.472   3.006 -1.9823 -0.7052  0.2195
   63SOL    HW2  189   2.343   0.344   3.026 -0.2136 -3.1498  0.6860
   64SOL     OW  190   1.212   0.840   2.778 -0.4654 -0.1584  0.4335
   64SOL    HW1  191   1.137   0.825   2.851  1.1936 -1.2918  0.5736
   64SOL    HW2  192   1.210   0.756   2.718  0.5472 -0.0612  2.0103
   65SOL     OW  193   1.337   2.016   0.340  0.1535  0.5682 -0.2022
   65SOL    HW1  194   1.262   1.982   0.401  1.5854 -1.6206 -1.5752
   65SOL    HW2  195   1.342   2.118   0.334 -0.8298 -1.8504  0.3565
   66SOL     OW  196   0.281   1.247   1.649 -0.0817  0.3205 -0.3849
   66SOL    HW1  197   0.301   1.298   1.735 -0.0890  0.8748  1.4356
   66SOL    HW2  198   0.365   1.229   1.596  2.2280  0.5421  1.3210
   67SOL     OW  199   2.282   0.024   2.448  0.0076 -0.4442 -0.5103
   67SOL    HW1  200   2.327   0.116   2.439  0.1816 -0.8279 -0.1997
   67SOL    HW2  201   2.232   0.002   2.359 -2.8974  1.6004  0.0097
   68SOL     OW  202   0.390   2.394   1.203  0.6352 -0.0066  0.0502
   68SOL    HW1  203   0.415   2.460   1.279  0.1687  2.8619  1.4655
   68SOL    HW2  204   0.318   2.323   1.230 -0.8200 -1.7559  0.7544
   69SOL     OW  205   0.912   2.669   0.409 -0.3239 -0.1214 -0.1034
   69SOL    HW1  206   0.941   2.712   0.323 -2.1961 -0.0529 -0.1036
   69SOL    HW2  207   0.933   2.725   0.491  1.4280 -1.0492 -2.4061
   70SOL     OW  208   2.892   1.089   2.782  0.3700 -0.1882  0.0391
   70SOL    HW1  209   2.979   1.099   2.829 -3.2691  0.1873 -0.0974
   70SOL    HW2  210   2.909   1.032   2.700  0.2445 -1.6984 -1.9863
   71SOL     OW  211   0.051   1.399   2.727  0.5198 -0.4325  0.1661
   71SOL    HW1  212   0.149   1.401   2.741 -3.0043 -0.6882 -0.3129
   71SOL    HW2  213   0.034   1.382   2.626 -0.7199 -1.3181  0.5053
   72SOL     OW  214   0.154   2.431   0.426  0.0778 -0.0147  0.1163
   72SOL    HW1  215   0.245   2.386   0.436  2.3075 -0.7525 -0.2157
   72SOL    HW2  216   0.120   2.478   0.507 -2.9396 -0.3060 -1.3512
   73SOL     OW  217   0.810   1.435   0.130 -0.3140  0.1009  0.3420
   73SOL    HW1  218   0.886   1.432   0.201  2.2442  1.0026 -0.2500
   73SOL    HW2  219   0.754   1.520   0.140 -2.0595  0.4584  0.2654
   74SOL     OW  220   3.085   0.306   0.159 -0.1153 -0.2398  0.1008
   74SOL    HW1  221   0.024   0.233   0.144  1.3994 -0.3420 -0.3087
   74SOL    HW2  222   3.116   0.392   0.111  1.9842 -0.1909  1.8467
   75SOL     OW  223   2.456   1.548   2.331 -0.0660 -0.2120  0.0738
   75SOL    HW1  224   2.510   1.560   2.246  0.7369  1.0992 -2.1321
   75SOL    HW2  225   2.363   1.592   2.319 -0.5892  2.1751  0.0171
   76SOL     OW  226   2.177   2.802   1.665  0.0264 -0.1841 -0.2138
   76SOL    HW1  227   2.212   2.707   1.657 -1.2621  1.5047 -0.0245
   76SOL    HW2  228   2.104   2.803   1.741 -1.3737  1.7944  4.9722
   77SOL     OW  229   2.587   0.353   1.236 -0.0757  0.2436  0.0953
   77SOL    HW1  230   2.638   0.442   1.230  0.7655  0.8474 -0.5953
   77SOL    HW2  231   2.557   0.320   1.143  0.3755  1.2038 -0.1747
   78SOL     OW  232   1.699   1.062   0.015  0.7435 -0.2733  0.0346
   78SOL    HW1  233   1.647   1.096   3.063  1.9294 -0.0893 -0.9860
   78SOL    HW2  234   1.796   1.096   0.009  0.8062 -1.8620 -1.8986
   79SOL     OW  235   0.633   1.835   2.041  0.7696  0.9262 -0.0994
   79SOL    HW1  236   0.732   1.840   2.025  0.0443 -2.2053  1.0677
   79SOL    HW2  237   0.607   1.794   2.136 -1.0605 -0.3984  0.3897
   80SOL     OW  238   1.511   1.063   0.855  0.0253 -0.4936 -0.0702
   80SOL    HW1  239   1.537   1.154   0.828 -0.9301 -0.3649  1.5313
   80SOL    HW2  240   1.589   0.996   0.852  1.8164 -0.5819 -0.7166
   81SOL     OW  241   0.270   0.456   1.163  0.1135 -0.2783  0.3462
   81SOL    HW1  242   0.185   0.494   1.134  2.5051  0.8262  1.9383
   81SOL    HW2  243   0.324   0.419   1.085 -2.0894  3.5957 -2.4549
   82SOL     OW  244   1.485   2.374   1.704  0.0482 -0.1006 -0.3649
   82SOL    HW1  245   1.455   2.346   1.801 -0.0490  1.0979  1.1317
   82SOL    HW2  246   1.534   2.299   1.655  1.3925 -0.6638 -1.0080
   83SOL     OW  247   0.509   2.996   1.379 -0.2122  0.1051  0.1560
   83SOL    HW1  248   0.436   3.000   1.306  2.7488 -0.5377  2.5620
   83SOL    HW2  249   0.525   2.904   1.421 -0.6246  2.3925 -0.7046
   84SOL     OW  250   0.192   0.809   2.863  0.2247  0.0264 -0.1260
   84SOL    HW1  251   0.115   0.750   2.830  1.3079 -1.2504  2.2598
   84SOL    HW2  252   0.274   0.755   2.869  0.1066  0.1697  0.3654
   85SOL     OW  253   3.003   2.537   1.759 -0.2686  0.3119 -0.0513
   85SOL    HW1  254   3.020   2.516   1.663 -0.6850  0.8086  2.8172
   85SOL    HW2  255   2.909   2.505   1.784 -0.3072 -2.0972 -0.6805
   86SOL     OW  256   2.955   2.804   1.681 -0.1463  0.3332 -0.0750
   86SOL    HW1  257   2.987   2.709   1.703 -1.2554 -0.9554 -0.3728
   86SOL    HW2  258   3.009   2.840   1.604 -1.8091  1.1111  2.8410
   87SOL     OW  259   2.969   2.567   2.800 -0.1097 -0.2833  0.0769
   87SOL    HW1  260   2.891   2.587   2.866 -0.2244 -0.5930  0.8531
   87SOL    HW2  261   2.940   2.583   2.701 -3.5596 -0.3528  1.2382
   88SOL     OW  262   0.328   1.992   1.413  0.8198  0.5549  0.0912
   88SOL    HW1  263   0.272   2.075   1.398  1.6427  0.2133  4.3293
   88SOL    HW2  264   0.350   1.954   1.319 -1.5584 -0.3497  0.3421
   89SOL     OW  265   1.029   0.347   1.831 -0.0126  0.0542  0.1413
   89SOL    HW1  266   0.954   0.379   1.773  3.1210 -0.3144  0.4678
   89SOL    HW2  267   0.998   0.273   1.895 -0.1495  0.7130  0.9481
   90SOL     OW  268   0.068   1.631   2.000  0.1369 -0.5345 -0.2329
   90SOL    HW1  269   3.106   1.595   2.026  0.1140  2.0636  0.0043
   90SOL    HW2  270   0.050   1.716   1.944 -0.1501  0.0473 -1.6139
   91SOL     OW  271   1.070   1.748   0.576  0.0643 -0.5625  0.7505
   91SOL    HW1  272   1.104   1.772   0.669 -0.6071 -1.1241  1.3765
   91SOL    HW2  273   1.143   1.692   0.533 -0.4902  1.2938 -0.3695
   92SOL     OW  274   2.357   0.135   1.187 -0.0447  0.0242 -0.2136
   92SOL    HW1  275   2.343   0.163   1.089 -0.0940 -1.0496 -0.7188
   92SOL    HW2  276   2.288   0.185   1.252  0.8881  1.9565 -0.6271
   93SOL     OW  277   2.543   1.533   2.982 -0.2638  0.2060 -0.1827
   93SOL    HW1  278   2.464   1.469   2.983  1.7489 -1.4026 -1.1271
   93SOL    HW2  279   2.517   1.629   2.963 -1.5149 -1.9856 -1.3783
   94SOL     OW  280   2.409   2.361   2.404 -0.0300  0.2229  0.9155
   94SOL    HW1  281   2.432   2.280   2.463  0.7895 -0.4057  0.3537
   94SOL    HW2  282   2.475   2.360   2.326 -1.7954  1.3535 -1.2872
   95SOL     OW  283   1.802   0.496   1.110 -0.0789 -0.3620  0.8841
   95SOL    HW1  284   1.772   0.522   1.014  1.5831 -2.4936 -2.4874
   95SOL    HW2  285   1.863   0.411   1.111 -0.7839  1.1231 -0.7353
   96SOL     OW  286   2.864   2.962   1.874  0.6399  0.3237 -0.0765
   96SOL    HW1  287   2.886   2.895   1.799  1.0118 -1.5056 -1.8118
   96SOL    HW2  288   2.828   3.046   1.828 -1.4141 -1.8535  1.1151
   97SOL     OW  289   2.143   0.243   1.327 -0.2446 -0.0629  0.4076
   97SOL    HW1  290   2.129   0.141   1.345 -0.5416  0.8329 -0.2984
   97SOL    HW2  291   2.119   0.297   1.407  2.5729 -1.1601  0.0611
   98SOL     OW  292   1.608   2.159   1.565  0.1345 -0.3935 -0.3753
   98SOL    HW1  293   1.644   2.223   1.491  0.2997  2.3578 -1.4394
   98SOL    HW2  294   1.685   2.112   1.616  2.9754  1.2079  0.6967
   99SOL     OW  295   3.114   3.059   1.939  1.0781  0.7178 -0.8560
   99SOL    HW1  296   3.020   3.023   1.906 -0.9785  2.6386 -3.7243
   99SOL    HW2  297   3.124   3.045   2.039 -3.0820 -1.3625 -1.4638
  100SOL     OW  298   0.155   0.916   2.567 -0.1301  0.0448 -0.1214
  100SOL    HW1  299   0.153   0.994   2.500  1.3913  0.7079  0.0382
  100SOL    HW2  300   0.248   0.908   2.606 -2.0173 -1.5947 -2.9227
  101SOL     OW  301   1.723   0.744   0.037  0.1848  0.5676 -0.0481
  101SOL    HW1  302   1.784   0.663   0.048  0.7452 -3.4001  0.6877
  101SOL    HW2  303   1.761   0.822   0.088  1.4152 -0.1915  1.9523
  102SOL     OW  304   0.141   0.738   1.333 -0.2791 -0.2646  0.0783
  102SOL    HW1  305   0.126   0.718   1.232  1.4832 -0.1107 -2.8882
  102SOL    HW2  306   0.180   0.654   1.382 -1.3362 -2.0666 -1.1352
  103SOL     OW  307   2.721   0.844   1.951  0.4502 -0.0515 -0.2231
  103SOL    HW1  308   2.782   0.789   2.012  0.7678 -0.3139  2.4998
  103SOL    HW2  309   2.672   0.913   2.002  4.1772 -0.9846 -1.8183
  104SOL     OW  310   0.144   0.270   2.821  0.0720  0.3991 -0.6198
  104SOL    HW1  311   0.120   0.241   2.729  1.7105 -0.2108  2.0891
  104SOL    HW2  312   0.217   0.211   2.859  2.5958  1.4914 -0.0165
  105SOL     OW  313   2.047   1.148   1.668 -0.2498  0.3535 -0.2170
  105SOL    HW1  314   1.953   1.159   1.630  1.5168 -0.4489  1.2259
  105SOL    HW2  315   2.072   1.225   1.732 -2.4228  0.0429  1.2544
  106SOL     OW  316   1.352   0.069   0.482 -0.1769  0.0716 -0.1335
  106SOL    HW1  317   1.408   0.021   0.407  2.7720 -2.2072 -5.3844
  106SOL    HW2  318   1.357   0.174   0.466  2.2235  2.8319 -1.9655
  107SOL     OW  319   0.348   1.733   1.536 -0.5894  0.2474 -0.5666
  107SOL    HW1  320   0.433   1.689   1.502  0.2613 -0.0567  0.7037
  107SOL    HW2  321   0.327   1.823   1.495  0.5978 -0.8385  0.2742
  108SOL     OW  322   0.053   2.709   2.458 -0.0762  0.2718  0.0100
  108SOL    HW1  323   0.110   2.675   2.536  0.3145 -0.7171 -4.5729
  108SOL    HW2  324   3.126   2.781   2.497  0.7878 -0.6955 -0.4908
  109SOL     OW  325   1.640   0.343   0.187  0.0240  0.0632  0.5323
  109SOL    HW1  326   1.583   0.413   0.237 -0.1648 -1.9164 -0.8742
  109SOL    HW2  327   1.703   0.403   0.126  1.0455  0.0936 -1.1168
  110SOL     OW  328   0.345   2.209   2.718  0.0502 -0.5315  0.1089
  110SOL    HW1  329   0.391   2.297   2.696 -0.3859 -1.4291  0.1399
  110SOL    HW2  330   0.411   2.153   2.770  0.5815 -0.3850 -0.0916
  111SOL     OW  331   1.392   2.660   1.998  0.5927  0.4800 -0.2578
  111SOL    HW1  332   1.481   2.692   1.964 -1.3634 -0.1233 -0.9089
  111SOL    HW2  333   1.320   2.674   1.930 -2.1359  0.6988 -2.0981
  112SOL     OW  334   1.884   2.504   2.553  0.1083  0.1441  0.4417
  112SOL    HW1  335   1.928   2.480   2.640 -1.5427 -0.3055 -2.1273
  112SOL    HW2  336   1.953   2.550   2.495  1.8373 -1.3206 -3.6345
  113SOL     OW  337   2.010   2.753   1.864  0.1733 -0.0492  0.2347
  113SOL    HW1  338   2.026   2.729   1.963 -1.4898  1.8255  2.1001
  113SOL    HW2  339   1.962   2.674   1.819  2.1278  3.9203  1.7501
  114SOL     OW  340   3.012   0.834   0.477 -0.0290  0.4219 -0.6633
  114SOL    HW1  341   3.025   0.832   0.582 -0.5315 -0.9005  0.1219
  114SOL    HW2  342   3.016   0.929   0.443  0.4272 -0.4031  2.2911
  115SOL     OW  343   0.289   1.241   2.965 -0.3537  0.1854 -0.1024
  115SOL    HW1  344   0.306   1.304   2.885 -1.1964  1.7623  0.5382
  115SOL    HW2  345   0.332   1.153   2.946 -0.7631  0.5316 -0.4597
  116SOL     OW  346   0.321   1.215   2.055 -0.2551 -0.0720  0.1693
  116SOL    HW1  347   0.325   1.301   2.004  0.4425 -2.0426  0.1684
  116SOL    HW2  348   0.233   1.208   2.104 -1.5797 -0.8483 -3.0011
  117SOL     OW  349   2.419   3.111   0.778 -0.5358 -0.3410  0.4989
  117SOL    HW1  350   2.418   0.001   0.676 -0.0896 -0.2405 -0.3967
  117SOL    HW2  351   2.348   0.043   0.824 -0.5849  2.1720  0.9495
  118SOL     OW  352   1.415   1.783   1.777 -0.4101  0.4677 -0.1651
  118SOL    HW1  353   1.432   1.706   1.711 -1.2763  1.9353 -0.9815
  118SOL    HW2  354   1.326   1.772   1.827 -2.5398  1.5723  2.2432
  119SOL     OW  355   1.144   2.436   0.276  0.1917  0.4363 -0.0088
  119SOL    HW1  356   1.086   2.412   0.355 -2.1924 -0.9500  1.0985
  119SOL    HW2  357   1.230   2.380   0.267 -0.6445  0.4261  1.4135
  120SOL     OW  358   0.424   0.952   2.658 -0.1236  0.4738 -0.2042
  120SOL    HW1  359   0.515   0.988   2.625 -0.8692  0.3702  2.1159
  120SOL    HW2  360   0.410   0.954   2.759 -0.5610 -0.4453  1.7772
  121SOL     OW  361   1.990   2.744   1.316  0.4718  0.5133 -0.1834
  121SOL    HW1  362   1.956   2.754   1.219  1.6511 -0.4699  1.1994
  121SOL    HW2  363   2.080   2.789   1.328 -1.9649 -0.6364 -2.1084
  122SOL     OW  364   2.474   2.127   1.948 -0.2047 -0.4966  0.6130
  122SOL    HW1  365   2.472   2.062   2.025  0.0103  1.5366 -2.5019
  122SOL    HW2  366   2.413   2.215   1.961 -0.6498  0.8437  2.1107
  123SOL     OW  367   0.105   0.055   0.462  0.3093  0.1145 -0.2726
  123SOL    HW1  368   0.138   0.143   0.502  0.7393 -2.5547 -0.1216
  123SOL    HW2  369   0.080   0.064   0.362  0.7522 -1.3834 -1.6957
  124SOL     OW  370   1.862   0.631   2.500  0.0779 -0.3973  0.0178
  124SOL    HW1  371   1.890   0.713   2.451 -2.1064 -0.8055  0.7917
  124SOL    HW2  372   1.896   0.544   2.456 -1.2562 -0.3650  0.3143
  125SOL     OW  373   0.463   1.587   0.738  0.0539  0.1373  0.4476
  125SOL    HW1  374   0.511   1.609   0.646  0.5923 -1.0289 -0.9187
  125SOL    HW2  375   0.376   1.642   0.750  2.4313 -1.1668 -0.0261
  126SOL     OW  376   2.584   1.736   0.663 -0.6424 -0.0481 -0.4899
  126SOL    HW1  377   2.674   1.743   0.712 -1.2472 -0.6917  1.8923
  126SOL    HW2  378   2.519   1.802   0.707  2.2308  1.4119 -1.2142
  127SOL     OW  379   0.140   2.176   1.727 -0.0622  0.2090 -0.1041
  127SOL    HW1  380   0.071   2.185   1.650  0.9555  0.6206 -1.9905
  127SOL    HW2  381   0.146   2.262   1.780  0.7782  2.0182 -2.5254
  128SOL     OW  382   0.755   0.557   2.636  0.2105  0.1896  0.2428
  128SOL    HW1  383   0.821   0.576   2.566 -1.7031  0.2364  1.0457
  128SOL    HW2  384   0.779   0.469   2.677  1.5711  1.3891  0.9387
  129SOL     OW  385   2.471   1.098   1.014  0.4221  0.3714  0.1210
  129SOL    HW1  386   2.572   1.104   1.000 -0.0100 -0.7005 -1.0606
  129SOL    HW2  387   2.424   1.158   0.944  0.8996  0.6380 -1.1250
  130SOL     OW  388   2.487   1.475   1.538 -0.2618  0.3300 -0.1043
  130SOL    HW1  389   2.502   1.376   1.519  2.3032  2.0394  0.7276
  130SOL    HW2  390   2.419   1.491   1.610  2.5201 -0.3888 -0.2831
  131SOL     OW  391   2.578   0.790   3.010 -0.6062 -0.6842 -0.1035
  131SOL    HW1  392   2.665   0.807   3.059 -0.0905  1.8111 -0.9657
  131SOL    HW2  393   2.584   0.715   2.941  0.9408 -0.4461 -1.6259
  132SOL     OW  394   2.703   2.225   2.004 -0.1135 -0.8110  0.2203
  132SOL    HW1  395   2.619   2.181   1.967 -1.9876  0.8416 -1.7714
  132SOL    HW2  396   2.767   2.152   2.039 -3.0069  0.2425  1.9578
  133SOL     OW  397   0.359   1.128   0.930  0.1156  0.1053  0.3051
  133SOL    HW1  398   0.350   1.192   0.857  2.2429 -0.2177  1.5992
  133SOL    HW2  399   0.378   1.184   1.014  0.3986 -0.5402 -0.8386
  134SOL     OW  400   0.311   1.344   0.074  0.4142 -0.3704 -0.2418
  134SOL    HW1  401   0.286   1.444   0.066  1.0346  1.0070 -1.3709
  134SOL    HW2  402   0.316   1.311   3.109 -0.1637 -0.8583  2.4925
  135SOL     OW  403   2.157   1.455   1.320 -0.3711 -0.5079 -0.3254
  135SOL    HW1  404   2.153   1.362   1.357 -1.3365  0.3124 -1.4098
  135SOL    HW2  405   2.096   1.515   1.377  0.7240  0.6556 -2.4691
  136SOL     OW  406   2.716   0.936   0.747 -0.2137 -0.1932 -0.0516
  136SOL    HW1  407   2.709   0.946   0.642  0.4215 -2.6537 -1.2187
  136SOL    HW2  408   2.659   0.862   0.783 -0.4206  2.3127 -1.7453
  137SOL     OW  409   2.674   1.700   1.060 -0.1642 -0.3720 -0.0352
  137SOL    HW1  410   2.624   1.787   1.080 -1.3253 -1.9489  0.0484
  137SOL    HW2  411   2.613   1.618   1.057 -0.0739 -1.4388  1.3977
  138SOL     OW  412   1.684   0.644   1.319 -0.2509  0.4271 -0.0241
  138SOL    HW1  413   1.718   0.580   1.248  0.8884 -2.0803 -0.9353
  138SOL    HW2  414   1.680   0.608   1.416 -1.5889  1.0211  1.4765
  139SOL     OW  415   2.070   0.210   2.953  0.2205 -0.0560 -0.1726
  139SOL    HW1  416   2.051   0.303   2.922  0.5230  1.2429 -0.2343
  139SOL    HW2  417   2.172   0.203   2.962 -0.3808  1.6475 -1.2365
  140SOL     OW  418   1.703   1.651   2.095 -1.1415 -1.0361 -0.4714
  140SOL    HW1  419   1.798   1.643   2.131  0.7156 -0.0395  2.5604
  140SOL    HW2  420   1.666   1.566   2.055  2.6539  1.6219 -1.0006
  141SOL     OW  421   1.972   1.964   1.017  0.3469  0.6694  0.7378
  141SOL    HW1  422   2.045   2.013   1.063 -1.6643 -1.6986 -2.0766
  141SOL    HW2  423   1.909   1.926   1.086 -0.5884 -0.6371  1.1458
  142SOL     OW  424   3.034   0.702   0.090  0.1744  0.0863 -0.4299
  142SOL    HW1  425   3.094   0.629   0.043  0.5224 -0.6790  1.3649
  142SOL    HW2  426   3.093   0.747   0.161 -2.5473 -1.5541 -1.3679
  143SOL     OW  427   0.293   2.114   3.025 -0.4160  0.0100 -0.1403
  143SOL    HW1  428   0.362   2.039   3.026 -0.2761  0.9973 -3.6318
  143SOL    HW2  429   0.278   2.151   2.927 -0.7602 -0.8979 -1.5886
  144SOL     OW  430   0.969   3.007   1.920 -0.2349  0.6063  0.3590
  144SOL    HW1  431   0.946   3.025   1.821 -0.9272  1.0614 -0.8542
  144SOL    HW2  432   0.939   2.916   1.945 -0.6771  0.7975 -0.2547
  145SOL     OW  433   2.362   1.484   0.390 -0.6026 -0.0279 -0.0601
  145SOL    HW1  434   2.273   1.524   0.361 -1.7562 -0.8859 -1.2042
  145SOL    HW2  435   2.424   1.455   0.316  0.9163  0.0786  0.8437
  146SOL     OW  436   2.771   2.584   2.980  0.2745  0.0585  0.1913
  146SOL    HW1  437   2.829   2.548   3.054 -1.7228 -0.7949  0.6098
  146SOL    HW2  438   2.711   2.510   2.948  0.8600  0.5221 -0.8647
  147SOL     OW  439   2.732   2.924   1.160  0.1309  0.7120 -0.3730
  147SOL    HW1  440   2.692   2.994   1.221  0.5667 -0.0102 -1.2323
  147SOL    HW2  441   2.701   2.934   1.062 -1.1739 -0.3988 -0.4010
  148SOL     OW  442   1.602   3.097   2.436  0.7723  0.3536  0.2779
  148SOL    HW1  443   1.561   3.090   2.531  0.7570  1.8605 -0.2698
  148SOL    HW2  444   1.662   0.044   2.412 -1.0080 -2.6271 -0.7887
  149SOL     OW  445   1.112   0.358   2.533 -0.2141 -0.1606  0.0777
  149SOL    HW1  446   1.187   0.289   2.535  0.4726  2.4215 -1.2560
  149SOL    HW2  447   1.087   0.372   2.431 -3.1808 -1.9487 -1.4356
  150SOL     OW  448   0.968   2.826   0.634  0.4276  0.3212 -0.2264
  150SOL    HW1  449   0.898   2.901   0.659  2.3173  0.1855 -0.5011
  150SOL    HW2  450   1.063   2.861   0.654  0.0571  2.8994  0.0208
  151SOL     OW  451   3.009   1.803   0.171 -0.1035 -0.0574 -0.0264
  151SOL    HW1  452   2.908   1.821   0.164 -0.1265  2.0205 -2.3239
  151SOL    HW2  453   3.043   1.730   0.108  0.1136 -2.0415 -0.2053
  152SOL     OW  454   0.188   1.064   0.500 -0.2239  0.1447 -0.3857
  152SOL    HW1  455   0.258   1.132   0.461 -1.7193  0.3159  0.7864
  152SOL    HW2  456   0.233   0.975   0.524 -0.3095  2.7200  1.8323
  153SOL     OW  457   2.253   0.080   0.435 -0.4580  0.2476 -0.1015
  153SOL    HW1  458   2.351   0.100   0.406  2.9906 -1.0343 -2.7439
  153SOL    HW2  459   2.198   0.075   0.349  0.9271  4.1309 -0.1259
  154SOL     OW  460   0.793   0.689   1.432  0.7105 -0.0156 -0.5823
  154SOL    HW1  461   0.770   0.776   1.386 -0.3005 -0.7764  0.4307
  154SOL    HW2  462   0.760   0.695   1.530  0.4998  0.0179 -1.0703
  155SOL     OW  463   3.107   1.837   1.086 -0.3910  0.0157 -0.1497
  155SOL    HW1  464   3.026   1.768   1.076 -3.7494 -2.3884 -2.0700
  155SOL    HW2  465   3.097   1.918   1.023  1.3081  1.4254 -2.9714
  156SOL     OW  466   2.184   2.081   0.116 -0.2157 -0.4967 -0.4082
  156SOL    HW1  467   2.276   2.053   0.163 -0.7204 -2.3944  0.2550
  156SOL    HW2  468   2.202   2.132   0.027 -0.0439 -0.1745  0.7369
  157SOL     OW  469   1.034   2.901   0.988 -0.1255 -0.1964 -0.0019
  157SOL    HW1  470   0.946   2.843   0.990 -1.3841 -2.6617  2.1658
  157SOL    HW2  471   1.061   2.923   0.890 -1.6524 -2.4524  0.6121
  158SOL     OW  472   2.423   0.648   2.640 -0.1544 -0.0318 -0.3451
  158SOL    HW1  473   2.336   0.697   2.656  0.4765  0.0425 -0.0056
  158SOL    HW2  474   2.465   0.684   2.553 -1.1925  0.0074  0.1832
  159SOL     OW  475   0.579   0.231   0.092  1.2285 -0.0808 -0.8602
  159SOL    HW1  476   0.477   0.232   0.120 -1.1536  1.7374 -0.5398
  159SOL    HW2  477   0.589   0.270   0.001 -0.8260  0.3391  0.3642
  160SOL     OW  478   1.310   1.934   0.070  0.1113 -0.5901 -0.4910
  160SOL    HW1  479   1.348   1.987   3.120 -1.1908  0.7067 -1.9596
  160SOL    HW2  480   1.341   1.974   0.156 -0.7112 -1.0343 -1.0892
  161SOL     OW  481   2.962   1.832   2.775 -0.0371 -0.3601 -0.3134
  161SOL    HW1  482   3.036   1.888   2.738 -2.7085 -2.4456 -0.8071
  161SOL    HW2  483   2.939   1.854   2.872 -0.8911 -0.2129 -1.1079
  162SOL     OW  484   0.244   3.020   1.264  0.0850  0.8698  0.1902
  162SOL    HW1  485   0.206   2.928   1.290  1.5169 -0.4134 -1.2329
  162SOL    HW2  486   0.192   3.098   1.299  1.7572 -1.5785 -1.1148
  163SOL     OW  487   2.099   0.473   2.927  0.1131  0.0567  0.1600
  163SOL    HW1  488   2.188   0.499   2.972  2.4632  2.3232  0.7237
  163SOL    HW2  489   2.050   0.557   2.901  1.9683  1.0083 -0.0047
  164SOL     OW  490   3.062   2.037   0.885 -0.7672  0.0329  0.2034
  164SOL    HW1  491   3.082   2.023   0.783 -1.1110  1.7161 -2.7113
  164SOL    HW2  492   2.979   2.090   0.905  1.9157  1.5541  2.1861
  165SOL     OW  493   2.713   0.032   1.716 -0.2985 -0.0369 -0.1812
  165SOL    HW1  494   2.764   0.107   1.679  0.8123 -1.4864 -0.0675
  165SOL    HW2  495   2.625   0.019   1.663 -0.7551  3.6326 -0.7258
  166SOL     OW  496   2.280   0.197   0.914 -0.2131  0.2885 -0.2203
  166SOL    HW1  497   2.252   0.289   0.955 -0.7092 -0.1682  3.4176
  166SOL    HW2  498   2.201   0.157   0.859  1.4564  3.1249  1.1093
  167SOL     OW  499   0.444   0.426   0.944  0.9508 -0.0540 -0.2268
  167SOL    HW1  500   0.513   0.405   1.016 -1.0310  0.8623 -1.8415
  167SOL    HW2  501   0.476   0.376   0.864 -3.0402  3.5934  1.9920
  168SOL     OW  502   1.885   3.020   1.922 -0.5382  0.1397 -0.1314
  168SOL    HW1  503   1.825   2.968   1.984 -0.6790  0.3696 -1.6044
  168SOL    HW2  504   1.974   2.975   1.904 -0.9085  1.5161  0.8023
  169SOL     OW  505   0.374   1.315   0.741 -0.6755  0.1008 -0.0187
  169SOL    HW1  506   0.438   1.388   0.762 -1.8342 -1.0375 -3.8667
  169SOL    HW2  507   0.354   1.311   0.641 -2.2708 -1.6490 -0.8311
  170SOL     OW  508   2.475   1.000   1.312 -0.0324  0.5586  0.1854
  170SOL    HW1  509   2.441   0.993   1.215 -4.1804  0.7708  0.3433
  170SOL    HW2  510   2.417   0.936   1.371 -2.9274  0.0022  1.9296
  171SOL     OW  511   0.933   2.511   1.669 -0.1081 -0.7819  0.2872
  171SOL    HW1  512   0.949   2.407   1.652 -0.4010 -2.4705 -0.9418
  171SOL    HW2  513   0.946   2.558   1.574 -5.1153  2.4294 -2.1806
  172SOL     OW  514   0.200   2.759   1.395 -0.2850 -0.7067  0.1632
  172SOL    HW1  515   0.239   2.695   1.463 -1.9479  1.8113 -2.5889
  172SOL    HW2  516   0.113   2.793   1.431  1.3033  0.7394 -1.1650
  173SOL     OW  517   1.362   0.238   3.067 -0.0463  0.5079  0.0810
  173SOL    HW1  518   1.314   0.216   2.978  1.2366  0.3471 -3.7490
  173SOL    HW2  519   1.390   0.336   3.065 -3.1812  1.2881 -1.1727
  174SOL     OW  520   1.496   3.103   2.694 -0.2434  0.5974  0.2389
  174SOL    HW1  521   1.407   0.021   2.672 -2.0648  1.8308 -1.5815
  174SOL    HW2  522   1.475   3.007   2.733  0.4144 -1.6646  0.4409
  175SOL     OW  523   1.685   2.583   3.053  0.5100  0.1452 -0.1515
  175SOL    HW1  524   1.584   2.582   3.076  1.8688 -1.1409  1.8546
  175SOL    HW2  525   1.724   2.677   3.077 -2.1071 -1.3577  0.2116
  176SOL     OW  526   1.659   0.181   2.807 -0.2414  0.0944 -0.1998
  176SOL    HW1  527   1.730   0.144   2.875  0.4444 -1.5421  0.5006
  176SOL    HW2  528   1.602   0.109   2.774  3.1425  3.5681  0.9699
  177SOL     OW  529   0.869   1.589   0.605  0.6763  0.2759 -0.0522
  177SOL    HW1  530   0.933   1.664   0.599 -2.9312 -0.2200 -0.9865
  177SOL    HW2  531   0.857   1.573   0.706  0.2645  1.6540  1.1580
  178SOL     OW  532   0.064   1.413   2.467 -0.4359 -0.0654  0.0322
  178SOL    HW1  533   0.104   1.483   2.404 -0.2175 -2.2521 -0.9725
  178SOL    HW2  534   3.126   1.362   2.418  2.5615  1.4337  2.6226
  179SOL     OW  535   0.659   2.572   2.774 -0.0740 -0.0247 -0.4268
  179SOL    HW1  536   0.758   2.590   2.799  2.4774 -0.0161 -2.5971
  179SOL    HW2  537   0.614   2.655   2.732 -1.1087  0.8350 -1.6366
  180SOL     OW  538   2.058   1.901   1.655 -0.1977 -0.2666 -0.3491
  180SOL    HW1  539   2.075   1.854   1.747  0.3568 -1.8528  1.9159
  180SOL    HW2  540   1.988   1.849   1.609  3.2841  0.7917  2.4221
  181SOL     OW  541   1.225   1.031   2.325  0.1128 -0.3411 -0.1026
  181SOL    HW1  542   1.276   0.998   2.411  0.8313  0.4826  0.7603
  181SOL    HW2  543   1.234   1.131   2.321 -0.2958  0.6971  1.5166
  182SOL     OW  544   2.886   0.100   2.652 -0.0551 -0.1165  0.6024
  182SOL    HW1  545   2.816   0.039   2.696 -1.7152 -2.8101 -1.0041
  182SOL    HW2  546   2.973   0.050   2.647  0.4717 -1.3476  3.4329
  183SOL     OW  547   1.213   0.538   2.839 -0.1000 -0.3644 -0.1843
  183SOL    HW1  548   1.200   0.551   2.739 -2.6535 -0.7016  0.2770
  183SOL    HW2  549   1.310   0.540   2.869 -0.6830  1.4579  0.3229
  184SOL     OW  550   0.969   1.281   1.480 -0.0591 -0.1727 -0.3323
  184SOL    HW1  551   0.924   1.198   1.523 -1.9834 -2.7844 -0.2693
  184SOL    HW2  552   0.920   1.322   1.396 -0.8667  3.3131 -1.1163
  185SOL     OW  553   2.714   1.373   1.252 -0.2281  0.7453  0.4149
  185SOL    HW1  554   2.789   1.440   1.274 -2.3224  5.2640  1.1759
  185SOL    HW2  555   2.741   1.274   1.233  0.4277 -0.8807 -0.1694
  186SOL     OW  556   0.778   1.534   2.582  0.2178  0.1418  0.0469
  186SOL    HW1  557   0.795   1.623   2.540 -1.8649  1.2591  2.1129
  186SOL    HW2  558   0.735   1.469   2.518  1.4518 -1.6951 -0.0576
  187SOL     OW  559   2.478   1.423   0.143  0.0109  0.0072 -0.3724
  187SOL    HW1  560   2.429   1.426   0.057  1.9779  0.4469  0.6647
  187SOL    HW2  561   2.546   1.353   0.152 -2.3532  0.1331  3.1672
  188SOL     OW  562   0.012   2.091   0.603 -0.2807 -0.4419 -0.2413
  188SOL    HW1  563   0.102   2.110   0.647 -1.0557 -0.8719  0.1894
  188SOL    HW2  564   0.028   2.059   0.506 -0.6565  1.7826  1.0493
  189SOL     OW  565   2.646   0.750   0.285 -0.0930  0.2003 -0.7614
  189SOL    HW1  566   2.691   0.693   0.215 -3.7416  2.2410  1.2672
  189SOL    HW2  567   2.582   0.694   0.341 -0.2089  2.0614  2.8710
  190SOL     OW  568   1.242   1.298   2.293  0.6088  0.6091  0.3371
  190SOL    HW1  569   1.315   1.368   2.309  0.5633  3.4292  1.7673
  190SOL    HW2  570   1.154   1.348   2.305  0.7048  1.5343  1.7858
  191SOL     OW  571   2.235   0.162   1.973  0.1566 -0.2893 -0.3800
  191SOL    HW1  572   2.318   0.224   1.969  0.7165  1.3184  2.5555
  191SOL    HW2  573   2.190   0.144   1.883  0.1101  0.7480  1.0039
  192SOL     OW  574   1.863   0.637   1.597 -0.2790 -0.7375 -0.0209
  192SOL    HW1  575   1.892   0.651   1.692 -1.3938 -1.6042 -0.8400
  192SOL    HW2  576   1.787   0.573   1.592  1.2796  1.8963  0.2317
  193SOL     OW  577   0.685   0.763   0.588  0.1483  0.1813 -0.4069
  193SOL    HW1  578   0.679   0.797   0.683  1.3502  0.1313  0.7958
  193SOL    HW2  579   0.709   0.841   0.526  0.9367  0.4208  1.6799
  194SOL     OW  580   1.405   2.867   0.976  0.2590 -0.1760  0.4202
  194SOL    HW1  581   1.481   2.827   0.921  0.4681  1.5829 -0.0606
  194SOL    HW2  582   1.433   2.882   1.071 -1.7544 -1.5466 -1.8506
  195SOL     OW  583   2.485   0.622   0.530  0.6211  0.6429  0.1403
  195SOL    HW1  584   2.412   0.630   0.457 -1.6154  2.1497 -1.5771
  195SOL    HW2  585   2.549   0.542   0.509  0.8550 -1.5250 -1.7226
  196SOL     OW  586   1.132   1.773   1.522  0.3588  0.3903  0.2279
  196SOL    HW1  587   1.152   1.683   1.482  0.3753  1.0064  0.1240
  196SOL    HW2  588   1.217   1.822   1.529 -1.7806 -1.0144  2.5455
  197SOL     OW  589   0.187   2.961   0.227 -0.0463  0.2354  0.5807
  197SOL    HW1  590   0.195   2.939   0.324 -0.3752  0.4130 -1.9138
  197SOL    HW2  591   0.133   2.889   0.175  3.0245  1.2530 -0.6853
  198SOL     OW  592   0.833   1.304   0.698  0.5175  0.5006  0.2662
  198SOL    HW1  593   0.780   1.240   0.634 -1.5228  0.1717 -0.4871
  198SOL    HW2  594   0.881   1.381   0.655  3.1092  1.2736  1.6823
  199SOL     OW  595   3.112   0.329   1.821 -0.2453  0.2195  0.3992
  199SOL    HW1  596   3.030   0.384   1.812 -2.4892 -0.5045 -4.2846
  199SOL    HW2  597   0.064   0.366   1.763  2.5280  0.8768 -1.4997
  200SOL     OW  598   2.315   2.070   2.725 -0.3130 -0.5322  0.5440
  200SOL    HW1  599   2.315   2.013   2.808 -1.1963  0.0044 -0.5502
  200SOL    HW2  600   2.238   2.138   2.719  0.7673  0.1649 -0.7326
  201SOL     OW  601   2.654   2.961   0.897  0.2572 -0.6482  1.0330
  201SOL    HW1  602   2.569   3.002   0.862 -1.2046  0.2146 -3.3723
  201SOL    HW2  603   2.698   2.909   0.820 -0.4555 -2.2644 -1.6393
  202SOL     OW  604   2.805   0.564   0.136  0.0475 -0.1548  0.6453
  202SOL    HW1  605   2.893   0.611   0.119  1.4759 -7.9009  3.5886
  202SOL    HW2  606   2.789   0.489   0.069  0.9623  1.5702 -0.4991
  203SOL     OW  607   1.359   1.508   2.448 -0.4677  0.6533 -0.0283
  203SOL    HW1  608   1.408   1.588   2.405  0.4305  0.4689 -0.6080
  203SOL    HW2  609   1.419   1.445   2.506 -0.8944 -1.4169 -1.5295
  204SOL     OW  610   0.952   1.459   2.120 -0.1579  0.0057 -0.3409
  204SOL    HW1  611   0.971   1.389   2.194 -0.3498  0.8888 -1.0939
  204SOL    HW2  612   0.863   1.514   2.128  1.8969  3.1507  0.1973
  205SOL     OW  613   1.364   1.988   1.536  0.0557 -0.7000 -0.4167
  205SOL    HW1  614   1.368   1.926   1.613  0.4902  0.8570 -0.1988
  205SOL    HW2  615   1.447   2.044   1.531  0.4562 -1.6234 -1.8434
  206SOL     OW  616   3.069   0.422   2.861  0.0267 -0.1491  0.2004
  206SOL    HW1  617   0.009   0.352   2.841 -1.9315  2.2664  0.9883
  206SOL    HW2  618   2.984   0.392   2.810 -0.5704 -0.1641 -1.7166
  207SOL     OW  619   1.749   2.914   2.126  0.5227 -0.2826 -0.5424
  207SOL    HW1  620   1.651   2.905   2.158 -0.6541 -0.7201  1.6135
  207SOL    HW2  621   1.797   2.982   2.185 -0.3444  1.8915 -0.1182
  208SOL     OW  622   0.601   2.271   1.871  0.0749  0.2555 -0.1914
  208SOL    HW1  623   0.508   2.250   1.840  0.5421  0.0578 -1.3487
  208SOL    HW2  624   0.620   2.365   1.835  1.1041 -1.3052 -0.3021
  209SOL     OW  625   1.849   0.955   2.772 -0.7751  0.2160  0.2368
  209SOL    HW1  626   1.790   1.028   2.722  1.3361  0.2451 -1.9316
  209SOL    HW2  627   1.797   0.869   2.791 -2.2213  2.5692 -0.3225
  210SOL     OW  628   2.682   0.391   0.742  0.4518 -0.0357  0.2091
  210SOL    HW1  629   2.716   0.484   0.767 -0.0028  1.9429  0.9166
  210SOL    HW2  630   2.679   0.373   0.641 -1.3305  1.7378  0.2607
  211SOL     OW  631   0.623   0.942   0.856  0.2755 -0.1855  0.5588
  211SOL    HW1  632   0.658   0.990   0.943  1.9922  0.8590  2.6713
  211SOL    HW2  633   0.592   1.019   0.792  1.7987  1.9714 -0.2876
  212SOL     OW  634   1.287   1.612   0.521 -0.1042 -0.6805 -0.2272
  212SOL    HW1  635   1.281   1.513   0.539  1.7152  0.5829 -0.7021
  212SOL    HW2  636   1.295   1.635   0.417  1.9341  1.9208 -0.0743
  213SOL     OW  637   1.483   3.088   1.774 -0.5670  0.1935  0.3169
  213SOL    HW1  638   1.539   3.127   1.697 -0.1028 -1.7562  1.2635
  213SOL    HW2  639   1.390   3.107   1.756  0.2700 -1.9793 -0.0419
  214SOL     OW  640   1.706   1.547   2.489  0.0155  0.4154 -0.0615
  214SOL    HW1  641   1.680   1.588   2.576 -0.3412 -1.5018  0.5579
  214SOL    HW2  642   1.783   1.595   2.443 -2.1040 -1.8725  0.1029
  215SOL     OW  643   0.394   1.833   1.197  0.3547  0.2507 -0.5118
  215SOL    HW1  644   0.487   1.820   1.236 -0.4371 -0.6354  0.2398
  215SOL    HW2  645   0.388   1.838   1.096  1.0061 -0.1852  1.7769
  216SOL     OW  646   0.635   2.848   2.332  0.6662 -0.5604  0.2673
  216SOL    HW1  647   0.599   2.934   2.287 -0.1436  1.5322 -0.3270
  216SOL    HW2  648   0.651   2.866   2.433  0.1507  1.8063  1.1721
  217SOL     OW  649   2.349   0.697   0.024  0.4763  0.1657 -0.1687
  217SOL    HW1  650   2.371   0.598   0.006  2.5129  0.6529  1.8077
  217SOL    HW2  651   2.415   0.763   3.113 -0.7352  1.7471 -0.2269
  218SOL     OW  652   2.218   1.682   2.273 -0.1239  0.1663 -0.0781
  218SOL    HW1  653   2.169   1.740   2.344 -1.7408 -0.2255  0.5575
  218SOL    HW2  654   2.264   1.740   2.204  0.6379  1.5946  0.1194
  219SOL     OW  655   1.680   1.065   0.293  0.1065  0.2216 -0.5804
  219SOL    HW1  656   1.681   1.066   0.191  1.4895 -0.3827 -0.5483
  219SOL    HW2  657   1.717   1.153   0.324 -0.6488 -2.7516 -2.4828
  220SOL     OW  658   1.494   1.853   0.938 -0.1175  0.1333 -0.4088
  220SOL    HW1  659   1.511   1.954   0.922  2.4916  0.8197 -0.3827
  220SOL    HW2  660   1.408   1.827   0.983  3.8002 -1.1799  0.0349
  221SOL     OW  661   0.070   0.550   3.087 -0.1494 -0.1827 -0.0959
  221SOL    HW1  662   0.168   0.545   3.111  1.4997  1.4723 -0.6768
  221SOL    HW2  663   0.043   0.512   2.995  0.0453 -1.2160  1.3936
  222SOL     OW  664   1.221   2.404   1.567  0.5159 -0.1799  0.1835
  222SOL    HW1  665   1.211   2.442   1.475 -0.6787  0.6329 -0.2960
  222SOL    HW2  666   1.315   2.374   1.592 -2.7465  1.6940 -0.7362
  223SOL     OW  667   1.450   2.848   2.792 -0.1642 -0.0638 -0.0062
  223SOL    HW1  668   1.546   2.840   2.767 -1.9236 -0.5626 -0.1523
  223SOL    HW2  669   1.438   2.866   2.892 -1.6802  1.5278  3.5405
  224SOL     OW  670   2.553   1.448   1.064  0.5248 -0.0216  0.1717
  224SOL    HW1  671   2.619   1.426   1.138  1.1815  0.6130 -0.1269
  224SOL    HW2  672   2.469   1.395   1.066 -0.0064  0.7924  0.1130
  225SOL     OW  673   1.207   1.271   1.353  0.2871  0.3370  0.1937
  225SOL    HW1  674   1.116   1.293   1.398  1.0575  2.0923 -1.4252
  225SOL    HW2  675   1.210   1.174   1.322 -1.3813 -0.3287  1.9883
  226SOL     OW  676   1.729   2.485   2.800 -0.6136  0.3927 -0.2170
  226SOL    HW1  677   1.697   2.505   2.896  1.6279 -0.7679  3.4575
  226SOL    HW2  678   1.671   2.423   2.752  0.2507  3.1808 -0.1666
  227SOL     OW  679   0.780   2.183   0.999 -0.0382 -0.0072 -0.0127
  227SOL    HW1  680   0.679   2.187   1.005  2.9154 -1.8512 -1.0013
  227SOL    HW2  681   0.823   2.243   1.070 -1.3975 -3.6833  1.5486
  228SOL     OW  682   0.205   2.228   1.338 -0.2410  0.2299 -0.1683
  228SOL    HW1  683   0.142   2.219   1.419 -0.2151 -1.6646  0.3925
  228SOL    HW2  684   0.147   2.220   1.256  0.4507 -0.8393 -1.7375
  229SOL     OW  685   2.191   1.122   0.178  0.9328 -0.0963 -0.1283
  229SOL    HW1  686   2.278   1.118   0.126 -0.4748  1.8505  2.7941
  229SOL    HW2  687   2.203   1.063   0.263  0.0362 -0.2228  2.0926
  230SOL     OW  688   1.046   1.012   2.026  0.0838  0.1524 -0.1013
  230SOL    HW1  689   1.019   1.052   2.118 -0.3530 -0.2397 -1.4086
  230SOL    HW2  690   1.148   0.980   2.044  1.0001 -2.7773  0.5336
  231SOL     OW  691   1.607   1.888   1.955 -0.2752 -0.0252  0.2135
  231SOL    HW1  692   1.656   1.805   1.988 -1.9246 -0.2473 -2.1055
  231SOL    HW2  693   1.533   1.858   1.889 -2.2566 -0.7214  0.8961
  232SOL     OW  694   2.195   2.248   1.386 -0.0313  0.0549 -0.2323
  232SOL    HW1  695   2.135   2.223   1.465 -0.7957  0.6072  1.9656
  232SOL    HW2  696   2.195   2.348   1.358  0.8680  1.5573  1.2000
  233SOL     OW  697   1.708   2.557   2.350 -0.2812 -0.5169  0.4489
  233SOL    HW1  698   1.762   2.513   2.428  4.3372  0.6091 -1.3042
  233SOL    HW2  699   1.727   2.658   2.351 -0.1300  0.5304  0.2615
  234SOL     OW  700   1.052   3.055   2.770  0.1403  0.1512 -0.6223
  234SOL    HW1  701   1.089   3.048   2.678 -4.6305  0.0081 -0.3884
  234SOL    HW2  702   0.964   3.007   2.786 -1.0894  1.2488  0.8971
  235SOL     OW  703   2.565   2.780   3.039  0.4925 -0.0319 -0.4918
  235SOL    HW1  704   2.637   2.727   2.989 -0.4885  2.4613 -2.5114
  235SOL    HW2  705   2.599   2.862   3.088  0.6880 -0.2833 -1.2421
  236SOL     OW  706   2.070   2.669   2.450 -0.4039 -0.1816  0.0405
  236SOL    HW1  707   2.145   2.641   2.386  0.0440 -0.7387 -1.7153
  236SOL    HW2  708   2.112   2.718   2.529  0.2302  2.8617 -0.7056
  237SOL     OW  709   1.581   1.029   1.676 -0.1898 -0.1555 -0.0079
  237SOL    HW1  710   1.607   0.936   1.648 -0.7770  1.0336 -0.7380
  237SOL    HW2  711   1.508   1.069   1.618  1.1132 -0.7504  0.1478
  238SOL     OW  712   2.190   3.097   2.161 -0.1125  0.2698  0.2798
  238SOL    HW1  713   2.206   0.057   2.120 -2.1716  0.7654 -0.3448
  238SOL    HW2  714   2.269   3.033   2.141 -1.3539 -0.3258 -0.0416
  239SOL     OW  715   0.691   1.525   2.125  0.5969  0.0571  0.6096
  239SOL    HW1  716   0.657   1.497   2.036  0.2233  0.7343  0.3008
  239SOL    HW2  717   0.630   1.583   2.188  1.7399 -2.0143 -3.3430
  240SOL     OW  718   0.074   2.571   0.648  0.1559 -0.2328  0.1091
  240SOL    HW1  719   0.017   2.556   0.730 -1.4114  1.2839 -2.3094
  240SOL    HW2  720   0.023   2.634   0.587  1.3323  1.9257  0.3838
  241SOL     OW  721   1.820   2.079   0.828  0.1894 -0.2588  0.1653
  241SOL    HW1  722   1.871   2.022   0.896 -0.7944  0.6124  1.2001
  241SOL    HW2  723   1.866   2.086   0.737 -0.4326 -1.3614  1.3857
  242SOL     OW  724   1.301   1.735   3.028  1.0382 -0.3099 -0.4903
  242SOL    HW1  725   1.397   1.706   3.006  0.1812 -1.1700 -0.5743
  242SOL    HW2  726   1.304   1.817   3.086  3.0546 -1.7293  0.0144
  243SOL     OW  727   0.906   2.846   2.327 -0.1673 -0.2827  0.4689
  243SOL    HW1  728   0.809   2.844   2.347  1.4594  0.2044 -0.3923
  243SOL    HW2  729   0.942   2.757   2.358  0.2326  1.6784 -0.7453
  244SOL     OW  730   1.957   2.961   2.772 -0.2713 -0.6998 -0.2116
  244SOL    HW1  731   1.887   2.893   2.741 -1.2889  2.6398  0.8349
  244SOL    HW2  732   1.987   3.029   2.696  4.1077  0.6318 -3.0488
  245SOL     OW  733   1.446   2.855   0.599  0.1453 -0.3834 -0.1014
  245SOL    HW1  734   1.447   2.857   0.496  0.9451  1.7223 -2.2911
  245SOL    HW2  735   1.363   2.903   0.633 -1.4316 -0.8158 -1.9723
  246SOL     OW  736   1.048   3.101   3.112 -0.3290 -0.5382 -0.6169
  246SOL    HW1  737   1.122   3.049   3.062 -0.5326  0.2674  0.9869
  246SOL    HW2  738   1.081   0.040   0.051  1.9626  1.3126  0.2596
  247SOL     OW  739   0.077   0.545   2.121  0.0793 -0.1734  0.5319
  247SOL    HW1  740   3.112   0.523   2.090  0.9757  1.9979 -1.2692
  247SOL    HW2  741   0.144   0.553   2.041 -0.5236 -0.2800  0.0524
  248SOL     OW  742   0.807   0.924   1.937  0.0629 -0.1233 -0.4264
  248SOL    HW1  743   0.744   0.908   2.010  3.5837  0.3795  0.0353
  248SOL    HW2  744   0.899   0.959   1.972  1.5241 -0.6744  2.6573
  249SOL     OW  745   2.303   0.665   0.309 -0.2095  0.0315 -0.6578
  249SOL    HW1  746   2.224   0.599   0.305  0.7009  1.0760 -1.9999
  249SOL    HW2  747   2.332   0.685   0.215 -2.2169  0.1890  1.5173
  250SOL     OW  748   0.568   0.160   0.412  0.3157  0.6910 -0.6201
  250SOL    HW1  749   0.557   0.086   0.343  1.0534 -1.6168  2.0522
  250SOL    HW2  750   0.663   0.166   0.443 -1.7070 -1.7624  1.3414
  251SOL     OW  751   1.165   0.160   2.866  0.1906  0.1104  0.0492
  251SOL    HW1  752   1.104   0.080   2.848 -2.2060  1.1913 -0.5244
  251SOL    HW2  753   1.201   0.200   2.777  0.0239  1.6113  1.0617
  252SOL     OW  754   1.908   1.687   2.392 -0.1772  0.8935 -0.3883
  252SOL    HW1  755   1.911   1.760   2.320  1.5653  1.6476  1.9243
  252SOL    HW2  756   1.949   1.723   2.479  0.7080  2.0571 -0.0057
  253SOL     OW  757   2.325   2.341   1.978 -0.3679  0.3461 -0.1279
  253SOL    HW1  758   2.386   2.414   2.013 -0.7495 -2.5903 -0.0678
  253SOL    HW2  759   2.271   2.364   1.895 -0.1478  0.4700 -0.9209
  254SOL     OW  760   0.989   2.237   1.608  0.4527 -0.2396  0.4285
  254SOL    HW1  761   0.972   2.190   1.520  0.3702  2.4611  1.3780
  254SOL    HW2  762   1.090   2.263   1.613  0.6970 -0.8691  0.6321
  255SOL     OW  763   1.055   1.154   0.923 -0.4665  0.3362  0.1318
  255SOL    HW1  764   1.136   1.199   0.968  3.7666  2.2831 -0.5179
  255SOL    HW2  765   1.005   1.217   0.861 -1.2970 -0.5324  2.6560
  256SOL     OW  766   2.008   1.894   2.226 -0.2527  0.0942  0.5053
  256SOL    HW1  767   2.023   1.925   2.133 -0.5637 -3.1207 -0.5035
  256SOL    HW2  768   2.093   1.885   2.282 -1.5016 -0.9093  2.0083
  257SOL     OW  769   0.618   2.338   2.941  0.2797  0.1092 -0.0166
  257SOL    HW1  770   0.648   2.407   2.873 -1.6932  1.0019 -0.5095
  257SOL    HW2  771   0.525   2.361   2.975 -0.4161  0.5599  1.2457
  258SOL     OW  772   0.600   0.209   2.223 -0.0230  0.0307  0.1422
  258SOL    HW1  773   0.699   0.226   2.257  2.7802  1.6300  2.9095
  258SOL    HW2  774   0.598   0.237   2.125  0.2792  0.2226 -1.9598
  259SOL     OW  775   0.891   0.199   2.284 -0.7467  0.5676 -0.6659
  259SOL    HW1  776   0.909   0.152   2.195 -1.9195 -0.1923 -1.4564
  259SOL    HW2  777   0.926   0.294   2.287 -0.8505  0.1286  2.0703
  260SOL     OW  778   1.316   0.853   0.911  0.2681  0.2778  0.1170
  260SOL    HW1  779   1.390   0.914   0.868  2.2366  1.8624 -1.6702
  260SOL    HW2  780   1.252   0.822   0.842  2.7604 -0.1282  0.7076
  261SOL     OW  781   0.583   3.071   2.811  0.1610 -0.2920 -0.4375
  261SOL    HW1  782   0.629   3.043   2.893  1.5769  0.2228 -0.7815
  261SOL    HW2  783   0.602   0.034   2.774  1.7189  2.4512 -0.4425
  262SOL     OW  784   2.523   2.855   2.274  0.0934 -0.2346  0.4747
  262SOL    HW1  785   2.563   2.950   2.258 -2.3473 -0.4016 -0.8484
  262SOL    HW2  786   2.433   2.840   2.221  2.0751  4.2279  2.4935
  263SOL     OW  787   0.382   2.017   2.514  0.3092  0.3711 -0.4757
  263SOL    HW1  788   0.372   2.106   2.569 -2.6312  0.0238 -2.4021
  263SOL    HW2  789   0.319   1.942   2.548 -2.3574 -2.4433 -0.0197
  264SOL     OW  790   0.851   1.379   1.249  0.4104 -0.3401 -0.0629
  264SOL    HW1  791   0.895   1.468   1.274 -1.1032 -0.2967 -0.9590
  264SOL    HW2  792   0.824   1.368   1.152 -1.2513  1.3348 -0.3532
  265SOL     OW  793   0.490   1.917   3.046  0.4393 -0.1824 -0.2464
  265SOL    HW1  794   0.449   1.829   3.030  1.4914 -0.4615 -2.3895
  265SOL    HW2  795   0.561   1.905   3.117  2.7742 -1.3439  1.1830
  266SOL     OW  796   1.141   1.248   0.446 -0.2117  0.7140 -0.2065
  266SOL    HW1  797   1.227   1.276   0.490  1.6564 -2.6936 -0.4039
  266SOL    HW2  798   1.107   1.164   0.490 -1.0501  1.4274  1.1486
  267SOL     OW  799   2.651   0.986   0.150  0.6660 -0.1136  0.4717
  267SOL    HW1  800   2.730   0.976   0.090  0.1056  0.6242 -1.2490
  267SOL    HW2  801   2.643   0.896   0.194  3.3955 -1.9201 -0.7244
  268SOL     OW  802   2.469   0.035   2.806  0.1578 -0.2416 -0.5503
  268SOL    HW1  803   2.468   0.079   2.716  1.3890  0.2453  0.3443
  268SOL    HW2  804   2.426   3.071   2.806  1.2838  0.1188 -0.0626
  269SOL     OW  805   1.620   0.618   2.629  0.4259 -0.0922 -0.0524
  269SOL    HW1  806   1.564   0.690   2.583  1.3436 -1.5930  0.0710
  269SOL    HW2  807   1.708   0.604   2.582  1.7507  1.4380 -2.3373
  270SOL     OW  808   0.961   1.197   2.628 -1.0128 -0.7003  0.4164
  270SOL    HW1  809   0.875   1.234   2.659  1.6377 -0.8833  0.1697
  270SOL    HW2  810   1.042   1.251   2.662  1.0213  0.8786  1.6284
  271SOL     OW  811   2.676   1.243   0.210 -0.2275 -0.2273 -0.4820
  271SOL    HW1  812   2.662   1.148   0.184  1.3065 -1.6923 -2.3469
  271SOL    HW2  813   2.730   1.255   0.295 -0.2128  1.7959  1.5968
  272SOL     OW  814   2.742   1.601   2.816 -0.1250 -0.2048  0.2039
  272SOL    HW1  815   2.665   1.571   2.874  1.8123 -0.2341 -1.0981
  272SOL    HW2  816   2.827   1.621   2.862 -0.3940  0.8309 -0.7919
  273SOL     OW  817   2.098   0.492   0.317  0.1464  0.2790  0.1252
  273SOL    HW1  818   2.013   0.527   0.366  3.8447 -0.4411 -0.2911
  273SOL    HW2  819   2.075   0.437   0.237  0.1485  0.9182 -0.2136
  274SOL     OW  820   0.275   2.659   1.163  0.4577  0.0973  0.3664
  274SOL    HW1  821   0.325   2.574   1.137  0.5201 -0.5681  1.5287
  274SOL    HW2  822   0.268   2.675   1.263 -0.2194  0.5478 -1.2339
  275SOL     OW  823   2.448   1.493   0.635  0.4650 -0.0823 -0.4797
  275SOL    HW1  824   2.407   1.478   0.545  1.6045  0.7977  1.3555
  275SOL    HW2  825   2.489   1.588   0.643  2.3516  0.5136  2.7284
  276SOL     OW  826   0.021   1.099   2.424 -0.3411  0.5804 -0.6051
  276SOL    HW1  827   3.076   1.163   2.448  0.8291 -0.8452  0.2621
  276SOL    HW2  828   0.051   1.109   2.327  0.4162  2.2878  0.1535
  277SOL     OW  829   1.807   2.618   1.481 -0.3754 -0.5703 -0.1011
  277SOL    HW1  830   1.845   2.584   1.573  2.5521  0.4756  2.2979
  277SOL    HW2  831   1.886   2.641   1.423 -0.7740 -0.9891 -1.0513
  278SOL     OW  832   0.971   0.119   2.018  0.4549  0.7405 -0.5969
  278SOL    HW1  833   0.978   0.041   1.953  1.0567 -0.3695 -1.3957
  278SOL    HW2  834   1.060   0.132   2.068 -1.6462  1.4732  0.3480
  279SOL     OW  835   1.728   1.626   0.485 -0.4146 -0.3703 -0.0887
  279SOL    HW1  836   1.659   1.689   0.529  1.7460  2.7298  0.7657
  279SOL    HW2  837   1.803   1.633   0.552 -3.0710  0.9648  0.4202
  280SOL     OW  838   0.619   1.919   0.824 -0.5335  0.1869  0.5566
  280SOL    HW1  839   0.640   2.020   0.818  0.2951  1.3704 -1.7047
  280SOL    HW2  840   0.523   1.901   0.845  1.8402 -0.6661  1.0145
  281SOL     OW  841   2.857   0.358   2.701 -0.0568 -0.1713  0.2701
  281SOL    HW1  842   2.760   0.384   2.718 -1.7425 -0.9163 -1.7658
  281SOL    HW2  843   2.864   0.258   2.676 -0.9279 -0.3106 -0.3387
  282SOL     OW  844   0.466   1.016   0.623  0.0656  0.3913 -0.1587
  282SOL    HW1  845   0.425   0.929   0.587  0.1024  1.0708  0.0463
  282SOL    HW2  846   0.396   1.069   0.679 -2.3424 -1.6272  0.4555
  283SOL     OW  847   1.974   1.914   0.163  0.0277  0.5811  0.3310
  283SOL    HW1  848   2.053   1.974   0.154  0.0094  0.3410 -1.2723
  283SOL    HW2  849   1.907   1.955   0.228 -0.4122 -1.3865  0.5875
  284SOL     OW  850   1.243   1.152   0.209  0.2091  0.4240 -0.1109
  284SOL    HW1  851   1.185   1.187   0.285  0.3808 -0.0047 -2.1720
  284SOL    HW2  852   1.299   1.234   0.182 -0.3190  2.1029 -0.0525
  285SOL     OW  853   2.186   0.776   2.686  0.3348  0.3276  0.2153
  285SOL    HW1  854   2.196   0.841   2.760 -0.0467  0.1030 -2.1285
  285SOL    HW2  855   2.096   0.734   2.695  1.8091  2.2734 -1.2725
  286SOL     OW  856   1.524   2.653   1.434 -0.2157 -0.1655 -0.0999
  286SOL    HW1  857   1.465   2.651   1.516 -0.6472  0.4542 -0.7608
  286SOL    HW2  858   1.619   2.616   1.456 -1.7048 -0.7504 -2.1842
  287SOL     OW  859   1.286   1.295   1.034 -0.6089 -0.4210  0.1370
  287SOL    HW1  860   1.378   1.258   1.007 -0.0827  1.5184  1.2625
  287SOL    HW2  861   1.283   1.302   1.137  1.8139  2.1370 -0.6444
  288SOL     OW  862   1.216   2.915   2.994 -0.2331  0.1057  0.1425
  288SOL    HW1  863   1.311   2.914   3.030  1.6409  4.1259 -1.9545
  288SOL    HW2  864   1.204   2.921   2.893 -0.1781 -0.6394  0.6465
  289SOL     OW  865   0.308   1.443   1.878 -0.3543 -0.3565 -0.0394
  289SOL    HW1  866   0.379   1.501   1.839 -1.2006 -0.4915  0.0702
  289SOL    HW2  867   0.244   1.501   1.932 -0.7696 -0.9552 -0.6634
  290SOL     OW  868   1.789   2.341   0.948 -0.6184  0.3075  0.5052
  290SOL    HW1  869   1.791   2.250   0.899  2.0369 -0.8404 -0.6490
  290SOL    HW2  870   1.881   2.373   0.966 -4.2715 -1.2457 -1.8520
  291SOL     OW  871   2.077   2.468   2.750 -0.2249 -0.2647  0.1620
  291SOL    HW1  872   2.034   2.531   2.818 -2.4672  1.0312  3.2909
  291SOL    HW2  873   2.160   2.507   2.707 -1.9620  2.1253 -0.5083
  292SOL     OW  874   0.867   0.747   1.761 -0.2575 -0.1446 -0.3404
  292SOL    HW1  875   0.835   0.818   1.826  2.5920  1.5888  3.3501
  292SOL    HW2  876   0.956   0.775   1.724 -3.6913 -1.9990 -0.9951
  293SOL     OW  877   2.054   2.654   0.836  0.1422  0.3001 -0.1166
  293SOL    HW1  878   1.969   2.702   0.836  0.0840  2.3924  3.6005
  293SOL    HW2  879   2.130   2.702   0.788  0.0802  0.9405 -0.8667
  294SOL     OW  880   0.527   0.467   2.535 -0.0840 -0.7731 -0.1723
  294SOL    HW1  881   0.442   0.459   2.592  1.4291  1.7912 -2.8562
  294SOL    HW2  882   0.601   0.513   2.594  0.9560 -1.7417 -0.0748
  295SOL     OW  883   1.516   1.692   0.641  0.2623 -0.2012  0.1491
  295SOL    HW1  884   1.524   1.658   0.733  0.8921 -0.6805  0.0489
  295SOL    HW2  885   1.429   1.659   0.598 -0.7615 -0.1234  1.0807
  296SOL     OW  886   2.417   2.041   0.286  0.7388  0.9475 -0.7472
  296SOL    HW1  887   2.505   2.083   0.259 -3.8115 -1.0042  0.3837
  296SOL    HW2  888   2.419   1.946   0.324  0.4565  0.9594 -2.4675
  297SOL     OW  889   2.045   0.299   0.122 -0.2885 -0.1451  0.0881
  297SOL    HW1  890   2.036   0.285   0.021 -0.1877 -3.2387  1.1303
  297SOL    HW2  891   2.061   0.204   0.163  1.2209 -0.6103  0.2014
  298SOL     OW  892   1.386   2.280   2.252 -0.3505 -0.1326 -0.3638
  298SOL    HW1  893   1.464   2.234   2.208  1.3192  0.2715  1.6073
  298SOL    HW2  894   1.406   2.381   2.257 -0.1149  1.0141  1.0389
  299SOL     OW  895   1.295   2.772   2.582 -0.2632 -0.6480  0.1931
  299SOL    HW1  896   1.346   2.797   2.665  3.3982 -2.6342 -1.6121
  299SOL    HW2  897   1.352   2.702   2.531  0.8205 -0.1798 -1.3472
  300SOL     OW  898   2.015   0.014   2.579  0.3749 -0.1848 -0.1798
  300SOL    HW1  899   1.990   0.111   2.597 -0.4464 -0.7310  1.2207
  300SOL    HW2  900   2.112   0.009   2.560 -0.4288  0.9937  0.9601
  301SOL     OW  901   1.546   1.024   1.962 -0.3321 -0.2860 -0.2177
  301SOL    HW1  902   1.627   0.998   2.014  1.6343  0.2940 -0.5390
  301SOL    HW2  903   1.563   1.040   1.862 -1.0715  0.0784 -1.6966
  302SOL     OW  904   2.656   2.385   0.071  0.5509  0.1746 -0.1172
  302SOL    HW1  905   2.751   2.412   0.061 -0.9765 -1.0568  0.4460
  302SOL    HW2  906   2.600   2.464   0.094 -0.9935 -2.6543 -1.2281
  303SOL     OW  907   2.808   2.320   2.435  0.1373 -0.8120  0.1173
  303SOL    HW1  908   2.838   2.343   2.530  2.2935  0.1986 -1.0673
  303SOL    HW2  909   2.867   2.243   2.398  2.7216 -3.2478 -1.0849
  304SOL     OW  910   2.865   0.484   1.814 -0.1186 -0.1903  0.0883
  304SOL    HW1  911   2.875   0.579   1.776  0.4583 -0.3071 -1.9750
  304SOL    HW2  912   2.896   0.482   1.912  0.2954 -0.0368 -3.9460
  305SOL     OW  913   0.857   2.118   1.803 -0.1835 -0.1504  0.0017
  305SOL    HW1  914   0.925   2.180   1.751  1.4101  0.3055  0.0104
  305SOL    HW2  915   0.757   2.154   1.818 -3.2881  1.6317  2.1647
  306SOL     OW  916   2.779   0.943   1.707  0.6162 -0.8214  0.5300
  306SOL    HW1  917   2.755   0.881   1.630 -0.9006 -1.1654 -0.6492
  306SOL    HW2  918   2.744   0.905   1.791  0.7754 -0.7626 -2.3796
  307SOL     OW  919   1.780   0.961   2.108 -0.2376  0.5152 -0.9151
  307SOL    HW1  920   1.790   0.857   2.109  0.0273 -2.0281  0.7971
  307SOL    HW2  921   1.846   1.000   2.040 -1.1517 -2.4507 -0.2405
  308SOL     OW  922   2.919   1.655   1.007  0.2791 -0.1733  0.3845
  308SOL    HW1  923   2.928   1.560   0.970  2.1934  0.0406 -0.1547
  308SOL    HW2  924   2.821   1.672   1.037 -0.4365 -1.4227 -0.6168
  309SOL     OW  925   2.369   1.607   1.321 -0.5858 -0.2142  0.4391
  309SOL    HW1  926   2.432   1.561   1.384  0.6766  1.4316  0.8294
  309SOL    HW2  927   2.289   1.543   1.299 -0.5118 -0.8136  0.2125
  310SOL     OW  928   2.820   1.864   2.527  0.3168  0.6883  0.3577
  310SOL    HW1  929   2.842   1.776   2.479  1.4980 -0.1257 -1.2902
  310SOL    HW2  930   2.838   1.849   2.627 -0.0845  2.7578 -0.7350
  311SOL     OW  931   0.241   2.578   0.039 -0.3571 -0.1325  0.6811
  311SOL    HW1  932   0.166   2.646   0.047 -2.1954  1.7220  0.5765
  311SOL    HW2  933   0.212   2.492   0.087  0.8002  1.1483  0.9521
  312SOL     OW  934   2.210   1.530   0.821  0.1778 -0.4760 -0.5447
  312SOL    HW1  935   2.150   1.613   0.825  2.6530 -0.0406  1.0487
  312SOL    HW2  936   2.301   1.541   0.778  0.2575 -1.0793 -0.9505
  313SOL     OW  937   2.748   0.088   0.993  0.1440  0.2010 -0.0626
  313SOL    HW1  938   2.653   0.124   0.975  0.1657  5.4115  1.2533
  313SOL    HW2  939   2.762   3.129   0.940 -1.3307 -0.3095  0.1851
  314SOL     OW  940   1.289   1.649   0.256  0.3224  0.2454 -0.2156
  314SOL    HW1  941   1.246   1.578   0.200  0.6454 -0.1444  1.2151
  314SOL    HW2  942   1.342   1.710   0.195  0.2374 -1.4174 -0.1473
  315SOL     OW  943   1.167   2.301   1.977  0.1044 -0.2772  0.3917
  315SOL    HW1  944   1.263   2.267   1.988  0.3912 -1.0662  0.9588
  315SOL    HW2  945   1.100   2.230   1.989  1.4736  0.6939 -2.9041
  316SOL     OW  946   3.070   1.125   0.406 -0.7969 -0.1278  0.1965
  316SOL    HW1  947   3.071   1.156   0.310  1.8671 -1.3181  1.2419
  316SOL    HW2  948   0.034   1.110   0.438  1.2310  0.4236  0.1132
  317SOL     OW  949   0.819   3.066   0.362  0.2288  0.5315  0.3102
  317SOL    HW1  950   0.917   3.076   0.349  0.2608 -0.1137  1.5455
  317SOL    HW2  951   0.790   3.041   0.459  3.5940 -0.5280  1.4996
  318SOL     OW  952   2.878   2.332   0.591  0.1311  0.0132  0.4606
  318SOL    HW1  953   2.810   2.261   0.577 -0.3293  2.8069 -1.1361
  318SOL    HW2  954   2.969   2.305   0.560 -2.5409  0.6917 -0.7125
  319SOL     OW  955   0.707   1.295   2.763  0.1222  0.1416 -0.6734
  319SOL    HW1  956   0.687   1.394   2.750  0.2274  0.5779 -2.1728
  319SOL    HW2  957   0.668   1.254   2.850  0.4089 -2.5910  2.6636
  320SOL     OW  958   0.662   2.502   1.728 -0.0195  1.0701  0.7101
  320SOL    HW1  959   0.760   2.510   1.691  0.8371  0.8522  0.0016
  320SOL    HW2  960   0.632   2.594   1.756  2.0185 -1.3306 -3.0615
  321SOL     OW  961   1.554   2.271   2.964 -0.2151  0.4022  0.4648
  321SOL    HW1  962   1.616   2.258   3.044  0.6376  0.6325 -3.0236
  321SOL    HW2  963   1.602   2.245   2.876 -1.0235 -0.3605 -0.6802
  322SOL     OW  964   3.014   1.296   2.102 -0.4886 -0.1681 -0.6736
  322SOL    HW1  965   2.947   1.227   2.135 -1.3825 -0.6575  1.5406
  322SOL    HW2  966   3.022   1.296   1.998 -2.5345 -1.3239 -1.5143
  323SOL     OW  967   2.426   1.005   0.572 -1.2192 -0.9917  0.0570
  323SOL    HW1  968   2.529   1.009   0.552  0.4358  0.7410 -0.2232
  323SOL    HW2  969   2.369   0.985   0.487  2.8046  0.9704 -1.0766
  324SOL     OW  970   0.249   2.781   2.967  0.4251  0.1712 -0.2227
  324SOL    HW1  971   0.272   2.769   3.066  1.8534  1.5848  1.0306
  324SOL    HW2  972   0.184   2.712   2.932 -0.8612  1.7379 -1.9696
  325SOL     OW  973   1.447   0.242   2.368 -0.0080  0.2018  0.1094
  325SOL    HW1  974   1.529   0.295   2.329 -0.7702 -0.7010 -0.9327
  325SOL    HW2  975   1.382   0.197   2.297 -1.3351 -1.3552 -0.5097
  326SOL     OW  976   2.369   2.555   1.643  0.8780  0.3610 -0.2353
  326SOL    HW1  977   2.448   2.578   1.700 -0.1900 -0.0374 -0.4832
  326SOL    HW2  978   2.392   2.569   1.545  0.6023 -0.6843  2.3089
  327SOL     OW  979   1.861   0.512   0.035  0.7304  0.4366  0.0982
  327SOL    HW1  980   1.927   0.581   3.129 -1.0699 -2.3157 -1.2870
  327SOL    HW2  981   1.907   0.452   0.098 -1.3151  4.7653 -0.2763
  328SOL     OW  982   2.867   0.748   2.189 -0.3327 -0.2604 -0.4637
  328SOL    HW1  983   2.941   0.819   2.174 -0.6947  2.0176 -0.8146
  328SOL    HW2  984   2.830   0.766   2.280  1.4545  1.0300 -0.7864
  329SOL     OW  985   1.476   0.030   2.047  0.1088 -0.0596  0.1653
  329SOL    HW1  986   1.508   3.095   2.121 -0.2722 -0.6256 -0.1909
  329SOL    HW2  987   1.495   3.119   1.957 -0.7747  1.3432  1.8972
  330SOL     OW  988   2.839   1.866   1.400 -0.4000  0.8596  0.2021
  330SOL    HW1  989   2.934   1.828   1.412 -0.6115 -1.9838  2.3733
  330SOL    HW2  990   2.764   1.800   1.426 -0.9162  0.9408 -0.7442
  331SOL     OW  991   0.674   1.355   2.346  0.4060 -0.0584  0.3049
  331SOL    HW1  992   0.575   1.321   2.363  1.7203 -1.3564 -0.2538
  331SOL    HW2  993   0.685   1.402   2.258 -0.8755 -1.0837 -1.4193
  332SOL     OW  994   0.297   3.044   1.723  0.2737 -0.7359  0.0711
  332SOL    HW1  995   0.385   3.090   1.718  0.6170  1.1314  0.4789
  332SOL    HW2  996   0.220   3.110   1.735  3.5367 -0.2123 -1.5761
  333SOL     OW  997   2.624   2.674   1.783 -0.1824 -0.3919 -0.0517
  333SOL    HW1  998   2.671   2.586   1.804 -2.5103  1.6143 -1.2541
  333SOL    HW2  999   2.640   2.714   1.687  2.0059  0.7348 -2.3362
  334SOL     OW 1000   1.092   2.091   0.820 -0.0268  0.1631  0.3101
  334SOL    HW1 1001   1.000   2.129   0.837  0.0549  0.8391  1.3089
  334SOL    HW2 1002   1.164   2.163   0.834  0.2291 -1.0496  0.7644
  335SOL     OW 1003   0.867   2.287   3.043  0.1377 -0.2315 -0.7457
  335SOL    HW1 1004   0.782   2.303   2.988 -2.0415  2.0294 -0.0498
  335SOL    HW2 1005   0.917   2.378   3.069  2.2631  2.5365  1.3440
  336SOL     OW 1006   0.214   0.183   2.043  0.1084 -0.1502 -0.0994
  336SOL    HW1 1007   0.136   0.215   2.097  1.4535  0.7709  1.0729
  336SOL    HW2 1008   0.233   0.086   2.066 -1.7295  0.6345 -1.4048
  337SOL     OW 1009   2.889   1.906   3.014 -0.0568  0.3573  0.3327
  337SOL    HW1 1010   2.850   1.854   3.089  1.9555 -0.3385 -1.5417
  337SOL    HW2 1011   2.955   1.977   3.047  0.4591  0.6208  2.3577
  338SOL     OW 1012   1.156   1.925   1.153  0.3208  0.1081  0.4145
  338SOL    HW1 1013   1.181   2.006   1.211  1.2853  1.1864 -1.1542
  338SOL    HW2 1014   1.053   1.927   1.137 -1.6107 -1.5613 -1.7158
  339SOL     OW 1015   3.111   0.222   2.159 -0.8133 -0.0046 -0.6389
  339SOL    HW1 1016   3.062   0.273   2.087 -1.3737 -0.0623  1.4805
  339SOL    HW2 1017   3.111   0.283   2.243  0.4121  1.7817 -1.4705
  340SOL     OW 1018   1.648   2.628   0.404 -0.4557 -0.4056  0.3560
  340SOL    HW1 1019   1.612   2.567   0.334  2.2106  2.0735  0.4852
  340SOL    HW2 1020   1.665   2.574   0.489 -0.8596  0.7354  1.1243
  341SOL     OW 1021   1.874   1.591   1.092 -0.2940  0.0700  0.3498
  341SOL    HW1 1022   1.823   1.501   1.064  0.0182 -1.5824 -2.1562
  341SOL    HW2 1023   1.944   1.623   1.023  0.5059  1.8710 -2.7679
  342SOL     OW 1024   0.183   1.759   0.478 -0.3713 -0.2690 -0.2950
  342SOL    HW1 1025   0.125   1.836   0.443 -0.0303  2.8195  1.1400
  342SOL    HW2 1026   0.270   1.752   0.411  3.8360 -0.5358 -3.2149
  343SOL     OW 1027   1.477   2.489   1.170 -0.1588  0.1327 -0.4351
  343SOL    HW1 1028   1.524   2.517   1.256 -1.0835 -0.3214  1.3026
  343SOL    HW2 1029   1.440   2.392   1.182  0.2752  2.1262  1.9715
  344SOL     OW 1030   2.278   2.832   0.724 -0.0076  0.3828 -0.3060
  344SOL    HW1 1031   2.227   2.890   0.658  0.2257  0.4651 -2.3158
  344SOL    HW2 1032   2.351   2.885   0.772  2.5059  2.5966  3.3567
  345SOL     OW 1033   2.662   2.258   2.751 -0.2850 -0.8158  0.4192
  345SOL    HW1 1034   2.618   2.212   2.670 -0.7047 -2.4056  1.0611
  345SOL    HW2 1035   2.758   2.282   2.732 -0.0669  0.1899 -1.0475
  346SOL     OW 1036   0.349   1.916   0.883  0.6223  0.3675 -0.0867
  346SOL    HW1 1037   0.284   1.859   0.828 -0.2393  2.4246 -1.1685
  346SOL    HW2 1038   0.299   2.003   0.899 -0.9607  2.6908 -1.3720
  347SOL     OW 1039   2.107   2.486   1.246  0.3508  0.3929  0.2634
  347SOL    HW1 1040   2.079   2.581   1.254 -0.3671 -0.9225  0.9692
  347SOL    HW2 1041   2.079   2.450   1.151 -2.2797 -0.6851 -1.8087
  348SOL     OW 1042   1.270   1.631   2.718  0.1335  0.1330  0.0416
  348SOL    HW1 1043   1.267   1.716   2.774  0.2043  0.4074 -1.8119
  348SOL    HW2 1044   1.252   1.654   2.621 -0.6178 -1.3197 -0.4755
  349SOL     OW 1045   2.386   0.842   2.274 -0.0082 -0.2455  0.0240
  349SOL    HW1 1046   2.363   0.915   2.340  0.6565  0.8371 -1.1890
  349SOL    HW2 1047   2.359   0.865   2.176 -0.3182  0.8777 -1.7667
  350SOL     OW 1048   3.089   2.519   1.502 -0.4493 -0.7924 -0.6797
  350SOL    HW1 1049   0.041   2.574   1.506  0.2248  0.8672  0.5718
  350SOL    HW2 1050   3.033   2.533   1.422  0.3213 -0.0501  3.0658
  351SOL     OW 1051   0.562   0.323   2.893  0.5173 -0.3706 -0.3377
  351SOL    HW1 1052   0.567   0.286   2.799  0.1216 -1.1350  2.2029
  351SOL    HW2 1053   0.653   0.346   2.931 -0.9152  0.5971 -0.3638
  352SOL     OW 1054   0.523   2.553   1.381  0.1141 -0.0407 -0.2437
  352SOL    HW1 1055   0.551   2.474   1.434  1.2871  2.6581 -2.0454
  352SOL    HW2 1056   0.524   2.644   1.434 -0.4040  1.7463  0.9239
  353SOL     OW 1057   1.001   0.969   2.435  0.4747  0.1754  0.3786
  353SOL    HW1 1058   0.992   1.052   2.492  0.5945 -3.4010 -1.5462
  353SOL    HW2 1059   1.087   0.981   2.377  2.0388  1.0700  2.8009
  354SOL     OW 1060   1.566   0.969   0.512 -0.1105  0.7125 -0.3212
  354SOL    HW1 1061   1.462   0.965   0.514 -3.2915  0.4595 -1.1920
  354SOL    HW2 1062   1.606   1.008   0.423  1.6731  2.5160 -1.1119
  355SOL     OW 1063   2.675   0.419   0.463  0.8223  0.1905  0.0912
  355SOL    HW1 1064   2.695   0.335   0.403  0.3251  0.2547 -2.4019
  355SOL    HW2 1065   2.752   0.487   0.466 -2.1085 -1.2270  0.2751
  356SOL     OW 1066   2.827   0.791   2.455  0.1124 -0.5452  0.1323
  356SOL    HW1 1067   2.904   0.807   2.517  0.1435 -3.1311 -1.0737
  356SOL    HW2 1068   2.787   0.878   2.428  2.1164 -0.2282  0.2824
  357SOL     OW 1069   0.716   2.760   1.775  0.1298  0.2444  0.5218
  357SOL    HW1 1070   0.812   2.771   1.746  0.7457  0.6482  0.5447
  357SOL    HW2 1071   0.697   2.803   1.861  0.3790 -0.8154 -2.9277
  358SOL     OW 1072   2.310   1.275   2.291 -0.2542  0.4025  0.0648
  358SOL    HW1 1073   2.394   1.324   2.308 -2.0830  0.6155  0.0910
  358SOL    HW2 1074   2.230   1.323   2.335  1.9245 -2.2925 -4.0266
  359SOL     OW 1075   2.578   2.490   2.811 -0.5749  0.5124 -0.2744
  359SOL    HW1 1076   2.617   2.568   2.760 -2.0252 -1.8609 -2.3322
  359SOL    HW2 1077   2.604   2.391   2.787  0.4284 -0.8476  1.1451
  360SOL     OW 1078   2.312   0.539   0.752 -0.0451  0.7297  0.0766
  360SOL    HW1 1079   2.348   0.539   0.847 -1.6313  0.3653  0.4295
  360SOL    HW2 1080   2.374   0.598   0.700 -0.5522 -1.3184  2.1250
  361SOL     OW 1081   1.915   2.873   1.090  0.3127 -0.3150  0.5864
  361SOL    HW1 1082   1.829   2.918   1.130 -0.5264  0.2001 -1.2620
  361SOL    HW2 1083   1.891   2.853   0.996 -0.7360  0.9821  0.0150
  362SOL     OW 1084   1.369   1.336   0.566 -0.5927  0.2729 -0.4860
  362SOL    HW1 1085   1.445   1.353   0.505 -2.1089 -1.5551  3.8912
  362SOL    HW2 1086   1.413   1.318   0.656  1.5400  0.9046 -0.3059
  363SOL     OW 1087   2.872   1.633   2.387 -0.5749 -0.1292 -0.7195
  363SOL    HW1 1088   2.875   1.594   2.291 -0.7364 -2.0918  0.7867
  363SOL    HW2 1089   2.834   1.563   2.449  1.0473  0.2268  1.9224
  364SOL     OW 1090   1.133   0.700   1.162  0.0711 -1.1602 -0.3666
  364SOL    HW1 1091   1.104   0.644   1.237  1.8910  0.2451 -1.9600
  364SOL    HW2 1092   1.232   0.695   1.152 -1.0542 -2.6834 -2.1521
  365SOL     OW 1093   3.103   3.095   1.012 -0.3363  0.1842 -0.0812
  365SOL    HW1 1094   3.116   3.097   0.913  2.3200 -1.8062  0.1856
  365SOL    HW2 1095   3.086   0.062   1.040 -0.4712  0.6185  0.6382
  366SOL     OW 1096   2.819   1.243   0.424  0.2205  0.6447 -0.2015
  366SOL    HW1 1097   2.809   1.319   0.489  0.5543  0.2141 -1.9598
  366SOL    HW2 1098   2.911   1.194   0.429 -0.6785 -2.2521  0.0441
  367SOL     OW 1099   3.091   2.094   3.045 -0.6251  0.1574  0.3182
  367SOL    HW1 1100   3.051   2.186   3.042 -1.5013  0.4797 -3.0867
  367SOL    HW2 1101   0.056   2.088   3.081  0.1193  0.9590  2.1237
  368SOL     OW 1102   0.006   2.404   1.023 -0.6141 -0.4380  0.6667
  368SOL    HW1 1103   0.021   2.481   1.084 -1.0389 -0.3474  0.8515
  368SOL    HW2 1104   3.094   2.439   0.937  0.7595  3.6477  0.1306
  369SOL     OW 1105   0.417   0.398   0.420  0.5001  0.3181 -0.9287
  369SOL    HW1 1106   0.355   0.355   0.497 -2.7371 -2.9253  2.7891
  369SOL    HW2 1107   0.495   0.337   0.409  0.4250  2.8001  0.9361
  370SOL     OW 1108   0.218   0.997   1.656  0.2096 -0.3594 -0.0162
  370SOL    HW1 1109   0.237   1.098   1.659 -2.9673 -0.4095 -1.3884
  370SOL    HW2 1110   0.161   0.984   1.571  0.0962  3.2454 -0.4046
  371SOL     OW 1111   2.214   2.195   0.915 -0.3155 -0.1156 -0.3469
  371SOL    HW1 1112   2.211   2.183   1.019  0.2188 -1.4726  3.4411
  371SOL    HW2 1113   2.208   2.098   0.879  0.5570 -0.5378  0.2160
  372SOL     OW 1114   3.010   0.882   2.620 -0.1323  0.7009 -0.7036
  372SOL    HW1 1115   3.018   0.820   2.703  1.5737  0.9536  0.2922
  372SOL    HW2 1116   3.100   0.926   2.595  1.2514 -1.0225 -1.2057
  373SOL     OW 1117   2.808   1.495   0.547 -0.4142 -0.4209 -0.3729
  373SOL    HW1 1118   2.820   1.578   0.490 -0.5405 -1.4048 -1.9241
  373SOL    HW2 1119   2.730   1.501   0.610 -0.3534  0.0289 -1.1701
  374SOL     OW 1120   0.526   2.332   0.171 -0.6743  0.1197 -0.2409
  374SOL    HW1 1121   0.609   2.396   0.175  1.2584  0.8927 -0.9766
  374SOL    HW2 1122   0.466   2.348   0.087 -0.7794  3.8840 -0.9885
  375SOL     OW 1123   0.828   0.254   0.228 -0.0230 -0.0093  0.3308
  375SOL    HW1 1124   0.916   0.292   0.190  0.3298  0.1710 -0.9350
  375SOL    HW2 1125   0.756   0.263   0.158 -0.5037 -0.1536 -0.6821
  376SOL     OW 1126   0.259   3.055   2.073  0.3891 -0.2463 -0.2022
  376SOL    HW1 1127   0.244   2.998   1.989 -2.2118 -2.6807  0.6336
  376SOL    HW2 1128   0.205   3.017   2.150  0.2415  0.6751 -3.0229
  377SOL     OW 1129   0.914   2.014   2.294 -0.6540 -0.0185  0.5745
  377SOL    HW1 1130   0.860   2.094   2.328 -0.6759  0.7348  0.3747
  377SOL    HW2 1131   0.944   2.026   2.197 -0.3369 -0.4474 -2.4002
  378SOL     OW 1132   1.055   1.016   0.537  0.0669 -0.4709  0.4663
  378SOL    HW1 1133   1.064   0.976   0.632  2.0057 -1.1554 -0.7639
  378SOL    HW2 1134   0.962   1.003   0.499  1.6767  0.0481 -1.9894
  379SOL     OW 1135   1.085   1.581   3.006  0.3460  0.0539 -0.0274
  379SOL    HW1 1136   1.079   1.542   3.098  1.0650  2.0500 -3.7976
  379SOL    HW2 1137   1.168   1.640   3.002 -2.9289  0.4680 -1.4594
  380SOL     OW 1138   0.057   1.899   1.838 -0.1015 -0.2245 -0.3576
  380SOL    HW1 1139   3.089   1.892   1.869 -1.0646 -1.1129  0.6458
  380SOL    HW2 1140   0.085   1.995   1.809 -0.2344  1.6455 -0.0578
  381SOL     OW 1141   3.016   0.993   1.845  0.2593 -0.0744 -0.2131
  381SOL    HW1 1142   3.084   0.925   1.809 -0.7364 -1.2272 -0.3421
  381SOL    HW2 1143   2.927   0.966   1.815  2.0458  0.0002 -0.0639
  382SOL     OW 1144   2.471   2.277   3.027 -0.4802  0.1916 -0.1690
  382SOL    HW1 1145   2.515   2.258   2.937 -0.4049 -1.3628 -2.3248
  382SOL    HW2 1146   2.535   2.312   3.093 -1.7053  0.3284 -1.0653
  383SOL     OW 1147   2.374   1.968   2.202 -0.7237  0.2914  0.6428
  383SOL    HW1 1148   2.420   1.965   2.294  1.5782  2.6890 -2.0238
  383SOL    HW2 1149   2.300   2.034   2.195 -0.2255 -1.7014  1.9382
  384SOL     OW 1150   0.774   2.441   2.062 -0.0418 -0.4478 -0.0430
  384SOL    HW1 1151   0.732   2.363   2.020 -0.0070  0.5616  2.5409
  384SOL    HW2 1152   0.709   2.498   2.111 -1.1370  0.9671 -0.8967
  385SOL     OW 1153   2.679   2.024   0.952 -0.0447 -0.3647  0.0703
  385SOL    HW1 1154   2.672   2.126   0.923  0.2776  1.7274 -2.1675
  385SOL    HW2 1155   2.663   2.005   1.054  0.9606 -0.9100  2.6927
  386SOL     OW 1156   1.741   0.750   2.872  0.0414 -0.0254  0.0470
  386SOL    HW1 1157   1.662   0.698   2.843  2.4718  2.5354 -1.3089
  386SOL    HW2 1158   1.742   0.751   2.975 -0.0156 -2.8156  2.0594
  387SOL     OW 1159   0.243   0.595   1.895  0.1528 -0.1664  0.1918
  387SOL    HW1 1160   0.316   0.667   1.878  1.0513  3.0280  0.3549
  387SOL    HW2 1161   0.267   0.508   1.852 -1.1382  0.4380 -3.6552
  388SOL     OW 1162   2.772   1.190   1.606 -0.3575 -0.4203  0.0739
  388SOL    HW1 1163   2.777   1.093   1.637  1.4252  1.4828  1.3178
  388SOL    HW2 1164   2.848   1.216   1.545 -0.4881  1.2065 -2.2580
  389SOL     OW 1165   1.724   0.952   2.381 -0.1340  0.1026  0.3812
  389SOL    HW1 1166   1.805   0.987   2.433  0.0291  2.4106  1.1862
  389SOL    HW2 1167   1.716   0.994   2.287 -3.2004 -0.6804  2.4162
  390SOL     OW 1168   2.062   2.276   0.489 -0.5657 -0.8214  0.4324
  390SOL    HW1 1169   2.162   2.267   0.495 -1.4501  0.5910 -0.8528
  390SOL    HW2 1170   2.024   2.353   0.551 -1.0747 -0.1335  2.5202
  391SOL     OW 1171   1.832   2.850   0.824 -0.3895 -0.3454  0.0221
  391SOL    HW1 1172   1.859   2.900   0.739  2.0521 -1.9544  0.9654
  391SOL    HW2 1173   1.739   2.812   0.813 -3.1311  2.5480 -0.4029
  392SOL     OW 1174   2.705   2.819   1.568  0.3138 -0.1147 -0.2525
  392SOL    HW1 1175   2.693   2.900   1.512  1.2184 -0.8989  1.0457
  392SOL    HW2 1176   2.803   2.818   1.606  0.3231 -2.1996 -0.1540
  393SOL     OW 1177   1.899   1.710   2.908  0.4282 -0.2638  0.0604
  393SOL    HW1 1178   1.821   1.773   2.924 -2.1076  0.2315  3.6913
  393SOL    HW2 1179   1.964   1.702   2.990  3.9011  0.5639  1.0012
  394SOL     OW 1180   0.471   2.810   2.808  0.2496  0.1880 -0.3978
  394SOL    HW1 1181   0.482   2.908   2.792 -1.9126 -1.1687  1.2652
  394SOL    HW2 1182   0.382   2.797   2.859 -1.9579 -1.3738  2.2375
  395SOL     OW 1183   1.126   1.543   1.036 -0.0665 -0.0687  0.4605
  395SOL    HW1 1184   1.061   1.563   0.957 -2.0789  1.5673 -0.9604
  395SOL    HW2 1185   1.154   1.447   1.033  0.0551  2.4667  3.3128
  396SOL     OW 1186   2.109   0.944   2.922  0.4770 -0.1797  0.2578
  396SOL    HW1 1187   2.012   0.930   2.891  2.1907 -2.7545 -1.5792
  396SOL    HW2 1188   2.125   0.886   3.005 -0.9145  0.4475  2.3473
  397SOL     OW 1189   0.162   0.647   2.580  0.0246 -0.2623 -0.3681
  397SOL    HW1 1190   0.069   0.611   2.559  0.2818  1.9424  0.7590
  397SOL    HW2 1191   0.155   0.749   2.567  1.2489 -0.4976 -1.1342
  398SOL     OW 1192   1.076   0.657   0.425 -0.4225  0.3907  0.4465
  398SOL    HW1 1193   1.111   0.592   0.353 -1.0497 -0.0635  2.0328
  398SOL    HW2 1194   0.980   0.676   0.412 -1.4018  1.5324 -1.6207
  399SOL     OW 1195   1.844   0.107   1.738  0.3810 -0.2639 -0.0889
  399SOL    HW1 1196   1.758   0.121   1.686  0.9013  1.5296  0.7806
  399SOL    HW2 1197   1.843   0.024   1.799  1.2276 -0.2643 -2.2059
  400SOL     OW 1198   0.046   1.999   2.386 -0.1661 -0.1052 -0.2296
  400SOL    HW1 1199   0.088   2.013   2.295 -1.6630 -0.8464 -1.1110
  400SOL    HW2 1200   0.033   1.898   2.394 -0.9309  0.7448  0.8488
  401SOL     OW 1201   0.644   3.127   0.174 -0.0178 -0.4143 -0.4785
  401SOL    HW1 1202   0.622   0.093   0.144 -2.1289 -0.6082 -0.6805
  401SOL    HW2 1203   0.716   3.126   0.248  0.0835  1.2877  1.2780
  402SOL     OW 1204   0.241   2.514   1.533  0.2144 -0.3189  0.5301
  402SOL    HW1 1205   0.275   2.424   1.499  1.4870  1.2524  1.8719
  402SOL    HW2 1206   0.239   2.508   1.637  1.2023  0.0552  1.4463
  403SOL     OW 1207   0.192   1.457   1.170 -0.0848  0.2302  0.5144
  403SOL    HW1 1208   0.099   1.416   1.165  0.4017 -0.5514 -1.5424
  403SOL    HW2 1209   0.193   1.547   1.218 -2.3165 -1.1327  0.4980
  404SOL     OW 1210   0.073   2.791   1.916 -0.2747 -0.1935  0.2029
  404SOL    HW1 1211   3.116   2.753   1.958  1.3461 -5.3621 -0.5037
  404SOL    HW2 1212   0.064   2.889   1.887 -1.6770 -1.7270 -2.1478
  405SOL     OW 1213   2.815   0.319   2.248  0.1881 -0.5181 -0.2031
  405SOL    HW1 1214   2.729   0.374   2.250  2.5467  0.5424  0.8035
  405SOL    HW2 1215   2.824   0.254   2.325 -3.0798  1.4999  1.7384
  406SOL     OW 1216   2.034   2.476   0.124 -0.3991 -0.4330  0.1667
  406SOL    HW1 1217   1.997   2.386   0.144  2.0822 -0.9299 -0.4649
  406SOL    HW2 1218   2.037   2.522   0.212  0.7111 -4.3034  1.2890
  407SOL     OW 1219   2.020   1.734   0.885  0.2578  0.4120  0.0731
  407SOL    HW1 1220   1.995   1.814   0.940  0.2921 -1.2647  0.7891
  407SOL    HW2 1221   1.990   1.741   0.787 -2.4402  1.2444 -1.5287
  408SOL     OW 1222   0.389   0.228   2.450 -0.3084 -0.1053 -0.5690
  408SOL    HW1 1223   0.436   0.313   2.483  0.1263  0.7689 -1.0442
  408SOL    HW2 1224   0.423   0.198   2.361  0.1643 -1.6484 -1.2672
  409SOL     OW 1225   2.801   1.792   0.812 -0.2916 -0.6119 -0.0601
  409SOL    HW1 1226   2.832   1.724   0.880 -0.2752 -1.3262  0.3275
  409SOL    HW2 1227   2.766   1.876   0.858  0.9615  0.0747 -2.8970
  410SOL     OW 1228   2.292   1.374   1.043  0.3711  0.0761 -0.0394
  410SOL    HW1 1229   2.292   1.426   0.956  0.1732 -0.0923  0.1171
  410SOL    HW2 1230   2.236   1.424   1.115  0.4530  0.6284  1.4889
  411SOL     OW 1231   0.067   0.783   0.270  0.1654  0.0371 -0.1493
  411SOL    HW1 1232   0.118   0.706   0.313  0.7244 -0.4964  0.8969
  411SOL    HW2 1233   0.009   0.826   0.340  0.6422 -2.1639  0.7583
  412SOL     OW 1234   1.506   0.538   0.356  0.0052 -0.2060  0.2835
  412SOL    HW1 1235   1.509   0.584   0.266  0.7010 -1.7278  2.1556
  412SOL    HW2 1236   1.528   0.598   0.435  0.3193 -0.0051  1.7263
  413SOL     OW 1237   0.777   0.975   1.306 -0.2199 -0.7829  1.0139
  413SOL    HW1 1238   0.682   0.976   1.329  0.2480  1.6627 -0.6036
  413SOL    HW2 1239   0.801   1.024   1.220 -1.1569  1.3177 -1.6672
  414SOL     OW 1240   0.037   1.206   2.920 -0.3479 -0.4167  0.1131
  414SOL    HW1 1241   0.028   1.273   2.843  1.7979 -1.3848  2.9916
  414SOL    HW2 1242   0.138   1.221   2.943  1.2488  0.8860 -0.2683
  415SOL     OW 1243   0.408   1.663   3.017 -0.1694 -0.1600 -0.5700
  415SOL    HW1 1244   0.485   1.600   3.043  0.2712  1.0094  2.9925
  415SOL    HW2 1245   0.379   1.635   2.925 -2.6154 -0.0322 -1.1912
  416SOL     OW 1246   1.317   0.902   0.224 -0.7611 -0.5565 -0.2682
  416SOL    HW1 1247   1.325   0.872   0.321 -0.2401  1.0952 -1.4043
  416SOL    HW2 1248   1.284   0.995   0.211 -0.7356  1.7824 -1.3656
  417SOL     OW 1249   0.083   0.664   1.058  0.1617  0.3019 -0.3696
  417SOL    HW1 1250   0.177   0.693   1.034 -0.3250  1.0183  1.0162
  417SOL    HW2 1251   0.036   0.638   0.976  1.9979  2.6792 -0.7510
  418SOL     OW 1252   2.277   1.064   2.713 -0.5712 -0.3249  0.3895
  418SOL    HW1 1253   2.209   1.040   2.781  1.7421  2.0143 -3.0168
  418SOL    HW2 1254   2.376   1.068   2.747  1.5084  0.5431 -1.5492
  419SOL     OW 1255   0.521   0.634   0.362 -0.5840 -0.1361 -0.0299
  419SOL    HW1 1256   0.574   0.666   0.444  0.3608 -0.0770 -0.5588
  419SOL    HW2 1257   0.481   0.542   0.387 -0.8039 -1.1466  1.2662
  420SOL     OW 1258   0.593   1.516   0.989  0.0352  0.1927  0.0472
  420SOL    HW1 1259   0.535   1.463   1.056 -2.1713 -0.2325  0.4859
  420SOL    HW2 1260   0.546   1.542   0.905 -3.3408 -1.0687  1.0821
  421SOL     OW 1261   0.218   2.100   0.218  0.4300 -0.2781  0.0094
  421SOL    HW1 1262   0.260   2.091   0.121  4.9867 -0.2956 -1.3616
  421SOL    HW2 1263   0.301   2.089   0.277 -0.1034  1.8291 -0.1794
  422SOL     OW 1264   2.468   0.247   1.521 -0.4177 -0.5255 -0.7460
  422SOL    HW1 1265   2.463   0.248   1.423  1.6213  1.0058  1.8435
  422SOL    HW2 1266   2.550   0.307   1.558  0.8371  0.4374  0.0254
  423SOL     OW 1267   2.006   1.322   0.824  0.6220 -0.5101 -0.2381
  423SOL    HW1 1268   2.073   1.398   0.821 -2.2246  0.0056  0.2069
  423SOL    HW2 1269   2.031   1.259   0.901  1.1898  0.4398  0.5563
  424SOL     OW 1270   1.822   1.372   0.066  0.0115  0.3132  1.0416
  424SOL    HW1 1271   1.902   1.420   0.023  2.3803  3.6337 -2.6290
  424SOL    HW2 1272   1.854   1.274   0.073 -0.2057  1.7522 -0.8850
  425SOL     OW 1273   0.189   2.915   2.329  0.4031  0.2149  0.4906
  425SOL    HW1 1274   0.142   2.827   2.357  0.1961  0.5350  3.6540
  425SOL    HW2 1275   0.132   2.995   2.353 -0.8947 -0.6620 -1.2647
  426SOL     OW 1276   2.651   2.761   2.673  0.0166 -0.2209 -0.2159
  426SOL    HW1 1277   2.610   2.856   2.670 -1.3439  2.2694 -0.0207
  426SOL    HW2 1278   2.658   2.723   2.575 -0.9343 -0.0738 -4.3412
  427SOL     OW 1279   0.709   0.778   2.158 -0.4317 -0.3488  0.0968
  427SOL    HW1 1280   0.653   0.704   2.199 -2.1518 -2.5886 -1.9596
  427SOL    HW2 1281   0.706   0.862   2.220 -0.7371  0.4247  2.7742
  428SOL     OW 1282   2.088   0.779   2.302  0.1698  0.3448 -0.5945
  428SOL    HW1 1283   2.188   0.776   2.277 -2.7102  1.5456 -0.2443
  428SOL    HW2 1284   2.063   0.876   2.311  1.2549 -0.4894  0.6459
  429SOL     OW 1285   2.500   0.174   0.366  0.3695  0.0111  0.6178
  429SOL    HW1 1286   2.570   0.102   0.370  0.2831 -2.1460  0.6885
  429SOL    HW2 1287   2.505   0.226   0.279 -1.9332 -0.1167 -1.1330
  430SOL     OW 1288   1.739   1.225   2.159 -0.5324  0.3749 -0.4038
  430SOL    HW1 1289   1.764   1.132   2.127  0.0932  0.8029  0.8099
  430SOL    HW2 1290   1.660   1.258   2.098 -0.7933 -0.4543 -0.8310
  431SOL     OW 1291   2.886   2.139   1.412 -0.1419  0.5276 -0.0310
  431SOL    HW1 1292   2.851   2.041   1.411 -0.0340  0.7561 -0.4544
  431SOL    HW2 1293   2.873   2.175   1.316  2.2916 -2.8328 -1.3598
  432SOL     OW 1294   1.175   2.648   1.794 -0.3575 -0.5785  0.0895
  432SOL    HW1 1295   1.123   2.734   1.784  1.9147 -1.0184 -1.0454
  432SOL    HW2 1296   1.113   2.571   1.791 -0.3568  3.1876 -0.8065
  433SOL     OW 1297   1.682   2.999   1.192 -0.1527 -0.5319 -0.2435
  433SOL    HW1 1298   1.639   3.046   1.116  0.2955  1.8275 -0.5258
  433SOL    HW2 1299   1.612   2.935   1.226  1.9777  1.8964 -2.0880
  434SOL     OW 1300   0.193   2.400   2.249 -0.0525 -0.8584 -0.0834
  434SOL    HW1 1301   0.215   2.477   2.183 -1.4371  2.4000 -0.5594
  434SOL    HW2 1302   0.268   2.334   2.264  0.5682 -1.3150  1.3401
  435SOL     OW 1303   0.237   1.625   0.094  0.2990  0.1070  0.4841
  435SOL    HW1 1304   0.142   1.609   0.057 -0.0719  0.8546  0.4269
  435SOL    HW2 1305   0.300   1.653   0.019  1.8068  1.5083 -0.2899
  436SOL     OW 1306   0.690   1.121   1.787 -0.0888 -0.1956  0.1203
  436SOL    HW1 1307   0.686   1.214   1.822 -0.2780  0.5605 -1.5358
  436SOL    HW2 1308   0.708   1.057   1.866 -1.8382 -0.6644 -0.3467
  437SOL     OW 1309   1.049   0.737   2.971  0.3758  0.1507 -0.0971
  437SOL    HW1 1310   1.072   0.707   3.067 -2.6691 -1.3939  1.6021
  437SOL    HW2 1311   1.080   0.671   2.901  0.0602  1.7173 -0.4652
  438SOL     OW 1312   0.534   2.056   1.567 -0.0209 -0.4846 -0.5106
  438SOL    HW1 1313   0.461   2.037   1.496 -0.5143 -1.9475  0.3255
  438SOL    HW2 1314   0.590   1.970   1.589  1.8535  0.5342 -3.2556
  439SOL     OW 1315   2.098   1.723   3.103 -0.7091  0.4384  0.2417
  439SOL    HW1 1316   2.091   1.623   3.121  0.8949 -1.7064  3.5175
  439SOL    HW2 1317   2.056   1.773   0.051  0.4688 -1.1530 -0.7094
  440SOL     OW 1318   1.498   0.575   0.780 -0.1559  0.0273 -0.7501
  440SOL    HW1 1319   1.493   0.479   0.806  0.3427  1.7074  1.3132
  440SOL    HW2 1320   1.409   0.613   0.750  1.6402  0.8286 -0.0938
  441SOL     OW 1321   0.527   2.768   1.564  0.2553 -0.0750  0.4049
  441SOL    HW1 1322   0.615   2.779   1.609 -0.6910  0.5180  0.5254
  441SOL    HW2 1323   0.456   2.726   1.625 -0.4147 -1.5545 -1.3971
  442SOL     OW 1324   2.392   2.350   0.793 -0.1512 -0.1522 -0.0753
  442SOL    HW1 1325   2.320   2.303   0.846 -0.4313  2.1377  1.8484
  442SOL    HW2 1326   2.359   2.440   0.754 -1.8701  0.8977 -2.1769
  443SOL     OW 1327   2.646   0.991   2.394 -0.3997 -0.0097  0.4997
  443SOL    HW1 1328   2.552   1.022   2.415  0.4441  0.9259 -2.2295
  443SOL    HW2 1329   2.712   1.065   2.386  0.5031 -0.7017 -0.2351
  444SOL     OW 1330   1.512   0.777   2.425  0.6134 -0.0646  0.1440
  444SOL    HW1 1331   1.582   0.847   2.402 -0.0467  1.2190 -0.6168
  444SOL    HW2 1332   1.526   0.697   2.366  1.4110  1.7743 -1.0041
  445SOL     OW 1333   2.749   2.399   1.795 -0.5706  0.0835 -0.1248
  445SOL    HW1 1334   2.728   2.336   1.717  1.3248  0.6233  2.1927
  445SOL    HW2 1335   2.731   2.357   1.884  0.8068 -0.8862  0.3320
  446SOL     OW 1336   0.121   1.489   0.422  0.0924 -0.1944 -0.2047
  446SOL    HW1 1337   0.142   1.589   0.443  0.1731 -0.7466  1.7392
  446SOL    HW2 1338   0.086   1.470   0.329 -0.3491 -2.9985  0.6307
  447SOL     OW 1339   0.910   2.397   1.129 -0.0213  0.1365 -0.4326
  447SOL    HW1 1340   0.884   2.483   1.181 -2.9410  1.3363 -0.8847
  447SOL    HW2 1341   0.995   2.408   1.071 -1.2656  0.2130  1.7806
  448SOL     OW 1342   1.749   1.509   1.673  0.4535  0.0384  0.4124
  448SOL    HW1 1343   1.812   1.505   1.750 -0.4612  0.4044 -0.1358
  448SOL    HW2 1344   1.773   1.438   1.602  0.8830  0.8683  2.5350
  449SOL     OW 1345   0.756   1.860   2.830  0.0414  0.3476  0.2220
  449SOL    HW1 1346   0.793   1.918   2.903 -1.4068  0.9927 -1.8610
  449SOL    HW2 1347   0.755   1.764   2.856 -0.6318  2.3527 -0.5595
  450SOL     OW 1348   3.129   1.739   2.435 -0.7293 -0.0536  0.5543
  450SOL    HW1 1349   0.066   1.694   2.373 -0.6062 -1.9387 -1.9832
  450SOL    HW2 1350   3.034   1.706   2.415 -0.5819  1.1758 -2.0161
  451SOL     OW 1351   2.002   0.389   1.524 -0.2338 -0.0856  0.0519
  451SOL    HW1 1352   1.926   0.339   1.477 -0.2039 -0.5983 -0.3707
  451SOL    HW2 1353   1.973   0.482   1.551  1.9908 -0.5521  0.8259
  452SOL     OW 1354   0.988   2.639   1.422  0.0173  0.2715  0.2568
  452SOL    HW1 1355   1.053   2.561   1.394  1.5964 -1.6477 -0.5190
  452SOL    HW2 1356   0.909   2.644   1.356 -2.2082  0.8851 -1.6215
  453SOL     OW 1357   1.160   1.830   0.843  0.3217  0.0510  0.2176
  453SOL    HW1 1358   1.179   1.794   0.939  0.5494  0.6455 -0.5538
  453SOL    HW2 1359   1.150   1.934   0.837  0.6312  1.7902 -2.7276
  454SOL     OW 1360   3.118   1.125   0.699 -0.4081  0.1839 -0.3579
  454SOL    HW1 1361   0.070   1.116   0.638  0.1585 -1.4667 -1.7582
  454SOL    HW2 1362   3.073   1.214   0.671 -0.8188  0.0691  0.2803
  455SOL     OW 1363   0.641   1.175   0.517 -0.1080 -0.1833  0.8551
  455SOL    HW1 1364   0.606   1.223   0.432 -0.0594 -0.3087  0.8078
  455SOL    HW2 1365   0.568   1.117   0.559 -2.5752 -1.4340  0.2068
  456SOL     OW 1366   2.069   2.424   0.995 -0.1837  0.0811 -0.3488
  456SOL    HW1 1367   2.125   2.359   0.945 -2.2719 -0.0332 -0.1806
  456SOL    HW2 1368   2.089   2.515   0.955  2.0665  0.0892 -3.1174
  457SOL     OW 1369   1.439   2.584   0.023  0.3187 -0.0122 -0.0089
  457SOL    HW1 1370   1.358   2.636   0.064 -2.8172  1.7473  0.1517
  457SOL    HW2 1371   1.411   2.530   3.072 -0.8333 -1.0496 -0.2458
  458SOL     OW 1372   2.829   0.108   2.997  0.2161 -0.5015  0.4867
  458SOL    HW1 1373   2.769   0.078   2.919 -1.5300  0.5237  0.6267
  458SOL    HW2 1374   2.924   0.068   2.991 -0.9854  2.5063  2.7114
  459SOL     OW 1375   2.115   0.126   1.735  0.5919  0.0290  0.2817
  459SOL    HW1 1376   2.148   0.061   1.664 -0.8491 -0.5087  1.5297
  459SOL    HW2 1377   2.018   0.146   1.720  0.3172 -0.9900  1.3431
  460SOL     OW 1378   2.827   0.378   3.064  0.2577  0.7553  0.4067
  460SOL    HW1 1379   2.910   0.408   3.018  2.1531  1.1571  2.9552
  460SOL    HW2 1380   2.821   0.278   3.058 -1.6977 -2.4446  0.2135
  461SOL     OW 1381   0.004   2.169   1.141 -0.3986 -0.4907 -0.0759
  461SOL    HW1 1382   0.008   2.095   1.071  0.0168 -0.5541 -0.3780
  461SOL    HW2 1383   3.126   2.264   1.099  1.3508  3.8854 -0.5040
  462SOL     OW 1384   0.034   3.077   0.719 -0.1064 -0.1682 -0.8093
  462SOL    HW1 1385   0.008   3.105   0.627 -2.4505 -0.7553  1.2304
  462SOL    HW2 1386   0.118   3.124   0.752  0.9845  0.9228  3.7939
  463SOL     OW 1387   2.334   1.359   3.018  0.8923  0.0246 -0.4212
  463SOL    HW1 1388   2.353   1.292   3.090 -1.6708 -0.0643  0.7183
  463SOL    HW2 1389   2.340   1.315   2.926 -0.7431 -0.8382 -1.5820
  464SOL     OW 1390   0.799   3.075   1.247 -0.0322  0.1394 -0.1447
  464SOL    HW1 1391   0.733   3.046   1.320  0.2695 -1.2128  0.4723
  464SOL    HW2 1392   0.843   2.990   1.212 -2.0891  1.0229  1.3967
  465SOL     OW 1393   1.006   0.648   0.911  0.0306  0.0472  0.6051
  465SOL    HW1 1394   1.033   0.697   0.992 -0.5455 -3.1366 -0.4418
  465SOL    HW2 1395   0.922   0.596   0.926  0.2968  2.4112 -1.1889
  466SOL     OW 1396   1.476   2.313   1.979  0.0612  0.5883 -0.2974
  466SOL    HW1 1397   1.472   2.411   2.000 -1.7715  1.9669  2.1598
  466SOL    HW2 1398   1.531   2.261   2.044 -0.7002  1.8239 -0.8918
  467SOL     OW 1399   0.664   2.864   2.037 -0.6151 -0.3665  0.1322
  467SOL    HW1 1400   0.657   2.960   2.072 -0.8860  0.3055  1.0938
  467SOL    HW2 1401   0.756   2.825   2.056  1.2206  1.5435  2.1257
  468SOL     OW 1402   0.117   1.234   2.210  0.2447 -0.2587  0.2044
  468SOL    HW1 1403   0.021   1.273   2.189 -0.7605 -0.8787 -1.0526
  468SOL    HW2 1404   0.165   1.296   2.276  0.5218  0.7473  0.7055
  469SOL     OW 1405   1.249   2.337   0.575  0.0056  0.4847  0.3604
  469SOL    HW1 1406   1.150   2.341   0.547  0.0716  1.0349 -0.6029
  469SOL    HW2 1407   1.265   2.355   0.673  0.6693  0.4644  3.5501
  470SOL     OW 1408   2.095   1.065   2.312  0.1273 -0.2288 -0.0909
  470SOL    HW1 1409   2.156   1.147   2.320 -1.1670  3.4723 -2.6352
  470SOL    HW2 1410   2.046   1.059   2.401 -0.7113  0.1003  1.4257
  471SOL     OW 1411   0.975   2.512   0.064 -0.0826 -0.0588 -0.0519
  471SOL    HW1 1412   1.038   2.491   0.141  2.3517  3.6633 -2.0907
  471SOL    HW2 1413   0.988   2.609   0.034 -0.8828 -0.2536 -1.7390
  472SOL     OW 1414   3.088   2.538   2.252  0.0761 -0.0764 -0.9062
  472SOL    HW1 1415   0.026   2.467   2.234 -1.9097  0.1093  0.2580
  472SOL    HW2 1416   3.123   2.599   2.327 -2.4939  0.1522 -0.7680
  473SOL     OW 1417   0.817   0.089   3.081 -0.0251  0.3255  0.0896
  473SOL    HW1 1418   0.908   0.041   3.075 -1.5827  0.3496 -1.6208
  473SOL    HW2 1419   0.757   0.045   0.021 -1.4935 -1.7697 -1.2687
  474SOL     OW 1420   1.836   0.371   0.739 -0.0209  0.1765  0.1811
  474SOL    HW1 1421   1.816   0.333   0.649 -0.5601 -1.1155  3.0546
  474SOL    HW2 1422   1.936   0.377   0.749 -0.3859  2.6854  0.3579
  475SOL     OW 1423   1.496   0.294   1.432  0.3370 -0.6868  0.0763
  475SOL    HW1 1424   1.395   0.289   1.433  0.3866 -0.9381 -0.3334
  475SOL    HW2 1425   1.540   0.280   1.345 -1.6055  3.1591  1.2465
  476SOL     OW 1426   0.041   1.039   1.073  0.3077  0.1780  0.3082
  476SOL    HW1 1427   0.011   1.085   1.158  0.9809  0.4847 -2.1066
  476SOL    HW2 1428   0.128   1.071   1.027  0.0521  0.8886  2.9950
  477SOL     OW 1429   1.171   2.003   0.580 -0.0135  0.1900 -0.0287
  477SOL    HW1 1430   1.122   1.918   0.569  2.3768  1.6585 -1.6725
  477SOL    HW2 1431   1.148   2.046   0.664  1.6038  1.6067 -2.8187
  478SOL     OW 1432   0.228   2.613   2.653  0.3003 -0.1430  0.0015
  478SOL    HW1 1433   0.284   2.532   2.671  0.4581 -2.0502 -0.9684
  478SOL    HW2 1434   0.287   2.678   2.603 -0.7768 -1.2267  2.5513
  479SOL     OW 1435   2.923   0.392   1.275  0.0977 -0.0216  0.4806
  479SOL    HW1 1436   2.838   0.438   1.299  0.0621  0.4794 -3.1597
  479SOL    HW2 1437   2.985   0.383   1.356 -0.6406  1.2024  1.3959
  480SOL     OW 1438   2.922   2.467   0.025 -0.0219 -0.6599 -0.2293
  480SOL    HW1 1439   3.006   2.417   3.113  1.0195  2.3714  1.2544
  480SOL    HW2 1440   2.944   2.490   0.124  0.8667 -1.8504 -2.3418
  481SOL     OW 1441   2.438   2.111   1.679  0.1660  0.6413 -0.0754
  481SOL    HW1 1442   2.516   2.159   1.634  0.9734 -0.7036 -0.4263
  481SOL    HW2 1443   2.450   2.098   1.782  1.1257 -0.2586  1.1712
  482SOL     OW 1444   1.673   1.867   2.486 -0.0371 -0.0178 -0.2768
  482SOL    HW1 1445   1.628   1.799   2.424  0.3799 -2.2193 -0.3637
  482SOL    HW2 1446   1.618   1.888   2.570 -0.9777  0.1006  3.1947
  483SOL     OW 1447   0.920   1.672   1.681 -0.1702  0.5018 -0.6267
  483SOL    HW1 1448   1.011   1.717   1.673  1.9638  1.0397  0.0974
  483SOL    HW2 1449   0.921   1.572   1.724 -0.1282 -1.8970  0.7979
  484SOL     OW 1450   0.413   0.552   1.519 -0.0375 -0.0371  0.0064
  484SOL    HW1 1451   0.343   0.493   1.560 -0.7903 -0.7516 -0.2153
  484SOL    HW2 1452   0.466   0.602   1.589 -0.0190  2.8676 -0.5895
  485SOL     OW 1453   2.435   1.127   0.032  0.1154  0.6441 -0.6528
  485SOL    HW1 1454   2.428   1.085   3.071 -1.0274 -0.7013  2.0588
  485SOL    HW2 1455   2.510   1.089   0.087 -0.8040  3.2971 -0.4790
  486SOL     OW 1456   1.170   0.101   1.696  0.1107 -0.0092 -0.3030
  486SOL    HW1 1457   1.181   0.106   1.593  2.7835 -0.7303  0.8843
  486SOL    HW2 1458   1.172   0.194   1.732  0.6003 -1.0233  0.0959
  487SOL     OW 1459   0.610   2.336   1.520  0.2815  0.3177  0.1090
  487SOL    HW1 1460   0.657   2.397   1.592  1.8128  1.6020  2.7690
  487SOL    HW2 1461   0.572   2.247   1.556 -0.2514  2.1654  3.0142
  488SOL     OW 1462   2.622   2.000   2.895  0.2850 -0.1881 -0.3236
  488SOL    HW1 1463   2.617   2.080   2.831 -2.8494 -0.0818 -0.8531
  488SOL    HW2 1464   2.718   1.962   2.906 -0.6464 -1.0457 -1.1039
  489SOL     OW 1465   2.129   2.992   0.575 -0.4105  0.1590  0.4211
  489SOL    HW1 1466   2.034   2.969   0.548 -0.5381  0.0081  1.2751
  489SOL    HW2 1467   2.182   3.053   0.509  1.4091  1.4114 -0.2335
  490SOL     OW 1468   1.349   2.449   2.948  0.1929  0.1762  0.1124
  490SOL    HW1 1469   1.299   2.436   2.863  0.6460  0.3556 -1.8819
  490SOL    HW2 1470   1.425   2.381   2.943 -2.7537  0.7867  0.5318
  491SOL     OW 1471   0.713   1.384   1.856 -0.5524  0.1465 -0.0981
  491SOL    HW1 1472   0.652   1.443   1.801 -0.0434 -1.4583  2.0283
  491SOL    HW2 1473   0.805   1.375   1.813 -0.9089 -1.3546 -0.7056
  492SOL     OW 1474   1.228   0.776   1.845  0.0126  0.9519  0.0897
  492SOL    HW1 1475   1.164   0.824   1.776 -1.5672 -2.4777 -0.6731
  492SOL    HW2 1476   1.228   0.813   1.936  2.4154 -1.4878 -1.2175
  493SOL     OW 1477   2.275   1.812   0.943 -0.4243  0.2698  0.3362
  493SOL    HW1 1478   2.185   1.782   0.919 -1.0357  0.9598 -0.3719
  493SOL    HW2 1479   2.286   1.803   1.046  0.0205  3.3639  1.9546
  494SOL     OW 1480   0.744   1.751   0.995 -0.5240  0.0735  0.7268
  494SOL    HW1 1481   0.699   1.662   1.006  0.1271  2.4051 -0.2715
  494SOL    HW2 1482   0.691   1.804   0.925  0.2938 -2.6074  2.5351
  495SOL     OW 1483   2.342   2.507   0.379 -0.2372 -0.1174  0.1282
  495SOL    HW1 1484   2.388   2.527   0.290 -1.8670  1.3342 -2.6711
  495SOL    HW2 1485   2.339   2.404   0.398  0.3367 -0.0552  1.9298
  496SOL     OW 1486   2.633   3.023   1.425 -0.0289 -0.1528  0.8159
  496SOL    HW1 1487   2.671   3.114   1.391  0.5360  3.3851 -1.0578
  496SOL    HW2 1488   2.547   3.035   1.474  4.0256 -0.9419 -2.2711
  497SOL     OW 1489   2.370   1.067   2.449  0.4591 -0.5132 -0.4531
  497SOL    HW1 1490   2.348   1.153   2.396  0.4843 -0.2711  0.0713
  497SOL    HW2 1491   2.315   1.073   2.539 -1.0859 -0.3386  0.7774
  498SOL     OW 1492   3.105   2.243   1.523  0.1568  0.9124  0.3776
  498SOL    HW1 1493   3.016   2.192   1.494 -1.5494 -0.7850  0.3972
  498SOL    HW2 1494   3.099   2.343   1.523 -2.8223  0.2944 -1.2363
  499SOL     OW 1495   1.027   2.511   2.082  0.5835 -0.6293 -0.0768
  499SOL    HW1 1496   0.934   2.466   2.073  0.2993 -1.8927  0.2794
  499SOL    HW2 1497   1.091   2.442   2.046 -0.6448  0.9750 -1.3196
  500SOL     OW 1498   0.761   2.157   0.142  0.0604 -0.0233  0.3308
  500SOL    HW1 1499   0.815   2.200   0.067  1.3969 -0.5325  2.0364
  500SOL    HW2 1500   0.664   2.183   0.130  0.3504 -0.6001 -2.7027
  501SOL     OW 1501   1.787   3.118   1.416  0.3059  0.0846 -0.1640
  501SOL    HW1 1502   1.739   3.071   1.339 -1.6300 -0.9611  2.3914
  501SOL    HW2 1503   1.797   3.034   1.480  1.6673 -0.2984 -0.3294
  502SOL     OW 1504   2.641   0.392   1.650 -0.7161  0.4350  0.2817
  502SOL    HW1 1505   2.577   0.466   1.672  1.6685 -0.8443  0.8570
  502SOL    HW2 1506   2.731   0.419   1.690 -0.4186  1.4237  3.0892
  503SOL     OW 1507   2.654   1.324   2.036 -0.2742  0.1027 -0.0745
  503SOL    HW1 1508   2.616   1.415   2.062 -0.4443  2.9172  1.8194
  503SOL    HW2 1509   2.700   1.324   1.944 -0.8231  0.7677 -0.7346
  504SOL     OW 1510   1.545   0.837   1.440 -0.1973  0.3976  0.2709
  504SOL    HW1 1511   1.619   0.778   1.401 -0.3823  0.7503 -1.6961
  504SOL    HW2 1512   1.546   0.929   1.399 -1.6472 -2.2240 -1.3488
  505SOL     OW 1513   0.635   0.217   1.739  0.2643  0.1557 -0.1364
  505SOL    HW1 1514   0.709   0.146   1.746  1.8764 -1.8890 -1.2481
  505SOL    HW2 1515   0.580   0.203   1.655  2.4120  1.3981  0.0836
  506SOL     OW 1516   0.333   0.306   0.179 -0.3358 -0.0645 -0.1024
  506SOL    HW1 1517   0.363   0.377   0.112  0.5511 -2.8317  1.9740
  506SOL    HW2 1518   0.339   0.336   0.276 -0.0645  2.8113 -0.6829
  507SOL     OW 1519   2.437   0.020   0.058  0.7450 -0.2985 -0.1697
  507SOL    HW1 1520   2.500   3.105   3.118  1.6945  2.2775 -1.9326
  507SOL    HW2 1521   2.365   3.088   0.090 -0.9156  0.1959  1.4483
  508SOL     OW 1522   1.233   0.423   2.024 -0.0126 -0.1452  0.0098
  508SOL    HW1 1523   1.164   0.417   1.953  0.9857  1.4300  3.4219
  508SOL    HW2 1524   1.289   0.509   2.006  2.0911  0.6422  0.7771
  509SOL     OW 1525   1.749   1.849   1.122 -0.3989 -0.6844  0.2658
  509SOL    HW1 1526   1.661   1.878   1.088  1.4414  1.8985  0.7487
  509SOL    HW2 1527   1.775   1.757   1.094  0.3865 -1.2339  1.1649
  510SOL     OW 1528   2.533   1.200   1.490  0.0508 -0.7026 -0.3772
  510SOL    HW1 1529   2.623   1.182   1.539  0.6824 -1.7956 -0.8767
  510SOL    HW2 1530   2.505   1.127   1.423  1.3945 -2.7249 -0.6331
  511SOL     OW 1531   1.678   1.879   1.399 -0.1749  0.4211  0.1438
  511SOL    HW1 1532   1.703   1.871   1.305 -0.3912  0.8326  1.1561
  511SOL    HW2 1533   1.638   1.970   1.415 -1.1208 -0.2539  1.1758
  512SOL     OW 1534   3.044   1.378   0.636  0.4323  0.3686  0.2874
  512SOL    HW1 1535   0.006   1.403   0.600 -2.4603  2.6340  1.5738
  512SOL    HW2 1536   2.971   1.448   0.610 -2.3425 -2.7110 -0.5527
  513SOL     OW 1537   3.095   1.597   0.021  0.2828 -0.3699 -0.3425
  513SOL    HW1 1538   3.079   1.616   3.054 -0.4581  0.4983  2.3058
  513SOL    HW2 1539   3.049   1.506   0.038  0.3758 -1.2031  1.6434
  514SOL     OW 1540   2.901   2.063   2.360  0.2687  0.5377 -0.2013
  514SOL    HW1 1541   3.003   2.057   2.361  0.2281 -2.7001  1.1076
  514SOL    HW2 1542   2.856   1.994   2.429  0.1514 -1.7393  2.6001
  515SOL     OW 1543   2.202   0.845   0.756  0.1396  0.5702  0.2105
  515SOL    HW1 1544   2.243   0.856   0.849 -0.6329  2.7617  1.5633
  515SOL    HW2 1545   2.245   0.901   0.683 -0.5665 -0.9148 -4.6902
  516SOL     OW 1546   2.233   2.996   0.111  0.1531 -0.0089  0.0886
  516SOL    HW1 1547   2.258   2.918   0.176 -1.8208 -0.9320  2.2452
  516SOL    HW2 1548   2.188   2.959   0.031 -0.7151  1.5292 -0.1682
  517SOL     OW 1549   1.076   2.004   2.596  0.3650 -0.0588  0.0012
  517SOL    HW1 1550   1.110   2.079   2.539 -1.1867 -0.0218  0.1918
  517SOL    HW2 1551   1.073   1.917   2.543  0.5012  0.3303  0.8555
  518SOL     OW 1552   0.137   0.227   2.542  0.4250  0.3028 -0.2218
  518SOL    HW1 1553   0.228   0.219   2.497 -0.5249 -1.8892  2.2897
  518SOL    HW2 1554   0.074   0.281   2.483 -1.4591  1.1966  0.2428
  519SOL     OW 1555   0.630   1.474   3.012  0.2865  0.1349 -0.3984
  519SOL    HW1 1556   0.715   1.522   2.983 -0.8143 -1.6746 -1.3131
  519SOL    HW2 1557   0.659   1.396   3.070 -1.4859  1.1100  0.5154
  520SOL     OW 1558   2.912   2.050   2.090 -0.0277  0.4413 -0.0648
  520SOL    HW1 1559   2.894   2.061   2.191  0.0915  2.2297 -1.9410
  520SOL    HW2 1560   2.987   2.112   2.062 -0.6829  1.4474 -0.2461
  521SOL     OW 1561   0.787   2.239   2.421 -0.0253  0.1158  0.0374
  521SOL    HW1 1562   0.777   2.199   2.517  1.6325  0.0429  0.9214
  521SOL    HW2 1563   0.725   2.315   2.415  4.3243 -2.1710  0.3995
  522SOL     OW 1564   1.652   2.692   1.962 -0.2711 -0.3709 -0.2237
  522SOL    HW1 1565   1.713   2.745   2.027 -0.0558  0.8043  0.0809
  522SOL    HW2 1566   1.658   2.737   1.870 -3.5286  0.8779  3.4442
  523SOL     OW 1567   2.101   1.764   1.902  0.0403  0.4770  0.3918
  523SOL    HW1 1568   2.173   1.719   1.957  0.4449  0.1472 -0.6903
  523SOL    HW2 1569   2.079   1.854   1.940 -1.7326 -1.6375 -1.2601
  524SOL     OW 1570   0.646   2.638   0.489 -0.6359  0.3916  0.0235
  524SOL    HW1 1571   0.571   2.659   0.421  1.7499  2.8150  0.9864
  524SOL    HW2 1572   0.735   2.671   0.454 -0.3206 -0.2603  0.4453
  525SOL     OW 1573   0.208   0.590   0.384  0.0434  0.3088 -0.0405
  525SOL    HW1 1574   0.295   0.546   0.364 -2.6435  1.0040 -1.6300
  525SOL    HW2 1575   0.153   0.526   0.441 -0.7285 -0.0206  3.2375
  526SOL     OW 1576   0.753   2.994   0.633  0.0416  0.4705 -0.5447
  526SOL    HW1 1577   0.681   2.932   0.665 -1.0158 -1.9613 -1.5765
  526SOL    HW2 1578   0.751   3.083   0.680  0.4937 -0.5330 -1.1818
  527SOL     OW 1579   2.136   1.754   1.205  0.3189 -0.2507  0.1563
  527SOL    HW1 1580   2.059   1.692   1.197  1.5266  1.9352  0.0190
  527SOL    HW2 1581   2.215   1.702   1.249 -1.6220 -0.6347  1.1745
  528SOL     OW 1582   2.901   2.586   2.546 -0.0180  0.2587 -0.0446
  528SOL    HW1 1583   2.879   2.533   2.466 -0.9773  2.8462 -1.1216
  528SOL    HW2 1584   2.975   2.654   2.518 -0.3775 -0.0830  0.6395
  529SOL     OW 1585   1.534   1.753   2.296  0.2197 -0.1183  0.8999
  529SOL    HW1 1586   1.467   1.811   2.250  0.6129 -3.8451 -0.9298
  529SOL    HW2 1587   1.592   1.692   2.234  1.8178 -3.0511 -0.8629
  530SOL     OW 1588   1.576   1.384   3.089 -0.2125 -0.1728  0.7518
  530SOL    HW1 1589   1.670   1.386   0.001  1.1650 -0.8463 -0.2462
  530SOL    HW2 1590   1.560   1.300   3.033  1.0238  3.3521 -0.7200
  531SOL     OW 1591   0.391   0.980   2.936  0.2762 -0.3349 -0.4405
  531SOL    HW1 1592   0.317   0.912   2.948 -0.6654 -1.8366 -0.1155
  531SOL    HW2 1593   0.468   0.971   3.004  0.6891  0.9769  1.1235
  532SOL     OW 1594   1.804   1.285   0.388 -0.3104 -0.2893 -0.0436
  532SOL    HW1 1595   1.804   1.278   0.492  0.5119  0.4744  0.3680
  532SOL    HW2 1596   1.900   1.305   0.360  0.8838 -2.3293  1.2854
  533SOL     OW 1597   0.602   0.162   2.655  0.5870 -0.1111  0.4017
  533SOL    HW1 1598   0.567   0.130   2.564  1.0063 -4.1436 -2.3553
  533SOL    HW2 1599   0.692   0.213   2.648  1.6029  0.3377  0.5817
  534SOL     OW 1600   0.986   2.804   3.033  0.1056 -0.3315 -0.2168
  534SOL    HW1 1601   0.935   2.866   3.098 -1.9385  1.4811 -0.4431
  534SOL    HW2 1602   1.085   2.829   3.025  2.2420 -1.1996 -1.8698
  535SOL     OW 1603   0.153   0.099   0.165  0.7396  0.2449  0.4655
  535SOL    HW1 1604   0.186   0.006   0.183 -1.0363  1.7394  1.8944
  535SOL    HW2 1605   0.225   0.172   0.173  2.1553 -2.0148 -0.9178
  536SOL     OW 1606   3.028   0.974   2.127 -0.0315 -0.0369  0.3466
  536SOL    HW1 1607   3.043   0.988   2.029 -1.4821  2.9114 -3.3408
  536SOL    HW2 1608   3.113   0.957   2.178 -2.0480  1.1505 -0.5366
  537SOL     OW 1609   1.226   0.116   1.420  0.3377 -0.2057  0.3300
  537SOL    HW1 1610   1.301   0.058   1.380 -0.0692 -1.3075 -3.3466
  537SOL    HW2 1611   1.202   0.198   1.362  0.5604  0.9980 -0.2820
  538SOL     OW 1612   0.399   1.717   0.307  0.1194  0.4616 -0.3865
  538SOL    HW1 1613   0.335   1.681   0.235  0.5159  1.7001 -0.5666
  538SOL    HW2 1614   0.495   1.704   0.280 -0.9632 -0.7396 -1.4236
  539SOL     OW 1615   2.582   1.062   2.072  0.1096 -0.7888  0.6260
  539SOL    HW1 1616   2.492   1.042   2.115  1.3562  1.1097 -1.7458
  539SOL    HW2 1617   2.585   1.160   2.040  1.3448 -1.6942 -1.3049
  540SOL     OW 1618   1.945   1.392   2.112 -0.4106 -0.3172  0.5187
  540SOL    HW1 1619   1.857   1.342   2.126 -1.4406 -0.5774 -0.8122
  540SOL    HW2 1620   1.997   1.394   2.200  0.7788  2.0958  1.2716
  541SOL     OW 1621   0.963   1.388   1.764 -0.0512  0.6900  0.4154
  541SOL    HW1 1622   1.017   1.309   1.799 -0.9852  1.3777  0.0080
  541SOL    HW2 1623   0.955   1.379   1.660 -1.4999  0.0833 -1.6139
  542SOL     OW 1624   1.686   0.350   2.276 -0.1653  0.2794 -0.9834
  542SOL    HW1 1625   1.765   0.330   2.341 -1.5931  0.5236  1.7944
  542SOL    HW2 1626   1.714   0.327   2.182 -1.0972  0.4844  0.2868
  543SOL     OW 1627   0.820   0.293   0.490 -0.7838 -0.0291 -0.0217
  543SOL    HW1 1628   0.910   0.298   0.531 -1.2577  0.1282  2.7088
  543SOL    HW2 1629   0.825   0.273   0.388  0.9217  0.9959 -1.7880
  544SOL     OW 1630   2.568   1.921   2.406  0.2853 -0.2646  0.4537
  544SOL    HW1 1631   2.563   1.832   2.449  1.5730 -0.2095  0.9061
  544SOL    HW2 1632   2.670   1.945   2.402  2.2912  1.0657  0.1132
  545SOL     OW 1633   2.025   2.011   1.991 -0.2425 -0.1433  0.0497
  545SOL    HW1 1634   2.101   2.079   2.014  0.3119  3.1939 -2.4026
  545SOL    HW2 1635   1.967   2.048   1.918  0.4255  3.7492  0.9506
  546SOL     OW 1636   0.399   3.094   0.060 -0.4091  0.1581  0.1326
  546SOL    HW1 1637   0.494   3.083   0.100  0.9682  1.9175  0.1840
  546SOL    HW2 1638   0.328   3.043   0.111  0.0341  1.6435  0.7721
  547SOL     OW 1639   1.895   0.861   0.223  0.0469  0.4603 -0.5625
  547SOL    HW1 1640   1.919   0.805   0.304  0.7296 -0.7319  2.1362
  547SOL    HW2 1641   1.870   0.954   0.245  1.0830 -2.7718 -0.4783
  548SOL     OW 1642   2.272   1.744   2.660  0.8361 -0.9348  0.0358
  548SOL    HW1 1643   2.269   1.789   2.752  1.8517 -0.0763  1.8139
  548SOL    HW2 1644   2.369   1.725   2.634  0.9931  2.9225  0.2403
  549SOL     OW 1645   2.104   0.363   0.724  0.2880  0.3445 -0.0417
  549SOL    HW1 1646   2.102   0.363   0.624 -0.8505 -0.5031  2.6310
  549SOL    HW2 1647   2.198   0.386   0.760 -0.0696 -1.4771  0.8725
  550SOL     OW 1648   2.537   2.137   0.665  0.0409 -0.0517 -0.5950
  550SOL    HW1 1649   2.503   2.048   0.702 -3.1991 -2.6946 -0.1469
  550SOL    HW2 1650   2.473   2.213   0.696 -1.1390  0.6783 -1.7854
  551SOL     OW 1651   0.908   3.076   1.659  0.2479  0.1523 -0.2234
  551SOL    HW1 1652   0.993   3.129   1.680 -0.1244 -1.5149 -1.2181
  551SOL    HW2 1653   0.854   3.125   1.585 -2.6396 -0.3332 -4.0020
  552SOL     OW 1654   2.926   2.315   2.698 -0.0513 -0.1362  0.2713
  552SOL    HW1 1655   2.951   2.407   2.741 -2.2695  0.2611 -1.0599
  552SOL    HW2 1656   3.005   2.254   2.699 -0.5394  3.7659 -0.1404
  553SOL     OW 1657   0.219   2.904   0.496  0.5268  0.5109 -0.1255
  553SOL    HW1 1658   0.210   2.999   0.525  0.9578  0.8034 -1.3737
  553SOL    HW2 1659   0.248   2.850   0.579 -0.4886 -1.7035 -0.8719
  554SOL     OW 1660   2.160   2.409   1.728 -0.3884 -0.6376 -0.0351
  554SOL    HW1 1661   2.148   2.310   1.703  1.3226  0.1067  1.0354
  554SOL    HW2 1662   2.252   2.445   1.691  0.4543  1.0928 -0.8058
  555SOL     OW 1663   1.010   2.044   2.024  0.3869 -0.2776 -0.5247
  555SOL    HW1 1664   0.947   2.065   1.950  0.9283 -2.1531  1.2491
  555SOL    HW2 1665   1.078   1.983   1.988  0.7764 -0.1387 -0.0363
  556SOL     OW 1666   1.538   1.627   1.274  0.2410  0.4828 -0.2641
  556SOL    HW1 1667   1.457   1.658   1.226  2.1158  0.6935  1.6692
  556SOL    HW2 1668   1.563   1.678   1.360  2.9077  0.4291  0.0381
  557SOL     OW 1669   2.200   2.174   2.148 -0.1535  0.1039 -0.7981
  557SOL    HW1 1670   2.248   2.252   2.104  3.7676 -1.2204  1.1956
  557SOL    HW2 1671   2.168   2.202   2.246 -0.3841  0.0264  4.8170
  558SOL     OW 1672   0.535   3.075   2.188 -0.0809  0.2616 -0.0135
  558SOL    HW1 1673   0.434   3.072   2.192 -2.3718 -2.3187 -0.1157
  558SOL    HW2 1674   0.575   0.033   2.212 -0.8663 -3.3992  0.2345
  559SOL     OW 1675   2.261   2.824   1.350 -0.1969 -0.2795 -0.0228
  559SOL    HW1 1676   2.292   2.858   1.443 -1.4518  0.8743 -0.1972
  559SOL    HW2 1677   2.282   2.893   1.270 -3.8162  1.6770 -0.8434
  560SOL     OW 1678   0.991   2.406   0.491 -0.4385  0.1071  0.2692
  560SOL    HW1 1679   0.952   2.499   0.470 -0.7944  1.6307  1.3036
  560SOL    HW2 1680   0.915   2.337   0.501  0.9497 -0.9635 -3.0698
  561SOL     OW 1681   1.006   0.424   0.129 -0.2396 -0.2105 -0.3858
  561SOL    HW1 1682   1.069   0.484   0.075 -0.1469 -0.3682  0.8343
  561SOL    HW2 1683   0.932   0.482   0.167  0.4251  1.1146 -2.7271
  562SOL     OW 1684   0.785   0.348   3.059  0.8547 -0.3973 -0.6467
  562SOL    HW1 1685   0.790   0.246   3.061 -0.2583 -0.4399 -0.9376
  562SOL    HW2 1686   0.881   0.392   3.061 -1.0222 -0.7605  3.2796
  563SOL     OW 1687   1.608   1.863   2.768 -0.0773 -0.3614 -0.3604
  563SOL    HW1 1688   1.663   1.925   2.831 -0.3662  3.7578  2.0343
  563SOL    HW2 1689   1.518   1.901   2.742  0.1573 -3.2175  1.5998
  564SOL     OW 1690   2.763   1.146   0.911 -0.3577 -0.1497 -0.4872
  564SOL    HW1 1691   2.739   1.072   0.842  1.3967 -0.0794 -0.0774
  564SOL    HW2 1692   2.735   1.236   0.871  1.3024  1.0215 -0.1958
  565SOL     OW 1693   1.051   0.372   2.978 -0.1484  0.2834  0.6974
  565SOL    HW1 1694   1.094   0.279   2.953  1.6626  1.1340 -2.5246
  565SOL    HW2 1695   1.101   0.446   2.920  1.3302  1.3652 -0.3335
  566SOL     OW 1696   1.233   0.166   2.097 -0.0562 -0.7457  0.5556
  566SOL    HW1 1697   1.234   0.261   2.062 -1.0470 -2.3245  0.8243
  566SOL    HW2 1698   1.325   0.128   2.085 -1.5061  0.2784  0.8709
  567SOL     OW 1699   2.407   1.221   0.748  0.4280 -1.0094 -0.4549
  567SOL    HW1 1700   2.417   1.148   0.684 -1.2084  0.8462  0.1163
  567SOL    HW2 1701   2.375   1.311   0.708  1.3070  0.4962  1.1743
  568SOL     OW 1702   1.944   1.746   0.617 -0.3903 -0.0585  0.2666
  568SOL    HW1 1703   2.006   1.739   0.534  0.6995  0.0513 -1.9200
  568SOL    HW2 1704   1.896   1.839   0.616 -0.9924  0.6165  1.2839
  569SOL     OW 1705   2.085   1.458   3.058 -0.0823 -0.9827 -0.2940
  569SOL    HW1 1706   2.042   1.446   2.971 -0.0763  1.8390  1.6367
  569SOL    HW2 1707   2.182   1.428   3.054 -2.1831 -1.9243  0.3266
  570SOL     OW 1708   0.312   2.756   1.736 -0.1544 -0.4316  0.0807
  570SOL    HW1 1709   0.216   2.737   1.768  2.4217  1.4388  2.1112
  570SOL    HW2 1710   0.324   2.859   1.719  0.7240  2.9254 -1.0755
  571SOL     OW 1711   0.016   0.411   2.357  0.1980  0.1960  0.0690
  571SOL    HW1 1712   0.047   0.473   2.277  2.7738  1.8643 -1.2618
  571SOL    HW2 1713   3.083   0.470   2.420  0.9142  0.1870  1.9267
  572SOL     OW 1714   0.955   1.656   0.855  0.2320  0.2044 -0.8550
  572SOL    HW1 1715   0.881   1.682   0.922  1.1716  3.0646 -0.3418
  572SOL    HW2 1716   1.019   1.740   0.850  3.4231  0.3528 -0.2353
  573SOL     OW 1717   1.355   2.288   0.339 -0.0369  0.0490  0.1140
  573SOL    HW1 1718   1.437   2.340   0.308  1.3762  0.6502  0.3675
  573SOL    HW2 1719   1.321   2.328   0.429 -0.1027  1.7779  1.3406
  574SOL     OW 1720   0.981   0.211   0.856  0.3785  0.6572  0.1654
  574SOL    HW1 1721   1.027   0.139   0.916 -0.9704  0.9333  0.2549
  574SOL    HW2 1722   0.913   0.171   0.792 -0.5578  1.2610  1.2640
  575SOL     OW 1723   3.040   1.140   1.281  0.4368  0.4618  0.4598
  575SOL    HW1 1724   2.939   1.115   1.283 -1.9101 -0.6779  0.1880
  575SOL    HW2 1725   3.057   1.187   1.370 -1.6319 -0.0637  1.4903
  576SOL     OW 1726   1.608   0.106   1.570 -0.1874 -0.7086  0.2930
  576SOL    HW1 1727   1.553   0.187   1.534 -1.0492  2.2163  4.8174
  576SOL    HW2 1728   1.669   0.061   1.498 -1.3330 -0.3834 -1.5262
  577SOL     OW 1729   0.297   0.942   2.029 -0.2109 -0.0488  0.1965
  577SOL    HW1 1730   0.225   0.929   2.101 -1.0886  1.0189 -0.3948
  577SOL    HW2 1731   0.336   1.032   2.044  1.3037 -0.9412 -1.5716
  578SOL     OW 1732   1.947   0.287   2.683  0.1301  0.3138  0.2151
  578SOL    HW1 1733   2.015   0.338   2.741  0.4568  1.4152  2.1039
  578SOL    HW2 1734   1.855   0.283   2.728 -1.6469  0.9197 -1.1230
  579SOL     OW 1735   2.372   1.767   2.031 -0.1292 -0.0642 -0.4951
  579SOL    HW1 1736   2.390   1.791   1.934 -1.4816 -1.0134  0.4934
  579SOL    HW2 1737   2.399   1.842   2.095 -0.8645 -0.7266 -0.6470
  580SOL     OW 1738   1.951   1.220   2.887  0.6581  0.6865  0.0227
  580SOL    HW1 1739   1.927   1.293   2.825  2.2803 -3.1601  1.8765
  580SOL    HW2 1740   1.913   1.130   2.854 -0.6371 -0.4726  0.0107
  581SOL     OW 1741   1.500   1.180   2.917 -0.7316  0.4110 -0.1472
  581SOL    HW1 1742   1.431   1.111   2.954  0.6312 -0.9763 -2.5242
  581SOL    HW2 1743   1.479   1.198   2.820 -1.5637  1.5296  0.5404
  582SOL     OW 1744   0.883   1.880   1.437 -0.1643 -0.2171  0.1047
  582SOL    HW1 1745   0.812   1.861   1.508 -0.8532 -0.7633 -0.6227
  582SOL    HW2 1746   0.974   1.859   1.476 -1.0513 -0.8112  1.8568
  583SOL     OW 1747   1.560   1.129   1.352 -0.2472 -0.1798 -0.2308
  583SOL    HW1 1748   1.507   1.078   1.280 -1.4205  1.2670  1.2762
  583SOL    HW2 1749   1.593   1.216   1.323  2.6872 -0.6884  1.9783
  584SOL     OW 1750   1.956   2.478   0.623 -0.1269 -0.3715 -0.2588
  584SOL    HW1 1751   1.862   2.445   0.640 -1.0936 -2.4555 -1.8858
  584SOL    HW2 1752   1.994   2.522   0.708  1.6286 -0.8751  0.7228
  585SOL     OW 1753   2.111   2.828   2.945 -0.5661  0.1635  0.5210
  585SOL    HW1 1754   2.052   2.880   2.879 -0.0216 -1.2318 -0.4276
  585SOL    HW2 1755   2.065   2.742   2.972  1.9802  0.1223 -0.5327
  586SOL     OW 1756   2.900   2.256   0.888  0.1080  0.0827 -0.9928
  586SOL    HW1 1757   2.933   2.296   0.801 -1.3096 -3.3215  1.4951
  586SOL    HW2 1758   2.798   2.276   0.894  1.2024  1.6014  1.3553
  587SOL     OW 1759   1.048   1.847   0.071  0.5792 -0.0977 -0.5835
  587SOL    HW1 1760   1.144   1.880   0.067  0.3355  2.5606 -0.1425
  587SOL    HW2 1761   1.019   1.806   3.112  0.0411  1.4107 -0.3415
  588SOL     OW 1762   0.688   0.065   1.029 -0.0074  0.2542 -0.7175
  588SOL    HW1 1763   0.723   0.016   1.114 -0.5817 -0.3311  0.8711
  588SOL    HW2 1764   0.641   0.156   1.058  2.4783  1.6101  0.8584
  589SOL     OW 1765   1.273   0.611   0.626  0.1419  0.1083 -0.0173
  589SOL    HW1 1766   1.231   0.530   0.671  0.9263  0.5076 -1.9537
  589SOL    HW2 1767   1.213   0.645   0.557 -0.5770  2.9192  1.0615
  590SOL     OW 1768   1.985   2.602   3.006  0.0612 -0.7385  0.4956
  590SOL    HW1 1769   2.010   2.562   3.099 -1.8130 -2.4402  0.0665
  590SOL    HW2 1770   1.891   2.572   2.987 -1.3800  0.6502  1.2282
  591SOL     OW 1771   0.468   2.431   2.639 -0.2767  0.2316  0.0983
  591SOL    HW1 1772   0.533   2.480   2.704  2.4764  4.0208  1.5177
  591SOL    HW2 1773   0.509   2.408   2.549  0.6745  0.7526 -1.1614
  592SOL     OW 1774   2.912   1.534   2.109 -0.1503  0.0844  0.3627
  592SOL    HW1 1775   2.944   1.437   2.115  1.3872 -0.1213  2.7756
  592SOL    HW2 1776   2.835   1.542   2.041 -0.3912 -3.1120 -1.3897
  593SOL     OW 1777   1.862   1.379   1.443 -0.2222 -0.2278 -0.9587
  593SOL    HW1 1778   1.849   1.278   1.465 -1.5630 -2.1267 -1.1284
  593SOL    HW2 1779   1.799   1.412   1.369 -0.6072  1.6037  0.9650
  594SOL     OW 1780   2.668   1.211   2.847 -0.4821 -0.1306  0.2048
  594SOL    HW1 1781   2.693   1.253   2.937  1.7715 -0.8171  0.0889
  594SOL    HW2 1782   2.754   1.168   2.800  2.6985 -0.1029 -1.1617
  595SOL     OW 1783   0.794   0.970   0.438  0.1964 -0.0680  0.1701
  595SOL    HW1 1784   0.728   1.046   0.468 -2.4906  1.1479  0.8193
  595SOL    HW2 1785   0.798   0.967   0.335  2.9342 -1.9982 -4.2089
  596SOL     OW 1786   2.934   1.542   1.328 -0.3919 -0.0490  0.2037
  596SOL    HW1 1787   2.982   1.497   1.248 -1.1631  0.2184 -1.6357
  596SOL    HW2 1788   3.001   1.609   1.365  2.4920 -2.1957  1.4939
  597SOL     OW 1789   0.924   2.134   1.340 -0.4916  0.4167 -0.6725
  597SOL    HW1 1790   0.832   2.163   1.308 -1.0906 -0.6686  1.4009
  597SOL    HW2 1791   0.936   2.033   1.355  2.0155 -0.1844  0.9056
  598SOL     OW 1792   2.680   2.732   2.084 -0.4096  0.3344  0.5574
  598SOL    HW1 1793   2.690   2.794   2.006 -1.3551 -0.6386 -2.4760
  598SOL    HW2 1794   2.631   2.769   2.166 -0.2938  0.9006  1.0355
  599SOL     OW 1795   0.329   1.397   2.750 -1.2590  0.2837  0.1138
  599SOL    HW1 1796   0.333   1.497   2.742  2.0517  1.1320  0.1698
  599SOL    HW2 1797   0.350   1.354   2.660  1.0119  1.4104  1.7863
  600SOL     OW 1798   0.600   0.914   3.068 -0.4530  0.3886  0.4925
  600SOL    HW1 1799   0.672   0.865   3.013  0.1580 -2.3339 -0.6741
  600SOL    HW2 1800   0.564   0.859   0.012 -0.5967 -2.8682 -0.0896
  601SOL     OW 1801   0.619   0.713   1.664  0.2281  0.3026  0.3229
  601SOL    HW1 1802   0.700   0.699   1.728  1.3520  0.9858  3.2814
  601SOL    HW2 1803   0.540   0.749   1.725 -1.3959  2.7151  2.2258
  602SOL     OW 1804   0.405   2.657   0.357 -0.6407 -0.1389 -0.6958
  602SOL    HW1 1805   0.344   2.727   0.395  3.5659 -2.2039  2.3199
  602SOL    HW2 1806   0.458   2.687   0.272 -0.8939  0.4033 -0.9889
  603SOL     OW 1807   1.248   2.754   2.205 -0.0474 -0.3636  0.6717
  603SOL    HW1 1808   1.160   2.720   2.228  1.7434 -1.2755 -1.5100
  603SOL    HW2 1809   1.286   2.703   2.122  2.0065  1.4362 -1.2894
  604SOL     OW 1810   0.381   2.386   3.054  0.0774  0.2176  0.2113
  604SOL    HW1 1811   0.330   2.300   3.050  1.0444  2.2626 -0.0251
  604SOL    HW2 1812   0.322   2.465   3.078 -2.0119 -0.2245 -1.8490
  605SOL     OW 1813   2.096   0.906   1.583 -0.0595 -0.5591  0.7012
  605SOL    HW1 1814   2.034   0.875   1.509  3.1270  1.0133  3.2565
  605SOL    HW2 1815   2.078   1.002   1.602  1.0697 -0.9749 -2.9914
  606SOL     OW 1816   0.667   1.068   2.625  0.2061 -0.3559 -0.6029
  606SOL    HW1 1817   0.668   1.168   2.657  1.4196  0.8230  0.2340
  606SOL    HW2 1818   0.751   1.025   2.655 -0.9430  2.2735 -1.0493
  607SOL     OW 1819   0.623   0.355   1.127  0.1224  0.3758  0.0348
  607SOL    HW1 1820   0.645   0.375   1.227 -1.4320  4.1128  0.8958
  607SOL    HW2 1821   0.702   0.349   1.061 -1.2660 -2.3604 -0.1321
  608SOL     OW 1822   2.940   1.815   1.929  0.0582  0.5860 -0.8316
  608SOL    HW1 1823   2.901   1.722   1.945 -0.6068 -1.7999 -0.7559
  608SOL    HW2 1824   2.906   1.882   1.994 -0.2014 -0.6042 -0.6520
  609SOL     OW 1825   2.531   0.290   0.112  0.1449 -0.5765 -0.1692
  609SOL    HW1 1826   2.494   0.357   0.043 -0.7262  0.8287 -0.7656
  609SOL    HW2 1827   2.505   0.197   0.092  1.5985  2.3480  2.1452
  610SOL     OW 1828   3.076   2.841   1.449  0.0144 -0.0610  0.0268
  610SOL    HW1 1829   3.094   2.941   1.468  1.4638  2.8737  0.8998
  610SOL    HW2 1830   3.033   2.826   1.355  1.7473  1.3111 -0.3552
  611SOL     OW 1831   1.740   2.316   0.028  0.4302 -0.3306 -0.2759
  611SOL    HW1 1832   1.802   2.271   0.099 -1.7395  1.5885  2.1375
  611SOL    HW2 1833   1.767   2.414   0.014  0.2486  0.1502  1.0738
  612SOL     OW 1834   0.615   0.332   1.980  0.0150 -0.1873  0.2912
  612SOL    HW1 1835   0.633   0.276   1.898 -0.9760 -0.2111 -0.1634
  612SOL    HW2 1836   0.658   0.424   1.965  0.4035  0.4337  0.5130
  613SOL     OW 1837   0.211   2.156   0.912  0.0807  0.3305  0.0979
  613SOL    HW1 1838   0.119   2.205   0.931 -2.9052  0.4966  0.8368
  613SOL    HW2 1839   0.281   2.228   0.878  1.9454  0.0653 -0.3629
  614SOL     OW 1840   1.660   0.498   1.856  0.4817 -0.1291 -0.5305
  614SOL    HW1 1841   1.735   0.567   1.869 -1.6603 -0.3961 -0.5267
  614SOL    HW2 1842   1.661   0.422   1.922 -1.7306  0.8007 -2.0151
  615SOL     OW 1843   1.565   1.331   0.768 -0.2066 -0.1019 -0.2213
  615SOL    HW1 1844   1.656   1.318   0.728 -0.1552 -1.7302  0.3628
  615SOL    HW2 1845   1.544   1.427   0.797 -2.6944 -0.7724 -2.8912
  616SOL     OW 1846   2.109   1.578   0.315 -0.2885 -0.7173 -0.0688
  616SOL    HW1 1847   2.018   1.569   0.272  1.9152  0.6367  0.3733
  616SOL    HW2 1848   2.124   1.677   0.338  1.1288  0.0699 -0.0847
  617SOL     OW 1849   1.473   0.678   0.106  0.0955 -0.2544  0.1639
  617SOL    HW1 1850   1.417   0.761   0.118 -2.5715 -0.7784  0.8708
  617SOL    HW2 1851   1.568   0.696   0.069  0.8792 -1.4044 -0.5375
  618SOL     OW 1852   0.561   0.600   2.312  0.0192 -0.0311 -0.2838
  618SOL    HW1 1853   0.562   0.564   2.406 -1.0773  0.5169 -0.4359
  618SOL    HW2 1854   0.485   0.554   2.261  0.5020 -2.6448 -0.5656
  619SOL     OW 1855   3.091   1.714   1.448 -0.0225  0.0790  0.0369
  619SOL    HW1 1856   0.001   1.717   1.544 -1.1956 -0.3627  0.7036
  619SOL    HW2 1857   0.036   1.737   1.373  1.9554  1.2575 -0.3735
  620SOL     OW 1858   2.466   2.943   2.539 -0.9229  0.5921  0.0091
  620SOL    HW1 1859   2.494   2.900   2.452  0.3208  1.0802 -0.0187
  620SOL    HW2 1860   2.392   3.008   2.519  2.2905 -0.9847 -2.0668
  621SOL     OW 1861   2.751   1.848   0.127  0.0737 -0.2108  0.4651
  621SOL    HW1 1862   2.672   1.784   0.151 -0.4265 -0.5946  1.3626
  621SOL    HW2 1863   2.709   1.939   0.122 -0.2635 -0.3458 -0.5033
  622SOL     OW 1864   1.291   0.126   2.557  0.5520 -0.4325 -0.5022
  622SOL    HW1 1865   1.244   0.037   2.534 -3.3199  2.1196  1.8782
  622SOL    HW2 1866   1.360   0.154   2.489 -2.4935  0.1682  1.3899
  623SOL     OW 1867   0.628   2.176   1.281 -0.2726  0.9475 -0.3259
  623SOL    HW1 1868   0.632   2.201   1.379  0.2847  0.8879 -1.1586
  623SOL    HW2 1869   0.582   2.245   1.223 -1.4197  1.5626 -0.3080
  624SOL     OW 1870   2.974   2.880   3.077  0.3257 -0.0459  0.3744
  624SOL    HW1 1871   2.925   2.837   2.996 -3.0212 -0.5078 -0.6826
  624SOL    HW2 1872   3.012   2.972   3.055  0.1156 -0.7343 -0.2594
  625SOL     OW 1873   0.737   2.283   0.505 -0.0896 -0.0864 -0.2589
  625SOL    HW1 1874   0.736   2.183   0.474 -0.6104 -0.2417 -0.7366
  625SOL    HW2 1875   0.654   2.331   0.474  0.6419 -2.2442  4.0844
  626SOL     OW 1876   3.068   0.707   2.827 -0.2904  0.9356 -0.0417
  626SOL    HW1 1877   3.038   0.732   2.918  2.5358  1.8756 -3.2899
  626SOL    HW2 1878   3.069   0.603   2.820 -2.9829 -1.8814  0.7968
  627SOL     OW 1879   1.363   2.064   2.970  0.2617  0.6606  0.0148
  627SOL    HW1 1880   1.426   2.139   2.961 -2.0808  0.2761 -0.0048
  627SOL    HW2 1881   1.271   2.085   2.930 -0.4519  0.7954 -0.7953
  628SOL     OW 1882   0.031   2.348   3.082 -0.1378 -0.7572 -1.0332
  628SOL    HW1 1883   0.062   2.421   3.023 -0.4774 -1.2693  0.7328
  628SOL    HW2 1884   0.076   2.364   0.041 -1.9474 -1.7260 -3.2226
  629SOL     OW 1885   0.857   2.828   2.738 -0.0605  0.1093  0.0651
  629SOL    HW1 1886   0.922   2.781   2.673 -0.3507 -0.5089 -0.2763
  629SOL    HW2 1887   0.772   2.865   2.687 -2.3540 -0.9329 -0.6823
  630SOL     OW 1888   1.116   0.596   1.661  0.5659  0.2076  0.3693
  630SOL    HW1 1889   1.045   0.536   1.697  1.5453  1.8407 -2.9595
  630SOL    HW2 1890   1.175   0.629   1.738 -1.5578 -2.9813  0.2804
  631SOL     OW 1891   2.080   1.052   0.544 -0.4891  0.3153 -0.0623
  631SOL    HW1 1892   2.063   1.132   0.487  0.2759  1.1375 -0.1681
  631SOL    HW2 1893   1.993   1.005   0.571 -0.0948 -0.1329  1.7262
  632SOL     OW 1894   2.577   0.277   1.950  0.1618  0.0240  0.8334
  632SOL    HW1 1895   2.605   0.319   1.861  2.3991 -0.0031 -1.0556
  632SOL    HW2 1896   2.649   0.218   1.994  1.9958 -1.1383  1.0959
  633SOL     OW 1897   0.992   1.440   0.339  0.1790 -0.4791  0.0781
  633SOL    HW1 1898   0.979   1.499   0.421  1.0164 -0.3868  0.5630
  633SOL    HW2 1899   1.038   1.359   0.368 -2.2786  1.2530  1.4965
  634SOL     OW 1900   2.607   2.655   2.423 -0.0275  0.4434  0.0566
  634SOL    HW1 1901   2.575   2.573   2.377 -0.3147  0.3505 -0.2103
  634SOL    HW2 1902   2.577   2.737   2.370 -0.0471 -1.4569  0.9936
  635SOL     OW 1903   1.879   0.673   0.439  1.1870 -0.5752 -0.5084
  635SOL    HW1 1904   1.779   0.689   0.459 -2.5896  1.8825  0.8650
  635SOL    HW2 1905   1.928   0.673   0.527 -1.0186  2.2755  1.4396
  636SOL     OW 1906   0.795   1.351   0.953 -0.3921 -0.1017  0.4645
  636SOL    HW1 1907   0.723   1.424   0.966 -1.7252 -1.8410  0.0230
  636SOL    HW2 1908   0.803   1.337   0.854 -2.5432 -1.9444  1.1693
  637SOL     OW 1909   2.653   2.139   0.199  0.3625 -0.2081 -0.4629
  637SOL    HW1 1910   2.695   2.149   0.287 -0.9748  1.4480 -0.7920
  637SOL    HW2 1911   2.647   2.229   0.156  0.3810 -0.7214 -1.2764
  638SOL     OW 1912   1.413   2.547   2.288 -0.3932  0.0362 -0.0910
  638SOL    HW1 1913   1.368   2.630   2.248  0.9518 -0.4303 -0.9503
  638SOL    HW2 1914   1.508   2.570   2.322  2.9040  0.2582  0.3211
  639SOL     OW 1915   1.520   1.954   0.527 -0.0602  0.2464  0.1733
  639SOL    HW1 1916   1.446   1.942   0.454 -1.3675 -0.4182 -2.8242
  639SOL    HW2 1917   1.516   1.882   0.599  0.9882  2.1165  0.2861
  640SOL     OW 1918   2.066   0.289   0.465  0.0416 -0.6969 -0.3566
  640SOL    HW1 1919   2.129   0.214   0.492 -1.4399 -0.2035 -3.5865
  640SOL    HW2 1920   2.105   0.365   0.404 -1.1278  1.3075 -0.2487
  641SOL     OW 1921   2.855   0.063   0.475  0.0993  0.0306 -0.3298
  641SOL    HW1 1922   2.882   0.093   0.571  0.8603  1.5006  0.3532
  641SOL    HW2 1923   2.856   0.140   0.409  0.3755  1.0649 -1.3219
  642SOL     OW 1924   0.375   0.797   1.216 -0.5887 -0.5172 -0.2149
  642SOL    HW1 1925   0.381   0.815   1.116 -0.2480  0.0210  1.1278
  642SOL    HW2 1926   0.289   0.761   1.256 -0.1510  1.0205  0.0639
  643SOL     OW 1927   0.946   1.274   2.363 -0.2657  0.1690 -0.8376
  643SOL    HW1 1928   0.978   1.260   2.461  0.0637  1.7376  3.8383
  643SOL    HW2 1929   0.845   1.284   2.358 -1.4068  2.2621 -1.5563
  644SOL     OW 1930   1.557   2.223   0.605 -0.1411 -0.2403  0.7142
  644SOL    HW1 1931   1.579   2.132   0.573 -0.1542  1.9275  0.9634
  644SOL    HW2 1932   1.454   2.240   0.615 -1.2888  2.6853  0.1667
  645SOL     OW 1933   1.730   2.005   0.334 -0.0608  0.2058  0.2716
  645SOL    HW1 1934   1.721   1.956   0.242  1.2948 -1.5360 -1.1198
  645SOL    HW2 1935   1.649   1.982   0.395 -1.0012 -1.5477  0.9423
  646SOL     OW 1936   3.056   1.596   2.874  0.3286 -0.1129  0.2749
  646SOL    HW1 1937   3.052   1.685   2.829  0.9912 -3.1225 -1.7843
  646SOL    HW2 1938   3.096   1.524   2.820 -1.0404 -0.5690  1.8711
  647SOL     OW 1939   0.821   0.436   0.923 -0.1103 -0.6486 -0.0764
  647SOL    HW1 1940   0.877   0.355   0.903 -1.9323 -1.2595  2.6027
  647SOL    HW2 1941   0.766   0.465   0.840 -1.4743  0.3952  0.3914
  648SOL     OW 1942   1.414   0.685   1.127 -0.5862 -0.8099 -0.7249
  648SOL    HW1 1943   1.401   0.723   1.038  0.8950 -2.4242  3.3495
  648SOL    HW2 1944   1.501   0.716   1.177  0.1072  1.1113  1.1884
  649SOL     OW 1945   0.927   1.832   0.322  0.0747  0.5521 -0.2636
  649SOL    HW1 1946   0.977   1.836   0.232  1.1961  0.8987 -0.2217
  649SOL    HW2 1947   0.977   1.777   0.386 -3.3901  0.0902 -0.9958
  650SOL     OW 1948   2.565   1.569   2.088 -0.1337 -0.6222 -0.7669
  650SOL    HW1 1949   2.476   1.617   2.064 -0.5803  0.9625 -2.7880
  650SOL    HW2 1950   2.631   1.610   2.025 -0.5877  2.2177  0.5112
  651SOL     OW 1951   1.637   2.217   2.713 -0.2994 -0.3855 -0.4532
  651SOL    HW1 1952   1.719   2.202   2.653  0.7960  0.5946 -1.1664
  651SOL    HW2 1953   1.554   2.214   2.654  0.7862  1.5036 -0.7093
  652SOL     OW 1954   2.529   1.697   0.138  0.6425 -0.2358 -0.6063
  652SOL    HW1 1955   2.488   1.748   0.056 -0.2346  2.3900  1.3464
  652SOL    HW2 1956   2.495   1.601   0.147 -0.9464 -1.9816  0.8007
  653SOL     OW 1957   0.220   0.150   0.823  0.6841 -0.1289 -0.2251
  653SOL    HW1 1958   0.168   0.232   0.863 -1.3532  0.9592  0.9346
  653SOL    HW2 1959   0.270   0.095   0.895  0.8573  0.9217 -2.6849
  654SOL     OW 1960   2.608   3.096   2.194 -0.6880 -0.1884 -0.2321
  654SOL    HW1 1961   2.679   0.034   2.168 -1.2724 -0.9340  0.6405
  654SOL    HW2 1962   2.546   3.094   2.113 -3.2667 -2.1395 -0.5756
  655SOL     OW 1963   0.622   2.926   0.915  0.5078 -0.2148 -0.0562
  655SOL    HW1 1964   0.528   2.880   0.913 -0.9403 -2.7194 -2.0715
  655SOL    HW2 1965   0.622   3.014   0.970  3.0385 -1.6665  1.1928
  656SOL     OW 1966   3.030   2.895   2.576 -0.1743  0.4556  0.2712
  656SOL    HW1 1967   2.961   2.900   2.501 -0.2928 -0.8627  0.0510
  656SOL    HW2 1968   3.075   2.987   2.595  0.1320 -0.6454  0.2236
  657SOL     OW 1969   2.829   0.867   3.096  0.1287  0.0230  0.0370
  657SOL    HW1 1970   2.881   0.916   3.023 -0.1730  1.9765 -0.3177
  657SOL    HW2 1971   2.888   0.816   0.033 -1.5741 -1.5787 -3.2098
  658SOL     OW 1972   2.484   2.188   1.143 -0.2078  0.1492  0.2778
  658SOL    HW1 1973   2.460   2.251   1.219 -0.2158  0.3207  0.1027
  658SOL    HW2 1974   2.506   2.096   1.184  0.0187  0.6311  1.0521
  659SOL     OW 1975   1.878   2.759   0.346  0.1439  0.2261  0.1356
  659SOL    HW1 1976   1.958   2.698   0.337 -0.9681  0.0957  0.2889
  659SOL    HW2 1977   1.792   2.709   0.345  1.9959  1.6159  1.6298
  660SOL     OW 1978   1.705   1.159   2.674  0.0470  0.2434 -0.0376
  660SOL    HW1 1979   1.751   1.205   2.592 -1.1024  0.4981 -2.0397
  660SOL    HW2 1980   1.606   1.170   2.666  2.8948 -0.5838 -1.2648
  661SOL     OW 1981   2.849   2.292   1.183 -0.1990  0.1291  0.6735
  661SOL    HW1 1982   2.783   2.331   1.117  1.7749 -1.6518 -0.7572
  661SOL    HW2 1983   2.932   2.257   1.136  0.6288  0.2117 -1.3086
  662SOL     OW 1984   0.455   0.766   0.105 -0.2039  0.4041  0.0819
  662SOL    HW1 1985   0.366   0.818   0.105 -0.9592 -0.8253  3.1214
  662SOL    HW2 1986   0.492   0.754   0.200 -0.6757  0.3556  3.2752
  663SOL     OW 1987   2.206   2.058   1.163  0.2044 -0.3865 -0.3569
  663SOL    HW1 1988   2.203   2.140   1.227 -0.0850  0.4812 -0.0325
  663SOL    HW2 1989   2.251   1.984   1.219  0.3383  1.5212 -1.4606
  664SOL     OW 1990   0.971   1.620   1.265  0.0625 -0.0747  0.1061
  664SOL    HW1 1991   1.061   1.571   1.250 -0.4607 -2.3738  0.0217
  664SOL    HW2 1992   0.979   1.716   1.237 -1.3540  0.4567 -0.5476
  665SOL     OW 1993   1.768   2.462   1.959  0.0570  0.1436  0.5339
  665SOL    HW1 1994   1.708   2.544   1.950  0.9685  0.7026  2.2619
  665SOL    HW2 1995   1.771   2.413   2.050  0.0067 -0.5423  0.8219
  666SOL     OW 1996   2.974   2.594   0.257 -0.4406 -0.5559 -0.2175
  666SOL    HW1 1997   2.876   2.608   0.283 -0.6662  0.6143 -0.2116
  666SOL    HW2 1998   3.033   2.635   0.327 -0.0327 -0.4084  1.3642
  667SOL     OW 1999   2.748   1.602   1.889 -0.2196  0.2088 -0.0212
  667SOL    HW1 2000   2.714   1.648   1.803 -0.3673 -1.1881 -2.5211
  667SOL    HW2 2001   2.777   1.507   1.869 -1.2480 -0.3457  3.6711
  668SOL     OW 2002   0.321   0.443   2.703  0.4621  0.0568  0.7882
  668SOL    HW1 2003   0.274   0.376   2.765  1.0462 -1.6670  1.0812
  668SOL    HW2 2004   0.260   0.498   2.645  2.5295 -0.1357  2.1029
  669SOL     OW 2005   2.010   2.110   2.904 -0.3683 -0.0935 -0.5420
  669SOL    HW1 2006   2.032   2.136   2.807  0.5776 -4.7475  1.1757
  669SOL    HW2 2007   2.059   2.169   2.970 -0.2944 -0.7807 -0.0701
  670SOL     OW 2008   2.527   1.667   2.555  0.3285 -0.0956 -0.0498
  670SOL    HW1 2009   2.624   1.668   2.588  2.2575 -1.9315 -0.0639
  670SOL    HW2 2010   2.502   1.597   2.484  0.1767  0.9988 -0.5379
  671SOL     OW 2011   0.209   1.739   0.740 -0.5753  0.3691  0.2882
  671SOL    HW1 2012   0.180   1.749   0.642  0.9009 -1.8466  1.4063
  671SOL    HW2 2013   0.132   1.720   0.796  2.6388 -0.7258 -0.5313
  672SOL     OW 2014   2.494   0.750   1.860  0.3129  0.0872  0.5687
  672SOL    HW1 2015   2.431   0.804   1.919 -0.0044 -0.1925 -0.7146
  672SOL    HW2 2016   2.588   0.783   1.865 -0.8215  0.7462 -1.5603
  673SOL     OW 2017   2.476   2.549   2.086  0.1948 -0.8347  0.2110
  673SOL    HW1 2018   2.527   2.470   2.130  1.5472  1.5180 -1.4809
  673SOL    HW2 2019   2.540   2.623   2.062  0.4065 -2.0340  0.5570
  674SOL     OW 2020   1.405   2.640   1.676 -0.2111 -0.0591 -0.3986
  674SOL    HW1 2021   1.446   2.552   1.704 -2.0593 -1.4921 -0.0863
  674SOL    HW2 2022   1.310   2.650   1.721  0.3312  1.0387 -0.8140
  675SOL     OW 2023   0.374   0.858   0.952 -0.0172  0.1566  0.4742
  675SOL    HW1 2024   0.340   0.953   0.952 -0.0277 -0.6554 -0.5391
  675SOL    HW2 2025   0.473   0.855   0.921 -0.4768  1.6930  1.5558
  676SOL     OW 2026   1.812   1.260   0.665 -0.4733  0.1650 -0.3684
  676SOL    HW1 2027   1.798   1.163   0.643 -0.5852 -4.1823 -0.2690
  676SOL    HW2 2028   1.893   1.273   0.725  0.5483  3.0799 -0.2650
  677SOL     OW 2029   2.963   1.286   2.420  0.4511  0.3424  0.2145
  677SOL    HW1 2030   2.897   1.320   2.489 -1.5267 -0.6247 -1.6787
  677SOL    HW2 2031   2.898   1.244   2.350 -0.8337 -0.5618 -1.7205
  678SOL     OW 2032   2.634   1.937   1.206  0.5565 -0.0003  0.5548
  678SOL    HW1 2033   2.715   1.917   1.270  2.1029 -2.9686  2.5605
  678SOL    HW2 2034   2.540   1.904   1.244 -2.8955 -0.5316  0.0669
  679SOL     OW 2035   2.074   2.563   0.383 -0.5735 -0.1154  0.6438
  679SOL    HW1 2036   2.171   2.541   0.392 -0.0195 -1.5125 -1.4689
  679SOL    HW2 2037   2.023   2.545   0.470  1.8893  0.4094 -2.1260
  680SOL     OW 2038   3.101   2.233   2.043  0.1512  0.4759 -0.0929
  680SOL    HW1 2039   3.075   2.274   1.951  1.3911  2.9365 -2.5882
  680SOL    HW2 2040   0.035   2.297   2.094 -0.1662 -0.6469 -0.8919
  681SOL     OW 2041   0.063   1.427   1.626  0.1991 -0.0955 -0.0027
  681SOL    HW1 2042   0.154   1.383   1.633 -0.3495 -0.7681 -1.6901
  681SOL    HW2 2043   0.073   1.531   1.626  1.6321  1.5134  0.9681
  682SOL     OW 2044   1.092   2.474   0.939 -0.1994 -0.1007  0.3262
  682SOL    HW1 2045   1.161   2.535   0.978 -0.9736 -1.0336  1.8078
  682SOL    HW2 2046   1.020   2.525   0.887 -0.1238  2.1981  4.1795
  683SOL     OW 2047   2.194   1.141   1.178 -0.3402  0.2034  0.2654
  683SOL    HW1 2048   2.249   1.200   1.118 -0.7588 -0.2755 -1.6173
  683SOL    HW2 2049   2.209   1.164   1.274 -2.3809 -0.3290 -2.6750
  684SOL     OW 2050   0.627   1.839   2.588  0.3226 -0.0508  0.4065
  684SOL    HW1 2051   0.671   1.840   2.681 -1.4661 -1.2484  1.5755
  684SOL    HW2 2052   0.552   1.902   2.588  1.9151 -1.3980  1.0188
  685SOL     OW 2053   1.562   1.651   3.017 -0.5791  0.1038  0.1529
  685SOL    HW1 2054   1.562   1.553   3.045  2.3853  0.6621  0.7223
  685SOL    HW2 2055   1.608   1.654   2.926 -0.8936  0.4166  0.1969
  686SOL     OW 2056   2.697   0.605   1.251  0.1433 -0.5620  0.3614
  686SOL    HW1 2057   2.675   0.647   1.341  1.6649  4.1548  0.1572
  686SOL    HW2 2058   2.780   0.654   1.211  0.3275  1.2297 -1.1895
  687SOL     OW 2059   1.138   2.390   2.782 -0.2368 -0.1722 -0.3525
  687SOL    HW1 2060   1.071   2.454   2.828 -0.1878  1.6270 -0.2137
  687SOL    HW2 2061   1.115   2.292   2.797  0.3794 -1.5793  1.2961
  688SOL     OW 2062   0.154   2.003   2.146 -0.3342 -0.3138  0.1840
  688SOL    HW1 2063   0.242   2.015   2.086  1.0185 -2.4112  1.1544
  688SOL    HW2 2064   0.082   2.067   2.105 -0.4713  0.7345 -2.7984
  689SOL     OW 2065   1.894   0.650   1.880 -0.2361  0.0418 -0.0134
  689SOL    HW1 2066   1.882   0.679   1.977 -0.0301 -0.3441  0.6095
  689SOL    HW2 2067   1.953   0.566   1.877  1.1741  1.0174  0.7999
  690SOL     OW 2068   2.435   0.670   1.018  0.5637 -0.2359 -0.0417
  690SOL    HW1 2069   2.453   0.624   1.106  2.4294 -1.9971  0.6542
  690SOL    HW2 2070   2.359   0.736   1.026  0.9623 -1.7341 -0.0039
  691SOL     OW 2071   0.749   1.870   1.706  0.4106 -0.0703 -0.2858
  691SOL    HW1 2072   0.816   1.792   1.701 -1.9855  2.3298 -1.7988
  691SOL    HW2 2073   0.780   1.949   1.766 -2.3265  0.5301  1.0199
  692SOL     OW 2074   1.806   0.265   1.381 -0.2092  0.4010  0.4116
  692SOL    HW1 2075   1.797   0.165   1.399  2.5974  0.3929 -1.7871
  692SOL    HW2 2076   1.769   0.289   1.285  0.1210 -0.0984 -5.1881
  693SOL     OW 2077   0.364   0.775   2.381 -0.7181  0.1652 -0.0140
  693SOL    HW1 2078   0.326   0.755   2.477 -1.9327  0.0565  2.2254
  693SOL    HW2 2079   0.437   0.707   2.359  0.5482  2.2077  1.2359
  694SOL     OW 2080   1.605   0.263   1.188  0.0392  0.3832 -0.0608
  694SOL    HW1 2081   1.610   0.359   1.152 -1.4425  0.4282  0.7061
  694SOL    HW2 2082   1.611   0.195   1.109 -0.9402  0.8319 -0.2983
  695SOL     OW 2083   1.150   1.193   1.830  0.2614 -0.1422 -0.9622
  695SOL    HW1 2084   1.227   1.142   1.781  2.9125 -0.9154 -1.7128
  695SOL    HW2 2085   1.095   1.135   1.897 -2.5560  0.5823 -0.5594
  696SOL     OW 2086   1.528   3.065   0.316  0.2243 -0.6778 -0.0117
  696SOL    HW1 2087   1.484   2.975   0.318  1.6889  3.5093  2.8189
  696SOL    HW2 2088   1.505   3.122   0.233 -0.8681  0.4087  0.7639
  697SOL     OW 2089   0.706   0.478   0.672  0.2822 -0.0428 -0.5421
  697SOL    HW1 2090   0.705   0.574   0.638 -1.7345 -2.7131 -0.5640
  697SOL    HW2 2091   0.760   0.421   0.607  0.5946 -1.9218  1.0984
  698SOL     OW 2092   1.421   1.193   2.657  0.4759 -0.3225 -0.6843
  698SOL    HW1 2093   1.337   1.254   2.679 -0.3443  0.8092  1.8183
  698SOL    HW2 2094   1.389   1.116   2.597  1.6084 -0.2323  0.0493
  699SOL     OW 2095   1.635   1.362   1.252 -0.0120  0.1901  0.2096
  699SOL    HW1 2096   1.595   1.457   1.260 -2.1471 -0.4671  0.7265
  699SOL    HW2 2097   1.692   1.366   1.165 -1.6582 -0.8887 -2.5017
  700SOL     OW 2098   1.672   0.017   0.525 -0.4781 -0.0468 -0.0384
  700SOL    HW1 2099   1.627   3.112   0.438 -0.6635  0.1052  0.0970
  700SOL    HW2 2100   1.723   0.107   0.517  1.8999  0.4037  0.4514
  701SOL     OW 2101   2.737   0.095   2.410 -0.2386 -0.4982 -0.2953
  701SOL    HW1 2102   2.699   0.018   2.350 -2.5822  3.8189  3.0132
  701SOL    HW2 2103   2.788   0.072   2.497 -0.4724 -2.6372  0.2142
  702SOL     OW 2104   1.158   0.189   0.119 -0.2554 -0.0511 -0.4068
  702SOL    HW1 2105   1.095   0.267   0.106 -1.5425 -1.2942  0.2291
  702SOL    HW2 2106   1.245   0.200   0.066  0.5589 -0.2659 -0.0804
  703SOL     OW 2107   2.297   2.828   2.110 -0.0940 -0.4804  0.3451
  703SOL    HW1 2108   2.198   2.796   2.110 -1.6822  0.8939  0.2288
  703SOL    HW2 2109   2.351   2.803   2.028 -0.4944  1.3855 -0.6716
  704SOL     OW 2110   0.528   2.257   0.992 -0.1127 -0.2625  0.6187
  704SOL    HW1 2111   0.485   2.275   0.900 -0.5192 -0.2380 -1.4818
  704SOL    HW2 2112   0.475   2.299   1.067  1.5166  0.6394 -1.3299
  705SOL     OW 2113   2.798   0.133   2.043  0.5406 -0.0595  0.3270
  705SOL    HW1 2114   2.823   0.193   2.121  3.0114  0.8629  0.2034
  705SOL    HW2 2115   2.866   0.057   2.030  1.3632 -1.4538  0.5630
  706SOL     OW 2116   1.804   0.270   0.487  0.2542  0.0172  0.3500
  706SOL    HW1 2117   1.908   0.262   0.472  3.5112  2.5034  1.9650
  706SOL    HW2 2118   1.760   0.313   0.404 -1.5025  1.0889 -2.7230
  707SOL     OW 2119   1.298   1.909   2.205  0.2001  0.0469 -0.2582
  707SOL    HW1 2120   1.340   1.994   2.182 -1.8772 -0.0136  0.7132
  707SOL    HW2 2121   1.211   1.930   2.255  0.0007 -1.7335  1.1557
  708SOL     OW 2122   0.143   2.468   1.828  0.0295  0.1946  0.0797
  708SOL    HW1 2123   0.203   2.504   1.903 -2.0180  0.1218 -1.8536
  708SOL    HW2 2124   0.047   2.503   1.837 -1.1798  0.1098  0.8335
  709SOL     OW 2125   1.722   0.267   1.999  0.2291  0.3704 -0.3897
  709SOL    HW1 2126   1.816   0.220   1.991  1.3735 -3.0922 -4.1489
  709SOL    HW2 2127   1.643   0.205   1.974 -2.0530  0.3869  0.7360
  710SOL     OW 2128   2.226   0.388   1.687  0.1166 -0.3265  0.0175
  710SOL    HW1 2129   2.138   0.371   1.639 -0.2136 -1.9606  0.4229
  710SOL    HW2 2130   2.290   0.314   1.664 -0.1096 -0.1546  1.3117
  711SOL     OW 2131   0.449   2.000   0.343 -0.2374  0.3788  0.0621
  711SOL    HW1 2132   0.392   1.921   0.366  0.5614 -0.3481 -1.6234
  711SOL    HW2 2133   0.550   1.978   0.342 -2.0784  0.5673  2.5694
  712SOL     OW 2134   0.564   2.601   2.188 -0.7750  0.0807 -0.3811
  712SOL    HW1 2135   0.506   2.628   2.110  0.8596 -1.2002  2.7060
  712SOL    HW2 2136   0.600   2.682   2.232 -0.1230 -2.1768  1.1217
  713SOL     OW 2137   1.965   1.128   0.024  0.0348  0.0314 -0.1362
  713SOL    HW1 2138   1.985   1.156   3.054  0.3910 -2.5713 -0.4980
  713SOL    HW2 2139   2.047   1.122   0.076 -4.6414 -1.6391  1.2442
  714SOL     OW 2140   0.900   1.933   1.093 -0.3954 -0.3911  0.2522
  714SOL    HW1 2141   0.840   1.857   1.065 -0.9083 -0.6644  0.2784
  714SOL    HW2 2142   0.850   2.020   1.081  0.9215 -0.8614  0.7902
  715SOL     OW 2143   1.845   0.054   2.967 -0.4628 -0.5686  1.0705
  715SOL    HW1 2144   1.928   0.115   2.981  0.0789  0.4336 -0.1597
  715SOL    HW2 2145   1.860   3.129   2.882  1.2050  1.7875 -2.4915
  716SOL     OW 2146   0.075   0.076   1.750 -0.4973  0.1751  0.0627
  716SOL    HW1 2147   0.055   0.174   1.750  1.2654 -0.7286  1.2955
  716SOL    HW2 2148   0.039   0.029   1.831  0.9495 -0.0598 -2.3063
  717SOL     OW 2149   0.450   1.133   0.155 -0.3888 -0.0462  0.2521
  717SOL    HW1 2150   0.405   1.043   0.156 -0.0790  1.6886  0.3884
  717SOL    HW2 2151   0.388   1.199   0.108 -3.6851  0.0301 -1.3304
  718SOL     OW 2152   1.329   0.953   2.542 -0.2623 -0.6215  0.2090
  718SOL    HW1 2153   1.279   0.914   2.617 -1.4665  0.0922 -3.0187
  718SOL    HW2 2154   1.408   0.892   2.515 -0.8301  0.7268  0.2786
  719SOL     OW 2155   2.761   1.368   3.100 -0.6592  0.1156 -0.5271
  719SOL    HW1 2156   2.723   1.301   0.039 -0.1125  1.3992 -0.1396
  719SOL    HW2 2157   2.697   1.442   3.073  1.5809 -0.9534  0.6876
  720SOL     OW 2158   1.043   0.893   0.773 -0.4470  0.0027 -0.0749
  720SOL    HW1 2159   1.000   0.807   0.814 -1.3627 -1.5554 -0.4289
  720SOL    HW2 2160   1.034   0.968   0.845  0.4311 -0.6038 -0.6808
  721SOL     OW 2161   2.689   0.970   0.480  0.2595  0.1947 -0.4779
  721SOL    HW1 2162   2.680   0.901   0.406  1.5002  0.7356 -0.6081
  721SOL    HW2 2163   2.747   1.052   0.461  1.4317  1.2656  0.5065
  722SOL     OW 2164   1.314   1.003   2.998  0.1479  0.3544  0.4615
  722SOL    HW1 2165   1.245   1.007   3.070 -0.8670 -2.7101 -0.6490
  722SOL    HW2 2166   1.280   0.928   2.935 -0.6055 -0.7521 -1.5704
  723SOL     OW 2167   0.324   1.318   0.460  0.6727  0.3073 -0.0512
  723SOL    HW1 2168   0.250   1.388   0.451 -1.1878  0.9230 -2.0553
  723SOL    HW2 2169   0.395   1.335   0.388 -0.3532  1.5491 -1.4040
  724SOL     OW 2170   0.572   1.716   2.286 -0.0580  0.2266 -0.3512
  724SOL    HW1 2171   0.472   1.747   2.297 -1.4895  0.9120 -0.3882
  724SOL    HW2 2172   0.631   1.744   2.364 -1.1479 -0.3606  0.1737
  725SOL     OW 2173   2.375   0.773   1.453 -0.0617 -0.2513  0.9512
  725SOL    HW1 2174   2.315   0.825   1.516  1.0580  3.5895  0.6415
  725SOL    HW2 2175   2.414   0.700   1.507 -2.7809  1.4507 -0.4339
  726SOL     OW 2176   1.865   2.958   0.563 -0.7464 -0.1432 -0.2610
  726SOL    HW1 2177   1.851   2.887   0.491 -0.9371 -2.4362  1.6729
  726SOL    HW2 2178   1.797   3.033   0.562  6.1497 -0.0595 -2.1218
  727SOL     OW 2179   1.302   0.939   2.084 -0.4153  0.1635  0.2500
  727SOL    HW1 2180   1.298   0.952   2.184  0.2312 -0.3636  1.7706
  727SOL    HW2 2181   1.380   0.985   2.042 -2.3701  0.5999  1.0344
  728SOL     OW 2182   1.281   2.616   1.060 -0.2818  0.1852  0.2975
  728SOL    HW1 2183   1.305   2.710   1.028  0.0499  3.3228  1.1072
  728SOL    HW2 2184   1.370   2.577   1.098  2.2237  3.3694 -0.3128
  729SOL     OW 2185   1.953   0.922   0.898 -0.3072  0.0643 -0.0745
  729SOL    HW1 2186   2.017   0.920   0.822  1.4962  1.1236  1.0313
  729SOL    HW2 2187   1.963   0.841   0.957 -0.2493 -0.1028 -0.7322
  730SOL     OW 2188   0.830   1.788   2.426 -0.6027 -0.0017 -0.0128
  730SOL    HW1 2189   0.869   1.863   2.370 -0.9740 -2.2257  1.8613
  730SOL    HW2 2190   0.765   1.831   2.488 -2.6581  0.4027  1.1888
  731SOL     OW 2191   0.543   0.238   0.686  0.5503  0.6417  0.5233
  731SOL    HW1 2192   0.519   0.197   0.596  2.6713 -2.5323 -0.3916
  731SOL    HW2 2193   0.591   0.324   0.682 -0.4021 -0.8234 -0.0898
  732SOL     OW 2194   0.821   0.945   0.160  0.1483 -0.4109  0.0229
  732SOL    HW1 2195   0.757   0.931   0.082 -0.7070  2.0437 -1.5611
  732SOL    HW2 2196   0.919   0.965   0.123  1.6776 -0.0376 -2.5639
  733SOL     OW 2197   0.730   2.404   0.780  0.4542  0.0423  0.6835
  733SOL    HW1 2198   0.738   2.354   0.690  2.9264 -2.4682 -3.0920
  733SOL    HW2 2199   0.737   2.340   0.855 -0.5115 -0.5245 -0.6717
  734SOL     OW 2200   0.042   1.993   2.769 -0.8042 -0.2499  0.5378
  734SOL    HW1 2201   0.036   2.080   2.715  0.9132  1.6017 -1.8442
  734SOL    HW2 2202   3.127   2.007   2.859 -1.5034  0.7995 -1.9238
  735SOL     OW 2203   1.124   0.031   1.024 -0.3114 -0.1291 -0.0340
  735SOL    HW1 2204   1.136   0.077   1.114  0.5221  0.5842  0.7262
  735SOL    HW2 2205   1.087   3.067   1.037 -1.6112  2.7512 -0.2898
  736SOL     OW 2206   1.769   2.829   0.001 -0.0084  0.2210 -0.0011
  736SOL    HW1 2207   1.864   2.822   0.038 -1.0727  2.1959  0.5003
  736SOL    HW2 2208   1.738   2.929   0.004 -2.9568 -0.3719 -0.4665
  737SOL     OW 2209   0.015   0.485   0.578  0.2019 -0.0473  0.1209
  737SOL    HW1 2210   3.073   0.508   0.510  0.5379 -0.5432  0.2068
  737SOL    HW2 2211   0.000   0.531   0.670  0.1831 -2.4285  2.9868
  738SOL     OW 2212   2.321   2.980   1.137 -0.5273  0.1202 -0.4608
  738SOL    HW1 2213   2.304   3.072   1.168  1.6375 -0.5081 -0.0678
  738SOL    HW2 2214   2.373   2.971   1.053  0.2436 -0.8469  0.2001
  739SOL     OW 2215   1.551   2.458   0.212  0.1667 -0.1751 -0.7130
  739SOL    HW1 2216   1.616   2.397   0.164 -0.4255  0.9023 -0.6482
  739SOL    HW2 2217   1.496   2.515   0.146  1.5977 -0.8075  1.3704
  740SOL     OW 2218   1.537   0.307   0.875 -0.0848 -0.3694  0.6876
  740SOL    HW1 2219   1.492   0.219   0.872 -1.2312  0.2977 -0.4383
  740SOL    HW2 2220   1.607   0.315   0.802 -0.1420 -1.1405 -1.2392
  741SOL     OW 2221   2.603   0.681   0.797 -0.0743 -0.0715  0.1510
  741SOL    HW1 2222   2.520   0.675   0.855 -2.5541 -0.7789  1.7158
  741SOL    HW2 2223   2.580   0.684   0.696  0.6365 -3.5098  0.4646
  742SOL     OW 2224   1.177   2.156   2.377 -0.6030  0.1591 -0.6076
  742SOL    HW1 2225   1.226   2.210   2.308 -3.1604 -4.2475 -1.9071
  742SOL    HW2 2226   1.075   2.160   2.361  0.6183 -0.7518 -1.7121
  743SOL     OW 2227   2.034   0.414   1.883  0.0625  0.5972  0.2750
  743SOL    HW1 2228   2.097   0.389   1.808  2.4048 -1.1549 -1.6978
  743SOL    HW2 2229   1.990   0.328   1.914  3.0190  0.3235  0.6763
  744SOL     OW 2230   2.228   0.425   1.038  0.0058 -0.6983 -0.1211
  744SOL    HW1 2231   2.136   0.399   1.065  0.6684 -1.2915 -0.9218
  744SOL    HW2 2232   2.253   0.517   1.078  0.0263  1.2227 -1.1557
  745SOL     OW 2233   1.820   1.106   1.506  0.6529  0.5955  0.4019
  745SOL    HW1 2234   1.857   1.020   1.461  1.4477 -1.1101  0.4135
  745SOL    HW2 2235   1.721   1.111   1.473 -2.2761 -2.1969  2.0687
  746SOL     OW 2236   1.764   1.358   1.004 -0.1208 -0.0229  0.3032
  746SOL    HW1 2237   1.758   1.386   0.907 -0.5993  2.2166  1.2830
  746SOL    HW2 2238   1.806   1.268   1.014  0.0673 -2.0091  0.3398
  747SOL     OW 2239   1.937   1.148   1.045 -0.0375  0.2400 -0.2593
  747SOL    HW1 2240   2.025   1.160   1.098  0.8188 -1.4304 -0.2576
  747SOL    HW2 2241   1.934   1.058   0.991 -0.4043 -0.5333  0.2577
  748SOL     OW 2242   0.377   2.339   0.768  0.0871 -0.4518 -0.0644
  748SOL    HW1 2243   0.414   2.429   0.731  0.9340  4.5454 -0.1436
  748SOL    HW2 2244   0.379   2.272   0.692  0.6540  0.6926  1.1457
  749SOL     OW 2245   2.849   2.891   2.386  0.2306 -0.5045 -0.3860
  749SOL    HW1 2246   2.791   2.805   2.404 -0.4562 -2.3576 -2.5051
  749SOL    HW2 2247   2.826   2.945   2.302  2.0196  2.4822 -1.3825
  750SOL     OW 2248   2.545   0.265   0.938  0.2302  0.5212 -0.4376
  750SOL    HW1 2249   2.585   0.326   0.862  1.8378 -1.6156 -2.7411
  750SOL    HW2 2250   2.448   0.249   0.922  1.9583 -0.3178 -0.4434
  751SOL     OW 2251   2.784   0.261   0.238 -0.0015  0.4028  0.0874
  751SOL    HW1 2252   2.874   0.275   0.196 -0.3862 -1.5577 -0.0427
  751SOL    HW2 2253   2.704   0.304   0.189 -0.4651  0.3074 -2.7065
  752SOL     OW 2254   0.366   2.819   0.915 -0.2639  0.3445  0.2190
  752SOL    HW1 2255   0.349   2.761   0.999  2.4813 -1.3011 -0.0258
  752SOL    HW2 2256   0.319   2.790   0.833 -1.9437  1.9537  0.0793
  753SOL     OW 2257   1.413   0.636   2.008  0.3350 -0.0639  0.7351
  753SOL    HW1 2258   1.395   0.736   2.001 -0.8809  1.1807  1.4558
  753SOL    HW2 2259   1.480   0.595   1.941  0.2057 -0.7549 -0.5808
  754SOL     OW 2260   1.879   2.246   1.825 -0.4177  0.3765 -0.2738
  754SOL    HW1 2261   1.830   2.331   1.861 -1.8891  0.3331  0.9515
  754SOL    HW2 2262   1.812   2.170   1.819  3.0731  3.7880 -0.0651
  755SOL     OW 2263   2.916   0.556   0.389  0.7117 -0.2959 -0.4280
  755SOL    HW1 2264   2.957   0.652   0.401 -0.5933 -0.1382  0.8459
  755SOL    HW2 2265   2.882   0.544   0.294 -0.8315 -1.0062 -1.4755
  756SOL     OW 2266   1.606   1.599   2.745  0.1369 -0.1501 -0.1688
  756SOL    HW1 2267   1.516   1.552   2.748 -0.3903 -2.1194  0.3143
  756SOL    HW2 2268   1.596   1.695   2.751  0.8696 -1.7036  0.7075
  757SOL     OW 2269   1.505   0.030   0.739 -0.5174  0.4431 -0.3291
  757SOL    HW1 2270   1.410   0.043   0.710  1.1401 -1.3779  1.8468
  757SOL    HW2 2271   1.560   3.119   0.661 -0.2919  0.1421  0.6867
  758SOL     OW 2272   0.292   0.294   1.370 -0.6418  0.0194 -0.3010
  758SOL    HW1 2273   0.226   0.226   1.339  0.3244  0.4727  2.6333
  758SOL    HW2 2274   0.303   0.377   1.308  1.1623  1.8631  0.1825
  759SOL     OW 2275   0.058   0.961   1.445  0.5190  0.0384 -0.0874
  759SOL    HW1 2276   0.099   0.872   1.423 -0.8537  0.3260 -1.2769
  759SOL    HW2 2277   0.045   1.026   1.364  0.0346  0.9745 -0.0231
  760SOL     OW 2278   2.263   0.890   1.005 -0.1987  0.0342 -0.2130
  760SOL    HW1 2279   2.336   0.942   0.959 -2.8277 -1.0711 -1.0220
  760SOL    HW2 2280   2.221   0.946   1.078 -0.0443 -0.6158  0.1557
  761SOL     OW 2281   1.292   0.888   0.530 -0.6981  0.5884 -0.0626
  761SOL    HW1 2282   1.304   0.793   0.571  2.8636  0.8467  2.0430
  761SOL    HW2 2283   1.196   0.920   0.529  2.2887  1.1877  1.1838
  762SOL     OW 2284   2.469   2.302   1.420 -0.4628 -1.1017  0.3724
  762SOL    HW1 2285   2.394   2.254   1.466 -1.1565  1.5220  1.9937
  762SOL    HW2 2286   2.446   2.400   1.389  3.4380 -0.0099  2.3926
  763SOL     OW 2287   1.606   1.416   1.981 -0.0541  0.6843  0.3459
  763SOL    HW1 2288   1.664   1.412   1.896  0.5288 -1.0576 -4.2262
  763SOL    HW2 2289   1.509   1.394   1.967  1.4201  2.1795 -3.2999
  764SOL     OW 2290   0.215   1.836   2.607 -0.0845 -0.1934 -0.5303
  764SOL    HW1 2291   0.155   1.770   2.555 -1.6690  1.0772  0.0983
  764SOL    HW2 2292   0.154   1.889   2.671 -1.8791  0.9723  2.1567
  765SOL     OW 2293   0.788   2.641   1.245  0.3174 -0.0104  0.5358
  765SOL    HW1 2294   0.694   2.610   1.264  2.8030  1.2966 -4.9887
  765SOL    HW2 2295   0.790   2.689   1.152  0.1674 -1.0170  1.0999
  766SOL     OW 2296   0.771   2.134   2.658 -0.1963 -0.5486 -0.1533
  766SOL    HW1 2297   0.852   2.095   2.710  0.2842  0.3344  0.5928
  766SOL    HW2 2298   0.687   2.116   2.713 -0.1806 -2.1612 -0.2456
  767SOL     OW 2299   1.913   0.268   2.419 -0.2688  0.0774 -0.0928
  767SOL    HW1 2300   1.968   0.338   2.364  0.3777 -1.6407  0.2003
  767SOL    HW2 2301   1.920   0.276   2.523 -0.2511  1.9675  0.9218
  768SOL     OW 2302   0.946   2.582   2.868  0.2598  0.3496 -0.4954
  768SOL    HW1 2303   0.996   2.619   2.793 -2.8474  1.0540  4.5685
  768SOL    HW2 2304   0.939   2.660   2.937 -0.2829 -1.2028  0.4180
  769SOL     OW 2305   0.032   2.705   1.034 -0.0847 -0.3574  0.3109
  769SOL    HW1 2306   3.102   2.767   1.094  1.2076  1.2647 -0.3355
  769SOL    HW2 2307   0.123   2.693   1.081 -0.6839  0.7658  1.0471
  770SOL     OW 2308   0.683   2.838   2.988 -0.4438 -0.0979  0.3828
  770SOL    HW1 2309   0.600   2.823   2.939  1.9937 -1.1041  2.2437
  770SOL    HW2 2310   0.763   2.851   2.927  1.6183  1.6519 -1.9348
  771SOL     OW 2311   0.970   2.407   2.545  0.5918 -0.5172  0.3811
  771SOL    HW1 2312   1.022   2.372   2.627  0.4509  1.6243 -1.8088
  771SOL    HW2 2313   0.925   2.328   2.497  0.6542 -0.9407 -1.2759
  772SOL     OW 2314   2.496   3.032   1.961  0.0528  0.4240 -0.1070
  772SOL    HW1 2315   2.455   2.950   1.926 -0.8009  2.2992  2.7659
  772SOL    HW2 2316   2.527   3.092   1.887  1.6996  1.9864 -0.5014
  773SOL     OW 2317   0.907   2.767   2.067 -0.3995 -0.0730 -0.0862
  773SOL    HW1 2318   0.950   2.679   2.042 -4.1731  1.8377 -1.0053
  773SOL    HW2 2319   0.926   2.782   2.167  0.2688  0.8787  4.4566
  774SOL     OW 2320   1.612   0.599   2.238  0.5411  0.2226  0.3482
  774SOL    HW1 2321   1.556   0.592   2.153 -1.7555 -0.1496 -2.7361
  774SOL    HW2 2322   1.618   0.507   2.283  2.1422  0.2928  0.2872
  775SOL     OW 2323   2.099   0.060   0.207 -0.5858  0.3295 -1.0146
  775SOL    HW1 2324   2.152   3.114   0.163 -0.5563 -0.1926 -1.0007
  775SOL    HW2 2325   2.011   0.017   0.235  0.9563 -0.5295 -0.0980
  776SOL     OW 2326   2.322   0.884   2.003 -0.1747 -0.2993 -0.3997
  776SOL    HW1 2327   2.260   0.832   1.946  3.6378  1.4962  0.0330
  776SOL    HW2 2328   2.295   0.983   2.004 -0.8585 -0.5932  0.7465
  777SOL     OW 2329   2.838   1.146   2.240  0.2249 -0.7096  0.4951
  777SOL    HW1 2330   2.906   1.072   2.220  2.0569  0.4255  0.7692
  777SOL    HW2 2331   2.759   1.145   2.174 -1.2309 -0.2953 -0.1577
  778SOL     OW 2332   2.446   0.518   2.013 -0.0386  0.6298 -0.3591
  778SOL    HW1 2333   2.505   0.578   1.961 -2.3732 -1.5403  0.3533
  778SOL    HW2 2334   2.474   0.428   1.984 -2.3704  0.8112  1.2386
  779SOL     OW 2335   3.097   3.122   3.018  0.5324 -0.9762 -0.3008
  779SOL    HW1 2336   0.039   3.129   2.946 -2.8814  0.9697  1.1896
  779SOL    HW2 2337   0.015   0.020   3.101 -0.3589 -1.6580 -1.5813
  780SOL     OW 2338   1.939   3.025   2.296  0.5297  0.3671  0.2150
  780SOL    HW1 2339   2.023   3.030   2.238 -0.7292 -0.4449  0.6919
  780SOL    HW2 2340   1.927   3.108   2.350  3.1082 -0.9066  0.4854
  781SOL     OW 2341   0.075   0.811   1.794  0.2444 -0.2684 -0.2286
  781SOL    HW1 2342   0.145   0.871   1.748  0.4822  1.6633 -2.7647
  781SOL    HW2 2343   0.114   0.755   1.874 -0.0480 -2.0170  3.4754
  782SOL     OW 2344   1.974   2.236   0.226  0.1219  0.2754 -0.3366
  782SOL    HW1 2345   2.041   2.176   0.180 -0.5298  2.8851  1.3964
  782SOL    HW2 2346   2.010   2.259   0.318 -1.5749 -0.1322 -1.6971
  783SOL     OW 2347   0.636   1.849   1.321  0.3336 -0.7359  0.4532
  783SOL    HW1 2348   0.613   1.945   1.289  0.1243  0.1298 -0.2980
  783SOL    HW2 2349   0.737   1.841   1.345  1.2786  1.1171  0.4955
  784SOL     OW 2350   2.039   0.503   2.332  0.0852  0.2072 -0.1219
  784SOL    HW1 2351   2.113   0.487   2.261 -0.6866 -0.3833  2.9875
  784SOL    HW2 2352   2.047   0.602   2.364  0.6327  3.8668  1.5490
  785SOL     OW 2353   0.062   0.358   0.920  0.3244  0.1293 -0.2352
  785SOL    HW1 2354   0.011   0.439   0.891  2.3877 -2.7514 -1.1392
  785SOL    HW2 2355   0.009   0.314   0.992  1.0258 -1.5723 -2.3373
  786SOL     OW 2356   1.896   2.982   0.206  0.1304 -0.1585  0.2963
  786SOL    HW1 2357   1.810   2.997   0.147  1.3236 -1.7494 -2.3717
  786SOL    HW2 2358   1.887   2.893   0.252 -0.0345  2.1427  0.0452
  787SOL     OW 2359   1.239   0.060   0.749 -0.0284 -0.2156  0.5005
  787SOL    HW1 2360   1.199   0.127   0.685  2.6265  2.7469  0.6079
  787SOL    HW2 2361   1.215   0.072   0.848 -0.1887 -0.8442 -1.0113
  788SOL     OW 2362   0.152   1.726   1.256 -0.0450  0.2626  0.7898
  788SOL    HW1 2363   0.092   1.773   1.189  1.8692  0.3194  1.4864
  788SOL    HW2 2364   0.248   1.758   1.233 -0.5242  0.1759  2.3798
  789SOL     OW 2365   2.931   0.508   2.094  0.4596 -0.0523  0.7190
  789SOL    HW1 2366   2.882   0.441   2.156  2.6000 -0.4605 -0.3702
  789SOL    HW2 2367   2.914   0.607   2.118  1.0269  1.2716  1.1814
  790SOL     OW 2368   0.645   0.686   2.860  0.3144  0.0298  0.3105
  790SOL    HW1 2369   0.665   0.637   2.771  2.7270 -0.8305 -1.7125
  790SOL    HW2 2370   0.723   0.755   2.872  2.5848  0.5986  0.6861
  791SOL     OW 2371   2.331   0.164   2.997  0.5065 -0.3458  0.4235
  791SOL    HW1 2372   2.354   0.118   3.085  1.2545  0.2075 -2.6794
  791SOL    HW2 2373   2.381   0.116   2.922 -0.7290 -0.5499 -2.0017
  792SOL     OW 2374   1.178   0.990   1.312 -0.1370  0.2155  0.8550
  792SOL    HW1 2375   1.136   0.941   1.230 -0.3474 -0.6220 -4.3600
  792SOL    HW2 2376   1.212   0.921   1.384 -1.5365 -0.6496  1.1156
  793SOL     OW 2377   2.857   0.159   1.509 -0.4206 -0.5258  0.0574
  793SOL    HW1 2378   2.875   0.265   1.516  2.5703  5.0288  1.3188
  793SOL    HW2 2379   2.820   0.139   1.416  0.0046 -0.1539  0.5989
  794SOL     OW 2380   3.119   3.084   2.228  0.0268 -0.0543  0.4670
  794SOL    HW1 2381   3.033   3.040   2.203  4.2237 -0.2517  2.7843
  794SOL    HW2 2382   3.109   0.056   2.220 -0.5780 -0.3885 -1.4468
  795SOL     OW 2383   0.570   2.090   2.842  0.2284  0.0130  0.3872
  795SOL    HW1 2384   0.608   2.177   2.880 -0.4882  0.6327 -1.1829
  795SOL    HW2 2385   0.554   2.021   2.914 -1.6030  3.1050  0.3062
  796SOL     OW 2386   1.965   0.642   2.749  0.1444 -0.1114  0.6729
  796SOL    HW1 2387   1.930   0.637   2.653 -0.3989  0.1291  0.2440
  796SOL    HW2 2388   1.891   0.675   2.811 -1.9618 -1.0733  0.8183
  797SOL     OW 2389   2.189   2.264   3.041  0.1472  0.3181 -0.2386
  797SOL    HW1 2390   2.290   2.264   3.017  0.6678  1.5653 -0.3031
  797SOL    HW2 2391   2.154   2.355   3.061  1.5602 -2.8777 -2.2880
  798SOL     OW 2392   2.954   0.826   1.398 -0.1219 -0.1609  0.3803
  798SOL    HW1 2393   3.046   0.871   1.403  0.5962 -0.6620  0.7322
  798SOL    HW2 2394   2.946   0.788   1.308 -0.4516  1.0321  2.8044
  799SOL     OW 2395   0.340   0.326   1.857 -0.2087 -0.2242  0.4746
  799SOL    HW1 2396   0.432   0.335   1.901 -0.0348 -0.6597  0.2961
  799SOL    HW2 2397   0.275   0.279   1.920  1.4392  0.7147 -1.9142
  800SOL     OW 2398   0.169   2.365   0.180  0.3651  0.4107 -0.7309
  800SOL    HW1 2399   0.158   2.411   0.271 -2.0310 -1.7294  2.5695
  800SOL    HW2 2400   0.193   2.264   0.194 -0.1092 -0.7222  2.6663
  801SOL     OW 2401   1.582   1.603   0.888  0.2976  0.6458  0.6322
  801SOL    HW1 2402   1.543   1.694   0.921 -1.2005 -0.2352 -0.8068
  801SOL    HW2 2403   1.631   1.551   0.960  0.1918 -1.3713  1.1040
  802SOL     OW 2404   0.822   0.613   0.224 -0.1217  0.4652  0.0990
  802SOL    HW1 2405   0.746   0.573   0.171  0.2297  0.2032 -2.0204
  802SOL    HW2 2406   0.804   0.710   0.250  2.8165 -1.3870 -1.7549
  803SOL     OW 2407   1.326   1.384   1.926  0.0145 -0.0755 -0.6233
  803SOL    HW1 2408   1.270   1.467   1.945  1.7506 -0.9329 -1.5021
  803SOL    HW2 2409   1.269   1.303   1.917 -0.4619  2.0773  0.7921
  804SOL     OW 2410   1.763   2.331   1.362 -0.0850  0.5756 -0.1949
  804SOL    HW1 2411   1.842   2.328   1.304 -0.2759 -0.5865 -0.0267
  804SOL    HW2 2412   1.747   2.419   1.408 -0.2396 -0.0033 -1.1891
  805SOL     OW 2413   0.044   2.193   2.591  0.2897 -0.2521 -0.2116
  805SOL    HW1 2414   0.049   2.126   2.510  1.2942  1.3032 -0.4689
  805SOL    HW2 2415   0.131   2.245   2.600  1.4703 -1.9731  2.6288
  806SOL     OW 2416   1.035   2.857   0.224 -0.4227 -0.5938 -0.7249
  806SOL    HW1 2417   0.946   2.882   0.176 -1.1324 -1.8843  2.4911
  806SOL    HW2 2418   1.086   2.935   0.266 -1.6403  0.4339  0.9140
  807SOL     OW 2419   2.487   1.015   2.901  0.6940 -0.3814  0.3581
  807SOL    HW1 2420   2.557   1.083   2.877 -1.4214 -0.0142  0.5258
  807SOL    HW2 2421   2.532   0.921   2.913  0.9849 -2.3558  2.6709
  808SOL     OW 2422   1.558   2.106   0.893  0.3285 -0.5190 -0.1830
  808SOL    HW1 2423   1.650   2.072   0.874 -0.6290  0.8998  1.1568
  808SOL    HW2 2424   1.528   2.174   0.824  0.2327  2.0769  0.3556
  809SOL     OW 2425   0.200   0.292   0.581  0.4432 -0.4506 -0.0735
  809SOL    HW1 2426   0.118   0.353   0.603 -0.0030  2.0577 -0.0679
  809SOL    HW2 2427   0.241   0.252   0.664 -1.0559  1.2852 -1.3789
  810SOL     OW 2428   1.394   1.376   0.175 -0.1682  0.0807  0.2505
  810SOL    HW1 2429   1.471   1.383   0.108 -0.2842 -0.2306  1.8689
  810SOL    HW2 2430   1.436   1.402   0.267 -1.4683 -0.1311  0.6541
  811SOL     OW 2431   1.469   2.841   1.248  0.0631  0.2047 -0.2381
  811SOL    HW1 2432   1.505   2.779   1.323 -1.5514 -1.6770  2.3814
  811SOL    HW2 2433   1.368   2.853   1.259 -0.4383  1.8038  2.0516
  812SOL     OW 2434   1.110   0.276   0.564 -0.4428 -0.1781  0.0434
  812SOL    HW1 2435   1.185   0.277   0.495 -1.5468  2.5450  0.7086
  812SOL    HW2 2436   1.119   0.355   0.629  0.4822  0.9467 -2.4529
  813SOL     OW 2437   1.188   3.038   2.256  0.0430 -0.3697 -0.0115
  813SOL    HW1 2438   1.153   2.948   2.227 -0.1810 -2.1379 -0.0884
  813SOL    HW2 2439   1.182   3.103   2.176 -2.4699  0.2304  0.2037
  814SOL     OW 2440   1.202   2.863   1.237  1.1268  0.4721 -0.2450
  814SOL    HW1 2441   1.161   2.809   1.311 -1.3906  1.8384  1.5912
  814SOL    HW2 2442   1.151   2.862   1.147  0.4007 -0.2728  0.8981
  815SOL     OW 2443   0.038   2.735   0.105 -0.0232  0.5984  0.1936
  815SOL    HW1 2444   3.102   2.781   0.041 -2.6510  2.9238 -0.3966
  815SOL    HW2 2445   3.120   2.663   0.159 -0.3593 -1.3759  0.4863
  816SOL     OW 2446   2.329   1.336   2.725 -0.2672  0.0573 -0.2790
  816SOL    HW1 2447   2.265   1.394   2.674  2.3665  1.2500  0.6708
  816SOL    HW2 2448   2.307   1.237   2.712 -0.8858 -1.5896  1.9014
  817SOL     OW 2449   2.145   2.136   2.410  0.5506 -0.2572  0.9847
  817SOL    HW1 2450   2.164   2.044   2.441 -1.1449 -1.0587 -3.7405
  817SOL    HW2 2451   2.124   2.214   2.477  1.4765  1.2083  0.2543
  818SOL     OW 2452   1.032   1.043   0.031 -0.5776  0.8037  0.0320
  818SOL    HW1 2453   1.107   1.097   0.071  0.0573 -1.4990 -1.0054
  818SOL    HW2 2454   1.014   1.059   3.059 -0.1563 -2.3811 -3.1147
  819SOL     OW 2455   1.846   1.592   0.217 -0.0212  0.3437 -0.4337
  819SOL    HW1 2456   1.834   1.510   0.162  1.3729  1.0411  0.5303
  819SOL    HW2 2457   1.789   1.590   0.301  1.8668 -0.7740  0.2524
  820SOL     OW 2458   0.303   0.804   0.546 -0.2422 -0.3448  0.2239
  820SOL    HW1 2459   0.331   0.763   0.631  1.3088  1.0897  0.4950
  820SOL    HW2 2460   0.253   0.734   0.483 -0.5710 -1.5937  1.2312
  821SOL     OW 2461   0.499   0.115   1.521  0.6676  0.1792  0.6567
  821SOL    HW1 2462   0.431   0.190   1.502 -1.7715 -0.2928 -0.7584
  821SOL    HW2 2463   0.490   0.028   1.469 -2.1374  0.6045 -0.1250
  822SOL     OW 2464   2.112   2.229   2.677 -0.5384 -0.4380 -0.2677
  822SOL    HW1 2465   2.092   2.323   2.724 -1.8455  2.8306 -1.4573
  822SOL    HW2 2466   2.023   2.196   2.641 -2.1584  0.3020 -1.6007
  823SOL     OW 2467   0.764   0.568   1.976 -0.2843  0.3375 -0.1622
  823SOL    HW1 2468   0.825   0.584   1.898  1.8652  2.1663  0.2057
  823SOL    HW2 2469   0.777   0.639   2.048 -0.5381 -1.0214 -2.9266
  824SOL     OW 2470   2.446   3.121   1.584 -0.2280 -0.4954  0.3205
  824SOL    HW1 2471   2.442   0.087   1.553  1.4084 -2.4971  3.0563
  824SOL    HW2 2472   2.349   3.085   1.603 -5.7234 -2.6343  0.1995
  825SOL     OW 2473   0.372   1.222   2.547  0.1854 -0.1192 -0.0129
  825SOL    HW1 2474   0.399   1.205   2.449  0.1463  0.9663  0.1440
  825SOL    HW2 2475   0.363   1.132   2.596  1.8402  0.5843  1.5523
  826SOL     OW 2476   1.641   0.460   2.837  0.0542 -0.0403 -0.0016
  826SOL    HW1 2477   1.628   0.512   2.750 -1.2217 -1.6565 -0.5833
  826SOL    HW2 2478   1.656   0.357   2.826  0.7302 -2.5023  0.3442
  827SOL     OW 2479   0.556   2.407   2.394  0.7681 -0.2003  0.1182
  827SOL    HW1 2480   0.501   2.329   2.359  0.9078 -0.8960  2.4943
  827SOL    HW2 2481   0.557   2.482   2.324  2.0610 -1.4149  0.3701
  828SOL     OW 2482   3.076   3.113   1.517  0.4238  0.2219  0.4568
  828SOL    HW1 2483   3.126   0.008   1.603  2.5283 -0.9428 -0.3538
  828SOL    HW2 2484   2.999   0.047   1.509  2.2464  0.1792 -0.8985
  829SOL     OW 2485   1.503   1.569   1.601 -0.1885  0.3828 -0.2287
  829SOL    HW1 2486   1.443   1.486   1.621  2.1851  0.5155 -0.6858
  829SOL    HW2 2487   1.594   1.555   1.637  0.7707 -2.2465 -0.3312
  830SOL     OW 2488   0.864   1.066   1.596  0.2905 -0.2480 -0.3666
  830SOL    HW1 2489   0.834   1.013   1.515  1.4534 -1.3252  0.4675
  830SOL    HW2 2490   0.792   1.074   1.668  1.1341  0.1788 -0.6390
  831SOL     OW 2491   2.880   1.713   0.428 -0.1793  0.3909  0.1686
  831SOL    HW1 2492   2.898   1.741   0.336 -0.3455  2.6257  0.1167
  831SOL    HW2 2493   2.921   1.784   0.490 -2.1242  1.8882  1.2313
  832SOL     OW 2494   1.237   2.677   0.205  0.2490 -0.3729  0.3013
  832SOL    HW1 2495   1.158   2.744   0.197 -0.5789 -2.0370 -0.0608
  832SOL    HW2 2496   1.203   2.591   0.242  0.1204 -0.7233 -0.4176
  833SOL     OW 2497   3.041   0.411   1.514  0.4535 -0.6254 -0.2969
  833SOL    HW1 2498   3.102   0.346   1.560 -1.0507  0.9404  0.3697
  833SOL    HW2 2499   3.040   0.495   1.572  0.9034  1.0665 -1.5485
  834SOL     OW 2500   2.939   0.719   1.136 -0.0193 -0.1241  0.0570
  834SOL    HW1 2501   3.040   0.702   1.122  3.3494 -2.5238 -0.5807
  834SOL    HW2 2502   2.906   0.803   1.086 -0.6400  2.4003  0.7880
  835SOL     OW 2503   2.643   3.020   0.395 -0.2761  0.0447  0.3331
  835SOL    HW1 2504   2.705   3.085   0.435 -1.7988 -1.3795 -2.5414
  835SOL    HW2 2505   2.693   2.952   0.331  1.4927 -1.6287 -1.3142
  836SOL     OW 2506   1.094   2.119   2.824  0.1359  0.2419 -0.0319
  836SOL    HW1 2507   1.040   2.064   2.891  0.5569 -0.6427 -1.0789
  836SOL    HW2 2508   1.085   2.073   2.732  0.8300  1.4487 -0.5517
  837SOL     OW 2509   1.689   1.850   0.099 -0.6673  0.2053  0.4355
  837SOL    HW1 2510   1.769   1.786   0.118 -0.2976  0.0061  0.4372
  837SOL    HW2 2511   1.612   1.806   0.058  2.6507  1.8804 -1.1718
  838SOL     OW 2512   2.540   0.683   2.413  0.4442  0.1085 -0.0110
  838SOL    HW1 2513   2.636   0.718   2.415 -0.3853 -1.7481 -1.3699
  838SOL    HW2 2514   2.489   0.749   2.357  0.8069 -2.4097  1.9011
  839SOL     OW 2515   0.735   0.981   2.341 -0.1093 -0.3732  0.1873
  839SOL    HW1 2516   0.834   0.995   2.348 -2.4230  0.9733  1.6033
  839SOL    HW2 2517   0.692   1.045   2.403  0.0171  0.5189 -1.6979
  840SOL     OW 2518   0.831   0.880   2.891 -0.3396 -0.1481 -0.3179
  840SOL    HW1 2519   0.842   0.978   2.874  0.1140 -0.4535  0.1597
  840SOL    HW2 2520   0.908   0.842   2.942  0.5305 -0.0866  1.2766
  841SOL     OW 2521   0.915   2.620   0.797  0.4977 -0.2591  0.2343
  841SOL    HW1 2522   0.948   2.679   0.720 -1.6509  1.4217  0.3417
  841SOL    HW2 2523   0.827   2.568   0.781 -2.2478 -0.9820  0.1390
  842SOL     OW 2524   0.389   0.657   0.790 -0.3230  0.1170  0.1470
  842SOL    HW1 2525   0.378   0.736   0.856  1.9802 -1.2428 -0.9843
  842SOL    HW2 2526   0.409   0.568   0.838  0.0530 -3.0377  0.1313
  843SOL     OW 2527   0.512   1.145   1.541 -0.7065  0.0214 -0.1113
  843SOL    HW1 2528   0.504   1.056   1.494 -2.0570  2.2221 -1.4795
  843SOL    HW2 2529   0.558   1.136   1.631 -0.8770 -2.4794  1.7355
  844SOL     OW 2530   2.282   2.765   2.610 -0.0170 -0.2064  0.3549
  844SOL    HW1 2531   2.353   2.836   2.629 -0.5454 -0.5306  2.0996
  844SOL    HW2 2532   2.298   2.667   2.621 -0.7123 -1.2166  0.1425
  845SOL     OW 2533   2.179   3.037   1.553 -0.0498  0.5166 -0.0681
  845SOL    HW1 2534   2.124   3.039   1.462 -1.1339 -1.6624 -2.4422
  845SOL    HW2 2535   2.186   2.942   1.597 -1.7120 -0.2381 -0.6897
  846SOL     OW 2536   1.969   0.936   2.527 -0.4458  0.0559 -0.2332
  846SOL    HW1 2537   2.053   0.878   2.551  2.0961  0.4828  0.8090
  846SOL    HW2 2538   1.920   0.928   2.611 -0.1955 -1.4309 -2.5837
  847SOL     OW 2539   2.388   2.791   1.862  0.0689 -0.9334  0.0528
  847SOL    HW1 2540   2.331   2.806   1.779  2.5010 -2.5582  0.6522
  847SOL    HW2 2541   2.470   2.742   1.830  1.0237  1.0195  1.3275
  848SOL     OW 2542   2.857   2.906   0.201  0.3827 -0.6755  0.5644
  848SOL    HW1 2543   2.905   2.948   0.281  0.5549  1.8357 -0.7659
  848SOL    HW2 2544   2.911   2.903   0.114 -0.4056  2.2212 -1.8948
  849SOL     OW 2545   0.331   3.084   0.997  0.2525  0.3363 -0.0254
  849SOL    HW1 2546   0.340   2.992   0.953 -1.0764  1.0871 -0.9662
  849SOL    HW2 2547   0.314   3.068   1.097  0.7765  1.3127  0.2678
  850SOL     OW 2548   0.407   2.160   0.577  0.3702 -0.0735 -0.0646
  850SOL    HW1 2549   0.449   2.234   0.521  2.9365 -2.4837  2.3976
  850SOL    HW2 2550   0.418   2.077   0.521  1.1855  1.6235 -1.1126
  851SOL     OW 2551   2.037   0.732   3.125  0.6562 -0.0494  0.1514
  851SOL    HW1 2552   2.134   0.733   0.018 -0.3310 -0.4920  0.6193
  851SOL    HW2 2553   1.991   0.788   0.070  0.5807  1.2031  0.1413
  852SOL     OW 2554   1.848   2.215   2.542 -0.4708  0.0937 -0.2180
  852SOL    HW1 2555   1.817   2.159   2.461 -0.1300  0.9173  0.1012
  852SOL    HW2 2556   1.847   2.319   2.530  0.3312  2.7753  0.8091
  853SOL     OW 2557   0.034   1.951   0.358  0.2956 -0.0919  0.4068
  853SOL    HW1 2558   3.091   1.907   0.295 -3.0140 -1.7269 -0.0060
  853SOL    HW2 2559   0.099   2.005   0.293  0.9720 -2.1600  0.5418
  854SOL     OW 2560   1.840   0.709   2.138  0.2477 -0.1623  0.3831
  854SOL    HW1 2561   1.753   0.686   2.191 -2.6493 -1.5136  1.6261
  854SOL    HW2 2562   1.924   0.709   2.197  1.5121  0.8584  0.7958
  855SOL     OW 2563   0.481   2.712   0.085 -0.4752  0.4357  0.1320
  855SOL    HW1 2564   0.566   2.730   0.031  0.7224 -0.6649 -3.1340
  855SOL    HW2 2565   0.411   2.653   0.038 -1.8952  1.2419  0.0735
  856SOL     OW 2566   0.376   2.786   2.501  0.2613 -0.5406 -0.2793
  856SOL    HW1 2567   0.347   2.874   2.459 -1.9034 -1.5294  1.1638
  856SOL    HW2 2568   0.471   2.757   2.466  0.1280  1.2860 -0.7652
  857SOL     OW 2569   0.850   0.415   1.635 -0.2785  0.2334  0.0770
  857SOL    HW1 2570   0.865   0.433   1.533  1.2128  0.9233 -5.1842
  857SOL    HW2 2571   0.758   0.375   1.650  2.9485 -1.2593  0.1057
  858SOL     OW 2572   0.408   2.053   2.025  0.5223 -0.2662 -0.3364
  858SOL    HW1 2573   0.451   1.962   2.037 -2.2472 -0.9654  1.7730
  858SOL    HW2 2574   0.404   2.080   1.925 -0.2820 -3.5223 -0.2959
  859SOL     OW 2575   1.890   2.531   1.715  0.7115  0.3945  0.2772
  859SOL    HW1 2576   1.848   2.492   1.803 -2.2796  0.2206 -0.0908
  859SOL    HW2 2577   1.981   2.496   1.693 -0.1976  0.7611  0.9125
  860SOL     OW 2578   1.613   0.695   0.554  0.0239 -0.0470 -0.3636
  860SOL    HW1 2579   1.570   0.651   0.633 -0.2400  1.6103 -1.2601
  860SOL    HW2 2580   1.584   0.795   0.544 -3.4982  0.9371 -2.0350
  861SOL     OW 2581   3.054   0.600   0.843 -0.1010 -0.8745  0.0318
  861SOL    HW1 2582   3.040   0.691   0.793 -1.3148  1.2886  0.8445
  861SOL    HW2 2583   2.968   0.566   0.890  0.5551 -0.0453  0.2441
  862SOL     OW 2584   1.896   0.857   1.402 -0.4174  0.7848 -0.1637
  862SOL    HW1 2585   1.876   0.795   1.482  0.1388  1.4913  3.5827
  862SOL    HW2 2586   1.895   0.806   1.315 -0.1668  0.6608  2.5340
  863SOL     OW 2587   0.577   1.345   1.345 -0.3582 -0.4486 -0.1189
  863SOL    HW1 2588   0.569   1.277   1.420  1.6053  1.0293 -3.6642
  863SOL    HW2 2589   0.669   1.344   1.302  0.8628  0.1834  1.6874
  864SOL     OW 2590   2.888   2.974   2.135  0.3514 -0.0140  0.9418
  864SOL    HW1 2591   2.940   2.883   2.127  1.2792 -1.4615 -0.3793
  864SOL    HW2 2592   2.827   2.985   2.054 -0.1437 -1.6188 -0.0999
  865SOL     OW 2593   1.026   0.446   2.287 -0.2680 -0.0543  0.1010
  865SOL    HW1 2594   0.987   0.538   2.307 -1.7369  0.9672 -0.4149
  865SOL    HW2 2595   1.094   0.449   2.209 -0.8119 -0.9982  3.2146
  866SOL     OW 2596   2.373   2.858   0.294 -0.4180  0.3753  0.5124
  866SOL    HW1 2597   2.337   2.803   0.369  1.2755 -1.1537 -1.5165
  866SOL    HW2 2598   2.445   2.931   0.318 -1.8150  2.9202 -0.0156
  867SOL     OW 2599   2.812   2.836   0.723  0.3406  0.2435 -0.1324
  867SOL    HW1 2600   2.806   2.736   0.698 -0.5775 -2.5765 -2.7606
  867SOL    HW2 2601   2.907   2.858   0.746 -0.5768 -0.6217 -1.3923
  868SOL     OW 2602   1.889   1.464   2.799 -0.0807  0.2335 -0.4529
  868SOL    HW1 2603   1.914   1.549   2.853  0.9322  2.1820 -0.7661
  868SOL    HW2 2604   1.796   1.480   2.763 -0.0914  1.4908  0.8902
  869SOL     OW 2605   2.764   2.548   0.676 -0.0690 -0.1890 -0.0293
  869SOL    HW1 2606   2.813   2.471   0.633 -1.0867  1.2360  0.4593
  869SOL    HW2 2607   2.671   2.553   0.654  4.7687  1.3251  1.8959
  870SOL     OW 2608   2.724   2.102   0.481 -0.0150 -0.4434 -0.4100
  870SOL    HW1 2609   2.655   2.111   0.555 -0.1805 -0.8117  0.6793
  870SOL    HW2 2610   2.784   2.022   0.505 -0.7273 -0.7534 -1.5124
  871SOL     OW 2611   0.432   1.323   1.118 -0.2757  0.4941  0.1341
  871SOL    HW1 2612   0.483   1.341   1.207 -2.8513  1.7030 -0.3838
  871SOL    HW2 2613   0.343   1.378   1.121 -2.8726  3.1924  1.4350
  872SOL     OW 2614   1.226   1.793   2.454  0.3798 -0.8254  0.4240
  872SOL    HW1 2615   1.171   1.712   2.435  0.1666  2.3924  0.2846
  872SOL    HW2 2616   1.276   1.823   2.371 -0.5130  0.1477 -2.1869
  873SOL     OW 2617   0.445   2.719   1.974 -0.3158 -0.5085  0.1650
  873SOL    HW1 2618   0.513   2.793   1.999 -1.5287  0.4462  1.3548
  873SOL    HW2 2619   0.399   2.735   1.882  2.4912  0.3534 -0.3111
  874SOL     OW 2620   0.670   0.461   1.376 -0.0464  0.2814  0.1446
  874SOL    HW1 2621   0.585   0.511   1.392  2.8155 -1.1209  0.3077
  874SOL    HW2 2622   0.746   0.525   1.400 -1.3098  0.6031 -0.1733
  875SOL     OW 2623   3.013   0.230   1.083 -0.1531  0.2617 -0.1700
  875SOL    HW1 2624   2.991   0.298   1.154 -0.9313 -0.5831 -2.2449
  875SOL    HW2 2625   2.927   0.221   1.031  3.2766  0.1647 -2.1547
  876SOL     OW 2626   0.571   1.334   0.287 -0.2555 -0.0666 -0.1800
  876SOL    HW1 2627   0.539   1.256   0.229  0.3862  1.9110  1.5938
  876SOL    HW2 2628   0.603   1.406   0.228  2.8430  0.5814 -1.7155
  877SOL     OW 2629   1.082   0.902   1.647  0.3644  0.0754  0.4132
  877SOL    HW1 2630   1.149   0.854   1.586 -0.9372 -0.3572  2.5432
  877SOL    HW2 2631   1.031   0.982   1.610  2.4552 -0.7614 -0.6415
  878SOL     OW 2632   2.341   2.244   0.452  0.0806  0.7089 -0.6070
  878SOL    HW1 2633   2.347   2.177   0.376  1.2375  0.4438  0.6723
  878SOL    HW2 2634   2.418   2.216   0.518  1.6272 -1.0333 -0.3445
  879SOL     OW 2635   2.688   1.782   1.691  0.0363 -0.2980  0.0056
  879SOL    HW1 2636   2.778   1.833   1.694  1.9609  0.7437  1.7111
  879SOL    HW2 2637   2.687   1.719   1.610 -0.3841 -0.2757 -1.4121
  880SOL     OW 2638   1.667   2.471   0.635  0.0463  0.4537  0.0359
  880SOL    HW1 2639   1.646   2.500   0.730  0.2957 -0.1781  0.2514
  880SOL    HW2 2640   1.626   2.380   0.611  1.6392 -0.6099 -0.8632
  881SOL     OW 2641   0.445   2.370   0.436 -0.0051  0.3362  0.4686
  881SOL    HW1 2642   0.457   2.345   0.336  0.7494 -0.8973 -0.1855
  881SOL    HW2 2643   0.431   2.471   0.451  1.4860  0.1897  1.6927
  882SOL     OW 2644   2.053   0.635   0.645 -0.5087 -0.0715  0.2312
  882SOL    HW1 2645   2.090   0.550   0.685  0.5729  0.5572  0.2486
  882SOL    HW2 2646   2.109   0.712   0.682  3.4077  1.2240  1.9091
  883SOL     OW 2647   1.428   1.021   1.139 -0.1928  0.5210  0.1136
  883SOL    HW1 2648   1.370   0.939   1.159 -2.1611  0.0608 -0.7124
  883SOL    HW2 2649   1.454   1.019   1.042 -0.1810 -1.4706  0.3088
  884SOL     OW 2650   2.675   3.019   0.015 -0.1334  0.3579  0.4125
  884SOL    HW1 2651   2.726   2.993   0.103  1.5776 -1.9148  3.9316
  884SOL    HW2 2652   2.729   3.090   3.096 -1.9627  2.1567 -0.3639
  885SOL     OW 2653   1.190   1.371   2.735 -0.1351 -0.2590  0.0569
  885SOL    HW1 2654   1.182   1.339   2.831 -0.6477  1.8325 -2.7603
  885SOL    HW2 2655   1.200   1.472   2.730 -0.3702 -0.8935 -0.6576
  886SOL     OW 2656   1.413   1.967   2.618 -0.2001  0.2005  0.6373
  886SOL    HW1 2657   1.340   1.919   2.567 -1.6661  0.9424 -3.5666
  886SOL    HW2 2658   1.400   2.066   2.617 -1.1492  2.3604  0.7086
  887SOL     OW 2659   1.207   0.348   1.294  1.1144  0.1043 -0.6396
  887SOL    HW1 2660   1.257   0.378   1.213 -3.2983  1.7183  3.0545
  887SOL    HW2 2661   1.138   0.416   1.327  0.9364 -1.6431  0.3355
  888SOL     OW 2662   2.430   0.569   1.684  0.2117  0.1948 -0.0202
  888SOL    HW1 2663   2.440   0.645   1.755 -0.5931 -0.0526 -1.0760
  888SOL    HW2 2664   2.353   0.504   1.701 -0.6101 -1.5023 -2.8289
  889SOL     OW 2665   0.304   2.726   0.673 -0.2256 -0.1063 -0.3738
  889SOL    HW1 2666   0.389   2.669   0.691 -0.6202 -1.3469 -1.8032
  889SOL    HW2 2667   0.219   2.670   0.674  0.1363 -0.6916 -1.8961
  890SOL     OW 2668   1.916   2.027   0.534 -0.1581  0.3671 -0.1796
  890SOL    HW1 2669   1.961   2.115   0.512  0.4984 -1.7346 -0.9104
  890SOL    HW2 2670   1.840   2.002   0.472  2.7210  2.2045  4.5938
  891SOL     OW 2671   3.094   0.962   3.007 -0.6837 -0.2127 -0.7134
  891SOL    HW1 2672   0.054   0.906   3.014 -1.0572 -1.6899  0.5156
  891SOL    HW2 2673   3.106   1.054   2.973 -1.8300 -3.1315  2.7446
  892SOL     OW 2674   2.897   2.532   1.301 -0.0921 -0.6746  0.4945
  892SOL    HW1 2675   2.885   2.431   1.297  2.2823  2.4229 -0.2360
  892SOL    HW2 2676   2.808   2.583   1.296 -2.3871  2.2789 -1.0027
  893SOL     OW 2677   1.362   0.439   1.065  0.3449  0.2264 -0.3225
  893SOL    HW1 2678   1.410   0.409   0.981 -0.6474  0.2469  0.0538
  893SOL    HW2 2679   1.385   0.536   1.095 -0.4241  3.7785 -0.9694
  894SOL     OW 2680   2.820   0.522   0.954 -0.7281 -0.3797  0.2053
  894SOL    HW1 2681   2.777   0.433   0.963 -0.6182  2.4142  2.2776
  894SOL    HW2 2682   2.820   0.580   1.035  1.6176  2.4788 -0.7374
  895SOL     OW 2683   1.796   1.299   2.443 -0.1552 -0.2703 -0.1312
  895SOL    HW1 2684   1.767   1.396   2.472 -2.3079  0.7008  0.6070
  895SOL    HW2 2685   1.742   1.279   2.355 -0.7416 -0.4474 -0.7726
  896SOL     OW 2686   1.633   0.491   1.578 -0.5449 -0.7181  0.3791
  896SOL    HW1 2687   1.622   0.479   1.678 -1.1559 -0.2278 -1.4001
  896SOL    HW2 2688   1.580   0.420   1.522 -0.3346 -0.2440  0.2538
  897SOL     OW 2689   0.562   1.602   1.748  0.1508 -0.5695 -0.0620
  897SOL    HW1 2690   0.611   1.664   1.803 -1.6754 -1.5956 -1.0310
  897SOL    HW2 2691   0.571   1.629   1.652 -2.6226 -2.1332  1.5619
  898SOL     OW 2692   2.038   2.724   2.131  0.3874  0.3599 -0.2033
  898SOL    HW1 2693   1.958   2.769   2.181 -1.0224 -0.0991  1.5771
  898SOL    HW2 2694   2.069   2.647   2.183 -1.1080  1.8947 -0.0325
  899SOL     OW 2695   1.317   1.722   1.097  0.0830  0.0528 -0.6744
  899SOL    HW1 2696   1.258   1.637   1.071 -3.0783 -1.0169 -0.9580
  899SOL    HW2 2697   1.258   1.795   1.140 -0.1541  0.4685 -2.4395
  900SOL     OW 2698   1.407   2.273   2.550 -0.3577  0.9281  0.0527
  900SOL    HW1 2699   1.348   2.347   2.577  1.9012 -0.3907  0.8406
  900SOL    HW2 2700   1.418   2.267   2.449  1.5468 -0.0787  1.4687
  901SOL     OW 2701   1.033   1.673   2.282  0.3077 -0.5573 -0.0809
  901SOL    HW1 2702   1.013   1.603   2.209 -0.3916  0.4109 -2.3058
  901SOL    HW2 2703   0.948   1.717   2.327 -0.1278  0.4514  0.1269
  902SOL     OW 2704   2.414   1.783   0.456  0.5800 -0.2017  0.3380
  902SOL    HW1 2705   2.425   1.708   0.390 -1.2334  2.0002  2.2303
  902SOL    HW2 2706   2.491   1.802   0.508 -1.3523  0.8244  0.2298
  903SOL     OW 2707   2.141   1.812   0.429  0.3950 -0.0797 -0.6017
  903SOL    HW1 2708   2.234   1.816   0.469  3.2828  1.2881 -2.0650
  903SOL    HW2 2709   2.090   1.895   0.450  1.5503 -2.5404 -0.0590
  904SOL     OW 2710   0.902   0.708   2.385  0.0377 -0.4125 -0.2044
  904SOL    HW1 2711   0.924   0.810   2.394 -1.8822  3.5168  1.1092
  904SOL    HW2 2712   0.815   0.691   2.337  1.2868  1.6396 -1.4789
  905SOL     OW 2713   2.907   0.187   0.711 -0.0079 -0.1907 -0.0948
  905SOL    HW1 2714   2.828   0.234   0.755  1.1081  0.7197  1.1017
  905SOL    HW2 2715   2.983   0.253   0.699 -0.3182  0.3428  0.7904
  906SOL     OW 2716   2.912   1.908   0.592 -0.1339  0.3287 -0.3610
  906SOL    HW1 2717   2.995   1.966   0.603  0.6054 -1.1028  1.5531
  906SOL    HW2 2718   2.877   1.862   0.680 -1.9937  0.0444 -1.0114
  907SOL     OW 2719   1.324   0.329   0.398  0.6439 -0.0510  0.3843
  907SOL    HW1 2720   1.404   0.386   0.398 -3.8560 -2.6967 -1.6888
  907SOL    HW2 2721   1.278   0.319   0.302 -1.5813  0.1592 -2.3632
  908SOL     OW 2722   1.804   2.895   1.569 -0.5076  0.1344  0.4367
  908SOL    HW1 2723   1.839   2.810   1.519  2.9207 -0.4834  2.6314
  908SOL    HW2 2724   1.747   2.872   1.648 -0.7900  1.3762  0.1927
  909SOL     OW 2725   2.684   0.788   1.483 -0.3834 -0.6256 -0.2210
  909SOL    HW1 2726   2.782   0.793   1.454  1.3795 -0.9503  2.3382
  909SOL    HW2 2727   2.621   0.855   1.440 -1.3383 -2.6633 -3.2759
  910SOL     OW 2728   1.192   3.009   2.522 -0.2941 -0.4298 -0.3204
  910SOL    HW1 2729   1.222   2.909   2.536  1.7493 -2.5444 -0.1497
  910SOL    HW2 2730   1.179   3.023   2.422  1.6530  0.4254  0.3510
  911SOL     OW 2731   2.224   1.145   2.013  0.0756  0.1806  0.4837
  911SOL    HW1 2732   2.221   1.181   2.107  2.7427  0.9341 -0.7088
  911SOL    HW2 2733   2.229   1.219   1.942  1.3082 -2.1201  2.4235
  912SOL     OW 2734   2.691   2.255   1.573 -0.4972 -0.4856 -0.3343
  912SOL    HW1 2735   2.765   2.202   1.528  0.8179 -2.8734  1.3393
  912SOL    HW2 2736   2.614   2.262   1.510 -1.0244 -0.4531 -0.4283
  913SOL     OW 2737   2.649   2.699   1.302  0.3734  0.2208  0.0988
  913SOL    HW1 2738   2.671   2.725   1.400 -1.5828  1.9525  1.0026
  913SOL    HW2 2739   2.693   2.772   1.240  2.1845  2.5358 -2.4425
  914SOL     OW 2740   2.416   1.866   1.312 -0.6833  0.4404  0.2624
  914SOL    HW1 2741   2.392   1.765   1.312  3.8879 -2.3819 -0.7347
  914SOL    HW2 2742   2.384   1.898   1.407 -2.7391  1.6181  2.6069
  915SOL     OW 2743   1.227   2.127   1.332 -0.1479 -0.3472  0.4526
  915SOL    HW1 2744   1.128   2.139   1.337  0.3209  1.6962 -1.3039
  915SOL    HW2 2745   1.259   2.087   1.417  1.8950  1.2697 -1.5887
  916SOL     OW 2746   2.997   2.877   1.163 -0.3449 -0.6866  0.1343
  916SOL    HW1 2747   3.044   2.959   1.116  0.0567  0.2738  0.3553
  916SOL    HW2 2748   2.895   2.892   1.167 -0.9346  0.4112 -0.2211
  917SOL     OW 2749   2.559   1.287   2.602  0.1923  0.0535  0.0585
  917SOL    HW1 2750   2.607   1.248   2.683 -0.6895  0.4639  0.7336
  917SOL    HW2 2751   2.477   1.342   2.632  1.2358  0.9212  0.7422
  918SOL     OW 2752   1.774   2.055   2.326  0.0093  0.2595 -0.3742
  918SOL    HW1 2753   1.854   2.006   2.285 -1.9387  1.6234 -0.5866
  918SOL    HW2 2754   1.738   2.004   2.408  1.3315  1.2720  1.1104
  919SOL     OW 2755   1.762   2.012   1.795  0.0836 -0.1305  0.1785
  919SOL    HW1 2756   1.685   1.986   1.852  3.5923  0.2867 -0.4320
  919SOL    HW2 2757   1.806   1.940   1.749 -1.0722  4.5325  0.3092
  920SOL     OW 2758   0.349   0.157   2.980 -0.0393  0.0300  0.6938
  920SOL    HW1 2759   0.425   0.225   2.966  0.7365 -0.6151 -1.7088
  920SOL    HW2 2760   0.355   0.106   3.068  0.8129 -2.5028  1.4292
  921SOL     OW 2761   2.487   0.244   2.467  0.4060  0.6583  0.2213
  921SOL    HW1 2762   2.577   0.200   2.451 -3.0773  2.5624  0.4955
  921SOL    HW2 2763   2.464   0.314   2.403  1.0829 -1.2724 -0.3101
  922SOL     OW 2764   2.263   1.568   1.694  0.0936  0.0072  0.6580
  922SOL    HW1 2765   2.309   1.652   1.722 -0.8859 -2.7614 -1.9812
  922SOL    HW2 2766   2.181   1.579   1.634  0.5782 -2.6379  1.3641
  923SOL     OW 2767   0.722   2.022   0.368 -0.3359 -0.3225  0.1441
  923SOL    HW1 2768   0.731   2.082   0.284 -0.8218  0.8717 -2.1466
  923SOL    HW2 2769   0.810   1.971   0.382  1.7960  0.6569 -0.3148
  924SOL     OW 2770   1.447   0.493   3.027  0.2009  0.0678 -0.2911
  924SOL    HW1 2771   1.467   0.560   3.099 -0.4241 -2.5951  1.2267
  924SOL    HW2 2772   1.528   0.482   2.964  0.9464 -1.0308  1.2558
  925SOL     OW 2773   2.684   1.365   0.801  0.5040 -0.3090  0.0288
  925SOL    HW1 2774   2.604   1.354   0.739  0.3217  0.4679 -1.7693
  925SOL    HW2 2775   2.649   1.418   0.884 -0.2565  1.4834  0.9128
  926SOL     OW 2776   2.980   0.870   0.759  0.2208  0.0322  0.1307
  926SOL    HW1 2777   3.021   0.961   0.765 -0.0673 -3.1407 -0.3249
  926SOL    HW2 2778   2.879   0.879   0.752 -0.7741 -0.6589  0.8030
  927SOL     OW 2779   0.635   1.541   0.500 -0.1821 -0.1161 -0.1369
  927SOL    HW1 2780   0.610   1.444   0.482  1.6526 -1.3745  0.2105
  927SOL    HW2 2781   0.728   1.559   0.538  4.0112  0.0784 -0.3991
  928SOL     OW 2782   0.028   0.002   2.657  0.4264  0.7591  0.0839
  928SOL    HW1 2783   0.079   3.103   2.738  1.1827 -2.0045 -0.5923
  928SOL    HW2 2784   0.066   0.084   2.611 -0.0620 -1.0377 -0.5983
  929SOL     OW 2785   2.711   0.123   1.289  0.0077  0.2345  0.0668
  929SOL    HW1 2786   2.650   0.206   1.275 -2.3977  4.1446 -1.9096
  929SOL    HW2 2787   2.713   0.072   1.201 -0.0632 -0.0422 -1.1644
  930SOL     OW 2788   2.069   2.177   1.635  0.0340  0.1329 -0.3631
  930SOL    HW1 2789   1.999   2.213   1.704 -2.9555  1.5361 -0.3929
  930SOL    HW2 2790   2.061   2.078   1.634  0.0460  0.0233  1.0761
  931SOL     OW 2791   1.693   0.864   0.881  0.5956 -0.0640  0.1407
  931SOL    HW1 2792   1.668   0.771   0.852 -0.2824  1.5469  0.9782
  931SOL    HW2 2793   1.786   0.869   0.928  0.7106  0.9142  0.0776
  932SOL     OW 2794   2.754   1.105   1.248 -0.3811 -0.2855 -0.1743
  932SOL    HW1 2795   2.654   1.091   1.260  1.0904 -1.4074 -2.3183
  932SOL    HW2 2796   2.796   1.045   1.182 -2.7852  1.4925  2.3139
  933SOL     OW 2797   2.416   1.792   1.758  0.2886  0.1344  0.7833
  933SOL    HW1 2798   2.364   1.838   1.682 -0.5009 -3.5138  1.6928
  933SOL    HW2 2799   2.517   1.788   1.739  1.8311 -0.1309  1.2650
  934SOL     OW 2800   1.637   0.038   0.977  0.2774  0.0153  0.3641
  934SOL    HW1 2801   1.579   0.021   0.894  0.5842 -1.6469  0.0793
  934SOL    HW2 2802   1.728   0.063   0.955 -3.8838 -0.5968  1.3400
  935SOL     OW 2803   3.043   1.397   1.132 -0.0658  0.2787  0.0558
  935SOL    HW1 2804   3.006   1.398   1.041 -2.3570  0.5116  0.3041
  935SOL    HW2 2805   3.032   1.304   1.165  0.6489 -0.7988 -0.5647
  936SOL     OW 2806   2.900   0.970   1.051 -0.5872  0.0185 -0.2431
  936SOL    HW1 2807   2.830   1.017   0.986 -2.2889  3.8065 -3.3099
  936SOL    HW2 2808   2.996   1.000   1.041 -0.2606 -0.4803  0.5217
  937SOL     OW 2809   1.597   2.740   0.811 -0.5164  0.3773 -0.0128
  937SOL    HW1 2810   1.545   2.763   0.726 -1.0928  0.0804  1.6590
  937SOL    HW2 2811   1.573   2.640   0.833 -0.0009 -3.6502  0.9691
  938SOL     OW 2812   3.000   2.545   0.822  0.8432 -0.0027 -0.2898
  938SOL    HW1 2813   2.915   2.573   0.774  0.6688  1.7349 -0.0382
  938SOL    HW2 2814   3.043   2.631   0.855  0.0817  2.0425  0.7015
  939SOL     OW 2815   0.918   2.012   3.007  0.0967 -0.2017 -0.2550
  939SOL    HW1 2816   0.969   1.962   3.084  0.3653 -0.5073 -0.2986
  939SOL    HW2 2817   0.898   2.107   3.026  0.3364 -3.4956 -2.6697
  940SOL     OW 2818   2.848   2.843   2.821  0.6874  0.4141  0.5542
  940SOL    HW1 2819   2.937   2.851   2.771 -0.7943  0.0948  1.3734
  940SOL    HW2 2820   2.778   2.787   2.767  0.7957 -1.9687 -2.3760
  941SOL     OW 2821   1.468   2.905   3.065  0.2938  0.0106  0.6198
  941SOL    HW1 2822   1.515   2.985   3.102 -1.3271  0.5818 -1.4852
  941SOL    HW2 2823   1.508   2.823   3.109 -0.5154  0.5708 -1.5465
  942SOL     OW 2824   1.799   1.772   1.630 -0.1765  0.4703  0.2898
  942SOL    HW1 2825   1.769   1.682   1.662  1.6379  0.4740 -1.6253
  942SOL    HW2 2826   1.747   1.806   1.548 -0.0353  1.6323  1.4355
  943SOL     OW 2827   2.224   1.221   1.460  0.0363  0.2277 -0.4686
  943SOL    HW1 2828   2.319   1.233   1.502  1.4215  1.5991  1.3152
  943SOL    HW2 2829   2.157   1.209   1.536  3.8115  0.6384  1.8384
  944SOL     OW 2830   2.105   0.818   1.843  0.6439  0.5943 -0.4443
  944SOL    HW1 2831   2.098   0.832   1.746  0.3674  0.8235  0.4483
  944SOL    HW2 2832   2.024   0.759   1.874  0.2503 -1.9223  1.4327
  945SOL     OW 2833   0.090   0.106   1.321 -0.3115 -0.4519 -0.0908
  945SOL    HW1 2834   0.032   0.062   1.388 -0.9996  2.7826  0.1072
  945SOL    HW2 2835   0.026   0.132   1.244 -0.0382  1.3071  0.2799
  946SOL     OW 2836   0.385   0.818   1.796 -0.0400  0.0872  0.1424
  946SOL    HW1 2837   0.333   0.870   1.725  1.5057 -2.3552  2.9393
  946SOL    HW2 2838   0.360   0.864   1.885 -1.3116 -0.8877  0.4780
  947SOL     OW 2839   0.543   2.588   0.716  0.6593 -0.2744 -0.4014
  947SOL    HW1 2840   0.583   2.616   0.629 -1.4031 -1.9442 -0.6147
  947SOL    HW2 2841   0.607   2.525   0.765  0.0689 -1.4557 -2.7649
  948SOL     OW 2842   3.067   1.280   1.825 -0.2316  0.4364  0.3006
  948SOL    HW1 2843   0.002   1.314   1.751  2.6848  0.2352 -3.7163
  948SOL    HW2 2844   3.066   1.177   1.820  1.8475  0.7425  1.1112
  949SOL     OW 2845   0.117   0.821   2.208 -0.0599 -0.1811 -0.5259
  949SOL    HW1 2846   0.175   0.823   2.293 -0.6379  2.0241  2.3809
  949SOL    HW2 2847   0.099   0.725   2.175  0.4648  3.3163 -1.7168
  950SOL     OW 2848   0.812   1.107   1.066  0.3173  0.2468  0.3607
  950SOL    HW1 2849   0.905   1.092   1.042 -2.8244  1.1184  1.2123
  950SOL    HW2 2850   0.786   1.202   1.041 -0.3103  0.4469 -1.5237
  951SOL     OW 2851   1.172   1.847   1.945  0.6913 -0.2417  0.0951
  951SOL    HW1 2852   1.241   1.858   2.021  0.1679  1.5080 -1.9424
  951SOL    HW2 2853   1.140   1.754   1.941  1.4829  1.4029  0.7464
  952SOL     OW 2854   0.845   1.602   2.866 -0.3571 -0.0454 -0.1390
  952SOL    HW1 2855   0.931   1.583   2.918 -4.3608 -0.7656 -1.9926
  952SOL    HW2 2856   0.842   1.558   2.773 -0.9949 -1.5766  0.8119
  953SOL     OW 2857   1.509   2.951   2.238 -0.1207  0.1294 -0.3391
  953SOL    HW1 2858   1.411   2.920   2.231 -1.5434  0.7107  0.7487
  953SOL    HW2 2859   1.533   3.006   2.316 -2.1453 -1.0050  0.1822
  954SOL     OW 2860   2.059   1.307   0.321 -0.3211 -0.5027 -0.0210
  954SOL    HW1 2861   2.103   1.398   0.305  0.2103  0.4987 -0.8138
  954SOL    HW2 2862   2.102   1.232   0.268  0.2204 -1.2498  0.9577
  955SOL     OW 2863   0.391   2.203   2.266  0.0334 -0.0186 -0.4530
  955SOL    HW1 2864   0.400   2.126   2.331  0.0526  1.2457  0.2386
  955SOL    HW2 2865   0.395   2.172   2.170 -0.5585  0.6313 -1.8641
  956SOL     OW 2866   1.350   1.120   1.588  0.7640  0.3968 -0.4541
  956SOL    HW1 2867   1.306   1.041   1.544 -0.2282 -0.8240  1.7370
  956SOL    HW2 2868   1.347   1.204   1.538  1.6554 -2.0241 -1.1521
  957SOL     OW 2869   2.072   1.363   2.403 -0.2764  0.2097 -0.1216
  957SOL    HW1 2870   2.086   1.434   2.476 -2.1214  0.4156  0.8151
  957SOL    HW2 2871   1.985   1.312   2.426  0.6735 -1.3649  1.0404
  958SOL     OW 2872   1.566   2.477   0.909  0.4242  0.4057  0.4784
  958SOL    HW1 2873   1.508   2.494   0.993  1.4806 -0.4420 -0.2072
  958SOL    HW2 2874   1.642   2.414   0.933 -1.3601  2.5593 -0.6139
  959SOL     OW 2875   1.914   1.866   2.626  0.7796 -0.2648  0.1783
  959SOL    HW1 2876   1.821   1.885   2.588 -0.6274  0.9701  0.2196
  959SOL    HW2 2877   1.917   1.851   2.726  0.5081  3.3968 -0.8252
  960SOL     OW 2878   0.359   0.530   0.017 -0.6982  0.2415  0.0971
  960SOL    HW1 2879   0.412   0.604   0.062 -0.3664 -1.2884  1.8178
  960SOL    HW2 2880   0.372   0.536   3.046  1.6858 -0.4987 -1.8020
  961SOL     OW 2881   0.397   0.441   2.158  0.1202 -0.8035  0.2641
  961SOL    HW1 2882   0.294   0.439   2.150 -1.3604 -0.2633  1.0983
  961SOL    HW2 2883   0.439   0.356   2.133  0.0985 -0.2459  0.8626
  962SOL     OW 2884   1.144   1.458   0.104  0.0766  0.0321  0.4041
  962SOL    HW1 2885   1.230   1.409   0.111 -0.9347 -0.6723  3.2619
  962SOL    HW2 2886   1.080   1.441   0.181 -0.8850 -0.4140  3.0894
  963SOL     OW 2887   1.778   1.973   2.979  0.0864 -0.6284 -0.0412
  963SOL    HW1 2888   1.857   2.027   2.962 -1.6171 -0.8592  0.9013
  963SOL    HW2 2889   1.749   1.961   3.079 -3.3185 -2.1395  1.9110
  964SOL     OW 2890   1.205   2.925   0.756  0.7221  0.1990  0.1492
  964SOL    HW1 2891   1.222   3.027   0.739  1.1553 -1.3546  0.1095
  964SOL    HW2 2892   1.270   2.882   0.821  1.0685 -0.7759 -1.7213
  965SOL     OW 2893   0.824   2.746   1.003 -0.1170  0.6726 -0.2601
  965SOL    HW1 2894   0.866   2.679   0.939  1.4241 -1.1356 -2.9369
  965SOL    HW2 2895   0.761   2.809   0.952 -0.0018 -1.5345  1.9161
  966SOL     OW 2896   3.037   1.297   0.020  0.5411  0.6931 -0.1940
  966SOL    HW1 2897   3.064   1.263   3.055 -1.4556 -0.5832 -0.8455
  966SOL    HW2 2898   2.937   1.318   0.020 -0.0065  0.0745 -0.3899
  967SOL     OW 2899   1.582   2.846   1.742 -0.4467 -0.1524 -0.5328
  967SOL    HW1 2900   1.508   2.782   1.722 -1.4917  0.1693  2.2488
  967SOL    HW2 2901   1.545   2.936   1.770  1.7772 -1.3976 -2.3774
  968SOL     OW 2902   1.819   0.992   0.619  0.0441 -0.0303 -0.2820
  968SOL    HW1 2903   1.722   0.997   0.591 -0.8504  2.1591 -0.2706
  968SOL    HW2 2904   1.825   0.943   0.710  0.9903 -1.4262  0.7618
  969SOL     OW 2905   0.313   1.829   2.302 -0.2467  0.7866  0.1003
  969SOL    HW1 2906   0.268   1.873   2.222 -0.1551  0.2218  0.9666
  969SOL    HW2 2907   0.350   1.896   2.370 -1.6770 -1.3525 -1.3467
  970SOL     OW 2908   2.718   1.606   1.490  0.0753 -0.1890  0.6750
  970SOL    HW1 2909   2.775   1.573   1.412  0.3630 -0.3594 -2.1819
  970SOL    HW2 2910   2.633   1.552   1.510  1.6567 -0.6389  3.2923
  971SOL     OW 2911   1.039   0.521   1.407 -0.0133 -0.2152  0.3972
  971SOL    HW1 2912   0.964   0.584   1.389  0.5608 -1.4415  1.4580
  971SOL    HW2 2913   1.078   0.544   1.498  2.5989  0.7881 -1.2163
  972SOL     OW 2914   0.888   0.326   2.700 -0.3468 -0.0587  0.5363
  972SOL    HW1 2915   0.931   0.307   2.791  0.8261 -1.0500 -0.7980
  972SOL    HW2 2916   0.963   0.322   2.628  1.5287  3.2285  0.0728
  973SOL     OW 2917   2.933   1.412   0.884 -0.0583 -0.1590  0.4977
  973SOL    HW1 2918   2.836   1.396   0.859  0.3579  0.4813 -0.9351
  973SOL    HW2 2919   2.989   1.386   0.804  0.0791 -2.2181  1.4473
  974SOL     OW 2920   1.952   1.078   1.951  0.7420  0.5648  0.3390
  974SOL    HW1 2921   2.008   1.160   1.972 -1.9508  1.3628 -2.4894
  974SOL    HW2 2922   2.002   1.017   1.881 -0.8310 -2.4700 -2.1858
  975SOL     OW 2923   2.939   2.943   0.501 -0.0972  0.4603  0.3636
  975SOL    HW1 2924   2.885   2.914   0.583 -4.0611  0.3904 -1.8002
  975SOL    HW2 2925   2.916   3.037   0.475  0.6777 -3.3183 -0.0330
  976SOL     OW 2926   0.128   1.689   1.663  0.0437 -0.1720 -0.4424
  976SOL    HW1 2927   0.218   1.703   1.619 -2.5021 -0.3263  2.8833
  976SOL    HW2 2928   0.123   1.739   1.751 -1.6222 -2.5433 -0.5444
  977SOL     OW 2929   0.794   2.902   0.103 -0.0783 -0.3526 -0.3205
  977SOL    HW1 2930   0.740   2.977   0.142 -0.1006 -0.7903  1.7928
  977SOL    HW2 2931   0.756   2.865   0.014 -0.1728 -0.0500  1.1826
  978SOL     OW 2932   0.711   1.857   0.074 -0.0092 -0.2901  0.3050
  978SOL    HW1 2933   0.734   1.782   0.139  0.6491  2.5723 -3.3850
  978SOL    HW2 2934   0.739   1.945   0.113  1.8913 -1.1926 -0.9004
  979SOL     OW 2935   1.418   2.225   1.144  0.4124  0.3182  0.0128
  979SOL    HW1 2936   1.469   2.144   1.104  1.6491 -0.2660 -0.1393
  979SOL    HW2 2937   1.356   2.201   1.219  0.1355 -0.3540  0.3833
  980SOL     OW 2938   0.466   1.176   2.289  0.3073  0.2895  0.0570
  980SOL    HW1 2939   0.527   1.098   2.271  1.6836 -0.6148  0.9784
  980SOL    HW2 2940   0.420   1.207   2.202 -0.5890  0.7855 -0.3722
  981SOL     OW 2941   0.118   1.183   0.161 -0.2839  0.1500 -0.1789
  981SOL    HW1 2942   0.188   1.254   0.181 -0.6529 -2.1383 -2.2193
  981SOL    HW2 2943   0.035   1.221   0.109 -2.3456  0.4562 -0.2271
  982SOL     OW 2944   2.382   2.904   2.885  0.1523  0.0579 -0.6775
  982SOL    HW1 2945   2.447   2.837   2.932  1.4631 -0.2548  0.2582
  982SOL    HW2 2946   2.283   2.884   2.899  0.0403 -0.5764  3.1526
  983SOL     OW 2947   2.259   0.610   1.249  0.4004  0.2241  0.7272
  983SOL    HW1 2948   2.288   0.681   1.312 -0.8384 -1.1783 -1.1564
  983SOL    HW2 2949   2.257   0.515   1.288  0.2534  0.2439  2.4117
  984SOL     OW 2950   0.820   3.079   2.416  0.2718 -0.0920  0.4992
  984SOL    HW1 2951   0.846   0.042   2.408  2.1058 -1.1360 -1.0430
  984SOL    HW2 2952   0.889   3.015   2.381 -1.6701  0.2219  0.7078
  985SOL     OW 2953   1.544   2.057   2.161  0.4311 -0.4490 -0.6985
  985SOL    HW1 2954   1.553   1.995   2.081 -1.8569  0.5841  1.1514
  985SOL    HW2 2955   1.622   2.048   2.223 -0.3177 -1.2336  2.3913
  986SOL     OW 2956   1.963   0.134   2.007 -0.1243 -0.4174 -0.2795
  986SOL    HW1 2957   2.066   0.133   2.018 -0.9667  0.9470 -2.4328
  986SOL    HW2 2958   1.923   0.042   1.988  1.2836  2.1344  0.8188
  987SOL     OW 2959   2.199   0.472   2.122  0.1032 -0.4533  0.1409
  987SOL    HW1 2960   2.133   0.452   2.043 -1.9243  0.8618  2.0107
  987SOL    HW2 2961   2.288   0.507   2.092  0.5483 -0.6146  2.2966
  988SOL     OW 2962   2.589   0.458   2.238  0.3503  0.1220 -0.1102
  988SOL    HW1 2963   2.596   0.534   2.307 -1.0147 -0.5535 -1.1350
  988SOL    HW2 2964   2.524   0.490   2.168  3.5838  0.1696  0.2427
  989SOL     OW 2965   2.336   2.504   2.647  0.1970 -0.5151  0.5597
  989SOL    HW1 2966   2.413   2.512   2.712 -0.4946 -0.8020  0.8522
  989SOL    HW2 2967   2.360   2.457   2.559 -0.6724  0.3181 -0.5853
  990SOL     OW 2968   0.245   0.964   0.157  0.3077 -0.2801 -0.6623
  990SOL    HW1 2969   0.181   0.895   0.200  0.3006 -0.1428  1.4139
  990SOL    HW2 2970   0.195   1.048   0.137 -0.6460 -2.3722  1.6263
  991SOL     OW 2971   0.394   0.628   2.893  0.1204 -0.1343  0.4423
  991SOL    HW1 2972   0.363   0.557   2.829 -0.1299 -0.7116  1.8841
  991SOL    HW2 2973   0.495   0.649   2.874  2.7275  0.5343  0.1066
  992SOL     OW 2974   0.154   1.588   2.265 -0.0727  0.0457  0.2848
  992SOL    HW1 2975   0.230   1.646   2.306  1.1315  0.1304 -0.5435
  992SOL    HW2 2976   0.134   1.607   2.164 -0.3191 -1.7789  0.5705
  993SOL     OW 2977   0.740   0.077   0.773  0.2347 -0.0415 -0.5716
  993SOL    HW1 2978   0.657   0.133   0.740  0.8479  2.0815 -1.8259
  993SOL    HW2 2979   0.726   0.033   0.866  2.3657  0.8291  0.7096
  994SOL     OW 2980   0.389   2.160   1.769  0.3283 -0.3113  0.1547
  994SOL    HW1 2981   0.287   2.152   1.755  1.5714  1.6447  1.1196
  994SOL    HW2 2982   0.443   2.134   1.688 -1.5876  2.8697  1.2319
  995SOL     OW 2983   2.475   1.813   3.011  0.1235  1.1170  0.1916
  995SOL    HW1 2984   2.534   1.887   2.969 -0.3534  0.5803 -2.2701
  995SOL    HW2 2985   2.377   1.829   2.986 -2.1512  0.4396 -1.3476
  996SOL     OW 2986   2.120   1.533   2.622 -0.3213  0.0181  0.7645
  996SOL    HW1 2987   2.173   1.616   2.640 -0.0899 -0.7809 -0.6516
  996SOL    HW2 2988   2.045   1.521   2.688 -2.5446 -2.1258  1.4347
  997SOL     OW 2989   1.742   1.228   1.784 -0.1241 -0.3131 -0.5778
  997SOL    HW1 2990   1.810   1.174   1.836 -1.8439 -0.1512 -0.1566
  997SOL    HW2 2991   1.690   1.159   1.729  3.8621 -2.6322  1.8951
  998SOL     OW 2992   2.457   1.917   0.803 -0.4877 -0.3687 -0.6977
  998SOL    HW1 2993   2.529   1.956   0.864  0.1850 -0.2358 -3.9586
  998SOL    HW2 2994   2.378   1.866   0.852 -1.1240  0.8538  1.1754
  999SOL     OW 2995   2.502   2.636   0.162 -0.6575  0.8789  0.0218
  999SOL    HW1 2996   2.467   2.707   0.223 -0.0279 -0.5820  0.4559
  999SOL    HW2 2997   2.507   2.675   0.068 -1.5332  1.3064 -0.6308
 1000SOL     OW 2998   0.660   2.933   2.593 -0.3994  0.1780 -0.4768
 1000SOL    HW1 2999   0.620   2.989   2.667  0.3678 -2.2401  0.1363
 1000SOL    HW2 3000   0.714   2.987   2.524 -0.8314  0.0829  1.6707
   3.12960   3.12960   3.12960
