1000 SPC/Fw water molecules t= 355.00000 step= 355000
 3000
    1SOL     OW    1   2.571   3.051   1.192 -0.0995  0.4020 -0.3844
    1SOL    HW1    2   2.575   2.993   1.279  1.9459 -0.8789  3.6212
    1SOL    HW2    3   2.644   3.025   1.126  1.7122 -1.6466  1.2098
    2SOL     OW    4   2.739   2.455   0.881  0.2944 -0.0799 -0.1038
    2SOL    HW1    5   2.675   2.378   0.874  2.1297 -0.1343 -0.6310
    2SOL    HW2    6   2.809   2.458   0.806 -1.9874  0.8620  1.6320
    3SOL     OW    7   1.220   2.940   2.923 -0.6873  0.4891  0.1641
    3SOL    HW1    8   1.304   2.975   2.868 -0.0165 -2.3398  1.1836
    3SOL    HW2    9   1.221   2.969   3.019  2.2104 -1.5417 -1.5393
    4SOL     OW   10   1.542   2.613   2.375 -0.3734 -0.1315  0.1784
    4SOL    HW1   11   1.480   2.605   2.294 -0.7117 -0.3494 -0.5760
    4SOL    HW2   12   1.640   2.619   2.347 -1.5089  0.2792  1.5201
    5SOL     OW   13   1.871   0.421   1.682 -0.3535  0.1494  0.3306
    5SOL    HW1   14   1.917   0.480   1.614 -1.4129 -0.3347 -0.9496
    5SOL    HW2   15   1.811   0.474   1.744  0.9126  0.7951 -1.5851
    6SOL     OW   16   2.275   2.540   0.541 -0.0058 -0.1092  0.1180
    6SOL    HW1   17   2.227   2.596   0.467 -3.0007  0.6922 -0.9819
    6SOL    HW2   18   2.274   2.599   0.621 -2.1909  0.4814  0.6720
    7SOL     OW   19   1.588   1.192   1.062  0.1329 -0.4490 -0.5854
    7SOL    HW1   20   1.587   1.210   1.162  1.1073  0.7921 -2.0820
    7SOL    HW2   21   1.519   1.248   1.013  3.2030 -0.5473  1.7358
    8SOL     OW   22   0.766   1.822   1.196  0.1309  0.4098  0.4830
    8SOL    HW1   23   0.772   1.718   1.179  0.8011 -2.0613 -0.6669
    8SOL    HW2   24   0.858   1.848   1.228 -0.7502 -2.1359 -0.2743
    9SOL     OW   25   1.288   2.252   1.860 -0.4292  0.0208  0.1554
    9SOL    HW1   26   1.242   2.343   1.855  0.4669  0.6681  2.1821
    9SOL    HW2   27   1.238   2.183   1.802  1.1289 -0.5312  2.8333
   10SOL     OW   28   0.587   2.063   0.655  0.0724 -0.2914  0.1836
   10SOL    HW1   29   0.675   2.058   0.701 -3.8256  0.4912 -2.1191
   10SOL    HW2   30   0.589   2.140   0.588 -0.8863  0.6311 -0.5562
   11SOL     OW   31   1.520   1.952   1.577 -0.1480 -0.1313  0.0586
   11SOL    HW1   32   1.560   2.038   1.537  1.3221  0.5627 -0.4989
   11SOL    HW2   33   1.423   1.931   1.549 -4.0086 -2.8189 -2.4332
   12SOL     OW   34   2.637   0.420   2.444 -0.6752 -0.5003  0.3113
   12SOL    HW1   35   2.655   0.337   2.385  0.4292  1.3680 -0.1895
   12SOL    HW2   36   2.717   0.451   2.492 -1.5450  0.7136  0.3109
   13SOL     OW   37   2.882   2.876   0.732 -0.0595 -0.4490 -0.7048
   13SOL    HW1   38   2.889   2.810   0.812 -2.2607  0.3002  0.2529
   13SOL    HW2   39   2.946   2.852   0.659 -1.9475  3.1639  0.8860
   14SOL     OW   40   1.373   1.555   3.060  0.5327  0.0821 -0.5649
   14SOL    HW1   41   1.365   1.636   2.998 -2.1610 -1.0269 -0.1330
   14SOL    HW2   42   1.313   1.573   0.053 -0.4312  1.2342  0.6901
   15SOL     OW   43   2.409   2.676   1.335  0.0466  0.1606  0.3437
   15SOL    HW1   44   2.449   2.598   1.381 -0.2607  2.8430  1.2180
   15SOL    HW2   45   2.318   2.650   1.295 -1.7249  0.2631  2.6755
   16SOL     OW   46   2.541   2.724   0.342 -0.1245 -0.2804  0.3671
   16SOL    HW1   47   2.451   2.698   0.385 -2.7490  0.6559 -1.6705
   16SOL    HW2   48   2.603   2.764   0.411  0.2848 -0.9920 -2.2267
   17SOL     OW   49   0.237   0.434   1.270  0.6009 -0.2152 -0.5420
   17SOL    HW1   50   0.331   0.465   1.276 -1.2796 -0.0424  1.0008
   17SOL    HW2   51   0.207   0.402   1.178 -0.3638 -0.7030  0.6180
   18SOL     OW   52   2.040   0.478   0.417  0.1158  0.2271 -0.3204
   18SOL    HW1   53   2.080   0.505   0.511  1.5833 -1.3215  1.3378
   18SOL    HW2   54   2.038   0.377   0.401  0.7521  1.5976  0.4708
   19SOL     OW   55   1.802   1.522   3.005  0.3272  0.2010 -0.2605
   19SOL    HW1   56   1.891   1.512   2.957 -3.5134  0.2998 -0.2096
   19SOL    HW2   57   1.816   1.585   3.086  0.8179  0.8874 -0.8417
   20SOL     OW   58   2.304   1.636   2.243 -0.0343  0.3939 -0.8195
   20SOL    HW1   59   2.346   1.545   2.263 -1.6156 -0.6337 -0.6802
   20SOL    HW2   60   2.234   1.634   2.172 -0.6123 -0.9718  1.0843
   21SOL     OW   61   1.620   0.033   0.586 -0.4410  0.6566 -0.4733
   21SOL    HW1   62   1.599   0.032   0.687 -0.3306  0.4153  1.2945
   21SOL    HW2   63   1.708   3.076   0.572 -0.1502  0.2491 -1.7269
   22SOL     OW   64   2.664   0.372   1.489 -0.1169  0.1499  0.1124
   22SOL    HW1   65   2.616   0.284   1.489  0.1332  0.0918 -0.5650
   22SOL    HW2   66   2.637   0.424   1.409  0.0091  0.0915  1.2786
   23SOL     OW   67   0.162   0.397   2.028 -0.0147  0.1711 -0.4863
   23SOL    HW1   68   0.159   0.480   2.087 -2.5341  1.1973  0.0730
   23SOL    HW2   69   0.250   0.400   1.974  1.9939  1.7444  3.0257
   24SOL     OW   70   2.866   2.621   0.474  0.4975  0.1023 -0.2528
   24SOL    HW1   71   2.897   2.717   0.481  0.0510 -0.6551  1.9929
   24SOL    HW2   72   2.820   2.603   0.384 -0.2908 -0.2162 -0.3103
   25SOL     OW   73   0.851   2.761   2.801  0.4536  0.2741 -0.7473
   25SOL    HW1   74   0.761   2.793   2.841  3.7846  2.0259 -0.6523
   25SOL    HW2   75   0.919   2.838   2.791 -1.3592  0.4826 -0.1948
   26SOL     OW   76   1.304   2.783   0.386 -0.0035  0.0410  0.1483
   26SOL    HW1   77   1.380   2.718   0.369 -1.3945  2.1653  0.9633
   26SOL    HW2   78   1.333   2.857   0.448  0.0306 -2.1845 -3.3891
   27SOL     OW   79   2.316   0.749   0.482 -0.0313  0.1556  0.1786
   27SOL    HW1   80   2.323   0.762   0.382  0.0990 -1.1822  0.1460
   27SOL    HW2   81   2.225   0.777   0.512  0.8288 -1.7090  3.1464
   28SOL     OW   82   0.955   1.715   0.841  0.6312  0.3504 -0.4698
   28SOL    HW1   83   0.910   1.625   0.829  1.7209 -0.4892 -1.3043
   28SOL    HW2   84   1.048   1.703   0.882  1.5759 -0.0454 -0.2662
   29SOL     OW   85   3.018   2.914   1.609  1.1300  0.2581 -0.2951
   29SOL    HW1   86   3.050   2.839   1.552 -0.7778  0.0949  0.2588
   29SOL    HW2   87   2.937   2.952   1.559  0.7061 -2.4065 -1.4706
   30SOL     OW   88   1.416   0.015   1.262 -0.4220 -0.0878 -0.7594
   30SOL    HW1   89   1.387   3.066   1.174  1.1254  0.2603 -1.3067
   30SOL    HW2   90   1.426   3.030   1.332 -0.3517  0.7774 -2.2048
   31SOL     OW   91   2.081   2.986   2.301 -0.2689  0.0186  0.3955
   31SOL    HW1   92   2.024   2.905   2.307  0.6213 -0.2162 -0.0473
   31SOL    HW2   93   2.068   3.035   2.211  0.9634 -1.9008 -0.1345
   32SOL     OW   94   0.833   1.418   0.129  0.5372  0.8284 -0.2756
   32SOL    HW1   95   0.816   1.463   0.037 -2.5844  1.5841  0.1789
   32SOL    HW2   96   0.755   1.435   0.197 -2.6662  0.1740  2.8615
   33SOL     OW   97   0.062   0.808   2.556  0.6947  0.1349 -0.6048
   33SOL    HW1   98   0.006   0.743   2.497  1.6879  1.0860  0.0526
   33SOL    HW2   99   0.096   0.757   2.636 -1.6062  1.6806 -2.4034
   34SOL     OW  100   2.543   0.216   0.528 -0.0096 -0.0422 -0.3796
   34SOL    HW1  101   2.505   0.312   0.530 -1.6133 -0.8592 -1.9029
   34SOL    HW2  102   2.572   0.178   0.622  1.2318 -0.7788  2.3419
   35SOL     OW  103   2.337   2.565   1.863  0.2774 -0.0031 -0.5882
   35SOL    HW1  104   2.358   2.487   1.924 -0.1277  2.5165  1.2538
   35SOL    HW2  105   2.258   2.542   1.806 -1.9289 -1.1094  0.6901
   36SOL     OW  106   2.227   1.913   0.016  0.2690 -0.5913 -0.2539
   36SOL    HW1  107   2.302   1.916   3.033 -3.5963  2.7222  3.0028
   36SOL    HW2  108   2.145   1.966   3.067  1.7220 -0.5534  0.5928
   37SOL     OW  109   1.950   0.134   2.077 -0.5592 -0.1929  0.4434
   37SOL    HW1  110   1.874   0.185   2.038 -1.8988 -0.1160 -0.2214
   37SOL    HW2  111   1.965   0.046   2.028 -0.8722  0.6670 -0.8355
   38SOL     OW  112   0.208   0.432   2.931  0.0459 -0.5163 -0.5340
   38SOL    HW1  113   0.205   0.377   2.847 -1.3601  2.3842  0.8027
   38SOL    HW2  114   0.175   0.385   3.015 -1.4487  1.9356  1.8152
   39SOL     OW  115   1.838   1.330   1.456  0.6959  0.2485  0.1686
   39SOL    HW1  116   1.812   1.398   1.525  1.6600 -0.2429  0.6027
   39SOL    HW2  117   1.936   1.318   1.456 -1.0362  0.4286  3.3207
   40SOL     OW  118   1.374   2.415   0.445  0.0439 -0.1739 -0.0978
   40SOL    HW1  119   1.362   2.315   0.457  0.9625 -0.1223 -1.3533
   40SOL    HW2  120   1.299   2.446   0.380 -0.2981  1.7123 -0.0351
   41SOL     OW  121   2.108   1.302   0.921 -0.1363  0.3784  0.0548
   41SOL    HW1  122   2.159   1.264   0.840  0.6392  0.5255  1.7981
   41SOL    HW2  123   2.061   1.389   0.901  0.8620 -0.1821  0.9536
   42SOL     OW  124   0.727   0.256   1.056 -0.2646 -0.2378 -0.1469
   42SOL    HW1  125   0.824   0.254   1.037 -4.6897  0.9516  0.5156
   42SOL    HW2  126   0.708   0.313   1.141  0.1148 -0.5007  0.0411
   43SOL     OW  127   0.061   1.700   2.474 -0.2571 -0.1043  0.0445
   43SOL    HW1  128   0.008   1.685   2.557 -2.7359 -1.4577 -0.9303
   43SOL    HW2  129   0.153   1.741   2.499  0.2314  1.0108  2.8201
   44SOL     OW  130   2.036   2.947   1.367  0.1752  0.0369 -0.0485
   44SOL    HW1  131   2.074   2.940   1.463  1.2072  0.1199 -1.1636
   44SOL    HW2  132   2.101   2.943   1.290  1.7848  1.8183  0.2929
   45SOL     OW  133   1.160   0.049   2.480 -0.0561 -0.5015 -0.1836
   45SOL    HW1  134   1.256   0.031   2.515  0.3732 -1.5311 -1.3600
   45SOL    HW2  135   1.125   3.058   2.427  1.9181 -0.2109  0.4933
   46SOL     OW  136   1.120   2.476   2.218 -0.0493  0.1026  0.1576
   46SOL    HW1  137   1.101   2.386   2.166  0.3803  0.6739 -2.8821
   46SOL    HW2  138   1.077   2.468   2.311  2.1518 -0.5045  2.3068
   47SOL     OW  139   1.184   1.836   0.618 -0.1497 -0.1904 -0.0752
   47SOL    HW1  140   1.276   1.808   0.599 -2.0671 -0.7437  3.4060
   47SOL    HW2  141   1.166   1.866   0.713  0.5878 -0.7308 -1.9660
   48SOL     OW  142   1.340   2.626   1.138 -0.1700  0.4797  0.0326
   48SOL    HW1  143   1.296   2.606   1.048  1.3658  1.7183 -0.3846
   48SOL    HW2  144   1.398   2.548   1.169  2.0422 -2.6986  3.2761
   49SOL     OW  145   2.336   0.244   2.981  0.2241  0.2905 -0.8048
   49SOL    HW1  146   2.288   0.269   2.896 -0.4645  0.3835  0.4680
   49SOL    HW2  147   2.430   0.277   2.981 -3.5645 -3.9372 -1.4813
   50SOL     OW  148   1.708   0.073   0.020 -0.2559 -0.0999  0.2519
   50SOL    HW1  149   1.722   3.078   3.057  2.1709  1.3042 -2.1892
   50SOL    HW2  150   1.626   0.123   3.074 -1.7821 -0.4929 -0.1833
   51SOL     OW  151   2.113   0.614   1.221  0.0859 -0.3384  0.1489
   51SOL    HW1  152   2.201   0.654   1.247  2.9402 -0.8408 -1.2290
   51SOL    HW2  153   2.129   0.524   1.178 -1.4234 -0.5267 -0.2877
   52SOL     OW  154   0.753   1.822   0.072  0.0595  0.4136 -0.1085
   52SOL    HW1  155   0.731   1.734   0.029  0.7557  1.2999 -0.7027
   52SOL    HW2  156   0.811   1.810   0.152  0.8693  1.2837 -3.6081
   53SOL     OW  157   0.146   1.443   2.741  0.1415  0.0906 -0.2376
   53SOL    HW1  158   0.197   1.442   2.655  1.1686  2.2585 -0.6344
   53SOL    HW2  159   0.212   1.434   2.820 -2.4149  1.3400 -0.8895
   54SOL     OW  160   2.668   1.099   1.723  0.1735  0.0916 -0.3465
   54SOL    HW1  161   2.739   1.038   1.760 -2.8037 -0.7036 -0.7616
   54SOL    HW2  162   2.633   1.165   1.794 -1.9418 -0.2343  3.6063
   55SOL     OW  163   2.183   2.021   0.468  0.1224  0.2390  0.3254
   55SOL    HW1  164   2.276   2.055   0.430  1.2403  0.1195  2.4301
   55SOL    HW2  165   2.171   2.036   0.570  0.0038 -0.4083  2.7466
   56SOL     OW  166   1.830   0.155   1.650 -0.2801 -0.0766 -0.0253
   56SOL    HW1  167   1.847   0.255   1.673  1.4693  4.1071  1.1101
   56SOL    HW2  168   1.819   0.144   1.550 -2.0085 -1.0337 -1.0737
   57SOL     OW  169   1.417   1.232   2.662  0.8031  0.7787 -0.0971
   57SOL    HW1  170   1.331   1.227   2.718 -1.8724 -0.2684  0.7753
   57SOL    HW2  171   1.502   1.217   2.718 -0.1645  0.5773  0.0901
   58SOL     OW  172   0.041   0.688   1.371  0.3230 -0.0315  0.3975
   58SOL    HW1  173   0.099   0.653   1.444 -1.8041  0.5012 -2.3592
   58SOL    HW2  174   0.026   0.615   1.300 -2.0785  1.3930 -2.6196
   59SOL     OW  175   1.382   2.896   0.116 -0.0871  0.2315  0.0818
   59SOL    HW1  176   1.335   2.846   0.196  3.2955 -1.7116  2.7865
   59SOL    HW2  177   1.349   2.984   0.092  2.0018 -1.4271 -0.2427
   60SOL     OW  178   3.085   1.875   2.832 -0.1856 -0.0834  0.7208
   60SOL    HW1  179   0.098   1.865   2.853  0.7960  1.2100 -1.0200
   60SOL    HW2  180   3.062   1.967   2.798  3.6036 -0.7411  0.6239
   61SOL     OW  181   0.686   2.507   1.141 -0.1910 -0.4413 -0.4558
   61SOL    HW1  182   0.784   2.498   1.123 -3.2631  1.3879 -0.4940
   61SOL    HW2  183   0.672   2.573   1.219  0.4743 -0.4901  1.6157
   62SOL     OW  184   1.423   1.676   2.660  0.0443 -0.2546  0.0725
   62SOL    HW1  185   1.495   1.630   2.606 -2.1234 -0.8512 -1.9845
   62SOL    HW2  186   1.335   1.618   2.662 -0.8582 -2.7848  0.7779
   63SOL     OW  187   2.258   1.797   0.297  0.0013  0.1264 -0.5597
   63SOL    HW1  188   2.214   1.830   0.210  1.1455  1.1766 -0.3395
   63SOL    HW2  189   2.226   1.854   0.378  2.4154  1.2516  1.3169
   64SOL     OW  190   1.892   1.147   0.241  0.1504  0.0430  0.2433
   64SOL    HW1  191   1.846   1.221   0.184 -1.5197  1.0977  0.5038
   64SOL    HW2  192   1.869   1.051   0.206 -0.1411  0.9168 -1.3361
   65SOL     OW  193   2.042   1.795   2.337 -0.1232 -0.2089  0.3128
   65SOL    HW1  194   2.134   1.781   2.372 -3.8962  0.8805 -2.3746
   65SOL    HW2  195   2.024   1.777   2.238  0.8079 -0.7506  0.0817
   66SOL     OW  196   0.553   1.121   1.610  0.6396 -0.9449  0.5154
   66SOL    HW1  197   0.480   1.195   1.614 -1.3052  1.0658 -1.0416
   66SOL    HW2  198   0.506   1.035   1.593  0.5392  2.3594 -1.8097
   67SOL     OW  199   2.152   0.049   2.689  0.3258  0.0822 -0.1597
   67SOL    HW1  200   2.050   0.062   2.678 -1.5852  2.6066  0.7538
   67SOL    HW2  201   2.182   3.039   2.681  3.0972 -0.7908 -0.3013
   68SOL     OW  202   1.224   2.354   1.476 -0.0124 -0.1466  0.3308
   68SOL    HW1  203   1.273   2.443   1.490 -2.0561  2.9270  2.1708
   68SOL    HW2  204   1.271   2.280   1.424 -1.1471  0.5610  0.8074
   69SOL     OW  205   0.736   2.554   0.054 -0.0470 -1.2311  0.0923
   69SOL    HW1  206   0.723   2.508   0.144  1.6820 -2.2622 -0.4169
   69SOL    HW2  207   0.831   2.588   0.037  0.6847  1.6581  0.1476
   70SOL     OW  208   0.187   0.632   2.220 -0.5286  0.0562 -0.2060
   70SOL    HW1  209   0.092   0.640   2.183 -0.5978 -0.1085  1.4502
   70SOL    HW2  210   0.213   0.719   2.270  0.3715 -3.4134  1.1676
   71SOL     OW  211   0.574   1.299   2.687 -0.2610  0.3418 -0.4018
   71SOL    HW1  212   0.548   1.397   2.671  1.0865  0.1965  2.5189
   71SOL    HW2  213   0.509   1.237   2.640  1.2351  2.1599 -0.6330
   72SOL     OW  214   3.021   1.376   2.241  0.0190 -0.0632  0.2234
   72SOL    HW1  215   0.028   1.404   2.262 -1.3754  0.3840 -1.5687
   72SOL    HW2  216   2.967   1.462   2.219 -1.9470  0.9820 -0.2755
   73SOL     OW  217   1.497   1.640   0.382  0.1263 -0.2150 -0.1592
   73SOL    HW1  218   1.528   1.666   0.287 -1.2166  1.1259 -1.3345
   73SOL    HW2  219   1.535   1.556   0.422  0.5067  0.1310  0.5323
   74SOL     OW  220   2.483   3.051   2.707  0.4574  0.0425  0.0533
   74SOL    HW1  221   2.464   0.032   2.776 -0.0862 -0.7386  1.8096
   74SOL    HW2  222   2.409   2.979   2.698 -0.0021  1.0574 -0.5769
   75SOL     OW  223   1.803   2.227   1.070  0.4908 -0.1936  0.1119
   75SOL    HW1  224   1.872   2.300   1.086  0.5194  1.6061 -0.1965
   75SOL    HW2  225   1.851   2.135   1.060  1.7948 -2.2196  0.5348
   76SOL     OW  226   2.974   2.223   2.053 -0.2266 -0.5558 -0.1285
   76SOL    HW1  227   3.025   2.134   2.050 -0.2996 -2.2261 -2.6181
   76SOL    HW2  228   3.022   2.290   1.988 -0.1615  1.5002  2.7627
   77SOL     OW  229   0.189   0.019   1.991  0.5966  0.3325 -0.3978
   77SOL    HW1  230   0.199   3.067   1.898  0.2444  0.7696  2.6241
   77SOL    HW2  231   0.114   0.087   1.982 -0.9167 -0.1912 -0.7106
   78SOL     OW  232   2.327   0.983   2.940  0.2429  0.0507 -0.4072
   78SOL    HW1  233   2.403   1.054   2.926  1.1894  1.6186 -1.2732
   78SOL    HW2  234   2.254   0.979   2.865 -1.5912  1.2217 -0.5141
   79SOL     OW  235   2.951   1.226   2.434  1.0341 -0.4686 -0.5675
   79SOL    HW1  236   2.917   1.272   2.523 -1.1409  1.1029  1.9711
   79SOL    HW2  237   2.980   1.293   2.361  1.7150 -0.6414  0.5330
   80SOL     OW  238   1.418   1.377   1.457  0.3122 -0.0294 -0.0988
   80SOL    HW1  239   1.456   1.437   1.522  0.6027 -1.7363 -0.7575
   80SOL    HW2  240   1.378   1.297   1.506  0.5166 -1.2203 -0.2497
   81SOL     OW  241   2.113   0.930   1.701 -0.0797  0.4053 -0.7096
   81SOL    HW1  242   2.069   0.866   1.767 -1.6729 -0.1042 -0.8085
   81SOL    HW2  243   2.215   0.929   1.714 -1.9396 -0.7480 -0.0855
   82SOL     OW  244   1.559   1.580   1.639 -0.2892  0.0474 -0.4275
   82SOL    HW1  245   1.560   1.571   1.743  1.8132 -0.4003  1.1054
   82SOL    HW2  246   1.654   1.593   1.602 -2.0423  0.3957 -1.7984
   83SOL     OW  247   0.267   0.200   0.420 -0.0911 -0.2468  0.1615
   83SOL    HW1  248   0.216   0.163   0.340  1.0569  0.0733 -1.5635
   83SOL    HW2  249   0.341   0.265   0.387  1.6374  2.6316 -2.3755
   84SOL     OW  250   0.353   0.843   0.001 -0.3850 -0.2345  0.0008
   84SOL    HW1  251   0.347   0.740   0.008  0.5626 -0.5335 -2.2369
   84SOL    HW2  252   0.270   0.883   0.049  1.0411  0.4759  0.1793
   85SOL     OW  253   2.245   2.100   1.058  0.3058  0.3303 -0.2775
   85SOL    HW1  254   2.267   2.037   0.984 -0.6648  0.5192 -0.5680
   85SOL    HW2  255   2.306   2.180   1.062  1.3448 -0.9469  0.7403
   86SOL     OW  256   0.355   2.324   1.311  0.1511  0.3880 -0.0046
   86SOL    HW1  257   0.440   2.274   1.336 -0.9611  0.1062 -2.5372
   86SOL    HW2  258   0.365   2.359   1.218  1.5983  1.3202  0.0551
   87SOL     OW  259   0.570   2.440   2.092  0.4168  0.7865 -0.9304
   87SOL    HW1  260   0.636   2.517   2.094 -1.7296  2.0559  2.9574
   87SOL    HW2  261   0.619   2.353   2.106 -0.3611  1.0078 -0.2000
   88SOL     OW  262   3.062   1.984   0.219 -0.6739 -0.2098  0.1918
   88SOL    HW1  263   2.968   2.010   0.237  1.1266 -0.1415 -0.3392
   88SOL    HW2  264   3.075   1.934   0.135 -1.2543  0.9123  3.1471
   89SOL     OW  265   0.876   0.995   0.909  0.1856  0.1451  0.1669
   89SOL    HW1  266   0.911   0.970   0.999 -1.8743 -0.8563 -1.0632
   89SOL    HW2  267   0.784   0.949   0.890 -5.5876  0.5351 -1.7876
   90SOL     OW  268   0.141   1.378   1.969 -0.7938 -0.0198  0.3081
   90SOL    HW1  269   0.046   1.389   1.938 -2.0632 -2.0104 -0.2378
   90SOL    HW2  270   0.146   1.335   2.062  1.4904 -2.1851  3.2611
   91SOL     OW  271   1.338   0.967   1.020 -0.0171 -0.0968  0.2834
   91SOL    HW1  272   1.337   0.875   0.973 -0.4953  0.3900  1.0772
   91SOL    HW2  273   1.340   1.042   0.952  0.9854  0.5805  1.5565
   92SOL     OW  274   1.823   1.172   0.949 -0.0939 -0.4608  0.2756
   92SOL    HW1  275   1.724   1.182   0.980  0.8557 -0.2701 -2.4061
   92SOL    HW2  276   1.883   1.215   1.014 -1.0099 -2.2620  0.0954
   93SOL     OW  277   2.778   0.810   2.356 -0.0496  0.1410  0.2248
   93SOL    HW1  278   2.754   0.771   2.260 -0.8511  0.3543 -1.4500
   93SOL    HW2  279   2.869   0.766   2.382  1.2667 -2.2096  0.2280
   94SOL     OW  280   2.323   1.747   2.712 -0.0763  0.1303  0.0538
   94SOL    HW1  281   2.341   1.764   2.613  0.3361  0.3809 -0.0810
   94SOL    HW2  282   2.223   1.733   2.722 -0.0124 -1.5546 -0.4616
   95SOL     OW  283   2.792   0.579   1.078 -0.0873  0.2435  0.2986
   95SOL    HW1  284   2.758   0.668   1.097  0.1660 -2.6807  1.9640
   95SOL    HW2  285   2.807   0.568   0.982 -0.4499 -3.9322  1.4158
   96SOL     OW  286   2.537   2.894   1.421  0.6821  0.0400 -0.4660
   96SOL    HW1  287   2.477   2.945   1.489  1.6864 -0.7152  0.9447
   96SOL    HW2  288   2.499   2.809   1.380  1.6060  0.4949  3.4731
   97SOL     OW  289   2.509   0.914   1.600 -0.3492  0.4609  0.7987
   97SOL    HW1  290   2.480   0.925   1.502 -0.4353  0.4782 -1.5065
   97SOL    HW2  291   2.562   0.992   1.627  0.1561 -3.0697 -1.0192
   98SOL     OW  292   1.736   2.531   1.880 -0.0770  0.8751 -0.1162
   98SOL    HW1  293   1.828   2.503   1.906  0.3806  1.5667  2.6017
   98SOL    HW2  294   1.672   2.454   1.867  1.3318  3.2571 -0.1966
   99SOL     OW  295   0.235   2.395   1.527  0.2781 -0.6768 -0.0457
   99SOL    HW1  296   0.275   2.393   1.436 -0.1417  1.9108 -1.4118
   99SOL    HW2  297   0.292   2.445   1.597  1.6729  1.3318 -0.1779
  100SOL     OW  298   1.466   0.383   2.650  0.3170  0.1738  0.9934
  100SOL    HW1  299   1.497   0.344   2.557  0.7950  1.2967 -1.7059
  100SOL    HW2  300   1.540   0.440   2.690 -1.7458 -0.3685  0.8518
  101SOL     OW  301   2.536   0.366   2.699 -0.3183  0.2134  0.1969
  101SOL    HW1  302   2.442   0.331   2.701  0.8616  0.7523 -2.1874
  101SOL    HW2  303   2.573   0.376   2.603 -1.5731 -1.2241 -1.2932
  102SOL     OW  304   0.400   0.889   1.575  0.0767  0.3375  0.6432
  102SOL    HW1  305   0.386   0.867   1.675  1.3249 -0.0804 -1.6131
  102SOL    HW2  306   0.309   0.894   1.529  2.1711 -1.4045 -0.6806
  103SOL     OW  307   0.654   1.051   2.539  0.5719  0.3267 -0.0522
  103SOL    HW1  308   0.568   0.991   2.539 -1.5747 -4.2312  0.2709
  103SOL    HW2  309   0.675   1.103   2.626 -0.1025  2.1681  0.1012
  104SOL     OW  310   0.374   0.746   2.733  0.7290  0.1153 -0.0824
  104SOL    HW1  311   0.269   0.739   2.745 -0.0854  0.9330 -2.0094
  104SOL    HW2  312   0.403   0.831   2.784 -1.4881 -2.3248  0.2044
  105SOL     OW  313   2.125   2.123   1.675  0.3097  0.0304 -0.2454
  105SOL    HW1  314   2.118   2.074   1.766  0.4571 -0.0638 -0.4273
  105SOL    HW2  315   2.082   2.063   1.601 -1.0665 -2.3957 -0.6896
  106SOL     OW  316   1.841   2.976   0.486  0.1716  0.1389  0.1893
  106SOL    HW1  317   1.777   2.898   0.491 -2.9194 -1.6528  2.3864
  106SOL    HW2  318   1.908   2.977   0.408  2.5468  0.3417  0.0508
  107SOL     OW  319   1.998   2.039   1.005  0.1917  0.3752  0.0863
  107SOL    HW1  320   2.001   1.937   1.006  1.2079  2.7244 -0.9170
  107SOL    HW2  321   2.084   2.081   1.037 -0.1482  1.1222 -1.3765
  108SOL     OW  322   2.801   2.717   1.527 -0.2059 -0.3233  0.0212
  108SOL    HW1  323   2.781   2.639   1.594  1.0843 -2.6047  0.9974
  108SOL    HW2  324   2.742   2.805   1.531 -0.7587  3.6342 -2.0467
  109SOL     OW  325   1.851   2.276   0.670  0.5248  0.1310  0.2382
  109SOL    HW1  326   1.939   2.228   0.691 -2.6212  1.0142 -0.7331
  109SOL    HW2  327   1.773   2.231   0.719 -0.7742 -0.0479 -0.5914
  110SOL     OW  328   0.888   1.712   1.981  0.3886 -0.5547  0.1717
  110SOL    HW1  329   0.938   1.627   1.995 -1.8971  0.8671 -0.1258
  110SOL    HW2  330   0.953   1.791   1.964  0.4557  1.6100  2.7741
  111SOL     OW  331   1.791   2.220   2.019 -0.8723  0.1432 -0.5850
  111SOL    HW1  332   1.777   2.175   1.923  1.0746 -0.5292 -0.9965
  111SOL    HW2  333   1.703   2.239   2.065  2.0554  0.0232  1.4948
  112SOL     OW  334   1.638   1.597   2.516  0.1557  0.0063  0.7999
  112SOL    HW1  335   1.692   1.687   2.530  2.1198  1.2710  1.3515
  112SOL    HW2  336   1.698   1.518   2.534  1.4574  1.1015 -0.1473
  113SOL     OW  337   1.739   1.838   2.050  0.5083  0.3978 -0.4774
  113SOL    HW1  338   1.657   1.876   1.998 -0.1419  0.0891  0.5227
  113SOL    HW2  339   1.712   1.765   2.121 -0.1863 -0.7166  0.7357
  114SOL     OW  340   2.933   1.254   1.474  0.3299  0.4582 -0.0470
  114SOL    HW1  341   2.846   1.284   1.516  0.8531  0.4316 -2.3595
  114SOL    HW2  342   2.934   1.153   1.478  0.0563 -2.9113  1.2726
  115SOL     OW  343   0.824   0.785   0.183 -0.1397 -0.5154  0.0335
  115SOL    HW1  344   0.743   0.734   0.152  2.5273  0.2603 -1.9953
  115SOL    HW2  345   0.807   0.807   0.282  1.6423  1.5212 -0.5502
  116SOL     OW  346   2.777   1.822   2.250 -0.0851  0.0225  0.3285
  116SOL    HW1  347   2.775   1.869   2.155  0.3174  1.4609 -1.8546
  116SOL    HW2  348   2.725   1.872   2.318  0.4864 -1.8206  0.8777
  117SOL     OW  349   0.016   2.614   0.876 -0.3075  0.3259  0.4069
  117SOL    HW1  350   0.053   2.559   0.800 -0.5755  0.3356  2.1582
  117SOL    HW2  351   0.068   2.587   0.960 -2.8396  0.9697  0.5826
  118SOL     OW  352   0.559   1.566   2.929  0.0803  0.1149 -0.5997
  118SOL    HW1  353   0.572   1.669   2.940 -0.4550  1.1639 -1.1860
  118SOL    HW2  354   0.643   1.515   2.949 -0.7882  1.0076  2.8237
  119SOL     OW  355   0.690   1.954   0.397 -0.3460  0.0077 -0.1902
  119SOL    HW1  356   0.651   1.993   0.483 -1.3066  1.7869 -0.4574
  119SOL    HW2  357   0.696   2.020   0.317  0.1952  1.3411 -2.0233
  120SOL     OW  358   1.446   0.399   0.220 -0.1404 -0.2838 -0.5330
  120SOL    HW1  359   1.500   0.347   0.288  0.1178 -0.9811  0.4714
  120SOL    HW2  360   1.440   0.493   0.263  1.8527  0.1460 -0.2348
  121SOL     OW  361   1.428   2.467   0.740  0.2501 -0.0537 -0.1594
  121SOL    HW1  362   1.473   2.384   0.780 -0.0123 -0.3676  1.6444
  121SOL    HW2  363   1.384   2.448   0.655 -1.0448  2.2206  3.7659
  122SOL     OW  364   2.519   2.470   1.513 -0.2202 -0.4439  0.0033
  122SOL    HW1  365   2.447   2.470   1.585  1.0748 -1.2867  4.9865
  122SOL    HW2  366   2.611   2.478   1.555  1.8834 -2.1946  2.1781
  123SOL     OW  367   0.556   1.608   0.780 -0.0936  0.1882 -0.6363
  123SOL    HW1  368   0.648   1.621   0.738 -0.3132  0.5672 -2.2823
  123SOL    HW2  369   0.514   1.705   0.791 -0.5130  2.0204  1.9058
  124SOL     OW  370   2.924   1.011   0.404  0.4284  0.5974  0.0489
  124SOL    HW1  371   2.891   0.914   0.397  3.5574  0.4650 -0.1860
  124SOL    HW2  372   2.960   1.039   0.310  1.4236  1.2447 -3.9659
  125SOL     OW  373   0.598   0.669   0.100 -0.2789 -0.1157  0.1102
  125SOL    HW1  374   0.533   0.609   0.047  0.0643 -1.2017 -0.4762
  125SOL    HW2  375   0.566   0.685   0.197 -0.9224 -0.4051  1.4820
  126SOL     OW  376   2.910   1.914   0.530 -0.2505  0.1964 -0.0043
  126SOL    HW1  377   2.846   1.852   0.575 -1.8018  2.9517  0.7202
  126SOL    HW2  378   2.876   1.969   0.446 -1.0863  1.8353  0.8963
  127SOL     OW  379   1.546   2.328   1.833  0.3070 -0.3728  0.1485
  127SOL    HW1  380   1.445   2.306   1.844 -0.0414  2.2600  0.0630
  127SOL    HW2  381   1.597   2.251   1.790  0.0109 -2.5845  0.9573
  128SOL     OW  382   0.850   1.150   0.149  0.0218 -0.1759  0.1687
  128SOL    HW1  383   0.819   1.103   0.065 -1.9947  3.0272  0.1260
  128SOL    HW2  384   0.841   1.254   0.142  0.1673 -0.2211 -0.0486
  129SOL     OW  385   1.782   1.885   1.573  0.2560  0.3110  0.5980
  129SOL    HW1  386   1.685   1.911   1.564  2.8342 -0.9646  2.1061
  129SOL    HW2  387   1.804   1.836   1.661 -1.6015 -0.2610  1.6693
  130SOL     OW  388   2.077   1.643   1.527  0.5536 -0.3444 -0.6933
  130SOL    HW1  389   2.100   1.653   1.629 -1.9277  0.8200 -1.4661
  130SOL    HW2  390   2.124   1.718   1.475 -4.0602 -2.1641  0.5638
  131SOL     OW  391   2.875   2.902   3.011 -0.6120  0.0606  0.6448
  131SOL    HW1  392   2.826   2.966   2.949 -0.3985  1.5379 -1.3286
  131SOL    HW2  393   2.836   2.808   3.022  1.4518  0.6172 -1.4942
  132SOL     OW  394   2.443   1.939   0.667 -0.5270 -0.2607  0.3300
  132SOL    HW1  395   2.456   2.005   0.597  1.8936 -1.0761 -0.8373
  132SOL    HW2  396   2.484   1.855   0.636 -1.8155  2.0406 -2.1735
  133SOL     OW  397   0.443   0.118   2.026  0.0051 -0.0481  0.9367
  133SOL    HW1  398   0.353   0.068   2.017  0.1794 -1.5768  1.0467
  133SOL    HW2  399   0.450   0.164   2.118  0.7023  1.0792 -1.1778
  134SOL     OW  400   2.839   2.097   3.048  0.4485 -0.1335 -0.1614
  134SOL    HW1  401   2.859   1.998   3.070 -0.7164 -1.6015  1.3262
  134SOL    HW2  402   2.741   2.125   3.054 -1.7133  2.7594 -0.8792
  135SOL     OW  403   1.490   0.687   2.055 -0.2185  0.0319  0.1784
  135SOL    HW1  404   1.451   0.749   1.989 -1.1264  0.9644  3.0472
  135SOL    HW2  405   1.456   0.698   2.149  2.5365 -0.2260 -1.4358
  136SOL     OW  406   2.448   1.467   0.665 -0.1534  0.2937  0.0632
  136SOL    HW1  407   2.420   1.420   0.581 -1.9792  0.1454  1.4904
  136SOL    HW2  408   2.463   1.410   0.746  1.6886  0.4906 -2.0624
  137SOL     OW  409   2.832   1.659   0.735 -0.0394  0.4912  0.1396
  137SOL    HW1  410   2.865   1.565   0.705  1.6894  0.1467 -0.4404
  137SOL    HW2  411   2.857   1.681   0.831 -0.4780 -0.0066  1.7455
  138SOL     OW  412   2.477   0.711   1.086  0.8574 -1.0784  0.8445
  138SOL    HW1  413   2.394   0.736   1.030  0.2435  1.2494  0.1792
  138SOL    HW2  414   2.556   0.764   1.052  0.7962 -2.0058  2.0779
  139SOL     OW  415   0.526   2.455   3.004 -0.0113 -0.0811 -0.5063
  139SOL    HW1  416   0.600   2.512   3.039 -0.8507 -0.2955  1.7304
  139SOL    HW2  417   0.501   2.485   2.910  0.4817 -0.3735  1.9462
  140SOL     OW  418   1.056   2.081   1.079  0.3440  0.2439  0.6483
  140SOL    HW1  419   1.133   2.053   1.014  0.8147 -1.5145 -2.4930
  140SOL    HW2  420   0.964   2.040   1.045 -0.6511  1.0014  1.0093
  141SOL     OW  421   1.334   2.161   0.577 -0.4389 -0.2291 -0.4485
  141SOL    HW1  422   1.358   2.068   0.534  1.4022 -0.5029 -2.4676
  141SOL    HW2  423   1.234   2.176   0.579 -0.6250  2.1688 -1.3908
  142SOL     OW  424   0.916   0.604   1.001  0.0641  0.2922 -0.1400
  142SOL    HW1  425   0.995   0.636   0.943  0.0488  1.6333  1.5397
  142SOL    HW2  426   0.826   0.617   0.945 -2.7413  0.2673 -1.9310
  143SOL     OW  427   0.810   1.266   2.813 -0.7463  0.1600 -0.3263
  143SOL    HW1  428   0.713   1.285   2.776 -0.9423 -2.7525 -0.8134
  143SOL    HW2  429   0.861   1.209   2.743  2.1524 -2.0149 -1.3929
  144SOL     OW  430   1.826   2.539   0.687 -0.3794  0.1629 -0.3674
  144SOL    HW1  431   1.757   2.578   0.753  0.7882  0.7419 -2.9825
  144SOL    HW2  432   1.822   2.439   0.685 -0.5748  0.7507  0.4341
  145SOL     OW  433   1.839   0.732   2.697  0.0607  0.5922  0.1353
  145SOL    HW1  434   1.827   0.788   2.609 -0.1362  1.9937 -3.9825
  145SOL    HW2  435   1.907   0.774   2.763 -1.9036  1.8893 -0.3889
  146SOL     OW  436   0.101   2.857   0.730  0.1054 -0.4549  0.5184
  146SOL    HW1  437   0.190   2.889   0.768  1.3066 -1.5105  1.1547
  146SOL    HW2  438   0.058   2.775   0.774 -1.5715 -0.2574 -0.0455
  147SOL     OW  439   1.718   0.520   1.914 -0.2093 -0.1821 -0.6975
  147SOL    HW1  440   1.620   0.519   1.886  0.2144 -0.1212 -1.6991
  147SOL    HW2  441   1.731   0.586   1.989 -2.2240 -2.1936 -0.1537
  148SOL     OW  442   1.351   0.463   1.979 -0.1694  0.1245  0.0216
  148SOL    HW1  443   1.409   0.533   2.032  2.4525  2.3051  0.5221
  148SOL    HW2  444   1.298   0.397   2.033 -0.8125  1.9588 -1.3480
  149SOL     OW  445   1.515   0.242   2.400  0.5637 -0.3980 -0.0737
  149SOL    HW1  446   1.484   0.254   2.299 -2.3785  0.1273 -1.8696
  149SOL    HW2  447   1.472   0.158   2.438 -0.3994  1.7543  2.5392
  150SOL     OW  448   2.794   3.001   0.360 -0.0657 -0.5218 -0.8228
  150SOL    HW1  449   2.872   2.952   0.321  2.2987 -0.9187  1.4189
  150SOL    HW2  450   2.724   3.023   0.288 -1.1486 -0.3463  2.4523
  151SOL     OW  451   0.558   1.032   0.054 -0.1847 -0.1851  0.1177
  151SOL    HW1  452   0.507   0.946   0.030 -1.8042  0.5802  0.5602
  151SOL    HW2  453   0.644   1.041   3.088 -1.7478  2.8142 -1.6549
  152SOL     OW  454   3.053   0.433   0.730 -0.0051 -0.2089  0.4942
  152SOL    HW1  455   3.033   0.368   0.804 -2.2391  4.3481 -1.1495
  152SOL    HW2  456   0.056   0.409   0.691 -0.7598 -0.2728 -0.6066
  153SOL     OW  457   2.472   0.128   1.381  0.3061 -0.3164  0.1007
  153SOL    HW1  458   2.521   0.077   1.307  1.7168  0.6073  0.9383
  153SOL    HW2  459   2.420   0.062   1.437 -1.3178  2.4316  2.2797
  154SOL     OW  460   1.478   0.172   2.141 -0.2702  0.0659  0.1335
  154SOL    HW1  461   1.572   0.216   2.122 -0.2970 -1.1617  2.0013
  154SOL    HW2  462   1.406   0.188   2.067  1.1202  1.2677  1.1000
  155SOL     OW  463   3.084   1.714   0.381  0.3255  0.1020  0.6882
  155SOL    HW1  464   3.068   1.710   0.278  0.6027  1.0111  1.9208
  155SOL    HW2  465   3.023   1.787   0.430 -2.2654  2.0145  2.3227
  156SOL     OW  466   2.681   1.752   2.947 -0.0753 -0.1900  0.2148
  156SOL    HW1  467   2.767   1.803   2.978  3.9520  1.5628  0.2035
  156SOL    HW2  468   2.658   1.678   3.015  0.8277 -1.0474 -2.6838
  157SOL     OW  469   0.769   0.158   0.654 -0.5172 -0.1403 -0.0364
  157SOL    HW1  470   0.750   0.218   0.575  1.0779 -0.8526  1.4547
  157SOL    HW2  471   0.815   0.075   0.621 -1.8414 -0.3314 -0.1541
  158SOL     OW  472   2.364   0.600   1.939  0.3670 -0.7742 -0.2271
  158SOL    HW1  473   2.296   0.543   1.897  2.6580  2.5466  2.1833
  158SOL    HW2  474   2.451   0.553   1.971  1.5803 -0.2680  0.0875
  159SOL     OW  475   0.214   0.357   0.628 -0.1057 -0.1440 -0.0572
  159SOL    HW1  476   0.241   0.277   0.575  0.5585  1.4447  2.0109
  159SOL    HW2  477   0.200   0.429   0.559  0.7788 -3.3086  3.5943
  160SOL     OW  478   1.963   2.024   2.131  0.0926 -0.7687  0.1499
  160SOL    HW1  479   1.922   2.119   2.146  0.0659  0.0681 -1.6641
  160SOL    HW2  480   1.891   1.958   2.109  1.4530  0.3006 -1.4993
  161SOL     OW  481   2.922   0.430   2.554  0.3441  0.0148  0.5843
  161SOL    HW1  482   2.920   0.414   2.656  0.7362  1.1659  1.3314
  161SOL    HW2  483   2.990   0.374   2.509 -0.2885  0.6176 -0.1657
  162SOL     OW  484   1.016   2.898   1.681  0.3733  0.0282  0.4708
  162SOL    HW1  485   1.089   2.830   1.666 -1.3277  1.0978  0.4095
  162SOL    HW2  486   1.031   2.973   1.752 -1.0509 -0.9909  0.9670
  163SOL     OW  487   2.661   0.274   2.170  0.3319  0.1358  0.0201
  163SOL    HW1  488   2.591   0.207   2.196 -1.9323  1.4860 -2.4571
  163SOL    HW2  489   2.749   0.231   2.155 -3.5625  0.5565 -0.2265
  164SOL     OW  490   2.296   1.646   3.027 -0.0062  0.4613 -0.1410
  164SOL    HW1  491   2.250   1.733   3.061  0.3379 -0.2571 -1.8732
  164SOL    HW2  492   2.396   1.654   3.009 -1.0277  1.3094  1.0802
  165SOL     OW  493   3.013   0.496   1.207 -0.0645  0.7549 -0.4841
  165SOL    HW1  494   3.073   0.420   1.176  0.7552  3.0902  0.1438
  165SOL    HW2  495   2.932   0.513   1.144  2.3768  1.6723 -0.2699
  166SOL     OW  496   2.352   0.751   0.210 -0.0232 -0.2190  0.9234
  166SOL    HW1  497   2.442   0.715   0.177 -1.5409  0.6708 -0.3906
  166SOL    HW2  498   2.319   0.824   0.147  1.1370 -0.7322 -0.8029
  167SOL     OW  499   2.831   0.756   3.001 -0.1181 -0.3740  0.6531
  167SOL    HW1  500   2.776   0.712   2.928  1.0691 -1.0696  1.7964
  167SOL    HW2  501   2.788   0.846   3.030  0.5373  0.7572 -1.2415
  168SOL     OW  502   1.701   2.970   2.810  0.3389 -0.4871 -0.5158
  168SOL    HW1  503   1.690   2.904   2.737  0.7462 -0.3537  0.5041
  168SOL    HW2  504   1.739   3.060   2.771  0.9986  1.1847 -0.1182
  169SOL     OW  505   0.160   1.646   1.000  0.1160 -0.1450  0.1323
  169SOL    HW1  506   0.111   1.567   0.955 -0.7944 -0.4239  0.5633
  169SOL    HW2  507   0.258   1.621   1.013  0.3348  0.0239  0.7766
  170SOL     OW  508   0.219   0.886   1.261 -0.2153 -0.4749  0.1236
  170SOL    HW1  509   0.192   0.980   1.283 -0.8319 -2.7686 -0.8619
  170SOL    HW2  510   0.165   0.815   1.311 -0.0985  0.1554 -2.4535
  171SOL     OW  511   2.443   2.121   1.938  0.5871  0.2709 -0.3441
  171SOL    HW1  512   2.479   2.158   1.850 -0.3024 -0.8527  0.5849
  171SOL    HW2  513   2.411   2.023   1.926 -0.9376  0.8757  0.3235
  172SOL     OW  514   0.163   2.201   1.680 -0.5648 -0.0441  0.1549
  172SOL    HW1  515   0.145   2.114   1.627  0.1448  2.0433  0.3137
  172SOL    HW2  516   0.198   2.275   1.618  0.8269 -2.6182  0.1124
  173SOL     OW  517   1.184   1.380   2.967  0.4201  0.2403  0.0779
  173SOL    HW1  518   1.266   1.433   2.998  1.5053  0.9935 -0.0042
  173SOL    HW2  519   1.103   1.438   2.949  1.6171  0.3019 -0.6080
  174SOL     OW  520   1.224   0.621   2.888  0.3119 -0.2082 -0.6293
  174SOL    HW1  521   1.321   0.648   2.859  2.5345 -0.8022 -1.3133
  174SOL    HW2  522   1.190   0.661   2.978 -0.6205  2.1018  1.7076
  175SOL     OW  523   1.525   1.904   1.095  0.2856  0.0761 -0.2357
  175SOL    HW1  524   1.467   1.830   1.142 -2.6786 -1.8019  3.5399
  175SOL    HW2  525   1.604   1.866   1.040  2.4999  3.2260 -0.5902
  176SOL     OW  526   1.534   0.009   0.265  0.0314 -0.1664  0.3465
  176SOL    HW1  527   1.506   3.005   0.236 -0.6123 -0.2201 -2.5741
  176SOL    HW2  528   1.623   0.032   0.219 -1.2225  0.7818 -3.5754
  177SOL     OW  529   0.344   1.012   2.885 -0.3314 -0.2956  0.5066
  177SOL    HW1  530   0.393   1.091   2.927  0.9314 -2.3057  0.3118
  177SOL    HW2  531   0.340   0.936   2.956 -0.7858 -2.4564  1.3908
  178SOL     OW  532   2.131   2.334   2.356  0.1455  0.3497  0.0855
  178SOL    HW1  533   2.211   2.381   2.401 -0.3984 -0.6398 -0.8512
  178SOL    HW2  534   2.144   2.233   2.353 -0.8354 -0.1521  0.0570
  179SOL     OW  535   2.987   0.016   2.743 -0.3712  0.2723  0.2696
  179SOL    HW1  536   2.896   3.076   2.781 -0.9219  2.2968 -0.8912
  179SOL    HW2  537   2.998   3.063   2.649 -1.4239 -0.9596  0.8435
  180SOL     OW  538   1.827   0.744   0.692 -0.3964 -0.1087 -0.1776
  180SOL    HW1  539   1.855   0.651   0.710  0.2349  4.3308  0.8425
  180SOL    HW2  540   1.821   0.799   0.778  0.4705 -2.6827  0.7722
  181SOL     OW  541   2.085   1.187   2.407 -0.1720  0.1343 -0.2782
  181SOL    HW1  542   2.145   1.264   2.441 -1.1538 -2.5781 -1.5930
  181SOL    HW2  543   2.015   1.157   2.473 -2.6251 -1.4754 -0.4334
  182SOL     OW  544   2.664   2.441   2.074  0.5489  0.3215 -0.4068
  182SOL    HW1  545   2.747   2.456   2.016  2.3375 -1.6123  0.7917
  182SOL    HW2  546   2.685   2.355   2.123 -0.7752 -1.1785 -1.9083
  183SOL     OW  547   1.974   0.740   1.877 -0.0253 -0.3941  0.4480
  183SOL    HW1  548   1.895   0.744   1.940  0.0388 -0.5188 -1.1838
  183SOL    HW2  549   2.010   0.643   1.870  1.3425  1.5047  1.1015
  184SOL     OW  550   0.035   1.669   1.540 -0.6808 -0.1560  0.3747
  184SOL    HW1  551   0.063   1.593   1.475  0.7508 -0.0982 -2.3368
  184SOL    HW2  552   0.065   1.760   1.505 -0.8299 -2.3715 -1.6557
  185SOL     OW  553   2.252   0.029   0.634  1.1801  0.2663 -0.3974
  185SOL    HW1  554   2.312   3.044   0.670  0.2956 -2.1922 -4.0262
  185SOL    HW2  555   2.151   0.002   0.655 -4.0757 -1.6974  0.1079
  186SOL     OW  556   3.043   2.508   2.729  0.1816 -0.2615  0.0561
  186SOL    HW1  557   2.963   2.460   2.684  0.7318 -1.7855 -1.8040
  186SOL    HW2  558   3.042   2.485   2.826 -0.0470  1.4512 -1.3541
  187SOL     OW  559   2.929   1.394   0.643  0.0729  0.0378 -0.3574
  187SOL    HW1  560   2.991   1.433   0.569  0.6015  0.9829 -2.0763
  187SOL    HW2  561   2.838   1.363   0.601 -0.2429 -3.6265  2.7330
  188SOL     OW  562   2.311   1.196   1.077  0.0846 -0.9707  0.1465
  188SOL    HW1  563   2.346   1.258   1.152  0.8163 -2.9026 -0.5621
  188SOL    HW2  564   2.232   1.236   1.029 -2.3385 -0.0221  2.3497
  189SOL     OW  565   3.048   0.211   2.382 -0.0742  0.4816  0.1822
  189SOL    HW1  566   3.002   0.123   2.408  0.6638  3.2933 -1.4992
  189SOL    HW2  567   0.061   0.197   2.376 -2.0011  0.1321 -2.2395
  190SOL     OW  568   1.553   1.119   1.861 -0.1905 -0.2827 -0.1472
  190SOL    HW1  569   1.461   1.154   1.890  2.1573  0.1866 -1.1125
  190SOL    HW2  570   1.545   1.076   1.770 -0.3704  1.5891 -1.3607
  191SOL     OW  571   0.933   0.296   2.033  0.3395 -0.4816  0.1872
  191SOL    HW1  572   1.036   0.295   2.033 -0.1567 -1.8861  1.1374
  191SOL    HW2  573   0.898   0.383   2.066 -0.2967 -0.5127 -0.0726
  192SOL     OW  574   1.527   1.871   1.832 -0.2001 -0.2117 -0.5069
  192SOL    HW1  575   1.447   1.840   1.888  0.0332  1.4230  2.2244
  192SOL    HW2  576   1.515   1.852   1.732 -1.6144 -1.0627 -0.3076
  193SOL     OW  577   1.716   0.543   0.960 -0.0434  0.8575  0.3069
  193SOL    HW1  578   1.645   0.566   0.892  2.0746  3.8570  0.0998
  193SOL    HW2  579   1.702   0.598   1.041 -1.9166  1.5906  0.0740
  194SOL     OW  580   0.613   1.937   1.404 -0.7013 -0.6424  0.5426
  194SOL    HW1  581   0.527   1.901   1.443 -1.5426  0.4270  0.2651
  194SOL    HW2  582   0.651   1.881   1.327  0.6024  0.5439  2.8915
  195SOL     OW  583   1.580   0.255   0.408 -0.1349  0.6169 -0.2554
  195SOL    HW1  584   1.675   0.268   0.366  0.7689  0.5570 -0.9004
  195SOL    HW2  585   1.569   0.154   0.425  1.1031  0.0516 -0.5180
  196SOL     OW  586   0.371   1.318   1.567 -0.4795 -0.3780  0.0858
  196SOL    HW1  587   0.400   1.359   1.481 -0.3631 -1.1996 -1.4307
  196SOL    HW2  588   0.275   1.336   1.585  2.3271 -2.0852 -2.0504
  197SOL     OW  589   0.997   0.314   1.660 -0.3671 -0.0293  0.1090
  197SOL    HW1  590   1.026   0.325   1.564 -1.8408 -1.4087  1.8513
  197SOL    HW2  591   1.046   0.378   1.724  2.2446 -4.1312 -0.6717
  198SOL     OW  592   0.828   1.274   0.989 -0.0201  0.2419 -0.1526
  198SOL    HW1  593   0.729   1.288   0.974  2.8942 -0.2249  0.8872
  198SOL    HW2  594   0.851   1.182   0.970  0.4090  2.6789 -1.3478
  199SOL     OW  595   0.041   2.347   1.875  0.2253  0.0294 -0.1621
  199SOL    HW1  596   0.035   2.443   1.843 -0.7448 -0.7776  0.0669
  199SOL    HW2  597   0.082   2.283   1.802  2.6429 -0.6514  0.7243
  200SOL     OW  598   1.893   1.520   1.863 -0.5058 -0.3165 -0.2503
  200SOL    HW1  599   1.988   1.483   1.859 -2.9275  1.1394 -0.1355
  200SOL    HW2  600   1.834   1.442   1.884  1.3709 -0.4211  0.3608
  201SOL     OW  601   0.627   1.783   2.090 -0.0241 -0.1581  0.0534
  201SOL    HW1  602   0.700   1.720   2.051 -1.3129 -2.3190  2.0350
  201SOL    HW2  603   0.535   1.741   2.079  3.6027 -3.1430  0.6573
  202SOL     OW  604   1.523   0.258   3.071 -0.2395  0.3822 -0.2139
  202SOL    HW1  605   1.592   0.316   3.028 -0.5013 -0.2546  2.4066
  202SOL    HW2  606   1.494   0.299   0.073 -0.8077  0.6745 -1.5419
  203SOL     OW  607   1.283   2.868   2.292 -0.1397 -0.3380  0.1949
  203SOL    HW1  608   1.206   2.828   2.231  0.3099 -2.0486 -0.8459
  203SOL    HW2  609   1.369   2.868   2.238 -0.4924  1.3260 -0.3926
  204SOL     OW  610   0.752   1.862   1.800 -0.0255 -0.0986 -0.4600
  204SOL    HW1  611   0.779   1.856   1.702  2.0735 -0.6421 -0.7631
  204SOL    HW2  612   0.797   1.788   1.853  1.0904 -0.4218  1.5566
  205SOL     OW  613   1.820   1.420   2.151 -0.0590  0.0901  0.4843
  205SOL    HW1  614   1.797   1.386   2.057 -0.3075  0.6139  0.9096
  205SOL    HW2  615   1.754   1.492   2.186 -0.4266  1.3062 -0.2232
  206SOL     OW  616   0.141   1.542   2.271  0.3238 -0.0637 -0.4049
  206SOL    HW1  617   0.239   1.521   2.272 -2.2473 -2.6904 -1.3550
  206SOL    HW2  618   0.118   1.601   2.354  0.2513  1.5426 -1.2139
  207SOL     OW  619   1.055   3.051   1.888 -0.3792 -0.3879 -0.3699
  207SOL    HW1  620   1.150   3.033   1.914 -2.1627 -0.2133 -0.4696
  207SOL    HW2  621   0.995   3.066   1.972  0.3932 -1.4770  0.3177
  208SOL     OW  622   0.360   2.512   1.732 -0.0215 -0.3450  0.0806
  208SOL    HW1  623   0.339   2.488   1.832  0.6045  1.6782  1.3755
  208SOL    HW2  624   0.455   2.545   1.719  0.0330 -1.8214  0.3900
  209SOL     OW  625   1.384   3.028   0.493  0.3545  0.3597 -0.8455
  209SOL    HW1  626   1.484   3.040   0.511  0.9320 -0.2004  1.5962
  209SOL    HW2  627   1.350   3.079   0.409 -1.3842  0.7760  0.3790
  210SOL     OW  628   2.663   0.899   1.033  0.0120 -0.4443  0.0267
  210SOL    HW1  629   2.738   0.868   0.966  0.6259 -2.4560 -0.9681
  210SOL    HW2  630   2.590   0.954   0.987 -3.0544 -1.4146 -1.3826
  211SOL     OW  631   0.659   0.429   1.712  0.2570 -0.0631 -0.4354
  211SOL    HW1  632   0.720   0.360   1.762  0.6916 -1.0146 -1.2854
  211SOL    HW2  633   0.587   0.387   1.653 -0.6572  0.9158 -0.5690
  212SOL     OW  634   1.451   2.523   1.633  0.0844 -0.2107 -0.0409
  212SOL    HW1  635   1.524   2.509   1.565  1.1261 -1.4335  0.9793
  212SOL    HW2  636   1.487   2.487   1.719  1.8550 -3.7542 -0.0125
  213SOL     OW  637   2.944   0.321   1.410 -0.4347 -0.1233 -0.0690
  213SOL    HW1  638   2.973   0.395   1.349  3.0343  1.3765  0.9625
  213SOL    HW2  639   2.847   0.330   1.430  1.0197  1.0899  1.6356
  214SOL     OW  640   0.621   2.614   1.714 -0.0675 -0.1752 -0.1196
  214SOL    HW1  641   0.699   2.571   1.663  0.3015 -1.3264  1.7218
  214SOL    HW2  642   0.652   2.672   1.791 -0.4971  2.4550 -1.2258
  215SOL     OW  643   2.486   1.452   1.657  0.0211  0.2925 -0.1731
  215SOL    HW1  644   2.449   1.360   1.684  1.1600  2.6702  0.4057
  215SOL    HW2  645   2.509   1.522   1.728  1.2777 -1.8690  0.5375
  216SOL     OW  646   0.374   1.059   2.081  0.1318 -0.1487 -0.7045
  216SOL    HW1  647   0.372   1.130   2.008 -0.1514 -1.6256  0.5951
  216SOL    HW2  648   0.465   1.009   2.071  2.1098  1.9857  0.2194
  217SOL     OW  649   2.770   3.010   1.494 -0.3814  0.6507 -0.2882
  217SOL    HW1  650   2.675   2.980   1.480  0.2438 -0.8632 -2.2618
  217SOL    HW2  651   2.815   3.067   1.424 -0.0542 -0.8030  3.1970
  218SOL     OW  652   1.577   2.149   1.169 -0.2597 -0.3937  0.9318
  218SOL    HW1  653   1.545   2.057   1.131 -4.2399 -1.0760  0.3077
  218SOL    HW2  654   1.665   2.186   1.123  0.4068  2.5808 -1.7255
  219SOL     OW  655   1.755   2.722   0.469 -0.4846  0.0175 -0.1148
  219SOL    HW1  656   1.808   2.676   0.544  1.1825  0.8572  0.2644
  219SOL    HW2  657   1.674   2.668   0.445 -0.6617  0.0454  1.3016
  220SOL     OW  658   1.621   2.529   0.094 -0.3159 -0.1863 -0.0274
  220SOL    HW1  659   1.552   2.573   0.033  0.0261  0.5373 -0.3677
  220SOL    HW2  660   1.718   2.543   0.063 -1.3025  0.5086 -1.0046
  221SOL     OW  661   2.560   1.703   0.610 -0.3502  0.1572 -0.0241
  221SOL    HW1  662   2.651   1.714   0.658  1.2603  3.3351  0.4218
  221SOL    HW2  663   2.514   1.618   0.642  0.1416  0.8611  1.2383
  222SOL     OW  664   0.759   2.435   0.788  0.3729  0.2554  0.1309
  222SOL    HW1  665   0.666   2.396   0.802 -0.0341  1.8751  0.0033
  222SOL    HW2  666   0.762   2.537   0.802  2.2720  0.4421 -1.6365
  223SOL     OW  667   0.965   2.930   3.060  0.4645 -0.0700  0.2029
  223SOL    HW1  668   0.945   2.833   3.081  1.3383  0.2161  0.1008
  223SOL    HW2  669   0.977   2.952   2.960 -1.0047  2.2848  1.8130
  224SOL     OW  670   2.990   0.932   1.148  0.7065  0.4666 -0.0834
  224SOL    HW1  671   2.945   0.947   1.238  0.3566 -0.0127  1.1872
  224SOL    HW2  672   3.008   0.835   1.140  0.8955  2.1995 -1.1464
  225SOL     OW  673   2.994   1.782   0.964  0.3111  0.3113 -0.2305
  225SOL    HW1  674   2.971   1.881   0.957  2.2717  2.6697  1.7172
  225SOL    HW2  675   0.005   1.777   0.948 -3.2528  0.9439 -1.8161
  226SOL     OW  676   0.816   2.761   1.025 -0.1242  0.0536 -1.2355
  226SOL    HW1  677   0.827   2.859   1.050 -0.2339 -0.5704 -0.6755
  226SOL    HW2  678   0.732   2.713   1.065 -1.4421 -3.0350  1.3831
  227SOL     OW  679   0.989   1.567   1.348 -0.3480  0.0900  0.5254
  227SOL    HW1  680   1.036   1.537   1.262  0.3147  2.2878  0.8633
  227SOL    HW2  681   0.895   1.538   1.363  3.5979  2.5494  0.4373
  228SOL     OW  682   1.184   0.280   2.112  1.0483  0.2724 -0.0473
  228SOL    HW1  683   1.192   0.176   2.106  0.2175 -0.1395 -1.6888
  228SOL    HW2  684   1.156   0.310   2.209 -1.8371  1.0740  2.6791
  229SOL     OW  685   2.987   0.652   2.400  0.0077 -0.2084  0.1160
  229SOL    HW1  686   2.961   0.569   2.454 -0.7580  2.6069 -2.1191
  229SOL    HW2  687   3.004   0.625   2.302  1.0142 -0.4627 -0.6668
  230SOL     OW  688   3.068   1.093   0.932 -0.0205 -0.2085  0.4666
  230SOL    HW1  689   3.034   1.187   0.953 -2.3221 -0.8273  1.0396
  230SOL    HW2  690   3.024   1.023   0.997 -3.3045  0.7653  0.1900
  231SOL     OW  691   1.429   3.066   2.493 -0.1937 -0.1784  0.1178
  231SOL    HW1  692   1.474   2.996   2.437  1.6392  0.8727 -1.4396
  231SOL    HW2  693   1.439   3.056   2.595  0.8409 -0.8314 -1.1646
  232SOL     OW  694   0.181   1.595   0.039  0.1511  0.6279  0.2292
  232SOL    HW1  695   0.217   1.546   3.045  1.1487 -0.6625 -0.3463
  232SOL    HW2  696   0.222   1.548   0.120 -3.2315  4.0174  1.7467
  233SOL     OW  697   1.287   2.509   2.925  0.8233  0.4217  0.9626
  233SOL    HW1  698   1.338   2.465   2.851 -2.8555  0.4319 -0.3956
  233SOL    HW2  699   1.189   2.493   2.900 -1.2074  1.0866  0.6315
  234SOL     OW  700   0.703   1.409   1.900 -0.1138  0.1529 -0.1557
  234SOL    HW1  701   0.750   1.323   1.865 -0.7830 -2.7464  0.7981
  234SOL    HW2  702   0.700   1.418   2.002 -0.2806 -0.3536 -0.2549
  235SOL     OW  703   0.324   2.413   1.988  0.4192 -0.1037  0.6724
  235SOL    HW1  704   0.313   2.315   1.965 -3.3925  0.6082  1.3427
  235SOL    HW2  705   0.421   2.432   2.012 -1.2476  0.5602 -1.2267
  236SOL     OW  706   1.710   2.010   2.784  0.2737 -0.0085  0.1888
  236SOL    HW1  707   1.691   1.949   2.865 -0.0622  0.1908  3.3220
  236SOL    HW2  708   1.706   2.113   2.804  2.1673  2.7098  0.2368
  237SOL     OW  709   1.384   0.610   0.378 -0.7567 -0.5736  0.2473
  237SOL    HW1  710   1.429   0.675   0.444  1.3483  0.0132 -1.3652
  237SOL    HW2  711   1.276   0.612   0.393 -5.1140 -0.4569 -1.4420
  238SOL     OW  712   0.959   3.047   2.172 -0.4495 -0.3791 -0.1965
  238SOL    HW1  713   0.934   2.951   2.197 -1.5329  2.2473  0.5862
  238SOL    HW2  714   0.891   0.025   2.206  0.4803 -1.4553  0.6674
  239SOL     OW  715   0.955   2.688   1.862  0.2557 -0.3196  0.0962
  239SOL    HW1  716   1.030   2.627   1.841  0.2305 -1.7418  4.6880
  239SOL    HW2  717   0.955   2.768   1.798 -0.4399  1.6236  0.8365
  240SOL     OW  718   2.015   2.730   0.768 -0.4863 -0.3843 -0.1805
  240SOL    HW1  719   1.946   2.660   0.736 -3.3843  0.4129 -0.9855
  240SOL    HW2  720   2.015   2.738   0.873 -0.3848  0.6782 -0.1324
  241SOL     OW  721   1.499   1.480   1.914 -0.3313 -0.4338  0.0525
  241SOL    HW1  722   1.424   1.478   1.846 -1.0232 -1.2848  2.7993
  241SOL    HW2  723   1.465   1.496   2.011 -1.1331 -1.8180  2.5518
  242SOL     OW  724   2.575   0.666   0.106 -0.4185  0.8182 -0.1371
  242SOL    HW1  725   2.674   0.656   0.132 -1.4486 -1.2753  2.0620
  242SOL    HW2  726   2.555   0.711   0.017 -1.1854  2.1022 -0.4187
  243SOL     OW  727   0.936   0.871   1.149  0.0922  0.2748  0.2406
  243SOL    HW1  728   0.894   0.781   1.158  0.4034  1.0287 -0.5439
  243SOL    HW2  729   0.998   0.891   1.229  0.0300  0.1488 -0.3303
  244SOL     OW  730   1.428   3.065   2.781 -0.4629 -0.4400 -0.2667
  244SOL    HW1  731   1.402   0.071   2.810 -0.8115 -0.0183  0.3981
  244SOL    HW2  732   1.520   3.041   2.819  0.5137  1.3730  0.3549
  245SOL     OW  733   2.025   0.060   3.085  0.0125  0.0230  0.6736
  245SOL    HW1  734   1.983   3.055   3.088  0.7926 -1.0901  1.2356
  245SOL    HW2  735   2.091   0.066   0.071 -1.5507 -0.7746 -0.6644
  246SOL     OW  736   1.024   0.895   1.481  0.6487 -0.4639  0.1279
  246SOL    HW1  737   1.109   0.841   1.452  3.8981 -0.8076 -0.5494
  246SOL    HW2  738   0.937   0.833   1.472 -0.5448 -2.4972  1.1670
  247SOL     OW  739   0.399   0.361   1.871  0.1405 -0.1028 -0.3063
  247SOL    HW1  740   0.403   0.266   1.908 -4.6818 -1.1062  0.7015
  247SOL    HW2  741   0.469   0.373   1.800  1.3928 -0.1302  2.0739
  248SOL     OW  742   0.027   1.978   2.064  0.2594  0.1929 -0.1022
  248SOL    HW1  743   0.026   1.880   2.098  0.8809  0.0646  1.4258
  248SOL    HW2  744   0.071   2.031   2.139 -0.2680  0.2277 -0.4540
  249SOL     OW  745   3.051   0.141   0.030  0.3671 -0.6580 -0.5293
  249SOL    HW1  746   3.033   0.053   3.074  2.7931  2.7461  2.5464
  249SOL    HW2  747   0.060   0.148   0.058  0.3492 -1.0812  1.1303
  250SOL     OW  748   3.044   0.136   0.419 -0.3715 -0.1692 -0.1143
  250SOL    HW1  749   2.952   0.105   0.400 -0.3238  3.7105  2.0101
  250SOL    HW2  750   0.024   0.064   0.398 -1.0146  0.4818  1.2889
  251SOL     OW  751   0.739   1.459   1.397  0.1683  0.0572 -0.1989
  251SOL    HW1  752   0.712   1.507   1.478 -1.2742 -1.8331 -0.7746
  251SOL    HW2  753   0.732   1.357   1.416 -0.3085 -0.9405  1.0881
  252SOL     OW  754   1.699   2.750   1.501  0.0014 -0.0915 -0.0485
  252SOL    HW1  755   1.780   2.770   1.438  0.0959 -2.0394 -0.3067
  252SOL    HW2  756   1.622   2.822   1.504 -1.2767  1.0094  0.8459
  253SOL     OW  757   2.297   1.809   2.449 -0.3840 -0.0713 -0.1039
  253SOL    HW1  758   2.355   1.896   2.458  0.4545  0.7302  2.0494
  253SOL    HW2  759   2.329   1.753   2.367 -0.6647 -1.5729  0.1839
  254SOL     OW  760   0.894   2.082   2.078 -0.3635 -0.5600  0.1818
  254SOL    HW1  761   0.844   2.064   1.990 -3.0336  1.4910 -0.4692
  254SOL    HW2  762   0.833   2.130   2.143 -0.9186  0.6199 -2.3269
  255SOL     OW  763   1.106   0.393   1.410  0.1680 -0.1868 -0.0589
  255SOL    HW1  764   1.202   0.409   1.439 -0.1512  3.1325 -0.2254
  255SOL    HW2  765   1.096   0.309   1.351  1.3661 -1.7651 -1.3442
  256SOL     OW  766   2.218   2.075   1.320  0.2484 -0.3463  0.1961
  256SOL    HW1  767   2.125   2.062   1.360 -0.4579  1.0716 -0.1279
  256SOL    HW2  768   2.211   2.061   1.220 -4.8500  1.1196  0.2099
  257SOL     OW  769   0.697   2.237   2.903 -0.1384 -0.0911 -0.1050
  257SOL    HW1  770   0.773   2.279   2.852 -0.6939 -0.9953  2.0828
  257SOL    HW2  771   0.631   2.305   2.939  0.2599 -0.2598 -1.3035
  258SOL     OW  772   0.321   1.443   2.937  0.2272  0.4965 -0.0976
  258SOL    HW1  773   0.410   1.495   2.933  0.6165 -2.9771 -1.5982
  258SOL    HW2  774   0.333   1.358   2.996 -2.0589  0.7889  2.7735
  259SOL     OW  775   0.857   1.410   2.536  0.6824 -0.0610 -0.3222
  259SOL    HW1  776   0.907   1.320   2.551  0.9005 -1.9863  0.9923
  259SOL    HW2  777   0.879   1.451   2.444 -0.6693 -2.9855  1.2821
  260SOL     OW  778   1.937   1.010   1.290  0.3097  0.1334  0.1682
  260SOL    HW1  779   1.880   1.029   1.372  1.5766 -1.8896 -0.9274
  260SOL    HW2  780   1.972   1.093   1.250 -0.2760 -3.7559  0.4628
  261SOL     OW  781   1.138   0.384   0.925  0.3089  0.1895  0.3778
  261SOL    HW1  782   1.078   0.465   0.939 -0.7894 -1.8552 -0.6300
  261SOL    HW2  783   1.204   0.369   1.005  1.5467  0.7659  3.2773
  262SOL     OW  784   1.986   1.953   2.738 -0.0003 -0.1720 -0.2040
  262SOL    HW1  785   2.052   2.012   2.688 -0.8505 -0.4269  0.8276
  262SOL    HW2  786   1.891   1.983   2.727 -0.0225 -2.4842  0.3451
  263SOL     OW  787   3.017   1.643   0.113 -1.1065 -0.1573  0.2905
  263SOL    HW1  788   2.966   1.562   0.149  0.0061 -0.3864  1.8030
  263SOL    HW2  789   0.025   1.622   0.081 -0.1783 -1.7864  0.2903
  264SOL     OW  790   0.426   1.656   1.046  0.4672  0.0100 -0.1898
  264SOL    HW1  791   0.482   1.585   1.089 -3.0402 -0.3257 -0.8953
  264SOL    HW2  792   0.473   1.744   1.045 -1.1395 -0.9958  0.0118
  265SOL     OW  793   0.478   0.959   0.771 -0.5931  0.2230 -0.1279
  265SOL    HW1  794   0.386   0.990   0.799  1.6880 -1.6484 -2.4782
  265SOL    HW2  795   0.536   1.035   0.741 -0.2630  0.5253  0.4536
  266SOL     OW  796   1.186   1.648   0.158  0.2940  0.3916  0.4500
  266SOL    HW1  797   1.125   1.600   0.225  0.3862 -0.6339  1.8785
  266SOL    HW2  798   1.148   1.738   0.144  1.2906 -1.0582  4.6193
  267SOL     OW  799   0.625   0.905   2.131  0.3994 -0.4218  0.6584
  267SOL    HW1  800   0.639   0.856   2.042  0.9459 -0.3705  1.4066
  267SOL    HW2  801   0.702   0.971   2.150  0.5446 -0.7302  1.6865
  268SOL     OW  802   0.624   0.814   2.921 -0.5520 -0.3634  0.1710
  268SOL    HW1  803   0.689   0.893   2.934  0.5174 -1.3287 -1.8790
  268SOL    HW2  804   0.606   0.767   3.011 -1.9395 -0.5454  1.6620
  269SOL     OW  805   1.746   2.920   2.400  0.4606  0.1030 -0.1025
  269SOL    HW1  806   1.748   3.016   2.377  0.5220 -1.2587 -0.4192
  269SOL    HW2  807   1.743   2.904   2.502 -1.1190  0.0286 -1.6739
  270SOL     OW  808   1.194   1.243   2.433 -0.2401 -0.0501  0.0129
  270SOL    HW1  809   1.259   1.238   2.508  0.1646 -0.5176 -1.5475
  270SOL    HW2  810   1.182   1.158   2.386  0.7666  0.4039 -0.1664
  271SOL     OW  811   0.213   0.195   0.144 -0.3821  0.1833 -0.4902
  271SOL    HW1  812   0.207   0.296   0.158 -0.2931  0.3282  0.1356
  271SOL    HW2  813   0.285   0.169   0.078 -1.8337 -0.8422  0.4304
  272SOL     OW  814   2.483   0.737   2.953 -0.2717  0.0223 -0.0708
  272SOL    HW1  815   2.438   0.820   2.923 -1.7640 -0.8699 -0.1634
  272SOL    HW2  816   2.486   0.668   2.882 -0.8069 -0.5083 -0.7123
  273SOL     OW  817   0.142   3.004   2.234 -0.2424  0.3351  0.0944
  273SOL    HW1  818   0.178   3.034   2.145 -0.4412 -0.4175 -0.9983
  273SOL    HW2  819   0.173   3.070   2.310  3.5471  0.2583  2.5296
  274SOL     OW  820   3.087   0.213   1.923 -0.4988 -0.2229 -0.3764
  274SOL    HW1  821   0.036   0.294   1.976 -0.7912  0.5381 -0.5625
  274SOL    HW2  822   3.069   0.229   1.824  0.1887 -1.6817  3.2610
  275SOL     OW  823   1.448   1.709   0.644  0.2143  0.4481  0.0016
  275SOL    HW1  824   1.489   1.665   0.562 -2.2274  1.3707  0.1335
  275SOL    HW2  825   1.523   1.767   0.684  1.1800  2.8379  0.7141
  276SOL     OW  826   0.570   1.283   2.380 -0.0873 -0.6905 -0.0557
  276SOL    HW1  827   0.490   1.221   2.365 -0.1622 -0.2310 -0.3738
  276SOL    HW2  828   0.638   1.244   2.446  4.4222 -0.4626  1.9588
  277SOL     OW  829   1.955   2.740   2.380 -0.1882 -0.4831  0.4231
  277SOL    HW1  830   1.923   2.644   2.358 -2.5889 -0.3059 -1.3382
  277SOL    HW2  831   1.868   2.797   2.393 -2.3115 -0.0238 -1.6704
  278SOL     OW  832   2.080   2.979   2.007  0.5095 -0.3747  0.3381
  278SOL    HW1  833   2.139   2.896   2.018 -0.2751  0.2076 -0.6035
  278SOL    HW2  834   2.104   3.028   1.920  0.6936 -0.0924 -0.2701
  279SOL     OW  835   1.735   1.288   0.063 -0.1490 -0.1853  0.3916
  279SOL    HW1  836   1.639   1.296   0.109  0.4959 -0.1297  1.5082
  279SOL    HW2  837   1.749   1.384   0.022  0.0143  0.1077 -1.2039
  280SOL     OW  838   0.772   1.060   2.976  0.5908 -0.1975  0.2759
  280SOL    HW1  839   0.784   1.146   2.921  0.7275  1.1716  0.8841
  280SOL    HW2  840   0.856   0.996   2.968 -0.7289 -1.1362  0.2332
  281SOL     OW  841   0.066   3.085   1.401 -0.2761 -0.0837 -0.0642
  281SOL    HW1  842   0.098   3.028   1.478 -1.0532  4.5099  0.0173
  281SOL    HW2  843   0.144   0.047   1.367  1.3051 -0.6582  1.5811
  282SOL     OW  844   2.922   2.060   0.916  0.5623 -0.0645  0.1528
  282SOL    HW1  845   3.002   2.121   0.908  0.0260 -2.0293  0.9137
  282SOL    HW2  846   2.842   2.116   0.921 -1.0207 -1.3730  1.6825
  283SOL     OW  847   1.361   1.864   2.055  0.1736  0.0689 -0.0741
  283SOL    HW1  848   1.382   1.808   2.135 -1.3648  2.5406 -0.6182
  283SOL    HW2  849   1.377   1.963   2.068 -0.3861 -0.3008 -0.9038
  284SOL     OW  850   2.019   3.012   0.284 -0.1421 -0.1003 -0.3020
  284SOL    HW1  851   2.120   2.993   0.302  2.3023 -0.7929 -0.3785
  284SOL    HW2  852   1.993   2.963   0.203  1.0463 -0.0600  0.8140
  285SOL     OW  853   0.003   2.760   2.594 -0.2617 -0.0168 -0.4487
  285SOL    HW1  854   0.094   2.808   2.597 -1.6489  0.2401  1.1302
  285SOL    HW2  855   0.004   2.665   2.639  0.9147 -0.8941 -1.1702
  286SOL     OW  856   2.154   2.567   1.267  0.0238  0.3592  0.3121
  286SOL    HW1  857   2.127   2.629   1.342  0.5596 -0.9393 -1.0031
  286SOL    HW2  858   2.175   2.474   1.304  2.7801 -0.1516 -1.2489
  287SOL     OW  859   0.332   1.504   0.680 -0.4213 -0.5154  0.1677
  287SOL    HW1  860   0.302   1.439   0.755  0.3232 -1.0273  2.6607
  287SOL    HW2  861   0.413   1.559   0.716 -0.2678  1.2829  2.7047
  288SOL     OW  862   2.063   1.680   2.705  0.0193 -0.0659  0.4151
  288SOL    HW1  863   2.029   1.620   2.633 -0.4096 -1.3631  1.4196
  288SOL    HW2  864   2.014   1.770   2.702  1.1455 -2.5784 -0.2053
  289SOL     OW  865   0.338   1.724   2.529 -0.5032 -0.0483  0.1176
  289SOL    HW1  866   0.417   1.750   2.466 -1.5845 -0.9318 -0.1691
  289SOL    HW2  867   0.329   1.625   2.532  0.6485  1.6593  1.8314
  290SOL     OW  868   1.277   2.176   1.233  0.4677 -0.0514  0.4221
  290SOL    HW1  869   1.356   2.158   1.171  2.0435 -0.8698 -2.5429
  290SOL    HW2  870   1.192   2.178   1.184  1.3787 -1.0908 -0.2494
  291SOL     OW  871   1.818   1.113   2.973  0.2493  0.0796  0.0146
  291SOL    HW1  872   1.888   1.052   3.009 -1.5950  2.5039 -0.6913
  291SOL    HW2  873   1.788   1.170   3.053  1.4689  0.3737 -0.4239
  292SOL     OW  874   0.773   1.567   0.600 -0.2464 -0.0122  0.0114
  292SOL    HW1  875   0.751   1.564   0.503 -1.1831  0.0135  2.6717
  292SOL    HW2  876   0.805   1.476   0.637  1.8551 -3.1043 -0.9041
  293SOL     OW  877   1.543   2.844   1.144 -0.2970  0.2982  0.1232
  293SOL    HW1  878   1.474   2.770   1.128 -0.3559  0.3337 -1.7784
  293SOL    HW2  879   1.574   2.896   1.063 -2.7725 -1.4307 -0.9678
  294SOL     OW  880   2.802   1.038   2.833  0.4208  0.9110 -0.2307
  294SOL    HW1  881   2.749   0.974   2.769 -2.7978 -1.2143 -1.6353
  294SOL    HW2  882   2.902   1.035   2.813 -1.5130  0.8434 -0.4053
  295SOL     OW  883   1.617   2.049   2.546 -0.2181 -0.0419 -0.5573
  295SOL    HW1  884   1.641   2.050   2.644 -1.0591  0.2919 -0.3858
  295SOL    HW2  885   1.655   2.128   2.492 -1.4176 -1.1137 -3.2953
  296SOL     OW  886   1.782   0.740   2.085  0.2009 -0.2178  0.1356
  296SOL    HW1  887   1.735   0.832   2.076 -1.7007  2.1105 -2.4423
  296SOL    HW2  888   1.858   0.744   2.149  1.1205  1.4121 -0.9336
  297SOL     OW  889   3.003   0.643   2.120  0.4638  0.0886 -0.7167
  297SOL    HW1  890   2.951   0.586   2.052  0.0945 -0.3575 -0.7050
  297SOL    HW2  891   3.031   0.731   2.078  1.5031 -2.9716  2.3299
  298SOL     OW  892   1.353   2.145   2.090 -0.1358  0.1593 -0.0362
  298SOL    HW1  893   1.329   2.192   2.003  0.6826  0.3887 -1.9232
  298SOL    HW2  894   1.273   2.148   2.152 -0.0176 -1.3163  0.6699
  299SOL     OW  895   0.844   2.643   2.565  0.3420 -0.5150 -0.4911
  299SOL    HW1  896   0.848   2.686   2.662  1.2547  0.3272 -3.4273
  299SOL    HW2  897   0.837   2.708   2.488 -0.1199 -2.3026  0.9704
  300SOL     OW  898   0.002   1.040   2.782 -0.0215 -0.0786 -0.1169
  300SOL    HW1  899   0.023   0.995   2.872 -3.6330  0.6061  2.0193
  300SOL    HW2  900   0.027   0.995   2.697  0.6130 -0.4489 -0.7661
  301SOL     OW  901   1.772   1.002   1.510  0.4469  0.4118  0.1894
  301SOL    HW1  902   1.793   0.915   1.558 -0.0242  0.6946  0.1024
  301SOL    HW2  903   1.671   1.011   1.502  1.6247 -1.0171 -1.2175
  302SOL     OW  904   2.710   1.917   2.531 -0.4938 -0.1086  0.1346
  302SOL    HW1  905   2.714   1.838   2.591 -0.5464  1.2896 -0.5054
  302SOL    HW2  906   2.618   1.934   2.495  0.4531 -1.5120 -0.8812
  303SOL     OW  907   0.271   2.809   2.387 -0.1568  0.2896  0.1165
  303SOL    HW1  908   0.328   2.852   2.455 -0.0480 -0.0912 -1.6808
  303SOL    HW2  909   0.218   2.880   2.336 -1.4308 -1.0597  0.9093
  304SOL     OW  910   0.111   0.949   1.523 -0.1571  0.6931  0.1081
  304SOL    HW1  911   0.150   0.956   1.618 -0.2784 -0.7207  3.8621
  304SOL    HW2  912   0.048   0.868   1.518 -0.6435 -1.9619 -0.0764
  305SOL     OW  913   3.038   0.225   1.654 -0.0114  0.3108  0.1395
  305SOL    HW1  914   3.029   0.247   1.553  3.7178 -0.8694  1.9873
  305SOL    HW2  915   2.966   0.158   1.682 -1.9058  1.6490 -0.4826
  306SOL     OW  916   2.411   1.395   1.263 -0.1379 -0.1529 -0.3643
  306SOL    HW1  917   2.384   1.313   1.324  0.5147 -0.4348  0.3311
  306SOL    HW2  918   2.447   1.477   1.316  2.1980  0.6913  4.6242
  307SOL     OW  919   2.446   2.915   0.701  0.1697  0.0957  0.1808
  307SOL    HW1  920   2.525   2.893   0.634  4.2708  0.4626 -2.3768
  307SOL    HW2  921   2.475   2.993   0.763 -1.1136 -0.3147 -0.6547
  308SOL     OW  922   2.665   2.032   1.305  0.0968  0.1275  0.2625
  308SOL    HW1  923   2.645   2.024   1.208  2.6123 -0.6249  0.8567
  308SOL    HW2  924   2.746   1.967   1.325 -0.1742  0.8515 -1.7813
  309SOL     OW  925   2.064   1.964   1.894  0.7285 -0.5374 -0.4905
  309SOL    HW1  926   1.996   1.886   1.879 -1.6920 -0.6431  1.3717
  309SOL    HW2  927   2.036   2.010   1.980 -2.2444 -2.7897  3.5165
  310SOL     OW  928   2.404   1.482   2.790 -0.1339 -0.0231  0.2876
  310SOL    HW1  929   2.315   1.432   2.791 -1.8508  1.1802 -1.9826
  310SOL    HW2  930   2.386   1.580   2.779 -0.1580 -0.7935  1.1846
  311SOL     OW  931   2.104   1.020   2.782 -0.3845  0.1885  0.3047
  311SOL    HW1  932   2.035   1.044   2.706 -0.8799  0.6695 -4.1827
  311SOL    HW2  933   2.074   0.943   2.848  1.7846 -1.9926 -0.7785
  312SOL     OW  934   1.557   2.323   2.158  0.0726  0.8237  0.0060
  312SOL    HW1  935   1.525   2.415   2.132 -3.0830  3.5451  0.6010
  312SOL    HW2  936   1.494   2.248   2.128 -1.5646 -0.6841 -1.4131
  313SOL     OW  937   0.500   2.904   1.144  0.0854  0.6100 -0.2238
  313SOL    HW1  938   0.423   2.882   1.082  0.8168 -1.5303  1.1433
  313SOL    HW2  939   0.506   2.820   1.204 -0.7342  0.4859  1.5899
  314SOL     OW  940   0.683   1.536   1.142  0.0226  0.3557 -0.2204
  314SOL    HW1  941   0.688   1.481   1.231 -0.0885 -0.7181  1.9936
  314SOL    HW2  942   0.699   1.481   1.058 -0.1136 -2.2952 -0.1106
  315SOL     OW  943   0.769   2.616   2.077 -0.1779  0.0898  0.3687
  315SOL    HW1  944   0.872   2.609   2.058  3.7853 -1.7648 -0.0701
  315SOL    HW2  945   0.724   2.686   2.017 -1.3686 -0.2135 -0.9231
  316SOL     OW  946   0.065   2.069   1.136  0.0263  0.0469 -0.0248
  316SOL    HW1  947   0.046   2.127   1.217 -0.5817  0.6471  0.8912
  316SOL    HW2  948   0.133   1.995   1.149  1.2334  0.1280  1.7041
  317SOL     OW  949   1.876   0.673   0.292 -0.0211  0.3432 -0.0783
  317SOL    HW1  950   1.850   0.745   0.362  2.8870  1.9745  0.9546
  317SOL    HW2  951   1.962   0.632   0.330 -1.2249 -1.4664 -1.2122
  318SOL     OW  952   2.783   2.619   2.999  0.4310  0.2850 -0.0826
  318SOL    HW1  953   2.761   2.623   0.011  0.7842  2.8368 -1.4791
  318SOL    HW2  954   2.865   2.563   2.987  0.7606  0.5928  2.0351
  319SOL     OW  955   1.360   1.895   0.047  0.4059  0.1037  0.0538
  319SOL    HW1  956   1.261   1.904   0.070  1.8628 -2.2154  1.0062
  319SOL    HW2  957   1.380   1.877   3.041  0.1732  3.1139  0.1909
  320SOL     OW  958   0.805   2.261   2.522 -0.1320  0.1309  0.0533
  320SOL    HW1  959   0.705   2.266   2.541  0.5703 -0.1269  2.6295
  320SOL    HW2  960   0.869   2.272   2.604  1.0653  0.0192 -1.0878
  321SOL     OW  961   0.999   2.621   0.094  0.2386  0.3030 -0.0020
  321SOL    HW1  962   1.045   2.546   0.145  1.3661 -0.1343  2.1946
  321SOL    HW2  963   0.986   2.705   0.152 -1.3521 -0.2775  2.7532
  322SOL     OW  964   2.222   0.360   2.321  0.2603  0.6337  0.3738
  322SOL    HW1  965   2.228   0.271   2.373  0.5291  0.8057  0.2416
  322SOL    HW2  966   2.297   0.426   2.343  1.4143  0.6911 -0.8046
  323SOL     OW  967   2.800   1.007   0.631 -0.1430 -0.2099 -0.1712
  323SOL    HW1  968   2.889   0.970   0.671 -0.7703  0.5611  2.3343
  323SOL    HW2  969   2.825   1.045   0.536  2.3259 -1.4771 -1.6264
  324SOL     OW  970   0.437   0.474   2.259  0.2389 -0.2296 -0.0769
  324SOL    HW1  971   0.365   0.544   2.265 -0.1912 -0.6067  1.4963
  324SOL    HW2  972   0.487   0.472   2.170 -0.7491 -1.2890  1.0049
  325SOL     OW  973   0.674   3.036   2.316  0.3932  0.3456  0.7786
  325SOL    HW1  974   0.697   0.019   2.244  1.4355 -0.8602  0.0229
  325SOL    HW2  975   0.652   3.081   2.406 -0.7284  3.6886 -1.1333
  326SOL     OW  976   2.663   2.280   0.538  0.0643 -0.1066  0.0227
  326SOL    HW1  977   2.639   2.246   0.630  1.1761 -0.2386  0.5816
  326SOL    HW2  978   2.757   2.320   0.546 -0.1361 -1.8947  1.9965
  327SOL     OW  979   2.059   1.133   0.474 -0.1849  0.1491 -0.6293
  327SOL    HW1  980   2.007   1.163   0.555 -1.9715  0.3345 -0.6891
  327SOL    HW2  981   1.998   1.120   0.393  0.3913 -2.1240  0.8329
  328SOL     OW  982   0.459   2.024   2.336  0.1127 -0.1693  0.6649
  328SOL    HW1  983   0.500   1.944   2.390  3.0261 -3.0605  1.3418
  328SOL    HW2  984   0.360   2.034   2.355 -0.0320 -0.5215 -2.4757
  329SOL     OW  985   2.765   2.481   1.673 -0.3367 -0.7866  0.3060
  329SOL    HW1  986   2.767   2.382   1.693 -0.3693  3.1434  0.8125
  329SOL    HW2  987   2.818   2.527   1.750  1.7832 -0.0057  1.0337
  330SOL     OW  988   2.357   1.240   1.731 -0.3995  0.3553  0.0412
  330SOL    HW1  989   2.269   1.255   1.775  3.6479 -1.4552  1.0441
  330SOL    HW2  990   2.424   1.225   1.806 -0.3936  0.3197 -2.4173
  331SOL     OW  991   2.675   1.926   1.053 -0.6074 -0.0665 -0.4974
  331SOL    HW1  992   2.769   1.938   1.013 -1.0793 -2.8702 -2.2439
  331SOL    HW2  993   2.636   1.831   1.047  1.0716  0.2427 -1.6433
  332SOL     OW  994   0.492   2.521   0.563  0.8641  0.3991 -0.0670
  332SOL    HW1  995   0.547   2.585   0.622  1.8596  1.7889  0.1975
  332SOL    HW2  996   0.408   2.572   0.528 -2.1757  4.1534  0.0312
  333SOL     OW  997   2.276   0.080   2.419  0.3346  0.0741  0.3800
  333SOL    HW1  998   2.269   0.082   2.521  0.5861 -2.0070  0.9602
  333SOL    HW2  999   2.199   0.017   2.380 -1.3378 -0.9104 -0.0972
  334SOL     OW 1000   0.758   0.827   0.482  0.1142  0.6966  1.0902
  334SOL    HW1 1001   0.751   0.928   0.505 -0.4303 -2.0825 -0.7403
  334SOL    HW2 1002   0.670   0.791   0.438 -2.7543 -0.3427 -1.9915
  335SOL     OW 1003   0.494   2.489   2.360 -0.4116  0.1179  0.7283
  335SOL    HW1 1004   0.521   2.462   2.263 -0.8718  0.5417 -2.4063
  335SOL    HW2 1005   0.392   2.511   2.369 -1.7697 -2.9562  1.4695
  336SOL     OW 1006   2.683   3.010   2.531  0.2966 -0.3610  0.2518
  336SOL    HW1 1007   2.607   3.045   2.593 -0.0040 -0.3068 -3.4362
  336SOL    HW2 1008   2.641   2.961   2.453  2.2214 -0.5570  1.3338
  337SOL     OW 1009   1.219   1.706   0.938  0.0390 -0.3369  0.5990
  337SOL    HW1 1010   1.252   1.704   1.033 -1.9992 -1.4945 -1.4157
  337SOL    HW2 1011   1.265   1.633   0.887  0.4938  1.1776  0.3010
  338SOL     OW 1012   0.868   1.959   0.968  0.8447  0.9430 -0.3533
  338SOL    HW1 1013   0.901   1.874   0.917  0.4788 -1.5440 -1.4275
  338SOL    HW2 1014   0.817   1.929   1.051  0.2816  1.8265  0.9817
  339SOL     OW 1015   0.077   1.330   1.624 -0.4125  0.4715  0.1581
  339SOL    HW1 1016   0.022   1.285   1.550 -0.7306  0.5764 -0.1455
  339SOL    HW2 1017   0.018   1.391   1.684  0.0925 -1.0411  1.9128
  340SOL     OW 1018   1.518   2.990   2.187  0.6287 -0.4781 -0.0849
  340SOL    HW1 1019   1.614   2.976   2.220  1.4185 -1.1520  0.0760
  340SOL    HW2 1020   1.494   0.004   2.170  0.0095  4.5151  0.4403
  341SOL     OW 1021   1.585   1.563   1.029 -0.4885 -0.4513  0.9534
  341SOL    HW1 1022   1.503   1.590   1.082 -0.1273 -0.9074 -0.8386
  341SOL    HW2 1023   1.655   1.524   1.095 -0.1581 -0.9347 -0.0486
  342SOL     OW 1024   3.058   1.429   0.896  0.2241  0.0304 -0.2521
  342SOL    HW1 1025   3.030   1.425   0.799  0.5812  2.2997 -0.0255
  342SOL    HW2 1026   2.981   1.404   0.959 -0.1005  0.8150  1.1869
  343SOL     OW 1027   2.848   1.001   1.442 -0.0249 -0.1267 -0.4247
  343SOL    HW1 1028   2.887   0.916   1.480  2.5015 -2.4840 -1.8832
  343SOL    HW2 1029   2.756   0.982   1.401 -1.9190  1.5869  3.0761
  344SOL     OW 1030   1.975   0.420   0.883 -0.4980 -0.1533  0.0014
  344SOL    HW1 1031   1.996   0.432   0.783 -0.2320 -2.0341 -1.7272
  344SOL    HW2 1032   1.884   0.462   0.901  1.8095 -0.0068 -2.5226
  345SOL     OW 1033   0.439   2.893   2.607  0.4724  0.1558  0.3592
  345SOL    HW1 1034   0.500   2.811   2.591  1.6568  0.4024  0.8366
  345SOL    HW2 1035   0.491   2.979   2.604 -0.0643 -3.9053  0.3424
  346SOL     OW 1036   2.309   1.364   0.096  0.3107  0.4103 -0.2008
  346SOL    HW1 1037   2.279   1.457   0.066 -1.4303 -0.2694  1.9229
  346SOL    HW2 1038   2.271   1.341   0.188 -1.4237  0.4321 -0.9189
  347SOL     OW 1039   1.852   2.951   1.733  0.2423  0.0173 -0.7326
  347SOL    HW1 1040   1.826   3.052   1.723 -1.6322  1.3425  2.8465
  347SOL    HW2 1041   1.772   2.889   1.753 -0.2426 -1.6613  1.7608
  348SOL     OW 1042   0.977   1.140   1.387  0.5960  0.6136 -0.5764
  348SOL    HW1 1043   0.995   1.054   1.451 -1.3772 -2.0917  2.1806
  348SOL    HW2 1044   0.879   1.157   1.378 -1.1197 -1.4052 -0.8171
  349SOL     OW 1045   2.641   0.721   1.738  0.5233 -0.1113 -0.1187
  349SOL    HW1 1046   2.705   0.768   1.804  0.1094 -0.2467  2.9499
  349SOL    HW2 1047   2.611   0.778   1.659 -3.8243 -0.7358 -1.1985
  350SOL     OW 1048   2.363   2.145   0.089 -0.2883 -0.3658  0.4016
  350SOL    HW1 1049   2.311   2.056   0.083 -0.2114  0.6624 -1.4898
  350SOL    HW2 1050   2.318   2.217   0.148  2.8787  2.3493 -0.8629
  351SOL     OW 1051   0.603   3.033   1.632 -0.4718 -0.8021 -0.3325
  351SOL    HW1 1052   0.619   3.069   1.726  0.0528 -1.4978 -0.3469
  351SOL    HW2 1053   0.520   3.077   1.595  0.1957 -1.8763  1.2613
  352SOL     OW 1054   1.974   2.404   1.934 -0.2169 -0.2358 -0.0666
  352SOL    HW1 1055   2.036   2.448   2.005  1.1815 -0.0248 -0.1694
  352SOL    HW2 1056   1.917   2.334   1.980 -2.2352 -0.4005  1.0713
  353SOL     OW 1057   0.689   1.411   2.185  0.1172  0.1752  0.4253
  353SOL    HW1 1058   0.639   1.355   2.254  1.4140 -0.9467  0.1173
  353SOL    HW2 1059   0.776   1.452   2.218 -0.9251  1.6197 -0.7555
  354SOL     OW 1060   1.081   1.901   0.112  0.7420 -0.0054 -0.5694
  354SOL    HW1 1061   1.055   1.989   0.067  0.6054 -1.1546  1.0451
  354SOL    HW2 1062   1.022   1.881   0.198 -1.8575 -1.5721  2.8291
  355SOL     OW 1063   1.891   0.153   0.788 -0.3014 -0.2762 -0.1715
  355SOL    HW1 1064   1.935   0.064   0.767 -2.9009 -1.5744  0.8580
  355SOL    HW2 1065   1.952   0.212   0.846  0.8868 -0.2205  1.7917
  356SOL     OW 1066   2.763   1.268   3.030  0.3072 -0.0001  0.4142
  356SOL    HW1 1067   2.799   1.194   2.968 -0.5013 -0.3767 -0.9031
  356SOL    HW2 1068   2.666   1.292   3.006  0.2350 -2.1231 -0.0128
  357SOL     OW 1069   2.862   3.049   2.011 -0.4759  0.1906  0.0153
  357SOL    HW1 1070   2.884   0.045   2.062  1.6300 -1.8583 -2.5322
  357SOL    HW2 1071   2.781   3.066   1.950  0.8676  0.9730 -1.0906
  358SOL     OW 1072   0.291   1.335   0.470  0.4160  0.2302  0.6950
  358SOL    HW1 1073   0.197   1.300   0.442 -1.9310 -0.3196 -2.2417
  358SOL    HW2 1074   0.286   1.399   0.552  0.7589  0.6381 -1.0018
  359SOL     OW 1075   2.630   0.210   2.893 -0.3044 -0.3651 -0.6126
  359SOL    HW1 1076   2.598   0.279   2.821 -0.7269  2.3945 -0.1264
  359SOL    HW2 1077   2.694   0.263   2.954 -1.4873  1.1093  0.5637
  360SOL     OW 1078   1.385   0.989   1.299 -0.2165  0.1361  0.3340
  360SOL    HW1 1079   1.484   0.973   1.287 -1.4319  1.4189 -1.6557
  360SOL    HW2 1080   1.339   1.004   1.208 -1.8744  0.3651 -0.9907
  361SOL     OW 1081   2.460   2.309   0.983  0.0704 -0.0676  0.2619
  361SOL    HW1 1082   2.488   2.290   1.081  1.0065  1.1593  0.5202
  361SOL    HW2 1083   2.429   2.406   0.986 -1.5468 -2.1194 -0.0736
  362SOL     OW 1084   1.357   0.364   1.126  0.5126 -0.0500 -0.7444
  362SOL    HW1 1085   1.364   0.309   1.214 -0.3706 -0.6653  0.3359
  362SOL    HW2 1086   1.447   0.354   1.078  2.0667  0.0108 -1.3649
  363SOL     OW 1087   1.914   2.085   0.419  0.1870  0.5141  0.1616
  363SOL    HW1 1088   2.011   2.058   0.408 -2.5772 -0.9785  2.6621
  363SOL    HW2 1089   1.899   2.185   0.415  1.9470 -2.1662 -2.7731
  364SOL     OW 1090   0.318   0.681   0.896 -0.4012 -0.2591 -0.0654
  364SOL    HW1 1091   0.320   0.581   0.889 -4.9852  0.4028  1.2596
  364SOL    HW2 1092   0.334   0.708   0.993  0.6121  2.7502 -2.7914
  365SOL     OW 1093   0.385   2.863   0.824 -0.2474 -0.9349 -0.0434
  365SOL    HW1 1094   0.344   2.841   0.916 -0.7950 -1.5551 -1.6169
  365SOL    HW2 1095   0.398   2.966   0.812 -0.1987  2.1791  0.9594
  366SOL     OW 1096   2.932   1.378   0.167 -0.1920 -0.3556  0.0705
  366SOL    HW1 1097   3.006   1.352   0.098  2.0167  0.4930  0.5299
  366SOL    HW2 1098   2.842   1.339   0.135 -0.8150  0.7021  0.2371
  367SOL     OW 1099   2.253   2.474   2.579 -0.3124 -0.4021  0.5120
  367SOL    HW1 1100   2.212   2.563   2.537 -3.6971  0.4507 -1.1349
  367SOL    HW2 1101   2.322   2.499   2.643 -4.0498 -0.5444  0.2646
  368SOL     OW 1102   2.258   1.656   0.698  0.2523 -0.0831  0.0561
  368SOL    HW1 1103   2.290   1.730   0.760 -1.3713 -1.5401 -0.2886
  368SOL    HW2 1104   2.329   1.581   0.695 -1.6563 -0.6486 -1.1886
  369SOL     OW 1105   1.433   0.893   0.047  0.0234 -0.5000  0.0781
  369SOL    HW1 1106   1.341   0.902   0.089 -0.5852 -1.3029 -0.5465
  369SOL    HW2 1107   1.459   0.797   0.043  0.3925  3.3749 -0.2232
  370SOL     OW 1108   0.743   3.051   1.045  0.0315  0.1691 -0.9759
  370SOL    HW1 1109   0.726   0.063   1.034  1.8673 -0.6759 -0.8023
  370SOL    HW2 1110   0.661   2.994   1.064  3.0610 -1.5300  0.4083
  371SOL     OW 1111   2.877   1.369   2.660 -0.0948 -0.2694  0.0992
  371SOL    HW1 1112   2.916   1.465   2.645  0.5252  2.9952 -1.1977
  371SOL    HW2 1113   2.897   1.330   2.755 -0.2063  1.3222  1.1644
  372SOL     OW 1114   0.561   0.720   2.339 -0.5053  0.2724 -0.5409
  372SOL    HW1 1115   0.527   0.635   2.304 -0.6447 -0.7268  1.7830
  372SOL    HW2 1116   0.569   0.797   2.272  1.9342  1.7871 -1.6500
  373SOL     OW 1117   0.593   0.310   0.074  0.1972 -0.1190  0.0110
  373SOL    HW1 1118   0.600   0.358   3.073  0.3275  1.0767  1.7004
  373SOL    HW2 1119   0.680   0.263   0.099  1.0130  2.1977  1.0727
  374SOL     OW 1120   1.105   1.856   2.909  0.0493 -0.3794 -0.1594
  374SOL    HW1 1121   1.029   1.858   2.841 -1.2975 -0.9876 -1.2348
  374SOL    HW2 1122   1.073   1.890   2.999  0.9190 -3.0085  0.0591
  375SOL     OW 1123   0.790   0.200   1.799  0.1862  0.2261 -0.2542
  375SOL    HW1 1124   0.848   0.212   1.717 -4.5714 -3.5117  2.6328
  375SOL    HW2 1125   0.844   0.238   1.876  0.3547  2.6743  1.7485
  376SOL     OW 1126   0.131   2.780   1.968 -0.3630 -0.1862 -0.7984
  376SOL    HW1 1127   0.063   2.748   2.041 -3.6471 -0.3830  0.9336
  376SOL    HW2 1128   0.202   2.835   2.007 -0.5523  0.0126 -0.0160
  377SOL     OW 1129   2.609   2.290   2.751  0.5076 -0.6706 -0.6114
  377SOL    HW1 1130   2.570   2.386   2.779  1.0225  0.8155 -2.4491
  377SOL    HW2 1131   2.628   2.234   2.834  1.6358  1.2879  2.3627
  378SOL     OW 1132   2.021   0.203   0.375 -0.1973  0.2666  0.1724
  378SOL    HW1 1133   1.991   0.105   0.392  0.7540  0.3351  0.5382
  378SOL    HW2 1134   2.104   0.211   0.318 -2.2675  1.5810 -0.0877
  379SOL     OW 1135   1.416   0.812   0.631  0.2722 -0.0701 -0.2148
  379SOL    HW1 1136   1.320   0.826   0.593 -1.4523 -2.1300 -0.1089
  379SOL    HW2 1137   1.450   0.907   0.655  1.3341 -1.8453  0.0305
  380SOL     OW 1138   2.554   2.197   1.706  0.5088  0.3755 -0.3434
  380SOL    HW1 1139   2.652   2.211   1.731  1.2407 -1.8368  0.4945
  380SOL    HW2 1140   2.534   2.149   1.620  1.0063  3.0291  0.5667
  381SOL     OW 1141   2.542   1.218   1.951 -0.2000 -0.1366 -0.3005
  381SOL    HW1 1142   2.591   1.311   1.964 -1.0429 -1.5921  0.7653
  381SOL    HW2 1143   2.597   1.145   1.998 -3.2706  0.5047 -1.8219
  382SOL     OW 1144   2.885   2.295   2.661  0.7045 -0.0369 -0.1194
  382SOL    HW1 1145   2.787   2.300   2.695 -0.2086  0.5279 -0.0214
  382SOL    HW2 1146   2.894   2.247   2.571  0.1276 -1.7109  5.3736
  383SOL     OW 1147   1.200   0.926   2.834 -0.0265  0.0806  0.3953
  383SOL    HW1 1148   1.298   0.930   2.843  0.0988  0.4248  0.3572
  383SOL    HW2 1149   1.164   0.891   2.744 -1.0391 -1.0380  2.3340
  384SOL     OW 1150   1.760   1.824   2.466 -0.2506 -0.3001 -0.6876
  384SOL    HW1 1151   1.703   1.906   2.491 -1.0988  1.1064  1.1357
  384SOL    HW2 1152   1.845   1.844   2.413  0.1484 -2.2793  0.6943
  385SOL     OW 1153   2.724   2.587   0.209 -0.0435 -0.3909  0.2445
  385SOL    HW1 1154   2.674   2.504   0.177  2.5494  0.2814 -1.9007
  385SOL    HW2 1155   2.657   2.644   0.269 -3.2879  0.3212  0.3583
  386SOL     OW 1156   1.885   1.274   0.666  0.4668  0.0687  0.7023
  386SOL    HW1 1157   1.862   1.249   0.765  0.4839 -0.6686  2.5749
  386SOL    HW2 1158   1.922   1.371   0.663  2.3887 -0.3130  0.9642
  387SOL     OW 1159   2.595   1.629   1.168  0.1166 -0.9274  0.3399
  387SOL    HW1 1160   2.554   1.641   1.262 -0.8606 -1.8603 -2.8412
  387SOL    HW2 1161   2.699   1.636   1.172 -0.7283  1.6985  1.6883
  388SOL     OW 1162   0.738   1.141   1.782 -0.4580 -0.7062 -0.4492
  388SOL    HW1 1163   0.667   1.129   1.710  1.1839  0.9025 -0.0980
  388SOL    HW2 1164   0.826   1.180   1.750  2.1057 -0.1970 -0.7977
  389SOL     OW 1165   2.441   0.937   2.602  0.6218  0.0600 -0.1878
  389SOL    HW1 1166   2.361   0.948   2.541  1.0440 -1.9709 -1.4163
  389SOL    HW2 1167   2.504   1.020   2.586  2.2042  4.1175 -0.2379
  390SOL     OW 1168   0.808   1.484   2.978 -0.1347  0.7504  0.0710
  390SOL    HW1 1169   0.894   1.526   2.945 -3.0407 -1.3430 -0.1060
  390SOL    HW2 1170   0.807   1.387   2.934 -0.2066 -1.2198  1.0866
  391SOL     OW 1171   0.807   2.184   0.186 -0.1749 -0.8117  0.0911
  391SOL    HW1 1172   0.799   2.139   0.096  1.3539  0.4054 -0.2458
  391SOL    HW2 1173   0.710   2.200   0.214  0.3395  0.7789  1.0525
  392SOL     OW 1174   2.640   2.707   2.133 -0.5778 -0.1382  0.1221
  392SOL    HW1 1175   2.701   2.700   2.217 -0.0061 -0.8892  3.3063
  392SOL    HW2 1176   2.638   2.610   2.097  1.5649  0.6687  1.4102
  393SOL     OW 1177   1.628   2.266   0.156  0.0439  0.0888 -0.0111
  393SOL    HW1 1178   1.618   2.360   0.127 -0.3696 -2.5336  3.5381
  393SOL    HW2 1179   1.541   2.222   0.185 -1.2231 -1.7186 -0.9388
  394SOL     OW 1180   0.788   0.201   2.248 -0.1700  0.0770 -0.0425
  394SOL    HW1 1181   0.851   0.218   2.327 -3.2152 -0.3784  0.0724
  394SOL    HW2 1182   0.829   0.231   2.154  0.6710 -1.0223  1.2481
  395SOL     OW 1183   0.376   1.776   1.489 -0.3321  0.2114 -0.0871
  395SOL    HW1 1184   0.422   1.743   1.576 -1.7632 -2.0694  1.1870
  395SOL    HW2 1185   0.280   1.817   1.513 -4.1797  1.3266 -1.0129
  396SOL     OW 1186   2.191   1.270   2.792  0.3888  0.7754 -0.0622
  396SOL    HW1 1187   2.169   1.172   2.805 -0.1684  1.9933 -0.8797
  396SOL    HW2 1188   2.113   1.327   2.815 -0.6271  0.2678  1.4119
  397SOL     OW 1189   0.194   0.521   0.391  0.3833  0.3234  0.0045
  397SOL    HW1 1190   0.294   0.516   0.367  0.7965 -0.6860 -0.6105
  397SOL    HW2 1191   0.175   0.620   0.405 -0.4161 -1.3347 -2.1732
  398SOL     OW 1192   1.050   2.716   0.458 -0.1383  0.2877  0.0344
  398SOL    HW1 1193   1.146   2.744   0.433  1.1137  0.1612 -0.2146
  398SOL    HW2 1194   0.992   2.760   0.383 -3.2934  3.5556 -2.3310
  399SOL     OW 1195   1.915   2.416   2.685  0.0092 -0.0996 -0.0081
  399SOL    HW1 1196   1.921   2.500   2.744 -0.8489 -0.7450  3.0395
  399SOL    HW2 1197   1.903   2.431   2.585  0.9071  0.5230  0.9342
  400SOL     OW 1198   2.863   1.698   1.594 -1.0431  0.3222 -0.6658
  400SOL    HW1 1199   2.840   1.647   1.680 -0.8977 -0.9473 -2.2456
  400SOL    HW2 1200   2.957   1.680   1.556  0.7173  1.5018  0.8340
  401SOL     OW 1201   1.084   0.698   0.799  0.6039  0.6665  0.1123
  401SOL    HW1 1202   1.143   0.662   0.725  1.4865 -0.0774 -2.9862
  401SOL    HW2 1203   1.010   0.759   0.767  1.4214  0.9223  0.9458
  402SOL     OW 1204   0.633   0.022   2.563  0.8059  0.0685  0.0812
  402SOL    HW1 1205   0.724   3.088   2.592 -0.5478  0.1981  0.4110
  402SOL    HW2 1206   0.627   0.123   2.553 -0.1697 -0.2695  1.5039
  403SOL     OW 1207   2.792   1.621   1.851  0.3398 -0.3828  0.0443
  403SOL    HW1 1208   2.697   1.583   1.846 -1.7887 -2.1842 -0.9048
  403SOL    HW2 1209   2.799   1.708   1.903 -0.7072  1.2267 -2.1970
  404SOL     OW 1210   2.463   2.075   1.474  0.2145 -0.3284  0.3383
  404SOL    HW1 1211   2.379   2.094   1.416  1.7746 -0.9918 -1.7255
  404SOL    HW2 1212   2.542   2.049   1.414 -1.0157 -0.4664  0.3011
  405SOL     OW 1213   2.268   0.285   2.723 -0.6558 -0.3054 -0.2522
  405SOL    HW1 1214   2.231   0.188   2.718 -0.2737 -1.3983 -2.0094
  405SOL    HW2 1215   2.196   0.350   2.686  0.2776 -0.9537 -0.8626
  406SOL     OW 1216   1.017   1.600   2.887  0.5348  0.3792  0.5603
  406SOL    HW1 1217   1.046   1.691   2.915 -0.6030  1.6119  1.1869
  406SOL    HW2 1218   1.057   1.585   2.794  1.6853  1.2259 -0.3256
  407SOL     OW 1219   1.962   1.871   0.689 -0.8221  0.3127 -0.3167
  407SOL    HW1 1220   1.895   1.868   0.615  1.2643  3.2114  1.9692
  407SOL    HW2 1221   1.977   1.968   0.708 -2.6660 -0.2121 -1.7216
  408SOL     OW 1222   2.993   0.247   0.942 -0.1959  0.0671 -0.1717
  408SOL    HW1 1223   2.921   0.194   0.997 -2.2580  0.4461 -0.2159
  408SOL    HW2 1224   3.042   0.175   0.886  0.5691 -1.3543  2.3458
  409SOL     OW 1225   1.691   1.502   0.775  0.4779 -0.1519  0.4241
  409SOL    HW1 1226   1.641   1.488   0.864 -1.4373 -1.2291 -1.0104
  409SOL    HW2 1227   1.790   1.523   0.790 -0.2691  1.5286 -1.7801
  410SOL     OW 1228   2.211   2.328   0.263  0.0967 -0.3498 -0.5906
  410SOL    HW1 1229   2.126   2.331   0.323 -3.6168 -0.6056  1.1451
  410SOL    HW2 1230   2.288   2.342   0.319  0.2708 -0.0274 -2.2932
  411SOL     OW 1231   0.335   2.972   0.478 -0.2500 -0.4839  0.4625
  411SOL    HW1 1232   0.247   2.999   0.439  1.1293 -0.6517  0.9906
  411SOL    HW2 1233   0.361   3.036   0.555 -0.2261  0.9278  1.5302
  412SOL     OW 1234   1.596   2.915   0.859  0.5246  0.1925  0.4792
  412SOL    HW1 1235   1.495   2.899   0.836 -2.0785 -2.2764 -0.9940
  412SOL    HW2 1236   1.623   3.012   0.838 -1.4725 -0.5678  2.2385
  413SOL     OW 1237   1.755   0.271   2.508 -0.1836  0.0593  0.3873
  413SOL    HW1 1238   1.792   0.359   2.479  2.0931  0.0289 -0.7701
  413SOL    HW2 1239   1.662   0.256   2.466  2.0447 -2.1800  0.6703
  414SOL     OW 1240   0.171   0.781   0.458  0.0225  0.7015  0.4433
  414SOL    HW1 1241   0.147   0.745   0.549  0.0838  1.3726 -3.4722
  414SOL    HW2 1242   0.238   0.863   0.463  0.5060  0.9141 -1.1178
  415SOL     OW 1243   2.995   1.387   1.226  0.2597 -0.8108  0.4680
  415SOL    HW1 1244   2.974   1.308   1.285 -0.8171 -0.4666  0.5647
  415SOL    HW2 1245   2.954   1.375   1.133 -0.8453  0.5072 -1.9178
  416SOL     OW 1246   0.354   0.572   0.017  0.2473  0.1410 -0.5235
  416SOL    HW1 1247   0.343   0.500   3.033 -1.3613 -2.1698 -1.9083
  416SOL    HW2 1248   0.275   0.556   0.083  0.5814 -0.8467 -1.8180
  417SOL     OW 1249   2.547   0.407   0.793  0.1464 -0.0304  0.5486
  417SOL    HW1 1250   2.632   0.450   0.753 -0.5278 -2.1325  2.6224
  417SOL    HW2 1251   2.577   0.346   0.871  0.5099 -0.7706  1.9556
  418SOL     OW 1252   0.483   0.221   2.281 -0.1528  0.2484  0.1111
  418SOL    HW1 1253   0.587   0.222   2.272  1.5914  1.2800  1.2956
  418SOL    HW2 1254   0.440   0.313   2.270  0.8338  0.4891  3.0016
  419SOL     OW 1255   0.224   1.058   0.632  0.1451 -0.0732 -0.6920
  419SOL    HW1 1256   0.159   1.119   0.584 -0.1412  0.2298 -1.1289
  419SOL    HW2 1257   0.208   1.082   0.729 -1.5549  0.2144 -0.8017
  420SOL     OW 1258   2.202   1.638   1.185  0.3888  0.2511 -0.2642
  420SOL    HW1 1259   2.142   1.697   1.125  0.9324 -1.4344 -2.0462
  420SOL    HW2 1260   2.268   1.581   1.138 -1.6217 -0.0287  1.6327
  421SOL     OW 1261   1.111   2.119   2.714 -0.2871 -0.1534  0.4200
  421SOL    HW1 1262   1.061   2.028   2.715 -0.2184  0.7138 -1.6485
  421SOL    HW2 1263   1.165   2.126   2.627 -1.3356  1.3895  0.4179
  422SOL     OW 1264   2.472   0.422   0.095  0.4030 -0.2320  0.2565
  422SOL    HW1 1265   2.372   0.438   0.120  0.9742  1.2672  0.4308
  422SOL    HW2 1266   2.523   0.512   0.091 -0.3191  2.2563  2.3337
  423SOL     OW 1267   1.858   1.629   0.176 -0.4451  0.2897  0.2936
  423SOL    HW1 1268   1.876   1.727   0.150 -0.2059  2.3070 -0.5166
  423SOL    HW2 1269   1.765   1.610   0.208  4.2483 -0.8987 -0.5971
  424SOL     OW 1270   0.952   0.926   1.897  0.1171  0.0525 -0.3170
  424SOL    HW1 1271   0.857   0.952   1.858 -2.6488 -0.3479 -1.9729
  424SOL    HW2 1272   0.961   0.958   1.990  1.6989 -0.6016  0.2736
  425SOL     OW 1273   2.845   2.664   2.319 -0.3410  0.8271  0.0116
  425SOL    HW1 1274   2.915   2.743   2.313  1.6494  0.6898 -2.9477
  425SOL    HW2 1275   2.819   2.640   2.416 -1.2270 -0.0189  1.9148
  426SOL     OW 1276   1.940   2.619   0.294 -0.1100 -0.2076 -0.3641
  426SOL    HW1 1277   2.038   2.647   0.306  0.9338  2.1019  2.4390
  426SOL    HW2 1278   1.871   2.689   0.336 -0.5546  1.0848 -2.0049
  427SOL     OW 1279   0.626   0.451   2.952 -0.3475  0.0919  0.4289
  427SOL    HW1 1280   0.661   0.537   2.996  0.4055  0.5521  2.8525
  427SOL    HW2 1281   0.554   0.467   2.885  1.4863 -1.2445  0.0853
  428SOL     OW 1282   2.585   1.162   2.563  0.3629  0.3113 -0.0162
  428SOL    HW1 1283   2.675   1.145   2.521 -1.6550  0.8628  0.4372
  428SOL    HW2 1284   2.575   1.260   2.582 -0.6958 -2.3235 -0.1294
  429SOL     OW 1285   2.765   0.248   0.357 -0.2873  0.2364  0.7657
  429SOL    HW1 1286   2.675   0.246   0.414 -3.1195 -0.5247  0.6900
  429SOL    HW2 1287   2.840   0.295   0.406  0.8440  0.1567  2.4184
  430SOL     OW 1288   1.102   2.751   2.098  0.6100  0.0669 -0.1531
  430SOL    HW1 1289   1.102   2.672   2.164 -0.1002  0.6533  3.2565
  430SOL    HW2 1290   1.033   2.743   2.023  0.2311  1.7937  0.8658
  431SOL     OW 1291   2.876   1.859   1.350 -0.1750  0.7090 -0.5082
  431SOL    HW1 1292   2.879   1.826   1.448 -0.8244  0.0421  0.4023
  431SOL    HW2 1293   2.870   1.783   1.280  0.3392 -0.0438  1.0731
  432SOL     OW 1294   2.390   2.374   2.028 -0.0051 -0.5431 -0.5462
  432SOL    HW1 1295   2.488   2.403   2.047  3.4764 -0.6001 -1.8262
  432SOL    HW2 1296   2.395   2.273   2.003  2.3580 -1.1270 -2.0934
  433SOL     OW 1297   1.381   2.114   0.219  0.8456 -0.1183  0.3934
  433SOL    HW1 1298   1.396   2.037   0.156  0.0221  0.6612 -0.2219
  433SOL    HW2 1299   1.323   2.186   0.170 -2.1715 -0.0681 -1.9652
  434SOL     OW 1300   0.191   2.206   2.853  0.1338  0.1144 -0.1950
  434SOL    HW1 1301   0.197   2.176   2.949 -2.6209  0.4512 -0.9868
  434SOL    HW2 1302   0.096   2.189   2.822 -0.3161 -0.8142  3.2613
  435SOL     OW 1303   0.032   1.172   0.496 -0.1081 -0.3285 -0.3371
  435SOL    HW1 1304   3.083   1.265   0.467  0.1969  0.0328 -0.4991
  435SOL    HW2 1305   3.050   1.103   0.480 -0.3410 -0.6436 -0.2933
  436SOL     OW 1306   0.539   2.786   1.520 -0.1069  0.1019  0.2857
  436SOL    HW1 1307   0.587   2.731   1.591  2.1151 -0.3020  0.9374
  436SOL    HW2 1308   0.536   2.879   1.559  1.3998 -0.9489 -0.1078
  437SOL     OW 1309   0.960   2.515   1.079  0.5369  0.0145 -0.0370
  437SOL    HW1 1310   0.925   2.614   1.069 -1.3766  1.1604 -1.2296
  437SOL    HW2 1311   1.056   2.504   1.039 -0.8231  0.5828 -0.4066
  438SOL     OW 1312   0.228   2.211   0.738  0.3674  0.5822  0.3390
  438SOL    HW1 1313   0.170   2.127   0.705 -2.2445  0.5812  1.3260
  438SOL    HW2 1314   0.190   2.238   0.827  1.9434  2.3597 -1.2946
  439SOL     OW 1315   1.109   2.444   1.782 -0.1826  0.3691 -0.5748
  439SOL    HW1 1316   1.119   2.430   1.681 -0.1658 -0.0705 -0.3062
  439SOL    HW2 1317   1.017   2.419   1.811  2.1832  0.8724 -2.4800
  440SOL     OW 1318   2.204   2.730   2.040 -0.1883  0.6110 -0.0245
  440SOL    HW1 1319   2.157   2.643   2.059 -2.3646  0.9090  0.8427
  440SOL    HW2 1320   2.283   2.718   1.976  0.2113  1.1825  2.8426
  441SOL     OW 1321   0.138   0.638   1.616 -0.1568 -0.1084 -0.4348
  441SOL    HW1 1322   0.151   0.666   1.714 -3.2119  1.3181 -0.7425
  441SOL    HW2 1323   0.151   0.538   1.612  1.7646  1.2968  2.2327
  442SOL     OW 1324   1.927   2.355   0.379  0.4179  0.5771 -0.7185
  442SOL    HW1 1325   1.906   2.450   0.345 -1.2411  1.1222 -1.5564
  442SOL    HW2 1326   1.902   2.357   0.477 -0.9403 -2.9325  2.3509
  443SOL     OW 1327   0.114   0.674   2.797 -0.0118 -0.4896 -0.5908
  443SOL    HW1 1328   0.156   0.598   2.848  0.8313  0.9636 -0.0770
  443SOL    HW2 1329   0.039   0.720   2.850 -1.8790 -0.4938 -2.1675
  444SOL     OW 1330   1.674   0.979   2.053  0.0852 -0.4041 -0.4298
  444SOL    HW1 1331   1.743   1.055   2.073 -0.1166  0.9836  2.6925
  444SOL    HW2 1332   1.622   1.013   1.975  1.8029  0.2981  1.0131
  445SOL     OW 1333   0.032   2.465   1.280 -0.4181 -0.2728 -0.0025
  445SOL    HW1 1334   0.060   2.412   1.361 -0.9242  0.9420 -2.5687
  445SOL    HW2 1335   3.020   2.471   1.256 -1.6810  3.4327  0.8570
  446SOL     OW 1336   2.883   1.667   1.169  0.6618 -0.1206  0.2618
  446SOL    HW1 1337   2.927   1.584   1.212 -0.9830  0.1123 -1.2946
  446SOL    HW2 1338   2.940   1.705   1.097  0.4611 -0.9113  0.7935
  447SOL     OW 1339   0.384   0.970   0.446 -0.1428 -0.1875  0.4758
  447SOL    HW1 1340   0.339   1.009   0.532 -2.4597  0.8540  0.1640
  447SOL    HW2 1341   0.444   1.042   0.402  2.0343  1.3822  1.5409
  448SOL     OW 1342   1.117   1.853   1.907  0.0419 -0.2069  1.0730
  448SOL    HW1 1343   1.104   1.945   1.863 -0.7746  1.6196 -0.4550
  448SOL    HW2 1344   1.205   1.846   1.955  1.6160 -0.9860 -2.8849
  449SOL     OW 1345   1.307   1.447   0.328  0.2337 -0.0481 -0.1477
  449SOL    HW1 1346   1.344   1.545   0.334  0.8637  1.2398  1.4406
  449SOL    HW2 1347   1.205   1.449   0.316 -0.5541 -1.2701  2.6224
  450SOL     OW 1348   2.630   2.869   1.898 -0.5313  0.2515  0.1440
  450SOL    HW1 1349   2.725   2.855   1.873 -1.5976 -1.0841  1.1835
  450SOL    HW2 1350   2.622   2.823   1.992 -0.9549 -0.5215  2.1098
  451SOL     OW 1351   2.329   0.670   2.602  0.5553  0.0637  0.1782
  451SOL    HW1 1352   2.390   0.751   2.606  4.6945 -2.0409 -1.3776
  451SOL    HW2 1353   2.303   0.639   2.693  2.4005 -0.8439  0.0070
  452SOL     OW 1354   1.507   0.576   0.768 -0.5404  0.2152  0.1422
  452SOL    HW1 1355   1.503   0.483   0.724  0.7512  0.7833 -0.7562
  452SOL    HW2 1356   1.506   0.646   0.697 -0.1854  0.1042 -4.0170
  453SOL     OW 1357   1.848   0.750   1.629 -0.0233  0.0035  0.0096
  453SOL    HW1 1358   1.893   0.751   1.720  1.4697 -1.2370 -0.3737
  453SOL    HW2 1359   1.916   0.708   1.568 -0.1569  1.7606  0.1247
  454SOL     OW 1360   3.073   1.427   0.395  0.0622 -0.2892 -0.1312
  454SOL    HW1 1361   3.013   1.402   0.313  0.5317  0.2457 -0.3168
  454SOL    HW2 1362   3.086   1.528   0.401 -1.6261  1.3176 -0.4088
  455SOL     OW 1363   2.714   2.917   1.004  0.2664 -0.0177  0.3780
  455SOL    HW1 1364   2.771   2.834   0.992 -0.1547  0.6944  0.9962
  455SOL    HW2 1365   2.762   2.998   0.978 -4.0015 -2.6430  1.2254
  456SOL     OW 1366   0.070   2.735   1.359  0.0866 -0.1618 -0.5692
  456SOL    HW1 1367   0.100   2.639   1.336 -2.0681 -1.6336 -1.4159
  456SOL    HW2 1368   0.144   2.793   1.397  1.2736  0.1418 -1.5503
  457SOL     OW 1369   1.253   0.103   0.322 -0.5575  0.1537 -0.2349
  457SOL    HW1 1370   1.243   0.184   0.387 -3.2339  1.0503 -1.5324
  457SOL    HW2 1371   1.318   0.116   0.243 -0.1925 -4.7684  2.1819
  458SOL     OW 1372   2.269   2.703   0.747  0.1792  0.0344  0.1119
  458SOL    HW1 1373   2.168   2.724   0.755  0.5366  2.3892 -2.5254
  458SOL    HW2 1374   2.326   2.788   0.731  3.1606  1.1670 -0.4252
  459SOL     OW 1375   2.221   0.576   2.849 -0.2271  0.5864 -0.2853
  459SOL    HW1 1376   2.221   0.522   2.934  0.9948  0.3502  1.5420
  459SOL    HW2 1377   2.166   0.530   2.775  0.1433 -3.2591  0.4972
  460SOL     OW 1378   2.490   2.885   2.995 -0.0197  0.0499  0.4527
  460SOL    HW1 1379   2.417   2.956   2.991  0.9268 -1.4391 -1.0615
  460SOL    HW2 1380   2.515   2.847   2.903 -0.0609  2.0060  0.7255
  461SOL     OW 1381   0.911   1.840   0.324  0.1651  0.3128 -0.0674
  461SOL    HW1 1382   0.947   1.772   0.391 -0.0683  0.4786 -0.4388
  461SOL    HW2 1383   0.820   1.860   0.358  3.1335 -0.5980 -1.2381
  462SOL     OW 1384   2.067   2.124   0.703 -0.0240 -0.1406  0.3380
  462SOL    HW1 1385   2.053   2.107   0.807 -2.3575  2.6946  2.3714
  462SOL    HW2 1386   2.151   2.179   0.695 -0.6750 -1.4401  1.8258
  463SOL     OW 1387   2.369   0.958   0.668 -0.3323 -0.1019 -0.1615
  463SOL    HW1 1388   2.458   0.905   0.666  1.4729  0.3176  0.0058
  463SOL    HW2 1389   2.287   0.899   0.656 -2.8599  0.2850  2.9522
  464SOL     OW 1390   0.538   0.094   1.294 -0.5207 -0.1448 -0.6628
  464SOL    HW1 1391   0.538   3.086   1.265 -0.3456 -2.0314  0.4777
  464SOL    HW2 1392   0.627   0.137   1.290 -2.2886 -2.7088  1.0456
  465SOL     OW 1393   2.497   1.323   2.982  0.5216 -0.0282 -0.4695
  465SOL    HW1 1394   2.427   1.340   3.057  0.2317 -0.0942  2.4841
  465SOL    HW2 1395   2.471   1.371   2.898  1.5396  1.0488  1.4326
  466SOL     OW 1396   1.966   0.260   2.875 -0.8102  0.4386  0.1886
  466SOL    HW1 1397   2.010   0.198   2.945  3.0983  0.2174  1.2572
  466SOL    HW2 1398   1.888   0.301   2.922 -2.3162 -0.3728 -1.5226
  467SOL     OW 1399   0.938   0.556   1.272 -0.2364  0.3318 -0.1150
  467SOL    HW1 1400   1.023   0.505   1.305  1.4993 -2.4614  0.7515
  467SOL    HW2 1401   0.951   0.575   1.173 -4.5469 -1.5855  3.0867
  468SOL     OW 1402   0.346   1.141   2.624  0.2287 -0.1806 -0.0500
  468SOL    HW1 1403   0.317   1.096   2.714  0.7159  2.7806  1.5485
  468SOL    HW2 1404   0.330   1.089   2.538 -1.1908  1.0180  1.3203
  469SOL     OW 1405   0.533   2.209   0.254  0.3066  0.2473 -0.5070
  469SOL    HW1 1406   0.507   2.190   0.352 -1.3298 -0.1738 -0.6243
  469SOL    HW2 1407   0.545   2.308   0.240  0.5523 -0.2711  0.9761
  470SOL     OW 1408   2.495   1.403   2.341 -0.1384  0.9916 -0.4536
  470SOL    HW1 1409   2.539   1.420   2.429 -0.4194 -0.7525 -1.9248
  470SOL    HW2 1410   2.492   1.300   2.321  2.0544 -2.2215 -0.4730
  471SOL     OW 1411   2.753   1.042   2.087  0.2949  0.5187 -0.3950
  471SOL    HW1 1412   2.734   0.945   2.064 -1.3178  1.8226 -0.2235
  471SOL    HW2 1413   2.747   1.061   2.183  0.9257 -1.8272 -2.2832
  472SOL     OW 1414   0.594   2.728   0.702 -0.1877 -0.0312  0.6190
  472SOL    HW1 1415   0.525   2.781   0.759 -3.0977 -0.2235 -2.3464
  472SOL    HW2 1416   0.687   2.778   0.710  3.2954  1.8350 -0.3957
  473SOL     OW 1417   0.785   0.117   0.111  0.0771 -0.6724  0.7799
  473SOL    HW1 1418   0.720   0.080   0.174 -1.5913  0.7650 -0.5771
  473SOL    HW2 1419   0.790   0.060   0.022 -0.4613 -2.8614 -1.8036
  474SOL     OW 1420   1.764   0.091   2.279  0.0550  0.4895  0.5442
  474SOL    HW1 1421   1.788   0.149   2.356 -2.8203 -0.7833  0.4264
  474SOL    HW2 1422   1.844   0.092   2.211  2.5770  1.9209  1.7445
  475SOL     OW 1423   1.534   2.619   0.334  0.2916 -0.4679  0.0315
  475SOL    HW1 1424   1.499   2.546   0.395 -0.3620  0.0530 -0.1259
  475SOL    HW2 1425   1.562   2.583   0.244  1.0486 -0.9570 -0.8775
  476SOL     OW 1426   0.256   1.061   0.907  0.7593 -0.4826  0.3849
  476SOL    HW1 1427   0.156   1.050   0.925 -1.2210  1.0937  0.9690
  476SOL    HW2 1428   0.310   1.043   0.995  0.4702 -1.0742  1.0806
  477SOL     OW 1429   1.537   2.439   1.211  0.6143 -0.0447 -0.0167
  477SOL    HW1 1430   1.567   2.340   1.205 -0.5758 -0.7119  0.8100
  477SOL    HW2 1431   1.596   2.505   1.162  0.5086 -0.8740 -0.5618
  478SOL     OW 1432   0.531   1.756   2.338  0.1722  0.0394 -0.0878
  478SOL    HW1 1433   0.551   1.787   2.241 -1.3437 -3.0071 -2.8289
  478SOL    HW2 1434   0.604   1.784   2.403 -0.4056  0.2687 -0.1952
  479SOL     OW 1435   2.840   0.119   1.103 -0.1526 -0.6732  0.3565
  479SOL    HW1 1436   2.764   0.181   1.120  1.3111 -1.2352 -1.3028
  479SOL    HW2 1437   2.860   0.043   1.167  1.7849  1.4342 -1.0790
  480SOL     OW 1438   3.054   2.827   0.485 -0.0641 -0.1338 -0.3272
  480SOL    HW1 1439   0.030   2.832   0.567 -3.1535  0.2074  3.0894
  480SOL    HW2 1440   3.087   2.759   0.411  2.5646  0.8762 -1.2722
  481SOL     OW 1441   2.371   2.548   0.965  0.0328 -0.3503 -0.0814
  481SOL    HW1 1442   2.321   2.586   0.883 -2.4528  0.6899 -0.0395
  481SOL    HW2 1443   2.409   2.625   1.026  0.2662  0.2936 -1.8062
  482SOL     OW 1444   1.235   2.117   2.473  0.1419  0.4478  0.6059
  482SOL    HW1 1445   1.289   2.036   2.482  1.9795  1.5259  1.2441
  482SOL    HW2 1446   1.288   2.202   2.460  0.5194  0.4296 -1.9631
  483SOL     OW 1447   0.572   2.033   2.761 -0.8394 -0.5284 -0.1570
  483SOL    HW1 1448   0.619   2.111   2.802 -2.2118 -0.9283  0.8220
  483SOL    HW2 1449   0.483   2.063   2.720 -0.6040  0.1258 -1.1948
  484SOL     OW 1450   1.023   1.239   1.996 -0.4640  0.6100  0.0691
  484SOL    HW1 1451   1.002   1.158   2.053 -1.3201  1.9195 -2.2336
  484SOL    HW2 1452   0.986   1.221   1.903 -0.3697  0.8741 -0.9840
  485SOL     OW 1453   2.467   0.499   0.431  0.0566 -0.2212 -0.7169
  485SOL    HW1 1454   2.416   0.466   0.348  1.4822 -1.5490 -0.6821
  485SOL    HW2 1455   2.414   0.570   0.482 -0.2626  0.0613  0.3270
  486SOL     OW 1456   1.636   0.099   0.831  0.5500 -0.0563 -0.1977
  486SOL    HW1 1457   1.601   0.139   0.922 -0.5532  0.8719  0.0281
  486SOL    HW2 1458   1.739   0.111   0.818  0.4783  1.8616  2.0550
  487SOL     OW 1459   0.585   2.174   1.121 -0.0318 -0.4909  0.0341
  487SOL    HW1 1460   0.539   2.254   1.078 -0.3167 -3.9253 -0.8847
  487SOL    HW2 1461   0.654   2.199   1.193 -0.7384  2.7839 -0.3095
  488SOL     OW 1462   2.510   1.393   0.346  0.2005 -0.1300 -0.3964
  488SOL    HW1 1463   2.505   1.498   0.344 -0.6024  2.1106 -0.1866
  488SOL    HW2 1464   2.413   1.358   0.352  0.1598 -2.2801 -0.6438
  489SOL     OW 1465   1.585   0.315   1.013 -0.0830  0.0478 -0.3479
  489SOL    HW1 1466   1.624   0.258   1.087 -3.6076  0.1531  0.7218
  489SOL    HW2 1467   1.638   0.402   0.997  2.6511 -0.2584 -0.3611
  490SOL     OW 1468   1.137   0.626   0.468 -0.6478  0.1986  0.3216
  490SOL    HW1 1469   1.142   0.726   0.462 -0.0030 -2.7201 -1.6361
  490SOL    HW2 1470   1.042   0.592   0.498  0.7799  0.3480 -0.9434
  491SOL     OW 1471   0.638   2.291   0.517  0.2998 -0.8018 -0.2948
  491SOL    HW1 1472   0.730   2.323   0.523 -3.6835 -3.2112  2.0023
  491SOL    HW2 1473   0.573   2.371   0.523  3.6382 -1.2933 -0.0415
  492SOL     OW 1474   1.455   1.484   2.356  0.0011  0.1682  0.5961
  492SOL    HW1 1475   1.460   1.385   2.354  1.5434 -0.3645  1.9509
  492SOL    HW2 1476   1.520   1.520   2.428 -0.2481 -0.3799 -4.0975
  493SOL     OW 1477   0.075   2.280   0.955  0.1287  0.0818 -0.2477
  493SOL    HW1 1478   0.068   2.198   1.011 -2.1777  2.5065  3.3621
  493SOL    HW2 1479   0.056   2.366   1.011 -1.0059  2.1841 -0.7591
  494SOL     OW 1480   2.583   2.141   2.979  0.4327  0.5549  0.0607
  494SOL    HW1 1481   2.566   2.061   2.914  0.4513 -1.2251 -1.2540
  494SOL    HW2 1482   2.494   2.169   3.017  0.1649 -1.2485 -3.2170
  495SOL     OW 1483   2.753   1.701   2.696  0.3898  0.3039 -0.0072
  495SOL    HW1 1484   2.730   1.712   2.796 -1.2167 -0.8058  1.3318
  495SOL    HW2 1485   2.851   1.666   2.683  1.0924 -0.1025  0.7119
  496SOL     OW 1486   2.823   0.054   1.721  0.4973  0.4313  0.5554
  496SOL    HW1 1487   2.805   3.088   1.637  1.5149 -0.2493  1.1093
  496SOL    HW2 1488   2.730   0.070   1.759 -1.5698 -0.4108  0.3894
  497SOL     OW 1489   2.626   0.935   0.265  0.5578  0.5003  0.2037
  497SOL    HW1 1490   2.548   0.991   0.302 -0.7268  2.4628  0.2914
  497SOL    HW2 1491   2.641   0.845   0.308  1.4314  0.8122  1.0013
  498SOL     OW 1492   0.543   2.298   2.553 -0.1585 -0.0661  0.6628
  498SOL    HW1 1493   0.510   2.374   2.484 -3.2172  2.1961 -2.4054
  498SOL    HW2 1494   0.466   2.239   2.580  1.2279 -0.4588 -1.4591
  499SOL     OW 1495   1.168   2.433   0.258  0.0757 -0.0809  0.0082
  499SOL    HW1 1496   1.095   2.371   0.293 -1.2960 -2.8284  1.4808
  499SOL    HW2 1497   1.215   2.382   0.176 -2.5959 -1.6359 -0.7975
  500SOL     OW 1498   1.166   3.080   0.067  0.3499 -0.3541 -0.2794
  500SOL    HW1 1499   1.157   0.089   0.040 -0.0618 -1.1498 -0.4832
  500SOL    HW2 1500   1.080   3.034   0.063  4.6554  0.6326 -1.0360
  501SOL     OW 1501   1.570   0.148   1.764 -0.1679 -0.9113 -0.0915
  501SOL    HW1 1502   1.508   0.074   1.722  0.0689 -0.5279  1.6000
  501SOL    HW2 1503   1.650   0.162   1.698  0.2357  0.3748 -2.3736
  502SOL     OW 1504   2.913   0.194   2.122  0.6524  0.1150  0.9140
  502SOL    HW1 1505   2.951   0.224   2.211  0.3057 -1.3086 -0.9644
  502SOL    HW2 1506   2.980   0.200   2.049 -0.1540  1.4683  2.7371
  503SOL     OW 1507   2.460   2.022   2.434 -0.0729 -0.3904 -0.3537
  503SOL    HW1 1508   2.468   2.045   2.333 -0.6365  0.9121  4.2290
  503SOL    HW2 1509   2.467   2.111   2.490  1.7596  1.1787  0.4685
  504SOL     OW 1510   1.387   0.422   1.428 -0.7156 -0.1341  0.0794
  504SOL    HW1 1511   1.462   0.486   1.404 -2.5524 -0.0120  2.5450
  504SOL    HW2 1512   1.405   0.379   1.517  1.0833 -0.5321  0.3844
  505SOL     OW 1513   0.784   0.655   1.727 -0.2367  0.2516 -0.2112
  505SOL    HW1 1514   0.874   0.661   1.777  1.3280  0.1339  0.8238
  505SOL    HW2 1515   0.736   0.568   1.736 -0.1433  2.0979  0.3200
  506SOL     OW 1516   0.442   0.877   2.505  0.4504  0.1915  0.5050
  506SOL    HW1 1517   0.426   0.817   2.585 -0.1209  3.1406 -2.3221
  506SOL    HW2 1518   0.499   0.817   2.444  0.9649  2.4665 -0.2797
  507SOL     OW 1519   0.300   2.951   3.070 -0.0640 -0.4871 -0.6746
  507SOL    HW1 1520   0.198   2.961   3.048 -2.7010 -1.4774 -0.7936
  507SOL    HW2 1521   0.342   2.893   3.000 -0.3966  0.4929  1.0146
  508SOL     OW 1522   1.584   0.714   1.589 -0.2632  0.0719 -0.0961
  508SOL    HW1 1523   1.576   0.663   1.500 -0.7177  1.3273  2.9454
  508SOL    HW2 1524   1.683   0.713   1.622  1.9690 -1.3679  3.0691
  509SOL     OW 1525   0.833   1.880   1.541 -0.5271  0.5567 -0.1623
  509SOL    HW1 1526   0.860   1.967   1.581 -1.3099 -1.8042  1.0287
  509SOL    HW2 1527   0.762   1.889   1.469  2.2601 -1.8052  0.8637
  510SOL     OW 1528   2.129   1.138   2.117  0.1328 -0.6807 -0.4082
  510SOL    HW1 1529   2.128   1.170   2.216  0.1994  0.8494  0.6464
  510SOL    HW2 1530   2.207   1.072   2.095  0.2743 -1.7717 -1.7571
  511SOL     OW 1531   0.545   1.915   1.069 -0.7381  0.1192  0.3580
  511SOL    HW1 1532   0.561   2.014   1.088  3.7675 -1.0693 -0.7330
  511SOL    HW2 1533   0.611   1.861   1.125 -1.0771 -0.3369 -1.7120
  512SOL     OW 1534   2.586   2.363   0.150 -0.2781  0.0261 -0.5445
  512SOL    HW1 1535   2.542   2.300   0.085 -1.6326 -1.8811 -0.4156
  512SOL    HW2 1536   2.531   2.395   0.230 -0.1383  3.6229 -0.2998
  513SOL     OW 1537   3.028   1.897   2.342 -0.3000 -0.3139  0.4219
  513SOL    HW1 1538   3.075   1.821   2.391  0.7869  1.8450  1.0161
  513SOL    HW2 1539   2.937   1.867   2.300 -2.9531 -1.3549 -1.8248
  514SOL     OW 1540   0.424   2.566   2.770  0.4288  0.1168  0.0025
  514SOL    HW1 1541   0.338   2.537   2.722 -0.3303 -2.3947  0.5775
  514SOL    HW2 1542   0.491   2.600   2.703  1.6496  0.0328 -1.3787
  515SOL     OW 1543   2.099   1.371   1.398  0.3277 -0.5271  0.5182
  515SOL    HW1 1544   2.183   1.320   1.424 -2.0495  1.2070 -2.4471
  515SOL    HW2 1545   2.097   1.468   1.432 -0.1280  1.2901  1.7878
  516SOL     OW 1546   2.415   2.254   2.564  0.4194  0.7040  0.2961
  516SOL    HW1 1547   2.343   2.331   2.561  0.7880  1.7048 -0.0592
  516SOL    HW2 1548   2.497   2.290   2.613  2.4158  2.6262  0.2098
  517SOL     OW 1549   1.523   1.025   2.900 -0.7494  0.5170 -0.2955
  517SOL    HW1 1550   1.625   1.053   2.902  0.8740  0.4697 -0.3657
  517SOL    HW2 1551   1.483   1.009   2.991 -1.8288 -0.2059  0.7299
  518SOL     OW 1552   2.950   3.058   2.474 -0.7779  0.1941 -0.0528
  518SOL    HW1 1553   2.964   2.977   2.414  0.1903  1.8891  1.5863
  518SOL    HW2 1554   2.852   3.054   2.499  2.2838  0.5094 -1.2495
  519SOL     OW 1555   1.679   1.639   2.220 -0.2532 -0.4234 -0.4925
  519SOL    HW1 1556   1.579   1.635   2.217  1.8718 -0.0267  1.3859
  519SOL    HW2 1557   1.711   1.666   2.313  0.4510 -2.2752  0.5823
  520SOL     OW 1558   2.728   3.046   2.847 -0.5463 -0.0341 -0.0413
  520SOL    HW1 1559   2.691   0.051   2.869 -1.2518 -0.4627 -2.0886
  520SOL    HW2 1560   2.647   3.001   2.804 -0.6613 -1.7175  0.8484
  521SOL     OW 1561   0.426   1.660   1.788  0.3933 -0.2103 -0.4579
  521SOL    HW1 1562   0.464   1.756   1.782  1.7500  0.3237 -0.8709
  521SOL    HW2 1563   0.485   1.593   1.733 -1.9858 -1.6046 -1.7215
  522SOL     OW 1564   1.180   0.085   1.593 -0.2324  0.4569  0.2424
  522SOL    HW1 1565   1.176   0.103   1.493  1.3607 -1.3323  1.5618
  522SOL    HW2 1566   1.118   0.141   1.655 -1.4011  0.4785  0.2353
  523SOL     OW 1567   0.192   2.543   1.083 -0.4255 -0.3958  0.5381
  523SOL    HW1 1568   0.145   2.501   1.161  2.2689  0.9168  2.4463
  523SOL    HW2 1569   0.294   2.515   1.078  2.3489 -0.3931  1.2130
  524SOL     OW 1570   1.628   2.615   0.863  0.3364  0.2166 -0.4606
  524SOL    HW1 1571   1.558   2.542   0.841 -0.5152  1.6607 -0.0548
  524SOL    HW2 1572   1.590   2.709   0.841 -0.7134  1.4851  1.3651
  525SOL     OW 1573   2.470   1.043   0.894 -0.1404  0.1837 -0.0941
  525SOL    HW1 1574   2.427   1.076   0.979 -0.8395  0.7592 -1.6289
  525SOL    HW2 1575   2.397   0.998   0.832  0.1510  1.0518 -3.4691
  526SOL     OW 1576   1.006   2.565   0.689  0.1134  0.5207  0.3658
  526SOL    HW1 1577   0.911   2.534   0.698  1.2597 -0.4062  0.1688
  526SOL    HW2 1578   1.013   2.628   0.608  0.7662 -0.3255  1.2116
  527SOL     OW 1579   2.310   1.875   0.889 -0.2297  0.2867 -0.4113
  527SOL    HW1 1580   2.365   1.917   0.816  3.3264 -0.8398  2.3734
  527SOL    HW2 1581   2.359   1.821   0.960 -0.3338 -3.6196  1.1665
  528SOL     OW 1582   2.248   0.489   0.231 -0.1630  0.4510 -0.0039
  528SOL    HW1 1583   2.279   0.584   0.224 -0.1528 -1.7538 -0.6293
  528SOL    HW2 1584   2.185   0.480   0.313  0.5543 -1.9283 -1.4320
  529SOL     OW 1585   1.282   1.158   1.898  0.0714  0.0015 -0.5032
  529SOL    HW1 1586   1.236   1.088   1.842 -0.6128  2.9818  2.7936
  529SOL    HW2 1587   1.214   1.186   1.968  0.4104 -0.6401 -1.9356
  530SOL     OW 1588   2.679   0.783   2.613  0.4005  0.1544 -0.0697
  530SOL    HW1 1589   2.587   0.830   2.606 -2.4997  1.5183 -2.4703
  530SOL    HW2 1590   2.721   0.787   2.521  0.3352  0.1682  0.1723
  531SOL     OW 1591   1.115   1.181   0.116 -0.1467  0.5438 -0.5917
  531SOL    HW1 1592   1.128   1.239   0.032  1.2644 -0.0826  1.5900
  531SOL    HW2 1593   1.019   1.169   0.139  2.3989  1.5830 -0.1032
  532SOL     OW 1594   2.313   0.314   0.707  0.2003  0.0930  0.1846
  532SOL    HW1 1595   2.404   0.305   0.747 -1.6115 -0.4496 -2.2076
  532SOL    HW2 1596   2.286   0.222   0.675  3.3679 -0.8680 -2.2689
  533SOL     OW 1597   0.666   0.840   1.873 -0.2193 -0.5710  0.3111
  533SOL    HW1 1598   0.651   0.911   1.804  1.2314 -1.3063 -1.4862
  533SOL    HW2 1599   0.692   0.750   1.832  0.2499 -2.0710 -0.2052
  534SOL     OW 1600   1.805   0.100   2.696 -0.1285  0.4551  0.8320
  534SOL    HW1 1601   1.778   0.167   2.626 -0.5307 -2.3216 -1.3741
  534SOL    HW2 1602   1.851   0.146   2.771  0.4922  1.5124  1.4022
  535SOL     OW 1603   0.613   0.097   0.352  0.2938 -0.0387 -0.1316
  535SOL    HW1 1604   0.530   0.107   0.289 -4.0828  0.8608 -0.5630
  535SOL    HW2 1605   0.610   0.005   0.401  0.3910 -0.8727  0.2818
  536SOL     OW 1606   0.892   2.868   1.307 -0.2811 -0.0651 -0.6099
  536SOL    HW1 1607   0.881   2.933   1.381 -0.3327 -2.0795 -3.1891
  536SOL    HW2 1608   0.990   2.853   1.279  1.4110 -2.1513 -0.6351
  537SOL     OW 1609   1.822   2.857   2.037 -0.5052  0.2325 -0.1913
  537SOL    HW1 1610   1.795   2.839   1.940  0.1193  0.9358  0.1165
  537SOL    HW2 1611   1.912   2.904   2.047 -0.0061 -1.6542  0.4843
  538SOL     OW 1612   0.032   2.642   0.271 -0.0636  0.2818 -0.4004
  538SOL    HW1 1613   0.100   2.627   0.194 -0.0050  0.9352 -0.9579
  538SOL    HW2 1614   0.010   2.552   0.309  2.0900  0.5352  0.9397
  539SOL     OW 1615   2.807   1.899   1.983 -0.3659  0.1761 -0.2239
  539SOL    HW1 1616   2.762   1.930   1.897  2.2000  3.2679 -0.7217
  539SOL    HW2 1617   2.889   1.953   2.015 -0.4623  0.2536  1.4461
  540SOL     OW 1618   2.934   2.586   1.856  0.2251 -0.7741  0.0038
  540SOL    HW1 1619   2.952   2.552   1.952 -0.1695 -1.3625 -0.8637
  540SOL    HW2 1620   2.926   2.686   1.852  0.0115 -3.9318 -2.1908
  541SOL     OW 1621   0.136   0.025   1.708 -0.2748 -0.2527 -0.6012
  541SOL    HW1 1622   0.078   0.112   1.719 -0.3147  4.2514 -0.1046
  541SOL    HW2 1623   0.080   3.031   1.684 -0.5825  0.3420 -1.4384
  542SOL     OW 1624   2.877   0.454   1.966  0.0558  0.2761  0.9570
  542SOL    HW1 1625   2.837   0.424   1.879 -0.5776 -2.3714 -0.6877
  542SOL    HW2 1626   2.916   0.371   2.013 -0.9374 -0.1549  1.0855
  543SOL     OW 1627   0.655   0.977   1.208 -0.5502  0.0264 -0.1482
  543SOL    HW1 1628   0.667   0.932   1.117 -0.7584  0.4109  2.2366
  543SOL    HW2 1629   0.634   0.911   1.284 -1.4081  0.4880 -0.4028
  544SOL     OW 1630   1.929   1.519   0.987 -0.1478  0.1363  0.2913
  544SOL    HW1 1631   1.884   1.521   1.079 -0.9550 -0.0899 -0.7977
  544SOL    HW2 1632   1.978   1.608   0.965 -0.2805  2.9325  1.1740
  545SOL     OW 1633   1.006   1.682   0.499  0.0673  0.1927  0.2905
  545SOL    HW1 1634   1.067   1.743   0.554 -1.1767  1.1266  2.3650
  545SOL    HW2 1635   0.936   1.642   0.565 -1.4697 -0.1352  1.6634
  546SOL     OW 1636   2.583   0.470   2.006  0.1866 -0.6169  0.4749
  546SOL    HW1 1637   2.652   0.479   1.936  0.8824  1.1762  4.6810
  546SOL    HW2 1638   2.621   0.405   2.079  0.7897  1.0251 -0.7645
  547SOL     OW 1639   0.257   0.079   2.407 -0.7557 -0.7093  0.2275
  547SOL    HW1 1640   0.276   0.107   2.508  2.5955 -1.9605  1.7493
  547SOL    HW2 1641   0.339   0.099   2.344  1.6164 -0.6620 -1.0072
  548SOL     OW 1642   2.188   2.093   2.628  0.0982 -0.4002 -1.0038
  548SOL    HW1 1643   2.283   2.133   2.621  0.4378  0.1350  0.2491
  548SOL    HW2 1644   2.168   2.056   2.535  0.6902 -1.2671  2.3636
  549SOL     OW 1645   2.593   0.277   1.036 -0.0867 -0.3580  0.1050
  549SOL    HW1 1646   2.507   0.237   1.003  2.5942  0.4513  4.0812
  549SOL    HW2 1647   2.586   0.346   1.108  1.1635  1.0976 -1.7742
  550SOL     OW 1648   2.005   1.503   0.628 -0.2319  0.3685  0.5641
  550SOL    HW1 1649   2.077   1.549   0.679 -1.9531 -1.4024  0.6229
  550SOL    HW2 1650   2.008   1.526   0.528 -0.4205 -0.6063 -0.8569
  551SOL     OW 1651   1.170   0.135   1.294  0.0783 -0.4010 -0.1350
  551SOL    HW1 1652   1.095   0.104   1.229 -0.1056 -0.5862 -1.7273
  551SOL    HW2 1653   1.259   0.099   1.268 -2.0790  1.6005  2.3763
  552SOL     OW 1654   1.886   2.440   2.412 -0.4296  0.1835 -0.2600
  552SOL    HW1 1655   1.855   2.486   2.328 -0.2493  0.0162 -1.8100
  552SOL    HW2 1656   1.977   2.403   2.390 -0.2277 -1.3333 -4.5244
  553SOL     OW 1657   0.681   2.947   0.476  0.1264  0.3198  0.5749
  553SOL    HW1 1658   0.771   2.933   0.519  0.2293  1.2288 -0.5670
  553SOL    HW2 1659   0.611   2.893   0.524  0.9794  0.9248 -2.0039
  554SOL     OW 1660   1.777   2.614   2.195 -0.0149  0.1768  0.4579
  554SOL    HW1 1661   1.737   2.550   2.124 -0.5871 -3.8953  0.7992
  554SOL    HW2 1662   1.797   2.707   2.156  1.2065  1.6056  1.0202
  555SOL     OW 1663   2.151   2.470   2.130 -0.2785 -0.5345  0.3427
  555SOL    HW1 1664   2.246   2.446   2.088  2.6568 -3.2383 -1.2010
  555SOL    HW2 1665   2.134   2.419   2.217  0.5565 -0.0508 -1.7075
  556SOL     OW 1666   0.956   3.045   0.564 -0.0543 -0.0900 -0.4745
  556SOL    HW1 1667   1.051   3.029   0.603 -0.1428 -1.7268  2.3413
  556SOL    HW2 1668   0.960   3.072   0.465 -0.0767 -2.5248  0.7567
  557SOL     OW 1669   0.683   2.195   1.882 -0.0763  0.4158  0.0843
  557SOL    HW1 1670   0.649   2.139   1.960  0.8828 -1.2469 -1.1758
  557SOL    HW2 1671   0.610   2.206   1.811 -1.6509  0.2479  0.6752
  558SOL     OW 1672   2.738   1.058   2.350  0.2745  0.1080 -0.1270
  558SOL    HW1 1673   2.748   0.959   2.347  1.1899  1.9636  2.0309
  558SOL    HW2 1674   2.826   1.105   2.381  1.1842  3.4986  0.6669
  559SOL     OW 1675   2.554   2.094   2.183 -0.2351 -0.6089  0.3191
  559SOL    HW1 1676   2.515   2.097   2.087 -2.1915  0.0379 -0.5140
  559SOL    HW2 1677   2.641   2.147   2.194  2.3543  0.2157  0.7069
  560SOL     OW 1678   0.567   0.568   2.019 -0.3957  0.2326 -0.1524
  560SOL    HW1 1679   0.540   0.521   1.932 -2.4145  0.8109 -0.3597
  560SOL    HW2 1680   0.661   0.547   2.054  1.9723 -2.9679 -0.5389
  561SOL     OW 1681   1.170   0.443   0.155 -0.2774 -0.1911 -0.1574
  561SOL    HW1 1682   1.250   0.414   0.207 -1.7275 -0.1406  2.0941
  561SOL    HW2 1683   1.154   0.367   0.088  3.1013 -0.7785  0.5568
  562SOL     OW 1684   1.087   1.456   1.595  0.7154  0.5330 -0.2883
  562SOL    HW1 1685   1.044   1.539   1.629  2.9339 -2.5663  1.0205
  562SOL    HW2 1686   1.060   1.429   1.498 -1.1418  0.4769 -1.1866
  563SOL     OW 1687   1.878   2.532   0.044  0.0042  0.1081  0.0676
  563SOL    HW1 1688   1.972   2.500   0.028 -1.3485 -1.4850  1.8819
  563SOL    HW2 1689   1.874   2.581   0.133 -1.7540  0.6669  2.0173
  564SOL     OW 1690   2.819   2.031   0.306  0.4173  0.0829  0.2244
  564SOL    HW1 1691   2.803   2.132   0.303 -1.3772 -3.1361  1.1837
  564SOL    HW2 1692   2.732   1.988   0.275  0.5428  2.0421  0.8555
  565SOL     OW 1693   0.501   2.846   2.197 -0.3512  0.1053 -0.0090
  565SOL    HW1 1694   0.562   2.910   2.244 -1.9981 -1.8509 -2.9971
  565SOL    HW2 1695   0.426   2.816   2.263 -0.0196  0.1133 -1.3595
  566SOL     OW 1696   1.418   2.342   2.754  0.1282 -0.0239 -0.6112
  566SOL    HW1 1697   1.496   2.281   2.770 -0.5373 -2.2286  1.7577
  566SOL    HW2 1698   1.400   2.355   2.654 -0.4318 -0.9461 -1.3967
  567SOL     OW 1699   1.963   2.045   1.456  0.3111  0.8103 -0.2551
  567SOL    HW1 1700   1.916   2.133   1.435 -1.1711 -0.6971  1.8062
  567SOL    HW2 1701   1.898   1.978   1.498 -1.2804 -1.7504 -0.3385
  568SOL     OW 1702   2.034   0.784   2.893 -0.1574  0.0593 -0.3457
  568SOL    HW1 1703   2.023   0.793   2.996  1.6792 -1.1443  1.5537
  568SOL    HW2 1704   2.102   0.711   2.875 -2.1141  2.6172 -0.5852
  569SOL     OW 1705   2.637   1.476   2.088 -0.2992  0.0715  0.1245
  569SOL    HW1 1706   2.730   1.506   2.129  3.8306  1.0340  0.4507
  569SOL    HW2 1707   2.567   1.435   2.154 -1.1191 -0.6179  0.4575
  570SOL     OW 1708   2.367   2.881   1.798 -0.2218  0.0629  0.4569
  570SOL    HW1 1709   2.325   2.788   1.775 -0.4338 -1.0581  2.7669
  570SOL    HW2 1710   2.458   2.871   1.840 -1.7433 -3.1014 -0.8673
  571SOL     OW 1711   0.163   0.365   1.553 -0.1993 -0.1672 -0.3309
  571SOL    HW1 1712   0.103   0.299   1.603  2.1093 -0.1608 -1.8439
  571SOL    HW2 1713   0.139   0.368   1.455  1.5084 -0.4215 -1.4094
  572SOL     OW 1714   0.063   2.006   0.662 -0.4967  0.1299  0.2882
  572SOL    HW1 1715   3.059   1.977   0.634  1.4272  2.6309  0.8077
  572SOL    HW2 1716   0.111   1.924   0.705  2.4147 -0.1021 -0.2371
  573SOL     OW 1717   1.046   0.667   0.061  0.5879  0.1033 -0.1660
  573SOL    HW1 1718   0.978   0.686   0.134 -3.0794  2.0605  1.6104
  573SOL    HW2 1719   1.100   0.578   0.080  2.2893 -2.2543  1.3367
  574SOL     OW 1720   0.133   3.046   0.290  0.0995 -0.2319 -0.2230
  574SOL    HW1 1721   0.174   0.030   0.229 -0.4347  2.4659  2.5964
  574SOL    HW2 1722   0.073   2.984   0.236  1.6351 -0.5976  0.4035
  575SOL     OW 1723   0.905   2.283   1.210 -0.3051  0.1964  0.3605
  575SOL    HW1 1724   0.964   2.214   1.163 -0.1962  0.5952  1.8725
  575SOL    HW2 1725   0.917   2.376   1.167 -0.9626 -1.4346 -0.6341
  576SOL     OW 1726   2.904   2.707   1.281 -0.1994 -0.0436 -0.7259
  576SOL    HW1 1727   2.867   2.710   1.377 -3.5438 -0.9718 -0.8731
  576SOL    HW2 1728   3.006   2.718   1.285  2.6462  0.9977 -2.5854
  577SOL     OW 1729   2.488   1.606   1.411  0.0011 -0.3196 -0.4818
  577SOL    HW1 1730   2.479   1.556   1.505 -1.2430 -3.6701  3.0213
  577SOL    HW2 1731   2.418   1.678   1.402  0.5455  1.7763 -0.2182
  578SOL     OW 1732   1.042   2.912   2.715 -0.2405 -0.0800 -0.2077
  578SOL    HW1 1733   1.078   2.898   2.619  0.2850 -0.3093  0.1385
  578SOL    HW2 1734   1.121   2.927   2.784 -0.7606 -0.7127  1.5787
  579SOL     OW 1735   2.068   1.608   2.123  0.1130 -0.1906  0.0396
  579SOL    HW1 1736   1.994   1.542   2.148  1.5210 -0.0130 -2.5486
  579SOL    HW2 1737   2.067   1.611   2.020 -0.8860 -1.3262 -0.3442
  580SOL     OW 1738   1.714   0.261   1.970  0.1877  0.3703 -0.0234
  580SOL    HW1 1739   1.662   0.218   1.894 -2.2126  2.1831  1.6309
  580SOL    HW2 1740   1.720   0.362   1.958 -2.9543  1.5004 -0.4318
  581SOL     OW 1741   1.069   1.510   2.010  0.0097  0.1654  0.4914
  581SOL    HW1 1742   1.064   1.409   2.000 -0.6642 -0.8719  2.4164
  581SOL    HW2 1743   1.133   1.558   1.948 -3.7143  0.8676  0.7329
  582SOL     OW 1744   2.909   2.842   1.851 -0.3005  0.2191  0.0551
  582SOL    HW1 1745   2.893   2.923   1.905 -1.0451  0.1998 -0.8040
  582SOL    HW2 1746   2.933   2.876   1.755 -0.3217  0.2444  2.3648
  583SOL     OW 1747   1.266   1.420   1.208 -0.3588  0.3397 -0.2822
  583SOL    HW1 1748   1.310   1.369   1.284 -3.0187  1.4968 -0.8005
  583SOL    HW2 1749   1.171   1.388   1.188  0.4104 -1.1739 -0.8015
  584SOL     OW 1750   1.375   1.804   2.887 -0.1159  0.2015  0.3230
  584SOL    HW1 1751   1.284   1.857   2.874 -0.4904 -1.4326 -1.0026
  584SOL    HW2 1752   1.390   1.757   2.795 -0.7742 -1.5256 -1.8525
  585SOL     OW 1753   0.279   2.429   0.342  0.0344 -0.5401 -0.0987
  585SOL    HW1 1754   0.317   2.345   0.393 -0.1950 -1.8966  3.8547
  585SOL    HW2 1755   0.278   2.421   0.241 -0.1624  0.4420 -0.3718
  586SOL     OW 1756   2.102   2.380   3.086 -0.2767  0.1035  0.7018
  586SOL    HW1 1757   2.144   2.350   0.083 -1.5971  1.3434 -1.9520
  586SOL    HW2 1758   2.115   2.316   3.004 -0.4853  0.6553 -0.4535
  587SOL     OW 1759   2.448   2.090   0.424 -0.6630 -0.6052  0.2845
  587SOL    HW1 1760   2.493   2.183   0.431  0.4988  3.8495 -1.3890
  587SOL    HW2 1761   2.506   2.027   0.372  0.1774  0.4670  1.3054
  588SOL     OW 1762   2.166   0.397   1.065  0.6090  0.5890 -0.1271
  588SOL    HW1 1763   2.087   0.409   0.995 -2.2900  3.1322 -2.1533
  588SOL    HW2 1764   2.256   0.397   1.016  0.2017  0.7194  0.0216
  589SOL     OW 1765   0.633   0.866   0.961  0.2680  0.4490 -0.2877
  589SOL    HW1 1766   0.637   0.772   0.919 -2.4661 -0.9913  1.0365
  589SOL    HW2 1767   0.571   0.917   0.899  2.0677  0.5593 -0.9804
  590SOL     OW 1768   2.824   2.294   0.268 -0.0190 -0.1338  0.2282
  590SOL    HW1 1769   2.739   2.335   0.218 -2.1887  1.3065  0.3924
  590SOL    HW2 1770   2.892   2.368   0.287  0.0800 -0.7643  0.7284
  591SOL     OW 1771   0.223   2.736   1.708  0.1448 -0.4950 -0.3063
  591SOL    HW1 1772   0.266   2.646   1.718 -0.8090 -0.3554  0.0767
  591SOL    HW2 1773   0.187   2.760   1.801 -0.5464 -0.8915 -0.5330
  592SOL     OW 1774   0.708   1.179   1.390 -0.5707 -0.0625 -0.1414
  592SOL    HW1 1775   0.661   1.145   1.474 -0.7325 -1.0872  3.2308
  592SOL    HW2 1776   0.680   1.128   1.306  1.9181 -1.7670  2.0157
  593SOL     OW 1777   1.017   1.896   1.272 -0.7635 -0.2991 -0.1656
  593SOL    HW1 1778   1.086   1.860   1.331 -2.1796  1.6528 -2.8096
  593SOL    HW2 1779   1.045   1.975   1.215  0.5365  1.8260  2.3045
  594SOL     OW 1780   0.272   1.819   2.815  0.6324 -0.0584  0.1011
  594SOL    HW1 1781   0.335   1.800   2.892 -0.1850  1.4344 -0.8732
  594SOL    HW2 1782   0.319   1.802   2.725 -0.8552  0.4109  1.3194
  595SOL     OW 1783   1.321   0.682   0.950 -0.4996 -0.1375  0.0757
  595SOL    HW1 1784   1.389   0.623   0.899 -0.3353 -2.6802  1.9169
  595SOL    HW2 1785   1.231   0.683   0.902  0.5459 -1.0731 -0.2226
  596SOL     OW 1786   0.289   1.693   0.498  0.3066  0.0456  0.1848
  596SOL    HW1 1787   0.190   1.681   0.472 -0.5546 -0.7145 -3.1200
  596SOL    HW2 1788   0.313   1.635   0.581  1.3861 -1.9391  3.9444
  597SOL     OW 1789   2.999   2.129   2.814 -0.0689 -0.3791  0.4385
  597SOL    HW1 1790   2.962   2.195   2.742  2.0534  0.7330 -1.3703
  597SOL    HW2 1791   2.948   2.136   2.901 -0.3650  0.7671  0.9510
  598SOL     OW 1792   2.162   2.066   2.305  0.4228  0.0848  0.1794
  598SOL    HW1 1793   2.081   2.037   2.250  1.0172 -2.6243 -1.7941
  598SOL    HW2 1794   2.219   1.986   2.324  0.4276  1.2118  1.3127
  599SOL     OW 1795   1.540   0.337   0.668  0.2687 -0.1412 -0.1595
  599SOL    HW1 1796   1.588   0.267   0.727  3.2987 -1.0406  3.6569
  599SOL    HW2 1797   1.548   0.322   0.565  1.2256  0.2169 -2.4729
  600SOL     OW 1798   0.923   2.840   0.265 -0.1963 -0.3046  0.0138
  600SOL    HW1 1799   0.927   2.942   0.289 -0.3043 -1.1212  1.1913
  600SOL    HW2 1800   0.828   2.834   0.223 -3.7941 -1.5196 -0.1964
  601SOL     OW 1801   0.584   0.785   1.369  0.2244  0.3384 -0.4214
  601SOL    HW1 1802   0.524   0.795   1.452  2.2067  0.9521  3.9126
  601SOL    HW2 1803   0.677   0.762   1.413  2.2716  1.8827  1.7929
  602SOL     OW 1804   0.260   2.814   1.061  0.3640  0.4416 -0.6039
  602SOL    HW1 1805   0.240   2.716   1.083  0.6334  0.7726 -0.0385
  602SOL    HW2 1806   0.189   2.876   1.099  0.9993 -1.6178 -0.8630
  603SOL     OW 1807   1.097   2.822   2.468 -0.3820 -0.0799 -0.2525
  603SOL    HW1 1808   1.073   2.727   2.445 -4.0908 -2.7075 -2.4768
  603SOL    HW2 1809   1.181   2.852   2.420 -1.1636  1.0420  0.8511
  604SOL     OW 1810   0.630   2.884   2.977 -0.2536 -0.7092 -0.3705
  604SOL    HW1 1811   0.645   2.865   3.077  2.1331  1.5570  1.3571
  604SOL    HW2 1812   0.544   2.846   2.935  1.7014 -2.9695  0.9481
  605SOL     OW 1813   0.973   0.648   1.953 -0.5560 -0.2441 -0.0326
  605SOL    HW1 1814   1.047   0.606   1.892  0.1431 -1.2443  0.9994
  605SOL    HW2 1815   0.979   0.750   1.949  0.6079  0.1532  0.6372
  606SOL     OW 1816   2.046   0.444   2.683  0.2286 -0.4645 -0.2325
  606SOL    HW1 1817   2.006   0.378   2.752  1.5105 -0.5762 -1.3221
  606SOL    HW2 1818   1.973   0.499   2.644 -0.5454 -0.5578  1.3216
  607SOL     OW 1819   0.426   1.312   1.145 -0.0706 -0.2654  0.3237
  607SOL    HW1 1820   0.447   1.366   1.231 -1.0921 -0.1384  0.9648
  607SOL    HW2 1821   0.411   1.214   1.162 -0.3019  1.8190  0.1756
  608SOL     OW 1822   0.241   2.539   2.407 -0.4609  0.3116 -0.7321
  608SOL    HW1 1823   0.204   2.635   2.404 -3.0109  0.6953 -1.0242
  608SOL    HW2 1824   0.212   2.500   2.493 -0.5139 -0.5977 -0.6280
  609SOL     OW 1825   1.465   0.623   3.084  0.0428 -0.2058  0.0503
  609SOL    HW1 1826   1.543   0.615   3.022 -0.7090 -0.5575  1.3723
  609SOL    HW2 1827   1.472   0.546   0.061 -1.0128  1.3568 -1.5595
  610SOL     OW 1828   0.665   2.739   1.301  0.0219  0.0240 -0.2455
  610SOL    HW1 1829   0.754   2.792   1.296  0.0153 -3.3245 -1.0761
  610SOL    HW2 1830   0.616   2.769   1.382  1.0434 -0.5222  1.0050
  611SOL     OW 1831   1.144   0.888   0.522 -0.0269  0.4820 -0.9479
  611SOL    HW1 1832   1.189   0.971   0.485 -0.9643  0.9236  0.7618
  611SOL    HW2 1833   1.049   0.905   0.542  0.7727 -2.5505  2.3412
  612SOL     OW 1834   1.456   0.776   2.764 -0.0262  0.4186 -0.1912
  612SOL    HW1 1835   1.418   0.793   2.670 -2.6643 -0.4122 -0.1711
  612SOL    HW2 1836   1.491   0.863   2.800  2.3491  0.1859  0.1015
  613SOL     OW 1837   2.076   0.846   0.573 -0.5434 -0.1694  0.4860
  613SOL    HW1 1838   2.039   0.933   0.532  1.0703  1.4280  0.3069
  613SOL    HW2 1839   2.002   0.789   0.610  1.3591 -0.0921 -0.5717
  614SOL     OW 1840   2.310   0.214   1.609  1.0137 -0.5352 -0.1898
  614SOL    HW1 1841   2.351   0.257   1.691 -2.7243 -1.6262 -0.9823
  614SOL    HW2 1842   2.317   0.269   1.521  0.6792  2.8518  0.0343
  615SOL     OW 1843   0.861   2.135   0.753 -0.2191  0.3677 -0.3951
  615SOL    HW1 1844   0.878   2.085   0.845 -0.3471 -3.4792  1.0439
  615SOL    HW2 1845   0.842   2.233   0.770  0.4019  0.4836  1.4314
  616SOL     OW 1846   1.583   0.975   2.312  0.2467 -0.0680  0.4078
  616SOL    HW1 1847   1.577   1.069   2.360 -0.9332 -0.3119  1.6466
  616SOL    HW2 1848   1.604   0.985   2.214  0.9862 -3.8782  1.5706
  617SOL     OW 1849   1.696   2.854   3.055  0.5446  0.0372  0.4897
  617SOL    HW1 1850   1.604   2.808   3.063 -2.1301  0.0741 -0.3405
  617SOL    HW2 1851   1.722   2.878   2.958 -0.9579 -1.4298  2.9058
  618SOL     OW 1852   0.975   1.131   2.626  0.7060 -0.0415  0.3397
  618SOL    HW1 1853   1.061   1.179   2.658  0.6421  1.4119  0.2108
  618SOL    HW2 1854   0.996   1.037   2.584  1.2187 -1.1469 -1.6108
  619SOL     OW 1855   2.528   1.361   0.892 -0.2399  0.6434  0.2045
  619SOL    HW1 1856   2.468   1.294   0.941 -3.0088 -0.6615  0.2210
  619SOL    HW2 1857   2.608   1.312   0.856 -0.1872  1.3083 -1.6412
  620SOL     OW 1858   2.454   2.515   2.776 -1.1103 -0.5299  0.2755
  620SOL    HW1 1859   2.510   2.599   2.752  0.0798  1.0093 -0.2880
  620SOL    HW2 1860   2.388   2.530   2.850 -1.4053 -0.5268 -1.5771
  621SOL     OW 1861   2.382   1.064   0.357  0.2583  0.0405 -0.0473
  621SOL    HW1 1862   2.349   1.160   0.361  0.2040  0.4218  2.3564
  621SOL    HW2 1863   2.376   1.022   0.450 -1.6422  0.6784 -0.2706
  622SOL     OW 1864   1.355   2.360   2.452  0.3845 -0.1571  0.2186
  622SOL    HW1 1865   1.409   2.398   2.377 -0.7716  0.4340  1.0789
  622SOL    HW2 1866   1.276   2.422   2.469  1.6752 -1.9197 -0.6769
  623SOL     OW 1867   0.183   2.120   0.017 -0.2959  0.0034  0.2229
  623SOL    HW1 1868   0.193   2.022   0.017 -1.7898  3.3027  1.4455
  623SOL    HW2 1869   0.090   2.147   0.049  0.2114 -1.5688 -0.9676
  624SOL     OW 1870   0.396   0.145   3.027 -0.4503  0.0434 -0.5848
  624SOL    HW1 1871   0.466   0.209   3.069 -1.3097  0.1081  1.0779
  624SOL    HW2 1872   0.418   0.047   3.041 -1.0915  1.7438 -1.6051
  625SOL     OW 1873   0.848   2.034   3.048 -0.2802 -0.0174 -0.0167
  625SOL    HW1 1874   0.794   2.093   2.981 -0.9452 -0.1230  2.8219
  625SOL    HW2 1875   0.797   1.950   3.077  2.7845 -0.1221 -1.4763
  626SOL     OW 1876   2.960   0.652   0.364 -0.2525  0.1431  0.2119
  626SOL    HW1 1877   2.969   0.642   0.263  0.3623  2.0445  0.0691
  626SOL    HW2 1878   2.984   0.567   0.409  0.4614  1.9487  1.2787
  627SOL     OW 1879   1.695   1.306   2.806  0.8512 -0.3840 -0.0077
  627SOL    HW1 1880   1.744   1.223   2.844 -1.8516  2.6829  2.3677
  627SOL    HW2 1881   1.696   1.380   2.877  0.1647 -0.4434  1.2263
  628SOL     OW 1882   1.183   1.198   2.790 -0.4274  0.1903 -0.4175
  628SOL    HW1 1883   1.196   1.270   2.864  1.0004  1.1929 -0.9371
  628SOL    HW2 1884   1.163   1.106   2.828  0.7767  0.0544 -0.8907
  629SOL     OW 1885   0.374   0.061   1.562  0.0358 -0.3451  0.2362
  629SOL    HW1 1886   0.295   0.070   1.626  0.6894 -1.1109  0.9635
  629SOL    HW2 1887   0.408   0.151   1.531 -2.1195 -0.0370  1.6653
  630SOL     OW 1888   2.401   0.706   2.177 -0.0547 -0.3178  0.2732
  630SOL    HW1 1889   2.360   0.659   2.094 -0.7213  0.6819 -1.5173
  630SOL    HW2 1890   2.388   0.652   2.262 -1.7852 -1.2100  0.5684
  631SOL     OW 1891   2.173   0.516   0.633  0.0766 -0.0098  0.0849
  631SOL    HW1 1892   2.215   0.424   0.654  0.2721  0.2045 -0.8614
  631SOL    HW2 1893   2.228   0.592   0.672 -0.1159 -1.2874  0.2185
  632SOL     OW 1894   2.921   0.745   1.586 -0.3184 -0.4748 -0.6290
  632SOL    HW1 1895   2.851   0.682   1.632 -0.8160  1.8178  2.1501
  632SOL    HW2 1896   2.976   0.699   1.512  0.7250 -1.8753  0.3160
  633SOL     OW 1897   0.863   0.307   2.912 -0.0048 -0.2409 -0.2200
  633SOL    HW1 1898   0.786   0.376   2.901  0.3927  0.5067  0.8744
  633SOL    HW2 1899   0.831   0.211   2.895  1.8500 -3.0730 -0.4428
  634SOL     OW 1900   1.014   2.537   2.920 -1.1161  0.4996 -0.7008
  634SOL    HW1 1901   1.035   2.556   3.020  1.0825  0.1211  0.5793
  634SOL    HW2 1902   0.971   2.618   2.880  3.2848 -1.2270  1.2658
  635SOL     OW 1903   2.974   0.390   0.476  0.2242 -0.3159 -0.5951
  635SOL    HW1 1904   3.006   0.427   0.567  0.9568  2.9540 -0.2948
  635SOL    HW2 1905   3.021   0.296   0.465  0.4239 -0.9473  0.6564
  636SOL     OW 1906   0.609   1.081   0.340  0.5875 -0.3933 -0.1697
  636SOL    HW1 1907   0.579   1.079   0.243 -2.7589  0.3141  1.3173
  636SOL    HW2 1908   0.703   1.055   0.358 -2.3025  2.4093  1.2046
  637SOL     OW 1909   0.249   2.637   0.494 -0.1836 -0.2132  0.1667
  637SOL    HW1 1910   0.271   2.575   0.415 -2.1252  0.9748  1.2243
  637SOL    HW2 1911   0.237   2.735   0.472  0.6092  1.4388  0.2924
  638SOL     OW 1912   0.129   2.481   0.659 -0.5339  0.3254 -0.3620
  638SOL    HW1 1913   0.172   2.551   0.597 -2.0629 -1.3878  0.2468
  638SOL    HW2 1914   0.190   2.399   0.685  2.8911  0.4027  0.6311
  639SOL     OW 1915   1.510   1.092   0.233  0.1176 -0.0009 -0.3017
  639SOL    HW1 1916   1.514   1.013   0.171 -1.1226 -0.4904  0.1908
  639SOL    HW2 1917   1.500   1.176   0.175  2.1824 -0.4010  1.3150
  640SOL     OW 1918   1.615   2.181   1.437  0.4078 -0.5888 -0.1757
  640SOL    HW1 1919   1.637   2.272   1.479 -0.2386 -0.9175 -3.7083
  640SOL    HW2 1920   1.639   2.185   1.341  0.0713  1.2014  0.2573
  641SOL     OW 1921   2.850   2.443   1.173 -0.2840  0.0076  0.2454
  641SOL    HW1 1922   2.841   2.537   1.209 -2.4002 -0.3665 -3.0211
  641SOL    HW2 1923   2.825   2.439   1.074 -0.6450  1.7744  0.2414
  642SOL     OW 1924   0.846   3.033   1.530 -0.1056  0.2304  0.0019
  642SOL    HW1 1925   0.924   2.982   1.577  2.3409  0.7973  1.2673
  642SOL    HW2 1926   0.756   3.022   1.577  0.5483  1.2292 -1.1350
  643SOL     OW 1927   0.944   2.323   2.766 -0.1733  0.5124 -0.1085
  643SOL    HW1 1928   0.967   2.405   2.825  1.5242  0.2837  0.4274
  643SOL    HW2 1929   1.022   2.261   2.767 -0.0988  1.1142  1.0623
  644SOL     OW 1930   1.211   2.566   0.885 -0.1547  0.4142 -0.0026
  644SOL    HW1 1931   1.282   2.515   0.830  2.2927 -2.3145 -1.7093
  644SOL    HW2 1932   1.124   2.570   0.830 -3.7194  0.2428 -3.1034
  645SOL     OW 1933   1.260   1.445   1.794  0.5808  0.3667 -0.0440
  645SOL    HW1 1934   1.182   1.442   1.724 -0.2231 -0.0142  2.7347
  645SOL    HW2 1935   1.269   1.360   1.849  0.6105 -0.2045  2.9568
  646SOL     OW 1936   0.143   0.911   0.163  0.0349  0.2746 -0.1171
  646SOL    HW1 1937   0.146   0.889   0.266  1.0222 -3.1783  0.2509
  646SOL    HW2 1938   0.092   0.998   0.148 -0.3845  0.9200 -0.5268
  647SOL     OW 1939   1.188   0.310   0.483 -0.1901 -0.3255 -0.0931
  647SOL    HW1 1940   1.190   0.293   0.580 -0.6831  1.4139 -3.7104
  647SOL    HW2 1941   1.214   0.405   0.459  0.8987  1.2137 -1.2338
  648SOL     OW 1942   2.024   2.725   1.030 -0.2550 -0.2025 -0.3898
  648SOL    HW1 1943   2.050   2.634   1.068 -2.6045  0.1386 -0.2703
  648SOL    HW2 1944   1.948   2.761   1.094 -0.2486 -1.4428  3.1607
  649SOL     OW 1945   0.577   1.832   2.953 -0.0085  0.3688  0.4641
  649SOL    HW1 1946   0.571   1.902   2.880  0.9149  0.1160  0.4208
  649SOL    HW2 1947   0.577   1.881   3.044  0.3454  0.1007 -0.5050
  650SOL     OW 1948   2.307   1.862   1.884 -0.3520 -0.5083 -0.4547
  650SOL    HW1 1949   2.213   1.903   1.899  0.9049 -0.9350  0.5976
  650SOL    HW2 1950   2.335   1.873   1.785 -1.1434  0.7070  1.0279
  651SOL     OW 1951   0.025   2.982   2.951 -0.1813 -0.1091 -0.3287
  651SOL    HW1 1952   3.030   2.920   2.971 -1.3549 -1.3926  0.5829
  651SOL    HW2 1953   0.013   3.046   2.876  0.3389 -2.2661 -2.7178
  652SOL     OW 1954   2.503   1.695   0.346 -0.0326  0.3081  0.3044
  652SOL    HW1 1955   2.530   1.715   0.442  0.8563  1.1304  1.6541
  652SOL    HW2 1956   2.410   1.726   0.323  0.8336 -0.8962  1.5063
  653SOL     OW 1957   0.130   0.380   1.030  0.2759  0.0298 -0.5371
  653SOL    HW1 1958   0.210   0.365   0.963  1.6557 -0.2617 -2.8023
  653SOL    HW2 1959   0.047   0.327   1.005  0.1227 -0.7126 -1.2448
  654SOL     OW 1960   0.960   0.013   0.293 -0.3439 -0.1726  0.2561
  654SOL    HW1 1961   1.060   0.038   0.286  2.5407  0.1986 -0.4090
  654SOL    HW2 1962   0.903   0.082   0.244 -2.5480 -1.2201  0.9478
  655SOL     OW 1963   0.362   2.696   1.341  0.1771  0.3826  0.5101
  655SOL    HW1 1964   0.321   2.787   1.331 -0.2963 -1.8718 -0.0397
  655SOL    HW2 1965   0.438   2.708   1.409  0.1507  2.7570  3.0540
  656SOL     OW 1966   2.988   2.876   2.197 -0.0085  0.4999  0.0558
  656SOL    HW1 1967   3.082   2.911   2.212  0.7812 -1.3064  0.1782
  656SOL    HW2 1968   2.943   2.911   2.113 -1.3677  0.0269 -1.3751
  657SOL     OW 1969   1.848   0.534   2.454  0.1928 -0.0982 -0.4492
  657SOL    HW1 1970   1.809   0.603   2.519 -0.1723 -2.0584 -2.2897
  657SOL    HW2 1971   1.948   0.546   2.436 -1.5738 -0.1646 -1.0891
  658SOL     OW 1972   1.811   1.521   1.230  0.1975  0.2588  0.2604
  658SOL    HW1 1973   1.814   1.423   1.262  1.5251  1.6912 -0.8954
  658SOL    HW2 1974   1.801   1.595   1.298 -0.7693 -4.3691 -0.9867
  659SOL     OW 1975   2.628   2.735   2.792  0.1807  0.2537  0.0635
  659SOL    HW1 1976   2.706   2.752   2.734 -4.7868 -1.1138  2.2638
  659SOL    HW2 1977   2.659   2.679   2.874  0.3006 -1.4214 -0.6714
  660SOL     OW 1978   1.185   0.913   0.137  0.3645  0.6163 -0.0082
  660SOL    HW1 1979   1.117   0.835   0.140 -0.4052 -0.5141  0.9593
  660SOL    HW2 1980   1.142   1.003   0.113 -1.3366 -0.0822 -1.1410
  661SOL     OW 1981   2.668   2.859   0.557 -0.5548 -0.4308  0.2455
  661SOL    HW1 1982   2.747   2.844   0.620 -1.3663  0.3064  0.8244
  661SOL    HW2 1983   2.673   2.950   0.509  0.9933  1.1476 -0.5323
  662SOL     OW 1984   0.685   0.594   0.866 -0.0810  0.1440 -0.3710
  662SOL    HW1 1985   0.671   0.491   0.870 -0.9415 -2.3233 -0.8332
  662SOL    HW2 1986   0.633   0.627   0.784  0.1184 -0.1049  0.6761
  663SOL     OW 1987   1.382   2.568   2.164 -0.1765 -0.3381  0.3061
  663SOL    HW1 1988   1.284   2.542   2.147 -1.7144  0.8340  0.1289
  663SOL    HW2 1989   1.417   2.638   2.096  1.1156  2.6593  1.0038
  664SOL     OW 1990   0.608   2.218   1.411 -0.1485  0.3427  1.0682
  664SOL    HW1 1991   0.697   2.270   1.404  1.1921 -2.0307  0.9189
  664SOL    HW2 1992   0.626   2.115   1.411  1.8804 -2.4397 -0.1550
  665SOL     OW 1993   1.136   2.058   1.708 -0.3422  0.0716 -0.2285
  665SOL    HW1 1994   1.040   2.097   1.703 -0.9472  0.8398  1.8670
  665SOL    HW2 1995   1.182   2.040   1.618 -0.3701 -1.8051  1.0327
  666SOL     OW 1996   0.395   2.822   2.868  0.1320 -0.5642 -0.8436
  666SOL    HW1 1997   0.391   2.878   2.784 -0.1257  0.0844  0.1612
  666SOL    HW2 1998   0.377   2.728   2.840  1.1659  4.1770 -2.4982
  667SOL     OW 1999   1.331   1.678   1.184  0.3924 -0.3241 -0.4652
  667SOL    HW1 2000   1.313   1.579   1.193  2.7536 -0.9771  0.2384
  667SOL    HW2 2001   1.329   1.723   1.275  0.8914  1.5869 -0.8203
  668SOL     OW 2002   1.095   0.279   2.377  0.2643  0.0255  0.0796
  668SOL    HW1 2003   1.014   0.320   2.426  3.1728 -0.8052 -0.8445
  668SOL    HW2 2004   1.117   0.188   2.417 -0.7065 -0.7716  1.7596
  669SOL     OW 2005   2.307   2.313   1.654 -0.2237  0.0451 -0.0260
  669SOL    HW1 2006   2.233   2.246   1.659  3.3005 -0.5201  0.3889
  669SOL    HW2 2007   2.393   2.265   1.676 -1.5204  0.5526  0.5733
  670SOL     OW 2008   1.890   1.885   0.099 -0.4560  0.1630 -0.1451
  670SOL    HW1 2009   1.808   1.939   0.133 -1.0262 -0.2717 -0.8400
  670SOL    HW2 2010   1.934   1.940   0.027  0.4018 -0.3176 -0.3667
  671SOL     OW 2011   1.302   1.115   0.791  0.0468 -0.0102 -0.0301
  671SOL    HW1 2012   1.399   1.107   0.762 -0.3607  1.5349 -0.5879
  671SOL    HW2 2013   1.287   1.202   0.841 -0.7531  0.1562 -0.4898
  672SOL     OW 2014   2.447   1.147   2.270 -0.1080 -0.2758 -0.3407
  672SOL    HW1 2015   2.389   1.107   2.195 -0.8857 -1.6345  0.5496
  672SOL    HW2 2016   2.514   1.080   2.309  2.1322  1.4594  0.3244
  673SOL     OW 2017   2.874   1.582   2.164 -0.5728  0.1981  0.7738
  673SOL    HW1 2018   2.948   1.628   2.110 -1.9989 -1.4565 -0.6727
  673SOL    HW2 2019   2.833   1.652   2.225  1.4041 -0.4758 -1.0969
  674SOL     OW 2020   1.002   2.446   2.465  0.3694 -0.6762 -0.1844
  674SOL    HW1 2021   0.951   2.527   2.505  0.4775  2.5973  0.2728
  674SOL    HW2 2022   0.944   2.359   2.463 -1.8253 -1.7520  0.0691
  675SOL     OW 2023   0.983   1.201   1.719  0.1266 -0.1695 -0.0724
  675SOL    HW1 2024   1.070   1.151   1.705 -0.8530  0.1644 -1.9173
  675SOL    HW2 2025   0.985   1.280   1.658  1.7883 -1.0266  3.2426
  676SOL     OW 2026   2.417   0.639   0.731 -0.0302  0.3853  0.3825
  676SOL    HW1 2027   2.485   0.707   0.688  3.2543  2.0248 -2.0163
  676SOL    HW2 2028   2.453   0.542   0.743 -1.6642 -1.1230  1.9282
  677SOL     OW 2029   2.604   1.447   2.587  0.0146  0.0268  0.0353
  677SOL    HW1 2030   2.706   1.463   2.589  2.8464  1.6556 -2.8919
  677SOL    HW2 2031   2.552   1.494   2.668 -3.6893  0.7286  3.7163
  678SOL     OW 2032   0.126   3.039   1.114  1.3719 -0.0635 -0.3321
  678SOL    HW1 2033   0.038   3.033   1.164 -1.1757  0.0888  0.9273
  678SOL    HW2 2034   0.196   0.001   1.169  1.2608 -0.5965  1.0575
  679SOL     OW 2035   2.245   0.167   0.187  0.7486 -0.2605  0.1657
  679SOL    HW1 2036   2.270   0.232   0.114 -1.2890 -0.5945  2.2766
  679SOL    HW2 2037   2.323   0.111   0.221  1.4243 -0.5678  0.0958
  680SOL     OW 2038   0.138   2.546   2.139  0.1364 -0.0935 -0.1606
  680SOL    HW1 2039   0.195   2.493   2.073 -0.8662  2.2164 -0.3234
  680SOL    HW2 2040   0.169   2.523   2.237  1.0493 -0.7791  0.3162
  681SOL     OW 2041   2.252   1.787   1.385 -0.8945  0.1681 -0.5918
  681SOL    HW1 2042   2.261   1.884   1.363  0.0847  0.1721 -0.3483
  681SOL    HW2 2043   2.224   1.731   1.302  0.7785 -1.2096  1.9165
  682SOL     OW 2044   0.164   2.201   2.187  0.2753  0.5615  0.6923
  682SOL    HW1 2045   0.220   2.227   2.108 -1.2405 -0.3712  0.8913
  682SOL    HW2 2046   0.080   2.260   2.185 -2.9395  1.4147 -1.8288
  683SOL     OW 2047   3.021   2.114   1.384  0.3398  0.5030 -0.8078
  683SOL    HW1 2048   2.966   2.031   1.360  0.6407  1.0430  0.9931
  683SOL    HW2 2049   2.964   2.189   1.423  1.6375 -2.4407 -0.1016
  684SOL     OW 2050   2.271   0.996   2.412 -0.0929  0.4709 -0.5652
  684SOL    HW1 2051   2.177   1.040   2.422 -2.1775  0.9657 -1.8674
  684SOL    HW2 2052   2.336   1.058   2.366 -0.0331  0.6964  1.1305
  685SOL     OW 2053   1.605   1.439   0.545 -0.2054 -0.2000  0.3345
  685SOL    HW1 2054   1.526   1.377   0.544  1.6957 -2.0638  0.8936
  685SOL    HW2 2055   1.644   1.446   0.641  0.7130  0.1099  0.4883
  686SOL     OW 2056   0.471   0.014   0.762 -0.3350 -0.7036 -0.4368
  686SOL    HW1 2057   0.552   0.012   0.707 -1.5885  3.3167 -1.1960
  686SOL    HW2 2058   0.434   0.110   0.751 -1.3650  2.0464 -1.4835
  687SOL     OW 2059   1.579   1.212   2.433  0.2447  0.2644  0.6226
  687SOL    HW1 2060   1.675   1.227   2.464  1.5920  0.0413  2.3757
  687SOL    HW2 2061   1.514   1.223   2.509  1.3254  2.7590 -1.2144
  688SOL     OW 2062   1.179   1.749   1.419 -0.3490 -0.0665 -0.1484
  688SOL    HW1 2063   1.107   1.684   1.386  2.1309 -0.5850 -2.0478
  688SOL    HW2 2064   1.230   1.709   1.501  0.7264 -1.7326  2.7794
  689SOL     OW 2065   2.033   0.298   1.290  0.6351  0.1057  0.3621
  689SOL    HW1 2066   2.080   0.314   1.198 -0.8986  0.9971 -2.8614
  689SOL    HW2 2067   2.101   0.301   1.363  0.4524  2.7383 -0.3740
  690SOL     OW 2068   0.134   1.541   1.264 -0.1213  0.0255 -0.2620
  690SOL    HW1 2069   0.109   1.595   1.184 -0.0185  0.5762  2.0297
  690SOL    HW2 2070   0.059   1.474   1.285 -0.4596  0.1985  0.6742
  691SOL     OW 2071   0.443   2.426   1.055 -0.1244  0.0243 -0.0123
  691SOL    HW1 2072   0.527   2.478   1.080 -0.6022 -1.4910 -0.6368
  691SOL    HW2 2073   0.441   2.384   0.959  0.6131 -0.6452  0.9976
  692SOL     OW 2074   2.108   0.473   1.867 -0.7120 -1.0372 -0.5294
  692SOL    HW1 2075   2.098   0.409   1.942 -1.2148  1.7152 -2.8838
  692SOL    HW2 2076   2.058   0.441   1.781 -1.4692 -1.8849  0.7532
  693SOL     OW 2077   0.548   2.051   2.067  0.7054 -0.5253  0.2423
  693SOL    HW1 2078   0.588   1.957   2.059  1.0310  2.2550  1.6174
  693SOL    HW2 2079   0.476   2.047   2.135  1.5836  0.4046  0.3921
  694SOL     OW 2080   1.493   0.968   1.617  0.2205  0.0027 -0.0634
  694SOL    HW1 2081   1.509   0.870   1.597 -1.1774  1.0518  2.5687
  694SOL    HW2 2082   1.407   0.998   1.570 -1.1634 -0.8194 -1.1209
  695SOL     OW 2083   0.578   1.193   0.734 -0.2772 -0.6915  0.0043
  695SOL    HW1 2084   0.574   1.271   0.804  0.0139 -0.1156 -2.5123
  695SOL    HW2 2085   0.566   1.239   0.639  0.3630 -0.1572 -0.3264
  696SOL     OW 2086   1.198   3.045   0.690 -0.0414 -0.8995  0.4844
  696SOL    HW1 2087   1.265   3.025   0.614  0.0599 -1.7041 -0.3090
  696SOL    HW2 2088   1.219   0.056   0.721  0.0806  1.7654  1.5377
  697SOL     OW 2089   1.402   0.376   1.721  0.0277  0.1973  0.5062
  697SOL    HW1 2090   1.353   0.408   1.805  0.4811  0.4106  4.6783
  697SOL    HW2 2091   1.466   0.298   1.740  0.4699 -1.6403 -2.6431
  698SOL     OW 2092   1.858   1.149   2.152 -0.0733  0.4869  0.1851
  698SOL    HW1 2093   1.957   1.139   2.125 -1.4491  1.0228 -0.9739
  698SOL    HW2 2094   1.836   1.249   2.173 -0.2251  1.2064  0.7579
  699SOL     OW 2095   2.323   0.360   1.355  0.2631  0.2958  0.0295
  699SOL    HW1 2096   2.382   0.439   1.332 -0.0474 -1.6191 -0.1531
  699SOL    HW2 2097   2.368   0.273   1.334 -1.0750 -0.0179 -0.1612
  700SOL     OW 2098   0.992   2.256   0.368  0.0348 -0.2336  0.4529
  700SOL    HW1 2099   0.912   2.229   0.306 -1.1699  2.0976  1.4706
  700SOL    HW2 2100   1.024   2.178   0.420 -2.3711  0.7039 -0.0207
  701SOL     OW 2101   2.261   2.890   2.698  0.2797  0.1007 -0.1675
  701SOL    HW1 2102   2.232   2.822   2.630 -0.9035 -2.6864  0.4217
  701SOL    HW2 2103   2.222   2.862   2.790 -2.6433 -0.7771  1.9670
  702SOL     OW 2104   1.017   0.017   1.105 -0.3939  0.3884  0.9939
  702SOL    HW1 2105   0.954   3.028   1.084  2.6697 -0.4138 -1.1312
  702SOL    HW2 2106   1.003   0.092   1.034 -0.1937  2.2905  1.4120
  703SOL     OW 2107   2.497   0.114   2.270  0.1582  0.1289 -0.7172
  703SOL    HW1 2108   2.416   0.114   2.328  1.2323  0.6865 -1.7808
  703SOL    HW2 2109   2.536   0.018   2.259 -0.7449 -1.2800 -0.1797
  704SOL     OW 2110   3.068   2.385   0.366 -0.0771  0.5048  0.0933
  704SOL    HW1 2111   3.046   2.306   0.428 -0.1372 -1.9952  0.9528
  704SOL    HW2 2112   0.078   2.408   0.386 -0.0744  2.0153 -0.3510
  705SOL     OW 2113   2.563   2.910   2.309 -0.3407 -0.0789  0.1312
  705SOL    HW1 2114   2.458   2.905   2.300 -2.3168 -2.0245 -0.3132
  705SOL    HW2 2115   2.601   2.847   2.242 -0.8142  2.1355  1.1912
  706SOL     OW 2116   2.195   2.922   1.148 -0.2397  0.5405  0.5791
  706SOL    HW1 2117   2.127   2.872   1.089 -0.0558  2.0874 -1.1496
  706SOL    HW2 2118   2.284   2.871   1.143 -1.1339  1.5748  0.7573
  707SOL     OW 2119   0.830   2.771   2.303  0.4571  0.3843 -0.5373
  707SOL    HW1 2120   0.800   2.716   2.220 -2.4667  0.7141 -1.7947
  707SOL    HW2 2121   0.755   2.837   2.329 -2.4676 -0.2873  1.5166
  708SOL     OW 2122   2.811   2.221   1.747  0.3699  0.0805  0.6386
  708SOL    HW1 2123   2.893   2.250   1.802  0.1644 -0.3829 -0.7617
  708SOL    HW2 2124   2.814   2.123   1.713 -1.6744  2.7822 -0.9676
  709SOL     OW 2125   1.605   0.567   1.354  0.1315 -0.4747 -0.1949
  709SOL    HW1 2126   1.576   0.618   1.271 -0.8764 -0.1563 -1.7788
  709SOL    HW2 2127   1.692   0.512   1.344  2.0437 -2.4659  0.8100
  710SOL     OW 2128   0.889   0.040   2.668 -0.2807 -0.0227  0.3826
  710SOL    HW1 2129   0.935   3.037   2.669 -0.0136 -0.4558 -1.6246
  710SOL    HW2 2130   0.935   0.108   2.610  0.0135  1.2229  1.2077
  711SOL     OW 2131   0.652   1.855   2.572  0.0047  0.5548 -0.1780
  711SOL    HW1 2132   0.613   1.921   2.640  1.2110  1.5680 -1.9268
  711SOL    HW2 2133   0.677   1.768   2.621 -1.3324 -0.8225  1.6501
  712SOL     OW 2134   1.090   2.133   3.026  0.0239  0.1306 -0.0439
  712SOL    HW1 2135   0.993   2.106   3.049 -0.6835 -0.1409 -1.0444
  712SOL    HW2 2136   1.114   2.100   2.933 -0.9713  2.6579 -1.3821
  713SOL     OW 2137   1.978   0.785   2.265  0.5457 -0.3029  0.3178
  713SOL    HW1 2138   2.029   0.870   2.231  1.8827  3.3078 -1.1570
  713SOL    HW2 2139   2.042   0.716   2.299 -2.9017  0.0799  0.7905
  714SOL     OW 2140   1.028   1.690   1.668  0.1378  0.0770 -0.1814
  714SOL    HW1 2141   1.054   1.745   1.751  0.6615  0.2064  3.6044
  714SOL    HW2 2142   0.981   1.750   1.603 -0.6644  1.9219  0.5791
  715SOL     OW 2143   2.087   0.469   0.008  0.5987 -0.6155 -0.1546
  715SOL    HW1 2144   1.986   0.464   0.040 -3.3243 -2.5012 -0.6993
  715SOL    HW2 2145   2.147   0.476   0.093 -0.5537  0.4228 -0.7134
  716SOL     OW 2146   2.861   2.354   1.439 -0.0023 -0.1260 -0.2823
  716SOL    HW1 2147   2.843   2.438   1.498  1.2707  1.9905  2.0626
  716SOL    HW2 2148   2.827   2.369   1.345  1.8989 -0.7608  1.0845
  717SOL     OW 2149   2.693   1.164   0.818  0.2280 -0.2409  0.0314
  717SOL    HW1 2150   2.599   1.125   0.825  3.5356 -0.5469 -3.6536
  717SOL    HW2 2151   2.740   1.126   0.735 -0.0714  0.2746 -1.4149
  718SOL     OW 2152   1.324   1.696   1.645  0.4716  0.6730  0.0997
  718SOL    HW1 2153   1.416   1.653   1.636 -0.3681 -0.6256  0.3215
  718SOL    HW2 2154   1.283   1.645   1.720  4.5064 -0.7086 -0.4127
  719SOL     OW 2155   2.927   0.574   0.108 -0.0960  0.3176 -0.5134
  719SOL    HW1 2156   2.878   0.633   0.041 -0.4389 -1.0773  1.2883
  719SOL    HW2 2157   2.896   0.477   0.107  0.7445 -0.0732  1.5512
  720SOL     OW 2158   0.940   0.182   0.895  0.3909  0.1489 -0.0244
  720SOL    HW1 2159   1.005   0.255   0.862 -1.4050  3.0075 -0.3559
  720SOL    HW2 2160   0.866   0.178   0.827 -1.4064  2.2896  0.7818
  721SOL     OW 2161   2.604   0.824   0.633  0.7506  0.2880 -0.4456
  721SOL    HW1 2162   2.604   0.766   0.550  0.4721 -1.8032  0.0689
  721SOL    HW2 2163   2.674   0.898   0.628  1.1157 -3.4856 -1.5211
  722SOL     OW 2164   0.574   2.646   2.547  0.3893  0.2541  0.3638
  722SOL    HW1 2165   0.675   2.650   2.565  1.6722  0.6647  1.0802
  722SOL    HW2 2166   0.549   2.592   2.463 -3.0961  0.5536 -0.8010
  723SOL     OW 2167   1.869   0.484   0.644 -0.0776  0.2392  0.9402
  723SOL    HW1 2168   1.794   0.419   0.667  1.0278 -2.9093 -1.3053
  723SOL    HW2 2169   1.884   0.498   0.544 -0.1188  1.2086  0.9655
  724SOL     OW 2170   0.936   1.833   2.265 -0.2829 -0.1968  0.0258
  724SOL    HW1 2171   0.913   1.910   2.334 -0.3631  1.4054  3.4464
  724SOL    HW2 2172   0.916   1.869   2.175 -0.6815 -3.7110 -0.7653
  725SOL     OW 2173   1.464   2.866   1.507 -0.5757 -0.1645 -0.1403
  725SOL    HW1 2174   1.460   2.935   1.583 -1.1445  2.1831  0.7544
  725SOL    HW2 2175   1.368   2.838   1.482 -1.4094 -1.5503  0.3789
  726SOL     OW 2176   2.387   2.741   0.114  0.3572 -0.2913  0.2061
  726SOL    HW1 2177   2.424   2.783   0.029  0.8348 -0.2031  0.6144
  726SOL    HW2 2178   2.446   2.751   0.198 -1.1434  3.3405  2.7340
  727SOL     OW 2179   1.254   1.964   0.880  0.3627  0.2172 -0.7393
  727SOL    HW1 2180   1.250   1.864   0.916 -1.3696  1.0498  1.3894
  727SOL    HW2 2181   1.336   1.982   0.820  0.2761 -2.5225 -1.1050
  728SOL     OW 2182   2.202   2.730   2.490 -0.0137  0.1936 -0.2568
  728SOL    HW1 2183   2.270   2.769   2.425  1.1456  1.4875  2.2282
  728SOL    HW2 2184   2.120   2.716   2.434  0.6965  1.6615 -1.7495
  729SOL     OW 2185   1.888   2.305   1.403  0.0102  0.5985  0.3550
  729SOL    HW1 2186   1.852   2.373   1.337  1.6570 -0.6965  1.1655
  729SOL    HW2 2187   1.930   2.358   1.481  0.9481  1.5868 -0.8070
  730SOL     OW 2188   1.648   0.576   2.814 -0.0949  0.0906  0.2149
  730SOL    HW1 2189   1.569   0.641   2.798 -1.0526  2.1356  0.6732
  730SOL    HW2 2190   1.736   0.616   2.791  0.3420 -1.0812 -0.2018
  731SOL     OW 2191   0.749   0.350   1.302  0.4395 -0.2944  0.0957
  731SOL    HW1 2192   0.819   0.419   1.290 -0.2109 -0.8250  0.8161
  731SOL    HW2 2193   0.800   0.260   1.315  1.4369  0.0490 -1.4933
  732SOL     OW 2194   1.284   0.215   0.738 -0.1669  0.1508  0.1827
  732SOL    HW1 2195   1.276   0.294   0.802 -1.3317 -2.2824 -1.3530
  732SOL    HW2 2196   1.373   0.208   0.695 -2.1291  0.2498  2.5217
  733SOL     OW 2197   0.892   1.354   0.737  0.1012 -0.3628 -0.0370
  733SOL    HW1 2198   0.970   1.303   0.692  0.3742  1.0832 -1.7750
  733SOL    HW2 2199   0.876   1.335   0.835 -0.1194  2.1321 -2.9331
  734SOL     OW 2200   2.812   2.778   2.607  0.3131  0.0803 -1.1305
  734SOL    HW1 2201   2.772   2.874   2.607 -0.2209  1.1434  0.5367
  734SOL    HW2 2202   2.914   2.764   2.613 -0.4457 -0.6008 -1.2595
  735SOL     OW 2203   0.888   0.128   1.321  0.6185  0.0959 -0.1388
  735SOL    HW1 2204   0.873   0.065   1.397  0.5728 -0.2545 -0.2185
  735SOL    HW2 2205   0.941   0.076   1.251 -2.2744  0.7013  1.8028
  736SOL     OW 2206   1.651   1.778   2.950  0.3135 -0.0794  0.4456
  736SOL    HW1 2207   1.694   1.686   2.936 -0.1544 -1.0102  0.2148
  736SOL    HW2 2208   1.549   1.765   2.935 -1.9451 -1.9138 -0.4814
  737SOL     OW 2209   0.144   1.933   1.433  0.2791 -0.4138  0.2045
  737SOL    HW1 2210   0.209   1.936   1.358 -0.5532 -0.9187  1.5946
  737SOL    HW2 2211   0.073   2.002   1.423 -0.9792 -1.2116 -1.5571
  738SOL     OW 2212   1.845   2.632   2.863 -0.2051 -0.2326 -0.1757
  738SOL    HW1 2213   1.747   2.621   2.859  2.2797 -0.6486  0.5496
  738SOL    HW2 2214   1.881   2.618   2.956 -0.7243  2.2096 -1.4961
  739SOL     OW 2215   1.117   2.171   2.227 -0.1507 -0.1947  0.0706
  739SOL    HW1 2216   1.127   2.127   2.316  1.0515 -0.1617  0.1017
  739SOL    HW2 2217   1.048   2.128   2.165 -1.1844 -2.2221 -2.2172
  740SOL     OW 2218   1.245   2.802   1.286  0.2334 -0.9396  0.1844
  740SOL    HW1 2219   1.267   2.712   1.243 -1.1947 -1.0996  0.8637
  740SOL    HW2 2220   1.264   2.869   1.215  0.9032 -2.1038  0.0693
  741SOL     OW 2221   2.765   0.994   0.050  0.7473 -0.4387  0.1104
  741SOL    HW1 2222   2.693   0.963   0.118 -0.1261 -0.0918 -1.9832
  741SOL    HW2 2223   2.744   1.088   0.024  0.1002  1.4711  1.9794
  742SOL     OW 2224   0.928   1.524   2.261  0.0161  0.3552 -0.8692
  742SOL    HW1 2225   0.977   1.512   2.171 -3.4196  1.4148  1.0894
  742SOL    HW2 2226   0.945   1.621   2.289 -1.7348 -1.5578 -2.0657
  743SOL     OW 2227   0.865   0.951   2.368  0.0654 -0.2519 -0.5498
  743SOL    HW1 2228   0.792   1.003   2.420 -1.3900  0.5841  0.9755
  743SOL    HW2 2229   0.870   0.857   2.391 -0.4838  0.5713  2.0030
  744SOL     OW 2230   2.089   2.679   1.510  0.2265 -0.7729 -0.3303
  744SOL    HW1 2231   2.065   2.597   1.563  0.5197 -0.0622  0.1448
  744SOL    HW2 2232   2.088   2.771   1.561 -0.2461  2.4854  0.5200
  745SOL     OW 2233   1.614   1.269   1.307  0.2749  0.1100 -0.2534
  745SOL    HW1 2234   1.534   1.309   1.355  0.0102  0.4488 -0.0152
  745SOL    HW2 2235   1.693   1.254   1.371  2.4258 -0.3426  2.1265
  746SOL     OW 2236   1.783   0.894   0.924  0.3333 -0.1566 -0.0602
  746SOL    HW1 2237   1.820   0.989   0.932  0.2303  0.6843  0.9173
  746SOL    HW2 2238   1.835   0.830   0.992  2.1234 -1.5419  1.0442
  747SOL     OW 2239   2.059   1.753   0.934  0.0220  0.3652 -0.0765
  747SOL    HW1 2240   2.158   1.762   0.913  1.0615 -0.9133 -1.4282
  747SOL    HW2 2241   2.010   1.758   0.845  0.8415 -1.4944 -0.4449
  748SOL     OW 2242   0.512   1.681   0.291 -0.0594  0.1901  0.2217
  748SOL    HW1 2243   0.434   1.720   0.347 -2.6130  1.8303  0.2088
  748SOL    HW2 2244   0.552   1.762   0.247 -0.9784  1.0326 -1.6305
  749SOL     OW 2245   0.196   2.440   2.665  0.1889 -0.1784 -0.2274
  749SOL    HW1 2246   0.218   2.362   2.732  0.2567 -0.6451 -0.4051
  749SOL    HW2 2247   0.094   2.465   2.677 -0.2197 -2.9763 -0.7502
  750SOL     OW 2248   1.969   0.805   1.097  0.2512  0.4457  0.5009
  750SOL    HW1 2249   2.019   0.723   1.136  1.3840 -0.2980 -3.1296
  750SOL    HW2 2250   1.936   0.871   1.168 -0.6939 -1.4562 -1.4107
  751SOL     OW 2251   2.467   0.037   0.302 -0.1000 -0.4019  0.5459
  751SOL    HW1 2252   2.549   0.019   0.241 -0.3535 -0.0760  0.8045
  751SOL    HW2 2253   2.492   0.086   0.386 -1.7357 -0.6249 -1.1097
  752SOL     OW 2254   2.448   2.400   0.407  0.4609  0.3014  0.3475
  752SOL    HW1 2255   2.382   2.453   0.470 -2.4251  2.6722 -0.4719
  752SOL    HW2 2256   2.541   2.403   0.444 -0.8439 -0.4606 -1.0191
  753SOL     OW 2257   2.010   1.518   2.506  0.7433  0.2082 -0.0041
  753SOL    HW1 2258   2.095   1.461   2.493 -0.2237 -0.5866 -1.4549
  753SOL    HW2 2259   2.003   1.596   2.438 -1.6613 -0.4785  1.4948
  754SOL     OW 2260   2.245   2.359   1.382  0.0126  0.1192  0.0941
  754SOL    HW1 2261   2.284   2.359   1.477 -1.6927 -1.1153  0.0105
  754SOL    HW2 2262   2.247   2.264   1.353 -0.3375 -0.6571  1.8681
  755SOL     OW 2263   2.271   0.768   0.921  0.2360  0.3146  0.9125
  755SOL    HW1 2264   2.177   0.744   0.950  0.3607 -0.1260 -3.4553
  755SOL    HW2 2265   2.311   0.718   0.838  0.0254 -0.9894 -2.9548
  756SOL     OW 2266   1.145   1.569   2.642 -0.3753 -0.0604  0.1232
  756SOL    HW1 2267   1.120   1.483   2.595 -2.7784 -0.9254  0.7495
  756SOL    HW2 2268   1.123   1.645   2.580  3.5299 -1.5794 -0.5248
  757SOL     OW 2269   1.729   2.609   1.102  0.2930 -0.0430  0.0716
  757SOL    HW1 2270   1.761   2.701   1.129  1.1054 -4.2372 -1.2788
  757SOL    HW2 2271   1.704   2.610   1.001  0.8482 -1.0067 -1.8227
  758SOL     OW 2272   0.965   2.301   1.453  0.1454  0.1867 -0.3018
  758SOL    HW1 2273   1.067   2.315   1.458  0.6858  2.8074  0.2068
  758SOL    HW2 2274   0.935   2.292   1.357 -0.1234  1.9426 -0.3635
  759SOL     OW 2275   1.989   1.243   1.169  0.1236  0.1408  0.2894
  759SOL    HW1 2276   2.043   1.304   1.234  0.1625  2.2478 -0.7623
  759SOL    HW2 2277   2.023   1.265   1.075 -0.4434  0.2514 -2.2337
  760SOL     OW 2278   2.212   1.000   1.312 -0.3415  0.0567  0.1792
  760SOL    HW1 2279   2.219   1.057   1.229 -0.7487 -1.6504  1.8885
  760SOL    HW2 2280   2.114   0.994   1.341  0.2313  0.5083 -0.9972
  761SOL     OW 2281   2.216   2.686   0.303 -0.3048 -0.3706 -0.1233
  761SOL    HW1 2282   2.224   2.776   0.352 -3.5861 -1.2819  0.4426
  761SOL    HW2 2283   2.277   2.696   0.219 -0.8523 -0.7790  2.1731
  762SOL     OW 2284   2.070   1.509   2.904  0.5357 -0.8188  0.2172
  762SOL    HW1 2285   2.066   1.569   2.819 -1.9199  1.2835 -0.4149
  762SOL    HW2 2286   2.133   1.550   2.973  1.0901  0.1251 -1.7725
  763SOL     OW 2287   0.386   1.492   1.362  0.5501 -0.9556  0.0960
  763SOL    HW1 2288   0.298   1.501   1.315  0.0582 -2.8563 -0.9480
  763SOL    HW2 2289   0.414   1.587   1.390  0.7885  0.9329  0.3465
  764SOL     OW 2290   3.026   2.517   3.000 -0.2369  0.5293  0.2632
  764SOL    HW1 2291   3.047   2.424   3.044 -0.3249 -0.0046 -1.6127
  764SOL    HW2 2292   0.011   2.583   3.022  0.6855 -1.6913 -1.4467
  765SOL     OW 2293   0.640   0.002   1.893  0.5597 -0.4151 -0.1287
  765SOL    HW1 2294   0.699   0.076   1.857 -1.6280  0.9903 -0.3936
  765SOL    HW2 2295   0.559   0.035   1.946  0.4326 -2.4133  0.6741
  766SOL     OW 2296   0.183   2.051   2.425 -0.4339 -0.1249 -0.5702
  766SOL    HW1 2297   0.167   2.126   2.354  0.3149  0.6542 -0.9159
  766SOL    HW2 2298   0.099   1.993   2.440 -0.9789 -1.3296  1.3931
  767SOL     OW 2299   2.962   1.414   1.792  0.3442  0.0636 -0.1822
  767SOL    HW1 2300   2.949   1.342   1.863 -0.6845  1.3531 -1.8401
  767SOL    HW2 2301   2.911   1.500   1.821  1.5985  0.7919 -0.3159
  768SOL     OW 2302   0.983   0.503   2.803  0.1357  0.4054  0.0386
  768SOL    HW1 2303   0.966   0.413   2.844  2.4543  0.1941  0.3037
  768SOL    HW2 2304   1.076   0.535   2.829 -0.0616  0.7538  0.2267
  769SOL     OW 2305   2.270   2.290   0.705  0.1896  0.2721  0.0365
  769SOL    HW1 2306   2.362   2.270   0.742  1.4632 -1.9929  2.0553
  769SOL    HW2 2307   2.262   2.381   0.656  0.7238  0.6222  0.8242
  770SOL     OW 2308   2.830   0.319   3.073  0.2680  0.5700 -0.4161
  770SOL    HW1 2309   2.913   0.263   3.087 -0.2462 -0.4080 -0.5120
  770SOL    HW2 2310   2.756   0.288   0.049 -0.7842 -0.3169  1.1842
  771SOL     OW 2311   1.717   2.106   1.784 -0.4268  0.1870 -0.3560
  771SOL    HW1 2312   1.785   2.077   1.710  1.3110 -3.1709 -1.6953
  771SOL    HW2 2313   1.639   2.039   1.791 -4.7501  0.1034 -1.9993
  772SOL     OW 2314   0.865   0.346   2.495  0.1602  0.3794 -0.8521
  772SOL    HW1 2315   0.767   0.327   2.523  1.0169  1.3731 -0.1753
  772SOL    HW2 2316   0.880   0.447   2.483 -1.0030  3.5547 -0.2095
  773SOL     OW 2317   2.847   0.899   1.812 -0.3200 -0.4478 -0.2890
  773SOL    HW1 2318   2.888   0.875   1.722 -0.8717 -0.8433  1.6857
  773SOL    HW2 2319   2.925   0.915   1.878  2.3303 -1.0661  0.7875
  774SOL     OW 2320   1.275   1.099   0.357 -0.2253  0.5015  0.3769
  774SOL    HW1 2321   1.209   1.106   0.276 -0.5740  3.2451  0.9743
  774SOL    HW2 2322   1.369   1.102   0.320 -2.3892 -1.4266  0.9745
  775SOL     OW 2323   2.622   3.002   0.121 -0.0711  0.2838  0.3632
  775SOL    HW1 2324   2.631   0.007   0.084 -4.9358 -0.1254  0.6350
  775SOL    HW2 2325   2.559   2.950   0.057 -1.4187 -0.3949  2.1198
  776SOL     OW 2326   2.329   0.960   2.094  0.4717  0.2051  0.6863
  776SOL    HW1 2327   2.344   0.937   1.994  0.5955  1.1336 -1.1151
  776SOL    HW2 2328   2.343   0.876   2.147 -1.5955  1.2120  0.0156
  777SOL     OW 2329   0.105   1.094   2.466  0.2464 -0.0121 -0.1046
  777SOL    HW1 2330   0.094   0.997   2.483  1.8688  0.9499 -1.0742
  777SOL    HW2 2331   0.014   1.136   2.456  0.8396 -0.0919  1.1560
  778SOL     OW 2332   0.730   0.330   0.447  0.1445  0.1782 -0.0263
  778SOL    HW1 2333   0.819   0.359   0.405 -3.2181 -1.5475  0.8439
  778SOL    HW2 2334   0.690   0.250   0.391  0.7023  0.0907 -0.8227
  779SOL     OW 2335   0.517   0.491   2.695  0.3663  0.0988 -0.0947
  779SOL    HW1 2336   0.594   0.561   2.704 -0.0315  3.2851  1.3097
  779SOL    HW2 2337   0.434   0.549   2.682  3.0171 -1.3567 -0.5785
  780SOL     OW 2338   1.787   0.852   2.434 -0.3253  0.1613  0.3461
  780SOL    HW1 2339   1.857   0.809   2.373  1.5077  1.1307 -0.2002
  780SOL    HW2 2340   1.703   0.882   2.390 -0.0230 -1.9579 -0.1713
  781SOL     OW 2341   3.080   0.925   1.979 -0.1356  1.0796 -0.3565
  781SOL    HW1 2342   0.041   1.000   1.934 -0.2766 -2.6830 -0.5799
  781SOL    HW2 2343   3.084   0.937   2.083 -0.0376  0.5179  0.0903
  782SOL     OW 2344   0.733   1.621   2.675 -0.6694 -0.1511  0.4178
  782SOL    HW1 2345   0.792   1.547   2.633 -0.8574  1.8462 -1.3806
  782SOL    HW2 2346   0.682   1.581   2.749  1.5565  0.0835 -2.4331
  783SOL     OW 2347   0.824   2.591   1.517 -0.4906 -0.2446  0.0864
  783SOL    HW1 2348   0.906   2.535   1.491  0.6154  0.7020 -1.9471
  783SOL    HW2 2349   0.788   2.652   1.445 -1.1538 -0.3801  0.2022
  784SOL     OW 2350   1.341   0.232   2.844 -0.0456 -0.9379 -0.4502
  784SOL    HW1 2351   1.357   0.297   2.766  0.2559  0.5041  0.5329
  784SOL    HW2 2352   1.389   0.264   2.926  0.0682 -0.7596  0.8342
  785SOL     OW 2353   1.040   0.620   2.553 -0.2020  0.3620  0.2100
  785SOL    HW1 2354   1.032   0.580   2.643  0.4122  1.0744 -1.8582
  785SOL    HW2 2355   1.124   0.587   2.504 -4.2027  2.8197  1.9790
  786SOL     OW 2356   0.352   1.920   0.369  0.2168  0.6604  0.6246
  786SOL    HW1 2357   0.340   1.848   0.437 -0.7002  2.7256  0.1285
  786SOL    HW2 2358   0.340   2.018   0.399  0.2926 -1.9532 -5.1457
  787SOL     OW 2359   1.715   1.152   0.511  0.0220  0.3767 -0.3475
  787SOL    HW1 2360   1.658   1.189   0.436 -1.2844 -3.3848  0.7233
  787SOL    HW2 2361   1.781   1.211   0.553 -3.5041 -2.7988  0.4511
  788SOL     OW 2362   1.802   1.612   1.517 -0.4084  0.3423  0.0022
  788SOL    HW1 2363   1.773   1.710   1.521  0.2506 -0.5591  1.0379
  788SOL    HW2 2364   1.907   1.607   1.505  2.3844 -2.1730 -0.3136
  789SOL     OW 2365   0.057   1.714   2.087 -0.2732 -0.0449 -0.2663
  789SOL    HW1 2366   0.089   1.687   1.996  0.0219  1.2320  0.8826
  789SOL    HW2 2367   0.089   1.650   2.160  0.8883  0.5472  0.5959
  790SOL     OW 2368   0.689   2.822   0.138 -0.6781  0.1005  0.2461
  790SOL    HW1 2369   0.608   2.845   0.193  0.4766 -0.9197 -3.3454
  790SOL    HW2 2370   0.688   2.724   0.112 -2.7642  0.1527 -2.4174
  791SOL     OW 2371   0.423   0.390   0.282  0.0045  0.4532 -0.0167
  791SOL    HW1 2372   0.480   0.428   0.356 -0.5271  2.4358 -1.7697
  791SOL    HW2 2373   0.490   0.368   0.206 -2.1190 -2.4422 -1.2030
  792SOL     OW 2374   1.646   0.520   2.269  0.4187 -0.2707  0.1891
  792SOL    HW1 2375   1.719   0.503   2.338  1.3643 -1.4202  0.2073
  792SOL    HW2 2376   1.669   0.593   2.203 -0.8570  2.2025  3.8508
  793SOL     OW 2377   0.089   0.688   0.732 -0.3552 -0.6332  0.0283
  793SOL    HW1 2378   0.039   0.604   0.742  1.3565  1.3944  0.5771
  793SOL    HW2 2379   0.184   0.686   0.776  0.1233  0.2187 -0.8016
  794SOL     OW 2380   0.437   0.351   1.562 -0.5258  0.5843 -0.1016
  794SOL    HW1 2381   0.473   0.410   1.482  1.7608  1.2372  0.4674
  794SOL    HW2 2382   0.334   0.356   1.565 -1.4340  0.3021 -0.7144
  795SOL     OW 2383   0.060   1.263   0.047 -0.4894 -0.1928  0.9989
  795SOL    HW1 2384   0.160   1.291   0.048 -0.1709  1.1658 -2.4640
  795SOL    HW2 2385   0.018   1.281   3.041 -1.2051 -0.5843 -2.4583
  796SOL     OW 2386   0.098   0.443   0.147  0.6052 -0.4202  0.1656
  796SOL    HW1 2387   0.118   0.459   0.246  2.3013 -2.6784  0.1169
  796SOL    HW2 2388   0.007   0.488   0.122  1.1772 -4.2226 -0.0937
  797SOL     OW 2389   1.460   2.699   3.032  0.0157  0.2806  0.3838
  797SOL    HW1 2390   1.423   2.766   0.009 -2.1569  1.7880  0.3245
  797SOL    HW2 2391   1.385   2.635   3.005 -0.7077 -1.0470 -2.2011
  798SOL     OW 2392   2.838   0.765   0.850  0.5520 -0.0922 -0.1517
  798SOL    HW1 2393   2.783   0.728   0.772  0.4957  0.9671 -2.2001
  798SOL    HW2 2394   2.933   0.787   0.817  1.6558 -1.2240 -1.3233
  799SOL     OW 2395   2.679   0.744   2.100  0.0850 -0.5674  0.0498
  799SOL    HW1 2396   2.580   0.740   2.114 -2.3410  1.3807 -0.8979
  799SOL    HW2 2397   2.704   0.659   2.050 -1.8547 -0.2367 -2.4379
  800SOL     OW 2398   0.112   2.092   0.408 -0.6278 -0.2904 -0.4812
  800SOL    HW1 2399   0.076   2.072   0.504  0.0780  1.2760  0.8888
  800SOL    HW2 2400   0.057   2.034   0.345 -0.2212  1.6157  3.8311
  801SOL     OW 2401   1.548   1.955   0.777 -0.6839 -0.0430  0.6836
  801SOL    HW1 2402   1.600   1.954   0.690  0.3794 -0.6961 -0.5760
  801SOL    HW2 2403   1.591   1.895   0.848 -0.1255 -0.1447 -0.0264
  802SOL     OW 2404   0.937   1.861   2.692 -0.0870  0.3145 -0.0321
  802SOL    HW1 2405   0.875   1.783   2.721 -3.6541 -1.9160  0.9107
  802SOL    HW2 2406   0.967   1.841   2.601 -1.4820  1.8902  0.6437
  803SOL     OW 2407   2.844   1.968   1.703 -0.4013 -0.1267  0.3036
  803SOL    HW1 2408   2.803   1.880   1.669 -0.2613 -1.9533 -2.3549
  803SOL    HW2 2409   2.939   1.954   1.735  0.2333 -1.9793  0.3590
  804SOL     OW 2410   1.224   2.641   1.511 -0.1370  0.2618  0.3944
  804SOL    HW1 2411   1.319   2.608   1.528 -0.2451 -1.1105 -0.4273
  804SOL    HW2 2412   1.216   2.703   1.430  0.4154  1.3415 -0.2622
  805SOL     OW 2413   2.454   1.890   2.911 -0.7238  0.6959 -0.3569
  805SOL    HW1 2414   2.398   1.833   2.850  2.4021 -0.6249  0.4824
  805SOL    HW2 2415   2.550   1.853   2.923  1.6586 -2.7887 -0.0176
  806SOL     OW 2416   2.011   2.999   0.713 -0.5155 -0.0070  0.3495
  806SOL    HW1 2417   2.030   2.902   0.742  1.7284  0.0698  0.8008
  806SOL    HW2 2418   1.943   3.011   0.634 -1.5226 -1.5812 -1.4248
  807SOL     OW 2419   2.891   0.413   2.829 -0.0545 -0.2874  0.4823
  807SOL    HW1 2420   2.877   0.372   2.921  2.1715  1.9077  1.5556
  807SOL    HW2 2421   2.849   0.508   2.824  0.4058  1.7530 -2.8070
  808SOL     OW 2422   0.557   1.304   0.486  0.2331 -0.2955  0.4855
  808SOL    HW1 2423   0.572   1.214   0.439 -3.3219 -1.8259  1.0400
  808SOL    HW2 2424   0.458   1.318   0.506 -3.2984  0.3456  0.6521
  809SOL     OW 2425   2.698   0.459   1.743 -0.1543 -0.0236 -0.1806
  809SOL    HW1 2426   2.658   0.553   1.722  0.1361 -2.5456  1.9736
  809SOL    HW2 2427   2.691   0.396   1.664 -0.4386  0.7415 -0.5147
  810SOL     OW 2428   1.212   0.581   1.186  0.7114  0.0269  0.2192
  810SOL    HW1 2429   1.270   0.626   1.111  0.9275 -0.1429  1.0729
  810SOL    HW2 2430   1.246   0.485   1.204  2.2788 -1.3318 -2.4614
  811SOL     OW 2431   2.396   3.030   1.584 -0.1857  0.5909 -0.0772
  811SOL    HW1 2432   2.384   2.976   1.674 -3.0397 -2.4976  1.8852
  811SOL    HW2 2433   2.341   0.026   1.591  1.4759  0.7802 -1.2197
  812SOL     OW 2434   1.837   2.224   3.053  0.2292 -0.3313  0.6836
  812SOL    HW1 2435   1.756   2.215   0.025 -0.5926 -3.1761  1.6433
  812SOL    HW2 2436   1.901   2.301   3.087  2.0502  0.3658 -0.5325
  813SOL     OW 2437   1.285   0.658   1.632 -0.2443 -0.3388  0.3869
  813SOL    HW1 2438   1.256   0.691   1.542  0.4578  0.1098  2.7343
  813SOL    HW2 2439   1.381   0.625   1.637 -1.5644 -1.6373  1.3049
  814SOL     OW 2440   0.530   0.495   1.360 -0.1271 -0.1239 -0.2044
  814SOL    HW1 2441   0.536   0.594   1.332 -1.7575  1.6812  0.8037
  814SOL    HW2 2442   0.605   0.434   1.322 -0.9095 -1.5021 -4.6312
  815SOL     OW 2443   0.507   0.507   0.516 -0.2670 -0.0151 -0.1324
  815SOL    HW1 2444   0.589   0.444   0.526  0.2152 -2.5953 -0.2508
  815SOL    HW2 2445   0.499   0.574   0.589 -2.1705  0.3479 -1.8555
  816SOL     OW 2446   2.264   1.382   2.527  0.0298  0.0453 -0.2532
  816SOL    HW1 2447   2.320   1.320   2.585  0.4261  1.7705 -2.0299
  816SOL    HW2 2448   2.325   1.447   2.475  0.0357  1.6423  0.2379
  817SOL     OW 2449   1.304   2.850   0.835 -0.9475 -0.0654  0.6086
  817SOL    HW1 2450   1.271   2.753   0.822 -2.7970  1.8715 -1.0557
  817SOL    HW2 2451   1.253   2.921   0.781  1.3956  1.3443 -2.5237
  818SOL     OW 2452   1.742   0.396   2.982  0.2225 -0.0612  0.0445
  818SOL    HW1 2453   1.785   0.449   3.056  1.4774 -2.3819 -1.9245
  818SOL    HW2 2454   1.702   0.458   2.909  0.0887 -0.5801  1.7905
  819SOL     OW 2455   1.795   0.242   0.219  0.4401 -0.5127 -0.5980
  819SOL    HW1 2456   1.875   0.210   0.273 -1.1725 -0.2652 -0.2873
  819SOL    HW2 2457   1.784   0.187   0.129  1.5099 -1.4345  0.6028
  820SOL     OW 2458   1.842   0.476   0.115  0.0088  0.3050  0.4972
  820SOL    HW1 2459   1.834   0.553   0.184 -2.4266 -1.6023 -0.3841
  820SOL    HW2 2460   1.826   0.389   0.164  0.5332  2.4782 -1.7121
  821SOL     OW 2461   2.767   0.543   0.666  0.5269 -0.1187 -0.4244
  821SOL    HW1 2462   2.738   0.596   0.585 -1.7893  1.1571 -0.7128
  821SOL    HW2 2463   2.857   0.495   0.655  2.1786  3.3303 -0.4905
  822SOL     OW 2464   0.875   2.375   1.862 -0.4874 -0.4309 -0.4656
  822SOL    HW1 2465   0.854   2.473   1.890  0.1719  0.3249  0.2060
  822SOL    HW2 2466   0.798   2.311   1.870  1.4167 -0.8826  1.9427
  823SOL     OW 2467   0.157   1.640   1.808  0.4186 -0.2665 -0.3038
  823SOL    HW1 2468   0.258   1.646   1.803  0.1824 -1.3237  1.5461
  823SOL    HW2 2469   0.116   1.603   1.721 -0.8800  0.1619  1.0300
  824SOL     OW 2470   1.613   2.755   2.618  0.1949 -0.2434  0.5907
  824SOL    HW1 2471   1.564   2.727   2.535  0.1548 -1.2307 -0.3296
  824SOL    HW2 2472   1.615   2.674   2.682  1.7555 -4.3594 -1.7914
  825SOL     OW 2473   1.811   0.893   0.468 -0.3156 -0.6066 -0.0170
  825SOL    HW1 2474   1.800   0.840   0.552 -0.8667 -0.3199 -2.8546
  825SOL    HW2 2475   1.780   0.992   0.476 -2.7175  0.1317 -3.7467
  826SOL     OW 2476   1.997   0.844   0.088  0.2311  0.3508  0.2923
  826SOL    HW1 2477   2.087   0.879   0.104 -1.1670  0.5467 -1.9384
  826SOL    HW2 2478   1.957   0.796   0.172 -2.0046 -0.6220 -0.0911
  827SOL     OW 2479   0.341   1.750   2.047  0.4227  0.2556  0.2085
  827SOL    HW1 2480   0.341   1.717   1.951  0.1273 -0.7503  0.8576
  827SOL    HW2 2481   0.250   1.782   2.080 -0.6028  0.6184 -3.9447
  828SOL     OW 2482   2.316   1.214   1.464  0.5682  0.8004 -0.4090
  828SOL    HW1 2483   2.319   1.214   1.566  0.3399  0.8167  0.0778
  828SOL    HW2 2484   2.282   1.124   1.432 -2.1357  0.3135 -0.3408
  829SOL     OW 2485   0.286   1.843   0.101 -0.4084 -0.0103 -0.2205
  829SOL    HW1 2486   0.313   1.847   0.204  1.6250 -1.1564  1.3041
  829SOL    HW2 2487   0.252   1.753   0.070 -0.4825  0.1512  0.3806
  830SOL     OW 2488   1.551   1.061   0.694 -0.1146 -0.3836  0.1487
  830SOL    HW1 2489   1.623   1.055   0.770  0.9428  0.7618  0.0023
  830SOL    HW2 2490   1.603   1.081   0.608 -0.2324 -0.5232 -0.4129
  831SOL     OW 2491   2.920   1.839   3.046 -0.2010  0.1525 -0.4802
  831SOL    HW1 2492   2.986   1.863   2.974 -1.0279  2.7838  2.3168
  831SOL    HW2 2493   2.955   1.758   0.011 -0.0057 -2.5174 -0.8855
  832SOL     OW 2494   0.980   0.399   0.342  0.0741 -0.1137  0.2916
  832SOL    HW1 2495   1.047   0.346   0.403  1.1848 -2.6372  1.4276
  832SOL    HW2 2496   1.031   0.439   0.268 -0.5594 -0.8362 -1.7312
  833SOL     OW 2497   0.373   0.746   2.046 -0.0256 -0.1540 -0.0626
  833SOL    HW1 2498   0.311   0.731   2.128  1.6273 -1.7814  2.6990
  833SOL    HW2 2499   0.447   0.680   2.042  0.6747  1.8796  0.9620
  834SOL     OW 2500   0.368   0.428   0.826  0.3860  0.6567 -0.2807
  834SOL    HW1 2501   0.462   0.388   0.829 -1.7239 -0.6459 -0.9541
  834SOL    HW2 2502   0.311   0.404   0.744 -0.7940 -2.1442 -0.2213
  835SOL     OW 2503   2.465   2.793   1.110 -0.4244 -0.4208  0.2785
  835SOL    HW1 2504   2.485   2.745   1.199 -1.4170  0.8105 -1.6129
  835SOL    HW2 2505   2.542   2.850   1.083  1.1442  0.6849 -1.6224
  836SOL     OW 2506   0.469   2.050   0.053 -0.4759 -0.3797  0.6333
  836SOL    HW1 2507   0.502   2.117   0.123  0.6471 -0.4653 -2.0122
  836SOL    HW2 2508   0.388   2.000   0.081 -0.8889  2.7605  0.0103
  837SOL     OW 2509   1.808   1.334   2.562  0.5383  0.0939  0.2881
  837SOL    HW1 2510   1.772   1.349   2.656 -2.1714  1.3751 -0.5862
  837SOL    HW2 2511   1.878   1.404   2.551  0.2556 -3.2596  4.3369
  838SOL     OW 2512   0.377   1.266   1.871  0.1583 -0.4947 -0.0132
  838SOL    HW1 2513   0.474   1.300   1.861  0.3010  1.1460 -0.4911
  838SOL    HW2 2514   0.307   1.339   1.892 -1.7027 -0.2077 -0.5532
  839SOL     OW 2515   0.297   1.340   0.902 -0.0390 -0.1485 -0.0992
  839SOL    HW1 2516   0.319   1.382   0.995  0.9355  2.2318  2.9431
  839SOL    HW2 2517   0.278   1.241   0.905 -1.8097  1.2226  0.4655
  840SOL     OW 2518   2.401   0.261   1.901  0.0036  0.5602  0.7383
  840SOL    HW1 2519   2.316   0.274   1.958 -0.6720  0.7992 -0.3757
  840SOL    HW2 2520   2.481   0.318   1.938  2.5871 -0.0049 -1.1973
  841SOL     OW 2521   0.877   2.517   0.396  0.2708 -0.0383  0.0558
  841SOL    HW1 2522   0.949   2.590   0.409  0.3812 -1.8583 -0.2904
  841SOL    HW2 2523   0.915   2.427   0.376  0.2004  3.0915  0.1832
  842SOL     OW 2524   0.611   0.312   0.835 -0.4572 -0.3112  0.5820
  842SOL    HW1 2525   0.647   0.281   0.925 -0.7553  0.2660  1.2115
  842SOL    HW2 2526   0.653   0.262   0.758 -0.8641 -0.8053  2.1263
  843SOL     OW 2527   0.351   1.204   0.054 -0.1867 -0.2026 -0.0823
  843SOL    HW1 2528   0.429   1.140   0.048  0.5104 -0.6258  0.0332
  843SOL    HW2 2529   0.366   1.284   0.119 -3.3968  3.8401  2.0212
  844SOL     OW 2530   1.277   2.324   0.049 -0.8521  0.1986 -0.0484
  844SOL    HW1 2531   1.216   2.260   3.086  1.9735 -2.5551  1.1195
  844SOL    HW2 2532   1.295   2.410   3.083  0.2418  1.5678  0.7213
  845SOL     OW 2533   2.305   2.853   2.258  0.0059  0.4879 -0.0204
  845SOL    HW1 2534   2.271   2.809   2.176  0.5682  2.2335  2.0264
  845SOL    HW2 2535   2.239   2.922   2.287  3.1403 -1.5799  0.5987
  846SOL     OW 2536   2.021   2.031   2.989  0.2354  0.3677  0.1056
  846SOL    HW1 2537   1.945   2.096   3.006 -1.8290 -0.1801  0.6065
  846SOL    HW2 2538   2.022   2.007   2.892  0.2263 -2.7321  1.8017
  847SOL     OW 2539   2.636   0.210   0.126  0.2052 -0.2368  0.5897
  847SOL    HW1 2540   2.564   0.279   0.104 -0.3823 -0.7222  1.4655
  847SOL    HW2 2541   2.685   0.233   0.217 -0.6152  0.6214  3.2976
  848SOL     OW 2542   0.485   0.705   0.686 -0.1026 -0.1430  0.0974
  848SOL    HW1 2543   0.516   0.804   0.675 -0.3675  2.2479 -2.1969
  848SOL    HW2 2544   0.406   0.715   0.748 -0.9240  0.3837  0.1002
  849SOL     OW 2545   1.474   2.792   1.968  0.5058 -0.1205  0.1945
  849SOL    HW1 2546   1.499   2.870   2.032 -0.5492 -0.6974  1.3233
  849SOL    HW2 2547   1.550   2.778   1.903 -1.9624  0.7861 -1.3089
  850SOL     OW 2548   0.687   1.498   0.349  0.5021 -0.2106 -0.3342
  850SOL    HW1 2549   0.628   1.432   0.404 -0.4200  2.0129  1.5750
  850SOL    HW2 2550   0.625   1.574   0.319  1.2501  0.9616  1.5722
  851SOL     OW 2551   0.357   1.426   0.213  0.2668  0.4144  0.6797
  851SOL    HW1 2552   0.419   1.505   0.227  1.8937  2.2353 -0.4283
  851SOL    HW2 2553   0.332   1.379   0.301  2.6770 -0.5134  1.1116
  852SOL     OW 2554   1.295   2.778   1.756 -0.2763  0.2617  0.0665
  852SOL    HW1 2555   1.306   2.693   1.705 -1.2176 -0.9463  0.0355
  852SOL    HW2 2556   1.353   2.781   1.839 -3.1783  1.3234 -2.9219
  853SOL     OW 2557   2.578   1.572   0.039 -0.6423 -0.2709 -1.1127
  853SOL    HW1 2558   2.536   1.486   0.004  0.6161  0.1222  1.4493
  853SOL    HW2 2559   2.554   1.581   0.139  1.6689  0.7680  5.5845
  854SOL     OW 2560   1.712   1.323   1.906 -0.0234 -0.1661 -0.1628
  854SOL    HW1 2561   1.630   1.386   1.915  0.3600  2.2916  2.1411
  854SOL    HW2 2562   1.676   1.228   1.899 -2.5651 -2.7903 -1.2670
  855SOL     OW 2563   0.298   2.364   0.045 -0.4319 -0.3616  0.3551
  855SOL    HW1 2564   0.267   2.269   0.047  0.6251  1.7259  0.1113
  855SOL    HW2 2565   0.394   2.375   0.008  3.1126  0.1193  0.9198
  856SOL     OW 2566   0.284   0.864   1.809 -0.2898 -0.2316 -0.0473
  856SOL    HW1 2567   0.323   0.816   1.891 -0.8445 -2.3404  1.4326
  856SOL    HW2 2568   0.239   0.950   1.843 -4.1285  3.7301  1.6236
  857SOL     OW 2569   1.258   1.047   2.254  0.0608 -0.2245 -0.1132
  857SOL    HW1 2570   1.288   1.137   2.221 -0.9377 -2.7772 -0.1022
  857SOL    HW2 2571   1.340   0.995   2.280 -1.2681 -2.2957  1.4238
  858SOL     OW 2572   0.308   1.193   2.320 -0.1171 -0.2199 -0.7904
  858SOL    HW1 2573   0.221   1.158   2.356 -0.5830 -1.0371  1.8038
  858SOL    HW2 2574   0.328   1.155   2.225  1.2453 -3.0737  0.7914
  859SOL     OW 2575   2.523   0.116   0.803  0.4798  0.0925  0.1815
  859SOL    HW1 2576   2.460   0.105   0.880 -0.9537 -1.2286 -0.8307
  859SOL    HW2 2577   2.618   0.088   0.828  2.4339  0.4675 -1.5948
  860SOL     OW 2578   1.955   2.883   0.060  0.5781  0.2048 -0.4303
  860SOL    HW1 2579   1.994   2.826   3.076 -2.8545 -0.9446 -1.3860
  860SOL    HW2 2580   1.854   2.871   0.062  0.2777 -3.6057 -0.9653
  861SOL     OW 2581   0.897   0.584   0.543 -0.3477 -0.5555 -0.0255
  861SOL    HW1 2582   0.847   0.511   0.496 -2.8673 -2.0190 -1.5200
  861SOL    HW2 2583   0.846   0.673   0.549  0.4399  0.2459  0.9150
  862SOL     OW 2584   1.252   0.456   2.499 -0.0327 -0.1119  0.4358
  862SOL    HW1 2585   1.324   0.420   2.556 -0.6368  0.8770 -1.6472
  862SOL    HW2 2586   1.198   0.379   2.462 -0.1872 -1.7637 -0.5559
  863SOL     OW 2587   2.536   2.174   0.767 -0.0587 -0.2550 -0.5578
  863SOL    HW1 2588   2.491   2.197   0.856 -1.6865  0.5716 -2.7547
  863SOL    HW2 2589   2.506   2.081   0.740 -0.0426 -0.8652 -0.2476
  864SOL     OW 2590   2.591   0.063   1.854 -0.2190 -0.2442  0.1960
  864SOL    HW1 2591   2.584   3.049   1.873  0.2310  0.6214  1.6354
  864SOL    HW2 2592   2.505   0.115   1.861 -0.7322 -1.8743  0.2192
  865SOL     OW 2593   1.150   0.526   1.791  0.0016 -0.3691  0.3858
  865SOL    HW1 2594   1.214   0.504   1.868 -0.3144 -2.6011 -0.0584
  865SOL    HW2 2595   1.200   0.579   1.716  3.8570 -0.9566  1.3896
  866SOL     OW 2596   1.848   2.829   1.200  0.5230  0.1437  0.0316
  866SOL    HW1 2597   1.911   2.886   1.257  1.5342  2.0672  1.0261
  866SOL    HW2 2598   1.748   2.856   1.204 -1.0322 -1.8225  1.7002
  867SOL     OW 2599   2.889   2.425   0.640 -0.3370  0.1974 -0.0878
  867SOL    HW1 2600   2.892   2.510   0.578  0.1077  1.1032 -0.0173
  867SOL    HW2 2601   2.982   2.394   0.652 -0.2534 -2.2972  2.2745
  868SOL     OW 2602   0.486   2.197   1.664 -0.2600  0.1879  0.3163
  868SOL    HW1 2603   0.387   2.233   1.668 -1.7366 -0.9911 -1.2957
  868SOL    HW2 2604   0.513   2.203   1.568 -1.9239 -2.7904  0.9775
  869SOL     OW 2605   2.154   2.313   2.826 -0.3933  0.0508 -0.6306
  869SOL    HW1 2606   2.205   2.276   2.746 -0.7781 -0.1674 -1.9412
  869SOL    HW2 2607   2.061   2.339   2.794 -0.4097 -1.6245 -3.0958
  870SOL     OW 2608   1.699   1.791   0.917  0.1334 -0.1934 -0.4246
  870SOL    HW1 2609   1.797   1.778   0.916 -2.2637  0.8273 -2.4118
  870SOL    HW2 2610   1.653   1.696   0.924 -0.2436 -2.2693  0.9018
  871SOL     OW 2611   0.008   1.902   1.798  0.1565  0.5148 -0.4715
  871SOL    HW1 2612   0.062   1.811   1.785  3.1128 -4.1103  0.2226
  871SOL    HW2 2613   0.037   1.950   1.887  0.9657  0.6965  0.7065
  872SOL     OW 2614   0.341   1.437   2.548  0.0965 -0.5567  0.0298
  872SOL    HW1 2615   0.358   1.466   2.451 -1.2427  1.3898 -0.2151
  872SOL    HW2 2616   0.331   1.335   2.559 -1.3377 -0.1332  1.8112
  873SOL     OW 2617   0.870   2.149   1.644 -0.1925  0.2953  0.1854
  873SOL    HW1 2618   0.846   2.211   1.723  0.5595 -1.1938 -2.2701
  873SOL    HW2 2619   0.902   2.205   1.562  0.6198  1.5153 -0.7654
  874SOL     OW 2620   1.332   0.841   1.882  0.0702  0.2380  0.2795
  874SOL    HW1 2621   1.370   0.934   1.868 -0.7856 -0.2749 -0.1309
  874SOL    HW2 2622   1.281   0.807   1.799 -2.0508  0.3084 -2.9929
  875SOL     OW 2623   2.862   2.709   0.927  0.0708 -0.2266 -0.1757
  875SOL    HW1 2624   2.799   2.629   0.919 -2.4496  0.4945  0.6674
  875SOL    HW2 2625   2.960   2.680   0.921  0.0831  0.7312  0.5864
  876SOL     OW 2626   1.045   1.499   0.311 -0.1384  0.1148  0.1069
  876SOL    HW1 2627   0.970   1.461   0.258 -2.0129 -0.2146 -0.8742
  876SOL    HW2 2628   1.008   1.560   0.385 -1.1098  2.3747  1.4626
  877SOL     OW 2629   2.787   0.029   0.806  0.7701  0.0228 -0.3949
  877SOL    HW1 2630   2.786   3.020   0.786  2.0301  0.6725 -0.4334
  877SOL    HW2 2631   2.878   0.070   0.806 -4.4523  0.6078  1.0816
  878SOL     OW 2632   2.093   1.541   0.346 -0.1072 -0.1802 -0.8126
  878SOL    HW1 2633   2.006   1.545   0.286 -2.0232 -1.9096 -0.7896
  878SOL    HW2 2634   2.154   1.621   0.337 -0.6783 -2.1946 -0.0851
  879SOL     OW 2635   2.416   1.598   0.990  0.7244 -0.4390 -0.0653
  879SOL    HW1 2636   2.479   1.620   1.068  1.3279  2.2175 -0.7458
  879SOL    HW2 2637   2.462   1.531   0.933  0.3305 -0.3717  0.4045
  880SOL     OW 2638   0.468   2.354   0.774  0.2202 -0.3545 -0.3500
  880SOL    HW1 2639   0.386   2.293   0.765  0.2905  0.7034 -1.7108
  880SOL    HW2 2640   0.477   2.415   0.697 -1.1131 -1.4605 -0.3539
  881SOL     OW 2641   1.035   1.112   0.722  0.0004 -0.1703 -0.9629
  881SOL    HW1 2642   0.959   1.070   0.778 -0.2147 -2.3459 -1.1703
  881SOL    HW2 2643   1.129   1.088   0.761  0.2528  0.9155 -1.8277
  882SOL     OW 2644   2.243   0.990   0.110 -0.1403  0.4228 -0.2810
  882SOL    HW1 2645   2.281   1.009   0.016 -1.6640  0.9230 -1.0758
  882SOL    HW2 2646   2.291   1.027   0.187 -1.8593 -0.4991 -2.6072
  883SOL     OW 2647   1.382   3.034   1.701  0.0164  0.7379 -0.1060
  883SOL    HW1 2648   1.301   3.087   1.666  0.3243  0.6348 -3.4722
  883SOL    HW2 2649   1.360   2.937   1.725  0.1172 -0.7934  2.8612
  884SOL     OW 2650   2.929   3.018   1.255 -0.1992 -0.0027 -0.0162
  884SOL    HW1 2651   3.017   3.039   1.309  1.4391  1.8835  0.4108
  884SOL    HW2 2652   2.915   2.919   1.242 -2.4715 -0.3954 -2.2083
  885SOL     OW 2653   1.146   0.994   1.712 -0.1832  0.1825 -0.0473
  885SOL    HW1 2654   1.066   0.954   1.760  1.2340  0.0557  1.5096
  885SOL    HW2 2655   1.139   0.974   1.610  0.8536  0.7306 -1.5425
  886SOL     OW 2656   1.383   0.839   2.482 -0.0900  0.1904 -0.8111
  886SOL    HW1 2657   1.457   0.907   2.457  1.2973  2.9560 -1.2419
  886SOL    HW2 2658   1.374   0.761   2.416  0.9407  0.9425 -2.0577
  887SOL     OW 2659   1.544   0.704   1.129 -0.4814  0.4753 -0.2132
  887SOL    HW1 2660   1.462   0.695   1.066  1.1789 -1.2172 -0.9111
  887SOL    HW2 2661   1.555   0.804   1.155 -0.3252 -2.1560  0.8339
  888SOL     OW 2662   2.165   1.627   1.854  0.1362  0.7759 -0.0188
  888SOL    HW1 2663   2.202   1.537   1.820 -1.0981 -0.7178 -1.9850
  888SOL    HW2 2664   2.234   1.703   1.856  2.7550 -0.4382 -2.6697
  889SOL     OW 2665   1.716   1.958   0.565  0.1441 -0.3476  0.0363
  889SOL    HW1 2666   1.796   2.013   0.531 -1.2984  1.1195 -1.5304
  889SOL    HW2 2667   1.636   1.961   0.495 -2.2666  1.4399 -2.6998
  890SOL     OW 2668   1.036   2.061   0.534 -0.0163 -0.1073 -0.0637
  890SOL    HW1 2669   1.072   1.968   0.559  0.4290  2.3255  0.1606
  890SOL    HW2 2670   0.960   2.085   0.598 -4.2943  2.8671  1.3372
  891SOL     OW 2671   2.700   0.607   2.818 -0.0062 -0.4964 -0.9683
  891SOL    HW1 2672   2.664   0.517   2.796  1.0015  0.9985  2.9487
  891SOL    HW2 2673   2.700   0.666   2.738  0.9406 -3.0660  3.1393
  892SOL     OW 2674   0.818   0.651   2.379 -0.6471  0.9803 -0.1190
  892SOL    HW1 2675   0.718   0.658   2.392  0.7869 -0.8922  2.7527
  892SOL    HW2 2676   0.870   0.675   2.467  0.9498  1.4757  0.6754
  893SOL     OW 2677   1.674   0.143   1.212 -0.5232 -0.2030  0.3394
  893SOL    HW1 2678   1.755   0.108   1.259 -1.4462  1.9313 -3.0726
  893SOL    HW2 2679   1.587   0.110   1.249  0.3984 -0.5503  2.4310
  894SOL     OW 2680   3.069   0.019   0.828  0.5557 -0.2152  0.6138
  894SOL    HW1 2681   0.021   3.059   0.911 -0.4820  0.4842 -0.6750
  894SOL    HW2 2682   3.079   3.050   0.743 -0.7876  0.6215  0.1464
  895SOL     OW 2683   2.094   2.774   2.947 -0.6765 -0.0436 -0.5082
  895SOL    HW1 2684   2.027   2.725   2.888  0.6927 -1.0962 -0.8200
  895SOL    HW2 2685   2.170   2.710   2.976 -0.5365 -1.4510  0.7493
  896SOL     OW 2686   2.104   0.061   1.744 -0.4678 -0.8642 -0.0546
  896SOL    HW1 2687   2.027   0.116   1.708  0.6767  0.5059 -0.2111
  896SOL    HW2 2688   2.194   0.101   1.721 -1.0070  0.7092  0.6675
  897SOL     OW 2689   0.299   2.143   1.925  0.8578  0.0747  0.0652
  897SOL    HW1 2690   0.238   2.123   1.845  2.3490 -2.4404  0.0001
  897SOL    HW2 2691   0.386   2.094   1.920  0.3957 -0.8268  1.8952
  898SOL     OW 2692   2.518   1.610   1.871 -0.1182 -0.4887 -0.2670
  898SOL    HW1 2693   2.535   1.560   1.958 -0.9633 -2.8866 -3.5756
  898SOL    HW2 2694   2.475   1.701   1.895  0.1339 -0.5026  3.0176
  899SOL     OW 2695   1.600   2.245   0.810  0.0698  0.3381 -0.2129
  899SOL    HW1 2696   1.668   2.260   0.889 -1.9103 -0.7920  1.7810
  899SOL    HW2 2697   1.573   2.148   0.796 -0.1876  1.6665 -0.0809
  900SOL     OW 2698   0.759   0.046   2.900  0.4662 -0.4041 -0.3074
  900SOL    HW1 2699   0.732   3.043   2.920  2.3859  1.0143 -2.8990
  900SOL    HW2 2700   0.803   0.046   2.808 -0.2079 -1.4722  2.9323
  901SOL     OW 2701   1.110   1.765   2.470 -0.2873 -0.1171  0.6584
  901SOL    HW1 2702   1.180   1.833   2.502  2.4631 -0.9677 -1.7142
  901SOL    HW2 2703   1.052   1.809   2.396  0.0891 -1.6107  1.1401
  902SOL     OW 2704   0.041   0.241   2.780  0.1225 -0.1449 -0.0292
  902SOL    HW1 2705   3.062   0.313   2.801  3.2971  0.6724  4.0003
  902SOL    HW2 2706   3.078   0.154   2.759  1.9095  0.0244  1.8042
  903SOL     OW 2707   2.121   0.584   2.413 -0.2392  0.4050  0.3044
  903SOL    HW1 2708   2.178   0.601   2.500  1.9113  2.3431  0.8420
  903SOL    HW2 2709   2.150   0.503   2.358  0.1049  0.1250  1.2310
  904SOL     OW 2710   1.389   0.621   2.320  0.1273  0.0783  0.3181
  904SOL    HW1 2711   1.473   0.566   2.306  0.6836 -0.4463  1.8928
  904SOL    HW2 2712   1.314   0.565   2.364 -2.3966 -3.0237  0.9613
  905SOL     OW 2713   2.038   2.458   1.678 -0.1978 -0.1247  0.0969
  905SOL    HW1 2714   2.021   2.454   1.778 -0.0844  0.0375 -0.5055
  905SOL    HW2 2715   2.124   2.405   1.665 -1.8743  1.7641  1.8035
  906SOL     OW 2716   1.697   2.005   0.240 -0.1721 -0.0774  0.7845
  906SOL    HW1 2717   1.768   2.017   0.310  0.0976  0.3747 -1.6622
  906SOL    HW2 2718   1.678   2.095   0.199  1.9937 -0.0911 -1.4274
  907SOL     OW 2719   1.266   2.966   1.085 -0.3993 -0.1346 -0.2352
  907SOL    HW1 2720   1.174   3.013   1.098 -2.1616  0.0945 -0.6262
  907SOL    HW2 2721   1.279   2.920   0.990 -2.0588 -2.5247 -2.3195
  908SOL     OW 2722   1.676   2.277   2.414  0.2004  0.6035 -0.1472
  908SOL    HW1 2723   1.743   2.352   2.422  2.3087 -0.4519 -0.9548
  908SOL    HW2 2724   1.627   2.281   2.326  1.0457  1.8580  0.7985
  909SOL     OW 2725   2.181   0.285   2.060 -0.4935  0.5326 -0.4251
  909SOL    HW1 2726   2.208   0.319   2.155 -1.2971  0.7221  1.1254
  909SOL    HW2 2727   2.102   0.219   2.068  2.5332  2.2703 -0.7768
  910SOL     OW 2728   0.983   0.886   2.988  0.5929 -0.3070  0.7078
  910SOL    HW1 2729   1.001   0.807   3.051  0.7203  1.7342 -0.8714
  910SOL    HW2 2730   1.066   0.916   2.936  1.3387 -1.9720 -1.7604
  911SOL     OW 2731   3.009   1.073   0.162  0.5016 -0.0720  0.3750
  911SOL    HW1 2732   3.031   1.166   0.121 -0.8009  1.1829 -0.2982
  911SOL    HW2 2733   2.943   1.026   0.106  0.9727  1.3542  0.2673
  912SOL     OW 2734   0.340   2.186   0.457  0.4457  0.3363  0.1578
  912SOL    HW1 2735   0.246   2.150   0.434 -0.9115 -1.1885 -0.6978
  912SOL    HW2 2736   0.356   2.173   0.554 -0.6702  0.2720 -0.8169
  913SOL     OW 2737   2.781   2.222   2.253  0.1681  0.8514 -0.1529
  913SOL    HW1 2738   2.820   2.189   2.343 -1.8457 -0.7466 -1.0752
  913SOL    HW2 2739   2.856   2.238   2.181 -0.5093 -1.8978 -1.1885
  914SOL     OW 2740   1.272   1.995   1.486 -0.1784  0.0199 -0.3691
  914SOL    HW1 2741   1.296   2.040   1.400  1.5248  0.3246  0.2659
  914SOL    HW2 2742   1.233   1.902   1.478  0.9015  1.7673  1.1817
  915SOL     OW 2743   0.636   2.805   1.935  0.0383  0.0078 -0.0227
  915SOL    HW1 2744   0.644   2.908   1.915  1.4569  0.3902 -0.1557
  915SOL    HW2 2745   0.561   2.795   2.007 -2.6296 -1.0384 -1.9276
  916SOL     OW 2746   0.821   0.707   1.461  0.4015 -0.0047  0.0902
  916SOL    HW1 2747   0.853   0.629   1.397 -1.2491  0.2884  0.0183
  916SOL    HW2 2748   0.804   0.673   1.555 -0.9332  3.0010  3.2974
  917SOL     OW 2749   2.689   0.688   0.409 -0.0586  0.1875  0.1989
  917SOL    HW1 2750   2.782   0.673   0.369  0.6895  2.6734 -0.8679
  917SOL    HW2 2751   2.615   0.620   0.383 -2.0395 -0.9917  2.4882
  918SOL     OW 2752   1.713   2.269   2.799 -0.2311  0.1073  0.0229
  918SOL    HW1 2753   1.773   2.318   2.732  1.6517  2.5975  1.0088
  918SOL    HW2 2754   1.761   2.266   2.887 -0.5084 -3.7689 -0.0303
  919SOL     OW 2755   1.646   2.462   1.468  0.2196 -0.2075  0.0121
  919SOL    HW1 2756   1.620   2.482   1.370 -0.4856 -2.4535 -3.6363
  919SOL    HW2 2757   1.690   2.543   1.506 -0.2674  2.2884 -0.2855
  920SOL     OW 2758   0.766   0.670   2.703 -0.0946  0.3112  0.0796
  920SOL    HW1 2759   0.838   0.609   2.746  3.4474 -0.8201 -0.0960
  920SOL    HW2 2760   0.743   0.752   2.757 -0.7527  1.7774  0.1625
  921SOL     OW 2761   3.088   0.853   2.994 -0.5228  0.3045  0.2089
  921SOL    HW1 2762   2.991   0.818   2.996 -0.6888 -0.7246 -1.9180
  921SOL    HW2 2763   0.036   0.857   0.003 -0.1196 -0.4554  3.0460
  922SOL     OW 2764   0.280   1.907   1.181  0.0736 -0.0245  0.0512
  922SOL    HW1 2765   0.262   1.807   1.183  1.7884 -1.9204 -0.8599
  922SOL    HW2 2766   0.368   1.922   1.131  1.1704  2.9231 -1.1664
  923SOL     OW 2767   0.616   1.509   1.666 -0.1932  0.0703  0.3407
  923SOL    HW1 2768   0.670   1.494   1.750 -1.9746 -1.2079 -0.5235
  923SOL    HW2 2769   0.543   1.438   1.653  0.8013  1.2595 -0.0827
  924SOL     OW 2770   1.578   2.572   2.812 -0.1189 -0.0135 -0.0540
  924SOL    HW1 2771   1.538   2.477   2.796  0.0953 -0.2277 -1.5826
  924SOL    HW2 2772   1.520   2.630   2.874  0.4411  0.3076  2.4210
  925SOL     OW 2773   2.858   1.284   1.018  0.3887  0.3417 -0.6688
  925SOL    HW1 2774   2.830   1.238   0.926 -1.0017  0.3558  0.3597
  925SOL    HW2 2775   2.785   1.265   1.088 -1.6861  0.4826  0.2612
  926SOL     OW 2776   2.033   0.553   1.503  0.5545  0.3987 -0.3996
  926SOL    HW1 2777   2.132   0.561   1.542  1.2885  0.3525 -1.0990
  926SOL    HW2 2778   2.033   0.541   1.404  1.0529 -1.3920  0.6051
  927SOL     OW 2779   1.868   0.095   1.388  0.7990 -0.2338 -0.1243
  927SOL    HW1 2780   1.927   0.168   1.350 -0.2829  0.9929 -0.3282
  927SOL    HW2 2781   1.907   0.004   1.394 -2.7170  0.9381 -0.3853
  928SOL     OW 2782   0.271   0.889   2.296 -0.1712  0.3079  0.4316
  928SOL    HW1 2783   0.308   0.941   2.218 -1.0241 -2.9300  0.4584
  928SOL    HW2 2784   0.324   0.906   2.379  2.2183 -1.4561 -3.0092
  929SOL     OW 2785   2.338   0.760   1.334 -0.0397  0.0479  0.3819
  929SOL    HW1 2786   2.272   0.837   1.341  1.6101 -1.0004 -1.9163
  929SOL    HW2 2787   2.397   0.765   1.250 -1.3829 -0.1113 -1.8534
  930SOL     OW 2788   2.943   2.518   2.107 -0.4600 -0.3282 -0.2364
  930SOL    HW1 2789   2.894   2.572   2.175  1.6819 -0.5255  0.7126
  930SOL    HW2 2790   3.044   2.526   2.125 -0.8026 -0.0217 -3.0130
  931SOL     OW 2791   1.651   0.955   1.203  0.0674  0.8772 -0.3445
  931SOL    HW1 2792   1.741   0.967   1.244 -0.9685 -0.5888 -1.5653
  931SOL    HW2 2793   1.644   1.027   1.131 -1.1900  3.2550 -0.5938
  932SOL     OW 2794   0.147   1.108   1.813 -0.0988  0.1400  0.5502
  932SOL    HW1 2795   0.226   1.159   1.859 -1.1250  1.8704  0.4951
  932SOL    HW2 2796   0.104   1.173   1.749  0.4139  1.1338  0.3911
  933SOL     OW 2797   2.363   1.871   1.636  0.2726 -0.5469 -0.8284
  933SOL    HW1 2798   2.405   1.959   1.606 -0.4412  0.8288 -2.8334
  933SOL    HW2 2799   2.307   1.838   1.558  0.9189 -0.4768 -0.5664
  934SOL     OW 2800   0.509   1.919   1.732 -0.3337 -0.2488 -0.3186
  934SOL    HW1 2801   0.600   1.914   1.774 -2.2735 -0.3550 -0.4460
  934SOL    HW2 2802   0.483   2.016   1.708 -0.7194  1.8063 -0.5988
  935SOL     OW 2803   2.667   1.266   1.220 -0.0326 -0.7720  0.6481
  935SOL    HW1 2804   2.607   1.343   1.181 -0.9605 -1.1571 -0.6942
  935SOL    HW2 2805   2.667   1.273   1.324  2.0271 -1.0905  1.1918
  936SOL     OW 2806   2.663   1.293   1.514 -0.0513  0.5222 -0.1344
  936SOL    HW1 2807   2.666   1.204   1.567 -0.9595 -0.4610 -0.7356
  936SOL    HW2 2808   2.611   1.363   1.562  0.0399 -4.6087 -0.2197
  937SOL     OW 2809   1.795   0.401   1.238  0.2269  0.2344 -0.0193
  937SOL    HW1 2810   1.887   0.372   1.271  0.2801  0.8090 -1.2466
  937SOL    HW2 2811   1.726   0.323   1.228 -3.0583  1.1444 -1.0798
  938SOL     OW 2812   0.427   2.883   0.228 -0.0468  0.1804  0.3203
  938SOL    HW1 2813   0.390   2.904   0.324 -0.1609  0.3645  2.2647
  938SOL    HW2 2814   0.352   2.912   0.162 -0.7465 -1.8620 -1.1909
  939SOL     OW 2815   2.892   2.096   2.478 -0.0841 -0.0837  0.0204
  939SOL    HW1 2816   2.945   2.031   2.419  1.1170  1.3026 -0.5573
  939SOL    HW2 2817   2.825   2.033   2.527  2.7150  0.8574 -0.2581
  940SOL     OW 2818   1.466   1.926   0.437  0.1984  0.1047 -0.3383
  940SOL    HW1 2819   1.437   1.990   0.361 -1.3468  2.1682  0.3458
  940SOL    HW2 2820   1.461   1.827   0.414  1.4258  0.5711 -1.0126
  941SOL     OW 2821   2.277   2.578   2.973 -0.0207  0.5922  0.1793
  941SOL    HW1 2822   2.222   2.492   2.956 -2.4484 -2.3990 -4.0673
  941SOL    HW2 2823   2.307   2.585   3.070 -0.3870 -0.0045 -2.0249
  942SOL     OW 2824   1.960   2.432   1.106 -0.0307 -0.0428  0.0383
  942SOL    HW1 2825   1.883   2.494   1.089 -0.2317 -0.9076  1.8167
  942SOL    HW2 2826   2.035   2.474   1.161 -2.3021 -1.4598 -0.5319
  943SOL     OW 2827   2.368   0.873   1.826  0.0159 -0.3455  0.0553
  943SOL    HW1 2828   2.438   0.896   1.755  0.6291 -1.0524 -0.4588
  943SOL    HW2 2829   2.381   0.774   1.850 -0.4983 -0.3217 -2.3384
  944SOL     OW 2830   1.102   0.894   2.579 -0.2242  0.0250  0.0621
  944SOL    HW1 2831   1.181   0.875   2.521 -2.7282 -0.5784  2.1551
  944SOL    HW2 2832   1.043   0.811   2.589  0.6940 -2.5769  1.0897
  945SOL     OW 2833   2.539   2.276   1.240  0.1864  0.5191  0.3649
  945SOL    HW1 2834   2.598   2.199   1.280  3.0286  0.4837 -0.8701
  945SOL    HW2 2835   2.514   2.351   1.306 -0.3713 -0.0851  1.1087
  946SOL     OW 2836   0.523   0.728   0.361 -0.3562  0.0342 -0.2710
  946SOL    HW1 2837   0.468   0.809   0.376  3.8223 -1.3348 -2.1225
  946SOL    HW2 2838   0.496   0.648   0.419  0.5167  2.0047  0.9721
  947SOL     OW 2839   2.081   2.910   1.624  0.0240  0.1761  0.1934
  947SOL    HW1 2840   1.985   2.915   1.657  3.6930 -0.0982  0.4708
  947SOL    HW2 2841   2.137   2.978   1.671  1.3322 -0.2933 -3.1642
  948SOL     OW 2842   0.190   1.809   0.781  0.3214 -0.3616 -0.2944
  948SOL    HW1 2843   0.286   1.845   0.768  1.3932  0.2463 -1.5823
  948SOL    HW2 2844   0.196   1.737   0.850  0.8312 -0.1718 -1.2770
  949SOL     OW 2845   1.240   1.149   1.490  0.3309  0.2447  0.0793
  949SOL    HW1 2846   1.284   1.094   1.410  0.3031 -1.3636 -2.5859
  949SOL    HW2 2847   1.142   1.169   1.465  1.6129  1.1445 -1.5386
  950SOL     OW 2848   0.385   1.053   1.151 -0.2303  0.0264 -0.3054
  950SOL    HW1 2849   0.484   1.034   1.174 -1.3791  0.4285 -0.2992
  950SOL    HW2 2850   0.318   0.985   1.184  0.2583 -2.9061 -0.3946
  951SOL     OW 2851   0.707   2.195   2.280 -0.4243  0.1435  0.2081
  951SOL    HW1 2852   0.629   2.132   2.292 -0.4667 -4.3437 -2.0148
  951SOL    HW2 2853   0.749   2.227   2.371  0.7174  0.9920 -0.7268
  952SOL     OW 2854   1.477   1.356   0.124 -0.2691 -0.6167 -0.1339
  952SOL    HW1 2855   1.399   1.359   0.189  0.7935 -2.4170  1.0378
  952SOL    HW2 2856   1.463   1.426   0.051 -0.9828 -0.8925 -2.0364
  953SOL     OW 2857   1.088   0.243   3.062  0.0065  0.1731 -0.6379
  953SOL    HW1 2858   0.998   0.262   3.025  1.0723 -0.9908  0.1162
  953SOL    HW2 2859   1.155   0.245   2.985 -0.1802 -1.3161 -1.4200
  954SOL     OW 2860   2.243   1.322   0.368 -0.5853  0.2465  0.3309
  954SOL    HW1 2861   2.179   1.251   0.406 -0.2565  1.9208 -3.6929
  954SOL    HW2 2862   2.195   1.411   0.370  1.3539 -0.9744 -0.5317
  955SOL     OW 2863   3.032   2.897   0.155  0.0380 -0.0227 -0.0070
  955SOL    HW1 2864   2.967   2.901   0.077 -0.1631  1.1737 -1.4793
  955SOL    HW2 2865   3.055   2.799   0.183 -0.2299 -3.5146 -2.0648
  956SOL     OW 2866   1.237   0.770   1.383  0.5723  0.2133 -0.0186
  956SOL    HW1 2867   1.304   0.840   1.359 -2.3187 -2.7967  2.7435
  956SOL    HW2 2868   1.216   0.712   1.302 -2.5450 -0.1974  2.0391
  957SOL     OW 2869   1.035   1.309   1.166 -0.1799 -0.1251  0.3257
  957SOL    HW1 2870   1.022   1.234   1.233 -1.8671  2.8524 -0.1701
  957SOL    HW2 2871   0.958   1.310   1.100 -0.0092  0.1646 -0.9159
  958SOL     OW 2872   0.464   1.890   0.813 -0.0981  0.3656 -0.1003
  958SOL    HW1 2873   0.480   1.916   0.910  0.1485 -0.5757 -1.0843
  958SOL    HW2 2874   0.506   1.956   0.748  0.8158  1.6180 -0.1692
  959SOL     OW 2875   1.370   1.320   0.974 -0.1230 -0.2069  0.0386
  959SOL    HW1 2876   1.361   1.406   0.926 -0.3392 -1.2856  0.9604
  959SOL    HW2 2877   1.315   1.329   1.064 -0.6170  1.8057 -1.8108
  960SOL     OW 2878   3.042   1.287   2.881 -0.3042 -0.0523 -0.4861
  960SOL    HW1 2879   0.006   1.357   2.836 -3.7032 -1.4499  1.4566
  960SOL    HW2 2880   3.068   1.192   2.854 -0.6054  0.7913 -1.9511
  961SOL     OW 2881   0.585   1.389   0.921  0.1769  0.1837  0.2284
  961SOL    HW1 2882   0.513   1.376   0.991  0.6220 -1.2429  0.6053
  961SOL    HW2 2883   0.562   1.471   0.858 -0.5571  3.6960  1.2745
  962SOL     OW 2884   0.815   1.075   0.563  0.3228 -0.7091  0.4565
  962SOL    HW1 2885   0.906   1.088   0.609 -0.4250  1.5676  0.0765
  962SOL    HW2 2886   0.748   1.135   0.613 -0.0562  1.7849  0.3172
  963SOL     OW 2887   1.397   1.904   2.503 -0.3601  0.6853 -0.1728
  963SOL    HW1 2888   1.485   1.967   2.512  3.0572  3.0649  1.2160
  963SOL    HW2 2889   1.408   1.821   2.561 -1.3607 -0.1174 -1.1711
  964SOL     OW 2890   0.211   2.610   0.060  0.0581  0.6436 -0.0506
  964SOL    HW1 2891   0.248   2.513   0.058  0.1291  1.6635 -0.9965
  964SOL    HW2 2892   0.263   2.677   3.086  2.4350  2.1165 -0.9034
  965SOL     OW 2893   0.619   2.508   0.317 -0.3889 -0.3970  0.2199
  965SOL    HW1 2894   0.561   2.524   0.402 -0.7537 -0.1556  0.5385
  965SOL    HW2 2895   0.721   2.520   0.334  0.7146 -2.4243  2.8920
  966SOL     OW 2896   3.028   1.618   2.702 -0.1707  0.3757  0.2810
  966SOL    HW1 2897   0.024   1.555   2.718  0.9858 -2.6541 -1.7799
  966SOL    HW2 2898   3.037   1.710   2.750 -0.3720  1.1201  2.0848
  967SOL     OW 2899   2.287   3.046   3.001 -0.1681 -0.0226 -0.5424
  967SOL    HW1 2900   2.200   3.005   3.042 -0.6713  0.6613  0.2656
  967SOL    HW2 2901   2.281   0.056   2.979  0.4806 -3.0170 -0.3088
  968SOL     OW 2902   2.281   2.944   0.402 -0.5955  0.4097  0.3168
  968SOL    HW1 2903   2.286   2.976   0.497 -0.0409 -1.1702  0.9035
  968SOL    HW2 2904   2.334   3.002   0.339  0.7155  0.9098  3.0279
  969SOL     OW 2905   0.406   1.504   2.302 -0.1342 -0.3032  0.3439
  969SOL    HW1 2906   0.460   1.590   2.293  0.1927  0.8446 -0.1593
  969SOL    HW2 2907   0.472   1.433   2.341 -0.3957 -0.6331 -2.0256
  970SOL     OW 2908   1.326   1.515   0.782  0.1965 -0.2137  0.4673
  970SOL    HW1 2909   1.371   1.599   0.743 -0.2988  0.6420 -0.6091
  970SOL    HW2 2910   1.348   1.439   0.721 -1.4811 -0.4475  0.2654
  971SOL     OW 2911   2.374   0.044   1.027  0.0077 -0.2579 -0.1052
  971SOL    HW1 2912   2.456   0.014   1.078 -0.7208  0.1215  1.7532
  971SOL    HW2 2913   2.288   3.076   1.052 -2.7129 -0.6492  4.0110
  972SOL     OW 2914   0.246   2.908   1.495  0.4204 -0.1906 -0.3187
  972SOL    HW1 2915   0.239   2.858   1.584  2.3025  2.7456 -0.2319
  972SOL    HW2 2916   0.307   2.991   1.511 -0.0232  1.6122  0.7030
  973SOL     OW 2917   0.610   0.296   2.538 -0.1596  0.0717  0.5570
  973SOL    HW1 2918   0.539   0.287   2.464 -0.0941 -0.4378 -0.8667
  973SOL    HW2 2919   0.569   0.347   2.613 -0.3361  0.0068  0.5252
  974SOL     OW 2920   2.119   1.300   1.886 -0.1781 -0.3273  0.0412
  974SOL    HW1 2921   2.081   1.245   1.809 -0.0641 -1.7934  1.8233
  974SOL    HW2 2922   2.103   1.246   1.966  0.6622  1.9134 -1.4043
  975SOL     OW 2923   0.273   0.151   1.275  0.4182 -0.0419 -0.3230
  975SOL    HW1 2924   0.365   0.108   1.296  2.0208 -1.1309 -0.8997
  975SOL    HW2 2925   0.275   0.252   1.259  1.0481 -0.2803 -1.4342
  976SOL     OW 2926   0.868   2.002   2.456  0.5607  0.3296  0.4285
  976SOL    HW1 2927   0.821   2.092   2.454 -0.4252 -1.7759 -1.1314
  976SOL    HW2 2928   0.807   1.932   2.491  1.7559  1.9263 -0.8237
  977SOL     OW 2929   0.803   2.887   0.742  0.3475 -0.4338 -0.3357
  977SOL    HW1 2930   0.887   2.919   0.693  1.2601  3.3587  0.4274
  977SOL    HW2 2931   0.802   2.929   0.839  0.6320  2.5835 -0.5403
  978SOL     OW 2932   2.917   1.237   1.997 -0.0216  0.0443 -0.3477
  978SOL    HW1 2933   2.863   1.147   2.008  0.2223  0.5465 -0.8853
  978SOL    HW2 2934   2.923   1.277   2.091 -2.0257  0.0992  2.9333
  979SOL     OW 2935   1.669   2.759   1.781  0.7210  0.0908  0.1109
  979SOL    HW1 2936   1.681   2.770   1.676 -1.1107  0.7013 -2.4490
  979SOL    HW2 2937   1.692   2.663   1.810 -0.9121  0.5118 -1.2982
  980SOL     OW 2938   1.413   1.739   2.281 -0.1773  0.3697 -0.2623
  980SOL    HW1 2939   1.392   1.642   2.301 -1.7499  0.8224 -0.5161
  980SOL    HW2 2940   1.407   1.795   2.366  1.4150  1.4130 -0.8210
  981SOL     OW 2941   2.294   0.596   1.568 -0.0398  0.4341  0.4216
  981SOL    HW1 2942   2.325   0.649   1.646  1.8065  0.7993 -1.6242
  981SOL    HW2 2943   2.326   0.642   1.485 -1.7865  0.8742  1.0812
  982SOL     OW 2944   0.294   0.099   2.717 -0.3359 -0.1171  0.4177
  982SOL    HW1 2945   0.344   0.091   2.807 -2.4496 -0.9861  1.4538
  982SOL    HW2 2946   0.199   0.134   2.728  1.6156 -0.1479  0.2846
  983SOL     OW 2947   2.408   0.540   2.392  0.0743 -0.3255  0.3087
  983SOL    HW1 2948   2.388   0.591   2.484  1.6483 -0.3407 -0.5026
  983SOL    HW2 2949   2.503   0.501   2.393 -2.0179 -0.2805 -2.0097
  984SOL     OW 2950   1.220   0.016   2.120  0.0218 -0.0203  0.5893
  984SOL    HW1 2951   1.294   3.042   2.149  1.0336 -1.3800 -1.6647
  984SOL    HW2 2952   1.131   3.068   2.158 -0.1573 -0.3825  2.9341
  985SOL     OW 2953   1.844   1.777   1.799 -0.2231 -0.2419 -0.9961
  985SOL    HW1 2954   1.790   1.798   1.881 -0.0661 -1.4311 -0.7319
  985SOL    HW2 2955   1.873   1.679   1.808 -1.5828  2.3088  0.7388
  986SOL     OW 2956   2.589   0.468   1.234  0.0555 -0.0407 -0.5619
  986SOL    HW1 2957   2.689   0.476   1.214 -1.3978 -0.8168  1.1268
  986SOL    HW2 2958   2.545   0.556   1.211  1.7869 -1.2335 -1.4364
  987SOL     OW 2959   2.617   0.992   1.284  0.5979  0.7189 -0.2010
  987SOL    HW1 2960   2.609   1.095   1.275 -1.5883  2.1131  2.4210
  987SOL    HW2 2961   2.651   0.947   1.198 -0.6281 -1.2532 -1.5867
  988SOL     OW 2962   3.080   0.937   2.240  0.3795  0.0796  0.4647
  988SOL    HW1 2963   3.050   1.023   2.287  2.9114  1.0169  1.5497
  988SOL    HW2 2964   0.073   0.904   2.282 -1.0282  0.5124  0.1610
  989SOL     OW 2965   1.583   1.782   0.154 -0.1299 -0.2428  0.1891
  989SOL    HW1 2966   1.625   1.870   0.189  1.4270  1.1491 -0.6960
  989SOL    HW2 2967   1.505   1.809   0.092  0.5341  0.0868 -1.7026
  990SOL     OW 2968   0.807   0.524   2.139  0.1200 -0.1933  0.1700
  990SOL    HW1 2969   0.810   0.569   2.232  1.3269 -0.0505  0.7554
  990SOL    HW2 2970   0.877   0.567   2.078  0.5871 -1.4613  1.1399
  991SOL     OW 2971   1.338   1.325   0.571  0.1453  0.8319 -0.0827
  991SOL    HW1 2972   1.307   1.369   0.485  1.4251  0.0149 -0.0900
  991SOL    HW2 2973   1.337   1.222   0.561 -2.1696 -1.1542  2.1906
  992SOL     OW 2974   2.236   1.217   0.706  0.1478 -0.1516  0.6327
  992SOL    HW1 2975   2.318   1.163   0.707 -2.8449  4.1199 -1.2225
  992SOL    HW2 2976   2.193   1.199   0.615  1.6688  0.5623  0.2670
  993SOL     OW 2977   3.025   0.908   0.716 -0.0826  0.0231 -0.1213
  993SOL    HW1 2978   3.059   0.989   0.775 -0.3762  0.0758  1.5976
  993SOL    HW2 2979   0.003   0.830   0.710 -1.6260 -0.9097  0.4871
  994SOL     OW 2980   0.353   2.128   2.631  0.2511 -0.1577 -0.4614
  994SOL    HW1 2981   0.293   2.086   2.559 -1.2070  0.9511  3.2299
  994SOL    HW2 2982   0.296   2.145   2.713  0.2590 -0.4204 -0.1222
  995SOL     OW 2983   1.899   1.065   2.588 -0.0356  0.2774 -0.1263
  995SOL    HW1 2984   1.864   1.007   2.512 -0.5747 -2.5401 -1.1556
  995SOL    HW2 2985   1.836   1.146   2.597 -0.4349 -1.1763  1.2356
  996SOL     OW 2986   2.727   1.300   0.469  0.1238  0.1011  0.6204
  996SOL    HW1 2987   2.646   1.346   0.429 -0.7055 -0.2778 -0.7918
  996SOL    HW2 2988   2.752   1.224   0.404 -1.7498 -1.1539 -0.2313
  997SOL     OW 2989   1.993   1.198   1.658  0.3207  0.0877 -0.4385
  997SOL    HW1 2990   2.036   1.106   1.670 -0.0704  1.5523 -0.3876
  997SOL    HW2 2991   1.897   1.190   1.618 -2.3561 -0.8932 -1.9316
  998SOL     OW 2992   2.583   1.940   0.214  0.4187  0.7475  0.3627
  998SOL    HW1 2993   2.508   1.967   0.147 -0.0478  0.8346 -1.1812
  998SOL    HW2 2994   2.558   1.850   0.253  1.1039 -1.2774  0.6309
  999SOL     OW 2995   3.038   2.282   0.081 -0.3010 -0.1509 -0.1849
  999SOL    HW1 2996   2.951   2.232   0.063 -2.3904 -1.0621  1.3272
  999SOL    HW2 2997   3.040   2.297   0.180 -0.5523 -2.0157  2.2760
 1000SOL     OW 2998   1.002   1.020   2.153  0.3286  0.0528  0.2762
 1000SOL    HW1 2999   0.942   1.008   2.241  0.8255 -0.2246  1.8117
 1000SOL    HW2 3000   1.101   1.028   2.172 -0.2937  0.6706 -2.0322
   3.08888   3.08888   3.08888
