1000 SPC/Fw water molecules t=  90.00000 step= 90000
 3000
    1SOL     OW    1   2.034   2.592   0.498  0.2351 -0.2476 -0.4753
    1SOL    HW1    2   2.035   2.523   0.422  0.4065  2.3628 -0.0490
    1SOL    HW2    3   2.113   2.654   0.490 -1.6173 -0.4826  2.0194
    2SOL     OW    4   1.038   1.232   1.959  0.2899 -0.3565  0.0382
    2SOL    HW1    5   1.092   1.170   1.899  3.2271  3.8531  1.2260
    2SOL    HW2    6   1.100   1.241   2.042  0.9723  1.1298  0.1445
    3SOL     OW    7   1.486   2.572   2.554  0.5516  0.3817  0.3883
    3SOL    HW1    8   1.557   2.497   2.556  1.0347 -1.8660 -0.4425
    3SOL    HW2    9   1.402   2.545   2.505  0.7306  0.4379  3.3181
    4SOL     OW   10   1.327   1.702   2.700 -0.1763  0.4735  0.1233
    4SOL    HW1   11   1.375   1.781   2.653  1.2961  2.2067  0.7482
    4SOL    HW2   12   1.370   1.693   2.794  0.4366 -0.1549 -1.5332
    5SOL     OW   13   0.638   0.847   1.738  1.1042 -0.4694 -0.1553
    5SOL    HW1   14   0.655   0.912   1.815  1.7405  0.7133 -1.2606
    5SOL    HW2   15   0.698   0.868   1.661  1.0920  0.0380  1.6349
    6SOL     OW   16   1.856   0.592   2.636 -0.7402  0.2201 -0.3139
    6SOL    HW1   17   1.823   0.599   2.542  1.0951  0.0203 -0.7780
    6SOL    HW2   18   1.812   0.657   2.701 -1.2885 -0.9668 -0.6190
    7SOL     OW   19   0.394   0.441   1.814 -0.1336  0.0808  0.0406
    7SOL    HW1   20   0.372   0.541   1.805  0.9241 -2.0448  2.1238
    7SOL    HW2   21   0.306   0.393   1.832  0.6659  1.3864  1.4973
    8SOL     OW   22   1.710   0.046   1.862 -0.1720 -0.0173 -0.1119
    8SOL    HW1   23   1.777   0.092   1.806 -0.7370 -1.9260  2.6102
    8SOL    HW2   24   1.734   3.045   1.857  1.4822 -0.3036  0.4526
    9SOL     OW   25   0.353   0.363   0.579 -0.0274  0.5364 -0.4185
    9SOL    HW1   26   0.356   0.289   0.651  2.0089 -1.3113  3.2445
    9SOL    HW2   27   0.353   0.452   0.627 -2.5802  0.6829 -0.0525
   10SOL     OW   28   0.647   1.971   2.263  0.7263 -0.3406  0.2137
   10SOL    HW1   29   0.659   2.007   2.167 -3.8096 -1.8771  0.0155
   10SOL    HW2   30   0.717   2.005   2.322 -3.2277  0.3022 -1.2662
   11SOL     OW   31   0.594   1.564   0.129  0.4984  0.1829 -0.3771
   11SOL    HW1   32   0.614   1.592   0.034  1.2718 -0.4040  1.8035
   11SOL    HW2   33   0.624   1.469   0.146 -2.3074  2.4597 -1.0863
   12SOL     OW   34   3.003   2.883   1.304  0.6413 -0.3697 -0.0463
   12SOL    HW1   35   3.043   2.976   1.292  0.0823 -0.6347  0.5487
   12SOL    HW2   36   3.057   2.806   1.265  0.9270 -1.8034  0.5764
   13SOL     OW   37   0.903   2.988   0.562 -0.4061 -0.2905  0.3466
   13SOL    HW1   38   0.886   2.975   0.465 -1.7571 -1.1224  2.1440
   13SOL    HW2   39   0.923   3.088   0.583 -1.9165  0.7365  1.5145
   14SOL     OW   40   1.500   1.674   0.940  0.4354 -0.2562 -0.2972
   14SOL    HW1   41   1.409   1.715   0.954  1.6973  0.6733 -2.2584
   14SOL    HW2   42   1.546   1.652   1.027  2.4142  2.0476 -0.9455
   15SOL     OW   43   2.992   1.528   2.511  0.0373 -0.0353 -1.0033
   15SOL    HW1   44   2.893   1.509   2.529  1.7771 -0.2914  0.1989
   15SOL    HW2   45   3.027   1.593   2.583  1.1188 -0.9193 -0.5410
   16SOL     OW   46   1.263   0.579   2.527  0.0493  0.0296  0.8443
   16SOL    HW1   47   1.333   0.571   2.454 -0.3165 -0.2742 -0.9177
   16SOL    HW2   48   1.292   0.628   2.611 -0.1735 -0.0389  3.1352
   17SOL     OW   49   0.130   2.289   2.273  0.1826 -0.8128 -0.3495
   17SOL    HW1   50   0.153   2.258   2.365 -0.4299 -2.6661  0.9320
   17SOL    HW2   51   0.073   2.219   2.228 -1.2810 -0.3505  0.8185
   18SOL     OW   52   0.998   1.305   0.594 -0.5578 -0.2406  0.2223
   18SOL    HW1   53   1.034   1.382   0.646  0.6592  0.7894 -2.3485
   18SOL    HW2   54   1.046   1.214   0.608  0.6331  0.3390 -0.4897
   19SOL     OW   55   2.599   1.373   2.639  0.1332  0.1843 -0.2314
   19SOL    HW1   56   2.679   1.421   2.675  0.5473 -0.3661  0.2523
   19SOL    HW2   57   2.536   1.441   2.587 -1.1535  1.9508  0.0651
   20SOL     OW   58   2.539   2.156   2.367 -0.1150  0.1180 -0.0517
   20SOL    HW1   59   2.467   2.172   2.299 -0.4996 -0.5124  0.5609
   20SOL    HW2   60   2.550   2.233   2.438 -2.4723 -2.0837 -0.3519
   21SOL     OW   61   0.944   2.070   0.185 -0.4638  0.0078 -0.4587
   21SOL    HW1   62   0.996   1.987   0.146  1.3948 -2.5940  0.7404
   21SOL    HW2   63   0.989   2.090   0.278  0.8471  0.3491  0.6298
   22SOL     OW   64   2.230   2.310   1.350  0.3281  0.2939  0.1071
   22SOL    HW1   65   2.214   2.409   1.336  1.8844  0.5108  2.2152
   22SOL    HW2   66   2.153   2.242   1.332  0.2394 -0.4394 -0.3336
   23SOL     OW   67   0.295   1.068   1.326  0.0285 -0.1712  1.2102
   23SOL    HW1   68   0.203   1.089   1.355  1.5600 -0.4072 -0.2725
   23SOL    HW2   69   0.349   1.010   1.388 -1.3743 -0.2057 -1.4560
   24SOL     OW   70   2.114   1.603   2.239  0.2569 -0.2001  0.0228
   24SOL    HW1   71   2.083   1.521   2.291 -2.8879  0.4005  0.2943
   24SOL    HW2   72   2.205   1.642   2.269  1.8780 -0.1217  2.3485
   25SOL     OW   73   1.939   0.397   2.346 -0.0057  0.1374 -0.3117
   25SOL    HW1   74   2.039   0.382   2.325  0.2312  0.0060  2.0035
   25SOL    HW2   75   1.878   0.320   2.319 -1.6317  4.0765 -2.3334
   26SOL     OW   76   1.408   0.369   0.390 -0.1198  0.5913 -0.2598
   26SOL    HW1   77   1.394   0.444   0.321 -0.7609  1.0956  0.6020
   26SOL    HW2   78   1.407   0.406   0.484 -0.7200 -1.0998  0.9694
   27SOL     OW   79   0.855   1.642   0.540  0.2641 -0.3198  0.0397
   27SOL    HW1   80   0.797   1.692   0.474 -0.2053 -0.8065  1.1661
   27SOL    HW2   81   0.799   1.585   0.602  0.2869  0.2026 -0.3032
   28SOL     OW   82   2.518   1.854   1.037 -0.1822 -0.1436 -0.0893
   28SOL    HW1   83   2.560   1.789   1.106  0.2425 -1.8058  0.7430
   28SOL    HW2   84   2.432   1.901   1.075 -0.3843  0.1944 -0.3966
   29SOL     OW   85   2.254   3.076   1.590 -0.2788  0.4668 -0.6569
   29SOL    HW1   86   2.151   3.062   1.592 -4.2728  0.0558  1.0692
   29SOL    HW2   87   2.305   3.003   1.639 -0.6892  1.1003  3.9910
   30SOL     OW   88   0.843   0.066   1.399  0.1334 -0.5524 -0.1142
   30SOL    HW1   89   0.901   3.090   1.432 -1.3310  1.2452 -0.1498
   30SOL    HW2   90   0.893   0.157   1.405  2.0127  0.0608  0.1724
   31SOL     OW   91   2.938   2.037   1.762  0.2160 -0.2030 -0.4423
   31SOL    HW1   92   2.943   1.939   1.793 -0.0100 -1.4958  2.0595
   31SOL    HW2   93   3.001   2.093   1.823 -1.0852 -0.4874  0.8091
   32SOL     OW   94   1.461   1.490   1.900  0.1802  0.3565  0.2451
   32SOL    HW1   95   1.415   1.550   1.830  0.3165  1.7250 -2.0502
   32SOL    HW2   96   1.519   1.546   1.966  2.3168  1.6860  1.2809
   33SOL     OW   97   0.352   0.220   3.050 -0.2549  0.2413  0.5706
   33SOL    HW1   98   0.419   0.295   3.061  0.1503 -1.7029 -0.0618
   33SOL    HW2   99   0.398   0.128   3.037 -0.7407 -0.6391 -1.7416
   34SOL     OW  100   2.309   0.073   0.706 -0.1784 -0.4802 -0.5435
   34SOL    HW1  101   2.266   3.082   0.712  1.5467  1.8836  1.5542
   34SOL    HW2  102   2.397   0.066   0.757  1.8569  2.4601 -1.3585
   35SOL     OW  103   2.781   0.041   1.519 -0.2200 -0.5200  0.0660
   35SOL    HW1  104   2.737   3.050   1.511  0.1769  3.1727 -1.1558
   35SOL    HW2  105   2.876   0.034   1.558  3.0233  0.1450  1.3521
   36SOL     OW  106   2.694   2.680   2.679 -0.6759 -0.1503  0.0871
   36SOL    HW1  107   2.624   2.751   2.644 -1.7835 -1.0280 -0.9849
   36SOL    HW2  108   2.770   2.679   2.615 -0.4008  0.6482  1.3902
   37SOL     OW  109   1.543   2.557   2.949 -0.0252  0.6663  0.0925
   37SOL    HW1  110   1.565   2.654   2.929 -0.0918 -4.0274  1.9591
   37SOL    HW2  111   1.444   2.553   2.976  2.0156 -1.3252 -0.6233
   38SOL     OW  112   2.754   0.862   2.927 -0.3283 -0.0062 -0.4096
   38SOL    HW1  113   2.836   0.841   2.981  2.3012 -0.4996 -1.5486
   38SOL    HW2  114   2.671   0.870   2.987 -0.4116 -0.4559 -0.2868
   39SOL     OW  115   1.968   1.948   1.895  0.4048  0.1349 -0.3559
   39SOL    HW1  116   1.992   1.905   1.984 -1.0166 -1.8305 -3.1379
   39SOL    HW2  117   2.029   2.033   1.886  0.5678  3.9325 -1.0772
   40SOL     OW  118   0.329   0.272   2.686  0.0677 -0.1652 -0.3042
   40SOL    HW1  119   0.271   0.240   2.760 -2.6309  0.2580 -1.2483
   40SOL    HW2  120   0.423   0.235   2.681 -0.6710  2.5839  0.3716
   41SOL     OW  121   1.577   1.267   1.467  0.5842  0.2216 -0.4345
   41SOL    HW1  122   1.519   1.182   1.480 -3.0635 -1.9311  0.8282
   41SOL    HW2  123   1.631   1.280   1.557  3.6002  0.9288  2.8806
   42SOL     OW  124   0.158   0.337   1.895 -0.5553 -0.3275  0.2347
   42SOL    HW1  125   0.113   0.431   1.912  0.2344  2.9206  0.7736
   42SOL    HW2  126   0.164   0.281   1.979 -0.5335  1.6627 -2.6478
   43SOL     OW  127   1.467   1.312   2.082 -0.0929  0.1885  0.1158
   43SOL    HW1  128   1.549   1.254   2.067 -1.7867  0.7407  3.8926
   43SOL    HW2  129   1.459   1.392   2.023 -2.1048 -1.8906  1.2447
   44SOL     OW  130   0.017   0.047   0.062  0.0492  0.1220  0.0714
   44SOL    HW1  131   3.082   0.030   3.060  0.2161  0.2644 -1.5810
   44SOL    HW2  132   0.028   0.146   0.079 -0.2929 -0.2519 -1.2792
   45SOL     OW  133   0.450   2.162   0.979  0.0984 -0.1990 -0.1680
   45SOL    HW1  134   0.498   2.196   1.061  1.8681 -2.5572 -0.4956
   45SOL    HW2  135   0.477   2.072   0.946 -1.1027  0.4140 -1.0284
   46SOL     OW  136   2.377   2.809   1.750 -0.1655 -0.4154 -0.0164
   46SOL    HW1  137   2.447   2.866   1.789  0.0419 -3.4097 -3.5504
   46SOL    HW2  138   2.422   2.717   1.731 -2.4808 -1.8661 -2.2661
   47SOL     OW  139   0.838   1.751   1.244  0.0026  0.3156 -0.3074
   47SOL    HW1  140   0.863   1.680   1.311 -1.3187  0.8837 -3.2212
   47SOL    HW2  141   0.743   1.782   1.264  0.6792  0.4546 -2.1159
   48SOL     OW  142   0.532   2.543   0.321  0.2824 -0.5055 -0.1157
   48SOL    HW1  143   0.558   2.573   0.411 -1.4692 -1.9104 -2.2203
   48SOL    HW2  144   0.520   2.623   0.258  0.8104  4.2286 -0.4869
   49SOL     OW  145   2.942   1.537   1.964  0.0779  0.0467 -0.4174
   49SOL    HW1  146   2.937   1.509   2.063  0.4454  3.1585 -0.2151
   49SOL    HW2  147   2.847   1.539   1.922 -0.1754  1.1461 -0.0584
   50SOL     OW  148   1.893   1.094   0.703 -0.1726  0.3365  0.5602
   50SOL    HW1  149   1.868   1.004   0.659  0.0188  1.5383 -0.7509
   50SOL    HW2  150   1.876   1.092   0.804  2.8878 -0.6167 -0.4916
   51SOL     OW  151   1.012   0.702   0.959 -0.5065  0.3193 -0.2547
   51SOL    HW1  152   1.000   0.671   1.054 -0.2633  1.4286  0.6561
   51SOL    HW2  153   0.998   0.626   0.894  0.4716 -0.4865 -0.5859
   52SOL     OW  154   1.032   1.502   0.373  0.5542 -0.3077 -0.3922
   52SOL    HW1  155   1.059   1.423   0.433  1.0087  1.2984  0.6522
   52SOL    HW2  156   0.964   1.564   0.426 -2.7744 -0.2607  1.4512
   53SOL     OW  157   1.149   2.579   2.742 -0.6978 -0.0982  0.4069
   53SOL    HW1  158   1.168   2.490   2.697 -1.9711 -2.3675  2.8501
   53SOL    HW2  159   1.235   2.633   2.753  0.4569 -1.1751 -0.6894
   54SOL     OW  160   1.614   0.663   1.558 -0.3231 -0.0683  0.3840
   54SOL    HW1  161   1.607   0.569   1.594 -1.3640  0.4359 -0.1672
   54SOL    HW2  162   1.529   0.685   1.505 -2.5797 -1.6696  2.4846
   55SOL     OW  163   2.848   2.612   0.113  0.2443  0.2755 -0.2427
   55SOL    HW1  164   2.908   2.690   0.135  2.1687 -1.1486  0.3187
   55SOL    HW2  165   2.754   2.647   0.107  2.7541 -0.2481 -1.0885
   56SOL     OW  166   0.836   2.424   1.760  0.2025 -0.2547 -0.9432
   56SOL    HW1  167   0.737   2.406   1.746 -0.9016 -0.3942 -1.0067
   56SOL    HW2  168   0.856   2.523   1.767 -1.1097  1.5098  0.9173
   57SOL     OW  169   1.837   0.882   2.380 -0.5276 -0.0248  0.0439
   57SOL    HW1  170   1.836   0.779   2.363 -2.2739 -0.3835  1.3854
   57SOL    HW2  171   1.763   0.918   2.328  2.8125  1.8146  2.0418
   58SOL     OW  172   0.189   1.073   1.994  0.0388  0.0281 -0.2592
   58SOL    HW1  173   0.195   1.036   1.900  2.2809  1.6294  0.2237
   58SOL    HW2  174   0.207   1.174   1.992 -2.0299 -0.8884  0.6299
   59SOL     OW  175   0.465   2.801   2.269  0.0639  0.2245 -0.2230
   59SOL    HW1  176   0.546   2.859   2.234 -0.1800  0.3038 -0.4717
   59SOL    HW2  177   0.487   2.718   2.320 -1.1173 -0.1864  0.2302
   60SOL     OW  178   2.899   2.466   0.351 -0.0862  0.3987 -0.4237
   60SOL    HW1  179   2.933   2.367   0.342 -0.6265 -1.9667  0.1142
   60SOL    HW2  180   2.876   2.510   0.262 -0.0234 -1.4963  0.4715
   61SOL     OW  181   0.830   2.779   0.713  0.4287 -0.2532  0.1615
   61SOL    HW1  182   0.859   2.695   0.671 -1.1041  1.6004  2.2957
   61SOL    HW2  183   0.875   2.859   0.666  1.5749 -0.1949  2.5284
   62SOL     OW  184   1.914   2.565   2.660 -0.3668  0.3589  0.0289
   62SOL    HW1  185   1.837   2.509   2.615 -2.4661 -3.6756  2.8761
   62SOL    HW2  186   1.980   2.595   2.589  0.8800 -1.7349 -0.8225
   63SOL     OW  187   1.888   0.458   0.116  0.4684  0.2348 -0.2489
   63SOL    HW1  188   1.931   0.366   0.111  0.0587 -0.6599 -1.1949
   63SOL    HW2  189   1.882   0.492   0.211  1.8555 -1.3287  1.7542
   64SOL     OW  190   1.006   1.305   2.580 -0.5450  0.7137 -0.2515
   64SOL    HW1  191   1.071   1.327   2.504 -0.1500 -0.4250  1.3308
   64SOL    HW2  192   1.043   1.230   2.638  1.3067 -1.8528 -1.9263
   65SOL     OW  193   1.330   3.051   1.042  1.2182 -0.3650 -0.1050
   65SOL    HW1  194   1.411   3.023   1.096 -0.0554  0.6486  1.3256
   65SOL    HW2  195   1.360   0.019   0.966  1.2747  1.3888 -1.8787
   66SOL     OW  196   0.462   1.666   1.728 -0.0187 -0.0347  0.2433
   66SOL    HW1  197   0.538   1.687   1.666  0.6596 -1.7075  3.7684
   66SOL    HW2  198   0.468   1.732   1.808 -0.3168  4.1267 -1.1880
   67SOL     OW  199   2.338   2.829   2.147  0.5149 -0.4158  0.0159
   67SOL    HW1  200   2.424   2.810   2.188 -3.6545  0.5479 -0.3491
   67SOL    HW2  201   2.339   2.921   2.107 -1.1681 -1.5860  1.6666
   68SOL     OW  202   0.791   0.924   1.518 -0.0774 -0.6718 -0.1355
   68SOL    HW1  203   0.797   1.022   1.487  0.4860  0.4637  0.3961
   68SOL    HW2  204   0.807   0.857   1.437 -2.3021 -2.0055 -1.7700
   69SOL     OW  205   2.385   2.448   0.105  0.5733  1.0288  0.8200
   69SOL    HW1  206   2.389   2.516   0.180  1.3970 -1.9189  1.3459
   69SOL    HW2  207   2.474   2.399   0.104 -0.8501  1.9093  2.7679
   70SOL     OW  208   2.304   0.628   3.003  0.0459 -0.9800 -0.0380
   70SOL    HW1  209   2.387   0.633   2.940  0.5982  0.2305 -0.2475
   70SOL    HW2  210   2.280   0.535   3.036 -0.0741  1.1984  1.3167
   71SOL     OW  211   2.990   2.208   0.322 -0.2454  0.1702  0.4437
   71SOL    HW1  212   3.020   2.161   0.404 -0.4996  0.1949 -0.8569
   71SOL    HW2  213   2.953   2.140   0.255  0.9419  1.0132  2.9210
   72SOL     OW  214   2.907   1.847   0.437 -0.4584  0.1745  0.0431
   72SOL    HW1  215   2.958   1.911   0.496 -0.1482 -0.1652 -1.1543
   72SOL    HW2  216   2.974   1.774   0.404  0.7979  0.1129 -0.6687
   73SOL     OW  217   0.992   0.738   0.508 -0.3341 -0.2728  0.4480
   73SOL    HW1  218   0.921   0.704   0.445 -1.2733  0.2621 -0.9018
   73SOL    HW2  219   0.957   0.815   0.559  1.1032 -2.7195 -2.6458
   74SOL     OW  220   0.158   1.841   1.974 -0.5090 -0.0929 -0.5325
   74SOL    HW1  221   0.142   1.812   2.072  0.0564 -0.1917  0.2947
   74SOL    HW2  222   0.241   1.899   1.961  0.4265 -0.7065  0.8544
   75SOL     OW  223   1.656   1.694   1.481  0.6367 -0.5202  0.5295
   75SOL    HW1  224   1.691   1.687   1.575 -0.4229 -1.2144 -1.6653
   75SOL    HW2  225   1.571   1.637   1.473 -1.9431 -2.5718 -0.5781
   76SOL     OW  226   1.581   2.211   1.060  0.4483  0.4497  0.2160
   76SOL    HW1  227   1.581   2.222   0.958  0.0175  0.5468 -0.8505
   76SOL    HW2  228   1.489   2.223   1.096 -0.3422 -0.0874 -3.0583
   77SOL     OW  229   2.429   1.703   1.967 -0.2278 -0.1570  0.0625
   77SOL    HW1  230   2.438   1.737   2.062  1.2809  0.4393  3.9641
   77SOL    HW2  231   2.365   1.763   1.916  2.7347 -1.0155  1.2165
   78SOL     OW  232   1.475   0.694   0.574 -0.2277 -0.0627 -0.7156
   78SOL    HW1  233   1.407   0.709   0.498 -0.3105  0.9717  1.4691
   78SOL    HW2  234   1.478   0.600   0.608 -3.1280  2.8553  0.3892
   79SOL     OW  235   2.218   1.946   1.591 -0.4074  0.1147  0.0242
   79SOL    HW1  236   2.256   1.913   1.498  0.2328 -0.0331 -0.6061
   79SOL    HW2  237   2.237   2.047   1.604 -1.9941 -0.2866  0.7747
   80SOL     OW  238   0.997   0.283   1.373 -0.4642  0.6100  0.4038
   80SOL    HW1  239   1.060   0.363   1.401  0.1525  2.7170 -0.1929
   80SOL    HW2  240   0.927   0.317   1.310 -2.1793  1.6282  0.9924
   81SOL     OW  241   0.605   2.602   0.583  0.4402 -0.1025  0.2979
   81SOL    HW1  242   0.701   2.558   0.600  2.2519  0.2233 -0.3483
   81SOL    HW2  243   0.577   2.669   0.652  0.1654  0.7523 -1.4562
   82SOL     OW  244   1.342   0.205   1.644 -0.6476  0.0785 -0.0629
   82SOL    HW1  245   1.254   0.227   1.691 -0.9936  3.6904 -0.8638
   82SOL    HW2  246   1.316   0.171   1.552 -1.6779  1.2439 -0.2672
   83SOL     OW  247   0.601   1.783   0.604  0.2398  0.4278 -0.4328
   83SOL    HW1  248   0.658   1.828   0.677 -1.4942 -1.5506 -0.5277
   83SOL    HW2  249   0.653   1.771   0.517 -0.1842 -0.2385  0.5152
   84SOL     OW  250   2.674   1.279   0.223  0.3373  0.5646  0.1442
   84SOL    HW1  251   2.581   1.267   0.262 -1.0688  0.1821  0.8209
   84SOL    HW2  252   2.703   1.211   0.153  2.0664 -0.1379 -2.3712
   85SOL     OW  253   2.824   2.570   1.548 -0.4286  0.3504 -0.2613
   85SOL    HW1  254   2.800   2.546   1.646 -2.8546 -3.5016 -0.0856
   85SOL    HW2  255   2.826   2.482   1.492  1.0061 -0.5593 -2.1508
   86SOL     OW  256   1.697   2.796   1.049 -0.3416 -0.3468  0.1324
   86SOL    HW1  257   1.709   2.717   1.122  1.0085 -2.5609  1.8524
   86SOL    HW2  258   1.669   2.753   0.962  0.9400 -0.1321 -1.9863
   87SOL     OW  259   2.806   1.621   0.647 -0.4528  0.4293  0.1900
   87SOL    HW1  260   2.806   1.578   0.553 -2.4010  0.8868 -1.3930
   87SOL    HW2  261   2.730   1.686   0.651  1.6564 -0.2415 -0.8777
   88SOL     OW  262   0.961   0.567   1.217 -0.4996 -0.4167 -0.0662
   88SOL    HW1  263   0.901   0.645   1.251 -1.2786  0.7237 -0.4171
   88SOL    HW2  264   0.913   0.481   1.224  1.1433  3.1787 -2.9918
   89SOL     OW  265   0.656   2.688   1.976 -0.0005 -0.1971 -0.9951
   89SOL    HW1  266   0.718   2.682   1.895  2.8998  0.9728  2.5552
   89SOL    HW2  267   0.560   2.703   1.942  0.7331  0.4568  0.5910
   90SOL     OW  268   3.073   1.995   1.305  0.0489 -0.5596  0.1024
   90SOL    HW1  269   0.070   2.005   1.271 -0.4629  3.9365  0.0749
   90SOL    HW2  270   3.014   2.026   1.224  0.9229  0.6482 -1.4584
   91SOL     OW  271   1.255   1.830   0.989 -0.4395 -0.0004 -0.2223
   91SOL    HW1  272   1.223   1.901   0.919  0.1442 -0.6641 -1.5069
   91SOL    HW2  273   1.202   1.744   0.981  0.1385  0.0562 -0.0180
   92SOL     OW  274   2.909   2.818   1.896  0.0199  0.7565 -0.2447
   92SOL    HW1  275   3.011   2.825   1.903  0.2217  0.6098  1.2610
   92SOL    HW2  276   2.856   2.898   1.931 -0.5176  1.0116 -0.0700
   93SOL     OW  277   2.904   1.270   3.054 -0.0335  0.3792  0.0697
   93SOL    HW1  278   2.977   1.252   2.987 -0.3621  1.7481 -0.0664
   93SOL    HW2  279   2.866   1.184   3.095 -1.1438 -0.1957  1.1003
   94SOL     OW  280   2.563   2.976   1.884 -0.0995 -0.0368 -0.3085
   94SOL    HW1  281   2.478   2.999   1.937 -3.2951  2.3454  0.4923
   94SOL    HW2  282   2.645   3.018   1.930 -1.0051  0.9132 -1.1530
   95SOL     OW  283   1.446   0.577   1.824  0.2228 -0.2036 -0.5861
   95SOL    HW1  284   1.349   0.556   1.804 -1.4462 -2.5713 -0.2199
   95SOL    HW2  285   1.502   0.520   1.763  3.1457 -1.7090 -1.0800
   96SOL     OW  286   2.341   0.565   1.890 -0.4248  0.7466 -0.2908
   96SOL    HW1  287   2.355   0.658   1.928  0.7727  1.4652 -0.6791
   96SOL    HW2  288   2.420   0.539   1.829  1.6508  0.0702  1.7264
   97SOL     OW  289   2.619   2.929   1.593  0.1436  0.2376  0.1772
   97SOL    HW1  290   2.704   2.866   1.583  3.7615  1.5086 -0.9094
   97SOL    HW2  291   2.587   2.931   1.690 -0.6946  1.7790  0.0695
   98SOL     OW  292   2.056   2.807   1.345 -0.0845  0.2332  0.1192
   98SOL    HW1  293   2.112   2.795   1.432  0.9677  1.6763 -1.7353
   98SOL    HW2  294   1.985   2.880   1.351 -4.4509  1.4292 -0.4069
   99SOL     OW  295   2.703   0.207   1.746  0.1145  0.3970 -0.0321
   99SOL    HW1  296   2.748   0.295   1.741  3.3214 -3.5220 -3.1074
   99SOL    HW2  297   2.750   0.145   1.678 -0.6236  1.2591  1.7751
  100SOL     OW  298   2.015   1.493   1.993 -0.5033 -0.4117 -0.8043
  100SOL    HW1  299   2.016   1.532   2.089 -0.4376 -0.8396 -0.3837
  100SOL    HW2  300   2.004   1.389   1.991  0.7118 -0.4703  0.1578
  101SOL     OW  301   2.063   0.106   0.291  0.1698  0.4484  0.1690
  101SOL    HW1  302   2.142   0.115   0.355 -0.8346 -0.9567 -1.8964
  101SOL    HW2  303   1.979   0.127   0.339  0.9483  0.7859 -1.6563
  102SOL     OW  304   0.603   0.596   1.434 -0.0317  0.1510 -0.3016
  102SOL    HW1  305   0.522   0.637   1.480 -1.2797  0.4055  0.1970
  102SOL    HW2  306   0.585   0.507   1.387  1.1720  0.5216  0.9336
  103SOL     OW  307   2.428   0.035   2.653  0.0963 -0.4781 -0.0926
  103SOL    HW1  308   2.515   0.062   2.699 -1.8508  1.7992 -1.9294
  103SOL    HW2  309   2.343   0.037   2.704 -0.3193  0.3548 -0.8974
  104SOL     OW  310   0.149   2.865   1.760 -0.2783 -0.0225 -0.3863
  104SOL    HW1  311   0.166   2.770   1.786 -0.0657 -2.1656 -1.1057
  104SOL    HW2  312   0.102   2.869   1.673 -1.4592 -1.4158  2.0244
  105SOL     OW  313   1.392   0.696   2.069  0.3157 -0.2582 -0.2783
  105SOL    HW1  314   1.393   0.796   2.048  2.4461 -0.3246 -0.3838
  105SOL    HW2  315   1.414   0.635   1.990  0.0598  1.7608  2.3422
  106SOL     OW  316   1.624   0.230   0.719 -0.1767  0.1361  0.1327
  106SOL    HW1  317   1.660   0.267   0.807 -0.8928  1.9596 -0.7236
  106SOL    HW2  318   1.704   0.183   0.671 -0.6993  0.5139 -2.2478
  107SOL     OW  319   0.516   1.146   1.182 -0.0298 -0.3688  0.2034
  107SOL    HW1  320   0.429   1.127   1.233  0.2994  1.7807  0.3260
  107SOL    HW2  321   0.573   1.068   1.153  0.2417  1.0995 -0.7167
  108SOL     OW  322   2.810   0.362   2.324 -0.0664 -0.3549 -0.0718
  108SOL    HW1  323   2.839   0.328   2.231 -1.1753 -2.0001 -2.5245
  108SOL    HW2  324   2.873   0.321   2.395  0.8390  0.0237  1.0549
  109SOL     OW  325   1.992   0.187   0.050 -0.2250 -0.2239  0.1410
  109SOL    HW1  326   2.026   0.151   0.140  1.4247  1.0604 -0.1637
  109SOL    HW2  327   1.932   0.127   3.095  1.0141  3.8829  1.7668
  110SOL     OW  328   3.008   1.901   3.005  0.2111  0.4012  0.2047
  110SOL    HW1  329   3.078   1.958   2.955 -0.5614  0.6429 -0.9224
  110SOL    HW2  330   3.034   1.801   3.011  1.0291  1.2918  0.3955
  111SOL     OW  331   2.290   0.079   2.412  0.2593 -0.0679 -0.3917
  111SOL    HW1  332   2.194   0.064   2.432  1.9138 -0.1876 -3.9114
  111SOL    HW2  333   2.354   0.065   2.491 -0.5487  2.9766 -1.2236
  112SOL     OW  334   2.504   2.831   1.315  0.2850 -0.3230 -0.0729
  112SOL    HW1  335   2.596   2.813   1.276 -1.4278 -1.0073 -0.3958
  112SOL    HW2  336   2.515   2.881   1.406  1.4876  1.8024  1.4900
  113SOL     OW  337   2.532   2.364   1.993 -0.1877 -0.4871  0.4034
  113SOL    HW1  338   2.564   2.386   1.901  2.8578 -1.9384  3.2485
  113SOL    HW2  339   2.460   2.431   2.014  0.4329 -2.4964 -1.1859
  114SOL     OW  340   2.750   0.078   0.577  0.2439 -0.2595  0.1453
  114SOL    HW1  341   2.718   3.088   0.612  2.1179  0.3475  0.6044
  114SOL    HW2  342   2.799   0.131   0.649  0.6450 -0.3108 -0.3100
  115SOL     OW  343   2.757   1.736   0.159 -0.4429  0.3947 -0.3131
  115SOL    HW1  344   2.793   1.718   0.250 -1.7652  3.2642 -0.8964
  115SOL    HW2  345   2.714   1.650   0.123  0.3671 -0.0419  1.0408
  116SOL     OW  346   0.272   1.345   2.037  0.2413 -0.1736  0.0355
  116SOL    HW1  347   0.348   1.408   2.052  1.0653 -1.3851 -2.3962
  116SOL    HW2  348   0.203   1.395   1.984 -0.9134  0.1510  0.5155
  117SOL     OW  349   2.298   3.069   1.030 -0.4423 -0.0942 -0.1360
  117SOL    HW1  350   2.309   2.977   0.982 -0.6799 -1.9164  0.9711
  117SOL    HW2  351   2.268   3.057   1.130 -1.5923  1.0095  1.2703
  118SOL     OW  352   0.234   2.152   1.728 -0.7391  0.2963  0.1428
  118SOL    HW1  353   0.205   2.059   1.701 -1.9785 -0.3733 -0.7972
  118SOL    HW2  354   0.293   2.185   1.648  2.2585  1.2882 -0.0118
  119SOL     OW  355   1.128   2.285   1.396 -0.0590  0.9946 -0.5291
  119SOL    HW1  356   1.072   2.253   1.471 -1.0594  2.0026  1.9829
  119SOL    HW2  357   1.075   2.337   1.329  0.3633 -0.1215 -4.7475
  120SOL     OW  358   0.273   1.919   1.461  0.0093 -0.2732 -0.1703
  120SOL    HW1  359   0.218   1.908   1.549 -0.1169  1.1800  0.0630
  120SOL    HW2  360   0.370   1.941   1.485 -3.3431  1.1421  0.5966
  121SOL     OW  361   2.441   1.380   1.084 -0.0678 -0.0562  0.1970
  121SOL    HW1  362   2.411   1.380   1.183  0.1205 -0.5443 -0.7861
  121SOL    HW2  363   2.365   1.389   1.018  2.1965  0.7983  2.5883
  122SOL     OW  364   2.133   1.697   2.705 -0.1241  0.4914 -0.5381
  122SOL    HW1  365   2.063   1.686   2.782 -2.7694 -1.3915  0.8081
  122SOL    HW2  366   2.146   1.794   2.665  0.1642  0.0968  0.3254
  123SOL     OW  367   2.712   2.808   0.517 -0.3698 -0.3565 -0.3048
  123SOL    HW1  368   2.728   2.712   0.544 -1.6307  3.2456 -1.3312
  123SOL    HW2  369   2.706   2.867   0.602  0.5118 -0.2159  0.1511
  124SOL     OW  370   1.249   1.328   3.017 -0.0410  0.5729 -0.1588
  124SOL    HW1  371   1.185   1.352   3.098 -3.1043  0.2088 -1.3695
  124SOL    HW2  372   1.205   1.254   2.966 -1.5888 -0.7909 -1.0277
  125SOL     OW  373   0.132   1.462   2.808 -0.0407  0.2927  0.4132
  125SOL    HW1  374   0.172   1.515   2.736  1.8816  0.5814  0.0384
  125SOL    HW2  375   0.210   1.406   2.846 -0.7310  0.2511  0.1577
  126SOL     OW  376   0.093   2.378   0.198  0.5745  0.5394  0.0359
  126SOL    HW1  377   0.186   2.373   0.244 -0.7922  0.4536 -0.1380
  126SOL    HW2  378   0.024   2.317   0.237  1.1091  0.8605 -2.0660
  127SOL     OW  379   0.134   1.590   0.708 -0.3093  0.6162 -0.2560
  127SOL    HW1  380   0.099   1.497   0.736 -0.2611  2.0003 -0.4063
  127SOL    HW2  381   0.147   1.586   0.608 -1.4432 -2.6420  1.5160
  128SOL     OW  382   1.154   1.245   0.326  0.1984  0.2036 -0.0592
  128SOL    HW1  383   1.083   1.220   0.391  1.1550 -0.1428 -5.5867
  128SOL    HW2  384   1.204   1.158   0.295 -1.3987  0.1604 -1.1253
  129SOL     OW  385   2.066   1.868   1.295  0.4288 -0.1733  0.0712
  129SOL    HW1  386   2.041   1.963   1.297 -1.5533 -0.4987  0.7378
  129SOL    HW2  387   2.169   1.863   1.291 -1.5978 -0.3604 -1.4091
  130SOL     OW  388   1.930   1.127   0.436  0.0279  0.1497 -0.8704
  130SOL    HW1  389   2.008   1.064   0.421  1.2861  0.3537 -0.6511
  130SOL    HW2  390   1.919   1.140   0.538  0.1427  1.3896  0.0707
  131SOL     OW  391   2.683   1.041   2.732 -0.2909  0.3387  0.3397
  131SOL    HW1  392   2.701   0.975   2.805 -2.3854 -1.0731  1.3909
  131SOL    HW2  393   2.620   1.004   2.660  1.0242  1.2814 -1.7606
  132SOL     OW  394   1.666   1.625   2.032  0.0031  0.5582  0.2914
  132SOL    HW1  395   1.671   1.667   1.938 -1.0381 -0.0482  2.8190
  132SOL    HW2  396   1.670   1.706   2.099  1.0800  0.2868  2.1001
  133SOL     OW  397   3.095   1.377   0.146  0.0088 -0.2013 -0.1098
  133SOL    HW1  398   3.016   1.353   0.090  1.2375  0.0689  0.6630
  133SOL    HW2  399   3.087   1.329   0.237 -0.7244 -1.1357  0.4238
  134SOL     OW  400   2.757   0.834   0.615  0.0956 -0.0006 -0.0218
  134SOL    HW1  401   2.694   0.812   0.541  0.6416  2.5157 -1.0726
  134SOL    HW2  402   2.845   0.782   0.607 -1.6474  0.3149 -2.6713
  135SOL     OW  403   2.363   0.798   0.112  0.2960  0.2303 -0.5444
  135SOL    HW1  404   2.338   0.741   0.035 -0.4065  0.3399  2.2309
  135SOL    HW2  405   2.288   0.864   0.133 -1.4325  0.8084  3.5025
  136SOL     OW  406   1.954   1.968   1.614  0.1332 -0.3615 -0.0335
  136SOL    HW1  407   1.920   1.958   1.712 -2.2481 -1.1002  1.3756
  136SOL    HW2  408   2.044   1.924   1.605  1.6501  0.6649 -1.2044
  137SOL     OW  409   2.491   2.578   0.570 -0.1392 -0.0359 -0.3382
  137SOL    HW1  410   2.588   2.551   0.575 -1.8367 -0.9620 -0.9254
  137SOL    HW2  411   2.426   2.520   0.626  0.0781 -1.3637  1.5016
  138SOL     OW  412   2.396   0.377   1.499  0.2249 -0.3000  0.2029
  138SOL    HW1  413   2.301   0.417   1.512 -0.3554  2.5192 -0.1951
  138SOL    HW2  414   2.463   0.409   1.572  0.4509  2.3762  1.8149
  139SOL     OW  415   2.643   0.074   2.824 -0.2030  0.1583  0.2439
  139SOL    HW1  416   2.641   0.023   2.912  1.8847  0.7593 -0.6549
  139SOL    HW2  417   2.663   0.172   2.838 -2.1240  0.2986 -1.3101
  140SOL     OW  418   1.254   1.328   2.451  0.7287  0.1341  0.0169
  140SOL    HW1  419   1.293   1.369   2.362  0.7099  0.3898 -4.4896
  140SOL    HW2  420   1.300   1.361   2.534 -0.5406  0.6199 -0.0186
  141SOL     OW  421   0.719   0.613   2.319 -0.3062  0.1494  0.3261
  141SOL    HW1  422   0.658   0.624   2.239 -0.4531 -2.4361  1.9324
  141SOL    HW2  423   0.796   0.548   2.297  4.0558 -2.2188 -0.8731
  142SOL     OW  424   2.432   2.777   2.977 -0.2285 -0.4886  0.0264
  142SOL    HW1  425   2.416   2.831   3.064 -0.9423  0.9119  3.6605
  142SOL    HW2  426   2.484   2.834   2.918 -2.1931 -1.4716  3.7206
  143SOL     OW  427   0.986   2.134   0.444  0.1174 -0.8357 -0.3660
  143SOL    HW1  428   0.885   2.152   0.433 -1.7358 -2.0564 -3.2521
  143SOL    HW2  429   1.006   2.072   0.520 -0.9445  1.6152  0.5833
  144SOL     OW  430   1.291   2.538   3.094  0.3467 -0.7264  0.0986
  144SOL    HW1  431   1.232   2.471   3.043  0.3727 -1.2429 -0.8986
  144SOL    HW2  432   1.230   2.587   0.062 -1.6012  2.5715  2.5303
  145SOL     OW  433   1.812   2.187   2.484  0.1353 -0.1902 -0.1891
  145SOL    HW1  434   1.872   2.134   2.547  2.0648  0.9455 -1.5513
  145SOL    HW2  435   1.741   2.136   2.429 -1.5939  0.5170 -1.1793
  146SOL     OW  436   2.838   2.838   2.907 -0.2294  0.2631 -0.2653
  146SOL    HW1  437   2.827   2.848   3.006 -0.4761 -0.5185  0.8838
  146SOL    HW2  438   2.776   2.761   2.873 -0.2398 -1.8615 -2.9394
  147SOL     OW  439   3.051   1.488   1.303  0.0613 -0.3282 -0.4740
  147SOL    HW1  440   3.097   1.578   1.323  3.1205  1.1644 -0.2890
  147SOL    HW2  441   2.967   1.510   1.243  0.7713 -0.3909 -0.2174
  148SOL     OW  442   1.843   2.898   0.067 -0.0997 -0.3716  0.0962
  148SOL    HW1  443   1.789   2.922   0.152  0.2079  2.8406  0.7938
  148SOL    HW2  444   1.859   2.980   0.008  0.7143 -0.6850  1.5433
  149SOL     OW  445   0.656   1.837   2.692  0.3640  0.8063  0.1410
  149SOL    HW1  446   0.595   1.760   2.712  3.3951 -3.0584 -1.6965
  149SOL    HW2  447   0.617   1.933   2.702  1.5271  1.7692  0.0452
  150SOL     OW  448   0.383   2.321   0.292 -0.0896  0.5609 -0.0443
  150SOL    HW1  449   0.378   2.251   0.216  1.4459 -1.3868 -0.6621
  150SOL    HW2  450   0.455   2.391   0.267 -1.2060 -0.0136  0.2392
  151SOL     OW  451   0.434   1.162   0.157  0.0852 -0.1690  0.3522
  151SOL    HW1  452   0.399   1.109   0.234  0.6420 -0.8675  1.0966
  151SOL    HW2  453   0.360   1.205   0.105  0.1044  1.8291 -4.6150
  152SOL     OW  454   2.603   1.818   0.626  0.1703 -0.5102 -0.9001
  152SOL    HW1  455   2.507   1.855   0.617 -1.2237 -0.7151 -0.0378
  152SOL    HW2  456   2.671   1.875   0.572  2.3305  0.5220 -1.8635
  153SOL     OW  457   1.924   2.280   0.487  0.0003 -0.2493 -0.7255
  153SOL    HW1  458   1.985   2.321   0.417 -2.0542  3.7429  0.2612
  153SOL    HW2  459   1.898   2.351   0.557  1.8117  3.6302  4.1960
  154SOL     OW  460   0.840   2.669   0.969  0.1324 -0.0641  0.0984
  154SOL    HW1  461   0.846   2.717   0.877 -0.2835  1.6657 -1.2975
  154SOL    HW2  462   0.746   2.644   0.989  0.4104  1.8547 -1.9449
  155SOL     OW  463   2.942   1.682   0.902  0.0098 -0.1211  0.0076
  155SOL    HW1  464   2.898   1.650   0.812 -1.6880  0.4262  1.7667
  155SOL    HW2  465   3.038   1.716   0.886 -0.3776  0.6358 -0.0318
  156SOL     OW  466   2.638   2.345   0.106 -0.3281 -0.1055 -0.8342
  156SOL    HW1  467   2.633   2.272   0.040  0.4726  0.6884  0.5924
  156SOL    HW2  468   2.714   2.324   0.168 -1.0764 -3.1665 -1.7994
  157SOL     OW  469   0.552   1.975   1.479  0.4237  0.2242  0.1235
  157SOL    HW1  470   0.632   1.943   1.538  1.7851 -1.1278 -1.4768
  157SOL    HW2  471   0.574   1.949   1.384 -3.0276 -0.6476  1.4507
  158SOL     OW  472   1.701   0.810   0.190  0.1704 -0.2582  0.0975
  158SOL    HW1  473   1.631   0.739   0.169  2.0931  1.5744 -0.4623
  158SOL    HW2  474   1.783   0.797   0.134 -3.2837 -0.4776  0.0941
  159SOL     OW  475   1.122   0.895   0.101  0.2984 -0.8368  1.2554
  159SOL    HW1  476   1.032   0.912   0.150 -1.0324 -0.9735  0.2954
  159SOL    HW2  477   1.111   0.812   0.044  0.0615  1.1789  2.3900
  160SOL     OW  478   0.755   1.305   0.490  0.1637  0.5618 -0.4522
  160SOL    HW1  479   0.693   1.347   0.558 -1.6869 -0.6773 -0.6837
  160SOL    HW2  480   0.850   1.297   0.531 -0.2784 -2.2700  0.3784
  161SOL     OW  481   0.188   2.212   2.519 -0.1764  0.2160  0.3212
  161SOL    HW1  482   0.094   2.193   2.559 -0.7114  1.0429  1.1956
  161SOL    HW2  483   0.255   2.220   2.597  3.6635  0.2449 -2.4340
  162SOL     OW  484   0.013   2.417   0.899 -0.3120 -0.0531 -0.0981
  162SOL    HW1  485   0.027   2.348   0.971  1.5733  0.8443 -0.1973
  162SOL    HW2  486   0.020   2.371   0.804  1.2039  0.2486 -4.0325
  163SOL     OW  487   2.880   0.492   2.708  0.2046  0.4608  0.1962
  163SOL    HW1  488   2.862   0.591   2.689 -0.5722  1.8039 -0.8377
  163SOL    HW2  489   2.959   0.474   2.770 -0.4474  0.1380  0.1427
  164SOL     OW  490   0.579   0.075   2.813  0.2714  0.0959 -0.1055
  164SOL    HW1  491   0.533   0.011   2.880 -2.5400 -1.5980 -0.1434
  164SOL    HW2  492   0.576   0.041   2.718  0.8611 -0.7729  1.9546
  165SOL     OW  493   2.131   0.552   1.740  0.0758  0.3793  0.0151
  165SOL    HW1  494   2.043   0.524   1.801 -2.3027 -3.5161  3.0198
  165SOL    HW2  495   2.218   0.550   1.795  0.4062 -0.3264 -1.3810
  166SOL     OW  496   2.049   2.533   1.673 -0.0993  0.1263 -0.0269
  166SOL    HW1  497   2.041   2.434   1.667  1.4083  0.0497  2.5056
  166SOL    HW2  498   1.994   2.573   1.750  1.4534 -1.3586 -0.8907
  167SOL     OW  499   1.193   0.990   2.199  0.0702 -0.1343 -0.0092
  167SOL    HW1  500   1.182   1.024   2.294  0.5117 -1.5749 -0.3237
  167SOL    HW2  501   1.126   0.918   2.180  0.0812  3.6881  0.8616
  168SOL     OW  502   2.334   3.068   2.007  0.2103  0.4096 -0.4223
  168SOL    HW1  503   2.255   0.025   2.006  3.5166  0.1267 -1.9567
  168SOL    HW2  504   2.400   0.015   2.068  0.4314 -1.6600 -1.1945
  169SOL     OW  505   0.347   1.000   0.343  0.1357  0.3778  0.2318
  169SOL    HW1  506   0.282   0.979   0.418 -0.0796  0.1787 -0.3703
  169SOL    HW2  507   0.297   0.975   0.250 -1.4241  2.7987 -1.8274
  170SOL     OW  508   0.101   1.499   1.890 -0.0327 -0.7801 -0.3595
  170SOL    HW1  509   0.132   1.575   1.828  0.3399  2.0084 -1.0064
  170SOL    HW2  510   0.003   1.507   1.915  0.8550 -0.5666 -3.1501
  171SOL     OW  511   1.121   2.304   2.162  0.2681  0.4786 -0.0346
  171SOL    HW1  512   1.034   2.303   2.107 -0.0332  1.4631 -1.0205
  171SOL    HW2  513   1.100   2.335   2.261 -0.3599  1.0333  2.3247
  172SOL     OW  514   0.872   2.341   2.036 -0.1649 -0.2734 -0.0130
  172SOL    HW1  515   0.874   2.375   1.938  1.6358  0.9480  0.5866
  172SOL    HW2  516   0.866   2.422   2.097  1.1400  1.6007  1.6898
  173SOL     OW  517   1.369   2.564   0.889  0.0790  0.3008 -0.0702
  173SOL    HW1  518   1.473   2.565   0.876  2.4700  1.2151  1.7673
  173SOL    HW2  519   1.333   2.623   0.820  0.5741 -0.4943  0.4926
  174SOL     OW  520   2.277   0.117   0.451 -0.1857  0.0208  0.3639
  174SOL    HW1  521   2.267   0.113   0.552  0.2718  1.6151 -4.8241
  174SOL    HW2  522   2.305   0.210   0.417 -2.2671 -0.0643 -3.1258
  175SOL     OW  523   1.100   1.760   0.343 -0.3882  0.4923  0.0694
  175SOL    HW1  524   1.195   1.785   0.371 -1.1477  2.0994  0.5157
  175SOL    HW2  525   1.098   1.656   0.338 -1.4396 -1.3301  1.1398
  176SOL     OW  526   0.698   1.495   0.690  0.5164 -0.0613 -0.4274
  176SOL    HW1  527   0.726   1.474   0.787 -0.4791 -3.3130 -1.4956
  176SOL    HW2  528   0.595   1.522   0.676 -4.1782  0.5486 -0.6527
  177SOL     OW  529   1.287   1.187   1.316  0.3006  0.0959 -0.1807
  177SOL    HW1  530   1.282   1.203   1.219  1.1715 -2.2270  3.8370
  177SOL    HW2  531   1.365   1.126   1.348 -0.3424  2.3348 -1.3589
  178SOL     OW  532   2.429   1.613   0.451 -0.2548  0.5647 -0.0298
  178SOL    HW1  533   2.521   1.569   0.470  3.0488  1.3777  2.0656
  178SOL    HW2  534   2.395   1.581   0.358  2.6132  0.5094 -2.7997
  179SOL     OW  535   1.121   2.392   2.950  0.2911 -0.3118  0.6387
  179SOL    HW1  536   1.046   2.340   2.994 -2.7737  3.0915 -1.9178
  179SOL    HW2  537   1.094   2.446   2.864 -1.5733  1.3092 -1.6656
  180SOL     OW  538   1.940   1.550   1.752  0.1006 -0.4785 -0.2903
  180SOL    HW1  539   1.988   1.531   1.843  0.4546 -0.0305  4.2778
  180SOL    HW2  540   2.005   1.541   1.671 -0.0407  1.4439 -3.3159
  181SOL     OW  541   0.834   1.044   2.354 -0.1318  0.0507 -0.2264
  181SOL    HW1  542   0.855   1.041   2.254 -0.0621  0.6228  2.0795
  181SOL    HW2  543   0.840   0.953   2.404  1.1881 -0.4376  0.6207
  182SOL     OW  544   2.704   0.894   2.266  0.3044  0.1382 -0.1367
  182SOL    HW1  545   2.635   0.887   2.348 -0.6692  1.6315 -0.1546
  182SOL    HW2  546   2.780   0.826   2.274  1.8421  1.1803  2.6528
  183SOL     OW  547   1.498   0.516   2.237  0.2088  0.3640 -0.0932
  183SOL    HW1  548   1.566   0.494   2.163  0.9415  0.5595  1.3415
  183SOL    HW2  549   1.439   0.592   2.205  0.5844 -2.9991 -2.4797
  184SOL     OW  550   0.327   0.725   1.837 -0.4158 -0.0436 -0.0747
  184SOL    HW1  551   0.318   0.677   1.921  0.4593 -0.4311 -5.0485
  184SOL    HW2  552   0.420   0.740   1.807 -1.3807  0.2186 -1.0928
  185SOL     OW  553   2.201   1.968   0.748 -0.5630  0.1166  0.8120
  185SOL    HW1  554   2.252   1.928   0.664  1.8740 -1.2209 -2.3797
  185SOL    HW2  555   2.197   1.900   0.825 -3.0335 -1.5025  0.3290
  186SOL     OW  556   0.395   1.893   0.051 -0.2277  0.0819  0.3955
  186SOL    HW1  557   0.475   1.901   3.090 -0.5234  0.9397  0.3099
  186SOL    HW2  558   0.418   1.847   0.143  0.8223 -0.4117 -0.5328
  187SOL     OW  559   2.387   1.791   0.047 -0.2319  0.0270 -0.1599
  187SOL    HW1  560   2.468   1.841   0.085 -1.7710 -1.5047 -0.5972
  187SOL    HW2  561   2.401   1.763   3.050 -0.2953  0.8196  0.2274
  188SOL     OW  562   0.925   2.375   0.915 -0.4660 -0.2249 -0.3357
  188SOL    HW1  563   1.029   2.383   0.890  0.7794  2.4051 -0.4904
  188SOL    HW2  564   0.900   2.467   0.952  0.4024 -0.4507  0.5497
  189SOL     OW  565   1.858   1.055   2.585  0.5138 -0.4159  0.1435
  189SOL    HW1  566   1.857   0.968   2.528 -0.0912 -1.3479 -1.3040
  189SOL    HW2  567   1.955   1.086   2.618  2.3951 -0.1138 -0.0857
  190SOL     OW  568   0.958   1.995   2.300 -0.3678 -0.1490  0.1922
  190SOL    HW1  569   0.938   1.893   2.310 -2.2422 -2.7718  0.2195
  190SOL    HW2  570   0.932   2.041   2.391 -1.1121 -0.2584  1.6044
  191SOL     OW  571   2.284   0.705   1.417 -0.5891  0.1495 -0.4071
  191SOL    HW1  572   2.246   0.761   1.499 -2.8646 -0.5506 -1.2607
  191SOL    HW2  573   2.240   0.614   1.432  0.6880 -1.1693  0.5875
  192SOL     OW  574   2.322   0.358   2.411  0.1147  0.2833  0.2531
  192SOL    HW1  575   2.283   0.408   2.490  4.0524  0.2939  1.8438
  192SOL    HW2  576   2.317   0.255   2.419  2.0279 -1.0220 -0.5159
  193SOL     OW  577   0.891   0.316   0.710 -0.2193  0.1261  0.2410
  193SOL    HW1  578   0.928   0.248   0.637  0.4069 -4.7411 -1.2111
  193SOL    HW2  579   0.903   0.272   0.799 -1.9248  1.9566 -1.4427
  194SOL     OW  580   1.405   2.409   1.773  0.2874  0.2567  0.3870
  194SOL    HW1  581   1.346   2.328   1.767 -0.5477  1.0732  2.0061
  194SOL    HW2  582   1.356   2.494   1.740  2.4921  0.3931  0.1078
  195SOL     OW  583   2.736   0.800   0.932  0.1870 -0.1376  0.4116
  195SOL    HW1  584   2.657   0.827   0.995  0.0237 -0.4249 -0.4951
  195SOL    HW2  585   2.725   0.847   0.843 -1.1475  0.4109 -0.2886
  196SOL     OW  586   1.236   1.889   1.730  0.3184 -0.2348 -0.4484
  196SOL    HW1  587   1.208   1.885   1.633  0.8872  1.5410  1.6528
  196SOL    HW2  588   1.155   1.880   1.793 -0.2540 -1.4184  0.4258
  197SOL     OW  589   0.326   0.869   2.409  0.1304  0.1576  0.0488
  197SOL    HW1  590   0.365   0.897   2.319  2.7162  0.6284 -0.9011
  197SOL    HW2  591   0.234   0.820   2.401 -0.7051 -0.9975 -0.0207
  198SOL     OW  592   1.558   1.031   0.143 -0.2719 -0.4708  0.2362
  198SOL    HW1  593   1.603   0.942   0.163 -0.0393  4.5243  0.6322
  198SOL    HW2  594   1.610   1.116   0.167 -0.3043  1.7311 -0.9827
  199SOL     OW  595   2.654   0.608   2.088  0.1256 -0.3425  0.4801
  199SOL    HW1  596   2.702   0.636   2.179  2.4967 -0.1029  1.2440
  199SOL    HW2  597   2.570   0.663   2.078  1.2977  0.0725  2.3829
  200SOL     OW  598   2.303   2.446   2.450 -0.1435 -0.2781  0.2555
  200SOL    HW1  599   2.376   2.512   2.426 -1.7849 -1.9144  1.7473
  200SOL    HW2  600   2.322   2.408   2.542 -0.4569  2.1706  0.0717
  201SOL     OW  601   2.399   0.129   1.429  0.0656 -0.4244 -0.5028
  201SOL    HW1  602   2.386   0.231   1.447 -0.1131 -0.2469 -2.6671
  201SOL    HW2  603   2.376   0.074   1.514  2.2857 -0.3855  1.2244
  202SOL     OW  604   2.308   2.900   0.088 -0.2463 -0.3209  0.2132
  202SOL    HW1  605   2.353   2.950   0.163  1.1875  2.7079 -0.2857
  202SOL    HW2  606   2.217   2.869   0.124  1.6651 -0.2875 -2.6783
  203SOL     OW  607   0.866   2.090   2.518 -0.3102  0.0551  0.1546
  203SOL    HW1  608   0.765   2.080   2.545 -1.9401 -1.5166 -0.2195
  203SOL    HW2  609   0.920   2.121   2.595 -1.7994  0.4826 -0.6117
  204SOL     OW  610   0.765   1.440   2.624 -0.2736  0.5220 -0.5782
  204SOL    HW1  611   0.720   1.446   2.715  4.0573 -1.4798 -0.1211
  204SOL    HW2  612   0.844   1.377   2.626  0.1109  0.9175  2.0479
  205SOL     OW  613   0.936   1.070   1.119  0.6144  0.1352 -0.6765
  205SOL    HW1  614   1.020   1.024   1.162 -0.7637  0.1813 -1.1734
  205SOL    HW2  615   0.953   1.165   1.093 -0.1867 -3.0236 -0.7317
  206SOL     OW  616   3.097   0.825   2.629 -0.3013  0.5635 -0.5485
  206SOL    HW1  617   3.054   0.914   2.598 -0.6908  0.1781  1.0570
  206SOL    HW2  618   0.055   0.780   2.560  0.9928  0.0621  2.2975
  207SOL     OW  619   1.918   2.323   1.966 -0.7937  0.0753  0.3629
  207SOL    HW1  620   1.935   2.423   1.956  1.4380  1.9343 -0.8079
  207SOL    HW2  621   1.844   2.310   1.901  0.9403  2.1559  1.0221
  208SOL     OW  622   1.065   2.670   1.480 -0.2318  0.7403  0.0749
  208SOL    HW1  623   1.005   2.585   1.452 -1.7074 -0.1597  2.4179
  208SOL    HW2  624   1.125   2.691   1.405  0.3362 -1.2973 -3.5592
  209SOL     OW  625   1.387   1.556   2.923 -0.2195 -0.3869 -0.1975
  209SOL    HW1  626   1.326   1.474   2.928 -0.6088  1.2874  0.7416
  209SOL    HW2  627   1.482   1.540   2.888 -2.0196 -2.2832 -1.4983
  210SOL     OW  628   2.257   0.664   0.998 -0.3545 -0.7706  0.3793
  210SOL    HW1  629   2.323   0.733   0.967  2.6003 -1.5132 -0.3801
  210SOL    HW2  630   2.181   0.656   0.926 -2.7702 -1.9528 -2.1973
  211SOL     OW  631   1.266   2.696   0.265  0.4796  0.6215 -0.2892
  211SOL    HW1  632   1.280   2.640   0.349  1.1353 -2.0523  0.6994
  211SOL    HW2  633   1.353   2.710   0.222 -5.8812  0.5703  1.4714
  212SOL     OW  634   2.211   2.207   0.632 -0.1306 -0.2262  0.2853
  212SOL    HW1  635   2.204   2.111   0.672 -0.2704 -0.2118  0.9360
  212SOL    HW2  636   2.247   2.204   0.535  1.3347  1.0832 -0.9115
  213SOL     OW  637   1.754   0.729   2.828 -0.1501 -0.0925  0.2836
  213SOL    HW1  638   1.741   0.660   2.902 -0.3980  1.7882  0.3272
  213SOL    HW2  639   1.785   0.815   2.867 -1.4647 -1.5588 -1.8014
  214SOL     OW  640   1.032   1.844   1.888  0.1090 -0.2095  0.0500
  214SOL    HW1  641   0.930   1.831   1.887 -2.1316 -0.4857  1.7040
  214SOL    HW2  642   1.068   1.774   1.954 -1.1905 -0.3478 -0.4117
  215SOL     OW  643   0.401   1.312   0.442  0.2082  0.1014  0.3136
  215SOL    HW1  644   0.383   1.260   0.356  2.3357  1.6334  0.9495
  215SOL    HW2  645   0.427   1.408   0.417  0.0372 -0.4520 -0.6463
  216SOL     OW  646   0.111   3.004   2.397  0.1110 -0.0951  0.2520
  216SOL    HW1  647   0.198   2.978   2.446  2.8792  0.6211  0.3678
  216SOL    HW2  648   0.093   2.951   2.314 -1.1211  1.4491  0.4842
  217SOL     OW  649   2.487   0.851   1.322  0.3230  0.2327 -0.9141
  217SOL    HW1  650   2.414   0.788   1.356  0.2137  0.6202  1.4245
  217SOL    HW2  651   2.577   0.820   1.355  0.5076  0.6730 -1.7024
  218SOL     OW  652   1.373   1.757   2.111  0.2545 -1.1162 -0.7458
  218SOL    HW1  653   1.428   1.829   2.062  2.3884  2.0894 -0.6675
  218SOL    HW2  654   1.307   1.802   2.184 -2.9671  2.0008  2.5431
  219SOL     OW  655   1.972   1.528   0.070 -0.5510 -0.0238 -0.7091
  219SOL    HW1  656   2.017   1.578   0.149 -0.5632  2.0231  0.5176
  219SOL    HW2  657   1.869   1.521   0.082 -2.2318 -1.0267  0.7911
  220SOL     OW  658   2.043   0.759   0.353  0.5199 -0.2389  0.3082
  220SOL    HW1  659   2.089   0.852   0.360  0.4044  0.7794 -1.6167
  220SOL    HW2  660   2.005   0.743   0.259  1.8247 -1.8398  1.4472
  221SOL     OW  661   0.174   0.327   0.104 -0.3267 -0.2103 -0.4056
  221SOL    HW1  662   0.251   0.277   0.052  1.6673 -2.0627 -2.2341
  221SOL    HW2  663   0.181   0.424   0.073  0.3166  0.3103 -0.4578
  222SOL     OW  664   1.409   2.042   0.655  0.0549  0.3988  0.5031
  222SOL    HW1  665   1.462   1.958   0.676  0.1113 -0.1664  1.4654
  222SOL    HW2  666   1.318   2.037   0.696  0.9119 -0.3530  1.2546
  223SOL     OW  667   0.876   0.100   3.079 -0.2692 -0.3103  0.0149
  223SOL    HW1  668   0.954   0.118   0.044 -0.5448 -0.1658  1.1965
  223SOL    HW2  669   0.900   0.038   3.001  1.0332 -0.9654  1.4526
  224SOL     OW  670   1.785   0.066   1.134  0.2850 -0.0191  0.0779
  224SOL    HW1  671   1.801   0.012   1.225 -1.4425 -4.0387  0.9299
  224SOL    HW2  672   1.842   0.037   1.055 -1.2524  0.1869 -0.8546
  225SOL     OW  673   0.501   2.534   1.229 -0.2999 -0.2760  0.0631
  225SOL    HW1  674   0.513   2.539   1.126 -0.1820 -3.7855 -2.3196
  225SOL    HW2  675   0.459   2.618   1.274 -0.6427 -0.5065  1.3404
  226SOL     OW  676   1.098   1.869   0.087  0.3295 -0.0898 -0.0874
  226SOL    HW1  677   1.097   1.818   0.174  1.4707 -0.7416  0.1692
  226SOL    HW2  678   1.190   1.883   0.055 -0.9890  0.8065  1.5684
  227SOL     OW  679   0.765   1.710   0.969 -0.0717 -0.2731 -0.0455
  227SOL    HW1  680   0.676   1.668   0.940 -2.6802  0.3797  3.3874
  227SOL    HW2  681   0.767   1.732   1.065  1.1815 -2.0100 -2.6182
  228SOL     OW  682   0.279   1.600   0.412  0.1292  0.5796  0.0120
  228SOL    HW1  683   0.287   1.561   0.314 -0.9224  0.5220 -3.2011
  228SOL    HW2  684   0.289   1.702   0.406 -1.5863 -3.5482  1.2755
  229SOL     OW  685   2.021   0.116   2.462  0.1647  0.4661 -0.2702
  229SOL    HW1  686   1.980   0.165   2.383 -1.1376  1.8320  0.9680
  229SOL    HW2  687   2.007   0.165   2.547  0.0772 -2.9132 -1.4829
  230SOL     OW  688   1.998   1.169   3.066 -0.4348 -0.1805 -0.1814
  230SOL    HW1  689   2.024   1.265   3.039 -1.6939 -0.3625 -0.5707
  230SOL    HW2  690   1.946   1.165   0.055 -1.5061  2.7759  1.4422
  231SOL     OW  691   1.373   1.410   2.679 -0.4187 -0.1508 -0.0617
  231SOL    HW1  692   1.315   1.487   2.717  1.5347 -0.0315  0.4144
  231SOL    HW2  693   1.443   1.442   2.613  0.1458 -0.7210  0.3889
  232SOL     OW  694   2.629   2.239   0.614  0.3555  0.1434 -0.1983
  232SOL    HW1  695   2.652   2.322   0.562  0.5376  0.0228  3.0158
  232SOL    HW2  696   2.625   2.159   0.554  0.0614  1.9448 -0.4565
  233SOL     OW  697   0.335   2.464   0.526  0.0443 -0.1689 -0.2548
  233SOL    HW1  698   0.404   2.506   0.589 -2.1512  2.0706 -0.8376
  233SOL    HW2  699   0.370   2.383   0.473  0.6700 -3.6687  1.5831
  234SOL     OW  700   0.608   0.668   2.751  0.0546  0.2380 -0.6381
  234SOL    HW1  701   0.561   0.738   2.691 -0.8649  0.7985  1.6321
  234SOL    HW2  702   0.669   0.714   2.814 -0.6347  0.5182  0.2828
  235SOL     OW  703   2.590   0.500   2.354  0.4396  0.1813  0.0838
  235SOL    HW1  704   2.508   0.436   2.338 -1.3879 -2.0902  0.1924
  235SOL    HW2  705   2.677   0.446   2.344  0.0665  0.5349 -0.1851
  236SOL     OW  706   1.731   2.574   1.219 -0.1955 -0.7695  0.5980
  236SOL    HW1  707   1.785   2.574   1.304 -2.4062 -1.5357 -1.2715
  236SOL    HW2  708   1.771   2.499   1.160  0.7731 -2.6225  0.7104
  237SOL     OW  709   0.950   1.722   2.348  0.6044  0.5111 -0.0284
  237SOL    HW1  710   1.000   1.638   2.321  2.5196  1.8403  1.3135
  237SOL    HW2  711   0.924   1.716   2.448  0.1797 -0.5333  0.2952
  238SOL     OW  712   1.029   0.329   2.279  0.3643  0.3259 -0.0007
  238SOL    HW1  713   1.018   0.255   2.349 -0.6805 -1.3901 -1.0167
  238SOL    HW2  714   1.126   0.336   2.258 -1.0617  0.5458  3.4311
  239SOL     OW  715   0.383   2.071   1.946 -0.0605 -0.2272 -0.1103
  239SOL    HW1  716   0.435   2.145   1.993 -1.2597 -0.8931  1.5947
  239SOL    HW2  717   0.325   2.112   1.871 -3.0545  1.9470  1.7355
  240SOL     OW  718   2.631   2.756   0.266  0.0164  0.2834  0.0021
  240SOL    HW1  719   2.569   2.676   0.260 -2.0719  1.1389 -0.4142
  240SOL    HW2  720   2.674   2.764   0.356 -1.0982  0.0600  2.2082
  241SOL     OW  721   2.505   0.870   1.047  0.3445  0.0815  0.2689
  241SOL    HW1  722   2.480   0.866   1.143 -0.0424 -1.4244 -1.5870
  241SOL    HW2  723   2.467   0.947   0.997 -1.1490 -0.1591  0.1969
  242SOL     OW  724   2.247   2.501   2.055  0.4308 -0.1982  0.4566
  242SOL    HW1  725   2.201   2.462   2.135  1.3451  0.1195 -2.2912
  242SOL    HW2  726   2.213   2.593   2.024  1.6507  0.5281 -1.2161
  243SOL     OW  727   0.804   2.706   1.754  0.0767  0.1220 -0.0014
  243SOL    HW1  728   0.767   2.751   1.666  0.6090  1.0679 -2.0337
  243SOL    HW2  729   0.866   2.769   1.796 -0.8001 -1.8435  1.5352
  244SOL     OW  730   2.032   0.473   2.814  0.1292  0.4338 -0.0418
  244SOL    HW1  731   1.969   0.501   2.741  1.1929 -2.3692  1.4466
  244SOL    HW2  732   2.001   0.516   2.902 -0.2081  0.4466 -3.1046
  245SOL     OW  733   1.440   0.566   1.194 -0.0303 -0.0164 -0.0732
  245SOL    HW1  734   1.373   0.636   1.175 -0.2302 -2.3395 -0.0587
  245SOL    HW2  735   1.401   0.473   1.166  2.9444 -0.9066 -2.4132
  246SOL     OW  736   1.765   2.475   3.076 -0.3339 -0.2069  0.5732
  246SOL    HW1  737   1.835   2.461   3.008 -0.9969  0.0070  2.3067
  246SOL    HW2  738   1.678   2.505   3.028  3.1200  0.7316 -2.4490
  247SOL     OW  739   1.106   0.721   2.134  0.3735  0.2360  0.4608
  247SOL    HW1  740   1.084   0.671   2.219 -1.7117 -1.4766  1.1968
  247SOL    HW2  741   1.200   0.690   2.097 -1.3400 -0.4340  1.2477
  248SOL     OW  742   0.486   1.813   1.968 -0.6238 -0.0430 -0.0852
  248SOL    HW1  743   0.444   1.754   2.040  1.3178 -1.9555  2.6439
  248SOL    HW2  744   0.444   1.909   1.967 -1.9677  0.5121  0.7653
  249SOL     OW  745   2.611   0.321   0.483  0.5150  1.0142  0.2013
  249SOL    HW1  746   2.588   0.277   0.394 -0.3181 -0.8205 -0.4744
  249SOL    HW2  747   2.647   0.252   0.546 -0.1013  1.0906  1.7101
  250SOL     OW  748   2.686   0.342   2.834 -0.7635  0.3220  0.5494
  250SOL    HW1  749   2.751   0.336   2.911 -1.9124  1.6258 -0.3266
  250SOL    HW2  750   2.736   0.376   2.752  0.9526 -0.5676  0.2227
  251SOL     OW  751   1.333   0.724   2.950 -0.0383  0.4467  0.0051
  251SOL    HW1  752   1.345   0.824   2.959 -1.4171 -1.1016  1.7575
  251SOL    HW2  753   1.247   0.697   2.997 -4.1661 -1.1011 -2.0458
  252SOL     OW  754   1.704   1.988   1.823  0.3318  0.8013 -0.1699
  252SOL    HW1  755   1.667   2.081   1.821  4.0804 -2.2067 -1.6663
  252SOL    HW2  756   1.790   1.982   1.878  3.8376  0.2665 -2.1687
  253SOL     OW  757   2.270   2.494   1.056 -0.3336  0.3475 -0.1711
  253SOL    HW1  758   2.366   2.521   1.045 -2.0286 -0.7799  0.6921
  253SOL    HW2  759   2.236   2.543   1.138  1.8677  3.3630 -0.8039
  254SOL     OW  760   2.476   1.167   0.679 -0.1702  0.4194 -0.3464
  254SOL    HW1  761   2.539   1.237   0.712 -0.8056  1.5717 -1.4880
  254SOL    HW2  762   2.422   1.134   0.757  0.1718  1.3233 -2.1465
  255SOL     OW  763   1.373   0.310   1.181  0.4365  0.0488  0.6780
  255SOL    HW1  764   1.360   0.238   1.254 -0.4285  0.7628 -0.2817
  255SOL    HW2  765   1.401   0.272   1.089  1.7321 -2.1083 -3.3589
  256SOL     OW  766   1.418   2.330   1.488 -0.1621  0.2606  0.1780
  256SOL    HW1  767   1.435   2.368   1.580 -0.9146 -1.2912 -2.4919
  256SOL    HW2  768   1.318   2.314   1.477  0.6890  0.7828 -1.6780
  257SOL     OW  769   0.595   3.014   2.609  0.1450 -0.2848 -0.2843
  257SOL    HW1  770   0.640   3.061   2.529 -0.3907  0.7053  1.0594
  257SOL    HW2  771   0.652   2.938   2.645  0.4230 -0.2764 -1.8370
  258SOL     OW  772   0.865   2.488   0.602  0.1197 -0.2443  0.0407
  258SOL    HW1  773   0.849   2.419   0.674  1.2406 -0.7767  1.4744
  258SOL    HW2  774   0.954   2.457   0.552  2.4764 -2.4854 -2.9588
  259SOL     OW  775   1.374   0.334   2.740 -0.4989 -0.2875 -0.5355
  259SOL    HW1  776   1.457   0.383   2.703 -1.1571 -0.1643 -2.9928
  259SOL    HW2  777   1.362   0.244   2.700 -1.1896  3.8461  4.8270
  260SOL     OW  778   2.684   0.301   1.441  0.4944  0.1644  0.0921
  260SOL    HW1  779   2.584   0.285   1.453 -0.3439 -0.7766 -0.3647
  260SOL    HW2  780   2.737   0.214   1.447 -0.3369  0.6189 -4.9998
  261SOL     OW  781   0.704   0.493   2.567 -0.0107 -0.0288  0.1576
  261SOL    HW1  782   0.666   0.548   2.645  0.1799 -0.5895 -0.5938
  261SOL    HW2  783   0.689   0.540   2.481 -0.8692 -0.3362 -0.7753
  262SOL     OW  784   0.649   2.550   2.217 -0.0985 -0.0316  0.0284
  262SOL    HW1  785   0.632   2.599   2.303  1.1393 -1.4859  0.7056
  262SOL    HW2  786   0.642   2.612   2.138 -0.7095  1.3748  1.4709
  263SOL     OW  787   0.331   1.536   2.593 -0.2154  0.0107  0.1684
  263SOL    HW1  788   0.277   1.594   2.529  0.8715  1.5626 -1.0583
  263SOL    HW2  789   0.357   1.448   2.550 -1.9060  0.4034 -1.9550
  264SOL     OW  790   1.077   1.545   0.721  0.1476 -0.4126 -0.0685
  264SOL    HW1  791   1.089   1.582   0.815  1.5944  1.1809 -0.1637
  264SOL    HW2  792   1.002   1.584   0.673  1.7310 -1.8738  0.3873
  265SOL     OW  793   1.372   2.488   0.420  0.2071  0.1795  0.4196
  265SOL    HW1  794   1.391   2.439   0.332 -1.3207 -0.9180 -3.2758
  265SOL    HW2  795   1.455   2.498   0.478 -0.2085 -0.4656 -0.1835
  266SOL     OW  796   1.841   0.762   1.252  0.7845 -0.6498 -0.1864
  266SOL    HW1  797   1.779   0.703   1.197  1.0309 -1.0979 -0.2404
  266SOL    HW2  798   1.936   0.739   1.221 -0.2971  0.3692 -1.8321
  267SOL     OW  799   2.676   1.263   2.903  0.0240  0.1352  0.2227
  267SOL    HW1  800   2.759   1.262   2.957 -1.3998 -0.9456 -0.8424
  267SOL    HW2  801   2.677   1.185   2.836 -0.7702  0.7358  1.8926
  268SOL     OW  802   1.501   0.210   0.075  0.0857  0.4690  0.0300
  268SOL    HW1  803   1.536   0.174   0.168  2.1547 -2.0232  2.3288
  268SOL    HW2  804   1.412   0.261   0.081  0.6367 -0.7437 -1.2309
  269SOL     OW  805   2.595   0.690   2.560 -0.5307  0.0359 -0.1641
  269SOL    HW1  806   2.690   0.698   2.601  0.5746 -0.4028 -2.0932
  269SOL    HW2  807   2.595   0.637   2.474 -2.3226 -0.4433 -1.6964
  270SOL     OW  808   3.078   1.624   0.372  0.2226 -0.2676  0.0676
  270SOL    HW1  809   0.056   1.566   0.404  0.3566 -1.6048  0.9227
  270SOL    HW2  810   3.096   1.656   0.273  2.5614  0.6384 -0.8057
  271SOL     OW  811   2.528   0.927   3.063 -0.4379 -0.5322  0.1574
  271SOL    HW1  812   2.479   0.936   2.971 -4.2160  0.0244 -1.1146
  271SOL    HW2  813   2.469   0.883   0.033  0.9147  1.6222  0.0793
  272SOL     OW  814   3.023   2.472   2.376 -0.1725  0.1562 -0.5079
  272SOL    HW1  815   0.017   2.426   2.373  1.5506 -0.5154  0.8866
  272SOL    HW2  816   2.954   2.399   2.375  0.5927  0.5132  0.3182
  273SOL     OW  817   0.300   2.758   0.622  0.1712  0.0658 -0.4892
  273SOL    HW1  818   0.303   2.702   0.536  0.9279 -2.7162  0.2658
  273SOL    HW2  819   0.260   2.855   0.606 -0.8286  2.1593  1.0672
  274SOL     OW  820   0.630   2.319   0.712  0.3076  0.0556 -0.0839
  274SOL    HW1  821   0.531   2.343   0.700  0.1047  0.2830  0.1864
  274SOL    HW2  822   0.641   2.233   0.762 -4.3997  1.7346 -1.4226
  275SOL     OW  823   2.432   0.966   0.498 -0.3968  0.2552  0.3221
  275SOL    HW1  824   2.452   1.027   0.580  0.2145 -0.5025  0.7885
  275SOL    HW2  825   2.504   0.981   0.427 -0.6861  1.9272 -0.6980
  276SOL     OW  826   2.390   1.614   1.446 -0.2459  1.0923  0.4288
  276SOL    HW1  827   2.376   1.539   1.378  2.2353  0.9911 -1.3867
  276SOL    HW2  828   2.475   1.603   1.500 -2.3070  0.7892  1.9225
  277SOL     OW  829   2.683   2.966   0.736  0.0441  0.1461 -0.1831
  277SOL    HW1  830   2.639   3.039   0.783 -0.6631 -2.1285  1.5160
  277SOL    HW2  831   2.784   2.960   0.765  2.3014 -0.3101 -1.0901
  278SOL     OW  832   1.479   0.117   2.265 -0.0108 -0.2191 -0.1322
  278SOL    HW1  833   1.460   0.036   2.320 -0.0875  0.5887  0.5213
  278SOL    HW2  834   1.504   0.200   2.323  0.2704  2.2272  0.3426
  279SOL     OW  835   1.648   2.646   0.830 -0.1145  0.3031  0.1376
  279SOL    HW1  836   1.644   2.699   0.743  1.1607 -1.1950  1.3895
  279SOL    HW2  837   1.741   2.603   0.842 -0.3602 -1.9974  2.4786
  280SOL     OW  838   0.699   1.136   0.759  0.0595 -0.2881  0.2647
  280SOL    HW1  839   0.737   1.210   0.821  1.3556 -0.6947 -0.3865
  280SOL    HW2  840   0.598   1.143   0.757  0.3596 -0.3257 -0.2052
  281SOL     OW  841   2.501   1.464   2.944 -0.2559  0.0652 -0.3113
  281SOL    HW1  842   2.569   1.403   2.901 -1.4019 -1.3630  3.0252
  281SOL    HW2  843   2.445   1.502   2.868  3.6331  1.2724  0.9325
  282SOL     OW  844   3.070   1.211   0.367  0.0998 -0.5707 -0.0070
  282SOL    HW1  845   2.974   1.207   0.402 -1.7795 -0.2893 -0.1297
  282SOL    HW2  846   0.034   1.239   0.448 -2.0735  0.2403  2.8030
  283SOL     OW  847   1.807   2.807   2.735  0.1770 -0.0569  0.4908
  283SOL    HW1  848   1.787   2.863   2.648  1.1041  1.7799 -0.8305
  283SOL    HW2  849   1.875   2.733   2.719 -0.8329  1.5221  1.4196
  284SOL     OW  850   1.132   0.117   0.095 -0.4521  0.3628  0.2026
  284SOL    HW1  851   1.172   0.046   0.159  1.4013 -0.6692  0.4804
  284SOL    HW2  852   1.169   0.210   0.113  2.9635  3.1302 -3.0522
  285SOL     OW  853   2.439   1.566   2.535 -0.6034  0.2426  0.3475
  285SOL    HW1  854   2.357   1.513   2.568 -1.6097 -0.1635 -1.6555
  285SOL    HW2  855   2.409   1.629   2.459 -0.2873  1.6075 -2.0953
  286SOL     OW  856   1.590   2.443   0.595  0.1888  0.1566 -0.2453
  286SOL    HW1  857   1.684   2.460   0.635 -0.5588 -0.0415  2.6264
  286SOL    HW2  858   1.556   2.360   0.641  2.5211  0.2000  1.6381
  287SOL     OW  859   1.600   0.869   0.750 -0.5916  0.3695 -0.5017
  287SOL    HW1  860   1.676   0.899   0.684  0.2147 -0.7421 -1.5131
  287SOL    HW2  861   1.518   0.854   0.694  2.6794  2.4682  1.5690
  288SOL     OW  862   0.900   2.807   2.328  0.1700  0.1752 -0.1495
  288SOL    HW1  863   0.879   2.791   2.426 -1.4701 -0.6274  2.7900
  288SOL    HW2  864   0.813   2.822   2.280 -0.5872 -0.7321  0.6956
  289SOL     OW  865   0.060   1.333   0.813  0.2133  0.1474  0.2926
  289SOL    HW1  866   0.110   1.295   0.891 -2.0134  0.7528 -1.6284
  289SOL    HW2  867   3.059   1.335   0.835 -1.0738 -2.2205 -0.7840
  290SOL     OW  868   1.183   2.368   0.823  0.3531  0.1261 -0.0690
  290SOL    HW1  869   1.264   2.420   0.864  3.7322  1.8641 -0.2861
  290SOL    HW2  870   1.179   2.385   0.723  0.5278 -0.0264 -0.8680
  291SOL     OW  871   1.507   3.000   0.501 -0.1282 -0.2415  0.2956
  291SOL    HW1  872   1.410   2.971   0.509 -0.9020 -1.1368 -0.8049
  291SOL    HW2  873   1.569   2.941   0.554 -3.0713  1.5856 -2.7980
  292SOL     OW  874   0.431   0.420   2.394  0.1639  0.1538  0.0075
  292SOL    HW1  875   0.501   0.359   2.436 -0.2624 -1.4149 -1.1666
  292SOL    HW2  876   0.345   0.413   2.451  1.2393 -1.4599  0.2224
  293SOL     OW  877   2.550   1.665   0.833 -0.1381  0.3097  0.2896
  293SOL    HW1  878   2.575   1.733   0.763  1.1367  0.4786 -0.9499
  293SOL    HW2  879   2.512   1.712   0.919 -0.3019  0.1262 -1.3265
  294SOL     OW  880   0.649   0.078   2.168 -0.2965 -0.2934 -0.1364
  294SOL    HW1  881   0.555   0.085   2.214 -3.6294 -0.3609 -2.0253
  294SOL    HW2  882   0.640   0.043   2.075  0.0459 -0.3622 -1.9980
  295SOL     OW  883   1.067   1.653   0.970 -0.3438  0.0201 -0.1051
  295SOL    HW1  884   1.078   1.585   1.044  0.4760 -0.5059 -0.2560
  295SOL    HW2  885   0.972   1.668   0.939 -0.5556  1.2678 -0.7755
  296SOL     OW  886   2.349   1.873   0.542  0.1784 -0.3128  0.3898
  296SOL    HW1  887   2.325   1.929   0.457 -0.7019  1.6011 -2.4355
  296SOL    HW2  888   2.355   1.772   0.521 -0.2369  0.7638  1.4465
  297SOL     OW  889   2.576   3.033   3.079  0.2779 -0.2012  0.1638
  297SOL    HW1  890   2.483   3.003   0.005  4.2491 -0.7422  0.1509
  297SOL    HW2  891   2.658   2.984   0.019  0.0151  0.4741 -1.0564
  298SOL     OW  892   1.050   0.196   2.691  0.1793  0.0683  0.3921
  298SOL    HW1  893   1.013   0.284   2.724 -1.0427  2.3436  2.5579
  298SOL    HW2  894   1.107   0.147   2.764  0.1755  0.8390 -0.4937
  299SOL     OW  895   1.066   2.697   1.984 -0.2740 -0.2129  0.1454
  299SOL    HW1  896   1.028   2.791   1.972  1.7866  1.2907  0.1649
  299SOL    HW2  897   1.014   2.634   2.047 -0.7942 -2.1488  0.2023
  300SOL     OW  898   2.795   3.040   2.014 -0.7881  0.2933 -0.5027
  300SOL    HW1  899   2.793   3.024   2.116  1.4745 -0.5293  1.0972
  300SOL    HW2  900   2.865   0.006   1.980 -1.1030 -2.8125  0.3938
  301SOL     OW  901   1.557   0.407   1.632 -0.0954  0.1934  0.6096
  301SOL    HW1  902   1.490   0.328   1.648  4.0155 -0.2334 -1.6044
  301SOL    HW2  903   1.623   0.376   1.564  0.7576 -0.2822 -0.4628
  302SOL     OW  904   0.194   2.209   2.968  0.2388 -0.2454 -0.7422
  302SOL    HW1  905   0.218   2.179   3.063 -0.5362 -0.1845 -2.0311
  302SOL    HW2  906   0.172   2.309   2.982 -1.1325  2.0295 -1.1003
  303SOL     OW  907   1.866   2.555   1.451  0.4113 -0.4622  0.2891
  303SOL    HW1  908   1.811   2.468   1.465 -0.9810  0.2461  0.2420
  303SOL    HW2  909   1.947   2.557   1.512 -2.0681  2.5374  0.4713
  304SOL     OW  910   2.737   0.799   1.419 -0.1111 -0.1407  0.2494
  304SOL    HW1  911   2.774   0.737   1.356  0.8473  2.5328  3.2776
  304SOL    HW2  912   2.804   0.875   1.433  1.2614  2.7426 -0.9604
  305SOL     OW  913   0.435   1.222   0.696  0.1342  0.1378  0.1060
  305SOL    HW1  914   0.420   1.303   0.756 -0.1993  0.0247  0.8017
  305SOL    HW2  915   0.442   1.252   0.602  2.4614  3.5135  0.0612
  306SOL     OW  916   0.305   1.266   2.862  0.1341 -0.1278 -0.3332
  306SOL    HW1  917   0.349   1.169   2.878 -0.3490 -1.1898  0.8931
  306SOL    HW2  918   0.327   1.281   2.765  2.0701 -0.2839  3.8331
  307SOL     OW  919   1.071   3.074   1.668 -0.2576 -0.2697 -0.3487
  307SOL    HW1  920   1.168   3.055   1.642  0.6872  2.0244 -1.9155
  307SOL    HW2  921   1.065   0.073   1.697 -0.9127  0.5521  0.4617
  308SOL     OW  922   0.248   0.877   1.053  0.3634  0.1862 -0.2472
  308SOL    HW1  923   0.322   0.886   1.125  0.6235 -0.5034  0.2667
  308SOL    HW2  924   0.255   0.937   0.973 -0.9803  0.0191  1.5263
  309SOL     OW  925   2.355   1.092   0.912 -0.0482 -0.0281 -0.7522
  309SOL    HW1  926   2.278   1.024   0.892 -0.1590 -1.6706  1.9144
  309SOL    HW2  927   2.318   1.177   0.960 -0.1370 -0.3109 -0.7616
  310SOL     OW  928   0.464   1.663   2.783  0.2247 -0.6005 -0.1155
  310SOL    HW1  929   0.433   1.612   2.702  1.2679  0.8551  0.9206
  310SOL    HW2  930   0.380   1.707   2.821 -0.1904 -0.3416 -0.0259
  311SOL     OW  931   2.523   2.608   2.440  0.3421 -0.1109  0.0901
  311SOL    HW1  932   2.572   2.661   2.365  1.1823  0.2772 -0.6474
  311SOL    HW2  933   2.501   2.669   2.518  0.5763 -2.0695  3.0936
  312SOL     OW  934   2.168   2.104   3.040  0.1000 -0.3950 -0.1460
  312SOL    HW1  935   2.100   2.032   3.058  0.6621  1.2809 -2.0943
  312SOL    HW2  936   2.246   2.078   2.980  0.0848 -1.7610  1.0185
  313SOL     OW  937   0.540   0.033   0.436  0.0900 -0.4516 -0.2033
  313SOL    HW1  938   0.630   0.073   0.416 -1.6887  0.4912  0.9894
  313SOL    HW2  939   0.528   0.024   0.538 -1.4708  1.4818 -1.3938
  314SOL     OW  940   2.363   1.223   2.806  0.3938  0.2444  0.0079
  314SOL    HW1  941   2.467   1.231   2.799  2.4781  1.3648  0.7099
  314SOL    HW2  942   2.323   1.314   2.821 -0.9052 -1.2853  2.1644
  315SOL     OW  943   1.561   0.325   2.420 -0.2744 -0.2829 -0.1406
  315SOL    HW1  944   1.591   0.364   2.508 -1.9246  0.4638 -1.2937
  315SOL    HW2  945   1.537   0.400   2.360  2.2329 -0.6399  0.1075
  316SOL     OW  946   3.083   0.858   0.773  0.0066  0.4057  0.1192
  316SOL    HW1  947   3.029   0.785   0.725  1.0329  1.7568  0.2292
  316SOL    HW2  948   3.035   0.901   0.851 -3.2170 -0.8514 -1.5926
  317SOL     OW  949   0.496   2.753   2.868  0.0663  0.2718 -0.1451
  317SOL    HW1  950   0.420   2.805   2.828  0.3555  0.8637 -3.2122
  317SOL    HW2  951   0.526   2.793   2.956  2.3399 -1.7146  0.0773
  318SOL     OW  952   2.521   2.596   1.025  0.0750 -0.5501 -0.4372
  318SOL    HW1  953   2.510   2.645   0.935  0.5397  1.9062 -0.5955
  318SOL    HW2  954   2.564   2.657   1.091 -0.4800  0.6541  0.1972
  319SOL     OW  955   0.997   1.643   3.043 -0.0846 -0.2929  0.1981
  319SOL    HW1  956   0.988   1.733   3.093 -1.6992 -1.5157 -0.8427
  319SOL    HW2  957   1.034   1.659   2.948 -0.5446 -0.8628  1.0603
  320SOL     OW  958   0.590   1.835   1.246 -0.2678 -0.2832  0.2066
  320SOL    HW1  959   0.514   1.798   1.304 -1.2884  1.2084 -1.7445
  320SOL    HW2  960   0.548   1.856   1.157 -1.1559  1.2254  1.2038
  321SOL     OW  961   1.323   2.750   2.139  0.1550  0.2891  0.0423
  321SOL    HW1  962   1.230   2.748   2.102  0.7358  0.6035  0.0659
  321SOL    HW2  963   1.373   2.831   2.108 -0.7979  0.5909 -1.2725
  322SOL     OW  964   2.326   1.723   2.327 -0.1536  0.7134 -0.0175
  322SOL    HW1  965   2.400   1.765   2.277 -0.4454 -2.1532  1.7687
  322SOL    HW2  966   2.289   1.786   2.391  1.1297 -2.4649 -2.4698
  323SOL     OW  967   2.851   0.247   0.768  0.4994  0.4868  0.1772
  323SOL    HW1  968   2.797   0.332   0.792 -0.7656  3.2345  0.3428
  323SOL    HW2  969   2.860   0.186   0.852 -0.8849 -0.5367  2.8743
  324SOL     OW  970   3.000   2.697   2.539  0.1288 -0.2180  0.4926
  324SOL    HW1  971   3.088   2.697   2.586 -1.7323  1.0000 -2.0694
  324SOL    HW2  972   3.004   2.619   2.475 -1.3763 -0.0037  1.3430
  325SOL     OW  973   1.050   0.589   2.354  0.0972 -0.2794  0.1227
  325SOL    HW1  974   1.035   0.484   2.345  0.3980 -0.4644 -1.2920
  325SOL    HW2  975   1.122   0.600   2.425  1.5218  1.9769  0.8873
  326SOL     OW  976   2.183   2.761   1.574  0.1019 -0.1646  0.0886
  326SOL    HW1  977   2.270   2.783   1.629 -0.1670  2.1879  4.3003
  326SOL    HW2  978   2.144   2.673   1.608 -1.5106  1.1860  0.5213
  327SOL     OW  979   2.405   3.027   0.309 -0.3818  0.0875 -0.2237
  327SOL    HW1  980   2.357   0.007   0.352 -0.4614  2.1350  0.4199
  327SOL    HW2  981   2.417   2.949   0.374 -1.9031  1.2223  2.4043
  328SOL     OW  982   0.022   1.305   1.701  0.7172 -0.1174  0.2279
  328SOL    HW1  983   0.099   1.241   1.713 -0.3586  4.2435 -0.5561
  328SOL    HW2  984   0.045   1.387   1.757  1.4626 -1.4852  1.4184
  329SOL     OW  985   2.131   0.470   1.494  0.2850 -0.1858 -0.6820
  329SOL    HW1  986   2.044   0.507   1.455 -1.6612 -4.3364 -1.7471
  329SOL    HW2  987   2.137   0.490   1.593  0.6876 -0.1722 -2.5033
  330SOL     OW  988   3.087   0.749   1.131  0.2053  0.3546 -0.0922
  330SOL    HW1  989   3.028   0.807   1.069  1.0504 -0.9972 -2.3754
  330SOL    HW2  990   0.081   0.794   1.138 -2.2512 -0.8791  1.2397
  331SOL     OW  991   0.697   1.400   1.962 -0.8087  0.1040  0.1980
  331SOL    HW1  992   0.789   1.443   1.954  0.2555 -0.5879 -0.0069
  331SOL    HW2  993   0.707   1.333   2.035 -0.7584  0.7548 -0.2404
  332SOL     OW  994   0.019   2.632   1.509  0.0521 -0.1111 -0.1986
  332SOL    HW1  995   3.013   2.627   1.518 -2.8367  1.3510 -1.2966
  332SOL    HW2  996   0.056   2.540   1.492  1.0481  1.1805  0.8831
  333SOL     OW  997   2.957   2.946   0.808 -0.1958  0.0275  0.5101
  333SOL    HW1  998   2.992   3.005   0.882 -0.6899 -0.0375 -1.4786
  333SOL    HW2  999   2.997   2.854   0.822 -0.4543  0.2964  1.5251
  334SOL     OW 1000   0.128   1.282   0.557 -0.4089  0.3079 -0.0095
  334SOL    HW1 1001   0.223   1.297   0.521  1.8434 -0.9870  0.0372
  334SOL    HW2 1002   0.116   1.309   0.654  1.2951  0.2751  1.5301
  335SOL     OW 1003   0.330   2.534   2.832  0.4538  0.2513 -0.3719
  335SOL    HW1 1004   0.281   2.510   2.920 -0.8373 -1.6755  0.9217
  335SOL    HW2 1005   0.405   2.603   2.855  2.4557  1.3032  0.3332
  336SOL     OW 1006   2.998   2.676   2.186  0.0410  0.1049  0.3027
  336SOL    HW1 1007   2.997   2.606   2.262 -0.1880 -1.8228  0.0292
  336SOL    HW2 1008   2.918   2.667   2.123  0.7878 -0.3715  0.9025
  337SOL     OW 1009   1.947   2.286   1.626  0.4669 -0.3916 -0.2382
  337SOL    HW1 1010   1.850   2.289   1.583 -2.2109  1.7350 -1.2665
  337SOL    HW2 1011   1.997   2.197   1.609  1.8264 -3.7886 -0.8869
  338SOL     OW 1012   0.865   0.432   2.758 -0.2228 -0.1421 -0.1768
  338SOL    HW1 1013   0.806   0.373   2.824 -3.8035 -0.5960  4.1723
  338SOL    HW2 1014   0.826   0.451   2.667  2.4942  2.3419  1.3267
  339SOL     OW 1015   0.412   1.029   2.157  0.3273 -0.3889  0.0090
  339SOL    HW1 1016   0.328   1.040   2.099  2.1415  1.5702  0.9468
  339SOL    HW2 1017   0.424   1.105   2.227 -0.7359 -1.3011  1.5648
  340SOL     OW 1018   2.144   2.903   0.669 -0.6648  0.1041  0.4751
  340SOL    HW1 1019   2.178   2.852   0.750  4.9295 -0.7341 -0.6969
  340SOL    HW2 1020   2.052   2.941   0.690 -0.2553  1.1424  1.3986
  341SOL     OW 1021   2.057   1.326   0.990  0.3151 -0.3758  0.1869
  341SOL    HW1 1022   1.970   1.335   0.938 -0.7748  0.6190 -1.7852
  341SOL    HW2 1023   2.121   1.407   0.971  1.9014  3.2960 -2.6847
  342SOL     OW 1024   2.097   2.688   3.018 -0.3818 -0.2826  0.2817
  342SOL    HW1 1025   2.192   2.686   3.049 -1.7521 -1.4502 -0.5989
  342SOL    HW2 1026   2.032   2.691   3.096  0.7129  0.4147 -1.0140
  343SOL     OW 1027   0.894   2.030   1.478 -0.0913 -0.2830  0.1401
  343SOL    HW1 1028   0.917   2.101   1.548  0.5696 -0.1562  0.9873
  343SOL    HW2 1029   0.895   2.075   1.387 -0.8632  0.8767  2.9805
  344SOL     OW 1030   2.175   2.561   1.306 -0.7459 -0.1985 -0.3546
  344SOL    HW1 1031   2.089   2.618   1.328 -0.2929  3.8581  0.3292
  344SOL    HW2 1032   2.257   2.599   1.363  0.4282  2.4485  3.0325
  345SOL     OW 1033   2.671   1.863   3.038  0.0328 -0.3218 -0.0750
  345SOL    HW1 1034   2.732   1.898   2.969 -0.9297 -2.5351 -1.3942
  345SOL    HW2 1035   2.717   1.827   0.023  0.3946 -2.0058 -0.0255
  346SOL     OW 1036   1.816   2.371   1.051  0.2567 -0.0421 -0.0855
  346SOL    HW1 1037   1.857   2.329   0.965  1.0290 -2.3801  0.8835
  346SOL    HW2 1038   1.737   2.316   1.074 -3.1674  0.0581 -0.0668
  347SOL     OW 1039   1.375   1.925   1.201  0.2752 -0.1658  0.3541
  347SOL    HW1 1040   1.341   1.886   1.114  0.3322  0.9693  0.6824
  347SOL    HW2 1041   1.352   2.025   1.201 -2.7529 -1.8194  0.8677
  348SOL     OW 1042   0.678   1.674   2.274  0.3492  0.0169  0.1342
  348SOL    HW1 1043   0.626   1.758   2.259  0.6287 -1.4172  0.1211
  348SOL    HW2 1044   0.779   1.694   2.279  0.5284  1.5643 -1.4810
  349SOL     OW 1045   1.883   1.779   0.982 -0.1965 -0.1497 -0.4474
  349SOL    HW1 1046   1.859   1.868   1.027 -3.2877 -3.2033 -2.7938
  349SOL    HW2 1047   1.812   1.715   1.017  1.8455 -0.0452  0.0174
  350SOL     OW 1048   2.747   2.526   0.572 -0.4895  0.5446 -0.1934
  350SOL    HW1 1049   2.801   2.507   0.487  0.0541 -0.0723  2.7523
  350SOL    HW2 1050   2.788   2.474   0.650  2.2551  1.1168  0.0079
  351SOL     OW 1051   0.709   2.862   1.564 -0.4996  0.1403  0.1926
  351SOL    HW1 1052   0.803   2.900   1.572 -1.5050 -2.5053 -0.2860
  351SOL    HW2 1053   0.683   2.864   1.460  0.4265  1.9291 -0.6520
  352SOL     OW 1054   0.189   1.699   1.125  0.2304  0.1817 -0.1233
  352SOL    HW1 1055   0.251   1.618   1.108  0.3574 -0.0820  0.7281
  352SOL    HW2 1056   0.151   1.691   1.217  0.3951 -1.2781 -0.9881
  353SOL     OW 1057   1.034   1.457   2.235  0.1258 -0.4650  0.0382
  353SOL    HW1 1058   0.943   1.417   2.213 -1.3580  3.2854  2.7355
  353SOL    HW2 1059   1.105   1.388   2.238  0.3424 -0.0154 -1.2981
  354SOL     OW 1060   1.472   3.089   1.757  0.4722 -0.6474  0.2849
  354SOL    HW1 1061   1.429   0.078   1.727  1.6422  0.0638  1.7868
  354SOL    HW2 1062   1.571   0.002   1.774  0.2841 -2.2167 -0.8427
  355SOL     OW 1063   2.460   1.249   0.401 -0.6143 -0.7105 -0.1349
  355SOL    HW1 1064   2.455   1.232   0.503 -0.1431 -2.2747  1.2069
  355SOL    HW2 1065   2.392   1.318   0.371  1.9370  0.2683 -0.4077
  356SOL     OW 1066   2.982   1.868   1.519  0.3812 -0.5698 -0.3548
  356SOL    HW1 1067   2.884   1.843   1.497  0.0735 -0.0094 -0.2343
  356SOL    HW2 1068   3.023   1.917   1.436 -0.2376  0.3704 -1.5248
  357SOL     OW 1069   0.356   2.730   1.354  0.4302  0.0068  0.2895
  357SOL    HW1 1070   0.335   2.741   1.451 -1.0629  3.3763 -0.5182
  357SOL    HW2 1071   0.345   2.819   1.307  1.3158  2.5719  3.4509
  358SOL     OW 1072   2.689   1.582   1.889  0.1482  0.3688  0.0159
  358SOL    HW1 1073   2.639   1.566   1.797  0.9708 -1.6569 -0.2003
  358SOL    HW2 1074   2.637   1.641   1.953  2.0100  1.5831 -3.4912
  359SOL     OW 1075   2.233   2.715   2.710  0.1453 -0.0098 -0.9852
  359SOL    HW1 1076   2.208   2.691   2.805 -0.6753 -1.3351 -1.3182
  359SOL    HW2 1077   2.195   2.650   2.639  0.1491  1.5612  3.4397
  360SOL     OW 1078   0.916   0.284   0.983 -0.2471 -0.0731 -0.3600
  360SOL    HW1 1079   0.998   0.329   1.014  2.4107 -2.6221  0.4324
  360SOL    HW2 1080   0.892   0.197   1.036 -1.6798  1.5994  0.1928
  361SOL     OW 1081   1.997   0.370   0.950  0.2983 -0.4560 -0.3960
  361SOL    HW1 1082   2.032   0.458   0.908  3.2953  0.3934 -1.7096
  361SOL    HW2 1083   2.071   0.321   0.999  2.2464 -0.1561  1.9695
  362SOL     OW 1084   1.955   1.211   1.208 -0.3766 -0.0173  0.3289
  362SOL    HW1 1085   1.985   1.265   1.127  0.5095  1.1038  1.5044
  362SOL    HW2 1086   2.021   1.129   1.228  2.5392 -1.8173 -0.1372
  363SOL     OW 1087   2.117   1.146   2.388 -0.0056  0.2668 -0.0572
  363SOL    HW1 1088   2.083   1.235   2.374 -2.0322 -1.2096  1.6645
  363SOL    HW2 1089   2.188   1.127   2.315  2.4482  0.5704 -2.5144
  364SOL     OW 1090   0.303   0.286   1.221  0.0514 -0.2426 -0.2260
  364SOL    HW1 1091   0.253   0.374   1.220  1.2629 -3.7446  0.8902
  364SOL    HW2 1092   0.247   0.203   1.203 -2.7683 -0.2701 -0.9374
  365SOL     OW 1093   0.732   0.266   2.914  0.7432  0.3131  0.0716
  365SOL    HW1 1094   0.675   0.196   2.866 -1.5723 -3.3230  0.1702
  365SOL    HW2 1095   0.805   0.217   2.964 -0.6270  2.4265  2.5807
  366SOL     OW 1096   1.973   2.462   2.896 -0.7099  0.4263  0.3769
  366SOL    HW1 1097   1.947   2.509   2.809  1.6769 -0.5160  0.0241
  366SOL    HW2 1098   2.022   2.535   2.950  0.2812 -1.4836 -0.5912
  367SOL     OW 1099   2.985   2.376   3.079 -0.9603 -0.4695 -0.6662
  367SOL    HW1 1100   2.927   2.457   0.001  1.0980 -1.8386  0.1562
  367SOL    HW2 1101   3.064   2.376   0.049  0.2925  0.6826 -0.3709
  368SOL     OW 1102   0.072   1.217   1.441  0.3430  0.3169 -0.2310
  368SOL    HW1 1103   0.051   1.260   1.355  1.4599 -0.3376 -0.3233
  368SOL    HW2 1104   0.041   1.272   1.523  1.1555 -1.7417 -0.2371
  369SOL     OW 1105   0.920   3.012   2.872  0.4877  0.2182 -0.1042
  369SOL    HW1 1106   0.997   2.951   2.900 -0.6560 -1.4010 -1.7647
  369SOL    HW2 1107   0.916   3.013   2.769  0.8394 -0.2779 -1.9885
  370SOL     OW 1108   2.865   0.473   0.495 -0.2972  0.8472 -0.3123
  370SOL    HW1 1109   2.771   0.447   0.523 -0.6248  0.0920 -1.4725
  370SOL    HW2 1110   2.903   0.394   0.439  0.7327 -1.3547 -0.6705
  371SOL     OW 1111   1.594   2.241   0.784  0.3690  0.1601  0.1762
  371SOL    HW1 1112   1.550   2.156   0.755  0.7306  4.2699  0.2339
  371SOL    HW2 1113   1.690   2.231   0.812 -0.9980 -1.4967 -1.4619
  372SOL     OW 1114   2.827   0.768   2.670  0.1989 -0.0654 -0.0956
  372SOL    HW1 1115   2.921   0.793   2.636 -1.7397  0.7347  0.2230
  372SOL    HW2 1116   2.806   0.829   2.748  2.1960  0.8299  0.7400
  373SOL     OW 1117   2.868   1.540   1.123  0.2630  0.1199  0.1579
  373SOL    HW1 1118   2.902   1.613   1.052  1.0273  2.2844 -2.7849
  373SOL    HW2 1119   2.818   1.461   1.079  0.9746 -4.3611 -0.3130
  374SOL     OW 1120   0.718   2.933   3.016 -0.1753  0.0946  0.0233
  374SOL    HW1 1121   0.713   2.995   3.097  0.8992  1.2773  4.2244
  374SOL    HW2 1122   0.796   2.953   2.958  0.4678 -1.1041  3.6375
  375SOL     OW 1123   0.239   2.997   0.081  0.1588 -0.5018  0.1350
  375SOL    HW1 1124   0.271   3.000   0.182 -1.2555  1.3998  1.0879
  375SOL    HW2 1125   0.150   3.048   0.072 -1.1155  1.8708  0.9126
  376SOL     OW 1126   3.024   2.160   1.522 -0.0140  0.4570 -0.7009
  376SOL    HW1 1127   2.988   2.118   1.609 -1.8291 -0.1091 -3.3113
  376SOL    HW2 1128   3.039   2.092   1.452  0.7057 -1.5060 -2.2773
  377SOL     OW 1129   1.704   2.392   2.597  0.0923 -0.5630 -0.5072
  377SOL    HW1 1130   1.684   2.364   2.696  0.1226  0.5550  1.6367
  377SOL    HW2 1131   1.732   2.309   2.551 -1.7153 -0.5110 -0.5995
  378SOL     OW 1132   0.554   0.419   3.044  0.0541 -0.0538  0.2649
  378SOL    HW1 1133   0.501   0.503   3.019  1.2097 -1.4537  1.3837
  378SOL    HW2 1134   0.617   0.387   2.969  1.3260  0.4753  0.7470
  379SOL     OW 1135   0.583   0.846   0.339 -0.0342 -0.1223  0.5749
  379SOL    HW1 1136   0.640   0.928   0.367 -0.3897  0.3845  1.1222
  379SOL    HW2 1137   0.486   0.868   0.355  1.5077  0.0821  0.4251
  380SOL     OW 1138   2.980   1.818   1.938 -0.3802  0.5566 -0.0919
  380SOL    HW1 1139   2.939   1.720   1.936 -1.2179 -2.4053 -1.3492
  380SOL    HW2 1140   3.080   1.813   1.958  2.3312  0.0748  1.6630
  381SOL     OW 1141   0.254   1.163   1.704 -0.1854  0.2640 -0.0825
  381SOL    HW1 1142   0.328   1.220   1.747  1.2116 -0.5532 -0.9046
  381SOL    HW2 1143   0.293   1.086   1.651  1.6040  4.0629  3.3408
  382SOL     OW 1144   2.509   2.143   0.295 -0.2122 -0.7419 -0.3370
  382SOL    HW1 1145   2.419   2.110   0.324  0.8051  2.8762 -1.3240
  382SOL    HW2 1146   2.514   2.157   0.199 -0.4600  1.2578  5.5802
  383SOL     OW 1147   2.810   2.006   2.873  0.1615  0.7987  0.7367
  383SOL    HW1 1148   2.889   1.960   2.918 -1.8457  3.5224 -0.8820
  383SOL    HW2 1149   2.826   2.109   2.873  3.3926 -1.8266 -2.5940
  384SOL     OW 1150   0.596   2.253   2.531  0.4910 -0.0929  0.1401
  384SOL    HW1 1151   0.611   2.190   2.606 -0.8431  0.1567 -4.2691
  384SOL    HW2 1152   0.497   2.269   2.523 -0.6415 -0.2480  1.4260
  385SOL     OW 1153   3.084   1.264   1.108 -0.6690 -0.1459 -0.0274
  385SOL    HW1 1154   3.083   1.335   1.184  0.6983  1.1382  2.8031
  385SOL    HW2 1155   3.000   1.259   1.047 -0.8253 -0.2604  1.1991
  386SOL     OW 1156   2.119   1.536   1.561 -0.0385  0.1896 -0.6894
  386SOL    HW1 1157   2.197   1.601   1.539  1.3408  1.2025  0.7874
  386SOL    HW2 1158   2.079   1.503   1.476 -1.9409 -0.5071  0.1288
  387SOL     OW 1159   2.678   1.258   1.977 -0.3189 -0.2290  0.4026
  387SOL    HW1 1160   2.759   1.214   1.932  0.6523 -0.4451  0.5670
  387SOL    HW2 1161   2.659   1.354   1.946  0.8153  1.7291 -0.8415
  388SOL     OW 1162   2.743   1.274   2.254  0.6347  0.2193 -0.2302
  388SOL    HW1 1163   2.663   1.230   2.298 -1.5338  0.9754  2.7478
  388SOL    HW2 1164   2.743   1.267   2.150 -1.0439 -1.0708  0.9392
  389SOL     OW 1165   2.032   1.227   2.001  0.0960 -0.2442 -0.2835
  389SOL    HW1 1166   1.984   1.153   2.049 -0.8947 -0.1765  2.3080
  389SOL    HW2 1167   2.132   1.216   2.020  0.3102 -1.4101 -2.2149
  390SOL     OW 1168   1.785   2.725   0.387  0.8829  0.1974 -0.3694
  390SOL    HW1 1169   1.876   2.698   0.419  0.8581  0.0223 -0.2305
  390SOL    HW2 1170   1.740   2.657   0.329  0.6982  4.2692  4.5023
  391SOL     OW 1171   2.163   1.787   0.953 -0.8558  0.1231  0.0031
  391SOL    HW1 1172   2.212   1.856   1.012 -1.4357  0.8774 -1.0042
  391SOL    HW2 1173   2.062   1.787   0.970 -1.8580 -0.6812 -2.3827
  392SOL     OW 1174   2.841   2.460   0.965 -0.3769  0.5952  0.1728
  392SOL    HW1 1175   2.909   2.419   0.893  3.6791 -0.0586 -2.8366
  392SOL    HW2 1176   2.888   2.505   1.040 -1.7761 -0.2921 -0.3312
  393SOL     OW 1177   1.796   1.822   2.790 -0.2928 -0.4352  0.3526
  393SOL    HW1 1178   1.870   1.779   2.847 -0.6769 -0.5046  0.0737
  393SOL    HW2 1179   1.724   1.753   2.776 -0.9327 -0.8976 -2.2176
  394SOL     OW 1180   0.138   0.211   2.875 -0.1003  0.2732  0.1305
  394SOL    HW1 1181   0.079   0.124   2.871 -2.3443 -0.9988  2.5312
  394SOL    HW2 1182   0.195   0.213   2.958  0.7782  0.6549 -0.5135
  395SOL     OW 1183   0.777   0.845   0.839  0.0270  0.7309 -0.1773
  395SOL    HW1 1184   0.874   0.846   0.873  0.4153  0.3108  0.9628
  395SOL    HW2 1185   0.765   0.922   0.780 -2.7365 -2.8931 -0.2307
  396SOL     OW 1186   1.197   1.088   0.638  0.3357 -0.5599 -0.1501
  396SOL    HW1 1187   1.221   1.047   0.730 -0.1396  3.2739  0.6548
  396SOL    HW2 1188   1.274   1.121   0.583 -1.7749 -0.2846  0.6218
  397SOL     OW 1189   0.582   0.676   2.038  0.3512  0.7644  0.2348
  397SOL    HW1 1190   0.493   0.641   2.075  1.8390  2.2270 -0.0717
  397SOL    HW2 1191   0.595   0.779   2.022 -1.4067  0.5141  0.0350
  398SOL     OW 1192   1.251   0.135   0.373  0.0153  0.6680  0.0754
  398SOL    HW1 1193   1.294   0.227   0.387  2.1298  1.1640  1.0316
  398SOL    HW2 1194   1.323   0.064   0.349 -1.6038 -0.6321 -0.4215
  399SOL     OW 1195   1.984   3.008   1.598  0.2697 -0.2354 -0.3787
  399SOL    HW1 1196   1.937   2.935   1.657 -1.3020  0.6860  1.8611
  399SOL    HW2 1197   1.977   0.003   1.633  4.0788 -3.4069 -1.9216
  400SOL     OW 1198   1.129   1.669   2.053  1.0095 -0.7646 -0.1155
  400SOL    HW1 1199   1.223   1.709   2.079 -1.1442  1.0954 -2.0385
  400SOL    HW2 1200   1.080   1.624   2.130 -1.8991  0.7793 -0.7430
  401SOL     OW 1201   0.675   1.103   2.765  0.6666  0.1756  0.7277
  401SOL    HW1 1202   0.726   1.026   2.802  0.0516 -1.2356 -0.3298
  401SOL    HW2 1203   0.603   1.128   2.835  1.0501 -0.3413  1.5644
  402SOL     OW 1204   2.781   1.890   0.948  0.1271 -0.6872 -0.2048
  402SOL    HW1 1205   2.842   1.804   0.939 -0.9797 -0.9864  0.8313
  402SOL    HW2 1206   2.686   1.868   0.981 -0.6490 -0.7169  2.6486
  403SOL     OW 1207   0.051   0.958   2.194  0.0399 -0.8026  0.5379
  403SOL    HW1 1208   3.074   1.019   2.222 -0.3362 -0.3835  1.0496
  403SOL    HW2 1209   0.123   1.000   2.136 -0.6470 -0.3921  0.7434
  404SOL     OW 1210   0.150   2.596   1.781  0.0118 -0.0474  0.3160
  404SOL    HW1 1211   0.253   2.592   1.774  1.6826 -0.4996 -1.4525
  404SOL    HW2 1212   0.098   2.587   1.689 -2.0171  1.1315 -0.0247
  405SOL     OW 1213   0.393   0.323   2.148 -0.4457  0.3365 -0.0814
  405SOL    HW1 1214   0.424   0.353   2.241 -0.8232  1.0377  0.2698
  405SOL    HW2 1215   0.308   0.270   2.148 -2.0789 -0.3232  1.1581
  406SOL     OW 1216   1.645   1.978   2.334 -0.3022 -0.0026 -0.4226
  406SOL    HW1 1217   1.596   2.028   2.259 -2.0947 -0.4455 -3.4311
  406SOL    HW2 1218   1.714   1.913   2.306 -2.6338  0.8459  0.9324
  407SOL     OW 1219   1.221   1.262   2.148  0.5676  0.3903 -0.2816
  407SOL    HW1 1220   1.317   1.271   2.113 -1.3245  1.0289  1.7062
  407SOL    HW2 1221   1.201   1.172   2.197 -0.1507 -0.3801  1.9024
  408SOL     OW 1222   0.751   0.035   2.416  0.2889 -0.0601 -0.5092
  408SOL    HW1 1223   0.724   0.068   2.320 -0.0368  1.2338 -1.2384
  408SOL    HW2 1224   0.852   0.036   2.436 -1.7042 -0.1752 -0.4114
  409SOL     OW 1225   0.464   1.987   0.523 -0.0856 -0.1082  0.5194
  409SOL    HW1 1226   0.519   1.904   0.566  1.0730 -3.6881 -0.2182
  409SOL    HW2 1227   0.517   2.040   0.454  2.2480  2.8964 -2.6791
  410SOL     OW 1228   2.803   1.152   0.424 -0.0785  0.6409 -0.0993
  410SOL    HW1 1229   2.814   1.063   0.380  0.0046 -1.7777  0.5164
  410SOL    HW2 1230   2.753   1.222   0.366 -0.5557  0.9221 -0.1868
  411SOL     OW 1231   0.173   0.047   1.157 -0.5064 -0.4304 -0.2287
  411SOL    HW1 1232   0.151   0.011   1.065  1.0896  3.0446  0.1641
  411SOL    HW2 1233   0.088   0.053   1.217 -0.3714  1.8617 -1.5513
  412SOL     OW 1234   1.472   1.003   1.402  0.4742  0.1979 -0.2199
  412SOL    HW1 1235   1.568   1.012   1.366  0.0737  0.6520 -0.1987
  412SOL    HW2 1236   1.449   0.906   1.417 -0.9928 -0.5615 -0.2228
  413SOL     OW 1237   0.629   0.080   1.580 -0.4698 -0.1163 -0.0463
  413SOL    HW1 1238   0.633   0.174   1.613 -1.0331 -1.8184  2.6539
  413SOL    HW2 1239   0.704   0.062   1.518 -0.2594  0.6508 -0.0102
  414SOL     OW 1240   2.778   1.582   2.724  0.0135 -0.0815 -0.6910
  414SOL    HW1 1241   2.723   1.673   2.723  1.8352  2.7945 -1.6027
  414SOL    HW2 1242   2.829   1.565   2.817  2.3665 -0.7609  3.3483
  415SOL     OW 1243   0.768   2.520   2.915 -0.3070  0.3130 -0.7061
  415SOL    HW1 1244   0.675   2.547   2.891  2.0172 -1.6190  1.6158
  415SOL    HW2 1245   0.809   2.572   2.987 -0.1506  0.0257 -1.6533
  416SOL     OW 1246   2.069   2.943   0.246 -0.0802  0.1423  0.5748
  416SOL    HW1 1247   1.995   2.926   0.175  2.2323  2.4290 -0.8824
  416SOL    HW2 1248   2.093   3.044   0.253  1.4457 -0.5015  0.3972
  417SOL     OW 1249   0.320   0.602   0.672  0.1807  0.0344  0.6259
  417SOL    HW1 1250   0.397   0.670   0.691  2.0182  2.1471 -3.8850
  417SOL    HW2 1251   0.252   0.592   0.750 -0.0361  0.2886 -2.1719
  418SOL     OW 1252   2.610   0.405   1.188  0.6882 -0.2968 -0.0750
  418SOL    HW1 1253   2.516   0.440   1.176  0.8385 -2.0426  1.5790
  418SOL    HW2 1254   2.635   0.406   1.288  0.8883 -1.3650  0.8693
  419SOL     OW 1255   0.118   2.970   0.589 -0.5390 -0.2501  0.0090
  419SOL    HW1 1256   0.089   3.068   0.612 -3.3168  1.9028 -0.4950
  419SOL    HW2 1257   0.043   2.912   0.551 -1.1189 -0.4071 -0.9921
  420SOL     OW 1258   0.217   1.627   1.643  0.1198  0.3802 -0.0647
  420SOL    HW1 1259   0.312   1.659   1.679  3.7296  2.4435  1.8262
  420SOL    HW2 1260   0.223   1.536   1.600 -2.5676  2.0812  2.1600
  421SOL     OW 1261   1.231   2.919   0.488 -0.3986 -0.3644  0.1573
  421SOL    HW1 1262   1.162   2.973   0.538  3.2110 -1.1871  0.8901
  421SOL    HW2 1263   1.224   2.928   0.387 -0.7894  0.7698 -1.4376
  422SOL     OW 1264   0.356   0.670   1.515 -0.1140  0.5061  0.0999
  422SOL    HW1 1265   0.332   0.762   1.557  0.0987 -0.2240  3.2540
  422SOL    HW2 1266   0.273   0.608   1.513  1.6306  0.5717  2.1713
  423SOL     OW 1267   1.077   1.304   1.456  0.1524 -0.6721  0.3641
  423SOL    HW1 1268   1.100   1.340   1.549 -0.8717  2.0094 -2.4671
  423SOL    HW2 1269   1.162   1.268   1.405  1.7943  0.8801  0.1273
  424SOL     OW 1270   2.179   1.410   3.005 -0.1699 -0.0634 -0.2089
  424SOL    HW1 1271   2.126   1.457   3.079  0.5472 -1.0886  1.5424
  424SOL    HW2 1272   2.115   1.394   2.925  1.2546  2.3954  0.8001
  425SOL     OW 1273   0.163   0.181   2.139  0.1596 -0.5674  0.1460
  425SOL    HW1 1274   0.097   0.197   2.218 -0.9109 -3.1558  1.0270
  425SOL    HW2 1275   0.141   0.091   2.100  0.6725 -2.2482  2.6134
  426SOL     OW 1276   0.383   3.060   2.981 -0.0814  0.3893  0.1761
  426SOL    HW1 1277   0.333   3.041   3.067 -0.3724 -0.3981  0.8605
  426SOL    HW2 1278   0.340   3.020   2.896 -2.5199 -1.9520 -4.4177
  427SOL     OW 1279   1.105   1.112   2.754 -0.5945  0.5769 -0.2339
  427SOL    HW1 1280   1.201   1.110   2.725 -2.7844  0.1639 -1.9087
  427SOL    HW2 1281   1.099   1.103   2.854  2.2197 -0.6014 -4.7676
  428SOL     OW 1282   2.484   1.327   1.556 -0.0967 -0.0061 -0.0356
  428SOL    HW1 1283   2.396   1.330   1.613 -0.2915  1.7465 -1.5290
  428SOL    HW2 1284   2.466   1.282   1.464  0.5221  0.1901 -0.0452
  429SOL     OW 1285   2.263   2.825   0.915  1.0262 -0.1795  0.2550
  429SOL    HW1 1286   2.354   2.813   0.883 -1.3307  0.9820 -0.3986
  429SOL    HW2 1287   2.223   2.736   0.952  0.3765  2.1188  2.8373
  430SOL     OW 1288   0.803   1.312   2.265  0.2513  0.1284 -0.2342
  430SOL    HW1 1289   0.843   1.232   2.315  0.9730  1.1973  0.1666
  430SOL    HW2 1290   0.734   1.367   2.317 -1.0765 -0.1009  0.7550
  431SOL     OW 1291   2.606   1.558   1.619 -0.7393  0.3278  0.2098
  431SOL    HW1 1292   2.709   1.551   1.607  2.0295 -0.1153 -2.2227
  431SOL    HW2 1293   2.561   1.469   1.591  2.1306 -2.0434 -0.5763
  432SOL     OW 1294   0.943   2.563   2.187  0.1655 -0.1983 -0.1413
  432SOL    HW1 1295   0.922   2.656   2.226 -2.3624 -1.0096  1.3507
  432SOL    HW2 1296   0.979   2.504   2.262 -1.4543 -2.1996  1.4037
  433SOL     OW 1297   1.851   0.151   2.231 -0.6553 -0.0113 -0.5882
  433SOL    HW1 1298   1.880   0.056   2.199 -1.9980  0.2368  0.9509
  433SOL    HW2 1299   1.774   0.187   2.176  2.3891  2.2518  2.9003
  434SOL     OW 1300   0.613   2.664   2.458  0.5410 -0.3746 -0.2627
  434SOL    HW1 1301   0.518   2.625   2.473 -2.9383  0.6565 -0.5888
  434SOL    HW2 1302   0.645   2.719   2.539  0.4999 -1.3914 -1.0151
  435SOL     OW 1303   0.383   2.738   0.203  0.2621  0.2156  0.3192
  435SOL    HW1 1304   0.373   2.827   0.250 -0.1623  0.2733  1.3014
  435SOL    HW2 1305   0.298   2.682   0.216 -3.7655 -0.7352  1.0800
  436SOL     OW 1306   0.783   0.575   1.881 -0.1961 -0.5476 -0.3745
  436SOL    HW1 1307   0.706   0.633   1.913 -0.5376  0.7356  0.1304
  436SOL    HW2 1308   0.798   0.511   1.958 -0.3304 -0.8488 -1.3671
  437SOL     OW 1309   0.340   2.574   2.382  0.1052 -0.3414  0.5339
  437SOL    HW1 1310   0.335   2.512   2.299 -1.2369 -0.5088 -0.5393
  437SOL    HW2 1311   0.253   2.572   2.429 -0.3278 -1.3798  1.3385
  438SOL     OW 1312   0.493   1.372   1.747 -0.3551 -0.2608 -0.1457
  438SOL    HW1 1313   0.503   1.476   1.737  0.6830  0.6442 -0.1770
  438SOL    HW2 1314   0.535   1.341   1.836  2.6134 -0.8988  0.0802
  439SOL     OW 1315   2.212   0.814   2.239  0.1242 -0.0468 -0.1882
  439SOL    HW1 1316   2.179   0.756   2.317  1.4859 -0.0047  0.1622
  439SOL    HW2 1317   2.256   0.897   2.274 -0.4654 -0.5542  1.2532
  440SOL     OW 1318   0.411   0.624   0.242  0.2046 -0.1459 -0.5023
  440SOL    HW1 1319   0.474   0.576   0.310 -0.3357  2.8356 -1.0776
  440SOL    HW2 1320   0.449   0.714   0.217  2.5061 -0.2010 -1.0181
  441SOL     OW 1321   1.016   2.454   1.188  0.2190 -0.0515 -0.0135
  441SOL    HW1 1322   0.931   2.505   1.214 -0.3595  2.3648 -1.1827
  441SOL    HW2 1323   1.085   2.512   1.149 -1.6976  1.0180  1.7107
  442SOL     OW 1324   2.309   1.473   0.668 -0.7189 -0.8965  0.4838
  442SOL    HW1 1325   2.289   1.523   0.580 -3.2288  0.3663 -0.1332
  442SOL    HW2 1326   2.409   1.455   0.678 -1.3921  0.7827 -0.1165
  443SOL     OW 1327   2.628   1.891   2.449 -0.3324 -0.0077 -0.8237
  443SOL    HW1 1328   2.607   1.977   2.403 -1.5794 -0.3425 -2.2630
  443SOL    HW2 1329   2.614   1.818   2.378  1.2063  0.0275 -2.1681
  444SOL     OW 1330   1.680   1.331   2.879 -0.4853  0.6815  0.0987
  444SOL    HW1 1331   1.625   1.316   2.962 -0.1939  1.9119 -3.7572
  444SOL    HW2 1332   1.682   1.249   2.819  1.2966  2.3899  2.3849
  445SOL     OW 1333   2.579   2.775   2.206  0.2596  0.2908 -0.0676
  445SOL    HW1 1334   2.625   2.707   2.142 -0.0820 -1.4417 -1.2915
  445SOL    HW2 1335   2.641   2.854   2.227 -2.4295  3.1639 -1.5765
  446SOL     OW 1336   0.423   0.991   1.557  0.3576 -0.0263 -0.7810
  446SOL    HW1 1337   0.511   0.942   1.583  1.2587  0.0202 -0.5106
  446SOL    HW2 1338   0.449   1.088   1.541  0.3853 -0.5701  0.3269
  447SOL     OW 1339   0.787   1.353   0.933  0.1296  0.3358 -0.4335
  447SOL    HW1 1340   0.880   1.338   0.965 -0.7557  0.5560  1.0937
  447SOL    HW2 1341   0.734   1.392   1.014 -0.1672  2.4515  1.9435
  448SOL     OW 1342   1.209   1.071   1.795  0.4577  0.1067 -0.0525
  448SOL    HW1 1343   1.263   1.107   1.717  0.0122  0.9553 -0.2855
  448SOL    HW2 1344   1.137   1.015   1.762  0.2853  1.0042  1.7144
  449SOL     OW 1345   3.085   1.931   2.306  0.1461 -0.5325 -0.0502
  449SOL    HW1 1346   3.066   2.006   2.238 -2.3613 -0.4422 -1.9976
  449SOL    HW2 1347   0.061   1.864   2.273  0.6790 -0.4548 -2.2469
  450SOL     OW 1348   2.729   1.949   2.029  0.2959 -0.3287 -0.1302
  450SOL    HW1 1349   2.769   2.033   2.076 -0.3288 -1.0866  2.4459
  450SOL    HW2 1350   2.803   1.896   1.983 -3.9848 -0.3180 -0.3959
  451SOL     OW 1351   2.349   1.094   1.363 -0.2484 -0.0351 -0.1052
  451SOL    HW1 1352   2.248   1.063   1.356  0.2876  1.6924  0.0432
  451SOL    HW2 1353   2.414   1.016   1.346  1.0225  0.8704  1.6550
  452SOL     OW 1354   0.284   1.411   1.489 -0.0589 -0.3441 -0.2212
  452SOL    HW1 1355   0.357   1.346   1.505  2.1270 -0.5402  0.8299
  452SOL    HW2 1356   0.206   1.360   1.440  2.1000  0.9532 -3.1858
  453SOL     OW 1357   0.395   1.471   1.101  0.3277 -0.5199 -0.3814
  453SOL    HW1 1358   0.360   1.377   1.094  0.7790  0.2164 -0.7189
  453SOL    HW2 1359   0.442   1.491   1.189 -1.4203  0.2763  0.2502
  454SOL     OW 1360   0.319   1.544   0.144  0.3664  0.3591 -0.0837
  454SOL    HW1 1361   0.420   1.558   0.138  1.1913 -0.7594  0.4467
  454SOL    HW2 1362   0.298   1.454   0.094 -0.9794 -3.1336 -1.5314
  455SOL     OW 1363   1.853   1.017   0.970  0.5028  0.0808 -0.5040
  455SOL    HW1 1364   1.817   1.045   1.060 -0.4749 -3.5924  0.5560
  455SOL    HW2 1365   1.837   0.915   0.960 -2.8529  0.8533  0.2594
  456SOL     OW 1366   1.861   2.467   0.676 -0.6050 -0.2190  0.3047
  456SOL    HW1 1367   1.921   2.542   0.636  1.7032 -0.6848 -0.5678
  456SOL    HW2 1368   1.912   2.429   0.760  2.0401  1.5308  2.0418
  457SOL     OW 1369   1.827   2.997   2.519  0.4339 -1.2317 -0.2276
  457SOL    HW1 1370   1.756   3.072   2.510 -1.5937  0.6426 -0.0941
  457SOL    HW2 1371   1.919   3.039   2.508  2.0585  1.2434  0.0721
  458SOL     OW 1372   2.327   0.350   0.347 -0.6462  0.0925 -0.1830
  458SOL    HW1 1373   2.375   0.384   0.262 -1.0882 -0.6756  1.1338
  458SOL    HW2 1374   2.245   0.407   0.369  0.1412 -0.8300  3.5210
  459SOL     OW 1375   3.009   1.185   2.362  0.2970  0.0874 -0.0208
  459SOL    HW1 1376   2.917   1.216   2.335 -0.1220 -1.5984  1.5668
  459SOL    HW2 1377   3.084   1.247   2.342 -0.0256 -0.1931 -1.8203
  460SOL     OW 1378   0.186   0.604   0.086  0.1052 -0.1383 -0.2905
  460SOL    HW1 1379   0.212   0.616   3.088  0.7596  0.4020  2.4971
  460SOL    HW2 1380   0.266   0.601   0.151 -1.4178 -2.8545  0.4688
  461SOL     OW 1381   2.909   2.341   0.714 -0.8782  0.1076 -0.2750
  461SOL    HW1 1382   2.888   2.240   0.729 -2.3604  0.6475 -0.0879
  461SOL    HW2 1383   2.988   2.357   0.651  2.7178  0.6456  0.2593
  462SOL     OW 1384   0.375   3.078   1.580  0.9035  0.1559 -0.5005
  462SOL    HW1 1385   0.473   0.006   1.571  2.2875 -0.3105 -0.4856
  462SOL    HW2 1386   0.343   3.045   1.487  1.5564  1.1500  0.0425
  463SOL     OW 1387   2.146   2.156   1.921  0.5792  0.1903  0.3757
  463SOL    HW1 1388   2.067   2.216   1.942  1.8688 -0.7891 -4.3329
  463SOL    HW2 1389   2.189   2.192   1.834 -0.3013 -2.6463  1.3417
  464SOL     OW 1390   0.357   3.003   1.309 -0.1468  0.1176 -0.4843
  464SOL    HW1 1391   0.444   3.058   1.289 -2.1559  3.8972 -0.9594
  464SOL    HW2 1392   0.284   3.045   1.243 -0.6972  1.8986  0.7534
  465SOL     OW 1393   0.583   0.343   1.625 -0.9084  0.3978  0.5322
  465SOL    HW1 1394   0.676   0.390   1.622  2.0260 -0.1718  0.6859
  465SOL    HW2 1395   0.524   0.376   1.700  1.1626 -1.2429 -0.4492
  466SOL     OW 1396   1.457   1.943   1.924 -0.1896 -0.0369  0.0003
  466SOL    HW1 1397   1.540   1.935   1.867  1.1974  1.6979  0.5729
  466SOL    HW2 1398   1.371   1.925   1.863 -3.5692  1.3622 -1.9287
  467SOL     OW 1399   0.103   1.801   0.861  0.1810  0.5664 -0.3719
  467SOL    HW1 1400   0.148   1.779   0.950  1.8250 -0.9581  2.3141
  467SOL    HW2 1401   0.132   1.747   0.788 -0.4692  3.6617  3.4671
  468SOL     OW 1402   2.334   2.071   2.583 -0.8286 -0.3364  0.2236
  468SOL    HW1 1403   2.421   2.079   2.527  0.7822 -0.9671 -2.0874
  468SOL    HW2 1404   2.267   2.014   2.535  0.1842  0.9712  0.4497
  469SOL     OW 1405   1.108   2.399   0.519  0.3662 -0.4140 -0.6725
  469SOL    HW1 1406   1.075   2.319   0.470 -0.7276  0.3562  2.6332
  469SOL    HW2 1407   1.209   2.422   0.501  0.1731  4.6285 -0.6588
  470SOL     OW 1408   1.868   1.638   1.286 -0.0171 -0.0067 -0.9279
  470SOL    HW1 1409   1.921   1.724   1.274 -0.1854 -0.6705 -1.2937
  470SOL    HW2 1410   1.792   1.657   1.356 -0.2568 -0.3239  0.7512
  471SOL     OW 1411   0.777   2.477   0.177  0.0018  0.5872  0.0761
  471SOL    HW1 1412   0.685   2.492   0.209  0.7701  1.6408  0.9809
  471SOL    HW2 1413   0.818   2.560   0.136 -1.0118  0.4670  0.2804
  472SOL     OW 1414   2.481   1.906   2.165  0.0562  0.2104 -0.3328
  472SOL    HW1 1415   2.576   1.915   2.143 -0.7292  0.3212  1.3173
  472SOL    HW2 1416   2.429   1.992   2.140 -3.8257  1.6770 -0.0789
  473SOL     OW 1417   1.285   2.668   0.633 -0.0305  0.1820 -0.2747
  473SOL    HW1 1418   1.338   2.608   0.572 -2.1837  1.1630 -3.6478
  473SOL    HW2 1419   1.247   2.747   0.577  0.8698 -2.6765 -1.6109
  474SOL     OW 1420   3.032   0.056   1.320  0.1711  0.2408  0.4589
  474SOL    HW1 1421   2.932   0.048   1.289 -1.7805 -1.5620  2.4150
  474SOL    HW2 1422   3.031   0.105   1.414  0.7887  1.6106 -0.4140
  475SOL     OW 1423   1.697   2.677   2.035 -0.8269  0.6650 -0.6176
  475SOL    HW1 1424   1.732   2.673   2.128  0.1032  1.0655 -0.2754
  475SOL    HW2 1425   1.620   2.610   2.024  1.2358 -0.2139 -1.5632
  476SOL     OW 1426   0.461   0.301   1.016  0.6916  0.1176 -0.1114
  476SOL    HW1 1427   0.506   0.394   1.028 -1.1787  2.1696  2.3225
  476SOL    HW2 1428   0.393   0.282   1.092  0.5079 -0.7301 -0.5173
  477SOL     OW 1429   0.757   2.130   0.883 -0.4215  0.2820  0.5065
  477SOL    HW1 1430   0.754   2.109   0.982 -0.8268  2.8786 -1.0452
  477SOL    HW2 1431   0.801   2.224   0.881  0.5523  3.3182  1.9493
  478SOL     OW 1432   0.702   2.786   2.682  0.0818 -0.0563 -0.0362
  478SOL    HW1 1433   0.786   2.729   2.699  2.0227  0.4314 -0.5388
  478SOL    HW2 1434   0.616   2.756   2.734 -0.6764  1.0406  2.5124
  479SOL     OW 1435   0.321   0.594   2.094 -0.1114 -0.1182  0.1724
  479SOL    HW1 1436   0.234   0.600   2.147  1.8440  1.2771  0.2483
  479SOL    HW2 1437   0.358   0.501   2.088 -0.1452  2.0822  0.2006
  480SOL     OW 1438   0.093   2.016   2.813 -0.2678  0.1904 -0.0000
  480SOL    HW1 1439   0.135   2.091   2.873  2.1424  3.0001  2.4181
  480SOL    HW2 1440   0.026   2.054   2.745  0.1950 -1.8040 -1.6513
  481SOL     OW 1441   1.639   2.951   2.195 -0.0085  0.1201 -0.5458
  481SOL    HW1 1442   1.646   2.907   2.285 -1.8264  0.5053 -1.4854
  481SOL    HW2 1443   1.732   2.979   2.160  0.8902  0.1722 -3.8571
  482SOL     OW 1444   1.764   2.073   2.929 -0.5962 -0.6538  0.9625
  482SOL    HW1 1445   1.743   1.987   2.875  0.5256 -2.3774  2.0114
  482SOL    HW2 1446   1.860   2.106   2.907  0.3761  1.0463  1.1079
  483SOL     OW 1447   0.926   2.636   2.575 -0.6510  0.3715 -0.2279
  483SOL    HW1 1448   0.861   2.558   2.550  0.0486 -0.5182  1.4674
  483SOL    HW2 1449   0.996   2.616   2.648 -0.2843 -0.7907 -0.4937
  484SOL     OW 1450   0.525   2.939   1.025 -0.3221  0.0391  0.0791
  484SOL    HW1 1451   0.536   3.043   1.023  3.2711  2.0743 -0.9168
  484SOL    HW2 1452   0.434   2.902   1.058  0.8534 -2.0786  0.7330
  485SOL     OW 1453   2.018   0.635   0.859 -0.0260  0.0742  0.3506
  485SOL    HW1 1454   1.949   0.683   0.916  6.0098  0.7239 -1.0052
  485SOL    HW2 1455   2.012   0.675   0.763 -1.7315  0.1980 -3.1061
  486SOL     OW 1456   1.935   2.593   1.904  0.2138 -0.3097  0.4855
  486SOL    HW1 1457   2.009   2.644   1.949 -1.4551 -0.1505  1.9535
  486SOL    HW2 1458   1.844   2.617   1.950 -0.6085 -0.9760 -1.0381
  487SOL     OW 1459   1.160   1.995   0.821 -0.3514  0.4849 -0.1479
  487SOL    HW1 1460   1.102   2.071   0.856  2.1459 -0.4206 -0.2665
  487SOL    HW2 1461   1.121   1.958   0.733 -0.2456 -0.0134  1.7829
  488SOL     OW 1462   1.838   0.469   0.383  0.1783 -0.3934  0.1474
  488SOL    HW1 1463   1.804   0.507   0.470 -0.1808 -0.4282 -3.8045
  488SOL    HW2 1464   1.934   0.454   0.395 -1.9168 -0.3751 -0.5764
  489SOL     OW 1465   2.220   2.825   0.425 -0.3563  0.1808 -0.6202
  489SOL    HW1 1466   2.198   2.860   0.519  1.1181 -2.2342 -2.2482
  489SOL    HW2 1467   2.167   2.873   0.354 -0.5180  0.2103 -0.5342
  490SOL     OW 1468   1.575   2.835   2.882 -0.2111  0.1937  0.0830
  490SOL    HW1 1469   1.671   2.832   2.842 -0.7063 -1.0234 -1.5904
  490SOL    HW2 1470   1.566   2.915   2.942  1.7183 -0.0999 -0.1284
  491SOL     OW 1471   0.789   0.343   1.203 -0.2105  0.3518  0.4705
  491SOL    HW1 1472   0.773   0.332   1.102  0.7255 -0.2741 -0.2687
  491SOL    HW2 1473   0.697   0.334   1.249 -0.0354 -1.3101 -0.4661
  492SOL     OW 1474   1.802   0.200   0.330 -0.2007  0.3872  0.8010
  492SOL    HW1 1475   1.718   0.163   0.283 -0.2245 -0.8782 -1.6386
  492SOL    HW2 1476   1.793   0.299   0.340 -0.3657 -2.3055  2.7971
  493SOL     OW 1477   2.002   2.198   2.856 -0.3626 -0.3830  0.3444
  493SOL    HW1 1478   1.989   2.300   2.856  1.8682  1.3050 -2.4053
  493SOL    HW2 1479   2.087   2.175   2.912  1.2189 -1.0552  1.0946
  494SOL     OW 1480   0.238   1.235   1.052 -0.0982  0.6929 -0.2036
  494SOL    HW1 1481   0.259   1.157   0.987  1.6757  0.4694 -1.6143
  494SOL    HW2 1482   0.140   1.230   1.085  1.9768  1.4769  1.3331
  495SOL     OW 1483   3.026   0.127   1.601 -0.4959 -0.3983  0.0046
  495SOL    HW1 1484   2.994   0.213   1.644  0.1138  0.2620  1.7521
  495SOL    HW2 1485   0.029   0.117   1.623  2.1279  0.5657  2.0222
  496SOL     OW 1486   2.675   2.600   2.038  0.8811  0.4806  0.1578
  496SOL    HW1 1487   2.739   2.594   1.956  1.0252  2.2784 -0.6149
  496SOL    HW2 1488   2.633   2.507   2.053  1.3764 -3.8329 -1.6964
  497SOL     OW 1489   1.515   1.562   2.513 -0.0611  0.2180  0.2053
  497SOL    HW1 1490   1.480   1.547   2.416 -1.3171 -2.6925  2.2006
  497SOL    HW2 1491   1.522   1.662   2.537 -0.4960  2.2848  1.6145
  498SOL     OW 1492   0.444   1.564   0.643  0.0090  0.3898 -0.6332
  498SOL    HW1 1493   0.362   1.551   0.586  2.7923  1.0322  0.1678
  498SOL    HW2 1494   0.485   1.653   0.611 -0.3300  2.3538 -0.0976
  499SOL     OW 1495   0.083   1.694   1.396 -0.6225 -0.2000 -0.1242
  499SOL    HW1 1496   0.150   1.679   1.474 -0.2500 -0.8535  1.1985
  499SOL    HW2 1497   0.003   1.750   1.424  3.6275  2.8136 -1.1984
  500SOL     OW 1498   1.414   2.383   0.187  0.7153  0.7197  0.6837
  500SOL    HW1 1499   1.411   2.282   0.179 -0.8040  0.9919  0.8103
  500SOL    HW2 1500   1.379   2.430   0.099 -2.4449 -0.3563 -1.6644
  501SOL     OW 1501   2.067   2.375   0.861  0.1174  0.5559  0.3769
  501SOL    HW1 1502   2.110   2.426   0.939  2.1043  1.4513  1.8966
  501SOL    HW2 1503   2.128   2.360   0.780 -3.2175 -0.7581  0.3041
  502SOL     OW 1504   0.081   0.749   1.729 -0.5489 -0.0724 -0.2188
  502SOL    HW1 1505   0.066   0.736   1.629 -0.8759  2.4535  0.6089
  502SOL    HW2 1506   0.179   0.755   1.748 -0.1599  2.1613 -1.2339
  503SOL     OW 1507   2.202   0.181   1.780  0.2537  0.0644  0.1044
  503SOL    HW1 1508   2.233   0.105   1.722  3.0146 -0.4715  0.2205
  503SOL    HW2 1509   2.287   0.227   1.809 -0.5377 -1.4240  0.1246
  504SOL     OW 1510   1.866   0.800   1.879 -0.1293 -0.2662  0.1573
  504SOL    HW1 1511   1.799   0.803   1.958  1.7917  0.8541  0.6056
  504SOL    HW2 1512   1.952   0.844   1.914  0.4235  1.9661  0.7480
  505SOL     OW 1513   1.121   2.955   2.365  0.2619 -0.2303 -0.0779
  505SOL    HW1 1514   1.163   2.942   2.458  0.1017  1.2918  0.5486
  505SOL    HW2 1515   1.041   2.894   2.347  1.5300  1.7201 -0.3154
  506SOL     OW 1516   0.621   0.307   1.962  0.1334 -0.0482  0.0884
  506SOL    HW1 1517   0.567   0.273   2.042  1.6040  0.5532 -1.7615
  506SOL    HW2 1518   0.557   0.346   1.891 -1.9995 -2.3350  0.3679
  507SOL     OW 1519   1.587   0.297   2.943 -0.2204  0.0036  0.1010
  507SOL    HW1 1520   1.492   0.313   2.900 -3.8997  1.7529 -1.7871
  507SOL    HW2 1521   1.561   0.274   3.042 -0.1490  0.6540  4.1026
  508SOL     OW 1522   2.255   0.481   2.653 -0.0959 -0.2973  0.0940
  508SOL    HW1 1523   2.174   0.451   2.708  0.7797 -0.0088 -0.2151
  508SOL    HW2 1524   2.337   0.480   2.710  1.4544 -1.1737 -1.9933
  509SOL     OW 1525   0.963   1.482   1.888 -0.2819 -0.5442 -0.2710
  509SOL    HW1 1526   0.976   1.381   1.908  0.6840 -2.3767  1.5357
  509SOL    HW2 1527   1.010   1.539   1.955 -1.9623 -0.0939 -2.1365
  510SOL     OW 1528   0.039   0.404   0.738  0.1055 -0.1012  0.9710
  510SOL    HW1 1529   0.079   0.490   0.776 -0.5421  0.5240 -0.3138
  510SOL    HW2 1530   0.031   0.403   0.634  0.6075 -0.5539  1.3412
  511SOL     OW 1531   1.485   1.457   0.759  0.3782 -0.4441 -0.3249
  511SOL    HW1 1532   1.420   1.489   0.683 -1.7211  1.3828 -2.5252
  511SOL    HW2 1533   1.519   1.541   0.808 -0.2565  0.0863  1.7467
  512SOL     OW 1534   0.657   1.315   0.239  0.5287 -0.4436  0.7000
  512SOL    HW1 1535   0.583   1.242   0.233  0.4595 -2.3789 -1.3007
  512SOL    HW2 1536   0.701   1.318   0.329  0.7752  0.8105 -3.6387
  513SOL     OW 1537   0.073   2.348   0.594 -0.7297  0.3161 -0.0234
  513SOL    HW1 1538   0.145   2.276   0.585 -0.1515 -1.0797  1.2651
  513SOL    HW2 1539   0.101   2.438   0.551 -0.3965  4.0941  0.2404
  514SOL     OW 1540   0.313   2.133   0.116 -0.8646 -0.3178  0.1617
  514SOL    HW1 1541   0.233   2.124   0.174  0.1219  2.7583 -3.0488
  514SOL    HW2 1542   0.357   2.043   0.092  1.7517  1.3206 -1.8924
  515SOL     OW 1543   2.781   0.291   0.208 -0.4371  0.4291  0.2410
  515SOL    HW1 1544   2.714   0.216   0.220  2.7206  2.7577 -0.4813
  515SOL    HW2 1545   2.861   0.281   0.270  1.9587 -1.2695 -0.5824
  516SOL     OW 1546   1.957   2.797   1.058 -0.0015  0.0151  0.3016
  516SOL    HW1 1547   1.995   2.768   1.147  0.0727 -2.6796  1.2761
  516SOL    HW2 1548   1.854   2.817   1.067  1.2686  1.7801  1.9444
  517SOL     OW 1549   1.398   1.670   0.090  0.6560 -0.1815 -0.1602
  517SOL    HW1 1550   1.370   1.606   0.162 -0.1441 -2.2151  0.2889
  517SOL    HW2 1551   1.372   1.628   0.003 -0.8479 -0.7868  2.3418
  518SOL     OW 1552   1.403   0.730   1.421 -1.1242  0.0511  0.2814
  518SOL    HW1 1553   1.435   0.668   1.346  0.7988 -0.5578  0.4245
  518SOL    HW2 1554   1.304   0.723   1.439  0.4951  2.2740  2.1154
  519SOL     OW 1555   3.037   2.054   0.556  0.0013 -0.5922  0.0693
  519SOL    HW1 1556   0.030   2.055   0.603 -1.2328  1.5784 -1.5384
  519SOL    HW2 1557   2.961   2.056   0.625  0.2254  2.1736  0.1959
  520SOL     OW 1558   2.302   2.424   1.795  0.7643  0.5121 -0.2944
  520SOL    HW1 1559   2.379   2.471   1.750 -1.3273 -1.5697 -0.6262
  520SOL    HW2 1560   2.296   2.450   1.893  0.7924 -0.7269 -1.0366
  521SOL     OW 1561   1.255   2.953   2.603  0.2860  0.0386 -0.0556
  521SOL    HW1 1562   1.293   2.863   2.644  1.9759  0.3848  0.2681
  521SOL    HW2 1563   1.302   3.033   2.649  1.4024  0.2358  1.7827
  522SOL     OW 1564   2.994   0.111   1.935  0.0675  0.1917  0.0848
  522SOL    HW1 1565   3.072   0.048   1.942 -1.2825  2.0858 -1.5128
  522SOL    HW2 1566   2.988   0.148   1.842 -1.2711 -1.2661  3.6826
  523SOL     OW 1567   1.244   2.182   1.719  0.8929  0.2722 -0.1394
  523SOL    HW1 1568   1.228   2.154   1.814  0.6221  1.2683  0.8928
  523SOL    HW2 1569   1.300   2.106   1.682  1.7688  0.5315  0.8841
  524SOL     OW 1570   2.198   2.268   0.184  0.2367  0.1034  0.3286
  524SOL    HW1 1571   2.291   2.308   0.171 -0.6497 -0.4625  1.2471
  524SOL    HW2 1572   2.184   2.207   0.107  0.0225  2.1015  0.6564
  525SOL     OW 1573   2.866   0.927   0.256  0.5320 -0.0653  0.0690
  525SOL    HW1 1574   2.966   0.902   0.266 -0.9773  0.8407 -0.2367
  525SOL    HW2 1575   2.820   0.842   0.285  0.4759  1.9477 -2.9011
  526SOL     OW 1576   1.109   0.103   1.101 -0.0053  0.1378  0.5997
  526SOL    HW1 1577   1.121   0.195   1.057  2.5071 -1.2754  0.7454
  526SOL    HW2 1578   1.170   0.030   1.062 -1.1977  0.4130  1.0015
  527SOL     OW 1579   2.595   1.439   0.633  0.3745 -0.1849  0.2842
  527SOL    HW1 1580   2.612   1.508   0.707 -0.4981 -0.8146 -3.0126
  527SOL    HW2 1581   2.680   1.421   0.581 -0.8507  0.3167 -0.0957
  528SOL     OW 1582   0.501   0.884   2.629 -0.3314 -0.2777 -0.1701
  528SOL    HW1 1583   0.581   0.948   2.624  0.0959 -0.1296 -0.6973
  528SOL    HW2 1584   0.446   0.883   2.540  2.7938 -0.9512  1.1047
  529SOL     OW 1585   0.731   1.648   3.004  0.3362  0.4145 -0.3601
  529SOL    HW1 1586   0.831   1.643   3.024 -1.6280  1.7556  2.1292
  529SOL    HW2 1587   0.700   1.579   2.937 -1.6284  0.3161  1.1208
  530SOL     OW 1588   1.677   1.163   2.037  0.1255 -0.6302  0.6264
  530SOL    HW1 1589   1.669   1.149   1.939  1.8684  1.2034 -0.1459
  530SOL    HW2 1590   1.755   1.114   2.075 -1.0059  0.0597 -2.2299
  531SOL     OW 1591   0.972   2.197   2.734  0.0028  0.7355 -0.0785
  531SOL    HW1 1592   0.896   2.229   2.796  0.0428 -0.8026  0.9353
  531SOL    HW2 1593   1.011   2.109   2.774 -0.3598  0.3006 -0.4590
  532SOL     OW 1594   2.501   0.634   0.297 -0.1827  0.1756  0.0419
  532SOL    HW1 1595   2.439   0.698   0.242 -1.2063  1.5470 -1.4605
  532SOL    HW2 1596   2.524   0.552   0.249  1.9740  3.0648  2.4253
  533SOL     OW 1597   0.020   0.566   1.935 -0.1945 -0.1650 -0.5369
  533SOL    HW1 1598   0.062   0.624   1.857 -0.4400 -0.3339 -0.9571
  533SOL    HW2 1599   3.015   0.573   1.930 -2.3565  1.4372 -0.4134
  534SOL     OW 1600   1.721   0.522   3.023  0.2310 -0.1494 -0.4766
  534SOL    HW1 1601   1.689   0.450   2.959 -0.5469 -0.7251 -1.4659
  534SOL    HW2 1602   1.775   0.482   0.003 -1.1531  1.9872 -0.2247
  535SOL     OW 1603   0.834   0.229   0.287 -0.0591  1.0641 -0.0092
  535SOL    HW1 1604   0.888   0.169   0.227  0.4004  0.7643 -0.9903
  535SOL    HW2 1605   0.751   0.261   0.232  0.4403 -0.9434  0.7140
  536SOL     OW 1606   0.478   1.496   2.103  0.6383  0.1452 -0.2771
  536SOL    HW1 1607   0.523   1.552   2.176  0.6708  1.0290  1.6074
  536SOL    HW2 1608   0.546   1.469   2.032  0.2574  1.6411 -1.7593
  537SOL     OW 1609   0.559   2.408   1.744  0.3991 -0.0680  0.2048
  537SOL    HW1 1610   0.513   2.347   1.680  2.4774  0.5972  1.1706
  537SOL    HW2 1611   0.524   2.504   1.738  0.2427 -1.6568  2.0233
  538SOL     OW 1612   0.107   1.973   0.227 -0.0667 -0.3797 -0.1409
  538SOL    HW1 1613   0.121   1.872   0.203  0.0937 -2.7694 -0.8161
  538SOL    HW2 1614   0.012   2.006   0.193 -0.5117  2.5163 -2.7765
  539SOL     OW 1615   2.443   0.334   3.009  0.0442 -0.8047  0.2614
  539SOL    HW1 1616   2.369   0.270   2.997  3.0630  2.5298  0.9778
  539SOL    HW2 1617   2.527   0.308   2.961 -2.0258  1.2658  1.7481
  540SOL     OW 1618   1.392   1.006   2.993  0.1904 -0.0319 -0.4174
  540SOL    HW1 1619   1.421   1.066   2.915 -1.3158  2.3371  2.2901
  540SOL    HW2 1620   1.410   1.054   3.085 -0.0976  0.6982 -0.8710
  541SOL     OW 1621   0.801   0.503   1.607 -0.5182 -0.1707  0.4854
  541SOL    HW1 1622   0.802   0.524   1.707  3.9046  1.2640 -0.1100
  541SOL    HW2 1623   0.738   0.562   1.552  4.0757  2.2877  2.1270
  542SOL     OW 1624   1.914   2.397   2.314  0.3618 -0.0725  0.1216
  542SOL    HW1 1625   1.862   2.316   2.345 -1.1989 -0.2232  0.3870
  542SOL    HW2 1626   2.012   2.373   2.306  1.0344  2.4629  0.3993
  543SOL     OW 1627   0.664   2.861   1.298  0.8014  0.3969  0.0529
  543SOL    HW1 1628   0.590   2.872   1.230  1.7916  1.3861  0.2810
  543SOL    HW2 1629   0.750   2.886   1.251 -0.0413  2.1731 -0.3099
  544SOL     OW 1630   2.891   1.517   2.220  0.6326 -0.1058 -0.2467
  544SOL    HW1 1631   2.862   1.428   2.260 -0.7450 -3.0753  0.7493
  544SOL    HW2 1632   2.923   1.586   2.287 -0.1860  2.6924 -1.5003
  545SOL     OW 1633   1.817   2.044   1.395 -0.0941  0.3712  0.2883
  545SOL    HW1 1634   1.878   2.015   1.471 -0.5985 -0.5635 -1.8112
  545SOL    HW2 1635   1.730   1.987   1.403 -1.5687 -2.4406  2.8490
  546SOL     OW 1636   0.159   0.418   2.527  0.2397  0.2437 -0.5553
  546SOL    HW1 1637   0.112   0.342   2.475 -3.1999 -0.8317  0.1234
  546SOL    HW2 1638   0.232   0.377   2.588  1.6953 -1.7932  2.0548
  547SOL     OW 1639   1.460   0.444   0.646 -0.1489 -0.8869  0.2517
  547SOL    HW1 1640   1.513   0.358   0.659  0.8467  2.7823  1.6646
  547SOL    HW2 1641   1.405   0.465   0.731  1.0809 -1.7783 -0.6329
  548SOL     OW 1642   1.399   2.197   2.709  0.9704  0.1861  0.3277
  548SOL    HW1 1643   1.374   2.167   2.805 -3.3587  1.5680  0.5108
  548SOL    HW2 1644   1.486   2.254   2.711  0.2844 -0.9166  0.5802
  549SOL     OW 1645   2.091   0.783   2.954  0.4242 -0.0898  0.5349
  549SOL    HW1 1646   2.178   0.727   2.968  1.2079 -2.1188 -0.9776
  549SOL    HW2 1647   2.092   0.832   2.865  0.1635  0.6644  1.4432
  550SOL     OW 1648   2.670   2.018   0.458  0.3481  0.0038  0.0398
  550SOL    HW1 1649   2.615   2.064   0.385 -0.5890  1.6798 -1.9959
  550SOL    HW2 1650   2.756   1.969   0.422  1.1395 -1.3121 -0.4070
  551SOL     OW 1651   1.229   0.016   2.181 -0.0642  0.3039  0.3139
  551SOL    HW1 1652   1.307   3.066   2.133 -0.1724 -0.8149  1.1849
  551SOL    HW2 1653   1.178   3.055   2.249 -0.2517  2.0360  0.9578
  552SOL     OW 1654   3.013   2.130   2.649  0.4900 -0.2533 -0.4045
  552SOL    HW1 1655   2.956   2.089   2.577  0.3591 -0.4156  1.1412
  552SOL    HW2 1656   2.955   2.185   2.712 -0.4869  1.2586  2.9402
  553SOL     OW 1657   2.932   2.575   1.222 -0.2089 -0.1798  0.4500
  553SOL    HW1 1658   3.025   2.609   1.213  0.8947 -1.8498  2.3088
  553SOL    HW2 1659   2.925   2.503   1.300 -1.5453 -2.4040  0.7002
  554SOL     OW 1660   2.282   1.885   1.839  0.1650 -0.0055 -0.3993
  554SOL    HW1 1661   2.217   1.938   1.901 -2.1925 -1.3307 -1.8856
  554SOL    HW2 1662   2.256   1.884   1.740 -1.0120 -0.2947  4.0644
  555SOL     OW 1663   1.550   2.111   2.121 -0.2644 -0.8035 -0.2161
  555SOL    HW1 1664   1.515   2.042   2.051  1.4365 -2.5184  0.5059
  555SOL    HW2 1665   1.478   2.172   2.164 -0.7935  0.8929 -1.0217
  556SOL     OW 1666   1.349   1.650   1.251  0.0867  0.2884 -0.0840
  556SOL    HW1 1667   1.407   1.595   1.316 -2.0887  0.1949 -1.2277
  556SOL    HW2 1668   1.378   1.748   1.241 -2.2239 -0.3203 -0.4206
  557SOL     OW 1669   1.318   2.963   1.582 -0.4361  0.3655 -0.4439
  557SOL    HW1 1670   1.379   2.992   1.660  0.9472 -0.2840  1.2613
  557SOL    HW2 1671   1.351   2.876   1.545 -1.1626  0.8440  1.4745
  558SOL     OW 1672   0.650   3.070   1.927 -0.1720  0.4234  0.5137
  558SOL    HW1 1673   0.587   2.995   1.897 -1.3802 -0.3627  1.5458
  558SOL    HW2 1674   0.648   0.046   1.855  0.1563 -0.3439  3.3670
  559SOL     OW 1675   2.394   2.620   0.315  0.8646  0.4805  0.0217
  559SOL    HW1 1676   2.327   2.693   0.345  0.3746  0.5897  0.6484
  559SOL    HW2 1677   2.444   2.589   0.399  1.7430 -1.3406  0.3229
  560SOL     OW 1678   1.665   2.522   0.256  0.2868  0.1743  0.2558
  560SOL    HW1 1679   1.655   2.466   0.175 -1.2384  0.7275  0.9279
  560SOL    HW2 1680   1.627   2.488   0.341  2.6774  3.1576 -1.5555
  561SOL     OW 1681   1.217   0.440   2.911  0.4054 -0.2089 -0.3500
  561SOL    HW1 1682   1.148   0.507   2.880  1.5176 -1.2559 -0.1031
  561SOL    HW2 1683   1.298   0.432   2.850 -1.1367 -1.1896  0.2506
  562SOL     OW 1684   0.441   1.241   2.307  0.2731 -0.7239  0.0406
  562SOL    HW1 1685   0.503   1.201   2.372  0.2189 -0.9979 -0.8274
  562SOL    HW2 1686   0.454   1.340   2.284  3.1073 -1.0459  0.9844
  563SOL     OW 1687   1.541   1.872   2.580 -0.1570 -0.2113 -1.1254
  563SOL    HW1 1688   1.550   1.952   2.648  0.3925 -0.0226  0.0791
  563SOL    HW2 1689   1.572   1.890   2.487  2.3057  1.0862 -0.2142
  564SOL     OW 1690   2.960   0.955   1.005 -0.2555 -0.6940  0.5874
  564SOL    HW1 1691   2.871   0.936   0.953 -1.9640 -0.3666 -0.0549
  564SOL    HW2 1692   2.963   1.045   1.057  1.4609 -2.2328 -1.2089
  565SOL     OW 1693   0.454   0.846   0.022  0.8843  0.2990 -0.1138
  565SOL    HW1 1694   0.448   0.748   3.083  1.9734 -1.4633  1.6859
  565SOL    HW2 1695   0.546   0.867   0.056  1.7708  0.5313 -1.7575
  566SOL     OW 1696   2.450   2.824   2.617  0.7869  0.5928 -0.8093
  566SOL    HW1 1697   2.428   2.920   2.593 -0.6846  0.2055  0.0803
  566SOL    HW2 1698   2.366   2.774   2.652  0.1180  0.3068  0.5508
  567SOL     OW 1699   1.516   1.254   0.951  0.0854 -0.4477  0.6142
  567SOL    HW1 1700   1.503   1.340   0.889  0.8630  0.2018  0.3294
  567SOL    HW2 1701   1.576   1.271   1.034 -2.7949  0.5226 -0.4001
  568SOL     OW 1702   1.637   1.588   2.797  0.2349  0.3023 -0.1058
  568SOL    HW1 1703   1.648   1.499   2.843  0.7775  1.4066  1.6224
  568SOL    HW2 1704   1.634   1.573   2.697  1.5713 -1.1948 -0.9075
  569SOL     OW 1705   2.387   1.273   0.058  0.5586  0.4345  0.1747
  569SOL    HW1 1706   2.468   1.233   0.013  0.5183 -0.6815 -0.9856
  569SOL    HW2 1707   2.335   1.327   3.083 -0.4506  1.2388 -1.2061
  570SOL     OW 1708   0.010   2.205   1.897  0.0177 -0.2494 -0.0679
  570SOL    HW1 1709   0.023   2.300   1.927 -0.4729 -1.7272 -1.7466
  570SOL    HW2 1710   0.089   2.182   1.837 -0.5643 -0.6038 -0.1497
  571SOL     OW 1711   2.724   1.817   1.480 -0.0739  0.1051 -0.4722
  571SOL    HW1 1712   2.670   1.903   1.458 -0.7086 -0.3793 -0.4600
  571SOL    HW2 1713   2.670   1.759   1.545 -0.2105  3.1242  0.4943
  572SOL     OW 1714   2.027   2.447   0.289  0.5851 -0.5662  0.1445
  572SOL    HW1 1715   1.995   2.523   0.227 -3.1202  3.2162  3.1613
  572SOL    HW2 1716   2.080   2.373   0.244  0.5561 -1.2855 -0.5651
  573SOL     OW 1717   1.533   2.053   0.414 -0.2855 -0.1078 -0.4551
  573SOL    HW1 1718   1.635   2.075   0.420 -0.3367 -1.9191  0.5721
  573SOL    HW2 1719   1.481   2.082   0.500 -0.5504 -0.9013 -0.1708
  574SOL     OW 1720   1.273   0.101   1.361 -0.1003 -0.5448  0.2495
  574SOL    HW1 1721   1.300   0.006   1.384 -0.3700 -1.6047 -0.1676
  574SOL    HW2 1722   1.182   0.104   1.321  3.8027 -1.1235  1.6587
  575SOL     OW 1723   0.551   1.235   1.523  0.0467  0.2111  0.6578
  575SOL    HW1 1724   0.541   1.309   1.596  0.5877  1.2588  0.6883
  575SOL    HW2 1725   0.646   1.216   1.501 -1.1601 -1.3056 -1.0089
  576SOL     OW 1726   2.539   0.489   1.681  0.4409 -0.1903  0.1681
  576SOL    HW1 1727   2.568   0.429   1.755  0.7312 -0.1915 -4.2448
  576SOL    HW2 1728   2.577   0.582   1.682 -0.8916 -0.7802 -1.6897
  577SOL     OW 1729   1.613   0.974   2.253 -0.4561  0.2060 -0.1508
  577SOL    HW1 1730   1.564   1.035   2.324 -3.7566  0.5356  2.9239
  577SOL    HW2 1731   1.578   0.998   2.158  0.9654  1.2350 -0.4300
  578SOL     OW 1732   2.118   1.160   2.654 -0.5528 -0.1257  0.3901
  578SOL    HW1 1733   2.208   1.192   2.685 -0.1054  0.3325 -0.1573
  578SOL    HW2 1734   2.123   1.153   2.551 -2.2282 -2.2032  0.5276
  579SOL     OW 1735   1.183   1.933   1.436  0.3579 -0.0903 -0.2405
  579SOL    HW1 1736   1.081   1.955   1.438 -3.6459  3.6236 -0.0613
  579SOL    HW2 1737   1.220   1.919   1.341  0.5617  0.9447 -2.9081
  580SOL     OW 1738   1.499   2.126   0.154 -0.8740  0.5809 -0.3222
  580SOL    HW1 1739   1.587   2.164   0.117 -0.4024 -0.4480  1.0606
  580SOL    HW2 1740   1.509   2.097   0.252 -0.3746 -0.0185 -1.3408
  581SOL     OW 1741   0.935   0.798   1.933  0.2144 -0.5583  0.0995
  581SOL    HW1 1742   0.876   0.722   1.910 -1.7666 -0.5987 -0.7326
  581SOL    HW2 1743   1.010   0.765   1.998  2.1340  1.3808  2.7889
  582SOL     OW 1744   0.837   1.154   1.397  0.5637 -0.3736  0.2165
  582SOL    HW1 1745   0.877   1.097   1.321  1.4865 -2.7843 -1.9813
  582SOL    HW2 1746   0.910   1.215   1.429 -1.3246  2.7237  0.8125
  583SOL     OW 1747   0.895   1.049   2.092 -0.4712  0.7588  0.2716
  583SOL    HW1 1748   0.915   0.966   2.033 -1.2591 -0.0206 -0.2629
  583SOL    HW2 1749   0.927   1.136   2.043  1.1735  1.2805 -1.9505
  584SOL     OW 1750   2.355   2.407   0.737 -0.1477  0.1898 -0.1981
  584SOL    HW1 1751   2.436   2.372   0.790 -0.4759  0.8874 -0.8068
  584SOL    HW2 1752   2.303   2.330   0.699 -0.5059  0.2649  0.6330
  585SOL     OW 1753   1.751   0.157   2.780  0.6658 -0.1658 -0.1733
  585SOL    HW1 1754   1.691   0.220   2.834  0.0237 -0.8774  2.1549
  585SOL    HW2 1755   1.710   0.130   2.690  0.9420 -0.4465 -0.2556
  586SOL     OW 1756   0.120   2.079   0.779 -0.4102  0.4389  0.8189
  586SOL    HW1 1757   0.106   1.980   0.801  0.3972 -1.0106  2.6139
  586SOL    HW2 1758   0.097   2.143   0.853 -0.2804  0.3909 -0.5589
  587SOL     OW 1759   1.788   2.120   0.296  0.1160  0.1074 -0.5788
  587SOL    HW1 1760   1.834   2.167   0.378 -2.4533  1.1790 -0.0864
  587SOL    HW2 1761   1.785   2.177   0.216 -0.6424 -1.0027  2.8474
  588SOL     OW 1762   0.181   3.022   0.869 -0.5923  0.2122  0.0644
  588SOL    HW1 1763   0.162   2.986   0.777  0.2314 -0.5630 -1.8779
  588SOL    HW2 1764   0.212   0.019   0.856 -0.9577 -1.9694 -0.2003
  589SOL     OW 1765   1.233   1.166   1.010 -0.6661  0.0884 -0.1352
  589SOL    HW1 1766   1.213   1.078   0.966 -1.3749  1.3434  0.4694
  589SOL    HW2 1767   1.326   1.203   0.983 -0.7719 -1.0976 -0.0906
  590SOL     OW 1768   1.528   1.333   0.017  0.2207 -0.4286  0.4326
  590SOL    HW1 1769   1.539   1.309   0.115  1.3994  0.2101  0.0446
  590SOL    HW2 1770   1.432   1.332   3.085  2.6547 -0.5133  1.4911
  591SOL     OW 1771   2.580   2.363   2.533  0.0589 -0.2553 -0.5219
  591SOL    HW1 1772   2.527   2.373   2.621  0.2558  1.3661  1.0257
  591SOL    HW2 1773   2.577   2.455   2.488 -1.0610  2.0538  1.7969
  592SOL     OW 1774   1.720   2.282   1.492  0.1864 -0.4890 -0.8694
  592SOL    HW1 1775   1.619   2.291   1.514  0.5217  1.4676  0.1480
  592SOL    HW2 1776   1.739   2.193   1.445 -1.0145  0.2566  0.6990
  593SOL     OW 1777   0.823   0.048   1.096  0.5775 -0.2590  0.5581
  593SOL    HW1 1778   0.818   0.060   1.193  0.8445  0.2147 -2.9493
  593SOL    HW2 1779   0.852   3.052   1.074 -0.7726 -1.9043  3.8777
  594SOL     OW 1780   2.860   0.655   2.269 -0.1639  0.0722 -0.3666
  594SOL    HW1 1781   2.957   0.686   2.268  0.4415  1.4857 -3.0248
  594SOL    HW2 1782   2.847   0.571   2.314  0.5432  3.2801 -3.0286
  595SOL     OW 1783   0.781   2.586   1.298 -0.3034  0.1554 -0.4667
  595SOL    HW1 1784   0.773   2.684   1.324  0.1606 -1.9559 -2.4819
  595SOL    HW2 1785   0.691   2.547   1.275  1.1076  0.2487 -0.5883
  596SOL     OW 1786   3.090   0.703   1.463 -0.2308 -0.4714 -0.8804
  596SOL    HW1 1787   3.026   0.765   1.415  0.7355  1.1216  0.5055
  596SOL    HW2 1788   3.052   0.611   1.481 -0.9698 -1.0211 -0.5753
  597SOL     OW 1789   1.708   1.877   0.187  0.3080  0.3110  0.5896
  597SOL    HW1 1790   1.621   1.909   0.148  1.1310 -2.0980  0.0517
  597SOL    HW2 1791   1.743   1.950   0.251 -0.7864  1.2139  2.3953
  598SOL     OW 1792   0.504   2.906   1.744  0.2421  0.2241 -0.0885
  598SOL    HW1 1793   0.581   2.889   1.679 -1.0271  1.8523  0.3659
  598SOL    HW2 1794   0.434   2.971   1.704  0.3647 -0.7944  0.5176
  599SOL     OW 1795   2.419   1.733   2.870 -0.0006 -0.3467 -0.2039
  599SOL    HW1 1796   2.374   1.681   2.799 -0.9650  1.7436  1.7617
  599SOL    HW2 1797   2.515   1.743   2.852 -3.8498 -0.3820  0.3489
  600SOL     OW 1798   0.876   0.975   0.195 -0.1729 -0.3188 -0.1614
  600SOL    HW1 1799   0.814   0.964   0.278  0.1763 -2.5781  1.3934
  600SOL    HW2 1800   0.879   1.076   0.171 -1.3676  2.5145  0.6920
  601SOL     OW 1801   0.587   0.673   0.793 -0.1571 -0.3588 -0.1741
  601SOL    HW1 1802   0.653   0.751   0.801 -1.3677  2.4977  0.5341
  601SOL    HW2 1803   0.571   0.639   0.891 -0.3407 -0.1180  1.6399
  602SOL     OW 1804   1.417   0.215   0.898  0.4085 -0.3180 -0.4777
  602SOL    HW1 1805   1.335   0.271   0.865 -0.3666  2.1205 -0.5465
  602SOL    HW2 1806   1.494   0.210   0.832 -2.0251  0.6193  2.1114
  603SOL     OW 1807   0.696   2.862   2.174 -0.0339  0.5801  0.1487
  603SOL    HW1 1808   0.704   2.956   2.140 -0.8218 -5.6730  2.3907
  603SOL    HW2 1809   0.703   2.788   2.104  0.9948  0.5937  0.9810
  604SOL     OW 1810   2.936   2.973   2.496 -0.1766  0.3554  0.4650
  604SOL    HW1 1811   3.021   3.022   2.460 -1.4497 -0.0858 -1.0527
  604SOL    HW2 1812   2.965   2.875   2.509  1.7878  1.0675 -0.6140
  605SOL     OW 1813   2.651   1.713   1.215  0.1392 -0.2404 -0.5904
  605SOL    HW1 1814   2.690   1.756   1.294 -1.3486 -1.9017  0.6116
  605SOL    HW2 1815   2.706   1.630   1.189  1.5152  0.2599 -1.9245
  606SOL     OW 1816   0.635   1.444   2.865  0.0212 -0.5225  0.6825
  606SOL    HW1 1817   0.553   1.503   2.849  0.5356  1.4652  1.7053
  606SOL    HW2 1818   0.614   1.379   2.941  1.4089 -2.2870 -0.5478
  607SOL     OW 1819   0.984   0.143   0.515 -0.2295 -0.2532 -1.0946
  607SOL    HW1 1820   0.910   0.174   0.453 -1.2824  0.3425 -0.6770
  607SOL    HW2 1821   1.075   0.137   0.467  0.9567  2.1519 -1.6908
  608SOL     OW 1822   1.766   1.394   2.146 -0.0085 -0.3900  0.3048
  608SOL    HW1 1823   1.728   1.302   2.115  0.4085  0.4743  0.4527
  608SOL    HW2 1824   1.731   1.473   2.091  2.1853 -1.2346  0.7919
  609SOL     OW 1825   2.958   0.066   0.975 -0.1910  0.2810 -0.4410
  609SOL    HW1 1826   2.888   0.077   1.045 -1.4610  3.0836 -0.3897
  609SOL    HW2 1827   3.020   0.153   0.977 -3.0810  2.5699 -0.8086
  610SOL     OW 1828   0.577   2.779   0.806 -0.3603 -0.8505  0.4844
  610SOL    HW1 1829   0.670   2.797   0.760 -1.5481 -0.5812 -1.3420
  610SOL    HW2 1830   0.555   2.841   0.882 -1.9934 -1.2022  0.7175
  611SOL     OW 1831   1.743   0.951   2.969  0.1448 -0.6591  0.1773
  611SOL    HW1 1832   1.820   0.977   3.028  1.1046 -0.2380  2.0954
  611SOL    HW2 1833   1.665   0.922   3.030 -0.3943 -2.1163  0.8560
  612SOL     OW 1834   0.850   2.062   2.064 -0.2399  0.1359  0.3627
  612SOL    HW1 1835   0.890   2.042   2.157  3.0039 -0.3063 -3.6057
  612SOL    HW2 1836   0.844   2.164   2.057  2.3910 -0.3145 -1.6818
  613SOL     OW 1837   0.979   2.684   0.269 -0.3525 -0.1634 -0.1942
  613SOL    HW1 1838   1.077   2.694   0.272 -1.9684  1.8537  0.1796
  613SOL    HW2 1839   0.939   2.586   0.277 -2.0279 -0.8413 -1.5271
  614SOL     OW 1840   2.834   2.825   1.493  0.3449  0.1115  0.4087
  614SOL    HW1 1841   2.906   2.856   1.426 -0.1729  2.2125  0.2350
  614SOL    HW2 1842   2.844   2.721   1.508 -0.1512 -1.2190  0.2448
  615SOL     OW 1843   2.170   1.328   0.403  0.2325  0.3587  0.3091
  615SOL    HW1 1844   2.116   1.333   0.490  0.1290  1.5376  1.1233
  615SOL    HW2 1845   2.126   1.257   0.340  1.4014 -2.0104  0.9206
  616SOL     OW 1846   1.740   0.601   0.607 -0.1990  0.5852 -0.0144
  616SOL    HW1 1847   1.646   0.634   0.589  2.0004  1.3453  0.4077
  616SOL    HW2 1848   1.757   0.599   0.708  0.2486 -2.4323 -3.3195
  617SOL     OW 1849   1.054   1.107   3.037 -0.0186  0.6973  0.5050
  617SOL    HW1 1850   1.100   1.038   3.093 -0.2906 -1.8690 -0.8216
  617SOL    HW2 1851   0.977   1.148   3.085  0.6698  0.5274 -1.5142
  618SOL     OW 1852   0.849   0.216   1.839 -0.4022  0.2842  0.0080
  618SOL    HW1 1853   0.865   0.133   1.901 -0.7314 -1.5415  4.2531
  618SOL    HW2 1854   0.764   0.264   1.865  0.2126  0.0420  0.7055
  619SOL     OW 1855   2.890   1.021   1.497 -0.0326  0.6854 -0.2962
  619SOL    HW1 1856   2.981   1.066   1.486  2.5381 -0.8874 -0.3918
  619SOL    HW2 1857   2.807   1.078   1.517  0.9482 -3.9891 -0.1975
  620SOL     OW 1858   2.348   0.937   2.862  0.2421  0.1971 -0.3447
  620SOL    HW1 1859   2.339   0.898   2.767 -2.3314 -2.3816  2.1599
  620SOL    HW2 1860   2.349   1.039   2.861 -0.7853  0.8703  0.8995
  621SOL     OW 1861   2.454   2.587   1.381  0.2452  0.1289  0.3399
  621SOL    HW1 1862   2.461   2.678   1.336 -1.1984  1.9320 -0.7624
  621SOL    HW2 1863   2.524   2.518   1.345  1.4887 -0.6385 -2.5474
  622SOL     OW 1864   1.007   0.852   2.689  0.3418 -0.1450 -0.0374
  622SOL    HW1 1865   0.926   0.853   2.629  1.2773  0.1451  2.6711
  622SOL    HW2 1866   1.038   0.948   2.698 -2.9624  2.8782  1.0836
  623SOL     OW 1867   1.043   0.621   2.815  0.1751  0.0617  0.7394
  623SOL    HW1 1868   0.975   0.547   2.795 -0.1021  1.4305  1.3527
  623SOL    HW2 1869   1.025   0.706   2.763 -1.5070  2.9295  1.2911
  624SOL     OW 1870   1.945   0.738   0.061  0.1204  0.3736 -0.1803
  624SOL    HW1 1871   2.006   0.764   3.083 -2.6826 -0.0857  1.1595
  624SOL    HW2 1872   1.915   0.636   0.055  1.0638 -1.0006 -3.7131
  625SOL     OW 1873   1.041   1.328   1.035  0.0504  0.4751 -0.1143
  625SOL    HW1 1874   1.113   1.257   1.026 -0.0567 -0.5124 -0.0533
  625SOL    HW2 1875   1.051   1.396   1.116 -0.4752  1.5979  0.7692
  626SOL     OW 1876   1.643   1.076   2.748  0.0889 -0.7876 -0.5487
  626SOL    HW1 1877   1.708   1.062   2.671  0.8215  0.1500 -1.4116
  626SOL    HW2 1878   1.683   1.031   2.828 -1.5533  1.3820  0.2863
  627SOL     OW 1879   1.018   0.115   2.434  0.2202 -0.3730 -0.2472
  627SOL    HW1 1880   1.079   0.036   2.409 -0.5306  1.4844  0.0541
  627SOL    HW2 1881   1.025   0.145   2.529  2.7831 -1.4418 -0.4638
  628SOL     OW 1882   2.465   0.047   2.226  0.3579 -0.2400  0.1344
  628SOL    HW1 1883   2.504   0.139   2.208  0.2785  1.9836  0.8239
  628SOL    HW2 1884   2.393   0.052   2.302 -0.8084  0.4923  0.3038
  629SOL     OW 1885   0.778   0.867   2.875 -0.1100  0.5129 -0.2026
  629SOL    HW1 1886   0.869   0.821   2.853  0.5922 -3.9300 -0.7477
  629SOL    HW2 1887   0.749   0.850   2.973 -2.3299  1.7623  1.7091
  630SOL     OW 1888   1.124   0.433   1.978 -0.2217  0.2478 -0.4646
  630SOL    HW1 1889   1.028   0.440   2.007  2.6395 -1.0118  0.2401
  630SOL    HW2 1890   1.181   0.381   2.047  1.2923 -0.5225  0.2748
  631SOL     OW 1891   2.996   0.680   0.581 -0.4647  0.0964  0.1822
  631SOL    HW1 1892   2.948   0.594   0.550 -0.8042  0.9574 -0.1155
  631SOL    HW2 1893   3.072   0.705   0.517 -1.0553  1.6701  2.1096
  632SOL     OW 1894   2.088   0.996   1.298 -0.1977 -0.0489  0.0651
  632SOL    HW1 1895   2.026   0.988   1.375  2.3309  0.7707 -3.2249
  632SOL    HW2 1896   2.104   0.908   1.257 -0.1740  0.8292  1.3879
  633SOL     OW 1897   1.205   0.932   0.871 -0.3739  0.4397  0.3001
  633SOL    HW1 1898   1.161   0.841   0.882 -0.4252  0.3374 -0.5798
  633SOL    HW2 1899   1.302   0.926   0.894 -0.1842  0.1472  1.1418
  634SOL     OW 1900   2.010   3.037   0.955 -0.4002  0.5323 -0.8996
  634SOL    HW1 1901   2.105   3.056   0.977 -3.8260 -0.6397  2.0979
  634SOL    HW2 1902   1.977   2.947   0.993  1.3104  0.8377  1.9271
  635SOL     OW 1903   1.451   0.967   0.958  0.0460  0.1627  0.0929
  635SOL    HW1 1904   1.520   0.917   0.900  1.2274  1.2763  1.2907
  635SOL    HW2 1905   1.467   1.068   0.947 -0.2892  0.3007  2.2268
  636SOL     OW 1906   0.939   0.989   0.605 -0.5671  0.1958  0.5577
  636SOL    HW1 1907   0.882   1.063   0.653  0.1088  1.4249  1.6778
  636SOL    HW2 1908   1.039   1.010   0.617  1.2792  0.6384  0.8785
  637SOL     OW 1909   2.548   2.097   0.016  0.8070 -0.3597  0.2347
  637SOL    HW1 1910   2.578   2.005   3.087 -1.1390  1.0806 -3.2411
  637SOL    HW2 1911   2.472   2.125   3.047  1.6459 -0.2199  0.9718
  638SOL     OW 1912   1.377   2.744   2.740  0.0896  0.5598 -0.0926
  638SOL    HW1 1913   1.422   2.704   2.657 -0.5200 -0.8733 -0.9920
  638SOL    HW2 1914   1.442   2.796   2.794  0.8387 -0.3203 -2.6425
  639SOL     OW 1915   0.896   2.185   1.195 -0.0305 -0.0184 -0.1082
  639SOL    HW1 1916   0.934   2.274   1.167  0.1804 -1.0316 -1.1984
  639SOL    HW2 1917   0.965   2.114   1.169  0.3361  0.2244 -0.5542
  640SOL     OW 1918   3.096   2.688   0.527 -0.1018 -0.1009  0.1995
  640SOL    HW1 1919   3.073   2.705   0.623  1.2746  0.3351 -1.1875
  640SOL    HW2 1920   3.027   2.625   0.481 -1.4001  2.5162 -0.7384
  641SOL     OW 1921   0.574   0.260   0.171 -0.2511 -0.0949 -0.5228
  641SOL    HW1 1922   0.551   0.322   0.252  0.7551  2.1535  0.3226
  641SOL    HW2 1923   0.563   0.314   0.084 -0.6403 -0.5493  0.5607
  642SOL     OW 1924   2.879   0.642   1.234 -0.3393 -0.4421  0.4551
  642SOL    HW1 1925   2.960   0.696   1.193  1.9365  1.0939 -1.7729
  642SOL    HW2 1926   2.827   0.595   1.156 -2.1126  1.5726 -0.0230
  643SOL     OW 1927   0.756   1.899   1.890  0.1332 -0.3432  0.2274
  643SOL    HW1 1928   0.664   1.871   1.913  4.8528 -2.1220  1.2274
  643SOL    HW2 1929   0.800   1.966   1.955  1.0505  1.4719  2.8889
  644SOL     OW 1930   1.515   2.742   0.143  0.4190  0.1266  0.0906
  644SOL    HW1 1931   1.589   2.674   0.165  1.8355 -0.8843 -1.7455
  644SOL    HW2 1932   1.536   2.828   0.195 -2.8870  2.6131  0.8549
  645SOL     OW 1933   1.828   2.139   0.879  0.0696  0.1154  0.2269
  645SOL    HW1 1934   1.869   2.085   0.807  0.4176 -0.2051  1.3593
  645SOL    HW2 1935   1.825   2.082   0.962  0.5476 -0.9367  0.1850
  646SOL     OW 1936   1.349   2.921   3.081 -0.1427  0.8101  0.0425
  646SOL    HW1 1937   1.427   2.992   3.065  1.4520  0.3669  0.0718
  646SOL    HW2 1938   1.385   2.828   0.007  1.1592 -2.6713  2.5317
  647SOL     OW 1939   0.410   2.680   1.844 -0.2253  0.3897  0.0090
  647SOL    HW1 1940   0.353   2.700   1.922  0.7074 -0.8745 -1.4812
  647SOL    HW2 1941   0.438   2.769   1.800  2.7710  3.4464 -0.5013
  648SOL     OW 1942   1.734   1.010   1.331 -0.1892 -0.2193  0.3302
  648SOL    HW1 1943   1.798   1.073   1.370 -1.2991  1.5665 -1.6496
  648SOL    HW2 1944   1.782   0.919   1.314  0.7628  0.4731 -0.1814
  649SOL     OW 1945   1.600   2.305   2.851  0.1498  0.2896  0.2399
  649SOL    HW1 1946   1.639   2.220   2.894  0.9868 -0.8325  0.5498
  649SOL    HW2 1947   1.578   2.377   2.918  0.6427  1.8300 -0.2711
  650SOL     OW 1948   2.281   1.461   1.915 -0.2444 -0.2299 -0.0126
  650SOL    HW1 1949   2.346   1.538   1.938 -0.1728  0.5802  1.4652
  650SOL    HW2 1950   2.189   1.480   1.953  2.1161  1.6365 -1.4344
  651SOL     OW 1951   1.362   1.946   0.016  0.3326 -0.1582  0.0369
  651SOL    HW1 1952   1.393   1.853   0.036  1.1995  2.7643  0.7123
  651SOL    HW2 1953   1.426   2.016   0.061 -2.7191  0.1072 -1.7100
  652SOL     OW 1954   0.852   2.693   0.031 -0.1658  0.8827  0.5910
  652SOL    HW1 1955   0.901   2.703   0.118 -0.1120 -1.2561 -0.3157
  652SOL    HW2 1956   0.833   2.778   3.074 -1.7686 -2.1886 -1.7144
  653SOL     OW 1957   2.287   1.988   1.104 -0.0691 -0.0265 -0.3814
  653SOL    HW1 1958   2.330   2.067   1.049 -1.1070  1.8944 -1.0017
  653SOL    HW2 1959   2.264   2.007   1.202 -0.5239 -0.7469 -1.1412
  654SOL     OW 1960   2.900   2.548   1.861 -0.3749 -0.1800 -0.2148
  654SOL    HW1 1961   2.921   2.651   1.864 -1.6468 -0.6374 -0.6937
  654SOL    HW2 1962   2.986   2.494   1.884  1.4574  1.7720 -1.5406
  655SOL     OW 1963   2.906   2.094   1.100  0.1177 -0.5551  0.6771
  655SOL    HW1 1964   2.858   2.012   1.068  0.7924  0.5300 -1.5686
  655SOL    HW2 1965   2.847   2.176   1.089 -0.4395  2.1758  1.9687
  656SOL     OW 1966   0.287   2.955   2.767 -0.0002 -0.9196 -0.2722
  656SOL    HW1 1967   0.324   2.969   2.672 -1.0592  1.1275 -0.8808
  656SOL    HW2 1968   0.183   2.950   2.784 -1.3504  0.1329  0.8507
  657SOL     OW 1969   0.013   0.839   0.273 -0.2730 -0.1729 -0.5415
  657SOL    HW1 1970   0.074   0.800   0.345  0.0172 -2.1801 -1.1482
  657SOL    HW2 1971   0.069   0.851   0.189 -0.0355 -0.5496 -1.0092
  658SOL     OW 1972   1.735   1.996   1.092 -0.3981 -0.7166 -0.2808
  658SOL    HW1 1973   1.721   1.961   1.190 -0.4270 -1.8314  1.6364
  658SOL    HW2 1974   1.665   2.072   1.077 -3.0133 -1.0250  1.3774
  659SOL     OW 1975   1.690   0.573   1.088  0.7125  0.3033 -0.2064
  659SOL    HW1 1976   1.707   0.474   1.083  1.3431  0.1175  0.5736
  659SOL    HW2 1977   1.599   0.594   1.131 -0.2159 -0.8815 -0.4624
  660SOL     OW 1978   1.340   1.485   0.276  0.2940 -0.7503 -0.2167
  660SOL    HW1 1979   1.280   1.397   0.271 -1.8949 -5.3402 -0.6652
  660SOL    HW2 1980   1.329   1.525   0.369 -2.8282 -1.0920  2.4355
  661SOL     OW 1981   0.310   1.840   0.356  0.2297 -0.7389 -0.0850
  661SOL    HW1 1982   0.373   1.894   0.419 -0.5163 -2.6624 -2.0426
  661SOL    HW2 1983   0.246   1.906   0.312 -0.5970 -2.5459 -0.5855
  662SOL     OW 1984   0.022   0.696   2.171 -0.0190  0.1167 -0.3131
  662SOL    HW1 1985   0.028   0.652   2.076  1.8023 -2.4591  0.4830
  662SOL    HW2 1986   0.020   0.798   2.167  1.9058  1.8912 -0.8507
  663SOL     OW 1987   2.024   1.415   1.339  0.1657 -0.0919 -0.4950
  663SOL    HW1 1988   1.991   1.329   1.296  0.2819 -1.7103 -0.7637
  663SOL    HW2 1989   1.974   1.496   1.302  0.1545  0.7308  0.7914
  664SOL     OW 1990   0.577   0.573   1.061  0.1054  0.2412  0.0321
  664SOL    HW1 1991   0.504   0.608   1.125 -0.7931  1.5479  3.3452
  664SOL    HW2 1992   0.669   0.611   1.090  1.4992 -0.3239  1.1238
  665SOL     OW 1993   1.396   0.044   2.747 -0.4288 -0.2027 -0.5606
  665SOL    HW1 1994   1.485   0.024   2.788 -4.4355  0.8002 -1.3128
  665SOL    HW2 1995   1.328   0.072   2.818  0.3032  2.9326  0.9203
  666SOL     OW 1996   0.123   0.688   2.441 -0.1307  0.2227  0.5488
  666SOL    HW1 1997   0.139   0.587   2.465  0.0129 -3.1797  1.2005
  666SOL    HW2 1998   0.087   0.695   2.347  0.1859 -0.6549  2.3337
  667SOL     OW 1999   1.964   1.397   2.353 -0.3542  0.0471  0.1124
  667SOL    HW1 2000   1.910   1.426   2.437  2.4356  1.1940  2.1894
  667SOL    HW2 2001   1.899   1.397   2.274 -1.8385 -2.0204  1.6605
  668SOL     OW 2002   3.078   1.636   2.964  0.3406  0.3181  0.3863
  668SOL    HW1 2003   0.035   1.568   2.912 -1.8921 -1.7781 -0.0578
  668SOL    HW2 2004   2.983   1.591   2.980 -0.5334 -1.7545 -2.2039
  669SOL     OW 2005   2.092   2.638   2.463 -0.7748 -0.2970 -0.1838
  669SOL    HW1 2006   2.077   2.716   2.403 -1.2760 -3.6075  1.3312
  669SOL    HW2 2007   2.131   2.559   2.413 -0.2299  2.7392  0.4213
  670SOL     OW 2008   2.502   0.928   2.535 -0.3716  0.3348  0.2814
  670SOL    HW1 2009   2.539   0.834   2.555  0.4674 -3.9190 -0.0554
  670SOL    HW2 2010   2.402   0.921   2.519 -0.0437  1.5689  0.5595
  671SOL     OW 2011   2.338   1.530   0.198 -0.2033  0.0997 -0.4236
  671SOL    HW1 2012   2.338   1.622   0.163 -0.3025 -3.7433  0.1831
  671SOL    HW2 2013   2.342   1.449   0.130  0.1994 -0.4980 -1.8104
  672SOL     OW 2014   2.541   1.175   2.442 -0.1021 -0.3096  0.0576
  672SOL    HW1 2015   2.583   1.233   2.512  0.1332 -2.2749 -1.7852
  672SOL    HW2 2016   2.557   1.074   2.462  0.1852 -2.0687  1.8121
  673SOL     OW 2017   2.865   1.538   1.562 -0.3055 -0.3742 -0.0273
  673SOL    HW1 2018   2.902   1.633   1.571 -1.4000  2.1891 -1.5713
  673SOL    HW2 2019   2.932   1.479   1.510  0.3158 -0.1964  0.4134
  674SOL     OW 2020   1.721   1.696   1.770 -0.0317 -0.2551  0.2290
  674SOL    HW1 2021   1.755   1.788   1.780  4.1347 -4.7725 -1.8332
  674SOL    HW2 2022   1.807   1.638   1.763  0.9898  0.3557  0.7862
  675SOL     OW 2023   3.085   0.306   0.988 -1.2422 -0.0295  0.0118
  675SOL    HW1 2024   0.018   0.334   0.895  0.1771 -1.3208 -3.9163
  675SOL    HW2 2025   2.989   0.338   1.007  0.4707 -0.3121 -2.3416
  676SOL     OW 2026   2.151   0.940   0.866  0.4520 -0.2733  0.1892
  676SOL    HW1 2027   2.130   0.897   0.775  0.1328 -1.5457 -1.0433
  676SOL    HW2 2028   2.084   1.013   0.883  1.1621 -1.6133 -0.7801
  677SOL     OW 2029   1.431   1.532   2.258  0.2459  0.2407  0.1242
  677SOL    HW1 2030   1.423   1.618   2.206  0.3194 -1.2613 -1.3728
  677SOL    HW2 2031   1.452   1.455   2.196  0.8413 -1.6326  0.2776
  678SOL     OW 2032   2.667   1.436   0.948 -0.7297 -0.9777  0.5250
  678SOL    HW1 2033   2.648   1.528   0.901  0.8438  0.7383  0.0863
  678SOL    HW2 2034   2.584   1.400   0.988  1.4321 -0.7872 -1.6657
  679SOL     OW 2035   0.237   2.639   0.856 -0.7368 -0.0718 -0.3031
  679SOL    HW1 2036   0.287   2.671   0.772  1.7356 -0.4212 -1.3520
  679SOL    HW2 2037   0.216   2.542   0.839  0.5650 -2.5303  0.9488
  680SOL     OW 2038   0.055   2.167   1.040 -0.6270 -0.4693  0.6685
  680SOL    HW1 2039   0.107   2.128   1.117 -0.3914  1.7285 -0.6757
  680SOL    HW2 2040   3.061   2.132   1.032  1.4235  3.8728  0.0984
  681SOL     OW 2041   0.711   0.942   1.088 -0.0774  0.0059  0.0434
  681SOL    HW1 2042   0.789   1.010   1.091  3.6621 -0.0706 -1.0349
  681SOL    HW2 2043   0.698   0.901   0.993 -2.7529 -0.2538  0.5773
  682SOL     OW 2044   1.684   2.834   0.628 -0.3109  0.1713  0.5326
  682SOL    HW1 2045   1.760   2.900   0.652 -0.0773 -2.3247  0.8312
  682SOL    HW2 2046   1.694   2.796   0.536 -0.2567 -0.9770 -1.5874
  683SOL     OW 2047   2.250   1.338   1.683  0.0341 -0.2797 -0.0903
  683SOL    HW1 2048   2.266   1.388   1.772  0.5999 -1.2692  4.9861
  683SOL    HW2 2049   2.177   1.391   1.622 -1.1735  0.1792 -0.5709
  684SOL     OW 2050   0.124   1.901   1.693 -0.0084  0.0477  0.5370
  684SOL    HW1 2051   0.033   1.883   1.650 -0.3345  1.4062 -3.0504
  684SOL    HW2 2052   0.133   1.861   1.789  1.9283  1.4954  0.0156
  685SOL     OW 2053   2.174   1.864   0.223 -0.3562  0.4021 -0.1682
  685SOL    HW1 2054   2.136   1.779   0.267  1.4365 -1.5944  1.7867
  685SOL    HW2 2055   2.236   1.838   0.143  2.8291  0.0947 -2.2878
  686SOL     OW 2056   0.011   0.125   0.656  0.4787  0.3691 -0.6005
  686SOL    HW1 2057   0.045   0.217   0.687  0.6123  0.3003 -3.8832
  686SOL    HW2 2058   3.029   0.083   0.706 -0.1179 -0.5949 -1.3285
  687SOL     OW 2059   1.555   3.079   3.026  0.1899  0.1068 -0.2233
  687SOL    HW1 2060   1.514   0.064   3.073  0.0131 -0.5150 -1.5737
  687SOL    HW2 2061   1.656   3.087   3.020 -0.0392  1.6423 -1.8692
  688SOL     OW 2062   1.981   1.836   2.140 -0.0001 -0.2904  0.2837
  688SOL    HW1 2063   2.030   1.750   2.154 -0.1158  0.5208  1.4190
  688SOL    HW2 2064   2.011   1.908   2.206 -1.0808 -1.8774 -0.6233
  689SOL     OW 2065   2.607   0.993   2.015  0.5042  0.0252  0.1348
  689SOL    HW1 2066   2.618   1.091   1.995  0.0119 -2.5455 -1.6818
  689SOL    HW2 2067   2.637   0.963   2.112  0.4721 -0.2791  1.0611
  690SOL     OW 2068   1.835   1.418   0.858  0.5358  0.0870  0.0125
  690SOL    HW1 2069   1.790   1.451   0.947  1.0564  0.0513 -0.8607
  690SOL    HW2 2070   1.826   1.482   0.783  2.7690 -0.1873  0.0851
  691SOL     OW 2071   0.881   1.468   1.374 -0.4261  0.6328 -0.2677
  691SOL    HW1 2072   0.943   1.400   1.422  3.4762 -1.8845  1.3905
  691SOL    HW2 2073   0.815   1.432   1.309 -1.8266 -2.0638 -1.5244
  692SOL     OW 2074   1.929   3.017   2.098  0.6618  0.2216  0.3301
  692SOL    HW1 2075   1.989   3.092   2.062 -3.4691 -0.6065  0.3847
  692SOL    HW2 2076   1.904   2.957   2.020 -1.9373  0.1414  0.3580
  693SOL     OW 2077   3.059   1.220   2.838 -0.1581 -0.8526  0.3158
  693SOL    HW1 2078   0.021   1.300   2.826 -2.1590  1.6034 -0.6298
  693SOL    HW2 2079   3.039   1.175   2.749  1.7327 -3.2850  0.0601
  694SOL     OW 2080   2.186   0.230   1.111 -0.1690 -0.4164 -0.4651
  694SOL    HW1 2081   2.224   0.137   1.076 -0.6707 -1.5046 -1.8031
  694SOL    HW2 2082   2.134   0.223   1.199 -3.2138  0.3851  0.5536
  695SOL     OW 2083   1.384   1.144   2.682  0.0678 -0.1536  1.0145
  695SOL    HW1 2084   1.475   1.116   2.719 -2.3169 -1.2289  0.2126
  695SOL    HW2 2085   1.378   1.250   2.686  0.2045 -2.0571 -0.2860
  696SOL     OW 2086   1.905   0.166   1.659 -0.1968 -0.1489 -0.4049
  696SOL    HW1 2087   1.874   0.232   1.587 -0.1236 -1.0703  0.9962
  696SOL    HW2 2088   1.949   0.216   1.737  0.6460 -1.9633  0.3155
  697SOL     OW 2089   1.653   0.444   2.033  0.4066 -0.3663 -0.3248
  697SOL    HW1 2090   1.635   0.344   2.045 -0.4457  1.0210 -0.8076
  697SOL    HW2 2091   1.608   0.481   1.954 -0.6359  1.4108  3.3791
  698SOL     OW 2092   1.854   1.478   2.582 -0.4305  0.0826 -0.4148
  698SOL    HW1 2093   1.897   1.504   2.672  2.2963  2.8409 -1.5001
  698SOL    HW2 2094   1.797   1.393   2.578 -0.1568 -1.9838 -1.7479
  699SOL     OW 2095   1.665   1.274   0.646  0.3346  0.1212  0.5549
  699SOL    HW1 2096   1.614   1.341   0.701  0.8658 -0.4329  1.2052
  699SOL    HW2 2097   1.724   1.227   0.717  1.5019  0.3466 -0.9471
  700SOL     OW 2098   1.662   2.947   0.278  0.1768  0.4074  0.4500
  700SOL    HW1 2099   1.723   2.878   0.324  2.0048  0.4539 -1.2384
  700SOL    HW2 2100   1.616   3.016   0.337  1.1792  1.3527  1.9931
  701SOL     OW 2101   0.155   0.472   1.491  0.3710  0.1746 -0.0986
  701SOL    HW1 2102   0.103   0.468   1.403 -1.2114 -0.1610 -1.2150
  701SOL    HW2 2103   0.152   0.381   1.535 -2.2304  2.6333 -1.4542
  702SOL     OW 2104   1.836   3.019   1.380 -0.4541 -0.5432  0.5065
  702SOL    HW1 2105   1.884   3.025   1.471  0.9655 -1.9903  1.0423
  702SOL    HW2 2106   1.760   2.957   1.392  0.8150 -4.1208 -0.4801
  703SOL     OW 2107   2.460   0.250   1.858 -0.1899  0.0052 -0.0401
  703SOL    HW1 2108   2.539   0.207   1.811 -1.7851  2.8183 -1.2444
  703SOL    HW2 2109   2.465   0.259   1.958  1.0540 -0.8815 -0.1596
  704SOL     OW 2110   1.290   2.218   1.136  0.4144  0.1829 -0.0756
  704SOL    HW1 2111   1.247   2.203   1.227  1.6964 -1.3178  1.5224
  704SOL    HW2 2112   1.230   2.278   1.083 -0.5727 -0.7511 -0.1604
  705SOL     OW 2113   0.183   1.763   2.236 -0.2675 -0.9137  0.2103
  705SOL    HW1 2114   0.267   1.806   2.277 -1.4988  2.0086  0.7356
  705SOL    HW2 2115   0.181   1.660   2.253  2.5398  0.0956 -1.4706
  706SOL     OW 2116   2.021   0.214   2.739  0.1090 -0.2793 -0.2531
  706SOL    HW1 2117   2.056   0.306   2.775 -1.0750  0.3253  1.3430
  706SOL    HW2 2118   1.926   0.194   2.763  0.7090  1.4678  1.8557
  707SOL     OW 2119   1.586   2.769   2.405 -0.0804 -0.5063 -0.1609
  707SOL    HW1 2120   1.658   2.713   2.362  1.3993 -0.9526 -0.5527
  707SOL    HW2 2121   1.521   2.703   2.454 -0.4204 -3.7491  0.4789
  708SOL     OW 2122   0.624   2.213   1.209  0.0740  0.4871  0.3030
  708SOL    HW1 2123   0.603   2.288   1.273 -3.7125 -0.8996 -2.5499
  708SOL    HW2 2124   0.720   2.197   1.202 -1.0605  1.7362  0.1617
  709SOL     OW 2125   2.542   0.934   1.756  0.2675  0.4147 -0.0328
  709SOL    HW1 2126   2.584   0.957   1.843  0.5355 -1.3223 -3.4509
  709SOL    HW2 2127   2.584   0.854   1.719 -0.1564  4.1797  0.6023
  710SOL     OW 2128   2.961   0.373   1.720  0.8192 -0.4145  0.3589
  710SOL    HW1 2129   2.967   0.402   1.623 -1.5060 -3.2814  0.6888
  710SOL    HW2 2130   2.906   0.441   1.774  0.1254  0.5980  1.8503
  711SOL     OW 2131   3.072   2.686   0.799 -0.2595  0.2680  0.0679
  711SOL    HW1 2132   3.043   2.605   0.851 -0.5939  0.9363  1.3147
  711SOL    HW2 2133   0.071   2.699   0.812 -2.5136  2.3487 -0.8890
  712SOL     OW 2134   0.371   2.933   2.493  0.8176  0.5366  0.1714
  712SOL    HW1 2135   0.456   2.961   2.536  2.8596 -0.7620  2.3152
  712SOL    HW2 2136   0.391   2.870   2.410 -2.5735  0.8011 -2.0603
  713SOL     OW 2137   2.099   0.489   0.419  0.2709 -0.1042 -0.0654
  713SOL    HW1 2138   2.130   0.486   0.514  0.1532 -0.1115 -0.7838
  713SOL    HW2 2139   2.098   0.584   0.382  0.7498 -0.4510 -0.6644
  714SOL     OW 2140   1.717   1.594   0.107 -0.1105  0.2804  0.3080
  714SOL    HW1 2141   1.719   1.694   0.120  0.4275  0.6985  0.8510
  714SOL    HW2 2142   1.624   1.563   0.074 -2.6744  1.7880 -1.4752
  715SOL     OW 2143   0.157   0.405   0.390  0.1740 -0.0584  0.1527
  715SOL    HW1 2144   0.193   0.385   0.293 -0.0645  1.0697 -0.4270
  715SOL    HW2 2145   0.229   0.377   0.455 -0.2797 -0.2979 -0.9191
  716SOL     OW 2146   0.963   0.073   2.065  0.4879 -0.4881 -0.2205
  716SOL    HW1 2147   1.054   0.091   2.110  0.2187  1.2794 -2.9184
  716SOL    HW2 2148   0.890   0.082   2.130 -0.1076 -0.2101  2.5532
  717SOL     OW 2149   0.158   0.610   2.849  0.7556  0.9626  0.6377
  717SOL    HW1 2150   0.117   0.688   2.798 -1.2021 -2.7858 -0.4226
  717SOL    HW2 2151   0.089   0.540   2.835  0.8422  1.6105  0.1762
  718SOL     OW 2152   1.368   0.561   0.207  0.0353  0.1718  0.3394
  718SOL    HW1 2153   1.432   0.586   0.133 -1.1954 -0.3170 -0.7551
  718SOL    HW2 2154   1.333   0.645   0.257  1.5816 -2.7109  0.4112
  719SOL     OW 2155   2.376   2.047   2.881  0.6581 -0.3340  0.3821
  719SOL    HW1 2156   2.379   2.046   2.777 -0.6160 -0.8147  0.8235
  719SOL    HW2 2157   2.429   1.967   2.912  1.4465 -0.1416 -1.9812
  720SOL     OW 2158   1.129   0.963   1.278 -0.3093 -0.5492 -0.0715
  720SOL    HW1 2159   1.183   1.052   1.294  1.7732  1.3166  0.3539
  720SOL    HW2 2160   1.131   0.895   1.356  1.5008 -1.1751 -1.9723
  721SOL     OW 2161   0.080   2.680   1.202 -0.1171 -0.1538 -0.3814
  721SOL    HW1 2162   0.159   2.695   1.142 -2.1245 -0.7921 -0.5874
  721SOL    HW2 2163   0.113   2.664   1.298  0.6426  1.0955  0.2601
  722SOL     OW 2164   1.072   1.702   2.796 -0.5185  0.1709 -0.2449
  722SOL    HW1 2165   1.165   1.701   2.749  3.4262  0.0470 -0.0751
  722SOL    HW2 2166   1.001   1.722   2.725 -0.9055  0.2868 -0.1644
  723SOL     OW 2167   1.848   0.160   0.597  0.3700  0.0686  0.1400
  723SOL    HW1 2168   1.845   0.176   0.496 -0.2567  0.2976  1.5360
  723SOL    HW2 2169   1.923   0.212   0.637 -1.4465 -0.1073 -0.8104
  724SOL     OW 2170   0.575   2.101   2.772  0.8880 -0.0568  0.7563
  724SOL    HW1 2171   0.654   2.143   2.820  1.3203 -2.6375 -1.0229
  724SOL    HW2 2172   0.485   2.155   2.787 -0.0906  0.3126  0.6909
  725SOL     OW 2173   0.108   0.502   1.170  0.0945 -0.1652 -0.0256
  725SOL    HW1 2174   0.068   0.593   1.154 -0.9797 -4.0514 -2.7096
  725SOL    HW2 2175   0.054   0.425   1.122  0.4076 -0.8402 -0.3142
  726SOL     OW 2176   2.081   0.251   0.721 -0.2326  0.3244  0.0513
  726SOL    HW1 2177   2.177   0.218   0.732 -2.9120 -1.2611 -0.6045
  726SOL    HW2 2178   2.044   0.303   0.802 -0.4491  2.6791  0.1472
  727SOL     OW 2179   1.917   1.030   2.136  0.1305 -0.4285 -0.0430
  727SOL    HW1 2180   1.961   0.954   2.085  1.8938  0.3635  0.0472
  727SOL    HW2 2181   1.925   1.011   2.237 -0.2006 -1.0295 -0.2942
  728SOL     OW 2182   1.579   2.867   1.427  0.4025  0.2689  0.5327
  728SOL    HW1 2183   1.515   2.795   1.461 -0.5107 -1.0025  0.0811
  728SOL    HW2 2184   1.547   2.902   1.341  1.6424 -0.6396 -3.6235
  729SOL     OW 2185   1.893   0.526   1.894 -0.5910 -0.1414  0.1505
  729SOL    HW1 2186   1.866   0.624   1.876  1.2623  0.5456 -0.3453
  729SOL    HW2 2187   1.837   0.487   1.969 -2.2901  3.5914 -2.0330
  730SOL     OW 2188   0.787   0.766   1.299  0.3457 -0.4188 -0.1409
  730SOL    HW1 2189   0.704   0.712   1.325  0.5842  0.0160  0.6359
  730SOL    HW2 2190   0.765   0.819   1.214 -0.3555 -2.8653 -0.2879
  731SOL     OW 2191   0.320   2.966   0.370 -0.0356  0.3792 -0.5589
  731SOL    HW1 2192   0.257   2.957   0.451  0.2107 -0.0535  0.8643
  731SOL    HW2 2193   0.389   3.040   0.376 -1.8246 -1.1849 -0.3607
  732SOL     OW 2194   0.763   0.626   0.361 -0.1746 -0.2382  0.0136
  732SOL    HW1 2195   0.749   0.574   0.447  1.0587 -0.2728  0.3547
  732SOL    HW2 2196   0.687   0.693   0.355 -0.8548  0.5129  0.6563
  733SOL     OW 2197   1.648   1.312   2.515  0.4339 -0.0169  0.2216
  733SOL    HW1 2198   1.578   1.366   2.464 -2.2566 -0.6845 -1.2845
  733SOL    HW2 2199   1.645   1.209   2.492 -2.2233 -4.3694  0.0424
  734SOL     OW 2200   3.040   2.124   2.140 -0.0765 -0.7212 -0.4530
  734SOL    HW1 2201   3.085   2.148   2.051  2.3154  0.5668  0.8800
  734SOL    HW2 2202   2.941   2.145   2.142 -1.8869 -3.7322  0.7933
  735SOL     OW 2203   1.726   0.308   0.978 -0.4985 -0.1130 -0.0141
  735SOL    HW1 2204   1.829   0.328   0.965 -0.7793 -0.0306  0.4355
  735SOL    HW2 2205   1.715   0.221   1.029 -0.4316  0.2051 -2.2960
  736SOL     OW 2206   1.060   1.433   0.121 -0.2401 -0.4097  1.2178
  736SOL    HW1 2207   1.037   1.518   0.064  0.2411 -1.2415 -0.9600
  736SOL    HW2 2208   1.060   1.452   0.221  1.9282  2.8209 -0.4956
  737SOL     OW 2209   2.988   0.259   0.411 -0.3632 -1.2508 -0.1064
  737SOL    HW1 2210   3.067   0.317   0.379 -0.3912  0.9942  1.9258
  737SOL    HW2 2211   3.017   0.188   0.477 -3.2941 -1.8456  0.7612
  738SOL     OW 2212   0.465   2.230   1.538 -0.3757 -0.2781  0.1640
  738SOL    HW1 2213   0.426   2.279   1.452 -1.9559 -1.0521 -1.5695
  738SOL    HW2 2214   0.510   2.146   1.505 -1.1279  3.4216  0.6312
  739SOL     OW 2215   1.117   2.852   2.951  0.0217 -1.2641 -0.5255
  739SOL    HW1 2216   1.186   2.898   3.011 -0.6605  2.2319  2.1198
  739SOL    HW2 2217   1.152   2.777   2.893  0.0116  0.3263  1.1043
  740SOL     OW 2218   1.788   2.789   1.593 -0.3874  0.3422 -0.5480
  740SOL    HW1 2219   1.716   2.829   1.534 -2.1463 -1.0579  2.9887
  740SOL    HW2 2220   1.826   2.701   1.554  0.5604  1.6187  0.0482
  741SOL     OW 2221   2.106   0.807   0.643  0.2517 -0.4687 -0.2736
  741SOL    HW1 2222   2.196   0.776   0.613 -0.7491 -3.7177 -0.7823
  741SOL    HW2 2223   2.039   0.817   0.566  0.3160 -1.3001 -0.8857
  742SOL     OW 2224   1.043   2.418   2.384 -0.6602 -0.1157 -0.4117
  742SOL    HW1 2225   1.093   2.382   2.467  2.4643  2.2718  1.3748
  742SOL    HW2 2226   0.938   2.417   2.400  0.1392 -1.5203  0.7255
  743SOL     OW 2227   2.288   1.014   1.809 -0.5339 -0.4545 -0.1340
  743SOL    HW1 2228   2.238   0.987   1.724 -1.8411  1.6059 -0.2625
  743SOL    HW2 2229   2.383   0.977   1.802  0.4277  0.6279 -0.1028
  744SOL     OW 2230   2.510   0.375   0.865 -0.1478 -0.1221 -0.6833
  744SOL    HW1 2231   2.443   0.387   0.786  0.1957  0.2386  0.2010
  744SOL    HW2 2232   2.473   0.400   0.958 -1.6676 -0.4876  2.2357
  745SOL     OW 2233   2.343   1.196   2.004  0.2471  0.5686  0.4288
  745SOL    HW1 2234   2.321   1.291   1.973  1.1127 -2.7485  4.2194
  745SOL    HW2 2235   2.353   1.134   1.922  0.3704 -0.4236 -0.4298
  746SOL     OW 2236   1.307   1.601   0.533  0.2662  0.5071 -0.5485
  746SOL    HW1 2237   1.334   1.699   0.527  0.8645 -2.1124  0.1526
  746SOL    HW2 2238   1.220   1.596   0.585 -0.3368  1.3218  3.0960
  747SOL     OW 2239   1.601   1.910   1.348 -0.4665 -0.2807  0.0175
  747SOL    HW1 2240   1.506   1.921   1.306 -0.8765  1.1141  0.7233
  747SOL    HW2 2241   1.613   1.826   1.413  0.8187 -1.9950 -0.3296
  748SOL     OW 2242   0.109   2.787   3.021 -0.3618 -0.2994  0.1879
  748SOL    HW1 2243   0.032   2.771   3.084  3.1720 -1.3151 -2.2457
  748SOL    HW2 2244   0.187   2.822   3.081  0.2460 -0.2823  1.2757
  749SOL     OW 2245   0.203   1.092   2.508  0.7614 -0.1981 -0.1308
  749SOL    HW1 2246   0.235   1.003   2.477 -1.8515  1.0200 -0.8134
  749SOL    HW2 2247   0.109   1.071   2.549  0.0171 -0.1332 -0.3779
  750SOL     OW 2248   1.428   2.986   2.034  0.1095 -0.5020  0.2901
  750SOL    HW1 2249   1.521   2.985   2.082  3.6163  0.4705 -0.1305
  750SOL    HW2 2250   1.425   2.999   1.934  0.0601 -1.1226 -0.0047
  751SOL     OW 2251   2.745   0.690   0.386  0.0196 -0.3797  0.1301
  751SOL    HW1 2252   2.651   0.662   0.373  0.7765 -1.8186 -1.2430
  751SOL    HW2 2253   2.803   0.618   0.424  1.1117 -1.0203  1.2942
  752SOL     OW 2254   0.293   2.165   0.610 -0.2998  0.3263  0.2716
  752SOL    HW1 2255   0.355   2.093   0.563  1.7870 -2.7944 -1.4178
  752SOL    HW2 2256   0.224   2.128   0.680 -1.6450 -1.3404  3.5986
  753SOL     OW 2257   0.903   2.889   1.135 -0.1903 -0.7869 -0.1342
  753SOL    HW1 2258   1.004   2.894   1.160 -0.5897  1.7988  1.7715
  753SOL    HW2 2259   0.879   2.813   1.071 -1.8499  1.4675  1.0162
  754SOL     OW 2260   0.450   0.046   2.360  0.7164  0.3959 -0.0139
  754SOL    HW1 2261   0.395   3.069   2.402  0.7423  1.1108  0.3089
  754SOL    HW2 2262   0.440   0.127   2.420  0.2042 -2.2307 -0.4942
  755SOL     OW 2263   1.817   1.175   0.173 -0.7797 -0.2199 -0.0763
  755SOL    HW1 2264   1.828   1.276   0.188 -0.5550 -2.6169 -0.7907
  755SOL    HW2 2265   1.832   1.127   0.260 -1.8045 -1.9208 -0.3089
  756SOL     OW 2266   2.380   2.349   2.712  0.0122  0.2807  0.2942
  756SOL    HW1 2267   2.342   2.260   2.726  1.2179  1.5516 -0.6381
  756SOL    HW2 2268   2.374   2.402   2.800  2.5248 -0.1907 -0.1330
  757SOL     OW 2269   1.820   0.882   0.562  0.7911  0.6048 -0.3545
  757SOL    HW1 2270   1.783   0.908   0.473  0.4125 -0.8170  4.9617
  757SOL    HW2 2271   1.828   0.781   0.564  1.5503  0.6638  0.6530
  758SOL     OW 2272   2.355   0.440   1.096 -0.3632  0.0366 -0.1206
  758SOL    HW1 2273   2.288   0.363   1.085 -1.0297  1.7484 -0.1664
  758SOL    HW2 2274   2.321   0.534   1.070  0.7080  1.6209 -1.6015
  759SOL     OW 2275   2.823   0.419   1.039 -0.3459  0.1578  0.2435
  759SOL    HW1 2276   2.742   0.392   1.094  1.6893  2.1320 -0.8861
  759SOL    HW2 2277   2.788   0.474   0.958  1.2275  0.2601  0.1396
  760SOL     OW 2278   2.315   1.359   1.310  0.5507  0.6184  0.1201
  760SOL    HW1 2279   2.220   1.396   1.314 -1.0915  4.1449  1.6782
  760SOL    HW2 2280   2.322   1.261   1.334  3.5263  2.2483 -1.5808
  761SOL     OW 2281   0.546   0.407   0.396  0.7036  0.0928 -0.0324
  761SOL    HW1 2282   0.636   0.395   0.445 -1.9966  0.1416 -1.9013
  761SOL    HW2 2283   0.469   0.373   0.451  0.6333 -2.6578  0.6394
  762SOL     OW 2284   1.024   1.944   1.142  0.0438  0.1274  0.8856
  762SOL    HW1 2285   1.123   1.928   1.120 -2.5827 -0.5583  0.1165
  762SOL    HW2 2286   0.972   1.863   1.170  0.5533  3.0260 -0.8151
  763SOL     OW 2287   1.417   1.275   1.738 -0.2897 -0.1472 -0.4791
  763SOL    HW1 2288   1.431   1.359   1.795  0.3999 -2.0596 -1.7285
  763SOL    HW2 2289   1.487   1.208   1.763 -1.6881  1.6883 -0.1650
  764SOL     OW 2290   0.005   1.705   2.670 -0.3571  0.2463  0.0633
  764SOL    HW1 2291   3.085   1.724   2.772 -0.0661  1.2117  0.4280
  764SOL    HW2 2292   0.041   1.788   2.624 -0.6131 -1.1635  1.7026
  765SOL     OW 2293   1.266   2.579   1.135 -0.0047 -0.5897  0.4846
  765SOL    HW1 2294   1.332   2.562   1.206 -0.5269  0.4572 -2.5635
  765SOL    HW2 2295   1.310   2.582   1.039 -0.5709  0.3788  0.2381
  766SOL     OW 2296   2.836   2.287   2.379  0.4519 -0.4386  0.0010
  766SOL    HW1 2297   2.755   2.302   2.437 -0.3225 -2.6656 -0.8478
  766SOL    HW2 2298   2.874   2.192   2.386 -1.2224 -2.0160 -1.4071
  767SOL     OW 2299   1.106   1.047   2.461  0.3784  0.3036 -0.0135
  767SOL    HW1 2300   1.006   1.065   2.448 -3.0665 -0.6267 -1.3153
  767SOL    HW2 2301   1.154   1.126   2.495  1.8883 -0.8730 -0.8417
  768SOL     OW 2302   1.278   2.150   2.931 -0.1207  0.0865  0.0403
  768SOL    HW1 2303   1.297   2.087   3.008  0.5278 -0.5353 -1.8771
  768SOL    HW2 2304   1.223   2.230   2.944  0.4421 -4.2676 -1.1207
  769SOL     OW 2305   0.344   2.362   0.827  0.1297  0.0092  0.7176
  769SOL    HW1 2306   0.384   2.296   0.894  4.0058 -0.7392 -0.6090
  769SOL    HW2 2307   0.312   2.313   0.737 -0.3430 -1.1532 -1.7603
  770SOL     OW 2308   1.441   1.107   2.412 -0.6217  0.2120 -0.0886
  770SOL    HW1 2309   1.411   1.113   2.506  1.6694  2.9101 -2.9737
  770SOL    HW2 2310   1.388   1.169   2.353 -1.3529  0.1631  1.4132
  771SOL     OW 2311   0.098   2.862   2.168  0.1570  0.6768 -0.3047
  771SOL    HW1 2312   0.169   2.794   2.148 -3.1057 -1.3168 -1.3025
  771SOL    HW2 2313   0.011   2.816   2.163  1.2323 -0.2708 -0.2780
  772SOL     OW 2314   2.174   2.734   1.944 -0.5186 -0.1681  0.5869
  772SOL    HW1 2315   2.204   2.785   2.024 -3.7791 -0.5107 -2.1958
  772SOL    HW2 2316   2.229   2.774   1.866  1.6549 -0.4394 -2.6018
  773SOL     OW 2317   0.760   1.856   1.628  0.0884  0.0152  0.7810
  773SOL    HW1 2318   0.834   1.897   1.572 -1.3806 -0.4827 -2.5815
  773SOL    HW2 2319   0.766   1.880   1.724  0.7581 -1.3048 -2.6183
  774SOL     OW 2320   1.105   0.235   1.766 -0.0059 -0.0519  0.7445
  774SOL    HW1 2321   1.144   0.314   1.813 -0.6590 -0.0167 -0.6761
  774SOL    HW2 2322   1.008   0.221   1.789  0.9560  3.3825 -0.8652
  775SOL     OW 2323   1.844   0.033   2.986  0.3693  0.3906  0.4180
  775SOL    HW1 2324   1.818   0.101   2.909  0.7377  2.1328  0.4629
  775SOL    HW2 2325   1.904   3.062   2.944  0.2883  2.4694  1.6554
  776SOL     OW 2326   2.848   0.324   2.040  0.2867 -0.2698  0.2827
  776SOL    HW1 2327   2.868   0.402   1.984 -0.3592 -2.9321  0.2309
  776SOL    HW2 2328   2.906   0.246   2.013 -0.3199  0.5594  1.2892
  777SOL     OW 2329   2.365   2.161   2.116 -0.1286  0.4584  0.2256
  777SOL    HW1 2330   2.287   2.159   2.046  1.2113 -1.5242  0.8614
  777SOL    HW2 2331   2.455   2.185   2.070  1.5738 -0.3205 -0.8108
  778SOL     OW 2332   1.672   0.776   2.087  0.3217 -0.5710 -0.2886
  778SOL    HW1 2333   1.673   0.838   2.169 -0.8793 -1.3450  0.0835
  778SOL    HW2 2334   1.576   0.741   2.075 -1.0096  0.5787 -0.0378
  779SOL     OW 2335   2.391   0.443   0.628  0.2712  0.2904  0.3467
  779SOL    HW1 2336   2.450   0.391   0.563 -1.4658  1.4541  1.8631
  779SOL    HW2 2337   2.410   0.544   0.610  2.4529  0.2661 -0.1042
  780SOL     OW 2338   2.220   0.204   2.997  0.0543 -0.0663  1.0114
  780SOL    HW1 2339   2.149   0.197   3.071  0.7148  1.1062 -2.2343
  780SOL    HW2 2340   2.205   0.131   2.929 -4.3623  0.7284 -0.0997
  781SOL     OW 2341   0.086   2.383   1.481  0.0507  0.5331  0.1690
  781SOL    HW1 2342   0.168   2.361   1.429 -0.2611 -1.0653  1.2562
  781SOL    HW2 2343   0.042   2.297   1.517 -0.9340 -0.6354  0.6814
  782SOL     OW 2344   2.403   2.489   2.942  1.1589 -0.0789 -0.3719
  782SOL    HW1 2345   2.411   2.588   2.948  0.4480  0.1661  2.5327
  782SOL    HW2 2346   2.386   2.449   3.037  1.2556 -0.6185  1.9155
  783SOL     OW 2347   0.491   1.555   1.347  0.1205 -0.3659 -0.3031
  783SOL    HW1 2348   0.414   1.514   1.397  2.0001 -0.6733 -1.5852
  783SOL    HW2 2349   0.566   1.589   1.407  1.8678  2.0023 -1.3052
  784SOL     OW 2350   1.471   0.694   2.704  0.1764  0.3771  0.4159
  784SOL    HW1 2351   1.537   0.767   2.683  0.8941  1.0737 -1.3116
  784SOL    HW2 2352   1.422   0.713   2.792 -1.9622 -0.2307 -1.9867
  785SOL     OW 2353   2.546   0.074   0.867  0.6601 -0.2127  0.0500
  785SOL    HW1 2354   2.525   0.058   0.966 -2.1622  0.4707  1.1921
  785SOL    HW2 2355   2.569   0.173   0.861 -3.1728  1.3429  0.1609
  786SOL     OW 2356   1.169   2.084   1.972  0.3779  0.0803 -0.3434
  786SOL    HW1 2357   1.105   2.004   1.964  1.5316 -3.0553  1.4510
  786SOL    HW2 2358   1.156   2.134   2.062  0.1890 -0.7336 -0.8440
  787SOL     OW 2359   1.302   0.795   1.155  0.4241  0.5684  0.9112
  787SOL    HW1 2360   1.228   0.847   1.201  1.0895 -1.1370 -0.9772
  787SOL    HW2 2361   1.341   0.845   1.076 -2.0080  1.7637  1.8302
  788SOL     OW 2362   0.161   0.685   0.462  0.4917  0.2129 -0.3221
  788SOL    HW1 2363   0.231   0.690   0.538  1.7582 -1.3520 -1.1207
  788SOL    HW2 2364   0.186   0.612   0.386  0.7995 -2.8266 -4.3522
  789SOL     OW 2365   0.240   2.038   1.212 -0.4549  0.0526  0.8296
  789SOL    HW1 2366   0.310   2.027   1.140 -1.4538  2.8141  1.0222
  789SOL    HW2 2367   0.259   1.980   1.292  0.2559  1.4576 -1.1360
  790SOL     OW 2368   0.852   0.789   2.481 -0.4753  0.0131  0.1716
  790SOL    HW1 2369   0.949   0.767   2.490  2.2402  3.3967  1.1873
  790SOL    HW2 2370   0.798   0.716   2.437 -1.3103  0.6470 -1.3958
  791SOL     OW 2371   1.783   0.761   0.916  0.0511  0.3025  0.1444
  791SOL    HW1 2372   1.704   0.803   0.863 -0.2728  2.3471 -1.8545
  791SOL    HW2 2373   1.742   0.692   0.979  0.1477  1.2482  0.0555
  792SOL     OW 2374   1.282   2.598   2.365  0.1464 -0.6773  0.4825
  792SOL    HW1 2375   1.308   2.662   2.292 -1.8531 -3.2000  2.4770
  792SOL    HW2 2376   1.186   2.568   2.359 -2.9614  0.0579  1.3249
  793SOL     OW 2377   1.243   0.732   0.393 -0.1921  0.0279  0.4281
  793SOL    HW1 2378   1.270   0.823   0.362  0.6082 -0.5231  1.7238
  793SOL    HW2 2379   1.156   0.733   0.446  4.1587 -0.4721 -1.3397
  794SOL     OW 2380   0.645   0.989   1.993 -0.1401  0.0058 -0.5541
  794SOL    HW1 2381   0.564   1.002   2.050  1.1352 -0.0262 -1.0859
  794SOL    HW2 2382   0.730   0.991   2.045 -0.7144  3.0074 -2.5374
  795SOL     OW 2383   0.388   1.905   2.320  0.8746 -0.2734 -0.2483
  795SOL    HW1 2384   0.479   1.944   2.314 -0.1856 -1.8230 -1.1683
  795SOL    HW2 2385   0.318   1.965   2.366 -1.8494  0.8555  2.2035
  796SOL     OW 2386   2.439   0.774   2.051 -0.1873  0.6490 -0.4259
  796SOL    HW1 2387   2.372   0.786   2.124  2.6000 -1.8530 -1.5278
  796SOL    HW2 2388   2.486   0.861   2.022 -0.7789 -0.0838 -2.0920
  797SOL     OW 2389   2.868   2.260   2.843  0.4007  0.0493  0.1300
  797SOL    HW1 2390   2.788   2.322   2.821  0.7894  0.1945 -2.8710
  797SOL    HW2 2391   2.931   2.299   2.912 -0.2208  0.8601 -0.0401
  798SOL     OW 2392   0.330   2.397   2.140 -0.0568 -0.5033 -0.0412
  798SOL    HW1 2393   0.400   2.334   2.093  0.3483  0.1865 -2.1126
  798SOL    HW2 2394   0.249   2.344   2.174  0.4419 -1.8270  1.0953
  799SOL     OW 2395   0.357   2.271   2.734 -0.0367 -0.0279  0.1251
  799SOL    HW1 2396   0.363   2.362   2.782  0.0007 -1.6618 -0.7336
  799SOL    HW2 2397   0.293   2.215   2.792 -1.2087  1.5113 -0.7533
  800SOL     OW 2398   0.746   2.259   2.899  0.8271  0.0429 -0.0253
  800SOL    HW1 2399   0.766   2.361   2.894  0.1997  0.3233 -0.7048
  800SOL    HW2 2400   0.734   2.226   2.998 -0.1794  1.5368  2.9299
  801SOL     OW 2401   1.736   1.538   1.079  0.5575 -0.8292  0.2357
  801SOL    HW1 2402   1.675   1.460   1.116  0.2048 -4.3159  1.9695
  801SOL    HW2 2403   1.806   1.565   1.150 -0.8742 -1.2310  0.2139
  802SOL     OW 2404   2.798   1.082   0.724 -0.4885  0.1181 -0.6281
  802SOL    HW1 2405   2.796   1.136   0.639  0.1350 -1.5135  2.0058
  802SOL    HW2 2406   2.772   0.984   0.707 -1.0569 -1.6113  0.6637
  803SOL     OW 2407   1.238   1.913   2.307 -0.2576  0.0754 -0.1216
  803SOL    HW1 2408   1.274   1.934   2.398  1.1319 -1.2126 -0.5020
  803SOL    HW2 2409   1.148   1.962   2.303  1.0563 -1.7361  1.1941
  804SOL     OW 2410   1.539   1.298   0.279  0.7470  0.0820  0.1372
  804SOL    HW1 2411   1.465   1.364   0.267  0.2408 -2.2547  0.6606
  804SOL    HW2 2412   1.626   1.341   0.316 -0.1125 -0.6656 -0.4168
  805SOL     OW 2413   2.634   1.524   0.070 -0.0132 -0.2888  0.5792
  805SOL    HW1 2414   2.636   1.445   0.138 -0.0092 -2.7215  1.4779
  805SOL    HW2 2415   2.568   1.498   3.093 -3.0188 -3.5793 -2.2926
  806SOL     OW 2416   0.532   3.055   0.712  0.5940  0.2271  0.4748
  806SOL    HW1 2417   0.576   3.083   0.796 -1.2516 -0.9588 -2.3565
  806SOL    HW2 2418   0.495   2.961   0.712 -4.5024 -0.1780  0.4833
  807SOL     OW 2419   1.992   1.724   2.947 -0.0436 -0.3395  0.4297
  807SOL    HW1 2420   1.999   1.804   3.012  0.8658 -0.3994 -0.8616
  807SOL    HW2 2421   1.988   1.637   2.998 -2.2659  4.8330 -0.7013
  808SOL     OW 2422   0.513   1.615   0.922  0.2688 -0.2671  0.0956
  808SOL    HW1 2423   0.460   1.564   0.992 -1.5722 -1.8730  1.9200
  808SOL    HW2 2424   0.487   1.583   0.829 -1.1160  0.3931  1.7557
  809SOL     OW 2425   2.351   0.706   0.516 -0.5282 -0.0464  0.0867
  809SOL    HW1 2426   2.388   0.801   0.515  0.6813  0.3082  4.2233
  809SOL    HW2 2427   2.381   0.650   0.439  2.1162 -1.2557 -2.3309
  810SOL     OW 2428   0.748   1.031   0.421  0.7741  0.5133  0.7743
  810SOL    HW1 2429   0.736   1.126   0.452 -0.4745 -0.6968  0.2297
  810SOL    HW2 2430   0.795   0.980   0.492 -0.7940 -1.7753 -3.6972
  811SOL     OW 2431   1.478   2.539   1.294  0.2293 -0.5186 -0.1943
  811SOL    HW1 2432   1.574   2.552   1.262 -2.2534  2.4760 -0.7601
  811SOL    HW2 2433   1.469   2.453   1.347 -1.4114  0.6072  1.1198
  812SOL     OW 2434   1.236   2.632   1.727 -0.1950 -0.1208  0.3942
  812SOL    HW1 2435   1.190   2.670   1.812 -2.5743 -1.5631  0.2193
  812SOL    HW2 2436   1.182   2.662   1.651  0.9669  2.2190 -0.5806
  813SOL     OW 2437   0.961   2.923   1.871 -0.1278 -0.2407  0.3395
  813SOL    HW1 2438   0.924   2.980   1.945 -0.1125 -4.0294 -0.1428
  813SOL    HW2 2439   0.988   2.977   1.788 -2.8132  0.0250  1.5023
  814SOL     OW 2440   0.783   2.419   2.422 -0.4707  0.4091 -0.6493
  814SOL    HW1 2441   0.735   2.456   2.338 -0.9778 -0.6827 -2.2976
  814SOL    HW2 2442   0.725   2.346   2.470 -0.5021 -2.8395 -2.6481
  815SOL     OW 2443   0.597   0.245   2.515  0.3120  0.1032 -0.0265
  815SOL    HW1 2444   0.661   0.171   2.482  1.9011  1.2029 -0.6864
  815SOL    HW2 2445   0.658   0.320   2.539 -0.1194 -1.4506  0.0418
  816SOL     OW 2446   2.191   0.010   2.785 -0.2291  0.0019 -0.5930
  816SOL    HW1 2447   2.148   3.026   2.827  1.4425  0.1172  2.1699
  816SOL    HW2 2448   2.123   0.085   2.756  1.1796  2.2672  0.0474
  817SOL     OW 2449   2.094   0.118   2.021 -0.0221 -0.1115  0.3503
  817SOL    HW1 2450   2.126   0.152   1.930  1.2515  0.0209  1.8159
  817SOL    HW2 2451   2.121   0.189   2.090 -1.4124  0.6099  0.7266
  818SOL     OW 2452   1.532   0.675   0.039  0.5507 -0.4692  0.1496
  818SOL    HW1 2453   1.461   0.698   3.063 -1.7427  2.1883  0.6695
  818SOL    HW2 2454   1.610   0.619   0.005  1.0898  1.4433 -3.3726
  819SOL     OW 2455   2.194   1.436   2.623 -0.3440 -0.6640  0.5357
  819SOL    HW1 2456   2.111   1.380   2.616  0.3298 -2.4575 -0.8063
  819SOL    HW2 2457   2.178   1.528   2.663  1.1409  0.9974  1.8531
  820SOL     OW 2458   0.096   1.704   0.105  0.3192  0.0912  0.0543
  820SOL    HW1 2459   0.048   1.678   0.016 -3.4353 -0.9625 -1.8239
  820SOL    HW2 2460   0.176   1.644   0.121 -2.1130 -1.0238  0.7050
  821SOL     OW 2461   0.294   2.823   1.057 -0.2685 -0.2169  0.0381
  821SOL    HW1 2462   0.246   2.890   0.998  2.6323 -0.3493 -0.9576
  821SOL    HW2 2463   0.296   2.732   1.013 -1.6280  0.9822  1.6330
  822SOL     OW 2464   2.669   2.435   2.836  0.1536 -0.4647 -0.6177
  822SOL    HW1 2465   2.575   2.443   2.884 -1.8251 -0.5029  1.5565
  822SOL    HW2 2466   2.695   2.520   2.786  0.8456  0.6082 -0.4335
  823SOL     OW 2467   1.285   0.285   2.139  0.4302 -0.1715 -0.2199
  823SOL    HW1 2468   1.270   0.182   2.140 -1.3348 -0.3942 -0.3855
  823SOL    HW2 2469   1.382   0.302   2.152 -1.5327  3.9637 -0.4057
  824SOL     OW 2470   2.761   2.221   2.112 -0.0114  0.1334  0.4277
  824SOL    HW1 2471   2.785   2.268   2.198 -0.6642  0.3468 -1.8729
  824SOL    HW2 2472   2.670   2.253   2.079 -1.5116 -2.0916  0.3495
  825SOL     OW 2473   2.886   2.022   2.455  0.3365  0.6014 -0.5779
  825SOL    HW1 2474   2.804   1.966   2.466  1.4225 -1.5795  2.5411
  825SOL    HW2 2475   2.955   1.980   2.384 -1.3603 -3.3655 -0.4936
  826SOL     OW 2476   2.234   0.917   2.521 -0.4539 -0.3765  0.0104
  826SOL    HW1 2477   2.188   0.833   2.552 -0.9515  0.0527  1.4111
  826SOL    HW2 2478   2.174   0.987   2.477 -0.0921  0.0868  2.4558
  827SOL     OW 2479   2.478   2.261   1.239 -0.0771  0.0082 -0.1878
  827SOL    HW1 2480   2.457   2.213   1.155  0.4386  1.6856  0.7332
  827SOL    HW2 2481   2.393   2.287   1.287  3.1837  1.3599 -1.3320
  828SOL     OW 2482   0.183   0.174   1.636 -0.3493 -0.3531 -0.0226
  828SOL    HW1 2483   0.255   0.105   1.622 -1.3474  1.6903 -0.3231
  828SOL    HW2 2484   0.192   0.220   1.727 -0.7731  2.3517  2.2222
  829SOL     OW 2485   1.177   2.341   2.594  0.3413  0.1336  0.2975
  829SOL    HW1 2486   1.273   2.308   2.606  0.9347  0.0513  2.2962
  829SOL    HW2 2487   1.108   2.274   2.625 -1.1270 -0.5187 -3.4611
  830SOL     OW 2488   1.024   0.547   0.704 -0.1429 -0.1256  0.2622
  830SOL    HW1 2489   0.953   0.475   0.698  1.4690  0.8526 -0.0712
  830SOL    HW2 2490   1.014   0.621   0.632  2.7361 -0.1951 -2.5700
  831SOL     OW 2491   2.843   1.536   2.990  0.0823  0.6141 -0.1908
  831SOL    HW1 2492   2.753   1.543   3.037 -1.1748 -2.5448  0.8884
  831SOL    HW2 2493   2.861   1.433   2.998 -0.0656 -0.0072  0.5305
  832SOL     OW 2494   1.817   2.160   2.167 -0.3474  0.8128 -0.3195
  832SOL    HW1 2495   1.712   2.155   2.161 -1.5716 -0.3407 -0.7305
  832SOL    HW2 2496   1.851   2.210   2.085 -1.8767  4.1640 -1.4790
  833SOL     OW 2497   0.867   0.406   2.086 -0.0853 -0.1377 -0.1609
  833SOL    HW1 2498   0.925   0.362   2.162 -1.2110 -0.4081  0.5399
  833SOL    HW2 2499   0.805   0.333   2.051 -0.3244  0.2810  0.6338
  834SOL     OW 2500   0.360   0.603   1.249 -0.5806 -0.3321  0.0975
  834SOL    HW1 2501   0.365   0.605   1.350  0.9135  1.0879 -1.8086
  834SOL    HW2 2502   0.275   0.568   1.214  0.8982 -0.3195  1.9069
  835SOL     OW 2503   2.501   0.416   0.150 -0.3765  0.2629  0.0595
  835SOL    HW1 2504   2.464   0.383   0.062  2.8727 -0.2054 -1.0909
  835SOL    HW2 2505   2.605   0.412   0.150  0.6462  1.1183 -2.8419
  836SOL     OW 2506   1.387   1.817   0.368 -0.2900 -0.0275  0.0934
  836SOL    HW1 2507   1.442   1.898   0.400 -0.4802 -0.2587  1.4906
  836SOL    HW2 2508   1.430   1.757   0.294  0.6220  0.1749  2.2248
  837SOL     OW 2509   1.548   1.827   0.733 -0.0707 -0.2387  0.7994
  837SOL    HW1 2510   1.642   1.799   0.703  2.4299 -1.7343 -0.9926
  837SOL    HW2 2511   1.515   1.775   0.812  1.6072 -1.4786  2.3330
  838SOL     OW 2512   1.375   0.959   1.988  0.0528  0.0426  0.0877
  838SOL    HW1 2513   1.344   1.020   1.909 -1.0004  1.7240 -0.7544
  838SOL    HW2 2514   1.292   0.961   2.051 -0.5116 -0.1851 -0.1116
  839SOL     OW 2515   0.870   1.696   2.605 -0.5162  0.0037 -0.1767
  839SOL    HW1 2516   0.792   1.760   2.621  0.1986 -0.1941 -2.8792
  839SOL    HW2 2517   0.843   1.599   2.609 -0.2025 -3.0760 -0.0177
  840SOL     OW 2518   0.705   2.262   0.467  0.2102  0.1476  0.4922
  840SOL    HW1 2519   0.703   2.343   0.409 -3.5979  0.2507 -1.3353
  840SOL    HW2 2520   0.673   2.282   0.564  1.6066 -0.0200 -0.5281
  841SOL     OW 2521   1.921   2.647   0.111  0.1530  0.7180 -0.3246
  841SOL    HW1 2522   1.882   2.741   0.090  1.2189  0.8244 -1.4989
  841SOL    HW2 2523   1.852   2.573   0.086 -4.7456 -3.5657 -0.8842
  842SOL     OW 2524   0.409   0.624   2.944 -0.7082  0.5246  0.4701
  842SOL    HW1 2525   0.463   0.661   2.859  0.9922  2.1151  2.5336
  842SOL    HW2 2526   0.314   0.612   2.915 -0.0178  0.9758 -0.1501
  843SOL     OW 2527   1.235   0.407   0.830 -0.9372  0.2915 -0.1935
  843SOL    HW1 2528   1.185   0.459   0.758  0.0519  0.2548  1.2893
  843SOL    HW2 2529   1.186   0.420   0.919 -0.0438 -2.7879 -2.2319
  844SOL     OW 2530   2.888   0.041   2.697 -0.1738 -0.0102 -0.2799
  844SOL    HW1 2531   2.794   0.044   2.731  3.8859  0.6018 -0.5774
  844SOL    HW2 2532   2.897   3.062   2.631 -1.8982  0.4380  0.0057
  845SOL     OW 2533   2.547   2.071   1.433 -0.4312 -0.5213 -0.2073
  845SOL    HW1 2534   2.518   2.141   1.369 -0.1831 -1.3053  3.1907
  845SOL    HW2 2535   2.605   2.116   1.502 -1.6870 -0.6120  0.2781
  846SOL     OW 2536   2.640   1.642   2.315 -0.4334  0.1248 -0.1230
  846SOL    HW1 2537   2.612   1.590   2.396  1.4651 -2.3612 -2.2789
  846SOL    HW2 2538   2.713   1.602   2.255 -0.4658  1.0638 -2.0754
  847SOL     OW 2539   1.130   0.785   1.484 -0.3004  0.3596 -0.2179
  847SOL    HW1 2540   1.089   0.836   1.568  0.7662  0.1044  2.2380
  847SOL    HW2 2541   1.087   0.691   1.474 -0.1820 -2.9197 -1.3016
  848SOL     OW 2542   2.789   2.889   0.096 -0.0916  0.5552 -0.0756
  848SOL    HW1 2543   2.718   2.843   0.158 -2.4557  1.7741  0.0405
  848SOL    HW2 2544   2.858   2.925   0.161  1.4206  0.0119  1.0658
  849SOL     OW 2545   0.630   3.075   0.152 -0.2971 -0.5630  0.1523
  849SOL    HW1 2546   0.538   3.046   0.180 -0.6632  0.0395 -2.1717
  849SOL    HW2 2547   0.626   0.079   0.143 -1.7894  0.7715  1.7236
  850SOL     OW 2548   1.554   2.992   1.164 -0.0589 -0.2778 -0.1118
  850SOL    HW1 2549   1.608   3.076   1.162 -0.1655 -2.3324 -2.1258
  850SOL    HW2 2550   1.610   2.921   1.122  0.6673 -0.8886  1.5406
  851SOL     OW 2551   2.572   0.290   2.099 -0.5117  0.6574 -0.1259
  851SOL    HW1 2552   2.671   0.287   2.074 -0.1858 -0.3918  0.5728
  851SOL    HW2 2553   2.546   0.387   2.108  0.0512  1.0684 -2.4752
  852SOL     OW 2554   1.776   0.614   2.382 -0.5595 -0.2774 -0.0890
  852SOL    HW1 2555   1.837   0.538   2.352  0.9425 -1.1544 -0.7709
  852SOL    HW2 2556   1.682   0.601   2.358 -0.4343  3.0686 -1.9441
  853SOL     OW 2557   2.960   2.997   0.257  0.3964  0.4501 -0.2460
  853SOL    HW1 2558   2.880   3.051   0.288  2.2864 -1.3176 -0.2008
  853SOL    HW2 2559   3.023   3.055   0.205 -1.8782  0.5077 -0.4332
  854SOL     OW 2560   2.341   1.095   2.255  0.1565 -0.8185 -0.3078
  854SOL    HW1 2561   2.399   1.127   2.331  0.9774  0.0074 -1.4421
  854SOL    HW2 2562   2.359   1.143   2.166  1.3165 -0.4813  1.2125
  855SOL     OW 2563   0.911   2.958   0.277 -0.3363 -0.0551  0.2506
  855SOL    HW1 2564   0.826   2.985   0.228  1.1348 -0.9217 -0.1376
  855SOL    HW2 2565   0.927   2.856   0.266  0.8525 -0.8100  3.2802
  856SOL     OW 2566   3.060   0.002   2.916  0.0371  0.0823  0.3147
  856SOL    HW1 2567   2.987   0.033   2.849 -0.5975 -0.5704 -2.4258
  856SOL    HW2 2568   0.005   3.015   2.886 -2.2115  0.3854 -1.0159
  857SOL     OW 2569   1.372   2.709   1.511 -0.7754 -0.1906 -0.3443
  857SOL    HW1 2570   1.395   2.635   1.444 -0.8311 -0.0495 -1.8663
  857SOL    HW2 2571   1.356   2.673   1.601  2.0295  2.4138 -2.1670
  858SOL     OW 2572   2.681   2.415   1.771 -0.5323  0.2034  0.2850
  858SOL    HW1 2573   2.773   2.439   1.795 -1.0961  1.2133  2.2665
  858SOL    HW2 2574   2.677   2.317   1.737 -0.4481 -1.3898 -0.2624
  859SOL     OW 2575   1.611   2.230   1.862  0.4612 -0.1144 -0.0146
  859SOL    HW1 2576   1.542   2.302   1.839 -1.6895  0.2466 -2.4693
  859SOL    HW2 2577   1.598   2.187   1.950  1.2788 -2.7652 -2.6438
  860SOL     OW 2578   1.993   2.928   2.898 -0.2201 -0.0516 -0.1171
  860SOL    HW1 2579   1.938   2.874   2.833 -0.3848 -3.8692 -2.2877
  860SOL    HW2 2580   2.059   2.869   2.948  0.7089  2.1529 -0.6948
  861SOL     OW 2581   2.503   2.750   0.798  0.6435 -0.0774 -0.4411
  861SOL    HW1 2582   2.465   2.712   0.710  1.2190  0.8430 -1.7429
  861SOL    HW2 2583   2.556   2.836   0.785  1.4130  3.0139  1.4182
  862SOL     OW 2584   1.629   0.093   2.546 -0.0719  0.1604  0.3395
  862SOL    HW1 2585   1.563   0.015   2.521 -0.4174 -4.4530  2.2591
  862SOL    HW2 2586   1.614   0.179   2.493  0.5285 -0.9621 -0.9583
  863SOL     OW 2587   0.136   0.640   0.861  0.1758 -0.6711  0.3995
  863SOL    HW1 2588   0.191   0.712   0.916 -0.0251  2.1853  1.5433
  863SOL    HW2 2589   0.071   0.683   0.799  0.8103 -2.5202  1.9582
  864SOL     OW 2590   0.290   2.667   2.095  0.2399  0.0274  0.0154
  864SOL    HW1 2591   0.359   2.712   2.158  1.1085  2.3067 -1.3507
  864SOL    HW2 2592   0.296   2.569   2.099  1.3238  0.3673  0.1000
  865SOL     OW 2593   0.623   1.235   3.037 -0.4959  0.0695 -0.2102
  865SOL    HW1 2594   0.712   1.208   3.073 -1.5309 -0.8181 -1.8239
  865SOL    HW2 2595   0.549   1.208   3.098  0.8998  0.1744 -1.8069
  866SOL     OW 2596   3.008   0.593   0.058  0.1072 -0.0434  0.7046
  866SOL    HW1 2597   0.008   0.588   0.086  0.4827  1.0681  1.2017
  866SOL    HW2 2598   2.957   0.655   0.121  1.7821  0.2162  0.0509
  867SOL     OW 2599   0.020   2.878   2.799  0.1283  0.1221 -0.0075
  867SOL    HW1 2600   0.070   2.836   2.879 -0.9865 -1.8394 -0.9963
  867SOL    HW2 2601   3.020   2.850   2.804  0.6724 -0.0561  2.7129
  868SOL     OW 2602   1.520   0.132   0.349  0.7393  0.3243  0.4547
  868SOL    HW1 2603   1.484   0.227   0.373 -2.8449 -0.9816  0.2435
  868SOL    HW2 2604   1.522   0.076   0.436  1.2685  2.6656  0.6244
  869SOL     OW 2605   1.943   1.594   0.525 -0.1504 -0.1011 -0.2063
  869SOL    HW1 2606   1.985   1.513   0.569 -0.5644 -2.2240  1.5357
  869SOL    HW2 2607   1.907   1.669   0.588  0.7140  2.3904 -0.1022
  870SOL     OW 2608   1.856   1.763   0.713 -0.1430 -0.3637  0.2931
  870SOL    HW1 2609   1.866   1.765   0.813 -2.5697  1.4896  0.0989
  870SOL    HW2 2610   1.913   1.835   0.666 -1.0852  0.5800  0.5948
  871SOL     OW 2611   1.120   1.499   1.222  1.1844 -0.0576 -0.1723
  871SOL    HW1 2612   1.070   1.513   1.310  1.0812  1.4075 -0.4390
  871SOL    HW2 2613   1.211   1.542   1.231 -1.9112  1.6789 -1.1839
  872SOL     OW 2614   1.335   1.623   1.713 -0.0374  0.0072 -0.3114
  872SOL    HW1 2615   1.260   1.552   1.688 -1.1547 -2.9537  1.4635
  872SOL    HW2 2616   1.297   1.718   1.712  0.6891 -0.2678 -1.7946
  873SOL     OW 2617   0.593   1.448   2.422  0.0826  0.2232  0.4114
  873SOL    HW1 2618   0.640   1.433   2.507 -2.3753  0.3233 -2.8175
  873SOL    HW2 2619   0.602   1.541   2.384 -0.4125  1.6463 -0.2492
  874SOL     OW 2620   0.692   1.383   1.194  0.1758 -0.0689  0.4316
  874SOL    HW1 2621   0.637   1.451   1.245  0.6651  0.7849 -0.8720
  874SOL    HW2 2622   0.633   1.299   1.171  1.3764  0.3313 -0.8256
  875SOL     OW 2623   2.562   0.129   1.209 -0.0493 -0.5210 -0.0696
  875SOL    HW1 2624   2.554   0.233   1.200 -1.9981  1.6910 -0.1814
  875SOL    HW2 2625   2.504   0.110   1.289 -1.9410 -2.0759  0.1927
  876SOL     OW 2626   0.745   0.802   0.043 -0.3755 -0.2486 -0.2973
  876SOL    HW1 2627   0.800   0.715   0.058 -0.3093  2.1301  0.7544
  876SOL    HW2 2628   0.783   0.872   0.106  0.0653 -0.6965  1.0391
  877SOL     OW 2629   2.917   0.469   1.463  0.1217  0.8980  0.5427
  877SOL    HW1 2630   2.919   0.529   1.384  1.4458  1.4516 -0.5019
  877SOL    HW2 2631   2.827   0.425   1.470 -1.3534 -0.0648  1.8746
  878SOL     OW 2632   1.728   2.216   0.052  0.3505  0.2848  0.5168
  878SOL    HW1 2633   1.753   2.310   0.020  0.0564  0.8221 -1.2081
  878SOL    HW2 2634   1.750   2.149   3.076 -0.8210  2.0708  0.2299
  879SOL     OW 2635   2.242   2.211   1.610  0.1302  0.2956  0.4498
  879SOL    HW1 2636   2.248   2.239   1.511  0.1593 -2.2254 -2.6253
  879SOL    HW2 2637   2.264   2.289   1.670 -1.3122 -3.0706 -0.9407
  880SOL     OW 2638   0.955   2.938   1.480 -0.3414  0.2083  0.3320
  880SOL    HW1 2639   0.986   2.993   1.560  1.1210 -1.7774 -0.6644
  880SOL    HW2 2640   1.012   2.849   1.482  4.1250 -0.6696 -0.6268
  881SOL     OW 2641   1.071   1.979   2.831 -0.0272 -0.2360  0.4733
  881SOL    HW1 2642   1.064   1.879   2.843  1.2263  2.0599  0.6571
  881SOL    HW2 2643   1.170   2.005   2.836 -0.2163 -0.1860 -0.4993
  882SOL     OW 2644   2.109   0.889   1.980 -0.1176 -0.7169 -0.5071
  882SOL    HW1 2645   2.141   0.857   2.073 -0.8378  2.5356 -1.5307
  882SOL    HW2 2646   2.184   0.944   1.933  1.6481  1.5837 -0.9332
  883SOL     OW 2647   1.183   0.571   1.756 -0.5525 -0.0579  0.0743
  883SOL    HW1 2648   1.166   0.670   1.743 -1.1537 -2.2007 -1.1564
  883SOL    HW2 2649   1.148   0.526   1.837 -0.4925  0.1791  2.5456
  884SOL     OW 2650   2.865   0.387   3.056 -0.1168 -0.3053  0.1208
  884SOL    HW1 2651   2.837   0.328   0.032  1.9230  1.8147 -0.6299
  884SOL    HW2 2652   2.922   0.468   3.093 -0.1214  0.2269 -0.9125
  885SOL     OW 2653   0.612   2.078   0.306 -0.1386 -0.0723 -0.1761
  885SOL    HW1 2654   0.652   2.162   0.351 -0.3475  1.6978 -0.2854
  885SOL    HW2 2655   0.613   2.082   0.205 -0.9751  0.6479 -1.1635
  886SOL     OW 2656   1.954   1.373   2.855 -0.4997 -0.5905  0.5521
  886SOL    HW1 2657   1.979   1.312   2.777  1.7059 -0.7998 -0.3814
  886SOL    HW2 2658   1.854   1.370   2.878  0.3350  0.1112 -1.8462
  887SOL     OW 2659   1.905   0.626   1.506  0.0955  0.6153 -0.2254
  887SOL    HW1 2660   1.850   0.672   1.576  1.7150 -0.0665 -2.9648
  887SOL    HW2 2661   1.880   0.667   1.416 -1.8081  1.9319 -1.6777
  888SOL     OW 2662   2.680   1.154   1.598  0.3065  0.2719 -0.3241
  888SOL    HW1 2663   2.628   1.240   1.584 -0.5690 -0.4601 -0.4573
  888SOL    HW2 2664   2.606   1.081   1.615  0.3872 -3.0388  0.2091
  889SOL     OW 2665   2.750   2.749   1.134 -0.0937 -0.4275 -0.4503
  889SOL    HW1 2666   2.818   2.795   1.075  0.3174  2.3557  2.1486
  889SOL    HW2 2667   2.792   2.678   1.195  2.5835  1.5804  1.5798
  890SOL     OW 2668   0.158   2.653   2.620 -0.8246 -0.0077 -0.2459
  890SOL    HW1 2669   0.235   2.611   2.670  2.5792 -0.6370  1.5086
  890SOL    HW2 2670   0.137   2.745   2.657  3.6655  1.3122  1.8358
  891SOL     OW 2671   0.617   1.895   3.001  0.1349 -0.1775  0.2148
  891SOL    HW1 2672   0.573   1.916   2.910  1.2516  1.0049  1.4917
  891SOL    HW2 2673   0.669   1.804   2.996 -0.0459 -1.2747  0.8065
  892SOL     OW 2674   0.335   2.354   1.306  0.1139  0.5595 -0.4537
  892SOL    HW1 2675   0.310   2.285   1.235  1.7620 -0.1869  0.6838
  892SOL    HW2 2676   0.397   2.429   1.270 -0.2019  1.1754 -1.5960
  893SOL     OW 2677   0.578   0.062   1.287  0.6149  0.4376  0.0097
  893SOL    HW1 2678   0.663   0.023   1.326 -1.7118 -0.1032  0.9719
  893SOL    HW2 2679   0.568   0.165   1.313  1.7126  1.2551 -0.4155
  894SOL     OW 2680   2.885   1.275   0.917 -0.0974  0.3137 -0.2324
  894SOL    HW1 2681   2.862   1.191   0.864 -1.3488  3.3330  0.7996
  894SOL    HW2 2682   2.800   1.335   0.921  0.5819 -0.2796 -1.6207
  895SOL     OW 2683   2.498   2.588   1.671 -0.4839 -0.4703  0.1081
  895SOL    HW1 2684   2.580   2.532   1.701  0.6272  1.3589  1.0870
  895SOL    HW2 2685   2.481   2.579   1.570  0.6701 -0.1532  4.4489
  896SOL     OW 2686   1.072   0.529   1.501  0.1576 -0.3002  0.2338
  896SOL    HW1 2687   1.138   0.513   1.577 -1.9561 -0.7221 -0.1217
  896SOL    HW2 2688   0.977   0.510   1.535 -0.1799  0.8694  0.0547
  897SOL     OW 2689   0.688   1.610   1.512 -0.1815 -0.0451  0.7910
  897SOL    HW1 2690   0.762   1.556   1.475 -0.3754 -1.4028  2.2287
  897SOL    HW2 2691   0.720   1.687   1.576 -1.2971 -1.2549  2.0502
  898SOL     OW 2692   1.491   2.519   2.003  0.3629  0.0297 -0.4583
  898SOL    HW1 2693   1.442   2.487   1.920  1.7247  0.1987  2.2089
  898SOL    HW2 2694   1.438   2.595   2.047 -1.1461 -0.9597  1.2655
  899SOL     OW 2695   0.909   0.566   0.136 -0.3668  0.0490  0.4387
  899SOL    HW1 2696   0.890   0.577   0.238  2.3766  0.4129 -1.2438
  899SOL    HW2 2697   0.862   0.485   0.095 -0.4375 -0.6812  1.8923
  900SOL     OW 2698   1.389   2.280   2.225 -0.6181 -0.0234 -0.2581
  900SOL    HW1 2699   1.459   2.349   2.198  0.4214 -2.6217  0.4068
  900SOL    HW2 2700   1.294   2.306   2.188  0.1072 -1.2110 -3.0137
  901SOL     OW 2701   0.985   2.312   0.088  0.2727  0.2539 -0.0069
  901SOL    HW1 2702   0.910   2.373   0.119 -1.2442 -2.0994 -0.9633
  901SOL    HW2 2703   0.964   2.214   0.119  1.6900 -0.2390  1.7316
  902SOL     OW 2704   1.736   1.408   0.403 -0.0477 -0.1071 -0.0799
  902SOL    HW1 2705   1.719   1.341   0.482 -2.4873 -1.1310  1.3683
  902SOL    HW2 2706   1.812   1.472   0.429  3.7984  0.7556  0.0761
  903SOL     OW 2707   2.161   1.002   0.374  0.0632  0.2789 -1.6776
  903SOL    HW1 2708   2.246   1.024   0.422 -2.1837  0.4272 -0.3938
  903SOL    HW2 2709   2.171   1.020   0.273  0.8794 -0.9396 -2.2939
  904SOL     OW 2710   0.873   1.234   0.098 -0.1951 -0.1460  0.0526
  904SOL    HW1 2711   0.947   1.308   0.111 -0.0825  3.1953  0.7069
  904SOL    HW2 2712   0.783   1.263   0.139 -1.0256  1.4457 -1.1368
  905SOL     OW 2713   2.220   3.022   1.280  0.5563  0.1665 -0.7692
  905SOL    HW1 2714   2.288   3.055   1.349 -0.8084  0.0021  1.8775
  905SOL    HW2 2715   2.186   2.926   1.305  2.0786 -1.2882  0.2389
  906SOL     OW 2716   2.732   2.341   1.172 -0.1174  0.8959  0.0390
  906SOL    HW1 2717   2.755   2.395   1.089  1.4676  0.3895  0.7994
  906SOL    HW2 2718   2.635   2.319   1.175  2.1174 -1.9584  1.5118
  907SOL     OW 2719   1.299   1.016   0.260 -0.1743  0.5312 -0.1511
  907SOL    HW1 2720   1.248   0.982   0.182 -3.1333 -0.0744  0.2677
  907SOL    HW2 2721   1.398   1.011   0.246 -1.5480 -1.2465 -0.8825
  908SOL     OW 2722   1.899   3.015   0.707 -0.4280 -0.0533  0.2337
  908SOL    HW1 2723   1.925   3.023   0.806  0.9173  0.2153  2.7011
  908SOL    HW2 2724   1.883   0.003   0.663  0.7277 -3.4473 -1.6030
  909SOL     OW 2725   2.033   1.199   1.724  0.3820 -0.4900  0.1153
  909SOL    HW1 2726   2.017   1.207   1.822 -0.5669 -1.6036 -0.7408
  909SOL    HW2 2727   2.133   1.222   1.702  1.6781 -1.6548  0.0264
  910SOL     OW 2728   1.630   0.185   2.074 -0.4389  0.2569 -0.5451
  910SOL    HW1 2729   1.562   0.129   2.128 -0.2173  1.7220  2.4824
  910SOL    HW2 2730   1.645   0.142   1.985 -2.1079  1.0104 -0.5158
  911SOL     OW 2731   2.503   0.597   2.819 -0.4639  0.2358  0.2731
  911SOL    HW1 2732   2.521   0.641   2.729 -2.5095 -0.3750  1.7307
  911SOL    HW2 2733   2.560   0.512   2.833  1.0317 -3.9175 -1.8753
  912SOL     OW 2734   2.907   1.120   1.780  0.2196  0.0808 -0.2139
  912SOL    HW1 2735   2.972   1.189   1.746 -1.9110 -1.5852  0.1446
  912SOL    HW2 2736   2.820   1.123   1.721 -3.3047 -2.4862  1.4263
  913SOL     OW 2737   2.839   2.337   1.420  0.7248 -0.5471  0.4189
  913SOL    HW1 2738   2.911   2.269   1.439 -0.3139 -3.9974 -1.2428
  913SOL    HW2 2739   2.801   2.329   1.325  3.6651 -2.0427 -0.0964
  914SOL     OW 2740   1.619   1.121   1.751 -0.0657  0.6706  0.4148
  914SOL    HW1 2741   1.627   1.019   1.732 -1.0914 -0.9916  1.7197
  914SOL    HW2 2742   1.702   1.177   1.726 -1.3438  0.9864 -1.1284
  915SOL     OW 2743   2.108   0.733   1.218 -0.9096 -0.1254  0.0486
  915SOL    HW1 2744   2.174   0.714   1.294  0.5018  0.9129 -0.7267
  915SOL    HW2 2745   2.146   0.702   1.128  2.8284 -4.3919 -2.4619
  916SOL     OW 2746   2.402   2.208   0.992 -0.1116 -0.0534 -0.0856
  916SOL    HW1 2747   2.327   2.277   1.005  0.3102 -4.1712  0.9807
  916SOL    HW2 2748   2.490   2.243   0.953  0.4151 -1.7752  1.2222
  917SOL     OW 2749   1.938   2.014   2.653  0.3627 -0.2580  0.4078
  917SOL    HW1 2750   1.968   2.076   2.725 -1.5601  0.5176 -2.0112
  917SOL    HW2 2751   1.883   1.937   2.691  0.4205 -1.7908 -3.2070
  918SOL     OW 2752   1.792   2.646   2.285  0.4589  0.5707 -0.5307
  918SOL    HW1 2753   1.853   2.713   2.331  0.2360  0.0691  1.4910
  918SOL    HW2 2754   1.830   2.553   2.278 -2.9928 -1.0547 -0.5080
  919SOL     OW 2755   1.178   2.853   1.198 -0.2653  0.1523  0.3957
  919SOL    HW1 2756   1.234   2.927   1.156 -2.3712  4.2401 -1.1923
  919SOL    HW2 2757   1.214   2.762   1.170  1.6855 -1.2161  0.5551
  920SOL     OW 2758   0.054   0.198   2.410 -0.0338  0.3590  0.3426
  920SOL    HW1 2759   0.087   0.107   2.435  0.5687 -1.0945 -1.6893
  920SOL    HW2 2760   3.072   0.224   2.467 -1.7984  0.7921 -0.3049
  921SOL     OW 2761   2.933   0.825   1.812  0.4927 -0.1768  0.4684
  921SOL    HW1 2762   2.912   0.927   1.809 -0.2917  1.8687  1.7322
  921SOL    HW2 2763   3.033   0.819   1.789 -0.8151  0.3776  2.3367
  922SOL     OW 2764   2.261   2.076   0.360 -0.0839 -0.0616 -0.5593
  922SOL    HW1 2765   2.243   2.157   0.301 -0.1871  2.1667 -1.0998
  922SOL    HW2 2766   2.223   1.996   0.309  1.3027 -0.4460 -0.1777
  923SOL     OW 2767   0.700   1.757   0.348  0.3165  0.0543  0.6407
  923SOL    HW1 2768   0.664   1.706   0.267 -0.4096 -1.8242 -1.2895
  923SOL    HW2 2769   0.684   1.857   0.345  1.4239  1.5973  2.2465
  924SOL     OW 2770   1.104   0.670   3.074 -0.4127  0.3817  0.4979
  924SOL    HW1 2771   1.040   0.622   0.040 -1.7409 -0.5716  0.6336
  924SOL    HW2 2772   1.075   0.659   2.977 -2.8597 -2.0040  2.5991
  925SOL     OW 2773   2.726   0.529   0.811 -0.4247  0.1081  0.2138
  925SOL    HW1 2774   2.744   0.628   0.838  1.2120  2.0003 -0.5805
  925SOL    HW2 2775   2.631   0.493   0.836  0.4319 -1.4630  1.3854
  926SOL     OW 2776   0.559   0.325   1.353  0.2780  0.1210 -0.2962
  926SOL    HW1 2777   0.461   0.330   1.329 -0.8724 -0.3811  0.1493
  926SOL    HW2 2778   0.572   0.325   1.454  2.1448  1.7546  1.5185
  927SOL     OW 2779   0.145   1.534   2.383  0.3612  0.8733 -0.2521
  927SOL    HW1 2780   0.062   1.551   2.440 -0.8318  0.2271  1.4720
  927SOL    HW2 2781   0.143   1.439   2.340  0.0998  1.7947 -0.3694
  928SOL     OW 2782   2.938   0.260   2.559 -0.0821  0.1639  0.4143
  928SOL    HW1 2783   2.923   0.186   2.629  0.8244 -0.1295  0.8403
  928SOL    HW2 2784   2.910   0.350   2.596 -2.4820 -2.4393  0.4200
  929SOL     OW 2785   2.795   0.008   1.190 -0.6141 -0.4875  0.7053
  929SOL    HW1 2786   2.767   3.011   1.204 -1.6586 -0.8160  1.7572
  929SOL    HW2 2787   2.709   0.066   1.211  0.4040 -1.7529  1.2934
  930SOL     OW 2788   1.736   0.877   1.648  0.0083  0.3544  0.8455
  930SOL    HW1 2789   1.677   0.799   1.618  0.3212 -1.1527 -0.2876
  930SOL    HW2 2790   1.780   0.848   1.737  0.0681 -1.7242 -0.0645
  931SOL     OW 2791   2.225   1.052   0.115 -0.1440 -0.1214  0.8433
  931SOL    HW1 2792   2.303   1.120   0.109 -0.3389  1.3160  1.7186
  931SOL    HW2 2793   2.150   1.061   0.041 -2.0378  2.3815  2.8134
  932SOL     OW 2794   2.028   1.361   0.642 -0.3433 -0.2144  0.2486
  932SOL    HW1 2795   2.117   1.367   0.692  0.9543 -0.8576 -0.4447
  932SOL    HW2 2796   1.974   1.277   0.667 -2.9286 -1.6378  0.6476
  933SOL     OW 2797   2.212   1.537   0.904 -0.3881  0.3245 -0.3342
  933SOL    HW1 2798   2.263   1.516   0.818  0.4941 -1.4878 -0.4502
  933SOL    HW2 2799   2.192   1.639   0.910  0.3182 -0.6464  1.1435
  934SOL     OW 2800   2.130   0.669   2.503 -0.5831 -0.4499 -0.5381
  934SOL    HW1 2801   2.200   0.608   2.550  0.3651 -1.8972 -0.5988
  934SOL    HW2 2802   2.037   0.625   2.495  0.1395  0.7354 -0.3492
  935SOL     OW 2803   0.136   0.998   0.587 -0.3927  0.3433  0.2581
  935SOL    HW1 2804   0.126   1.100   0.591  0.7443 -0.2762 -0.8345
  935SOL    HW2 2805   0.060   0.949   0.631 -0.1957 -1.1849  1.3584
  936SOL     OW 2806   0.337   0.169   0.799 -0.2691 -0.0975  0.2814
  936SOL    HW1 2807   0.399   0.097   0.760  0.9757 -0.0391 -3.4261
  936SOL    HW2 2808   0.377   0.227   0.875  1.0466  1.0085  3.0216
  937SOL     OW 2809   0.120   3.059   1.965  0.6927 -0.0217  0.5988
  937SOL    HW1 2810   0.111   2.991   2.041  0.9285  0.4058  2.7412
  937SOL    HW2 2811   0.150   3.012   1.877  1.9945 -1.6899  2.7473
  938SOL     OW 2812   0.203   2.525   3.068 -0.3827  0.2410  0.0189
  938SOL    HW1 2813   0.186   2.495   0.064  1.1985  0.5852  0.8301
  938SOL    HW2 2814   0.152   2.610   3.050 -1.9186  0.7298 -0.3452
  939SOL     OW 2815   0.791   1.899   0.761  0.6032  0.0932 -0.6043
  939SOL    HW1 2816   0.793   1.991   0.799 -1.1405 -0.3661  1.4609
  939SOL    HW2 2817   0.791   1.839   0.838 -0.3970 -1.6426  1.0203
  940SOL     OW 2818   3.073   0.402   2.878 -0.3028  0.0656 -0.0247
  940SOL    HW1 2819   3.028   0.400   2.973 -3.8181  0.4043  2.8803
  940SOL    HW2 2820   0.051   0.338   2.871 -2.4632  4.5597  2.4451
  941SOL     OW 2821   1.607   0.461   2.636 -0.0781  0.4004 -0.3684
  941SOL    HW1 2822   1.552   0.544   2.653 -3.1234  0.1033 -1.1422
  941SOL    HW2 2823   1.704   0.486   2.628 -1.0533 -2.9280 -1.2691
  942SOL     OW 2824   1.129   0.397   1.093 -0.0665 -0.3225 -0.1220
  942SOL    HW1 2825   1.221   0.376   1.129 -0.7770  1.1453 -1.2669
  942SOL    HW2 2826   1.092   0.482   1.141  1.9903  1.3277  0.8548
  943SOL     OW 2827   0.996   0.903   1.702 -0.6399 -1.1010 -0.0948
  943SOL    HW1 2828   0.982   0.858   1.794 -0.0964 -0.1304 -1.2248
  943SOL    HW2 2829   0.912   0.894   1.648 -0.8777  1.4609  1.4818
  944SOL     OW 2830   1.956   0.994   1.547 -0.0412  0.1383  0.1710
  944SOL    HW1 2831   1.864   0.965   1.573  0.9566  2.4688 -1.4231
  944SOL    HW2 2832   1.985   1.069   1.610  1.0626 -1.7827  2.6345
  945SOL     OW 2833   2.706   0.020   0.300 -0.6904 -0.2001 -0.1611
  945SOL    HW1 2834   2.734   0.063   0.390  0.5773  0.1376  1.2765
  945SOL    HW2 2835   2.626   3.062   0.313  0.3890 -1.1507  0.9988
  946SOL     OW 2836   2.858   0.582   1.895  0.3461 -0.3508  0.0378
  946SOL    HW1 2837   2.778   0.564   1.959 -1.2929 -0.0564  1.8372
  946SOL    HW2 2838   2.860   0.683   1.874  2.3922  2.8315  0.7500
  947SOL     OW 2839   1.198   2.975   0.216 -0.2237 -0.1609  0.3102
  947SOL    HW1 2840   1.245   2.959   0.126  2.3019 -1.8485 -1.1712
  947SOL    HW2 2841   1.098   2.954   0.215 -0.7808 -0.5167  0.8934
  948SOL     OW 2842   2.331   1.875   1.355  0.3136 -0.2504  0.0614
  948SOL    HW1 2843   2.418   1.926   1.373  1.3419 -0.2093 -0.7003
  948SOL    HW2 2844   2.350   1.775   1.365 -0.7505  1.2369  0.4492
  949SOL     OW 2845   0.246   1.301   0.034  0.0927  0.7142 -0.2867
  949SOL    HW1 2846   0.157   1.279   0.083 -1.4708 -1.1999  1.8194
  949SOL    HW2 2847   0.234   1.298   3.030  0.9188  0.5740  0.5742
  950SOL     OW 2848   0.522   2.569   0.961 -0.1471 -0.4681 -0.1505
  950SOL    HW1 2849   0.536   2.652   0.898 -0.3362  1.5865  0.9939
  950SOL    HW2 2850   0.470   2.503   0.905  1.8955 -2.1718 -0.0082
  951SOL     OW 2851   0.617   1.137   2.505  0.4444  0.4115 -0.0209
  951SOL    HW1 2852   0.646   1.146   2.604  2.2597  0.5936  0.7413
  951SOL    HW2 2853   0.691   1.112   2.438 -0.3486 -1.4639 -2.2431
  952SOL     OW 2854   0.286   1.027   0.822 -0.0030  0.2777  0.0595
  952SOL    HW1 2855   0.359   1.092   0.800  0.1665 -1.6055 -1.5225
  952SOL    HW2 2856   0.236   0.992   0.737 -0.6300 -1.5709  1.2615
  953SOL     OW 2857   2.752   2.975   2.296 -0.0122  0.4831  0.3157
  953SOL    HW1 2858   2.661   3.015   2.311 -0.1912 -0.4948 -1.9629
  953SOL    HW2 2859   2.815   2.987   2.376 -0.7616  0.8132 -1.4325
  954SOL     OW 2860   1.478   1.058   0.545  0.5620 -0.1225 -0.0020
  954SOL    HW1 2861   1.449   1.079   0.451  2.1395  1.0137  1.1738
  954SOL    HW2 2862   1.533   1.131   0.583  2.1474 -3.0226  2.8406
  955SOL     OW 2863   0.711   2.093   0.046 -0.3052  0.2360 -0.2256
  955SOL    HW1 2864   0.799   2.093   0.102  2.4457  0.1278  1.8210
  955SOL    HW2 2865   0.686   2.007   3.094 -1.4647 -1.7879  1.0411
  956SOL     OW 2866   2.180   0.338   2.162 -0.0572  0.3650 -0.0361
  956SOL    HW1 2867   2.251   0.331   2.232 -0.5083  3.6707  0.7544
  956SOL    HW2 2868   2.209   0.407   2.092  0.5671  0.3736 -1.1308
  957SOL     OW 2869   2.170   2.295   2.282 -0.0865  0.1864 -0.1303
  957SOL    HW1 2870   2.234   2.247   2.222 -1.0186 -1.2800  0.7566
  957SOL    HW2 2871   2.222   2.345   2.351 -0.7426 -0.2904  0.1590
  958SOL     OW 2872   1.670   1.293   1.191  0.3217 -0.1951 -0.7252
  958SOL    HW1 2873   1.752   1.251   1.223 -1.6454 -1.8431  1.9300
  958SOL    HW2 2874   1.598   1.289   1.265 -1.3287  1.5113  3.7573
  959SOL     OW 2875   2.037   2.066   2.276 -0.2354 -0.3923  0.1912
  959SOL    HW1 2876   2.095   2.153   2.282  2.8090 -1.0024  0.4174
  959SOL    HW2 2877   1.949   2.083   2.223 -0.8123  1.4177 -2.6521
  960SOL     OW 2878   0.394   0.991   2.878  0.0818 -0.3176  0.5153
  960SOL    HW1 2879   0.431   0.954   2.790 -0.4366 -1.1851  2.1313
  960SOL    HW2 2880   0.415   0.938   2.961 -0.4404  1.8926 -1.4818
  961SOL     OW 2881   0.099   1.035   2.989  0.7409 -0.0731 -0.3832
  961SOL    HW1 2882   0.171   1.001   2.931 -0.4978  1.6907  2.6722
  961SOL    HW2 2883   0.033   1.102   2.939 -4.0452  4.0896  1.1160
  962SOL     OW 2884   0.394   1.255   2.600  0.8414  0.1574  0.1613
  962SOL    HW1 2885   0.328   1.198   2.552  0.9344  0.6544  2.4437
  962SOL    HW2 2886   0.485   1.215   2.591  1.0456 -4.1277  0.6159
  963SOL     OW 2887   2.906   1.988   0.151 -0.0424  0.2180 -0.1696
  963SOL    HW1 2888   2.933   1.940   0.061 -1.0325  1.1179  1.1199
  963SOL    HW2 2889   2.834   1.929   0.187 -0.0529 -0.2526  0.8079
  964SOL     OW 2890   0.980   2.225   1.633 -0.3127  0.3686  0.0857
  964SOL    HW1 2891   1.070   2.205   1.680  2.2848  1.3843  1.5112
  964SOL    HW2 2892   0.922   2.296   1.684  1.2593 -0.0914  0.2143
  965SOL     OW 2893   1.944   2.052   0.653  0.0808 -0.2026 -0.1679
  965SOL    HW1 2894   1.930   2.125   0.582 -0.5844 -2.6237  1.9312
  965SOL    HW2 2895   2.040   2.046   0.690  1.1614 -0.6047  1.4227
  966SOL     OW 2896   2.823   1.479   0.395 -0.3576 -0.2020 -0.0309
  966SOL    HW1 2897   2.912   1.530   0.374  2.1389  0.6936  0.7723
  966SOL    HW2 2898   2.788   1.448   0.306  1.1052  0.2623  0.5958
  967SOL     OW 2899   1.780   2.881   1.850  0.5434  0.3496  0.6248
  967SOL    HW1 2900   1.785   2.851   1.752 -0.6589  1.7104 -1.8881
  967SOL    HW2 2901   1.748   2.807   1.917 -1.7404  0.7239 -0.1993
  968SOL     OW 2902   1.253   0.365   0.071 -0.4240  0.1438  0.2457
  968SOL    HW1 2903   1.274   0.434   0.138  1.5758 -5.2745 -1.6419
  968SOL    HW2 2904   1.248   0.400   3.074  0.4068 -0.3230 -0.5762
  969SOL     OW 2905   0.149   1.283   2.290  0.2674  0.3963  0.0971
  969SOL    HW1 2906   0.199   1.224   2.359 -1.0591  0.0958 -0.0366
  969SOL    HW2 2907   0.201   1.301   2.202  2.8122 -0.1812 -2.6979
  970SOL     OW 2908   2.003   2.153   1.227  0.0472 -0.0581 -0.2435
  970SOL    HW1 2909   1.932   2.135   1.296  0.9893  2.1682 -0.4825
  970SOL    HW2 2910   1.973   2.221   1.157 -2.6667 -2.7765 -1.1585
  971SOL     OW 2911   2.597   2.333   0.848  0.2585  0.0398 -0.0231
  971SOL    HW1 2912   2.672   2.395   0.877  1.8432  1.5259 -0.3855
  971SOL    HW2 2913   2.618   2.295   0.755 -0.9171  1.8945  0.8280
  972SOL     OW 2914   2.972   1.053   2.602 -0.3052 -0.5915  0.0947
  972SOL    HW1 2915   2.972   1.125   2.530 -2.6791 -0.9326  1.1775
  972SOL    HW2 2916   2.882   1.044   2.643 -1.6445  0.4814 -2.7632
  973SOL     OW 2917   0.721   0.503   0.601  0.0309 -0.2034  0.1305
  973SOL    HW1 2918   0.659   0.559   0.656 -1.2528 -0.0557  0.3800
  973SOL    HW2 2919   0.775   0.440   0.660 -1.0508  0.6972 -1.0647
  974SOL     OW 2920   2.177   0.822   1.644  0.0875  0.4354 -0.0053
  974SOL    HW1 2921   2.109   0.879   1.595  2.4657 -0.2398  1.8533
  974SOL    HW2 2922   2.145   0.728   1.671 -2.1384 -5.4867  3.6015
  975SOL     OW 2923   3.073   2.758   0.153 -0.2879  0.0931  0.3378
  975SOL    HW1 2924   3.020   2.825   0.211  0.5473 -0.5800  2.7527
  975SOL    HW2 2925   0.047   2.713   0.209  1.8885 -1.0786  1.3955
  976SOL     OW 2926   0.416   1.868   1.030 -0.1575  0.2726  0.0612
  976SOL    HW1 2927   0.333   1.822   1.069  0.5647 -1.7826  1.2686
  976SOL    HW2 2928   0.455   1.819   0.949 -1.0608  1.6101  1.8948
  977SOL     OW 2929   1.028   1.906   0.608  0.0475 -0.1761 -0.4039
  977SOL    HW1 2930   1.018   1.863   0.514 -1.5611 -0.9206 -1.7784
  977SOL    HW2 2931   0.956   1.875   0.672  0.9021 -0.8828  1.5165
  978SOL     OW 2932   0.227   0.940   0.110  0.2447 -0.0412  0.3367
  978SOL    HW1 2933   0.311   0.895   0.073  1.2308 -3.1306 -1.2061
  978SOL    HW2 2934   0.167   0.982   0.034 -0.3871  0.9640 -1.1965
  979SOL     OW 2935   2.080   1.613   0.298  0.1777 -0.5941 -0.4215
  979SOL    HW1 2936   2.153   1.543   0.300 -1.2548  0.1814  1.6292
  979SOL    HW2 2937   2.027   1.610   0.383 -0.4427  0.8616  2.6229
  980SOL     OW 2938   0.560   2.293   2.006  0.2059 -0.1868  0.5560
  980SOL    HW1 2939   0.566   2.320   1.909  0.8951  0.7663 -1.1815
  980SOL    HW2 2940   0.623   2.350   2.063  0.1343 -1.4025 -1.4100
  981SOL     OW 2941   2.759   1.078   0.054 -0.2407  0.1522 -0.7700
  981SOL    HW1 2942   2.801   1.018   0.125 -0.7173  0.0867 -0.6283
  981SOL    HW2 2943   2.671   1.037   0.023  1.9612  1.6707  0.7553
  982SOL     OW 2944   0.049   2.457   1.974  0.4592  0.6714 -0.2317
  982SOL    HW1 2945   0.069   2.497   2.066  0.7981 -1.6889  2.1808
  982SOL    HW2 2946   0.101   2.511   1.902 -0.5143 -3.7256 -0.9578
  983SOL     OW 2947   1.796   0.369   1.500 -0.5421 -0.5386 -0.2700
  983SOL    HW1 2948   1.767   0.355   1.408  2.2430 -1.1817  0.5521
  983SOL    HW2 2949   1.847   0.460   1.513  0.7885  0.9195 -1.0504
  984SOL     OW 2950   1.453   3.007   2.456 -0.2687  0.0468 -0.3195
  984SOL    HW1 2951   1.504   2.917   2.441 -1.8551  0.1629  1.4708
  984SOL    HW2 2952   1.361   2.984   2.495  1.4772 -1.5432 -1.4171
  985SOL     OW 2953   1.445   1.515   1.482  0.3312  0.3239  0.0195
  985SOL    HW1 2954   1.493   1.426   1.481 -1.5439 -1.5050  1.6756
  985SOL    HW2 2955   1.400   1.536   1.570  0.9854  1.6006 -1.8584
  986SOL     OW 2956   2.090   2.796   2.253 -0.1047 -0.0653 -0.0280
  986SOL    HW1 2957   2.184   2.801   2.215 -1.3957  0.5023 -1.5353
  986SOL    HW2 2958   2.030   2.868   2.212 -0.6980 -2.0433  1.8717
  987SOL     OW 2959   2.640   1.820   2.717  0.2433  0.6407 -0.4846
  987SOL    HW1 2960   2.689   1.894   2.766  1.2418 -0.7645  0.2960
  987SOL    HW2 2961   2.629   1.838   2.614 -0.6221 -2.3659 -3.7204
  988SOL     OW 2962   2.697   0.726   1.675 -0.5823 -0.1696 -0.3429
  988SOL    HW1 2963   2.702   0.750   1.577 -1.7326 -3.4080  2.6240
  988SOL    HW2 2964   2.786   0.740   1.723 -0.4028  1.8745 -0.4775
  989SOL     OW 2965   1.792   1.323   1.702 -0.0732  0.1956 -0.2081
  989SOL    HW1 2966   1.819   1.419   1.715  0.0990 -2.1040  1.1631
  989SOL    HW2 2967   1.880   1.270   1.705 -1.2437 -1.2112 -3.2451
  990SOL     OW 2968   3.007   0.827   3.013  0.1743  0.2247  0.1530
  990SOL    HW1 2969   3.017   0.735   3.054 -2.4001  0.2514 -1.4936
  990SOL    HW2 2970   3.090   0.885   3.028 -0.1982  1.3035  4.3778
  991SOL     OW 2971   0.262   1.827   2.903 -0.4130 -0.0902 -0.0831
  991SOL    HW1 2972   0.185   1.877   2.865 -2.9695 -3.6987  2.8986
  991SOL    HW2 2973   0.266   1.837   3.006  1.0364  1.5968  1.1107
  992SOL     OW 2974   2.537   2.021   1.860 -0.0314 -0.1737  0.0961
  992SOL    HW1 2975   2.452   1.968   1.832 -0.3214 -1.7565  1.8668
  992SOL    HW2 2976   2.603   1.970   1.920  0.9575  0.5912 -0.3052
  993SOL     OW 2977   0.603   0.083   0.943  0.0233  0.2915 -0.4796
  993SOL    HW1 2978   0.539   0.152   0.981  1.8444  0.5494  0.9045
  993SOL    HW2 2979   0.687   0.080   1.005  0.0839 -1.3691 -0.4409
  994SOL     OW 2980   2.684   2.161   1.679  0.2313 -0.3986  0.0797
  994SOL    HW1 2981   2.776   2.125   1.685 -1.5448 -0.3527  0.9960
  994SOL    HW2 2982   2.620   2.112   1.741 -1.3666 -0.6759 -0.3836
  995SOL     OW 2983   2.143   1.904   2.473  0.3946  0.5473 -0.2011
  995SOL    HW1 2984   2.063   1.925   2.533  0.1279  1.0533 -0.8348
  995SOL    HW2 2985   2.122   1.956   2.387 -2.4794  0.7270 -2.9438
  996SOL     OW 2986   1.974   1.928   0.041  0.1548 -0.2984 -0.1160
  996SOL    HW1 2987   1.881   1.944   0.083 -1.8507  0.0630 -1.3490
  996SOL    HW2 2988   2.036   1.906   0.121 -2.0012  0.5918  2.5398
  997SOL     OW 2989   1.151   1.423   1.688 -0.3386 -0.4682  0.7466
  997SOL    HW1 2990   1.088   1.452   1.763 -2.3761  2.5713  1.4219
  997SOL    HW2 2991   1.233   1.378   1.726 -0.5808 -2.2003  1.2554
  998SOL     OW 2992   2.839   2.068   0.729 -0.2464 -0.2909  0.0982
  998SOL    HW1 2993   2.758   2.121   0.694 -0.1113  0.6371 -0.7791
  998SOL    HW2 2994   2.809   2.018   0.813 -2.2449  2.9031  0.0283
  999SOL     OW 2995   0.180   2.624   0.336  0.0897 -0.3595 -0.3872
  999SOL    HW1 2996   0.247   2.557   0.371  1.2409 -0.4165  2.1645
  999SOL    HW2 2997   0.128   2.665   0.413 -1.5892 -0.0679 -0.4663
 1000SOL     OW 2998   1.203   0.146   2.918 -0.7466 -0.3185  0.0131
 1000SOL    HW1 2999   1.161   0.119   3.003  1.1997  1.9904 -2.6878
 1000SOL    HW2 3000   1.216   0.245   2.908  3.4624 -0.3756  1.2607
   3.09836   3.09836   3.09836
