1000 SPC/Fw water molecules t= 392.00000 step= 392000
 3000
    1SOL     OW    1   2.704   3.017   1.789 -0.7329 -0.2070 -0.2451
    1SOL    HW1    2   2.655   0.006   1.807 -0.5842 -2.6884 -0.9875
    1SOL    HW2    3   2.649   2.931   1.800 -0.4010  0.5894 -0.2156
    2SOL     OW    4   2.714   2.468   0.114 -0.2599  0.0042 -0.1393
    2SOL    HW1    5   2.807   2.476   0.070  0.0365 -3.6207  0.2121
    2SOL    HW2    6   2.677   2.560   0.136 -0.7206  0.2254  0.4701
    3SOL     OW    7   1.412   2.854   0.263  0.2872 -0.1786  0.2963
    3SOL    HW1    8   1.494   2.894   0.300 -0.9462  1.5278 -1.2890
    3SOL    HW2    9   1.358   2.937   0.232 -2.6294  0.3943 -0.0574
    4SOL     OW   10   1.041   2.804   2.460 -0.2470  0.4316 -0.3921
    4SOL    HW1   11   1.143   2.813   2.461 -1.4505 -2.2675  0.1792
    4SOL    HW2   12   1.002   2.855   2.386  2.2036 -0.1263  2.8284
    5SOL     OW   13   2.237   3.046   1.352 -0.1525  0.2545  0.3955
    5SOL    HW1   14   2.262   3.030   1.255  1.5857 -0.9541  1.2604
    5SOL    HW2   15   2.206   0.047   1.374  0.8105  4.1958  2.1817
    6SOL     OW   16   2.130   2.113   0.590 -0.3887 -0.2887  0.2109
    6SOL    HW1   17   2.081   2.040   0.543  1.2889 -0.9139  0.2878
    6SOL    HW2   18   2.116   2.198   0.532 -0.7580  0.2906 -2.7214
    7SOL     OW   19   1.897   1.048   0.864  0.1515 -0.1906  1.0287
    7SOL    HW1   20   1.879   1.105   0.947  0.7504 -0.6647  1.1482
    7SOL    HW2   21   1.842   0.963   0.870 -1.5457  2.4518  1.4642
    8SOL     OW   22   0.714   1.313   0.958  0.2840  0.2575  0.4982
    8SOL    HW1   23   0.750   1.367   1.031  0.9451 -0.6747 -0.6616
    8SOL    HW2   24   0.739   1.354   0.866  0.5990 -0.5821 -0.9276
    9SOL     OW   25   0.265   2.823   1.759 -0.1729  0.3261 -0.6535
    9SOL    HW1   26   0.270   2.843   1.659 -0.9847 -0.4286 -1.3198
    9SOL    HW2   27   0.290   2.722   1.768  1.2625 -0.4584  0.8535
   10SOL     OW   28   1.093   2.417   0.629  0.0719 -0.3529 -0.2331
   10SOL    HW1   29   1.069   2.339   0.693  0.8238  0.6127  2.2728
   10SOL    HW2   30   1.186   2.396   0.586  2.0934 -0.2211  0.1134
   11SOL     OW   31   1.703   1.887   1.163 -0.2281 -0.3343 -0.2016
   11SOL    HW1   32   1.705   1.947   1.083 -0.2805  1.3972 -0.8144
   11SOL    HW2   33   1.700   1.933   1.253 -0.7851  0.1699 -0.3910
   12SOL     OW   34   2.924   0.593   2.206 -0.1499  0.0585 -0.5442
   12SOL    HW1   35   2.906   0.662   2.136  0.3752 -1.5956 -1.3904
   12SOL    HW2   36   2.962   0.505   2.168  0.0743  0.4793 -0.6763
   13SOL     OW   37   2.765   3.061   0.367  0.0819 -0.1023  0.3701
   13SOL    HW1   38   2.795   3.092   0.454 -0.5210 -0.2262 -2.2964
   13SOL    HW2   39   2.679   0.006   0.333 -2.7453  0.0761 -0.6963
   14SOL     OW   40   1.891   1.505   0.005 -0.2874  0.5662  0.1005
   14SOL    HW1   41   1.842   1.414   0.003 -1.5968 -1.1862 -0.8148
   14SOL    HW2   42   1.901   1.542   3.010  0.5156  0.6298  2.0993
   15SOL     OW   43   2.633   2.279   1.704 -0.3446  0.6160  0.1621
   15SOL    HW1   44   2.584   2.352   1.757  0.1858  0.8298  0.0159
   15SOL    HW2   45   2.668   2.203   1.759 -2.8927  0.9959 -0.8117
   16SOL     OW   46   2.712   2.901   0.919  0.2909 -0.2537 -0.1157
   16SOL    HW1   47   2.655   2.834   0.971  0.6219 -2.3859 -0.7142
   16SOL    HW2   48   2.684   2.899   0.819  0.9126 -0.8769 -1.6208
   17SOL     OW   49   1.290   0.358   1.409  0.1548  0.6522 -0.0367
   17SOL    HW1   50   1.280   0.265   1.367  1.1185  0.9026 -0.2585
   17SOL    HW2   51   1.263   0.355   1.508  0.2207  1.0371 -2.9242
   18SOL     OW   52   1.476   0.262   0.984 -0.3758  0.4536  0.4085
   18SOL    HW1   53   1.552   0.268   1.050 -4.0580  0.3741 -2.5659
   18SOL    HW2   54   1.510   0.233   0.890 -0.1113  0.0475  0.0300
   19SOL     OW   55   2.074   1.460   0.385 -0.0191 -0.6591  0.1529
   19SOL    HW1   56   2.073   1.523   0.303 -0.9536 -0.0047 -1.2399
   19SOL    HW2   57   2.127   1.500   0.463 -0.7717 -1.7018 -0.6247
   20SOL     OW   58   2.049   1.512   2.309  0.2196 -0.2314  0.5768
   20SOL    HW1   59   2.150   1.509   2.308 -0.0959  3.5564 -0.7777
   20SOL    HW2   60   2.020   1.415   2.303 -0.7170 -0.6711  1.0206
   21SOL     OW   61   1.401   3.060   0.596  0.4966  0.2387 -0.4314
   21SOL    HW1   62   1.384   3.090   0.502  1.4973 -2.3498  0.9538
   21SOL    HW2   63   1.326   2.993   0.626  1.3779 -1.0718  0.8744
   22SOL     OW   64   2.824   0.873   0.903  0.4807 -0.4312 -0.4036
   22SOL    HW1   65   2.770   0.820   0.971 -0.9533  0.4577 -0.7800
   22SOL    HW2   66   2.784   0.864   0.809 -0.1401  0.5751  1.4119
   23SOL     OW   67   0.435   0.170   1.738  0.1857 -0.4791 -0.3244
   23SOL    HW1   68   0.479   0.249   1.790  0.9292  0.0633  1.9607
   23SOL    HW2   69   0.416   0.094   1.805  2.1720  1.3485 -1.0601
   24SOL     OW   70   2.494   2.596   0.713  0.3656  0.2720  0.3587
   24SOL    HW1   71   2.524   2.680   0.667  1.3030  0.2326 -0.5416
   24SOL    HW2   72   2.440   2.622   0.795  1.7045 -0.3260  1.4155
   25SOL     OW   73   2.039   0.013   2.628 -0.0107 -0.1920 -0.1630
   25SOL    HW1   74   2.114   3.039   2.616 -0.9536 -0.7745  0.4209
   25SOL    HW2   75   2.048   0.088   2.555 -0.1941  2.2048 -4.0060
   26SOL     OW   76   1.538   2.535   3.075 -1.0057  0.1340 -0.1373
   26SOL    HW1   77   1.527   2.634   3.056  0.5408  0.1651 -0.1456
   26SOL    HW2   78   1.481   2.502   0.057 -0.2224  0.7646  2.2944
   27SOL     OW   79   1.294   0.612   1.035  0.5617 -0.1715 -1.0997
   27SOL    HW1   80   1.207   0.600   0.987 -0.0388 -0.1119  1.4909
   27SOL    HW2   81   1.272   0.618   1.139  2.1011  1.4981  3.6241
   28SOL     OW   82   1.103   1.518   0.401 -0.1031  0.0120  0.1654
   28SOL    HW1   83   1.132   1.592   0.460 -0.8979 -0.0557  1.0749
   28SOL    HW2   84   1.098   1.434   0.460 -1.3365 -1.6244  0.1184
   29SOL     OW   85   2.721   0.411   1.711 -0.4325 -0.2614 -0.2307
   29SOL    HW1   86   2.722   0.440   1.809  0.9608 -0.7168  0.4152
   29SOL    HW2   87   2.623   0.398   1.694  1.0460  0.3161  3.6938
   30SOL     OW   88   1.301   2.656   1.407  0.0106 -0.4967 -0.3146
   30SOL    HW1   89   1.206   2.692   1.422 -1.5456 -1.1189 -2.3044
   30SOL    HW2   90   1.374   2.695   1.475  1.6368  0.8183  0.1058
   31SOL     OW   91   1.739   2.948   1.593 -1.1632 -0.1213  0.0331
   31SOL    HW1   92   1.781   2.917   1.682 -1.6592  1.5417 -0.3329
   31SOL    HW2   93   1.743   2.871   1.522 -1.7970 -0.1004 -2.0658
   32SOL     OW   94   1.415   1.846   2.767 -0.1261  0.6455  0.7520
   32SOL    HW1   95   1.455   1.778   2.832  2.0509  3.5815 -0.7305
   32SOL    HW2   96   1.464   1.851   2.681 -2.2504  0.5243 -0.6924
   33SOL     OW   97   2.741   0.823   2.561 -0.4086  0.5535  0.7719
   33SOL    HW1   98   2.700   0.839   2.465 -3.1058 -1.3191 -2.4960
   33SOL    HW2   99   2.681   0.862   2.633  2.0564 -1.3237 -1.5111
   34SOL     OW  100   1.996   0.484   0.451  0.3002  0.5483  0.2936
   34SOL    HW1  101   1.903   0.443   0.465  1.6626 -0.3217  0.6163
   34SOL    HW2  102   2.028   0.474   0.354  1.4967  0.6989 -1.1521
   35SOL     OW  103   2.931   2.149   2.216 -0.3382 -0.4871  0.1263
   35SOL    HW1  104   2.892   2.064   2.170  0.3882 -1.6993  3.4192
   35SOL    HW2  105   2.910   2.147   2.314  0.8013  2.0278 -2.1552
   36SOL     OW  106   2.293   1.953   2.948 -0.0680 -1.1447  0.0462
   36SOL    HW1  107   2.301   1.904   2.859  2.1732 -1.7503  1.7621
   36SOL    HW2  108   2.350   2.036   2.931 -0.5147 -2.6135  0.9280
   37SOL     OW  109   1.816   0.338   1.364  0.4646  0.0046  0.5643
   37SOL    HW1  110   1.901   0.389   1.333  1.1231  3.4766 -1.0953
   37SOL    HW2  111   1.851   0.258   1.419  0.1862 -2.6195 -0.8430
   38SOL     OW  112   0.327   0.335   2.672 -0.0799  0.0914 -0.1865
   38SOL    HW1  113   0.363   0.429   2.704 -0.1515  0.4642  0.2880
   38SOL    HW2  114   0.330   0.330   2.572  0.1405  1.8225  2.0677
   39SOL     OW  115   1.809   1.245   1.741 -0.3700 -0.2899  0.3262
   39SOL    HW1  116   1.882   1.314   1.758  0.7043  1.2331 -0.0444
   39SOL    HW2  117   1.836   1.161   1.782  1.2887  1.4382  0.7790
   40SOL     OW  118   1.172   1.717   0.872 -0.1830 -0.0582 -0.2541
   40SOL    HW1  119   1.150   1.706   0.972 -0.6970 -0.3212 -1.3804
   40SOL    HW2  120   1.271   1.717   0.864 -0.6788 -1.9913 -0.4022
   41SOL     OW  121   1.951   1.731   0.932 -0.2099  0.2481 -0.1607
   41SOL    HW1  122   1.966   1.708   1.030 -0.6419  0.2592 -2.2842
   41SOL    HW2  123   1.978   1.653   0.870  0.0333  1.5261 -0.0235
   42SOL     OW  124   2.853   0.623   1.157 -0.0839 -0.5044  0.3494
   42SOL    HW1  125   2.941   0.570   1.145  0.1648 -0.6388 -0.9413
   42SOL    HW2  126   2.840   0.646   1.255 -1.4740  0.1945  1.8749
   43SOL     OW  127   0.440   1.865   2.893 -0.0184  0.4660 -0.2109
   43SOL    HW1  128   0.431   1.909   2.985  0.4322 -0.9238  3.0724
   43SOL    HW2  129   0.455   1.764   2.894 -1.9669  1.6039 -1.6130
   44SOL     OW  130   1.455   2.424   1.391  0.3239 -0.5179  0.6956
   44SOL    HW1  131   1.376   2.488   1.397  1.6369 -0.5701  1.7474
   44SOL    HW2  132   1.517   2.461   1.316 -0.8636  0.8387  0.9103
   45SOL     OW  133   0.982   2.955   2.675 -0.0164 -0.4938 -0.1009
   45SOL    HW1  134   1.003   2.892   2.599  0.4068 -0.5309  1.5153
   45SOL    HW2  135   0.926   3.035   2.645 -2.8554  2.2341  0.9051
   46SOL     OW  136   0.708   2.402   2.185  0.0673 -0.1384 -0.5444
   46SOL    HW1  137   0.765   2.408   2.099  1.4712  0.4987 -1.1453
   46SOL    HW2  138   0.715   2.488   2.241 -2.1708  2.6588  1.0773
   47SOL     OW  139   0.796   2.206   1.091 -0.4130 -0.5980 -0.1648
   47SOL    HW1  140   0.881   2.255   1.129  1.7709  1.9574 -0.3185
   47SOL    HW2  141   0.802   2.110   1.101  0.5990  0.0937  0.0215
   48SOL     OW  142   0.829   2.293   1.380 -0.3532 -0.0611  0.0936
   48SOL    HW1  143   0.741   2.339   1.379  0.1799 -0.4918  0.2185
   48SOL    HW2  144   0.821   2.198   1.397 -0.7628  0.4270  0.0896
   49SOL     OW  145   2.506   0.103   0.262  0.7008 -0.1041 -0.1673
   49SOL    HW1  146   2.466   0.157   0.338  1.3666  2.3075 -3.0820
   49SOL    HW2  147   2.579   0.154   0.217 -0.8724 -1.9358 -1.3894
   50SOL     OW  148   1.756   0.420   0.098 -0.2797 -0.1517  0.0209
   50SOL    HW1  149   1.833   0.473   0.057 -1.1936  0.4137  1.9784
   50SOL    HW2  150   1.753   0.444   0.195  0.9743  0.6925  2.0541
   51SOL     OW  151   1.979   0.758   1.108  0.3453  0.1998 -0.3222
   51SOL    HW1  152   2.046   0.758   1.027  1.6877 -1.3109 -3.5251
   51SOL    HW2  153   2.017   0.739   1.201 -3.2294 -0.9557 -1.8474
   52SOL     OW  154   0.692   1.717   0.368 -0.7147  0.1755 -0.3718
   52SOL    HW1  155   0.733   1.738   0.280 -3.4236 -1.7096  1.4778
   52SOL    HW2  156   0.645   1.632   0.361  0.3627  1.5736  0.5701
   53SOL     OW  157   0.268   1.510   3.017 -0.6223  0.0991 -0.0672
   53SOL    HW1  158   0.297   1.448   0.003  1.2123 -0.2580  3.4009
   53SOL    HW2  159   0.346   1.527   2.953  0.6543  0.4318  0.7496
   54SOL     OW  160   2.425   1.485   2.213  0.4140  0.4458 -0.3150
   54SOL    HW1  161   2.474   1.564   2.250 -0.3424 -1.5153  0.3507
   54SOL    HW2  162   2.466   1.450   2.123  1.0847  0.3645 -3.9862
   55SOL     OW  163   2.572   1.909   0.744 -0.1308 -0.1578  0.1172
   55SOL    HW1  164   2.518   1.984   0.706  0.1350  1.1863  0.1783
   55SOL    HW2  165   2.524   1.856   0.816  3.4492  2.6320  2.3944
   56SOL     OW  166   1.865   3.070   1.230  0.1263  0.4705  0.7904
   56SOL    HW1  167   1.819   3.086   1.141  1.1352 -2.0521 -1.2497
   56SOL    HW2  168   1.856   0.044   1.301  2.3743 -1.0478 -2.5328
   57SOL     OW  169   1.490   1.327   0.227 -0.3544 -0.0845 -0.0694
   57SOL    HW1  170   1.510   1.294   0.131 -1.2171 -0.1377  2.3494
   57SOL    HW2  171   1.544   1.269   0.294  3.9369 -3.8417  0.8801
   58SOL     OW  172   2.214   0.208   1.445  0.3008  0.2069  0.2990
   58SOL    HW1  173   2.261   0.298   1.458 -1.3128 -0.8236 -0.6355
   58SOL    HW2  174   2.164   0.177   1.528 -1.6475  0.4602 -2.5738
   59SOL     OW  175   1.433   2.740   2.741 -0.0801 -0.5799  0.0856
   59SOL    HW1  176   1.493   2.794   2.679  0.0624  0.0133 -1.6913
   59SOL    HW2  177   1.427   2.645   2.706 -3.7864  2.3587  0.8656
   60SOL     OW  178   0.031   2.537   2.699 -0.8728 -0.0901  0.0736
   60SOL    HW1  179   0.028   2.494   2.792 -0.2915  0.6940  3.5499
   60SOL    HW2  180   3.035   2.556   2.667  2.0726 -2.6955  0.0166
   61SOL     OW  181   0.615   2.397   1.093  0.1938  0.1017 -0.3139
   61SOL    HW1  182   0.684   2.321   1.082  1.0415 -2.6987 -0.2589
   61SOL    HW2  183   0.562   2.397   1.006  0.9279  1.1784 -0.2820
   62SOL     OW  184   1.659   1.900   2.233  0.0098 -0.0554  0.5086
   62SOL    HW1  185   1.647   1.849   2.143 -0.3828 -1.4044 -4.7214
   62SOL    HW2  186   1.722   1.845   2.287 -1.1077  2.4369 -3.4160
   63SOL     OW  187   1.758   1.733   0.075 -0.1628  0.2080  0.7040
   63SOL    HW1  188   1.658   1.746   0.055  1.0778 -1.4737  0.6508
   63SOL    HW2  189   1.793   1.636   0.057  1.5270 -2.3975 -1.1002
   64SOL     OW  190   1.941   1.103   0.124  0.0796  0.2345 -0.1261
   64SOL    HW1  191   1.894   1.152   0.050  0.2113  0.1846  0.9653
   64SOL    HW2  192   1.887   1.104   0.212  0.3544 -2.5358 -0.1785
   65SOL     OW  193   2.270   2.105   1.914  0.0970  0.0132  0.1679
   65SOL    HW1  194   2.216   2.194   1.919 -1.0456 -3.0301  0.5371
   65SOL    HW2  195   2.203   2.028   1.920  1.8121 -1.2794 -0.2939
   66SOL     OW  196   0.360   0.858   1.447 -0.3991 -0.0109 -0.3336
   66SOL    HW1  197   0.386   0.815   1.358  0.4972 -1.1638 -2.4233
   66SOL    HW2  198   0.424   0.931   1.478  1.2691  0.3672  0.9163
   67SOL     OW  199   2.330   3.049   0.099 -0.0104 -0.3881 -0.0425
   67SOL    HW1  200   2.272   2.974   0.139 -1.9266 -1.7166  0.7531
   67SOL    HW2  201   2.401   3.080   0.165  1.1810 -0.4689 -0.2271
   68SOL     OW  202   1.772   2.094   0.969  0.2567 -0.0939  0.1162
   68SOL    HW1  203   1.779   2.092   0.866  0.5794  4.0135 -2.5157
   68SOL    HW2  204   1.707   2.171   0.992  0.1840 -0.8784 -1.5538
   69SOL     OW  205   2.874   2.191   2.993  0.3924  0.5867  0.0014
   69SOL    HW1  206   2.815   2.148   3.066 -0.1209  0.5386  2.4271
   69SOL    HW2  207   2.943   2.252   3.039 -0.5564 -0.5169  2.5170
   70SOL     OW  208   2.891   1.040   2.227  0.0783 -0.1392  0.2424
   70SOL    HW1  209   2.908   1.055   2.327  3.1141 -0.3661 -0.5972
   70SOL    HW2  210   2.936   1.116   2.175  1.2121  0.0703  2.2015
   71SOL     OW  211   0.930   0.997   2.515  0.7504 -0.1312  0.1817
   71SOL    HW1  212   0.835   1.029   2.502 -0.2299 -1.1588 -2.3982
   71SOL    HW2  213   0.936   0.902   2.484 -0.5961 -0.4474  0.1471
   72SOL     OW  214   2.730   1.544   2.376  0.7779  0.4645 -0.1333
   72SOL    HW1  215   2.669   1.620   2.355  2.3748 -2.1116 -1.3319
   72SOL    HW2  216   2.795   1.540   2.303 -1.7929  0.2674  1.0170
   73SOL     OW  217   1.040   1.911   3.071 -0.1986  0.1416  0.1558
   73SOL    HW1  218   1.096   1.996   3.067 -0.8777  1.0083 -1.1361
   73SOL    HW2  219   0.997   1.898   0.067 -0.8344 -0.6256  0.1960
   74SOL     OW  220   1.970   2.825   2.402  0.5851  0.1927 -0.1985
   74SOL    HW1  221   2.002   2.732   2.427 -0.7794  2.2813 -2.8239
   74SOL    HW2  222   1.971   2.891   2.480  1.3863  1.6845  1.3381
   75SOL     OW  223   1.570   2.328   0.689  0.0043  0.1207  0.3162
   75SOL    HW1  224   1.533   2.342   0.783 -0.3293  2.0078 -3.7418
   75SOL    HW2  225   1.620   2.240   0.673  3.4332 -2.0512  0.6977
   76SOL     OW  226   2.847   1.794   2.591  0.1298 -0.2430 -0.1608
   76SOL    HW1  227   2.750   1.774   2.623 -0.9618  3.0687 -1.6741
   76SOL    HW2  228   2.910   1.796   2.676  1.8917 -1.6660  0.4820
   77SOL     OW  229   3.034   2.378   1.783 -0.3838  0.3312 -0.3469
   77SOL    HW1  230   3.006   2.476   1.814  1.8330  1.7576  4.3575
   77SOL    HW2  231   2.975   2.352   1.704  1.9618  0.6565 -0.4475
   78SOL     OW  232   2.356   1.042   0.266  0.0389 -0.3111 -0.1730
   78SOL    HW1  233   2.316   0.951   0.288  0.0080 -1.5124  0.6774
   78SOL    HW2  234   2.287   1.113   0.271  1.8699  0.3371 -1.5090
   79SOL     OW  235   0.160   1.524   2.629  0.3511  0.0085  0.3923
   79SOL    HW1  236   0.181   1.590   2.556  1.0332  0.7497 -0.1876
   79SOL    HW2  237   0.229   1.454   2.640 -2.8647  1.8001 -0.0804
   80SOL     OW  238   1.807   1.582   1.890 -0.0874 -0.6677 -0.0739
   80SOL    HW1  239   1.780   1.555   1.984 -0.0812  0.4377 -0.8524
   80SOL    HW2  240   1.908   1.609   1.885  0.3404  0.6366  0.4073
   81SOL     OW  241   1.908   1.268   2.279  0.0406  0.6899  0.2123
   81SOL    HW1  242   1.977   1.193   2.276 -1.0646  1.9413 -0.8469
   81SOL    HW2  243   1.823   1.234   2.227 -0.8657 -0.0637  0.9049
   82SOL     OW  244   1.439   1.549   1.906 -0.3651  0.3108 -0.2511
   82SOL    HW1  245   1.351   1.550   1.853 -0.5057 -1.1583 -1.0795
   82SOL    HW2  246   1.469   1.457   1.915 -3.9045  0.8004 -3.4819
   83SOL     OW  247   0.015   0.253   0.280  0.1142  0.0584  0.2308
   83SOL    HW1  248   3.092   0.155   0.276 -1.4874  0.8748 -0.1362
   83SOL    HW2  249   3.028   0.309   0.296 -0.3123  1.2650  2.3141
   84SOL     OW  250   0.175   0.466   0.292 -0.0439  0.8974 -0.5024
   84SOL    HW1  251   0.112   0.385   0.259 -0.1711 -1.4470 -0.2879
   84SOL    HW2  252   0.178   0.541   0.222 -0.6288  1.2522  0.2095
   85SOL     OW  253   2.174   2.091   1.222  0.0992 -0.0837  0.5406
   85SOL    HW1  254   2.073   2.088   1.225  2.1184 -2.6482  1.0985
   85SOL    HW2  255   2.221   2.102   1.312 -1.4328  1.9045 -0.2331
   86SOL     OW  256   0.450   0.355   1.304 -0.0882  0.2792  0.1339
   86SOL    HW1  257   0.452   0.415   1.219 -0.9054  0.7362 -0.8679
   86SOL    HW2  258   0.543   0.317   1.327 -2.1941 -3.0295 -1.8404
   87SOL     OW  259   0.033   2.090   2.037  0.3770 -0.2131 -0.0121
   87SOL    HW1  260   3.067   2.126   2.115 -0.2417  1.0190  0.1912
   87SOL    HW2  261   0.117   2.146   2.022  1.5170 -2.8651 -0.7220
   88SOL     OW  262   0.138   2.141   2.993  0.5762  0.2288 -0.4419
   88SOL    HW1  263   0.215   2.197   2.965 -0.2469  1.8203  1.8651
   88SOL    HW2  264   0.083   2.111   2.912  1.7829  1.5427 -1.2001
   89SOL     OW  265   1.085   0.843   0.341  0.5409 -0.2170 -0.5997
   89SOL    HW1  266   1.061   0.745   0.326 -0.1281 -0.4304  0.0625
   89SOL    HW2  267   1.048   0.904   0.272 -1.0093 -3.8820  2.9063
   90SOL     OW  268   0.058   1.355   2.340  0.2007 -0.4982  0.1576
   90SOL    HW1  269   3.086   1.412   2.289 -0.0750 -1.6098 -0.4368
   90SOL    HW2  270   0.045   1.376   2.433 -1.8882 -0.9700 -3.2329
   91SOL     OW  271   1.693   0.279   1.135 -0.3485  0.4543 -0.1136
   91SOL    HW1  272   1.729   0.317   1.222 -3.5162  0.7251  0.9902
   91SOL    HW2  273   1.763   0.241   1.068 -0.1012  2.0743  0.3363
   92SOL     OW  274   2.342   1.151   1.319 -0.4146 -0.1052  0.0838
   92SOL    HW1  275   2.262   1.194   1.270 -0.0040  0.4786 -1.8917
   92SOL    HW2  276   2.407   1.118   1.245  0.8046 -2.0025  0.4642
   93SOL     OW  277   0.246   1.255   2.881 -0.2647  0.0989  0.0671
   93SOL    HW1  278   0.197   1.328   2.929 -0.1188 -2.2776  0.7219
   93SOL    HW2  279   0.315   1.291   2.814  0.8641  1.5870  2.0923
   94SOL     OW  280   1.533   2.511   2.200 -0.1278 -0.0796 -0.3825
   94SOL    HW1  281   1.506   2.418   2.221 -1.9922 -0.0545 -2.8498
   94SOL    HW2  282   1.600   2.515   2.123  0.9932 -4.1093  1.0215
   95SOL     OW  283   0.473   0.510   1.074 -0.2078  0.9895 -0.2280
   95SOL    HW1  284   0.572   0.519   1.061 -3.1981 -0.5730 -0.7181
   95SOL    HW2  285   0.418   0.496   0.986 -2.4761 -2.0977 -0.3018
   96SOL     OW  286   2.653   2.975   1.301 -0.1307 -0.1391  0.7567
   96SOL    HW1  287   2.673   2.875   1.286  1.1042  1.6432  3.2871
   96SOL    HW2  288   2.736   3.017   1.343  1.3169  1.4860  2.6545
   97SOL     OW  289   2.481   0.683   1.611 -0.0381  0.1107 -0.0091
   97SOL    HW1  290   2.421   0.763   1.594  2.0622  1.0393  1.1148
   97SOL    HW2  291   2.486   0.667   1.714 -1.9441 -2.2562  0.8278
   98SOL     OW  292   2.281   2.738   1.287  0.1718 -0.4980  0.0485
   98SOL    HW1  293   2.336   2.728   1.369  0.0293 -1.0971 -2.5993
   98SOL    HW2  294   2.336   2.731   1.198  2.4841  1.4555  1.5075
   99SOL     OW  295   0.703   2.931   1.432  0.1662 -0.4749  0.7123
   99SOL    HW1  296   0.678   3.016   1.482 -0.4551  0.2452  0.5157
   99SOL    HW2  297   0.706   2.949   1.331  1.1280  0.7654  1.5475
  100SOL     OW  298   2.095   0.247   2.232 -0.1899 -0.4904  0.2040
  100SOL    HW1  299   2.128   0.341   2.207  2.2532  0.5147  1.3076
  100SOL    HW2  300   2.118   0.224   2.326  2.7927 -0.2576 -1.7265
  101SOL     OW  301   2.942   0.016   2.382 -0.2581 -0.8162  0.0322
  101SOL    HW1  302   2.957   3.018   2.417 -0.8571 -1.1038  0.8312
  101SOL    HW2  303   3.016   0.078   2.417 -3.0168 -0.9500 -0.8036
  102SOL     OW  304   0.599   0.533   1.544  0.3294 -0.4038  0.2842
  102SOL    HW1  305   0.566   0.438   1.550  1.6107  2.2647 -0.0344
  102SOL    HW2  306   0.541   0.598   1.592  2.3067 -0.0053  0.2596
  103SOL     OW  307   0.925   0.732   2.723  0.1858  0.4210  0.4241
  103SOL    HW1  308   0.992   0.669   2.766 -0.0133 -1.4741  1.5099
  103SOL    HW2  309   0.917   0.822   2.771 -0.3998 -0.3387 -0.9107
  104SOL     OW  310   0.196   0.548   2.184  0.1591 -0.2037 -0.0180
  104SOL    HW1  311   0.131   0.556   2.264  0.3988  0.5586 -0.9234
  104SOL    HW2  312   0.152   0.572   2.093  0.0862  2.0909 -2.5769
  105SOL     OW  313   2.637   1.988   1.340  0.1563  0.1540  0.2853
  105SOL    HW1  314   2.597   2.063   1.397  0.7349  2.5480  1.4856
  105SOL    HW2  315   2.582   1.985   1.252  0.7621 -0.7054  1.0229
  106SOL     OW  316   1.709   0.168   0.305  0.4968  0.0508  0.4284
  106SOL    HW1  317   1.727   0.237   0.377 -1.7100  1.1115 -1.2828
  106SOL    HW2  318   1.640   0.199   0.238 -1.9681  1.5050  1.7885
  107SOL     OW  319   2.064   2.243   0.828 -0.5831  0.4605 -0.7895
  107SOL    HW1  320   2.022   2.333   0.809 -1.2899 -1.9723 -0.0368
  107SOL    HW2  321   2.091   2.193   0.744 -2.5818  1.8380 -1.1524
  108SOL     OW  322   0.127   2.370   1.290  0.0920 -0.2913  0.4378
  108SOL    HW1  323   0.056   2.321   1.237 -0.9867  0.9526  0.3415
  108SOL    HW2  324   0.209   2.391   1.234 -1.1575 -0.7633 -1.6943
  109SOL     OW  325   1.912   2.504   0.754  0.2266 -0.0502  0.6843
  109SOL    HW1  326   1.870   2.551   0.673  2.0926  0.0430  1.4047
  109SOL    HW2  327   1.850   2.509   0.840 -2.1768  0.7215  0.3520
  110SOL     OW  328   1.235   1.591   1.721 -0.2878 -0.2087 -0.2841
  110SOL    HW1  329   1.199   1.639   1.803  0.4213 -1.4580  0.4599
  110SOL    HW2  330   1.162   1.565   1.660  2.7200  1.6900  1.0090
  111SOL     OW  331   1.855   2.341   1.789 -0.0743 -0.2615 -0.0090
  111SOL    HW1  332   1.767   2.350   1.736 -0.8287  0.6159  0.0496
  111SOL    HW2  333   1.905   2.431   1.785  1.7720  1.3541  1.1881
  112SOL     OW  334   1.767   2.129   2.906  0.0283  0.6219 -0.3383
  112SOL    HW1  335   1.669   2.098   2.887 -2.8138 -0.4318  0.5436
  112SOL    HW2  336   1.780   2.150   3.006 -0.5947  1.7762  0.5097
  113SOL     OW  337   1.944   1.954   1.659  0.7091 -0.1036  0.1100
  113SOL    HW1  338   1.995   1.877   1.614  0.3488 -1.6883  1.7032
  113SOL    HW2  339   1.850   1.959   1.621 -2.7129 -3.2707 -0.4246
  114SOL     OW  340   0.063   1.409   1.673 -0.1953 -0.1042 -0.2077
  114SOL    HW1  341   0.070   1.362   1.582 -0.5762 -1.0005  1.1679
  114SOL    HW2  342   0.100   1.348   1.745 -0.5077  1.3990  1.2906
  115SOL     OW  343   0.294   0.777   0.472 -0.1566  0.1144 -0.3606
  115SOL    HW1  344   0.369   0.755   0.538 -0.1185 -1.0883  0.4955
  115SOL    HW2  345   0.205   0.767   0.515  0.6186  0.6094 -2.3197
  116SOL     OW  346   2.558   1.359   2.796 -0.0875 -0.0094  0.4308
  116SOL    HW1  347   2.556   1.400   2.702  4.1725 -0.8047 -0.3164
  116SOL    HW2  348   2.648   1.306   2.800  1.7793 -1.8450  0.4456
  117SOL     OW  349   2.941   2.585   0.405 -0.1733 -0.1468  0.5053
  117SOL    HW1  350   2.937   2.676   0.360 -0.3360  0.5718 -1.4605
  117SOL    HW2  351   2.898   2.582   0.494  0.9811  0.7956 -0.9414
  118SOL     OW  352   0.573   2.027   2.744 -0.1724 -0.0305  0.5546
  118SOL    HW1  353   0.524   2.114   2.719  1.0466  0.9862  1.0821
  118SOL    HW2  354   0.517   1.966   2.800  1.9676  2.1847  0.2287
  119SOL     OW  355   0.705   2.206   0.749 -0.3877  0.0363 -0.3024
  119SOL    HW1  356   0.652   2.136   0.797  0.8422 -0.8116 -1.7004
  119SOL    HW2  357   0.706   2.187   0.648 -0.4509 -1.3042 -0.8388
  120SOL     OW  358   1.276   0.306   0.363  0.1041 -0.0037 -0.4324
  120SOL    HW1  359   1.277   0.328   0.259  0.4216  1.7012  0.6703
  120SOL    HW2  360   1.288   0.204   0.373 -0.9737  1.4875  0.9414
  121SOL     OW  361   1.431   2.419   0.897 -0.1454 -0.2650  0.1399
  121SOL    HW1  362   1.448   2.517   0.903 -2.2543  0.7647  2.1867
  121SOL    HW2  363   1.332   2.392   0.910 -0.7917  0.6639  2.8792
  122SOL     OW  364   2.749   2.080   1.891 -0.3795 -0.5624 -0.3040
  122SOL    HW1  365   2.787   2.165   1.938  4.7232  2.5390 -2.0237
  122SOL    HW2  366   2.832   2.032   1.850 -0.3914 -0.0046 -0.0499
  123SOL     OW  367   0.895   1.585   0.750 -0.1117  0.5326  0.3570
  123SOL    HW1  368   0.875   1.637   0.837  0.1115  1.4725 -2.2339
  123SOL    HW2  369   0.908   1.641   0.673 -1.7650  0.2152  1.9774
  124SOL     OW  370   0.081   0.537   3.009 -0.0799 -0.3824 -0.4322
  124SOL    HW1  371   0.003   0.490   3.061 -1.2930 -0.6987 -0.9624
  124SOL    HW2  372   0.124   0.469   2.947  0.3198 -0.0238  0.0431
  125SOL     OW  373   0.302   0.009   0.140 -0.1829 -0.3938 -0.5421
  125SOL    HW1  374   0.278   0.088   0.088  2.1216 -1.9186  1.1079
  125SOL    HW2  375   0.354   3.045   0.082  0.6620  1.0757  2.2223
  126SOL     OW  376   0.017   1.578   0.475  0.0755 -0.1014  0.0408
  126SOL    HW1  377   0.022   1.630   0.385 -1.7963  0.4870  0.5892
  126SOL    HW2  378   3.065   1.638   0.543  0.5412  1.5371  1.3932
  127SOL     OW  379   1.019   2.523   1.527 -0.5434  0.0641 -0.2218
  127SOL    HW1  380   0.919   2.526   1.532  0.5871 -0.0234  0.5860
  127SOL    HW2  381   1.043   2.439   1.477 -1.1790  2.4067 -2.0085
  128SOL     OW  382   1.125   1.504   3.067 -0.0552 -0.1841 -0.2099
  128SOL    HW1  383   1.175   1.591   3.043 -0.2389  0.6590  2.1392
  128SOL    HW2  384   1.112   1.445   2.986 -0.6995 -1.3013  0.3586
  129SOL     OW  385   1.894   2.138   1.219  0.5347  0.1217  0.4509
  129SOL    HW1  386   1.882   2.126   1.121  2.3524  0.9271  1.3065
  129SOL    HW2  387   1.825   2.084   1.269  0.7840 -0.2979  3.2357
  130SOL     OW  388   2.037   2.229   1.626  0.2657  0.1271  0.2551
  130SOL    HW1  389   2.027   2.125   1.632  0.3360 -1.8728 -0.8589
  130SOL    HW2  390   1.965   2.279   1.683 -1.7504  1.5445  0.2738
  131SOL     OW  391   2.677   2.435   2.444  0.0722 -0.1455  0.3780
  131SOL    HW1  392   2.616   2.500   2.488  1.8970 -0.4493 -0.4039
  131SOL    HW2  393   2.624   2.347   2.432  1.1498 -0.0564  2.1043
  132SOL     OW  394   2.911   2.098   0.537 -0.2599  0.0260 -0.2681
  132SOL    HW1  395   2.963   2.032   0.595 -1.1208 -0.9445 -1.1998
  132SOL    HW2  396   2.836   2.136   0.590  2.7099 -0.3249 -0.5383
  133SOL     OW  397   0.540   0.356   1.898  0.1117 -0.0599 -0.1818
  133SOL    HW1  398   0.629   0.398   1.932  1.3164  2.1116  3.7283
  133SOL    HW2  399   0.476   0.439   1.889 -1.4247  0.9253  0.7199
  134SOL     OW  400   2.731   1.758   0.294  0.0640  0.1895 -0.2268
  134SOL    HW1  401   2.805   1.829   0.291  0.9703  2.7212 -0.0283
  134SOL    HW2  402   2.640   1.798   0.281 -0.9128  0.3421 -0.1876
  135SOL     OW  403   1.673   1.345   2.602 -0.1992  0.2378  0.5810
  135SOL    HW1  404   1.772   1.316   2.605  1.6427 -2.5143  0.1903
  135SOL    HW2  405   1.613   1.260   2.598  3.7556 -2.2303  0.8701
  136SOL     OW  406   2.665   1.664   1.137  0.1942 -0.4229  0.1349
  136SOL    HW1  407   2.738   1.724   1.180  1.1884 -0.0130  1.5924
  136SOL    HW2  408   2.707   1.599   1.069  1.9915 -0.8311  0.9309
  137SOL     OW  409   2.750   1.488   0.951 -0.1992  0.2412 -0.1034
  137SOL    HW1  410   2.748   1.538   0.862  0.0873  1.3606  3.1574
  137SOL    HW2  411   2.838   1.440   0.966  0.1635 -0.3886 -0.9729
  138SOL     OW  412   2.846   0.473   0.753  0.1281  0.4243  0.5135
  138SOL    HW1  413   2.912   0.415   0.803  0.0699 -0.8789  1.0622
  138SOL    HW2  414   2.783   0.508   0.822  1.6675  0.9544 -0.3528
  139SOL     OW  415   3.040   2.787   0.100  0.8067  0.5584 -0.5310
  139SOL    HW1  416   2.956   2.797   0.158  1.8944 -1.3640  0.2274
  139SOL    HW2  417   0.026   2.783   0.162  1.8722 -0.8466 -1.4160
  140SOL     OW  418   0.664   1.665   1.748 -0.3589 -0.5317 -0.1686
  140SOL    HW1  419   0.686   1.653   1.845  0.0636  1.9790  1.1310
  140SOL    HW2  420   0.742   1.712   1.702 -0.0782 -0.1584 -0.0714
  141SOL     OW  421   1.433   1.685   0.875  0.5525 -0.2732 -0.3003
  141SOL    HW1  422   1.462   1.589   0.841  0.0333 -2.0393 -0.8544
  141SOL    HW2  423   1.507   1.745   0.841 -1.0698 -3.2985  0.9867
  142SOL     OW  424   1.051   0.582   0.908  0.2209  0.0729 -0.4286
  142SOL    HW1  425   1.048   0.477   0.907 -2.1329 -0.0026 -2.9829
  142SOL    HW2  426   0.965   0.623   0.946 -3.3627  2.1928 -1.3447
  143SOL     OW  427   0.864   1.323   2.594  0.6104  0.0131 -0.2869
  143SOL    HW1  428   0.957   1.334   2.630 -2.8727 -2.8393 -1.4386
  143SOL    HW2  429   0.828   1.232   2.618  2.0507  0.7777  1.5889
  144SOL     OW  430   2.292   3.016   0.736 -0.2085  0.2399  0.3553
  144SOL    HW1  431   2.203   2.972   0.744  3.2948  0.8822  2.6703
  144SOL    HW2  432   2.337   2.997   0.823 -1.4463  0.3167  0.7191
  145SOL     OW  433   2.398   0.522   2.823  0.3685  0.1016  0.1633
  145SOL    HW1  434   2.312   0.465   2.843 -0.4691  0.2295  0.8933
  145SOL    HW2  435   2.481   0.466   2.824 -0.6194  0.2634  0.8728
  146SOL     OW  436   3.091   2.728   0.685  0.2744 -0.2962  0.1401
  146SOL    HW1  437   2.995   2.699   0.671 -1.2397 -1.1276  0.3414
  146SOL    HW2  438   0.018   2.753   0.779  1.8005 -0.6223 -0.1737
  147SOL     OW  439   1.084   1.142   2.668 -0.2735 -0.2163  0.1391
  147SOL    HW1  440   1.012   1.094   2.618  0.1300  2.3844  1.6938
  147SOL    HW2  441   1.174   1.120   2.622  2.5156 -0.3865 -0.7062
  148SOL     OW  442   1.284   0.512   2.522  0.2591 -0.1047  0.9435
  148SOL    HW1  443   1.207   0.456   2.552  3.0436  1.0078  0.0677
  148SOL    HW2  444   1.305   0.501   2.423  1.7818 -0.6461 -0.2346
  149SOL     OW  445   1.946   0.048   2.126 -0.4671  0.2797  0.0243
  149SOL    HW1  446   1.996   3.088   2.058  0.1872 -1.1057 -1.4268
  149SOL    HW2  447   2.007   0.132   2.140  2.0421  0.0658  0.9598
  150SOL     OW  448   2.611   2.762   0.113 -0.0841  0.5491 -0.0706
  150SOL    HW1  449   2.512   2.740   0.084  0.0551  0.6796 -2.1817
  150SOL    HW2  450   2.652   2.841   0.065  2.2008 -0.2330  0.3279
  151SOL     OW  451   0.507   1.598   2.926  0.4663 -0.3959  0.2120
  151SOL    HW1  452   0.555   1.597   3.014 -0.1676  0.0042 -0.4661
  151SOL    HW2  453   0.559   1.552   2.851 -0.6170  0.9265 -0.6971
  152SOL     OW  454   0.230   0.100   1.599 -0.0780 -0.4673 -0.5669
  152SOL    HW1  455   0.317   0.122   1.645  0.1345  1.2259  1.2540
  152SOL    HW2  456   0.146   0.112   1.662 -3.6425  0.2776  2.5679
  153SOL     OW  457   2.513   0.044   1.483  0.2928 -0.3520  0.4756
  153SOL    HW1  458   2.566   3.080   1.420  1.1973 -1.3553  1.2832
  153SOL    HW2  459   2.413   0.039   1.458 -1.7110 -1.3731 -0.0451
  154SOL     OW  460   2.478   0.235   2.584 -0.1195  0.4175  0.4517
  154SOL    HW1  461   2.496   0.297   2.662 -0.3329  0.6347 -2.3545
  154SOL    HW2  462   2.564   0.178   2.567  0.3031 -1.4958  0.8802
  155SOL     OW  463   0.055   1.317   0.465 -0.0174  0.1198  0.2408
  155SOL    HW1  464   0.153   1.283   0.479 -2.0018  2.9456  2.1698
  155SOL    HW2  465   0.044   1.418   0.470  0.8681 -3.5571 -1.5514
  156SOL     OW  466   0.040   1.724   0.268 -0.3200  0.4380  0.4353
  156SOL    HW1  467   3.056   1.774   0.232 -0.7919 -0.6960  3.5311
  156SOL    HW2  468   0.107   1.727   0.188  1.1790  0.9574 -3.6293
  157SOL     OW  469   0.540   0.095   0.631 -1.0320  0.2966 -0.3097
  157SOL    HW1  470   0.472   0.076   0.706 -0.2423 -0.4664  0.7107
  157SOL    HW2  471   0.596   0.007   0.612  2.0922 -2.6162  2.3921
  158SOL     OW  472   1.794   0.975   1.196  0.0441 -0.2002  0.0593
  158SOL    HW1  473   1.854   0.903   1.157 -1.1925 -1.6796  0.1462
  158SOL    HW2  474   1.700   0.942   1.219 -1.5528  1.2605 -2.7300
  159SOL     OW  475   0.064   0.286   0.554 -0.7063  0.3849 -0.3082
  159SOL    HW1  476   0.103   0.376   0.576  0.2401 -2.9549 -1.2222
  159SOL    HW2  477   0.072   0.262   0.458 -3.1269  1.0789 -0.8270
  160SOL     OW  478   2.253   2.289   1.456  0.3682 -0.2511 -0.0886
  160SOL    HW1  479   2.178   2.240   1.505  0.0600  0.5306 -0.4422
  160SOL    HW2  480   2.220   2.343   1.376  0.5224  0.4136 -1.1291
  161SOL     OW  481   3.089   0.732   2.853 -0.2509 -0.3192  0.2065
  161SOL    HW1  482   0.014   0.667   2.925 -0.9594 -0.1102 -3.1502
  161SOL    HW2  483   0.035   0.823   2.866 -0.8383 -1.7760 -3.2865
  162SOL     OW  484   0.722   3.079   1.785  0.5461  0.9097 -0.1598
  162SOL    HW1  485   0.815   0.020   1.768  0.1640 -2.5362 -0.0140
  162SOL    HW2  486   0.659   3.088   1.706  3.4045  0.1132  1.8585
  163SOL     OW  487   2.692   0.092   2.542  0.2463 -0.1072 -0.3427
  163SOL    HW1  488   2.659   3.090   2.541  1.8729 -2.5458 -2.7776
  163SOL    HW2  489   2.752   0.105   2.461  0.5086 -0.7316 -0.3910
  164SOL     OW  490   2.031   1.890   0.469  0.0580  0.2017  0.1074
  164SOL    HW1  491   1.974   1.914   0.385  2.1007  2.5958  0.8014
  164SOL    HW2  492   2.125   1.858   0.440  4.4147  0.1810 -1.3398
  165SOL     OW  493   0.252   0.363   1.489  0.1757  0.5482 -0.0290
  165SOL    HW1  494   0.332   0.375   1.423 -3.1183  0.7845  1.4088
  165SOL    HW2  495   0.249   0.267   1.528 -2.0688 -0.9143  0.8157
  166SOL     OW  496   1.973   0.872   0.507 -0.3774  0.2648 -0.3401
  166SOL    HW1  497   1.933   0.944   0.449  0.9022  0.1855  2.3868
  166SOL    HW2  498   1.910   0.799   0.540  2.3778 -1.1694 -0.4155
  167SOL     OW  499   2.391   0.782   0.027  0.6252 -0.2388 -0.1586
  167SOL    HW1  500   2.452   0.719   0.077 -1.3126  0.2250  0.1923
  167SOL    HW2  501   2.310   0.743   3.074 -0.1540 -2.5669 -0.8445
  168SOL     OW  502   1.642   0.103   2.691 -0.4580 -0.4126 -0.1580
  168SOL    HW1  503   1.721   0.036   2.675 -2.0420 -2.1459  2.1076
  168SOL    HW2  504   1.618   0.096   2.791 -1.2749  0.6898  3.9834
  169SOL     OW  505   0.553   1.577   1.001 -0.5874 -0.6626 -0.1113
  169SOL    HW1  506   0.462   1.602   0.953 -1.4956  0.4892  1.3447
  169SOL    HW2  507   0.530   1.540   1.092  1.4896  0.5056 -2.5637
  170SOL     OW  508   2.796   1.272   1.175 -0.2661  0.0106  0.7338
  170SOL    HW1  509   2.719   1.215   1.212  2.1473  0.4840  0.7257
  170SOL    HW2  510   2.798   1.262   1.073  0.5370 -1.2325  0.5570
  171SOL     OW  511   2.617   1.784   1.977 -0.3929  0.4168 -0.1902
  171SOL    HW1  512   2.647   1.705   1.925  0.9402  1.4080  0.6261
  171SOL    HW2  513   2.553   1.852   1.931  0.5188  0.6911  1.0543
  172SOL     OW  514   0.515   1.752   1.537  0.4223 -0.3913 -0.5232
  172SOL    HW1  515   0.451   1.828   1.518  1.8665 -0.1089  0.6163
  172SOL    HW2  516   0.519   1.743   1.635 -1.0452  0.0898  0.7948
  173SOL     OW  517   1.892   1.640   2.856  0.6929  0.1444 -0.2605
  173SOL    HW1  518   1.796   1.620   2.818 -1.4215 -1.5376 -1.0584
  173SOL    HW2  519   1.889   1.736   2.890 -0.5426  1.6647  2.6921
  174SOL     OW  520   1.350   0.831   2.850 -0.2333 -0.3141 -0.0295
  174SOL    HW1  521   1.395   0.751   2.893 -0.4628 -0.8999  0.2798
  174SOL    HW2  522   1.307   0.804   2.759 -0.5527 -0.7196  1.5532
  175SOL     OW  523   1.206   1.407   1.145  0.1218  0.3026  0.7055
  175SOL    HW1  524   1.236   1.429   1.238  3.3706  1.6355 -1.9298
  175SOL    HW2  525   1.152   1.313   1.144 -2.5245 -2.4612  1.8017
  176SOL     OW  526   1.257   0.028   0.356  0.1108  0.7254  0.4633
  176SOL    HW1  527   1.154   0.033   0.370 -2.0773 -1.8756  3.3747
  176SOL    HW2  528   1.287   0.008   0.260 -1.4284  2.8080  0.1726
  177SOL     OW  529   0.381   0.991   0.301  0.6018 -0.7327  0.4229
  177SOL    HW1  530   0.333   0.908   0.345 -1.2902  0.8274  0.2362
  177SOL    HW2  531   0.476   1.002   0.334  1.3697  2.3254 -1.5528
  178SOL     OW  532   2.769   2.029   2.476 -0.0116  0.1978 -0.0507
  178SOL    HW1  533   2.856   2.085   2.478  2.4276 -0.7342 -0.3874
  178SOL    HW2  534   2.795   1.930   2.482 -2.8030  0.9316 -1.4777
  179SOL     OW  535   2.600   2.926   2.512  0.4229 -0.2448 -0.4205
  179SOL    HW1  536   2.577   2.878   2.601 -0.6357 -1.2313  2.1778
  179SOL    HW2  537   2.668   2.865   2.465 -1.2230 -2.0602  0.0983
  180SOL     OW  538   2.123   0.677   0.879  0.0431 -0.2630 -0.1081
  180SOL    HW1  539   2.223   0.667   0.868 -0.1698  0.7454  0.0079
  180SOL    HW2  540   2.087   0.756   0.821 -0.4612  0.2592 -2.4064
  181SOL     OW  541   2.344   0.674   2.604  0.0223  0.1960 -0.3868
  181SOL    HW1  542   2.376   0.636   2.695 -0.3817 -0.0459  1.3277
  181SOL    HW2  543   2.423   0.698   2.544  1.2399  0.8952 -1.4609
  182SOL     OW  544   2.839   2.296   1.987 -0.1415  0.4624  0.5153
  182SOL    HW1  545   2.913   2.327   1.925 -1.9835 -2.1930 -0.6507
  182SOL    HW2  546   2.877   2.273   2.077  0.1594 -0.8023  2.4938
  183SOL     OW  547   1.862   0.678   1.957  0.5869 -0.8368  0.5236
  183SOL    HW1  548   1.964   0.694   1.949  1.3197 -1.1963  1.0851
  183SOL    HW2  549   1.816   0.768   1.948  0.6395  2.7072 -0.3243
  184SOL     OW  550   0.160   1.594   1.323  0.1991 -0.3349 -0.3587
  184SOL    HW1  551   0.138   1.566   1.230  0.1261 -0.4379  0.1088
  184SOL    HW2  552   0.103   1.558   1.394 -0.2943 -0.2221  0.3029
  185SOL     OW  553   2.941   0.287   0.947  0.1412 -0.1601  0.2154
  185SOL    HW1  554   2.868   0.219   0.969 -0.0871 -1.0984 -0.0354
  185SOL    HW2  555   3.023   0.277   1.010 -0.9243 -0.5175  2.6150
  186SOL     OW  556   2.204   2.523   2.525  0.0542 -0.0326 -0.2948
  186SOL    HW1  557   2.106   2.537   2.497 -2.5992  2.0256 -3.2387
  186SOL    HW2  558   2.231   2.427   2.510  1.2458 -1.1442 -0.7703
  187SOL     OW  559   0.444   1.427   0.558 -0.0386 -0.2188 -0.2779
  187SOL    HW1  560   0.401   1.337   0.560 -1.3069 -3.7265  0.7162
  187SOL    HW2  561   0.517   1.421   0.633  2.4187  0.8331  0.1681
  188SOL     OW  562   1.889   1.211   1.081  0.1770  0.5703  0.1175
  188SOL    HW1  563   1.970   1.256   1.130 -0.0986  0.4853  0.4470
  188SOL    HW2  564   1.855   1.133   1.128  3.1158  3.7124 -0.5402
  189SOL     OW  565   3.017   0.746   2.581  0.2827 -0.5191 -0.0697
  189SOL    HW1  566   3.033   0.730   2.680 -1.6260  1.3007 -3.1500
  189SOL    HW2  567   2.923   0.781   2.560  0.6117 -1.0745 -0.4749
  190SOL     OW  568   2.364   0.630   2.283 -0.1340  0.0520 -0.1047
  190SOL    HW1  569   2.267   0.595   2.277  0.3386  0.2197  0.8371
  190SOL    HW2  570   2.414   0.558   2.336 -0.3384  0.3808 -0.5339
  191SOL     OW  571   1.026   0.095   2.384 -0.3793  0.3056 -0.3405
  191SOL    HW1  572   0.975   0.123   2.470 -0.4671 -1.7037 -0.5262
  191SOL    HW2  573   0.999   0.005   2.347  1.7435  3.3432  0.2417
  192SOL     OW  574   0.881   1.821   1.687  0.1966 -0.2676 -0.0227
  192SOL    HW1  575   0.980   1.826   1.662  0.8963 -2.1221 -2.7046
  192SOL    HW2  576   0.854   1.898   1.749 -0.3252 -3.1676  0.4734
  193SOL     OW  577   1.366   3.041   0.890 -0.4441 -0.4405  0.9403
  193SOL    HW1  578   1.311   2.964   0.926  0.1287  0.3679  1.7696
  193SOL    HW2  579   1.354   3.026   0.792  0.0297  2.7497  1.2490
  194SOL     OW  580   0.811   2.063   1.838 -0.8331  0.6329 -0.0915
  194SOL    HW1  581   0.718   2.106   1.835 -0.4155 -1.1052  2.3637
  194SOL    HW2  582   0.882   2.126   1.872 -1.5393 -2.9397 -1.1737
  195SOL     OW  583   1.427   0.481   0.771  0.1178  0.1875  0.0575
  195SOL    HW1  584   1.478   0.409   0.827  1.0254 -3.8698 -0.2181
  195SOL    HW2  585   1.334   0.495   0.808 -2.0473 -1.2774 -1.6591
  196SOL     OW  586   1.181   1.550   2.071 -0.3761 -0.4393 -0.4943
  196SOL    HW1  587   1.186   1.554   2.175 -2.5525  0.0123  0.9943
  196SOL    HW2  588   1.136   1.630   2.029 -0.0064  1.8373  0.3887
  197SOL     OW  589   0.421   0.618   1.908  0.2230  0.2152 -0.2990
  197SOL    HW1  590   0.503   0.674   1.882 -1.4002  0.0044  0.5347
  197SOL    HW2  591   0.343   0.674   1.942  1.5384  0.0768 -0.7207
  198SOL     OW  592   0.711   0.542   0.725 -0.3034 -0.2937 -0.3685
  198SOL    HW1  593   0.747   0.544   0.632 -2.9004  1.9976  1.4257
  198SOL    HW2  594   0.679   0.450   0.747  2.1778  2.5769  1.5926
  199SOL     OW  595   0.224   2.351   1.713 -0.3404 -0.0710  0.0104
  199SOL    HW1  596   0.230   2.290   1.631  0.3562 -0.9050  0.2874
  199SOL    HW2  597   0.134   2.340   1.767 -4.4173  0.1676  1.6330
  200SOL     OW  598   1.709   1.503   2.394 -0.6737 -0.3195  0.5734
  200SOL    HW1  599   1.779   1.562   2.433  0.8760  1.3103 -1.6790
  200SOL    HW2  600   1.673   1.439   2.467  2.9520 -0.2803  1.3129
  201SOL     OW  601   0.581   2.404   1.779 -0.0478 -0.2140 -0.2561
  201SOL    HW1  602   0.624   2.413   1.690 -1.9317  1.5559  3.2775
  201SOL    HW2  603   0.545   2.308   1.789 -0.4952  0.6663 -0.6141
  202SOL     OW  604   1.269   2.815   2.928 -0.0584 -0.1236  0.0303
  202SOL    HW1  605   1.319   2.762   2.853  1.6544  0.1772  0.8883
  202SOL    HW2  606   1.168   2.787   2.931 -0.7148 -1.6842  0.0857
  203SOL     OW  607   1.619   0.385   2.313  0.1705  0.1357 -0.5566
  203SOL    HW1  608   1.646   0.334   2.231 -3.4523  2.4379  0.6423
  203SOL    HW2  609   1.586   0.328   2.390  3.2900 -1.3339  0.9087
  204SOL     OW  610   0.588   1.301   2.124  0.3204 -0.0655  0.1236
  204SOL    HW1  611   0.661   1.372   2.117  2.1947  1.6664  1.3611
  204SOL    HW2  612   0.628   1.216   2.088 -2.8226  1.5254 -1.6487
  205SOL     OW  613   2.106   0.953   2.778 -0.0543  0.2420  0.6154
  205SOL    HW1  614   2.099   0.881   2.704 -3.1436  1.4275 -1.1132
  205SOL    HW2  615   2.200   0.963   2.816  0.3248 -0.2592 -0.5644
  206SOL     OW  616   0.163   1.842   2.762 -0.1625 -0.9751  0.3980
  206SOL    HW1  617   0.189   1.775   2.691 -0.3386  2.3344  1.4132
  206SOL    HW2  618   0.243   1.867   2.824  1.7438  0.4084  1.7818
  207SOL     OW  619   0.925   2.933   1.963  0.1861 -0.5768 -0.3252
  207SOL    HW1  620   0.878   2.847   1.985  0.1566  0.2172 -2.8268
  207SOL    HW2  621   0.862   3.010   1.978 -1.3611  0.8396  0.1510
  208SOL     OW  622   0.576   2.455   1.356  0.2651 -0.5820  0.3289
  208SOL    HW1  623   0.568   2.557   1.338 -0.5936  0.6680  0.7663
  208SOL    HW2  624   0.571   2.404   1.267  0.3345  1.5708  0.9273
  209SOL     OW  625   1.028   2.964   0.177  1.0001 -0.0297  0.0329
  209SOL    HW1  626   1.003   3.029   0.256  0.5879  1.5893  2.8604
  209SOL    HW2  627   1.034   3.020   0.092 -3.3920  1.2284 -2.4100
  210SOL     OW  628   2.889   1.634   1.564 -0.2821 -0.0443  0.0357
  210SOL    HW1  629   2.799   1.650   1.519  3.4466  0.2774 -1.8480
  210SOL    HW2  630   2.917   1.539   1.553 -1.3019 -0.3880 -0.3199
  211SOL     OW  631   0.811   0.465   1.946  0.0749 -0.0048  0.1923
  211SOL    HW1  632   0.806   0.556   1.988  1.2501  0.1083 -1.4956
  211SOL    HW2  633   0.832   0.472   1.849  0.2244 -0.7820 -0.7442
  212SOL     OW  634   1.421   2.104   1.577 -0.0573  0.4701  0.1597
  212SOL    HW1  635   1.425   2.113   1.482 -2.2725 -0.9279 -1.2828
  212SOL    HW2  636   1.426   2.002   1.604 -1.8141 -1.6958  0.8554
  213SOL     OW  637   2.493   0.315   1.504 -0.3691  0.6526  0.4869
  213SOL    HW1  638   2.532   0.391   1.445 -0.4514 -2.0962 -1.3100
  213SOL    HW2  639   2.507   0.222   1.458 -0.6910 -1.3399 -1.3780
  214SOL     OW  640   1.016   2.214   1.889 -0.6632  0.5827  0.1039
  214SOL    HW1  641   1.091   2.268   1.932 -2.1070 -2.5411  0.8998
  214SOL    HW2  642   1.050   2.186   1.798  1.2588  0.9785  0.9285
  215SOL     OW  643   2.860   1.843   1.243 -0.4590  0.1571  0.2718
  215SOL    HW1  644   2.784   1.890   1.290 -1.8557  0.1190  0.9611
  215SOL    HW2  645   2.936   1.834   1.310 -2.0482 -1.8365 -1.9629
  216SOL     OW  646   0.097   0.829   1.542 -0.0172 -0.1187 -0.0717
  216SOL    HW1  647   0.187   0.836   1.500  1.0661 -0.6896  1.7849
  216SOL    HW2  648   0.074   0.730   1.564  1.5755 -2.3006  2.1733
  217SOL     OW  649   2.726   0.334   1.360 -0.2175 -0.1643 -0.2170
  217SOL    HW1  650   2.789   0.301   1.430  0.2032  3.5201 -0.3850
  217SOL    HW2  651   2.694   0.427   1.377  0.7017 -1.7861 -0.4578
  218SOL     OW  652   1.134   1.924   1.119  0.5483 -0.3093  0.1186
  218SOL    HW1  653   1.152   1.824   1.126  0.9074  1.1475 -2.9430
  218SOL    HW2  654   1.040   1.939   1.084 -1.9134  0.0094  0.1894
  219SOL     OW  655   1.424   2.423   0.188  0.5889  0.4779 -0.1380
  219SOL    HW1  656   1.375   2.485   0.255 -0.7242 -2.1006  1.5234
  219SOL    HW2  657   1.439   2.326   0.219  2.8682 -2.2881 -0.6121
  220SOL     OW  658   1.743   2.562   0.300  0.5245 -0.0938  1.0118
  220SOL    HW1  659   1.672   2.533   0.368 -0.7162 -1.2572 -1.6976
  220SOL    HW2  660   1.742   2.509   0.214  1.4111  1.3578 -0.1753
  221SOL     OW  661   3.008   1.999   1.015  0.0917  0.3682 -0.4410
  221SOL    HW1  662   2.956   2.009   0.928 -0.2743  1.5494 -0.2156
  221SOL    HW2  663   2.951   1.960   1.091 -2.0395 -2.4057  0.6672
  222SOL     OW  664   0.977   2.205   0.791  0.2473 -0.0528  0.6794
  222SOL    HW1  665   1.004   2.110   0.821  0.6136  0.6166 -0.7421
  222SOL    HW2  666   0.878   2.209   0.771 -0.1012  0.9954 -2.9179
  223SOL     OW  667   1.184   2.541   2.318 -0.3283 -0.5730  0.4105
  223SOL    HW1  668   1.250   2.602   2.271 -0.3506 -1.2417  1.1676
  223SOL    HW2  669   1.105   2.597   2.348 -1.3618  0.0974 -0.0399
  224SOL     OW  670   2.792   1.158   0.919 -0.0013 -0.6305  0.1939
  224SOL    HW1  671   2.702   1.162   0.877  0.5004 -0.0939 -2.7610
  224SOL    HW2  672   2.816   1.057   0.914 -0.3145 -2.1531 -0.6371
  225SOL     OW  673   2.296   1.516   1.054  0.0687 -0.2902 -0.8503
  225SOL    HW1  674   2.273   1.575   0.974 -4.1254  0.3037 -0.5609
  225SOL    HW2  675   2.380   1.460   1.044 -3.6963  5.0269  1.2797
  226SOL     OW  676   1.096   2.678   0.602 -0.2558 -0.3066 -0.5861
  226SOL    HW1  677   1.132   2.705   0.508 -0.3163  2.6600 -0.0540
  226SOL    HW2  678   1.102   2.578   0.629 -3.2366  0.8639  0.1175
  227SOL     OW  679   1.034   1.219   1.086 -0.3628 -0.2123  0.4770
  227SOL    HW1  680   1.011   1.156   1.164  1.1126 -1.4603  1.0478
  227SOL    HW2  681   1.013   1.176   0.998 -0.1736  0.9109  1.9292
  228SOL     OW  682   1.342   0.410   2.257 -0.2237 -0.2750  0.2540
  228SOL    HW1  683   1.432   0.364   2.269 -0.8153  0.9562 -0.6456
  228SOL    HW2  684   1.264   0.340   2.249 -0.0661 -0.6596 -0.7315
  229SOL     OW  685   2.533   0.968   2.991 -0.0582  0.1051 -0.1542
  229SOL    HW1  686   2.617   0.991   3.036 -1.1508  1.7902  1.2227
  229SOL    HW2  687   2.476   0.904   3.046 -0.6610  0.5474 -2.0723
  230SOL     OW  688   1.019   1.238   0.422  0.1219  0.0385  0.1007
  230SOL    HW1  689   1.106   1.200   0.382  4.2131 -0.6043 -2.3288
  230SOL    HW2  690   1.034   1.278   0.512  1.0211  1.2238 -2.4767
  231SOL     OW  691   2.346   2.916   2.385  0.3378  0.3632 -0.1532
  231SOL    HW1  692   2.440   2.945   2.409 -2.7233 -0.1813 -0.2995
  231SOL    HW2  693   2.309   2.990   2.325 -1.7005 -1.6244 -0.8770
  232SOL     OW  694   0.301   1.968   0.010 -0.3900  0.6612 -0.4324
  232SOL    HW1  695   0.371   2.005   0.078  0.3782  2.0633  0.1633
  232SOL    HW2  696   0.247   2.049   3.064 -1.3912  3.3491  0.4783
  233SOL     OW  697   1.662   2.666   2.402 -0.6028  0.4375 -0.0374
  233SOL    HW1  698   1.629   2.615   2.321 -1.6037  0.6886  0.1861
  233SOL    HW2  699   1.763   2.666   2.408 -0.0619 -0.1802  0.3988
  234SOL     OW  700   1.129   1.292   1.938  0.0310  0.3873  0.3569
  234SOL    HW1  701   1.162   1.380   1.970  0.8434  0.0122  2.6347
  234SOL    HW2  702   1.067   1.242   2.004  1.9790 -1.7643 -2.2717
  235SOL     OW  703   0.516   2.116   1.787  0.4029 -0.3862 -0.4738
  235SOL    HW1  704   0.494   2.057   1.864  0.3379 -0.1335 -4.1185
  235SOL    HW2  705   0.469   2.080   1.702 -0.0136  0.0955 -0.0156
  236SOL     OW  706   2.053   2.506   2.808 -0.0320 -0.1317 -0.4197
  236SOL    HW1  707   1.971   2.459   2.778  1.8544 -0.0058  2.2187
  236SOL    HW2  708   2.120   2.429   2.819 -1.2975 -2.1499  0.8530
  237SOL     OW  709   1.613   3.086   0.961  0.6649 -0.7503 -0.7229
  237SOL    HW1  710   1.525   3.066   0.912  1.5228  0.9536  1.3265
  237SOL    HW2  711   1.585   0.051   1.039  0.2550  5.7350  0.6352
  238SOL     OW  712   1.112   0.590   2.840 -0.2572  0.0268 -0.0829
  238SOL    HW1  713   1.178   0.634   2.904  0.8141 -0.1919  0.6035
  238SOL    HW2  714   1.125   0.488   2.856  1.6490  2.4587 -0.2711
  239SOL     OW  715   0.640   0.026   2.068  0.5395 -0.5118 -0.0267
  239SOL    HW1  716   0.605   0.012   1.974 -0.4495  0.4251 -2.2888
  239SOL    HW2  717   0.711   0.094   2.070 -1.5931 -0.7972 -1.6971
  240SOL     OW  718   2.201   2.530   0.692 -0.5253 -0.1782  0.5129
  240SOL    HW1  719   2.103   2.548   0.717  1.9301  0.1159 -1.6868
  240SOL    HW2  720   2.224   2.566   0.601  0.0385  0.1057  1.1142
  241SOL     OW  721   1.029   1.504   1.562 -0.0584  0.0049  0.0507
  241SOL    HW1  722   0.992   1.476   1.654  0.3246 -0.7830  4.5233
  241SOL    HW2  723   0.961   1.577   1.529  0.1887 -1.0740  1.7231
  242SOL     OW  724   0.084   0.621   0.936 -0.0272 -0.3697 -0.8675
  242SOL    HW1  725   0.044   0.713   0.936 -0.7562 -1.5558  2.3695
  242SOL    HW2  726   0.051   0.560   1.010  1.0865 -2.2024 -0.7827
  243SOL     OW  727   0.733   0.749   1.433  0.0114  0.2138  0.4148
  243SOL    HW1  728   0.709   0.839   1.386  0.2022 -2.4694  1.6098
  243SOL    HW2  729   0.652   0.684   1.440 -3.2118 -2.0502  0.9579
  244SOL     OW  730   1.412   0.639   0.135  0.1597 -0.4938  0.8104
  244SOL    HW1  731   1.402   0.700   0.219 -0.5582  0.4934  1.3174
  244SOL    HW2  732   1.503   0.652   0.087  2.1970  1.0765  0.1281
  245SOL     OW  733   2.098   0.425   0.203 -0.3590  0.2892 -0.3064
  245SOL    HW1  734   2.049   0.335   0.191 -1.0977  0.8154 -0.4430
  245SOL    HW2  735   2.197   0.416   0.224 -1.2841 -2.4044  1.6423
  246SOL     OW  736   0.629   0.778   1.854  0.3122  0.2623  0.1593
  246SOL    HW1  737   0.579   0.867   1.838 -0.4454 -0.9146 -2.1999
  246SOL    HW2  738   0.709   0.775   1.794  0.9160 -1.1495  0.9190
  247SOL     OW  739   0.381   3.097   2.154  0.5869 -0.1903  0.2343
  247SOL    HW1  740   0.325   0.079   2.186 -0.1665  1.4643  0.2592
  247SOL    HW2  741   0.480   0.017   2.160 -1.8530  2.5942 -1.8257
  248SOL     OW  742   2.949   1.534   2.218 -0.6655  0.0403 -0.1645
  248SOL    HW1  743   2.936   1.569   2.124 -2.7497 -3.5663  0.2010
  248SOL    HW2  744   2.963   1.612   2.284 -0.0166  1.8854 -0.6934
  249SOL     OW  745   0.211   0.057   2.716 -0.0944  0.6100 -0.1457
  249SOL    HW1  746   0.287   0.115   2.754  0.6530  2.0095  2.7326
  249SOL    HW2  747   0.263   3.080   2.663  1.1504  0.6624  2.1646
  250SOL     OW  748   2.884   0.050   0.080  0.5182 -0.0602 -0.5836
  250SOL    HW1  749   2.899   3.064   0.135 -1.1329 -1.5931 -1.3905
  250SOL    HW2  750   2.947   0.067   0.004 -0.7782  0.1560  4.8178
  251SOL     OW  751   0.451   1.277   1.034  0.1382 -0.7198 -1.3086
  251SOL    HW1  752   0.374   1.321   0.984  0.1402 -0.5579 -1.1324
  251SOL    HW2  753   0.539   1.293   0.988 -1.4124 -0.8532  0.5905
  252SOL     OW  754   1.489   2.962   1.776  1.2015  0.2326 -0.2349
  252SOL    HW1  755   1.526   3.049   1.742 -1.2958 -0.3274  0.5298
  252SOL    HW2  756   1.550   2.927   1.851  0.6285 -0.5879 -0.7770
  253SOL     OW  757   1.948   2.071   2.499 -0.3805  0.0839  1.0186
  253SOL    HW1  758   2.000   2.133   2.432  1.2057  0.0957  1.7661
  253SOL    HW2  759   1.895   2.126   2.568  1.2449  0.1947 -0.9701
  254SOL     OW  760   0.443   1.522   2.043  0.2851 -0.0911  0.2000
  254SOL    HW1  761   0.529   1.577   2.029 -0.6990 -0.3971  2.0553
  254SOL    HW2  762   0.464   1.439   2.096 -0.9614 -2.2719 -2.3599
  255SOL     OW  763   1.192   0.331   1.668  0.3651  0.0416 -0.1959
  255SOL    HW1  764   1.199   0.379   1.759 -1.2811 -3.3949  0.4803
  255SOL    HW2  765   1.107   0.277   1.663 -2.7190  0.1830 -0.2751
  256SOL     OW  766   2.786   2.369   1.113  0.4942  0.0654  0.0623
  256SOL    HW1  767   2.708   2.418   1.162 -3.6460 -0.0483  1.7430
  256SOL    HW2  768   2.742   2.318   1.038  0.9150  1.0483  1.2366
  257SOL     OW  769   0.608   2.490   3.053 -0.1475  0.2370  0.3931
  257SOL    HW1  770   0.649   2.443   2.969 -0.2857 -0.9173  1.3619
  257SOL    HW2  771   0.682   2.515   0.020 -1.3446 -0.8416 -1.7051
  258SOL     OW  772   1.089   2.310   2.395  0.6715 -0.0955 -0.5817
  258SOL    HW1  773   0.995   2.313   2.430  2.1454  1.3364 -1.5166
  258SOL    HW2  774   1.113   2.406   2.367  1.1655 -0.7330  0.9377
  259SOL     OW  775   0.963   1.904   2.716  0.1669 -0.1737  0.0816
  259SOL    HW1  776   0.951   2.005   2.728 -0.9337  0.1459  0.5548
  259SOL    HW2  777   0.911   1.848   2.782  1.0677 -2.0898  1.1247
  260SOL     OW  778   2.488   1.101   2.308 -0.0414  0.6473 -0.2587
  260SOL    HW1  779   2.417   1.175   2.299  0.9190 -1.8989  0.9906
  260SOL    HW2  780   2.484   1.074   2.405 -0.2310 -1.5212  2.7868
  261SOL     OW  781   1.149   0.662   0.666  0.0733  0.1685  0.1480
  261SOL    HW1  782   1.135   0.634   0.761 -0.0014  0.3403 -1.5564
  261SOL    HW2  783   1.100   0.750   0.639 -0.1061 -3.0094 -0.3669
  262SOL     OW  784   1.911   2.374   2.228  0.1192 -0.3522 -0.2178
  262SOL    HW1  785   1.812   2.343   2.242 -2.0661  0.7796  1.7681
  262SOL    HW2  786   1.916   2.436   2.151 -1.8094  0.6277  0.8915
  263SOL     OW  787   0.157   2.076   0.261 -0.0399  0.5498  0.6269
  263SOL    HW1  788   0.114   1.987   0.238 -0.1665  0.3887  1.2349
  263SOL    HW2  789   0.244   2.099   0.210  1.8787 -1.3242 -2.3523
  264SOL     OW  790   0.344   2.065   0.762 -0.3470 -0.1560  0.6170
  264SOL    HW1  791   0.346   2.017   0.669  0.4803 -0.8720  0.2034
  264SOL    HW2  792   0.268   2.026   0.813  2.0776 -0.5478 -0.7685
  265SOL     OW  793   0.557   1.487   0.317 -0.4314 -0.6680  0.1920
  265SOL    HW1  794   0.509   1.482   0.411 -0.1384  0.9779  0.5982
  265SOL    HW2  795   0.629   1.418   0.313 -1.0557  2.0588 -1.0371
  266SOL     OW  796   0.796   1.962   2.335 -0.1130  0.7778 -0.8397
  266SOL    HW1  797   0.798   1.996   2.427 -0.2011 -0.4466 -2.3323
  266SOL    HW2  798   0.849   2.033   2.282  0.6574  1.7436  1.4686
  267SOL     OW  799   1.054   0.589   2.369  0.3301  0.0986 -0.2229
  267SOL    HW1  800   1.047   0.502   2.424 -3.2378 -0.1870 -3.1816
  267SOL    HW2  801   1.067   0.575   2.269  0.7314 -0.9738 -1.5735
  268SOL     OW  802   0.383   0.903   2.955  0.0920  0.0475  0.2819
  268SOL    HW1  803   0.418   0.937   2.863 -0.5998 -1.0070  0.1881
  268SOL    HW2  804   0.377   0.984   3.020 -0.5890  0.4006  2.1536
  269SOL     OW  805   2.308   2.665   2.300  0.0744  0.4550 -0.1291
  269SOL    HW1  806   2.339   2.760   2.323  0.6248 -0.8499  0.1105
  269SOL    HW2  807   2.273   2.615   2.384  1.3935 -1.0759 -0.8106
  270SOL     OW  808   1.311   1.505   2.585 -0.2977 -0.5848 -0.1895
  270SOL    HW1  809   1.345   1.541   2.496  0.0994 -1.5898 -0.3636
  270SOL    HW2  810   1.223   1.550   2.619  1.3476 -0.1694 -0.0664
  271SOL     OW  811   0.398   0.104   2.926 -0.1069  0.4340 -0.1606
  271SOL    HW1  812   0.416   0.007   2.949  1.4777 -2.0454  1.2828
  271SOL    HW2  813   0.316   0.141   2.973  1.0851 -1.1428  1.0365
  272SOL     OW  814   2.864   0.635   0.332  0.3798  0.1540 -0.3258
  272SOL    HW1  815   2.891   0.632   0.431 -1.3899 -0.7195 -0.5717
  272SOL    HW2  816   2.783   0.702   0.317  0.1584  2.1275  0.7175
  273SOL     OW  817   0.399   3.026   1.895 -0.7713  0.3177  0.1181
  273SOL    HW1  818   0.373   3.045   1.993  0.4639  0.1164  0.0437
  273SOL    HW2  819   0.340   2.949   1.855 -1.8385  2.3540 -1.4807
  274SOL     OW  820   0.077   0.705   1.935  0.1868  0.2021  0.0972
  274SOL    HW1  821   0.004   0.764   1.967  0.0836 -0.9222 -1.4538
  274SOL    HW2  822   0.051   0.674   1.843  1.0892  2.1112  0.7208
  275SOL     OW  823   1.148   1.749   0.590 -0.1692 -0.0343  0.1655
  275SOL    HW1  824   1.151   1.708   0.683  0.4332 -1.6066 -1.2456
  275SOL    HW2  825   1.222   1.818   0.577  0.3981  1.1120  1.1668
  276SOL     OW  826   0.821   0.717   2.083 -0.0688  0.1670  0.3291
  276SOL    HW1  827   0.779   0.667   2.163  0.4594  1.4615  1.2581
  276SOL    HW2  828   0.757   0.795   2.057  0.0980  1.5089 -0.4638
  277SOL     OW  829   1.288   2.521   1.784 -0.1803  0.1868  0.2533
  277SOL    HW1  830   1.207   2.546   1.728 -1.0806  1.1532  1.1747
  277SOL    HW2  831   1.256   2.466   1.864  1.4144  0.6557 -1.0008
  278SOL     OW  832   1.839   2.861   1.844 -0.2408  0.8885 -0.1650
  278SOL    HW1  833   1.760   2.859   1.907  0.8464 -1.2857 -0.2772
  278SOL    HW2  834   1.927   2.896   1.890 -1.3400  0.9870  0.9869
  279SOL     OW  835   1.321   1.534   0.225  0.2314  0.1786 -0.3863
  279SOL    HW1  836   1.242   1.521   0.289  0.6651  0.2108 -0.4096
  279SOL    HW2  837   1.388   1.460   0.222 -1.9522  3.7994  1.2938
  280SOL     OW  838   0.680   1.572   0.043 -0.0335  0.0017 -0.0806
  280SOL    HW1  839   0.773   1.563   0.084 -1.8547 -0.2289 -0.2580
  280SOL    HW2  840   0.613   1.538   0.110  0.4050 -0.2928  0.0954
  281SOL     OW  841   0.620   0.066   1.551  0.0510 -0.6331 -0.1699
  281SOL    HW1  842   0.541   0.106   1.603 -1.9857 -1.0947  3.0753
  281SOL    HW2  843   0.669   0.137   1.501 -3.0263 -2.2591 -2.2061
  282SOL     OW  844   0.088   2.407   0.677  0.1356 -0.5020  0.0424
  282SOL    HW1  845   0.128   2.488   0.628 -1.4389  1.6885 -1.9070
  282SOL    HW2  846   0.088   2.325   0.618 -0.7160  4.0806 -0.6757
  283SOL     OW  847   1.696   2.203   2.203 -0.2952 -0.4012 -0.5970
  283SOL    HW1  848   1.744   2.173   2.115  0.9369  1.0242  1.5040
  283SOL    HW2  849   1.689   2.126   2.268  1.3068 -1.8553 -0.1808
  284SOL     OW  850   2.065   2.867   0.778  0.2187 -0.3569 -0.3061
  284SOL    HW1  851   1.990   2.935   0.758 -1.7055 -1.1317 -0.0819
  284SOL    HW2  852   2.023   2.795   0.835  2.6554  1.2797 -2.4234
  285SOL     OW  853   0.298   2.386   2.339  0.2575 -0.8669 -0.3363
  285SOL    HW1  854   0.346   2.303   2.305  0.7503  2.5713  0.6096
  285SOL    HW2  855   0.363   2.462   2.365 -0.7815 -1.2307  0.9284
  286SOL     OW  856   3.056   2.877   0.942 -0.3106  0.0494 -0.5395
  286SOL    HW1  857   3.039   2.941   1.020  0.2804 -0.0738 -0.1794
  286SOL    HW2  858   3.008   2.787   0.954  0.2325 -2.5498 -1.2825
  287SOL     OW  859   0.641   1.493   0.748  0.3681 -0.4705 -0.0871
  287SOL    HW1  860   0.607   1.549   0.828 -0.7405 -0.7295 -1.2833
  287SOL    HW2  861   0.738   1.507   0.734  0.4678 -4.2825 -1.2905
  288SOL     OW  862   2.298   2.267   2.593 -0.1929 -0.1611  0.9772
  288SOL    HW1  863   2.399   2.245   2.586  0.6883 -1.2247  0.3974
  288SOL    HW2  864   2.242   2.215   2.524 -2.5796 -0.5081 -1.8250
  289SOL     OW  865   3.034   2.122   2.772 -0.4256  0.0141  0.8309
  289SOL    HW1  866   2.979   2.153   2.848  1.6090 -0.5517 -0.1378
  289SOL    HW2  867   3.012   2.022   2.768  1.2879  0.4608  1.8373
  290SOL     OW  868   1.384   1.763   1.377 -0.0951 -0.5582 -0.4217
  290SOL    HW1  869   1.451   1.722   1.314  1.6183  2.2836 -2.9188
  290SOL    HW2  870   1.322   1.826   1.327  1.3469  0.0556  2.0921
  291SOL     OW  871   1.501   1.278   3.047 -0.1635  0.6738 -0.9695
  291SOL    HW1  872   1.449   1.341   2.982 -1.4200  0.7947 -0.3921
  291SOL    HW2  873   1.459   1.184   3.055 -2.6311 -0.2330 -0.2743
  292SOL     OW  874   0.950   1.580   0.173 -0.6823  0.2258 -0.0618
  292SOL    HW1  875   1.004   1.555   0.258 -0.1911 -1.6068  2.2163
  292SOL    HW2  876   1.006   1.560   0.089  0.5398  2.1850 -1.1995
  293SOL     OW  877   1.546   2.680   0.943  0.4642 -0.0399  0.3168
  293SOL    HW1  878   1.494   2.699   1.029  2.2219  0.3106 -0.5683
  293SOL    HW2  879   1.612   2.754   0.917 -1.2219  0.0471 -0.8232
  294SOL     OW  880   2.085   1.268   2.844  0.6691 -0.4573 -0.0662
  294SOL    HW1  881   2.181   1.239   2.821  1.7376 -2.8933 -0.3494
  294SOL    HW2  882   2.044   1.187   2.888 -1.4628 -3.0334  0.3321
  295SOL     OW  883   1.862   1.890   2.981 -0.0513  0.1778 -0.1744
  295SOL    HW1  884   1.799   1.874   3.055 -3.0012 -0.7580 -0.6866
  295SOL    HW2  885   1.843   1.983   2.942 -1.6417  1.8853 -0.8307
  296SOL     OW  886   1.742   0.461   1.859 -0.4608  0.2299  0.1201
  296SOL    HW1  887   1.640   0.462   1.849  1.1065 -1.5031  1.6623
  296SOL    HW2  888   1.787   0.535   1.908 -0.2593 -2.6055 -3.7880
  297SOL     OW  889   2.929   0.825   2.041  0.0859 -0.1168 -0.0171
  297SOL    HW1  890   2.871   0.834   1.957 -0.6657  1.2951  2.6052
  297SOL    HW2  891   2.919   0.907   2.104  0.1471  3.7316  2.7266
  298SOL     OW  892   1.160   1.976   2.050 -0.0639  0.1223  0.1400
  298SOL    HW1  893   1.227   1.987   1.975 -0.0067  0.3387  0.8324
  298SOL    HW2  894   1.199   1.977   2.139 -1.6101  2.6650 -2.4060
  299SOL     OW  895   1.186   0.081   2.725 -0.0964 -0.5428  0.4210
  299SOL    HW1  896   1.237   0.075   2.637  2.2393 -0.1291 -0.2607
  299SOL    HW2  897   1.110   0.008   2.727 -0.0877  2.2497 -3.1292
  300SOL     OW  898   0.075   1.045   2.955  0.3579 -0.1889 -0.4709
  300SOL    HW1  899   0.111   1.008   3.047 -1.6724  0.1188 -0.0118
  300SOL    HW2  900   0.144   1.108   2.913  2.4530  2.2989  1.5987
  301SOL     OW  901   1.872   0.851   2.345 -0.3209 -0.1816 -0.2516
  301SOL    HW1  902   1.853   0.763   2.290  1.9734 -2.0987  0.9249
  301SOL    HW2  903   1.790   0.912   2.352  1.3403 -0.5806 -2.4680
  302SOL     OW  904   2.587   1.721   2.705 -0.3312  0.6551  0.4215
  302SOL    HW1  905   2.576   1.628   2.663  0.6090  0.4026  0.1469
  302SOL    HW2  906   2.494   1.758   2.734 -1.4393  1.6143  5.1093
  303SOL     OW  907   0.404   2.302   2.657 -0.1923  0.1091  0.2555
  303SOL    HW1  908   0.398   2.400   2.643 -1.2416 -4.0218  0.4037
  303SOL    HW2  909   0.381   2.252   2.570 -1.3703 -2.8510 -1.9995
  304SOL     OW  910   3.022   0.945   1.334  0.3690 -0.3914  0.1106
  304SOL    HW1  911   0.009   0.996   1.317 -0.2765  0.1767 -0.9247
  304SOL    HW2  912   3.040   0.869   1.397 -1.5670  1.2089 -0.0970
  305SOL     OW  913   2.497   0.763   1.899  0.1348 -0.1490 -0.1177
  305SOL    HW1  914   2.526   0.715   1.984 -0.1026 -1.6162 -0.4163
  305SOL    HW2  915   2.416   0.825   1.919 -1.0952 -1.6941  0.1811
  306SOL     OW  916   2.306   1.107   1.846 -0.5834  0.3432  0.3595
  306SOL    HW1  917   2.263   1.127   1.755 -0.2661 -1.3035  1.8098
  306SOL    HW2  918   2.388   1.159   1.864 -0.4293  0.0187 -1.1847
  307SOL     OW  919   2.818   0.050   0.973 -0.1494 -0.1640 -0.6807
  307SOL    HW1  920   2.788   3.053   0.955 -1.0662  1.2904  0.1008
  307SOL    HW2  921   2.911   0.050   1.021 -1.1426 -1.4062  2.4967
  308SOL     OW  922   0.265   1.882   1.782 -0.0647  0.3411 -0.5941
  308SOL    HW1  923   0.210   1.887   1.871 -2.2133  2.7956  0.8215
  308SOL    HW2  924   0.253   1.788   1.737 -4.1180  0.1971 -0.1107
  309SOL     OW  925   2.500   2.166   1.496  0.0365 -0.1408  0.0748
  309SOL    HW1  926   2.525   2.208   1.588  0.6861  1.7126 -0.8860
  309SOL    HW2  927   2.403   2.192   1.463 -2.5951 -1.3243 -1.5328
  310SOL     OW  928   2.128   1.532   2.770 -0.4359  0.1201 -0.5210
  310SOL    HW1  929   2.046   1.573   2.810  0.7770 -2.2265 -0.9433
  310SOL    HW2  930   2.119   1.432   2.795 -0.1593 -0.5339 -1.7165
  311SOL     OW  931   1.782   1.244   3.039  0.3501 -0.3746  0.0041
  311SOL    HW1  932   1.677   1.244   3.034 -1.8473  0.9877  0.0092
  311SOL    HW2  933   1.824   1.192   2.964 -1.3051  0.8586  3.4743
  312SOL     OW  934   1.308   2.232   2.264  0.1869  0.0445  0.2814
  312SOL    HW1  935   1.350   2.136   2.274  0.7013  0.6127  0.3107
  312SOL    HW2  936   1.230   2.238   2.327  2.2067 -1.2320 -1.9850
  313SOL     OW  937   0.319   0.314   0.903  0.1491  0.2174  0.1787
  313SOL    HW1  938   0.248   0.257   0.852  0.5065 -0.6406 -2.4169
  313SOL    HW2  939   0.322   0.281   1.001 -0.2795  0.9435  0.5162
  314SOL     OW  940   0.550   1.871   1.118 -0.1092 -0.4898 -0.4974
  314SOL    HW1  941   0.455   1.910   1.119 -0.1904 -0.0345  0.6020
  314SOL    HW2  942   0.544   1.773   1.126  2.4289  0.5117  0.7632
  315SOL     OW  943   0.447   1.989   2.049  0.1922 -0.4439 -0.3058
  315SOL    HW1  944   0.496   1.918   2.099  0.4069  0.1087  0.1441
  315SOL    HW2  945   0.348   1.967   2.038 -0.2979  0.3301 -2.5234
  316SOL     OW  946   0.313   2.325   0.820  0.8985 -0.3436 -0.1916
  316SOL    HW1  947   0.320   2.227   0.795  0.0931  0.4767 -0.8358
  316SOL    HW2  948   0.234   2.362   0.767  0.2310 -0.1209  1.0039
  317SOL     OW  949   1.868   0.122   0.988 -0.0225  0.2483 -0.2194
  317SOL    HW1  950   1.832   0.032   0.948 -0.7096  0.7677 -0.4539
  317SOL    HW2  951   1.958   0.139   0.944 -1.2899  0.3091 -2.4057
  318SOL     OW  952   2.270   2.297   0.180  0.3703 -0.4617 -0.0993
  318SOL    HW1  953   2.218   2.258   0.104  0.1836 -0.0961 -0.9815
  318SOL    HW2  954   2.329   2.223   0.211  0.2684  1.1878 -3.4876
  319SOL     OW  955   1.223   1.740   2.929 -0.3702  0.2851 -0.9764
  319SOL    HW1  956   1.151   1.801   2.976 -2.1840  0.7416  0.6542
  319SOL    HW2  957   1.295   1.796   2.886  0.0457  0.5104  1.0405
  320SOL     OW  958   0.453   2.611   2.316  0.2403  0.1159  0.4444
  320SOL    HW1  959   0.538   2.656   2.336 -5.4087 -1.5543  0.6281
  320SOL    HW2  960   0.429   2.632   2.220  0.8876  0.3309  0.0967
  321SOL     OW  961   1.230   2.392   2.659  0.4613 -0.1495 -0.0002
  321SOL    HW1  962   1.310   2.437   2.619  1.1850  1.7770  3.9691
  321SOL    HW2  963   1.163   2.355   2.589 -0.9608  1.0961  0.1909
  322SOL     OW  964   2.506   0.430   2.395  0.3608 -0.6065  0.5048
  322SOL    HW1  965   2.482   0.360   2.461 -0.4866  1.8369  2.8033
  322SOL    HW2  966   2.604   0.459   2.416 -0.0231 -1.0209 -2.2740
  323SOL     OW  967   2.996   1.273   0.790 -0.6019 -0.1147 -0.3357
  323SOL    HW1  968   2.909   1.224   0.817  1.5049 -0.7673 -1.5013
  323SOL    HW2  969   3.081   1.214   0.776 -0.0001 -1.1609  0.3504
  324SOL     OW  970   0.324   0.928   1.928 -0.5898  0.5855 -0.2903
  324SOL    HW1  971   0.375   0.963   2.011 -0.0653 -0.3961  0.9464
  324SOL    HW2  972   0.235   0.884   1.939 -1.9618  4.0778  0.3604
  325SOL     OW  973   0.286   0.280   2.019 -0.5055  0.0567 -0.1546
  325SOL    HW1  974   0.386   0.293   1.989 -1.3347 -1.7622 -0.7171
  325SOL    HW2  975   0.281   0.268   2.119  1.4425  0.9926 -1.0979
  326SOL     OW  976   2.194   2.550   0.138  0.2265  0.3945  0.5027
  326SOL    HW1  977   2.127   2.556   0.215  2.1417 -1.0285  2.0358
  326SOL    HW2  978   2.237   2.459   0.145 -0.9201  0.2766  0.9281
  327SOL     OW  979   2.232   1.406   0.675 -0.2465  0.3395 -0.3531
  327SOL    HW1  980   2.314   1.417   0.726 -4.4520  0.2271 -0.8210
  327SOL    HW2  981   2.226   1.306   0.643 -0.3040 -1.0581 -0.3947
  328SOL     OW  982   2.962   1.790   2.338 -0.1470  0.2472  0.1706
  328SOL    HW1  983   2.925   1.799   2.433  2.0170 -0.6491  1.0686
  328SOL    HW2  984   3.048   1.840   2.330  1.0965  1.3102 -0.7900
  329SOL     OW  985   0.559   2.039   1.347  0.6740  0.5827 -0.4879
  329SOL    HW1  986   0.561   1.977   1.268 -1.3480  1.6898  1.6961
  329SOL    HW2  987   0.476   2.024   1.407 -2.0085 -0.7884  2.2336
  330SOL     OW  988   2.258   1.494   2.534  0.4308  0.8607 -0.4145
  330SOL    HW1  989   2.198   1.526   2.609 -0.1749  0.3640 -0.7764
  330SOL    HW2  990   2.256   1.392   2.534 -0.1116 -2.1714 -0.3530
  331SOL     OW  991   2.236   2.620   0.923  0.1414  0.0086 -0.1949
  331SOL    HW1  992   2.146   2.652   0.959  0.1376 -1.3871  1.5370
  331SOL    HW2  993   2.228   2.568   0.838  0.0187 -0.0743 -1.0654
  332SOL     OW  994   0.433   3.062   0.849 -0.1143 -0.5420  0.4017
  332SOL    HW1  995   0.331   3.068   0.866 -2.3731 -1.3247 -0.4756
  332SOL    HW2  996   0.458   2.981   0.795  1.3129  1.8641  0.1311
  333SOL     OW  997   2.092   2.210   2.338 -0.3577 -0.5370  0.1919
  333SOL    HW1  998   2.163   2.163   2.281  3.0967  0.6282 -1.8979
  333SOL    HW2  999   2.037   2.275   2.282  3.0140  1.4076 -0.3501
  334SOL     OW 1000   0.588   1.143   0.411 -0.5461 -0.2848  0.2429
  334SOL    HW1 1001   0.628   1.097   0.495 -0.1726 -2.7859  0.9890
  334SOL    HW2 1002   0.656   1.211   0.375  2.5475  0.7492  2.4182
  335SOL     OW 1003   2.848   1.928   2.139 -0.4369 -0.4376  0.1963
  335SOL    HW1 1004   2.909   1.877   2.201 -2.3045  0.2231 -2.4866
  335SOL    HW2 1005   2.814   1.867   2.064 -1.5152 -0.9937  2.2544
  336SOL     OW 1006   2.620   2.757   2.213 -0.4487  0.4809 -0.0297
  336SOL    HW1 1007   2.575   2.838   2.178  1.2313  0.0143 -1.1499
  336SOL    HW2 1008   2.548   2.691   2.245 -0.2637  0.9324 -0.2221
  337SOL     OW 1009   0.751   1.056   0.886  0.0855  0.2121 -0.0603
  337SOL    HW1 1010   0.851   1.026   0.904  4.6723 -1.5886 -0.8083
  337SOL    HW2 1011   0.740   1.147   0.917 -0.7607 -1.0808 -0.3350
  338SOL     OW 1012   1.062   1.654   1.134  0.3586 -0.0787 -0.0962
  338SOL    HW1 1013   1.127   1.576   1.113  0.5047  0.3519 -0.2675
  338SOL    HW2 1014   0.975   1.642   1.080  0.2477 -2.0283  1.6768
  339SOL     OW 1015   0.233   1.638   1.673  0.5524  0.1232  0.3483
  339SOL    HW1 1016   0.328   1.604   1.687  3.7498 -0.1821  0.1856
  339SOL    HW2 1017   0.165   1.562   1.672  3.5330  0.6192 -0.9525
  340SOL     OW 1018   1.082   2.971   1.741  0.4327  0.2011 -0.1551
  340SOL    HW1 1019   1.139   3.048   1.780  0.8014 -0.8395  0.9322
  340SOL    HW2 1020   1.011   2.944   1.814  2.2688 -1.0814  1.3998
  341SOL     OW 1021   1.546   1.669   1.162 -0.1060  0.1067 -0.2651
  341SOL    HW1 1022   1.510   1.645   1.070  0.8456  2.3667  3.2352
  341SOL    HW2 1023   1.612   1.749   1.158 -0.9895  1.0885 -0.1053
  342SOL     OW 1024   2.545   1.374   1.093 -0.5448 -0.2133  0.5721
  342SOL    HW1 1025   2.558   1.394   1.191 -2.9979 -0.6464  0.1321
  342SOL    HW2 1026   2.621   1.418   1.041 -0.4480  3.6288  1.4942
  343SOL     OW 1027   2.569   0.554   1.374 -0.1127 -0.2059  0.4894
  343SOL    HW1 1028   2.516   0.591   1.449 -0.1755 -2.7578 -3.0486
  343SOL    HW2 1029   2.515   0.556   1.290  1.3554 -1.2729  2.2391
  344SOL     OW 1030   1.893   3.050   0.718  0.1532  0.4010  0.3917
  344SOL    HW1 1031   1.802   3.052   0.663 -1.3626  0.3134  0.0465
  344SOL    HW2 1032   1.943   0.044   0.709  1.1527  1.5620 -0.2056
  345SOL     OW 1033   0.669   2.892   2.254 -0.0480 -0.2804 -0.2506
  345SOL    HW1 1034   0.601   2.895   2.331 -0.3884 -1.5208  2.9468
  345SOL    HW2 1035   0.645   2.962   2.184 -1.1367  0.1926  1.7094
  346SOL     OW 1036   2.789   2.057   0.807  0.2809 -0.4234 -0.7086
  346SOL    HW1 1037   2.734   2.139   0.839 -1.5518 -0.1870 -0.2863
  346SOL    HW2 1038   2.724   1.987   0.765 -1.8875  1.1075 -0.0530
  347SOL     OW 1039   1.892   0.090   1.497 -0.2428  0.4637 -0.1736
  347SOL    HW1 1040   1.971   0.079   1.562  0.5366 -3.5358  1.2843
  347SOL    HW2 1041   1.823   0.012   1.495 -2.0917 -1.0214  1.2476
  348SOL     OW 1042   0.972   1.223   1.517  0.0839 -0.1930 -0.8002
  348SOL    HW1 1043   0.873   1.223   1.544 -1.8457 -0.7037  1.4025
  348SOL    HW2 1044   1.012   1.309   1.556 -1.7440 -0.1139  1.0827
  349SOL     OW 1045   2.344   0.391   1.708 -0.1553 -0.2393  0.4421
  349SOL    HW1 1046   2.255   0.434   1.677 -1.7720 -1.5355 -4.7791
  349SOL    HW2 1047   2.413   0.375   1.632  1.3405 -3.0932 -1.6858
  350SOL     OW 1048   2.093   2.301   0.386 -0.4086 -0.1698  0.7525
  350SOL    HW1 1049   2.064   2.400   0.391 -0.1442 -3.1963  0.7518
  350SOL    HW2 1050   2.167   2.289   0.315  0.5703  3.5520 -1.4666
  351SOL     OW 1051   1.060   0.355   2.555  0.6445 -0.1746 -0.0399
  351SOL    HW1 1052   0.966   0.328   2.527 -1.9630  0.7287  0.6622
  351SOL    HW2 1053   1.071   0.348   2.655 -0.4799 -0.9580 -1.2754
  352SOL     OW 1054   2.197   2.517   1.783  0.2974 -0.0755  0.2448
  352SOL    HW1 1055   2.170   2.434   1.839  0.3936 -1.3326  0.8739
  352SOL    HW2 1056   2.161   2.503   1.686  0.0940  2.0025 -0.3336
  353SOL     OW 1057   0.589   0.836   2.452 -0.4447 -0.4313 -0.2622
  353SOL    HW1 1058   0.522   0.761   2.452  0.6149 -0.4386 -1.0322
  353SOL    HW2 1059   0.684   0.806   2.438  2.6191 -0.6128  0.0716
  354SOL     OW 1060   0.419   2.577   2.623  0.4002 -0.4908  0.5211
  354SOL    HW1 1061   0.410   2.579   2.519  0.3860 -0.1890  0.3015
  354SOL    HW2 1062   0.337   2.621   2.664 -0.4481  3.0712 -0.3312
  355SOL     OW 1063   1.968   2.716   0.982  0.1036 -0.2388 -0.4054
  355SOL    HW1 1064   1.992   2.766   1.070 -0.5011  0.0952  2.4002
  355SOL    HW2 1065   1.895   2.646   0.989  0.5379  1.4195  0.1523
  356SOL     OW 1066   2.644   0.811   0.339  0.3322 -0.1133  0.3062
  356SOL    HW1 1067   2.613   0.898   0.293  0.2851  1.3554 -1.3006
  356SOL    HW2 1068   2.575   0.776   0.406  0.1174  1.3584  0.7518
  357SOL     OW 1069   0.001   0.115   1.757  0.3560  0.2847  0.3088
  357SOL    HW1 1070   0.021   0.208   1.804  3.5734  0.5419  0.2959
  357SOL    HW2 1071   3.050   0.044   1.812  1.2073  2.0970  1.3737
  358SOL     OW 1072   0.078   1.649   1.045 -0.2619  0.1526  0.7387
  358SOL    HW1 1073   0.029   1.614   0.963 -1.6753  1.5078  3.2134
  358SOL    HW2 1074   0.025   1.727   1.081 -0.6761  0.2250  1.0567
  359SOL     OW 1075   2.773   0.250   2.953  0.5048 -0.0051 -0.4007
  359SOL    HW1 1076   2.872   0.247   2.975 -3.4200 -0.9529  1.8012
  359SOL    HW2 1077   2.712   0.228   3.034 -2.3235  1.5681  1.1949
  360SOL     OW 1078   1.183   0.877   1.055  0.4087 -0.0482 -0.2403
  360SOL    HW1 1079   1.239   0.796   1.022  2.9863  2.3051 -1.4949
  360SOL    HW2 1080   1.202   0.897   1.154  0.9663 -1.2955  1.6070
  361SOL     OW 1081   2.685   2.709   1.316 -0.0060  0.0410  0.0272
  361SOL    HW1 1082   2.783   2.700   1.340  0.4212  1.8933  1.9804
  361SOL    HW2 1083   2.647   2.618   1.297 -2.2950 -1.6327  1.7188
  362SOL     OW 1084   1.227   0.153   0.995 -0.2956 -0.1687 -0.3067
  362SOL    HW1 1085   1.306   0.211   0.980 -0.9523 -3.1832  0.6393
  362SOL    HW2 1086   1.252   0.058   0.977 -1.0997 -0.3276  0.1185
  363SOL     OW 1087   1.992   1.522   0.738 -0.1268  0.1233 -0.0726
  363SOL    HW1 1088   2.082   1.477   0.720 -1.4828 -1.6476 -0.2152
  363SOL    HW2 1089   1.917   1.452   0.727 -0.6652  1.5971 -0.5984
  364SOL     OW 1090   0.846   0.832   1.680 -0.7016  0.0783 -0.4312
  364SOL    HW1 1091   0.950   0.825   1.681 -1.6546 -0.9458 -1.5051
  364SOL    HW2 1092   0.808   0.802   1.591  3.2137  0.5231 -0.9131
  365SOL     OW 1093   0.070   0.182   1.104 -0.2644  0.1023  0.5247
  365SOL    HW1 1094   0.158   0.142   1.072 -1.3380 -0.5943 -1.1727
  365SOL    HW2 1095   0.085   0.254   1.175  0.7439 -1.8214 -1.3418
  366SOL     OW 1096   3.036   1.038   0.493  0.0301 -0.4750  0.0572
  366SOL    HW1 1097   2.940   1.041   0.532  2.5257 -0.4551  3.1046
  366SOL    HW2 1098   3.058   1.131   0.452  0.0819 -1.4285 -2.2065
  367SOL     OW 1099   2.284   1.831   2.310  0.7656  0.0767  0.3505
  367SOL    HW1 1100   2.218   1.801   2.386 -1.1756  0.2651  0.6627
  367SOL    HW2 1101   2.270   1.928   2.291  1.3178 -2.0184 -1.2276
  368SOL     OW 1102   2.480   1.782   0.957 -0.1642  0.2418 -0.1756
  368SOL    HW1 1103   2.557   1.752   1.012  0.0364 -1.3089  0.2979
  368SOL    HW2 1104   2.411   1.705   0.938 -0.3350 -2.6070  0.3123
  369SOL     OW 1105   2.172   0.399   2.869  0.2351  0.9346 -0.1387
  369SOL    HW1 1106   2.076   0.424   2.846 -1.0258  0.1756 -2.5064
  369SOL    HW2 1107   2.175   0.358   2.966 -1.1635  1.8084  0.6815
  370SOL     OW 1108   0.761   0.436   1.160 -0.4036  0.1217 -0.2667
  370SOL    HW1 1109   0.777   0.351   1.100  1.6591 -1.5089  1.1990
  370SOL    HW2 1110   0.767   0.519   1.098 -0.8115  0.6246 -0.7961
  371SOL     OW 1111   0.196   1.735   0.063  0.4392 -0.2259 -0.0213
  371SOL    HW1 1112   0.207   1.644   0.018  1.5926  0.9285  1.5019
  371SOL    HW2 1113   0.256   1.810   0.027 -0.8628  0.8815  3.1472
  372SOL     OW 1114   0.720   0.568   2.289  0.7534  0.1433  0.1198
  372SOL    HW1 1115   0.741   0.478   2.338  1.6420 -1.4931  1.2971
  372SOL    HW2 1116   0.738   0.644   2.355  1.6011  2.0103 -1.2852
  373SOL     OW 1117   1.000   2.822   2.933  0.0329  0.5460  0.4677
  373SOL    HW1 1118   1.002   2.890   3.005  0.0978  0.9037  0.7369
  373SOL    HW2 1119   0.994   2.879   2.847 -0.6740  3.4312  0.3986
  374SOL     OW 1120   0.854   1.850   0.191 -0.6329  0.7845  0.5008
  374SOL    HW1 1121   0.889   1.900   0.275 -2.5611  2.7887  0.1702
  374SOL    HW2 1122   0.871   1.750   0.192 -0.1692 -1.8495  1.5190
  375SOL     OW 1123   1.072   0.738   1.958 -0.2426 -0.4906 -0.5868
  375SOL    HW1 1124   0.979   0.730   1.994  0.6723 -0.9142 -3.1032
  375SOL    HW2 1125   1.136   0.686   2.021  2.1032 -1.8919 -0.9267
  376SOL     OW 1126   2.948   2.611   1.865 -0.4413  0.3676 -0.4673
  376SOL    HW1 1127   2.897   2.597   1.952  1.5494  2.3299  0.3169
  376SOL    HW2 1128   3.010   2.695   1.869  2.4192  1.0166 -1.1302
  377SOL     OW 1129   2.630   1.686   2.956 -0.1376  0.6765  0.0361
  377SOL    HW1 1130   2.625   1.706   2.857  1.8372 -0.0756  1.6756
  377SOL    HW2 1131   2.567   1.610   2.980 -1.3785 -2.1972  0.0407
  378SOL     OW 1132   2.303   0.180   3.026 -0.0108 -0.1087 -0.2413
  378SOL    HW1 1133   2.304   0.087   3.071 -0.2230 -1.2773 -0.6514
  378SOL    HW2 1134   2.369   0.238   3.074  2.5872  1.6852 -0.0414
  379SOL     OW 1135   1.824   0.680   0.607  0.0748 -0.7237 -0.2197
  379SOL    HW1 1136   1.770   0.663   0.692 -1.7607 -0.4650 -1.8393
  379SOL    HW2 1137   1.890   0.605   0.590 -2.7539 -0.1454 -2.0000
  380SOL     OW 1138   2.508   1.983   1.815 -0.5854  0.2154 -0.5766
  380SOL    HW1 1139   2.429   2.046   1.834  0.1913  0.6474 -1.1184
  380SOL    HW2 1140   2.596   2.029   1.843 -0.8724  0.8667  2.7376
  381SOL     OW 1141   2.529   1.483   2.560  0.2686  0.5120 -0.0068
  381SOL    HW1 1142   2.588   1.520   2.488  0.6260 -2.9227  1.8632
  381SOL    HW2 1143   2.434   1.513   2.551  1.6570 -1.1559  0.1256
  382SOL     OW 1144   2.869   2.567   2.609  0.3293  0.0923 -0.4013
  382SOL    HW1 1145   2.851   2.648   2.553 -0.4825  1.7103 -1.7366
  382SOL    HW2 1146   2.818   2.491   2.566 -0.7498 -0.2703 -2.1004
  383SOL     OW 1147   0.835   1.453   2.889  0.7162  0.1216  0.1036
  383SOL    HW1 1148   0.875   1.543   2.898 -1.4053 -2.4456 -1.0299
  383SOL    HW2 1149   0.759   1.447   2.816 -2.4415 -0.6723 -1.5425
  384SOL     OW 1150   1.604   2.020   1.862  0.9308  0.0967  1.1242
  384SOL    HW1 1151   1.586   1.942   1.925  2.2799  3.0926 -3.5218
  384SOL    HW2 1152   1.689   2.062   1.898 -1.8780  0.5485 -0.1302
  385SOL     OW 1153   1.754   2.732   0.625  0.2705 -0.5171  0.0094
  385SOL    HW1 1154   1.731   2.801   0.694  0.7033  2.0781  1.5327
  385SOL    HW2 1155   1.767   2.779   0.535 -0.4338  0.4975 -0.8344
  386SOL     OW 1156   1.950   1.234   0.503 -0.0730  0.0371 -0.1824
  386SOL    HW1 1157   1.985   1.321   0.458 -0.3538  2.9150 -1.3595
  386SOL    HW2 1158   1.923   1.260   0.601 -1.4356  1.6954 -0.6558
  387SOL     OW 1159   3.016   2.142   1.564 -0.1625 -0.3427  0.4060
  387SOL    HW1 1160   3.012   2.114   1.660  0.9545  0.7258 -1.1335
  387SOL    HW2 1161   2.956   2.223   1.544 -0.3745  2.0825 -1.3564
  388SOL     OW 1162   3.091   1.071   1.589 -0.1727 -0.7075  0.1253
  388SOL    HW1 1163   0.056   1.131   1.531  1.2191 -1.7853  0.0268
  388SOL    HW2 1164   0.024   0.972   1.576  1.1914 -1.9841  1.4161
  389SOL     OW 1165   1.813   0.352   2.894  0.6052  0.6683  0.1366
  389SOL    HW1 1166   1.750   0.275   2.866 -0.4111 -1.0084 -0.4658
  389SOL    HW2 1167   1.805   0.381   2.989  0.4456 -1.3253 -1.0735
  390SOL     OW 1168   0.840   1.792   2.927  0.1568  0.0923  0.1184
  390SOL    HW1 1169   0.747   1.793   2.972  0.9927 -2.0581  0.0944
  390SOL    HW2 1170   0.908   1.844   2.985 -0.2743  0.5864 -0.3595
  391SOL     OW 1171   1.158   2.164   3.079 -0.3181 -0.9636  0.1978
  391SOL    HW1 1172   1.257   2.163   3.090 -0.0471 -0.0813  0.7044
  391SOL    HW2 1173   1.124   2.247   0.025  3.0014  0.0450  0.2079
  392SOL     OW 1174   0.210   2.469   2.094  0.4996 -0.7217 -0.2793
  392SOL    HW1 1175   0.164   2.557   2.084 -0.8819  1.3139 -1.6056
  392SOL    HW2 1176   0.248   2.452   2.188 -0.7788  4.0181 -1.1847
  393SOL     OW 1177   1.467   2.174   0.300 -0.1333  0.1762 -0.2084
  393SOL    HW1 1178   1.567   2.163   0.316  1.3747 -0.0639 -0.0253
  393SOL    HW2 1179   1.449   2.130   0.212 -2.3295  0.8688  1.8455
  394SOL     OW 1180   0.419   0.422   2.420 -0.1071 -0.3020  0.1538
  394SOL    HW1 1181   0.446   0.440   2.320  0.2026  1.7863  0.4444
  394SOL    HW2 1182   0.460   0.497   2.480 -1.8490  0.7172  0.0078
  395SOL     OW 1183   0.566   1.238   1.310  0.0919  0.2050  0.3770
  395SOL    HW1 1184   0.593   1.288   1.393 -0.6053  1.0511  1.0800
  395SOL    HW2 1185   0.508   1.281   1.236 -0.2928  1.1855 -3.2844
  396SOL     OW 1186   1.900   1.174   2.613 -0.2815 -0.0648 -0.4180
  396SOL    HW1 1187   1.984   1.184   2.553 -3.0750 -1.4120 -0.9323
  396SOL    HW2 1188   1.927   1.149   2.707 -0.9159  1.2053  3.1047
  397SOL     OW 1189   0.592   0.455   0.056 -0.6438  0.6193  0.2752
  397SOL    HW1 1190   0.577   0.549   0.016 -0.5301  2.8827 -1.4364
  397SOL    HW2 1191   0.543   0.445   0.145 -0.6279  0.5834  1.0864
  398SOL     OW 1192   1.132   2.464   0.040  0.1625  0.2888 -0.4114
  398SOL    HW1 1193   1.072   2.491   3.064  2.8295  2.4013  1.2832
  398SOL    HW2 1194   1.135   2.533   0.119  1.3702  0.6964  0.0662
  399SOL     OW 1195   1.830   2.144   1.973  0.1200 -0.1005 -0.1879
  399SOL    HW1 1196   1.905   2.073   1.969  1.4475 -2.1420 -2.1930
  399SOL    HW2 1197   1.844   2.221   1.906 -0.0331  0.5489 -0.9812
  400SOL     OW 1198   2.071   1.008   1.553 -0.1188  0.1142  0.3145
  400SOL    HW1 1199   1.975   1.032   1.517  1.3267  0.6760  2.3269
  400SOL    HW2 1200   2.117   1.099   1.559  0.4813 -1.5202  0.9837
  401SOL     OW 1201   1.403   1.161   0.865 -0.0348  0.3499  0.0365
  401SOL    HW1 1202   1.314   1.208   0.841 -0.1695 -0.4183 -2.9117
  401SOL    HW2 1203   1.395   1.107   0.953 -0.4579  0.3495  3.7195
  402SOL     OW 1204   3.061   2.869   2.484  0.1631  0.3412 -0.7720
  402SOL    HW1 1205   3.074   2.895   2.580 -0.4961  0.3786  0.3752
  402SOL    HW2 1206   0.051   2.869   2.432  0.2228  0.9699  2.1098
  403SOL     OW 1207   2.511   1.862   1.574 -0.0405  0.1887 -0.4026
  403SOL    HW1 1208   2.517   1.916   1.664 -1.4332  1.3892  1.6055
  403SOL    HW2 1209   2.549   1.914   1.493 -2.1941  0.4310 -0.8664
  404SOL     OW 1210   2.055   1.738   1.533 -0.0599 -0.1808  0.4656
  404SOL    HW1 1211   2.109   1.784   1.454  0.8284  2.6601 -0.2655
  404SOL    HW2 1212   1.984   1.674   1.496 -2.2842 -0.0671  0.1449
  405SOL     OW 1213   2.644   0.410   2.798 -0.0930 -0.0850  0.7742
  405SOL    HW1 1214   2.699   0.340   2.844 -3.6610  0.5293  0.7351
  405SOL    HW2 1215   2.705   0.492   2.783  1.8415  0.9590 -0.6982
  406SOL     OW 1216   0.838   1.519   2.392  0.4214  0.0866  0.1764
  406SOL    HW1 1217   0.857   1.608   2.442 -1.7912  1.5354  0.2312
  406SOL    HW2 1218   0.822   1.440   2.452  1.9397  0.4406 -0.8377
  407SOL     OW 1219   2.018   2.567   0.361  0.2470 -0.0782 -0.0464
  407SOL    HW1 1220   2.041   2.634   0.436  1.9094  1.3206 -0.4067
  407SOL    HW2 1221   1.918   2.572   0.334 -2.4636 -0.3775  0.2768
  408SOL     OW 1222   0.167   3.060   0.897  0.4202  0.0573 -0.4026
  408SOL    HW1 1223   0.124   0.052   0.864  0.2715  1.0613 -0.3802
  408SOL    HW2 1224   0.097   2.992   0.901 -1.1014  0.3688  1.3175
  409SOL     OW 1225   2.249   1.680   0.836  0.3030  0.5571 -0.2140
  409SOL    HW1 1226   2.172   1.749   0.834  1.4066 -1.1434 -0.0826
  409SOL    HW2 1227   2.249   1.613   0.759 -1.5312  0.3866  1.0440
  410SOL     OW 1228   2.229   2.307   2.860 -0.0052  0.7632 -0.2094
  410SOL    HW1 1229   2.314   2.340   2.909  2.6140 -0.1711  1.2954
  410SOL    HW2 1230   2.258   2.272   2.769 -0.8154 -2.0147  1.1295
  411SOL     OW 1231   0.219   2.982   0.624 -0.3278  0.7615  0.2876
  411SOL    HW1 1232   0.303   3.009   0.569  3.4616 -0.1657  2.0472
  411SOL    HW2 1233   0.230   2.973   0.725 -0.4746  3.0528 -0.1463
  412SOL     OW 1234   1.312   2.624   0.360  0.6263 -0.2723  0.1484
  412SOL    HW1 1235   1.369   2.708   0.332 -1.4185  1.1779 -0.2905
  412SOL    HW2 1236   1.361   2.553   0.414 -2.3697 -3.1474 -0.1303
  413SOL     OW 1237   2.096   0.527   2.297  0.4083  0.5126 -0.0953
  413SOL    HW1 1238   2.002   0.567   2.279  0.3117  2.6615 -0.8041
  413SOL    HW2 1239   2.102   0.476   2.387 -0.7446 -0.9966  3.0166
  414SOL     OW 1240   0.132   0.554   0.538 -0.1129 -0.5295 -0.5950
  414SOL    HW1 1241   0.158   0.525   0.444 -0.7578  0.7181  3.9666
  414SOL    HW2 1242   0.208   0.550   0.607  0.0944  0.8704  0.4004
  415SOL     OW 1243   0.105   1.250   1.430  0.3223 -0.0728  0.3875
  415SOL    HW1 1244   0.113   1.212   1.333  1.0519 -0.5404 -0.1376
  415SOL    HW2 1245   0.198   1.256   1.473  1.9677  0.6089 -0.7553
  416SOL     OW 1246   0.180   2.773   0.290 -0.5815 -0.1423  0.2817
  416SOL    HW1 1247   0.248   2.838   0.324 -1.0126 -1.9607  0.6472
  416SOL    HW2 1248   0.160   2.708   0.368 -1.1416 -1.6533  2.0793
  417SOL     OW 1249   1.861   0.361   0.734  0.2416 -0.1407  0.3888
  417SOL    HW1 1250   1.934   0.295   0.716  2.0072  0.4113 -0.8302
  417SOL    HW2 1251   1.875   0.409   0.823 -2.7772 -0.8105 -0.1659
  418SOL     OW 1252   0.482   0.590   2.636  0.4083  0.4037  0.2129
  418SOL    HW1 1253   0.577   0.570   2.664 -0.9577  0.7049 -1.9617
  418SOL    HW2 1254   0.430   0.618   2.719  1.9386  0.9704 -1.5869
  419SOL     OW 1255   0.368   0.986   0.728 -0.0201  0.0528 -0.0809
  419SOL    HW1 1256   0.418   0.901   0.702  0.9520  3.6413  1.1786
  419SOL    HW2 1257   0.365   0.990   0.830 -0.7188 -2.1874  1.3975
  420SOL     OW 1258   2.122   1.971   0.945  0.0679  0.6815 -0.4098
  420SOL    HW1 1259   2.108   2.061   0.906  2.5302 -0.1518 -1.5504
  420SOL    HW2 1260   2.047   1.905   0.921  0.8854 -1.3587  0.6819
  421SOL     OW 1261   1.706   2.170   2.628  0.1898 -0.2101  0.3188
  421SOL    HW1 1262   1.708   2.164   2.730 -2.0420  0.8723 -2.6929
  421SOL    HW2 1263   1.612   2.174   2.590  0.1121 -0.9438 -1.7008
  422SOL     OW 1264   2.972   0.414   0.040 -0.3828  0.3967 -0.0093
  422SOL    HW1 1265   2.896   0.458   3.090  0.5258 -0.7316  2.2869
  422SOL    HW2 1266   2.943   0.383   0.132  3.5179  0.9665 -2.0827
  423SOL     OW 1267   1.710   1.782   0.816  0.6235  0.2650  0.3670
  423SOL    HW1 1268   1.769   1.800   0.895 -3.3844  3.2503  0.6571
  423SOL    HW2 1269   1.764   1.760   0.732 -0.8305  1.5989  1.7341
  424SOL     OW 1270   0.335   1.301   1.583 -0.2350  0.0977  0.2870
  424SOL    HW1 1271   0.407   1.374   1.580 -0.2729  0.4935  0.7676
  424SOL    HW2 1272   0.314   1.286   1.683 -1.2252  2.9184 -0.9785
  425SOL     OW 1273   2.549   2.764   1.763 -0.3076 -0.6861 -0.7947
  425SOL    HW1 1274   2.547   2.668   1.785  0.5135 -1.9641  1.2224
  425SOL    HW2 1275   2.459   2.802   1.798  1.5478 -2.0021 -1.0803
  426SOL     OW 1276   1.843   2.814   0.361  0.6278  0.1344  0.3770
  426SOL    HW1 1277   1.942   2.827   0.353 -0.8345 -0.9525 -2.4981
  426SOL    HW2 1278   1.814   2.720   0.331 -0.2391 -1.3340  2.0596
  427SOL     OW 1279   0.304   0.666   2.819 -0.2296 -0.0411  0.2024
  427SOL    HW1 1280   0.358   0.733   2.882  3.0122  3.1366  0.4437
  427SOL    HW2 1281   0.207   0.648   2.851 -1.4627  0.3846 -0.3834
  428SOL     OW 1282   2.039   0.871   0.031  0.1719  0.2760 -0.5682
  428SOL    HW1 1283   2.001   0.963   0.056 -0.7557  0.5665 -0.8074
  428SOL    HW2 1284   2.088   0.869   3.041 -0.0286 -1.6797  0.1012
  429SOL     OW 1285   2.795   0.289   0.568  0.0805  0.1217  0.2036
  429SOL    HW1 1286   2.804   0.195   0.604 -0.6866 -0.5206 -0.5187
  429SOL    HW2 1287   2.825   0.364   0.633  0.1236  1.1502 -1.0397
  430SOL     OW 1288   1.191   2.944   2.055  1.0040  0.3369 -0.1830
  430SOL    HW1 1289   1.094   2.945   2.020  3.4031  0.5685  1.8874
  430SOL    HW2 1290   1.252   2.884   1.999 -1.2831  1.7757  0.5918
  431SOL     OW 1291   0.163   1.861   1.297  0.4587 -0.2836  0.1270
  431SOL    HW1 1292   0.099   1.884   1.371  1.2722 -1.1579  1.1540
  431SOL    HW2 1293   0.204   1.767   1.299  1.6550 -0.7129 -1.1925
  432SOL     OW 1294   2.201   2.940   1.602 -0.0579 -0.0270 -0.2602
  432SOL    HW1 1295   2.102   2.939   1.624 -0.2320  3.4881 -0.5087
  432SOL    HW2 1296   2.225   2.958   1.503  0.2360  0.7921 -2.0431
  433SOL     OW 1297   1.095   2.241   0.296  0.4565  0.1356  0.1863
  433SOL    HW1 1298   1.084   2.217   0.395 -0.2658 -0.3367 -0.4359
  433SOL    HW2 1299   1.184   2.290   0.285 -0.9494  1.1353  0.5566
  434SOL     OW 1300   2.910   2.460   2.280 -0.7100  0.5367 -0.5679
  434SOL    HW1 1301   2.987   2.415   2.325 -3.0256  0.7112  0.2450
  434SOL    HW2 1302   2.841   2.478   2.352 -1.2633 -0.7599 -0.9934
  435SOL     OW 1303   0.466   0.733   0.693 -0.3714 -0.3424 -0.2653
  435SOL    HW1 1304   0.411   0.649   0.712  0.7938 -0.9056 -0.0580
  435SOL    HW2 1305   0.565   0.704   0.716  2.9879 -0.0948  1.6259
  436SOL     OW 1306   0.365   2.552   1.820 -0.2701 -0.3341 -0.3128
  436SOL    HW1 1307   0.305   2.487   1.770 -1.7487 -1.3142  1.0523
  436SOL    HW2 1308   0.464   2.518   1.806  0.8098  0.0608  1.2673
  437SOL     OW 1309   1.134   1.875   1.575 -0.3609  0.5817  0.1562
  437SOL    HW1 1310   1.112   1.972   1.584 -1.3854 -2.0956  1.7340
  437SOL    HW2 1311   1.226   1.856   1.612  3.0121 -1.5880  0.8574
  438SOL     OW 1312   0.070   2.229   0.478  0.1262  0.5463  0.3151
  438SOL    HW1 1313   0.107   2.184   0.394 -0.8687 -1.3533  0.3241
  438SOL    HW2 1314   3.093   2.170   0.521 -0.4710 -0.2324  0.6320
  439SOL     OW 1315   0.342   0.162   1.123 -0.0747 -0.6474  0.6142
  439SOL    HW1 1316   0.428   0.111   1.100 -0.6279 -1.3110 -5.0560
  439SOL    HW2 1317   0.358   0.222   1.205  0.7742  0.2098 -0.7527
  440SOL     OW 1318   2.809   2.595   2.082 -0.2099  0.0620  0.6416
  440SOL    HW1 1319   2.839   2.526   2.151 -1.6284 -1.7374  1.3359
  440SOL    HW2 1320   2.731   2.650   2.112  3.8119 -2.6842 -0.6677
  441SOL     OW 1321   2.898   0.610   1.684  0.1617 -0.2348 -0.2795
  441SOL    HW1 1322   2.843   0.530   1.699  2.2539 -1.2372  1.1290
  441SOL    HW2 1323   2.869   0.694   1.735  0.4175 -2.3754 -0.2170
  442SOL     OW 1324   1.777   2.449   0.057  0.2554 -0.2461  0.0145
  442SOL    HW1 1325   1.839   2.519   0.022 -0.6756  1.7204  1.2712
  442SOL    HW2 1326   1.678   2.470   0.027 -1.2325  3.3150 -0.3930
  443SOL     OW 1327   0.388   1.105   0.060  0.1133 -0.1084  0.0402
  443SOL    HW1 1328   0.383   1.083   0.160 -1.9641  2.0841 -0.3265
  443SOL    HW2 1329   0.378   1.205   0.052  1.1487  0.0866  0.4609
  444SOL     OW 1330   1.462   1.591   2.364  0.0676  0.3102  0.1360
  444SOL    HW1 1331   1.558   1.549   2.365  0.6875 -1.0906  1.4398
  444SOL    HW2 1332   1.426   1.595   2.269  3.7856  0.7531 -0.5744
  445SOL     OW 1333   0.302   2.409   1.090  0.4188  0.2244 -0.5904
  445SOL    HW1 1334   0.348   2.500   1.091  2.6089  0.1199  1.0405
  445SOL    HW2 1335   0.293   2.376   0.990 -1.3337  0.1191 -0.7906
  446SOL     OW 1336   2.366   1.391   1.444  0.1118 -0.0283 -0.0971
  446SOL    HW1 1337   2.390   1.300   1.405  0.5334  1.0391 -0.3361
  446SOL    HW2 1338   2.331   1.445   1.367  0.1724  1.6811 -1.8243
  447SOL     OW 1339   0.204   0.677   0.136 -0.3063 -0.4707 -0.0043
  447SOL    HW1 1340   0.177   0.770   0.159  0.4978 -1.2519 -1.5409
  447SOL    HW2 1341   0.180   0.661   0.035  0.3395  0.9717  1.0071
  448SOL     OW 1342   1.451   2.261   1.812 -0.1988  0.0836  0.9384
  448SOL    HW1 1343   1.450   2.231   1.713  0.1751  1.2549  2.3081
  448SOL    HW2 1344   1.527   2.216   1.869  0.1973 -1.6618 -0.2024
  449SOL     OW 1345   1.247   1.168   0.252  0.1956 -0.4293  0.2388
  449SOL    HW1 1346   1.177   1.172   0.177  0.6143 -1.1041  1.0419
  449SOL    HW2 1347   1.327   1.227   0.236 -0.7271 -0.4642  0.1575
  450SOL     OW 1348   2.993   1.990   1.810  0.2639 -0.0487  0.4804
  450SOL    HW1 1349   3.011   1.891   1.788 -0.7729 -2.9894  0.3950
  450SOL    HW2 1350   3.067   2.019   1.869  0.3155  0.6703 -1.9227
  451SOL     OW 1351   2.830   1.266   2.809  0.1276 -0.0804  0.0246
  451SOL    HW1 1352   2.889   1.338   2.770 -1.3784  1.0763  0.2078
  451SOL    HW2 1353   2.863   1.224   2.897  0.9924 -0.7453  0.4412
  452SOL     OW 1354   1.540   0.734   1.082  0.3118  0.4977 -0.1493
  452SOL    HW1 1355   1.456   0.690   1.050 -0.0552 -0.2334  1.6578
  452SOL    HW2 1356   1.567   0.704   1.178  1.4965  2.3007 -0.7781
  453SOL     OW 1357   1.587   0.943   1.363  0.1793 -0.2206 -0.5009
  453SOL    HW1 1358   1.592   0.849   1.399  1.0033  3.8632  0.4128
  453SOL    HW2 1359   1.584   1.004   1.447 -2.0940 -2.0477  3.9859
  454SOL     OW 1360   0.046   0.850   0.646  0.1088  0.2475  0.3132
  454SOL    HW1 1361   3.078   0.769   0.654 -0.7332  1.0381  2.8484
  454SOL    HW2 1362   0.002   0.932   0.601  0.7509 -1.2114 -1.6206
  455SOL     OW 1363   2.433   2.726   1.069 -0.0257 -0.1111 -0.1408
  455SOL    HW1 1364   2.518   2.667   1.066  0.7996  0.8939 -0.7628
  455SOL    HW2 1365   2.356   2.698   1.007 -1.1865 -0.3291 -0.0203
  456SOL     OW 1366   0.450   2.680   1.101  0.1944 -0.1770 -0.3871
  456SOL    HW1 1367   0.486   2.671   1.199  1.4359  0.0405  0.5992
  456SOL    HW2 1368   0.376   2.747   1.105  0.0987 -0.6615  0.9199
  457SOL     OW 1369   1.671   0.003   0.567 -0.1025  0.3513 -0.9173
  457SOL    HW1 1370   1.572   3.074   0.602  2.0487 -0.2194  2.3614
  457SOL    HW2 1371   1.685   3.068   0.470  1.2724  1.7175 -2.3958
  458SOL     OW 1372   2.658   0.312   1.082 -0.4106 -0.3765 -0.5185
  458SOL    HW1 1373   2.648   0.222   1.033 -0.1849  0.9214 -0.3645
  458SOL    HW2 1374   2.703   0.295   1.171 -1.3625  3.7577  0.5323
  459SOL     OW 1375   2.212   0.686   2.932 -0.3335 -0.9308  0.1560
  459SOL    HW1 1376   2.114   0.657   2.924  1.2909  0.1003  1.9365
  459SOL    HW2 1377   2.269   0.612   2.893 -3.0540  1.8865 -1.0320
  460SOL     OW 1378   2.627   2.504   2.825  0.7040  0.2785  0.6083
  460SOL    HW1 1379   2.583   2.519   2.735 -0.1869 -2.8946 -0.2562
  460SOL    HW2 1380   2.692   2.578   2.841 -1.6849 -0.0611  1.5505
  461SOL     OW 1381   0.567   1.946   0.413 -0.7979 -0.8925 -0.0599
  461SOL    HW1 1382   0.644   2.015   0.418 -3.0414 -2.4131  0.7898
  461SOL    HW2 1383   0.605   1.859   0.384  1.1223  0.7705  0.5798
  462SOL     OW 1384   2.363   2.326   0.823 -0.5376 -0.1553  0.0772
  462SOL    HW1 1385   2.322   2.342   0.913 -0.7260 -1.8390 -2.4862
  462SOL    HW2 1386   2.343   2.406   0.759 -0.0417  0.7293 -1.0904
  463SOL     OW 1387   2.987   0.637   0.590  0.0042 -0.3363 -0.0271
  463SOL    HW1 1388   2.943   0.558   0.644  1.0581 -3.2026 -2.4536
  463SOL    HW2 1389   3.079   0.610   0.551  0.9950  1.9836 -2.0756
  464SOL     OW 1390   1.192   2.925   0.683  0.4178  0.4033  0.0478
  464SOL    HW1 1391   1.132   2.978   0.618  1.0072 -1.3097 -0.7113
  464SOL    HW2 1392   1.166   2.825   0.680 -0.3388 -1.3458 -1.7098
  465SOL     OW 1393   2.221   1.144   0.547  0.2155 -0.0088  0.3454
  465SOL    HW1 1394   2.197   1.081   0.619  1.0666  2.7051 -1.2506
  465SOL    HW2 1395   2.146   1.150   0.479  0.4858 -0.8624  1.2959
  466SOL     OW 1396   2.416   2.998   2.937  0.0771  0.6390  0.2692
  466SOL    HW1 1397   2.372   3.071   2.876  0.7857  3.1683  0.1365
  466SOL    HW2 1398   2.365   2.988   3.029 -0.0118 -0.3233  2.0105
  467SOL     OW 1399   0.966   1.033   1.332 -0.5137  0.4184 -0.4053
  467SOL    HW1 1400   0.984   1.077   1.424 -0.9656 -0.9443  0.8894
  467SOL    HW2 1401   1.050   0.982   1.300  1.6876  0.6135 -1.2603
  468SOL     OW 1402   0.363   0.732   2.322 -0.6305  0.1957 -0.0552
  468SOL    HW1 1403   0.330   0.658   2.257 -1.5830  3.0696  0.1272
  468SOL    HW2 1404   0.297   0.736   2.399 -0.6705 -0.1024 -0.0033
  469SOL     OW 1405   0.638   2.907   2.752 -0.1861  0.0726 -0.0025
  469SOL    HW1 1406   0.641   2.805   2.766 -0.5237  0.0662  2.2241
  469SOL    HW2 1407   0.702   2.946   2.820  0.0016  2.8704 -1.0336
  470SOL     OW 1408   2.344   1.148   2.854 -0.7067 -0.4932  0.0237
  470SOL    HW1 1409   2.383   1.103   2.940 -0.2855 -0.9781  2.1274
  470SOL    HW2 1410   2.395   1.233   2.847 -0.8085 -0.6519 -0.5116
  471SOL     OW 1411   2.735   1.088   2.635  0.4782  0.0326 -0.4762
  471SOL    HW1 1412   2.807   1.053   2.574  0.7511  1.9347 -0.4349
  471SOL    HW2 1413   2.769   1.167   2.687 -2.4385 -3.4378  0.1548
  472SOL     OW 1414   0.442   2.340   0.262  0.4462  0.2063 -0.0865
  472SOL    HW1 1415   0.384   2.410   0.220 -2.3744  0.0462 -0.7430
  472SOL    HW2 1416   0.486   2.367   0.349 -1.2107 -1.1591 -2.0240
  473SOL     OW 1417   0.632   0.215   2.969 -0.4462 -0.5570 -0.2076
  473SOL    HW1 1418   0.536   0.177   2.955  1.2400 -0.7339  0.6297
  473SOL    HW2 1419   0.634   0.297   3.027  0.3331 -0.3135  0.7119
  474SOL     OW 1420   1.548   0.698   2.423 -0.6310  0.3725  0.1438
  474SOL    HW1 1421   1.549   0.759   2.340 -0.5310  0.6539  1.1943
  474SOL    HW2 1422   1.538   0.599   2.400  1.1070 -1.0146  1.2709
  475SOL     OW 1423   0.811   2.542   0.129  0.4336  0.1455 -0.5487
  475SOL    HW1 1424   0.830   2.451   0.163 -1.2351  2.9005  0.3930
  475SOL    HW2 1425   0.898   2.587   0.099 -2.4701  0.8483 -0.3116
  476SOL     OW 1426   0.413   1.010   1.012  0.1361  0.5398 -0.5808
  476SOL    HW1 1427   0.497   0.955   1.039  1.5196  4.1757  3.5151
  476SOL    HW2 1428   0.414   1.106   1.048 -0.3498  0.6881  0.2063
  477SOL     OW 1429   1.687   2.059   1.360 -0.3282  0.2590  0.4995
  477SOL    HW1 1430   1.604   2.103   1.327  0.9447 -1.1402 -1.8249
  477SOL    HW2 1431   1.687   2.022   1.454 -1.1684 -0.7435 -1.2292
  478SOL     OW 1432   0.852   1.412   2.116  0.6844  0.7286  0.1043
  478SOL    HW1 1433   0.885   1.316   2.099  0.3650  0.1943 -1.0665
  478SOL    HW2 1434   0.844   1.438   2.216  2.3682  0.0214  0.0503
  479SOL     OW 1435   0.271   2.909   1.156  0.1319  0.1982 -0.3391
  479SOL    HW1 1436   0.260   2.970   1.240 -0.5378  0.6244 -0.8890
  479SOL    HW2 1437   0.249   2.962   1.075  2.4819 -1.8465  3.5358
  480SOL     OW 1438   2.826   2.817   0.254 -0.1416  0.4145 -0.2639
  480SOL    HW1 1439   2.793   2.891   0.315  1.8731 -2.2642 -1.5875
  480SOL    HW2 1440   2.749   2.781   0.194 -3.2663 -1.0579 -1.1510
  481SOL     OW 1441   3.022   3.048   1.149 -0.3399  0.6431  0.2163
  481SOL    HW1 1442   3.096   0.019   1.148  0.2683 -1.1377 -1.9913
  481SOL    HW2 1443   3.018   2.996   1.235 -0.9378 -1.9857  0.0132
  482SOL     OW 1444   1.650   2.539   1.964  0.1163 -0.5626 -0.0852
  482SOL    HW1 1445   1.747   2.519   1.971 -0.8882  2.1426  0.3279
  482SOL    HW2 1446   1.625   2.542   1.867  1.3986 -0.7151 -2.5685
  483SOL     OW 1447   0.648   1.481   2.682  0.2126  0.0495 -0.1069
  483SOL    HW1 1448   0.722   1.437   2.630  2.2944  1.6090  1.5961
  483SOL    HW2 1449   0.621   1.574   2.644  0.6319 -0.9526 -1.9272
  484SOL     OW 1450   1.175   1.569   2.331 -0.3000  0.0220 -0.0777
  484SOL    HW1 1451   1.207   1.479   2.359  1.6191  0.1568  2.0588
  484SOL    HW2 1452   1.080   1.583   2.369 -2.8114  2.3916  3.9066
  485SOL     OW 1453   2.709   0.241   0.139 -0.1733  0.2551 -0.1766
  485SOL    HW1 1454   2.745   0.300   0.216 -1.0770  0.6247  0.7714
  485SOL    HW2 1455   2.782   0.177   0.108  0.3419 -0.7151  2.5659
  486SOL     OW 1456   1.726   2.855   0.875  0.5941 -0.6083  0.1602
  486SOL    HW1 1457   1.822   2.824   0.893 -1.8918 -0.0918 -1.3892
  486SOL    HW2 1458   1.699   2.947   0.910  1.0521 -0.5420 -0.0453
  487SOL     OW 1459   1.163   2.370   0.924  0.0656  0.6433  0.4971
  487SOL    HW1 1460   1.103   2.316   0.861  1.1258  0.7707  2.3908
  487SOL    HW2 1461   1.133   2.467   0.939 -1.1279  1.7239 -0.7592
  488SOL     OW 1462   2.173   1.248   0.200  0.5955  0.1270  0.2030
  488SOL    HW1 1463   2.172   1.344   0.237  2.8657  1.7782 -0.1079
  488SOL    HW2 1464   2.083   1.220   0.163 -0.4930 -0.8142  0.7549
  489SOL     OW 1465   1.435   2.744   1.182 -0.1056  0.1578 -0.4064
  489SOL    HW1 1466   1.385   2.719   1.269 -1.4629  2.3206  0.7960
  489SOL    HW2 1467   1.504   2.814   1.213  0.6433  0.9584  1.5007
  490SOL     OW 1468   0.649   1.016   0.154  0.3628  0.2498  0.6467
  490SOL    HW1 1469   0.568   1.042   0.101 -2.8953 -0.7145 -1.0503
  490SOL    HW2 1470   0.646   1.060   0.246 -0.9020  2.7457  5.4069
  491SOL     OW 1471   0.972   3.031   0.937  0.1334 -0.0882  0.5104
  491SOL    HW1 1472   1.062   3.050   0.977  1.6870 -0.2100  4.1542
  491SOL    HW2 1473   0.937   2.940   0.960  0.7389  1.8231 -1.8142
  492SOL     OW 1474   1.396   1.391   2.152 -0.0173  0.0065  0.0196
  492SOL    HW1 1475   1.351   1.464   2.097  0.2485 -0.5908  1.8275
  492SOL    HW2 1476   1.456   1.336   2.092 -0.9739  0.4876 -0.2899
  493SOL     OW 1477   0.243   2.530   0.141  0.3518  0.8296 -0.2799
  493SOL    HW1 1478   0.161   2.478   0.172  1.3814 -0.2757  0.2628
  493SOL    HW2 1479   0.237   2.614   0.199 -3.7528  2.0037 -1.1314
  494SOL     OW 1480   2.263   1.777   0.384  0.2192  0.3952  0.0704
  494SOL    HW1 1481   2.364   1.759   0.366  3.0711 -1.5169  0.0209
  494SOL    HW2 1482   2.212   1.751   0.301  1.9926 -3.2296  2.4573
  495SOL     OW 1483   2.920   1.131   3.022  0.2398  0.7071 -0.3781
  495SOL    HW1 1484   3.000   1.085   2.975  1.0849 -1.4545 -0.9830
  495SOL    HW2 1485   2.874   1.054   3.074 -0.8135 -2.4912 -3.3178
  496SOL     OW 1486   2.584   0.151   1.786  0.4622  0.1248 -0.3679
  496SOL    HW1 1487   2.483   0.171   1.797 -2.7548  1.3916 -0.9830
  496SOL    HW2 1488   2.600   0.134   1.687  1.1075  1.5199  1.3413
  497SOL     OW 1489   2.782   1.074   0.589 -0.3864  0.5985  0.0603
  497SOL    HW1 1490   2.784   0.967   0.607 -0.2802 -0.0698  0.9790
  497SOL    HW2 1491   2.687   1.112   0.590  0.3294 -0.1796  1.7178
  498SOL     OW 1492   2.994   2.186   2.492 -0.6083  0.4098 -0.2850
  498SOL    HW1 1493   3.018   2.167   2.589  2.5201  1.5235  3.8197
  498SOL    HW2 1494   3.039   2.278   2.468  4.2845 -0.7137  0.9546
  499SOL     OW 1495   0.780   2.118   0.423 -0.1068 -0.3164  0.3431
  499SOL    HW1 1496   0.872   2.081   0.442  0.8874 -1.5718 -1.8694
  499SOL    HW2 1497   0.785   2.210   0.376 -1.9916  0.8225  1.0065
  500SOL     OW 1498   0.830   0.088   2.594  0.3525 -0.5447  0.6496
  500SOL    HW1 1499   0.830   0.166   2.659  0.2601  0.6645  1.7511
  500SOL    HW2 1500   0.749   0.085   2.538 -0.9613  2.1844 -1.2942
  501SOL     OW 1501   1.234   0.073   1.813  0.0532 -0.2392  0.5440
  501SOL    HW1 1502   1.330   0.049   1.807 -1.4861  1.0118 -0.2442
  501SOL    HW2 1503   1.218   0.147   1.740 -0.2154 -1.5040  1.4097
  502SOL     OW 1504   3.054   0.354   2.133  0.3344 -0.0943 -0.7597
  502SOL    HW1 1505   3.073   0.331   2.039  1.3702  1.0169  5.6126
  502SOL    HW2 1506   0.034   0.336   2.202  2.4109 -0.5192 -0.1843
  503SOL     OW 1507   2.574   1.733   2.265  0.1207 -0.2500  0.0926
  503SOL    HW1 1508   2.593   1.758   2.169  0.5658 -2.1009  1.7604
  503SOL    HW2 1509   2.500   1.792   2.303  1.8532 -2.4480  0.0271
  504SOL     OW 1510   1.590   0.747   1.859  0.1050 -0.9344  0.3057
  504SOL    HW1 1511   1.549   0.660   1.880 -0.1617  2.1768 -3.0039
  504SOL    HW2 1512   1.657   0.741   1.776  3.6208  0.4581 -0.6868
  505SOL     OW 1513   2.841   0.928   1.575  0.3132  0.4209  0.4027
  505SOL    HW1 1514   2.925   0.985   1.569 -0.7555 -1.1057 -1.6097
  505SOL    HW2 1515   2.852   0.831   1.539 -0.4861 -4.1649  1.9511
  506SOL     OW 1516   0.493   1.280   2.393  0.1515 -0.1411  0.1865
  506SOL    HW1 1517   0.403   1.255   2.358  0.9681 -0.4847  0.1078
  506SOL    HW2 1518   0.546   1.304   2.310 -2.2149 -0.0726 -0.1033
  507SOL     OW 1519   0.186   2.911   2.306 -0.6314  0.1576  0.2997
  507SOL    HW1 1520   0.238   2.975   2.246  0.2387 -0.3460 -2.3107
  507SOL    HW2 1521   0.143   2.847   2.249 -0.1843  3.7972  1.2181
  508SOL     OW 1522   1.210   0.866   1.321 -0.3918 -0.1710 -0.7036
  508SOL    HW1 1523   1.273   0.876   1.399  1.3160 -1.0023  2.4490
  508SOL    HW2 1524   1.195   0.766   1.311 -0.6280  2.1980  1.5479
  509SOL     OW 1525   0.738   1.638   1.424 -0.8109 -0.3518 -0.1218
  509SOL    HW1 1526   0.672   1.676   1.495  1.1802 -0.6766  0.0009
  509SOL    HW2 1527   0.810   1.705   1.401 -1.2107  1.2499 -0.4018
  510SOL     OW 1528   2.465   1.057   2.564 -0.3737 -0.0482 -0.1389
  510SOL    HW1 1529   2.399   1.060   2.645 -1.2567 -1.9023  0.3114
  510SOL    HW2 1530   2.559   1.086   2.584  1.6455 -0.1436 -1.9456
  511SOL     OW 1531   0.439   1.607   1.265  0.5261 -0.1395  0.3579
  511SOL    HW1 1532   0.343   1.582   1.272 -1.6465  0.0448 -0.5688
  511SOL    HW2 1533   0.472   1.650   1.349  0.2131  1.3830  1.0928
  512SOL     OW 1534   2.644   2.310   0.866 -0.1539 -0.6622 -0.0286
  512SOL    HW1 1535   2.643   2.333   0.768 -1.1318 -0.3875  0.7193
  512SOL    HW2 1536   2.557   2.279   0.898  1.2993 -1.4432  2.0760
  513SOL     OW 1537   3.072   1.540   3.000  0.6681  0.2018 -0.0439
  513SOL    HW1 1538   3.023   1.472   3.060  1.1519  1.0144  0.7225
  513SOL    HW2 1539   0.074   1.529   3.011 -0.8297  1.4623  0.1536
  514SOL     OW 1540   0.349   2.274   2.913 -0.3406  0.0692 -0.2145
  514SOL    HW1 1541   0.345   2.280   2.809 -0.0285 -0.7696  1.6708
  514SOL    HW2 1542   0.439   2.302   2.949 -1.4916 -0.5778 -0.9398
  515SOL     OW 1543   1.794   1.466   2.138  0.3309  0.1093  0.3324
  515SOL    HW1 1544   1.874   1.407   2.166  3.7802  0.6215 -1.4856
  515SOL    HW2 1545   1.741   1.502   2.218 -0.8052  0.5375 -3.0330
  516SOL     OW 1546   2.155   2.181   3.072  0.6772 -0.0773 -0.4866
  516SOL    HW1 1547   2.182   2.225   2.988 -1.6496 -2.2749  1.8538
  516SOL    HW2 1548   2.171   2.080   3.062  3.2382 -0.9943 -3.6260
  517SOL     OW 1549   1.564   1.140   0.398 -0.0451 -0.1151 -0.4086
  517SOL    HW1 1550   1.559   1.085   0.481 -1.1156  0.5733  0.5404
  517SOL    HW2 1551   1.517   1.091   0.323  0.9862  0.6303  0.7058
  518SOL     OW 1552   2.296   2.813   1.841  0.3318 -0.0313  0.3961
  518SOL    HW1 1553   2.264   2.715   1.832  1.3041  2.1173  2.1582
  518SOL    HW2 1554   2.268   2.862   1.754 -1.5367 -0.3658 -1.8846
  519SOL     OW 1555   1.675   2.316   1.582  0.5777 -0.1187  0.0103
  519SOL    HW1 1556   1.637   2.246   1.519 -1.7784 -1.1716 -1.0977
  519SOL    HW2 1557   1.605   2.392   1.602 -0.9945  1.3707  0.3554
  520SOL     OW 1558   2.490   2.575   2.584 -0.4485 -0.4407 -0.0744
  520SOL    HW1 1559   2.491   2.657   2.639  0.9139  0.0090 -1.5403
  520SOL    HW2 1560   2.396   2.541   2.572 -0.1303 -0.0049  2.7311
  521SOL     OW 1561   0.143   1.203   2.060 -0.2103  0.3413 -0.6852
  521SOL    HW1 1562   0.051   1.247   2.066 -2.0515 -1.4878 -0.7056
  521SOL    HW2 1563   0.177   1.174   2.154  0.0823  1.0974  1.0048
  522SOL     OW 1564   0.932   0.222   1.739 -0.5713 -0.1312 -0.3942
  522SOL    HW1 1565   0.927   0.187   1.837  0.6460 -2.9642  0.5824
  522SOL    HW2 1566   0.904   0.322   1.741  3.8639  1.6664 -2.0100
  523SOL     OW 1567   0.562   2.438   0.802  0.3670  0.3444 -0.0283
  523SOL    HW1 1568   0.636   2.370   0.806  1.6153  1.4838  1.5946
  523SOL    HW2 1569   0.471   2.391   0.814  0.4945 -1.6085 -0.2099
  524SOL     OW 1570   1.550   2.531   0.514  0.1320  0.1258  0.5545
  524SOL    HW1 1571   1.597   2.607   0.563  0.5990  0.6738 -0.5442
  524SOL    HW2 1572   1.558   2.448   0.568 -4.0146  2.1245  1.3580
  525SOL     OW 1573   2.280   0.896   1.243 -0.1132  0.3945  0.2409
  525SOL    HW1 1574   2.314   0.930   1.150 -2.4170 -1.1096  2.4058
  525SOL    HW2 1575   2.308   0.960   1.316  0.8158  0.8646  0.4122
  526SOL     OW 1576   1.089   2.647   0.901  0.6474 -0.3124  0.1474
  526SOL    HW1 1577   0.996   2.682   0.925 -0.3739  0.5055 -0.2280
  526SOL    HW2 1578   1.108   2.657   0.803  0.3514  0.6299 -0.0523
  527SOL     OW 1579   2.398   2.112   0.654  0.2555 -0.3182 -0.0311
  527SOL    HW1 1580   2.392   2.173   0.732  2.1837 -0.2918 -1.6643
  527SOL    HW2 1581   2.304   2.070   0.635  0.6555 -2.5045  0.0678
  528SOL     OW 1582   2.262   0.653   0.451  0.8414 -0.2409  0.6573
  528SOL    HW1 1583   2.228   0.719   0.383  3.6240 -2.6709 -1.1970
  528SOL    HW2 1584   2.182   0.615   0.494 -0.9060  2.9624 -2.6551
  529SOL     OW 1585   1.256   1.277   2.380  0.4076  0.4995  0.4948
  529SOL    HW1 1586   1.286   1.303   2.472 -0.1635 -0.3523 -2.5217
  529SOL    HW2 1587   1.328   1.303   2.310  0.7697  2.7118 -0.4710
  530SOL     OW 1588   2.566   0.583   0.133 -0.0966 -0.0466 -0.4496
  530SOL    HW1 1589   2.637   0.542   0.074  0.6189  0.1603  1.1583
  530SOL    HW2 1590   2.610   0.628   0.212 -1.9502 -1.4346 -0.6764
  531SOL     OW 1591   0.978   1.011   0.132 -0.1710  0.0270 -0.0674
  531SOL    HW1 1592   0.889   1.058   0.146 -0.5773 -1.6029  0.2499
  531SOL    HW2 1593   1.034   1.050   0.055  0.8134 -1.1792 -0.9211
  532SOL     OW 1594   1.756   0.368   0.482  0.6018 -0.5511 -0.6717
  532SOL    HW1 1595   1.814   0.356   0.568  0.2917  2.1634 -1.5752
  532SOL    HW2 1596   1.659   0.398   0.499  3.4470  2.2087  0.2682
  533SOL     OW 1597   1.286   0.958   2.193  0.1321 -0.3913 -0.2767
  533SOL    HW1 1598   1.206   1.010   2.235 -0.6397  0.4515 -2.2952
  533SOL    HW2 1599   1.291   0.958   2.093  0.0232 -1.9738  1.8771
  534SOL     OW 1600   2.180   0.206   2.503 -0.5220  0.6572 -0.4250
  534SOL    HW1 1601   2.160   0.300   2.533 -1.2032 -1.7789  0.1958
  534SOL    HW2 1602   2.258   0.170   2.559  0.8894  3.1707  3.0048
  535SOL     OW 1603   0.398   3.020   0.366 -0.1856  0.0933  0.2182
  535SOL    HW1 1604   0.361   3.070   0.285 -0.6631 -1.5932  0.7483
  535SOL    HW2 1605   0.476   3.061   0.418  1.7752  2.3815  1.5143
  536SOL     OW 1606   0.853   2.755   0.974 -0.0706  0.3769 -0.0707
  536SOL    HW1 1607   0.774   2.734   0.911 -3.8326 -0.0581 -1.9555
  536SOL    HW2 1608   0.836   2.727   1.070 -1.2703  0.4847  1.5026
  537SOL     OW 1609   1.487   1.008   1.093  0.4978  0.1587 -0.4750
  537SOL    HW1 1610   1.498   0.910   1.071 -0.0647  0.1968 -0.1432
  537SOL    HW2 1611   1.489   1.028   1.193  0.0398 -0.3946  0.3551
  538SOL     OW 1612   2.676   2.319   0.342  0.2756 -0.0559  0.5383
  538SOL    HW1 1613   2.750   2.248   0.330  1.8913 -0.5179 -1.5752
  538SOL    HW2 1614   2.693   2.389   0.268  0.4568  0.4569 -0.2391
  539SOL     OW 1615   2.682   2.074   0.056 -0.0314  0.1550 -0.5658
  539SOL    HW1 1616   2.620   2.003   0.024 -0.5961  1.5433  0.7232
  539SOL    HW2 1617   2.719   2.049   0.147  1.2125 -0.3228 -1.5108
  540SOL     OW 1618   0.237   2.793   1.477  0.4355 -0.0409  0.2447
  540SOL    HW1 1619   0.144   2.755   1.464 -0.0243 -0.3574 -0.1488
  540SOL    HW2 1620   0.242   2.892   1.447  0.5202  1.0807 -1.4042
  541SOL     OW 1621   2.448   2.915   2.047  0.1554  0.0757 -0.6331
  541SOL    HW1 1622   2.432   3.012   2.076 -0.2516  3.4463 -1.0618
  541SOL    HW2 1623   2.379   2.878   1.980 -2.4866 -0.7991  1.8964
  542SOL     OW 1624   2.734   0.552   2.447  0.0378 -0.3545 -0.0534
  542SOL    HW1 1625   2.752   0.644   2.488 -1.5587 -0.3423 -2.3469
  542SOL    HW2 1626   2.788   0.545   2.355  0.2933 -1.2906 -2.1383
  543SOL     OW 1627   1.037   0.250   0.635 -0.5765  0.4156 -0.0905
  543SOL    HW1 1628   1.022   0.296   0.547  2.2499  0.3641  1.5931
  543SOL    HW2 1629   1.001   0.154   0.637  0.1564 -0.8680 -0.6081
  544SOL     OW 1630   2.977   2.637   1.036  0.2507  0.5972  0.2542
  544SOL    HW1 1631   2.977   2.564   0.963 -0.6197  0.0389 -1.0347
  544SOL    HW2 1632   2.938   2.589   1.118  2.5290 -1.3357  1.9609
  545SOL     OW 1633   1.001   1.933   0.817  0.5298  0.3992  0.2364
  545SOL    HW1 1634   0.929   1.893   0.757 -0.8584 -0.6670  0.4398
  545SOL    HW2 1635   1.058   1.862   0.863  0.4087  3.9824  2.3274
  546SOL     OW 1636   2.113   0.129   1.687  0.2526 -0.0517  0.2025
  546SOL    HW1 1637   2.053   0.211   1.699  1.0590 -1.7223 -1.1483
  546SOL    HW2 1638   2.187   0.125   1.760  1.6778  0.9120 -0.4218
  547SOL     OW 1639   0.282   0.224   2.284  0.4260  0.5179  0.2043
  547SOL    HW1 1640   0.316   0.305   2.329 -3.0795 -1.7531 -0.9638
  547SOL    HW2 1641   0.195   0.199   2.326  2.4558 -1.4815  0.0621
  548SOL     OW 1642   2.126   1.838   2.543 -0.3353 -0.4371  0.1897
  548SOL    HW1 1643   2.070   1.754   2.566 -0.9784  1.1577 -0.1878
  548SOL    HW2 1644   2.072   1.927   2.543 -0.7799 -0.9506  0.8087
  549SOL     OW 1645   0.003   0.882   0.908 -0.1458 -0.1986  0.1966
  549SOL    HW1 1646   0.015   0.914   0.811  0.9651 -4.0375 -2.3577
  549SOL    HW2 1647   2.998   0.874   0.927 -0.4437 -1.6221  0.0639
  550SOL     OW 1648   1.610   1.409   0.555 -0.0629  0.1593  0.0333
  550SOL    HW1 1649   1.559   1.349   0.490  0.1079  1.5889  2.5695
  550SOL    HW2 1650   1.641   1.492   0.503  1.6704 -1.1603  1.2519
  551SOL     OW 1651   1.251   0.120   1.289 -0.5224 -0.6999 -0.4804
  551SOL    HW1 1652   1.185   0.047   1.313 -0.4294 -2.7391  1.9338
  551SOL    HW2 1653   1.226   0.161   1.199 -0.2194 -1.8118 -1.0271
  552SOL     OW 1654   2.506   2.495   1.850 -0.2681 -0.1884  0.1232
  552SOL    HW1 1655   2.409   2.473   1.836  0.4692  0.6466  0.0416
  552SOL    HW2 1656   2.538   2.462   1.939 -0.2253  1.2387  1.4827
  553SOL     OW 1657   2.997   0.064   2.911 -0.0098 -0.0878  0.1379
  553SOL    HW1 1658   2.988   3.073   2.864 -0.4821  2.4539  2.1294
  553SOL    HW2 1659   3.094   0.095   2.904 -1.6283 -1.4877  1.7591
  554SOL     OW 1660   1.099   2.811   1.519 -0.2826 -0.2522 -0.6646
  554SOL    HW1 1661   1.060   2.717   1.533 -0.6698  1.6969  1.7466
  554SOL    HW2 1662   1.075   2.871   1.601 -0.5628  0.2790 -0.3743
  555SOL     OW 1663   2.447   2.743   1.496  0.1489 -0.4035 -0.0196
  555SOL    HW1 1664   2.482   2.764   1.591 -0.0933 -0.0992  1.7248
  555SOL    HW2 1665   2.516   2.688   1.443  0.4972 -4.7713 -0.2794
  556SOL     OW 1666   1.095   0.305   2.834  0.2449  0.0642  0.2583
  556SOL    HW1 1667   1.166   0.243   2.795 -1.2599  3.5925 -0.3872
  556SOL    HW2 1668   1.093   0.299   2.938  1.2215  1.7127 -0.3922
  557SOL     OW 1669   0.212   1.728   2.443 -0.3321 -0.0792  0.1342
  557SOL    HW1 1670   0.224   1.705   2.347 -0.6936  0.4183  1.4561
  557SOL    HW2 1671   0.182   1.829   2.454  0.5114  1.4265 -1.4083
  558SOL     OW 1672   2.204   1.219   2.476 -0.0761  0.2434  0.3209
  558SOL    HW1 1673   2.225   1.229   2.373  3.7422 -2.4937 -3.5468
  558SOL    HW2 1674   2.234   1.135   2.518 -0.5827  1.8578 -0.6064
  559SOL     OW 1675   2.333   2.108   2.192 -0.5517 -0.2337 -0.6429
  559SOL    HW1 1676   2.434   2.097   2.197 -2.1867 -0.6912 -0.8551
  559SOL    HW2 1677   2.306   2.124   2.096 -1.5627 -0.8931  2.0385
  560SOL     OW 1678   0.013   0.552   2.410 -0.5933 -0.3725 -0.1307
  560SOL    HW1 1679   3.084   0.635   2.465 -2.3696  4.4418  1.8217
  560SOL    HW2 1680   3.048   0.553   2.330  3.2243 -0.3847  1.7264
  561SOL     OW 1681   0.539   0.193   0.353  0.2307  0.0353  0.2438
  561SOL    HW1 1682   0.518   0.156   0.444  1.2607 -0.8410 -1.1553
  561SOL    HW2 1683   0.486   0.279   0.343  0.8221 -0.2481 -1.6690
  562SOL     OW 1684   0.914   1.353   1.755 -0.5593  0.4792 -0.5276
  562SOL    HW1 1685   0.865   1.265   1.738  0.4136 -1.2820  1.1379
  562SOL    HW2 1686   0.966   1.348   1.848  0.5401  0.6097  1.7151
  563SOL     OW 1687   1.485   2.804   3.088  0.2386 -0.3227  0.3217
  563SOL    HW1 1688   1.486   2.829   0.091 -0.6609  0.3882 -3.0328
  563SOL    HW2 1689   1.394   2.803   3.043 -0.9047 -0.1938  0.8150
  564SOL     OW 1690   0.067   1.941   0.651  0.0284 -0.0148 -0.0452
  564SOL    HW1 1691   0.150   1.963   0.596  0.5064  0.6809 -3.6936
  564SOL    HW2 1692   0.095   1.938   0.749  1.0868 -1.2871 -0.1439
  565SOL     OW 1693   0.499   2.229   2.218  0.2387  0.2514  0.0730
  565SOL    HW1 1694   0.469   2.173   2.143  0.2508  1.7206  2.6950
  565SOL    HW2 1695   0.574   2.296   2.202 -0.6432 -2.7147 -0.8616
  566SOL     OW 1696   1.398   2.743   2.177 -0.8538  0.0697 -0.1600
  566SOL    HW1 1697   1.457   2.660   2.195  1.4708 -3.6521  2.3298
  566SOL    HW2 1698   1.358   2.738   2.085 -0.4800  0.8078 -1.9424
  567SOL     OW 1699   2.213   2.292   1.053  0.2049 -0.1403  0.2003
  567SOL    HW1 1700   2.169   2.263   0.964 -2.3815  1.7483 -4.0943
  567SOL    HW2 1701   2.202   2.222   1.125  0.4277  1.7068 -0.4276
  568SOL     OW 1702   2.156   0.853   0.296 -0.3505 -0.1025  0.2363
  568SOL    HW1 1703   2.118   0.857   0.204  0.2188 -1.2698 -1.9622
  568SOL    HW2 1704   2.080   0.834   0.361  1.2524 -0.4852 -2.9594
  569SOL     OW 1705   0.000   1.113   2.706  0.4398 -0.2043 -1.2784
  569SOL    HW1 1706   3.053   1.203   2.708 -2.7124 -2.2021 -0.4183
  569SOL    HW2 1707   0.041   1.084   2.794 -0.4173  0.4989  1.5971
  570SOL     OW 1708   3.007   2.937   1.397  0.5208 -0.4796 -0.0198
  570SOL    HW1 1709   2.929   2.998   1.417  0.6067 -1.4355 -3.0779
  570SOL    HW2 1710   2.981   2.836   1.413  1.6166 -0.1492  3.6831
  571SOL     OW 1711   0.111   0.568   1.653 -0.3984 -0.1713 -0.2960
  571SOL    HW1 1712   0.158   0.512   1.582 -1.4789  2.0306  0.2581
  571SOL    HW2 1713   0.009   0.551   1.661  0.3592  0.2998 -0.1220
  572SOL     OW 1714   2.980   2.423   0.866 -0.0705 -0.5086 -0.3764
  572SOL    HW1 1715   3.055   2.417   0.797  0.7231 -1.7475  0.1159
  572SOL    HW2 1716   3.005   2.364   0.941 -0.7025 -1.5602 -0.5369
  573SOL     OW 1717   0.738   0.862   3.064 -0.7232  0.4220  0.1350
  573SOL    HW1 1718   0.665   0.792   3.054 -3.6771 -1.4662  0.3084
  573SOL    HW2 1719   0.727   0.925   0.049 -0.3555  1.3711  4.1754
  574SOL     OW 1720   2.794   2.728   2.900 -0.2241 -0.1178 -0.7578
  574SOL    HW1 1721   2.765   2.808   2.961  0.4935  1.6106  3.2991
  574SOL    HW2 1722   2.837   2.649   2.952 -1.8406 -1.6331 -0.7337
  575SOL     OW 1723   0.983   1.738   1.388 -0.8535  0.0405  0.4052
  575SOL    HW1 1724   1.036   1.705   1.308 -0.9047  0.5848 -1.8082
  575SOL    HW2 1725   1.020   1.821   1.433 -1.0230 -0.0004 -1.3666
  576SOL     OW 1726   0.176   3.035   1.383 -0.1376 -0.4657  0.3469
  576SOL    HW1 1727   0.181   0.005   1.462  0.5854 -0.8737 -0.6435
  576SOL    HW2 1728   0.081   2.994   1.381 -1.9377  0.7965 -2.0740
  577SOL     OW 1729   1.967   1.358   1.380  0.2485 -0.0390  0.5653
  577SOL    HW1 1730   1.943   1.453   1.415 -0.3051 -0.4516  0.1248
  577SOL    HW2 1731   1.924   1.284   1.430 -0.2296 -0.8356 -1.7651
  578SOL     OW 1732   1.394   0.010   0.103  0.4610 -0.0288 -0.3227
  578SOL    HW1 1733   1.358   3.085   0.008 -0.6979 -0.5819  1.2985
  578SOL    HW2 1734   1.451   0.087   0.105 -2.2072 -3.9694  2.1703
  579SOL     OW 1735   2.909   1.352   2.517  0.1533  0.2674 -0.8366
  579SOL    HW1 1736   2.943   1.419   2.590 -1.2187  1.6253  0.5600
  579SOL    HW2 1737   2.839   1.392   2.460  1.6422  0.9303  1.4863
  580SOL     OW 1738   1.316   0.822   1.578 -0.1727 -0.4543 -0.1097
  580SOL    HW1 1739   1.359   0.901   1.627 -1.7049 -0.9835  0.7685
  580SOL    HW2 1740   1.381   0.742   1.577  0.9994  0.3968  1.9182
  581SOL     OW 1741   0.657   1.390   1.491  0.5673  0.0485 -0.4079
  581SOL    HW1 1742   0.703   1.469   1.447  3.6103 -0.7957  0.5292
  581SOL    HW2 1743   0.672   1.389   1.596  0.3321  1.3445  0.0374
  582SOL     OW 1744   2.946   3.068   1.899  0.2598  0.0200 -0.6324
  582SOL    HW1 1745   2.925   0.008   1.990 -0.9985 -1.1963 -1.4507
  582SOL    HW2 1746   2.858   3.028   1.863 -1.1928  2.3806  2.3970
  583SOL     OW 1747   2.136   0.687   1.875  0.3824  0.2500 -0.0749
  583SOL    HW1 1748   2.193   0.603   1.891  0.3834 -1.4662 -0.1038
  583SOL    HW2 1749   2.164   0.756   1.946 -2.2356 -0.4137 -0.6166
  584SOL     OW 1750   1.496   2.085   2.892 -0.1532 -0.7449 -0.0263
  584SOL    HW1 1751   1.460   2.006   2.838  0.3370 -4.4291  0.1929
  584SOL    HW2 1752   1.433   2.167   2.876 -0.1944  1.4598 -1.1232
  585SOL     OW 1753   0.589   2.706   0.218  0.5325 -0.2627  0.3984
  585SOL    HW1 1754   0.524   2.727   0.145  2.7134 -1.4085  1.9591
  585SOL    HW2 1755   0.645   2.621   0.196 -1.7903 -2.5308  1.1480
  586SOL     OW 1756   1.939   2.546   2.456  0.1123  0.1411  0.2708
  586SOL    HW1 1757   1.912   2.515   2.548 -2.0337 -0.2399 -0.4665
  586SOL    HW2 1758   1.912   2.469   2.396 -1.0832 -1.7313 -0.3015
  587SOL     OW 1759   2.701   1.772   0.561 -0.5222 -0.0514  0.0128
  587SOL    HW1 1760   2.678   1.769   0.461 -2.4235 -2.1261 -0.0552
  587SOL    HW2 1761   2.646   1.837   0.614  0.8969  1.1233  2.8659
  588SOL     OW 1762   2.161   0.293   0.918  0.0680 -0.2620 -0.0955
  588SOL    HW1 1763   2.086   0.358   0.949  1.9500  3.3666  0.9702
  588SOL    HW2 1764   2.240   0.294   0.984  2.6827 -0.4701  1.5863
  589SOL     OW 1765   0.842   0.582   0.442 -0.2028  0.1432 -0.0878
  589SOL    HW1 1766   0.932   0.536   0.450 -0.7011  2.1522 -2.6618
  589SOL    HW2 1767   0.794   0.557   0.354 -1.1732 -0.2218  3.1511
  590SOL     OW 1768   2.498   1.890   0.274 -0.0315 -0.3281 -0.0237
  590SOL    HW1 1769   2.500   1.898   0.174 -2.1453 -1.0374  2.8104
  590SOL    HW2 1770   2.451   1.971   0.312  0.7021  1.2310 -0.7350
  591SOL     OW 1771   0.049   2.532   1.504 -0.2219 -0.2162 -0.3856
  591SOL    HW1 1772   0.084   2.499   1.414 -0.3335 -1.5077  1.3263
  591SOL    HW2 1773   0.082   2.479   1.584  1.2680 -1.2645  1.5729
  592SOL     OW 1774   0.696   0.991   1.304  0.3380  0.3508 -0.5459
  592SOL    HW1 1775   0.656   1.083   1.283  0.7906  0.8588 -1.2088
  592SOL    HW2 1776   0.799   0.991   1.329 -0.3699 -0.8876  2.9501
  593SOL     OW 1777   0.795   1.499   1.188 -0.1524 -0.2750 -0.1185
  593SOL    HW1 1778   0.873   1.436   1.207 -0.1753  0.1869 -1.5429
  593SOL    HW2 1779   0.780   1.563   1.265  2.0993  0.6464  1.0816
  594SOL     OW 1780   0.715   2.053   0.060 -0.6374 -0.6552  0.0758
  594SOL    HW1 1781   0.639   2.092   0.114 -0.6386 -0.1700 -0.5857
  594SOL    HW2 1782   0.768   1.979   0.113 -0.0340 -0.1986 -0.6026
  595SOL     OW 1783   1.524   0.065   1.236  0.2365 -0.5408  0.3021
  595SOL    HW1 1784   1.430   0.086   1.273 -1.6464  0.9357 -1.0104
  595SOL    HW2 1785   1.570   0.154   1.214 -2.0905 -0.6889  0.0610
  596SOL     OW 1786   3.068   1.544   0.820 -0.6358 -0.3756 -0.2090
  596SOL    HW1 1787   3.042   1.623   0.755  1.3770  1.7008 -2.2156
  596SOL    HW2 1788   3.048   1.454   0.780  1.5263  3.0254  2.5746
  597SOL     OW 1789   0.199   2.749   2.716 -0.4267 -0.1521 -0.3039
  597SOL    HW1 1790   0.129   2.674   2.709  0.8786 -0.8984  1.9510
  597SOL    HW2 1791   0.186   2.816   2.793  1.7778  1.5357  1.4564
  598SOL     OW 1792   2.609   2.074   2.233  0.4723 -0.1115  0.0538
  598SOL    HW1 1793   2.689   2.021   2.194 -1.7536  0.9255 -0.1017
  598SOL    HW2 1794   2.595   2.032   2.324 -0.0362 -0.2786 -1.4901
  599SOL     OW 1795   0.848   0.457   0.157  0.2398  0.6121  0.4876
  599SOL    HW1 1796   0.751   0.474   0.128 -2.8035 -0.2024 -0.5221
  599SOL    HW2 1797   0.907   0.542   0.145  1.0524  1.3875  1.3137
  600SOL     OW 1798   0.467   2.685   0.464  0.0268  0.1138  0.5347
  600SOL    HW1 1799   0.493   2.704   0.366  0.1115 -1.1907  1.0354
  600SOL    HW2 1800   0.512   2.600   0.502 -2.4960 -0.3860  0.4923
  601SOL     OW 1801   0.504   0.723   1.249  0.1220  0.4581 -0.6625
  601SOL    HW1 1802   0.530   0.768   1.161  2.3247  0.5064 -0.7036
  601SOL    HW2 1803   0.466   0.628   1.224  1.9353 -2.2427 -1.2364
  602SOL     OW 1804   0.608   2.695   0.881 -0.0673  0.3511 -0.4702
  602SOL    HW1 1805   0.630   2.600   0.852  0.8906  2.3288  1.0056
  602SOL    HW2 1806   0.546   2.692   0.964  0.0122 -0.0155  1.6982
  603SOL     OW 1807   0.971   2.950   2.246 -0.4699  0.3913  0.3400
  603SOL    HW1 1808   0.876   2.940   2.215  2.6954 -2.3143 -0.1142
  603SOL    HW2 1809   1.036   2.919   2.172  0.3875 -1.7267  1.1503
  604SOL     OW 1810   0.802   2.686   2.003 -0.1583 -0.2562  0.0093
  604SOL    HW1 1811   0.814   2.587   1.970 -0.2929  0.5502  0.9871
  604SOL    HW2 1812   0.709   2.722   1.980  0.7294  0.0258  1.9714
  605SOL     OW 1813   1.837   0.600   2.245 -0.0257  0.2007 -0.1126
  605SOL    HW1 1814   1.821   0.617   2.144  0.5705  2.3916  0.1890
  605SOL    HW2 1815   1.764   0.542   2.281  2.0328 -3.1367  0.8579
  606SOL     OW 1816   2.324   0.056   2.735 -0.1355  0.1432 -0.0266
  606SOL    HW1 1817   2.259   0.117   2.782  1.1239  0.5077 -1.4399
  606SOL    HW2 1818   2.401   0.111   2.692  1.6043 -0.2185  0.8069
  607SOL     OW 1819   0.952   0.592   1.340 -0.0665  0.2192  0.0956
  607SOL    HW1 1820   0.905   0.526   1.281  1.9728 -0.5355 -2.5871
  607SOL    HW2 1821   0.890   0.661   1.382  1.6456  0.2949 -2.1681
  608SOL     OW 1822   0.119   1.982   2.392  0.4092  0.0588 -0.3351
  608SOL    HW1 1823   0.194   2.021   2.343 -1.5728 -2.9481  2.2705
  608SOL    HW2 1824   0.061   2.053   2.436 -1.3982 -0.4232 -0.7392
  609SOL     OW 1825   1.727   0.806   0.208  0.2272  0.3056  0.7774
  609SOL    HW1 1826   1.691   0.746   0.280 -0.3182  3.4035  0.5220
  609SOL    HW2 1827   1.763   0.893   0.244 -3.2279  0.3846 -1.8106
  610SOL     OW 1828   0.701   0.281   1.368 -0.3519 -0.6269  0.3954
  610SOL    HW1 1829   0.792   0.264   1.414 -0.3873 -0.8056  1.1474
  610SOL    HW2 1830   0.722   0.346   1.286 -0.7753  0.1799 -0.4121
  611SOL     OW 1831   1.483   0.419   0.510  0.1349  0.6016  0.1672
  611SOL    HW1 1832   1.456   0.439   0.607 -1.3223 -3.4361  1.2174
  611SOL    HW2 1833   1.407   0.383   0.451  0.1124 -0.4807 -0.5910
  612SOL     OW 1834   1.656   0.684   3.082 -0.0614  0.6337 -0.2501
  612SOL    HW1 1835   1.659   0.762   0.047  1.2600 -0.9984 -1.9896
  612SOL    HW2 1836   1.752   0.657   3.053 -0.1223 -0.4062  0.5272
  613SOL     OW 1837   2.494   0.702   0.570  0.0452  0.3645 -0.5178
  613SOL    HW1 1838   2.404   0.687   0.525 -0.1769 -0.6613 -0.9661
  613SOL    HW2 1839   2.522   0.612   0.617 -1.2938 -0.4139  2.0138
  614SOL     OW 1840   2.650   0.227   2.028 -0.1452 -0.1030 -0.2880
  614SOL    HW1 1841   2.636   0.188   1.933 -0.0117  0.0026  0.3704
  614SOL    HW2 1842   2.742   0.201   2.061  1.5113 -1.6982  0.5187
  615SOL     OW 1843   0.843   1.939   1.137  0.1493 -0.1963  0.2521
  615SOL    HW1 1844   0.870   1.971   1.232  1.1740  2.2806 -1.4428
  615SOL    HW2 1845   0.744   1.919   1.136  1.6885  1.0673  0.9690
  616SOL     OW 1846   1.672   1.608   2.712  0.3947  0.4407  0.0701
  616SOL    HW1 1847   1.620   1.667   2.648  1.5255  2.4555  0.0759
  616SOL    HW2 1848   1.655   1.513   2.683  3.1150  0.3408 -0.7798
  617SOL     OW 1849   1.581   0.065   2.956 -0.5388 -0.4315 -0.3260
  617SOL    HW1 1850   1.635   3.073   2.974  1.3103  0.7098  1.6080
  617SOL    HW2 1851   1.482   0.050   2.950  0.0927  1.7578  0.4682
  618SOL     OW 1852   1.463   2.194   2.535 -0.2168  0.0465  0.4225
  618SOL    HW1 1853   1.485   2.146   2.446 -0.0244 -0.8021 -1.0526
  618SOL    HW2 1854   1.375   2.154   2.574 -1.3972 -1.0957  1.5753
  619SOL     OW 1855   2.478   1.416   0.800  0.1484 -0.0505  0.2427
  619SOL    HW1 1856   2.563   1.448   0.749 -0.9049 -1.6889  0.0039
  619SOL    HW2 1857   2.496   1.359   0.881 -1.1912  0.8019  0.0793
  620SOL     OW 1858   2.083   2.756   2.153  0.0067 -0.8076  0.2696
  620SOL    HW1 1859   2.044   2.817   2.227 -2.4183 -0.8374 -1.0874
  620SOL    HW2 1860   2.178   2.733   2.179 -1.8707 -0.4471 -0.8017
  621SOL     OW 1861   2.884   1.374   0.568  0.1380  0.5615 -0.3567
  621SOL    HW1 1862   2.930   1.315   0.641  2.1655 -0.2814 -0.2959
  621SOL    HW2 1863   2.942   1.456   0.554  2.7422  1.2587  1.0869
  622SOL     OW 1864   1.408   1.992   2.315 -0.1960 -0.2736 -0.1312
  622SOL    HW1 1865   1.356   1.917   2.359 -0.7141  3.2634 -2.0061
  622SOL    HW2 1866   1.505   1.962   2.286  2.3077  1.7278 -1.1516
  623SOL     OW 1867   0.718   2.636   2.325 -0.2098 -0.2667 -0.6333
  623SOL    HW1 1868   0.727   2.723   2.269  0.3407  0.4202  0.5019
  623SOL    HW2 1869   0.773   2.630   2.410  1.1869 -1.5243 -0.2227
  624SOL     OW 1870   1.018   2.546   2.882  0.4682 -0.0491  0.0800
  624SOL    HW1 1871   1.069   2.526   2.796 -0.5522  0.6948 -0.6230
  624SOL    HW2 1872   0.981   2.642   2.884 -0.8122  0.5806  1.0643
  625SOL     OW 1873   0.447   2.095   2.471 -0.5403 -0.2075  0.3474
  625SOL    HW1 1874   0.516   2.122   2.400  3.9720 -1.6246 -0.5435
  625SOL    HW2 1875   0.456   1.996   2.482  0.8539 -0.3249  1.4500
  626SOL     OW 1876   0.152   0.186   3.057 -0.3840 -0.4487 -0.1345
  626SOL    HW1 1877   0.096   0.220   0.038 -0.4094  0.7042 -1.1972
  626SOL    HW2 1878   0.127   0.240   2.973 -0.6491  0.8963  0.4999
  627SOL     OW 1879   2.104   1.839   0.018  0.3085  0.3236  0.6076
  627SOL    HW1 1880   2.180   1.857   3.050 -1.4839  0.1009 -0.3836
  627SOL    HW2 1881   2.016   1.845   3.060 -0.1410 -0.8493  2.2160
  628SOL     OW 1882   1.510   1.642   2.921 -0.2883 -0.8203  0.1445
  628SOL    HW1 1883   1.438   1.565   2.931  0.6984 -0.7622  0.5690
  628SOL    HW2 1884   1.565   1.630   2.837 -0.6957  0.8615 -0.7236
  629SOL     OW 1885   0.074   0.349   1.871  0.3174  0.4479  0.1278
  629SOL    HW1 1886   0.144   0.304   1.931 -1.0668 -2.6432  2.0524
  629SOL    HW2 1887   0.112   0.432   1.829  1.3263  0.9764  0.6909
  630SOL     OW 1888   2.287   0.878   2.026  0.1119  0.2571 -0.4636
  630SOL    HW1 1889   2.293   0.971   1.987 -3.2170  3.6320 -0.0093
  630SOL    HW2 1890   2.258   0.877   2.123 -0.3668 -2.2318 -0.7546
  631SOL     OW 1891   1.629   0.234   0.767 -0.2844 -0.1556 -0.7144
  631SOL    HW1 1892   1.721   0.275   0.778 -1.2737  1.9448 -0.2270
  631SOL    HW2 1893   1.630   0.154   0.709  1.8474  0.2366 -1.1630
  632SOL     OW 1894   2.743   0.811   1.808  0.0041  0.0642 -0.0255
  632SOL    HW1 1895   2.759   0.896   1.754 -0.6229  0.9455  1.4766
  632SOL    HW2 1896   2.654   0.813   1.849  2.0471 -0.4700 -1.3879
  633SOL     OW 1897   0.732   0.518   2.702 -0.5754  0.1563  0.2178
  633SOL    HW1 1898   0.766   0.433   2.749 -1.4405 -0.8707  1.4040
  633SOL    HW2 1899   0.799   0.598   2.707  1.0221  0.5227  2.4666
  634SOL     OW 1900   0.645   2.623   2.761 -0.0595 -0.1549  0.1089
  634SOL    HW1 1901   0.679   2.536   2.802  1.6736  2.1800  0.3337
  634SOL    HW2 1902   0.557   2.606   2.704 -2.1809 -2.2650 -0.8807
  635SOL     OW 1903   0.120   1.146   1.188 -0.1064 -0.0798 -0.4374
  635SOL    HW1 1904   0.130   1.212   1.111  3.9914  0.3669 -0.3350
  635SOL    HW2 1905   0.136   1.052   1.153 -1.9304 -0.0440 -1.2211
  636SOL     OW 1906   2.945   1.366   0.067 -0.1580 -0.1152  0.2309
  636SOL    HW1 1907   2.863   1.404   0.114 -0.6728 -1.3029  0.3740
  636SOL    HW2 1908   2.925   1.282   0.015 -1.7488  3.6708  0.7404
  637SOL     OW 1909   0.414   2.667   3.092  0.6779  0.0272 -0.2825
  637SOL    HW1 1910   0.493   2.607   3.075  0.3451  2.5976 -1.0832
  637SOL    HW2 1911   0.336   2.626   0.046  0.7739  0.6947  2.0325
  638SOL     OW 1912   2.817   2.560   0.687  0.0824  0.1566  0.1197
  638SOL    HW1 1913   2.861   2.516   0.764 -2.0224  2.1771 -1.7821
  638SOL    HW2 1914   2.745   2.496   0.652 -0.6725 -0.0051  0.0594
  639SOL     OW 1915   1.470   1.002   0.186  0.1435 -0.4509  0.4392
  639SOL    HW1 1916   1.401   1.010   0.110 -0.7598 -1.5180 -1.1518
  639SOL    HW2 1917   1.438   0.929   0.253 -1.3525 -1.4219 -0.8746
  640SOL     OW 1918   1.824   2.532   1.488 -0.0308  0.2712 -0.2496
  640SOL    HW1 1919   1.755   2.464   1.516 -1.5755  2.2533 -0.2770
  640SOL    HW2 1920   1.873   2.496   1.407 -1.3123  0.3875  0.8474
  641SOL     OW 1921   0.055   0.186   0.804 -0.2729 -0.3034 -0.3492
  641SOL    HW1 1922   0.057   0.181   0.699  1.8861  0.6918 -0.7286
  641SOL    HW2 1923   3.066   0.224   0.841 -0.3030 -0.8579 -1.8184
  642SOL     OW 1924   1.471   0.963   1.764  0.2796  0.1404  0.3770
  642SOL    HW1 1925   1.519   0.884   1.803  1.7903  1.9332  1.6997
  642SOL    HW2 1926   1.395   0.996   1.822  0.8492 -0.5669 -4.5081
  643SOL     OW 1927   0.814   2.374   2.446 -0.3628  0.0826 -0.5824
  643SOL    HW1 1928   0.787   2.461   2.493  2.3337  1.4154 -1.5151
  643SOL    HW2 1929   0.771   2.362   2.351 -1.4835 -1.1571 -3.6069
  644SOL     OW 1930   1.399   2.355   2.843  0.8508 -0.5224 -0.2029
  644SOL    HW1 1931   1.371   2.406   2.925 -0.5519  1.3094  0.0681
  644SOL    HW2 1932   1.324   2.366   2.776 -1.9579  0.1759  1.4238
  645SOL     OW 1933   1.595   1.305   1.976 -0.1554  0.2112 -0.0358
  645SOL    HW1 1934   1.695   1.336   1.974 -0.2456  2.2011  1.2438
  645SOL    HW2 1935   1.571   1.260   1.887  0.1883  0.2016  0.4247
  646SOL     OW 1936   0.748   3.087   3.017  0.4278 -0.1563 -0.5977
  646SOL    HW1 1937   0.694   3.044   3.096  0.3880 -1.5318  3.3091
  646SOL    HW2 1938   0.705   0.077   2.984  0.3010 -1.2797 -3.6188
  647SOL     OW 1939   0.952   3.084   0.651  0.3364 -0.0567 -0.1956
  647SOL    HW1 1940   0.851   3.065   0.627  0.0924  0.0152 -1.6829
  647SOL    HW2 1941   0.971   3.083   0.752 -1.5903 -0.1572  0.8526
  648SOL     OW 1942   2.671   2.597   1.016  0.4702  0.0433 -0.6317
  648SOL    HW1 1943   2.662   2.515   0.960 -2.9746  0.3941  1.0206
  648SOL    HW2 1944   2.764   2.631   1.010  1.0402 -0.3622  0.4619
  649SOL     OW 1945   0.784   2.132   2.897 -0.2925  0.2672 -0.2851
  649SOL    HW1 1946   0.712   2.090   2.841 -2.1742 -2.4632  1.4552
  649SOL    HW2 1947   0.753   2.108   2.994  0.2095 -4.4423 -1.2078
  650SOL     OW 1948   2.109   1.717   2.134 -0.3522 -0.0287 -0.5942
  650SOL    HW1 1949   2.054   1.635   2.176 -0.3179 -2.1636 -1.0369
  650SOL    HW2 1950   2.195   1.740   2.183 -2.2290 -0.4665  0.6605
  651SOL     OW 1951   2.803   2.764   2.430 -0.8830  0.3938 -0.5584
  651SOL    HW1 1952   2.898   2.798   2.446 -0.7021 -3.0110  0.6861
  651SOL    HW2 1953   2.785   2.749   2.331 -1.6895 -1.2691 -0.5553
  652SOL     OW 1954   2.982   1.729   0.644  0.8782  0.2351  0.1682
  652SOL    HW1 1955   3.034   1.816   0.637  0.6736 -0.1176  0.4125
  652SOL    HW2 1956   2.889   1.740   0.629  1.4448 -0.9342 -0.0650
  653SOL     OW 1957   2.433   0.670   0.920  0.2548  0.1678  0.2917
  653SOL    HW1 1958   2.531   0.637   0.930  0.9886 -1.7836  1.5080
  653SOL    HW2 1959   2.419   0.758   0.870  2.2140 -1.4764  0.1986
  654SOL     OW 1960   0.830   0.274   2.794  0.2305 -0.2733 -0.0907
  654SOL    HW1 1961   0.928   0.255   2.811  0.1107  0.8286  1.8300
  654SOL    HW2 1962   0.767   0.240   2.868 -1.2044  0.9114 -1.9218
  655SOL     OW 1963   0.951   0.207   1.467  0.0023 -0.0368  0.0526
  655SOL    HW1 1964   0.934   0.207   1.567  0.4563 -1.1978 -3.0114
  655SOL    HW2 1965   0.994   0.120   1.435 -0.3986 -1.5913  1.3495
  656SOL     OW 1966   0.127   2.745   2.086 -0.2457 -0.2043  0.7945
  656SOL    HW1 1967   0.228   2.754   2.075  0.2922 -0.5954 -0.6926
  656SOL    HW2 1968   0.080   2.749   1.997 -0.8408  0.2739 -0.7660
  657SOL     OW 1969   2.360   0.465   0.286 -0.1340  1.0823 -0.5240
  657SOL    HW1 1970   2.328   0.540   0.350 -0.1792  2.1818 -0.6461
  657SOL    HW2 1971   2.422   0.500   0.212 -0.4452  1.4342  0.3579
  658SOL     OW 1972   2.056   1.645   1.157 -0.6544  0.7478 -0.2598
  658SOL    HW1 1973   2.101   1.719   1.209 -1.0213  1.6874 -0.6238
  658SOL    HW2 1974   2.131   1.584   1.122  1.3227 -0.3658 -0.5304
  659SOL     OW 1975   2.728   2.245   2.768 -0.0278 -0.1031  0.3401
  659SOL    HW1 1976   2.738   2.349   2.762  0.5158 -0.4015  3.3417
  659SOL    HW2 1977   2.782   2.205   2.846  0.9189 -0.0901  0.3189
  660SOL     OW 1978   1.064   0.306   0.028  0.6676  0.2973  0.5500
  660SOL    HW1 1979   1.149   0.339   0.068  0.7609 -0.9303  0.8477
  660SOL    HW2 1980   0.979   0.340   0.070 -0.3384 -4.0141  0.1154
  661SOL     OW 1981   2.118   0.125   0.419  0.2259 -0.6456 -0.4402
  661SOL    HW1 1982   2.067   0.119   0.333 -0.9486 -0.4221 -1.0089
  661SOL    HW2 1983   2.195   0.193   0.410  1.8766  2.8374  0.1680
  662SOL     OW 1984   0.587   0.053   1.065  0.5075 -0.0271 -0.0808
  662SOL    HW1 1985   0.649   0.138   1.059  4.2971  0.8797 -2.0168
  662SOL    HW2 1986   0.542   0.023   0.975 -0.0876  0.0908  2.2527
  663SOL     OW 1987   1.284   0.037   2.474 -0.2153  0.3249 -0.1407
  663SOL    HW1 1988   1.289   3.035   2.446  1.9321 -1.1713 -0.9406
  663SOL    HW2 1989   1.199   0.078   2.434 -2.7124  1.9505 -1.1524
  664SOL     OW 1990   0.739   2.542   1.569 -0.6706  0.0497 -0.3903
  664SOL    HW1 1991   0.668   2.527   1.497  0.3685  0.2058  0.8871
  664SOL    HW2 1992   0.728   2.634   1.611  1.6492 -0.1934 -1.4252
  665SOL     OW 1993   0.830   2.426   1.941 -0.1538 -0.0815  0.1141
  665SOL    HW1 1994   0.745   2.411   1.890  2.7870  2.2312 -0.5438
  665SOL    HW2 1995   0.905   2.364   1.915  0.1315  0.1985  1.3316
  666SOL     OW 1996   0.279   2.945   2.549 -0.7153 -0.2126 -0.3478
  666SOL    HW1 1997   0.235   2.936   2.456 -0.3630 -0.5536 -0.3766
  666SOL    HW2 1998   0.261   2.859   2.604  1.6099  0.9950  1.0727
  667SOL     OW 1999   1.525   1.428   1.540  0.3947  0.3294  0.4058
  667SOL    HW1 2000   1.432   1.430   1.504  0.6669  1.1355 -0.3055
  667SOL    HW2 2001   1.591   1.396   1.475 -2.3236  1.6160  1.0911
  668SOL     OW 2002   1.487   0.463   1.881  0.8728  0.4782 -0.0997
  668SOL    HW1 2003   1.511   0.363   1.893  0.7423  0.6680 -0.0847
  668SOL    HW2 2004   1.383   0.482   1.877 -1.2399  0.2088 -1.5038
  669SOL     OW 2005   2.571   2.416   1.324  0.1199 -0.3416  0.0106
  669SOL    HW1 2006   2.555   2.348   1.254 -1.7415 -0.1831  0.4715
  669SOL    HW2 2007   2.582   2.377   1.418 -1.1800  1.6796 -0.4385
  670SOL     OW 2008   1.661   2.531   2.828 -0.6028  0.1711  0.6010
  670SOL    HW1 2009   1.613   2.517   2.740  1.3435 -0.1603 -1.0755
  670SOL    HW2 2010   1.606   2.516   2.913  2.8013  0.3996  2.8449
  671SOL     OW 2011   1.050   0.937   0.598 -0.1524 -0.2427  0.2066
  671SOL    HW1 2012   1.137   0.995   0.593  2.1114  3.6839 -1.2025
  671SOL    HW2 2013   1.036   0.892   0.508 -2.8883 -2.9224  1.4144
  672SOL     OW 2014   0.194   1.015   2.530 -0.2315  0.7275 -0.5802
  672SOL    HW1 2015   0.129   1.052   2.599  2.7863 -0.5349 -0.1387
  672SOL    HW2 2016   0.182   0.915   2.532  0.1821  0.5581 -0.2259
  673SOL     OW 2017   3.027   1.892   1.446 -0.1113  0.1276 -0.4306
  673SOL    HW1 2018   3.019   1.978   1.496 -1.1052  0.0577 -1.4562
  673SOL    HW2 2019   3.009   1.816   1.511  1.2054 -1.7965 -2.1737
  674SOL     OW 2020   0.400   2.701   2.061  0.4298 -0.0340 -0.0571
  674SOL    HW1 2021   0.488   2.752   2.047 -0.5009  1.7912 -0.5924
  674SOL    HW2 2022   0.388   2.632   1.986  2.5611  0.7366  0.5209
  675SOL     OW 2023   0.768   1.126   1.697 -0.2317  0.5293 -0.0562
  675SOL    HW1 2024   0.824   1.040   1.719  1.2012 -2.7382  0.5955
  675SOL    HW2 2025   0.669   1.104   1.710 -0.6891 -0.9951  0.1659
  676SOL     OW 2026   2.385   0.362   1.103 -0.2018  0.0888 -0.2055
  676SOL    HW1 2027   2.385   0.449   1.160 -2.7095  1.8401  0.7509
  676SOL    HW2 2028   2.480   0.343   1.063  0.9166 -0.3210 -1.8232
  677SOL     OW 2029   2.467   1.477   3.015 -0.0116 -0.0082  0.3174
  677SOL    HW1 2030   2.433   1.406   3.082  3.4801  0.2813 -2.6189
  677SOL    HW2 2031   2.494   1.433   2.925  1.7815 -0.4329  0.4438
  678SOL     OW 2032   2.726   0.969   1.288 -0.2843 -0.0320  0.0452
  678SOL    HW1 2033   2.815   1.020   1.285 -0.3945  1.1602 -0.8157
  678SOL    HW2 2034   2.737   0.884   1.345 -0.0386  1.4955 -0.3544
  679SOL     OW 2035   2.373   0.241   0.443 -0.3444  0.6690  0.2461
  679SOL    HW1 2036   2.382   0.255   0.545 -0.9391 -1.7700 -0.6335
  679SOL    HW2 2037   2.368   0.331   0.396  3.0923 -0.7757  0.9415
  680SOL     OW 2038   0.187   1.870   2.019  0.6784  0.5435 -0.1998
  680SOL    HW1 2039   0.212   1.809   2.097  2.5504 -1.4065 -4.9086
  680SOL    HW2 2040   0.126   1.946   2.043  2.5693  0.2976 -1.9622
  681SOL     OW 2041   2.428   1.984   1.137 -0.1643  0.0817 -0.2058
  681SOL    HW1 2042   2.336   2.029   1.141  0.5726  0.3512 -2.4815
  681SOL    HW2 2043   2.437   1.917   1.062  0.6432  1.7269  0.1505
  682SOL     OW 2044   2.997   1.852   2.792  0.7672  0.5698  0.1147
  682SOL    HW1 2045   2.959   1.816   2.880  1.3797  0.9631  1.7657
  682SOL    HW2 2046   0.003   1.851   2.784  0.6450  1.8624 -0.7132
  683SOL     OW 2047   0.170   2.190   1.482 -0.5048 -0.4230 -0.0907
  683SOL    HW1 2048   0.170   2.247   1.396 -1.6012  1.0187 -3.9413
  683SOL    HW2 2049   0.076   2.160   1.504  4.5508 -0.2531 -1.3811
  684SOL     OW 2050   2.952   1.077   2.479  0.0517 -0.3725  0.0646
  684SOL    HW1 2051   2.964   1.179   2.474 -0.4585 -0.5375 -2.0059
  684SOL    HW2 2052   2.999   1.040   2.564  0.8885 -2.8301 -0.0137
  685SOL     OW 2053   1.527   1.027   0.642 -0.5216  0.2033  0.0705
  685SOL    HW1 2054   1.490   1.076   0.721 -0.0029 -0.4977 -4.8626
  685SOL    HW2 2055   1.549   0.931   0.667 -1.5878  1.8453  1.6791
  686SOL     OW 2056   0.568   0.313   0.771  0.2835  0.6551  0.2448
  686SOL    HW1 2057   0.475   0.308   0.812  1.4600 -2.7627 -1.0389
  686SOL    HW2 2058   0.578   0.234   0.707  0.0766 -3.2024 -0.9630
  687SOL     OW 2059   1.240   2.090   2.650 -0.1545 -0.0587  0.1877
  687SOL    HW1 2060   1.173   2.153   2.700  0.7967  0.7648  1.3086
  687SOL    HW2 2061   1.214   1.998   2.668  0.8366  1.5093 -0.6426
  688SOL     OW 2062   1.423   1.286   1.773  0.7158  0.2810  0.0464
  688SOL    HW1 2063   1.452   1.339   1.693 -1.7973 -3.1157  2.9185
  688SOL    HW2 2064   1.319   1.294   1.779 -2.9940  0.7143  2.8601
  689SOL     OW 2065   2.055   0.163   0.682  0.2726  0.1810 -0.1194
  689SOL    HW1 2066   2.096   0.158   0.586  0.7369  0.6821 -0.8822
  689SOL    HW2 2067   2.124   0.177   0.753  0.9897 -1.5204  1.3730
  690SOL     OW 2068   0.156   1.296   0.969  0.3203 -0.4986 -0.2500
  690SOL    HW1 2069   0.161   1.233   0.886  0.7684 -1.3804 -1.6867
  690SOL    HW2 2070   0.121   1.390   0.948  0.2666  0.8697 -1.5046
  691SOL     OW 2071   0.322   1.995   1.115  0.8376  0.0453 -0.1340
  691SOL    HW1 2072   0.251   1.958   1.178 -1.8909  0.5214 -0.0466
  691SOL    HW2 2073   0.327   2.095   1.131 -1.5366  1.3429  1.6478
  692SOL     OW 2074   2.086   0.737   1.365  0.2734 -0.3606 -0.7263
  692SOL    HW1 2075   2.053   0.774   1.454  2.4510  1.1659  1.2899
  692SOL    HW2 2076   2.172   0.782   1.337 -0.1320  0.6428 -0.9639
  693SOL     OW 2077   0.589   1.790   2.239 -0.1284 -0.0836  0.6131
  693SOL    HW1 2078   0.634   1.709   2.191  1.7835  0.6440 -0.3201
  693SOL    HW2 2079   0.654   1.869   2.260  0.4600  4.7465 -2.6994
  694SOL     OW 2080   1.634   1.411   1.256  0.4734  0.1353  0.4280
  694SOL    HW1 2081   1.609   1.503   1.217 -3.0021 -0.3738 -2.0296
  694SOL    HW2 2082   1.641   1.348   1.176 -0.9537  2.1521 -2.8489
  695SOL     OW 2083   1.267   1.091   0.510  0.7048 -0.4846 -0.0659
  695SOL    HW1 2084   1.268   1.106   0.410  0.2245 -0.9868 -2.4879
  695SOL    HW2 2085   1.360   1.089   0.545 -0.2766 -0.4170 -1.0890
  696SOL     OW 2086   0.852   2.788   0.367  0.1463  0.5870 -0.3120
  696SOL    HW1 2087   0.781   2.747   0.308  3.3430 -1.0688 -0.3318
  696SOL    HW2 2088   0.926   2.840   0.318 -0.2787  1.3955 -0.0067
  697SOL     OW 2089   1.573   0.662   1.377 -0.2368  0.1308 -0.3000
  697SOL    HW1 2090   1.580   0.578   1.319  0.7247  0.4413 -0.0064
  697SOL    HW2 2091   1.520   0.629   1.462 -0.4042 -1.3620  2.9008
  698SOL     OW 2092   1.581   1.764   1.984 -0.1039  0.0384  0.2315
  698SOL    HW1 2093   1.512   1.691   1.965  2.3646  0.0029  0.3554
  698SOL    HW2 2094   1.666   1.729   1.940 -0.6208 -2.0390  2.4901
  699SOL     OW 2095   2.720   0.497   1.976  0.4171 -0.3299  0.1478
  699SOL    HW1 2096   2.690   0.575   2.033 -0.2466 -1.0471  3.2341
  699SOL    HW2 2097   2.684   0.411   2.012 -0.4164 -0.3544  1.0359
  700SOL     OW 2098   1.330   2.321   0.543 -0.3907  0.5227 -0.4083
  700SOL    HW1 2099   1.400   2.338   0.615 -0.7137  0.7847 -0.0424
  700SOL    HW2 2100   1.375   2.314   0.452  3.5982  0.9792 -0.0881
  701SOL     OW 2101   2.320   2.435   2.142 -0.0391 -0.6074  0.4217
  701SOL    HW1 2102   2.418   2.411   2.130 -2.3189  1.5075  0.5699
  701SOL    HW2 2103   2.310   2.521   2.196  1.9506 -0.4224  1.4995
  702SOL     OW 2104   0.692   2.959   0.556  0.8332 -0.3642  0.0568
  702SOL    HW1 2105   0.609   2.900   0.587 -4.3514 -1.3743  0.7614
  702SOL    HW2 2106   0.744   2.914   0.483  2.1653  1.5131  0.4725
  703SOL     OW 2107   2.085   2.961   1.970  0.2278 -0.1760 -0.4144
  703SOL    HW1 2108   2.174   2.971   1.921  1.8135  1.0112 -1.3378
  703SOL    HW2 2109   2.093   2.893   2.047 -0.2529 -0.9787 -2.3276
  704SOL     OW 2110   2.439   2.172   0.369  0.1350 -0.0528 -0.3389
  704SOL    HW1 2111   2.422   2.172   0.467  0.3980 -0.0826 -1.5838
  704SOL    HW2 2112   2.523   2.227   0.344  0.3398 -2.0876  1.7093
  705SOL     OW 2113   2.581   2.325   2.068  0.3009 -0.3627 -0.2704
  705SOL    HW1 2114   2.679   2.335   2.028 -1.0398  0.3900 -3.0168
  705SOL    HW2 2115   2.581   2.258   2.147  1.4688  0.7537 -1.3665
  706SOL     OW 2116   2.528   0.092   0.846 -0.0881  0.2291  0.2493
  706SOL    HW1 2117   2.632   0.099   0.842  0.8766  3.4301  0.5967
  706SOL    HW2 2118   2.498   3.097   0.870 -0.1172  1.0838  0.1992
  707SOL     OW 2119   0.772   0.369   2.467 -0.1332 -0.5954  0.0900
  707SOL    HW1 2120   0.739   0.417   2.553 -2.6833  1.1497 -0.6524
  707SOL    HW2 2121   0.710   0.294   2.437  2.7170 -0.8110  0.3734
  708SOL     OW 2122   0.359   2.007   1.568  0.1781  0.2789 -0.0660
  708SOL    HW1 2123   0.290   2.069   1.524  0.5404  0.8868 -0.1339
  708SOL    HW2 2124   0.328   1.960   1.654 -0.9352 -2.6778  1.6632
  709SOL     OW 2125   1.518   0.191   1.936  0.0241  0.0463 -0.2318
  709SOL    HW1 2126   1.556   0.137   1.860 -1.1379 -1.6759 -1.6601
  709SOL    HW2 2127   1.468   0.131   2.008  0.3849  0.9639  1.1064
  710SOL     OW 2128   1.601   2.871   2.554  0.2314  0.2657 -0.6096
  710SOL    HW1 2129   1.624   2.814   2.477  1.2417  0.5650  2.9586
  710SOL    HW2 2130   1.679   2.905   2.611  0.1700  0.4400  0.0159
  711SOL     OW 2131   0.791   2.101   2.569  0.4075  0.4010 -0.0779
  711SOL    HW1 2132   0.708   2.080   2.629 -2.9109  0.0252  1.4401
  711SOL    HW2 2133   0.805   2.200   2.560 -1.6795  1.3623  1.5125
  712SOL     OW 2134   1.046   2.188   2.818  0.4871  0.6060 -0.1796
  712SOL    HW1 2135   0.952   2.191   2.855  0.3605 -2.0202  0.1014
  712SOL    HW2 2136   1.116   2.187   2.892  1.9880  1.0138 -0.2524
  713SOL     OW 2137   2.079   1.194   2.019 -0.5043 -0.1928 -0.1773
  713SOL    HW1 2138   2.135   1.155   1.944  2.5393  2.7766  0.1440
  713SOL    HW2 2139   2.073   1.135   2.101  3.3077  2.5034 -0.6539
  714SOL     OW 2140   0.941   1.158   2.092 -0.1962 -0.2415 -0.2505
  714SOL    HW1 2141   0.853   1.109   2.095  0.9781 -0.0029 -3.1290
  714SOL    HW2 2142   0.997   1.134   2.175  0.0550 -1.2231  0.5968
  715SOL     OW 2143   2.879   0.378   0.312 -0.5413 -0.1971  0.1006
  715SOL    HW1 2144   2.843   0.356   0.408 -0.4634  0.4698 -0.2287
  715SOL    HW2 2145   2.880   0.476   0.297 -1.6683 -2.6533 -0.3540
  716SOL     OW 2146   2.937   2.685   1.445  0.2065 -0.1432 -0.3633
  716SOL    HW1 2147   2.876   2.693   1.528 -2.7463  1.2613  1.6416
  716SOL    HW2 2148   3.012   2.620   1.463 -0.8752 -4.4985 -1.1750
  717SOL     OW 2149   2.372   0.887   0.754 -0.4118  0.0644 -0.4175
  717SOL    HW1 2150   2.275   0.917   0.737 -1.8373 -2.6920 -1.2112
  717SOL    HW2 2151   2.407   0.825   0.680  0.1315  0.9251  0.5338
  718SOL     OW 2152   1.270   1.493   1.407  0.3073  0.5943 -0.1296
  718SOL    HW1 2153   1.184   1.502   1.453  2.3470  1.0652 -2.6646
  718SOL    HW2 2154   1.322   1.578   1.396 -1.6708 -1.4042 -0.0193
  719SOL     OW 2155   2.558   2.797   2.753 -0.2644  0.0401 -0.4074
  719SOL    HW1 2156   2.643   2.768   2.804  0.4350 -1.0761  0.6640
  719SOL    HW2 2157   2.491   2.842   2.815  2.2580 -3.8338 -0.2561
  720SOL     OW 2158   1.032   0.314   0.892  0.3984 -0.9924  0.3140
  720SOL    HW1 2159   1.040   0.303   0.787  1.7067  2.0729 -2.1627
  720SOL    HW2 2160   1.092   0.252   0.943  1.5264  0.7399  1.2575
  721SOL     OW 2161   2.757   0.790   0.640  0.0257  0.0232 -0.4904
  721SOL    HW1 2162   2.829   0.734   0.593  0.7825  2.1410 -1.3685
  721SOL    HW2 2163   2.660   0.755   0.627  0.4324  0.8827 -0.1947
  722SOL     OW 2164   0.968   2.113   2.213  0.1040  0.1112 -0.5039
  722SOL    HW1 2165   1.012   2.187   2.273 -2.2316 -0.1187  0.1073
  722SOL    HW2 2166   1.013   2.098   2.124 -0.3343 -1.7528  3.8621
  723SOL     OW 2167   1.575   2.920   1.315 -0.2007  0.1742 -0.2871
  723SOL    HW1 2168   1.555   3.015   1.284 -0.0132  3.4299 -1.4752
  723SOL    HW2 2169   1.675   2.910   1.318 -2.1807  0.4091  0.1922
  724SOL     OW 2170   1.685   1.913   1.590 -0.1994 -0.0936  0.1473
  724SOL    HW1 2171   1.662   1.936   1.685 -0.5222  2.2188  0.7449
  724SOL    HW2 2172   1.703   1.811   1.585  0.6230 -0.5510 -1.9469
  725SOL     OW 2173   1.187   2.190   1.152  0.2967  0.0347 -0.1694
  725SOL    HW1 2174   1.147   2.252   1.082 -1.2900 -1.1406 -1.3173
  725SOL    HW2 2175   1.170   2.091   1.129 -0.9714  1.5880 -0.8901
  726SOL     OW 2176   1.947   0.001   0.009 -0.0968  0.6898  0.4464
  726SOL    HW1 2177   2.017   0.016   3.031 -2.9193  1.7577  0.0938
  726SOL    HW2 2178   1.868   3.040   3.073  0.2563  1.1365  0.0016
  727SOL     OW 2179   1.420   1.751   0.359 -0.7751  0.3005 -0.2135
  727SOL    HW1 2180   1.523   1.731   0.375  0.0640 -0.0711  1.2528
  727SOL    HW2 2181   1.370   1.669   0.323 -0.4101  1.3470  3.8774
  728SOL     OW 2182   1.900   2.621   1.747 -0.1344  0.1060  0.6818
  728SOL    HW1 2183   1.881   2.588   1.652  1.0355 -0.1221  1.9243
  728SOL    HW2 2184   1.882   2.719   1.763 -0.2526 -3.1886  1.2366
  729SOL     OW 2185   1.883   2.410   1.238 -0.1964  0.3862 -0.2926
  729SOL    HW1 2186   1.894   2.311   1.260  1.4211  0.7458 -1.2227
  729SOL    HW2 2187   1.975   2.451   1.210  0.0883  0.9128  1.5107
  730SOL     OW 2188   1.536   1.124   2.623 -0.0659 -0.0758  0.1595
  730SOL    HW1 2189   1.453   1.066   2.608 -0.5441  0.6138  0.4971
  730SOL    HW2 2190   1.597   1.076   2.691 -0.6852 -0.2134 -1.4874
  731SOL     OW 2191   1.015   3.055   1.369 -0.3869  0.1842  0.3989
  731SOL    HW1 2192   0.970   3.031   1.282  0.6466  0.3949 -0.5667
  731SOL    HW2 2193   1.036   2.976   1.423 -1.5768  1.7223 -1.1663
  732SOL     OW 2194   1.218   2.841   1.047 -0.2747 -0.3498  0.1847
  732SOL    HW1 2195   1.174   2.758   1.005 -1.1701 -0.0890  2.3338
  732SOL    HW2 2196   1.298   2.805   1.104 -0.9629 -1.2355  2.6875
  733SOL     OW 2197   1.019   1.003   0.893 -0.1876 -0.2873  0.0517
  733SOL    HW1 2198   1.046   1.025   0.797  0.4467 -0.3840  0.4168
  733SOL    HW2 2199   1.088   0.940   0.941  1.3318  1.7557 -0.4776
  734SOL     OW 2200   2.483   2.122   2.885 -0.2408  0.8758  0.4087
  734SOL    HW1 2201   2.453   2.200   2.942 -3.7152  0.8971  0.8678
  734SOL    HW2 2202   2.580   2.133   2.858 -1.2467 -2.5609 -1.2835
  735SOL     OW 2203   0.815   0.192   1.006 -0.3822 -0.6551  0.1512
  735SOL    HW1 2204   0.839   0.092   1.003 -2.8014 -1.4407 -0.2343
  735SOL    HW2 2205   0.885   0.246   0.953 -1.7892 -1.5347 -1.4482
  736SOL     OW 2206   1.826   2.415   2.654 -0.1602 -0.2949  0.0819
  736SOL    HW1 2207   1.798   2.318   2.637 -1.3050 -1.4620  0.5552
  736SOL    HW2 2208   1.766   2.453   2.729  4.2185  1.7401  0.4232
  737SOL     OW 2209   0.762   2.598   1.178 -0.0108 -0.1101 -0.8156
  737SOL    HW1 2210   0.710   2.516   1.155  2.3154  0.8338  0.3036
  737SOL    HW2 2211   0.814   2.585   1.260 -1.6225  0.1701 -3.1551
  738SOL     OW 2212   1.788   2.945   2.243 -0.1207  0.2662 -0.0495
  738SOL    HW1 2213   1.835   3.027   2.199 -0.0963  0.8212  1.1186
  738SOL    HW2 2214   1.853   2.895   2.303 -1.3474  1.0886 -0.9864
  739SOL     OW 2215   1.240   2.300   1.992 -0.9624  0.6952 -0.3948
  739SOL    HW1 2216   1.272   2.290   2.091  0.0916  0.7528 -1.0950
  739SOL    HW2 2217   1.314   2.265   1.935  1.5680  0.2951 -0.8524
  740SOL     OW 2218   1.434   2.183   1.294 -0.2418  0.1813  0.7913
  740SOL    HW1 2219   1.362   2.184   1.228  3.1150 -1.5394  0.5301
  740SOL    HW2 2220   1.440   2.279   1.329 -2.2551 -2.1746  0.6196
  741SOL     OW 2221   2.630   1.082   0.251 -0.2505  0.3081 -0.0786
  741SOL    HW1 2222   2.675   1.153   0.306  0.4163 -0.4351 -1.0736
  741SOL    HW2 2223   2.533   1.076   0.263  2.1362 -0.2268  0.7887
  742SOL     OW 2224   0.623   1.734   2.617 -0.3458  0.0061  0.3142
  742SOL    HW1 2225   0.582   1.825   2.627 -1.9234 -0.6729 -0.3773
  742SOL    HW2 2226   0.709   1.740   2.556  1.8667 -0.9200 -4.1241
  743SOL     OW 2227   0.212   0.721   2.569 -0.3628 -0.2828  0.3186
  743SOL    HW1 2228   0.274   0.724   2.653 -0.9955 -1.7485  1.8617
  743SOL    HW2 2229   0.115   0.701   2.589  0.2769 -0.1312  0.4814
  744SOL     OW 2230   2.483   2.255   1.114 -0.3432  0.1854  0.4045
  744SOL    HW1 2231   2.488   2.152   1.110 -0.7689 -0.2419 -2.1779
  744SOL    HW2 2232   2.390   2.281   1.084  1.5775 -1.2269 -0.7944
  745SOL     OW 2233   2.224   1.821   1.329 -0.0843 -0.0508 -0.6002
  745SOL    HW1 2234   2.287   1.736   1.333  1.9491 -2.5385  3.3293
  745SOL    HW2 2235   2.231   1.888   1.253  1.7829  1.4685  1.5731
  746SOL     OW 2236   2.109   0.939   0.719  0.3141 -0.5929  0.2528
  746SOL    HW1 2237   2.068   0.903   0.632  1.2755  2.2893 -0.1320
  746SOL    HW2 2238   2.045   0.988   0.778  1.0235 -0.8225 -0.9876
  747SOL     OW 2239   1.747   2.057   0.705 -0.4941  0.1476 -0.0972
  747SOL    HW1 2240   1.792   2.039   0.614  1.4690  3.4969 -2.3303
  747SOL    HW2 2241   1.698   1.975   0.742 -1.1573  1.4548 -0.6624
  748SOL     OW 2242   0.771   1.858   0.665 -0.5191 -0.1803  0.3680
  748SOL    HW1 2243   0.718   1.836   0.583  1.8014 -1.0919 -0.1458
  748SOL    HW2 2244   0.716   1.906   0.739 -0.3230  1.8473  0.5635
  749SOL     OW 2245   2.906   0.126   2.130  0.1938  0.4696 -0.3228
  749SOL    HW1 2246   2.954   0.216   2.134  2.3519  1.9029 -2.1697
  749SOL    HW2 2247   2.898   0.078   2.223 -1.1803 -2.0306  3.2197
  750SOL     OW 2248   1.579   0.289   1.540  0.1857 -0.2002 -0.8285
  750SOL    HW1 2249   1.665   0.326   1.495  0.5150  0.5508 -1.1679
  750SOL    HW2 2250   1.494   0.347   1.524  1.8652  0.5927  1.7123
  751SOL     OW 2251   1.721   2.942   3.005  0.0505  0.5934  0.0177
  751SOL    HW1 2252   1.642   2.887   3.037 -0.5202 -1.1666 -2.6985
  751SOL    HW2 2253   1.765   2.883   2.932  1.1044 -0.9545 -0.4801
  752SOL     OW 2254   1.891   1.953   0.243  0.1410 -0.3834 -0.1816
  752SOL    HW1 2255   1.859   1.870   0.187 -1.3284 -2.8996 -0.1696
  752SOL    HW2 2256   1.897   2.035   0.185 -0.6049  2.5918  0.9951
  753SOL     OW 2257   1.720   1.080   2.429 -0.2759  0.4510 -0.1624
  753SOL    HW1 2258   1.642   1.099   2.494 -0.0955  0.9295  0.0529
  753SOL    HW2 2259   1.809   1.112   2.473 -0.2000 -0.6623 -0.6503
  754SOL     OW 2260   0.180   2.621   0.515 -0.1176 -0.5534 -0.1235
  754SOL    HW1 2261   0.099   2.670   0.555 -0.5397 -1.2500  0.6936
  754SOL    HW2 2262   0.276   2.655   0.524 -0.2277 -3.4054 -1.6173
  755SOL     OW 2263   1.972   0.479   0.977 -0.1712  0.0593 -0.5688
  755SOL    HW1 2264   2.030   0.549   0.931 -2.6778 -0.0201 -1.8955
  755SOL    HW2 2265   1.997   0.474   1.074  2.5150  1.9713  0.7560
  756SOL     OW 2266   1.107   1.641   2.700  0.1443  0.4835  0.5953
  756SOL    HW1 2267   1.019   1.689   2.694  1.6112  1.6537  0.8445
  756SOL    HW2 2268   1.156   1.656   2.787  0.1191 -1.0519  0.4465
  757SOL     OW 2269   2.422   2.966   0.953  0.4374  0.4103  0.0435
  757SOL    HW1 2270   2.430   2.868   0.997  0.0248  0.0278 -0.8386
  757SOL    HW2 2271   2.431   3.029   1.032  0.2048  2.0614  4.0930
  758SOL     OW 2272   0.722   2.797   1.670 -0.1503  0.2008 -0.0989
  758SOL    HW1 2273   0.725   2.846   1.582  0.3857  0.5510  0.2715
  758SOL    HW2 2274   0.770   2.843   1.751 -0.6034 -0.2733 -1.4253
  759SOL     OW 2275   2.166   1.309   1.196  0.2492 -0.2811  0.4429
  759SOL    HW1 2276   2.192   1.386   1.135  0.6304 -2.5063  1.8446
  759SOL    HW2 2277   2.093   1.339   1.260 -0.9221  0.5541 -0.5454
  760SOL     OW 2278   1.989   0.760   1.647  0.5167 -0.0932 -0.4181
  760SOL    HW1 2279   2.010   0.862   1.622 -0.9021  3.7540 -0.9901
  760SOL    HW2 2280   2.042   0.735   1.731 -0.1109  1.2426 -0.2996
  761SOL     OW 2281   1.949   0.191   0.195 -0.6271  0.3961 -0.0487
  761SOL    HW1 2282   1.851   0.206   0.226 -0.0470  0.1189 -0.4193
  761SOL    HW2 2283   1.954   0.107   0.129  0.5667  1.8245 -1.5885
  762SOL     OW 2284   1.888   2.195   0.068 -0.2297 -0.1137 -0.4103
  762SOL    HW1 2285   1.984   2.198   0.028  0.1028 -1.6217  1.3361
  762SOL    HW2 2286   1.852   2.289   0.074 -0.0951 -1.9624  0.9019
  763SOL     OW 2287   0.674   0.862   1.054  0.1226 -0.4644 -0.3100
  763SOL    HW1 2288   0.682   0.931   0.978  1.8438 -1.4869  0.3806
  763SOL    HW2 2289   0.700   0.897   1.147 -1.3546 -1.9030  1.7245
  764SOL     OW 2290   2.472   2.375   2.988 -0.5498  0.2223 -0.8366
  764SOL    HW1 2291   2.532   2.429   2.924 -0.7329 -2.5246 -0.8650
  764SOL    HW2 2292   2.523   2.361   3.076  1.7006  0.0885  1.2433
  765SOL     OW 2293   0.881   0.197   2.048  0.2389 -0.1283 -0.1711
  765SOL    HW1 2294   0.976   0.201   2.089  1.4268 -1.6263 -2.0024
  765SOL    HW2 2295   0.852   0.289   2.033  4.2386 -0.7928 -0.0285
  766SOL     OW 2296   0.244   1.169   2.333  0.2558 -0.1878 -0.0942
  766SOL    HW1 2297   0.237   1.102   2.415 -1.1120  1.4322  0.0053
  766SOL    HW2 2298   0.161   1.234   2.329  0.0150 -0.3947 -0.9574
  767SOL     OW 2299   2.880   1.609   1.924 -0.0606 -0.7779  0.6048
  767SOL    HW1 2300   2.789   1.611   1.879  1.2936  0.1506  2.2877
  767SOL    HW2 2301   2.951   1.658   1.868 -0.2233  1.3020  1.1403
  768SOL     OW 2302   1.091   1.122   3.014 -0.3139 -0.1632 -0.3647
  768SOL    HW1 2303   1.027   1.060   2.965  0.4553  2.0539 -1.3523
  768SOL    HW2 2304   1.104   1.202   2.955  1.7227 -1.3502 -1.4464
  769SOL     OW 2305   2.054   2.861   0.157 -0.1101  0.2615 -0.0744
  769SOL    HW1 2306   2.057   2.774   0.107  1.4104  0.8649  1.7213
  769SOL    HW2 2307   2.035   2.939   0.094  0.6311 -2.3096 -0.9712
  770SOL     OW 2308   3.046   0.435   2.655  0.1164  0.4896  0.1473
  770SOL    HW1 2309   3.062   0.482   2.568  0.8676 -2.8742  0.0350
  770SOL    HW2 2310   2.965   0.374   2.658 -1.8219 -1.5759  1.0609
  771SOL     OW 2311   1.129   2.151   1.627 -0.3242 -0.2814 -0.2626
  771SOL    HW1 2312   1.230   2.135   1.641  1.3932 -0.8557 -1.0086
  771SOL    HW2 2313   1.124   2.213   1.545  0.3782  1.1096  1.6091
  772SOL     OW 2314   0.514   0.720   0.006 -0.1437  0.0490 -0.1933
  772SOL    HW1 2315   0.453   0.787   3.056  0.1488 -2.1875 -0.7552
  772SOL    HW2 2316   0.506   0.728   0.110  0.0099 -0.0770 -0.2848
  773SOL     OW 2317   2.610   1.060   1.613 -0.1141 -0.0452  0.2092
  773SOL    HW1 2318   2.534   0.996   1.583 -0.9712  1.7950  1.2923
  773SOL    HW2 2319   2.696   1.023   1.569 -1.0832  0.7817 -1.6059
  774SOL     OW 2320   1.375   0.820   0.348  0.3454  0.1989  0.7786
  774SOL    HW1 2321   1.420   0.804   0.436 -0.5081  2.2853  0.5160
  774SOL    HW2 2322   1.275   0.810   0.353 -0.7647 -0.3656 -1.7423
  775SOL     OW 2323   2.367   2.721   0.026 -0.4567 -0.2465  1.0810
  775SOL    HW1 2324   2.304   2.753   3.047  1.4896 -0.8173  3.7246
  775SOL    HW2 2325   2.325   2.643   0.081 -0.3200  0.2049 -3.4586
  776SOL     OW 2326   2.601   0.678   2.141  0.5928 -0.0983  0.3491
  776SOL    HW1 2327   2.640   0.758   2.188 -1.6538  0.8067  2.1840
  776SOL    HW2 2328   2.510   0.658   2.181 -1.0138  0.4275  0.2903
  777SOL     OW 2329   0.395   1.340   2.671  0.0769 -0.3682  0.1586
  777SOL    HW1 2330   0.482   1.382   2.686  0.2856 -2.1174 -0.7173
  777SOL    HW2 2331   0.385   1.321   2.574  0.8951 -0.3772  1.6732
  778SOL     OW 2332   1.002   0.064   0.377 -0.2141  0.4641 -0.1322
  778SOL    HW1 2333   0.919   0.122   0.352 -1.8589  1.9826  3.0821
  778SOL    HW2 2334   0.984   0.021   0.466 -0.8053 -0.9673  1.3728
  779SOL     OW 2335   0.425   0.987   2.693 -0.2707  0.0971 -0.0209
  779SOL    HW1 2336   0.355   1.045   2.650  0.9276  0.8549  0.8665
  779SOL    HW2 2337   0.443   0.907   2.629  1.9510 -0.6492  0.1375
  780SOL     OW 2338   2.066   0.798   2.555 -0.4054 -0.4677 -0.2401
  780SOL    HW1 2339   2.154   0.761   2.527 -2.9425  0.1163  1.7752
  780SOL    HW2 2340   2.005   0.811   2.478 -2.4758  3.6795  2.1176
  781SOL     OW 2341   2.485   1.391   1.951  0.2513 -0.1369  0.0507
  781SOL    HW1 2342   2.547   1.326   1.903 -2.2211  4.7963  1.5312
  781SOL    HW2 2343   2.412   1.424   1.887  1.8390  2.2485  1.9648
  782SOL     OW 2344   1.270   1.802   2.433 -0.5542  0.5037 -0.3301
  782SOL    HW1 2345   1.259   1.711   2.390  1.4132  0.1531 -1.0607
  782SOL    HW2 2346   1.235   1.798   2.528  0.6146 -0.7492 -0.6930
  783SOL     OW 2347   0.499   2.704   1.380 -0.1900  0.4356 -0.5092
  783SOL    HW1 2348   0.547   2.793   1.373 -1.2478 -1.0404  0.4050
  783SOL    HW2 2349   0.403   2.715   1.415 -0.2895 -1.2308 -1.2811
  784SOL     OW 2350   1.423   0.587   2.937  0.0986  0.5257  0.3065
  784SOL    HW1 2351   1.453   0.549   2.848 -1.6020 -1.1564 -1.9671
  784SOL    HW2 2352   1.504   0.589   3.000 -0.3209  0.4294  0.6340
  785SOL     OW 2353   1.313   0.373   0.104 -0.6490 -0.4124 -0.0347
  785SOL    HW1 2354   1.328   0.473   0.107  1.5323 -2.0460  0.4565
  785SOL    HW2 2355   1.390   0.323   0.058  2.5789 -1.2958  1.2127
  786SOL     OW 2356   0.283   1.655   0.627 -0.3698 -0.2585 -0.1188
  786SOL    HW1 2357   0.338   1.572   0.614 -0.5763  0.8173  1.0095
  786SOL    HW2 2358   0.207   1.671   0.558  0.3512  0.2241 -3.3481
  787SOL     OW 2359   1.691   1.622   0.403 -0.3293 -0.1399 -0.3255
  787SOL    HW1 2360   1.762   1.656   0.472 -1.7176  2.3413  1.8666
  787SOL    HW2 2361   1.704   1.663   0.308  0.9527  0.0874 -0.6837
  788SOL     OW 2362   1.835   1.601   1.428  0.3405  0.0231 -0.3403
  788SOL    HW1 2363   1.762   1.601   1.499  0.9021 -0.2545  0.1522
  788SOL    HW2 2364   1.798   1.607   1.332 -0.4768  0.8879 -0.2155
  789SOL     OW 2365   2.872   1.357   1.836 -0.3966 -0.3623  0.4435
  789SOL    HW1 2366   2.869   1.457   1.859 -0.3429 -2.2928 -0.3791
  789SOL    HW2 2367   2.954   1.335   1.775 -0.0888  0.5284  0.5100
  790SOL     OW 2368   0.428   2.927   2.992  0.0836  0.3067  0.1295
  790SOL    HW1 2369   0.453   2.837   3.032 -1.0762 -1.1711  1.0488
  790SOL    HW2 2370   0.466   2.953   2.899  0.2639  0.5164  0.2704
  791SOL     OW 2371   0.589   0.173   2.419  0.0677 -0.0117 -0.5881
  791SOL    HW1 2372   0.507   0.227   2.390 -0.2344 -1.6367  1.7876
  791SOL    HW2 2373   0.567   0.070   2.428  0.8164 -1.6235 -0.2309
  792SOL     OW 2374   2.160   0.468   2.565 -0.4220 -0.6372  0.0074
  792SOL    HW1 2375   2.089   0.492   2.638  0.7353 -1.3711  2.9467
  792SOL    HW2 2376   2.239   0.536   2.581 -0.3903 -1.1367 -0.7529
  793SOL     OW 2377   0.008   0.487   1.143  0.7488 -0.1099 -0.3322
  793SOL    HW1 2378   3.071   0.430   1.223 -1.0560  0.4915 -0.4070
  793SOL    HW2 2379   0.062   0.565   1.182 -1.2403 -0.9975 -2.3330
  794SOL     OW 2380   0.497   0.494   2.171 -0.4725  0.0448 -0.3010
  794SOL    HW1 2381   0.592   0.512   2.205 -1.2699  0.9769  0.6626
  794SOL    HW2 2382   0.479   0.556   2.093  0.7642  2.2676 -0.2542
  795SOL     OW 2383   0.102   1.314   0.191  0.0809 -0.2381  0.0510
  795SOL    HW1 2384   0.023   1.319   0.131  1.6603 -0.2759  1.5904
  795SOL    HW2 2385   0.069   1.318   0.286  2.3991 -0.3768  1.1744
  796SOL     OW 2386   3.068   2.946   0.509  0.1693  0.4582  0.0463
  796SOL    HW1 2387   3.016   2.877   0.567 -1.7876  2.3201  2.1079
  796SOL    HW2 2388   0.070   2.950   0.530 -2.6245 -2.8176 -0.5625
  797SOL     OW 2389   1.904   2.586   2.024 -0.1110 -0.1943 -0.7396
  797SOL    HW1 2390   1.935   2.597   1.926  2.1401  0.6849  2.3188
  797SOL    HW2 2391   1.955   2.660   2.073  1.3843 -0.3204 -0.9384
  798SOL     OW 2392   0.109   1.131   0.754  0.4146  0.0980 -0.3773
  798SOL    HW1 2393   0.079   1.139   0.657  0.4505 -0.0213  0.2294
  798SOL    HW2 2394   0.179   1.060   0.767 -0.7304  1.0091  1.1913
  799SOL     OW 2395   2.790   0.629   2.768 -0.1289 -0.5641 -0.2245
  799SOL    HW1 2396   2.874   0.685   2.742  1.6544  0.8893  0.0383
  799SOL    HW2 2397   2.702   0.683   2.758 -0.9182  2.0599  0.1217
  800SOL     OW 2398   2.826   2.065   0.288  0.2048 -0.0992 -0.3190
  800SOL    HW1 2399   2.844   2.091   0.383 -2.6419 -1.9855  0.4295
  800SOL    HW2 2400   2.900   2.001   0.257  2.3422 -1.8899  1.1373
  801SOL     OW 2401   1.247   1.378   0.867  0.0764 -0.0570 -0.1566
  801SOL    HW1 2402   1.343   1.403   0.829  2.4993  0.0532 -2.4743
  801SOL    HW2 2403   1.244   1.394   0.967  0.7574 -0.9904 -2.6182
  802SOL     OW 2404   1.090   1.753   1.901 -0.2976  0.7045 -1.3017
  802SOL    HW1 2405   1.108   1.822   1.974  0.7080 -1.8056 -0.2942
  802SOL    HW2 2406   0.995   1.761   1.873  2.1051 -0.2393  2.6408
  803SOL     OW 2407   0.334   1.694   0.886 -0.6292 -0.3437 -0.2674
  803SOL    HW1 2408   0.250   1.686   0.936  1.3716 -3.1312 -0.4912
  803SOL    HW2 2409   0.318   1.681   0.783  1.2863  1.4451  3.0839
  804SOL     OW 2410   1.115   2.306   1.393 -0.0438  0.2196 -0.4203
  804SOL    HW1 2411   1.148   2.291   1.298 -1.2691  0.7489  1.4418
  804SOL    HW2 2412   1.014   2.286   1.394  1.7082 -1.4429  1.4347
  805SOL     OW 2413   2.053   1.626   0.188  0.1091 -0.2172 -0.0448
  805SOL    HW1 2414   2.086   1.696   0.124 -1.6721 -2.5946 -1.4911
  805SOL    HW2 2415   1.987   1.565   0.133 -1.8993 -0.5397 -1.1432
  806SOL     OW 2416   1.629   2.554   1.244 -0.2947  0.4321  0.2400
  806SOL    HW1 2417   1.719   2.508   1.240 -1.7530 -0.8217 -1.4915
  806SOL    HW2 2418   1.629   2.646   1.206  1.0621  0.8043 -1.2024
  807SOL     OW 2419   2.773   0.607   3.055  0.0912 -0.4969  0.0825
  807SOL    HW1 2420   2.783   0.700   3.091 -1.9680 -3.4994  1.7690
  807SOL    HW2 2421   2.815   0.595   2.963 -0.4812 -1.8092 -0.8243
  808SOL     OW 2422   0.290   1.170   0.522 -0.4156  0.1213  0.8729
  808SOL    HW1 2423   0.314   1.104   0.603  2.6295  1.1127  3.5942
  808SOL    HW2 2424   0.340   1.131   0.442  1.7292 -3.3864  1.2372
  809SOL     OW 2425   2.678   0.887   2.294 -0.2508 -0.1012  0.2147
  809SOL    HW1 2426   2.601   0.957   2.299  1.9544  3.4968 -0.3910
  809SOL    HW2 2427   2.757   0.932   2.245  4.7521  0.8811 -0.2068
  810SOL     OW 2428   1.436   0.586   1.595 -0.1048 -0.2160 -0.3328
  810SOL    HW1 2429   1.527   0.554   1.626 -3.1465  0.7298  0.9560
  810SOL    HW2 2430   1.360   0.540   1.644  1.3639 -1.4812  0.9376
  811SOL     OW 2431   1.814   2.785   1.378 -0.5926 -0.6083 -0.0244
  811SOL    HW1 2432   1.822   2.690   1.417  2.0098  1.0458  0.6785
  811SOL    HW2 2433   1.878   2.800   1.301  0.6454  0.6319  1.6918
  812SOL     OW 2434   1.857   2.735   2.879  0.0944  0.4186  0.0338
  812SOL    HW1 2435   1.779   2.672   2.854 -3.2098  0.7592  1.7621
  812SOL    HW2 2436   1.916   2.710   2.957 -2.8435 -1.0442  0.4107
  813SOL     OW 2437   1.654   1.111   2.153 -0.1698 -0.1780  0.4035
  813SOL    HW1 2438   1.610   1.183   2.092 -1.1201 -0.9354 -0.8839
  813SOL    HW2 2439   1.637   1.133   2.251 -0.2002  1.6705  1.2497
  814SOL     OW 2440   1.204   0.466   1.889  0.0162 -0.9109  0.1624
  814SOL    HW1 2441   1.221   0.447   1.985  1.8782  1.2181 -0.7563
  814SOL    HW2 2442   1.140   0.545   1.880  0.7905  2.5103  0.8756
  815SOL     OW 2443   0.498   0.731   0.267 -0.0154 -0.7265 -0.4635
  815SOL    HW1 2444   0.570   0.777   0.320 -1.9915  0.1635 -3.1794
  815SOL    HW2 2445   0.413   0.734   0.321 -2.6753  0.9900 -0.9863
  816SOL     OW 2446   2.313   1.765   2.741  0.0054 -0.4981 -0.1651
  816SOL    HW1 2447   2.271   1.811   2.657 -3.9851 -0.6916 -1.2773
  816SOL    HW2 2448   2.275   1.674   2.761  1.3450  1.2078  2.1930
  817SOL     OW 2449   0.583   2.442   0.511 -0.1262 -0.4480 -0.2490
  817SOL    HW1 2450   0.681   2.457   0.488 -1.0092  0.0159 -0.4725
  817SOL    HW2 2451   0.565   2.416   0.609 -2.4557 -0.1204  0.8779
  818SOL     OW 2452   2.099   3.003   2.904 -0.0472  0.5246  0.2185
  818SOL    HW1 2453   2.096   3.072   2.826  0.3396  1.5429 -2.5264
  818SOL    HW2 2454   2.155   2.920   2.880  0.9363  3.6587 -2.4253
  819SOL     OW 2455   1.553   0.239   0.075 -0.0630  0.3262  0.0081
  819SOL    HW1 2456   1.584   0.191   3.092  1.3367  1.4530  1.3985
  819SOL    HW2 2457   1.626   0.309   0.092 -0.4685 -0.3744 -0.7347
  820SOL     OW 2458   1.649   0.630   0.392  0.0801 -0.1845 -0.1186
  820SOL    HW1 2459   1.559   0.583   0.418 -0.5815  0.1047 -0.4236
  820SOL    HW2 2460   1.712   0.645   0.470  1.2230 -0.3003  0.0605
  821SOL     OW 2461   2.489   2.783   0.436  0.0744 -0.5237  0.3128
  821SOL    HW1 2462   2.407   2.833   0.406 -0.1792 -2.2022  0.3561
  821SOL    HW2 2463   2.558   2.786   0.360 -2.0269 -1.3383 -0.0338
  822SOL     OW 2464   3.094   2.846   1.847 -0.5613  0.6063  0.4703
  822SOL    HW1 2465   3.049   2.934   1.844  1.3923 -0.6140  0.1866
  822SOL    HW2 2466   0.091   2.844   1.803  0.1589 -1.1405 -1.0164
  823SOL     OW 2467   2.630   1.625   1.521 -0.6714 -0.0451  0.9893
  823SOL    HW1 2468   2.600   1.561   1.449 -1.0954  0.2147  1.0466
  823SOL    HW2 2469   2.565   1.694   1.540  1.1356 -0.5286  1.7652
  824SOL     OW 2470   1.305   2.876   2.411 -0.5615  0.4771  0.1921
  824SOL    HW1 2471   1.312   2.888   2.310 -0.1835 -0.7369  1.4958
  824SOL    HW2 2472   1.400   2.866   2.444  0.9085  0.9715 -0.7886
  825SOL     OW 2473   1.812   1.320   0.709 -0.0469  0.3464 -0.2013
  825SOL    HW1 2474   1.772   1.293   0.799 -0.4068 -1.5579 -0.0544
  825SOL    HW2 2475   1.744   1.327   0.629 -0.8245 -2.9334 -0.0608
  826SOL     OW 2476   1.973   0.593   0.030  0.0076  0.4506  0.3122
  826SOL    HW1 2477   1.999   0.690   0.048 -0.7260  0.5942  0.0703
  826SOL    HW2 2478   2.026   0.529   0.088  1.2515  1.4407 -2.1012
  827SOL     OW 2479   0.484   1.072   1.514  0.2418  0.2141 -0.1630
  827SOL    HW1 2480   0.417   1.149   1.533  0.3908  1.7362 -0.6680
  827SOL    HW2 2481   0.545   1.090   1.429  0.6957  3.1612 -2.3922
  828SOL     OW 2482   2.035   1.360   1.826  0.3669  0.0525  0.1576
  828SOL    HW1 2483   2.036   1.298   1.908  0.8520 -0.8411  0.6002
  828SOL    HW2 2484   2.045   1.458   1.851  0.7180  2.2028  0.9032
  829SOL     OW 2485   2.996   1.906   0.116  0.3471 -0.4700 -0.3268
  829SOL    HW1 2486   2.942   1.841   0.058  2.2471  1.1135  1.0542
  829SOL    HW2 2487   3.057   1.969   0.062  3.1370  0.3251  0.8289
  830SOL     OW 2488   1.438   0.742   0.620  0.2287 -0.4532  0.2027
  830SOL    HW1 2489   1.468   0.661   0.670 -1.0531 -0.2091 -0.7090
  830SOL    HW2 2490   1.340   0.747   0.643  0.3692 -0.1746 -0.2096
  831SOL     OW 2491   2.728   1.499   0.169 -0.3469  0.1777 -0.2681
  831SOL    HW1 2492   2.659   1.509   0.091  0.2330  0.3041  1.8697
  831SOL    HW2 2493   2.751   1.596   0.203 -0.8277  2.7980 -0.7759
  832SOL     OW 2494   1.020   0.046   3.044 -0.0577  0.0003  0.1574
  832SOL    HW1 2495   0.925   0.037   3.015 -0.1313 -0.9048 -0.6741
  832SOL    HW2 2496   1.044   0.136   3.081  1.2629 -2.0733  0.5849
  833SOL     OW 2497   1.230   0.652   2.155 -0.4307  0.0900 -0.4155
  833SOL    HW1 2498   1.276   0.574   2.204  0.5296 -0.7972  2.0254
  833SOL    HW2 2499   1.254   0.740   2.199 -0.6273  1.9731  2.6364
  834SOL     OW 2500   0.178   0.652   1.250 -0.0606 -0.1696 -0.2967
  834SOL    HW1 2501   0.201   0.727   1.183 -0.1615 -1.3769 -3.1023
  834SOL    HW2 2502   0.208   0.668   1.345  1.4549  1.4643 -0.4762
  835SOL     OW 2503   0.007   0.336   1.355  0.0165  0.3335  0.2889
  835SOL    HW1 2504   3.038   0.321   1.433 -0.0319  1.7530  2.5197
  835SOL    HW2 2505   0.101   0.350   1.385 -0.6515  1.1983 -1.1590
  836SOL     OW 2506   0.475   2.079   0.192 -0.3467 -0.3274  0.1598
  836SOL    HW1 2507   0.499   2.025   0.274  1.4496 -1.6563 -2.8428
  836SOL    HW2 2508   0.452   2.176   0.217 -1.0629 -1.9819 -1.4626
  837SOL     OW 2509   1.812   1.851   2.439 -0.0352  0.1330  0.1091
  837SOL    HW1 2510   1.848   1.942   2.462 -1.2771 -1.4685  0.1077
  837SOL    HW2 2511   1.876   1.781   2.477  1.3600 -2.2102  4.2043
  838SOL     OW 2512   0.180   1.183   1.793 -0.1809  0.2570  0.6466
  838SOL    HW1 2513   0.179   1.181   1.896  0.1429 -1.8706  1.3342
  838SOL    HW2 2514   0.142   1.098   1.751 -2.3922  0.3246 -1.7441
  839SOL     OW 2515   0.288   0.540   0.763  0.2172 -0.4228  0.0218
  839SOL    HW1 2516   0.217   0.567   0.834 -0.6937 -0.6702 -0.7017
  839SOL    HW2 2517   0.333   0.449   0.788 -0.9006 -3.7222  0.5126
  840SOL     OW 2518   2.911   0.209   2.682 -0.4880 -0.3839  0.2097
  840SOL    HW1 2519   2.932   0.202   2.782 -0.1046 -2.2933  1.1371
  840SOL    HW2 2520   2.831   0.149   2.663 -0.5881  2.7284 -0.1859
  841SOL     OW 2521   0.762   2.405   2.861 -0.2918 -0.8428  0.1135
  841SOL    HW1 2522   0.849   2.452   2.882  0.0800 -1.3886  0.2028
  841SOL    HW2 2523   0.768   2.306   2.869 -0.7577  1.2795 -1.7893
  842SOL     OW 2524   0.740   2.949   1.161 -0.3118  0.4265 -0.1624
  842SOL    HW1 2525   0.688   3.034   1.143  0.7101  1.5444  0.3926
  842SOL    HW2 2526   0.749   2.894   1.079  3.6792  0.1717  1.2005
  843SOL     OW 2527   0.130   0.951   0.105  0.8602  0.2192  0.3270
  843SOL    HW1 2528   0.050   0.928   0.169 -0.8016  0.8950 -0.3837
  843SOL    HW2 2529   0.201   1.016   0.142 -1.4082 -0.4372 -1.5831
  844SOL     OW 2530   1.479   2.515   2.579 -0.3165  0.2436 -0.4021
  844SOL    HW1 2531   1.488   2.416   2.555 -1.2024  1.9870  0.6757
  844SOL    HW2 2532   1.541   2.579   2.531  0.9807  0.3568 -0.9465
  845SOL     OW 2533   2.233   2.929   2.621  0.8889  0.3096  0.6655
  845SOL    HW1 2534   2.286   3.008   2.654  1.8116 -0.1591 -0.0125
  845SOL    HW2 2535   2.267   2.889   2.535 -1.9520  0.3068  3.8910
  846SOL     OW 2536   1.945   1.626   2.546  0.3104 -0.1345 -0.2326
  846SOL    HW1 2537   1.986   1.583   2.465  0.7594  3.7577 -0.8043
  846SOL    HW2 2538   1.973   1.583   2.632 -1.6432  0.6694 -1.4355
  847SOL     OW 2539   2.689   2.941   3.023 -0.2658 -0.1513 -0.0878
  847SOL    HW1 2540   2.595   2.957   2.986  0.8893  0.4225 -1.7485
  847SOL    HW2 2541   2.737   3.025   3.051  0.0727  0.0250  1.1206
  848SOL     OW 2542   0.447   0.462   0.297  0.0941 -0.2570  0.8088
  848SOL    HW1 2543   0.349   0.447   0.277  0.8635  0.2715 -0.2397
  848SOL    HW2 2544   0.466   0.563   0.295  1.0544 -1.9038 -0.4646
  849SOL     OW 2545   1.551   3.065   2.275 -0.0910 -0.3380 -0.5172
  849SOL    HW1 2546   1.636   3.013   2.254 -1.4418  2.9119 -2.2815
  849SOL    HW2 2547   1.564   0.021   2.362  1.1898 -1.7684  1.3731
  850SOL     OW 2548   0.781   1.006   0.617 -0.0512  0.3056  0.5038
  850SOL    HW1 2549   0.880   0.995   0.599 -2.5095  0.3221  2.6159
  850SOL    HW2 2550   0.760   1.035   0.708 -0.5784 -1.8632 -4.3809
  851SOL     OW 2551   0.396   1.386   0.140 -0.4905  0.1831  0.1513
  851SOL    HW1 2552   0.449   1.424   0.217  0.0782 -1.7583 -0.1457
  851SOL    HW2 2553   0.298   1.364   0.166 -1.6473 -1.5645  0.9969
  852SOL     OW 2554   1.161   0.221   2.170 -0.1618 -0.4019 -0.7835
  852SOL    HW1 2555   1.235   0.157   2.141  4.0504 -1.4215  1.8982
  852SOL    HW2 2556   1.121   0.187   2.257 -0.2870 -0.5828  0.6331
  853SOL     OW 2557   2.689   1.313   0.396  0.0831  0.0682  0.0382
  853SOL    HW1 2558   2.774   1.321   0.455 -1.9750  2.1766  1.6975
  853SOL    HW2 2559   2.700   1.388   0.328  1.3623  0.0831  0.8770
  854SOL     OW 2560   1.076   1.106   2.309  0.3310 -0.7790 -0.2478
  854SOL    HW1 2561   1.007   1.088   2.384 -1.7322  1.6079 -0.5557
  854SOL    HW2 2562   1.134   1.191   2.333 -0.4421  0.7725  0.6744
  855SOL     OW 2563   0.111   2.857   2.961 -0.6633 -0.6220 -0.3968
  855SOL    HW1 2564   0.210   2.849   2.987 -0.0987  1.4782 -0.4420
  855SOL    HW2 2565   0.046   2.840   3.039  0.0961  0.4514 -0.5585
  856SOL     OW 2566   1.296   1.008   2.544 -0.1252  0.1661 -0.3229
  856SOL    HW1 2567   1.323   1.024   2.443 -0.3982 -0.1449 -1.3626
  856SOL    HW2 2568   1.267   0.911   2.566  0.5143 -1.2026 -0.1463
  857SOL     OW 2569   1.202   0.767   2.623 -0.1866 -0.5272 -0.6745
  857SOL    HW1 2570   1.229   0.684   2.580  2.6364  1.5024  3.6696
  857SOL    HW2 2571   1.112   0.765   2.670  2.8125 -0.1644 -5.0535
  858SOL     OW 2572   2.980   1.287   2.116  0.2589  0.3602  0.4814
  858SOL    HW1 2573   2.914   1.290   2.036 -1.4721  1.9577  0.2395
  858SOL    HW2 2574   2.981   1.370   2.173  2.0330 -0.1779  1.7066
  859SOL     OW 2575   2.366   0.248   0.704 -0.5154 -0.1754  0.3248
  859SOL    HW1 2576   2.283   0.264   0.758 -3.0466  1.1677  1.6078
  859SOL    HW2 2577   2.426   0.173   0.739  1.3039 -2.8899  2.0307
  860SOL     OW 2578   1.658   2.979   0.312 -0.0912 -0.4098  0.2030
  860SOL    HW1 2579   1.680   3.076   0.298  0.4848  0.5419 -1.7862
  860SOL    HW2 2580   1.745   2.927   0.321 -0.7626  0.3334 -1.2177
  861SOL     OW 2581   1.205   0.595   1.304  0.2016 -0.2214 -0.1612
  861SOL    HW1 2582   1.246   0.508   1.329  0.0747 -0.4757 -1.1488
  861SOL    HW2 2583   1.107   0.592   1.330  1.5807  0.4274  0.0150
  862SOL     OW 2584   1.500   0.191   2.478  0.2111  0.3144  0.0063
  862SOL    HW1 2585   1.556   0.153   2.555 -0.9244  0.2251 -1.8234
  862SOL    HW2 2586   1.421   0.131   2.463  0.1166 -3.5977  0.2103
  863SOL     OW 2587   2.645   2.377   0.601  0.1955  0.2984  0.0841
  863SOL    HW1 2588   2.576   2.451   0.618 -1.3834  1.0230  0.4689
  863SOL    HW2 2589   2.646   2.347   0.503  1.2873 -0.2741  0.5527
  864SOL     OW 2590   2.422   0.277   2.150  0.2017  0.0523  0.1414
  864SOL    HW1 2591   2.438   0.345   2.222 -0.5667 -1.4999  0.1363
  864SOL    HW2 2592   2.514   0.267   2.101  1.4424  2.1707  1.9556
  865SOL     OW 2593   1.248   0.970   1.920  0.1826  0.2041 -0.0365
  865SOL    HW1 2594   1.204   0.876   1.916 -2.1264 -2.4765  1.8437
  865SOL    HW2 2595   1.209   1.039   1.854  0.0155 -1.1995  1.0264
  866SOL     OW 2596   1.777   2.509   0.995  0.0991 -0.3202 -0.3751
  866SOL    HW1 2597   1.777   2.426   1.065  0.1683 -3.8034  2.9095
  866SOL    HW2 2598   1.685   2.546   0.984  0.1806  2.2559  0.2762
  867SOL     OW 2599   2.283   2.998   0.457  0.3802  0.5400  0.5034
  867SOL    HW1 2600   2.300   3.009   0.556 -1.4908  1.5839 -0.4222
  867SOL    HW2 2601   2.218   3.069   0.423  0.6976 -0.9678 -0.0637
  868SOL     OW 2602   0.258   2.233   1.984 -0.0597 -0.1904 -0.0573
  868SOL    HW1 2603   0.333   2.244   1.912 -0.9077 -0.4338 -0.1354
  868SOL    HW2 2604   0.237   2.322   2.025  1.2913 -1.0559 -2.1896
  869SOL     OW 2605   2.115   2.338   1.964  0.5517 -0.1961  0.7510
  869SOL    HW1 2606   2.023   2.334   2.004 -1.4427 -1.5090 -2.0644
  869SOL    HW2 2607   2.184   2.368   2.034 -0.2307  0.3029 -1.8229
  870SOL     OW 2608   1.501   1.427   0.802  0.2728 -0.2055 -0.1305
  870SOL    HW1 2609   1.546   1.402   0.714  0.5256  0.4577  2.9721
  870SOL    HW2 2610   1.549   1.381   0.882 -1.3568 -1.8317  1.2630
  871SOL     OW 2611   3.050   1.724   1.743  0.3603 -0.6383 -0.0986
  871SOL    HW1 2612   0.045   1.733   1.706  3.5299  1.6272  0.4783
  871SOL    HW2 2613   2.978   1.699   1.674  0.8073 -0.2658  0.4175
  872SOL     OW 2614   0.876   1.755   2.502 -0.8546  0.3110  0.4233
  872SOL    HW1 2615   0.919   1.832   2.557  0.4414  1.3016 -1.1718
  872SOL    HW2 2616   0.868   1.796   2.406  0.9652  1.1694 -0.2237
  873SOL     OW 2617   0.712   1.630   2.029  0.1957 -0.2392 -0.2934
  873SOL    HW1 2618   0.748   1.723   2.044 -0.1935  1.8481  0.0095
  873SOL    HW2 2619   0.770   1.554   2.048 -1.3397  2.9096  2.2104
  874SOL     OW 2620   1.616   0.794   2.127  0.0936  0.1182 -0.1684
  874SOL    HW1 2621   1.587   0.779   2.029  1.2788  0.5068 -0.4107
  874SOL    HW2 2622   1.595   0.887   2.149  2.7478 -2.3356 -0.8605
  875SOL     OW 2623   0.026   3.079   0.273  0.3105 -0.0254 -0.0155
  875SOL    HW1 2624   0.119   3.062   0.238 -0.7612 -2.2804  0.0870
  875SOL    HW2 2625   3.088   3.017   0.350 -1.2642  0.8382 -2.3582
  876SOL     OW 2626   0.775   1.282   0.281  0.0118  0.0285 -0.0128
  876SOL    HW1 2627   0.799   1.298   0.183  2.5753 -1.8257 -0.1743
  876SOL    HW2 2628   0.864   1.261   0.328 -0.9648 -1.8234 -2.7346
  877SOL     OW 2629   2.559   2.936   0.670 -0.2367  0.6541 -0.1521
  877SOL    HW1 2630   2.527   2.942   0.572  1.3296  1.4489  1.4979
  877SOL    HW2 2631   2.494   2.972   0.735 -0.6502 -0.9278 -2.7175
  878SOL     OW 2632   1.876   1.717   0.594  0.0670 -0.4304  1.0102
  878SOL    HW1 2633   1.948   1.784   0.564  0.6670  2.5307 -1.3875
  878SOL    HW2 2634   1.912   1.638   0.647  0.7100  0.4670  1.5576
  879SOL     OW 2635   2.403   1.635   1.261  0.0524 -0.4199  0.2918
  879SOL    HW1 2636   2.353   1.596   1.181 -2.1676  0.0187 -0.0894
  879SOL    HW2 2637   2.498   1.664   1.235 -1.0335 -1.4292  0.0545
  880SOL     OW 2638   0.590   1.975   0.853 -0.1254 -0.4197 -0.4223
  880SOL    HW1 2639   0.576   1.934   0.943  0.5152 -0.4815 -1.2787
  880SOL    HW2 2640   0.497   2.009   0.823 -1.8621 -1.5029  2.3184
  881SOL     OW 2641   0.763   0.607   0.967 -0.1038  0.7490 -0.1809
  881SOL    HW1 2642   0.732   0.702   0.989  0.6904  1.6786 -0.2931
  881SOL    HW2 2643   0.751   0.572   0.868  1.0473 -2.9924 -0.6784
  882SOL     OW 2644   2.522   1.109   0.822  0.5876  0.5277  0.3133
  882SOL    HW1 2645   2.520   1.153   0.728 -1.1700  1.2388 -3.2833
  882SOL    HW2 2646   2.452   1.038   0.823  0.9288  0.3688 -0.1095
  883SOL     OW 2647   1.898   0.317   1.680  0.7198  0.0033  0.3352
  883SOL    HW1 2648   1.845   0.227   1.674 -0.4174 -1.7127  1.6904
  883SOL    HW2 2649   1.858   0.382   1.750 -0.6105 -1.6209 -0.2396
  884SOL     OW 2650   2.861   0.239   1.577 -0.6420  0.4137  0.3962
  884SOL    HW1 2651   2.935   0.199   1.635  1.0460  0.6474 -2.0669
  884SOL    HW2 2652   2.823   0.320   1.622  0.8020 -0.4894  2.3369
  885SOL     OW 2653   1.351   1.417   2.833 -0.2652 -0.1432  0.0826
  885SOL    HW1 2654   1.259   1.376   2.835  0.3471  2.6527 -0.4039
  885SOL    HW2 2655   1.367   1.455   2.737  1.5404 -0.1185 -0.2756
  886SOL     OW 2656   1.960   0.534   2.742 -0.6110 -0.0763 -0.1063
  886SOL    HW1 2657   1.894   0.475   2.795 -0.3977 -0.2218  0.9112
  886SOL    HW2 2658   1.916   0.607   2.689  1.1186  0.8070 -1.7316
  887SOL     OW 2659   1.636   0.077   1.693 -0.4917 -0.6300 -0.0581
  887SOL    HW1 2660   1.603   0.148   1.628  0.1138 -0.4479 -0.5411
  887SOL    HW2 2661   1.672   3.091   1.644 -2.5126  0.0788  0.4234
  888SOL     OW 2662   2.063   1.629   1.879 -0.2622  0.4098  0.2189
  888SOL    HW1 2663   2.123   1.645   1.799 -1.8538  2.2308 -0.4079
  888SOL    HW2 2664   2.106   1.671   1.964 -2.4359 -0.6588  1.8148
  889SOL     OW 2665   1.741   2.240   0.301  0.1092  0.2196 -0.3729
  889SOL    HW1 2666   1.797   2.283   0.375 -0.2987  1.0127 -0.8585
  889SOL    HW2 2667   1.795   2.210   0.225 -0.4003 -0.6109  1.1758
  890SOL     OW 2668   1.064   2.085   0.515  0.3227 -0.3723  0.1844
  890SOL    HW1 2669   1.021   2.057   0.601  1.6579 -2.1556 -1.9405
  890SOL    HW2 2670   1.150   2.027   0.508 -0.4514 -1.7541  0.9190
  891SOL     OW 2671   2.821   0.940   0.116  0.1848  0.7424  0.3690
  891SOL    HW1 2672   2.892   0.917   0.187  0.3981 -0.6518 -0.9981
  891SOL    HW2 2673   2.734   0.974   0.149 -2.2367 -2.7742 -0.3420
  892SOL     OW 2674   1.665   0.717   2.676 -0.0393  0.5630  0.1246
  892SOL    HW1 2675   1.636   0.629   2.718  0.6139 -0.5679  0.8140
  892SOL    HW2 2676   1.639   0.726   2.578  0.8919  1.0046  0.3235
  893SOL     OW 2677   1.488   2.795   1.549 -0.0313  0.1543  0.6065
  893SOL    HW1 2678   1.502   2.851   1.464 -2.8441 -1.6519 -1.1881
  893SOL    HW2 2679   1.468   2.854   1.630 -0.2450 -3.0738 -0.6380
  894SOL     OW 2680   2.879   0.012   0.637 -0.7717 -0.3466 -0.1088
  894SOL    HW1 2681   2.945   3.058   0.581 -1.3060 -2.0092  1.9724
  894SOL    HW2 2682   2.875   3.078   0.738 -0.3065 -1.6624  3.0180
  895SOL     OW 2683   1.992   2.604   3.061  0.1617 -0.1693  0.3559
  895SOL    HW1 2684   2.022   2.592   2.964 -0.2689  2.4523 -0.3054
  895SOL    HW2 2685   2.066   2.569   0.026 -0.0763  0.3816 -0.7468
  896SOL     OW 2686   2.308   0.027   2.218  0.2156 -0.4309  0.2765
  896SOL    HW1 2687   2.217   0.061   2.188  0.0145  0.2939 -0.8203
  896SOL    HW2 2688   2.368   0.112   2.218  0.4513  3.1066 -0.8211
  897SOL     OW 2689   0.463   1.496   1.768 -0.3336 -0.1138  0.2184
  897SOL    HW1 2690   0.427   1.494   1.864  1.1738 -1.5010  0.1831
  897SOL    HW2 2691   0.538   1.566   1.756 -0.8470 -0.6581  2.0270
  898SOL     OW 2692   2.251   1.706   1.708  0.2965 -0.0172 -0.5180
  898SOL    HW1 2693   2.182   1.723   1.638  1.6707  1.7682 -0.7934
  898SOL    HW2 2694   2.344   1.757   1.690  2.0569  0.3361  1.2510
  899SOL     OW 2695   1.585   2.256   1.045 -0.4214  0.6220 -0.2566
  899SOL    HW1 2696   1.526   2.317   0.992  1.9460 -0.3107 -0.7635
  899SOL    HW2 2697   1.535   2.216   1.122 -0.2511 -1.3541  1.5693
  900SOL     OW 2698   1.189   0.739   3.076  0.1682 -0.3962 -0.2113
  900SOL    HW1 2699   1.251   0.682   0.040  2.7872 -1.8319  0.6006
  900SOL    HW2 2700   1.247   0.783   3.000  3.3360  3.3254 -0.7035
  901SOL     OW 2701   1.572   1.786   2.543 -0.0018 -0.2751  0.0309
  901SOL    HW1 2702   1.650   1.820   2.489 -2.1948  2.7020  2.5139
  901SOL    HW2 2703   1.498   1.756   2.478 -0.7059 -1.8465 -2.1656
  902SOL     OW 2704   2.944   2.568   3.077 -0.1418  0.1209 -0.4099
  902SOL    HW1 2705   2.974   2.653   0.028 -0.7140  2.4284  0.0692
  902SOL    HW2 2706   3.015   2.499   3.072 -0.7856  0.5541  2.6822
  903SOL     OW 2707   2.314   0.895   2.293  0.5015 -0.2817 -0.0888
  903SOL    HW1 2708   2.354   0.800   2.315  1.8127 -1.1819  0.1319
  903SOL    HW2 2709   2.379   0.971   2.307 -2.1033  0.3430  0.4229
  904SOL     OW 2710   1.501   0.466   2.712 -0.1110 -0.0938  0.1242
  904SOL    HW1 2711   1.431   0.488   2.641  0.8138  1.8911  0.3002
  904SOL    HW2 2712   1.505   0.364   2.730 -0.1292 -1.1010  0.6945
  905SOL     OW 2713   2.160   2.489   1.264  0.2441 -0.2797  0.3010
  905SOL    HW1 2714   2.206   2.575   1.287 -2.7969  0.9344  0.3270
  905SOL    HW2 2715   2.200   2.460   1.177 -3.3690  1.5105  1.9498
  906SOL     OW 2716   1.436   2.045   0.074 -0.5958  0.7575  0.1917
  906SOL    HW1 2717   1.435   1.940   0.085 -1.9593 -0.1982  0.4376
  906SOL    HW2 2718   1.443   2.064   3.069  0.4181  1.0647 -0.5985
  907SOL     OW 2719   0.485   2.833   0.687 -0.4588  0.2810  0.2251
  907SOL    HW1 2720   0.520   2.780   0.769 -1.2735  2.6948  1.1942
  907SOL    HW2 2721   0.464   2.771   0.611  1.7901 -0.2343 -0.9510
  908SOL     OW 2722   1.327   2.765   1.904 -0.2417 -0.1242 -0.1397
  908SOL    HW1 2723   1.310   2.677   1.851  0.6406  0.3963  1.8379
  908SOL    HW2 2724   1.383   2.833   1.852 -0.0792  0.5512 -1.1661
  909SOL     OW 2725   2.053   0.469   1.244  0.1094  0.0278 -0.0115
  909SOL    HW1 2726   2.061   0.566   1.283  0.5589  0.7116  0.4995
  909SOL    HW2 2727   2.127   0.408   1.280 -1.8937 -1.2872 -2.0123
  910SOL     OW 2728   1.345   1.047   3.040  0.3779 -0.3146 -0.7721
  910SOL    HW1 2729   1.244   1.074   3.038  1.2989  2.6665 -0.2163
  910SOL    HW2 2730   1.361   0.981   2.968  0.1068  1.8342  1.0622
  911SOL     OW 2731   3.025   0.869   0.272  0.0375 -0.4896  0.2669
  911SOL    HW1 2732   2.983   0.778   0.300 -0.3719 -0.3556  0.2188
  911SOL    HW2 2733   3.049   0.927   0.351 -2.0202  1.3924  3.1209
  912SOL     OW 2734   3.050   2.312   0.054  0.1237  0.2816 -0.4116
  912SOL    HW1 2735   3.095   2.221   0.034  1.4739 -4.3258 -0.3704
  912SOL    HW2 2736   3.053   2.332   0.154  2.0532 -0.6189 -0.0301
  913SOL     OW 2737   2.581   2.200   2.545 -0.1896  0.3640  0.0017
  913SOL    HW1 2738   2.629   2.238   2.625 -1.3068  1.9948  0.9693
  913SOL    HW2 2739   2.642   2.123   2.512  1.4241 -0.3659 -1.9512
  914SOL     OW 2740   1.410   1.831   1.626 -0.2366  0.1110 -0.4155
  914SOL    HW1 2741   1.415   1.800   1.531 -1.0841  3.0747  2.6183
  914SOL    HW2 2742   1.444   1.766   1.702  1.9805 -1.1444  3.3422
  915SOL     OW 2743   0.585   2.811   1.913  0.0763 -0.0457 -0.2935
  915SOL    HW1 2744   0.620   2.796   1.819 -0.5189  1.3159 -0.7361
  915SOL    HW2 2745   0.519   2.890   1.911 -1.3557  1.5854 -0.2399
  916SOL     OW 2746   0.523   1.026   1.765 -0.1477  0.2780 -0.4943
  916SOL    HW1 2747   0.430   1.005   1.804 -1.8523 -1.4904 -0.6525
  916SOL    HW2 2748   0.516   1.030   1.668  1.8917 -2.1268  4.2966
  917SOL     OW 2749   2.555   0.447   0.626  0.1414  0.0073 -0.0120
  917SOL    HW1 2750   2.482   0.390   0.666  1.7032 -1.8002  2.9661
  917SOL    HW2 2751   2.643   0.399   0.607  2.2961  1.9779  1.5064
  918SOL     OW 2752   1.614   2.864   2.005 -0.4010 -0.6012  0.2073
  918SOL    HW1 2753   1.531   2.810   2.035  0.4865  0.5865  1.6604
  918SOL    HW2 2754   1.679   2.874   2.089  0.0412  1.6650 -0.3346
  919SOL     OW 2755   1.554   2.556   1.654  0.4787 -0.4074  0.3886
  919SOL    HW1 2756   1.553   2.637   1.591  1.8024  2.1854  0.0387
  919SOL    HW2 2757   1.463   2.534   1.696  0.5071  3.4622 -0.4658
  920SOL     OW 2758   0.892   0.957   2.866  0.0831  0.4926  0.5023
  920SOL    HW1 2759   0.835   1.016   2.806 -0.8379  0.0420 -0.3627
  920SOL    HW2 2760   0.841   0.916   2.947 -2.3801 -0.4032  1.3090
  921SOL     OW 2761   0.114   0.327   2.838  0.2420 -0.0359  0.0468
  921SOL    HW1 2762   0.041   0.370   2.778 -1.8553  0.6865  0.2335
  921SOL    HW2 2763   0.192   0.297   2.776 -2.7922  0.1179  1.9252
  922SOL     OW 2764   0.844   1.701   0.982  0.1255  0.1766 -0.7850
  922SOL    HW1 2765   0.768   1.631   1.007 -1.7403 -3.1803  1.0339
  922SOL    HW2 2766   0.832   1.792   1.030 -0.4463  2.8230  2.5429
  923SOL     OW 2767   0.657   1.043   2.069 -0.4252  0.4927  0.5196
  923SOL    HW1 2768   0.625   1.029   1.969  0.4132  0.4682 -2.5975
  923SOL    HW2 2769   0.589   1.003   2.134 -0.0597  0.0792  0.4396
  924SOL     OW 2770   1.320   3.081   2.928  0.5707 -0.1636  0.1002
  924SOL    HW1 2771   1.325   2.980   2.915 -0.9949 -1.0881 -0.2079
  924SOL    HW2 2772   1.256   0.026   2.863  1.1293 -1.0085  1.3286
  925SOL     OW 2773   2.644   1.383   1.360 -0.2287  0.2277 -0.5913
  925SOL    HW1 2774   2.637   1.350   1.459 -0.4105 -2.5901 -0.8779
  925SOL    HW2 2775   2.743   1.383   1.333  0.0165  1.3450 -0.2528
  926SOL     OW 2776   1.694   0.735   1.606  0.4561  0.4917  0.0686
  926SOL    HW1 2777   1.681   0.706   1.509  0.7398  3.5890 -0.5892
  926SOL    HW2 2778   1.792   0.730   1.624 -0.2366 -0.7756 -0.8294
  927SOL     OW 2779   2.024   2.850   1.192 -0.2194 -0.0240 -0.5101
  927SOL    HW1 2780   2.114   2.829   1.243 -0.9964  1.7535 -0.5594
  927SOL    HW2 2781   1.999   2.946   1.211 -0.4354 -0.8590  3.4264
  928SOL     OW 2782   0.413   0.973   2.215 -0.2451  0.2098  0.5302
  928SOL    HW1 2783   0.369   1.039   2.279 -1.6259  1.2364 -0.4972
  928SOL    HW2 2784   0.419   0.875   2.244  0.5386  1.4330  2.1672
  929SOL     OW 2785   2.685   0.560   0.967 -0.3849 -0.2168 -0.7137
  929SOL    HW1 2786   2.671   0.463   1.004  1.4544 -0.7177  0.6309
  929SOL    HW2 2787   2.755   0.603   1.031 -0.4556 -0.3056  3.3805
  930SOL     OW 2788   2.763   2.653   1.659 -0.1180  0.0319  0.1686
  930SOL    HW1 2789   2.669   2.684   1.682 -1.3527 -1.7132  0.0658
  930SOL    HW2 2790   2.821   2.647   1.740 -0.4639 -0.9590 -1.4841
  931SOL     OW 2791   1.763   0.794   0.908  0.1391 -0.0779  0.2194
  931SOL    HW1 2792   1.679   0.771   0.964 -1.6639  0.1562  1.6336
  931SOL    HW2 2793   1.847   0.755   0.943 -3.1261  0.3707  0.2079
  932SOL     OW 2794   2.636   1.238   1.819  0.0719 -0.7480 -0.1644
  932SOL    HW1 2795   2.623   1.184   1.733 -0.8480  0.6208  0.7959
  932SOL    HW2 2796   2.731   1.281   1.828  2.2248 -0.8131 -1.5039
  933SOL     OW 2797   2.849   2.364   1.587  0.1346 -0.3505  0.0007
  933SOL    HW1 2798   2.766   2.329   1.640  0.5402 -0.6749 -1.4506
  933SOL    HW2 2799   2.840   2.465   1.575 -3.4568 -1.1149 -3.0237
  934SOL     OW 2800   0.825   2.027   1.416 -0.1460  0.4055  0.1086
  934SOL    HW1 2801   0.842   1.978   1.499  0.0030  1.2000 -0.9558
  934SOL    HW2 2802   0.724   2.049   1.408 -1.5918  0.8054  2.4032
  935SOL     OW 2803   2.650   1.576   1.795  0.4702 -0.1873 -0.0315
  935SOL    HW1 2804   2.569   1.516   1.812  0.2345  4.9682 -1.4559
  935SOL    HW2 2805   2.653   1.604   1.695 -1.7130  1.7694 -1.9247
  936SOL     OW 2806   2.368   1.470   1.709 -0.0142 -0.5250  0.2338
  936SOL    HW1 2807   2.372   1.437   1.612  0.6440  1.8477  2.3720
  936SOL    HW2 2808   2.321   1.562   1.706  2.1473 -1.0894  0.2643
  937SOL     OW 2809   1.791   0.964   1.899  0.3934 -0.1986  0.5199
  937SOL    HW1 2810   1.750   1.022   1.973 -1.1473 -3.0422 -1.3098
  937SOL    HW2 2811   1.716   0.933   1.842  1.4437  0.3734  0.9948
  938SOL     OW 2812   0.828   2.662   2.551  0.3969 -0.4576  0.2129
  938SOL    HW1 2813   0.775   2.679   2.638  0.2575  2.1515  3.3750
  938SOL    HW2 2814   0.914   2.714   2.531 -0.5130 -1.1306 -0.8664
  939SOL     OW 2815   2.464   1.304   0.146 -0.0061  0.0258  0.0712
  939SOL    HW1 2816   2.372   1.269   0.171  1.4323  2.6461 -2.2245
  939SOL    HW2 2817   2.536   1.240   0.181 -0.5756  1.4519 -0.9153
  940SOL     OW 2818   1.286   1.956   0.466 -0.0241 -0.1211  0.4739
  940SOL    HW1 2819   1.324   1.869   0.421 -0.6731 -0.7737 -0.8357
  940SOL    HW2 2820   1.331   2.041   0.433  0.4651  2.0462 -0.6089
  941SOL     OW 2821   1.817   2.979   2.665 -0.3065 -0.2526 -0.5977
  941SOL    HW1 2822   1.846   2.909   2.737  2.0480 -2.9019  0.3657
  941SOL    HW2 2823   1.893   3.044   2.647  0.0440 -1.1120 -1.3190
  942SOL     OW 2824   0.864   2.493   0.465 -0.1856  0.1727 -0.1098
  942SOL    HW1 2825   0.933   2.473   0.537 -1.4517 -1.5647 -1.9162
  942SOL    HW2 2826   0.873   2.581   0.413 -0.4636  2.3004 -1.4303
  943SOL     OW 2827   2.104   0.475   1.596 -0.3512 -0.4052 -0.1296
  943SOL    HW1 2828   2.023   0.416   1.605  3.9735  0.9353  0.1971
  943SOL    HW2 2829   2.069   0.573   1.587 -1.4532 -0.7428  0.9359
  944SOL     OW 2830   1.093   1.332   2.858 -0.4901  0.2528 -0.3823
  944SOL    HW1 2831   0.996   1.362   2.861  3.4395 -2.8955 -0.1818
  944SOL    HW2 2832   1.108   1.279   2.772 -1.8186 -1.3806  1.2716
  945SOL     OW 2833   3.029   2.248   1.097  0.2250  0.0852  0.2563
  945SOL    HW1 2834   2.943   2.287   1.129  1.6610 -1.9935 -0.7783
  945SOL    HW2 2835   3.015   2.148   1.073  1.9762 -0.6413 -2.1826
  946SOL     OW 2836   0.713   1.141   2.768  0.1767 -0.0864  0.2254
  946SOL    HW1 2837   0.637   1.102   2.711  1.4480  0.0301 -0.2954
  946SOL    HW2 2838   0.682   1.170   2.858  3.5968  0.6089 -2.4598
  947SOL     OW 2839   2.328   0.174   1.900  0.0043 -0.2191  0.2771
  947SOL    HW1 2840   2.361   0.195   1.993 -0.8062  1.4045 -1.7369
  947SOL    HW2 2841   2.312   0.261   1.850  1.5199 -2.2496  0.6153
  948SOL     OW 2842   0.155   1.965   0.911 -0.0091 -0.8427 -0.2267
  948SOL    HW1 2843   0.228   1.943   0.978 -2.2075 -1.8811 -2.3227
  948SOL    HW2 2844   0.067   1.998   0.954 -2.9620  1.1810 -3.7658
  949SOL     OW 2845   1.142   1.127   1.719  0.4174  0.4209  0.2241
  949SOL    HW1 2846   1.083   1.160   1.646  0.8317  1.8770  0.3451
  949SOL    HW2 2847   1.132   1.191   1.798 -0.6226 -2.3873 -2.2450
  950SOL     OW 2848   0.194   0.871   1.110 -0.5921 -0.2033  0.0092
  950SOL    HW1 2849   0.121   0.888   1.041  1.7646 -0.9199  1.1391
  950SOL    HW2 2850   0.279   0.895   1.068 -1.6722 -2.7972  0.5229
  951SOL     OW 2851   0.304   1.705   2.197  0.2079 -0.0715  0.2200
  951SOL    HW1 2852   0.334   1.630   2.131 -3.8951  3.8616 -1.0688
  951SOL    HW2 2853   0.394   1.741   2.237  1.0478  0.7057  0.6486
  952SOL     OW 2854   1.458   1.773   0.064  0.6442  0.3901  0.2938
  952SOL    HW1 2855   1.421   1.702   0.125 -2.1578  1.6390  1.1529
  952SOL    HW2 2856   1.464   1.720   3.067 -2.0974 -0.1364 -4.0885
  953SOL     OW 2857   0.937   0.700   0.109 -0.1713  0.3770  0.7578
  953SOL    HW1 2858   1.019   0.717   0.054 -1.3589 -1.6848  1.4742
  953SOL    HW2 2859   0.879   0.779   0.097 -0.1117 -2.6275 -1.4833
  954SOL     OW 2860   1.837   1.053   0.362 -0.2825 -0.1692  0.7694
  954SOL    HW1 2861   1.889   1.123   0.421  0.1427 -1.2621  2.4194
  954SOL    HW2 2862   1.737   1.051   0.377 -1.6132  1.0458  2.3271
  955SOL     OW 2863   2.501   1.879   0.005 -0.0817 -0.9953  0.0162
  955SOL    HW1 2864   2.549   1.802   3.054 -0.2453 -2.5276  3.4016
  955SOL    HW2 2865   2.410   1.904   3.052 -2.1836 -0.8867 -1.9812
  956SOL     OW 2866   1.106   0.708   1.695 -0.2658  0.5700  0.3676
  956SOL    HW1 2867   1.190   0.746   1.648  0.4904 -2.0339  0.3641
  956SOL    HW2 2868   1.100   0.737   1.793  1.0047 -3.7750 -0.3985
  957SOL     OW 2869   1.627   1.099   1.605  0.7961  0.1152  0.2409
  957SOL    HW1 2870   1.659   1.187   1.644 -2.1507  0.5490 -0.4296
  957SOL    HW2 2871   1.552   1.053   1.659  2.1606 -0.1624  0.2440
  958SOL     OW 2872   0.311   1.938   0.539 -0.0487  0.2629 -0.2534
  958SOL    HW1 2873   0.314   1.842   0.564 -2.1632 -0.1055  1.8284
  958SOL    HW2 2874   0.390   1.963   0.480 -2.4409 -4.0354 -1.1400
  959SOL     OW 2875   1.853   1.126   1.450  0.7011  0.1422  0.2930
  959SOL    HW1 2876   1.782   1.109   1.522  1.2223 -1.4925  1.6784
  959SOL    HW2 2877   1.831   1.069   1.367  0.4283  2.6634 -0.3922
  960SOL     OW 2878   3.020   1.462   2.749  0.8692 -0.1107 -0.1081
  960SOL    HW1 2879   3.024   1.488   2.850 -1.5159  1.4701  1.6800
  960SOL    HW2 2880   0.015   1.484   2.716 -1.6569  0.4385  3.0052
  961SOL     OW 2881   1.038   1.349   0.676  0.3287 -0.8409  0.4183
  961SOL    HW1 2882   0.983   1.434   0.694  0.5764  0.9477 -1.0234
  961SOL    HW2 2883   1.113   1.351   0.745 -1.5840 -0.7149  1.9990
  962SOL     OW 2884   0.661   0.794   0.452  0.0557  0.3438 -0.7698
  962SOL    HW1 2885   0.737   0.723   0.457  1.1997 -1.5280 -0.1993
  962SOL    HW2 2886   0.687   0.875   0.510  0.8935  1.5053 -0.6618
  963SOL     OW 2887   1.317   2.010   1.850  0.3344  0.1281  0.6406
  963SOL    HW1 2888   1.368   2.097   1.847  0.4289  0.4644  1.6054
  963SOL    HW2 2889   1.362   1.936   1.798  0.4370  2.6508  2.4344
  964SOL     OW 2890   3.018   2.909   2.782 -0.3228  0.0598 -0.0388
  964SOL    HW1 2891   3.095   2.890   2.848  2.0835 -1.2573  4.1690
  964SOL    HW2 2892   2.935   2.855   2.802  2.3244 -1.0024 -0.1624
  965SOL     OW 2893   0.859   2.260   0.187  0.8970  0.5164  0.4990
  965SOL    HW1 2894   0.836   2.175   0.140 -2.5733 -0.4930  0.8952
  965SOL    HW2 2895   0.954   2.269   0.222 -0.5240  1.3887 -0.4703
  966SOL     OW 2896   2.866   1.731   3.030  0.0444 -0.2430 -0.3532
  966SOL    HW1 2897   2.768   1.727   2.999 -1.3808  1.1551  0.3800
  966SOL    HW2 2898   2.908   1.640   3.006 -0.2302  0.4289  0.0905
  967SOL     OW 2899   2.183   2.766   2.840  0.4033  0.1981  0.1211
  967SOL    HW1 2900   2.217   2.803   2.750 -2.6400  0.8439 -3.7529
  967SOL    HW2 2901   2.138   2.676   2.835 -1.6218 -0.1513 -2.8561
  968SOL     OW 2902   2.107   2.792   0.518  0.1313  0.1221 -0.0730
  968SOL    HW1 2903   2.179   2.854   0.475  1.1658  2.5254  1.1860
  968SOL    HW2 2904   2.094   2.801   0.619 -1.3592  0.2301 -2.8842
  969SOL     OW 2905   0.680   1.102   2.464 -0.6465  0.6754 -0.4598
  969SOL    HW1 2906   0.622   1.181   2.447  0.6369 -3.3489  1.2481
  969SOL    HW2 2907   0.632   1.012   2.450 -0.8503 -2.1711 -0.5796
  970SOL     OW 2908   1.648   1.279   0.994 -0.0862 -0.0330 -0.0472
  970SOL    HW1 2909   1.584   1.206   0.994  3.8516  3.2541 -0.1172
  970SOL    HW2 2910   1.744   1.250   1.021  1.3772 -2.0781  0.2785
  971SOL     OW 2911   2.443   0.051   1.167  0.3872 -0.1148  0.0020
  971SOL    HW1 2912   2.426   0.146   1.211 -0.4578  0.7189  0.9832
  971SOL    HW2 2913   2.497   3.080   1.222 -2.3717 -1.0428 -0.5557
  972SOL     OW 2914   2.793   3.069   1.517  0.1507 -0.1010 -0.0007
  972SOL    HW1 2915   2.746   3.024   1.599 -0.9983  1.8181  1.1210
  972SOL    HW2 2916   2.805   0.069   1.546 -1.3766 -1.3425  3.9317
  973SOL     OW 2917   0.062   0.154   2.488  0.5652  0.0624 -0.2192
  973SOL    HW1 2918   3.096   0.223   2.528 -1.5605 -1.0145 -0.0503
  973SOL    HW2 2919   0.127   0.123   2.565 -1.5035 -0.9621  1.9495
  974SOL     OW 2920   2.291   1.263   2.210  0.1762 -0.4828 -0.4549
  974SOL    HW1 2921   2.273   1.241   2.112 -0.3619 -0.2643  0.3628
  974SOL    HW2 2922   2.340   1.352   2.213 -2.2930 -2.6501  1.6582
  975SOL     OW 2923   0.874   0.500   1.685 -0.3004 -0.2735 -0.3466
  975SOL    HW1 2924   0.959   0.552   1.651  2.8509  2.1146 -1.2239
  975SOL    HW2 2925   0.784   0.524   1.635 -0.5611  1.1625 -0.7933
  976SOL     OW 2926   0.844   1.859   2.033  0.4099  0.5480  0.0996
  976SOL    HW1 2927   0.811   1.923   1.960 -1.3767  0.3967  0.6547
  976SOL    HW2 2928   0.897   1.916   2.096 -0.5170 -0.1985 -2.9312
  977SOL     OW 2929   0.803   0.207   0.273 -0.2308  0.6253  0.1957
  977SOL    HW1 2930   0.831   0.304   0.260 -0.4112 -0.7544 -1.3148
  977SOL    HW2 2931   0.706   0.197   0.298 -0.3233 -0.2171  2.8002
  978SOL     OW 2932   2.550   1.015   2.063  0.0200  0.3470 -0.0981
  978SOL    HW1 2933   2.512   1.057   2.145  2.5131 -3.2728 -1.6901
  978SOL    HW2 2934   2.586   1.080   1.988  4.4112  1.8094  0.3093
  979SOL     OW 2935   1.752   0.229   2.151  0.3797  0.5075 -0.0142
  979SOL    HW1 2936   1.718   0.201   2.058 -0.5745 -1.4478  0.2245
  979SOL    HW2 2937   1.816   0.155   2.181 -1.7887  0.1838 -0.1035
  980SOL     OW 2938   1.678   1.653   1.638 -0.2187 -0.2135  0.3601
  980SOL    HW1 2939   1.734   1.646   1.723  1.5783 -0.2400  2.4407
  980SOL    HW2 2940   1.615   1.577   1.636  0.7002  0.3224 -1.2783
  981SOL     OW 2941   2.326   0.913   1.625  0.1144 -0.2958 -0.1003
  981SOL    HW1 2942   2.235   0.951   1.599  0.3944 -3.3297  3.0479
  981SOL    HW2 2943   2.367   0.966   1.703  2.4995 -1.7461  1.7551
  982SOL     OW 2944   0.542   3.014   2.521 -0.0638  0.4790 -0.1767
  982SOL    HW1 2945   0.444   3.003   2.511  1.9569 -0.2463 -1.1403
  982SOL    HW2 2946   0.577   2.969   2.606  2.6757  1.9575 -2.0894
  983SOL     OW 2947   2.548   0.759   2.801 -0.3559  0.6271  0.0418
  983SOL    HW1 2948   2.519   0.850   2.833 -2.0501  2.0086 -3.1827
  983SOL    HW2 2949   2.509   0.688   2.860 -1.7215  1.8184  0.5242
  984SOL     OW 2950   1.356   0.052   2.103  0.2628 -0.3915 -0.2506
  984SOL    HW1 2951   1.415   0.009   2.174  0.4663 -0.0143 -0.6949
  984SOL    HW2 2952   1.280   3.089   2.075  2.7812 -0.1220 -0.2581
  985SOL     OW 2953   2.034   1.943   1.956 -0.4553 -0.6047 -0.1366
  985SOL    HW1 2954   2.012   1.924   1.859  1.5964 -2.2302  1.5565
  985SOL    HW2 2955   2.043   1.856   2.010  1.8539 -1.0330 -1.7573
  986SOL     OW 2956   2.371   0.635   1.182  0.1499  0.3139  0.3546
  986SOL    HW1 2957   2.345   0.734   1.195  0.8267  2.4848 -1.2039
  986SOL    HW2 2958   2.408   0.624   1.088 -0.1321 -0.5337 -0.6513
  987SOL     OW 2959   2.552   1.057   1.117  0.3871  0.2057 -0.1580
  987SOL    HW1 2960   2.579   1.126   1.042 -1.3849  0.7566 -0.6906
  987SOL    HW2 2961   2.633   1.026   1.173  1.1592 -0.6386  1.6050
  988SOL     OW 2962   2.209   1.224   1.624 -0.2600 -0.5564  0.7940
  988SOL    HW1 2963   2.186   1.293   1.696  0.8339  1.9563 -1.2119
  988SOL    HW2 2964   2.243   1.271   1.541  1.8202  0.9482  0.4524
  989SOL     OW 2965   1.090   2.665   0.214 -0.3982 -0.3985  0.0438
  989SOL    HW1 2966   1.075   2.762   0.186  2.1958  1.9423  0.4653
  989SOL    HW2 2967   1.180   2.661   0.260 -0.4497 -1.1508 -1.9784
  990SOL     OW 2968   1.626   0.949   2.818 -0.7492  0.8351 -0.2042
  990SOL    HW1 2969   1.673   0.870   2.766 -1.0601 -1.1281  1.1173
  990SOL    HW2 2970   1.533   0.918   2.840 -0.3501  1.9644  0.2786
  991SOL     OW 2971   1.099   0.487   0.463 -0.0313 -0.3440 -0.7237
  991SOL    HW1 2972   1.132   0.544   0.540 -2.2620 -1.8226  0.1016
  991SOL    HW2 2973   1.171   0.423   0.424 -1.2385 -3.4772 -0.4052
  992SOL     OW 2974   2.960   1.396   1.368 -0.4446  0.1292 -0.1261
  992SOL    HW1 2975   2.926   1.360   1.277 -2.0291  1.0441 -1.1264
  992SOL    HW2 2976   3.012   1.325   1.422 -0.1696 -3.0408  1.2926
  993SOL     OW 2977   2.818   0.690   1.445 -0.5162  0.0354 -0.3309
  993SOL    HW1 2978   2.870   0.648   1.521 -1.1472 -2.6093 -1.5229
  993SOL    HW2 2979   2.733   0.638   1.440  0.0071  1.3543  0.2380
  994SOL     OW 2980   0.046   2.403   2.434 -0.6465 -0.3682  0.6621
  994SOL    HW1 2981   0.139   2.396   2.395 -0.5334 -0.3092  1.5371
  994SOL    HW2 2982   0.053   2.472   2.511 -1.0637  1.6545  0.8577
  995SOL     OW 2983   1.884   1.059   2.875 -0.4118  0.5083  0.0776
  995SOL    HW1 2984   1.952   0.994   2.828  3.3949  0.5132 -0.9417
  995SOL    HW2 2985   1.788   1.026   2.849 -0.1939  2.3647 -1.6479
  996SOL     OW 2986   2.696   1.512   0.681 -0.3120 -0.2609  0.1725
  996SOL    HW1 2987   2.676   1.585   0.611  0.7087  2.6285  1.5961
  996SOL    HW2 2988   2.771   1.447   0.645  1.6691 -0.8987  0.3016
  997SOL     OW 2989   2.057   1.043   2.270 -0.0035 -0.1895 -0.2778
  997SOL    HW1 2990   2.144   0.997   2.253 -1.0381  2.0024  0.8591
  997SOL    HW2 2991   1.979   0.980   2.295  0.9647  0.1970  0.3938
  998SOL     OW 2992   2.503   1.200   0.566  0.3855 -0.6592  0.5543
  998SOL    HW1 2993   2.415   1.169   0.526  0.7698 -1.3129  2.6562
  998SOL    HW2 2994   2.559   1.254   0.502  0.1768 -0.7282  1.2683
  999SOL     OW 2995   0.051   2.431   0.317 -0.0312  0.1997  0.1500
  999SOL    HW1 2996   0.070   2.360   0.384  1.5593 -1.0066  1.5896
  999SOL    HW2 2997   3.065   2.480   0.350  0.0510  1.6899 -0.0487
 1000SOL     OW 2998   0.851   0.738   2.458 -0.0453  0.9543 -0.0760
 1000SOL    HW1 2999   0.850   0.717   2.556  0.8647  0.1916 -2.7791
 1000SOL    HW2 3000   0.930   0.688   2.418 -0.3142  1.1113  0.4512
   3.09717   3.09717   3.09717
