1000 SPC/Fw water molecules t= 460.00000 step= 460000
 3000
    1SOL     OW    1   2.931   2.928   1.559 -0.6074 -0.2731 -0.3844
    1SOL    HW1    2   2.913   2.835   1.520 -2.6600 -1.7439  3.3355
    1SOL    HW2    3   2.841   2.977   1.565 -2.7678 -0.7773 -3.0774
    2SOL     OW    4   2.819   0.126   0.011 -0.1873 -0.5273  0.2880
    2SOL    HW1    5   2.805   0.128   0.109  2.3519 -1.6920 -2.8919
    2SOL    HW2    6   2.900   0.071   3.098 -1.3248  0.2389 -1.0264
    3SOL     OW    7   1.290   2.613   0.341 -0.1231 -0.2665 -0.2376
    3SOL    HW1    8   1.250   2.531   0.386 -1.0917 -0.8260  2.1511
    3SOL    HW2    9   1.388   2.625   0.367  0.9039 -1.5453  0.7429
    4SOL     OW   10   1.300   2.716   2.448  0.3950 -0.5391 -0.5465
    4SOL    HW1   11   1.361   2.767   2.509 -1.2841 -3.1248 -0.4169
    4SOL    HW2   12   1.230   2.669   2.505  1.1502  0.4041  0.2628
    5SOL     OW   13   2.224   0.254   2.173  0.2160 -0.4826  0.7154
    5SOL    HW1   14   2.279   0.226   2.093  0.7110  0.8277  0.7273
    5SOL    HW2   15   2.138   0.294   2.137 -0.2945  0.0636  0.0490
    6SOL     OW   16   2.633   1.800   1.142  0.4979 -0.1978  0.3465
    6SOL    HW1   17   2.637   1.694   1.134 -2.2120 -2.2210  0.3417
    6SOL    HW2   18   2.536   1.835   1.124 -1.7889  0.8509 -1.4843
    7SOL     OW   19   1.116   2.134   0.484  0.2655 -0.2249  0.3502
    7SOL    HW1   20   1.071   2.061   0.544 -1.7364 -0.5096  0.1032
    7SOL    HW2   21   1.102   2.108   0.384  0.6094 -1.6068 -3.8766
    8SOL     OW   22   0.138   0.780   0.555 -0.6319  0.2989 -0.5924
    8SOL    HW1   23   0.232   0.754   0.521  0.6067  0.8759 -0.1600
    8SOL    HW2   24   0.072   0.786   0.478 -0.1416  1.8853  0.5329
    9SOL     OW   25   0.230   2.871   1.560 -0.4885  0.3272 -0.0896
    9SOL    HW1   26   0.315   2.817   1.568 -1.1758 -1.7824  2.1523
    9SOL    HW2   27   0.165   2.843   1.634 -0.8478  0.9819  1.4134
   10SOL     OW   28   1.159   2.401   0.457 -0.3173 -0.0336 -0.1086
   10SOL    HW1   29   1.164   2.301   0.469 -0.0073  2.5338 -0.2387
   10SOL    HW2   30   1.116   2.437   0.540  0.8651 -4.6120 -0.2450
   11SOL     OW   31   2.130   0.962   1.391  0.0518  0.4208 -0.1197
   11SOL    HW1   32   2.169   0.874   1.351  2.1766  1.7910  1.2934
   11SOL    HW2   33   2.044   0.948   1.448 -0.1458  2.2017  2.7820
   12SOL     OW   34   0.510   0.721   1.985 -0.4730  0.0513  0.1890
   12SOL    HW1   35   0.509   0.820   1.967 -1.3105  2.2150 -2.1838
   12SOL    HW2   36   0.538   0.716   2.087 -1.3976 -1.4367  1.4829
   13SOL     OW   37   2.086   0.313   0.273  0.1258  0.0758  0.9316
   13SOL    HW1   38   1.996   0.270   0.292  0.3960 -1.5626  0.6329
   13SOL    HW2   39   2.082   0.369   0.192 -0.8086 -1.8548  4.8005
   14SOL     OW   40   1.931   1.942   0.038 -0.0869 -0.0350 -0.0888
   14SOL    HW1   41   2.014   1.894   0.005 -0.4194  2.6962  0.9452
   14SOL    HW2   42   1.909   1.904   0.130  0.3196 -0.4514 -0.4480
   15SOL     OW   43   0.057   2.870   2.580  0.2186  0.3504 -0.1265
   15SOL    HW1   44   0.030   2.856   2.482 -2.3842  1.0638 -4.1282
   15SOL    HW2   45   0.062   2.973   2.602 -0.5492  2.4197 -1.0579
   16SOL     OW   46   3.039   0.699   1.223 -0.1471  0.6166 -0.1124
   16SOL    HW1   47   3.061   0.657   1.130  0.2868 -1.9281 -0.3932
   16SOL    HW2   48   2.965   0.643   1.267  3.6625  0.5992  0.5760
   17SOL     OW   49   0.718   0.211   0.924  0.2693  0.1893 -0.5579
   17SOL    HW1   50   0.715   0.179   1.022 -0.6295 -0.0405  0.1990
   17SOL    HW2   51   0.805   0.181   0.891 -2.0798  2.0797  0.6475
   18SOL     OW   52   0.095   0.139   0.560  0.6186 -0.2564 -0.3103
   18SOL    HW1   53   0.055   0.171   0.643  1.5656 -1.5579  1.5076
   18SOL    HW2   54   0.196   0.126   0.577  3.9915 -2.3063  0.7199
   19SOL     OW   55   1.546   1.168   1.119  0.4470 -0.1652  0.2556
   19SOL    HW1   56   1.497   1.143   1.033 -0.0461 -1.3362 -3.9337
   19SOL    HW2   57   1.522   1.263   1.143  0.0865 -1.0853 -0.1385
   20SOL     OW   58   2.320   1.883   2.473  0.0903 -0.4368  0.1360
   20SOL    HW1   59   2.404   1.941   2.484  2.8243 -0.3988  0.1288
   20SOL    HW2   60   2.332   1.790   2.516  1.4674 -0.2499  1.7856
   21SOL     OW   61   1.475   3.011   0.334  0.1308  0.3343 -0.3969
   21SOL    HW1   62   1.454   2.945   0.408 -1.7026  0.1819  1.0272
   21SOL    HW2   63   1.415   3.011   0.254 -1.8679  0.8409  0.8943
   22SOL     OW   64   2.461   1.021   0.230 -0.0215 -0.1527 -0.0819
   22SOL    HW1   65   2.514   1.102   0.267  0.8612  0.9472 -0.2475
   22SOL    HW2   66   2.441   0.947   0.295 -0.6163 -0.0295 -4.1483
   23SOL     OW   67   1.002   0.375   2.110 -0.3390  0.0497 -0.0061
   23SOL    HW1   68   0.993   0.283   2.148  3.1098 -0.2310  1.5355
   23SOL    HW2   69   1.083   0.415   2.166  1.8221  0.2127  2.7520
   24SOL     OW   70   1.881   2.383   0.784  0.2362 -0.6643 -0.0262
   24SOL    HW1   71   1.973   2.426   0.786 -0.1729  1.3725  0.7902
   24SOL    HW2   72   1.809   2.450   0.793 -0.0618 -2.0624  1.1949
   25SOL     OW   73   1.735   0.007   2.803  0.4232 -0.0635  0.5549
   25SOL    HW1   74   1.672   0.085   2.815 -0.1893  1.9608 -0.9332
   25SOL    HW2   75   1.737   3.043   2.882  0.0567 -1.7407 -0.7691
   26SOL     OW   76   1.301   3.001   2.805  0.0242 -0.5546 -0.1087
   26SOL    HW1   77   1.382   2.981   2.743 -0.9555 -1.0615 -0.6483
   26SOL    HW2   78   1.274   2.912   2.845  1.7036 -0.0683 -0.6655
   27SOL     OW   79   1.121   0.413   1.089  0.1182  0.0415  0.2815
   27SOL    HW1   80   1.162   0.317   1.079  0.2251  0.0872 -0.8222
   27SOL    HW2   81   1.088   0.435   1.180  0.0705 -0.0762  0.8981
   28SOL     OW   82   0.213   1.846   1.064  0.0898  0.0681  0.9026
   28SOL    HW1   83   0.311   1.861   1.040 -0.7665 -0.3217 -0.4677
   28SOL    HW2   84   0.192   1.874   1.160 -2.1959 -1.4361  1.0195
   29SOL     OW   85   2.627   1.104   1.335  0.3263 -0.1234  0.4609
   29SOL    HW1   86   2.591   1.032   1.271 -1.1358 -1.0638 -0.1596
   29SOL    HW2   87   2.594   1.090   1.432 -1.3157  0.2143  1.1840
   30SOL     OW   88   1.770   2.917   1.311  0.0879  0.3900 -0.1964
   30SOL    HW1   89   1.783   2.814   1.290 -0.0854 -0.8324 -1.1669
   30SOL    HW2   90   1.671   2.940   1.327 -1.7970  2.2136 -1.3474
   31SOL     OW   91   1.408   2.812   1.188 -0.3428  0.5319  0.1867
   31SOL    HW1   92   1.408   2.824   1.082 -0.9492 -0.1707 -4.7496
   31SOL    HW2   93   1.440   2.720   1.220  2.1289 -1.4225 -0.4150
   32SOL     OW   94   2.178   1.467   1.959  0.1875  0.2759  0.3833
   32SOL    HW1   95   2.239   1.444   1.884 -3.4141 -0.4461  0.7142
   32SOL    HW2   96   2.096   1.410   1.958  0.7535 -1.1050 -0.3230
   33SOL     OW   97   2.158   2.799   2.693 -0.2798 -0.2355 -0.2886
   33SOL    HW1   98   2.120   2.822   2.784  0.8266 -0.9574 -2.3635
   33SOL    HW2   99   2.258   2.827   2.684  2.4896 -1.5329 -0.0599
   34SOL     OW  100   2.050   0.832   0.571  0.3903 -0.0806 -0.5536
   34SOL    HW1  101   1.998   0.767   0.513 -0.1868  1.8997 -1.5272
   34SOL    HW2  102   2.001   0.838   0.659  2.0248  0.6293 -2.1445
   35SOL     OW  103   0.149   1.491   1.893  0.1555  0.0168  0.0949
   35SOL    HW1  104   0.124   1.531   1.984 -0.9702  0.4885  1.5542
   35SOL    HW2  105   0.064   1.493   1.829 -3.8536  1.8544 -1.3237
   36SOL     OW  106   2.565   2.443   2.940  0.7813  0.4781  0.6845
   36SOL    HW1  107   2.517   2.404   3.018 -1.6234  1.1918 -1.9263
   36SOL    HW2  108   2.504   2.432   2.859  1.2340  0.3785 -1.1163
   37SOL     OW  109   1.577   2.661   1.947 -0.2361  0.5522 -0.1049
   37SOL    HW1  110   1.651   2.701   2.003 -1.8673 -0.8440 -2.5997
   37SOL    HW2  111   1.491   2.703   1.974  3.0671 -1.4258 -0.1600
   38SOL     OW  112   0.869   1.241   2.374  1.1083 -0.1459  0.3022
   38SOL    HW1  113   0.886   1.156   2.428 -0.9221 -0.7933  1.8763
   38SOL    HW2  114   0.808   1.215   2.290 -2.9527  0.5351 -1.2802
   39SOL     OW  115   1.877   0.583   1.775 -0.2973  0.3322  0.8122
   39SOL    HW1  116   1.797   0.598   1.840 -0.0406 -0.3637  3.3805
   39SOL    HW2  117   1.902   0.485   1.763  1.4213  1.5423  0.8290
   40SOL     OW  118   0.847   2.397   0.737 -0.2679  0.1558 -0.3516
   40SOL    HW1  119   0.805   2.350   0.655 -0.5382 -0.1320 -0.2807
   40SOL    HW2  120   0.896   2.334   0.799 -0.5151  0.8505  1.5998
   41SOL     OW  121   2.191   2.030   0.969 -0.3964 -0.0352 -0.0195
   41SOL    HW1  122   2.174   2.068   1.063 -0.1810  2.8259  2.2328
   41SOL    HW2  123   2.255   2.094   0.920  2.5322  0.1529 -0.5682
   42SOL     OW  124   2.369   0.581   0.393  0.0975  0.0942 -0.4672
   42SOL    HW1  125   2.335   0.591   0.297 -0.0627 -0.9680  2.4261
   42SOL    HW2  126   2.420   0.489   0.407 -0.7914 -1.2656  1.1439
   43SOL     OW  127   0.689   1.443   2.457 -0.2778 -0.3660 -0.1373
   43SOL    HW1  128   0.593   1.412   2.478  0.5555  0.4535  2.1885
   43SOL    HW2  129   0.740   1.365   2.422 -2.0124  1.8130  0.7511
   44SOL     OW  130   1.774   2.649   1.284  0.7260 -0.1156 -0.3931
   44SOL    HW1  131   1.683   2.629   1.319  1.9278  0.7228 -2.2462
   44SOL    HW2  132   1.851   2.601   1.336  5.0232 -1.3252  0.9772
   45SOL     OW  133   0.472   2.345   2.616  0.3240  0.4311 -0.2769
   45SOL    HW1  134   0.381   2.380   2.656 -1.0419 -0.2791  1.7868
   45SOL    HW2  135   0.530   2.419   2.588  0.4674  1.2508 -0.8776
   46SOL     OW  136   0.586   2.628   2.101 -0.0213 -0.1822  0.4066
   46SOL    HW1  137   0.576   2.590   2.007 -1.8380 -0.1883 -1.8473
   46SOL    HW2  138   0.619   2.563   2.172 -0.8378  0.3870 -1.2821
   47SOL     OW  139   0.403   1.679   0.734 -0.4238  0.4458  0.3524
   47SOL    HW1  140   0.478   1.612   0.708  2.6482 -0.0488  0.5969
   47SOL    HW2  141   0.443   1.733   0.810  1.6730 -0.3615  0.1939
   48SOL     OW  142   0.733   2.851   1.541 -1.0368 -0.3507  0.5574
   48SOL    HW1  143   0.806   2.787   1.570 -0.2395  2.6437  3.7084
   48SOL    HW2  144   0.748   2.941   1.583 -1.6531 -2.0965 -0.1641
   49SOL     OW  145   0.060   0.051   2.963 -0.2620 -0.3954 -0.0644
   49SOL    HW1  146   0.142   3.090   2.960 -0.5472  0.7982  3.6158
   49SOL    HW2  147   3.084   3.103   2.996  1.7849  0.8257 -2.7559
   50SOL     OW  148   1.343   0.963   0.213  0.1613 -0.0196 -0.5388
   50SOL    HW1  149   1.247   0.986   0.234 -3.0932  0.2751  0.9676
   50SOL    HW2  150   1.403   0.954   0.292 -1.2287  0.4832 -0.4379
   51SOL     OW  151   1.862   0.191   0.384  0.3448 -0.3317  0.0528
   51SOL    HW1  152   1.762   0.189   0.378  0.9372 -0.5978  2.6521
   51SOL    HW2  153   1.894   0.172   0.480  0.3763  0.3554 -1.2688
   52SOL     OW  154   0.250   1.571   1.172  0.1671  0.0798 -0.0842
   52SOL    HW1  155   0.323   1.522   1.121 -1.3950 -4.3411  2.0721
   52SOL    HW2  156   0.223   1.662   1.130 -0.4754  1.7695  1.2610
   53SOL     OW  157   0.081   1.170   3.013 -0.0098 -0.0845  0.8602
   53SOL    HW1  158   0.017   1.101   3.052  3.0687 -0.0542 -0.4399
   53SOL    HW2  159   0.068   1.268   3.046 -3.1263  1.0871  1.6069
   54SOL     OW  160   2.808   2.323   3.006  0.2690 -0.4929  0.3827
   54SOL    HW1  161   2.775   2.263   3.079  0.4242 -2.5515 -3.4160
   54SOL    HW2  162   2.737   2.394   2.985 -2.2635  0.4175 -0.9939
   55SOL     OW  163   2.468   2.159   1.092 -0.5049 -0.2470 -0.4903
   55SOL    HW1  164   2.550   2.177   1.151 -0.8525 -1.0435 -1.6247
   55SOL    HW2  165   2.377   2.187   1.133 -1.9088  1.5529  0.1382
   56SOL     OW  166   1.941   0.415   1.098 -0.1116  0.3318  0.0007
   56SOL    HW1  167   1.904   0.321   1.100  0.8797 -1.9346  1.6355
   56SOL    HW2  168   1.886   0.474   1.035  1.6789 -0.9626  0.3580
   57SOL     OW  169   1.885   1.920   1.157 -0.0557  0.1527  0.0855
   57SOL    HW1  170   1.797   1.887   1.119 -0.1705  3.6962  0.9300
   57SOL    HW2  171   1.894   2.016   1.128 -1.9306 -4.3005  0.0969
   58SOL     OW  172   2.633   0.376   2.152 -0.4456 -0.3798 -0.2766
   58SOL    HW1  173   2.721   0.401   2.199 -0.7156 -0.3150  2.2351
   58SOL    HW2  174   2.555   0.446   2.172 -2.9807  1.1130 -0.1694
   59SOL     OW  175   1.476   2.415   1.878  0.2746 -0.3366  0.1468
   59SOL    HW1  176   1.389   2.399   1.931  0.5084  0.6860 -0.1025
   59SOL    HW2  177   1.519   2.505   1.900  1.8149  3.8077  0.9562
   60SOL     OW  178   0.958   2.451   2.998  0.3602 -0.3634  0.3672
   60SOL    HW1  179   0.932   2.354   3.005  1.1024  1.5479  1.8033
   60SOL    HW2  180   0.912   2.499   3.075  3.8743 -1.1317  2.1976
   61SOL     OW  181   0.645   2.043   0.268  0.2214  0.0961 -0.2214
   61SOL    HW1  182   0.674   2.121   0.213  1.5461 -1.3290 -0.0125
   61SOL    HW2  183   0.587   1.975   0.217 -1.9139 -1.4842 -0.2793
   62SOL     OW  184   1.278   1.590   1.631  0.0737  0.5255  0.6373
   62SOL    HW1  185   1.199   1.544   1.678  2.4353 -3.7471 -1.5944
   62SOL    HW2  186   1.354   1.520   1.631  1.3119  1.0116  2.8766
   63SOL     OW  187   1.007   1.955   0.676 -0.2043  0.3913 -0.2511
   63SOL    HW1  188   0.909   1.983   0.682  2.1621  0.8709 -2.4769
   63SOL    HW2  189   1.025   1.858   0.700  0.8286  1.7488 -0.9964
   64SOL     OW  190   1.395   1.521   2.550 -0.1400 -0.2326  0.7308
   64SOL    HW1  191   1.491   1.494   2.564  0.1340  2.6658 -0.6875
   64SOL    HW2  192   1.381   1.597   2.614 -1.9877 -0.9861  1.1270
   65SOL     OW  193   1.744   1.942   1.712 -0.2428  0.3416 -0.7334
   65SOL    HW1  194   1.807   2.018   1.686 -0.7903 -0.7829  0.0896
   65SOL    HW2  195   1.677   1.976   1.784 -1.7771 -0.7795  1.2205
   66SOL     OW  196   3.010   0.974   1.052 -0.2406 -0.3704 -0.3428
   66SOL    HW1  197   3.078   0.903   1.074  1.2727  0.3286 -0.5931
   66SOL    HW2  198   2.962   0.961   0.962 -0.1030 -2.2482 -2.0247
   67SOL     OW  199   2.126   2.486   0.818 -0.8371 -0.0095 -0.3932
   67SOL    HW1  200   2.224   2.455   0.812  2.9242 -2.7558 -1.9897
   67SOL    HW2  201   2.130   2.588   0.805 -0.8463  2.7572  1.3758
   68SOL     OW  202   2.402   2.627   1.594  0.4568 -0.0509 -0.4310
   68SOL    HW1  203   2.324   2.694   1.565 -2.8122  1.2395  2.3279
   68SOL    HW2  204   2.433   2.658   1.687  0.3787 -0.1468 -1.0144
   69SOL     OW  205   2.377   2.783   0.094  0.1869 -0.2895  0.0623
   69SOL    HW1  206   2.372   2.714   0.014 -1.8040 -0.4787  0.3731
   69SOL    HW2  207   2.335   2.873   0.060 -2.1264 -2.2438  0.0753
   70SOL     OW  208   0.744   1.581   2.719  0.4730 -0.1078 -0.2206
   70SOL    HW1  209   0.776   1.679   2.733  3.7806  1.0134  0.8781
   70SOL    HW2  210   0.729   1.562   2.619 -2.1309 -1.3415 -1.6556
   71SOL     OW  211   0.767   1.403   1.958 -0.2324 -0.2029  0.4182
   71SOL    HW1  212   0.768   1.383   1.855 -0.3333 -1.6277 -0.5515
   71SOL    HW2  213   0.695   1.472   1.979  0.3422  1.9181 -1.1753
   72SOL     OW  214   2.935   1.091   1.583 -0.4843  0.7605 -0.3447
   72SOL    HW1  215   2.919   1.110   1.484  1.0652  0.4032  0.9421
   72SOL    HW2  216   2.905   1.171   1.634  0.7109  0.5304  1.3104
   73SOL     OW  217   0.936   2.320   2.274  0.6327  0.5065 -0.2640
   73SOL    HW1  218   1.036   2.334   2.304  4.6792  0.6784  0.5674
   73SOL    HW2  219   0.936   2.280   2.181 -1.4586  1.5766  1.2365
   74SOL     OW  220   1.501   0.042   1.886 -0.0634 -0.9040 -0.1947
   74SOL    HW1  221   1.513   3.069   1.822  1.8515  0.6825  1.1018
   74SOL    HW2  222   1.563   0.030   1.963 -6.4850  0.8305 -2.9986
   75SOL     OW  223   1.158   2.987   0.521  0.3995 -0.4781  0.1008
   75SOL    HW1  224   1.243   2.998   0.575  1.1917 -1.1772  1.3676
   75SOL    HW2  225   1.136   3.070   0.463  0.2853  0.0518  1.1261
   76SOL     OW  226   0.537   1.948   2.694  0.3156  0.3716  0.2790
   76SOL    HW1  227   0.634   1.968   2.665 -1.2253  0.5711 -0.8699
   76SOL    HW2  228   0.485   1.889   2.624 -1.6250 -3.5395 -1.0180
   77SOL     OW  229   0.571   2.456   1.240 -0.2139 -0.4178 -0.2686
   77SOL    HW1  230   0.508   2.386   1.214  2.8112  2.2236  1.0121
   77SOL    HW2  231   0.522   2.548   1.247 -0.2480  1.2236  0.0281
   78SOL     OW  232   2.561   1.233   0.358  0.1929 -0.5533 -0.4373
   78SOL    HW1  233   2.589   1.293   0.281  3.5408 -0.1640  0.4682
   78SOL    HW2  234   2.530   1.294   0.433  2.5026 -0.9779 -2.4380
   79SOL     OW  235   0.576   1.536   2.924  0.2789  0.1333  0.7164
   79SOL    HW1  236   0.594   1.456   2.983 -2.4859 -0.2404 -0.4475
   79SOL    HW2  237   0.641   1.538   2.845  1.0281  0.6210  2.3923
   80SOL     OW  238   1.924   1.518   1.453  0.8453 -0.1775  0.1444
   80SOL    HW1  239   1.923   1.488   1.550 -1.0748 -0.0893  0.6788
   80SOL    HW2  240   1.915   1.436   1.397 -0.8929  4.1335  0.9333
   81SOL     OW  241   2.059   0.821   2.511  0.0459  0.3577  0.2244
   81SOL    HW1  242   1.967   0.774   2.514  1.0916 -0.2630 -0.3913
   81SOL    HW2  243   2.073   0.852   2.410 -0.6249 -0.1452 -3.6340
   82SOL     OW  244   1.755   1.748   1.477 -0.2721  0.0914 -0.1445
   82SOL    HW1  245   1.723   1.797   1.558  1.9318 -2.2631 -1.0957
   82SOL    HW2  246   1.824   1.672   1.495 -0.0500 -1.5134  1.6967
   83SOL     OW  247   2.818   0.011   2.702 -0.4844 -0.7852  0.9132
   83SOL    HW1  248   2.874   0.012   2.611  1.2999 -0.3809 -3.5316
   83SOL    HW2  249   2.802   3.024   2.742 -0.0102  0.4445  0.3033
   84SOL     OW  250   0.867   0.828   0.633 -0.6288  0.9292  0.1529
   84SOL    HW1  251   0.785   0.831   0.577  0.0955 -0.9797  0.7078
   84SOL    HW2  252   0.900   0.919   0.653 -2.5952 -3.5458  2.0829
   85SOL     OW  253   2.120   1.783   1.190  0.2480  0.3296 -0.0690
   85SOL    HW1  254   2.036   1.843   1.192  2.9899 -0.4977 -0.2761
   85SOL    HW2  255   2.097   1.690   1.152  1.5012 -2.9856  0.1253
   86SOL     OW  256   0.712   0.899   1.282  0.1563 -0.2616  0.7282
   86SOL    HW1  257   0.663   0.853   1.203 -0.2157  0.2543 -2.7790
   86SOL    HW2  258   0.664   0.987   1.320 -0.3111  0.5565 -1.2564
   87SOL     OW  259   2.969   2.281   2.412 -0.0637  0.4215  0.0091
   87SOL    HW1  260   2.931   2.260   2.321  0.5582  1.5974  2.2194
   87SOL    HW2  261   2.921   2.359   2.458  0.2411 -0.5393  0.8715
   88SOL     OW  262   0.216   2.868   0.378  0.1390  0.1275  0.0780
   88SOL    HW1  263   0.161   2.947   0.340  0.1255  2.7961  0.6664
   88SOL    HW2  264   0.312   2.898   0.389  0.7441  0.0677  0.7085
   89SOL     OW  265   1.330   0.037   0.739  0.6676  0.7294  0.1742
   89SOL    HW1  266   1.407   0.061   0.679 -1.0696  0.8060  2.1776
   89SOL    HW2  267   1.256   0.098   0.715 -0.4517 -0.6536  1.7220
   90SOL     OW  268   2.914   0.951   2.061  0.1877 -0.6931 -0.1486
   90SOL    HW1  269   2.863   0.890   2.128 -0.5515  0.6204  0.6943
   90SOL    HW2  270   3.002   0.906   2.038 -3.5639 -1.5649  0.8391
   91SOL     OW  271   1.971   2.874   0.936 -0.5726 -0.1548 -0.0530
   91SOL    HW1  272   1.889   2.832   0.982 -2.2105  0.9148  0.2603
   91SOL    HW2  273   2.039   2.802   0.910  1.9278  2.2319 -1.3081
   92SOL     OW  274   1.601   1.794   0.544 -0.0223 -0.2902  0.2387
   92SOL    HW1  275   1.672   1.721   0.542 -0.8542 -0.9426  3.5190
   92SOL    HW2  276   1.646   1.884   0.562  1.6851 -0.0485 -1.3693
   93SOL     OW  277   0.406   1.466   0.475 -0.5283  0.5034  0.3544
   93SOL    HW1  278   0.335   1.536   0.475  2.5074  0.4295  2.2883
   93SOL    HW2  279   0.480   1.502   0.533 -0.1868  0.7271 -0.7623
   94SOL     OW  280   0.778   2.478   1.425 -0.2083  0.2325 -0.2137
   94SOL    HW1  281   0.841   2.397   1.413 -2.6414  0.1296 -2.6346
   94SOL    HW2  282   0.696   2.461   1.361 -0.8903  0.6021  1.0571
   95SOL     OW  283   0.104   0.922   0.792 -0.8740  0.3484 -0.5238
   95SOL    HW1  284   0.147   0.898   0.882  1.6269 -0.3333  1.7489
   95SOL    HW2  285   0.126   0.855   0.709  1.2137  1.2240 -3.7337
   96SOL     OW  286   0.601   2.601   1.820 -0.4883  0.0835  0.2871
   96SOL    HW1  287   0.564   2.691   1.792  0.4648 -2.3448 -1.7896
   96SOL    HW2  288   0.580   2.521   1.759  1.4225  2.5035 -2.5206
   97SOL     OW  289   2.517   0.962   0.951 -0.0109 -0.0175 -0.4619
   97SOL    HW1  290   2.532   0.949   1.052  0.0511  0.6518  3.0690
   97SOL    HW2  291   2.413   0.945   0.939 -3.5733  1.5583 -2.1224
   98SOL     OW  292   0.303   1.999   2.084  0.3557 -0.3119 -0.6211
   98SOL    HW1  293   0.261   1.910   2.051 -3.0588  0.8299 -0.1281
   98SOL    HW2  294   0.250   2.081   2.054 -3.0206  0.4521 -1.4106
   99SOL     OW  295   2.975   0.459   1.631  0.1443  0.6470  0.2522
   99SOL    HW1  296   3.067   0.495   1.617  1.9785  0.2539 -0.2173
   99SOL    HW2  297   2.944   0.480   1.724 -1.1610 -1.5489  0.8946
  100SOL     OW  298   1.950   0.371   2.557 -0.3873 -0.4404  0.5384
  100SOL    HW1  299   2.039   0.419   2.548  1.0655  0.2875  0.8716
  100SOL    HW2  300   1.961   0.267   2.531  1.3044 -2.5251 -1.3434
  101SOL     OW  301   1.260   2.981   2.109 -0.0937 -0.0085 -0.2151
  101SOL    HW1  302   1.245   3.017   2.203  0.1977  1.9046  4.3571
  101SOL    HW2  303   1.198   3.034   2.047  1.9219  2.2747  2.9156
  102SOL     OW  304   0.963   0.638   1.755 -0.0775 -0.3718  0.3336
  102SOL    HW1  305   0.888   0.581   1.722  1.4681  1.1002 -1.1342
  102SOL    HW2  306   1.037   0.660   1.685 -0.5916  0.6924 -0.3802
  103SOL     OW  307   0.546   0.845   3.021  0.5581  0.1413  0.1872
  103SOL    HW1  308   0.580   0.923   2.966 -0.5713 -1.1016 -0.0251
  103SOL    HW2  309   0.521   0.772   2.960  0.3469  0.7502  1.2185
  104SOL     OW  310   0.553   0.331   2.083 -0.1199  0.1959  0.2364
  104SOL    HW1  311   0.589   0.241   2.042  2.6380 -0.9923 -0.0648
  104SOL    HW2  312   0.617   0.376   2.149 -0.4098  1.4942 -1.2507
  105SOL     OW  313   2.724   2.357   1.627 -0.3023 -0.2466 -0.1162
  105SOL    HW1  314   2.747   2.259   1.632 -0.3897  0.5379 -0.6411
  105SOL    HW2  315   2.808   2.411   1.653 -1.2634  1.9806  1.3798
  106SOL     OW  316   0.951   2.960   0.705 -0.1671 -0.2643  0.2123
  106SOL    HW1  317   0.886   2.930   0.634  2.1567  0.7137  2.0566
  106SOL    HW2  318   1.045   2.956   0.661  1.9077 -0.4898 -0.2734
  107SOL     OW  319   2.839   1.952   1.071  0.1376  0.0900 -0.7253
  107SOL    HW1  320   2.838   2.019   0.993 -0.0238  1.7520 -0.5396
  107SOL    HW2  321   2.750   1.905   1.076 -0.7451  1.4166 -0.8165
  108SOL     OW  322   0.125   2.176   0.668 -0.1091 -0.7941 -0.0401
  108SOL    HW1  323   0.030   2.214   0.647 -0.5816 -0.6115 -1.1505
  108SOL    HW2  324   0.138   2.136   0.761  0.0272  1.1477 -0.5832
  109SOL     OW  325   1.737   2.958   0.692 -0.1311  0.2455  0.4321
  109SOL    HW1  326   1.804   2.890   0.667 -2.0421  1.9151  0.2716
  109SOL    HW2  327   1.719   2.956   0.794  1.3248  0.1206 -3.2991
  110SOL     OW  328   1.684   2.063   0.540  0.1260 -0.3490 -0.0595
  110SOL    HW1  329   1.594   2.073   0.495 -0.9580  0.1668  3.3675
  110SOL    HW2  330   1.757   2.075   0.470 -0.3185  1.0323  2.1878
  111SOL     OW  331   2.015   2.806   1.936  0.0370  0.3149  0.6287
  111SOL    HW1  332   2.087   2.738   1.925  1.9023 -2.2046 -1.6230
  111SOL    HW2  333   1.950   2.787   2.016 -1.0536 -0.6456  0.9874
  112SOL     OW  334   1.750   2.222   2.363 -0.0070  0.0735  0.1460
  112SOL    HW1  335   1.711   2.282   2.292  2.2448  0.0228 -2.1482
  112SOL    HW2  336   1.840   2.260   2.382  0.9923  2.0554 -0.8828
  113SOL     OW  337   2.402   2.035   1.923  0.4626  0.5159  0.0179
  113SOL    HW1  338   2.312   1.988   1.945 -0.4090 -2.5443 -1.1983
  113SOL    HW2  339   2.407   2.054   1.822 -1.9433  2.1334  1.2680
  114SOL     OW  340   0.168   1.134   1.283  0.2194 -0.2155 -0.4993
  114SOL    HW1  341   0.111   1.056   1.320  2.8475  1.1552 -2.0194
  114SOL    HW2  342   0.119   1.220   1.251  2.3101  3.3057  0.6911
  115SOL     OW  343   2.654   0.706   2.730 -0.1259 -0.4182 -0.5358
  115SOL    HW1  344   2.719   0.783   2.751 -0.0542 -0.2105  2.6451
  115SOL    HW2  345   2.705   0.623   2.710 -1.1705  0.8964 -0.3290
  116SOL     OW  346   2.807   0.487   2.678  0.4110  0.4347 -0.0263
  116SOL    HW1  347   2.807   0.424   2.757 -0.4394  0.3331 -0.8712
  116SOL    HW2  348   2.809   0.424   2.598  1.0551 -1.7656  2.1479
  117SOL     OW  349   2.626   2.774   0.754  0.5905 -0.2416 -0.0341
  117SOL    HW1  350   2.680   2.780   0.670 -2.3961  1.5128  1.3607
  117SOL    HW2  351   2.666   2.847   0.815  0.8811 -0.0140 -2.1002
  118SOL     OW  352   0.822   2.117   2.426  0.6887  0.4191 -0.3552
  118SOL    HW1  353   0.772   2.044   2.377 -1.4905 -0.1376  1.0653
  118SOL    HW2  354   0.855   2.190   2.369 -2.7712 -1.8031  2.7699
  119SOL     OW  355   0.565   2.752   0.471  0.2623  0.5783 -0.5968
  119SOL    HW1  356   0.662   2.772   0.460 -0.2356 -1.9076  0.2701
  119SOL    HW2  357   0.544   2.654   0.476 -1.2157  2.3785  1.9268
  120SOL     OW  358   1.412   0.640   0.817  0.2828  0.2935  0.3608
  120SOL    HW1  359   1.465   0.556   0.839 -1.1962 -0.6391 -0.1159
  120SOL    HW2  360   1.469   0.722   0.794  1.0855  1.9263 -0.7695
  121SOL     OW  361   1.847   0.566   0.872  0.2086 -0.0926 -0.2443
  121SOL    HW1  362   1.842   0.664   0.845  0.5069  1.3380  0.4329
  121SOL    HW2  363   1.910   0.518   0.806 -1.8437 -0.0003  0.4505
  122SOL     OW  364   1.976   1.538   2.458 -0.5970  0.2464  0.6005
  122SOL    HW1  365   1.909   1.621   2.457 -3.3019  4.3128  0.7562
  122SOL    HW2  366   1.996   1.500   2.364  0.7906 -2.8225 -0.5078
  123SOL     OW  367   0.718   1.149   1.070  0.4531  0.1923 -0.2685
  123SOL    HW1  368   0.783   1.090   1.014  1.4798  0.3859 -0.1775
  123SOL    HW2  369   0.622   1.149   1.029 -0.2419 -1.7054  0.2808
  124SOL     OW  370   0.594   0.299   2.951  0.0914 -0.3558  0.2914
  124SOL    HW1  371   0.559   0.234   3.021 -0.1907 -2.4009  1.5951
  124SOL    HW2  372   0.670   0.254   2.900 -0.7786  1.7656 -0.9017
  125SOL     OW  373   0.831   2.962   0.009 -0.2679  0.5354 -0.1064
  125SOL    HW1  374   0.910   3.021   3.093 -1.8636 -0.2521  0.0607
  125SOL    HW2  375   0.753   2.994   3.058  1.8353 -1.8182 -1.0267
  126SOL     OW  376   0.798   1.134   0.109 -0.4741 -0.4651  0.3400
  126SOL    HW1  377   0.773   1.035   0.132  0.3616 -0.9578  0.6571
  126SOL    HW2  378   0.802   1.187   0.197  2.3546 -0.4030  0.1328
  127SOL     OW  379   1.200   2.397   1.067  0.3332  0.7968 -0.5009
  127SOL    HW1  380   1.168   2.479   1.119  2.1129 -0.2217  1.2149
  127SOL    HW2  381   1.300   2.390   1.064  0.8295  0.3015  1.5779
  128SOL     OW  382   1.195   1.650   0.260  0.0126  0.3199  0.0244
  128SOL    HW1  383   1.277   1.633   0.320  0.8899 -0.0532 -0.1513
  128SOL    HW2  384   1.205   1.739   0.211  0.0084 -1.1363 -0.9842
  129SOL     OW  385   1.899   1.714   1.796  0.2436 -0.0036  0.2871
  129SOL    HW1  386   1.869   1.616   1.804  1.0414 -1.1538 -2.2032
  129SOL    HW2  387   1.824   1.783   1.767 -0.3776 -0.7112 -3.8791
  130SOL     OW  388   2.150   1.718   1.685 -0.2132  0.4354  0.0882
  130SOL    HW1  389   2.051   1.711   1.712 -2.8463  2.3959  3.1899
  130SOL    HW2  390   2.165   1.712   1.586 -2.1391  0.1904  0.0212
  131SOL     OW  391   0.786   2.355   1.987  0.0655 -0.4028 -0.0589
  131SOL    HW1  392   0.875   2.332   1.941 -0.4639  1.5428  1.3059
  131SOL    HW2  393   0.707   2.302   1.951  2.7006 -2.8879 -1.5836
  132SOL     OW  394   2.563   1.596   0.557  0.2364  0.1741 -0.0416
  132SOL    HW1  395   2.602   1.579   0.646  0.8576 -0.1052 -2.8373
  132SOL    HW2  396   2.637   1.627   0.494 -2.0686 -2.4118  0.1342
  133SOL     OW  397   0.742   1.813   1.899 -0.3188  0.0066  0.1157
  133SOL    HW1  398   0.742   1.819   1.794  0.7781  0.9833 -0.7428
  133SOL    HW2  399   0.689   1.891   1.935 -2.2349 -3.5006 -2.2664
  134SOL     OW  400   3.030   1.493   0.865  0.4332 -0.6509  0.4179
  134SOL    HW1  401   3.060   1.395   0.851 -0.0401 -0.8033  0.4236
  134SOL    HW2  402   0.008   1.551   0.872 -0.0334  0.9381  1.7730
  135SOL     OW  403   2.006   1.118   2.837  0.0551  0.3261  0.3120
  135SOL    HW1  404   2.083   1.149   2.897 -1.8561  0.5844  0.2380
  135SOL    HW2  405   2.029   1.118   2.738 -0.7262 -1.2745 -1.2023
  136SOL     OW  406   0.042   1.399   1.254  0.1421 -0.1333 -0.5811
  136SOL    HW1  407   3.056   1.439   1.222 -1.8353 -0.1974 -0.1046
  136SOL    HW2  408   0.118   1.460   1.211  0.7791 -2.2358  1.0488
  137SOL     OW  409   2.173   1.362   0.336  0.4973  0.2593 -0.2569
  137SOL    HW1  410   2.166   1.279   0.276  1.8209 -0.6375  0.0625
  137SOL    HW2  411   2.236   1.346   0.411  0.0556  1.9976 -0.6570
  138SOL     OW  412   2.591   0.622   0.690  0.0880  0.2240 -0.5952
  138SOL    HW1  413   2.515   0.608   0.758 -0.4869  1.6227  1.3482
  138SOL    HW2  414   2.585   0.552   0.614 -1.9628 -1.5968 -1.5608
  139SOL     OW  415   2.479   2.965   2.920 -0.2119  0.2852 -0.1638
  139SOL    HW1  416   2.539   2.887   2.948  0.1010 -0.5739 -0.8206
  139SOL    HW2  417   2.473   2.971   2.817 -0.6091 -2.7987 -0.6591
  140SOL     OW  418   0.639   1.642   1.218 -0.3680  0.2096 -0.2448
  140SOL    HW1  419   0.577   1.568   1.182  0.3773  0.3288 -0.5960
  140SOL    HW2  420   0.591   1.729   1.247  0.1146  3.8306  0.7734
  141SOL     OW  421   1.034   1.343   0.717 -0.0153 -0.1864 -0.0971
  141SOL    HW1  422   1.061   1.397   0.801 -1.1601  1.9505 -2.6650
  141SOL    HW2  423   1.111   1.281   0.694 -0.8857  0.2766  1.9444
  142SOL     OW  424   1.603   0.832   1.048 -0.9841 -0.2116  0.4003
  142SOL    HW1  425   1.577   0.771   1.127 -0.4065 -1.2676  3.7695
  142SOL    HW2  426   1.680   0.899   1.068  0.1477 -0.2110  1.0396
  143SOL     OW  427   0.245   0.725   3.039  0.2196  0.1287  0.2016
  143SOL    HW1  428   0.175   0.680   2.980 -1.3291  2.2017 -1.7896
  143SOL    HW2  429   0.324   0.660   3.051  2.8301  1.8028 -2.3775
  144SOL     OW  430   2.600   0.205   0.247 -0.0608 -0.7240 -0.1895
  144SOL    HW1  431   2.511   0.224   0.202  0.9424  1.1265  1.4059
  144SOL    HW2  432   2.605   0.116   0.292  1.6333  0.9143  2.0793
  145SOL     OW  433   2.269   0.028   2.508 -0.1945  0.2124  0.0209
  145SOL    HW1  434   2.332   0.071   2.437  0.9796  0.3024 -2.1508
  145SOL    HW2  435   2.170   0.055   2.505 -0.9326  1.6895  0.6589
  146SOL     OW  436   2.841   2.835   0.581  0.1867 -0.1387  0.6241
  146SOL    HW1  437   2.818   2.930   0.606  2.2148 -0.4994 -0.3599
  146SOL    HW2  438   2.945   2.822   0.580 -0.3064  0.6913 -1.5122
  147SOL     OW  439   1.325   0.802   2.761  0.6290  1.0407  0.3258
  147SOL    HW1  440   1.287   0.722   2.812  1.9181 -1.4967  0.4951
  147SOL    HW2  441   1.279   0.887   2.773 -0.0794 -2.2563 -0.5945
  148SOL     OW  442   1.122   0.027   0.276  0.0257  0.4543 -0.4369
  148SOL    HW1  443   1.064   3.070   0.217  0.2407 -1.1612 -1.2761
  148SOL    HW2  444   1.182   0.091   0.220  0.3213 -0.9775 -2.0353
  149SOL     OW  445   1.382   0.787   2.473 -0.0990  0.0262 -0.0442
  149SOL    HW1  446   1.345   0.766   2.567 -2.0302 -0.9687  1.1128
  149SOL    HW2  447   1.320   0.857   2.428  1.0188  1.6982  3.6374
  150SOL     OW  448   1.564   0.012   3.081  0.5279  0.2210 -0.3134
  150SOL    HW1  449   1.663   3.099   3.069 -1.5978  1.7055  0.8622
  150SOL    HW2  450   1.530   0.065   2.998 -1.9570 -0.2640 -0.1735
  151SOL     OW  451   0.649   1.347   0.015 -0.4931  0.4892  0.8074
  151SOL    HW1  452   0.715   1.270   0.041  0.5812 -0.9369  1.7289
  151SOL    HW2  453   0.663   1.429   0.077  0.2778 -0.6265  1.7727
  152SOL     OW  454   0.826   0.324   1.341  0.3150 -0.1588 -0.6243
  152SOL    HW1  455   0.739   0.373   1.338  0.9662 -0.8674 -1.8678
  152SOL    HW2  456   0.818   0.249   1.410  0.4745  1.2146  0.1918
  153SOL     OW  457   2.672   2.998   1.865  0.0258 -0.2344  0.3122
  153SOL    HW1  458   2.575   2.982   1.901  1.2882  0.8422  0.9759
  153SOL    HW2  459   2.736   3.038   1.936  0.7373  2.0654  0.0446
  154SOL     OW  460   2.424   2.936   1.936  0.2934  0.3134  0.4133
  154SOL    HW1  461   2.397   2.923   2.033 -2.2049  1.0729  0.5886
  154SOL    HW2  462   2.339   2.958   1.885 -0.6666 -1.8247  0.3739
  155SOL     OW  463   0.146   1.053   0.395 -0.5990  0.3560 -0.3805
  155SOL    HW1  464   0.052   1.021   0.374  0.0174  1.1534  0.8162
  155SOL    HW2  465   0.152   1.102   0.485 -3.3455  2.8050  2.1275
  156SOL     OW  466   2.095   0.989   0.259 -0.6066  0.0002 -0.6619
  156SOL    HW1  467   2.174   0.992   0.326 -0.6782  0.2057  0.0891
  156SOL    HW2  468   2.128   0.952   0.170  1.1324 -0.2490 -3.4234
  157SOL     OW  469   0.658   2.660   2.923 -0.2253  0.6023  0.0868
  157SOL    HW1  470   0.721   2.624   2.997 -0.8579 -0.1148  2.3323
  157SOL    HW2  471   0.559   2.635   2.940 -0.6653 -1.7337  0.5556
  158SOL     OW  472   1.924   0.934   1.548  0.3819  0.1208 -0.2790
  158SOL    HW1  473   1.953   0.931   1.645 -1.4535 -2.4727 -3.1560
  158SOL    HW2  474   1.873   1.020   1.528 -2.0581  1.3033 -1.4691
  159SOL     OW  475   0.222   0.210   0.172 -0.3947  0.2334 -0.8089
  159SOL    HW1  476   0.243   0.189   0.072  0.8208  0.2718 -1.7235
  159SOL    HW2  477   0.205   0.308   0.180  0.7759 -4.1069  0.1148
  160SOL     OW  478   2.475   2.008   1.645  0.3420  0.4804  0.0040
  160SOL    HW1  479   2.575   2.023   1.634  1.6296  2.2349  1.1141
  160SOL    HW2  480   2.453   1.910   1.673  0.1143 -1.2768  0.7497
  161SOL     OW  481   0.132   0.512   0.240  0.6332 -0.1428 -0.3746
  161SOL    HW1  482   0.153   0.606   0.206  0.5873 -1.0500 -0.6617
  161SOL    HW2  483   0.046   0.476   0.197 -1.8801  1.5302 -0.5755
  162SOL     OW  484   0.766   0.459   1.664 -0.4549  0.0704 -0.3760
  162SOL    HW1  485   0.702   0.462   1.743  0.5142 -0.9903  1.5830
  162SOL    HW2  486   0.775   0.368   1.624  1.7906  1.0882 -1.3216
  163SOL     OW  487   2.549   3.089   2.332  0.0590  0.5348  0.2686
  163SOL    HW1  488   2.549   0.030   2.422  0.8681 -3.2238 -0.3408
  163SOL    HW2  489   2.567   0.042   2.252  1.0113 -1.0666  2.9024
  164SOL     OW  490   2.336   1.611   0.194  0.0477  0.3433 -0.0814
  164SOL    HW1  491   2.237   1.601   0.168 -0.6561  1.2421 -1.1472
  164SOL    HW2  492   2.353   1.562   0.286  0.7833 -0.2457  0.9426
  165SOL     OW  493   0.242   2.931   0.772  0.2381 -0.5261 -0.0788
  165SOL    HW1  494   0.263   3.021   0.719 -0.6922  1.2047 -0.9910
  165SOL    HW2  495   0.326   2.878   0.767 -1.1069  2.4932 -0.1350
  166SOL     OW  496   2.805   0.546   3.032 -0.5222  0.0167 -0.4924
  166SOL    HW1  497   2.716   0.535   3.085 -0.4555 -2.2897 -0.1749
  166SOL    HW2  498   2.822   0.472   2.964  0.0831  2.1553  0.8223
  167SOL     OW  499   2.126   0.510   0.478 -0.3239  0.7426  0.5000
  167SOL    HW1  500   2.215   0.549   0.444  0.4049  1.0532 -1.8337
  167SOL    HW2  501   2.094   0.438   0.409  1.2292 -0.5462  0.0665
  168SOL     OW  502   1.528   0.188   2.431  0.0665  0.4825  0.1779
  168SOL    HW1  503   1.454   0.233   2.490 -0.1741  1.6419  1.4198
  168SOL    HW2  504   1.582   0.264   2.388  0.7966  0.5420  1.3278
  169SOL     OW  505   0.506   1.807   0.961 -0.2338 -0.8105  0.1513
  169SOL    HW1  506   0.515   1.798   1.059  0.7415 -0.0638 -1.2792
  169SOL    HW2  507   0.573   1.877   0.926 -1.6057  0.2125  1.3153
  170SOL     OW  508   0.350   0.007   1.510 -0.1920  0.1679  0.3639
  170SOL    HW1  509   0.385   0.032   1.596 -1.2114  0.4882 -2.8318
  170SOL    HW2  510   0.287   3.033   1.531  2.2781  1.7579  3.3166
  171SOL     OW  511   2.347   1.328   2.389  0.0906 -0.0795  0.3097
  171SOL    HW1  512   2.251   1.306   2.357 -1.2793 -0.6383  1.0769
  171SOL    HW2  513   2.405   1.367   2.313 -0.0828 -0.4379 -0.7759
  172SOL     OW  514   1.129   1.751   1.064 -0.2347 -0.2018  1.2387
  172SOL    HW1  515   1.112   1.724   1.161  0.1743  1.4820 -2.2627
  172SOL    HW2  516   1.220   1.712   1.038  2.3754 -0.5046  1.0143
  173SOL     OW  517   1.938   2.232   3.041 -0.0361 -0.5232  0.1764
  173SOL    HW1  518   1.896   2.296   0.008 -1.8603  2.7726  2.0543
  173SOL    HW2  519   1.916   2.137   3.065 -1.6061  1.2049  0.5172
  174SOL     OW  520   1.849   0.910   0.206 -0.4001 -0.0898  0.0373
  174SOL    HW1  521   1.853   0.948   0.112 -1.5455  5.0346  1.9707
  174SOL    HW2  522   1.925   0.957   0.263  0.9574  1.1602 -0.2673
  175SOL     OW  523   0.690   1.804   1.602 -0.5358  0.4117  0.1412
  175SOL    HW1  524   0.673   1.708   1.562  0.6706  1.2469 -2.9094
  175SOL    HW2  525   0.609   1.867   1.606 -0.4243  1.9267 -1.2461
  176SOL     OW  526   0.653   0.114   0.510  0.0501  0.4313 -0.4210
  176SOL    HW1  527   0.752   0.108   0.488 -1.3070  3.1990 -2.2664
  176SOL    HW2  528   0.631   0.127   0.609 -1.2031 -1.1087  0.8021
  177SOL     OW  529   3.065   1.558   0.205  0.3301  0.1997  0.5089
  177SOL    HW1  530   3.097   1.470   0.156  2.0414 -0.7849  0.7745
  177SOL    HW2  531   3.056   1.545   0.303 -0.5949 -1.6854 -0.3297
  178SOL     OW  532   2.851   2.388   1.970 -0.3304 -0.0812 -0.6356
  178SOL    HW1  533   2.764   2.395   1.918 -1.9599 -0.3479  1.6293
  178SOL    HW2  534   2.844   2.454   2.045 -1.2299 -1.6017 -0.5400
  179SOL     OW  535   2.240   0.211   3.041 -0.2609  0.2304 -0.3704
  179SOL    HW1  536   2.301   0.240   2.965 -0.7478  1.9345 -0.6563
  179SOL    HW2  537   2.147   0.242   3.021 -0.0692 -0.6976  0.0907
  180SOL     OW  538   2.442   0.616   0.908  0.0378  0.2540 -0.1428
  180SOL    HW1  539   2.344   0.590   0.903 -0.8887  0.9974  0.9258
  180SOL    HW2  540   2.453   0.665   0.996  0.7596  0.4908  0.8408
  181SOL     OW  541   2.960   0.059   2.466  0.7017 -0.0554 -0.1180
  181SOL    HW1  542   2.989   0.133   2.401  0.0850 -1.1764 -0.1806
  181SOL    HW2  543   2.946   3.075   2.417 -2.6743 -1.0112 -0.6612
  182SOL     OW  544   2.463   2.334   2.310 -0.6755 -0.3590 -0.2647
  182SOL    HW1  545   2.552   2.382   2.324 -1.0656 -0.0010 -3.2203
  182SOL    HW2  546   2.430   2.352   2.216  1.5349  0.6515  1.3740
  183SOL     OW  547   2.500   1.118   1.595 -0.0471 -0.3577  0.0745
  183SOL    HW1  548   2.555   1.195   1.625 -0.0395  0.8058  0.7326
  183SOL    HW2  549   2.400   1.139   1.608  2.4201  1.0380 -0.9959
  184SOL     OW  550   2.921   1.521   1.105  0.5690  0.4897 -0.4161
  184SOL    HW1  551   2.935   1.617   1.138  0.1396 -1.1511  0.6202
  184SOL    HW2  552   2.948   1.496   1.010  0.5835 -1.1064  2.8683
  185SOL     OW  553   0.255   3.051   1.015 -0.6718  0.3740 -0.0483
  185SOL    HW1  554   0.247   2.990   0.931  0.9806 -2.4304 -1.5467
  185SOL    HW2  555   0.341   3.027   1.057 -2.0353  0.2258  0.4567
  186SOL     OW  556   2.221   2.320   2.435  0.0410  0.1507  0.1244
  186SOL    HW1  557   2.175   2.404   2.475  1.4534  0.7649  0.4528
  186SOL    HW2  558   2.317   2.340   2.426 -3.9012 -1.6014  2.0487
  187SOL     OW  559   0.362   1.275   0.677  0.1672  0.5980 -0.1931
  187SOL    HW1  560   0.390   1.360   0.630  0.8584 -1.6862 -0.4261
  187SOL    HW2  561   0.270   1.236   0.648 -0.3595  0.5585 -0.0882
  188SOL     OW  562   1.597   1.825   2.967 -0.2512  0.4256 -0.3340
  188SOL    HW1  563   1.580   1.926   2.961 -2.2209  0.8832 -0.3154
  188SOL    HW2  564   1.620   1.792   3.064  0.7458 -0.6333  2.6705
  189SOL     OW  565   0.159   1.635   2.852 -0.4630 -0.2755 -0.0458
  189SOL    HW1  566   0.073   1.611   2.806  1.2090 -0.2892 -1.9205
  189SOL    HW2  567   0.162   1.726   2.889 -1.9488 -1.1514  2.0413
  190SOL     OW  568   2.383   0.657   2.679 -0.1419  0.1869 -0.2668
  190SOL    HW1  569   2.320   0.737   2.674  0.6129  1.1376 -1.2212
  190SOL    HW2  570   2.477   0.683   2.708 -0.9188 -1.4307  0.6695
  191SOL     OW  571   0.911   1.087   1.972 -0.2700  0.2239  0.7454
  191SOL    HW1  572   0.864   1.000   1.936  0.9864 -4.4316  0.0461
  191SOL    HW2  573   0.859   1.146   2.038  1.3345  1.3392  2.3356
  192SOL     OW  574   1.701   1.091   2.021 -0.4888 -0.3266 -0.2260
  192SOL    HW1  575   1.617   1.143   2.048  1.4435  0.7680 -0.0593
  192SOL    HW2  576   1.678   1.025   1.949  1.3346  1.3360  1.6684
  193SOL     OW  577   1.383   2.887   0.904  0.4023 -0.1084  0.5217
  193SOL    HW1  578   1.332   2.804   0.869  1.1997 -0.2400 -1.0569
  193SOL    HW2  579   1.349   2.975   0.862  0.6082  0.7775  0.3493
  194SOL     OW  580   1.359   1.444   1.905 -0.5128 -0.6705 -0.5066
  194SOL    HW1  581   1.403   1.475   1.820 -3.0231 -3.0082  1.6223
  194SOL    HW2  582   1.335   1.524   1.961  3.3766 -1.1245  1.1095
  195SOL     OW  583   1.922   0.219   0.649  0.0872  0.9517  0.2499
  195SOL    HW1  584   1.978   0.289   0.697 -3.0492 -0.8335  1.5742
  195SOL    HW2  585   1.928   0.137   0.710 -1.3533 -1.1952  1.4554
  196SOL     OW  586   0.953   1.410   2.152  0.1376 -0.0972 -0.5610
  196SOL    HW1  587   0.888   1.399   2.075 -0.8902 -0.4756 -2.8651
  196SOL    HW2  588   0.914   1.372   2.241 -1.1645 -1.0254  1.1616
  197SOL     OW  589   0.654   0.247   2.411 -0.7543 -0.4725  0.0625
  197SOL    HW1  590   0.602   0.319   2.465 -0.1102 -2.7614  1.2355
  197SOL    HW2  591   0.595   0.170   2.384  0.2514  1.7017 -2.5578
  198SOL     OW  592   2.914   1.106   1.302 -0.0106  0.4062 -0.3220
  198SOL    HW1  593   2.812   1.105   1.321 -1.5909 -0.1189  0.0041
  198SOL    HW2  594   2.926   1.058   1.210  0.0309  1.1399  2.1864
  199SOL     OW  595   0.537   2.157   1.269 -0.3534  0.6878  0.5952
  199SOL    HW1  596   0.620   2.186   1.216  0.5980 -0.4078  1.8190
  199SOL    HW2  597   0.449   2.180   1.219  1.0087 -2.3175 -1.1078
  200SOL     OW  598   2.631   2.079   2.683 -0.2137 -0.1145  0.5002
  200SOL    HW1  599   2.684   2.008   2.637 -0.3874 -0.2574 -1.3600
  200SOL    HW2  600   2.668   2.100   2.778  0.0171  1.7306  0.0864
  201SOL     OW  601   0.931   2.251   1.358 -0.4630  0.0493 -0.5451
  201SOL    HW1  602   1.021   2.213   1.336 -1.8870 -0.9729 -2.5761
  201SOL    HW2  603   0.873   2.261   1.271  0.9304  1.0785 -2.6393
  202SOL     OW  604   0.793   2.239   0.107  0.6163 -0.8134  0.2649
  202SOL    HW1  605   0.873   2.264   0.160 -1.4289  0.0748 -1.4457
  202SOL    HW2  606   0.818   2.189   0.017 -1.0076 -2.0500 -2.2235
  203SOL     OW  607   1.975   0.109   2.489  0.0066 -0.2130  0.7734
  203SOL    HW1  608   2.000   0.100   2.389  2.2925  2.0589  1.3566
  203SOL    HW2  609   1.901   0.047   2.516  2.7427 -2.0574  0.6524
  204SOL     OW  610   0.400   1.447   1.772  0.8164 -0.1014 -0.1788
  204SOL    HW1  611   0.310   1.487   1.812 -1.4131  1.8449 -0.1122
  204SOL    HW2  612   0.429   1.500   1.690 -2.2696 -1.3111  1.6695
  205SOL     OW  613   2.260   1.557   2.489 -0.1383 -0.1833  0.4707
  205SOL    HW1  614   2.303   1.469   2.459  1.0076 -0.1192 -0.7704
  205SOL    HW2  615   2.156   1.554   2.480 -1.2225 -0.0153  0.0330
  206SOL     OW  616   3.012   2.108   2.605 -0.2432  0.2696 -0.0455
  206SOL    HW1  617   2.979   2.161   2.520  2.8223 -1.0328 -1.9583
  206SOL    HW2  618   3.102   2.064   2.578 -2.8901  1.7072  0.5646
  207SOL     OW  619   0.539   2.882   1.778  0.0854 -0.1285 -0.2903
  207SOL    HW1  620   0.471   2.891   1.852  1.8428 -0.8024 -1.1091
  207SOL    HW2  621   0.507   2.827   1.701 -0.0301  1.2592  1.9527
  208SOL     OW  622   3.060   2.497   1.279 -0.2404 -0.4238  0.0317
  208SOL    HW1  623   0.042   2.460   1.326  0.7180  1.0091 -0.3653
  208SOL    HW2  624   3.093   2.559   1.207  1.4556  1.0860 -0.8196
  209SOL     OW  625   0.972   2.779   2.237  0.6206  0.0308  0.6405
  209SOL    HW1  626   1.058   2.793   2.288 -2.3533 -0.3248  2.0417
  209SOL    HW2  627   0.897   2.757   2.300  2.7883 -1.2779  0.1756
  210SOL     OW  628   2.936   1.219   2.137 -0.2220 -0.2315 -0.0215
  210SOL    HW1  629   2.959   1.238   2.235 -1.4149  0.2365 -1.4953
  210SOL    HW2  630   2.943   1.117   2.120  1.1851 -1.3597 -0.5680
  211SOL     OW  631   1.312   2.713   2.058 -0.1396  0.2319 -0.7092
  211SOL    HW1  632   1.265   2.681   1.977  2.7767 -0.8297  3.5689
  211SOL    HW2  633   1.272   2.797   2.084  1.3252 -5.3138  0.4151
  212SOL     OW  634   1.688   2.631   1.701 -0.3276 -0.3205  0.4480
  212SOL    HW1  635   1.658   2.646   1.793 -0.2573  2.7917  0.0164
  212SOL    HW2  636   1.763   2.693   1.666 -0.2535 -1.9839 -3.4281
  213SOL     OW  637   2.420   0.563   1.703  0.4111 -0.1810  0.1670
  213SOL    HW1  638   2.322   0.549   1.670  0.6987  0.9729 -0.2270
  213SOL    HW2  639   2.457   0.653   1.671  1.9419 -1.3236 -1.3990
  214SOL     OW  640   0.767   2.270   1.116  0.5199  0.0202 -0.4899
  214SOL    HW1  641   0.845   2.296   1.057 -2.9275  3.2288 -0.3217
  214SOL    HW2  642   0.703   2.345   1.149  1.7596 -1.6823  0.1890
  215SOL     OW  643   2.368   1.951   0.609 -0.3141  0.3638 -0.3126
  215SOL    HW1  644   2.452   1.948   0.552 -1.7788  0.1232 -0.6759
  215SOL    HW2  645   2.328   2.045   0.595 -0.1064  1.1176  0.0126
  216SOL     OW  646   0.252   0.862   1.670  0.0521 -0.5441 -0.1273
  216SOL    HW1  647   0.167   0.917   1.679 -2.3604  1.1527  2.2482
  216SOL    HW2  648   0.333   0.914   1.691 -1.6019  2.0838 -1.1900
  217SOL     OW  649   2.351   0.320   1.218 -0.1015 -0.3564 -0.1500
  217SOL    HW1  650   2.440   0.271   1.215 -1.2678 -0.3085  0.1182
  217SOL    HW2  651   2.303   0.284   1.137  1.8459  1.8782  1.7726
  218SOL     OW  652   1.614   2.158   1.210  0.0051 -0.0229  0.0920
  218SOL    HW1  653   1.702   2.179   1.160 -0.1633 -1.1505  1.4443
  218SOL    HW2  654   1.637   2.177   1.312  1.0668 -0.5600  1.8670
  219SOL     OW  655   1.644   2.358   2.958  0.5804  0.1029  0.7903
  219SOL    HW1  656   1.686   2.418   2.884 -0.2271  3.3452  2.3942
  219SOL    HW2  657   1.606   2.422   3.030  0.9319  2.7597  1.8379
  220SOL     OW  658   1.610   2.706   3.002  0.3481 -0.2124  0.0375
  220SOL    HW1  659   1.519   2.741   2.971 -2.5619  1.2143 -0.1706
  220SOL    HW2  660   1.625   2.738   3.100 -2.1830 -0.1683  0.3689
  221SOL     OW  661   0.180   2.590   1.740  0.4710  0.4227  0.1162
  221SOL    HW1  662   0.123   2.680   1.730 -1.0869  3.7188  0.3203
  221SOL    HW2  663   0.227   2.579   1.831  0.5949 -1.0231 -1.4332
  222SOL     OW  664   1.856   2.224   1.109 -0.0861 -0.4751  0.1277
  222SOL    HW1  665   1.916   2.274   1.176  0.9969 -1.1447 -0.3308
  222SOL    HW2  666   1.868   2.262   1.014  1.0228  1.4752 -1.7898
  223SOL     OW  667   1.112   2.433   1.759  0.0724 -0.2385  1.1186
  223SOL    HW1  668   1.116   2.430   1.858  2.5668  1.4840 -1.3482
  223SOL    HW2  669   1.091   2.353   1.700  0.2359 -0.7861  0.0738
  224SOL     OW  670   2.648   2.246   1.271  0.4384 -0.5227  0.5266
  224SOL    HW1  671   2.746   2.273   1.271 -1.0074 -1.1656  0.3400
  224SOL    HW2  672   2.600   2.290   1.351  0.1833 -0.1390  3.8816
  225SOL     OW  673   2.280   2.205   0.519  0.4755 -0.2926 -0.2189
  225SOL    HW1  674   2.185   2.221   0.487  0.1909  0.5349  0.0099
  225SOL    HW2  675   2.349   2.278   0.503  2.2887 -1.0801  0.2707
  226SOL     OW  676   1.532   2.620   0.411 -0.2944 -0.2141 -0.1061
  226SOL    HW1  677   1.572   2.544   0.463  0.2228 -0.6622 -0.2330
  226SOL    HW2  678   1.554   2.702   0.467  0.4329 -0.7645 -0.8924
  227SOL     OW  679   2.096   1.151   0.921  0.1965 -0.1526 -0.2112
  227SOL    HW1  680   1.998   1.146   0.910  3.2616  2.2120  0.6218
  227SOL    HW2  681   2.142   1.158   0.828 -0.3407  2.6171 -2.1659
  228SOL     OW  682   1.554   0.219   2.863 -0.7503  0.6719 -0.0156
  228SOL    HW1  683   1.555   0.271   2.949 -3.0309  3.2456  0.5930
  228SOL    HW2  684   1.550   0.287   2.786 -0.7387  4.1012  2.3622
  229SOL     OW  685   3.077   1.241   2.786  0.4550  0.0514 -0.0920
  229SOL    HW1  686   0.034   1.220   2.862 -2.3717 -0.9778 -2.0213
  229SOL    HW2  687   3.091   1.179   2.706  1.3720 -0.3585 -1.6671
  230SOL     OW  688   0.465   1.423   1.093  0.2292  0.3044  0.2762
  230SOL    HW1  689   0.461   1.383   1.188 -2.2388 -1.4635  0.8123
  230SOL    HW2  690   0.486   1.345   1.027  1.2703 -3.0643  1.3393
  231SOL     OW  691   2.538   0.185   2.515 -0.1914  0.4801  0.0344
  231SOL    HW1  692   2.465   0.248   2.478  2.4893  0.4975  0.1747
  231SOL    HW2  693   2.625   0.234   2.520 -1.9934 -0.6371  1.3079
  232SOL     OW  694   2.944   2.139   0.402 -0.7199 -0.1966  0.0699
  232SOL    HW1  695   3.000   2.064   0.367  0.7487 -0.3178 -0.5134
  232SOL    HW2  696   2.864   2.100   0.451 -0.9032  0.1678  1.2823
  233SOL     OW  697   1.583   2.351   2.202  0.6989 -0.5329  0.1242
  233SOL    HW1  698   1.528   2.431   2.232  0.2864  0.1501 -1.5183
  233SOL    HW2  699   1.599   2.356   2.105  0.3895 -0.1564 -0.5445
  234SOL     OW  700   1.349   1.616   1.331 -0.4036 -0.5962 -0.3675
  234SOL    HW1  701   1.413   1.628   1.406 -0.7555 -1.3066  0.5677
  234SOL    HW2  702   1.361   1.689   1.266  0.1025 -2.1407  1.3181
  235SOL     OW  703   0.977   1.841   1.728 -0.1892  0.1148  0.0019
  235SOL    HW1  704   0.942   1.909   1.662  0.2403 -1.0931  3.1008
  235SOL    HW2  705   1.079   1.831   1.717  1.1389  0.7401  1.6995
  236SOL     OW  706   1.274   0.158   2.865  0.0574  0.4018  0.1189
  236SOL    HW1  707   1.370   0.184   2.859  0.3947  1.0352  2.5933
  236SOL    HW2  708   1.263   0.059   2.843  0.2852 -0.3042 -0.2358
  237SOL     OW  709   1.265   0.018   1.500 -0.0906 -0.4224  0.0215
  237SOL    HW1  710   1.228   3.052   1.432 -0.9249 -1.6921  0.4785
  237SOL    HW2  711   1.324   0.092   1.455  2.1295  2.6088 -1.3699
  238SOL     OW  712   0.971   0.859   0.096  0.4635 -0.0599 -0.2853
  238SOL    HW1  713   1.002   0.892   0.004  2.3469  0.1148 -0.6536
  238SOL    HW2  714   0.919   0.775   0.081 -0.8929  2.1673 -0.3328
  239SOL     OW  715   2.852   0.904   2.801 -0.4351 -0.4620  0.3103
  239SOL    HW1  716   2.808   0.999   2.799 -1.1549  2.1271 -0.9335
  239SOL    HW2  717   2.875   0.886   2.897  0.3898 -1.3181 -0.3674
  240SOL     OW  718   2.364   2.349   0.760  0.9074 -0.1128  0.3206
  240SOL    HW1  719   2.437   2.283   0.788 -0.1977  1.4420  1.9869
  240SOL    HW2  720   2.305   2.310   0.688  2.1287  1.0912 -1.8512
  241SOL     OW  721   0.943   1.291   1.096  0.0571 -0.3673 -0.1151
  241SOL    HW1  722   0.941   1.297   1.198  1.7167 -0.3609 -0.5235
  241SOL    HW2  723   0.852   1.262   1.065  0.5190  1.6134  1.6060
  242SOL     OW  724   0.645   0.471   0.992  0.3931 -0.5003  0.0139
  242SOL    HW1  725   0.733   0.520   0.991  2.8188 -1.3550  3.4675
  242SOL    HW2  726   0.649   0.384   0.944 -0.8846  2.4904  0.3791
  243SOL     OW  727   0.240   0.363   1.249 -0.0528 -0.4323  0.2655
  243SOL    HW1  728   0.187   0.443   1.285 -2.3769  0.3292  0.3144
  243SOL    HW2  729   0.342   0.369   1.245 -0.0401 -0.3445 -0.2331
  244SOL     OW  730   0.945   0.160   0.487  0.8193 -0.1032 -0.1655
  244SOL    HW1  731   1.000   0.128   0.410 -1.0592  0.3182  0.1808
  244SOL    HW2  732   0.921   0.260   0.469 -0.3353  4.3100 -1.5777
  245SOL     OW  733   1.897   0.629   0.448 -0.2959  0.2630  0.4701
  245SOL    HW1  734   1.984   0.593   0.488 -0.4613  3.6647 -2.8946
  245SOL    HW2  735   1.898   0.642   0.348 -1.9452 -1.7232  0.4495
  246SOL     OW  736   0.318   0.407   1.768 -0.0826 -0.8025 -0.1222
  246SOL    HW1  737   0.247   0.414   1.842  0.4403  1.1989 -0.5809
  246SOL    HW2  738   0.396   0.469   1.782 -1.4203  0.0195 -0.2727
  247SOL     OW  739   1.065   0.007   1.956 -0.0831 -0.8188 -0.0198
  247SOL    HW1  740   1.106   0.076   1.897 -0.5887 -2.2536  0.4224
  247SOL    HW2  741   1.018   3.040   1.899 -1.0691 -0.3970  2.0606
  248SOL     OW  742   0.638   1.622   2.038  0.1694  0.7223  0.3356
  248SOL    HW1  743   0.693   1.689   1.982  0.6608  0.5816 -0.7440
  248SOL    HW2  744   0.630   1.643   2.139 -1.2371  1.4156  2.2885
  249SOL     OW  745   0.494   2.719   0.102  0.2943 -0.2195 -0.5936
  249SOL    HW1  746   0.425   2.714   0.023 -0.9696 -2.0335  1.2003
  249SOL    HW2  747   0.472   2.648   0.172 -0.1169  1.0566 -0.1407
  250SOL     OW  748   0.949   0.110   2.184  0.2862 -0.4062  0.2536
  250SOL    HW1  749   0.846   0.097   2.190 -0.6791 -0.4135 -0.8984
  250SOL    HW2  750   0.987   0.052   2.108 -0.0273  3.0580  1.6377
  251SOL     OW  751   2.765   2.000   1.393 -0.2557 -0.5549 -0.0606
  251SOL    HW1  752   2.769   1.937   1.317  2.3786  1.1332  2.7222
  251SOL    HW2  753   2.690   2.064   1.381  2.5468  0.4875  3.8196
  252SOL     OW  754   1.863   0.050   1.761  0.3759 -0.0510  0.2368
  252SOL    HW1  755   1.875   0.069   1.862 -0.0120  1.3865 -1.2296
  252SOL    HW2  756   1.817   3.062   1.745  2.0650 -0.1002  0.2789
  253SOL     OW  757   2.063   1.927   2.581 -0.2525 -0.6150 -0.2328
  253SOL    HW1  758   1.994   1.863   2.552  2.4999  0.2378  2.4478
  253SOL    HW2  759   2.146   1.923   2.519  1.6543 -1.8839 -3.1287
  254SOL     OW  760   0.797   1.490   1.375 -0.5283 -0.1300 -0.6637
  254SOL    HW1  761   0.837   1.560   1.441 -0.0797  1.3475 -0.7300
  254SOL    HW2  762   0.752   1.542   1.297  0.0819 -0.0121  1.1352
  255SOL     OW  763   0.739   3.058   1.726 -0.4310 -0.6484  0.4829
  255SOL    HW1  764   0.830   3.015   1.753  2.0847 -1.7192 -1.5823
  255SOL    HW2  765   0.665   3.005   1.770  0.5011  1.7699  0.4466
  256SOL     OW  766   0.155   2.575   0.668 -0.2878 -0.4228  0.2226
  256SOL    HW1  767   0.181   2.521   0.591 -0.5673 -0.4418  2.7604
  256SOL    HW2  768   0.234   2.629   0.707 -0.6320 -1.8706 -0.3190
  257SOL     OW  769   0.689   2.473   2.317 -0.1224  0.4910 -0.3371
  257SOL    HW1  770   0.780   2.429   2.306  0.2805  0.9228 -0.6527
  257SOL    HW2  771   0.617   2.401   2.318  2.5701 -0.0372 -0.9639
  258SOL     OW  772   1.347   1.802   1.770  0.5146  0.8192 -0.0887
  258SOL    HW1  773   1.406   1.749   1.837  0.2308  2.1245  1.4305
  258SOL    HW2  774   1.321   1.728   1.708  0.3667 -2.6628  1.8777
  259SOL     OW  775   1.125   1.067   2.134 -0.5307 -0.0303 -0.3531
  259SOL    HW1  776   1.037   1.059   2.075 -1.2347  0.9234  0.6937
  259SOL    HW2  777   1.151   1.162   2.158  4.4555 -0.6301  1.9895
  260SOL     OW  778   2.462   0.730   2.411  0.3137 -0.4882 -0.0579
  260SOL    HW1  779   2.450   0.694   2.511  0.1393 -3.5146  3.1447
  260SOL    HW2  780   2.498   0.824   2.414 -0.5812  0.8394 -1.2077
  261SOL     OW  781   0.760   1.350   0.794  0.3629  0.0875 -0.4922
  261SOL    HW1  782   0.717   1.260   0.760  3.3770 -1.9569  1.1360
  261SOL    HW2  783   0.859   1.343   0.770  0.4221 -0.9214  0.8980
  262SOL     OW  784   2.375   2.249   2.687  0.9026  0.2573  0.0949
  262SOL    HW1  785   2.461   2.195   2.713 -1.3837 -1.0766 -2.7377
  262SOL    HW2  786   2.286   2.201   2.713 -0.1588 -0.1495 -1.1869
  263SOL     OW  787   0.921   2.669   1.093 -0.2878 -0.3620  0.1868
  263SOL    HW1  788   0.927   2.753   1.039  0.3976 -2.8301  0.7962
  263SOL    HW2  789   1.005   2.647   1.149  0.2085 -1.8015  2.4454
  264SOL     OW  790   0.277   2.003   0.414 -0.6012 -0.1595 -0.2602
  264SOL    HW1  791   0.180   1.987   0.424 -1.3965 -1.3535  0.5185
  264SOL    HW2  792   0.298   2.051   0.329  1.8186 -3.2518 -0.2844
  265SOL     OW  793   1.556   1.050   2.529  0.3672  0.9177  0.1438
  265SOL    HW1  794   1.540   0.982   2.452 -2.8434 -2.8196  0.0893
  265SOL    HW2  795   1.486   1.125   2.527  2.9130 -0.3600  0.6697
  266SOL     OW  796   1.190   1.953   2.051  0.2982  0.6413  0.0922
  266SOL    HW1  797   1.216   1.856   2.043 -0.6730  0.1956  1.8117
  266SOL    HW2  798   1.213   1.992   1.961 -0.7192 -2.5176 -0.8824
  267SOL     OW  799   2.385   1.169   2.597  0.4136  0.4205  0.0623
  267SOL    HW1  800   2.395   1.235   2.671  0.2276  2.8790  1.5821
  267SOL    HW2  801   2.369   1.225   2.510  2.1395  1.5908 -1.8591
  268SOL     OW  802   0.813   1.104   2.812 -0.4661 -0.5063  0.6534
  268SOL    HW1  803   0.734   1.100   2.879 -2.1058 -1.7882  0.6531
  268SOL    HW2  804   0.835   1.201   2.792 -0.8484  1.0035 -0.2430
  269SOL     OW  805   2.978   1.653   2.188 -0.1586 -0.5674 -0.0589
  269SOL    HW1  806   2.905   1.708   2.139 -1.2513 -0.4636 -0.0056
  269SOL    HW2  807   2.991   1.688   2.282  0.5735 -0.7500 -3.0836
  270SOL     OW  808   0.081   2.198   3.099 -0.0157 -0.2191  0.3227
  270SOL    HW1  809   0.155   2.240   3.049 -1.0204  0.2364  0.6767
  270SOL    HW2  810   0.002   2.265   0.005 -2.3096  1.1364 -0.0543
  271SOL     OW  811   0.214   0.402   0.470 -0.2792 -0.4490  0.6176
  271SOL    HW1  812   0.159   0.320   0.497 -0.9763  0.9909  1.5399
  271SOL    HW2  813   0.169   0.449   0.393 -1.3272 -0.5564  2.4000
  272SOL     OW  814   0.065   0.023   0.270 -0.4190  0.2863 -0.0121
  272SOL    HW1  815   0.128   0.100   0.246  2.0257  0.5817  2.1203
  272SOL    HW2  816   0.043   0.020   0.371 -0.4059 -2.2115  1.7689
  273SOL     OW  817   0.298   2.907   1.942 -0.0048  0.3463  0.6548
  273SOL    HW1  818   0.272   2.900   2.039  1.2870  2.2700 -1.1388
  273SOL    HW2  819   0.268   2.999   1.913 -1.2519  0.7361  0.5877
  274SOL     OW  820   0.131   0.577   1.361  0.0165 -0.0868 -0.2588
  274SOL    HW1  821   0.056   0.628   1.314  2.7375 -0.5177 -1.3826
  274SOL    HW2  822   0.133   0.593   1.460 -1.4819  0.6538  0.8429
  275SOL     OW  823   0.755   1.552   0.965  0.1131 -0.3875  0.3064
  275SOL    HW1  824   0.757   1.478   0.896  2.3803  0.6252  1.4348
  275SOL    HW2  825   0.675   1.541   1.034 -1.4229 -1.0436  0.5055
  276SOL     OW  826   0.533   1.204   1.774 -0.0509  0.0572 -0.3211
  276SOL    HW1  827   0.469   1.279   1.787  0.3456 -0.7651 -3.1557
  276SOL    HW2  828   0.630   1.239   1.750  0.4304 -2.2792 -0.3156
  277SOL     OW  829   1.293   2.057   1.816  0.2594  0.1876  0.1566
  277SOL    HW1  830   1.224   2.084   1.746  0.9936 -1.2922 -1.7419
  277SOL    HW2  831   1.321   1.961   1.800  1.0855  2.7963 -1.5432
  278SOL     OW  832   2.208   2.583   2.021  0.8659 -0.4245 -0.3171
  278SOL    HW1  833   2.194   2.632   2.109  1.9496  0.1166  0.1636
  278SOL    HW2  834   2.257   2.499   2.039  0.4327  0.8397  0.0183
  279SOL     OW  835   1.253   1.864   2.775 -0.1139  0.2483  0.0304
  279SOL    HW1  836   1.317   1.790   2.783 -0.0824 -0.8884 -1.0954
  279SOL    HW2  837   1.294   1.942   2.830  2.2633 -0.7743 -1.4463
  280SOL     OW  838   1.340   0.514   0.397  0.3790 -0.2207  0.6382
  280SOL    HW1  839   1.438   0.530   0.420 -0.0757  0.7936  0.8547
  280SOL    HW2  840   1.282   0.539   0.480 -1.0704  0.8597  0.8984
  281SOL     OW  841   0.588   0.471   1.430  0.5994  0.3631  0.5476
  281SOL    HW1  842   0.520   0.542   1.402  0.2586  0.4444 -2.3396
  281SOL    HW2  843   0.629   0.484   1.520 -1.2632  0.3779 -1.5427
  282SOL     OW  844   0.028   2.780   0.535 -0.0203  0.3084  0.5707
  282SOL    HW1  845   0.100   2.816   0.468  1.0503  1.5617 -0.3539
  282SOL    HW2  846   0.060   2.700   0.589  0.6447  1.7714  2.6140
  283SOL     OW  847   1.443   1.930   1.527  0.1571  0.0466  0.5377
  283SOL    HW1  848   1.379   1.928   1.446 -1.4959 -0.7675 -2.4601
  283SOL    HW2  849   1.407   1.868   1.596 -0.2998  0.5929  2.0222
  284SOL     OW  850   2.611   2.819   1.315 -0.2719 -0.3886 -0.0500
  284SOL    HW1  851   2.708   2.826   1.277 -0.5102  0.4376  2.4241
  284SOL    HW2  852   2.542   2.768   1.259  0.6699 -1.3686 -1.6979
  285SOL     OW  853   0.453   2.379   0.881 -0.0029  0.2822  0.2379
  285SOL    HW1  854   0.537   2.437   0.881  2.3868 -1.7676 -0.3112
  285SOL    HW2  855   0.430   2.333   0.790  1.3798 -1.4111 -1.5159
  286SOL     OW  856   0.459   2.703   1.285 -0.1613 -0.6612  0.4678
  286SOL    HW1  857   0.539   2.763   1.255  0.0396  1.6605 -0.4211
  286SOL    HW2  858   0.369   2.745   1.260 -1.5023 -2.6175  1.9405
  287SOL     OW  859   0.477   1.193   0.928  0.6531  0.3411 -0.5645
  287SOL    HW1  860   0.438   1.224   0.842 -2.4307 -2.1296  0.6565
  287SOL    HW2  861   0.405   1.137   0.970 -0.6472  1.4773 -1.9235
  288SOL     OW  862   1.231   1.913   2.505  0.2790  0.5520  0.0945
  288SOL    HW1  863   1.216   1.922   2.606  0.7033  0.5549 -0.4014
  288SOL    HW2  864   1.324   1.878   2.483 -0.0798 -0.5213 -1.1068
  289SOL     OW  865   2.496   1.565   3.091  0.4183 -0.0230 -0.2202
  289SOL    HW1  866   2.434   1.592   0.065 -2.4638  0.0249  1.1444
  289SOL    HW2  867   2.495   1.630   3.013 -2.2922 -3.1251  1.0853
  290SOL     OW  868   1.135   1.418   0.949  0.0082  0.2842 -0.2937
  290SOL    HW1  869   1.234   1.422   0.984  0.3800  1.0513  0.3841
  290SOL    HW2  870   1.070   1.391   1.027  0.5529 -0.7897  0.3333
  291SOL     OW  871   1.030   0.941   2.947 -0.2619 -0.1959  0.0495
  291SOL    HW1  872   1.110   0.992   2.912  0.5775 -1.5369 -1.2067
  291SOL    HW2  873   0.949   0.996   2.930 -0.7101 -0.6549 -0.9915
  292SOL     OW  874   1.610   1.815   0.192  0.3402 -0.1088  0.1451
  292SOL    HW1  875   1.568   1.906   0.216  2.5786 -0.0333  1.5559
  292SOL    HW2  876   1.554   1.742   0.229  3.0914  3.2978 -0.6032
  293SOL     OW  877   1.643   2.965   0.950  0.3478  0.6142 -0.0165
  293SOL    HW1  878   1.623   3.036   1.016 -2.9417 -2.8786  1.1031
  293SOL    HW2  879   1.557   2.920   0.919 -1.2634  0.1933  0.2720
  294SOL     OW  880   2.247   1.006   0.498  0.0983  0.5184  0.1981
  294SOL    HW1  881   2.177   0.950   0.545  1.5733 -0.8342  0.7563
  294SOL    HW2  882   2.321   0.938   0.463  2.9748 -0.1727  0.5255
  295SOL     OW  883   2.048   1.751   2.787 -0.4289 -0.4009  0.1106
  295SOL    HW1  884   2.061   1.827   2.719 -1.4123  3.0424  3.2194
  295SOL    HW2  885   1.948   1.736   2.803 -0.8954  1.5209 -0.2808
  296SOL     OW  886   1.536   1.055   1.365  0.6168 -0.2518  0.2570
  296SOL    HW1  887   1.529   1.067   1.263  0.4618 -2.3180  0.4852
  296SOL    HW2  888   1.449   1.072   1.409  1.7680  0.3536  0.3891
  297SOL     OW  889   0.275   0.864   2.334 -0.0926 -0.4381 -0.4696
  297SOL    HW1  890   0.260   0.792   2.266  1.1844  0.9355  1.4955
  297SOL    HW2  891   0.278   0.816   2.419 -1.8057  0.4453 -1.2445
  298SOL     OW  892   1.659   2.130   1.501  0.2228  0.1679 -0.1111
  298SOL    HW1  893   1.585   2.053   1.514 -2.1286 -1.6238  0.8152
  298SOL    HW2  894   1.629   2.212   1.549  0.8505 -1.7424 -0.4830
  299SOL     OW  895   1.025   0.315   2.431  0.0941 -0.3249  0.2960
  299SOL    HW1  896   1.100   0.278   2.376  2.8098  0.1342 -0.2920
  299SOL    HW2  897   0.983   0.238   2.480 -0.4996  1.3033 -0.2677
  300SOL     OW  898   2.208   1.805   0.452  0.7243  0.4697  0.1185
  300SOL    HW1  899   2.225   1.850   0.367 -1.9223 -1.1896 -0.5007
  300SOL    HW2  900   2.271   1.836   0.527 -0.2324  0.3236 -1.8800
  301SOL     OW  901   2.194   0.465   2.607 -0.2589  0.2337 -0.5844
  301SOL    HW1  902   2.274   0.532   2.619  0.6547  0.9426 -1.6155
  301SOL    HW2  903   2.184   0.414   2.697  0.5167 -0.8241 -1.0749
  302SOL     OW  904   2.563   2.109   2.421  0.5252 -0.4317 -0.6186
  302SOL    HW1  905   2.589   2.126   2.518 -0.9584  2.8098  0.3060
  302SOL    HW2  906   2.509   2.192   2.392 -4.3704  2.8712  1.0446
  303SOL     OW  907   0.261   2.477   2.338 -0.0442 -0.4389  0.0965
  303SOL    HW1  908   0.358   2.489   2.368  0.2451 -1.7616  0.2917
  303SOL    HW2  909   0.214   2.435   2.414  2.2668 -1.7841 -2.3813
  304SOL     OW  910   2.974   1.614   1.449 -0.4932 -0.1699  0.2271
  304SOL    HW1  911   2.933   1.523   1.425 -1.0115  1.5811 -1.4791
  304SOL    HW2  912   2.963   1.672   1.365  0.4208 -1.1569 -0.0939
  305SOL     OW  913   0.296   0.374   2.155 -0.0904  0.7355 -0.2402
  305SOL    HW1  914   0.399   0.383   2.141 -2.0900  1.2935  0.9958
  305SOL    HW2  915   0.267   0.274   2.146 -1.3814 -1.2181 -1.6927
  306SOL     OW  916   1.218   1.542   0.587  0.3221 -0.3308 -0.4704
  306SOL    HW1  917   1.254   1.447   0.595  2.6236  1.7795 -2.0904
  306SOL    HW2  918   1.151   1.548   0.515 -0.5177  0.7217  4.5322
  307SOL     OW  919   3.092   3.008   0.759  0.3015 -0.9299 -0.0221
  307SOL    HW1  920   0.077   2.967   0.775 -1.6884  2.5323  0.1493
  307SOL    HW2  921   3.094   3.046   0.666  0.5089 -1.6002  1.5915
  308SOL     OW  922   2.980   1.279   2.401 -0.2911  0.2535  0.1857
  308SOL    HW1  923   3.015   1.367   2.436 -2.3556 -2.2149 -3.9309
  308SOL    HW2  924   3.042   1.201   2.436 -0.1560  1.3947  2.1698
  309SOL     OW  925   2.830   1.894   2.612 -0.5585  0.1264  0.1333
  309SOL    HW1  926   2.782   1.828   2.672  2.1031 -0.4462  1.5210
  309SOL    HW2  927   2.896   1.952   2.667  1.6936 -0.6881  0.9667
  310SOL     OW  928   2.230   0.650   0.182  0.3709  0.9159  0.1247
  310SOL    HW1  929   2.232   0.745   0.152  0.9287 -2.8928  0.4320
  310SOL    HW2  930   2.184   0.591   0.117 -0.6432 -1.6991  0.0159
  311SOL     OW  931   1.906   0.967   3.039  0.1078 -0.5467  0.1683
  311SOL    HW1  932   1.936   1.054   2.994  1.0210  0.8493  0.2556
  311SOL    HW2  933   1.930   0.885   2.985  0.4892  2.2870  0.5182
  312SOL     OW  934   1.238   1.670   2.052  0.3855  0.2328 -0.1240
  312SOL    HW1  935   1.235   1.614   2.141 -1.9516 -3.4185  1.5891
  312SOL    HW2  936   1.145   1.679   2.006  0.1915  2.1297  0.2759
  313SOL     OW  937   3.035   0.777   0.338  0.1821 -0.6576  0.2318
  313SOL    HW1  938   3.099   0.753   0.269 -6.1482 -0.5711  1.4738
  313SOL    HW2  939   2.984   0.702   0.375  0.4594  0.9125 -0.5320
  314SOL     OW  940   0.352   1.846   1.453 -0.0397  0.4272 -0.0622
  314SOL    HW1  941   0.401   1.898   1.531  0.0917  2.3549 -1.1237
  314SOL    HW2  942   0.316   1.758   1.484  0.3917  4.1436  2.1956
  315SOL     OW  943   0.939   1.634   1.544 -0.2538  0.6046 -0.1562
  315SOL    HW1  944   0.977   1.564   1.611  0.9021 -3.0149 -0.6998
  315SOL    HW2  945   0.919   1.720   1.592 -0.0140  0.6672 -0.4640
  316SOL     OW  946   0.381   2.264   0.637 -0.1674 -0.3177 -0.2670
  316SOL    HW1  947   0.287   2.224   0.647  1.3580  0.8467 -1.3557
  316SOL    HW2  948   0.443   2.193   0.600 -2.2529  1.6185 -1.3682
  317SOL     OW  949   2.577   0.191   1.242  0.3741 -0.2318  0.1694
  317SOL    HW1  950   2.582   0.152   1.332  0.8767 -1.4257 -1.5581
  317SOL    HW2  951   2.667   0.226   1.213 -0.2957  2.4274  1.8467
  318SOL     OW  952   1.314   2.999   0.011  0.1312  0.3116  0.1875
  318SOL    HW1  953   1.407   3.035   0.004 -1.6936 -1.9024 -1.1555
  318SOL    HW2  954   1.305   2.897   3.103  0.0174 -2.5526 -0.6412
  319SOL     OW  955   1.555   0.502   2.728 -0.4034 -0.1594  0.3214
  319SOL    HW1  956   1.584   0.591   2.693 -0.5417 -0.1716  1.8919
  319SOL    HW2  957   1.483   0.519   2.798 -1.3843  1.4400 -0.5476
  320SOL     OW  958   2.949   1.966   1.892 -0.4747  0.3151 -0.5308
  320SOL    HW1  959   2.902   1.938   1.978 -2.5560  1.6569 -0.4473
  320SOL    HW2  960   2.975   1.891   1.831 -1.5250  1.9886  1.1341
  321SOL     OW  961   0.038   2.517   2.854  0.1936 -0.2926 -0.1992
  321SOL    HW1  962   0.039   2.484   2.953 -1.2052  1.5753  1.5094
  321SOL    HW2  963   3.088   2.450   2.797 -1.4165 -1.4731 -2.2137
  322SOL     OW  964   2.809   0.766   2.227  0.1350  0.0653 -0.3294
  322SOL    HW1  965   2.730   0.700   2.229 -1.2020  1.0401 -1.6035
  322SOL    HW2  966   2.862   0.764   2.318  2.2700 -5.0726  1.1985
  323SOL     OW  967   1.893   1.395   0.434  0.5634 -0.3518 -0.0056
  323SOL    HW1  968   1.980   1.403   0.384  3.4976  0.1108  2.2524
  323SOL    HW2  969   1.878   1.300   0.470  0.6231 -0.3890  0.9538
  324SOL     OW  970   0.149   0.161   1.421 -0.2956 -0.4591 -0.0333
  324SOL    HW1  971   0.221   0.103   1.453 -0.7391  1.5675 -2.3248
  324SOL    HW2  972   0.180   0.242   1.366 -0.2138 -0.3594  1.4651
  325SOL     OW  973   2.708   3.068   1.594 -0.4725 -0.6630 -0.1670
  325SOL    HW1  974   2.745   0.053   1.561 -0.5742  0.9823  1.0930
  325SOL    HW2  975   2.705   3.065   1.693 -2.1682  1.2392 -1.6277
  326SOL     OW  976   1.692   2.764   0.145 -0.5086 -0.4310  0.4434
  326SOL    HW1  977   1.635   2.756   0.228  0.1812  2.3093  0.2115
  326SOL    HW2  978   1.792   2.741   0.167  2.5649  0.4297  0.0043
  327SOL     OW  979   1.837   2.177   0.217  0.0236  0.6018 -0.4253
  327SOL    HW1  980   1.761   2.242   0.220  0.1464 -0.2572  2.0583
  327SOL    HW2  981   1.830   2.115   0.136 -0.0654  1.0558  0.1840
  328SOL     OW  982   3.020   2.207   1.839  0.4441  0.3292  0.2860
  328SOL    HW1  983   3.031   2.110   1.865 -1.1863 -0.4685  2.4543
  328SOL    HW2  984   2.951   2.258   1.895  1.6789  0.1463  2.1143
  329SOL     OW  985   3.051   2.114   1.162 -0.6825 -0.8040 -0.1865
  329SOL    HW1  986   2.988   2.158   1.227 -1.2315 -0.2193 -1.0237
  329SOL    HW2  987   3.001   2.037   1.116 -0.2263  0.8630 -0.7377
  330SOL     OW  988   2.251   0.893   2.684 -0.7966  0.1991 -0.3557
  330SOL    HW1  989   2.174   0.865   2.623 -1.1542 -0.1582 -1.6920
  330SOL    HW2  990   2.267   0.989   2.667  0.1219 -2.4472 -1.5014
  331SOL     OW  991   2.306   1.534   0.847 -0.1181  0.0115 -0.1717
  331SOL    HW1  992   2.264   1.531   0.760  0.1468  0.2681  1.9030
  331SOL    HW2  993   2.313   1.627   0.871  0.6104 -3.2802 -4.6335
  332SOL     OW  994   0.089   2.689   1.090 -0.1229 -0.2048 -0.4592
  332SOL    HW1  995   0.153   2.686   1.010  1.3230  1.3330 -1.4178
  332SOL    HW2  996   0.135   2.729   1.173  0.5902  0.5824 -0.8948
  333SOL     OW  997   3.058   1.798   2.414  0.0074 -0.0020  0.2715
  333SOL    HW1  998   0.045   1.834   2.447  0.7377 -0.5178 -2.1109
  333SOL    HW2  999   2.986   1.820   2.481 -0.2634 -0.0984  0.4195
  334SOL     OW 1000   0.520   0.836   1.107 -0.0900  0.3225 -0.7911
  334SOL    HW1 1001   0.464   0.913   1.072 -1.3945  0.7547  1.7631
  334SOL    HW2 1002   0.471   0.779   1.179 -1.5672 -0.9894  0.4459
  335SOL     OW 1003   0.152   1.594   2.169 -0.0127  0.9026 -0.2860
  335SOL    HW1 1004   0.055   1.610   2.196  3.5837 -0.3558 -1.0740
  335SOL    HW2 1005   0.191   1.504   2.210 -1.1271 -1.6685  0.9743
  336SOL     OW 1006   2.156   2.739   2.255  0.5471 -0.0515 -0.1866
  336SOL    HW1 1007   2.161   2.666   2.325 -0.1592 -1.3491  0.6546
  336SOL    HW2 1008   2.084   2.809   2.278 -0.7240 -0.2938  2.4298
  337SOL     OW 1009   0.946   0.734   1.255 -0.2586  0.6688 -0.4066
  337SOL    HW1 1010   0.867   0.782   1.299  2.2833  1.1768 -3.3991
  337SOL    HW2 1011   1.003   0.797   1.201  1.4804  1.8117  0.0041
  338SOL     OW 1012   1.543   1.927   1.100 -0.5972  0.1985 -0.1892
  338SOL    HW1 1013   1.562   2.025   1.127  1.4223 -2.9017  1.5944
  338SOL    HW2 1014   1.578   1.857   1.168  1.4487 -0.4713 -2.0954
  339SOL     OW 1015   0.125   1.900   1.320  0.5047  0.3927 -0.3947
  339SOL    HW1 1016   0.218   1.912   1.365 -0.2840  0.5301 -0.8284
  339SOL    HW2 1017   0.053   1.951   1.371  1.1359  0.3952 -1.5023
  340SOL     OW 1018   0.699   0.006   2.145  0.3072 -0.2791 -0.0364
  340SOL    HW1 1019   0.728   3.015   2.111 -0.0165  1.4012  1.2784
  340SOL    HW2 1020   0.636   0.009   2.223  0.9698  1.2958  1.9562
  341SOL     OW 1021   1.798   1.613   0.555 -0.3798 -0.0688 -0.3849
  341SOL    HW1 1022   1.873   1.678   0.554 -2.3393 -4.0104 -0.6932
  341SOL    HW2 1023   1.822   1.527   0.507 -0.6606  1.4711 -1.3849
  342SOL     OW 1024   1.608   1.477   0.311 -0.4524 -0.3143 -0.2489
  342SOL    HW1 1025   1.623   1.431   0.221  0.1335  1.5953 -1.3124
  342SOL    HW2 1026   1.696   1.499   0.349 -1.1267  0.4294  0.3867
  343SOL     OW 1027   1.955   0.036   0.889 -0.1511 -0.1227  0.0085
  343SOL    HW1 1028   1.904   0.088   0.959  0.1027  0.7830  1.5756
  343SOL    HW2 1029   1.962   3.044   0.917 -0.4700 -1.0124  1.7460
  344SOL     OW 1030   2.807   0.302   2.888  0.7027 -0.5516  0.4006
  344SOL    HW1 1031   2.831   0.239   2.967  0.8591 -0.8551  0.4937
  344SOL    HW2 1032   2.720   0.267   2.845 -0.1967  0.6476  0.0300
  345SOL     OW 1033   1.352   2.525   1.528  0.3764 -0.1026 -0.7982
  345SOL    HW1 1034   1.289   2.602   1.500  0.6422  1.4820 -1.0820
  345SOL    HW2 1035   1.341   2.498   1.626 -0.3206  2.2309 -2.9938
  346SOL     OW 1036   2.215   2.191   1.213  0.0002 -0.3425 -0.3319
  346SOL    HW1 1037   2.127   2.229   1.254 -0.8845  1.0930  0.2503
  346SOL    HW2 1038   2.284   2.177   1.287 -1.4320 -0.4255 -0.8582
  347SOL     OW 1039   2.143   3.022   1.087 -0.2503  0.4741  0.3403
  347SOL    HW1 1040   2.107   3.039   1.179  1.0440  0.1133 -1.1319
  347SOL    HW2 1041   2.067   2.975   1.030 -1.0894  0.6838 -1.2131
  348SOL     OW 1042   0.794   1.119   1.562 -1.2275  0.0573 -0.0161
  348SOL    HW1 1043   0.760   1.038   1.609 -0.3789 -0.6382 -1.0379
  348SOL    HW2 1044   0.728   1.160   1.498  0.2681 -3.2100 -1.3089
  349SOL     OW 1045   2.381   0.303   2.825  0.0784 -0.3188 -0.0160
  349SOL    HW1 1046   2.411   0.393   2.798 -1.7781  2.4907 -0.0559
  349SOL    HW2 1047   2.454   0.232   2.818 -0.2875  0.7270  0.9792
  350SOL     OW 1048   2.163   2.223   2.859  0.2252  0.0480 -0.0581
  350SOL    HW1 1049   2.223   2.161   2.911 -1.4208  0.8396 -0.6920
  350SOL    HW2 1050   2.111   2.281   2.927 -0.9377  1.8480  1.5815
  351SOL     OW 1051   1.143   0.249   0.668  0.6907 -0.1670  0.5347
  351SOL    HW1 1052   1.073   0.234   0.596 -1.1564  0.1548  2.9978
  351SOL    HW2 1053   1.167   0.349   0.665  0.8196  0.4364  0.0949
  352SOL     OW 1054   1.788   1.975   2.271  0.4090 -0.1514  0.1365
  352SOL    HW1 1055   1.765   2.072   2.302  0.6312  3.3632 -1.2231
  352SOL    HW2 1056   1.842   1.978   2.179  1.1081 -0.2757 -3.2538
  353SOL     OW 1057   0.164   0.788   0.174  0.4671 -0.2803 -0.2940
  353SOL    HW1 1058   0.219   0.793   0.090 -2.1203 -2.5016  1.1216
  353SOL    HW2 1059   0.155   0.880   0.219 -1.3963  3.0433  0.6761
  354SOL     OW 1060   0.887   2.445   2.735  0.1145 -0.1569 -0.4341
  354SOL    HW1 1061   0.841   2.353   2.747 -1.5728 -1.1750  0.9572
  354SOL    HW2 1062   0.915   2.488   2.828  0.9771  4.2210  0.3299
  355SOL     OW 1063   2.665   2.783   1.626  0.4405 -0.1075 -0.1476
  355SOL    HW1 1064   2.610   2.861   1.665  1.1421 -1.2837  2.1425
  355SOL    HW2 1065   2.647   2.779   1.526  0.7108  0.0141  0.8652
  356SOL     OW 1066   2.554   1.200   0.832  0.0701 -0.2248 -1.1393
  356SOL    HW1 1067   2.556   1.107   0.871  0.3359  1.8810  0.0140
  356SOL    HW2 1068   2.479   1.250   0.879  0.6924 -0.4200  0.6347
  357SOL     OW 1069   2.817   0.245   1.153 -0.6351  0.1939 -0.0015
  357SOL    HW1 1070   2.862   0.156   1.166 -0.5021  0.3299 -1.4348
  357SOL    HW2 1071   2.838   0.278   1.060  2.2031  0.0482  1.2131
  358SOL     OW 1072   1.175   2.204   1.261 -0.4193 -0.0703  0.4686
  358SOL    HW1 1073   1.183   2.229   1.161 -0.5257  1.0517  1.0740
  358SOL    HW2 1074   1.234   2.253   1.326  1.2203  2.9040  0.6183
  359SOL     OW 1075   3.021   2.724   2.756 -0.4480  0.2086  0.3044
  359SOL    HW1 1076   3.068   2.642   2.791  0.8787  4.3552  2.4247
  359SOL    HW2 1077   3.083   2.770   2.692 -1.9674 -0.3872  3.7453
  360SOL     OW 1078   1.086   0.942   1.716 -0.1453 -0.1285  0.5618
  360SOL    HW1 1079   1.112   0.914   1.807 -2.5716 -2.5898 -0.5191
  360SOL    HW2 1080   1.047   0.865   1.659 -2.1646 -2.9034 -0.5976
  361SOL     OW 1081   2.553   0.396   0.483 -0.3759 -0.3956 -0.6646
  361SOL    HW1 1082   2.587   0.349   0.402 -1.6092  2.4125  0.7757
  361SOL    HW2 1083   2.495   0.339   0.544 -1.4293 -0.5043 -1.4265
  362SOL     OW 1084   0.336   0.035   0.607  0.1774  0.2879  0.3119
  362SOL    HW1 1085   0.386   3.079   0.542 -1.2323  1.5787  1.6641
  362SOL    HW2 1086   0.399   0.100   0.650 -2.8074 -0.3513 -2.5961
  363SOL     OW 1087   0.774   1.304   0.327 -0.3230  0.0126 -0.5637
  363SOL    HW1 1088   0.702   1.275   0.394  0.6617  0.5230  2.0464
  363SOL    HW2 1089   0.858   1.345   0.381 -0.0730  0.4191 -0.1782
  364SOL     OW 1090   0.544   0.936   1.690  0.0943 -0.3068 -0.1490
  364SOL    HW1 1091   0.512   0.910   1.598  1.0856  1.9900 -1.8980
  364SOL    HW2 1092   0.558   1.038   1.700 -0.6843  0.8416  0.1828
  365SOL     OW 1093   2.851   1.395   0.566 -0.5217 -0.2699  0.0821
  365SOL    HW1 1094   2.851   1.299   0.591  1.5147 -0.0210 -0.0684
  365SOL    HW2 1095   2.793   1.442   0.636  1.3270 -2.7347  0.3537
  366SOL     OW 1096   2.741   1.531   0.784  0.4740  0.1605 -0.5713
  366SOL    HW1 1097   2.684   1.518   0.869 -0.0298 -0.1704  3.2684
  366SOL    HW2 1098   2.836   1.554   0.811  0.0813 -0.3336  1.4580
  367SOL     OW 1099   2.198   1.895   2.089  0.2091  0.2490 -0.2839
  367SOL    HW1 1100   2.217   1.968   2.156 -0.5300  0.4150  1.9189
  367SOL    HW2 1101   2.106   1.857   2.107 -2.6011  3.2317  1.7250
  368SOL     OW 1102   2.644   1.521   1.094 -0.2348 -0.0062 -0.2806
  368SOL    HW1 1103   2.744   1.495   1.095  3.3159  0.2420 -1.6365
  368SOL    HW2 1104   2.582   1.449   1.127  1.2155 -1.0221 -1.0109
  369SOL     OW 1105   2.279   2.602   3.008 -0.6939  0.3692 -0.9548
  369SOL    HW1 1106   2.286   2.569   2.909 -0.8734  1.5136 -1.6326
  369SOL    HW2 1107   2.184   2.620   3.034 -0.5230 -0.4746 -2.3669
  370SOL     OW 1108   0.066   3.097   1.201  0.1288 -0.2423  0.0045
  370SOL    HW1 1109   0.089   0.072   1.260  2.3824 -0.4277  0.5367
  370SOL    HW2 1110   0.120   3.099   1.116  0.3864 -1.3828  1.8110
  371SOL     OW 1111   0.913   1.786   3.058 -0.9618 -0.1588 -0.4025
  371SOL    HW1 1112   0.958   1.834   0.027  1.0751 -1.6140 -0.3395
  371SOL    HW2 1113   0.831   1.734   3.094  1.3990 -0.7035 -1.8585
  372SOL     OW 1114   1.074   0.934   0.327 -0.3072  0.0690 -0.1624
  372SOL    HW1 1115   1.108   0.844   0.365 -0.7744 -1.2406  0.9763
  372SOL    HW2 1116   1.048   0.923   0.226 -0.2574 -0.1491  0.1446
  373SOL     OW 1117   1.653   2.682   2.713  0.3696 -0.3206  0.5275
  373SOL    HW1 1118   1.717   2.626   2.658 -1.9343  0.2342  1.5280
  373SOL    HW2 1119   1.670   2.667   2.813 -2.8746  0.2273 -2.1506
  374SOL     OW 1120   0.298   2.192   0.209  0.3711 -0.2933 -0.2783
  374SOL    HW1 1121   0.382   2.234   0.171 -0.0537  0.1301 -0.3690
  374SOL    HW2 1122   0.222   2.185   0.144  1.9482  1.3984  1.8325
  375SOL     OW 1123   0.760   1.336   1.699  0.1479 -0.2494 -0.1968
  375SOL    HW1 1124   0.798   1.413   1.647 -0.4053  0.2140  0.7592
  375SOL    HW2 1125   0.795   1.242   1.667 -1.6756 -1.7571  1.9979
  376SOL     OW 1126   0.547   2.297   1.888 -0.4738 -0.1457 -0.3240
  376SOL    HW1 1127   0.564   2.326   1.790  1.8266  1.7239 -2.1686
  376SOL    HW2 1128   0.458   2.337   1.924 -0.9479  0.3978 -0.3935
  377SOL     OW 1129   2.754   1.464   2.085  0.1807  0.3722 -0.6027
  377SOL    HW1 1130   2.819   1.539   2.109 -2.6871 -0.1402  0.1547
  377SOL    HW2 1131   2.804   1.375   2.088  2.1580  1.3612  1.0625
  378SOL     OW 1132   1.055   0.002   3.074 -0.0853 -0.1544  0.0041
  378SOL    HW1 1133   1.052   0.099   3.101 -2.7753 -1.2449 -1.6222
  378SOL    HW2 1134   1.153   3.069   3.071  2.2885  0.6039 -0.8465
  379SOL     OW 1135   2.037   0.439   0.726  0.1448  0.1885 -0.7341
  379SOL    HW1 1136   2.071   0.467   0.636 -1.5458  1.6044  1.5181
  379SOL    HW2 1137   2.101   0.472   0.795  0.2528 -4.6963 -1.7310
  380SOL     OW 1138   3.030   2.001   1.474  0.0212 -0.4648  0.8218
  380SOL    HW1 1139   3.046   1.962   1.564  0.0398  0.4003 -1.9167
  380SOL    HW2 1140   2.932   1.985   1.444 -3.4823 -1.0052  1.2519
  381SOL     OW 1141   1.962   1.772   2.105  0.1921 -1.3580  0.0874
  381SOL    HW1 1142   1.885   1.730   2.153  0.5789  0.6743 -1.9589
  381SOL    HW2 1143   1.986   1.714   2.026 -2.3384 -1.9058 -0.0216
  382SOL     OW 1144   0.186   0.395   2.660  0.7120  0.6619 -0.1263
  382SOL    HW1 1145   0.115   0.343   2.711  0.9826  0.4743  0.7537
  382SOL    HW2 1146   0.171   0.401   2.561  2.7676 -0.4998 -0.0589
  383SOL     OW 1147   1.675   1.478   2.593  0.1370  0.7569  0.1972
  383SOL    HW1 1148   1.717   1.397   2.633  1.5372 -0.1778 -0.6819
  383SOL    HW2 1149   1.724   1.517   2.515  0.8192  0.3485 -1.5705
  384SOL     OW 1150   1.258   1.929   1.345  0.2229  0.8524  0.4636
  384SOL    HW1 1151   1.213   2.017   1.318  1.2946 -0.4201 -1.5969
  384SOL    HW2 1152   1.187   1.860   1.372 -1.9915  3.4396 -2.7865
  385SOL     OW 1153   1.743   2.639   0.779 -0.1262 -0.1028  0.3293
  385SOL    HW1 1154   1.737   2.682   0.873 -0.5216 -0.2078 -0.9497
  385SOL    HW2 1155   1.825   2.668   0.728 -0.3401 -0.3400  2.9545
  386SOL     OW 1156   1.985   1.678   0.830  0.5688  0.0805 -0.0051
  386SOL    HW1 1157   1.897   1.620   0.839 -0.4494 -1.6574  2.9479
  386SOL    HW2 1158   2.047   1.628   0.772 -0.3542  0.4705  1.8750
  387SOL     OW 1159   0.129   2.328   1.399  0.0712  0.4915  0.1148
  387SOL    HW1 1160   0.133   2.258   1.329 -2.3056 -0.5786  3.3045
  387SOL    HW2 1161   0.063   2.295   1.474 -3.1814  0.2703  2.4336
  388SOL     OW 1162   2.931   0.495   1.915  0.4468  0.4633 -0.6389
  388SOL    HW1 1163   2.890   0.582   1.913 -1.0220 -2.2413  0.6290
  388SOL    HW2 1164   2.861   0.424   1.910 -0.3288  1.8281  0.0351
  389SOL     OW 1165   1.875   1.107   0.503 -0.4274  0.5215 -0.5469
  389SOL    HW1 1166   1.832   1.041   0.566 -1.0437 -0.1444 -0.0314
  389SOL    HW2 1167   1.959   1.060   0.467 -1.2072 -0.1352  0.6349
  390SOL     OW 1168   1.090   2.154   2.533  0.1990  0.0320 -0.4506
  390SOL    HW1 1169   0.997   2.140   2.494  0.9505 -0.4186 -0.1782
  390SOL    HW2 1170   1.151   2.082   2.499 -1.9349  1.4446  0.1717
  391SOL     OW 1171   0.754   2.229   2.733 -0.0311 -0.5015  0.0158
  391SOL    HW1 1172   0.677   2.264   2.675  2.1412 -0.1422  1.0475
  391SOL    HW2 1173   0.779   2.135   2.697  1.3357 -0.4144  0.1031
  392SOL     OW 1174   0.019   2.805   1.726  0.7611  0.7654 -0.0160
  392SOL    HW1 1175   3.051   2.846   1.661 -1.1212 -0.3689  0.5152
  392SOL    HW2 1176   3.096   2.807   1.823  1.0991 -2.0794  0.5712
  393SOL     OW 1177   1.871   2.472   0.147 -0.1848 -0.1930  0.0506
  393SOL    HW1 1178   1.869   2.441   0.245 -2.4099  0.7326  1.9371
  393SOL    HW2 1179   1.920   2.563   0.145 -0.5871  0.4368  0.9801
  394SOL     OW 1180   0.720   0.461   2.259 -0.1441  0.5353  0.2956
  394SOL    HW1 1181   0.696   0.395   2.335  2.1667  0.3516  3.9039
  394SOL    HW2 1182   0.803   0.426   2.210  1.6748  1.6718  0.4666
  395SOL     OW 1183   0.388   1.293   1.318  0.4353 -0.1500  0.3901
  395SOL    HW1 1184   0.321   1.221   1.283  0.9334 -1.4099 -1.4254
  395SOL    HW2 1185   0.341   1.339   1.398  0.6741 -0.4449  2.2830
  396SOL     OW 1186   1.635   1.363   2.197 -0.2202 -0.4230  0.1267
  396SOL    HW1 1187   1.689   1.302   2.254  1.6616  1.9541 -2.9088
  396SOL    HW2 1188   1.551   1.396   2.239  2.7266  1.6572 -1.6247
  397SOL     OW 1189   0.788   0.338   0.186  0.0035  0.3347 -0.0910
  397SOL    HW1 1190   0.738   0.362   0.270  1.1135 -1.2168 -3.1701
  397SOL    HW2 1191   0.726   0.273   0.141  0.1090  1.9354  2.0524
  398SOL     OW 1192   0.805   1.960   2.664 -0.4854 -0.2135  0.6958
  398SOL    HW1 1193   0.859   1.921   2.741 -0.7277  0.1738  0.3938
  398SOL    HW2 1194   0.847   1.945   2.574 -0.6448 -1.0294  2.1506
  399SOL     OW 1195   2.641   1.582   2.429  0.4539 -0.1143 -0.3010
  399SOL    HW1 1196   2.595   1.537   2.351  1.3919  1.2943 -2.7736
  399SOL    HW2 1197   2.702   1.658   2.397  2.4112 -1.7103 -1.5262
  400SOL     OW 1198   2.224   1.140   1.585  0.6259 -0.1610  0.2321
  400SOL    HW1 1199   2.244   1.238   1.555  1.0946 -0.7517  1.3077
  400SOL    HW2 1200   2.196   1.083   1.504  1.2809 -4.2616  1.1590
  401SOL     OW 1201   1.057   1.686   0.756  0.3254  0.3039  0.2629
  401SOL    HW1 1202   1.086   1.678   0.855 -1.4930 -2.0880  1.4620
  401SOL    HW2 1203   1.115   1.618   0.711 -1.4443  2.1524  0.6190
  402SOL     OW 1204   0.056   2.585   2.186  0.4756  0.1847  0.2104
  402SOL    HW1 1205   0.120   2.523   2.237 -0.2896  1.7154 -1.4249
  402SOL    HW2 1206   0.100   2.599   2.098 -3.1176  0.1080  0.1185
  403SOL     OW 1207   0.423   1.353   2.511 -0.0790  0.2270  0.0212
  403SOL    HW1 1208   0.410   1.427   2.582 -0.3422 -0.1748  2.7088
  403SOL    HW2 1209   0.438   1.263   2.557  1.8804  0.2164 -0.9918
  404SOL     OW 1210   2.001   2.308   1.334  0.0341 -0.4335 -0.1383
  404SOL    HW1 1211   2.043   2.375   1.399  1.5374  0.0506  4.0830
  404SOL    HW2 1212   1.972   2.219   1.382 -0.0606 -2.7846 -2.2562
  405SOL     OW 1213   3.091   0.279   2.785 -0.2896 -0.0939 -0.1253
  405SOL    HW1 1214   2.994   0.291   2.773  5.1562  0.2092  0.2416
  405SOL    HW2 1215   0.008   0.209   2.854 -0.9044  1.3424 -0.3373
  406SOL     OW 1216   0.771   0.793   0.349  0.3339 -0.0298 -0.3901
  406SOL    HW1 1217   0.868   0.824   0.355  0.2155 -1.9754 -3.5842
  406SOL    HW2 1218   0.721   0.860   0.288 -0.7602 -3.3316 -3.0394
  407SOL     OW 1219   1.945   2.360   2.591 -0.4208 -0.4551  0.4106
  407SOL    HW1 1220   1.985   2.265   2.605  2.3279  1.1221 -2.2451
  407SOL    HW2 1221   1.957   2.412   2.676  0.7002  1.8916  1.2431
  408SOL     OW 1222   3.003   3.032   0.067  0.3065 -0.3414  0.1414
  408SOL    HW1 1223   2.935   2.959   0.095  0.2815 -0.7765  0.1632
  408SOL    HW2 1224   3.060   3.074   0.146 -0.0096  0.5042  1.4583
  409SOL     OW 1225   2.082   1.524   1.113 -0.0498  0.3561 -0.4115
  409SOL    HW1 1226   2.111   1.550   1.014 -1.2177  1.5649 -3.8210
  409SOL    HW2 1227   2.097   1.426   1.135 -0.8928  1.5309 -1.9190
  410SOL     OW 1228   2.572   2.294   0.244 -0.2346 -0.5914 -0.6205
  410SOL    HW1 1229   2.494   2.330   0.191  0.6406  0.4800 -0.9241
  410SOL    HW2 1230   2.615   2.216   0.197  2.8789 -1.2576 -0.7680
  411SOL     OW 1231   0.142   1.160   0.649 -0.7091 -0.3614 -0.3273
  411SOL    HW1 1232   0.081   1.230   0.679  2.4410 -2.5136  1.7274
  411SOL    HW2 1233   0.118   1.068   0.682  2.3786  0.6913  2.2506
  412SOL     OW 1234   2.004   2.538   0.403 -0.4393  0.1550 -0.5951
  412SOL    HW1 1235   2.090   2.586   0.376  2.2065  0.8345 -3.2613
  412SOL    HW2 1236   2.022   2.436   0.404 -1.1239  2.9163 -0.8924
  413SOL     OW 1237   2.038   0.903   2.258 -0.2410  0.2150  0.0428
  413SOL    HW1 1238   1.954   0.840   2.265  0.2465 -0.9906  0.8929
  413SOL    HW2 1239   2.087   0.883   2.170  1.8595 -0.9967 -2.5293
  414SOL     OW 1240   2.860   0.287   0.286  0.2328 -0.4071  0.2868
  414SOL    HW1 1241   2.881   0.222   0.359 -1.4999  0.1185  0.5970
  414SOL    HW2 1242   2.759   0.280   0.266 -0.6257 -2.5109  0.0723
  415SOL     OW 1243   1.079   1.675   1.320 -0.7707 -1.3065 -0.1899
  415SOL    HW1 1244   1.170   1.644   1.349 -0.2565 -0.0367 -1.0639
  415SOL    HW2 1245   1.015   1.655   1.398 -0.6616  2.8718  1.0749
  416SOL     OW 1246   0.436   2.975   2.754 -0.4075  0.4079  0.3734
  416SOL    HW1 1247   0.411   3.032   2.677  0.1264 -2.0297 -1.0735
  416SOL    HW2 1248   0.408   2.881   2.732  1.0930  1.8714  1.9734
  417SOL     OW 1249   2.576   0.324   0.923 -0.2508  0.0997 -0.4568
  417SOL    HW1 1250   2.535   0.410   0.952 -0.3511 -0.9771 -1.3802
  417SOL    HW2 1251   2.677   0.325   0.912  3.0420 -1.3503 -1.8606
  418SOL     OW 1252   0.145   0.633   2.776  0.4066 -0.3841  0.0690
  418SOL    HW1 1253   0.045   0.655   2.765 -1.6486 -1.8332 -1.0026
  418SOL    HW2 1254   0.170   0.541   2.744 -1.9729  3.1550  1.5682
  419SOL     OW 1255   0.299   1.192   1.580  0.0426  0.4905  0.4551
  419SOL    HW1 1256   0.363   1.197   1.657  1.6594 -0.4890  1.4625
  419SOL    HW2 1257   0.234   1.274   1.576 -3.5335  1.8004 -0.2758
  420SOL     OW 1258   0.611   1.523   0.655 -0.2577 -0.0004 -0.3250
  420SOL    HW1 1259   0.669   1.608   0.647 -0.3001  1.0514 -0.1785
  420SOL    HW2 1260   0.650   1.453   0.717 -1.0726 -0.2775 -1.2156
  421SOL     OW 1261   2.343   2.515   2.753 -0.2997  0.4115 -0.0643
  421SOL    HW1 1262   2.352   2.416   2.722  1.4503  2.3153  1.1738
  421SOL    HW2 1263   2.390   2.579   2.694 -1.1395 -0.3594  2.9925
  422SOL     OW 1264   2.991   0.677   2.723 -0.5075 -0.1859  0.2881
  422SOL    HW1 1265   2.927   0.601   2.706  2.1890  0.4851  0.2081
  422SOL    HW2 1266   2.957   0.756   2.775  2.2858 -1.9666 -3.1950
  423SOL     OW 1267   1.435   2.019   0.847 -0.1960  0.1168  0.6120
  423SOL    HW1 1268   1.483   1.997   0.931 -3.4515 -0.9925 -1.8729
  423SOL    HW2 1269   1.412   1.926   0.800  1.6109 -0.5660 -2.7918
  424SOL     OW 1270   0.507   1.973   1.672 -0.0482 -0.1079 -0.0261
  424SOL    HW1 1271   0.534   2.054   1.612 -0.0548 -1.3020  1.5818
  424SOL    HW2 1272   0.524   2.002   1.772 -2.3135  0.9427 -1.3029
  425SOL     OW 1273   0.018   2.824   2.300 -0.4915 -0.1313  0.1532
  425SOL    HW1 1274   0.027   2.729   2.266 -1.1431 -2.8468 -0.3552
  425SOL    HW2 1275   3.030   2.859   2.298 -0.5624  0.0948 -0.9661
  426SOL     OW 1276   1.688   0.904   0.600 -0.9252  0.2080 -0.3927
  426SOL    HW1 1277   1.651   0.879   0.507  2.9607 -0.2135 -0.7938
  426SOL    HW2 1278   1.614   0.903   0.672  0.1338 -1.6212 -2.1892
  427SOL     OW 1279   0.634   0.929   0.165  0.0501  0.1577  0.2123
  427SOL    HW1 1280   0.548   0.951   0.212 -1.6254 -3.5475 -1.9067
  427SOL    HW2 1281   0.615   0.910   0.066  0.7246  0.7056  0.2733
  428SOL     OW 1282   1.323   1.272   2.984  0.4947 -0.1544  0.4548
  428SOL    HW1 1283   1.381   1.275   3.071  3.2416  0.2698  1.5494
  428SOL    HW2 1284   1.225   1.284   3.004  2.0738  0.9253 -1.0132
  429SOL     OW 1285   2.874   2.559   0.534 -0.1376 -0.2055  0.4177
  429SOL    HW1 1286   2.907   2.584   0.438  1.1859 -1.1488 -0.0677
  429SOL    HW2 1287   2.843   2.648   0.574 -0.9805 -2.4795  1.3955
  430SOL     OW 1288   0.431   2.677   2.473  0.3008  0.4501  0.3942
  430SOL    HW1 1289   0.527   2.656   2.507  1.2035 -1.6850  1.0687
  430SOL    HW2 1290   0.356   2.672   2.541  1.4802 -1.4152 -0.2751
  431SOL     OW 1291   2.834   1.175   0.735  0.3128  0.2285  0.7744
  431SOL    HW1 1292   2.735   1.202   0.756 -1.3898  0.2581  0.7408
  431SOL    HW2 1293   2.859   1.079   0.759 -1.3737 -1.5096 -1.7698
  432SOL     OW 1294   2.083   2.292   2.180  0.0364 -0.4114 -0.3052
  432SOL    HW1 1295   2.133   2.223   2.238 -1.5712  0.1047 -1.5198
  432SOL    HW2 1296   2.085   2.261   2.084 -1.3812 -2.0520  0.0176
  433SOL     OW 1297   1.519   2.495   0.844 -0.2734  0.1756  0.0491
  433SOL    HW1 1298   1.514   2.399   0.805 -0.4192 -1.6525 -0.0995
  433SOL    HW2 1299   1.607   2.542   0.818  0.5959 -0.0995  0.5267
  434SOL     OW 1300   0.551   2.012   1.945 -0.2289 -0.1217  0.0855
  434SOL    HW1 1301   0.549   2.113   1.938  0.0542  1.3719 -1.0449
  434SOL    HW2 1302   0.471   1.982   1.999 -1.3801  1.6138 -1.0397
  435SOL     OW 1303   3.054   0.994   0.081  0.1785 -0.0200  0.3127
  435SOL    HW1 1304   2.982   1.053   0.122  2.9454  1.3166  0.6175
  435SOL    HW2 1305   3.014   0.914   0.036  4.0590 -2.7940 -0.5950
  436SOL     OW 1306   0.268   2.628   2.019 -0.2294  0.2647 -0.2157
  436SOL    HW1 1307   0.247   2.711   1.962 -1.3774 -2.3614 -1.3331
  436SOL    HW2 1308   0.347   2.638   2.083  1.0545 -0.5164  1.7092
  437SOL     OW 1309   1.805   2.888   1.779 -0.4787 -0.5600  0.0371
  437SOL    HW1 1310   1.860   2.867   1.697 -0.6911  0.6088 -0.1950
  437SOL    HW2 1311   1.871   2.872   1.857  0.9904  0.8759  1.1172
  438SOL     OW 1312   0.324   1.744   0.480  0.3922 -0.4345 -0.6636
  438SOL    HW1 1313   0.327   1.748   0.586  0.8210  3.3561  2.6382
  438SOL    HW2 1314   0.325   1.839   0.444 -1.3391  1.1685  0.9580
  439SOL     OW 1315   0.153   0.445   0.810 -0.3328 -0.1897  0.4616
  439SOL    HW1 1316   0.227   0.463   0.741  0.0017  2.3862 -1.0937
  439SOL    HW2 1317   0.185   0.381   0.881  0.4775  3.4704 -1.5038
  440SOL     OW 1318   0.275   2.742   2.701  0.4878  0.1091 -0.0217
  440SOL    HW1 1319   0.259   2.639   2.691 -0.5097 -0.1368 -0.3962
  440SOL    HW2 1320   0.190   2.792   2.680  4.3866  0.2068  2.2286
  441SOL     OW 1321   2.940   0.931   0.788  0.0247 -0.3757  0.6248
  441SOL    HW1 1322   3.038   0.911   0.772 -0.6820  0.3349  3.9824
  441SOL    HW2 1323   2.877   0.857   0.768  2.0668  4.3128  1.2961
  442SOL     OW 1324   1.319   2.297   2.594  0.0871  0.4787 -0.5063
  442SOL    HW1 1325   1.396   2.274   2.529  3.7726  2.9580  0.0711
  442SOL    HW2 1326   1.230   2.244   2.593 -2.1717 -0.9230 -0.4956
  443SOL     OW 1327   0.701   0.469   0.645  0.5316 -0.2365  0.9286
  443SOL    HW1 1328   0.797   0.473   0.676 -1.4345 -0.9725 -2.6851
  443SOL    HW2 1329   0.708   0.483   0.545 -1.0464  1.7788  1.5479
  444SOL     OW 1330   1.501   1.721   2.300 -0.0760 -0.2669  0.2821
  444SOL    HW1 1331   1.451   1.635   2.277 -1.8549 -0.9202 -1.7158
  444SOL    HW2 1332   1.501   1.789   2.220  0.9901  0.5183 -2.9973
  445SOL     OW 1333   3.071   0.572   0.633  0.0165  0.2152  0.2868
  445SOL    HW1 1334   0.025   0.649   0.597  1.0413  0.2817 -1.7322
  445SOL    HW2 1335   0.032   0.508   0.675  0.2452  0.4862 -0.4620
  446SOL     OW 1336   1.992   0.749   1.075  0.6002  0.3752 -0.3192
  446SOL    HW1 1337   1.933   0.758   1.157  1.9099 -3.8755  1.2449
  446SOL    HW2 1338   1.949   0.800   0.997  0.8596  0.8955  5.3516
  447SOL     OW 1339   2.970   1.060   0.402 -0.4143  0.2878 -0.3229
  447SOL    HW1 1340   2.963   0.976   0.347  1.5993 -0.0322 -0.9427
  447SOL    HW2 1341   2.876   1.079   0.435 -0.5178  1.6921 -0.2884
  448SOL     OW 1342   1.961   2.165   1.666  0.4685  0.1048  0.1037
  448SOL    HW1 1343   1.928   2.257   1.692 -2.0906  1.8152 -0.0523
  448SOL    HW2 1344   1.934   2.146   1.570 -0.2003  0.6434  0.0966
  449SOL     OW 1345   0.925   1.490   0.514 -0.0342  0.3054  0.0251
  449SOL    HW1 1346   0.977   1.439   0.588  2.8483 -3.1031  3.2653
  449SOL    HW2 1347   0.850   1.545   0.555  0.5546 -0.0196  0.2095
  450SOL     OW 1348   2.732   2.800   2.160 -0.0362 -0.1643  0.5158
  450SOL    HW1 1349   2.634   2.790   2.184 -2.0014  1.3637  0.4262
  450SOL    HW2 1350   2.743   2.804   2.058  0.3988  1.6188 -2.7307
  451SOL     OW 1351   2.541   1.170   2.944 -0.2346 -0.6083  0.1828
  451SOL    HW1 1352   2.617   1.161   3.007 -0.4914  2.3088 -1.6706
  451SOL    HW2 1353   2.480   1.248   2.983 -2.0696  4.4048  1.9642
  452SOL     OW 1354   1.788   1.002   1.160 -0.4646 -0.1322  0.0226
  452SOL    HW1 1355   1.808   0.931   1.234  2.4994 -0.9469  3.0430
  452SOL    HW2 1356   1.712   1.061   1.186  1.3150 -1.1096 -0.8205
  453SOL     OW 1357   2.134   0.527   1.628 -0.3203  0.3031  0.3778
  453SOL    HW1 1358   2.102   0.622   1.637  3.0410 -3.0306  0.2571
  453SOL    HW2 1359   2.111   0.467   1.706 -0.1177 -0.0005 -1.7699
  454SOL     OW 1360   2.906   1.315   3.005 -0.7440 -0.2020  0.0708
  454SOL    HW1 1361   2.939   1.286   2.914  0.0229 -0.2862  0.6257
  454SOL    HW2 1362   2.849   1.241   3.045  1.0018  0.4841 -0.7524
  455SOL     OW 1363   2.512   1.732   1.432 -0.1823 -0.5655  0.1315
  455SOL    HW1 1364   2.576   1.656   1.404  1.7626  0.8431  2.4836
  455SOL    HW2 1365   2.475   1.786   1.352 -3.0481  1.8360 -0.5811
  456SOL     OW 1366   1.232   2.963   1.713  0.4710 -0.1933  0.6493
  456SOL    HW1 1367   1.221   3.036   1.641 -0.8044  0.9865 -0.9372
  456SOL    HW2 1368   1.328   2.933   1.723 -2.9573 -0.9920  1.3770
  457SOL     OW 1369   1.773   2.728   1.028  0.7283  0.2377  0.1977
  457SOL    HW1 1370   1.784   2.696   1.124 -0.1204 -0.9515 -1.5320
  457SOL    HW2 1371   1.701   2.802   1.018 -1.7937  0.0123 -0.1505
  458SOL     OW 1372   2.861   0.071   0.506 -0.2118  0.0599  0.2383
  458SOL    HW1 1373   2.791   0.040   0.439 -2.7098  1.0391 -2.1318
  458SOL    HW2 1374   2.829   0.074   0.602  0.9374  0.3509 -0.3834
  459SOL     OW 1375   1.529   1.160   0.084 -0.4256  0.1326  0.6798
  459SOL    HW1 1376   1.457   1.125   0.147  0.0413  0.2384  0.3764
  459SOL    HW2 1377   1.562   1.084   0.021 -0.5241 -1.0952 -0.5390
  460SOL     OW 1378   0.234   2.476   2.675 -0.2793 -0.0540  0.0730
  460SOL    HW1 1379   0.176   2.473   2.755  1.6727  1.0629 -1.6267
  460SOL    HW2 1380   0.198   2.406   2.610  0.2351 -0.1742  1.4066
  461SOL     OW 1381   0.707   1.594   0.146  0.4657 -0.0650 -0.0246
  461SOL    HW1 1382   0.800   1.615   0.177  0.1928  0.1049 -0.2418
  461SOL    HW2 1383   0.654   1.677   0.155  1.3959 -4.7654 -1.5381
  462SOL     OW 1384   2.008   1.953   0.779  0.4034  0.3118 -0.3906
  462SOL    HW1 1385   2.063   1.982   0.863  0.2445  1.1615  0.8238
  462SOL    HW2 1386   1.978   1.856   0.795 -0.5265 -0.9364  0.5086
  463SOL     OW 1387   2.910   0.525   0.411 -0.4988 -0.0877 -0.1516
  463SOL    HW1 1388   2.969   0.506   0.491 -2.4314  0.1864 -0.9446
  463SOL    HW2 1389   2.892   0.434   0.367 -1.3937  1.0364  0.2819
  464SOL     OW 1390   0.759   2.253   0.514 -0.0542  0.1345 -0.5705
  464SOL    HW1 1391   0.839   2.227   0.452 -1.3579 -0.0949 -2.7843
  464SOL    HW2 1392   0.688   2.177   0.519 -0.7937 -3.1912 -0.2125
  465SOL     OW 1393   2.284   0.163   1.002 -0.4453  0.0689  0.1257
  465SOL    HW1 1394   2.289   0.083   1.063  0.2617  2.6039 -0.1926
  465SOL    HW2 1395   2.246   0.148   0.903 -2.8059 -3.3685 -0.0844
  466SOL     OW 1396   2.245   0.144   0.473 -0.5193 -0.7030 -0.2530
  466SOL    HW1 1397   2.288   0.057   0.447 -3.8023  0.0327  2.5415
  466SOL    HW2 1398   2.181   0.183   0.405 -0.6007 -1.0958  3.5385
  467SOL     OW 1399   1.261   0.418   2.221  0.4745  0.3547  0.2640
  467SOL    HW1 1400   1.318   0.498   2.233 -1.9210 -0.5902 -1.0012
  467SOL    HW2 1401   1.296   0.359   2.139 -1.2616 -3.4162  0.3365
  468SOL     OW 1402   2.730   0.313   1.890 -0.1508 -0.1301  0.1173
  468SOL    HW1 1403   2.644   0.332   1.830 -0.3167  0.6268 -5.0116
  468SOL    HW2 1404   2.707   0.316   1.992  0.0605  0.4426 -0.0658
  469SOL     OW 1405   0.961   2.198   1.865  0.2778  0.0768  0.4327
  469SOL    HW1 1406   0.943   2.122   1.933  0.7805  1.3446 -0.0394
  469SOL    HW2 1407   1.022   2.167   1.790 -2.1289  1.8944 -1.0130
  470SOL     OW 1408   2.020   1.250   1.887 -0.1196  0.3005 -0.0942
  470SOL    HW1 1409   2.101   1.196   1.845  0.4258 -3.3293 -2.8182
  470SOL    HW2 1410   1.992   1.219   1.981  0.1086  0.5125 -0.8334
  471SOL     OW 1411   2.806   1.562   2.985  0.5240  0.1320 -0.2097
  471SOL    HW1 1412   2.852   1.469   3.002 -3.0593  0.5184 -0.0065
  471SOL    HW2 1413   2.776   1.599   3.077  0.5704  1.9526  1.4397
  472SOL     OW 1414   0.534   2.435   0.467  0.2138  0.3621 -0.0842
  472SOL    HW1 1415   0.473   2.375   0.517  2.2855  0.1347 -0.9422
  472SOL    HW2 1416   0.626   2.385   0.460  0.1771 -3.5014  0.2576
  473SOL     OW 1417   1.213   2.191   2.225  0.1265  0.1573  0.1566
  473SOL    HW1 1418   1.198   2.116   2.159 -0.8726  0.5649  0.5827
  473SOL    HW2 1419   1.302   2.171   2.272 -1.4207  0.3438  0.1189
  474SOL     OW 1420   1.132   0.012   2.619  0.8957 -0.3833 -0.0189
  474SOL    HW1 1421   1.041   0.013   2.671 -3.8183 -1.9267  0.9745
  474SOL    HW2 1422   1.201   3.067   2.674 -1.2612  0.7587 -0.7513
  475SOL     OW 1423   0.986   2.321   0.259 -0.4231  0.3437 -0.5371
  475SOL    HW1 1424   1.035   2.379   0.325 -1.1943 -0.3923 -1.2736
  475SOL    HW2 1425   1.049   2.249   0.221  1.1798 -0.9339 -1.2406
  476SOL     OW 1426   0.525   0.339   1.205 -0.1728 -0.1024  0.0070
  476SOL    HW1 1427   0.539   0.403   1.286  0.7535 -1.1186  1.5132
  476SOL    HW2 1428   0.530   0.382   1.113 -2.5873 -0.4404  0.5907
  477SOL     OW 1429   1.903   2.069   1.403 -0.2080  0.0800  0.2130
  477SOL    HW1 1430   1.908   2.009   1.318  3.1186  0.6788 -1.6728
  477SOL    HW2 1431   1.807   2.064   1.439  1.1448 -0.9421  2.3535
  478SOL     OW 1432   2.883   0.816   3.067 -0.7224 -0.0449  0.0338
  478SOL    HW1 1433   2.825   0.861   0.034 -0.0006 -0.2174 -0.2351
  478SOL    HW2 1434   2.857   0.720   3.057 -1.3166  3.6906 -2.9105
  479SOL     OW 1435   0.677   2.910   0.880  0.1443 -0.4252  0.6714
  479SOL    HW1 1436   0.615   2.969   0.934  0.5120 -1.1581  0.5771
  479SOL    HW2 1437   0.774   2.908   0.908  0.2580 -0.6998  0.4727
  480SOL     OW 1438   2.488   2.636   0.476 -0.1718 -0.1133  0.4258
  480SOL    HW1 1439   2.475   2.535   0.473  3.5343  5.3023  1.5017
  480SOL    HW2 1440   2.538   2.660   0.562  0.2590 -0.1824 -0.3926
  481SOL     OW 1441   2.858   0.488   1.343  0.3450 -0.4547  0.1521
  481SOL    HW1 1442   2.825   0.419   1.280 -0.0884  2.2323  1.6661
  481SOL    HW2 1443   2.914   0.451   1.418 -0.1466  0.1811  1.3147
  482SOL     OW 1444   0.943   2.916   0.990 -0.5259 -0.2235  0.5806
  482SOL    HW1 1445   0.984   2.932   0.894  2.4249 -0.1877 -4.0106
  482SOL    HW2 1446   0.942   3.004   1.044  0.0447  0.8136 -0.9246
  483SOL     OW 1447   0.126   1.427   0.003 -0.5683 -0.1230  0.2247
  483SOL    HW1 1448   0.124   1.460   3.011 -5.5632  0.9236 -1.3077
  483SOL    HW2 1449   0.199   1.482   0.051  1.7687  2.9552 -1.6412
  484SOL     OW 1450   1.678   1.425   1.919  0.0116 -0.6401 -0.3525
  484SOL    HW1 1451   1.668   1.346   1.854  0.6414  2.4929 -2.2878
  484SOL    HW2 1452   1.677   1.390   2.017 -1.8262  0.7454  1.0740
  485SOL     OW 1453   0.374   0.075   2.552  0.1035 -0.3918  0.3500
  485SOL    HW1 1454   0.408   0.142   2.623  0.5000  2.3146  0.5987
  485SOL    HW2 1455   0.276   0.067   2.559  2.0529  2.5794  2.9078
  486SOL     OW 1456   1.589   0.057   0.554 -0.3129 -0.3598  0.1717
  486SOL    HW1 1457   1.651   3.094   0.599  1.9980  0.2742  0.4288
  486SOL    HW2 1458   1.568   0.018   0.462  2.9578 -0.2419  0.7285
  487SOL     OW 1459   1.674   0.314   0.555  0.3836 -0.5316 -0.0638
  487SOL    HW1 1460   1.773   0.314   0.569 -0.7318  2.7251  0.7044
  487SOL    HW2 1461   1.628   0.222   0.549  1.4570 -0.1241  1.1277
  488SOL     OW 1462   2.260   0.904   0.975  0.5623 -0.5033 -0.0115
  488SOL    HW1 1463   2.190   0.840   1.009 -1.6878 -0.1113  1.3171
  488SOL    HW2 1464   2.218   0.993   0.971  0.0953 -3.5650  1.1159
  489SOL     OW 1465   1.188   2.952   1.292  0.7134  0.4601  0.4550
  489SOL    HW1 1466   1.262   2.898   1.249 -1.6779  0.0640 -1.9784
  489SOL    HW2 1467   1.144   3.012   1.225 -1.6019 -0.7484 -1.5191
  490SOL     OW 1468   0.945   0.579   0.741  0.8035  0.5549 -0.2216
  490SOL    HW1 1469   0.928   0.580   0.840  0.2938 -1.3784 -2.7691
  490SOL    HW2 1470   0.920   0.669   0.699  0.4396 -0.7014  2.2367
  491SOL     OW 1471   1.103   2.816   0.324 -0.5192 -0.3041  0.1723
  491SOL    HW1 1472   1.123   2.908   0.363 -1.2171  0.8476 -0.3194
  491SOL    HW2 1473   1.180   2.748   0.330 -0.0556 -1.7540 -1.2075
  492SOL     OW 1474   1.048   1.489   1.757  0.8524 -0.0754 -0.1383
  492SOL    HW1 1475   1.021   1.545   1.839  2.9473  1.8209  1.3417
  492SOL    HW2 1476   1.059   1.387   1.778  1.6003 -0.7989 -1.2933
  493SOL     OW 1477   0.355   1.681   0.219 -0.3379  0.1472 -0.2832
  493SOL    HW1 1478   0.367   1.693   0.318 -1.0421 -0.6293 -0.4231
  493SOL    HW2 1479   0.360   1.584   0.187 -1.9473 -0.0440 -2.6966
  494SOL     OW 1480   1.857   1.801   0.257  0.4740 -0.0416  0.5186
  494SOL    HW1 1481   1.885   1.838   0.350 -3.1846 -0.7584 -0.4007
  494SOL    HW2 1482   1.759   1.815   0.233  1.9414  0.3033  0.4012
  495SOL     OW 1483   0.501   0.993   2.430 -0.0018 -0.0698 -0.5006
  495SOL    HW1 1484   0.404   1.002   2.404  2.6943  2.7747 -1.3534
  495SOL    HW2 1485   0.557   0.992   2.342 -2.1542  1.6571 -2.8844
  496SOL     OW 1486   0.551   3.091   2.370 -0.2623 -0.4076  0.2191
  496SOL    HW1 1487   0.483   0.025   2.438  0.7376  0.2233  2.8830
  496SOL    HW2 1488   0.529   2.991   2.343 -1.7299 -3.1255  0.0450
  497SOL     OW 1489   1.639   1.248   0.486  0.0969 -0.0296 -0.0286
  497SOL    HW1 1490   1.621   1.326   0.420 -0.5315 -0.5476 -1.4799
  497SOL    HW2 1491   1.720   1.192   0.461 -1.5903  3.1198 -1.5881
  498SOL     OW 1492   2.771   2.821   0.173 -0.2328 -0.0072 -0.0333
  498SOL    HW1 1493   2.803   2.738   0.219 -1.6981  1.9931  2.4684
  498SOL    HW2 1494   2.686   2.856   0.214 -0.2681  0.6885 -0.4068
  499SOL     OW 1495   1.945   2.739   0.596 -0.2875 -0.0220  0.0629
  499SOL    HW1 1496   1.985   2.819   0.551 -1.1543 -1.4516 -1.7946
  499SOL    HW2 1497   1.958   2.660   0.530  1.6799  0.6492  0.7649
  500SOL     OW 1498   0.627   0.569   2.888  0.3330 -0.6914  0.1508
  500SOL    HW1 1499   0.536   0.600   2.856  0.5202 -1.9598  0.9023
  500SOL    HW2 1500   0.628   0.467   2.897  0.3118  0.2137 -0.3763
  501SOL     OW 1501   1.507   2.899   1.709 -0.0171 -0.3537  0.0293
  501SOL    HW1 1502   1.608   2.893   1.699  2.5871 -0.6379  2.0763
  501SOL    HW2 1503   1.461   2.807   1.725 -0.6150  2.1630  0.6152
  502SOL     OW 1504   0.189   0.117   2.130  0.2568 -0.1889 -0.6734
  502SOL    HW1 1505   0.201   0.024   2.173 -0.4387  1.5615 -0.8283
  502SOL    HW2 1506   0.188   0.108   2.026 -0.6975 -1.6233 -0.9730
  503SOL     OW 1507   1.804   2.329   1.998  0.2336 -0.0915 -0.7219
  503SOL    HW1 1508   1.830   2.384   2.080 -0.7063  0.0754 -0.2618
  503SOL    HW2 1509   1.825   2.232   2.013  0.0128  1.0381 -1.7683
  504SOL     OW 1510   2.071   0.141   1.639 -0.3748 -0.3592 -0.6653
  504SOL    HW1 1511   2.061   0.149   1.540 -2.1931 -2.9937 -0.7178
  504SOL    HW2 1512   1.990   0.097   1.676 -0.4989 -0.2479 -0.4097
  505SOL     OW 1513   2.762   1.717   1.647 -0.4261  0.1846 -0.5983
  505SOL    HW1 1514   2.842   1.715   1.585 -0.1124 -0.3621  1.3082
  505SOL    HW2 1515   2.680   1.742   1.594  1.8514 -1.1857  0.7736
  506SOL     OW 1516   0.270   1.372   2.277  0.0336 -0.4571  0.8579
  506SOL    HW1 1517   0.317   1.348   2.366 -0.7584  0.7021 -0.3890
  506SOL    HW2 1518   0.225   1.281   2.251 -0.6117  3.5908 -1.5046
  507SOL     OW 1519   0.179   2.843   1.293  0.4972 -0.3640  0.1986
  507SOL    HW1 1520   0.150   2.926   1.248  1.1239 -1.2845  0.7057
  507SOL    HW2 1521   0.193   2.866   1.393  0.3420 -0.2835 -1.6833
  508SOL     OW 1522   1.193   0.609   1.596  0.4231  0.2684 -0.2989
  508SOL    HW1 1523   1.173   0.556   1.506 -0.5140 -1.0550  0.7394
  508SOL    HW2 1524   1.278   0.575   1.629 -3.8785  4.0446 -1.2124
  509SOL     OW 1525   1.882   2.452   1.781  0.0184 -0.1168  0.7531
  509SOL    HW1 1526   1.805   2.503   1.738 -0.2376 -0.3202  0.8710
  509SOL    HW2 1527   1.847   2.417   1.875 -2.8991 -3.4446  1.1516
  510SOL     OW 1528   2.361   1.378   2.981 -0.4302 -0.5232  0.1711
  510SOL    HW1 1529   2.422   1.440   3.035  0.2538 -1.0848 -1.4293
  510SOL    HW2 1530   2.310   1.433   2.911 -0.9865  0.5892  0.3356
  511SOL     OW 1531   0.576   1.556   1.536  0.4602 -0.0817  0.0010
  511SOL    HW1 1532   0.485   1.543   1.490 -2.0306 -0.7913 -0.7485
  511SOL    HW2 1533   0.644   1.504   1.486  1.3564 -0.6878  1.1547
  512SOL     OW 1534   2.622   1.977   0.303  0.1327  0.0771 -0.0117
  512SOL    HW1 1535   2.635   2.047   0.375 -0.8484  0.2558 -0.0220
  512SOL    HW2 1536   2.650   2.009   0.211  3.5487 -2.9647 -2.0869
  513SOL     OW 1537   0.746   1.915   2.266  0.0527 -0.0812  0.6917
  513SOL    HW1 1538   0.819   1.944   2.203  1.2979  0.1657 -0.3056
  513SOL    HW2 1539   0.738   1.816   2.278  1.7438 -0.8287  0.0428
  514SOL     OW 1540   0.125   2.186   2.020  0.0005  0.4261  0.1217
  514SOL    HW1 1541   0.073   2.132   2.090 -0.1466 -0.4067 -0.2303
  514SOL    HW2 1542   0.063   2.205   1.943  0.1626 -1.4985  0.5465
  515SOL     OW 1543   1.902   1.411   1.705  0.6285  0.4162 -0.2248
  515SOL    HW1 1544   1.965   1.372   1.775  0.3905  1.5749  1.6308
  515SOL    HW2 1545   1.807   1.374   1.719 -0.4717 -0.9572 -0.6457
  516SOL     OW 1546   2.224   2.680   0.332 -0.0149 -0.0151 -0.4907
  516SOL    HW1 1547   2.263   2.711   0.244  1.8993 -0.3237  1.2141
  516SOL    HW2 1548   2.306   2.666   0.389 -0.5994 -0.2791 -1.6522
  517SOL     OW 1549   0.925   1.622   0.284  0.5577  0.1230  0.4082
  517SOL    HW1 1550   1.023   1.637   0.257 -0.8884  3.2615 -0.1641
  517SOL    HW2 1551   0.922   1.552   0.360 -2.9290 -0.9923  3.5982
  518SOL     OW 1552   1.906   2.826   1.537 -0.4119  0.4685 -0.4543
  518SOL    HW1 1553   1.849   2.874   1.471 -2.4640 -3.6894  1.2000
  518SOL    HW2 1554   1.994   2.812   1.492 -0.7498 -1.5239  0.6700
  519SOL     OW 1555   2.123   2.623   1.112  0.5764  0.1438 -0.0420
  519SOL    HW1 1556   2.222   2.630   1.139  2.1661  0.7943  0.1905
  519SOL    HW2 1557   2.125   2.564   1.034  0.2785  0.7394  1.6985
  520SOL     OW 1558   2.837   2.178   2.174 -0.1864  0.6522  0.0752
  520SOL    HW1 1559   2.752   2.115   2.168 -4.6029  0.2982 -1.6287
  520SOL    HW2 1560   2.840   2.246   2.100 -3.3362 -1.3053 -1.4406
  521SOL     OW 1561   2.819   1.006   2.519  0.0011  0.8036  0.1229
  521SOL    HW1 1562   2.812   1.062   2.602  0.7680  0.1041  0.6719
  521SOL    HW2 1563   2.725   1.006   2.482 -1.2158  1.6885  0.8885
  522SOL     OW 1564   0.859   0.769   2.453 -0.3072 -0.2950 -0.0969
  522SOL    HW1 1565   0.917   0.693   2.478  1.4089  0.7627 -1.4397
  522SOL    HW2 1566   0.866   0.787   2.352  2.0515 -0.9059  1.7330
  523SOL     OW 1567   0.066   2.060   0.914  0.2544  0.0665 -0.0568
  523SOL    HW1 1568   0.113   1.975   0.950  3.8694  0.0471 -0.8660
  523SOL    HW2 1569   0.078   2.137   0.984 -0.3761 -0.8209  1.4846
  524SOL     OW 1570   2.016   2.693   3.008  0.3832  0.1093  0.2632
  524SOL    HW1 1571   1.980   2.691   0.001 -0.4264 -0.4575  3.9991
  524SOL    HW2 1572   2.041   2.788   2.985 -3.1734  1.3688 -0.5604
  525SOL     OW 1573   2.421   0.597   1.218 -0.1555  0.5371  0.1255
  525SOL    HW1 1574   2.508   0.600   1.277  0.3368 -0.8800  1.3483
  525SOL    HW2 1575   2.393   0.501   1.212 -0.0647 -0.9589 -1.1310
  526SOL     OW 1576   1.082   2.551   0.705 -0.2357  0.3169 -0.7089
  526SOL    HW1 1577   1.010   2.483   0.721  2.0933  2.2446 -0.7014
  526SOL    HW2 1578   1.041   2.644   0.706 -3.8057  1.5358 -0.5492
  527SOL     OW 1579   2.322   2.996   0.447 -0.1035  0.2786 -0.0892
  527SOL    HW1 1580   2.356   2.967   0.538  3.0760  2.7005  2.9199
  527SOL    HW2 1581   2.365   2.939   0.374  1.3414  0.1643 -2.5964
  528SOL     OW 1582   1.627   0.880   0.352 -0.5328 -0.5152 -0.1030
  528SOL    HW1 1583   1.722   0.904   0.313  1.8808  0.0488  0.7440
  528SOL    HW2 1584   1.576   0.829   0.281 -2.0176  0.7639 -1.7649
  529SOL     OW 1585   1.394   1.470   2.279 -0.0702 -0.2112  0.2922
  529SOL    HW1 1586   1.383   1.491   2.380  0.4387  1.2208  1.3931
  529SOL    HW2 1587   1.317   1.414   2.245  1.6328  1.6394  2.1842
  530SOL     OW 1588   2.360   0.274   0.163 -0.6623  0.1392  0.1627
  530SOL    HW1 1589   2.298   0.295   0.242  2.0280 -2.6558  2.0473
  530SOL    HW2 1590   2.302   0.263   0.081  0.9979 -0.5853  1.6350
  531SOL     OW 1591   1.625   0.963   2.998 -0.2492  0.4773 -0.0120
  531SOL    HW1 1592   1.728   0.963   3.008  1.6034  0.9034 -3.1974
  531SOL    HW2 1593   1.594   0.958   2.900 -0.6006 -1.6478 -2.4860
  532SOL     OW 1594   1.601   0.432   0.815 -0.1238 -0.0782 -0.4263
  532SOL    HW1 1595   1.624   0.370   0.737  0.5639 -0.2750 -0.8250
  532SOL    HW2 1596   1.682   0.492   0.826 -0.6146 -0.4347  0.3420
  533SOL     OW 1597   0.407   0.694   2.785 -0.0188 -0.0808 -0.2287
  533SOL    HW1 1598   0.439   0.725   2.694  1.0871 -1.4573  1.6897
  533SOL    HW2 1599   0.304   0.690   2.784  0.9457 -1.1031 -0.9377
  534SOL     OW 1600   1.557   0.357   3.094 -0.0834 -0.3711  0.0647
  534SOL    HW1 1601   1.493   0.290   0.036 -2.6381 -0.2042 -0.1258
  534SOL    HW2 1602   1.568   0.439   0.049  0.3894  0.5584 -0.5867
  535SOL     OW 1603   0.388   2.623   2.952  0.3158  0.7415  0.3248
  535SOL    HW1 1604   0.357   2.529   2.969 -1.5226 -0.6823 -0.5313
  535SOL    HW2 1605   0.358   2.660   2.863  2.0630 -1.5451 -0.9904
  536SOL     OW 1606   0.487   3.016   0.385 -0.1343 -0.5305  0.2262
  536SOL    HW1 1607   0.560   3.070   0.425  2.2826 -0.3408 -0.2495
  536SOL    HW2 1608   0.519   2.920   0.370 -0.2060 -0.8848 -0.7488
  537SOL     OW 1609   1.582   0.558   0.175 -0.2377 -0.0045 -0.0932
  537SOL    HW1 1610   1.510   0.623   0.147 -1.2161  1.9284  0.9448
  537SOL    HW2 1611   1.580   0.546   0.278 -0.2171 -1.2224 -3.1648
  538SOL     OW 1612   2.692   2.089   0.065 -0.2041 -0.1595  0.4130
  538SOL    HW1 1613   2.782   2.055   0.072 -3.1676  0.3530  1.7335
  538SOL    HW2 1614   2.643   2.041   3.094  2.9016 -2.3279  1.1576
  539SOL     OW 1615   2.257   2.062   3.048  0.3893  0.4887 -0.0574
  539SOL    HW1 1616   2.212   1.970   3.047 -1.1960 -5.1758 -1.0351
  539SOL    HW2 1617   2.270   2.086   0.040  1.5768  2.7674 -0.6182
  540SOL     OW 1618   0.875   2.643   1.823 -0.2448  0.0047 -0.2715
  540SOL    HW1 1619   0.918   2.591   1.903 -1.2617 -0.8519  0.8800
  540SOL    HW2 1620   0.780   2.615   1.819  3.4888 -1.6991  0.8785
  541SOL     OW 1621   2.573   0.131   2.100 -0.2883  0.3283 -0.2369
  541SOL    HW1 1622   2.592   0.225   2.133  0.8764  1.7130 -1.9049
  541SOL    HW2 1623   2.497   0.127   2.031  1.3292 -0.6842 -0.9884
  542SOL     OW 1624   0.156   0.901   2.681  0.1519 -0.0018 -0.2847
  542SOL    HW1 1625   0.190   0.941   2.770 -1.2436  2.1246  1.6784
  542SOL    HW2 1626   0.150   0.800   2.695 -1.1378  3.3564  1.6344
  543SOL     OW 1627   0.177   0.774   1.016 -0.0951 -0.5083 -0.4741
  543SOL    HW1 1628   0.265   0.732   0.990  0.9995  2.3341 -1.0668
  543SOL    HW2 1629   0.103   0.707   1.006 -1.5213  1.2021 -1.4471
  544SOL     OW 1630   2.631   0.662   1.390 -0.1961  0.3133 -0.0890
  544SOL    HW1 1631   2.712   0.598   1.398 -2.9000 -2.9575  0.1997
  544SOL    HW2 1632   2.604   0.704   1.481 -0.1980  0.8140  1.2602
  545SOL     OW 1633   1.391   2.105   0.538 -0.6851 -0.1342 -0.4162
  545SOL    HW1 1634   1.291   2.100   0.508 -0.3794 -1.4287 -1.2968
  545SOL    HW2 1635   1.403   2.158   0.624  0.3491  1.1067 -2.1057
  546SOL     OW 1636   2.312   2.840   1.434  1.0580 -0.1365 -0.0757
  546SOL    HW1 1637   2.227   2.786   1.416  1.0797 -0.0357  1.1274
  546SOL    HW2 1638   2.388   2.821   1.366  0.0642  0.4335 -0.4801
  547SOL     OW 1639   0.500   2.289   2.312  0.4786 -0.3834 -0.4055
  547SOL    HW1 1640   0.518   2.194   2.290 -1.4560  2.8667  1.0678
  547SOL    HW2 1641   0.414   2.319   2.268 -2.6148 -2.8223 -1.7738
  548SOL     OW 1642   1.332   0.525   2.875 -0.3682  0.2709  0.0447
  548SOL    HW1 1643   1.314   0.481   2.964  0.5428  2.2590 -1.7191
  548SOL    HW2 1644   1.245   0.524   2.825  0.4129  1.0901 -0.7804
  549SOL     OW 1645   2.767   0.924   0.176  0.3302 -0.4552 -0.5339
  549SOL    HW1 1646   2.756   0.825   0.199 -1.3777  0.2725 -0.1326
  549SOL    HW2 1647   2.764   0.971   0.262  2.1126  0.7032 -3.3723
  550SOL     OW 1648   2.134   1.559   0.628 -0.1352 -0.8692 -0.7906
  550SOL    HW1 1649   2.156   1.611   0.547  0.5192  0.2943  0.5044
  550SOL    HW2 1650   2.076   1.482   0.602  1.8902  1.1790 -0.0944
  551SOL     OW 1651   1.244   0.172   0.976  0.3111 -0.0575 -0.0823
  551SOL    HW1 1652   1.327   0.209   1.020 -1.0986  1.0060  0.1492
  551SOL    HW2 1653   1.262   0.138   0.883  0.6111  0.9496  0.7111
  552SOL     OW 1654   2.404   2.887   2.197  0.0767 -0.6009 -0.6849
  552SOL    HW1 1655   2.347   2.819   2.241 -0.3600  0.6129  0.1261
  552SOL    HW2 1656   2.427   2.957   2.264 -0.9509 -2.5703  0.0774
  553SOL     OW 1657   0.443   2.829   2.270  0.0084 -0.1856 -0.0165
  553SOL    HW1 1658   0.522   2.807   2.210  0.9374  0.1759  1.2165
  553SOL    HW2 1659   0.440   2.768   2.351  0.3883 -0.1120 -2.6535
  554SOL     OW 1660   0.504   2.989   1.117  0.0280 -0.2657 -0.1639
  554SOL    HW1 1661   0.486   3.064   1.181 -0.5710 -0.8664  0.5436
  554SOL    HW2 1662   0.579   2.931   1.148  2.6069  0.8493  0.1508
  555SOL     OW 1663   2.607   2.041   2.119  0.6725  0.2748 -0.0653
  555SOL    HW1 1664   2.542   2.017   2.045 -1.9276 -1.8864 -0.0926
  555SOL    HW2 1665   2.568   2.051   2.212  1.0100  2.6426 -2.7768
  556SOL     OW 1666   1.027   0.251   0.057 -0.0057 -0.2172  0.0288
  556SOL    HW1 1667   0.945   0.263   0.113 -0.3966 -1.9573 -1.6664
  556SOL    HW2 1668   1.003   0.286   3.070 -0.9806 -0.7563  0.6911
  557SOL     OW 1669   0.254   1.802   2.354 -0.2559  0.0477 -0.4735
  557SOL    HW1 1670   0.249   1.890   2.299 -1.5239  0.1338  0.4036
  557SOL    HW2 1671   0.224   1.724   2.299  0.8823  1.4524 -0.9717
  558SOL     OW 1672   2.223   0.729   2.930 -0.5816 -0.0371 -0.0397
  558SOL    HW1 1673   2.237   0.812   2.868 -0.3174 -3.6722  0.0685
  558SOL    HW2 1674   2.313   0.698   2.956 -0.5936  0.1894 -1.0004
  559SOL     OW 1675   2.421   1.752   1.682  0.0425  0.6251 -0.0183
  559SOL    HW1 1676   2.432   1.741   1.581 -2.6375 -1.9696  0.7646
  559SOL    HW2 1677   2.324   1.731   1.701 -2.4460 -5.0625  0.3859
  560SOL     OW 1678   2.158   0.878   2.008  0.3386 -0.0392  0.4915
  560SOL    HW1 1679   2.240   0.818   2.008  1.7219  0.8958  1.9767
  560SOL    HW2 1680   2.174   0.968   1.969  0.8504 -0.9816 -0.0265
  561SOL     OW 1681   0.092   0.029   2.631 -0.2612 -0.4529 -0.7396
  561SOL    HW1 1682   0.031   0.085   2.568  1.1991 -0.4031 -1.3627
  561SOL    HW2 1683   0.099   0.071   2.722  0.1769  1.0281 -0.2200
  562SOL     OW 1684   1.222   1.276   1.316  0.5095 -0.2833 -0.2310
  562SOL    HW1 1685   1.260   1.368   1.347  1.7873  0.9788 -1.7481
  562SOL    HW2 1686   1.118   1.268   1.330 -1.3321 -1.4630 -1.2637
  563SOL     OW 1687   1.023   0.278   2.887 -0.8304  0.0910 -0.0878
  563SOL    HW1 1688   1.105   0.216   2.882  0.9761  0.8643 -4.2976
  563SOL    HW2 1689   1.026   0.359   2.823 -1.0946  1.0630 -0.0876
  564SOL     OW 1690   2.909   2.098   0.829  0.3478 -0.4877  0.5268
  564SOL    HW1 1691   3.010   2.087   0.831  0.5217 -1.6374 -0.3691
  564SOL    HW2 1692   2.886   2.199   0.834 -1.8035  1.5404  0.7462
  565SOL     OW 1693   0.513   1.878   1.228 -0.1287 -0.7860 -0.2207
  565SOL    HW1 1694   0.453   1.851   1.303  0.7572 -0.3887  0.0723
  565SOL    HW2 1695   0.546   1.976   1.246  0.7687  1.0643  1.3252
  566SOL     OW 1696   1.438   2.580   2.266 -0.5343  0.0647  0.3298
  566SOL    HW1 1697   1.412   2.613   2.171  2.3235 -0.0302  0.4090
  566SOL    HW2 1698   1.384   2.623   2.340 -0.1150  0.2664 -1.6206
  567SOL     OW 1699   2.399   2.900   0.684  0.0104 -0.3064  0.0520
  567SOL    HW1 1700   2.371   2.969   0.752  2.1616 -0.0588 -3.7458
  567SOL    HW2 1701   2.462   2.830   0.729  1.1662 -0.7711  2.3051
  568SOL     OW 1702   1.605   1.270   0.777 -0.2056  0.5663  0.0163
  568SOL    HW1 1703   1.516   1.255   0.820  3.6199 -0.6466  0.2785
  568SOL    HW2 1704   1.588   1.246   0.678 -0.3282  2.5000 -0.5574
  569SOL     OW 1705   2.997   1.556   2.775  0.2287 -0.2720  0.1277
  569SOL    HW1 1706   2.931   1.589   2.849 -1.4689  0.3385  1.3173
  569SOL    HW2 1707   3.017   1.457   2.790 -0.1666  0.7920 -0.9063
  570SOL     OW 1708   0.009   0.070   1.651 -0.4668  0.5193  0.3586
  570SOL    HW1 1709   0.038   0.128   1.575 -0.5158 -0.0487  1.2117
  570SOL    HW2 1710   3.081   3.082   1.630  0.0521 -0.2382  0.9543
  571SOL     OW 1711   0.417   0.165   1.718  0.2304  0.3332 -0.2891
  571SOL    HW1 1712   0.505   0.163   1.760 -1.9420 -0.6424 -0.0633
  571SOL    HW2 1713   0.383   0.262   1.716  1.9800 -0.6096  0.6553
  572SOL     OW 1714   2.934   2.684   1.441 -0.4317 -0.3494 -0.6896
  572SOL    HW1 1715   2.979   2.616   1.379  0.5580 -1.5347 -0.9896
  572SOL    HW2 1716   2.897   2.643   1.530 -0.4392 -0.0671  0.4364
  573SOL     OW 1717   0.914   0.550   0.059  0.0574  0.5085 -0.3441
  573SOL    HW1 1718   0.899   0.570   3.064 -2.1458 -0.9788  0.3258
  573SOL    HW2 1719   0.845   0.486   0.101 -1.2793  1.5320  1.3365
  574SOL     OW 1720   2.323   3.058   0.026  0.7381 -0.4906 -0.5560
  574SOL    HW1 1721   2.283   0.044   0.006  2.8214 -1.9660  2.1613
  574SOL    HW2 1722   2.406   3.039   3.073 -1.8902  1.2819  1.9247
  575SOL     OW 1723   1.500   2.583   1.287 -0.1768  0.0465 -0.0226
  575SOL    HW1 1724   1.471   2.566   1.386  0.3715  0.8543 -0.1954
  575SOL    HW2 1725   1.479   2.504   1.226 -0.1074 -2.0874 -0.2658
  576SOL     OW 1726   1.008   0.031   1.130 -0.3707 -0.2934 -0.3970
  576SOL    HW1 1727   1.037   0.083   1.047 -0.1614  0.1406 -0.1367
  576SOL    HW2 1728   0.913   0.055   1.157  0.7834  0.9404 -0.4736
  577SOL     OW 1729   2.324   1.313   0.989 -0.1540 -0.0976 -0.0491
  577SOL    HW1 1730   2.316   1.409   0.963  1.3186 -2.1645  0.8482
  577SOL    HW2 1731   2.233   1.270   0.973 -0.1334  1.9828 -0.8040
  578SOL     OW 1732   1.611   0.550   0.442  0.1439 -0.3629  0.3955
  578SOL    HW1 1733   1.633   0.468   0.502  1.1367 -0.6270  1.9109
  578SOL    HW2 1734   1.683   0.619   0.454 -0.9400 -0.7110  1.1500
  579SOL     OW 1735   1.946   0.679   2.875 -0.0571  0.4196  0.4564
  579SOL    HW1 1736   2.047   0.687   2.869  2.3279 -0.6149 -0.2076
  579SOL    HW2 1737   1.921   0.598   2.933  1.2258  0.1448 -0.0507
  580SOL     OW 1738   1.784   0.815   2.301 -0.5514  0.1672 -0.0195
  580SOL    HW1 1739   1.785   0.738   2.367 -0.1737 -0.0236 -0.0667
  580SOL    HW2 1740   1.699   0.825   2.246 -0.5762 -0.4187 -0.4588
  581SOL     OW 1741   0.381   0.621   0.906 -0.4170  0.1373  0.1235
  581SOL    HW1 1742   0.479   0.613   0.934  0.5456 -2.1087  0.0910
  581SOL    HW2 1743   0.367   0.586   0.810  0.2143  1.4211  0.8339
  582SOL     OW 1744   2.889   0.087   1.863  0.1758 -0.2913  0.0916
  582SOL    HW1 1745   2.952   0.079   1.784  0.6586  0.3379 -3.0790
  582SOL    HW2 1746   2.830   0.166   1.843 -1.0540 -2.1711  0.1029
  583SOL     OW 1747   0.568   0.674   2.240 -0.2762 -0.6906  0.0242
  583SOL    HW1 1748   0.489   0.664   2.309 -1.0398  0.6013  0.4575
  583SOL    HW2 1749   0.628   0.592   2.247  1.2198 -0.0379 -0.1993
  584SOL     OW 1750   1.588   2.102   2.911  0.3562  0.2884 -0.0967
  584SOL    HW1 1751   1.632   2.094   2.821  1.5604 -0.8172 -0.2276
  584SOL    HW2 1752   1.609   2.193   2.950  0.3094  1.2262  0.1049
  585SOL     OW 1753   0.349   2.336   2.959  0.1162  0.0634 -0.3054
  585SOL    HW1 1754   0.335   2.247   2.907 -0.0886 -1.6115 -0.4882
  585SOL    HW2 1755   0.438   2.339   3.005  0.9512 -0.0564 -1.7722
  586SOL     OW 1756   1.930   2.101   2.728  0.1287 -0.5614 -0.1247
  586SOL    HW1 1757   1.980   2.123   2.816  2.0131  2.0248  1.8542
  586SOL    HW2 1758   1.983   2.046   2.658 -0.8514 -0.1754 -0.0667
  587SOL     OW 1759   2.498   1.984   2.989  0.5738 -0.2295  0.2493
  587SOL    HW1 1760   2.402   2.007   3.016  0.9564 -1.5071  0.9141
  587SOL    HW2 1761   2.492   1.894   2.942 -1.3639  0.8683 -0.9073
  588SOL     OW 1762   3.095   0.588   0.968  0.6053  0.3894  0.1687
  588SOL    HW1 1763   2.997   0.592   0.933  1.5207 -1.5706 -2.4256
  588SOL    HW2 1764   0.040   0.520   0.911 -0.7985 -2.0892 -0.3671
  589SOL     OW 1765   0.944   0.419   0.430  0.0501 -0.4883  0.6086
  589SOL    HW1 1766   0.845   0.445   0.424  0.5478  1.5833  1.1262
  589SOL    HW2 1767   0.996   0.498   0.395 -1.4466 -1.5311  0.4113
  590SOL     OW 1768   2.033   2.214   0.391  0.2529  0.2226  0.0246
  590SOL    HW1 1769   1.960   2.224   0.318 -2.0658  2.5848 -0.6342
  590SOL    HW2 1770   1.993   2.196   0.487 -2.3209  1.9581  2.0612
  591SOL     OW 1771   0.357   2.291   1.112 -0.3543 -0.0319  0.1714
  591SOL    HW1 1772   0.262   2.317   1.122 -1.0820  1.9784  2.9075
  591SOL    HW2 1773   0.382   2.304   1.011 -0.0313 -0.9022  1.1875
  592SOL     OW 1774   1.453   0.692   1.272 -0.3892 -0.2913 -0.5022
  592SOL    HW1 1775   1.399   0.639   1.207  2.2970  0.1424 -2.9848
  592SOL    HW2 1776   1.399   0.752   1.333  0.3655 -0.6629 -1.1181
  593SOL     OW 1777   0.914   1.908   1.302 -0.3270  0.7991 -0.1899
  593SOL    HW1 1778   0.973   1.825   1.319  1.2019 -0.4622  1.0790
  593SOL    HW2 1779   0.876   1.913   1.209 -0.0737  0.3375  1.3135
  594SOL     OW 1780   1.089   2.083   0.212 -0.0537  0.1054  0.8235
  594SOL    HW1 1781   1.165   2.043   0.160  3.1274 -1.4341 -2.3591
  594SOL    HW2 1782   1.006   2.024   0.208 -1.7723 -0.1184  1.1769
  595SOL     OW 1783   1.734   0.595   1.539 -0.3742 -0.1038 -0.1227
  595SOL    HW1 1784   1.780   0.554   1.452  3.1607 -1.4038 -3.9877
  595SOL    HW2 1785   1.804   0.603   1.613 -0.1315 -0.5515 -0.4008
  596SOL     OW 1786   2.774   0.758   1.857 -0.1858  0.4185  0.3622
  596SOL    HW1 1787   2.812   0.817   1.932 -0.4538 -0.8562 -1.3972
  596SOL    HW2 1788   2.838   0.766   1.779  2.0418  3.1227 -1.2349
  597SOL     OW 1789   0.978   2.551   2.064 -0.2834 -0.2093  0.0351
  597SOL    HW1 1790   0.893   2.509   2.096  0.0756  0.5038 -0.0168
  597SOL    HW2 1791   0.999   2.637   2.116 -0.6340  1.4187  0.8422
  598SOL     OW 1792   2.417   1.464   1.762  0.7411  0.1103 -0.2410
  598SOL    HW1 1793   2.432   1.556   1.803  0.0797  3.6882  2.9336
  598SOL    HW2 1794   2.506   1.415   1.751  3.6644  0.5691  1.2492
  599SOL     OW 1795   0.724   2.805   0.194  0.2091  0.0004 -0.8457
  599SOL    HW1 1796   0.632   2.776   0.165  1.3636  0.6927  2.3745
  599SOL    HW2 1797   0.758   2.875   0.125 -3.4869  0.6401  0.8796
  600SOL     OW 1798   3.039   2.462   0.004 -0.2917  0.3977  0.6673
  600SOL    HW1 1799   3.036   2.546   0.059  1.3864  0.2263 -1.8625
  600SOL    HW2 1800   2.955   2.444   3.055 -1.1825  2.4537  1.7456
  601SOL     OW 1801   0.423   0.677   1.330 -0.6250  0.3720  0.1932
  601SOL    HW1 1802   0.337   0.628   1.330  0.5314  0.7289 -3.8629
  601SOL    HW2 1803   0.419   0.775   1.356  0.3523  1.1973 -0.8760
  602SOL     OW 1804   0.491   0.215   0.725 -0.3000 -0.2602 -0.8693
  602SOL    HW1 1805   0.571   0.231   0.788 -1.8236 -0.2559  0.6071
  602SOL    HW2 1806   0.454   0.306   0.692  1.0623 -1.0231  0.5718
  603SOL     OW 1807   0.413   0.260   2.757  0.6050  0.0189 -1.1586
  603SOL    HW1 1808   0.339   0.334   2.747 -2.4979  1.0393  0.5936
  603SOL    HW2 1809   0.478   0.280   2.833 -0.3959  2.3718 -0.6506
  604SOL     OW 1810   0.933   2.657   1.557  0.6456 -0.1130 -0.0596
  604SOL    HW1 1811   0.938   2.627   1.654 -2.4324  0.1677  0.9050
  604SOL    HW2 1812   0.885   2.581   1.504 -2.5225 -2.5119 -0.5087
  605SOL     OW 1813   1.439   1.158   2.007  0.2759 -0.3060 -0.2608
  605SOL    HW1 1814   1.426   1.254   2.039  0.3787  1.2647 -0.9591
  605SOL    HW2 1815   1.425   1.150   1.904 -1.5323 -1.7353 -0.6463
  606SOL     OW 1816   2.106   2.932   2.951  0.2520  0.4857  0.0715
  606SOL    HW1 1817   2.060   3.009   2.904  1.7767 -0.8533  0.7630
  606SOL    HW2 1818   2.196   2.963   2.988 -1.8938 -0.5325 -0.4132
  607SOL     OW 1819   1.066   0.208   1.629  0.0592 -0.4419  0.0331
  607SOL    HW1 1820   1.110   0.278   1.691 -1.1029 -1.7821  0.8682
  607SOL    HW2 1821   1.134   0.164   1.570  0.5377  2.6479  0.4304
  608SOL     OW 1822   0.124   1.956   2.595 -0.2024  0.1490 -0.0148
  608SOL    HW1 1823   0.212   1.999   2.559  2.1543  0.6573  0.6053
  608SOL    HW2 1824   0.142   1.874   2.650 -0.6673  1.1982  0.0157
  609SOL     OW 1825   1.032   1.197   0.413 -0.6017 -0.0777  0.3749
  609SOL    HW1 1826   1.056   1.101   0.389  0.4486  3.4864  0.1760
  609SOL    HW2 1827   1.067   1.255   0.337  1.3337  0.6187  0.9469
  610SOL     OW 1828   0.208   0.222   0.984  0.3052  0.0737 -0.0500
  610SOL    HW1 1829   0.254   0.132   0.981 -1.5954 -1.8054  1.4269
  610SOL    HW2 1830   0.229   0.270   1.072  2.3618 -1.0254 -2.1278
  611SOL     OW 1831   1.244   1.145   0.632  0.3005  0.5244 -0.5256
  611SOL    HW1 1832   1.151   1.121   0.601  0.6603  1.1243 -0.6549
  611SOL    HW2 1833   1.317   1.087   0.591 -0.6326 -1.4147  0.9901
  612SOL     OW 1834   2.078   1.629   0.119 -0.2002  0.0263  0.0300
  612SOL    HW1 1835   2.028   1.679   0.196 -1.3778  0.4554  1.5057
  612SOL    HW2 1836   2.029   1.542   0.106 -1.4647 -0.3580 -3.3339
  613SOL     OW 1837   1.687   1.382   0.044 -0.3279  0.3617  0.0687
  613SOL    HW1 1838   1.675   1.395   3.047  0.3672  0.5280 -0.5909
  613SOL    HW2 1839   1.627   1.306   0.080 -2.6212 -1.4658 -1.5790
  614SOL     OW 1840   2.803   0.294   2.492 -0.0071  0.2440  0.8015
  614SOL    HW1 1841   2.835   0.345   2.410 -2.0370 -0.8964 -0.4623
  614SOL    HW2 1842   2.822   0.195   2.489 -1.2327  1.8208 -2.1844
  615SOL     OW 1843   0.786   1.717   0.626  0.0497 -0.0829  0.6597
  615SOL    HW1 1844   0.883   1.725   0.657 -1.4240 -1.2527 -0.4362
  615SOL    HW2 1845   0.746   1.810   0.635 -0.8508  1.3026  0.0223
  616SOL     OW 1846   1.562   0.897   2.738 -0.3966  0.0118  0.3086
  616SOL    HW1 1847   1.553   0.948   2.650  0.3626  2.0053  1.2642
  616SOL    HW2 1848   1.476   0.837   2.755 -1.3054  0.6287  0.2329
  617SOL     OW 1849   1.319   0.269   0.331  0.3496 -0.5300 -0.0534
  617SOL    HW1 1850   1.328   0.367   0.357 -0.1426  0.6949  1.6577
  617SOL    HW2 1851   1.242   0.222   0.378 -0.0570 -0.3305 -1.4453
  618SOL     OW 1852   2.761   1.929   2.341 -0.3764  0.3654 -0.0708
  618SOL    HW1 1853   2.695   2.006   2.352 -1.6827  0.8552 -1.0652
  618SOL    HW2 1854   2.803   1.891   2.424  0.4204  2.0313  0.5038
  619SOL     OW 1855   2.348   1.788   0.853 -0.2079  0.2093 -0.0676
  619SOL    HW1 1856   2.284   1.845   0.913  1.5732  1.8944 -2.5203
  619SOL    HW2 1857   2.360   1.825   0.758 -0.2997 -1.2526 -1.6969
  620SOL     OW 1858   2.428   3.069   1.500 -0.5567  0.4532 -0.7297
  620SOL    HW1 1859   2.387   2.971   1.484 -1.1775 -2.2296 -1.0180
  620SOL    HW2 1860   2.526   3.061   1.512 -3.1885 -0.6223 -2.5432
  621SOL     OW 1861   2.879   1.869   0.669 -0.4662  0.7766 -0.0893
  621SOL    HW1 1862   2.958   1.807   0.645  0.4755  1.6668 -0.2434
  621SOL    HW2 1863   2.906   1.949   0.724 -0.5276 -0.7052 -1.3837
  622SOL     OW 1864   0.615   1.676   2.300 -0.0460 -0.5664 -0.3672
  622SOL    HW1 1865   0.562   1.720   2.379 -0.4418  0.1024 -0.0146
  622SOL    HW2 1866   0.646   1.588   2.335 -0.9923  1.9376  1.5396
  623SOL     OW 1867   2.773   2.833   2.740 -1.2509  0.1463  0.4066
  623SOL    HW1 1868   2.870   2.811   2.749 -0.7769  1.7884 -1.8544
  623SOL    HW2 1869   2.729   2.813   2.830  0.3619  0.5919 -0.2443
  624SOL     OW 1870   0.894   1.906   0.212  0.0099  0.2459  0.2790
  624SOL    HW1 1871   0.904   1.817   0.262 -0.1135 -3.7912 -0.3681
  624SOL    HW2 1872   0.805   1.950   0.233 -0.5379 -2.6117  0.6033
  625SOL     OW 1873   0.491   2.038   2.267  0.2801 -0.3557  0.5538
  625SOL    HW1 1874   0.573   1.986   2.247 -3.8835  0.3499 -2.4156
  625SOL    HW2 1875   0.421   2.023   2.198  2.2794  0.7256  0.4583
  626SOL     OW 1876   0.173   2.398   0.428 -0.8396  0.1320 -0.0543
  626SOL    HW1 1877   0.085   2.356   0.469 -1.2515 -3.1197  0.2486
  626SOL    HW2 1878   0.240   2.332   0.403 -0.4105  2.6463 -1.1846
  627SOL     OW 1879   0.918   1.362   2.786 -0.5984  0.0692  0.7567
  627SOL    HW1 1880   0.833   1.405   2.761  2.6000  1.5076 -0.4472
  627SOL    HW2 1881   0.986   1.360   2.710 -1.1343  2.5475 -1.4997
  628SOL     OW 1882   1.546   2.239   0.739  0.1021 -0.2607 -0.6625
  628SOL    HW1 1883   1.488   2.184   0.801  1.2766 -0.7576 -2.2664
  628SOL    HW2 1884   1.595   2.170   0.686  2.8632  0.3042 -2.4474
  629SOL     OW 1885   0.800   0.213   1.584 -0.4112 -0.8617  0.2522
  629SOL    HW1 1886   0.752   0.122   1.603  0.0722 -2.6435  1.3948
  629SOL    HW2 1887   0.900   0.214   1.618  0.3839 -0.2339  0.8216
  630SOL     OW 1888   2.570   0.336   1.657 -0.1717  0.2475  0.0231
  630SOL    HW1 1889   2.502   0.265   1.627 -0.8169 -3.2178 -1.3857
  630SOL    HW2 1890   2.517   0.424   1.657  1.2999 -2.2962 -0.9552
  631SOL     OW 1891   1.473   0.301   1.044  0.0411  0.1912  0.2710
  631SOL    HW1 1892   1.510   0.319   0.953  0.0285  1.9582  3.5500
  631SOL    HW2 1893   1.509   0.369   1.111 -0.8170  1.0260 -0.0175
  632SOL     OW 1894   2.523   0.764   1.969 -0.6290  0.2360 -0.0557
  632SOL    HW1 1895   2.503   0.694   2.047  0.9212 -0.6977  0.8672
  632SOL    HW2 1896   2.618   0.751   1.930  0.7896 -0.2765 -1.7768
  633SOL     OW 1897   1.265   1.099   2.790 -0.5572  0.5032  0.3704
  633SOL    HW1 1898   1.297   1.168   2.863  1.0330  2.8629  0.5396
  633SOL    HW2 1899   1.270   1.135   2.693  1.8240  1.5768 -0.4820
  634SOL     OW 1900   0.531   2.331   0.059 -0.6986  0.6157  0.0574
  634SOL    HW1 1901   0.520   2.409   0.124 -3.3089  0.9034  1.7333
  634SOL    HW2 1902   0.630   2.304   0.064  2.0608  0.6357  2.0805
  635SOL     OW 1903   2.838   1.565   1.850 -0.1963  0.0690  0.2678
  635SOL    HW1 1904   2.797   1.640   1.790  2.8704  0.7752 -0.4824
  635SOL    HW2 1905   2.781   1.547   1.933  0.6274  1.8954 -0.2141
  636SOL     OW 1906   0.111   1.788   0.178  0.4276  0.3287  0.5038
  636SOL    HW1 1907   0.066   1.703   0.156  0.0232  0.4243  0.3000
  636SOL    HW2 1908   0.212   1.776   0.185  0.0135  0.0392 -0.6172
  637SOL     OW 1909   3.039   2.345   0.546  0.3445 -0.5275  0.4028
  637SOL    HW1 1910   2.984   2.272   0.503  0.1636 -0.3745 -2.0001
  637SOL    HW2 1911   2.979   2.430   0.562  1.2018  3.0125  1.0403
  638SOL     OW 1912   2.512   2.849   0.317 -0.4439 -0.2257 -0.2929
  638SOL    HW1 1913   2.500   2.767   0.382 -0.0960  1.0934  1.9713
  638SOL    HW2 1914   2.460   2.836   0.230 -0.5549 -2.0829  1.1130
  639SOL     OW 1915   1.066   0.623   0.298  0.4168  0.0401  0.3461
  639SOL    HW1 1916   1.165   0.633   0.287 -0.9810  3.7304 -0.7395
  639SOL    HW2 1917   1.015   0.584   0.210 -3.1668 -0.7567 -1.5423
  640SOL     OW 1918   2.375   2.158   1.410 -0.0251 -0.1159 -0.1706
  640SOL    HW1 1919   2.370   2.091   1.490  3.3182 -1.9665  0.2664
  640SOL    HW2 1920   2.406   2.249   1.441 -0.4593 -0.2007  2.0237
  641SOL     OW 1921   2.900   3.079   1.199  0.2395  0.1318 -0.2984
  641SOL    HW1 1922   2.891   2.977   1.200  0.9899  1.5981  2.6654
  641SOL    HW2 1923   2.993   3.095   1.228 -0.6768 -1.9127 -2.4236
  642SOL     OW 1924   1.589   0.845   1.601 -0.2874  0.0330  0.6692
  642SOL    HW1 1925   1.643   0.763   1.571 -0.1946  1.9396  2.8108
  642SOL    HW2 1926   1.572   0.908   1.521  2.8623  3.1905 -0.9142
  643SOL     OW 1927   0.908   1.970   2.022 -0.3571  0.2297  0.4344
  643SOL    HW1 1928   1.010   1.954   2.036  0.2368 -0.5326 -2.8388
  643SOL    HW2 1929   0.863   1.895   1.964  0.9131 -0.2815 -0.9465
  644SOL     OW 1930   1.855   0.136   2.028 -0.0902  0.6855  0.2258
  644SOL    HW1 1931   1.781   0.075   2.065  2.3898  0.6451  1.0876
  644SOL    HW2 1932   1.821   0.232   2.025 -0.9199 -2.1087  0.4349
  645SOL     OW 1933   1.654   1.243   1.709 -0.6311  1.0047  0.0911
  645SOL    HW1 1934   1.566   1.194   1.728 -2.1234 -1.0177  1.6111
  645SOL    HW2 1935   1.710   1.191   1.635  2.8586 -2.0939  1.9961
  646SOL     OW 1936   1.360   2.361   0.184  0.1481  0.0156 -0.5527
  646SOL    HW1 1937   1.334   2.388   0.090  2.9260  1.7339  1.7935
  646SOL    HW2 1938   1.287   2.400   0.245 -1.6092  1.0878 -1.4703
  647SOL     OW 1939   1.471   2.378   1.093  0.0260  0.0647 -0.4570
  647SOL    HW1 1940   1.491   2.424   1.005  1.8810 -0.1057 -4.0479
  647SOL    HW2 1941   1.538   2.303   1.104  1.8172 -0.6041  0.4286
  648SOL     OW 1942   2.905   2.286   1.336  0.6168  0.0710 -0.0038
  648SOL    HW1 1943   2.915   2.257   1.432  0.1425 -1.6435 -4.2754
  648SOL    HW2 1944   2.946   2.376   1.319  0.1089 -0.0285 -0.6146
  649SOL     OW 1945   1.112   2.549   2.592 -0.9744  0.1305 -0.6871
  649SOL    HW1 1946   1.188   2.486   2.579 -1.3829  3.5617 -2.3980
  649SOL    HW2 1947   1.028   2.501   2.601  2.5083  3.1781 -0.4357
  650SOL     OW 1948   2.962   2.001   0.077  0.1792 -1.0399 -0.1631
  650SOL    HW1 1949   2.943   1.902   0.092  1.8911  1.0511 -2.0768
  650SOL    HW2 1950   3.056   2.016   0.039  0.3714  2.2243  0.0514
  651SOL     OW 1951   2.369   2.350   2.029 -0.4577 -0.1534 -0.0094
  651SOL    HW1 1952   2.292   2.283   2.004  1.6243 -2.8152  0.9799
  651SOL    HW2 1953   2.464   2.331   1.994 -1.4304  2.1003  1.9637
  652SOL     OW 1954   2.141   2.734   0.784 -0.0632 -0.5160  0.3570
  652SOL    HW1 1955   2.216   2.797   0.753  1.6298  1.8260 -2.7075
  652SOL    HW2 1956   2.058   2.739   0.723  1.3607 -1.0476  0.1932
  653SOL     OW 1957   0.117   1.381   1.509  0.5150 -0.3860  0.2824
  653SOL    HW1 1958   0.034   1.386   1.568  0.4181 -2.2234 -0.8946
  653SOL    HW2 1959   0.085   1.364   1.413  0.0923  2.4896 -4.2736
  654SOL     OW 1960   1.074   0.545   2.792  0.0795  0.4161  0.4468
  654SOL    HW1 1961   1.082   0.571   2.692 -2.0410  1.6046  1.4626
  654SOL    HW2 1962   1.009   0.607   2.841  1.0526 -0.4741  0.1116
  655SOL     OW 1963   1.107   0.889   1.122  0.4845 -0.1285  0.2399
  655SOL    HW1 1964   1.157   0.982   1.116 -0.2000  1.4314 -2.2706
  655SOL    HW2 1965   1.172   0.812   1.148  0.2951  0.3057 -2.0676
  656SOL     OW 1966   1.227   2.416   2.030  0.0765  0.6716 -0.3163
  656SOL    HW1 1967   1.241   2.354   2.112 -0.1480 -0.0521  1.3401
  656SOL    HW2 1968   1.144   2.472   2.041  3.4193 -1.4573 -2.8871
  657SOL     OW 1969   1.981   1.322   0.072  0.0853 -0.0640  0.0660
  657SOL    HW1 1970   2.033   1.270   0.002 -2.0236 -1.3763  1.2265
  657SOL    HW2 1971   1.879   1.318   0.060 -2.2968 -0.9888 -0.4310
  658SOL     OW 1972   1.571   2.366   1.618  0.4141 -0.3731 -0.5436
  658SOL    HW1 1973   1.629   2.445   1.596 -0.7281 -1.2912  0.2671
  658SOL    HW2 1974   1.514   2.372   1.706  0.2193  0.9034  1.0797
  659SOL     OW 1975   2.883   1.723   0.127 -0.1304 -0.0647  0.0135
  659SOL    HW1 1976   2.825   1.674   0.192 -0.0433 -0.0425  0.0473
  659SOL    HW2 1977   2.973   1.680   0.142 -3.8973 -2.0454 -2.6107
  660SOL     OW 1978   0.961   0.113   0.833  0.0166 -0.1208 -0.1872
  660SOL    HW1 1979   1.029   0.179   0.797 -0.6767 -0.4778  1.7864
  660SOL    HW2 1980   0.950   0.025   0.781  0.1024  1.8119  2.9573
  661SOL     OW 1981   2.046   0.485   0.074  0.3299  0.0142  0.3922
  661SOL    HW1 1982   1.980   0.532   0.136 -0.6745  0.8084 -2.5484
  661SOL    HW2 1983   1.996   0.442   0.001  1.0669  2.3229  2.2248
  662SOL     OW 1984   0.382   0.476   0.659 -0.0662 -0.1181  0.6965
  662SOL    HW1 1985   0.326   0.466   0.573 -1.0864 -1.3904 -1.2369
  662SOL    HW2 1986   0.481   0.503   0.639 -0.7323 -1.7985 -4.2905
  663SOL     OW 1987   1.613   2.818   2.252  0.1942 -0.6106 -0.0754
  663SOL    HW1 1988   1.581   2.889   2.318  2.2685  0.9162 -1.2829
  663SOL    HW2 1989   1.567   2.731   2.275  4.4987 -0.3144  2.0487
  664SOL     OW 1990   0.578   2.422   1.626  0.3497  0.6546  0.3198
  664SOL    HW1 1991   0.482   2.452   1.601  0.1303 -1.7544 -0.6152
  664SOL    HW2 1992   0.648   2.459   1.559  0.7599 -0.9372 -0.3498
  665SOL     OW 1993   1.315   2.274   1.476  0.0089 -0.0365 -0.1790
  665SOL    HW1 1994   1.338   2.373   1.501  2.5852  3.9089  2.8584
  665SOL    HW2 1995   1.396   2.217   1.484 -4.0628  1.9613 -2.8094
  666SOL     OW 1996   0.845   2.942   2.517 -0.2685 -0.5090 -0.6997
  666SOL    HW1 1997   0.864   2.912   2.613  0.5956 -1.3604  4.8401
  666SOL    HW2 1998   0.830   2.865   2.450  2.4143  0.0336 -2.9762
  667SOL     OW 1999   2.566   0.798   1.646 -0.0055  0.0064 -0.3794
  667SOL    HW1 2000   2.539   0.898   1.652 -0.2371 -0.5540 -0.5100
  667SOL    HW2 2001   2.650   0.775   1.702 -2.0788  0.9439 -0.4648
  668SOL     OW 2002   1.449   0.220   1.415  0.1026  0.3137 -0.0915
  668SOL    HW1 2003   1.534   0.213   1.470  0.0616  1.1708 -0.0895
  668SOL    HW2 2004   1.459   0.309   1.365 -0.6521  2.8662 -0.0815
  669SOL     OW 2005   2.428   2.504   1.072 -0.2396  0.2818 -0.0414
  669SOL    HW1 2006   2.422   2.408   1.093  2.5981 -0.2953 -1.3489
  669SOL    HW2 2007   2.505   2.510   1.004 -1.0916 -1.2861 -0.1098
  670SOL     OW 2008   1.385   2.346   2.863  0.0887 -0.1068  0.2505
  670SOL    HW1 2009   1.478   2.371   2.893 -0.3807  0.5204  0.1192
  670SOL    HW2 2010   1.376   2.340   2.760  0.4274  0.7530 -1.4803
  671SOL     OW 2011   0.539   1.179   0.456  0.3641  0.1998 -0.5129
  671SOL    HW1 2012   0.492   1.128   0.383  1.6988  1.3155  0.2202
  671SOL    HW2 2013   0.466   1.238   0.496 -0.7927  0.2322 -2.8172
  672SOL     OW 2014   2.731   1.136   0.015 -0.4994 -0.3300 -0.1567
  672SOL    HW1 2015   2.758   1.054   0.072 -0.9289  0.5671 -2.2815
  672SOL    HW2 2016   2.704   1.214   0.077  0.3058 -1.0979  2.3091
  673SOL     OW 2017   3.103   1.846   1.685  0.1298  0.1958  0.2963
  673SOL    HW1 2018   3.082   1.747   1.674  0.9179  2.5583  2.3054
  673SOL    HW2 2019   0.091   1.861   1.734  0.5805  1.3847  1.1390
  674SOL     OW 2020   1.108   2.165   1.638 -0.4007  0.4082 -0.6175
  674SOL    HW1 2021   1.057   2.102   1.573 -1.6892 -0.5715 -1.7238
  674SOL    HW2 2022   1.190   2.204   1.592  1.6531 -0.3287 -0.1361
  675SOL     OW 2023   1.180   1.161   1.083 -0.2219  0.3479  0.1657
  675SOL    HW1 2024   1.223   1.201   1.167  0.1682  1.6286 -0.0603
  675SOL    HW2 2025   1.089   1.203   1.071  0.0751 -0.2980  0.8718
  676SOL     OW 2026   2.168   0.530   0.958 -0.7056 -0.1567 -0.2438
  676SOL    HW1 2027   2.099   0.597   1.001 -2.3253  3.1548  1.4344
  676SOL    HW2 2028   2.162   0.441   1.012 -0.0353 -2.7226  0.5558
  677SOL     OW 2029   2.584   0.474   0.068  0.2341 -1.2862  1.0801
  677SOL    HW1 2030   2.512   0.404   0.096  2.4705 -0.3590  2.1787
  677SOL    HW2 2031   2.543   0.534   3.100 -0.9951  2.7127 -1.7803
  678SOL     OW 2032   2.584   1.413   1.453  0.5797 -0.6216 -0.0598
  678SOL    HW1 2033   2.552   1.379   1.361  0.5397 -0.0177 -1.3035
  678SOL    HW2 2034   2.516   1.394   1.529 -2.9866  1.0227  2.7876
  679SOL     OW 2035   2.516   0.685   2.996  0.0886 -0.1160  0.1126
  679SOL    HW1 2036   2.585   0.696   2.918  0.9996  0.4785 -3.5551
  679SOL    HW2 2037   2.498   0.777   3.038 -1.4025  0.9326 -0.5506
  680SOL     OW 2038   0.735   1.223   2.161 -0.0347 -0.3354 -0.1992
  680SOL    HW1 2039   0.648   1.177   2.164  2.7357 -0.0479 -0.0440
  680SOL    HW2 2040   0.738   1.285   2.080 -1.9153 -0.4174  0.4545
  681SOL     OW 2041   2.755   2.093   1.679  0.0760 -0.1727 -0.1487
  681SOL    HW1 2042   2.787   2.058   1.769  0.2391  2.8166  2.3015
  681SOL    HW2 2043   2.799   2.044   1.598  1.5248 -0.1207 -1.4255
  682SOL     OW 2044   0.505   1.790   2.965  0.0811  0.4966  0.4089
  682SOL    HW1 2045   0.554   1.836   2.890 -1.7206  1.2019 -0.0651
  682SOL    HW2 2046   0.522   1.686   2.967  0.2005 -0.9163 -1.1261
  683SOL     OW 2047   2.588   2.194   0.844  0.7315  0.2295  0.6811
  683SOL    HW1 2048   2.617   2.100   0.810 -0.5126 -1.7979  1.2371
  683SOL    HW2 2049   2.550   2.174   0.937  3.0328 -0.7265 -0.4803
  684SOL     OW 2050   2.467   1.046   1.973  0.0007 -0.5565  0.1179
  684SOL    HW1 2051   2.490   0.948   1.979 -1.7679 -0.1156  0.2307
  684SOL    HW2 2052   2.507   1.097   2.052 -0.8109  0.7590 -1.1708
  685SOL     OW 2053   1.281   0.663   1.073  0.2047 -0.4799  0.3552
  685SOL    HW1 2054   1.307   0.688   0.979  0.0223  1.1494 -0.6984
  685SOL    HW2 2055   1.216   0.582   1.078 -3.4566 -0.5486  1.6159
  686SOL     OW 2056   0.574   0.174   0.114  0.2277  0.9652  0.3299
  686SOL    HW1 2057   0.544   0.075   0.104  3.9192  0.4512  0.3434
  686SOL    HW2 2058   0.532   0.214   0.193  0.2699 -1.8295 -2.8575
  687SOL     OW 2059   0.141   2.305   2.498  0.4965  0.2371 -0.3890
  687SOL    HW1 2060   0.043   2.286   2.474 -2.3935 -1.9871  0.2841
  687SOL    HW2 2061   0.201   2.217   2.503  0.8725 -0.9452  0.5539
  688SOL     OW 2062   2.166   0.415   1.396 -0.4073  0.3713  0.1287
  688SOL    HW1 2063   2.172   0.470   1.484 -1.7368 -0.2843  0.8887
  688SOL    HW2 2064   2.253   0.404   1.356 -0.7384 -0.4093  3.5073
  689SOL     OW 2065   1.863   0.873   0.797  0.8704  0.4622 -0.0212
  689SOL    HW1 2066   1.785   0.862   0.731 -1.4682 -0.6714 -0.3868
  689SOL    HW2 2067   1.868   0.964   0.832 -1.1314 -5.4524  0.2785
  690SOL     OW 2068   2.924   0.815   1.646  0.2900  0.6014 -0.4094
  690SOL    HW1 2069   2.938   0.915   1.645 -1.4710 -1.0225  0.5225
  690SOL    HW2 2070   3.006   0.763   1.614 -0.9779 -0.3578 -3.3803
  691SOL     OW 2071   0.038   1.004   1.762  0.0875 -0.1637 -0.5717
  691SOL    HW1 2072   3.063   1.044   1.710 -3.2218 -1.0467  0.6743
  691SOL    HW2 2073   0.061   1.064   1.839 -1.8405 -0.5601 -0.8885
  692SOL     OW 2074   1.005   0.614   2.005 -0.0638  0.5538 -0.5586
  692SOL    HW1 2075   0.996   0.521   2.047  2.4136 -1.3707 -0.8551
  692SOL    HW2 2076   1.000   0.615   1.905  0.9634  0.2229 -0.4938
  693SOL     OW 2077   0.419   1.307   2.054 -0.0548 -0.6758  0.4849
  693SOL    HW1 2078   0.386   1.364   1.973 -3.3070 -2.2014 -2.1164
  693SOL    HW2 2079   0.376   1.339   2.141 -0.6519  0.5483  1.4721
  694SOL     OW 2080   1.439   1.676   0.357  0.0265  0.4457  0.0720
  694SOL    HW1 2081   1.485   1.586   0.339 -1.2939  0.6932  0.8211
  694SOL    HW2 2082   1.499   1.737   0.411 -1.2816 -3.0062  0.8266
  695SOL     OW 2083   0.633   1.182   1.349 -0.2313  0.0729 -0.2435
  695SOL    HW1 2084   0.679   1.154   1.265 -0.6170 -1.0030  0.9384
  695SOL    HW2 2085   0.535   1.207   1.325  1.1237 -0.0808 -1.8935
  696SOL     OW 2086   0.410   2.507   0.241 -0.0784 -0.1658 -0.0355
  696SOL    HW1 2087   0.307   2.503   0.243  0.2192 -1.6424 -1.1564
  696SOL    HW2 2088   0.460   2.478   0.324 -0.8591 -0.0699  2.6478
  697SOL     OW 2089   1.585   0.462   1.266 -0.0867  0.4650  0.3239
  697SOL    HW1 2090   1.676   0.478   1.309  1.5725  2.4577 -1.6688
  697SOL    HW2 2091   1.537   0.551   1.255 -0.2985  1.9799 -1.8817
  698SOL     OW 2092   1.516   1.473   1.670 -0.8365  0.8446 -0.1910
  698SOL    HW1 2093   1.562   1.379   1.672 -3.7110 -0.2398 -0.9954
  698SOL    HW2 2094   1.558   1.526   1.747 -0.7515 -0.5537  1.5976
  699SOL     OW 2095   0.145   0.466   2.380  0.4490 -0.4013  0.1834
  699SOL    HW1 2096   0.075   0.535   2.359  0.2667 -1.1856 -1.1635
  699SOL    HW2 2097   0.217   0.473   2.310  1.4540  0.2076  0.2846
  700SOL     OW 2098   1.475   2.859   0.585  0.6197 -0.4073 -0.3722
  700SOL    HW1 2099   1.425   2.794   0.651  0.0640 -1.4770  1.9198
  700SOL    HW2 2100   1.558   2.899   0.613 -3.8254 -3.2294 -2.5465
  701SOL     OW 2101   0.371   1.539   2.725 -0.1339 -0.1524 -0.2768
  701SOL    HW1 2102   0.283   1.573   2.767  0.8030 -0.7514  1.1779
  701SOL    HW2 2103   0.444   1.522   2.797  1.1731  0.0303 -0.3812
  702SOL     OW 2104   0.413   0.516   3.089 -0.6062 -0.2197  0.1948
  702SOL    HW1 2105   0.361   0.428   0.004  0.0462 -1.1542  0.5403
  702SOL    HW2 2106   0.495   0.498   3.033  0.8471  0.3826 -1.2585
  703SOL     OW 2107   1.769   3.030   2.554  0.2673  0.0645 -0.1162
  703SOL    HW1 2108   1.750   3.047   2.652 -0.5413 -1.6405 -1.1818
  703SOL    HW2 2109   1.684   3.048   2.499  0.6672 -0.8868  2.0794
  704SOL     OW 2110   2.740   1.777   0.451  0.4307  0.1273  0.2780
  704SOL    HW1 2111   2.679   1.837   0.395 -1.2523  0.0288 -1.5061
  704SOL    HW2 2112   2.783   1.837   0.521 -0.4963  2.0334 -1.8627
  705SOL     OW 2113   2.789   1.809   2.079 -0.0363  0.0948 -0.2166
  705SOL    HW1 2114   2.717   1.768   2.013 -1.5999  2.2273  1.6127
  705SOL    HW2 2115   2.749   1.863   2.153  1.4086 -2.0893 -2.0977
  706SOL     OW 2116   3.078   2.509   0.861  0.3525  0.0565  0.4303
  706SOL    HW1 2117   3.089   2.594   0.916  2.3480 -0.9186  2.0903
  706SOL    HW2 2118   0.044   2.516   0.783  2.1968  3.1304 -2.1868
  707SOL     OW 2119   0.857   2.853   0.419 -0.1241  0.2004  0.0904
  707SOL    HW1 2120   0.958   2.849   0.403 -0.0441 -0.1583  0.7751
  707SOL    HW2 2121   0.804   2.835   0.334 -1.2951  1.0899 -1.8976
  708SOL     OW 2122   0.609   2.163   1.528  0.5486 -0.1273  0.1401
  708SOL    HW1 2123   0.599   2.140   1.430 -1.1485  1.6534  2.4430
  708SOL    HW2 2124   0.601   2.261   1.545  2.3526 -4.6932 -0.3025
  709SOL     OW 2125   1.640   3.089   2.112 -0.6929 -0.0653 -0.2559
  709SOL    HW1 2126   1.593   0.028   2.192 -1.7436 -1.7159 -1.9226
  709SOL    HW2 2127   1.626   2.987   2.118  1.8275  0.2745 -0.9319
  710SOL     OW 2128   1.496   2.889   2.657  0.0473 -0.4600 -0.4164
  710SOL    HW1 2129   1.563   2.817   2.682 -1.0567  2.1260 -0.6381
  710SOL    HW2 2130   1.521   2.946   2.577 -1.5137  1.9936 -1.4751
  711SOL     OW 2131   1.243   2.441   3.068 -0.1795 -0.2821 -0.5095
  711SOL    HW1 2132   1.143   2.447   3.050  1.0226  0.2999 -1.6905
  711SOL    HW2 2133   1.298   2.405   2.989 -0.2033 -0.7099  0.0003
  712SOL     OW 2134   1.108   2.212   2.803 -0.7297  0.1759 -0.1173
  712SOL    HW1 2135   1.129   2.311   2.789 -0.3955 -0.5827  1.3572
  712SOL    HW2 2136   1.071   2.172   2.719 -0.3904  3.5280 -0.9879
  713SOL     OW 2137   1.322   1.101   1.509 -0.0109 -0.3227  0.0520
  713SOL    HW1 2138   1.277   1.154   1.436 -0.2081 -1.9341 -0.5382
  713SOL    HW2 2139   1.286   1.006   1.520  0.2477 -1.0695 -0.7467
  714SOL     OW 2140   1.373   1.454   1.062  0.1354 -0.1500 -0.0364
  714SOL    HW1 2141   1.417   1.439   1.151 -1.1113  1.9019 -1.3460
  714SOL    HW2 2142   1.418   1.524   1.001  1.4370  1.4252 -3.2860
  715SOL     OW 2143   2.462   0.161   0.739 -0.3685 -0.0385 -0.0105
  715SOL    HW1 2144   2.371   0.116   0.760 -0.3341 -0.2958  2.9851
  715SOL    HW2 2145   2.481   0.239   0.804 -1.9558  1.2667  1.3469
  716SOL     OW 2146   0.463   2.762   0.751  0.2325 -0.2440  0.2901
  716SOL    HW1 2147   0.501   2.749   0.659 -0.9798 -0.7054  0.3827
  716SOL    HW2 2148   0.539   2.776   0.823 -2.4146  0.0705  2.4810
  717SOL     OW 2149   3.005   0.437   0.095 -0.0072  0.0033  0.0099
  717SOL    HW1 2150   2.953   0.512   0.049 -0.8437  0.0040  0.0054
  717SOL    HW2 2151   2.938   0.380   0.144  2.6835  0.9700 -1.3012
  718SOL     OW 2152   1.669   1.679   1.242  0.5393 -0.3646  0.2155
  718SOL    HW1 2153   1.711   1.703   1.332  0.0949 -0.4034 -0.0657
  718SOL    HW2 2154   1.713   1.592   1.207  2.5354  0.5549  0.4238
  719SOL     OW 2155   2.717   2.341   0.637  0.2818 -0.4281  0.4538
  719SOL    HW1 2156   2.716   2.325   0.736  1.3454  0.5677 -0.4719
  719SOL    HW2 2157   2.771   2.431   0.622  1.9786  2.5544  0.9159
  720SOL     OW 2158   0.900   0.970   0.941  0.4149 -0.4481 -0.1020
  720SOL    HW1 2159   0.938   0.971   1.037  1.6870 -2.6639 -1.6912
  720SOL    HW2 2160   0.968   0.957   0.865  1.1438 -0.1798 -5.0384
  721SOL     OW 2161   1.573   0.029   1.173 -0.0964 -0.7585 -1.0786
  721SOL    HW1 2162   1.521   0.115   1.148  0.3125 -0.4479  0.6447
  721SOL    HW2 2163   1.541   0.004   1.271  2.0151 -1.8604  1.9148
  722SOL     OW 2164   1.197   1.330   2.122  0.2614  0.3703  0.6346
  722SOL    HW1 2165   1.245   1.333   2.032  2.6971  1.8083 -1.6869
  722SOL    HW2 2166   1.105   1.379   2.125 -1.5641 -1.6144  1.7944
  723SOL     OW 2167   0.972   2.906   1.808  0.2576  0.0619 -0.0646
  723SOL    HW1 2168   1.062   2.923   1.761  1.9542  1.4117 -2.2847
  723SOL    HW2 2169   0.938   2.812   1.802  0.8065  0.0601  1.1605
  724SOL     OW 2170   2.137   1.972   1.780 -0.2657  0.1858 -0.4233
  724SOL    HW1 2171   2.075   2.023   1.718 -1.7607 -0.3106  0.1651
  724SOL    HW2 2172   2.154   1.873   1.753  1.3599 -2.3866 -0.3475
  725SOL     OW 2173   1.088   2.553   1.277 -0.0679  0.3038  0.2244
  725SOL    HW1 2174   1.043   2.476   1.324 -1.2718 -1.3681 -0.5227
  725SOL    HW2 2175   1.126   2.621   1.348  1.3714  0.1798  0.4891
  726SOL     OW 2176   1.807   2.979   3.083  0.2778  0.6976  0.1598
  726SOL    HW1 2177   1.766   2.893   0.007 -2.1687  0.6338 -0.7322
  726SOL    HW2 2178   1.898   2.963   3.035  1.6648 -1.1083 -1.3406
  727SOL     OW 2179   1.373   1.794   0.714 -0.2882 -0.1930  0.3760
  727SOL    HW1 2180   1.306   1.734   0.662  1.0042 -0.8508  0.2938
  727SOL    HW2 2181   1.460   1.800   0.659  2.5878  3.2120 -1.6832
  728SOL     OW 2182   1.933   2.832   2.480 -0.3876 -0.5582 -0.1901
  728SOL    HW1 2183   1.860   2.908   2.484 -0.4492  1.6209 -2.8940
  728SOL    HW2 2184   2.011   2.856   2.546  1.1767  1.0762  1.0240
  729SOL     OW 2185   2.372   1.868   1.216  0.1722  0.1635 -0.2340
  729SOL    HW1 2186   2.371   1.968   1.227  0.0424 -1.8291 -4.1171
  729SOL    HW2 2187   2.275   1.836   1.208  0.1298 -1.9914 -0.0564
  730SOL     OW 2188   1.829   0.592   2.475  0.4625 -0.0228 -0.5686
  730SOL    HW1 2189   1.877   0.515   2.509  0.9475  2.6752 -0.7372
  730SOL    HW2 2190   1.783   0.641   2.556 -0.1881 -0.5684  0.5603
  731SOL     OW 2191   0.498   0.091   1.298  0.1644  0.1136 -0.2265
  731SOL    HW1 2192   0.440   0.072   1.380  1.4850 -2.8661 -0.1105
  731SOL    HW2 2193   0.486   0.188   1.261 -1.2461  0.7514 -0.5667
  732SOL     OW 2194   1.827   0.159   1.118  0.8254  0.7828 -0.2994
  732SOL    HW1 2195   1.734   0.113   1.105  0.3503 -0.9542 -0.1175
  732SOL    HW2 2196   1.861   0.136   1.210 -0.2961  0.3010  0.9526
  733SOL     OW 2197   0.949   1.266   1.378  0.2389 -0.6529 -0.2685
  733SOL    HW1 2198   0.907   1.184   1.419  2.4330 -1.3246 -1.8248
  733SOL    HW2 2199   0.876   1.340   1.383  0.4099  1.8117 -0.6170
  734SOL     OW 2200   2.356   1.871   0.220 -0.2337  0.5509  0.0581
  734SOL    HW1 2201   2.359   1.771   0.208  0.6259  1.8625  1.4914
  734SOL    HW2 2202   2.453   1.909   0.227  0.6153 -0.3105  1.2120
  735SOL     OW 2203   0.406   0.738   0.464 -0.3183 -0.2615 -0.4823
  735SOL    HW1 2204   0.432   0.660   0.398 -2.1770  1.8983 -3.2169
  735SOL    HW2 2205   0.452   0.736   0.556 -1.2904  2.2819 -0.8026
  736SOL     OW 2206   1.840   2.587   2.456  0.5479  0.0389  0.0967
  736SOL    HW1 2207   1.895   2.518   2.505  1.3611  1.0352  4.3762
  736SOL    HW2 2208   1.873   2.683   2.466  1.2175  1.6942 -0.6637
  737SOL     OW 2209   0.860   1.811   1.031  0.2628  0.1990 -0.2792
  737SOL    HW1 2210   0.816   1.719   1.019 -0.8120  0.2864  0.0582
  737SOL    HW2 2211   0.961   1.797   1.025 -2.2818 -0.6240 -1.7972
  738SOL     OW 2212   1.841   2.744   2.117 -0.5939 -0.1902  0.6305
  738SOL    HW1 2213   1.765   2.772   2.179  3.1230 -2.8463  1.6376
  738SOL    HW2 2214   1.867   2.647   2.123  1.5696  0.9446 -0.1882
  739SOL     OW 2215   1.454   2.134   2.360  0.0005  0.3923 -0.0204
  739SOL    HW1 2216   1.468   2.037   2.388  0.2002  0.7967 -2.5106
  739SOL    HW2 2217   1.541   2.184   2.351 -0.0816 -1.4800  5.7521
  740SOL     OW 2218   2.137   2.550   1.755  0.1819  0.7932 -0.4585
  740SOL    HW1 2219   2.176   2.575   1.846 -1.3506 -1.0100  0.7948
  740SOL    HW2 2220   2.039   2.516   1.764 -2.2756  0.7663  0.9581
  741SOL     OW 2221   2.409   1.737   2.886 -0.1671 -0.4575  0.4155
  741SOL    HW1 2222   2.315   1.695   2.893  0.2984 -2.0771 -1.6212
  741SOL    HW2 2223   2.443   1.721   2.793 -0.5397  0.8737  0.2611
  742SOL     OW 2224   0.579   1.126   2.908  0.5653 -0.7338 -0.1958
  742SOL    HW1 2225   0.562   1.188   2.987 -0.1518  0.1431  0.0595
  742SOL    HW2 2226   0.494   1.112   2.853  1.2199  0.7362  1.7342
  743SOL     OW 2227   2.076   1.142   2.540 -0.2048  0.1267  0.0431
  743SOL    HW1 2228   2.155   1.093   2.504 -0.2936 -0.3974 -1.6848
  743SOL    HW2 2229   1.988   1.127   2.495  2.1739  0.4097 -1.6839
  744SOL     OW 2230   2.196   0.087   1.365 -0.1690 -0.1511  0.4923
  744SOL    HW1 2231   2.221   0.179   1.333  1.0207  0.8962 -1.3572
  744SOL    HW2 2232   2.279   0.024   1.374  0.3411  0.7357  0.2147
  745SOL     OW 2233   2.484   1.309   1.201  0.0165  0.7131  0.5211
  745SOL    HW1 2234   2.539   1.234   1.238 -0.9997  1.8638  0.7299
  745SOL    HW2 2235   2.431   1.284   1.116 -1.6261 -3.0061 -0.8054
  746SOL     OW 2236   2.648   1.928   0.794 -0.5739  0.2091  0.5213
  746SOL    HW1 2237   2.569   1.881   0.830  1.6798  2.3985  1.2542
  746SOL    HW2 2238   2.720   1.862   0.772 -3.8076  0.4664  2.6889
  747SOL     OW 2239   1.960   2.750   0.198  0.5652 -0.3909 -0.1304
  747SOL    HW1 2240   1.958   2.853   0.209  0.8684 -0.0719  1.7153
  747SOL    HW2 2241   2.039   2.716   0.252 -0.9442 -0.2074  0.4350
  748SOL     OW 2242   0.895   2.176   2.969  0.1755 -0.5465  0.2961
  748SOL    HW1 2243   0.994   2.162   2.942  0.3807 -1.3311 -0.7439
  748SOL    HW2 2244   0.829   2.168   2.887 -0.8073 -1.0071  1.3739
  749SOL     OW 2245   2.889   0.416   2.258 -0.9700  0.0688  0.3667
  749SOL    HW1 2246   2.969   0.353   2.251 -0.9282 -0.9017 -2.6569
  749SOL    HW2 2247   2.918   0.515   2.262 -1.0487 -2.5838  0.2652
  750SOL     OW 2248   1.162   0.307   1.871  0.1521 -0.0359  0.4726
  750SOL    HW1 2249   1.251   0.282   1.914  0.9716 -2.1938 -0.0701
  750SOL    HW2 2250   1.104   0.341   1.946  0.0217  0.4060 -0.3301
  751SOL     OW 2251   2.620   2.467   1.863 -0.1831  0.2189 -0.5672
  751SOL    HW1 2252   2.601   2.421   1.776  1.5173 -0.1829  3.4470
  751SOL    HW2 2253   2.541   2.528   1.891  1.7007 -1.2283  0.1624
  752SOL     OW 2254   1.801   1.443   1.075  0.3852 -0.1003  0.2503
  752SOL    HW1 2255   1.767   1.451   0.978  1.6429 -3.5699  1.2553
  752SOL    HW2 2256   1.896   1.471   1.081  0.6617  1.1031  0.3060
  753SOL     OW 2257   1.530   0.931   2.259 -0.4409  0.1163 -0.1043
  753SOL    HW1 2258   1.518   1.004   2.189  1.0887  1.8933 -0.4797
  753SOL    HW2 2259   1.438   0.886   2.261 -0.1656  1.8020 -1.0720
  754SOL     OW 2260   0.082   2.320   1.037  0.6511  0.1398 -0.5723
  754SOL    HW1 2261   0.073   2.379   0.957 -0.5119  0.4733 -0.4545
  754SOL    HW2 2262   3.100   2.311   1.088 -0.1980  0.9660 -1.7217
  755SOL     OW 2263   2.575   3.045   1.111 -0.2066 -0.7638 -0.1751
  755SOL    HW1 2264   2.577   0.047   1.117 -1.5567  3.4463  0.2242
  755SOL    HW2 2265   2.611   3.007   1.198 -1.6053  2.3701 -0.0864
  756SOL     OW 2266   1.771   1.606   2.222 -0.1020  0.1716 -0.2719
  756SOL    HW1 2267   1.747   1.512   2.200  2.3865  2.6372 -0.7112
  756SOL    HW2 2268   1.706   1.651   2.285  1.7616  1.1700  0.2255
  757SOL     OW 2269   3.046   2.836   1.969 -0.4529 -0.2190  0.5283
  757SOL    HW1 2270   2.951   2.806   1.962  2.4250  3.6850  0.6850
  757SOL    HW2 2271   3.062   2.873   2.062 -0.2498  0.7553 -0.7090
  758SOL     OW 2272   0.474   2.742   1.569  0.1729  0.6887  0.4740
  758SOL    HW1 2273   0.566   2.774   1.549  2.5171 -0.4637 -0.8861
  758SOL    HW2 2274   0.438   2.690   1.485 -2.0129  0.5385 -1.6259
  759SOL     OW 2275   2.108   1.186   1.213 -0.2431 -0.2086 -0.6907
  759SOL    HW1 2276   2.114   1.103   1.272 -0.7417 -1.8976  0.9854
  759SOL    HW2 2277   2.125   1.167   1.117 -0.0440  0.4126  1.2545
  760SOL     OW 2278   1.713   0.163   1.555 -0.7840 -0.4583 -0.0165
  760SOL    HW1 2279   1.753   0.163   1.647  0.7989  0.5771 -2.2591
  760SOL    HW2 2280   1.780   0.140   1.482  0.3039  2.0661 -0.8033
  761SOL     OW 2281   2.214   0.077   0.743 -0.2329 -0.0571 -0.1585
  761SOL    HW1 2282   2.233   0.103   0.646 -0.6830 -0.3064  0.3815
  761SOL    HW2 2283   2.128   0.029   0.758  0.3510  0.0779 -0.0361
  762SOL     OW 2284   1.921   3.028   0.219  0.4985 -0.6726 -0.1642
  762SOL    HW1 2285   1.904   3.104   0.281  0.8070  0.1776  1.7992
  762SOL    HW2 2286   1.896   3.042   0.122 -0.3401 -0.8127  3.6077
  763SOL     OW 2287   1.041   0.506   1.354  0.3599 -0.1678 -0.3654
  763SOL    HW1 2288   0.971   0.435   1.382 -2.7756 -0.5278  2.0439
  763SOL    HW2 2289   0.992   0.581   1.312  2.4276 -4.4152 -0.2011
  764SOL     OW 2290   2.467   2.634   2.491  0.4519 -0.1735  0.0837
  764SOL    HW1 2291   2.529   2.565   2.453 -0.0632 -0.6181  0.6596
  764SOL    HW2 2292   2.511   2.726   2.499 -0.1565  0.5896 -0.0696
  765SOL     OW 2293   3.081   1.077   2.547  0.0398 -0.2996  0.0197
  765SOL    HW1 2294   0.061   1.027   2.575  1.7406 -1.0599  1.1175
  765SOL    HW2 2295   2.995   1.019   2.542  1.8435 -2.9124 -1.3874
  766SOL     OW 2296   2.780   1.378   2.586 -0.1315  0.3860 -0.0012
  766SOL    HW1 2297   2.724   1.457   2.561 -1.0051 -1.6240 -1.1831
  766SOL    HW2 2298   2.855   1.360   2.514 -0.1584 -2.9529 -3.2215
  767SOL     OW 2299   3.073   2.239   1.588  0.2384  0.1214 -0.1332
  767SOL    HW1 2300   3.067   2.148   1.533  2.9737  2.1015 -1.2378
  767SOL    HW2 2301   3.053   2.226   1.687  0.6646 -1.9323 -2.9480
  768SOL     OW 2302   0.886   0.676   2.917  0.0312  0.7783  0.4174
  768SOL    HW1 2303   0.784   0.661   2.912  0.1693  0.8140 -0.0003
  768SOL    HW2 2304   0.916   0.766   2.893 -0.2159  0.3239  2.2780
  769SOL     OW 2305   1.300   2.734   3.009 -0.1737  0.1793  0.2289
  769SOL    HW1 2306   1.243   2.725   2.928 -2.5491 -1.2363  0.5162
  769SOL    HW2 2307   1.286   2.652   3.068  1.7610 -0.3357 -0.9164
  770SOL     OW 2308   0.854   0.100   2.536  0.2728  0.8621  0.1250
  770SOL    HW1 2309   0.787   0.149   2.476 -1.2833  0.2850 -1.2451
  770SOL    HW2 2310   0.844   3.104   2.530  0.0598 -1.2474 -0.8756
  771SOL     OW 2311   0.708   2.541   0.933  0.3096  0.2234 -0.3783
  771SOL    HW1 2312   0.768   2.491   0.871 -0.9567  2.4735  1.1548
  771SOL    HW2 2313   0.759   2.596   1.004  2.5963  1.1043  0.6628
  772SOL     OW 2314   2.716   1.020   0.437 -0.2251  0.0998 -0.0624
  772SOL    HW1 2315   2.644   1.093   0.439 -1.3992 -0.9180 -0.8436
  772SOL    HW2 2316   2.708   0.982   0.532 -0.7029 -1.5480  0.9687
  773SOL     OW 2317   1.646   0.888   1.853 -0.3332 -0.2159 -0.2706
  773SOL    HW1 2318   1.742   0.859   1.853 -0.9400  1.2300  0.6054
  773SOL    HW2 2319   1.610   0.883   1.756  0.4484  0.5710 -1.6036
  774SOL     OW 2320   0.590   0.711   0.664  0.3852 -0.1956 -0.1823
  774SOL    HW1 2321   0.640   0.763   0.736  0.7267  0.5158  0.7132
  774SOL    HW2 2322   0.636   0.624   0.644  1.1061  0.3142  0.7965
  775SOL     OW 2323   1.571   0.192   0.267 -0.6424  0.4039 -0.2211
  775SOL    HW1 2324   1.573   0.105   0.216 -1.1884  0.3625  0.9439
  775SOL    HW2 2325   1.479   0.223   0.300 -0.1184  2.7673 -2.0295
  776SOL     OW 2326   2.358   0.338   2.413 -0.0957  0.3181 -0.0939
  776SOL    HW1 2327   2.288   0.385   2.466 -1.4148  1.0662 -0.3714
  776SOL    HW2 2328   2.333   0.324   2.318 -0.9330 -1.4981 -0.5905
  777SOL     OW 2329   1.032   1.265   3.033 -0.1067 -0.0380 -0.4353
  777SOL    HW1 2330   0.977   1.311   2.962  1.9903 -1.3148 -0.2646
  777SOL    HW2 2331   0.971   1.224   0.002  1.6851 -0.3572 -0.1634
  778SOL     OW 2332   0.136   2.600   0.246  0.0459 -0.0954  0.1817
  778SOL    HW1 2333   0.127   2.526   0.316  0.9066  0.3711  1.7852
  778SOL    HW2 2334   0.193   2.676   0.286 -0.2082  0.7146 -0.3944
  779SOL     OW 2335   0.154   1.327   0.279  0.0598 -0.6319 -0.3140
  779SOL    HW1 2336   0.127   1.229   0.291  1.2217  1.6375  0.7882
  779SOL    HW2 2337   0.244   1.338   0.238 -3.1371 -1.9674  0.5059
  780SOL     OW 2338   2.048   0.065   2.226 -0.3325 -0.5650  0.0965
  780SOL    HW1 2339   2.135   0.118   2.212  0.5889  1.7665  2.1954
  780SOL    HW2 2340   1.992   0.074   2.145 -0.0334 -0.3135  0.3978
  781SOL     OW 2341   1.763   1.146   1.479 -0.3697 -0.3210  0.2062
  781SOL    HW1 2342   1.674   1.123   1.432 -2.7541  1.9674  1.0177
  781SOL    HW2 2343   1.827   1.187   1.408  1.4666 -0.2620 -1.3199
  782SOL     OW 2344   1.913   2.052   2.028 -0.6861 -0.1550 -0.3832
  782SOL    HW1 2345   1.986   2.120   1.995  1.8097  0.7967 -0.7380
  782SOL    HW2 2346   1.946   1.954   2.016  0.5664 -2.3620  0.0168
  783SOL     OW 2347   1.308   0.185   2.076 -0.5931 -0.0346  0.3912
  783SOL    HW1 2348   1.232   0.134   2.112  1.9869 -0.2870 -2.1703
  783SOL    HW2 2349   1.381   0.122   2.039  3.1468 -0.1413  0.3798
  784SOL     OW 2350   1.821   1.092   2.431 -0.1006  0.5592  0.2318
  784SOL    HW1 2351   1.729   1.067   2.465  0.4618  0.4922  1.9781
  784SOL    HW2 2352   1.848   1.025   2.356  2.5845 -0.1560 -2.8343
  785SOL     OW 2353   1.866   0.641   0.186 -0.0338 -0.0318 -0.0880
  785SOL    HW1 2354   1.863   0.748   0.176  0.9404  0.5581 -1.3560
  785SOL    HW2 2355   1.774   0.598   0.168  2.8898 -2.0748  1.3312
  786SOL     OW 2356   3.095   1.711   0.617  0.0687 -0.6507 -0.4648
  786SOL    HW1 2357   0.064   1.715   0.683  1.7795 -1.7123 -2.4839
  786SOL    HW2 2358   3.088   1.623   0.563  2.3112 -0.3956  0.2967
  787SOL     OW 2359   1.505   2.087   0.302  0.1628 -0.2872  0.0863
  787SOL    HW1 2360   1.443   2.110   0.376 -0.1055 -0.5398  0.4472
  787SOL    HW2 2361   1.509   2.157   0.229  2.2093 -1.9837 -2.9389
  788SOL     OW 2362   2.182   1.648   1.424  0.4446  1.1065  0.0789
  788SOL    HW1 2363   2.180   1.701   1.339  0.4617 -0.2817  2.4054
  788SOL    HW2 2364   2.107   1.578   1.417 -0.7104  0.2767  1.8400
  789SOL     OW 2365   3.046   1.511   2.495  0.1388  0.2661  0.0381
  789SOL    HW1 2366   0.004   1.585   2.460  1.0547 -1.7446  1.4900
  789SOL    HW2 2367   3.023   1.536   2.589  2.0558 -0.5524  0.0436
  790SOL     OW 2368   0.636   3.052   2.932 -0.0005 -0.5150 -0.2692
  790SOL    HW1 2369   0.693   0.018   2.891 -0.4504 -0.5036 -2.2784
  790SOL    HW2 2370   0.560   3.015   2.871 -0.6468 -1.5707 -2.6855
  791SOL     OW 2371   0.868   2.854   2.803 -0.1079 -0.1107 -0.1179
  791SOL    HW1 2372   0.783   2.851   2.855  1.0071 -2.1594 -0.9018
  791SOL    HW2 2373   0.911   2.948   2.818  0.4898  1.7842 -0.9360
  792SOL     OW 2374   1.718   0.379   2.061 -0.0965 -0.3587  0.4406
  792SOL    HW1 2375   1.680   0.381   2.155  1.3277 -0.5046  1.7007
  792SOL    HW2 2376   1.667   0.445   1.999 -0.9410  0.0888 -0.0963
  793SOL     OW 2377   2.844   0.108   2.133  0.4556  0.5690  0.2354
  793SOL    HW1 2378   2.896   0.107   2.047  0.3100  1.5062  1.3351
  793SOL    HW2 2379   2.742   0.120   2.117 -0.5414 -0.2019  1.6268
  794SOL     OW 2380   0.574   0.495   1.850  0.2509  0.8376  0.4298
  794SOL    HW1 2381   0.568   0.420   1.917 -0.1716 -0.0238  0.6499
  794SOL    HW2 2382   0.577   0.580   1.905  2.1490 -0.4178  1.0865
  795SOL     OW 2383   3.091   1.486   0.457 -0.0027  0.4289 -0.1050
  795SOL    HW1 2384   3.013   1.429   0.489  0.6040 -0.3999  0.5364
  795SOL    HW2 2385   0.036   1.432   0.394 -2.1176  2.8443  2.4814
  796SOL     OW 2386   2.671   2.749   2.973  0.7972  0.1204 -0.1448
  796SOL    HW1 2387   2.716   2.768   3.065 -1.5429  0.3476  2.2862
  796SOL    HW2 2388   2.639   2.650   2.968  0.0531 -0.8352 -0.8389
  797SOL     OW 2389   2.475   2.372   0.479  0.3613  0.7489 -0.5541
  797SOL    HW1 2390   2.526   2.342   0.397  0.0561  0.4317 -0.3398
  797SOL    HW2 2391   2.526   2.339   0.558  1.9655 -2.2609  1.8325
  798SOL     OW 2392   0.389   0.939   1.435  0.8397 -0.3147 -0.0972
  798SOL    HW1 2393   0.310   0.896   1.488 -3.7984 -1.9375  3.3080
  798SOL    HW2 2394   0.383   1.039   1.437  0.3477 -0.5121 -0.1603
  799SOL     OW 2395   3.077   0.640   2.274 -0.1209  0.0382  0.1613
  799SOL    HW1 2396   3.037   0.690   2.353  0.5105 -0.4479  0.0841
  799SOL    HW2 2397   3.069   0.700   2.192  2.1681 -0.8160  0.4892
  800SOL     OW 2398   2.682   2.075   0.553  0.9453  0.1520  0.4820
  800SOL    HW1 2399   2.690   2.171   0.586 -0.1661 -0.9821  3.1265
  800SOL    HW2 2400   2.691   2.011   0.630 -0.4975 -0.1016  0.7261
  801SOL     OW 2401   1.368   1.150   0.880  0.0820 -0.3366 -0.3152
  801SOL    HW1 2402   1.315   1.159   0.794 -2.7558 -1.0040 -0.9443
  801SOL    HW2 2403   1.301   1.141   0.954  0.1738  0.1324  1.7150
  802SOL     OW 2404   1.395   1.726   0.984 -0.0284 -0.0975  0.0564
  802SOL    HW1 2405   1.445   1.801   1.034  0.0366  0.1754  0.0341
  802SOL    HW2 2406   1.383   1.751   0.889  0.8255 -0.3231 -0.4850
  803SOL     OW 2407   0.013   1.920   0.395 -0.9691 -0.4498  0.4138
  803SOL    HW1 2408   0.010   1.841   0.456  1.1315  2.9560 -3.0372
  803SOL    HW2 2409   0.044   1.895   0.301 -2.0799 -1.4697  2.8142
  804SOL     OW 2410   1.311   2.665   0.761  0.0480  0.2265  0.1874
  804SOL    HW1 2411   1.234   2.609   0.720 -2.1987  1.3035 -0.5371
  804SOL    HW2 2412   1.387   2.599   0.768 -1.5196 -0.4166 -0.6541
  805SOL     OW 2413   1.756   1.727   2.753 -0.0212  0.7834 -0.2388
  805SOL    HW1 2414   1.708   1.775   2.830 -0.5420 -1.1300 -2.3490
  805SOL    HW2 2415   1.716   1.633   2.730 -0.7815 -0.5694  0.3620
  806SOL     OW 2416   1.503   2.969   1.412 -0.1518  0.7437  0.0979
  806SOL    HW1 2417   1.451   2.992   1.499 -1.9770  0.9440 -2.5877
  806SOL    HW2 2418   1.450   2.895   1.358 -0.3575 -1.2737  0.4423
  807SOL     OW 2419   1.996   0.046   2.859  0.5741 -0.0060  0.1504
  807SOL    HW1 2420   1.906   0.017   2.823 -3.2092 -1.6315 -0.4838
  807SOL    HW2 2421   2.005   0.148   2.858  1.3965  1.9132 -0.6827
  808SOL     OW 2422   0.403   1.411   0.180  0.6889 -0.5146 -0.5496
  808SOL    HW1 2423   0.466   1.342   0.140  1.0889 -2.4732  3.9580
  808SOL    HW2 2424   0.400   1.409   0.280 -3.3338 -2.5535  1.5027
  809SOL     OW 2425   2.557   0.997   2.434  0.4884  0.5330 -0.4484
  809SOL    HW1 2426   2.573   1.042   2.345 -0.4931  1.3690  2.0764
  809SOL    HW2 2427   2.523   1.063   2.503 -1.4856 -3.6276 -0.9671
  810SOL     OW 2428   0.001   0.252   2.297 -0.3126  0.5194  0.1863
  810SOL    HW1 2429   0.057   0.326   2.342 -0.2111  1.9775  0.6651
  810SOL    HW2 2430   0.059   0.192   2.234 -1.7056 -1.4801  0.1767
  811SOL     OW 2431   2.166   2.465   1.505  0.1404  0.0059  0.3881
  811SOL    HW1 2432   2.177   2.493   1.604  1.5699  0.1197  0.0334
  811SOL    HW2 2433   2.264   2.458   1.467  0.8787 -0.4879  0.4017
  812SOL     OW 2434   1.449   0.773   0.063 -0.2529 -0.7256 -0.3307
  812SOL    HW1 2435   1.390   0.847   0.100 -1.0131 -1.3858  0.5309
  812SOL    HW2 2436   1.489   0.806   3.079  0.5787 -0.3359  2.6047
  813SOL     OW 2437   2.006   0.422   2.099  0.6082  0.8651 -0.1598
  813SOL    HW1 2438   1.904   0.406   2.102  0.2602 -2.0562 -2.0766
  813SOL    HW2 2439   2.035   0.483   2.169  0.2787  0.0532 -0.3558
  814SOL     OW 2440   1.878   1.314   1.295 -0.3469 -0.1322 -0.5690
  814SOL    HW1 2441   1.967   1.273   1.268 -2.3351 -2.4063  1.1100
  814SOL    HW2 2442   1.828   1.346   1.215 -1.8619 -1.6821  0.4938
  815SOL     OW 2443   0.674   1.113   0.687  0.2508  0.0851  0.3579
  815SOL    HW1 2444   0.631   1.035   0.738 -1.4489 -0.1748 -1.5836
  815SOL    HW2 2445   0.618   1.149   0.613  0.3122 -0.3647 -0.3999
  816SOL     OW 2446   1.686   2.088   2.604 -0.3345 -0.0196  0.4249
  816SOL    HW1 2447   1.771   2.093   2.661 -1.0242  0.3255 -0.5307
  816SOL    HW2 2448   1.713   2.129   2.513  2.1001  2.9725 -0.5704
  817SOL     OW 2449   3.012   2.861   0.980  0.1382  0.3247  0.3866
  817SOL    HW1 2450   3.034   2.905   0.891 -2.3886  1.1904 -0.3398
  817SOL    HW2 2451   3.090   2.812   1.020 -0.2478 -0.4452  0.5719
  818SOL     OW 2452   1.250   0.432   0.036 -0.2083 -0.4435  0.2298
  818SOL    HW1 2453   1.181   0.366   0.064 -0.0824  0.1914  0.0535
  818SOL    HW2 2454   1.307   0.467   0.110  0.5373  2.2644  0.5245
  819SOL     OW 2455   0.657   0.868   0.886  0.6412 -0.7705 -0.2341
  819SOL    HW1 2456   0.593   0.853   0.964 -2.6173 -1.1790 -0.7798
  819SOL    HW2 2457   0.747   0.906   0.919 -2.2425  1.4010  0.7782
  820SOL     OW 2458   2.197   0.720   1.260  0.2556 -0.1964  0.1028
  820SOL    HW1 2459   2.115   0.709   1.197  1.1132  1.2086 -1.1770
  820SOL    HW2 2460   2.282   0.672   1.224  3.2654 -1.0323  0.4350
  821SOL     OW 2461   2.614   3.099   0.408 -0.1582  0.4846  0.1633
  821SOL    HW1 2462   2.618   0.003   0.509 -0.5146  0.8184  0.5997
  821SOL    HW2 2463   2.595   3.001   0.374  0.9436 -4.0756 -0.1959
  822SOL     OW 2464   0.786   2.688   2.441  0.0777 -0.6596 -0.0598
  822SOL    HW1 2465   0.761   2.601   2.389  0.4514 -2.6559 -2.6541
  822SOL    HW2 2466   0.738   2.687   2.533 -2.6073 -3.7741  0.5409
  823SOL     OW 2467   3.057   1.564   1.711  0.1417 -0.1297  0.7838
  823SOL    HW1 2468   2.973   1.564   1.768  2.8481  0.4407  0.1966
  823SOL    HW2 2469   3.037   1.587   1.615 -2.0267 -0.7227  0.8608
  824SOL     OW 2470   0.765   2.875   2.083  0.0457 -0.7019 -0.8398
  824SOL    HW1 2471   0.849   2.847   2.130 -0.2687  0.6649 -2.3227
  824SOL    HW2 2472   0.716   2.797   2.038 -2.4090  2.0228 -1.8833
  825SOL     OW 2473   1.210   1.913   0.017 -0.5590 -0.1254  0.1374
  825SOL    HW1 2474   1.180   1.949   3.031 -0.9081 -0.9200 -1.8803
  825SOL    HW2 2475   1.312   1.931   0.027 -1.0741  0.4770 -2.3995
  826SOL     OW 2476   1.131   2.748   2.783 -0.8359 -0.0943  0.1851
  826SOL    HW1 2477   1.037   2.776   2.813 -0.9079  2.3464 -1.3043
  826SOL    HW2 2478   1.129   2.670   2.715  0.8042 -1.2787 -0.5301
  827SOL     OW 2479   0.262   1.847   1.790 -0.1569  0.0851 -0.1717
  827SOL    HW1 2480   0.293   1.775   1.862 -0.7510 -3.4344  1.1310
  827SOL    HW2 2481   0.342   1.899   1.762 -2.1344 -1.0638  0.2058
  828SOL     OW 2482   2.982   1.783   1.222 -0.2506  0.0963  0.5723
  828SOL    HW1 2483   3.068   1.828   1.257 -0.6328 -1.8930  1.1476
  828SOL    HW2 2484   2.939   1.837   1.146  1.1494  0.0295  2.3076
  829SOL     OW 2485   2.959   2.604   0.276 -0.4720  0.3686  0.0722
  829SOL    HW1 2486   3.063   2.605   0.268  0.7052 -1.0880 -1.2632
  829SOL    HW2 2487   2.919   2.516   0.244 -1.0988 -0.0434  0.6141
  830SOL     OW 2488   1.203   0.497   0.682 -0.1281 -0.3495 -0.1025
  830SOL    HW1 2489   1.271   0.557   0.736 -1.5409  0.4725  0.0117
  830SOL    HW2 2490   1.109   0.541   0.694 -2.4435  2.2549  0.5590
  831SOL     OW 2491   2.852   2.366   0.263 -1.0224  0.0397  0.2999
  831SOL    HW1 2492   2.755   2.352   0.298 -2.2819  1.1158  0.5174
  831SOL    HW2 2493   2.917   2.294   0.299  2.1222 -1.8480 -1.2981
  832SOL     OW 2494   1.641   2.423   0.539 -0.1615  0.1884  0.0838
  832SOL    HW1 2495   1.737   2.397   0.559  3.2753 -1.3804  2.4819
  832SOL    HW2 2496   1.572   2.366   0.584  1.1825  0.3666 -1.4334
  833SOL     OW 2497   0.512   0.755   2.540 -0.0820  0.0150  0.0683
  833SOL    HW1 2498   0.611   0.748   2.525 -0.7460  0.1050 -0.1106
  833SOL    HW2 2499   0.492   0.852   2.510 -0.4488  1.2935 -2.7732
  834SOL     OW 2500   2.623   0.894   0.692 -0.9299  0.4127  0.3895
  834SOL    HW1 2501   2.644   0.795   0.694  1.6948  0.4706 -1.6161
  834SOL    HW2 2502   2.583   0.925   0.779 -1.1197  0.1561 -2.0630
  835SOL     OW 2503   2.453   0.581   2.177  0.4223 -0.2428  0.4730
  835SOL    HW1 2504   2.364   0.559   2.132  1.1780 -2.7469 -3.2772
  835SOL    HW2 2505   2.449   0.626   2.268  0.0108 -1.6510 -0.5325
  836SOL     OW 2506   0.725   1.985   0.676  0.2720 -0.0627 -0.2198
  836SOL    HW1 2507   0.640   2.006   0.618 -1.3941 -0.5414 -2.3665
  836SOL    HW2 2508   0.698   1.994   0.776 -1.4193 -1.8150  0.3078
  837SOL     OW 2509   2.330   1.650   2.079 -0.1207  0.2786 -0.5772
  837SOL    HW1 2510   2.300   1.746   2.081 -1.1014 -1.9802 -1.8207
  837SOL    HW2 2511   2.266   1.585   2.037 -0.8947 -1.0389 -1.2134
  838SOL     OW 2512   0.186   1.105   2.210  0.7870 -0.2112 -0.5248
  838SOL    HW1 2513   0.214   1.011   2.238 -1.5259  1.4762  0.4747
  838SOL    HW2 2514   0.154   1.119   2.114 -1.5208 -1.4050  1.5076
  839SOL     OW 2515   0.332   3.076   2.981 -0.1239  0.6778 -0.1461
  839SOL    HW1 2516   0.351   2.996   2.921  0.1283 -0.0398  1.0601
  839SOL    HW2 2517   0.394   3.077   3.062  1.1970 -1.0272  2.0689
  840SOL     OW 2518   2.940   0.765   2.474 -0.1953  0.2265 -0.4871
  840SOL    HW1 2519   2.976   0.720   2.556  0.8045 -0.3088  3.5522
  840SOL    HW2 2520   2.879   0.847   2.495  2.3140  0.0288 -0.1638
  841SOL     OW 2521   0.327   2.095   2.500 -0.0321  0.4539  0.0816
  841SOL    HW1 2522   0.374   2.163   2.561 -0.1280 -0.4271  0.0957
  841SOL    HW2 2523   0.378   2.072   2.416  0.1854 -0.2687 -1.3547
  842SOL     OW 2524   0.766   0.101   1.188 -0.3808  0.1170  0.2111
  842SOL    HW1 2525   0.666   0.077   1.207 -2.5546 -1.6196  0.4411
  842SOL    HW2 2526   0.793   0.184   1.238 -0.1037 -0.8992 -1.8808
  843SOL     OW 2527   0.443   1.743   2.531 -0.4759  0.3364 -0.2350
  843SOL    HW1 2528   0.356   1.755   2.479 -1.3362 -0.4078 -1.3582
  843SOL    HW2 2529   0.421   1.682   2.610  1.4599  2.5620 -0.4904
  844SOL     OW 2530   1.578   1.900   2.076  0.3859  0.5716 -0.6224
  844SOL    HW1 2531   1.569   1.969   2.006 -1.8308 -1.7105 -0.6290
  844SOL    HW2 2532   1.653   1.918   2.143 -0.2927 -1.3018 -0.6706
  845SOL     OW 2533   2.399   2.939   2.652 -0.3363 -0.7668  0.1814
  845SOL    HW1 2534   2.479   2.898   2.609 -0.4416 -0.8047 -0.3448
  845SOL    HW2 2535   2.368   3.033   2.612 -1.8283  3.1630  2.4845
  846SOL     OW 2536   2.143   1.805   3.030  0.2316 -0.0285 -0.1354
  846SOL    HW1 2537   2.106   1.781   2.937  2.5019  0.0448 -3.9417
  846SOL    HW2 2538   2.147   1.725   3.092 -1.7226  1.3673 -2.3059
  847SOL     OW 2539   2.612   0.164   2.773 -0.2800  0.0778 -0.4008
  847SOL    HW1 2540   2.571   0.150   2.683  1.3859  0.5288  3.4682
  847SOL    HW2 2541   2.692   0.103   2.778 -1.9338 -0.2753  0.9413
  848SOL     OW 2542   2.740   0.674   0.222  0.1415  0.2906 -0.2815
  848SOL    HW1 2543   2.678   0.608   0.175 -0.2394 -0.8733 -1.9777
  848SOL    HW2 2544   2.782   0.629   0.306  0.3513  0.2672  0.1841
  849SOL     OW 2545   1.297   0.264   2.562  0.0096  0.6452  0.6073
  849SOL    HW1 2546   1.244   0.188   2.607  0.2389 -0.5619  1.5645
  849SOL    HW2 2547   1.278   0.347   2.615 -0.5152 -1.1564  1.2544
  850SOL     OW 2548   2.439   0.838   0.438 -0.0289  0.0476  0.0767
  850SOL    HW1 2549   2.412   0.748   0.401 -0.8887 -1.1383 -2.0422
  850SOL    HW2 2550   2.509   0.827   0.508  0.9170 -0.7857  0.9934
  851SOL     OW 2551   0.299   1.024   1.065  0.2488 -0.3331 -0.0689
  851SOL    HW1 2552   0.258   0.934   1.048  2.3971  2.2963  2.9491
  851SOL    HW2 2553   0.263   1.079   1.145  1.9293  2.7496 -2.0606
  852SOL     OW 2554   1.174   0.831   1.998  0.2913  0.6179  0.3531
  852SOL    HW1 2555   1.181   0.908   2.057  0.4398 -4.3662 -1.5499
  852SOL    HW2 2556   1.091   0.771   2.009  0.3223 -0.6158 -2.3810
  853SOL     OW 2557   1.752   1.263   2.732 -0.1660  0.4145 -0.2072
  853SOL    HW1 2558   1.851   1.280   2.748  0.1858 -1.4110  0.5203
  853SOL    HW2 2559   1.744   1.161   2.717  0.6809 -1.2392 -0.5387
  854SOL     OW 2560   1.391   1.202   1.737  0.2069  0.1642  0.3228
  854SOL    HW1 2561   1.375   1.157   1.647 -0.6065  0.6208  1.2341
  854SOL    HW2 2562   1.300   1.244   1.763 -3.2924 -0.8717  1.0911
  855SOL     OW 2563   0.305   2.375   1.981 -0.2523  0.0460  0.2055
  855SOL    HW1 2564   0.229   2.310   1.986 -0.4242 -0.4680 -0.5774
  855SOL    HW2 2565   0.271   2.467   2.008 -2.3153  1.1231 -1.1856
  856SOL     OW 2566   1.188   1.003   2.403  0.2969 -0.1787  0.4799
  856SOL    HW1 2567   1.108   1.021   2.464 -1.6540  0.9141  0.9680
  856SOL    HW2 2568   1.166   1.037   2.308  0.3939  0.4032 -1.2018
  857SOL     OW 2569   0.921   1.028   2.546  0.4742  0.6348  0.5650
  857SOL    HW1 2570   0.891   1.056   2.639  1.2662  0.2758 -0.3473
  857SOL    HW2 2571   0.892   0.934   2.525  1.1177 -0.3473 -1.0291
  858SOL     OW 2572   0.115   0.446   1.928 -1.4898  0.2927 -1.0490
  858SOL    HW1 2573   0.014   0.471   1.939  0.7906 -1.8797  1.5682
  858SOL    HW2 2574   0.135   0.366   1.991 -0.1823 -0.6381  1.2400
  859SOL     OW 2575   2.368   2.936   0.975  0.0407  0.4765 -0.4811
  859SOL    HW1 2576   2.453   2.973   1.019  1.0767  0.2449 -0.8295
  859SOL    HW2 2577   2.289   2.979   1.020 -0.3843 -0.9926 -0.1002
  860SOL     OW 2578   1.468   0.540   1.622  0.1884 -0.1658  0.0821
  860SOL    HW1 2579   1.478   0.439   1.647 -1.3268 -0.6792 -1.9704
  860SOL    HW2 2580   1.560   0.574   1.594 -0.9858 -1.3833  0.0526
  861SOL     OW 2581   1.838   0.788   1.311  0.8608  0.2506  0.3450
  861SOL    HW1 2582   1.867   0.692   1.316 -0.2317  0.7187  0.1724
  861SOL    HW2 2583   1.856   0.838   1.397  0.2630 -0.4204 -0.3014
  862SOL     OW 2584   1.149   3.080   2.349 -0.0024  0.8597 -0.1464
  862SOL    HW1 2585   1.080   0.022   2.288  0.7678 -2.4233 -2.0831
  862SOL    HW2 2586   1.150   0.009   2.446 -1.5921  0.7093 -1.2569
  863SOL     OW 2587   2.789   0.226   1.575 -0.0959  0.4582  0.3054
  863SOL    HW1 2588   2.697   0.270   1.596 -1.4221 -0.4770  2.4298
  863SOL    HW2 2589   2.867   0.276   1.612 -0.3101  0.8091 -1.7129
  864SOL     OW 2590   2.885   2.979   2.273 -0.1644  0.1856 -0.2327
  864SOL    HW1 2591   2.815   2.908   2.233 -2.7445 -0.2455 -2.4962
  864SOL    HW2 2592   2.882   3.059   2.212  1.5597 -1.2337  0.9444
  865SOL     OW 2593   1.065   1.348   2.543  0.0028 -0.4881  0.1706
  865SOL    HW1 2594   1.013   1.320   2.463 -2.4870 -0.1119  1.9912
  865SOL    HW2 2595   1.071   1.449   2.541  0.6177 -1.0920 -0.2179
  866SOL     OW 2596   2.738   2.975   0.915  0.4555 -0.4785  0.1962
  866SOL    HW1 2597   2.832   2.959   0.958  3.2673 -0.7929 -0.6216
  866SOL    HW2 2598   2.677   3.000   0.991  2.9076 -0.6353 -0.4513
  867SOL     OW 2599   2.858   2.820   1.222 -0.1388 -0.3096 -0.4252
  867SOL    HW1 2600   2.910   2.797   1.141 -2.7313 -1.1646  1.5565
  867SOL    HW2 2601   2.892   2.782   1.310 -1.0369  0.1790  0.0234
  868SOL     OW 2602   2.858   1.347   1.444  0.3590 -0.5038 -0.0981
  868SOL    HW1 2603   2.756   1.345   1.435 -1.5934 -2.4271  2.6595
  868SOL    HW2 2604   2.910   1.311   1.367 -2.1276  1.6811 -1.0112
  869SOL     OW 2605   2.217   2.080   2.309 -0.3317 -0.4316  0.3892
  869SOL    HW1 2606   2.209   2.168   2.361 -0.7401 -0.2541 -3.0318
  869SOL    HW2 2607   2.252   2.003   2.366 -0.9132 -1.7569 -1.1002
  870SOL     OW 2608   1.531   0.903   0.812 -0.0555 -0.2134 -0.0761
  870SOL    HW1 2609   1.537   0.867   0.910 -2.2007 -0.2129  1.1029
  870SOL    HW2 2610   1.491   0.998   0.826 -1.1667  1.0715 -0.6458
  871SOL     OW 2611   2.559   1.707   1.938  0.0338 -0.4434 -0.0078
  871SOL    HW1 2612   2.482   1.724   2.000  0.3613 -1.0845  1.4832
  871SOL    HW2 2613   2.522   1.719   1.837 -0.4769  0.3640 -3.0445
  872SOL     OW 2614   0.992   1.810   2.804 -0.1124 -0.1311  0.0666
  872SOL    HW1 2615   0.977   1.781   2.900 -2.4355  0.0269  0.1710
  872SOL    HW2 2616   1.091   1.829   2.788 -3.5252 -0.3511 -0.1227
  873SOL     OW 2617   1.077   1.205   1.782 -0.1752 -0.1080 -0.3970
  873SOL    HW1 2618   1.013   1.169   1.853  1.4284 -0.8246  0.7592
  873SOL    HW2 2619   1.111   1.133   1.722  0.3840  0.8124 -1.5441
  874SOL     OW 2620   1.322   0.828   1.522 -0.8309 -0.4087 -0.4048
  874SOL    HW1 2621   1.406   0.822   1.572  0.1109 -0.8853 -0.8945
  874SOL    HW2 2622   1.264   0.745   1.543 -0.4614 -2.6652 -2.4041
  875SOL     OW 2623   2.625   2.846   2.508 -0.0736 -0.3272  0.2174
  875SOL    HW1 2624   2.663   2.915   2.446 -0.4560 -1.4981  2.0651
  875SOL    HW2 2625   2.671   2.849   2.595 -0.8943 -2.2772 -0.6591
  876SOL     OW 2626   0.956   1.084   0.645  0.4723 -0.6339  0.3519
  876SOL    HW1 2627   0.877   1.111   0.700  2.3232 -0.3247 -0.4598
  876SOL    HW2 2628   0.968   1.143   0.565 -2.3590 -1.7937 -0.6157
  877SOL     OW 2629   2.053   2.955   0.482  0.4249 -0.2006  0.1976
  877SOL    HW1 2630   2.018   3.003   0.401  0.6454 -0.0771  0.8447
  877SOL    HW2 2631   2.148   2.984   0.500 -0.4053 -2.7464  0.4381
  878SOL     OW 2632   2.243   2.147   0.203  0.4438 -0.6111 -0.2651
  878SOL    HW1 2633   2.272   2.057   0.246 -0.6235  1.0176  3.3869
  878SOL    HW2 2634   2.170   2.182   0.268 -0.0066 -0.0612  0.0875
  879SOL     OW 2635   0.321   2.455   1.547 -0.1471 -0.0512 -0.3533
  879SOL    HW1 2636   0.250   2.498   1.609 -2.6202  0.8770  0.1956
  879SOL    HW2 2637   0.274   2.398   1.480  3.9193  3.3060  0.5113
  880SOL     OW 2638   0.141   1.690   0.845  0.2324  0.2574 -0.1656
  880SOL    HW1 2639   0.158   1.741   0.932 -0.6205 -2.6506  1.4067
  880SOL    HW2 2640   0.229   1.678   0.798 -0.8459  2.0420  1.6708
  881SOL     OW 2641   1.519   3.040   2.396  0.3841 -0.2247 -0.4847
  881SOL    HW1 2642   1.427   3.014   2.366  0.1254 -2.6843  0.1469
  881SOL    HW2 2643   1.525   0.037   2.408  4.0028 -1.0535 -0.4537
  882SOL     OW 2644   2.428   1.381   0.544  0.3916 -0.1308  0.1644
  882SOL    HW1 2645   2.407   1.349   0.637 -1.8132  0.5999 -0.2514
  882SOL    HW2 2646   2.468   1.473   0.558 -1.0136 -0.0947  2.7329
  883SOL     OW 2647   1.461   0.617   2.262 -0.3349 -0.3219 -0.1316
  883SOL    HW1 2648   1.456   0.695   2.326  1.2580 -1.6849 -0.8066
  883SOL    HW2 2649   1.499   0.652   2.172 -0.2240 -0.6004  1.9585
  884SOL     OW 2650   0.199   0.076   1.854  0.3577  0.0237 -0.0796
  884SOL    HW1 2651   0.112   0.086   1.800  2.1806  1.6294  0.2859
  884SOL    HW2 2652   0.274   0.110   1.799  1.2253 -0.6167  0.1112
  885SOL     OW 2653   2.039   1.364   2.657 -0.1339 -0.0710 -0.0950
  885SOL    HW1 2654   2.009   1.424   2.580 -0.7976  3.1551 -0.2796
  885SOL    HW2 2655   2.058   1.270   2.624 -2.7193  0.1656 -0.9983
  886SOL     OW 2656   1.800   0.400   2.780 -0.0474 -0.5928 -0.3037
  886SOL    HW1 2657   1.863   0.393   2.700  2.1695 -0.5319 -1.4076
  886SOL    HW2 2658   1.711   0.444   2.765  1.0669 -2.1031 -0.0151
  887SOL     OW 2659   1.170   2.727   1.453  0.5542  0.0013 -0.2277
  887SOL    HW1 2660   1.178   2.813   1.405 -2.3259 -1.6901 -0.0268
  887SOL    HW2 2661   1.077   2.715   1.492  0.4159 -0.8826  0.1616
  888SOL     OW 2662   2.290   1.398   1.518  0.2999 -0.5425 -0.3950
  888SOL    HW1 2663   2.277   1.484   1.467  1.1304  0.2979  1.4963
  888SOL    HW2 2664   2.320   1.427   1.613  1.5143  1.3807  1.1775
  889SOL     OW 2665   2.096   2.702   1.359  0.7662  0.2897  0.0266
  889SOL    HW1 2666   2.099   2.677   1.262  1.6769  0.3357 -0.5551
  889SOL    HW2 2667   2.113   2.617   1.415  0.7531 -1.7194  0.9480
  890SOL     OW 2668   1.002   2.276   0.940  0.2749 -0.0380  0.3855
  890SOL    HW1 2669   1.022   2.177   0.951 -1.4130  0.9062 -0.0143
  890SOL    HW2 2670   1.074   2.333   0.980 -3.1316 -1.5961 -1.8889
  891SOL     OW 2671   2.654   1.391   0.144  0.0854 -0.2460  0.0514
  891SOL    HW1 2672   2.575   1.439   0.108 -1.2355  0.6961  0.6661
  891SOL    HW2 2673   2.711   1.444   0.207 -0.4889 -1.1707 -2.1439
  892SOL     OW 2674   2.469   1.640   2.635 -0.0208 -0.1631  0.4386
  892SOL    HW1 2675   2.538   1.620   2.562 -1.2104  1.9582  0.3409
  892SOL    HW2 2676   2.379   1.607   2.603 -0.7464  2.1653 -0.4094
  893SOL     OW 2677   2.400   2.740   1.154  0.0223  0.0157  0.2680
  893SOL    HW1 2678   2.365   2.799   1.078  1.4620 -1.7393  1.0133
  893SOL    HW2 2679   2.421   2.647   1.121  0.8218  1.6736  0.7068
  894SOL     OW 2680   2.852   0.588   0.799  0.6162  0.2079  0.1912
  894SOL    HW1 2681   2.755   0.600   0.767 -2.6467 -1.4973  1.5574
  894SOL    HW2 2682   2.910   0.586   0.718 -0.8045 -1.4978 -0.6934
  895SOL     OW 2683   2.701   2.471   2.356 -0.6965 -0.2514  0.3481
  895SOL    HW1 2684   2.753   2.512   2.278  0.3005  0.8779 -0.6096
  895SOL    HW2 2685   2.751   2.497   2.446 -2.7451 -1.0530  1.0208
  896SOL     OW 2686   2.191   2.591   2.490 -0.1132 -0.5332  0.4742
  896SOL    HW1 2687   2.294   2.589   2.499  0.1737 -2.7743  1.1052
  896SOL    HW2 2688   2.153   2.668   2.549 -0.1436 -0.4485  1.4889
  897SOL     OW 2689   0.357   1.707   1.999  0.3343 -0.0731  0.2252
  897SOL    HW1 2690   0.285   1.674   2.062  0.6334  0.9548 -2.3443
  897SOL    HW2 2691   0.451   1.669   2.018  0.2650 -0.6429  0.6797
  898SOL     OW 2692   3.068   2.022   2.164 -0.4373  0.1041 -0.2281
  898SOL    HW1 2693   3.052   1.924   2.164 -2.4933 -0.0826  0.7176
  898SOL    HW2 2694   2.988   2.073   2.203  0.0311  3.0973 -1.6135
  899SOL     OW 2695   1.923   0.059   1.349  0.0399  0.3805 -0.8003
  899SOL    HW1 2696   1.911   3.068   1.313  0.1358 -0.6623 -2.6043
  899SOL    HW2 2697   2.019   0.094   1.328 -0.2489  1.8436  1.1620
  900SOL     OW 2698   1.446   1.057   0.464  0.0897 -0.3440  0.4851
  900SOL    HW1 2699   1.501   1.143   0.471 -1.4911 -0.8008 -0.2760
  900SOL    HW2 2700   1.514   0.984   0.448  0.5614  2.8620 -1.7011
  901SOL     OW 2701   1.351   1.245   2.546 -0.4060 -0.2656 -0.1374
  901SOL    HW1 2702   1.279   1.204   2.493  0.4706  0.1805 -0.3529
  901SOL    HW2 2703   1.336   1.347   2.557 -0.2167  1.0106  0.9958
  902SOL     OW 2704   2.858   2.360   0.891 -0.2289  0.6551 -0.8036
  902SOL    HW1 2705   2.942   2.418   0.878  0.8809  1.3275  3.3570
  902SOL    HW2 2706   2.780   2.414   0.917  1.0357 -1.7061 -1.6598
  903SOL     OW 2707   0.061   1.182   1.962  0.3681  0.4960 -0.8087
  903SOL    HW1 2708   0.129   1.261   1.951  0.4455  1.3663  0.9765
  903SOL    HW2 2709   3.083   1.203   2.018 -1.6192 -0.1303  0.7204
  904SOL     OW 2710   1.154   1.362   0.148  0.3741 -0.3804  0.2730
  904SOL    HW1 2711   1.119   1.339   0.057 -0.2469  1.2215  0.9565
  904SOL    HW2 2712   1.118   1.451   0.182 -2.2903  0.5620  1.6393
  905SOL     OW 2713   2.486   2.383   1.502  0.1051  0.4479  0.2814
  905SOL    HW1 2714   2.458   2.480   1.519 -0.0671  1.0619  1.9430
  905SOL    HW2 2715   2.578   2.380   1.552  2.6096  2.2768  0.4156
  906SOL     OW 2716   1.917   2.483   2.841  0.3181 -0.1564 -0.1411
  906SOL    HW1 2717   1.915   2.397   2.889 -3.0668  1.7096 -2.4853
  906SOL    HW2 2718   1.945   2.564   2.892  1.4989  0.7881 -0.8718
  907SOL     OW 2719   0.300   2.620   0.906 -0.7524  0.4986  0.1658
  907SOL    HW1 2720   0.352   2.533   0.935  2.5482 -1.1373  1.6605
  907SOL    HW2 2721   0.358   2.690   0.863 -0.6867 -2.7504 -0.9344
  908SOL     OW 2722   0.628   0.139   1.911  0.4893 -0.0789  0.6807
  908SOL    HW1 2723   0.652   0.078   1.992  2.1264  1.2694 -0.4592
  908SOL    HW2 2724   0.658   0.100   1.823  2.7878  0.1869  0.7810
  909SOL     OW 2725   1.909   0.516   1.330 -0.2601 -0.3590 -0.3798
  909SOL    HW1 2726   1.990   0.503   1.389 -1.5287  0.2578 -0.0278
  909SOL    HW2 2727   1.913   0.482   1.231 -1.8803  1.5858  1.0488
  910SOL     OW 2728   0.689   0.538   0.384 -0.3907 -0.8268 -0.2187
  910SOL    HW1 2729   0.728   0.629   0.358 -1.7964 -2.3873 -1.6587
  910SOL    HW2 2730   0.594   0.536   0.352  2.1775  1.3610  1.1254
  911SOL     OW 2731   0.271   0.253   3.022 -0.0914  0.2164 -0.2328
  911SOL    HW1 2732   0.173   0.260   2.985 -2.4244 -0.0263 -3.7903
  911SOL    HW2 2733   0.315   0.161   2.999  3.6042  0.0413 -0.4735
  912SOL     OW 2734   2.876   2.476   2.581  0.1351  1.0923 -0.0896
  912SOL    HW1 2735   2.900   2.568   2.610 -3.4583 -0.9444  0.1743
  912SOL    HW2 2736   2.912   2.413   2.653  0.2395 -0.0658  0.1267
  913SOL     OW 2737   2.375   2.353   0.048 -0.3749  0.1645  0.0198
  913SOL    HW1 2738   2.324   2.276   0.086  0.1237  0.0126 -0.2961
  913SOL    HW2 2739   2.310   2.423   0.011 -1.0613  1.7586 -2.9465
  914SOL     OW 2740   1.528   1.667   1.930  0.1240  0.0917  0.8017
  914SOL    HW1 2741   1.581   1.581   1.940  0.2909  2.0044 -2.9604
  914SOL    HW2 2742   1.570   1.748   1.979 -0.1087 -3.0196  2.4851
  915SOL     OW 2743   2.888   2.551   2.177  0.1864 -0.2161  0.6062
  915SOL    HW1 2744   2.986   2.540   2.190  0.3213 -0.8646 -2.1616
  915SOL    HW2 2745   2.869   2.653   2.162  0.3635 -0.6371  1.8135
  916SOL     OW 2746   0.022   0.789   1.988 -0.0422  0.0721  0.4656
  916SOL    HW1 2747   0.014   0.802   1.889  1.1487 -2.8455 -1.2395
  916SOL    HW2 2748   0.101   0.734   2.011  0.5025 -1.1335 -1.3284
  917SOL     OW 2749   1.959   0.291   2.965 -0.0770  0.4008 -0.0388
  917SOL    HW1 2750   1.923   0.285   3.060 -1.2263  1.8753 -1.6642
  917SOL    HW2 2751   1.888   0.323   2.900  0.9180 -1.5320 -0.3661
  918SOL     OW 2752   1.894   2.486   2.189  0.0528  0.0940  0.2626
  918SOL    HW1 2753   1.862   2.535   2.278  3.0343  1.7255  2.2945
  918SOL    HW2 2754   1.984   2.435   2.196 -1.3925 -0.6386 -0.2940
  919SOL     OW 2755   2.128   2.222   1.934  0.1472  0.4352 -0.5019
  919SOL    HW1 2756   2.153   2.130   1.899 -3.7992 -0.1721  2.9913
  919SOL    HW2 2757   2.106   2.289   1.863 -1.7883  0.5166 -0.0127
  920SOL     OW 2758   0.421   0.984   0.326 -0.3944 -0.3871 -0.1779
  920SOL    HW1 2759   0.437   0.899   0.375 -0.5933 -1.3942 -2.5441
  920SOL    HW2 2760   0.323   1.005   0.337  0.0027 -0.5598 -3.5518
  921SOL     OW 2761   2.736   1.171   2.744 -0.4862  0.0176 -0.1231
  921SOL    HW1 2762   2.660   1.191   2.808  1.0360 -0.7123  1.7287
  921SOL    HW2 2763   2.766   1.251   2.690  1.0723  0.0207 -0.4699
  922SOL     OW 2764   0.544   1.828   0.131  0.1802 -0.6107 -0.5825
  922SOL    HW1 2765   0.537   1.813   0.030  0.6399 -0.6712 -0.5753
  922SOL    HW2 2766   0.469   1.773   0.174  1.8987  0.1630  2.0062
  923SOL     OW 2767   0.641   0.983   2.203 -0.2461 -0.0227 -0.1858
  923SOL    HW1 2768   0.577   0.959   2.130 -1.5212  2.1212  1.8264
  923SOL    HW2 2769   0.736   0.985   2.171  0.9813  1.4677 -1.1869
  924SOL     OW 2770   0.653   2.573   2.649  0.2781  0.4506 -0.3069
  924SOL    HW1 2771   0.742   2.523   2.659  1.3872  0.8652  3.2704
  924SOL    HW2 2772   0.638   2.616   2.741 -3.0035  1.5684  1.2838
  925SOL     OW 2773   1.769   1.489   0.794  0.3671 -0.0562  0.4842
  925SOL    HW1 2774   1.698   1.415   0.797 -0.4851  3.3187 -1.3931
  925SOL    HW2 2775   1.780   1.529   0.701 -0.7207 -2.1333  2.4123
  926SOL     OW 2776   1.655   0.434   2.324 -0.0873  0.4008  0.3459
  926SOL    HW1 2777   1.566   0.488   2.310 -3.0633  3.2955 -0.9061
  926SOL    HW2 2778   1.720   0.483   2.387 -0.1302  1.8756  2.1356
  927SOL     OW 2779   2.786   2.726   1.896 -0.5951  0.0590  0.6838
  927SOL    HW1 2780   2.757   2.631   1.905 -1.8930  1.6645  1.3870
  927SOL    HW2 2781   2.742   2.782   1.820  0.2346  1.6048  0.8833
  928SOL     OW 2782   0.293   1.045   2.881 -0.2808 -0.1551  0.1168
  928SOL    HW1 2783   0.218   1.098   2.921  0.6715 -2.0686  1.4211
  928SOL    HW2 2784   0.339   0.974   2.939 -0.8159  2.1687  0.1008
  929SOL     OW 2785   3.034   0.164   0.841 -0.7941 -0.3521  0.5161
  929SOL    HW1 2786   3.030   0.062   0.828  1.8570 -0.7010 -2.1329
  929SOL    HW2 2787   0.009   0.191   0.897 -1.4965 -0.5535  0.8608
  930SOL     OW 2788   2.334   0.140   1.924  0.3395  0.0633  0.7337
  930SOL    HW1 2789   2.298   0.046   1.943  1.0522 -1.2222  1.5038
  930SOL    HW2 2790   2.350   0.151   1.823  1.2651  0.0316  1.3308
  931SOL     OW 2791   2.181   1.157   3.042 -0.2882 -0.0856  0.6841
  931SOL    HW1 2792   2.212   1.092   0.006 -0.6904  0.0289 -2.5492
  931SOL    HW2 2793   2.245   1.231   3.013 -0.4141 -0.2285 -0.9328
  932SOL     OW 2794   2.651   1.341   1.751  0.1072 -0.4102 -0.0847
  932SOL    HW1 2795   2.729   1.400   1.721 -0.6471 -1.3160 -0.5840
  932SOL    HW2 2796   2.690   1.266   1.806  0.8696 -0.8490  0.4049
  933SOL     OW 2797   2.973   2.509   1.692  0.5288  0.1105  0.4997
  933SOL    HW1 2798   3.044   2.436   1.668  2.5484 -0.5710 -0.9218
  933SOL    HW2 2799   3.020   2.585   1.736 -0.5633 -0.5795  0.6658
  934SOL     OW 2800   0.711   2.804   1.230  0.3122 -0.2537 -0.2770
  934SOL    HW1 2801   0.774   2.747   1.181  0.3890  1.8214 -0.4025
  934SOL    HW2 2802   0.758   2.838   1.312 -0.5238  7.2492  1.4246
  935SOL     OW 2803   2.596   1.171   2.182  0.6355  0.6093  0.0596
  935SOL    HW1 2804   2.695   1.162   2.187  1.0940 -0.2444  1.3814
  935SOL    HW2 2805   2.570   1.259   2.228 -0.3418 -0.2232 -1.8166
  936SOL     OW 2806   2.224   1.094   1.835 -0.8879  0.6521  0.3905
  936SOL    HW1 2807   2.234   1.106   1.736 -1.6846  1.8202  1.0960
  936SOL    HW2 2808   2.317   1.083   1.880  2.5454 -2.5455 -0.1853
  937SOL     OW 2809   1.952   1.143   2.136  0.0500 -0.2046  0.3079
  937SOL    HW1 2810   1.882   1.130   2.062 -2.3555  0.4940 -2.1760
  937SOL    HW2 2811   1.957   1.058   2.192 -1.4082 -2.5245  1.0065
  938SOL     OW 2812   0.815   2.552   0.095  0.3732  0.0119  0.1809
  938SOL    HW1 2813   0.785   2.487   0.166  4.2400  2.3126 -2.4390
  938SOL    HW2 2814   0.806   2.648   0.137  1.4612  2.9558  1.2168
  939SOL     OW 2815   2.448   0.957   3.075  0.3647  0.9984 -0.5819
  939SOL    HW1 2816   2.473   1.027   3.009  0.6384  0.2981  2.0276
  939SOL    HW2 2817   2.467   0.996   0.064  2.2469  0.0388  1.1463
  940SOL     OW 2818   1.080   2.020   0.956  0.5688  0.1876  0.6100
  940SOL    HW1 2819   1.128   1.946   1.006  0.9042  2.8846 -1.7783
  940SOL    HW2 2820   1.090   2.009   0.857  0.6512 -0.0708  0.6978
  941SOL     OW 2821   0.930   2.011   1.534 -0.4449  0.6488  0.1090
  941SOL    HW1 2822   0.922   1.981   1.437 -0.4068  0.4830  0.5128
  941SOL    HW2 2823   0.840   2.051   1.556 -1.6624 -0.1326  1.7465
  942SOL     OW 2824   0.375   2.094   2.853 -0.4713  0.3194 -0.1477
  942SOL    HW1 2825   0.444   2.034   2.807 -1.2462 -1.0540 -0.0740
  942SOL    HW2 2826   0.308   2.030   2.894 -0.0367 -1.8857  0.8564
  943SOL     OW 2827   2.173   3.023   1.839  0.4209 -0.0208  0.5989
  943SOL    HW1 2828   2.104   2.962   1.884 -0.4538 -0.6364  0.0582
  943SOL    HW2 2829   2.135   3.065   1.755  0.5714  0.7803 -0.2207
  944SOL     OW 2830   1.331   2.074   2.915  0.4689 -0.2092 -0.3896
  944SOL    HW1 2831   1.427   2.114   2.906  1.5257  0.8377 -0.3563
  944SOL    HW2 2832   1.257   2.135   2.878 -0.5611  0.4382 -3.2673
  945SOL     OW 2833   2.596   2.531   0.867  0.0935  0.7177  0.0513
  945SOL    HW1 2834   2.558   2.467   0.798  0.3742  2.5419 -0.0146
  945SOL    HW2 2835   2.618   2.624   0.830 -0.7003 -0.9808 -0.4752
  946SOL     OW 2836   1.032   1.670   2.544 -0.2538 -1.0832 -0.3858
  946SOL    HW1 2837   1.091   1.732   2.488 -0.3643 -0.8161 -0.7186
  946SOL    HW2 2838   1.014   1.712   2.638 -1.9949  1.2622  1.7725
  947SOL     OW 2839   0.258   0.676   2.086 -0.0499 -0.0652  0.3747
  947SOL    HW1 2840   0.351   0.696   2.049 -1.9172  3.3781  0.9193
  947SOL    HW2 2841   0.226   0.583   2.065  1.7230 -2.6361  0.7809
  948SOL     OW 2842   3.058   1.212   0.901  0.0758  0.0736  0.5023
  948SOL    HW1 2843   3.084   1.126   0.945  0.5064  5.7554  0.7245
  948SOL    HW2 2844   2.978   1.202   0.836 -2.9321 -2.0683  1.3779
  949SOL     OW 2845   0.861   0.797   2.184  0.0442  0.0475  0.2583
  949SOL    HW1 2846   0.758   0.785   2.176 -3.8540 -4.1579 -0.7695
  949SOL    HW2 2847   0.910   0.716   2.140  0.3218  0.5165 -1.9164
  950SOL     OW 2848   0.107   0.637   1.674 -0.1126 -0.0302 -0.1340
  950SOL    HW1 2849   0.167   0.717   1.664  1.5373 -1.8414 -1.8189
  950SOL    HW2 2850   0.139   0.578   1.747  1.4520  1.3268  2.0798
  951SOL     OW 2851   0.446   1.143   2.643 -0.3013  0.1161  0.0877
  951SOL    HW1 2852   0.499   1.089   2.573  1.5242 -2.2868  2.7187
  951SOL    HW2 2853   0.369   1.086   2.678  2.5591  0.8098 -0.0309
  952SOL     OW 2854   1.977   2.181   0.656  0.6291 -0.2410  0.4390
  952SOL    HW1 2855   1.925   2.254   0.700  0.9926 -1.3959 -0.3612
  952SOL    HW2 2856   1.994   2.094   0.711 -0.3862 -1.9360 -0.5785
  953SOL     OW 2857   0.474   0.253   0.362  0.2738  0.3351 -0.2240
  953SOL    HW1 2858   0.543   0.196   0.415  0.4476 -1.1104  2.0487
  953SOL    HW2 2859   0.378   0.220   0.373 -0.8901 -2.4605 -1.5249
  954SOL     OW 2860   2.492   0.891   1.212 -0.0313  0.1282  0.0734
  954SOL    HW1 2861   2.394   0.861   1.195 -0.0169  0.6228  0.4437
  954SOL    HW2 2862   2.535   0.838   1.289 -0.8490  1.7378  0.7281
  955SOL     OW 2863   1.541   1.417   2.882  0.1178  0.0332  0.0019
  955SOL    HW1 2864   1.612   1.371   2.824 -2.3392  1.2565 -2.7609
  955SOL    HW2 2865   1.466   1.350   2.903 -0.1037 -1.2899 -2.5428
  956SOL     OW 2866   1.074   0.568   2.511  0.4319  0.0978 -0.2781
  956SOL    HW1 2867   1.128   0.608   2.437 -2.7063  2.2290 -0.1079
  956SOL    HW2 2868   1.048   0.470   2.488 -1.8303 -0.3781 -0.5117
  957SOL     OW 2869   1.518   0.302   1.735 -0.0476  0.1909  0.0296
  957SOL    HW1 2870   1.499   0.246   1.819  1.2063  1.6339  0.1536
  957SOL    HW2 2871   1.560   0.247   1.655  0.8510  2.0119 -2.5110
  958SOL     OW 2872   0.512   2.052   0.525  0.4880  0.3052  0.0218
  958SOL    HW1 2873   0.555   2.016   0.445 -0.2101  0.7677  1.5048
  958SOL    HW2 2874   0.407   2.041   0.515 -2.1500  0.1754 -0.9684
  959SOL     OW 2875   1.950   0.839   1.824 -0.3594  0.3628  0.1404
  959SOL    HW1 2876   2.019   0.866   1.891 -2.0068 -0.0084  1.3248
  959SOL    HW2 2877   1.945   0.737   1.814 -0.5159 -1.0497  1.9535
  960SOL     OW 2878   0.230   1.883   2.923 -0.0749  0.0775  0.1753
  960SOL    HW1 2879   0.312   1.822   2.930 -1.6242  0.1990  0.6631
  960SOL    HW2 2880   0.202   1.914   3.012  0.5696 -1.5319  1.9801
  961SOL     OW 2881   0.693   2.023   0.959 -0.4779 -0.8344  0.5624
  961SOL    HW1 2882   0.683   2.111   1.010 -0.0363  2.2544 -1.4395
  961SOL    HW2 2883   0.787   1.981   0.971  2.6521 -0.9668  1.2455
  962SOL     OW 2884   0.289   1.557   1.436  0.5986  0.4716  0.1382
  962SOL    HW1 2885   0.261   1.573   1.339 -1.3338  0.7124  0.5810
  962SOL    HW2 2886   0.225   1.489   1.485  0.2100 -2.6365  0.7950
  963SOL     OW 2887   1.504   1.912   2.500  0.0549  0.7206  0.1633
  963SOL    HW1 2888   1.522   1.822   2.446  2.0565 -5.7917 -0.2769
  963SOL    HW2 2889   1.580   1.939   2.560  1.1657  0.1939  2.6007
  964SOL     OW 2890   0.220   2.967   2.196  0.0081  0.0551 -0.0130
  964SOL    HW1 2891   0.144   2.912   2.233  1.2628  1.1731 -0.4248
  964SOL    HW2 2892   0.306   2.927   2.231 -2.4720  2.0177 -2.6929
  965SOL     OW 2893   2.978   2.309   2.767 -0.0985 -1.0289  0.1579
  965SOL    HW1 2894   2.929   2.289   2.852  1.3260  0.1918 -2.7348
  965SOL    HW2 2895   2.992   2.224   2.714 -0.5461  3.5651  2.2918
  966SOL     OW 2896   2.707   1.694   2.745 -0.5264  0.8431 -0.5698
  966SOL    HW1 2897   2.620   1.656   2.702  0.5788 -1.3435 -1.2968
  966SOL    HW2 2898   2.736   1.644   2.827 -0.3927  1.4178 -1.1423
  967SOL     OW 2899   1.789   0.307   0.088 -0.2632  0.6908 -0.9504
  967SOL    HW1 2900   1.764   0.245   0.163  0.7246  1.1409 -0.4090
  967SOL    HW2 2901   1.697   0.335   0.050 -1.6006 -2.3523 -0.0113
  968SOL     OW 2902   2.643   3.091   0.682 -0.2443 -1.3915  0.6790
  968SOL    HW1 2903   2.661   3.030   0.760  0.7379  0.4931 -0.9347
  968SOL    HW2 2904   2.571   0.059   0.707  0.5858 -1.1172  1.1067
  969SOL     OW 2905   0.445   1.025   1.991  0.1917  0.2564  0.4689
  969SOL    HW1 2906   0.469   1.039   1.894 -1.0258 -0.5566  3.4730
  969SOL    HW2 2907   0.421   1.112   2.036  0.1305  0.0965  0.3601
  970SOL     OW 2908   1.434   1.663   2.803 -0.0459 -0.3904 -0.1661
  970SOL    HW1 2909   1.455   1.571   2.839 -1.3486  1.5856  2.0066
  970SOL    HW2 2910   1.466   1.740   2.867 -0.1104 -0.3361  1.2071
  971SOL     OW 2911   2.351   0.167   1.651  0.0816 -0.7160  0.0843
  971SOL    HW1 2912   2.250   0.173   1.648 -2.2247 -0.0233 -1.4549
  971SOL    HW2 2913   2.381   0.084   1.600  2.3928  2.0429  2.7069
  972SOL     OW 2914   2.864   0.346   0.916  0.0304 -0.5936 -0.6017
  972SOL    HW1 2915   2.868   0.433   0.859  0.7227  0.3292 -1.1681
  972SOL    HW2 2916   2.920   0.273   0.879  0.6458  1.9466  0.9823
  973SOL     OW 2917   0.511   0.422   2.547 -0.0609 -1.0661 -0.6765
  973SOL    HW1 2918   0.519   0.524   2.567 -2.1948  4.2738 -0.3533
  973SOL    HW2 2919   0.472   0.365   2.625 -2.1241 -0.8235 -1.0199
  974SOL     OW 2920   2.731   1.080   1.883 -0.1661  0.2891  0.2322
  974SOL    HW1 2921   2.637   1.054   1.902  3.0198 -1.5816 -2.1156
  974SOL    HW2 2922   2.801   1.034   1.944  2.3377 -1.5182  0.4845
  975SOL     OW 2923   1.280   2.697   1.764 -0.2137 -0.0002 -0.1330
  975SOL    HW1 2924   1.241   2.787   1.742 -1.2290 -2.9261 -0.5519
  975SOL    HW2 2925   1.215   2.619   1.732  1.9251 -2.0735  1.5684
  976SOL     OW 2926   1.564   1.436   1.293  0.1401 -0.5555  0.7706
  976SOL    HW1 2927   1.628   1.392   1.357  3.3436  0.1957  0.9555
  976SOL    HW2 2928   1.570   1.544   1.293  0.5407  2.6206 -1.5449
  977SOL     OW 2929   0.473   3.033   0.089  0.1368 -0.6938 -0.8004
  977SOL    HW1 2930   0.470   3.002   0.189  0.5061  0.1957 -0.1695
  977SOL    HW2 2931   0.527   2.970   0.032 -4.0278 -1.0173  0.8966
  978SOL     OW 2932   2.049   1.377   2.259 -0.6746  0.0979 -0.7134
  978SOL    HW1 2933   2.100   1.444   2.194  1.2109  0.1066  2.9660
  978SOL    HW2 2934   2.003   1.298   2.208 -0.7669  1.5614 -1.7492
  979SOL     OW 2935   1.438   0.758   2.000  0.6697  0.6448 -0.1112
  979SOL    HW1 2936   1.338   0.782   1.988  1.6199 -2.5928 -0.2756
  979SOL    HW2 2937   1.499   0.810   1.933  1.0764  1.3732 -1.8403
  980SOL     OW 2938   1.843   1.774   2.479 -0.2680  0.2876  0.0641
  980SOL    HW1 2939   1.818   1.862   2.427 -0.1272  2.0045 -2.1277
  980SOL    HW2 2940   1.809   1.775   2.574  2.3630  1.9197 -1.5703
  981SOL     OW 2941   1.606   0.566   1.897  0.4960  0.4916 -0.5567
  981SOL    HW1 2942   1.567   0.515   1.819  0.9738 -0.3389 -0.3509
  981SOL    HW2 2943   1.530   0.631   1.925 -1.7350  0.6207 -1.4470
  982SOL     OW 2944   0.452   0.521   0.286  0.0469 -0.0129 -0.6189
  982SOL    HW1 2945   0.439   0.427   0.322  1.5093  1.3975 -1.1780
  982SOL    HW2 2946   0.422   0.533   0.194 -0.2428  0.1152  1.9107
  983SOL     OW 2947   2.215   0.892   0.059 -0.1036  0.2363  0.0822
  983SOL    HW1 2948   2.316   0.890   0.043  2.2165 -2.0598 -1.1507
  983SOL    HW2 2949   2.175   0.861   3.077  0.0762  0.3012 -0.6191
  984SOL     OW 2950   0.782   0.135   2.812 -0.4309  0.6737 -0.0173
  984SOL    HW1 2951   0.792   0.125   2.710 -1.6873  0.3649 -1.2770
  984SOL    HW2 2952   0.854   0.203   2.846 -0.1007  0.8426  0.8197
  985SOL     OW 2953   1.585   2.085   1.890  0.1623 -0.2781 -0.1425
  985SOL    HW1 2954   1.486   2.102   1.871  0.2351  0.6135  0.2129
  985SOL    HW2 2955   1.633   2.176   1.895  0.3801  1.4046  0.6377
  986SOL     OW 2956   2.434   2.671   1.879  0.0694 -0.1792  0.7604
  986SOL    HW1 2957   2.447   2.775   1.882  0.2409  0.1110  0.4747
  986SOL    HW2 2958   2.366   2.638   1.945  0.0525  2.4866  2.1906
  987SOL     OW 2959   1.837   1.134   0.879  0.4856  0.1504 -0.5366
  987SOL    HW1 2960   1.820   1.125   0.979 -0.0653  0.6256 -0.3004
  987SOL    HW2 2961   1.762   1.194   0.844 -0.8618  0.3648  0.3636
  988SOL     OW 2962   2.500   1.448   2.197  0.1345  0.6980 -0.3808
  988SOL    HW1 2963   2.586   1.449   2.145 -2.9892 -0.4350 -1.3284
  988SOL    HW2 2964   2.437   1.507   2.141  1.2799 -1.2641 -1.0304
  989SOL     OW 2965   1.626   2.334   0.165 -0.7768 -0.6582  0.2385
  989SOL    HW1 2966   1.530   2.365   0.180  1.3940  0.0280 -1.1990
  989SOL    HW2 2967   1.700   2.399   0.137 -1.8079 -0.9142 -1.0271
  990SOL     OW 2968   1.757   0.731   2.675  0.7951  0.1627 -0.0560
  990SOL    HW1 2969   1.692   0.812   2.686 -0.0963  1.0032 -0.6411
  990SOL    HW2 2970   1.815   0.722   2.758 -1.0144 -0.5350 -0.0625
  991SOL     OW 2971   0.902   0.580   1.018  0.4501 -0.6454  0.4014
  991SOL    HW1 2972   0.906   0.639   1.098 -0.0918  0.3639 -2.8992
  991SOL    HW2 2973   0.957   0.498   1.030 -1.1689  0.1257 -0.3296
  992SOL     OW 2974   0.007   0.936   1.376 -0.2278 -0.4366 -0.3599
  992SOL    HW1 2975   3.036   1.006   1.368 -0.7666  0.4770  1.7267
  992SOL    HW2 2976   3.097   0.850   1.326  2.4015 -0.3318  1.3192
  993SOL     OW 2977   2.295   0.503   1.958  0.2210  0.1547 -0.1736
  993SOL    HW1 2978   2.240   0.431   1.916  2.1101  2.3198 -1.0990
  993SOL    HW2 2979   2.362   0.541   1.894 -2.6586 -0.4474  0.2258
  994SOL     OW 2980   0.981   1.636   1.959 -0.5578 -0.0756 -0.0253
  994SOL    HW1 2981   0.927   1.569   2.013  0.2347 -0.5993 -0.7774
  994SOL    HW2 2982   0.924   1.701   1.907  0.0816  3.9165  0.0579
  995SOL     OW 2983   2.186   1.526   2.841  0.2334  0.4393  0.1984
  995SOL    HW1 2984   2.141   1.449   2.790 -0.6982  1.5954 -0.3734
  995SOL    HW2 2985   2.133   1.611   2.824  2.4025 -0.9186  2.8087
  996SOL     OW 2986   1.954   1.815   0.525 -0.2260  0.3704 -0.3450
  996SOL    HW1 2987   1.958   1.855   0.623 -0.5546 -0.0495  1.3264
  996SOL    HW2 2988   2.050   1.819   0.485  2.1058  0.3156 -0.3488
  997SOL     OW 2989   2.081   0.348   1.826 -0.1655 -0.3015  0.0822
  997SOL    HW1 2990   2.045   0.352   1.921  0.3962  0.7262  0.9799
  997SOL    HW2 2991   2.069   0.253   1.787 -1.5085  1.3754 -2.1414
  998SOL     OW 2992   2.263   1.134   0.727  0.5781  0.2100  0.0917
  998SOL    HW1 2993   2.354   1.132   0.765  0.5706  2.4629 -0.6323
  998SOL    HW2 2994   2.255   1.084   0.635 -0.5152 -0.4511  1.2484
  999SOL     OW 2995   2.789   1.530   0.344 -0.5161  0.7448 -0.0175
  999SOL    HW1 2996   2.770   1.628   0.368  0.0504  2.8237 -0.9383
  999SOL    HW2 2997   2.813   1.474   0.425 -0.7071  3.3907  0.5468
 1000SOL     OW 2998   0.735   0.876   1.885 -0.3782 -0.2868  0.3611
 1000SOL    HW1 2999   0.785   0.786   1.870  0.8034 -5.5471 -0.4237
 1000SOL    HW2 3000   0.658   0.884   1.816 -3.0511  2.0873 -0.7583
   3.10446   3.10446   3.10446
