1000 SPC/Fw water molecules t= 194.00000 step= 194000
 3000
    1SOL     OW    1   2.841   3.071   1.017  0.1790  0.4392  0.8327
    1SOL    HW1    2   2.760   3.016   1.043  0.8412  1.5882 -3.1955
    1SOL    HW2    3   2.850   3.075   0.916  0.2940  0.6233 -1.6129
    2SOL     OW    4   1.995   1.826   2.142 -0.7596  0.0448 -0.0790
    2SOL    HW1    5   2.006   1.752   2.209 -1.0160  4.2609 -1.8628
    2SOL    HW2    6   1.898   1.854   2.130 -0.0716 -1.8227 -1.0610
    3SOL     OW    7   1.869   2.452   2.015  0.0048 -0.7672  0.2070
    3SOL    HW1    8   1.892   2.550   2.001  1.0350  0.6077 -1.4019
    3SOL    HW2    9   1.933   2.409   2.086  2.4680  5.0159  2.6128
    4SOL     OW   10   1.843   2.121   1.905  0.2037 -0.0857  0.6447
    4SOL    HW1   11   1.895   2.168   1.979 -0.3009  0.5071  1.0796
    4SOL    HW2   12   1.751   2.161   1.894  2.6885  1.1359  1.1580
    5SOL     OW   13   1.338   0.695   1.681  0.2944 -0.3776 -0.2177
    5SOL    HW1   14   1.268   0.666   1.611 -2.1455 -0.2562 -2.5267
    5SOL    HW2   15   1.365   0.791   1.668 -0.6879 -1.7094  0.6937
    6SOL     OW   16   2.847   0.694   2.882  0.4563  0.0041 -0.5532
    6SOL    HW1   17   2.869   0.643   2.967  1.0326 -0.2771 -0.8186
    6SOL    HW2   18   2.744   0.712   2.877  0.5394 -1.2544 -0.0213
    7SOL     OW   19   1.122   0.886   1.438  0.2551  0.0607 -0.3574
    7SOL    HW1   20   1.045   0.943   1.466  0.4031 -1.8530 -0.9502
    7SOL    HW2   21   1.128   0.873   1.335  0.0010 -0.8834  0.7969
    8SOL     OW   22   1.222   0.457   0.823  0.4880  0.2453 -0.6559
    8SOL    HW1   23   1.289   0.387   0.851  2.3326 -0.2692 -0.2288
    8SOL    HW2   24   1.271   0.539   0.786  2.4775  0.2089  0.7460
    9SOL     OW   25   1.141   1.009   2.819 -0.3158 -0.4638  0.1141
    9SOL    HW1   26   1.092   1.090   2.796  0.5791 -2.6075  0.0847
    9SOL    HW2   27   1.121   0.984   2.915 -0.4671 -0.5737 -0.0657
   10SOL     OW   28   0.195   2.693   0.467  0.1112 -0.5460  0.2065
   10SOL    HW1   29   0.266   2.621   0.443  0.6877 -1.4467 -0.5428
   10SOL    HW2   30   0.184   2.754   0.387  0.5179  1.7800  2.3403
   11SOL     OW   31   0.612   1.470   3.069 -0.2850 -0.4685  0.2371
   11SOL    HW1   32   0.627   1.406   2.987 -0.3831  1.3242 -0.4602
   11SOL    HW2   33   0.511   1.486   3.080 -2.6127 -0.9703 -1.9163
   12SOL     OW   34   0.566   0.326   1.499 -0.0053  0.4733  0.0136
   12SOL    HW1   35   0.582   0.231   1.529 -0.9400  0.1742  0.6636
   12SOL    HW2   36   0.535   0.384   1.579  0.4156 -1.5141  1.5929
   13SOL     OW   37   0.771   2.799   0.586  0.4709  0.1848  0.2716
   13SOL    HW1   38   0.850   2.854   0.556 -0.4729 -1.3180  0.5677
   13SOL    HW2   39   0.799   2.710   0.626  1.4867  2.5299  1.3956
   14SOL     OW   40   1.202   2.166   1.190 -0.2202 -0.5375 -0.2873
   14SOL    HW1   41   1.134   2.242   1.173  0.9666  2.1122  1.1498
   14SOL    HW2   42   1.185   2.093   1.129 -1.3353 -0.2139  4.0578
   15SOL     OW   43   2.882   0.756   2.074 -0.2206 -0.1921  0.0135
   15SOL    HW1   44   2.841   0.815   2.001  0.6973  2.5185  0.8945
   15SOL    HW2   45   2.823   0.672   2.097  1.6254 -0.7816  1.7894
   16SOL     OW   46   1.166   2.748   2.870  0.1332  0.4052  0.4974
   16SOL    HW1   47   1.152   2.848   2.879  3.8072 -3.6210 -1.3915
   16SOL    HW2   48   1.080   2.700   2.853  0.0814  0.7488 -0.2879
   17SOL     OW   49   0.979   0.104   1.347  0.4110 -0.1290 -0.4306
   17SOL    HW1   50   0.919   0.174   1.394 -0.1634  2.9355  0.7205
   17SOL    HW2   51   1.026   0.157   1.271 -1.1218  0.3878  0.3621
   18SOL     OW   52   1.231   0.628   0.299 -0.2884  0.2283  0.0087
   18SOL    HW1   53   1.148   0.567   0.284  0.9548 -1.8839  0.3260
   18SOL    HW2   54   1.310   0.593   0.256 -1.4573 -0.3266  2.4132
   19SOL     OW   55   2.050   1.396   3.040  0.4199  0.4949 -0.0265
   19SOL    HW1   56   2.125   1.462   3.073  2.0003  2.2557  1.2524
   19SOL    HW2   57   2.081   1.303   3.012  0.5887 -3.6532 -1.3570
   20SOL     OW   58   1.834   1.603   1.672 -0.0499  0.2359  0.4602
   20SOL    HW1   59   1.817   1.650   1.758  0.0786 -0.6435 -0.5766
   20SOL    HW2   60   1.751   1.554   1.641 -0.1450 -1.6797  0.6377
   21SOL     OW   61   0.684   1.134   0.094  0.3970 -0.4822  0.0746
   21SOL    HW1   62   0.756   1.198   0.055  1.5154 -0.3939 -0.2132
   21SOL    HW2   63   0.600   1.126   0.034 -1.6914 -1.5643  0.0791
   22SOL     OW   64   2.148   0.252   1.186  0.7951 -0.1628 -0.1338
   22SOL    HW1   65   2.114   0.264   1.280 -2.1236 -1.6212 -0.6987
   22SOL    HW2   66   2.076   0.264   1.118  1.2137  1.0238  1.1360
   23SOL     OW   67   0.218   1.087   1.465 -0.3615  0.0507  0.2333
   23SOL    HW1   68   0.204   0.987   1.485  0.1192 -1.9364 -2.6091
   23SOL    HW2   69   0.159   1.125   1.391 -1.8254  2.0881 -1.5095
   24SOL     OW   70   2.446   2.478   1.340  0.1094  0.9430 -0.0973
   24SOL    HW1   71   2.478   2.513   1.251  1.9109 -2.2070  1.1437
   24SOL    HW2   72   2.514   2.489   1.415 -1.5338  0.4699 -0.7244
   25SOL     OW   73   1.905   2.529   2.605  0.2314  0.2833  0.3872
   25SOL    HW1   74   1.965   2.498   2.521  2.2789  1.5879 -3.3843
   25SOL    HW2   75   1.811   2.489   2.587 -1.5707 -0.0866 -1.4871
   26SOL     OW   76   0.948   2.620   3.026  0.3480 -0.0423 -0.3137
   26SOL    HW1   77   0.881   2.564   2.973 -2.2910  0.3129  0.1518
   26SOL    HW2   78   0.993   2.552   3.083 -1.0190 -1.7494 -1.0921
   27SOL     OW   79   0.523   2.185   2.676 -0.4542  0.1632 -0.2042
   27SOL    HW1   80   0.515   2.084   2.665 -0.5976  2.4549 -3.4910
   27SOL    HW2   81   0.442   2.231   2.631  0.5024 -0.5503 -2.9675
   28SOL     OW   82   0.054   1.514   1.376  0.2786 -0.1026 -0.1691
   28SOL    HW1   83   3.072   1.522   1.317  0.7753  1.2986 -0.8914
   28SOL    HW2   84   0.055   1.591   1.444  0.9908 -0.3687  0.7910
   29SOL     OW   85   2.676   2.092   2.229 -0.4147  0.3883 -0.1207
   29SOL    HW1   86   2.747   2.043   2.289 -0.9218  0.9286  1.3458
   29SOL    HW2   87   2.705   2.111   2.127  1.8949  0.7298  0.5859
   30SOL     OW   88   1.123   2.861   0.780 -0.0212  0.0771 -0.3511
   30SOL    HW1   89   1.185   2.780   0.807 -0.5038 -1.1628  1.2776
   30SOL    HW2   90   1.048   2.883   0.849 -2.0835 -0.6204 -0.8204
   31SOL     OW   91   2.941   2.424   1.919 -0.3198  0.0738 -0.1691
   31SOL    HW1   92   3.036   2.412   1.952  2.7650 -0.1907 -0.4352
   31SOL    HW2   93   2.943   2.392   1.817  0.5254 -1.6164  0.4564
   32SOL     OW   94   1.189   0.937   1.821 -0.5463  0.2370 -0.4903
   32SOL    HW1   95   1.195   0.952   1.720  1.2330 -2.2626 -0.0582
   32SOL    HW2   96   1.244   1.009   1.870  1.1772 -2.0262  0.9790
   33SOL     OW   97   0.341   2.714   2.452  0.5514  0.1290 -0.4361
   33SOL    HW1   98   0.291   2.641   2.506 -1.7812 -0.5248 -1.0535
   33SOL    HW2   99   0.277   2.757   2.388  0.2654  0.5759  0.1067
   34SOL     OW  100   2.045   0.005   0.611 -0.2498 -0.5316  0.0736
   34SOL    HW1  101   2.137   0.036   0.583 -0.2324 -4.0686 -1.3176
   34SOL    HW2  102   2.044   3.020   0.661 -0.7878 -2.8746  2.8098
   35SOL     OW  103   2.469   0.384   0.971  0.0727  0.1330 -0.1659
   35SOL    HW1  104   2.385   0.430   0.943  0.9924  0.6081  0.8803
   35SOL    HW2  105   2.525   0.356   0.888  0.1404  1.1820  1.0570
   36SOL     OW  106   2.117   2.709   2.155 -0.2928  0.2733  0.1043
   36SOL    HW1  107   2.128   2.606   2.151  2.1295 -0.1622  2.6984
   36SOL    HW2  108   2.025   2.739   2.113  0.9801  1.8802 -1.1442
   37SOL     OW  109   0.880   2.577   2.272 -0.0206  0.1594  1.1565
   37SOL    HW1  110   0.923   2.539   2.186  0.3572  0.3996 -2.4797
   37SOL    HW2  111   0.912   2.527   2.356 -2.2156  1.2604  1.3061
   38SOL     OW  112   2.692   0.412   2.851  0.4899 -0.3768  0.8999
   38SOL    HW1  113   2.699   0.310   2.852 -1.1331 -0.4288 -1.3400
   38SOL    HW2  114   2.683   0.448   2.945 -2.2862  0.7900  1.6102
   39SOL     OW  115   2.154   1.685   1.956 -0.0310  0.1218  0.0957
   39SOL    HW1  116   2.088   1.738   2.012 -1.1424 -1.2159  0.1856
   39SOL    HW2  117   2.186   1.747   1.880 -0.7594 -1.0615 -0.6324
   40SOL     OW  118   0.231   3.069   2.702  0.4807  0.0577  0.0952
   40SOL    HW1  119   0.131   3.057   2.676 -1.6540 -1.5366 -1.2236
   40SOL    HW2  120   0.295   3.040   2.630 -5.6524 -0.1907  0.0775
   41SOL     OW  121   1.864   0.446   0.998 -0.5654  0.2949  0.6056
   41SOL    HW1  122   1.948   0.480   1.045  3.2375 -0.3767  0.2525
   41SOL    HW2  123   1.861   0.495   0.907  0.6577  3.9421  2.3958
   42SOL     OW  124   0.776   0.326   1.333 -0.8437  0.1214  0.0812
   42SOL    HW1  125   0.845   0.384   1.381 -1.8200  0.0956  0.4269
   42SOL    HW2  126   0.687   0.323   1.382  2.5702  1.0005 -0.6812
   43SOL     OW  127   2.457   1.059   2.117 -0.8263  0.1056  0.2784
   43SOL    HW1  128   2.424   1.025   2.026 -0.5986 -0.1171  0.9759
   43SOL    HW2  129   2.550   1.019   2.153  4.0685 -3.9025  3.2782
   44SOL     OW  130   2.941   2.896   0.342  0.0534 -0.2485 -0.1577
   44SOL    HW1  131   2.916   2.994   0.336 -1.7828  1.2565 -0.3686
   44SOL    HW2  132   2.982   2.873   0.430 -1.3797  2.0929  0.1581
   45SOL     OW  133   3.082   2.659   1.941  0.0464 -0.0523 -0.2286
   45SOL    HW1  134   3.011   2.605   1.895 -1.4405  0.1246 -1.3351
   45SOL    HW2  135   0.017   2.739   1.883 -0.3116  0.8314 -2.5407
   46SOL     OW  136   2.282   2.337   1.932  0.5622 -0.1357 -0.5287
   46SOL    HW1  137   2.193   2.330   1.883  0.8385  0.6056 -1.3978
   46SOL    HW2  138   2.351   2.394   1.886 -0.5759 -1.3193  2.4882
   47SOL     OW  139   1.637   2.236   1.343  0.1991  0.5574 -0.2304
   47SOL    HW1  140   1.571   2.245   1.261 -0.7280 -2.3140 -0.5779
   47SOL    HW2  141   1.686   2.144   1.332 -0.6335  0.3047 -1.3819
   48SOL     OW  142   0.556   1.782   0.389  0.7307 -0.1154 -0.3129
   48SOL    HW1  143   0.598   1.859   0.338  2.2001  1.3411 -1.1666
   48SOL    HW2  144   0.603   1.775   0.481 -0.3272  0.7488 -0.1329
   49SOL     OW  145   2.872   0.290   2.545  0.2256  0.4116 -0.0341
   49SOL    HW1  146   2.967   0.320   2.534 -0.8335  0.4569 -1.1195
   49SOL    HW2  147   2.809   0.370   2.570 -0.1093  1.2228  1.6817
   50SOL     OW  148   2.219   0.754   0.431 -0.2129 -0.0238  0.0383
   50SOL    HW1  149   2.294   0.725   0.493  0.7042 -1.9018  1.4031
   50SOL    HW2  150   2.260   0.751   0.337  3.2173 -0.9793 -1.9983
   51SOL     OW  151   1.646   0.374   1.135 -0.0767  0.4958  0.1626
   51SOL    HW1  152   1.637   0.272   1.124  0.4433 -0.5440 -0.0748
   51SOL    HW2  153   1.725   0.397   1.071 -2.7843 -2.0191 -1.2725
   52SOL     OW  154   1.161   1.181   0.100  0.8205  0.2653 -0.6395
   52SOL    HW1  155   1.124   1.096   0.052 -0.7783 -0.7467 -3.0766
   52SOL    HW2  156   1.262   1.200   0.091  3.3234  1.8609  1.1207
   53SOL     OW  157   0.831   1.695   2.567 -0.1393  0.2309 -0.6935
   53SOL    HW1  158   0.817   1.786   2.521  0.3632 -4.4148 -2.1628
   53SOL    HW2  159   0.804   1.698   2.666  1.8112  1.1575  1.2215
   54SOL     OW  160   2.034   0.183   0.896 -0.2354 -0.3210 -0.1977
   54SOL    HW1  161   2.050   0.084   0.918  0.1680  0.7342  3.0099
   54SOL    HW2  162   1.942   0.191   0.849  2.2740 -0.3257  1.3005
   55SOL     OW  163   2.438   2.724   0.642  0.4515  0.5625 -0.2686
   55SOL    HW1  164   2.516   2.768   0.594  1.3602 -1.3526 -1.0380
   55SOL    HW2  165   2.349   2.771   0.624  1.4876  0.1983 -0.8847
   56SOL     OW  166   0.582   0.093   1.631  0.5279 -0.9387  0.2732
   56SOL    HW1  167   0.530   0.108   1.717 -0.4008  0.6973  0.0284
   56SOL    HW2  168   0.655   0.021   1.642  3.4693 -0.7074 -0.9518
   57SOL     OW  169   1.666   1.128   0.485  0.4797 -0.1175 -0.8857
   57SOL    HW1  170   1.593   1.063   0.511 -0.1756 -1.6778 -1.3416
   57SOL    HW2  171   1.631   1.204   0.424 -0.4846  1.2364 -0.0689
   58SOL     OW  172   0.179   0.838   2.557 -0.0569 -0.3833  0.3720
   58SOL    HW1  173   0.182   0.938   2.551  1.5512 -1.2848 -0.1499
   58SOL    HW2  174   0.101   0.799   2.504 -0.4339 -0.8270  1.9040
   59SOL     OW  175   0.996   2.816   2.602 -0.4157  0.5103 -0.1386
   59SOL    HW1  176   1.016   2.717   2.635 -0.2121 -1.4541  2.6250
   59SOL    HW2  177   0.897   2.834   2.605 -2.3864  1.8176  1.8421
   60SOL     OW  178   2.504   2.754   0.899  0.5214 -0.7332 -0.0113
   60SOL    HW1  179   2.489   2.743   0.798 -1.1768  1.1284 -0.1835
   60SOL    HW2  180   2.435   2.827   0.931  1.7752  1.3964  0.2361
   61SOL     OW  181   1.003   2.332   0.717  0.2888  0.1116  0.5495
   61SOL    HW1  182   0.988   2.394   0.637  1.4047  1.5782  0.2242
   61SOL    HW2  183   1.004   2.396   0.798  0.6797  1.8396 -0.9847
   62SOL     OW  184   2.186   2.221   2.587  0.6416  0.1567  0.6051
   62SOL    HW1  185   2.179   2.145   2.514 -1.1741  0.5944 -0.4893
   62SOL    HW2  186   2.257   2.201   2.661  0.9952 -3.0378 -0.2723
   63SOL     OW  187   2.107   0.814   2.840 -0.0252 -0.0118  0.7030
   63SOL    HW1  188   2.100   0.809   2.941 -1.8270 -0.5218 -0.7276
   63SOL    HW2  189   2.110   0.721   2.794 -1.9083  1.7698 -0.7032
   64SOL     OW  190   1.136   0.593   2.952  0.6629  0.0997 -0.6981
   64SOL    HW1  191   1.112   0.622   2.858  0.8141  1.7367  1.2549
   64SOL    HW2  192   1.227   0.628   2.973 -1.2543 -1.5603  2.2819
   65SOL     OW  193   1.005   2.003   0.519  0.1055  0.2349  0.0642
   65SOL    HW1  194   1.097   2.058   0.524  2.0633  0.5405  1.3361
   65SOL    HW2  195   0.931   2.032   0.586 -4.3762 -0.8064 -0.4270
   66SOL     OW  196   0.454   1.276   2.000  0.1691  0.2987 -0.2496
   66SOL    HW1  197   0.401   1.334   2.067 -0.6333 -0.0610 -0.8476
   66SOL    HW2  198   0.551   1.303   1.996 -4.1653 -0.8796 -1.3612
   67SOL     OW  199   2.250   2.826   2.366  0.1618  0.3732  0.4685
   67SOL    HW1  200   2.204   2.916   2.385 -1.0586  0.2894  3.1239
   67SOL    HW2  201   2.199   2.775   2.292 -4.4063 -1.8398  0.4238
   68SOL     OW  202   0.498   1.654   1.403 -0.0530  0.6454  0.2189
   68SOL    HW1  203   0.483   1.553   1.389 -1.3021 -4.9122 -1.1612
   68SOL    HW2  204   0.593   1.673   1.437  1.3405 -0.7241 -0.7199
   69SOL     OW  205   1.064   2.435   0.076  0.0198 -0.0936 -0.3439
   69SOL    HW1  206   1.077   2.481   0.168 -0.2485  0.1770  0.9661
   69SOL    HW2  207   1.147   2.455   0.019 -0.8937 -2.0183  0.1476
   70SOL     OW  208   3.020   1.006   2.790  0.3003 -0.0513 -0.4910
   70SOL    HW1  209   3.098   0.952   2.826 -1.1339  2.1784  1.2665
   70SOL    HW2  210   3.019   1.011   2.690 -1.1185  1.8016  0.2009
   71SOL     OW  211   2.989   1.538   2.875 -0.1711  0.3057  0.1394
   71SOL    HW1  212   3.074   1.569   2.831 -1.7521 -0.0782 -0.3308
   71SOL    HW2  213   2.909   1.576   2.828 -0.7240 -1.0563  0.1310
   72SOL     OW  214   2.900   2.249   0.196 -1.0609 -0.1789 -0.3078
   72SOL    HW1  215   2.903   2.155   0.229  1.3436  1.7273 -1.2798
   72SOL    HW2  216   2.961   2.296   0.260  0.0750 -2.0636 -1.3683
   73SOL     OW  217   0.955   1.337   0.199 -0.2289 -0.3028 -0.3782
   73SOL    HW1  218   0.917   1.306   0.287 -2.8692  0.9109 -0.0201
   73SOL    HW2  219   1.012   1.262   0.155  0.0409  3.2742  1.1951
   74SOL     OW  220   0.098   1.010   0.009 -0.6274  0.6441  0.1367
   74SOL    HW1  221   0.154   1.085   3.069  2.7480  0.0982 -0.3173
   74SOL    HW2  222   0.098   0.938   3.041  0.8481 -1.6615  2.9559
   75SOL     OW  223   1.973   1.443   1.855  0.2901 -0.3030 -0.6649
   75SOL    HW1  224   2.006   1.506   1.925 -0.6229 -2.5298 -0.6898
   75SOL    HW2  225   1.926   1.501   1.782 -0.6797  1.7200 -1.5812
   76SOL     OW  226   2.067   2.386   1.583  0.0166  0.5915 -0.0919
   76SOL    HW1  227   2.089   2.298   1.635 -1.5640 -0.9087  0.2142
   76SOL    HW2  228   2.001   2.375   1.510 -0.1725 -0.0234  3.1110
   77SOL     OW  229   2.614   0.592   1.261  0.4048  0.2471  0.2546
   77SOL    HW1  230   2.672   0.643   1.330 -1.2694 -0.8206  0.8336
   77SOL    HW2  231   2.673   0.536   1.197  0.6660  0.4257 -0.1560
   78SOL     OW  232   1.762   0.998   0.114  0.2614  0.7431 -0.2262
   78SOL    HW1  233   1.745   1.096   0.084  0.1055  2.1352 -2.5783
   78SOL    HW2  234   1.815   0.996   0.199  0.1543 -1.1818 -0.1105
   79SOL     OW  235   0.422   1.706   1.816 -0.2364 -0.4035 -0.0830
   79SOL    HW1  236   0.512   1.752   1.826 -0.7762 -0.3457 -1.2796
   79SOL    HW2  237   0.370   1.753   1.748  0.7487  1.2588  2.7919
   80SOL     OW  238   1.617   1.244   1.496  0.1541  0.6671  0.4878
   80SOL    HW1  239   1.625   1.166   1.563 -0.9936  2.1100 -4.5173
   80SOL    HW2  240   1.535   1.234   1.442  1.3156 -1.3646 -2.8403
   81SOL     OW  241   0.678   3.083   1.054  0.8328  0.5528 -0.0988
   81SOL    HW1  242   0.639   3.050   0.963 -1.2640  1.1142  3.8449
   81SOL    HW2  243   0.659   0.079   1.059  1.1615 -3.5190  1.8476
   82SOL     OW  244   1.828   2.709   1.568  0.4564 -0.1395 -0.1709
   82SOL    HW1  245   1.817   2.681   1.467  1.5114 -3.3039 -0.5983
   82SOL    HW2  246   1.850   2.622   1.623  0.4547 -0.7674 -1.1325
   83SOL     OW  247   0.722   2.566   1.219 -0.1650  0.1411  0.3622
   83SOL    HW1  248   0.622   2.582   1.221  1.6093  0.8277 -1.4810
   83SOL    HW2  249   0.754   2.468   1.225  3.5560  0.7038  1.3517
   84SOL     OW  250   0.369   1.071   2.581 -0.2141 -0.0051  0.2301
   84SOL    HW1  251   0.274   1.087   2.548 -0.0275 -1.3175 -0.5521
   84SOL    HW2  252   0.421   1.028   2.506  0.1992 -0.5046  0.3458
   85SOL     OW  253   0.018   2.338   1.371 -0.2686 -0.4839  0.3952
   85SOL    HW1  254   0.011   2.428   1.422  0.4585  1.7055  0.2456
   85SOL    HW2  255   0.026   2.358   1.272  1.1701 -0.7233  0.3834
   86SOL     OW  256   2.738   2.354   1.461 -0.1684 -0.6785  0.0957
   86SOL    HW1  257   2.736   2.456   1.438  1.9288  3.8962 -0.0658
   86SOL    HW2  258   2.730   2.282   1.384 -0.4272 -0.4754 -2.6114
   87SOL     OW  259   2.505   2.094   2.965 -0.4233  0.9415  0.3620
   87SOL    HW1  260   2.533   2.188   2.993  0.2584 -1.0681 -1.5065
   87SOL    HW2  261   2.462   2.043   3.039  1.5172  1.3864 -1.6359
   88SOL     OW  262   0.312   1.759   1.236  0.3849 -0.0050 -0.3837
   88SOL    HW1  263   0.224   1.789   1.278  1.0581 -0.0842 -3.0501
   88SOL    HW2  264   0.382   1.729   1.307 -0.1703  0.2801  1.4386
   89SOL     OW  265   1.044   0.073   1.678 -0.4057  0.5872 -0.3630
   89SOL    HW1  266   1.091   3.084   1.663  1.2667 -2.8741 -1.5091
   89SOL    HW2  267   1.107   0.152   1.653  0.9122  1.4265 -0.8986
   90SOL     OW  268   2.979   1.794   1.716  0.4125  0.1179  0.4551
   90SOL    HW1  269   2.880   1.779   1.715  0.1218 -2.3307 -2.3739
   90SOL    HW2  270   3.004   1.893   1.730 -3.1191 -2.9727  1.5759
   91SOL     OW  271   1.066   1.758   0.614 -0.3542  0.1112  0.3887
   91SOL    HW1  272   1.040   1.813   0.535 -0.3196  0.1403 -0.5336
   91SOL    HW2  273   1.096   1.815   0.689  2.0986  2.0267  1.1498
   92SOL     OW  274   2.347   0.063   1.094 -0.0639  0.0380 -0.4476
   92SOL    HW1  275   2.282   0.118   1.149 -1.2040  0.0039  3.0991
   92SOL    HW2  276   2.345   0.087   0.996 -1.6274 -0.3644  2.5348
   93SOL     OW  277   2.892   1.259   2.848  0.1284  0.0292 -0.1593
   93SOL    HW1  278   2.943   1.171   2.827  0.8956 -1.7097  0.3549
   93SOL    HW2  279   2.949   1.342   2.832  1.1633 -0.3380 -3.1263
   94SOL     OW  280   2.691   2.611   2.464  0.0228  0.2000  0.3319
   94SOL    HW1  281   2.646   2.520   2.474 -0.1557 -0.0036 -0.2105
   94SOL    HW2  282   2.616   2.681   2.481 -1.8363 -2.0309  2.2240
   95SOL     OW  283   1.689   0.254   1.571 -0.1052 -0.6458 -0.2122
   95SOL    HW1  284   1.710   0.340   1.522 -0.4444 -2.5090 -0.1010
   95SOL    HW2  285   1.776   0.209   1.598 -3.7948  2.5248  1.4192
   96SOL     OW  286   2.931   0.074   1.707 -0.2955 -0.3568 -0.1634
   96SOL    HW1  287   2.996   0.085   1.632  0.6979 -1.2107  1.6130
   96SOL    HW2  288   2.967   0.025   1.786 -3.2598  1.3034 -1.6618
   97SOL     OW  289   2.213   0.422   1.585 -0.1418  0.1755 -0.1595
   97SOL    HW1  290   2.310   0.409   1.550 -0.0020 -0.7395 -0.0849
   97SOL    HW2  291   2.220   0.409   1.685  2.4098  1.1597  0.5736
   98SOL     OW  292   1.252   2.225   1.459  0.2868  0.2811 -0.1129
   98SOL    HW1  293   1.344   2.254   1.480 -0.9174 -1.0656 -0.3634
   98SOL    HW2  294   1.236   2.189   1.362 -0.4827 -2.4143 -2.8171
   99SOL     OW  295   0.098   2.896   1.815 -0.1251 -0.6387  0.8767
   99SOL    HW1  296   0.190   2.941   1.825  1.2729  1.3948 -1.8714
   99SOL    HW2  297   0.029   2.954   1.858 -0.3790  0.4088 -1.6042
  100SOL     OW  298   0.066   1.411   2.357 -0.6898 -0.4055  0.2924
  100SOL    HW1  299   0.125   1.425   2.275  0.9811 -2.9778 -1.9776
  100SOL    HW2  300   0.042   1.497   2.406  0.1881 -2.2806  0.3194
  101SOL     OW  301   1.922   0.726   0.466 -0.1248 -0.0702  0.3431
  101SOL    HW1  302   2.008   0.775   0.482  0.2845 -0.3054 -1.1053
  101SOL    HW2  303   1.840   0.781   0.489 -0.9333 -0.4580 -0.3714
  102SOL     OW  304   0.193   0.665   1.064  0.7848  0.4075  0.5040
  102SOL    HW1  305   0.124   0.592   1.053  1.5014 -1.2465 -0.7031
  102SOL    HW2  306   0.153   0.754   1.029  0.1000 -3.2827  0.7440
  103SOL     OW  307   2.607   0.776   2.607  0.2561  0.4553  0.4729
  103SOL    HW1  308   2.570   0.762   2.702 -2.7853 -0.3823  0.1701
  103SOL    HW2  309   2.533   0.804   2.543 -0.5178  0.0430 -0.4145
  104SOL     OW  310   0.255   0.318   2.446  0.2912 -0.6935  0.1035
  104SOL    HW1  311   0.352   0.318   2.412 -1.6693 -3.0838  1.0756
  104SOL    HW2  312   0.240   0.259   2.527 -1.0790 -1.0558  1.3472
  105SOL     OW  313   2.042   0.931   1.631  0.3851  0.2154  0.3790
  105SOL    HW1  314   2.029   0.889   1.536  1.7944  2.8845 -0.6710
  105SOL    HW2  315   2.006   1.027   1.639  1.4668 -1.6849  3.7460
  106SOL     OW  316   1.016   2.909   0.536  0.0971  0.0425 -0.2712
  106SOL    HW1  317   0.986   3.007   0.547 -1.4834 -1.1652 -0.7454
  106SOL    HW2  318   1.065   2.875   0.620 -1.1517 -2.1378  0.4996
  107SOL     OW  319   0.328   1.779   1.581  0.2800  0.3936 -0.0596
  107SOL    HW1  320   0.229   1.763   1.570  1.1689 -4.3510 -0.0430
  107SOL    HW2  321   0.379   1.725   1.510 -2.8949  0.7218  1.3671
  108SOL     OW  322   0.336   0.036   2.282  0.1870 -0.1460 -0.2523
  108SOL    HW1  323   0.362   3.094   2.368 -0.0115 -0.1809 -1.5253
  108SOL    HW2  324   0.384   0.125   2.287 -1.6798  1.2869  0.9571
  109SOL     OW  325   2.245   0.066   0.429  0.4715  0.4020 -0.3996
  109SOL    HW1  326   2.200   0.000   0.368  1.7253 -2.1983  0.3631
  109SOL    HW2  327   2.246   0.162   0.393  0.8239  0.1136 -1.9531
  110SOL     OW  328   0.277   2.201   2.347  0.5632 -0.3856  0.2440
  110SOL    HW1  329   0.294   2.265   2.268  0.4307 -0.0597 -1.1159
  110SOL    HW2  330   0.269   2.259   2.431  0.1193  0.1033 -0.9706
  111SOL     OW  331   1.676   2.827   2.156 -0.8251 -0.1802 -0.0569
  111SOL    HW1  332   1.598   2.862   2.097 -0.3472  1.3929 -1.5823
  111SOL    HW2  333   1.732   2.907   2.189  1.7211 -2.0025  0.0950
  112SOL     OW  334   1.902   2.140   2.712  0.1313 -0.1190 -0.4402
  112SOL    HW1  335   1.832   2.118   2.641  0.3972 -1.0496  1.1091
  112SOL    HW2  336   1.946   2.232   2.701 -1.5023 -0.9943  0.5609
  113SOL     OW  337   2.486   2.436   1.774  0.1852  0.5943  0.0403
  113SOL    HW1  338   2.574   2.484   1.791  0.9740 -0.7312 -0.9170
  113SOL    HW2  339   2.508   2.344   1.735 -0.2663  1.2796  0.0558
  114SOL     OW  340   2.479   0.790   0.962 -0.4536  0.2105 -0.0051
  114SOL    HW1  341   2.550   0.732   0.915 -1.8675  0.0960 -0.8273
  114SOL    HW2  342   2.470   0.880   0.919 -0.6998 -2.6011 -0.0998
  115SOL     OW  343   0.146   1.592   2.794 -0.1240  0.1858  0.4244
  115SOL    HW1  344   0.242   1.559   2.796 -0.8672  2.0881  1.0082
  115SOL    HW2  345   0.131   1.674   2.852 -2.8030 -0.6538 -1.1694
  116SOL     OW  346   0.247   1.429   2.159  0.3178 -0.0380  0.4196
  116SOL    HW1  347   0.261   1.522   2.117  0.8717  0.2946  3.3819
  116SOL    HW2  348   0.175   1.374   2.107 -0.8078 -3.0169 -1.4219
  117SOL     OW  349   2.648   0.398   0.732  0.0692 -0.0055  0.4454
  117SOL    HW1  350   2.739   0.357   0.738 -2.0299 -1.6634  1.0696
  117SOL    HW2  351   2.599   0.369   0.644 -1.1493  0.1013 -1.3918
  118SOL     OW  352   0.962   2.112   1.805  0.9191 -0.7115  0.0410
  118SOL    HW1  353   0.857   2.114   1.811 -2.9679 -1.1720 -0.6031
  118SOL    HW2  354   0.998   2.192   1.749  1.0919  2.4565  1.1548
  119SOL     OW  355   1.389   2.097   0.052  0.0894 -0.7572  0.1267
  119SOL    HW1  356   1.419   2.004   0.078  3.5004  3.1065  0.1388
  119SOL    HW2  357   1.289   2.107   0.040 -0.5697 -1.7000 -0.4885
  120SOL     OW  358   0.442   1.524   2.597  0.6742  0.2672 -0.1271
  120SOL    HW1  359   0.404   1.619   2.590 -2.0667  2.5362 -1.1736
  120SOL    HW2  360   0.413   1.477   2.508 -2.4347  1.6755  1.1107
  121SOL     OW  361   1.934   2.664   1.035 -0.2686  0.4024  0.3844
  121SOL    HW1  362   1.999   2.617   0.971 -1.8682  3.2163 -0.6771
  121SOL    HW2  363   1.840   2.624   1.018  0.3821  0.8681  1.2867
  122SOL     OW  364   2.312   2.068   2.001 -0.3648 -0.4447  0.1053
  122SOL    HW1  365   2.380   2.014   2.049 -1.1601  0.9893  1.7183
  122SOL    HW2  366   2.333   2.163   1.988 -0.2033 -0.6213 -1.5504
  123SOL     OW  367   2.843   0.207   0.669 -0.4015 -0.2787  0.3097
  123SOL    HW1  368   2.923   0.216   0.602 -0.0711 -0.0042  0.0605
  123SOL    HW2  369   2.804   0.114   0.684 -0.2742  4.0571  3.0024
  124SOL     OW  370   1.776   0.305   2.502 -0.2301  0.3573 -0.2649
  124SOL    HW1  371   1.776   0.347   2.409  0.8914 -0.6140 -0.1343
  124SOL    HW2  372   1.753   0.206   2.501 -1.4554 -0.1940 -1.2048
  125SOL     OW  373   0.493   1.516   0.446  0.3888  0.0132  0.1975
  125SOL    HW1  374   0.528   1.599   0.398 -0.8699 -1.4057 -0.9057
  125SOL    HW2  375   0.497   1.434   0.380  1.7671 -2.4161 -0.5241
  126SOL     OW  376   2.387   1.851   0.420  0.6003 -0.0478 -0.0127
  126SOL    HW1  377   2.413   1.787   0.344  0.8319  3.2368 -0.3477
  126SOL    HW2  378   2.428   1.811   0.504 -0.3389 -0.0538  1.0688
  127SOL     OW  379   0.060   1.745   1.513  0.0242 -0.0934 -0.3489
  127SOL    HW1  380   3.088   1.774   1.579  0.1694 -1.2055 -0.2929
  127SOL    HW2  381   0.058   1.803   1.430  1.3850  0.1820  1.3394
  128SOL     OW  382   0.882   0.521   2.956  0.1794 -0.4945 -0.3843
  128SOL    HW1  383   0.975   0.537   2.998 -0.1213  0.3542  1.4709
  128SOL    HW2  384   0.817   0.596   2.983  1.6548 -1.6049 -0.1565
  129SOL     OW  385   2.176   1.623   1.010 -0.5445  0.5512  0.7446
  129SOL    HW1  386   2.202   1.533   1.051 -0.4694  0.1960 -1.3505
  129SOL    HW2  387   2.074   1.621   0.992  0.4975  0.4033 -0.9514
  130SOL     OW  388   2.243   1.508   1.381  0.9771  0.0492 -0.3963
  130SOL    HW1  389   2.272   1.477   1.294  0.0816 -0.9994  1.3472
  130SOL    HW2  390   2.311   1.470   1.452  1.1569 -1.4469  2.1038
  131SOL     OW  391   2.877   0.941   3.011  0.7939 -0.5676 -0.1996
  131SOL    HW1  392   2.946   0.968   2.941  0.6908 -1.6465 -0.3126
  131SOL    HW2  393   2.837   0.852   2.978 -0.0425  0.0287 -0.1625
  132SOL     OW  394   2.575   2.209   1.633 -0.7932 -0.0386 -0.3708
  132SOL    HW1  395   2.630   2.260   1.563 -2.0841 -0.8035  2.6596
  132SOL    HW2  396   2.641   2.152   1.689 -1.9911 -0.0427 -0.6810
  133SOL     OW  397   0.686   0.999   0.870  0.1642 -0.2077  0.5607
  133SOL    HW1  398   0.771   1.051   0.887 -3.0177 -0.8454  1.4535
  133SOL    HW2  399   0.705   0.907   0.899 -0.8277  0.4570 -0.8502
  134SOL     OW  400   0.235   0.942   0.272  0.1652 -0.1401  0.0559
  134SOL    HW1  401   0.173   0.903   0.343  2.1417  1.5153  0.4057
  134SOL    HW2  402   0.197   0.923   0.178 -2.6382 -1.9078  0.7277
  135SOL     OW  403   2.252   1.381   1.117  0.3480 -0.2034  0.2216
  135SOL    HW1  404   2.307   1.294   1.113  1.9369  2.8069  1.5911
  135SOL    HW2  405   2.157   1.355   1.140  2.1568  1.8353 -0.5812
  136SOL     OW  406   2.124   0.989   0.801  0.2563  0.2039 -0.4295
  136SOL    HW1  407   2.178   0.909   0.825 -3.3316  0.4434 -1.4706
  136SOL    HW2  408   2.132   1.010   0.700  1.4135 -0.0770 -0.3804
  137SOL     OW  409   2.501   1.791   0.652 -0.2127 -0.3637 -0.0252
  137SOL    HW1  410   2.465   1.742   0.735 -0.5521 -0.5803 -0.1913
  137SOL    HW2  411   2.523   1.885   0.680  0.3659 -1.7049  0.9318
  138SOL     OW  412   1.651   0.820   2.018  0.3939 -0.6827 -0.4486
  138SOL    HW1  413   1.603   0.733   2.038  2.6599  0.8519 -0.8965
  138SOL    HW2  414   1.725   0.819   1.948 -0.5677  0.8567  0.2776
  139SOL     OW  415   2.364   3.000   0.011 -0.5114  0.3742 -0.0453
  139SOL    HW1  416   2.391   2.945   3.030  0.2053 -1.9196  0.4365
  139SOL    HW2  417   2.299   3.074   3.094  0.0195  1.7556  0.5960
  140SOL     OW  418   1.502   2.174   2.283 -0.0081 -0.5074 -0.3290
  140SOL    HW1  419   1.554   2.261   2.275  0.8687 -1.5314  1.7663
  140SOL    HW2  420   1.551   2.088   2.266 -3.1904  1.0721 -1.3227
  141SOL     OW  421   1.731   1.632   1.314  0.1319  0.1313  0.1457
  141SOL    HW1  422   1.827   1.611   1.344 -1.0718 -0.5741  1.1099
  141SOL    HW2  423   1.664   1.609   1.389  0.0650 -2.3699  4.0761
  142SOL     OW  424   2.896   0.260   3.076  0.0269  0.0836  0.1337
  142SOL    HW1  425   2.952   0.197   0.031 -1.9968  1.6550 -1.4076
  142SOL    HW2  426   2.801   0.229   3.059 -0.3601  0.4974  1.7576
  143SOL     OW  427   0.211   2.389   2.912 -0.1444 -0.3941 -0.3214
  143SOL    HW1  428   0.243   2.356   3.000 -0.9577  1.0383 -4.1882
  143SOL    HW2  429   0.147   2.323   2.869 -2.4264  3.0204 -3.8871
  144SOL     OW  430   0.773   2.805   1.803  0.3758  0.0908 -0.4979
  144SOL    HW1  431   0.721   2.734   1.748  0.8481 -0.0911  0.1335
  144SOL    HW2  432   0.773   2.894   1.751  0.9768 -0.3742 -2.5273
  145SOL     OW  433   2.041   1.323   0.338  0.0564 -0.4502  0.5062
  145SOL    HW1  434   2.078   1.399   0.391  0.3708  0.2333 -0.3096
  145SOL    HW2  435   2.110   1.289   0.271  2.2705  0.2391 -2.4138
  146SOL     OW  436   2.714   2.908   2.769  0.8119  0.0433  0.1457
  146SOL    HW1  437   2.623   2.945   2.733 -1.2964  2.6897 -1.4328
  146SOL    HW2  438   2.770   2.982   2.810  0.4931 -0.0517  1.2038
  147SOL     OW  439   2.840   2.643   1.124 -0.0449 -0.3857  0.5524
  147SOL    HW1  440   2.796   2.649   1.214 -1.8466 -0.5427 -1.1182
  147SOL    HW2  441   2.811   2.558   1.075 -0.0992  0.9211  1.7555
  148SOL     OW  442   1.992   2.972   0.001  0.8228  0.4222 -0.1311
  148SOL    HW1  443   1.933   2.954   0.080  1.7760  0.9865 -0.2388
  148SOL    HW2  444   1.951   2.918   3.022  2.2302 -1.6521 -0.2121
  149SOL     OW  445   1.232   0.408   2.681  0.5901  0.0572 -0.3750
  149SOL    HW1  446   1.284   0.388   2.763 -2.2502  3.0652  0.1296
  149SOL    HW2  447   1.165   0.480   2.701  2.3271 -0.5384  0.7516
  150SOL     OW  448   0.825   2.463   0.509 -0.2221 -0.4058  0.1166
  150SOL    HW1  449   0.773   2.388   0.465  2.1740 -2.0765  1.6847
  150SOL    HW2  450   0.777   2.517   0.581  1.8320  1.1679  2.5821
  151SOL     OW  451   3.030   1.773   0.147  0.7216 -0.0556  0.2712
  151SOL    HW1  452   3.041   1.679   0.106 -0.2219 -0.5864 -1.1370
  151SOL    HW2  453   2.976   1.835   0.086 -0.4725 -0.7925 -1.7389
  152SOL     OW  454   0.245   1.395   0.826 -0.3509 -0.1203  0.2131
  152SOL    HW1  455   0.323   1.403   0.756  1.4496 -2.1447 -1.7107
  152SOL    HW2  456   0.249   1.475   0.894 -1.0476  0.0225  0.6976
  153SOL     OW  457   2.411   2.635   0.228 -0.5128  0.2117 -0.1613
  153SOL    HW1  458   2.422   2.535   0.252  0.8157  1.3208 -0.7245
  153SOL    HW2  459   2.317   2.649   0.184 -0.8348  1.2654 -0.4180
  154SOL     OW  460   0.847   0.680   1.416  0.5538  0.0391 -0.2220
  154SOL    HW1  461   0.757   0.626   1.431  1.7338  1.5582 -0.0754
  154SOL    HW2  462   0.851   0.753   1.488 -1.3452 -1.8188 -0.0370
  155SOL     OW  463   0.067   1.882   1.286 -0.1615 -0.2502 -0.0465
  155SOL    HW1  464   0.015   1.813   1.222 -2.4769 -1.3910 -1.6902
  155SOL    HW2  465   0.010   1.971   1.296  2.4864  2.4348 -0.4284
  156SOL     OW  466   2.148   2.022   2.899 -0.0313  0.0623 -0.2649
  156SOL    HW1  467   2.144   1.945   2.968 -0.1048  0.1047  0.5954
  156SOL    HW2  468   2.118   2.109   2.939  0.9626 -0.3258 -1.9242
  157SOL     OW  469   0.822   2.678   0.986  0.4074 -0.0484  0.2806
  157SOL    HW1  470   0.802   2.638   1.078 -0.3490  1.7493  0.6629
  157SOL    HW2  471   0.845   2.773   0.989  0.0042 -4.8621 -0.0147
  158SOL     OW  472   2.698   0.497   2.596 -0.0116  0.4603  0.3233
  158SOL    HW1  473   2.698   0.460   2.691  0.8080 -2.1547 -1.3119
  158SOL    HW2  474   2.666   0.596   2.599 -0.2154 -2.3754 -0.9418
  159SOL     OW  475   0.830   0.257   2.819 -0.2282  0.1602 -0.3454
  159SOL    HW1  476   0.908   0.210   2.774 -1.2155 -1.0776 -0.8846
  159SOL    HW2  477   0.865   0.325   2.888  2.0599 -0.2080  0.1029
  160SOL     OW  478   0.912   2.030   3.040 -0.0423  0.3259 -0.5160
  160SOL    HW1  479   0.887   2.129   3.062 -1.9104  1.6578  0.5924
  160SOL    HW2  480   0.910   2.006   2.940 -0.8126  1.3922 -0.9777
  161SOL     OW  481   2.945   2.235   2.993 -0.6771  0.2412  0.0784
  161SOL    HW1  482   2.935   2.239   3.098 -3.6803  0.7479  2.6000
  161SOL    HW2  483   2.904   2.318   2.953  2.0942  0.2272 -0.3673
  162SOL     OW  484   0.479   2.633   1.165 -0.1446 -0.2221  0.2521
  162SOL    HW1  485   0.450   2.542   1.126  0.7193  1.4812 -0.0279
  162SOL    HW2  486   0.429   2.655   1.249  0.5799 -1.2809 -0.7980
  163SOL     OW  487   2.582   0.723   2.910 -0.7018  0.2742 -0.0287
  163SOL    HW1  488   2.516   0.796   2.931 -0.7046 -0.4570 -0.0753
  163SOL    HW2  489   2.576   0.643   2.974  1.0306 -0.0335 -1.9416
  164SOL     OW  490   2.978   2.303   0.909 -0.6223 -0.0516  0.2319
  164SOL    HW1  491   2.971   2.203   0.910  1.1265  3.9228  1.1508
  164SOL    HW2  492   2.882   2.347   0.932 -1.4389  2.1106  2.9415
  165SOL     OW  493   2.766   0.280   1.355 -0.1294  0.0916  0.1819
  165SOL    HW1  494   2.744   0.313   1.449  0.5697 -1.0263 -1.0336
  165SOL    HW2  495   2.680   0.261   1.301  1.0798 -1.1506 -1.5684
  166SOL     OW  496   1.943   0.374   0.631  0.6730 -0.1197 -0.7451
  166SOL    HW1  497   1.943   0.456   0.695 -0.6215  3.9014  3.7995
  166SOL    HW2  498   1.926   0.287   0.682  0.8216 -1.5756 -1.3486
  167SOL     OW  499   0.384   0.376   1.306 -0.4798 -0.1930  0.3108
  167SOL    HW1  500   0.448   0.344   1.377 -0.4663 -2.9376  0.3625
  167SOL    HW2  501   0.410   0.358   1.207  2.6329 -1.0576 -2.2589
  168SOL     OW  502   2.520   2.935   2.238  0.2400  0.1582 -0.1278
  168SOL    HW1  503   2.552   2.859   2.178  1.5303  0.6369 -1.2515
  168SOL    HW2  504   2.430   2.924   2.275  0.1862  2.1304  0.9713
  169SOL     OW  505   0.096   1.623   0.648 -0.3019  0.3174  0.1370
  169SOL    HW1  506   0.147   1.576   0.574  0.2604 -0.7303 -0.9732
  169SOL    HW2  507   0.159   1.694   0.683  0.9560  0.9453  2.0341
  170SOL     OW  508   2.669   0.918   1.129  0.5526 -0.7374 -0.2988
  170SOL    HW1  509   2.597   0.855   1.088  0.3437  2.0518 -2.0056
  170SOL    HW2  510   2.643   0.953   1.221  1.8286  0.7424 -0.5313
  171SOL     OW  511   1.028   2.294   1.617 -0.6112  0.6907 -0.3382
  171SOL    HW1  512   1.088   2.263   1.542 -1.6785  0.3017 -1.5440
  171SOL    HW2  513   1.027   2.399   1.617 -1.3451  2.1536 -0.5416
  172SOL     OW  514   0.409   2.551   1.499 -0.1834  0.0863 -0.4755
  172SOL    HW1  515   0.458   2.489   1.433  0.0513 -0.7775  0.2880
  172SOL    HW2  516   0.340   2.612   1.453  0.8520  1.6843 -1.2821
  173SOL     OW  517   1.334   2.863   0.191  0.1508  0.5556 -0.3074
  173SOL    HW1  518   1.409   2.811   0.239  0.3039  2.5533  1.1344
  173SOL    HW2  519   1.334   2.962   0.217 -1.4962  0.0548 -1.6537
  174SOL     OW  520   1.023   2.530   2.717 -0.0315 -0.2083 -0.8302
  174SOL    HW1  521   1.101   2.488   2.759 -0.7010 -0.4396  0.6140
  174SOL    HW2  522   0.943   2.478   2.758 -1.1050 -0.8068 -1.8974
  175SOL     OW  523   1.626   0.265   0.106 -0.1694  0.1375  0.2541
  175SOL    HW1  524   1.721   0.304   0.135  0.4332  1.2231  1.2312
  175SOL    HW2  525   1.556   0.319   0.149 -0.1643 -0.5617 -2.5926
  176SOL     OW  526   1.404   0.012   0.238 -0.3393 -0.2840  0.2555
  176SOL    HW1  527   1.494   0.001   0.187  1.6437 -0.0666 -0.3634
  176SOL    HW2  528   1.416   0.012   0.340  0.6940 -1.9411 -1.7168
  177SOL     OW  529   1.338   1.236   0.656 -0.2150  0.6825 -0.1795
  177SOL    HW1  530   1.378   1.147   0.682  2.0308  0.7632  1.6843
  177SOL    HW2  531   1.399   1.310   0.685 -0.4718 -0.7815  1.8838
  178SOL     OW  532   2.366   1.657   2.178 -0.3876  0.3497  0.4803
  178SOL    HW1  533   2.297   1.670   2.108  2.8773 -1.0293 -0.6175
  178SOL    HW2  534   2.321   1.616   2.259  1.4288 -0.9761 -0.7212
  179SOL     OW  535   0.474   2.716   2.851 -0.3205 -0.0172  0.5735
  179SOL    HW1  536   0.533   2.761   2.923 -0.3588  0.1651  1.8080
  179SOL    HW2  537   0.534   2.696   2.771  1.5969  1.6487 -1.9297
  180SOL     OW  538   1.614   2.024   1.622 -0.0626 -0.5278 -0.3048
  180SOL    HW1  539   1.707   1.983   1.647  2.3305  1.9515 -0.2914
  180SOL    HW2  540   1.575   2.075   1.705 -3.4091  2.0471  1.3369
  181SOL     OW  541   1.406   1.415   2.553  0.2166  0.4936  1.1326
  181SOL    HW1  542   1.384   1.494   2.491  1.1473  2.2310 -0.7957
  181SOL    HW2  543   1.329   1.347   2.560 -0.0057  0.8070 -3.3614
  182SOL     OW  544   0.055   0.395   2.656  0.4020  0.5565 -0.4680
  182SOL    HW1  545   0.071   0.396   2.553 -0.8924  0.4854 -0.6643
  182SOL    HW2  546   0.141   0.409   2.708  0.0867  2.5745 -0.5609
  183SOL     OW  547   1.068   0.177   2.692  0.9185  0.0522  0.0548
  183SOL    HW1  548   1.150   0.235   2.691 -2.0669 -2.9954  3.1909
  183SOL    HW2  549   1.017   0.182   2.605 -0.2708 -0.2748  2.5520
  184SOL     OW  550   1.482   0.737   1.356  0.5534  0.5597  0.6693
  184SOL    HW1  551   1.459   0.784   1.270 -0.0596 -0.6228  0.0528
  184SOL    HW2  552   1.430   0.646   1.360 -2.5017 -3.1480 -0.4124
  185SOL     OW  553   0.094   1.253   1.266  0.5877  0.1372  0.2589
  185SOL    HW1  554   0.100   1.350   1.280  0.3216 -0.9541  1.2966
  185SOL    HW2  555   3.098   1.224   1.280 -0.7823  0.5005  0.3169
  186SOL     OW  556   0.429   1.944   2.706  0.2799 -0.0352  0.0381
  186SOL    HW1  557   0.435   1.858   2.764 -0.8418 -3.2308  0.0990
  186SOL    HW2  558   0.421   1.917   2.609  0.5839 -0.6502  1.7081
  187SOL     OW  559   2.715   1.360   0.300  0.1595 -0.3919  0.4575
  187SOL    HW1  560   2.748   1.318   0.211  0.7999 -0.0274 -1.0440
  187SOL    HW2  561   2.757   1.453   0.314  2.5273  0.4838  1.3863
  188SOL     OW  562   0.095   2.361   0.746  0.0757 -0.4811  0.3128
  188SOL    HW1  563   0.077   2.279   0.691  0.4694  1.1288  0.1747
  188SOL    HW2  564   0.029   2.366   0.821  0.2426  1.7984  1.9175
  189SOL     OW  565   2.638   1.029   0.070  0.2893 -0.1725  0.3549
  189SOL    HW1  566   2.723   1.017   0.016 -2.4482 -0.2310 -0.7880
  189SOL    HW2  567   2.650   0.977   0.154 -2.2637  0.4939 -1.1130
  190SOL     OW  568   1.162   1.487   2.304 -0.4572 -0.7161 -0.2607
  190SOL    HW1  569   1.258   1.522   2.313  0.6802  1.3985 -0.4476
  190SOL    HW2  570   1.122   1.500   2.398 -2.9531  2.4250  0.4289
  191SOL     OW  571   2.680   0.299   1.618  0.1502  0.6195  0.5703
  191SOL    HW1  572   2.674   0.196   1.639 -1.3404  0.8342  0.3028
  191SOL    HW2  573   2.725   0.347   1.690 -0.1475  2.0480 -2.4646
  192SOL     OW  574   2.238   0.376   1.866  0.6191 -0.0093 -0.1213
  192SOL    HW1  575   2.225   0.341   1.963  0.4498  0.9290  3.2736
  192SOL    HW2  576   2.306   0.450   1.866  1.2550 -1.6163 -1.3471
  193SOL     OW  577   1.016   0.469   0.357 -0.4879 -0.2408  0.2823
  193SOL    HW1  578   1.008   0.511   0.450  0.5763 -0.3120  1.9484
  193SOL    HW2  579   0.934   0.485   0.304 -0.1296 -1.9687  2.1890
  194SOL     OW  580   1.104   2.816   1.169 -0.3398 -0.3944  0.2300
  194SOL    HW1  581   1.190   2.840   1.115  0.8526  0.9824 -0.3391
  194SOL    HW2  582   1.024   2.849   1.119 -1.0484  2.3234 -0.9849
  195SOL     OW  583   2.419   0.689   0.619 -0.2267 -0.3562 -0.5222
  195SOL    HW1  584   2.504   0.700   0.673  2.0295 -1.3557  0.6512
  195SOL    HW2  585   2.349   0.734   0.674  1.9828  1.6858 -2.1381
  196SOL     OW  586   1.563   1.880   1.955 -0.7254 -0.4236 -0.0575
  196SOL    HW1  587   1.570   1.953   1.887 -1.9520 -0.8870 -0.0655
  196SOL    HW2  588   1.473   1.840   1.935  1.9249 -2.6696 -1.4925
  197SOL     OW  589   3.020   2.949   0.589  0.0494 -0.3662  0.0872
  197SOL    HW1  590   0.018   2.972   0.588 -0.4074 -1.4584 -0.1707
  197SOL    HW2  591   3.005   2.871   0.652  0.4649 -2.2644  0.1236
  198SOL     OW  592   1.091   1.113   0.582 -0.1064  0.3608 -0.3373
  198SOL    HW1  593   1.167   1.148   0.637 -2.4975 -2.9604 -2.2568
  198SOL    HW2  594   1.104   1.008   0.574  2.9260 -1.0876 -2.4090
  199SOL     OW  595   2.907   0.930   1.839  0.2788 -0.1503  0.0899
  199SOL    HW1  596   2.910   0.997   1.911 -1.4991  0.3560  0.9881
  199SOL    HW2  597   2.938   0.965   1.750  0.2948  3.0895  0.0441
  200SOL     OW  598   2.420   1.891   2.487  0.1653 -0.0482 -0.0036
  200SOL    HW1  599   2.346   1.935   2.433  0.2676  0.2387 -1.5539
  200SOL    HW2  600   2.431   1.930   2.576  0.0559  0.4603 -2.9765
  201SOL     OW  601   2.338   0.139   0.834 -0.5508  0.4528  0.1905
  201SOL    HW1  602   2.311   0.233   0.812 -0.5125 -0.7140 -3.3440
  201SOL    HW2  603   2.372   0.077   0.754 -0.8131 -0.5650 -2.5430
  202SOL     OW  604   2.514   0.671   0.263  0.0189 -0.6805 -0.3669
  202SOL    HW1  605   2.554   0.576   0.260 -0.4751  1.1494 -2.2805
  202SOL    HW2  606   2.588   0.737   0.273 -1.6382  0.8971 -1.4624
  203SOL     OW  607   1.723   1.873   2.178  0.0104  0.1312 -0.7972
  203SOL    HW1  608   1.651   1.889   2.103 -3.0052 -0.4632 -1.1281
  203SOL    HW2  609   1.687   1.815   2.255  3.4804  0.5063  1.3437
  204SOL     OW  610   0.911   1.894   2.234 -0.5995  0.0397  0.2907
  204SOL    HW1  611   0.963   1.970   2.189 -1.2499 -2.7825  1.3688
  204SOL    HW2  612   0.935   1.808   2.192 -0.9162  3.5626 -3.7215
  205SOL     OW  613   1.166   1.881   1.506 -0.1522 -0.2076 -0.5494
  205SOL    HW1  614   1.260   1.927   1.492  0.2658  1.8614 -1.7041
  205SOL    HW2  615   1.121   1.907   1.598 -1.9734 -1.0016  2.3030
  206SOL     OW  616   0.119   0.615   3.079  0.0566  0.1441 -0.1030
  206SOL    HW1  617   0.037   0.571   3.045  3.7042  0.6834  0.4226
  206SOL    HW2  618   0.136   0.696   3.024 -0.3616 -0.8526  1.9783
  207SOL     OW  619   1.645   2.622   2.343 -0.0842 -0.0590  0.7454
  207SOL    HW1  620   1.579   2.667   2.406 -1.6231 -1.0903 -0.5530
  207SOL    HW2  621   1.682   2.687   2.276 -0.9484 -0.5573  0.3564
  208SOL     OW  622   0.232   2.160   1.747  0.1264  0.1299 -0.4469
  208SOL    HW1  623   0.283   2.104   1.677 -2.7611  1.3162  2.2058
  208SOL    HW2  624   0.212   2.249   1.707 -1.0374 -1.0997  0.1928
  209SOL     OW  625   1.532   0.625   2.658  0.0150 -0.1634  0.1596
  209SOL    HW1  626   1.555   0.704   2.725  2.1449  2.0120  1.4882
  209SOL    HW2  627   1.591   0.629   2.574  1.5843 -3.0074 -1.4890
  210SOL     OW  628   2.256   0.753   0.824  0.1025 -0.4125 -0.0714
  210SOL    HW1  629   2.177   0.700   0.859 -2.4443  0.0666 -1.0670
  210SOL    HW2  630   2.343   0.736   0.884  1.2555 -1.7071  1.6530
  211SOL     OW  631   1.034   0.581   0.607  0.0905  0.2275 -0.3019
  211SOL    HW1  632   0.940   0.592   0.651 -1.0859  1.0552  0.9305
  211SOL    HW2  633   1.101   0.535   0.668  0.9209  2.3597  0.5272
  212SOL     OW  634   1.438   1.255   0.149 -0.1791 -0.2839  0.3146
  212SOL    HW1  635   1.513   1.245   0.084 -1.5709  1.9225 -0.6188
  212SOL    HW2  636   1.413   1.355   0.136  1.1398  2.0609  2.5632
  213SOL     OW  637   1.514   0.286   2.294 -0.8005  0.0049 -0.3808
  213SOL    HW1  638   1.442   0.294   2.364  1.7506 -0.9429 -2.7483
  213SOL    HW2  639   1.590   0.235   2.335  0.1928 -1.1872  1.5546
  214SOL     OW  640   1.643   1.322   2.345 -0.8858 -0.1307  0.1776
  214SOL    HW1  641   1.733   1.358   2.377 -2.7174 -1.2328  0.6481
  214SOL    HW2  642   1.566   1.364   2.398 -1.5858 -2.7607 -1.2287
  215SOL     OW  643   0.662   1.604   0.840 -0.4607 -0.0787  0.3187
  215SOL    HW1  644   0.758   1.612   0.878 -0.3975 -1.9591  0.2812
  215SOL    HW2  645   0.629   1.509   0.828  0.4626  2.1132 -3.2227
  216SOL     OW  646   0.677   2.951   2.202  0.2130 -0.1443 -0.4664
  216SOL    HW1  647   0.767   2.955   2.149  2.1472  3.7857 -0.1143
  216SOL    HW2  648   0.693   2.993   2.292  0.1530 -1.2466 -0.9960
  217SOL     OW  649   2.271   0.650   0.161 -0.8540  0.4687  0.3239
  217SOL    HW1  650   2.373   0.660   0.184  3.5057 -2.3788  1.3466
  217SOL    HW2  651   2.255   0.551   0.149 -2.4855 -0.2118  0.8435
  218SOL     OW  652   2.083   2.101   2.135  0.2825 -0.0578  0.4838
  218SOL    HW1  653   2.059   1.997   2.121 -0.1816 -1.5292  0.2057
  218SOL    HW2  654   2.166   2.116   2.078 -2.3622 -1.3852  1.7824
  219SOL     OW  655   1.799   1.483   3.071  0.0613  0.2655  0.3148
  219SOL    HW1  656   1.766   1.563   3.017 -0.1248  0.3645 -1.3859
  219SOL    HW2  657   1.894   1.454   3.043  1.2573  0.1764 -0.5553
  220SOL     OW  658   1.456   1.594   1.141 -0.3444 -0.0696  0.2197
  220SOL    HW1  659   1.434   1.688   1.184  1.7524  3.3042  0.2224
  220SOL    HW2  660   1.499   1.607   1.048 -0.4444  0.8296 -0.2041
  221SOL     OW  661   0.457   0.638   2.844 -0.1247  0.5045 -0.1630
  221SOL    HW1  662   0.421   0.730   2.864 -0.0411 -2.9827 -1.4493
  221SOL    HW2  663   0.558   0.644   2.838 -0.0099  0.3187  0.3781
  222SOL     OW  664   0.901   1.943   1.404 -0.1096  0.6561 -0.4160
  222SOL    HW1  665   0.853   2.028   1.434  0.1896  0.7318 -0.2601
  222SOL    HW2  666   1.001   1.952   1.424 -4.1171 -0.9485 -0.3646
  223SOL     OW  667   1.309   0.041   2.647  0.1120  0.3869 -0.0835
  223SOL    HW1  668   1.345   0.070   2.736 -2.2170 -0.1856 -3.4795
  223SOL    HW2  669   1.224   3.096   2.675  0.1600  0.4994  2.1767
  224SOL     OW  670   2.881   1.167   0.810 -0.1182  0.6352 -0.5478
  224SOL    HW1  671   2.824   1.178   0.727 -3.2046 -2.7018  1.1904
  224SOL    HW2  672   2.965   1.211   0.787  0.1167 -0.4243 -0.5062
  225SOL     OW  673   1.303   1.037   1.602  0.6459  0.2128 -0.2885
  225SOL    HW1  674   1.267   1.014   1.509 -1.8544  3.7271 -1.0339
  225SOL    HW2  675   1.398   1.061   1.613 -2.3004 -1.8812  0.1836
  226SOL     OW  676   1.388   2.063   2.557  0.1881  0.1603  0.2390
  226SOL    HW1  677   1.309   2.064   2.620 -0.3443 -2.0884  1.0626
  226SOL    HW2  678   1.366   2.100   2.462 -2.4753 -0.5630 -0.0076
  227SOL     OW  679   1.184   1.924   1.072 -0.5880  0.2015 -0.2099
  227SOL    HW1  680   1.281   1.891   1.090 -1.2678 -0.3441  2.0551
  227SOL    HW2  681   1.114   1.868   1.124  0.3308 -0.0684  0.5384
  228SOL     OW  682   0.458   1.971   1.071  0.4474  0.5513  0.2449
  228SOL    HW1  683   0.387   1.923   1.126 -0.8815 -1.2445 -1.0493
  228SOL    HW2  684   0.548   1.923   1.078 -1.4710  1.4277  1.8620
  229SOL     OW  685   2.156   0.367   3.064 -0.4082  0.7999  0.3645
  229SOL    HW1  686   2.077   0.430   3.057  2.8534 -1.6270  1.2381
  229SOL    HW2  687   2.233   0.394   3.007  1.5190  1.0950  2.0645
  230SOL     OW  688   0.883   0.717   2.119  0.4494  0.4418  0.3480
  230SOL    HW1  689   0.867   0.633   2.057  0.1153 -0.8429 -0.6644
  230SOL    HW2  690   0.984   0.725   2.141  1.4088 -1.1897 -1.5250
  231SOL     OW  691   1.221   1.831   2.267  0.1230 -0.1678  0.6105
  231SOL    HW1  692   1.131   1.783   2.250 -2.9056 -1.3003 -1.7401
  231SOL    HW2  693   1.199   1.925   2.301 -1.2501 -1.4016  1.1191
  232SOL     OW  694   2.156   2.108   1.006 -0.4591 -0.3864  0.2159
  232SOL    HW1  695   2.110   2.030   0.962  1.6744 -1.7698  0.9943
  232SOL    HW2  696   2.116   2.134   1.093  3.1871 -0.9543  2.5455
  233SOL     OW  697   1.916   2.713   2.952 -0.3306 -0.0495 -0.3840
  233SOL    HW1  698   1.900   2.637   3.020  0.0331 -2.9800  6.0807
  233SOL    HW2  699   2.015   2.725   2.939 -0.4854  0.8085  0.8594
  234SOL     OW  700   1.339   2.986   3.041 -0.3231  0.1389 -0.6970
  234SOL    HW1  701   1.378   2.944   0.023  2.1064  1.2511  0.9583
  234SOL    HW2  702   1.246   3.031   3.057 -0.9591  1.2589  2.7486
  235SOL     OW  703   2.605   3.074   0.136  0.5315  0.6483 -0.1636
  235SOL    HW1  704   2.505   3.080   0.108 -0.9497  0.4692 -0.7461
  235SOL    HW2  705   2.627   2.972   0.148  0.2043 -1.6485 -1.1506
  236SOL     OW  706   2.466   2.285   2.248 -0.5310 -0.2273 -0.0244
  236SOL    HW1  707   2.546   2.272   2.186  2.7007  0.0781 -0.5871
  236SOL    HW2  708   2.500   2.297   2.344 -0.0138  1.1675 -1.7705
  237SOL     OW  709   1.366   1.430   1.924  0.1032  0.4181 -0.4208
  237SOL    HW1  710   1.469   1.415   1.922  0.1426  0.1324 -1.1331
  237SOL    HW2  711   1.327   1.429   1.831 -0.0723 -0.8351  0.3813
  238SOL     OW  712   2.159   0.208   2.401  0.1058  0.3398 -0.0596
  238SOL    HW1  713   2.204   0.273   2.337  1.4891  0.7236  0.9167
  238SOL    HW2  714   2.113   0.271   2.471 -0.8538  3.6327  0.4429
  239SOL     OW  715   0.413   1.774   2.245 -0.3903  0.5090 -0.0927
  239SOL    HW1  716   0.511   1.781   2.209 -2.6353  0.0673 -0.5626
  239SOL    HW2  717   0.358   1.733   2.176  0.8497  0.1261  2.2019
  240SOL     OW  718   2.663   2.894   1.071  0.8481 -0.0835  0.0919
  240SOL    HW1  719   2.733   2.821   1.089 -0.4638 -0.8631 -0.0139
  240SOL    HW2  720   2.598   2.853   1.002 -2.3450  2.2332  1.5192
  241SOL     OW  721   1.818   2.059   0.744  0.0422  0.2432  0.2657
  241SOL    HW1  722   1.784   1.977   0.793 -0.1146 -0.4691  0.1926
  241SOL    HW2  723   1.833   2.036   0.644  3.4684 -3.1707  0.9081
  242SOL     OW  724   1.190   1.732   2.632 -0.0084 -0.4712  0.1512
  242SOL    HW1  725   1.290   1.736   2.625 -3.4518 -0.5566 -2.0373
  242SOL    HW2  726   1.154   1.644   2.658 -0.8553 -0.0718 -1.8182
  243SOL     OW  727   0.628   2.687   2.266 -0.1574 -0.8475  0.3200
  243SOL    HW1  728   0.614   2.788   2.254 -1.0807  1.3534  1.9103
  243SOL    HW2  729   0.727   2.659   2.277  1.3072 -0.1549 -1.0496
  244SOL     OW  730   2.251   3.016   2.800  0.3981  0.0435  0.5424
  244SOL    HW1  731   2.213   3.091   2.861 -2.6179  2.4386 -2.0929
  244SOL    HW2  732   2.185   3.007   2.720 -0.5705 -0.8558  1.3748
  245SOL     OW  733   1.324   2.533   0.324 -0.1326  0.0118 -0.1968
  245SOL    HW1  734   1.397   2.515   0.262 -0.9188  0.6494  1.7254
  245SOL    HW2  735   1.235   2.489   0.309 -1.3016  0.2274  1.8552
  246SOL     OW  736   0.811   2.847   0.268 -0.1826  0.4790  0.0100
  246SOL    HW1  737   0.775   2.923   0.332  1.9336  3.4471  0.7552
  246SOL    HW2  738   0.914   2.852   0.266 -0.9396  0.7088 -0.2217
  247SOL     OW  739   0.663   0.997   2.067 -0.3893 -0.3116 -0.3439
  247SOL    HW1  740   0.709   0.991   1.978  1.3999  1.3080  1.7042
  247SOL    HW2  741   0.729   0.971   2.144  3.2792  0.4933  0.0649
  248SOL     OW  742   1.077   1.212   2.326 -0.0207 -0.1648 -0.2841
  248SOL    HW1  743   1.158   1.263   2.371  1.7351 -0.4166  1.0287
  248SOL    HW2  744   0.993   1.268   2.297 -2.1378 -0.4626 -0.1249
  249SOL     OW  745   2.201   0.314   0.243 -0.5833  0.7292 -0.0768
  249SOL    HW1  746   2.134   0.365   0.294 -1.3822 -1.6979  2.5887
  249SOL    HW2  747   2.181   0.327   0.142 -0.9654 -0.2610 -0.9018
  250SOL     OW  748   0.655   2.948   0.805 -0.6997 -0.2941 -0.1181
  250SOL    HW1  749   0.598   2.882   0.857  1.2658  0.9447 -0.6001
  250SOL    HW2  750   0.680   2.911   0.716 -3.1895 -0.8563 -0.1635
  251SOL     OW  751   1.749   3.012   2.660 -0.0380  0.4690  0.5029
  251SOL    HW1  752   1.820   2.936   2.665  1.3189  0.1114  0.9455
  251SOL    HW2  753   1.659   2.969   2.688 -1.1945  3.1795  0.9296
  252SOL     OW  754   1.791   1.490   2.092 -0.3352 -0.1573  0.1152
  252SOL    HW1  755   1.742   1.434   2.166 -1.3508  0.8702  1.2485
  252SOL    HW2  756   1.876   1.441   2.076 -1.7341  0.7239 -1.7851
  253SOL     OW  757   2.363   2.770   1.976  0.9428  0.2857  0.2601
  253SOL    HW1  758   2.435   2.720   2.024  0.0518 -0.3713 -0.0118
  253SOL    HW2  759   2.278   2.740   2.024  0.6043  0.8689  1.5036
  254SOL     OW  760   0.894   1.571   0.978  0.4781 -0.0154 -0.3533
  254SOL    HW1  761   0.960   1.508   0.933 -1.1503  1.8472  0.6588
  254SOL    HW2  762   0.869   1.534   1.068  0.8220 -0.9480  2.9481
  255SOL     OW  763   1.153   0.896   1.184  0.9999 -0.0885 -0.4138
  255SOL    HW1  764   1.138   0.997   1.170 -0.6699 -1.5601  0.7273
  255SOL    HW2  765   1.253   0.879   1.167  0.8331 -2.1620  1.0627
  256SOL     OW  766   1.887   2.506   1.744 -0.1276  0.2825  0.0681
  256SOL    HW1  767   1.895   2.469   1.840  0.0090 -1.2965  1.8743
  256SOL    HW2  768   1.965   2.467   1.687 -0.8526  3.2387  1.1096
  257SOL     OW  769   0.126   2.894   3.012 -0.2748 -0.3360 -0.0064
  257SOL    HW1  770   0.175   2.984   2.997 -0.2174  3.1727 -0.9075
  257SOL    HW2  771   0.178   2.813   2.975  0.8898 -0.9339  1.9591
  258SOL     OW  772   0.891   2.937   2.017 -0.0827  0.2948  0.2240
  258SOL    HW1  773   0.986   2.969   1.997 -1.7719  0.8937  0.1196
  258SOL    HW2  774   0.866   2.853   1.966  0.1608  0.5135  1.7726
  259SOL     OW  775   1.070   3.083   2.343 -0.1184  0.0900 -0.1736
  259SOL    HW1  776   1.098   0.009   2.250 -1.1604 -1.4988 -0.0812
  259SOL    HW2  777   1.078   2.981   2.361  0.0005  0.4072 -1.4515
  260SOL     OW  778   1.597   0.505   0.787  0.0591 -0.1381 -0.6570
  260SOL    HW1  779   1.591   0.408   0.754  1.5381  0.1980  1.8604
  260SOL    HW2  780   1.684   0.546   0.750  1.7407 -1.4511  2.2006
  261SOL     OW  781   0.305   0.415   2.769 -0.0193  0.0135  0.6353
  261SOL    HW1  782   0.374   0.345   2.736  1.5073 -0.4461  0.5275
  261SOL    HW2  783   0.354   0.498   2.809 -1.6973 -0.4350  0.3197
  262SOL     OW  784   2.718   2.559   1.878  0.1837  0.0223 -1.0133
  262SOL    HW1  785   2.798   2.500   1.895 -0.5359  0.1697  3.9568
  262SOL    HW2  786   2.734   2.643   1.823  2.1980 -0.7677 -1.8546
  263SOL     OW  787   2.874   1.899   2.318  0.0976  0.1953  0.1567
  263SOL    HW1  788   2.966   1.924   2.356  3.0267 -0.6840 -1.2457
  263SOL    HW2  789   2.812   1.870   2.395 -1.2435  0.3837  1.6478
  264SOL     OW  790   0.937   1.114   0.889  0.5824  0.4386  0.4784
  264SOL    HW1  791   0.937   1.188   0.819 -0.7950 -3.8736 -0.3474
  264SOL    HW2  792   1.011   1.047   0.877  0.5136 -0.2693  0.9521
  265SOL     OW  793   0.560   1.938   0.096 -0.0244  0.2194 -0.0804
  265SOL    HW1  794   0.637   1.875   0.074 -3.0189  1.4160 -1.2751
  265SOL    HW2  795   0.582   2.012   0.160 -0.5303 -0.4184 -1.2185
  266SOL     OW  796   1.343   0.612   0.551  0.8329  0.1035 -0.2074
  266SOL    HW1  797   1.429   0.564   0.540  1.9274 -1.8508 -0.0876
  266SOL    HW2  798   1.293   0.611   0.460 -2.8661  1.1708 -1.5440
  267SOL     OW  799   3.054   1.190   0.175 -0.4639 -0.0604 -0.1366
  267SOL    HW1  800   0.019   1.261   0.210  3.2125 -1.8558 -1.7478
  267SOL    HW2  801   3.098   1.110   0.119  1.7022 -3.2202 -3.3963
  268SOL     OW  802   2.149   0.067   3.004  0.4053 -0.1702  0.0436
  268SOL    HW1  803   2.136   0.160   3.046  1.3552 -1.4781 -0.2043
  268SOL    HW2  804   2.082   3.100   3.036 -2.9027 -1.0238 -1.9560
  269SOL     OW  805   1.652   0.380   2.725  0.2684  0.4284  0.2380
  269SOL    HW1  806   1.693   0.356   2.635 -2.3534 -0.0364 -1.1699
  269SOL    HW2  807   1.608   0.470   2.719 -0.4511 -0.7490  2.7307
  270SOL     OW  808   0.664   0.690   3.021  0.3330 -0.0225  0.1353
  270SOL    HW1  809   0.597   0.725   3.092  2.4367 -0.7912 -1.3921
  270SOL    HW2  810   0.686   0.761   2.955 -0.4404  0.4114 -0.2100
  271SOL     OW  811   2.947   1.025   0.365 -0.0938  0.2443 -0.2658
  271SOL    HW1  812   2.955   0.956   0.292  1.5055  0.3802  0.9564
  271SOL    HW2  813   2.991   1.113   0.335  1.5276  2.5911 -0.4794
  272SOL     OW  814   0.052   1.805   2.950 -0.0724  0.6830 -0.1141
  272SOL    HW1  815   3.065   1.848   2.965 -0.4552 -0.8193  1.3967
  272SOL    HW2  816   0.116   1.878   2.919  0.7478  0.9816  3.6588
  273SOL     OW  817   2.421   0.009   0.626  0.2961  0.1525 -0.5061
  273SOL    HW1  818   2.507   0.015   0.575  0.9021 -0.7422 -0.3948
  273SOL    HW2  819   2.349   0.039   0.564  0.8407  0.1659  0.6819
  274SOL     OW  820   0.441   2.405   1.027 -0.1620 -0.2103  0.1886
  274SOL    HW1  821   0.533   2.365   1.035  2.5596  3.9426  2.5820
  274SOL    HW2  822   0.414   2.412   0.929  1.1492 -1.1235  1.5121
  275SOL     OW  823   2.456   1.368   0.414  0.0187 -0.1237 -0.2853
  275SOL    HW1  824   2.555   1.364   0.387  1.2871 -1.0749  1.2028
  275SOL    HW2  825   2.424   1.281   0.461 -2.8975  0.0465  0.7643
  276SOL     OW  826   2.941   1.316   2.241 -0.3601  0.1717  0.2484
  276SOL    HW1  827   3.029   1.352   2.277  0.5586  1.4215  0.4231
  276SOL    HW2  828   2.894   1.261   2.310 -1.4269  1.3627 -0.5646
  277SOL     OW  829   2.037   2.794   1.236 -0.0738 -0.2003  0.8031
  277SOL    HW1  830   2.139   2.801   1.249  0.0534 -1.8477  1.8678
  277SOL    HW2  831   2.016   2.758   1.141 -0.1996 -3.1513 -0.8050
  278SOL     OW  832   1.146   0.062   2.076 -0.0424  0.0668  0.1365
  278SOL    HW1  833   1.174   3.084   2.017  0.4167 -0.0050  0.8727
  278SOL    HW2  834   1.179   0.151   2.044 -1.2606 -2.0566  1.2880
  279SOL     OW  835   1.698   1.679   0.312  0.2577  0.2439  0.1690
  279SOL    HW1  836   1.704   1.707   0.410 -1.2163 -1.7242 -1.5610
  279SOL    HW2  837   1.737   1.584   0.289 -0.1744 -0.0865  3.4709
  280SOL     OW  838   0.101   1.897   0.967 -0.1006 -0.5670  0.1163
  280SOL    HW1  839   0.143   1.831   0.902  2.5257 -1.5141  1.8562
  280SOL    HW2  840   0.075   1.839   1.047  0.4955 -0.0892 -0.1141
  281SOL     OW  841   3.088   0.694   2.456 -0.2023 -0.0136 -0.2690
  281SOL    HW1  842   0.021   0.614   2.406  0.2452  3.3781  0.9803
  281SOL    HW2  843   3.053   0.675   2.553 -0.2363 -2.9902  2.9610
  282SOL     OW  844   0.692   0.824   0.546  0.1514  0.2121  0.0382
  282SOL    HW1  845   0.617   0.882   0.583 -1.4164 -1.8829  2.7144
  282SOL    HW2  846   0.737   0.866   0.467  0.2896  0.7330 -0.8734
  283SOL     OW  847   1.634   1.920   3.089  0.0170  0.1837  0.1203
  283SOL    HW1  848   1.615   1.960   2.999 -0.5414 -1.2461  1.4664
  283SOL    HW2  849   1.673   1.993   0.049 -0.6793  5.5284  1.1232
  284SOL     OW  850   1.449   0.501   0.178  0.2727  0.2581 -1.1790
  284SOL    HW1  851   1.507   0.569   0.131 -1.0469  0.7559 -2.4298
  284SOL    HW2  852   1.362   0.484   0.132  0.6722  4.5012  1.9228
  285SOL     OW  853   1.878   0.821   2.591 -0.2978  0.3161  0.5351
  285SOL    HW1  854   1.840   0.758   2.519 -2.3398 -1.6531 -3.4705
  285SOL    HW2  855   1.805   0.881   2.629 -0.5947 -0.3890  2.5211
  286SOL     OW  856   1.394   2.706   1.725  0.4801  0.2620  0.0169
  286SOL    HW1  857   1.426   2.612   1.726 -0.8460 -2.3724 -0.3874
  286SOL    HW2  858   1.462   2.759   1.673  1.7875  1.7955  1.6640
  287SOL     OW  859   1.083   0.848   0.840 -0.0722  0.3573  0.3453
  287SOL    HW1  860   0.999   0.855   0.898  0.6416  0.2791 -0.6025
  287SOL    HW2  861   1.058   0.847   0.742  0.1092 -1.0969  1.2305
  288SOL     OW  862   1.038   2.540   0.324 -0.4281  0.2299  0.4558
  288SOL    HW1  863   1.058   2.639   0.314  2.2644  2.9615  0.6249
  288SOL    HW2  864   0.952   2.539   0.375 -0.3676  2.1549  0.7584
  289SOL     OW  865   0.333   1.433   1.750  0.3464  0.5781  0.7824
  289SOL    HW1  866   0.355   1.531   1.764  0.8331 -0.8950 -1.5935
  289SOL    HW2  867   0.372   1.371   1.821  1.0067  0.4831 -0.0328
  290SOL     OW  868   1.595   2.258   0.882  0.7078 -1.1146  0.4019
  290SOL    HW1  869   1.649   2.173   0.874  0.6263  0.8737  0.9955
  290SOL    HW2  870   1.550   2.269   0.971 -0.7902 -0.3583 -2.8752
  291SOL     OW  871   1.702   2.872   3.041 -0.6164 -0.3877  0.2636
  291SOL    HW1  872   1.637   2.895   2.965  0.2638  2.2259  0.5303
  291SOL    HW2  873   1.759   2.792   3.016 -0.3100  1.5527  1.5732
  292SOL     OW  874   1.181   0.503   1.844 -0.0808 -0.4019  0.9903
  292SOL    HW1  875   1.226   0.568   1.775  1.9136  0.9521  0.1913
  292SOL    HW2  876   1.088   0.535   1.866 -1.6601  0.5234 -0.2929
  293SOL     OW  877   1.790   2.337   0.721  0.3704 -0.3107 -0.1951
  293SOL    HW1  878   1.828   2.242   0.715 -1.6304 -1.0399 -1.8065
  293SOL    HW2  879   1.719   2.337   0.796 -0.5340  2.5785  0.7896
  294SOL     OW  880   0.465   0.619   2.339 -0.0730  0.2521  0.1105
  294SOL    HW1  881   0.448   0.643   2.439 -1.2602  0.0110 -0.9067
  294SOL    HW2  882   0.411   0.540   2.309  4.9350 -2.2933 -1.6000
  295SOL     OW  883   1.547   1.662   0.902 -0.8168  0.2292  0.0424
  295SOL    HW1  884   1.635   1.709   0.912  1.6076  0.6850  1.9082
  295SOL    HW2  885   1.477   1.721   0.856  0.2554  0.6741  0.0479
  296SOL     OW  886   2.190   1.861   0.036 -0.2234 -0.4145 -1.0171
  296SOL    HW1  887   2.284   1.890   0.069 -1.2947  1.0214  1.4466
  296SOL    HW2  888   2.113   1.915   0.088 -2.1034  0.2211 -0.5826
  297SOL     OW  889   2.205   2.968   0.232  0.1613  0.0356 -0.6471
  297SOL    HW1  890   2.104   2.978   0.224 -1.1095 -1.0274 -0.4486
  297SOL    HW2  891   2.245   2.962   0.142 -0.3238 -0.2739  2.3223
  298SOL     OW  892   1.007   2.444   2.466 -0.4086  0.0960 -0.4499
  298SOL    HW1  893   1.021   2.468   2.564  1.1506  0.1171  0.8547
  298SOL    HW2  894   1.099   2.436   2.421  0.8342 -1.0795 -1.1534
  299SOL     OW  895   1.351   2.733   2.228 -0.7833  0.1675 -0.0108
  299SOL    HW1  896   1.251   2.744   2.247  1.1575  2.5659 -1.3790
  299SOL    HW2  897   1.401   2.744   2.321 -1.4310 -0.8455  3.9425
  300SOL     OW  898   2.397   0.219   2.729  0.7730 -0.3478 -0.1022
  300SOL    HW1  899   2.445   0.146   2.781 -2.1595 -2.1471 -2.9376
  300SOL    HW2  900   2.399   0.202   2.632 -1.0047  1.3780  3.0147
  301SOL     OW  901   1.649   0.933   2.258  0.4653  0.0486 -0.3726
  301SOL    HW1  902   1.572   0.996   2.262 -2.7638 -1.4078  2.3549
  301SOL    HW2  903   1.657   0.890   2.168 -0.0301 -0.4663 -0.5759
  302SOL     OW  904   2.374   2.367   0.337  0.2628 -0.5651 -0.1579
  302SOL    HW1  905   2.431   2.287   0.346 -0.3988  0.2483 -2.2792
  302SOL    HW2  906   2.363   2.411   0.431  0.0251  0.7496  0.4617
  303SOL     OW  907   2.792   2.751   2.238 -0.3983 -0.4365  0.3473
  303SOL    HW1  908   2.882   2.711   2.221 -2.0332 -0.7448  0.5018
  303SOL    HW2  909   2.771   2.731   2.336  1.8644  3.2096 -2.5960
  304SOL     OW  910   2.763   0.717   1.715 -0.3432 -0.6243  0.0700
  304SOL    HW1  911   2.807   0.788   1.776  2.6494 -0.8972  2.6344
  304SOL    HW2  912   2.767   0.624   1.759 -1.1694 -1.4695 -0.4312
  305SOL     OW  913   0.695   2.082   1.810 -0.1834 -0.2116  0.3517
  305SOL    HW1  914   0.654   2.136   1.731 -2.6320  0.8688 -1.3861
  305SOL    HW2  915   0.644   2.086   1.899 -3.6407 -1.2808  1.3344
  306SOL     OW  916   2.982   1.060   1.622  0.2649  0.2265 -0.2198
  306SOL    HW1  917   2.886   1.084   1.592 -0.7809  0.7623  1.4932
  306SOL    HW2  918   3.032   1.140   1.657 -1.3283  0.7168 -1.4931
  307SOL     OW  919   1.302   0.711   1.985  0.3077  0.0915 -0.2065
  307SOL    HW1  920   1.255   0.770   1.910  0.4048  0.5740 -2.7999
  307SOL    HW2  921   1.331   0.617   1.958 -0.5915 -1.4597 -0.4630
  308SOL     OW  922   3.075   1.583   0.905  0.0793  0.2062 -0.1018
  308SOL    HW1  923   0.021   1.588   0.813  1.5908 -2.4113 -0.5519
  308SOL    HW2  924   2.980   1.550   0.892 -1.9822 -0.7317  1.3367
  309SOL     OW  925   2.453   1.295   0.843  0.3159  0.2687  0.6309
  309SOL    HW1  926   2.358   1.325   0.853 -2.6003 -3.2641 -3.4944
  309SOL    HW2  927   2.473   1.295   0.744  0.1081 -0.2438  0.8954
  310SOL     OW  928   2.902   1.877   3.006 -0.1867 -0.0258 -0.7585
  310SOL    HW1  929   2.845   1.935   2.941  0.8359  1.7100 -2.3726
  310SOL    HW2  930   2.847   1.798   3.040 -1.0992 -0.1138 -2.2397
  311SOL     OW  931   0.001   2.725   2.643 -0.1316 -0.0613 -0.3786
  311SOL    HW1  932   3.007   2.706   2.676  0.3694  1.3030 -0.2278
  311SOL    HW2  933   0.072   2.710   2.714  1.3822  0.2296 -0.3132
  312SOL     OW  934   2.193   1.823   0.637  0.6381  0.4100  0.2478
  312SOL    HW1  935   2.105   1.813   0.586 -3.2605 -0.0717  0.1167
  312SOL    HW2  936   2.263   1.755   0.604  1.1203 -0.8045  2.8058
  313SOL     OW  937   2.787   3.039   0.707 -0.1206  0.0650  0.6297
  313SOL    HW1  938   2.880   3.021   0.667  1.6256  0.2783 -0.3037
  313SOL    HW2  939   2.714   3.020   0.641  0.2270 -1.8084  2.2116
  314SOL     OW  940   1.470   0.959   0.031  0.1179  0.2409  0.0378
  314SOL    HW1  941   1.395   0.907   0.077  0.6849  0.4008 -1.2539
  314SOL    HW2  942   1.554   0.968   0.093 -0.5208 -1.0029 -0.1376
  315SOL     OW  943   1.389   2.484   2.165  0.2102  0.1901  0.6641
  315SOL    HW1  944   1.372   2.588   2.165  1.3254  1.7591  1.4434
  315SOL    HW2  945   1.330   2.436   2.098  0.6553 -2.2594 -2.6921
  316SOL     OW  946   0.038   0.892   0.504  0.4933  0.4003  0.5541
  316SOL    HW1  947   3.055   0.932   0.471  2.0651 -0.3154  0.5402
  316SOL    HW2  948   0.079   0.956   0.570 -0.0680  1.4681 -0.4713
  317SOL     OW  949   0.356   3.016   0.452 -0.4399  0.1166 -0.3141
  317SOL    HW1  950   0.286   3.022   0.527 -0.7116  1.5771  0.8882
  317SOL    HW2  951   0.428   2.942   0.465 -0.7027  0.3953  0.4585
  318SOL     OW  952   2.086   2.277   0.379 -0.0010 -0.0042 -0.1772
  318SOL    HW1  953   2.121   2.186   0.407  1.7556 -0.1697 -3.1827
  318SOL    HW2  954   2.156   2.335   0.345  0.5271 -1.9596  1.6966
  319SOL     OW  955   1.119   1.495   2.802  0.1206  0.2414  0.2915
  319SOL    HW1  956   1.102   1.425   2.872  0.4928 -0.4455 -0.6925
  319SOL    HW2  957   1.073   1.581   2.838 -2.8219 -0.8239 -3.0350
  320SOL     OW  958   0.295   2.549   1.965 -0.5844 -0.4190  0.2355
  320SOL    HW1  959   0.376   2.609   1.939  0.8764  1.3936 -1.0939
  320SOL    HW2  960   0.207   2.600   1.961  1.7719 -1.9907 -1.9672
  321SOL     OW  961   1.363   2.642   2.727  0.3991  0.0126 -0.3780
  321SOL    HW1  962   1.356   2.540   2.693 -1.0125 -1.9203 -1.2547
  321SOL    HW2  963   1.281   2.672   2.782  0.1069 -0.4906  0.2159
  322SOL     OW  964   2.997   1.531   2.062  0.7278 -0.2148  0.0561
  322SOL    HW1  965   2.964   1.457   2.124 -1.7084 -1.0086 -0.4034
  322SOL    HW2  966   3.023   1.479   1.977 -1.7825 -0.2358  1.2742
  323SOL     OW  967   2.366   1.134   0.490 -0.6909 -0.0833 -0.0098
  323SOL    HW1  968   2.277   1.096   0.518  0.5574 -0.2380  0.3577
  323SOL    HW2  969   2.446   1.072   0.505 -0.3135 -0.6498 -0.2324
  324SOL     OW  970   2.910   3.076   2.842 -0.0387 -0.4865 -0.3060
  324SOL    HW1  971   2.932   0.075   2.841  0.8878 -1.5886 -2.6601
  324SOL    HW2  972   2.943   3.030   2.928  0.0294  2.0601  0.9448
  325SOL     OW  973   1.313   0.255   2.479 -0.0983 -0.2663  0.2118
  325SOL    HW1  974   1.272   0.322   2.547 -0.7330  0.8604  0.2575
  325SOL    HW2  975   1.316   0.165   2.523  1.1027 -2.5841 -1.0401
  326SOL     OW  976   2.220   3.044   1.568  0.5561 -0.1713 -0.8204
  326SOL    HW1  977   2.248   0.033   1.615  2.1141  3.5016  2.6792
  326SOL    HW2  978   2.221   2.969   1.635 -0.6523  0.0303 -0.3550
  327SOL     OW  979   1.962   0.129   2.747  0.1590  0.6879  0.6549
  327SOL    HW1  980   1.983   0.027   2.741  1.7135 -1.9457 -0.4984
  327SOL    HW2  981   1.938   0.161   2.839 -3.5900  1.7400  0.7081
  328SOL     OW  982   0.107   1.130   2.482 -0.8328  0.1251  0.4605
  328SOL    HW1  983   0.094   1.196   2.405  2.6615 -0.2943  1.8046
  328SOL    HW2  984   0.017   1.104   2.526 -1.8331 -0.4529  0.3114
  329SOL     OW  985   1.885   0.018   1.862  0.1579 -0.3497  0.4764
  329SOL    HW1  986   1.926   3.026   1.864 -1.1705 -1.8768  0.8603
  329SOL    HW2  987   1.916   0.080   1.934  1.6780 -0.6903  0.6426
  330SOL     OW  988   3.041   1.688   1.137 -0.1995  0.1633  0.6532
  330SOL    HW1  989   3.060   1.641   1.052 -1.6184 -0.9317  1.4905
  330SOL    HW2  990   2.975   1.633   1.192 -1.9147 -1.9722  2.0363
  331SOL     OW  991   0.678   1.773   2.158 -0.0743 -0.2309 -0.0028
  331SOL    HW1  992   0.761   1.821   2.202  1.9402 -0.4175  1.5552
  331SOL    HW2  993   0.713   1.709   2.089  0.4532  3.2800  0.9292
  332SOL     OW  994   0.021   2.794   1.580  0.6146 -0.2190  0.4379
  332SOL    HW1  995   0.036   2.829   1.675  2.5998 -0.1430 -1.3299
  332SOL    HW2  996   0.064   2.852   1.509 -1.4073  0.1226 -0.6919
  333SOL     OW  997   2.319   2.769   1.268 -0.8165  1.2349  0.4395
  333SOL    HW1  998   2.333   2.841   1.340 -0.1282 -0.4921 -0.9253
  333SOL    HW2  999   2.353   2.678   1.299  1.1613 -0.9793 -1.6170
  334SOL     OW 1000   0.681   1.794   1.062 -0.3297 -0.3651  0.3200
  334SOL    HW1 1001   0.612   1.739   1.014 -0.6953 -0.0499 -0.2814
  334SOL    HW2 1002   0.746   1.827   0.992 -0.9678  1.3491 -3.3909
  335SOL     OW 1003   3.081   2.558   3.038  0.1941 -0.0788 -0.1289
  335SOL    HW1 1004   0.070   2.521   2.999  1.3896 -2.1642  2.4471
  335SOL    HW2 1005   2.998   2.524   2.983 -0.0459 -1.9086 -0.3599
  336SOL     OW 1006   0.458   3.030   2.055 -0.3197  0.2649 -0.6235
  336SOL    HW1 1007   0.398   3.063   2.132  1.2508  1.3857  3.2292
  336SOL    HW2 1008   0.542   2.988   2.091 -0.5942  2.1869  1.5563
  337SOL     OW 1009   2.405   2.022   2.721 -0.0562  0.6176  0.0978
  337SOL    HW1 1010   2.307   1.997   2.741  2.4978  1.4497 -0.0660
  337SOL    HW2 1011   2.447   2.073   2.797  0.7944  0.7256 -0.0450
  338SOL     OW 1012   1.108   1.540   1.231  0.4242 -0.1897  0.2592
  338SOL    HW1 1013   1.057   1.625   1.229 -0.7202  1.3992 -0.5879
  338SOL    HW2 1014   1.203   1.555   1.198  1.1345 -1.4935  0.3522
  339SOL     OW 1015   0.372   0.796   1.809  0.7672  0.1099  0.1766
  339SOL    HW1 1016   0.416   0.716   1.847  1.5674  0.5934  0.4210
  339SOL    HW2 1017   0.411   0.873   1.858 -0.8608 -0.1031 -2.1209
  340SOL     OW 1018   1.278   2.515   3.038  0.3352 -0.1718  0.1941
  340SOL    HW1 1019   1.375   2.481   3.030  0.4018  0.3632  0.7182
  340SOL    HW2 1020   1.278   2.594   2.975  4.8959 -3.0937 -1.3499
  341SOL     OW 1021   1.730   1.494   1.077  0.0876  0.3210  0.2262
  341SOL    HW1 1022   1.705   1.546   1.160  1.1850 -1.5276 -1.1518
  341SOL    HW2 1023   1.680   1.405   1.081 -2.0320 -1.8238  0.2599
  342SOL     OW 1024   2.736   2.547   0.473  0.2909 -0.1592 -0.3223
  342SOL    HW1 1025   2.713   2.474   0.536  1.1272  1.5740 -0.6768
  342SOL    HW2 1026   2.839   2.548   0.456  0.3854 -1.1132 -0.5024
  343SOL     OW 1027   1.465   2.229   1.142 -0.3442 -0.0143 -0.6263
  343SOL    HW1 1028   1.420   2.316   1.117 -0.9480 -2.5806 -1.0850
  343SOL    HW2 1029   1.403   2.150   1.139  2.5899  0.2711  1.9976
  344SOL     OW 1030   2.180   2.608   0.855  0.0625  0.5281  0.0692
  344SOL    HW1 1031   2.136   2.612   0.766  0.0135  0.4680 -0.5802
  344SOL    HW2 1032   2.279   2.592   0.848 -0.6383  2.2718  0.5276
  345SOL     OW 1033   2.767   2.074   2.876  0.2917  0.6457  0.2183
  345SOL    HW1 1034   2.667   2.079   2.896  0.1905  1.4905  0.4789
  345SOL    HW2 1035   2.822   2.142   2.934 -1.0486  0.8663  2.4417
  346SOL     OW 1036   2.796   1.870   0.700 -0.3205 -0.5455  0.0542
  346SOL    HW1 1037   2.804   1.839   0.792  0.0170 -0.3516 -0.4866
  346SOL    HW2 1038   2.757   1.799   0.640  0.0195  3.5417  2.4876
  347SOL     OW 1039   2.320   2.218   1.378 -0.2939 -0.0171 -0.0245
  347SOL    HW1 1040   2.342   2.143   1.315  0.7921 -2.4717  1.8787
  347SOL    HW2 1041   2.370   2.301   1.355  1.4838  1.5142 -2.2300
  348SOL     OW 1042   0.707   1.806   2.914  0.2391 -0.2264  0.4187
  348SOL    HW1 1043   0.711   1.885   2.852 -0.9010  1.0598 -2.3505
  348SOL    HW2 1044   0.798   1.764   2.924 -3.0611 -0.1580 -2.6458
  349SOL     OW 1045   2.264   1.246   1.769 -0.3477 -0.5139 -0.0142
  349SOL    HW1 1046   2.212   1.256   1.679  1.0159  3.2885 -1.9914
  349SOL    HW2 1047   2.272   1.336   1.820 -0.5718  0.1651  1.5910
  350SOL     OW 1048   0.074   2.355   1.091  0.2737  0.3813  0.1909
  350SOL    HW1 1049   3.099   2.335   1.030  0.2887 -1.2045  1.3394
  350SOL    HW2 1050   0.152   2.292   1.069  0.6129 -3.3468  1.0385
  351SOL     OW 1051   0.375   0.778   2.144 -0.2918  0.3501  0.4909
  351SOL    HW1 1052   0.393   0.874   2.122  0.7732 -3.0360  1.5337
  351SOL    HW2 1053   0.421   0.744   2.230  0.4182 -1.6917 -0.7031
  352SOL     OW 1054   0.575   2.232   1.608  0.1102 -0.6955 -0.0032
  352SOL    HW1 1055   0.530   2.320   1.579 -0.1306  0.1284 -0.1243
  352SOL    HW2 1056   0.524   2.152   1.569  1.9173 -2.9685 -0.9418
  353SOL     OW 1057   1.387   1.615   2.405  0.0238  0.4406 -0.0647
  353SOL    HW1 1058   1.332   1.685   2.358  0.2155 -2.3074  1.7321
  353SOL    HW2 1059   1.421   1.655   2.489  1.5182 -2.2568 -0.4207
  354SOL     OW 1060   1.390   0.675   0.800 -0.2933  0.2241  0.2451
  354SOL    HW1 1061   1.480   0.628   0.802  1.0181 -1.4949 -1.8100
  354SOL    HW2 1062   1.360   0.680   0.701  1.0087 -0.2608 -1.4155
  355SOL     OW 1063   2.613   1.013   0.573  0.0251  0.4375  0.0995
  355SOL    HW1 1064   2.641   0.913   0.544  0.1045 -4.8376  1.1924
  355SOL    HW2 1065   2.691   1.079   0.560  3.1107  0.3981  1.3164
  356SOL     OW 1066   2.694   1.281   2.656  0.2128 -0.7754  0.3991
  356SOL    HW1 1067   2.770   1.257   2.720  1.8863  1.5550 -1.4464
  356SOL    HW2 1068   2.621   1.211   2.657 -0.5263  2.3457 -1.5490
  357SOL     OW 1069   0.834   2.698   1.429  0.0900  0.2088  0.2555
  357SOL    HW1 1070   0.781   2.653   1.352  1.5517 -1.0298  0.6320
  357SOL    HW2 1071   0.832   2.797   1.410 -1.2812 -1.4694 -0.9931
  358SOL     OW 1072   2.434   1.017   1.849  0.3074  0.4792 -0.0666
  358SOL    HW1 1073   2.409   1.115   1.831  0.5395 -1.0849  2.1578
  358SOL    HW2 1074   2.383   0.947   1.795 -1.2233  0.8696  1.3166
  359SOL     OW 1075   2.109   2.278   2.967 -0.4903  0.0710  0.9215
  359SOL    HW1 1076   2.168   2.308   3.041 -0.4365 -0.1455  2.0255
  359SOL    HW2 1077   2.102   2.349   2.893 -3.1357  0.3997  1.0555
  360SOL     OW 1078   2.183   0.416   0.858  0.3252 -0.2698 -0.4029
  360SOL    HW1 1079   2.122   0.489   0.897  0.2643  0.0989  1.8069
  360SOL    HW2 1080   2.142   0.323   0.873 -0.7383  0.1844 -1.6657
  361SOL     OW 1081   2.071   3.017   0.935  0.1330 -0.5094 -0.7073
  361SOL    HW1 1082   2.166   2.986   0.952  1.1626 -0.2273  0.0112
  361SOL    HW2 1083   2.019   2.944   0.884  1.7402 -3.0877  0.7489
  362SOL     OW 1084   1.439   0.944   0.528 -0.5347  0.2965  0.4833
  362SOL    HW1 1085   1.391   1.000   0.455  0.8978 -0.0259  0.4974
  362SOL    HW2 1086   1.403   0.848   0.533  0.0012  2.0152  1.8902
  363SOL     OW 1087   2.376   1.439   2.390 -0.6484 -0.0788 -0.1407
  363SOL    HW1 1088   2.469   1.413   2.362 -2.1398 -1.1953  2.4370
  363SOL    HW2 1089   2.310   1.365   2.374  0.8180  1.2714  1.3359
  364SOL     OW 1090   1.328   0.501   1.319  0.0411  0.3785 -0.1678
  364SOL    HW1 1091   1.339   0.484   1.220 -0.8845 -3.9651  0.9830
  364SOL    HW2 1092   1.393   0.442   1.372  2.8884  0.8083 -0.0582
  365SOL     OW 1093   0.221   2.832   0.903 -0.3804  0.4653  0.3850
  365SOL    HW1 1094   0.190   2.758   0.839 -0.5028 -0.4710  0.6788
  365SOL    HW2 1095   0.145   2.870   0.954  1.2782  3.0828 -1.9695
  366SOL     OW 1096   2.852   1.634   0.306 -0.1501  0.3864 -0.7544
  366SOL    HW1 1097   2.914   1.600   0.378  0.2378 -0.7439  0.3092
  366SOL    HW2 1098   2.897   1.683   0.233  0.4360 -0.2260  1.2020
  367SOL     OW 1099   2.840   2.475   2.912 -0.0439 -0.2110  0.5267
  367SOL    HW1 1100   2.828   2.529   2.823 -1.3964 -2.4584 -2.2264
  367SOL    HW2 1101   2.766   2.492   2.978 -0.3459  0.1615 -3.4261
  368SOL     OW 1102   0.225   2.121   1.048  0.5107  0.8367  0.3281
  368SOL    HW1 1103   0.318   2.084   1.030 -0.1268 -0.5417 -3.1408
  368SOL    HW2 1104   0.163   2.053   1.006  0.3743  2.7268  0.4300
  369SOL     OW 1105   0.474   0.156   0.377 -0.1085 -0.2531 -0.3893
  369SOL    HW1 1106   0.449   0.057   0.400 -2.8823 -1.4001  0.0654
  369SOL    HW2 1107   0.573   0.162   0.349 -3.6320 -0.9528 -0.3743
  370SOL     OW 1108   0.385   1.099   1.063  0.0816  0.3163 -0.0733
  370SOL    HW1 1109   0.286   1.126   1.036  1.5394 -1.2715  2.6058
  370SOL    HW2 1110   0.403   1.138   1.156 -2.2057  0.6976 -2.8594
  371SOL     OW 1111   1.938   2.448   0.532 -0.5375 -0.1800 -0.2329
  371SOL    HW1 1112   1.984   2.376   0.474  0.3949 -1.0589  0.0900
  371SOL    HW2 1113   1.895   2.413   0.616 -0.4717  2.7867  2.2502
  372SOL     OW 1114   0.370   0.907   2.847  0.1623 -0.1076  0.3729
  372SOL    HW1 1115   0.409   0.933   2.755  0.6119 -1.1522 -1.0224
  372SOL    HW2 1116   0.409   0.968   2.923  0.9188 -1.2139  0.5421
  373SOL     OW 1117   2.726   1.646   0.555  0.8298  0.3181  0.3178
  373SOL    HW1 1118   2.744   1.655   0.455 -1.7378  2.8198  0.2209
  373SOL    HW2 1119   2.636   1.686   0.573  2.3016  1.8397  0.0409
  374SOL     OW 1120   0.280   2.448   0.416 -0.3863 -0.1165  0.6003
  374SOL    HW1 1121   0.250   2.361   0.460  0.5528 -0.9853 -0.5658
  374SOL    HW2 1122   0.237   2.475   0.328 -2.0256 -0.5550 -0.4194
  375SOL     OW 1123   0.716   0.212   0.249  0.7608  0.0739  0.2478
  375SOL    HW1 1124   0.796   0.149   0.256 -0.4036 -0.7826 -2.5463
  375SOL    HW2 1125   0.744   0.308   0.240  0.4740 -1.6151 -1.9514
  376SOL     OW 1126   0.321   3.043   1.828 -0.0216 -0.2590 -0.2547
  376SOL    HW1 1127   0.292   0.038   1.821 -0.9649 -0.3354 -1.5435
  376SOL    HW2 1128   0.375   3.027   1.911 -2.9133  1.7223  0.1946
  377SOL     OW 1129   0.818   2.262   2.460 -0.1888 -0.4071 -0.2268
  377SOL    HW1 1130   0.853   2.171   2.491  1.2717  0.4774  0.3449
  377SOL    HW2 1131   0.896   2.329   2.461  0.8727  1.4370 -0.6009
  378SOL     OW 1132   1.070   0.849   0.552  0.1145  0.3549  0.1489
  378SOL    HW1 1133   1.011   0.868   0.473  2.1910  2.3318  1.6698
  378SOL    HW2 1134   1.102   0.754   0.549  0.1027  1.5889 -1.2617
  379SOL     OW 1135   0.972   1.674   2.966  0.0348 -0.0315  0.4938
  379SOL    HW1 1136   0.939   1.623   3.053 -0.1692 -1.4299  1.0204
  379SOL    HW2 1137   1.034   1.750   2.998 -1.1629  0.3980 -2.0373
  380SOL     OW 1138   2.713   2.031   1.773  0.2660 -0.1135  0.4909
  380SOL    HW1 1139   2.688   1.936   1.794  0.1411  1.0356  0.4885
  380SOL    HW2 1140   2.752   2.081   1.852  0.4335  0.1114  0.6868
  381SOL     OW 1141   0.133   1.216   1.692  0.1042 -0.0802  0.0118
  381SOL    HW1 1142   0.211   1.278   1.720 -0.6385  2.5269  1.5516
  381SOL    HW2 1143   0.161   1.159   1.613 -1.0709 -0.9022 -0.3063
  382SOL     OW 1144   2.508   2.355   3.030 -0.0370  0.0627  0.0928
  382SOL    HW1 1145   2.416   2.359   3.073  0.0171 -1.4893  1.0844
  382SOL    HW2 1146   2.577   2.388   0.001  0.5363  2.5062  0.8765
  383SOL     OW 1147   2.491   1.924   2.143 -0.1116  0.0248  1.3426
  383SOL    HW1 1148   2.466   1.853   2.203  0.2895  1.5857  0.4248
  383SOL    HW2 1149   2.546   1.988   2.193 -0.2163  2.8171 -1.4037
  384SOL     OW 1150   0.744   2.216   2.188 -0.1591  0.4890  0.3823
  384SOL    HW1 1151   0.752   2.216   2.291  0.8809  1.3079  0.5500
  384SOL    HW2 1152   0.722   2.306   2.151 -0.2588 -1.2322 -1.2165
  385SOL     OW 1153   2.695   2.113   1.007  0.6270 -0.1480 -0.1629
  385SOL    HW1 1154   2.602   2.084   0.973  0.5213 -1.8110  1.9657
  385SOL    HW2 1155   2.761   2.040   0.973  3.2150 -0.8048 -0.4890
  386SOL     OW 1156   1.844   0.377   0.185  0.1313  0.0840 -0.8579
  386SOL    HW1 1157   1.858   0.432   0.096 -3.0498 -2.6667 -4.0969
  386SOL    HW2 1158   1.895   0.421   0.263  3.6380 -1.1523  1.6244
  387SOL     OW 1159   0.543   0.830   1.613 -0.0016  0.0412  0.2394
  387SOL    HW1 1160   0.527   0.754   1.544  0.9809 -0.7728  0.4758
  387SOL    HW2 1161   0.468   0.824   1.686 -2.0480 -1.0455 -0.4649
  388SOL     OW 1162   2.826   1.148   2.029 -1.2079  0.0760 -0.0065
  388SOL    HW1 1163   2.865   1.218   2.095  0.0378  1.1948  0.2952
  388SOL    HW2 1164   2.779   1.072   2.077  0.4722  0.3158 -0.4087
  389SOL     OW 1165   1.688   0.663   2.406  0.1244 -0.0384  0.0787
  389SOL    HW1 1166   1.666   0.753   2.360  2.4560  0.5805  0.9152
  389SOL    HW2 1167   1.731   0.603   2.336 -0.4726 -2.3003 -0.3662
  390SOL     OW 1168   1.884   2.472   0.007 -0.5606 -0.5069  0.0844
  390SOL    HW1 1169   1.863   2.388   3.058 -0.9904  1.1515  1.6938
  390SOL    HW2 1170   1.856   2.466   0.103 -1.9899  1.8890 -0.4707
  391SOL     OW 1171   1.896   2.397   1.376 -0.1660 -0.4476 -0.2688
  391SOL    HW1 1172   1.813   2.336   1.370 -0.1866 -1.6497 -2.5205
  391SOL    HW2 1173   1.872   2.494   1.341 -2.1504  0.0840 -2.0913
  392SOL     OW 1174   2.722   2.615   1.413  0.2933 -0.6743 -0.0865
  392SOL    HW1 1175   2.641   2.636   1.476  1.2668 -2.6323 -1.2013
  392SOL    HW2 1176   2.805   2.670   1.435 -2.4674 -1.1038  1.5751
  393SOL     OW 1177   1.752   1.744   2.674 -0.5614 -0.2425  0.3752
  393SOL    HW1 1178   1.840   1.793   2.669 -0.5316 -1.1132  0.4444
  393SOL    HW2 1179   1.746   1.656   2.617  0.0485  3.2107 -1.8602
  394SOL     OW 1180   0.189   2.844   0.203 -0.2620  0.1914 -0.2408
  394SOL    HW1 1181   0.150   2.825   0.112  0.8310 -1.6800  2.6517
  394SOL    HW2 1182   0.173   2.944   0.230 -0.9638  1.3721  1.7070
  395SOL     OW 1183   1.386   1.264   1.353  0.0970  0.6879 -0.2016
  395SOL    HW1 1184   1.416   1.271   1.255  2.1961  1.3985 -1.3895
  395SOL    HW2 1185   1.284   1.259   1.357  2.0162 -3.6421 -0.3935
  396SOL     OW 1186   1.935   0.529   3.010  0.2199 -0.1397 -0.7773
  396SOL    HW1 1187   1.915   0.467   2.934 -0.9666  2.2237 -0.4601
  396SOL    HW2 1188   1.890   0.622   2.994 -2.0636  0.6654 -0.1785
  397SOL     OW 1189   0.112   0.829   2.880  0.1697 -0.1641 -0.1699
  397SOL    HW1 1190   0.059   0.765   2.822 -1.5345  0.3271  0.2623
  397SOL    HW2 1191   0.211   0.834   2.853 -3.7228 -0.3831  0.1582
  398SOL     OW 1192   1.165   0.130   0.148  0.1998 -0.2063 -0.3577
  398SOL    HW1 1193   1.258   0.097   0.159 -1.1092 -0.2840  0.6818
  398SOL    HW2 1194   1.113   0.069   0.085 -0.1085 -2.7979  0.8710
  399SOL     OW 1195   2.213   3.044   2.064 -0.3127 -0.2439 -0.0783
  399SOL    HW1 1196   2.208   0.044   2.057 -1.3685 -0.6362 -0.2520
  399SOL    HW2 1197   2.244   3.008   1.974  0.8656  2.1517 -2.5133
  400SOL     OW 1198   3.086   1.592   2.545 -0.3081  0.4301 -0.1478
  400SOL    HW1 1199   0.047   1.598   2.619 -0.3599  0.1129 -2.3139
  400SOL    HW2 1200   2.988   1.598   2.571  3.6901  0.7899 -1.9912
  401SOL     OW 1201   0.594   0.221   2.917 -0.4503 -0.1504  0.6315
  401SOL    HW1 1202   0.588   0.282   3.004 -2.7351  0.8109 -0.5978
  401SOL    HW2 1203   0.683   0.234   2.866  1.6927 -0.1122 -0.1954
  402SOL     OW 1204   0.232   2.448   1.698  0.8197 -0.7023 -0.5023
  402SOL    HW1 1205   0.270   2.481   1.612 -0.3158 -3.0391 -0.4566
  402SOL    HW2 1206   0.277   2.493   1.778  0.8400  0.4646  1.2172
  403SOL     OW 1207   0.817   1.472   1.227  0.5900 -0.1127 -0.0706
  403SOL    HW1 1208   0.842   1.373   1.222  0.8352 -1.3458  0.7073
  403SOL    HW2 1209   0.853   1.510   1.318  0.1150 -0.6520  3.8303
  404SOL     OW 1210   2.765   2.753   1.693  0.4680 -0.0183  0.0371
  404SOL    HW1 1211   2.667   2.744   1.663  1.1967  0.1774  2.0666
  404SOL    HW2 1212   2.817   2.803   1.617 -0.2107 -1.4233 -3.5263
  405SOL     OW 1213   0.027   0.831   2.221  0.0812 -0.3159  0.6633
  405SOL    HW1 1214   3.057   0.797   2.153 -1.8768  2.2131 -0.8113
  405SOL    HW2 1215   0.005   0.792   2.312 -2.4689  0.3991 -1.0178
  406SOL     OW 1216   1.392   2.379   2.631 -0.4146  0.3402 -0.7412
  406SOL    HW1 1217   1.363   2.283   2.650 -0.3457 -2.0607 -1.3977
  406SOL    HW2 1218   1.487   2.378   2.593  1.3658 -3.8081  0.0464
  407SOL     OW 1219   1.792   1.801   0.892 -0.5597 -0.1770 -0.2736
  407SOL    HW1 1220   1.770   1.844   0.982  0.2031  0.3933  0.8617
  407SOL    HW2 1221   1.831   1.712   0.906  0.6682 -0.3717 -0.8891
  408SOL     OW 1222   0.645   0.361   2.086 -0.0377 -0.2367 -0.3059
  408SOL    HW1 1223   0.609   0.273   2.051  1.5969  0.1546 -0.0785
  408SOL    HW2 1224   0.746   0.357   2.086  1.1040  0.8770  1.0520
  409SOL     OW 1225   2.500   2.116   0.376 -0.0063  0.1005  0.4814
  409SOL    HW1 1226   2.427   2.047   0.396 -0.0730 -0.9135 -1.7322
  409SOL    HW2 1227   2.588   2.091   0.416 -2.0965  1.7070 -1.0625
  410SOL     OW 1228   2.171   1.674   0.265  0.1022 -0.2616 -0.3839
  410SOL    HW1 1229   2.254   1.701   0.218 -0.9276 -0.7039  0.5225
  410SOL    HW2 1230   2.195   1.624   0.349 -2.4556 -3.3777  0.1717
  411SOL     OW 1231   0.090   0.643   0.572 -0.8514  0.1403  1.1131
  411SOL    HW1 1232   0.183   0.647   0.615  0.5340 -0.1857 -1.4834
  411SOL    HW2 1233   0.070   0.734   0.530  2.2793  1.5863  0.6306
  412SOL     OW 1234   2.008   0.452   0.385 -0.8556  0.0557 -0.0550
  412SOL    HW1 1235   1.994   0.412   0.479  0.4229 -0.1650 -0.8404
  412SOL    HW2 1236   2.002   0.553   0.395 -1.2135 -1.3489  0.7011
  413SOL     OW 1237   0.944   0.727   1.182 -0.5760 -0.3748  0.3210
  413SOL    HW1 1238   0.932   0.695   1.280  0.3481  1.8276 -1.6731
  413SOL    HW2 1239   1.009   0.807   1.179 -0.7117  2.0267 -0.0121
  414SOL     OW 1240   0.346   1.570   3.075  0.0380  0.1203  0.2957
  414SOL    HW1 1241   0.277   1.506   0.015  0.7138  1.6037 -1.3326
  414SOL    HW2 1242   0.335   1.667   0.005  1.9255  2.3847  2.5001
  415SOL     OW 1243   0.315   1.839   0.023  1.0455 -0.2525  0.4541
  415SOL    HW1 1244   0.411   1.879   0.032  1.6372 -1.2459 -0.5213
  415SOL    HW2 1245   0.273   1.867   3.038  0.5785  1.1436  0.2578
  416SOL     OW 1246   1.675   0.665   0.294 -0.2424 -0.0569  0.1586
  416SOL    HW1 1247   1.774   0.672   0.317  1.7888 -0.4730  0.3355
  416SOL    HW2 1248   1.624   0.594   0.355  0.2050 -0.8042  1.7830
  417SOL     OW 1249   0.323   0.935   0.860 -0.6831  0.0712 -0.3392
  417SOL    HW1 1250   0.226   0.938   0.876 -0.1457  0.2444  3.8813
  417SOL    HW2 1251   0.367   0.975   0.947 -0.7757  1.7668  1.4915
  418SOL     OW 1252   2.412   1.130   2.691 -0.2097 -0.1947 -0.1090
  418SOL    HW1 1253   2.357   1.211   2.724 -2.4830  1.4678 -0.2662
  418SOL    HW2 1254   2.418   1.051   2.762  0.0776  0.2013  1.3452
  419SOL     OW 1255   0.301   0.366   0.349 -0.2252 -0.0164 -0.5236
  419SOL    HW1 1256   0.360   0.434   0.404  2.1296  0.4275  1.6974
  419SOL    HW2 1257   0.356   0.283   0.339  1.5134 -0.1512 -0.7815
  420SOL     OW 1258   0.282   1.769   0.783  0.3111 -0.1361  0.0304
  420SOL    HW1 1259   0.320   1.693   0.840 -1.1937  1.5487 -2.5372
  420SOL    HW2 1260   0.347   1.849   0.768  1.5191  3.1038  0.8952
  421SOL     OW 1261   0.344   2.027   0.470  0.0182 -0.5671  0.1969
  421SOL    HW1 1262   0.435   2.052   0.432  1.9604  0.4810 -1.4320
  421SOL    HW2 1263   0.351   2.014   0.573  1.2334 -0.4570  1.7695
  422SOL     OW 1264   2.762   0.721   1.449  0.5166  0.5926 -0.3060
  422SOL    HW1 1265   2.857   0.728   1.417  0.5504 -1.6187  0.8071
  422SOL    HW2 1266   2.759   0.719   1.551  1.1800 -0.7359  1.5084
  423SOL     OW 1267   1.928   1.545   0.925  0.7390  0.6975 -0.4588
  423SOL    HW1 1268   1.846   1.525   0.984 -2.2413  1.0234  1.4159
  423SOL    HW2 1269   1.948   1.460   0.873  0.3253  1.2056  1.7454
  424SOL     OW 1270   1.932   1.090   0.397 -0.3992 -0.0099 -0.4262
  424SOL    HW1 1271   1.971   1.184   0.373  0.3224  2.5833  0.9986
  424SOL    HW2 1272   1.835   1.101   0.416 -0.1928 -0.4854 -0.6538
  425SOL     OW 1273   3.052   3.056   1.983 -0.4834  0.1552 -0.1687
  425SOL    HW1 1274   3.088   0.011   2.056 -1.5826  1.5587  3.5802
  425SOL    HW2 1275   2.965   3.014   2.025  0.1450 -0.7585 -1.8475
  426SOL     OW 1276   2.512   2.822   2.975  0.1692 -0.2345 -0.1390
  426SOL    HW1 1277   2.554   2.822   3.071  0.1269  0.7221  0.0717
  426SOL    HW2 1278   2.581   2.857   2.905  0.5112 -0.3109 -1.0911
  427SOL     OW 1279   0.970   1.004   2.490  0.3832 -0.2102 -0.5565
  427SOL    HW1 1280   1.039   0.947   2.537  0.0313 -0.7038  1.7778
  427SOL    HW2 1281   1.023   1.074   2.436  1.0851  0.8501 -2.4713
  428SOL     OW 1282   2.107   0.759   2.472 -0.0314  0.2028  0.1022
  428SOL    HW1 1283   2.177   0.826   2.501  0.7852  0.9585 -1.6963
  428SOL    HW2 1284   2.011   0.790   2.506 -1.9861  0.5816 -1.0580
  429SOL     OW 1285   2.557   0.343   0.474  0.3931  0.1813  0.1087
  429SOL    HW1 1286   2.559   0.241   0.455  0.8485  0.2616  3.7332
  429SOL    HW2 1287   2.463   0.375   0.503  0.1523 -0.6475 -1.6399
  430SOL     OW 1288   2.105   1.390   2.176 -0.4321 -0.5396  0.0719
  430SOL    HW1 1289   2.150   1.333   2.255  1.0346 -3.3241  1.7611
  430SOL    HW2 1290   2.109   1.335   2.092 -0.4473  1.8964 -0.2738
  431SOL     OW 1291   3.032   2.094   1.306  0.5730  0.2438  0.3840
  431SOL    HW1 1292   3.067   2.184   1.333 -2.8589 -0.6820  0.7698
  431SOL    HW2 1293   2.936   2.082   1.348 -0.5841  0.7669 -0.5810
  432SOL     OW 1294   1.456   2.999   2.472 -0.6965  0.1293  0.3447
  432SOL    HW1 1295   1.400   3.053   2.538 -0.6396  1.7865 -0.2421
  432SOL    HW2 1296   1.529   3.067   2.444  2.3704  1.1094 -0.1532
  433SOL     OW 1297   1.584   2.849   1.571 -0.5737  0.6399  0.8536
  433SOL    HW1 1298   1.662   2.783   1.565  2.2873 -2.9323 -2.3261
  433SOL    HW2 1299   1.619   2.942   1.550  2.5307  1.7778  1.6451
  434SOL     OW 1300   3.048   2.669   2.218 -0.8820  0.0090  0.5852
  434SOL    HW1 1301   3.082   2.754   2.260  0.7413  0.5289  0.6791
  434SOL    HW2 1302   3.065   2.671   2.116  1.8603 -0.2325 -1.0656
  435SOL     OW 1303   0.050   1.865   0.383 -0.4100 -0.0041 -0.2809
  435SOL    HW1 1304   0.004   1.821   0.303 -3.3183  1.2587  2.6363
  435SOL    HW2 1305   0.152   1.869   0.381  2.0947  0.8179  0.4027
  436SOL     OW 1306   1.043   1.273   1.630  0.4295 -0.7104 -0.0134
  436SOL    HW1 1307   0.996   1.203   1.576  0.0457  2.1427  1.6529
  436SOL    HW2 1308   1.006   1.261   1.727  0.2164 -0.1362 -0.0835
  437SOL     OW 1309   0.422   0.173   2.700  0.2810  0.0191 -0.3799
  437SOL    HW1 1310   0.486   0.169   2.782  1.4312 -2.0558  1.2920
  437SOL    HW2 1311   0.354   0.100   2.705 -3.9702  0.6827  0.0506
  438SOL     OW 1312   0.675   1.799   1.752  0.1220 -0.0800  0.0910
  438SOL    HW1 1313   0.701   1.893   1.778  0.5286 -2.2500  0.7799
  438SOL    HW2 1314   0.682   1.788   1.647 -1.5957  0.3373 -1.2312
  439SOL     OW 1315   1.917   1.038   2.836 -0.1109  0.3468 -0.3397
  439SOL    HW1 1316   1.860   0.970   2.888 -3.3231 -0.0092  1.3301
  439SOL    HW2 1317   1.994   0.991   2.788  2.8705 -0.5427  0.6826
  440SOL     OW 1318   1.067   0.953   3.089 -0.1138  0.6501 -0.2190
  440SOL    HW1 1319   1.119   0.883   0.042  1.7322 -2.0304  0.2542
  440SOL    HW2 1320   0.965   0.944   3.099  0.5045 -0.4313 -0.8381
  441SOL     OW 1321   0.416   2.837   1.637 -0.9401  0.3072 -0.4897
  441SOL    HW1 1322   0.378   2.830   1.544  1.4009 -1.2388  3.2822
  441SOL    HW2 1323   0.389   2.924   1.677  0.6268 -1.2824  0.4473
  442SOL     OW 1324   2.279   2.356   1.001 -0.6707 -0.0443 -0.1995
  442SOL    HW1 1325   2.238   2.264   1.004  1.8785 -0.4622 -1.4808
  442SOL    HW2 1326   2.224   2.434   1.027  1.1194 -1.1314 -0.9802
  443SOL     OW 1327   2.737   1.217   2.387 -0.2296  0.0768  0.5257
  443SOL    HW1 1328   2.722   1.273   2.469  1.0823 -1.7242  0.2668
  443SOL    HW2 1329   2.664   1.233   2.317  0.9910  0.7153 -1.2011
  444SOL     OW 1330   1.275   0.764   2.682  0.8010  0.4354 -0.0818
  444SOL    HW1 1331   1.353   0.696   2.690 -0.1653 -2.5031 -2.5177
  444SOL    HW2 1332   1.281   0.841   2.749  1.1025 -1.5594  1.7447
  445SOL     OW 1333   2.241   2.816   1.731 -0.0081  0.0210  0.4453
  445SOL    HW1 1334   2.291   2.807   1.822 -1.1006 -0.1341  1.2124
  445SOL    HW2 1335   2.238   2.728   1.680  1.1494 -0.7072 -1.1954
  446SOL     OW 1336   2.883   2.006   0.319 -0.3450 -0.0819  0.0660
  446SOL    HW1 1337   2.967   1.966   0.367  2.0111 -2.3947  0.6100
  446SOL    HW2 1338   2.813   2.036   0.388  0.4271 -1.9106  1.5220
  447SOL     OW 1339   1.007   2.599   1.611 -0.0901  0.0284  0.3578
  447SOL    HW1 1340   1.040   2.658   1.687 -1.1093 -1.1187  1.4305
  447SOL    HW2 1341   0.935   2.644   1.556  0.9435  0.1600  1.3245
  448SOL     OW 1342   1.784   1.710   1.910 -0.3809  0.1577 -0.3227
  448SOL    HW1 1343   1.717   1.782   1.935 -1.0642  1.0199  0.8560
  448SOL    HW2 1344   1.783   1.637   1.982 -0.0504 -0.6072  0.9654
  449SOL     OW 1345   0.164   1.957   2.248  0.7492  0.0494 -0.4441
  449SOL    HW1 1346   0.199   2.052   2.280 -0.4793  0.0823  1.1800
  449SOL    HW2 1347   0.229   1.891   2.213 -0.7088  3.7196  2.5120
  450SOL     OW 1348   2.832   1.584   2.621  0.1136 -0.1555  0.2227
  450SOL    HW1 1349   2.784   1.493   2.611  0.1974 -0.8232 -0.3166
  450SOL    HW2 1350   2.781   1.669   2.596 -1.2900 -0.5828 -0.7367
  451SOL     OW 1351   2.189   0.646   1.378 -0.0139  0.3306  0.2229
  451SOL    HW1 1352   2.245   0.607   1.300 -2.0904  0.6724  1.9771
  451SOL    HW2 1353   2.191   0.576   1.456 -0.4221  0.6930 -0.8087
  452SOL     OW 1354   0.975   1.783   1.193 -0.4131 -0.0492 -0.0389
  452SOL    HW1 1355   0.936   1.842   1.267  0.0945 -0.9593  0.4685
  452SOL    HW2 1356   0.902   1.756   1.121 -3.2265  0.8389 -0.0616
  453SOL     OW 1357   1.185   2.155   0.645 -0.0427 -0.4189 -0.1579
  453SOL    HW1 1358   1.282   2.192   0.644  1.0068  0.7395  1.2356
  453SOL    HW2 1359   1.119   2.231   0.663  0.1831 -0.2128 -1.2002
  454SOL     OW 1360   0.177   1.090   0.648 -0.2918 -0.3352  0.4508
  454SOL    HW1 1361   0.238   1.041   0.714  1.0206  0.9445  0.5799
  454SOL    HW2 1362   0.126   1.163   0.697  0.7884  1.1856 -0.0776
  455SOL     OW 1363   0.869   0.955   0.356  0.6863 -0.6184  0.2919
  455SOL    HW1 1364   0.870   0.929   0.253  0.2260 -1.9340 -4.0557
  455SOL    HW2 1365   0.875   1.055   0.366  0.2068 -3.1410 -0.0436
  456SOL     OW 1366   2.064   2.212   1.259 -0.2378  0.2644 -0.8446
  456SOL    HW1 1367   2.154   2.231   1.299  0.3542  0.0785 -3.3969
  456SOL    HW2 1368   1.992   2.284   1.281 -1.4698  0.9892  0.1288
  457SOL     OW 1369   1.509   2.907   2.829 -0.3956 -0.4072  0.6323
  457SOL    HW1 1370   1.466   2.837   2.769  1.3674 -0.4540 -1.0469
  457SOL    HW2 1371   1.436   2.942   2.896 -0.1642 -0.7105  1.0116
  458SOL     OW 1372   2.631   0.179   3.035 -0.6777 -0.3349 -0.5566
  458SOL    HW1 1373   2.550   0.223   3.067  1.7577 -1.0158  0.1124
  458SOL    HW2 1374   2.644   0.101   3.094 -0.0510  0.6152 -2.1522
  459SOL     OW 1375   2.303   0.406   2.285  0.0114 -0.0829  0.2922
  459SOL    HW1 1376   2.241   0.484   2.283  1.4446 -1.1646  1.0919
  459SOL    HW2 1377   2.398   0.439   2.300 -1.4555 -1.0611 -3.0041
  460SOL     OW 1378   3.069   0.652   2.739 -0.0178  0.2021 -0.3390
  460SOL    HW1 1379   3.085   0.551   2.708  1.4134 -1.5328  1.2756
  460SOL    HW2 1380   2.989   0.655   2.798 -0.6654 -1.9883 -1.8754
  461SOL     OW 1381   2.987   2.044   0.895  0.1537 -1.0334  0.5538
  461SOL    HW1 1382   3.080   2.002   0.914  0.4542 -0.5400  0.4130
  461SOL    HW2 1383   2.943   1.990   0.821  1.5637 -1.1959  1.1635
  462SOL     OW 1384   3.099   0.434   0.997  0.1255 -0.4966 -0.3586
  462SOL    HW1 1385   3.030   0.492   0.947  1.7832  0.8677  2.1931
  462SOL    HW2 1386   3.055   0.418   1.088  1.2209 -1.6863 -0.2172
  463SOL     OW 1387   2.297   1.323   0.202  0.3380 -0.0717 -0.4411
  463SOL    HW1 1388   2.346   1.349   0.291  0.1485 -0.2199  0.9024
  463SOL    HW2 1389   2.335   1.373   0.126 -0.2451  0.6996  2.9132
  464SOL     OW 1390   0.761   2.984   1.392  0.1520  0.4798  0.0938
  464SOL    HW1 1391   0.812   3.050   1.334  0.1890 -0.7031  0.3127
  464SOL    HW2 1392   0.662   2.971   1.375  1.9434 -1.4088 -0.7348
  465SOL     OW 1393   1.445   0.312   1.500  0.6024 -0.4278  0.0606
  465SOL    HW1 1394   1.537   0.279   1.531  1.3593 -0.5111  0.4026
  465SOL    HW2 1395   1.364   0.296   1.561 -1.1067 -1.5073 -1.4548
  466SOL     OW 1396   1.575   2.375   2.004 -0.4885  0.1016 -0.1837
  466SOL    HW1 1397   1.666   2.402   2.036  2.1072  0.5653 -1.8946
  466SOL    HW2 1398   1.508   2.406   2.077  3.5118  2.5185  0.4439
  467SOL     OW 1399   0.662   2.564   1.611  0.3168 -0.0705 -0.3406
  467SOL    HW1 1400   0.562   2.585   1.614 -1.3719 -1.5461 -0.8939
  467SOL    HW2 1401   0.715   2.624   1.550  2.2198 -1.2623  0.6983
  468SOL     OW 1402   2.818   1.752   2.107  0.0622  0.7095 -0.1255
  468SOL    HW1 1403   2.880   1.668   2.099  0.8363  1.8626 -0.2742
  468SOL    HW2 1404   2.846   1.811   2.181 -1.7816  0.0070 -1.4412
  469SOL     OW 1405   0.823   1.916   0.858  0.3052  0.2368 -0.7922
  469SOL    HW1 1406   0.805   2.023   0.860  0.1825  3.2523  0.1546
  469SOL    HW2 1407   0.923   1.895   0.858 -0.0934 -0.0445 -0.8060
  470SOL     OW 1408   2.205   1.246   2.408 -0.0126 -0.0598  0.1446
  470SOL    HW1 1409   2.208   1.154   2.361 -3.8784  1.2241  0.5692
  470SOL    HW2 1410   2.213   1.237   2.507 -2.1180  0.8180 -0.5468
  471SOL     OW 1411   0.117   2.462   0.155  0.5374 -0.1898 -0.2716
  471SOL    HW1 1412   0.047   2.487   0.082 -0.4051 -1.5167  0.4586
  471SOL    HW2 1413   0.201   2.432   0.108  1.4136  1.2817  1.2651
  472SOL     OW 1414   0.065   2.866   2.405 -0.2988 -0.1025  0.4329
  472SOL    HW1 1415   0.051   2.829   2.498 -1.8943 -1.4260  0.2890
  472SOL    HW2 1416   0.030   2.962   2.397  5.6857 -0.3810  1.0947
  473SOL     OW 1417   0.456   2.815   0.182 -0.0759  0.2505  0.2374
  473SOL    HW1 1418   0.352   2.804   0.185 -0.5973 -0.5260  0.2064
  473SOL    HW2 1419   0.483   2.894   0.122 -2.3000  1.4343 -2.0852
  474SOL     OW 1420   1.563   2.868   1.032  0.0356  0.5393 -0.1928
  474SOL    HW1 1421   1.609   2.807   0.962  1.5060  0.0436 -1.3140
  474SOL    HW2 1422   1.546   2.820   1.119  0.0973 -0.8037 -3.1355
  475SOL     OW 1423   1.652   3.083   1.471 -0.0682 -0.2938  0.1184
  475SOL    HW1 1424   1.652   0.082   1.504  1.2950  5.0346  3.7444
  475SOL    HW2 1425   1.687   3.075   1.374 -3.4141 -1.4682 -0.1480
  476SOL     OW 1426   0.633   1.315   0.907  0.1972  0.1014 -0.1068
  476SOL    HW1 1427   0.611   1.372   0.990 -2.0252 -1.3218  1.9393
  476SOL    HW2 1428   0.586   1.223   0.908 -3.2479  0.2767 -1.1268
  477SOL     OW 1429   0.467   1.970   0.717 -0.3628 -0.0441  0.0235
  477SOL    HW1 1430   0.530   1.901   0.683  1.9441 -0.3634 -0.8274
  477SOL    HW2 1431   0.498   2.067   0.692  0.5290 -0.0193 -1.7505
  478SOL     OW 1432   0.142   2.527   2.527  0.1765 -0.2946 -0.1239
  478SOL    HW1 1433   0.098   2.602   2.580  3.8363 -1.9179  0.5116
  478SOL    HW2 1434   0.079   2.496   2.452  0.6318 -0.0667 -1.3342
  479SOL     OW 1435   3.063   0.612   1.434  0.2209 -0.5537  0.1428
  479SOL    HW1 1436   0.054   0.595   1.401  0.7647 -0.4248  0.2939
  479SOL    HW2 1437   3.056   0.611   1.534 -0.3206  0.4871 -3.1865
  480SOL     OW 1438   2.754   2.447   0.077  0.7280  0.1319  0.0032
  480SOL    HW1 1439   2.807   2.367   0.119  0.4015 -1.6546  1.9324
  480SOL    HW2 1440   2.745   2.523   0.145 -1.9179 -0.1964 -0.3390
  481SOL     OW 1441   2.247   1.895   1.806 -0.9321  0.5357 -0.5302
  481SOL    HW1 1442   2.280   1.959   1.879  1.6863 -1.7838 -0.3856
  481SOL    HW2 1443   2.282   1.909   1.710 -2.9702 -0.2343 -2.2456
  482SOL     OW 1444   1.845   2.039   2.385  0.4461 -0.0089  0.3915
  482SOL    HW1 1445   1.899   2.125   2.367  0.0576  0.7563 -0.4650
  482SOL    HW2 1446   1.817   1.990   2.303 -2.3831 -2.3681  1.8372
  483SOL     OW 1447   0.941   1.223   1.900  0.4076 -0.3716  0.0429
  483SOL    HW1 1448   0.976   1.128   1.894  1.4473 -0.7302 -0.5443
  483SOL    HW2 1449   0.997   1.278   1.958 -2.3110 -1.4570  0.1210
  484SOL     OW 1450   0.222   0.584   1.332  0.1446 -0.3163 -0.4492
  484SOL    HW1 1451   0.288   0.508   1.328 -1.5373  0.4767 -3.2827
  484SOL    HW2 1452   0.210   0.632   1.242  0.2353  0.8712  1.9853
  485SOL     OW 1453   2.351   1.055   0.051  0.3846  0.2090  0.0538
  485SOL    HW1 1454   2.450   1.053   0.035  2.4108 -3.0110 -1.1980
  485SOL    HW2 1455   2.330   1.127   0.120  2.9951 -1.7688 -1.6321
  486SOL     OW 1456   1.484   0.266   2.022 -0.1673  0.5650 -0.3880
  486SOL    HW1 1457   1.536   0.198   1.965 -0.0426 -4.2575  0.1122
  486SOL    HW2 1458   1.508   0.251   2.121  0.5619 -1.2542 -0.5666
  487SOL     OW 1459   0.807   2.193   1.502  0.3074 -0.4005  0.4198
  487SOL    HW1 1460   0.719   2.209   1.551  1.0505  0.9444  3.8270
  487SOL    HW2 1461   0.888   2.220   1.559 -1.1977  1.3421  0.2966
  488SOL     OW 1462   2.410   1.491   0.011 -0.3520 -0.2055  0.2426
  488SOL    HW1 1463   2.477   1.453   3.048 -1.5004 -2.6781  0.9741
  488SOL    HW2 1464   2.346   1.548   3.058  1.4714  0.6479 -0.2743
  489SOL     OW 1465   2.100   2.672   0.593  0.1073 -0.2583 -0.6495
  489SOL    HW1 1466   2.040   2.592   0.571 -0.2196  0.8169 -1.7855
  489SOL    HW2 1467   2.157   2.699   0.513  2.7254 -0.5573 -2.2728
  490SOL     OW 1468   0.728   2.243   3.038 -0.1472 -0.0101 -0.1175
  490SOL    HW1 1469   0.646   2.181   3.020 -0.9536 -0.8561  0.6772
  490SOL    HW2 1470   0.697   2.340   3.054  0.2134  0.0424  1.1213
  491SOL     OW 1471   1.122   1.301   1.357 -0.0040  0.3957 -0.3975
  491SOL    HW1 1472   1.117   1.395   1.315 -0.7589  2.7048  0.5220
  491SOL    HW2 1473   1.078   1.303   1.445 -0.4077 -0.5217  1.3872
  492SOL     OW 1474   1.147   0.349   2.284 -0.0486 -0.4596  0.7183
  492SOL    HW1 1475   1.182   0.350   2.184 -1.2877  0.4859  0.2651
  492SOL    HW2 1476   1.204   0.295   2.349 -2.4905  0.0130 -2.6264
  493SOL     OW 1477   1.959   1.785   0.520  0.3260 -0.0575  0.2763
  493SOL    HW1 1478   1.948   1.790   0.421  1.2541  1.7463 -0.4577
  493SOL    HW2 1479   1.869   1.750   0.558  1.0020  0.2814  0.1836
  494SOL     OW 1480   0.826   1.305   0.741  0.6316 -0.1317  0.1110
  494SOL    HW1 1481   0.781   1.254   0.663 -1.5573 -1.9649 -1.1206
  494SOL    HW2 1482   0.758   1.309   0.817 -0.3926  1.1796 -1.2515
  495SOL     OW 1483   2.465   2.240   0.775  0.1829 -0.3795 -0.3109
  495SOL    HW1 1484   2.388   2.178   0.746  2.2457 -0.9583  0.0276
  495SOL    HW2 1485   2.451   2.259   0.873 -0.7596  0.7806  0.3900
  496SOL     OW 1486   2.415   0.147   1.681  0.3173 -0.3071 -0.7686
  496SOL    HW1 1487   2.491   0.082   1.667  0.9290  3.3570  2.5015
  496SOL    HW2 1488   2.427   0.232   1.626  1.7987 -0.2758  1.0266
  497SOL     OW 1489   2.374   0.933   2.467  0.2461 -0.3652  0.1698
  497SOL    HW1 1490   2.319   0.957   2.386 -0.3709 -1.1286 -0.3477
  497SOL    HW2 1491   2.375   1.003   2.541  1.2808  0.2688 -3.1250
  498SOL     OW 1492   0.436   2.335   1.333 -0.2848  0.3544 -0.3622
  498SOL    HW1 1493   0.361   2.266   1.356 -0.1169 -2.3246  0.3961
  498SOL    HW2 1494   0.489   2.307   1.253  1.9987 -0.2514  2.2836
  499SOL     OW 1495   1.151   2.702   1.855 -0.2767 -0.3028  0.2764
  499SOL    HW1 1496   1.140   2.798   1.886 -1.0930 -2.0083 -1.7239
  499SOL    HW2 1497   1.242   2.682   1.811 -3.2852  0.5788 -0.5615
  500SOL     OW 1498   0.814   1.833   0.106  0.2758 -0.2623 -0.2051
  500SOL    HW1 1499   0.861   1.890   0.037 -2.7481  1.0893 -0.0995
  500SOL    HW2 1500   0.815   1.736   0.096  0.3505  0.1813  0.8444
  501SOL     OW 1501   1.882   3.075   1.172 -0.4330  0.1501 -0.2833
  501SOL    HW1 1502   1.942   3.053   1.091  0.8255 -1.0154 -0.9134
  501SOL    HW2 1503   1.937   3.075   1.258  0.7249  1.5684  3.1143
  502SOL     OW 1504   2.750   0.483   1.876  0.0771 -0.0580 -0.1600
  502SOL    HW1 1505   2.846   0.449   1.875  1.4857  1.4962 -1.7967
  502SOL    HW2 1506   2.726   0.504   1.973 -0.9538  2.5262 -2.4231
  503SOL     OW 1507   2.685   1.165   1.786  0.0991 -0.0567 -0.3626
  503SOL    HW1 1508   2.602   1.105   1.795 -0.7902  1.3032  1.1736
  503SOL    HW2 1509   2.734   1.162   1.882  1.6474 -1.4065  2.7328
  504SOL     OW 1510   1.566   1.086   1.948  0.3438 -0.1036 -0.2702
  504SOL    HW1 1511   1.583   0.991   1.983  1.1716 -1.5067  1.2141
  504SOL    HW2 1512   1.466   1.117   1.957 -0.6836  1.9640  0.2770
  505SOL     OW 1513   0.888   0.099   1.913 -0.3739 -0.3074 -0.1665
  505SOL    HW1 1514   0.867   0.017   1.967 -0.6955  1.0377  0.6244
  505SOL    HW2 1515   0.973   0.091   1.857  0.0471 -0.2410  4.8725
  506SOL     OW 1516   0.217   0.232   0.687 -0.1649  0.0175  0.2493
  506SOL    HW1 1517   0.305   0.234   0.632  1.5713  1.0438 -3.3281
  506SOL    HW2 1518   0.207   0.311   0.748 -2.6304  1.1224 -1.5458
  507SOL     OW 1519   2.545   0.500   3.058 -0.3081  0.0885  0.0621
  507SOL    HW1 1520   2.525   0.458   0.047  1.9338 -2.5566 -0.6292
  507SOL    HW2 1521   2.478   0.471   2.989 -1.3660  1.7419 -0.5420
  508SOL     OW 1522   1.797   0.394   2.006 -0.5208 -0.5193  0.1014
  508SOL    HW1 1523   1.711   0.448   2.030 -1.6260  3.6518 -2.9848
  508SOL    HW2 1524   1.833   0.417   1.916 -0.7530  0.6147  0.2487
  509SOL     OW 1525   1.489   1.641   1.479 -0.2644 -0.4243  0.2148
  509SOL    HW1 1526   1.529   1.594   1.562 -1.0785  1.3293  1.7046
  509SOL    HW2 1527   1.389   1.627   1.476 -2.4438 -0.9887  0.3874
  510SOL     OW 1528   2.806   1.521   0.833 -0.2662 -0.0975  0.3843
  510SOL    HW1 1529   2.768   1.551   0.742  0.5114 -2.2946 -0.4459
  510SOL    HW2 1530   2.745   1.541   0.908 -0.8430 -1.3854 -0.2125
  511SOL     OW 1531   1.706   1.828   1.152 -0.1366  0.8834  0.2764
  511SOL    HW1 1532   1.725   1.741   1.206  1.9686  0.0611  1.2327
  511SOL    HW2 1533   1.764   1.903   1.187  2.4327 -1.0589  1.0943
  512SOL     OW 1534   0.244   1.572   0.436  0.0982 -0.2860 -0.2214
  512SOL    HW1 1535   0.339   1.535   0.449 -1.2650  0.8119  1.0828
  512SOL    HW2 1536   0.252   1.666   0.389 -0.1514  1.8750 -1.9396
  513SOL     OW 1537   0.169   2.066   0.170 -0.1111  0.6118 -0.2255
  513SOL    HW1 1538   0.112   2.027   0.240  0.5078 -3.4860 -4.2834
  513SOL    HW2 1539   0.240   2.002   0.147 -3.1704  3.5094 -0.4640
  514SOL     OW 1540   2.710   1.850   2.526 -0.0207 -0.6865 -0.6368
  514SOL    HW1 1541   2.724   1.941   2.575 -0.5390  1.7281  1.5736
  514SOL    HW2 1542   2.611   1.847   2.498  1.2896 -2.0989 -0.5525
  515SOL     OW 1543   2.050   1.250   0.857 -0.2154  0.0524 -1.1327
  515SOL    HW1 1544   1.979   1.281   0.793  0.2759  2.4822 -1.0935
  515SOL    HW2 1545   2.065   1.151   0.852  2.2905  1.7927  2.2485
  516SOL     OW 1546   1.961   2.713   0.279  0.2084  0.1348  0.0972
  516SOL    HW1 1547   1.928   2.801   0.239  0.5946 -1.1759 -0.6301
  516SOL    HW2 1548   1.942   2.712   0.381 -0.8169 -2.4226  1.2862
  517SOL     OW 1549   0.741   1.921   2.459  0.2288 -0.3150 -0.4335
  517SOL    HW1 1550   0.810   1.898   2.383 -0.2472 -1.6714 -0.2388
  517SOL    HW2 1551   0.649   1.927   2.422  1.8300  2.5181 -1.0583
  518SOL     OW 1552   0.440   0.576   1.957 -0.4434  0.3410  0.4326
  518SOL    HW1 1553   0.412   0.655   2.013 -0.9530 -4.3305 -1.7216
  518SOL    HW2 1554   0.483   0.503   2.014 -0.5147  1.6688  2.5463
  519SOL     OW 1555   0.316   1.160   0.415  0.2448  0.1514 -0.2335
  519SOL    HW1 1556   0.298   1.079   0.353  0.7759 -2.3703 -0.6025
  519SOL    HW2 1557   0.270   1.140   0.504 -0.7185 -0.8678 -1.2924
  520SOL     OW 1558   2.755   1.760   1.440  0.2289  0.3470  0.0097
  520SOL    HW1 1559   2.721   1.730   1.531 -0.5145  1.5058  2.7951
  520SOL    HW2 1560   2.772   1.860   1.446  0.0304 -2.0077  0.2999
  521SOL     OW 1561   0.576   2.688   2.588  0.5836 -0.6896  0.2427
  521SOL    HW1 1562   0.594   2.589   2.605  1.1855 -1.4829  1.1537
  521SOL    HW2 1563   0.510   2.704   2.509 -2.2012  2.0244 -2.1581
  522SOL     OW 1564   1.946   0.184   2.061  0.1004 -0.2138 -0.2723
  522SOL    HW1 1565   2.042   0.217   2.063 -0.3407 -0.4736 -2.8065
  522SOL    HW2 1566   1.890   0.262   2.031  1.1645  0.1258  0.0735
  523SOL     OW 1567   1.878   1.939   1.688  0.4782  0.2599  0.4319
  523SOL    HW1 1568   1.869   2.008   1.763 -1.0885  1.5610 -0.2081
  523SOL    HW2 1569   1.901   1.847   1.727  0.8803 -2.3381  0.6776
  524SOL     OW 1570   0.539   2.813   0.442  0.2496 -0.1237 -0.0774
  524SOL    HW1 1571   0.521   2.805   0.343 -1.7852 -0.6962  1.4676
  524SOL    HW2 1572   0.638   2.792   0.465 -1.6211  2.1479  1.0956
  525SOL     OW 1573   0.043   0.435   0.403  0.1079  0.8825  0.1644
  525SOL    HW1 1574   0.056   0.513   0.467 -1.0969  1.9006  1.9200
  525SOL    HW2 1575   0.133   0.388   0.385  0.9475  0.9764 -0.7687
  526SOL     OW 1576   0.741   2.561   0.751 -0.2385 -0.2286 -0.7334
  526SOL    HW1 1577   0.757   2.590   0.845 -1.0561  1.3390 -0.3741
  526SOL    HW2 1578   0.643   2.575   0.724 -0.3162  2.4900 -1.9156
  527SOL     OW 1579   2.446   1.693   0.916  0.3459 -0.0036 -0.3834
  527SOL    HW1 1580   2.359   1.679   0.968  0.3581 -0.0929  0.0575
  527SOL    HW2 1581   2.514   1.627   0.952  0.1463  1.9271 -3.1968
  528SOL     OW 1582   3.039   0.059   2.390 -0.3067 -0.0130 -0.1893
  528SOL    HW1 1583   2.945   0.096   2.364 -0.5869  0.3775  0.4021
  528SOL    HW2 1584   3.037   0.029   2.483 -0.4048  1.4972 -0.5527
  529SOL     OW 1585   1.018   1.496   2.540 -0.1864 -0.1757 -0.2428
  529SOL    HW1 1586   0.932   1.554   2.552 -0.5147 -0.7366  0.9112
  529SOL    HW2 1587   1.049   1.440   2.622 -0.5884 -0.2155 -0.0860
  530SOL     OW 1588   1.760   1.248   2.793 -0.3515  0.4322  0.2043
  530SOL    HW1 1589   1.675   1.228   2.739 -2.3968  2.4805 -4.6404
  530SOL    HW2 1590   1.810   1.160   2.811  2.5137 -0.4449  1.6433
  531SOL     OW 1591   0.657   1.547   2.747 -0.1616 -0.5108  0.3808
  531SOL    HW1 1592   0.619   1.598   2.830 -2.8947  3.2054 -0.4929
  531SOL    HW2 1593   0.596   1.525   2.670  2.8029  0.8600  0.1698
  532SOL     OW 1594   1.589   1.343   0.351 -0.0530  0.0344  0.2698
  532SOL    HW1 1595   1.524   1.296   0.291 -0.6523  1.2043 -0.7998
  532SOL    HW2 1596   1.670   1.380   0.301 -2.4993 -1.8840  1.4316
  533SOL     OW 1597   0.491   0.288   2.331 -0.0808 -0.1456 -0.4180
  533SOL    HW1 1598   0.528   0.331   2.247 -0.0941  1.4377  0.2586
  533SOL    HW2 1599   0.564   0.265   2.401 -0.0385  1.3527 -0.5410
  534SOL     OW 1600   0.634   2.503   3.061 -0.0320 -0.5698  0.2841
  534SOL    HW1 1601   0.559   2.559   3.019 -0.8582 -2.5616  0.6678
  534SOL    HW2 1602   0.664   2.543   0.047  1.1592 -1.1339 -1.2884
  535SOL     OW 1603   0.180   3.039   0.669 -0.4260 -0.1404  0.1354
  535SOL    HW1 1604   0.218   2.984   0.743  0.0784  0.2524 -2.7225
  535SOL    HW2 1605   0.186   0.034   0.686  0.3515 -0.3873  0.9120
  536SOL     OW 1606   0.102   1.252   1.984 -0.6020 -0.1235 -0.2584
  536SOL    HW1 1607   0.088   1.256   1.881 -0.6475  0.8745  1.9799
  536SOL    HW2 1608   0.090   1.151   2.008  1.6557 -0.6580 -0.4862
  537SOL     OW 1609   1.068   2.965   1.397 -0.5700 -0.2508  0.1152
  537SOL    HW1 1610   1.032   3.060   1.385 -0.9909  0.8107 -1.9546
  537SOL    HW2 1611   1.091   2.918   1.313  1.7232  0.1618 -1.3507
  538SOL     OW 1612   3.035   1.954   0.612 -0.9328 -0.1929 -0.1008
  538SOL    HW1 1613   3.087   1.881   0.565  1.0979  1.6281  1.5462
  538SOL    HW2 1614   2.946   1.914   0.642  1.9608  1.3692 -1.9436
  539SOL     OW 1615   2.724   0.950   2.196 -0.3918  0.1028  0.1065
  539SOL    HW1 1616   2.706   0.943   2.297 -1.0657  0.3220 -0.7569
  539SOL    HW2 1617   2.772   0.865   2.166 -0.5199  0.4443  0.7750
  540SOL     OW 1618   1.447   1.125   2.263 -0.2082 -0.5944 -0.4214
  540SOL    HW1 1619   1.511   1.200   2.289  0.6245 -0.0091  1.4933
  540SOL    HW2 1620   1.407   1.137   2.175  2.5468 -1.2568  0.0828
  541SOL     OW 1621   0.815   0.861   1.601 -0.3457 -0.1135  0.3377
  541SOL    HW1 1622   0.849   0.879   1.698  3.1750 -2.1892  2.1785
  541SOL    HW2 1623   0.716   0.851   1.592  1.4997 -1.9947 -3.4428
  542SOL     OW 1624   2.062   3.004   2.627  0.6517 -0.0561 -0.0301
  542SOL    HW1 1625   2.035   2.905   2.648  2.0542 -1.3534  1.4311
  542SOL    HW2 1626   2.075   3.012   2.527  0.4723 -0.3502  1.1957
  543SOL     OW 1627   0.924   0.049   0.320 -0.1624 -0.1402  0.0074
  543SOL    HW1 1628   0.936   0.047   0.419  1.0994  0.1083  1.0144
  543SOL    HW2 1629   1.012   0.068   0.270  0.3444 -1.2413 -2.8646
  544SOL     OW 1630   2.665   1.668   1.662  0.2878  0.2116 -0.4121
  544SOL    HW1 1631   2.668   1.567   1.689  0.9374  0.3304  0.3487
  544SOL    HW2 1632   2.600   1.714   1.725 -1.9035 -0.7389  0.7451
  545SOL     OW 1633   2.108   2.162   1.706 -0.1431  0.0162  0.2079
  545SOL    HW1 1634   2.197   2.110   1.707 -1.2060 -1.3728  1.6720
  545SOL    HW2 1635   2.032   2.097   1.688  0.5073  1.1253 -1.8117
  546SOL     OW 1636   0.249   0.015   2.969  0.2273  0.0201 -0.2909
  546SOL    HW1 1637   0.254   3.095   2.871  2.6661 -1.8351  2.0995
  546SOL    HW2 1638   0.227   0.115   2.973 -3.6579  2.0212  0.1667
  547SOL     OW 1639   1.689   0.834   0.569  0.0836 -0.0082  0.0205
  547SOL    HW1 1640   1.609   0.848   0.508 -1.8563 -2.2760  2.4426
  547SOL    HW2 1641   1.670   0.860   0.665  0.5487 -1.1375 -0.6700
  548SOL     OW 1642   2.059   1.621   2.284 -0.3365 -0.0224  0.0005
  548SOL    HW1 1643   2.084   1.540   2.228 -2.8106  0.5629 -0.2153
  548SOL    HW2 1644   2.124   1.620   2.364 -0.8243 -1.8328 -0.3668
  549SOL     OW 1645   1.917   0.098   0.402 -0.3136  0.0124  0.6185
  549SOL    HW1 1646   1.971   0.083   0.486 -0.5249  0.6831  0.4173
  549SOL    HW2 1647   1.890   0.192   0.380  0.0622  0.6181 -0.7820
  550SOL     OW 1648   2.060   1.887   0.887  0.0290 -0.2023 -0.0010
  550SOL    HW1 1649   1.964   1.853   0.874 -2.5251  2.1538 -0.9861
  550SOL    HW2 1650   2.124   1.862   0.809  3.0008  0.7605 -3.6578
  551SOL     OW 1651   0.806   3.021   1.641 -0.6732  0.1807 -0.7406
  551SOL    HW1 1652   0.799   2.999   1.545  1.4590  2.8086  1.3613
  551SOL    HW2 1653   0.880   3.088   1.660 -0.4055 -1.0115 -0.5259
  552SOL     OW 1654   2.759   2.116   2.616 -0.7815 -0.3947 -0.0223
  552SOL    HW1 1655   2.758   2.117   2.719 -0.4911  0.2536  0.0804
  552SOL    HW2 1656   2.855   2.143   2.589  3.7981 -0.2977  0.4244
  553SOL     OW 1657   0.248   0.051   1.101  0.0466 -0.0551 -0.1824
  553SOL    HW1 1658   0.236   0.019   1.195 -1.1451  2.5652 -1.1122
  553SOL    HW2 1659   0.170   0.025   1.042 -0.4165 -1.8509 -0.6763
  554SOL     OW 1660   2.358   2.075   1.613 -0.0803  0.0202  0.3064
  554SOL    HW1 1661   2.322   2.118   1.526 -0.0816  2.3972 -0.6615
  554SOL    HW2 1662   2.443   2.124   1.640  1.4187  0.5291  1.3208
  555SOL     OW 1663   1.196   2.359   2.012  0.0198  0.2295  0.6838
  555SOL    HW1 1664   1.247   2.358   1.924 -1.3728 -1.2595 -0.1925
  555SOL    HW2 1665   1.113   2.420   2.002  0.5054  1.7344  0.7323
  556SOL     OW 1666   1.096   1.878   1.777 -0.1965  0.3937 -0.0550
  556SOL    HW1 1667   1.034   1.960   1.791 -3.4256 -1.2136 -3.4290
  556SOL    HW2 1668   1.180   1.875   1.837  1.1466  0.5031 -0.1532
  557SOL     OW 1669   1.963   2.323   2.229  0.3500  0.5937  0.0024
  557SOL    HW1 1670   2.002   2.235   2.197 -2.5858 -0.0760 -0.7611
  557SOL    HW2 1671   2.009   2.362   2.314 -0.5680 -0.8829  0.3694
  558SOL     OW 1672   0.482   2.741   1.872  0.5030 -0.2724 -0.0941
  558SOL    HW1 1673   0.449   2.767   1.780 -1.1858 -2.3367  0.3930
  558SOL    HW2 1674   0.583   2.758   1.888 -1.2975  2.0139  0.1782
  559SOL     OW 1675   2.324   2.887   1.024 -0.2178 -0.0329  0.2466
  559SOL    HW1 1676   2.366   2.978   1.046  0.8309  0.4014 -1.9181
  559SOL    HW2 1677   2.299   2.831   1.108 -2.2602 -0.5323  0.7493
  560SOL     OW 1678   1.575   2.468   0.156 -0.3204 -0.2510  0.8900
  560SOL    HW1 1679   1.543   2.373   0.173  2.5900 -0.2650  2.1711
  560SOL    HW2 1680   1.667   2.480   0.201 -1.9475  0.3848  0.3449
  561SOL     OW 1681   1.225   0.418   0.060  0.0748  0.1252 -0.3363
  561SOL    HW1 1682   1.174   0.346   0.109  0.2290  1.9256 -1.5267
  561SOL    HW2 1683   1.171   0.486   0.008 -2.3305  0.4748  1.3128
  562SOL     OW 1684   0.715   0.229   2.485  0.4603 -0.0274 -0.6262
  562SOL    HW1 1685   0.710   0.301   2.553  1.3397 -0.9462  1.1649
  562SOL    HW2 1686   0.811   0.208   2.471 -0.9503  2.8450  0.2371
  563SOL     OW 1687   1.413   1.754   2.947  0.3415 -0.3505  0.2597
  563SOL    HW1 1688   1.509   1.781   2.935 -0.6491 -2.9203 -0.7028
  563SOL    HW2 1689   1.396   1.655   2.926 -2.5315 -0.8197 -0.9564
  564SOL     OW 1690   2.396   1.122   1.091 -0.1367 -0.3748  0.5742
  564SOL    HW1 1691   2.446   1.084   1.173  4.3188 -0.7814  1.3879
  564SOL    HW2 1692   2.441   1.076   1.013 -2.7690  0.9764  2.6583
  565SOL     OW 1693   1.085   3.056   3.047 -0.5546  0.0246  0.1597
  565SOL    HW1 1694   1.009   2.989   3.071 -2.7831 -2.2917 -3.1352
  565SOL    HW2 1695   1.071   3.069   2.946 -2.5715 -0.8536  3.5177
  566SOL     OW 1696   1.671   0.059   2.418  0.0445 -0.4464 -0.2462
  566SOL    HW1 1697   1.717   0.019   2.335 -1.6206  0.5346 -1.1261
  566SOL    HW2 1698   1.711   0.017   2.503 -2.4712 -0.8896  0.9819
  567SOL     OW 1699   2.264   1.545   0.480  0.0307  0.5517 -0.6318
  567SOL    HW1 1700   2.239   1.523   0.576  0.4053 -0.7674 -0.3329
  567SOL    HW2 1701   2.343   1.489   0.452  1.3716 -0.5909  2.8590
  568SOL     OW 1702   1.802   2.046   0.161 -0.4103  0.1568  0.1943
  568SOL    HW1 1703   1.869   1.981   0.204 -1.8877 -0.5612 -0.5668
  568SOL    HW2 1704   1.844   2.110   0.094 -0.3891  0.0943  0.2727
  569SOL     OW 1705   2.134   1.149   2.954 -0.3759  0.5177 -0.3962
  569SOL    HW1 1706   2.062   1.082   2.935  1.5284 -1.6480 -0.8235
  569SOL    HW2 1707   2.201   1.099   3.007 -1.3763 -1.1139 -4.6725
  570SOL     OW 1708   0.011   2.530   1.575 -0.4399 -0.7064 -0.4394
  570SOL    HW1 1709   3.095   2.630   1.572 -0.5299 -0.1717 -3.2278
  570SOL    HW2 1710   0.090   2.505   1.631 -0.8857  1.4013 -2.1110
  571SOL     OW 1711   0.409   1.020   1.969 -0.1472  0.2525  0.5181
  571SOL    HW1 1712   0.496   1.002   2.011 -1.2503  1.2883 -0.1880
  571SOL    HW2 1713   0.401   1.121   1.963  1.3171 -3.0020 -0.0485
  572SOL     OW 1714   1.045   1.481   0.767 -0.2121 -0.8152  0.1096
  572SOL    HW1 1715   0.955   1.446   0.745  0.0163  2.6891 -2.2997
  572SOL    HW2 1716   1.060   1.570   0.716 -0.7365  1.0195 -2.4306
  573SOL     OW 1717   1.184   1.851   3.069 -0.2349  0.1141 -0.4770
  573SOL    HW1 1718   1.169   1.947   0.003  1.2038  1.5005  0.3025
  573SOL    HW2 1719   1.266   1.839   3.004  1.1146 -2.1726 -1.5250
  574SOL     OW 1720   0.958   0.063   0.590  0.0914 -0.0336  0.1662
  574SOL    HW1 1721   0.876   0.081   0.650  0.6976  1.4016  1.4700
  574SOL    HW2 1722   1.033   0.131   0.611  0.7891  0.9711  1.6912
  575SOL     OW 1723   0.497   1.051   1.484  0.3515 -0.3414  0.2447
  575SOL    HW1 1724   0.402   1.078   1.475  2.5092 -0.2104 -1.5539
  575SOL    HW2 1725   0.506   0.962   1.535 -0.8561 -2.9084 -0.3974
  576SOL     OW 1726   1.978   3.023   1.414 -0.0957  0.5308 -0.1571
  576SOL    HW1 1727   2.057   3.043   1.476  0.5397 -0.2306  3.1618
  576SOL    HW2 1728   1.970   2.924   1.385  0.5620 -0.4767 -0.2036
  577SOL     OW 1729   0.907   0.931   1.861  0.5478 -0.1689  0.0146
  577SOL    HW1 1730   1.011   0.942   1.846  1.2371 -0.0519  0.4758
  577SOL    HW2 1731   0.897   0.864   1.936  0.8837 -2.2599 -1.9080
  578SOL     OW 1732   2.106   0.585   2.706  0.2569 -0.1022 -0.2244
  578SOL    HW1 1733   2.072   0.492   2.692 -0.4015 -0.7154  0.0425
  578SOL    HW2 1734   2.087   0.644   2.623 -1.5886 -0.9776 -2.7322
  579SOL     OW 1735   2.288   2.554   1.625  0.4963  0.2785 -0.9133
  579SOL    HW1 1736   2.365   2.496   1.657  1.3514  0.2438  1.0240
  579SOL    HW2 1737   2.208   2.498   1.591  2.6290 -2.4086  2.3165
  580SOL     OW 1738   2.182   1.281   2.692 -0.0335 -0.3068 -0.1191
  580SOL    HW1 1739   2.112   1.358   2.675 -3.3191  1.6497 -1.6306
  580SOL    HW2 1740   2.159   1.237   2.785 -1.7551  0.8392 -0.6252
  581SOL     OW 1741   1.401   1.006   2.898  0.3123  0.0117  0.0064
  581SOL    HW1 1742   1.421   0.996   3.000  0.0709  0.6301  3.1939
  581SOL    HW2 1743   1.301   1.030   2.886 -0.1745  0.2750 -2.4647
  582SOL     OW 1744   1.041   1.611   1.775 -0.5727  0.1098  0.1852
  582SOL    HW1 1745   1.127   1.551   1.781  0.9652 -3.1906  0.8651
  582SOL    HW2 1746   1.070   1.710   1.762 -1.8804  1.3949 -0.3996
  583SOL     OW 1747   1.856   1.265   1.362  0.0663 -0.6714 -0.3735
  583SOL    HW1 1748   1.762   1.259   1.400  1.5039 -0.7195 -1.3684
  583SOL    HW2 1749   1.862   1.231   1.267 -0.7630  0.9059  1.4153
  584SOL     OW 1750   1.599   2.572   0.691  0.0924  0.1391  0.1057
  584SOL    HW1 1751   1.507   2.551   0.657 -1.2373 -1.2968  2.2979
  584SOL    HW2 1752   1.656   2.487   0.687  0.5440  0.0601  1.1606
  585SOL     OW 1753   1.907   2.787   2.688  0.5057  0.0058 -0.1361
  585SOL    HW1 1754   1.909   2.707   2.630 -2.6718 -0.3053 -3.8799
  585SOL    HW2 1755   1.879   2.757   2.786 -0.2238 -1.3668  1.6092
  586SOL     OW 1756   2.751   2.384   1.015 -0.2582 -0.0672  0.1796
  586SOL    HW1 1757   2.660   2.434   1.034 -0.3588 -0.9129 -2.5290
  586SOL    HW2 1758   2.724   2.281   1.011 -1.7703  1.3248  1.9936
  587SOL     OW 1759   1.217   1.665   0.202 -0.0277 -0.4608 -0.6428
  587SOL    HW1 1760   1.204   1.734   0.133 -1.5816 -1.6024  1.3777
  587SOL    HW2 1761   1.228   1.574   0.160  0.5525 -0.2475 -0.2752
  588SOL     OW 1762   0.422   0.271   1.061  0.3730 -0.5265  0.2589
  588SOL    HW1 1763   0.518   0.266   1.029 -2.6812  1.0563  1.4533
  588SOL    HW2 1764   0.376   0.181   1.050  0.0761 -0.4608 -1.8179
  589SOL     OW 1765   1.212   0.251   0.410  0.0971  0.1942  0.1019
  589SOL    HW1 1766   1.126   0.303   0.389 -0.1129  0.8646  2.1086
  589SOL    HW2 1767   1.243   0.213   0.321 -1.2502  0.2918  0.4632
  590SOL     OW 1768   1.417   0.091   2.886  1.0749 -0.0078  0.2560
  590SOL    HW1 1769   1.516   0.081   2.861 -2.0864  0.8627 -0.8428
  590SOL    HW2 1770   1.388   0.020   2.954 -0.0212  0.2117 -2.8548
  591SOL     OW 1771   3.083   2.415   2.331 -0.0002 -0.1287 -0.0425
  591SOL    HW1 1772   0.009   2.353   2.255  2.3148 -1.2649 -3.1204
  591SOL    HW2 1773   3.026   2.500   2.305  0.1131 -0.5721  0.2428
  592SOL     OW 1774   2.597   1.481   2.015  0.3572 -0.0285  0.4924
  592SOL    HW1 1775   2.672   1.482   1.943  1.4263  0.3756  1.0409
  592SOL    HW2 1776   2.568   1.576   2.048  0.8964 -1.7529 -1.1505
  593SOL     OW 1777   1.604   1.460   1.657 -0.0529 -0.1697 -0.7816
  593SOL    HW1 1778   1.607   1.384   1.590  1.7304  2.2898 -0.0829
  593SOL    HW2 1779   1.619   1.421   1.750 -1.6130 -2.6803  1.3958
  594SOL     OW 1780   2.835   1.272   0.056 -0.8612  0.3967 -0.1355
  594SOL    HW1 1781   2.911   1.237   0.114 -0.1018  1.4193  0.6087
  594SOL    HW2 1782   2.848   1.231   3.069  0.5075  0.4453  2.8646
  595SOL     OW 1783   0.591   0.640   0.345 -0.5667 -0.4322 -0.5741
  595SOL    HW1 1784   0.520   0.578   0.387  2.4237 -0.1164  0.2102
  595SOL    HW2 1785   0.624   0.703   0.421  0.6582  0.4530  2.4917
  596SOL     OW 1786   0.432   1.254   1.292  0.2313  0.1726 -0.1200
  596SOL    HW1 1787   0.370   1.318   1.344  3.6570 -1.1553 -2.6827
  596SOL    HW2 1788   0.476   1.189   1.360  1.8686 -1.5149 -1.5122
  597SOL     OW 1789   1.137   1.928   0.806 -0.5522 -0.2219  0.4312
  597SOL    HW1 1790   1.169   1.930   0.899 -3.4204 -3.5352 -1.2227
  597SOL    HW2 1791   1.156   2.018   0.760 -0.2484  0.0313 -0.6840
  598SOL     OW 1792   2.980   0.334   1.836 -0.2240 -0.2882  0.0673
  598SOL    HW1 1793   3.052   0.333   1.908  0.1411  0.7127  0.4484
  598SOL    HW2 1794   2.951   0.244   1.810 -0.4539  1.6758 -0.0288
  599SOL     OW 1795   0.323   1.357   2.774 -0.3300  0.2218  0.4967
  599SOL    HW1 1796   0.256   1.329   2.700 -0.8091 -1.8863  1.4217
  599SOL    HW2 1797   0.409   1.395   2.732  0.1223  0.0548 -2.7818
  600SOL     OW 1798   0.706   0.865   2.826  0.7244  0.0443  0.1875
  600SOL    HW1 1799   0.659   0.953   2.795  0.8466  0.1245 -0.4361
  600SOL    HW2 1800   0.803   0.856   2.787  3.5933 -0.6906 -1.3040
  601SOL     OW 1801   0.686   1.034   1.285  0.4432  0.2170 -0.0137
  601SOL    HW1 1802   0.649   0.952   1.235  1.3063 -1.7110  1.7399
  601SOL    HW2 1803   0.635   1.041   1.372  2.5520 -0.1409  1.2165
  602SOL     OW 1804   0.496   3.047   0.013  0.5930 -0.2703  0.5460
  602SOL    HW1 1805   0.533   0.040   0.029 -0.8599  2.7535  1.3981
  602SOL    HW2 1806   0.420   3.056   3.048  2.1079  1.2011  2.0622
  603SOL     OW 1807   1.443   2.734   2.493 -0.3294 -0.4851 -0.6452
  603SOL    HW1 1808   1.414   2.697   2.582  0.8255  0.2536  1.3982
  603SOL    HW2 1809   1.443   2.840   2.503  0.2141 -0.7660 -1.4922
  604SOL     OW 1810   0.209   2.657   2.816 -0.2534  0.2127 -0.2928
  604SOL    HW1 1811   0.218   2.555   2.841 -2.9899 -0.5356  0.4090
  604SOL    HW2 1812   0.303   2.698   2.821 -0.1843  1.3857 -1.3056
  605SOL     OW 1813   2.386   1.212   1.414  0.1499  0.4181  0.2059
  605SOL    HW1 1814   2.405   1.284   1.482  0.6819 -0.9558 -1.6382
  605SOL    HW2 1815   2.289   1.220   1.386 -0.1070 -2.2071  0.3717
  606SOL     OW 1816   0.985   1.219   2.759  0.8431  0.5915 -0.0583
  606SOL    HW1 1817   0.982   1.264   2.851  1.1101  1.4121  2.0715
  606SOL    HW2 1818   0.898   1.226   2.703 -2.1245  2.1937 -1.7963
  607SOL     OW 1819   0.874   0.358   0.864  0.2654 -0.1996 -0.5840
  607SOL    HW1 1820   0.847   0.442   0.813 -0.5701 -1.8405  2.3145
  607SOL    HW2 1821   0.960   0.380   0.912  1.3466 -0.1787 -0.7844
  608SOL     OW 1822   2.866   1.565   1.284  0.1876  0.0798  0.0480
  608SOL    HW1 1823   2.827   1.643   1.339 -0.4413 -1.6481  0.6431
  608SOL    HW2 1824   2.832   1.474   1.311 -0.9671  1.2899  1.1880
  609SOL     OW 1825   2.311   0.429   0.604 -0.5816 -0.1602 -0.2013
  609SOL    HW1 1826   2.254   0.398   0.681 -2.1219 -1.2852 -3.0235
  609SOL    HW2 1827   2.336   0.528   0.602  1.3779 -2.5276  0.4874
  610SOL     OW 1828   0.254   2.716   1.371  0.1219  0.6494 -0.3603
  610SOL    HW1 1829   0.236   2.817   1.371 -1.4043 -0.7788 -2.5685
  610SOL    HW2 1830   0.193   2.663   1.316  0.6014  1.1580  1.2703
  611SOL     OW 1831   1.524   1.710   0.122  0.3353  0.1688  0.2060
  611SOL    HW1 1832   1.595   1.693   0.189 -2.1635  0.8167 -3.5194
  611SOL    HW2 1833   1.545   1.799   0.074  1.3598  2.6682  0.7208
  612SOL     OW 1834   0.487   0.186   1.956 -0.4861 -0.5086 -0.1538
  612SOL    HW1 1835   0.479   0.096   1.999  0.4534  1.2181 -3.7685
  612SOL    HW2 1836   0.420   0.200   1.881  0.9447  0.1353 -2.5696
  613SOL     OW 1837   0.575   2.257   0.683 -0.1681 -0.0210 -0.0880
  613SOL    HW1 1838   0.519   2.335   0.718  0.7928  1.0903 -0.0497
  613SOL    HW2 1839   0.552   2.247   0.588 -0.0576 -0.9287 -0.8374
  614SOL     OW 1840   2.237   0.232   2.090  0.1880 -0.2542 -0.8670
  614SOL    HW1 1841   2.251   0.300   2.163  1.6174 -1.2991 -1.9776
  614SOL    HW2 1842   2.328   0.197   2.054  0.3131  0.2096  0.2662
  615SOL     OW 1843   1.502   1.534   0.537  0.2380 -0.5205 -0.3891
  615SOL    HW1 1844   1.546   1.483   0.459 -1.5231  2.9491  2.0223
  615SOL    HW2 1845   1.412   1.573   0.506  0.8233  0.1138 -2.8687
  616SOL     OW 1846   1.866   1.335   0.668 -0.2368 -0.3329  0.2926
  616SOL    HW1 1847   1.793   1.391   0.715 -0.3718 -2.1521  1.5011
  616SOL    HW2 1848   1.838   1.314   0.570 -0.3516 -0.2164 -1.7066
  617SOL     OW 1849   1.607   0.675   0.044 -0.1889  0.6099 -0.1207
  617SOL    HW1 1850   1.682   0.701   3.084  2.4724  6.4646 -0.5770
  617SOL    HW2 1851   1.637   0.683   0.138 -1.3808 -0.2451 -3.2322
  618SOL     OW 1852   0.894   0.538   1.918 -0.0802 -0.1009  0.5806
  618SOL    HW1 1853   0.897   0.456   1.978 -2.3072  1.8914  3.0797
  618SOL    HW2 1854   0.830   0.520   1.844  0.3526  0.2910  2.6196
  619SOL     OW 1855   0.302   1.429   1.444 -0.0808  0.1783 -0.7103
  619SOL    HW1 1856   0.211   1.470   1.429  0.4467 -2.0785 -1.9549
  619SOL    HW2 1857   0.316   1.417   1.548  0.6328 -0.8742  1.8846
  620SOL     OW 1858   2.489   2.996   2.652 -0.1804 -0.2577  0.5941
  620SOL    HW1 1859   2.481   3.063   2.576 -0.5825 -1.7861  1.7559
  620SOL    HW2 1860   2.410   3.002   2.715  1.1241  2.0310 -3.3587
  621SOL     OW 1861   2.508   1.791   2.853 -0.4638  0.3926 -0.1064
  621SOL    HW1 1862   2.437   1.718   2.872 -0.7321  0.4730  2.8480
  621SOL    HW2 1863   2.460   1.870   2.810 -0.1531  0.4653  0.0602
  622SOL     OW 1864   1.396   0.620   2.978 -0.1986  0.2327  0.7183
  622SOL    HW1 1865   1.413   0.524   2.952  1.8000  0.2634  0.6006
  622SOL    HW2 1866   1.473   0.673   3.019  0.8108  1.1032 -0.6793
  623SOL     OW 1867   0.906   1.506   1.484  0.1968  0.7345  0.0344
  623SOL    HW1 1868   0.949   1.529   1.572  0.3886 -1.6563 -0.0605
  623SOL    HW2 1869   0.828   1.436   1.491 -2.7778 -2.6416 -1.8140
  624SOL     OW 1870   2.901   0.095   0.352  0.1195 -0.4622  0.0815
  624SOL    HW1 1871   2.940   0.094   0.258  0.5316  1.5856 -1.5344
  624SOL    HW2 1872   2.971   0.124   0.421 -1.5459 -2.5443 -0.8328
  625SOL     OW 1873   0.789   2.175   0.841  0.6387  0.4490 -0.1621
  625SOL    HW1 1874   0.715   2.206   0.776 -3.0469 -0.7343  1.0851
  625SOL    HW2 1875   0.881   2.219   0.826  1.2879 -3.6041  0.0210
  626SOL     OW 1876   2.801   0.819   2.435 -0.0334 -0.0887  0.7091
  626SOL    HW1 1877   2.849   0.727   2.428 -1.8269  0.3177 -0.2980
  626SOL    HW2 1878   2.732   0.818   2.510  2.6814 -0.2549  0.2701
  627SOL     OW 1879   0.758   2.007   2.718 -0.0172  0.1552 -0.1195
  627SOL    HW1 1880   0.746   1.959   2.628 -0.5444 -1.1707  2.5645
  627SOL    HW2 1881   0.691   2.081   2.735  0.2165 -0.0984  2.4677
  628SOL     OW 1882   2.837   2.651   2.701 -0.1948 -0.3477 -0.0406
  628SOL    HW1 1883   2.799   2.633   2.607  1.5775  0.6311  2.0504
  628SOL    HW2 1884   2.797   2.737   2.743  1.4471 -0.4375 -1.8088
  629SOL     OW 1885   1.038   3.015   2.783  0.0687  0.2848  0.3076
  629SOL    HW1 1886   0.992   2.940   2.728  1.1377 -5.3425 -0.8909
  629SOL    HW2 1887   1.005   0.009   2.767 -1.4001  2.6500 -1.2696
  630SOL     OW 1888   0.940   0.346   2.083 -0.2392  0.2196  0.0033
  630SOL    HW1 1889   1.018   0.348   2.146 -0.7835  2.1854  0.3217
  630SOL    HW2 1890   0.949   0.260   2.023  1.0671 -0.1041 -3.3432
  631SOL     OW 1891   2.136   0.992   0.530  0.7761  0.0437  0.6875
  631SOL    HW1 1892   2.170   0.902   0.496 -0.3185 -1.2568 -2.5664
  631SOL    HW2 1893   2.051   1.026   0.477 -1.7999  1.3146 -0.5193
  632SOL     OW 1894   2.655   0.032   1.681 -0.1430  0.4183 -0.5909
  632SOL    HW1 1895   2.640   3.063   1.756 -0.1475  2.8366  3.3242
  632SOL    HW2 1896   2.758   0.050   1.671  0.3530  1.6575  1.4020
  633SOL     OW 1897   1.310   1.085   0.347 -0.3246 -0.1578  0.4036
  633SOL    HW1 1898   1.313   1.155   0.274 -0.5958 -0.2414 -0.8953
  633SOL    HW2 1899   1.232   1.114   0.407 -3.0651  1.8564  1.2048
  634SOL     OW 1900   2.574   2.651   2.098  0.3252 -0.7019  0.5883
  634SOL    HW1 1901   2.614   2.611   2.012 -0.1044 -0.2281 -3.2007
  634SOL    HW2 1902   2.641   2.670   2.170 -1.3612 -0.1269 -1.3916
  635SOL     OW 1903   1.619   0.276   0.608 -0.5014 -0.1406  0.0698
  635SOL    HW1 1904   1.556   0.200   0.592  0.6420 -0.1907 -2.2022
  635SOL    HW2 1905   1.713   0.235   0.614  0.7440  0.6046 -0.4231
  636SOL     OW 1906   0.656   1.204   0.544  0.0084 -0.1741  0.1713
  636SOL    HW1 1907   0.609   1.258   0.471  0.2969 -0.8786  0.2503
  636SOL    HW2 1908   0.599   1.122   0.571 -1.5443  1.3523  0.7969
  637SOL     OW 1909   2.419   1.998   0.105 -0.3497 -0.2358  0.0203
  637SOL    HW1 1910   2.515   1.968   0.127  1.4210  0.4490  0.0994
  637SOL    HW2 1911   2.404   2.082   0.158  0.2159  0.2351 -1.3716
  638SOL     OW 1912   1.272   2.387   2.391  0.2966 -0.0055  0.0132
  638SOL    HW1 1913   1.323   2.431   2.314  1.7640 -0.6091 -0.9530
  638SOL    HW2 1914   1.328   2.387   2.474  1.7732  0.6521 -2.8256
  639SOL     OW 1915   1.361   1.798   0.769 -0.9377  0.4286 -0.0165
  639SOL    HW1 1916   1.367   1.761   0.675  0.1711 -0.0547 -0.2850
  639SOL    HW2 1917   1.275   1.854   0.787  1.1812  1.1475 -0.4507
  640SOL     OW 1918   2.258   2.763   0.409 -0.1143  0.2214 -0.3666
  640SOL    HW1 1919   2.345   2.718   0.379 -0.2020  0.4906 -0.5278
  640SOL    HW2 1920   2.231   2.836   0.345  0.0121 -0.4169  0.0211
  641SOL     OW 1921   2.904   0.549   3.101  0.5009 -0.2962  0.1167
  641SOL    HW1 1922   2.923   0.558   0.100 -0.8218  0.3570 -0.2096
  641SOL    HW2 1923   2.890   0.448   3.082 -1.4318  0.1021 -2.4598
  642SOL     OW 1924   0.443   0.593   1.085  0.7328 -0.7599  0.4519
  642SOL    HW1 1925   0.348   0.602   1.054  1.5884  1.2414 -2.1155
  642SOL    HW2 1926   0.482   0.516   1.035  3.3273  1.9488  3.0990
  643SOL     OW 1927   0.844   1.365   2.269 -0.5078  0.3187  0.2254
  643SOL    HW1 1928   0.783   1.343   2.194  1.8856  0.4660 -0.0721
  643SOL    HW2 1929   0.840   1.460   2.297 -1.1586  0.2950  2.1921
  644SOL     OW 1930   1.509   2.086   0.464  0.3334  0.6079 -0.4792
  644SOL    HW1 1931   1.477   1.999   0.423 -2.1767 -2.9777  2.6246
  644SOL    HW2 1932   1.610   2.091   0.474 -1.9585 -2.4942 -0.3730
  645SOL     OW 1933   1.456   2.244   0.249 -0.4210 -0.4602 -0.0696
  645SOL    HW1 1934   1.420   2.191   0.169  0.8087 -4.2282 -1.2663
  645SOL    HW2 1935   1.455   2.185   0.334  0.2786  0.9531  0.6619
  646SOL     OW 1936   0.225   1.987   2.890 -0.4794  0.8853 -0.5699
  646SOL    HW1 1937   0.306   1.968   2.828  0.3987  0.9997  4.1101
  646SOL    HW2 1938   0.157   2.059   2.851 -0.4298  0.6580  1.5648
  647SOL     OW 1939   1.111   0.211   1.124 -0.0210  0.0425  0.1871
  647SOL    HW1 1940   1.206   0.210   1.160 -1.2316  0.1779  1.7859
  647SOL    HW2 1941   1.088   0.309   1.097  0.6048  2.6411  0.9186
  648SOL     OW 1942   1.369   0.236   0.919 -0.0982  0.1407  0.4090
  648SOL    HW1 1943   1.370   0.207   1.019 -2.1569  1.5004  1.5514
  648SOL    HW2 1944   1.410   0.162   0.864 -0.1156 -0.6502 -3.8408
  649SOL     OW 1945   1.284   1.637   0.454  0.2452  0.1549  0.3794
  649SOL    HW1 1946   1.248   1.632   0.357  0.4179 -1.5768 -0.8226
  649SOL    HW2 1947   1.207   1.660   0.517 -0.0608 -1.4115  1.5724
  650SOL     OW 1948   2.314   1.472   1.914 -0.3432  0.0412 -0.5514
  650SOL    HW1 1949   2.390   1.474   1.980  2.9126 -1.3425  4.3596
  650SOL    HW2 1950   2.265   1.559   1.897 -1.2308 -1.7577  0.0968
  651SOL     OW 1951   1.602   2.006   2.842 -0.1559 -0.1995  0.5982
  651SOL    HW1 1952   1.513   2.054   2.864  2.9281 -0.1414 -1.0130
  651SOL    HW2 1953   1.630   2.047   2.751  2.6127  0.2316 -0.5562
  652SOL     OW 1954   2.412   1.717   0.169  0.3073 -0.2672 -0.2996
  652SOL    HW1 1955   2.470   1.785   0.118  0.1880  0.6986  1.3181
  652SOL    HW2 1956   2.418   1.629   0.122  0.0509  1.3933  2.1121
  653SOL     OW 1957   0.235   0.424   0.885  0.0397 -0.2531  0.2685
  653SOL    HW1 1958   0.291   0.351   0.923  0.4913  1.9979  2.2514
  653SOL    HW2 1959   0.138   0.421   0.914  0.1037  1.4814  2.0138
  654SOL     OW 1960   2.914   0.449   2.234 -0.2540  0.4103 -0.0273
  654SOL    HW1 1961   2.870   0.358   2.233 -0.5083  2.4952 -1.1364
  654SOL    HW2 1962   3.016   0.440   2.271  3.1528  0.2628 -0.0406
  655SOL     OW 1963   0.371   2.425   0.747 -0.4998 -0.5692  0.2361
  655SOL    HW1 1964   0.385   2.522   0.710 -1.1184  0.1312 -1.6748
  655SOL    HW2 1965   0.271   2.407   0.742  0.3058  0.1098  2.1325
  656SOL     OW 1966   3.062   3.020   2.632  0.2293  0.6929  0.6879
  656SOL    HW1 1967   3.080   2.921   2.636  1.2639 -1.8260 -0.4342
  656SOL    HW2 1968   3.005   3.050   2.716  0.1506 -1.2847  2.6647
  657SOL     OW 1969   0.250   1.235   3.016  0.1804 -0.2889 -0.3999
  657SOL    HW1 1970   0.203   1.302   3.084 -0.8447  3.2211  2.3660
  657SOL    HW2 1971   0.254   1.273   2.918 -1.0381 -0.5032 -1.3150
  658SOL     OW 1972   2.626   1.752   1.205  0.2497 -0.5964  0.0572
  658SOL    HW1 1973   2.526   1.741   1.216  0.9456  0.4203  4.0787
  658SOL    HW2 1974   2.671   1.753   1.297  0.0482  0.4128 -1.5757
  659SOL     OW 1975   1.642   2.755   0.204  0.3816  0.3230  0.5632
  659SOL    HW1 1976   1.598   2.665   0.176 -2.5184 -0.4687 -4.0154
  659SOL    HW2 1977   1.642   2.820   0.123 -0.7839 -0.8130  0.5332
  660SOL     OW 1978   1.589   0.854   2.795  0.0010 -0.1285 -0.4711
  660SOL    HW1 1979   1.607   0.893   2.703 -1.6663 -0.2648  0.6098
  660SOL    HW2 1980   1.512   0.905   2.840 -0.0761  0.3668  1.0983
  661SOL     OW 1981   0.247   2.181   1.323  0.2565 -0.1499 -0.1341
  661SOL    HW1 1982   0.241   2.148   1.229  1.5766  1.9103 -2.2788
  661SOL    HW2 1983   0.159   2.223   1.349  0.8413 -2.1148 -0.5681
  662SOL     OW 1984   0.302   0.443   0.089 -0.0113  0.2756 -0.3717
  662SOL    HW1 1985   0.242   0.522   0.069  0.8099 -0.9557 -1.9230
  662SOL    HW2 1986   0.294   0.415   0.182  1.4657  0.8795  0.4544
  663SOL     OW 1987   2.349   1.709   1.219 -0.0694 -0.5029  0.4896
  663SOL    HW1 1988   2.267   1.714   1.158  0.4101  1.5977  1.1748
  663SOL    HW2 1989   2.320   1.667   1.301  3.2914  2.7486 -2.6687
  664SOL     OW 1990   1.141   1.150   1.123 -0.0211  0.0356 -0.4048
  664SOL    HW1 1991   1.097   1.204   1.200 -2.0013 -0.0770 -0.5118
  664SOL    HW2 1992   1.158   1.205   1.040 -0.9795 -2.0921  3.4007
  665SOL     OW 1993   1.901   2.721   2.001  0.6172 -0.6124 -0.0996
  665SOL    HW1 1994   1.821   2.752   2.057 -0.1669 -1.8725  3.4026
  665SOL    HW2 1995   1.906   2.770   1.915  1.9731  3.0245  0.2494
  666SOL     OW 1996   2.879   2.700   0.152  0.0547 -0.7327 -0.8701
  666SOL    HW1 1997   2.952   2.643   0.113 -0.6320  0.9213  0.1092
  666SOL    HW2 1998   2.919   2.768   0.222  0.3610  0.1966  1.2940
  667SOL     OW 1999   2.742   1.118   1.519  0.4012  0.6448 -0.1330
  667SOL    HW1 2000   2.662   1.077   1.461 -1.4329  0.1028 -1.5068
  667SOL    HW2 2001   2.710   1.124   1.617  3.3632  2.3344  0.7525
  668SOL     OW 2002   0.404   0.710   2.576 -0.6347 -0.5368 -0.3535
  668SOL    HW1 2003   0.418   0.676   2.672  3.0344  0.9644  2.2602
  668SOL    HW2 2004   0.316   0.764   2.569 -0.9021 -0.1771 -0.6631
  669SOL     OW 2005   2.245   2.078   2.368 -0.3240  0.4593  0.0122
  669SOL    HW1 2006   2.177   2.057   2.291 -0.5841 -2.9323 -0.8353
  669SOL    HW2 2007   2.321   2.139   2.328  1.7101  0.6131  2.9082
  670SOL     OW 2008   2.749   1.439   1.762  0.0716  0.8340  0.1163
  670SOL    HW1 2009   2.739   1.339   1.767 -0.4564  0.5238 -1.0442
  670SOL    HW2 2010   2.846   1.468   1.772  0.9604 -0.2192 -0.9994
  671SOL     OW 2011   2.975   1.502   0.511 -0.0031  0.2313 -0.3252
  671SOL    HW1 2012   3.065   1.546   0.536  0.4839  0.6312  0.5678
  671SOL    HW2 2013   2.910   1.502   0.590 -2.0348  2.9671  1.7220
  672SOL     OW 2014   2.414   0.692   2.312 -0.1125 -0.3229  0.1755
  672SOL    HW1 2015   2.376   0.732   2.224  3.3489  1.0625  0.3264
  672SOL    HW2 2016   2.378   0.744   2.393  2.8950  0.0881  0.2344
  673SOL     OW 2017   2.557   0.102   2.235  0.1035  0.0095  0.3777
  673SOL    HW1 2018   2.535   0.127   2.142  0.0476  0.9856 -0.1114
  673SOL    HW2 2019   2.550   0.000   2.251  1.1593 -0.3432  1.3190
  674SOL     OW 2020   1.480   2.362   1.535  1.0799  0.2130 -0.0564
  674SOL    HW1 2021   1.507   2.394   1.624  0.1181  1.7596 -3.7017
  674SOL    HW2 2022   1.550   2.304   1.486  0.4938  0.6555  0.4206
  675SOL     OW 2023   0.796   0.644   0.724 -0.2623  0.5845  0.1606
  675SOL    HW1 2024   0.767   0.678   0.817  2.0107 -1.6643 -1.0171
  675SOL    HW2 2025   0.740   0.676   0.646  0.2559  0.2278  1.8785
  676SOL     OW 2026   1.600   0.921   0.898  0.3225 -0.0463  0.7854
  676SOL    HW1 2027   1.613   1.016   0.867  2.4620 -1.3820  2.1914
  676SOL    HW2 2028   1.509   0.882   0.863 -2.9575 -0.9360  1.6966
  677SOL     OW 2029   2.549   1.296   2.199  0.6018  0.1791  0.3752
  677SOL    HW1 2030   2.519   1.207   2.156  1.0750 -1.1166  0.5341
  677SOL    HW2 2031   2.560   1.371   2.129  0.4692 -0.5669  0.9819
  678SOL     OW 2032   2.824   1.835   0.975 -0.7939  1.1136 -0.2455
  678SOL    HW1 2033   2.900   1.822   1.033 -2.8686 -1.3467 -1.3815
  678SOL    HW2 2034   2.740   1.832   1.034  1.4922  0.2746  0.1006
  679SOL     OW 2035   2.179   2.652   0.084 -0.4686 -0.1118 -0.4660
  679SOL    HW1 2036   2.090   2.657   0.127 -0.0678 -0.1246 -0.7024
  679SOL    HW2 2037   2.195   2.721   0.012 -1.4309 -0.3474  1.1242
  680SOL     OW 2038   0.048   2.288   2.075  0.5141  0.0308  0.6022
  680SOL    HW1 2039   0.130   2.307   2.018 -0.0823  0.2614 -1.6587
  680SOL    HW2 2040   0.022   2.186   2.079  0.5281 -0.9900  1.7252
  681SOL     OW 2041   0.713   1.303   1.521  0.3763 -0.2140  0.2623
  681SOL    HW1 2042   0.628   1.240   1.528 -4.8313 -2.0505 -1.5677
  681SOL    HW2 2043   0.796   1.249   1.538 -0.1324 -1.4911  0.9057
  682SOL     OW 2044   1.272   2.623   0.847  0.0895  0.0308 -0.2292
  682SOL    HW1 2045   1.308   2.577   0.767  0.6490  0.6784  3.8705
  682SOL    HW2 2046   1.186   2.572   0.874  1.1061 -0.4031 -1.0680
  683SOL     OW 2047   2.188   1.487   0.755 -0.0911  0.3523  0.0891
  683SOL    HW1 2048   2.161   1.574   0.805 -0.1640  1.4984  0.3161
  683SOL    HW2 2049   2.147   1.395   0.787  1.3068 -3.8492 -2.0141
  684SOL     OW 2050   0.320   2.142   1.995  0.0173 -0.2140 -0.0481
  684SOL    HW1 2051   0.409   2.094   1.995  0.8892  1.4746 -1.8099
  684SOL    HW2 2052   0.286   2.152   1.895  0.5458 -1.4754  2.1200
  685SOL     OW 2053   1.707   1.690   2.940 -0.2770 -0.6275 -0.1510
  685SOL    HW1 2054   1.723   1.769   2.999  0.1493 -0.5198 -0.1526
  685SOL    HW2 2055   1.719   1.708   2.840 -0.7488 -1.0180  1.9686
  686SOL     OW 2056   3.098   0.905   1.318  0.7332  0.3718  0.3407
  686SOL    HW1 2057   3.036   0.971   1.364 -0.5717  1.9485  2.7156
  686SOL    HW2 2058   0.062   0.855   1.377  1.4614  0.9006 -2.0391
  687SOL     OW 2059   0.818   2.407   2.828  0.0196  0.0006 -0.7401
  687SOL    HW1 2060   0.806   2.341   2.907 -1.2538 -0.9858  3.7261
  687SOL    HW2 2061   0.729   2.425   2.778  1.0706  1.6331 -2.2757
  688SOL     OW 2062   2.622   1.802   1.919 -0.0008 -0.2616  0.3586
  688SOL    HW1 2063   2.557   1.829   1.990  1.7870 -0.9218 -1.6663
  688SOL    HW2 2064   2.705   1.771   1.967  2.0000 -2.5709  0.7316
  689SOL     OW 2065   2.281   0.770   2.072 -0.7695 -0.3820  0.1348
  689SOL    HW1 2066   2.324   0.731   1.990 -2.7156 -0.9982  3.8989
  689SOL    HW2 2067   2.192   0.818   2.050  0.2581 -1.3570 -0.3437
  690SOL     OW 2068   2.224   0.886   1.159  0.2850  0.2688  0.4630
  690SOL    HW1 2069   2.277   0.965   1.130 -2.8032  0.5322  0.3769
  690SOL    HW2 2070   2.157   0.905   1.230  0.8842 -1.1271 -1.1295
  691SOL     OW 2071   0.826   1.651   1.931 -0.2488  0.2015 -0.4588
  691SOL    HW1 2072   0.756   1.690   1.874  1.3377 -1.1332 -2.2553
  691SOL    HW2 2073   0.907   1.625   1.872  0.8949 -3.2291 -1.2827
  692SOL     OW 2074   2.029   0.323   1.430 -0.0628  0.4063  0.7506
  692SOL    HW1 2075   2.098   0.356   1.496  1.9392 -0.1458  0.3550
  692SOL    HW2 2076   1.979   0.244   1.473  0.0060 -0.9982 -0.6108
  693SOL     OW 2077   0.561   1.165   2.303  0.2526  0.4697  0.0375
  693SOL    HW1 2078   0.529   1.077   2.343  2.3713 -0.0767  1.2392
  693SOL    HW2 2079   0.599   1.144   2.211 -0.0802 -0.8887 -0.2879
  694SOL     OW 2080   1.802   2.635   1.287  0.2217  0.4602 -0.5372
  694SOL    HW1 2081   1.714   2.640   1.237  2.0652 -0.2467 -0.9679
  694SOL    HW2 2082   1.878   2.683   1.240 -1.8068 -2.8540  2.1954
  695SOL     OW 2083   1.314   1.152   1.991 -0.0687 -0.6885  0.0306
  695SOL    HW1 2084   1.222   1.146   2.036  1.5942  0.3972  0.9898
  695SOL    HW2 2085   1.344   1.246   1.972 -0.0517  0.0604  0.3333
  696SOL     OW 2086   1.322   3.072   0.699 -0.0525  0.6947 -0.3469
  696SOL    HW1 2087   1.260   0.050   0.687 -2.4287  0.3446  1.1943
  696SOL    HW2 2088   1.277   2.986   0.723  1.0181 -0.4129  2.7246
  697SOL     OW 2089   1.182   0.203   0.669 -0.3137 -0.4184  0.1969
  697SOL    HW1 2090   1.216   0.280   0.726 -2.1944 -0.0497 -0.6097
  697SOL    HW2 2091   1.208   0.216   0.573  0.4127  2.1860 -0.3877
  698SOL     OW 2092   1.508   1.162   2.692 -0.0834  0.3014  0.3182
  698SOL    HW1 2093   1.436   1.226   2.654  1.0870  1.4736 -1.6668
  698SOL    HW2 2094   1.474   1.103   2.764  0.3897 -1.0868  1.0010
  699SOL     OW 2095   1.428   1.314   1.062  0.2187 -0.0838 -0.7259
  699SOL    HW1 2096   1.439   1.406   1.105  0.5929  1.9517  0.3097
  699SOL    HW2 2097   1.328   1.314   1.028 -5.7689  2.1293 -0.3127
  700SOL     OW 2098   1.507   0.043   0.519 -0.0751  0.0420  0.3188
  700SOL    HW1 2099   1.442   0.013   0.592 -2.9539 -2.8039  2.0434
  700SOL    HW2 2100   1.593   3.092   0.521 -2.8175  2.0886  0.5101
  701SOL     OW 2101   0.120   0.340   1.997  0.0316 -0.6691  0.0503
  701SOL    HW1 2102   0.142   0.439   2.020 -1.8811 -1.0724 -0.2389
  701SOL    HW2 2103   0.110   0.290   2.087 -3.1411  2.0282 -0.5500
  702SOL     OW 2104   1.071   2.832   0.297 -0.4404 -0.0257  0.3478
  702SOL    HW1 2105   1.167   2.826   0.265 -0.9593  0.4601  1.2079
  702SOL    HW2 2106   1.070   2.853   0.392  2.4543 -0.5746 -7.1767
  703SOL     OW 2107   2.453   2.756   2.543 -0.0597 -0.3139 -0.5115
  703SOL    HW1 2108   2.361   2.766   2.494 -1.1064 -1.0697 -0.3630
  703SOL    HW2 2109   2.487   2.850   2.557 -0.7380 -1.9242 -2.2053
  704SOL     OW 2110   0.630   2.194   1.071 -0.3541 -0.4059  0.3839
  704SOL    HW1 2111   0.682   2.190   0.982  0.0162 -0.8314 -0.2853
  704SOL    HW2 2112   0.551   2.125   1.073 -2.0731  0.9995 -0.2649
  705SOL     OW 2113   0.119   0.775   1.850 -0.0626  1.1425  0.0757
  705SOL    HW1 2114   0.092   0.856   1.909 -0.2413 -0.6302 -1.7481
  705SOL    HW2 2115   0.222   0.786   1.831  1.4599 -0.4719  0.3108
  706SOL     OW 2116   1.723   3.007   0.511 -0.0496  0.2480 -0.2792
  706SOL    HW1 2117   1.733   2.907   0.477  0.0866  1.4742 -1.1978
  706SOL    HW2 2118   1.810   3.062   0.512 -0.3978  1.8264  0.5219
  707SOL     OW 2119   1.275   1.884   1.982  0.4706 -0.5346  0.4783
  707SOL    HW1 2120   1.252   1.835   2.068  0.0090 -1.2534 -3.3032
  707SOL    HW2 2121   1.288   1.981   1.999 -4.5780 -1.1060 -0.3168
  708SOL     OW 2122   2.926   2.314   1.678  0.0323  0.1857 -0.9234
  708SOL    HW1 2123   2.846   2.321   1.617 -2.8654 -0.1780  2.1910
  708SOL    HW2 2124   2.996   2.374   1.635  0.0267 -2.9880  0.9884
  709SOL     OW 2125   1.829   0.562   1.753  0.3649 -0.0147 -0.2355
  709SOL    HW1 2126   1.889   0.534   1.679  0.1774  0.2435 -0.5480
  709SOL    HW2 2127   1.736   0.523   1.741 -1.7134  0.2381  0.6557
  710SOL     OW 2128   2.453   0.369   1.491 -0.6078  0.3646  0.1893
  710SOL    HW1 2129   2.545   0.356   1.535 -0.6655  0.4754 -2.9074
  710SOL    HW2 2130   2.456   0.350   1.392 -1.2967  3.1921  1.7734
  711SOL     OW 2131   0.114   2.155   0.504 -0.2810  0.3944  0.2592
  711SOL    HW1 2132   0.196   2.099   0.473 -0.3246 -0.0415 -1.1397
  711SOL    HW2 2133   0.052   2.098   0.566 -0.1292  0.9936 -0.7156
  712SOL     OW 2134   0.523   2.455   2.362 -0.9182 -0.0935  0.2280
  712SOL    HW1 2135   0.481   2.407   2.285 -0.1460  4.4860 -0.6670
  712SOL    HW2 2136   0.544   2.555   2.342  1.9546  1.8695 -1.2985
  713SOL     OW 2137   2.150   0.846   0.003  0.6279 -0.0268 -0.1324
  713SOL    HW1 2138   2.228   0.911   0.018  0.9840 -0.7189 -0.9603
  713SOL    HW2 2139   2.151   0.780   0.084  1.5934 -1.7036  4.5849
  714SOL     OW 2140   0.666   1.814   0.642  0.5635  0.2403  0.2127
  714SOL    HW1 2141   0.739   1.860   0.698  0.9396 -2.5462  0.9087
  714SOL    HW2 2142   0.656   1.720   0.680  1.6741  1.7699 -0.6777
  715SOL     OW 2143   1.863   2.998   0.232  0.1151 -0.6950 -0.0812
  715SOL    HW1 2144   1.899   3.074   0.288 -1.3534  1.3470 -0.4619
  715SOL    HW2 2145   1.765   3.017   0.214  0.2659 -0.6755 -0.4961
  716SOL     OW 2146   0.473   0.481   1.698  0.6977  0.0201  0.2353
  716SOL    HW1 2147   0.468   0.515   1.791 -1.8265 -1.8975 -4.0386
  716SOL    HW2 2148   0.392   0.428   1.673  2.3131 -1.4459 -1.8369
  717SOL     OW 2149   2.938   0.829   0.170  0.2956  0.4600  0.6900
  717SOL    HW1 2150   2.943   0.843   0.074 -1.3350  0.0797  0.9794
  717SOL    HW2 2151   2.951   0.728   0.190  1.0671 -1.8909  1.1783
  718SOL     OW 2152   1.241   0.869   0.182  0.3473 -0.0014 -0.6124
  718SOL    HW1 2153   1.239   0.937   0.258  1.2237  0.1705 -0.0808
  718SOL    HW2 2154   1.244   0.775   0.223  0.3915  2.0271 -0.0269
  719SOL     OW 2155   3.009   1.519   0.039 -0.1460  0.2871  0.1756
  719SOL    HW1 2156   2.934   1.452   0.070 -0.2050 -2.7635 -0.1614
  719SOL    HW2 2157   3.031   1.522   3.039 -0.1466  0.8601 -0.0349
  720SOL     OW 2158   1.421   0.847   1.109 -0.6194  0.2105  0.4415
  720SOL    HW1 2159   1.496   0.917   1.075  2.9700 -0.1622 -0.1930
  720SOL    HW2 2160   1.450   0.752   1.086  1.2219 -2.6502  1.8232
  721SOL     OW 2161   2.695   0.808   0.423  0.2942 -0.0391 -0.6190
  721SOL    HW1 2162   2.784   0.836   0.395 -1.5983 -2.6264 -2.1550
  721SOL    HW2 2163   2.691   0.709   0.454  2.5405  0.9368 -2.0169
  722SOL     OW 2164   0.709   1.301   2.892 -0.1588  0.0425 -0.1083
  722SOL    HW1 2165   0.714   1.385   2.839 -0.0355  1.9366  0.1643
  722SOL    HW2 2166   0.686   1.220   2.832 -2.0566 -3.4460 -0.0474
  723SOL     OW 2167   0.509   0.996   0.674  0.0933  0.3539  0.0473
  723SOL    HW1 2168   0.576   1.010   0.751  2.0508  0.0552  1.8417
  723SOL    HW2 2169   0.420   0.967   0.713  1.1295 -1.6245  0.3755
  724SOL     OW 2170   0.984   2.530   1.987  0.4380 -0.8120  0.1859
  724SOL    HW1 2171   0.906   2.492   1.934  1.5668 -0.2104  0.4890
  724SOL    HW2 2172   1.041   2.594   1.929  2.7818 -1.3179 -2.2745
  725SOL     OW 2173   2.552   1.023   1.350  0.0233  0.1434 -0.2944
  725SOL    HW1 2174   2.478   1.093   1.358 -2.8969 -0.0980 -2.4527
  725SOL    HW2 2175   2.520   0.939   1.397  2.5678  0.8817 -1.2586
  726SOL     OW 2176   1.727   2.753   0.465 -0.6274 -0.1488 -0.4689
  726SOL    HW1 2177   1.737   2.661   0.507  1.7574  1.4153  0.1636
  726SOL    HW2 2178   1.674   2.749   0.376  3.4594  0.1581 -0.9430
  727SOL     OW 2179   1.281   0.966   2.492  0.3628  0.4738 -0.2271
  727SOL    HW1 2180   1.282   0.883   2.558  0.0874 -2.2018  0.6198
  727SOL    HW2 2181   1.357   0.958   2.422  0.7649 -1.7730 -4.0954
  728SOL     OW 2182   1.375   2.539   1.337  0.3191  0.4036  0.3080
  728SOL    HW1 2183   1.276   2.550   1.341  2.9887  3.3264 -2.1411
  728SOL    HW2 2184   1.407   2.484   1.414 -2.2511  0.7165 -0.8697
  729SOL     OW 2185   1.715   0.619   1.240 -0.7507 -0.1295 -0.2291
  729SOL    HW1 2186   1.691   0.529   1.198 -0.5746  1.4206 -1.4783
  729SOL    HW2 2187   1.636   0.654   1.295 -0.6611 -1.6363  2.5995
  730SOL     OW 2188   0.611   2.028   2.051  0.0222 -0.5041 -0.8042
  730SOL    HW1 2189   0.675   2.074   2.109 -2.1670 -1.9511 -2.2542
  730SOL    HW2 2190   0.621   1.932   2.078 -1.3389  0.6388  0.0109
  731SOL     OW 2191   0.509   0.276   0.629 -0.4688  0.2386 -0.1189
  731SOL    HW1 2192   0.575   0.232   0.693  2.6715  1.9848 -1.9795
  731SOL    HW2 2193   0.504   0.235   0.534 -3.9360 -1.3149 -1.2468
  732SOL     OW 2194   0.559   0.422   0.013  0.2505  0.2247  0.0036
  732SOL    HW1 2195   0.579   0.487   3.041 -2.4947  1.1357 -0.3747
  732SOL    HW2 2196   0.457   0.426   0.035 -0.2533  1.0587 -0.6201
  733SOL     OW 2197   1.031   2.368   1.186 -0.3129  0.1960  0.3915
  733SOL    HW1 2198   0.939   2.326   1.213 -0.6273 -0.8029  0.6986
  733SOL    HW2 2199   1.059   2.440   1.253  0.5057  0.2413 -0.2509
  734SOL     OW 2200   0.043   2.178   2.817  0.2595 -0.2667 -0.6201
  734SOL    HW1 2201   0.001   2.153   2.725 -1.0827 -1.0128 -0.3402
  734SOL    HW2 2202   3.073   2.186   2.890 -2.1830  2.0458 -0.3428
  735SOL     OW 2203   0.921   2.938   1.013  0.3404 -0.1353 -0.0981
  735SOL    HW1 2204   0.837   2.992   1.034  0.3820  0.0973  1.0031
  735SOL    HW2 2205   1.002   3.004   1.000 -1.0271  0.6374 -1.5062
  736SOL     OW 2206   1.790   0.297   2.937 -0.2995 -0.1795 -0.0692
  736SOL    HW1 2207   1.725   0.336   2.864 -2.3274 -0.2797  0.5320
  736SOL    HW2 2208   1.750   0.297   3.026  3.6028 -0.8819 -1.4714
  737SOL     OW 2209   3.087   0.203   0.539 -0.3384 -0.2825 -0.2128
  737SOL    HW1 2210   0.067   0.205   0.604 -0.6886  0.7876 -0.3182
  737SOL    HW2 2211   3.080   0.290   0.485  0.1672  0.0541  1.7941
  738SOL     OW 2212   2.554   3.074   1.228 -0.4860 -0.1544 -0.4723
  738SOL    HW1 2213   2.469   0.011   1.180 -1.2504  1.0671 -1.1925
  738SOL    HW2 2214   2.591   2.995   1.174  0.6303 -1.6082  0.3120
  739SOL     OW 2215   1.508   2.318   3.030 -0.0998  0.0847 -0.4267
  739SOL    HW1 2216   1.586   2.363   3.070  1.3661  0.1561 -2.3189
  739SOL    HW2 2217   1.494   2.222   3.067 -0.7116 -0.7752 -0.8858
  740SOL     OW 2218   1.553   2.763   1.296 -0.0499  0.2890  0.1075
  740SOL    HW1 2219   1.572   2.827   1.373 -1.2815 -0.2426  1.2426
  740SOL    HW2 2220   1.495   2.682   1.319  0.0026  1.0943 -1.5479
  741SOL     OW 2221   1.867   0.620   0.745 -0.1176  0.0039  0.1088
  741SOL    HW1 2222   1.860   0.637   0.647 -4.1435  2.3550  0.8785
  741SOL    HW2 2223   1.879   0.708   0.790  2.5398 -1.3001  1.9019
  742SOL     OW 2224   1.348   2.128   2.052  0.4995  0.1830 -0.1777
  742SOL    HW1 2225   1.388   2.146   2.141  0.2262 -0.3356 -1.3460
  742SOL    HW2 2226   1.293   2.208   2.020 -0.6135  1.6782 -1.7808
  743SOL     OW 2227   2.423   0.569   1.845  0.0459 -0.4636 -0.1563
  743SOL    HW1 2228   2.393   0.653   1.791  0.9081 -0.0265 -1.8526
  743SOL    HW2 2229   2.527   0.561   1.850  1.8975 -1.5430 -3.4146
  744SOL     OW 2230   2.513   0.275   1.244  0.7701  0.3538 -0.2156
  744SOL    HW1 2231   2.473   0.332   1.165 -0.7393  1.4458 -0.3053
  744SOL    HW2 2232   2.503   0.171   1.228  0.7317 -0.3984 -1.0748
  745SOL     OW 2233   1.934   1.207   1.642  0.2928  0.4366 -0.1341
  745SOL    HW1 2234   1.869   1.221   1.716  2.9317  1.6398 -2.1087
  745SOL    HW2 2235   1.892   1.214   1.553 -2.2061  0.0159  1.1019
  746SOL     OW 2236   1.198   1.314   0.897 -0.0998 -0.0120 -0.0737
  746SOL    HW1 2237   1.136   1.387   0.856 -0.1466  2.6030  0.5108
  746SOL    HW2 2238   1.241   1.259   0.823  2.4137 -1.3675  0.2805
  747SOL     OW 2239   1.786   1.212   1.085  0.1011  0.4230  0.2520
  747SOL    HW1 2240   1.723   1.130   1.088  1.6397 -1.0016  1.9842
  747SOL    HW2 2241   1.877   1.195   1.032  1.7810 -1.9485 -1.0346
  748SOL     OW 2242   2.913   2.712   0.711 -0.0810 -0.0641 -0.1052
  748SOL    HW1 2243   2.950   2.655   0.634 -0.6806  0.3247 -0.1514
  748SOL    HW2 2244   2.815   2.733   0.690  1.8735  1.6626  1.2663
  749SOL     OW 2245   0.096   0.164   2.185  0.4323  0.7988  0.4553
  749SOL    HW1 2246   0.029   0.130   2.252  0.9003 -0.5294  1.4866
  749SOL    HW2 2247   0.173   0.094   2.191 -1.6701 -0.3452  1.5480
  750SOL     OW 2248   2.099   0.618   1.036  0.1136  0.3217  0.1406
  750SOL    HW1 2249   2.180   0.587   1.092  0.5486  0.4243  0.6556
  750SOL    HW2 2250   2.082   0.713   1.065  0.1087 -2.5353 -0.1296
  751SOL     OW 2251   2.965   0.558   0.705 -0.0361 -0.0444  0.9189
  751SOL    HW1 2252   2.930   0.592   0.796  0.2586 -1.2990  0.5103
  751SOL    HW2 2253   3.056   0.588   0.681 -1.3199  1.9256  0.1235
  752SOL     OW 2254   0.058   2.612   1.204  0.0339 -0.3197  0.7992
  752SOL    HW1 2255   0.019   2.683   1.141 -2.4443  2.2714  0.0650
  752SOL    HW2 2256   0.054   2.525   1.152  0.5381  3.0471  0.1213
  753SOL     OW 2257   1.226   0.335   2.034 -0.0624  0.6606 -0.0309
  753SOL    HW1 2258   1.205   0.405   1.960 -0.2609  1.4681 -2.0738
  753SOL    HW2 2259   1.318   0.300   2.024 -2.3122  0.7264  2.7936
  754SOL     OW 2260   1.574   2.481   1.751 -0.4555  0.8276 -0.3107
  754SOL    HW1 2261   1.662   2.505   1.707  0.2839 -2.0674 -2.0471
  754SOL    HW2 2262   1.594   2.446   1.846 -1.0841  2.6634  2.7449
  755SOL     OW 2263   2.822   1.214   0.543  0.1807 -0.1624  0.2177
  755SOL    HW1 2264   2.780   1.256   0.460  0.4079  0.3344 -1.0474
  755SOL    HW2 2265   2.889   1.140   0.513  0.4632  1.7749  0.3292
  756SOL     OW 2266   1.663   1.696   2.359 -0.0201 -0.4233 -0.7908
  756SOL    HW1 2267   1.722   1.626   2.394 -2.5046 -0.1234  3.3206
  756SOL    HW2 2268   1.563   1.667   2.357  0.4032  0.5989  1.5275
  757SOL     OW 2269   1.691   2.829   0.755  0.2428 -0.1384  0.0316
  757SOL    HW1 2270   1.689   2.884   0.672 -0.3338  1.1834  0.3707
  757SOL    HW2 2271   1.650   2.741   0.729 -2.6078  1.2385  0.0222
  758SOL     OW 2272   0.512   2.960   1.242 -0.3949  0.2396 -0.1139
  758SOL    HW1 2273   0.466   2.876   1.209  1.1429 -0.0248  0.1377
  758SOL    HW2 2274   0.572   3.001   1.173  1.8045  0.9302  3.9040
  759SOL     OW 2275   0.064   0.918   0.970 -0.4974 -0.1455 -0.8910
  759SOL    HW1 2276   3.080   0.907   1.023 -1.2925 -0.4681 -0.8348
  759SOL    HW2 2277   0.090   1.018   0.980 -0.1464 -1.7272 -0.7219
  760SOL     OW 2278   2.597   1.306   1.157 -0.1360 -0.0804  0.2542
  760SOL    HW1 2279   2.679   1.252   1.120  0.8547  1.7450 -0.4900
  760SOL    HW2 2280   2.511   1.272   1.112  0.6625 -3.1448  3.0289
  761SOL     OW 2281   1.315   0.996   0.827  0.9621  0.1597 -0.1404
  761SOL    HW1 2282   1.377   1.008   0.907  0.9735 -1.4653 -0.7578
  761SOL    HW2 2283   1.235   0.928   0.836  2.0965 -0.2988  0.5262
  762SOL     OW 2284   2.428   2.015   1.216  0.0412 -0.8323  0.7699
  762SOL    HW1 2285   2.401   1.936   1.268  0.2852  2.6561  0.7404
  762SOL    HW2 2286   2.451   1.997   1.117 -0.1976 -0.4237  0.6271
  763SOL     OW 2287   1.108   1.368   2.057 -0.4133  0.3528 -0.5213
  763SOL    HW1 2288   1.113   1.375   2.162 -1.2532 -0.0720  2.4944
  763SOL    HW2 2289   1.190   1.406   2.009 -0.5945 -0.1021 -3.5615
  764SOL     OW 2290   0.073   1.869   2.506 -0.0557  0.6886  0.1085
  764SOL    HW1 2291   0.090   1.899   2.410 -0.5209  0.8405  0.4374
  764SOL    HW2 2292   0.042   1.770   2.507 -1.0944 -1.5405  0.8070
  765SOL     OW 2293   1.114   2.581   1.340  0.3629 -0.4011  0.5974
  765SOL    HW1 2294   1.050   2.578   1.421 -1.3300 -1.9792  0.6830
  765SOL    HW2 2295   1.106   2.672   1.290 -0.1502 -0.4970 -0.0296
  766SOL     OW 2296   0.630   2.437   2.648  0.1734  0.3893 -0.1801
  766SOL    HW1 2297   0.676   2.426   2.557 -0.5155  3.2878 -0.3917
  766SOL    HW2 2298   0.576   2.352   2.668 -0.3076 -1.5606 -0.7065
  767SOL     OW 2299   1.685   0.060   2.871  0.1763 -0.4162 -0.5672
  767SOL    HW1 2300   1.722   0.015   2.788 -1.7667 -0.3530 -0.5297
  767SOL    HW2 2301   1.739   0.143   2.895  0.0750  1.0763  0.7061
  768SOL     OW 2302   1.361   2.183   2.828  0.3056  0.2151  0.0155
  768SOL    HW1 2303   1.266   2.189   2.859  1.1787  0.0349 -0.7280
  768SOL    HW2 2304   1.421   2.240   2.891  2.9932  0.5998  0.6001
  769SOL     OW 2305   2.882   2.844   1.469  0.1832 -0.3174  0.1335
  769SOL    HW1 2306   2.883   2.921   1.401  1.9049 -0.2470 -0.0371
  769SOL    HW2 2307   2.973   2.824   1.502 -0.2154 -0.3691 -0.7825
  770SOL     OW 2308   0.657   2.895   2.947  0.4090  0.3040 -0.0280
  770SOL    HW1 2309   0.583   2.950   2.995  0.0815  2.5558 -0.0450
  770SOL    HW2 2310   0.740   2.883   3.004 -0.0714 -1.0062 -0.4601
  771SOL     OW 2311   0.737   2.877   2.693  0.6098 -0.2463  0.2282
  771SOL    HW1 2312   0.707   2.882   2.789 -2.0558 -0.3428  0.4699
  771SOL    HW2 2313   0.676   2.804   2.650 -1.2760 -3.1020 -1.9014
  772SOL     OW 2314   2.458   0.151   1.960  0.4655  0.0397 -0.2248
  772SOL    HW1 2315   2.514   0.064   1.953  0.1136  0.5449  2.3529
  772SOL    HW2 2316   2.428   0.177   1.865 -1.6310 -1.9208 -0.0519
  773SOL     OW 2317   0.764   2.442   1.847  0.2022  0.0696  0.1505
  773SOL    HW1 2318   0.736   2.473   1.753  1.5975  0.0112 -0.8407
  773SOL    HW2 2319   0.696   2.438   1.924  0.7507  0.9140  2.4831
  774SOL     OW 2320   1.569   0.514   2.114 -0.1785 -0.1659  0.1544
  774SOL    HW1 2321   1.514   0.462   2.044  0.1339  0.7594 -0.6880
  774SOL    HW2 2322   1.551   0.481   2.209 -4.1789 -0.8107  2.1107
  775SOL     OW 2323   2.192   2.782   2.944 -0.5009 -0.5635 -0.3283
  775SOL    HW1 2324   2.200   2.876   2.903 -0.5021 -1.4523 -0.7882
  775SOL    HW2 2325   2.254   2.716   2.898  0.6942  0.2972 -0.0004
  776SOL     OW 2326   2.045   0.915   2.014 -0.6097  0.4577 -0.2044
  776SOL    HW1 2327   2.043   1.016   1.990 -0.1627 -1.2676 -0.9310
  776SOL    HW2 2328   1.986   0.861   1.947  1.0817  0.3962 -3.0121
  777SOL     OW 2329   2.913   1.046   2.525 -0.2069 -0.1768  0.5448
  777SOL    HW1 2330   2.886   0.952   2.497 -0.0630  1.6664 -0.7703
  777SOL    HW2 2331   2.854   1.120   2.487  2.3202  0.3650  0.0091
  778SOL     OW 2332   2.103   0.593   2.257 -0.1652 -0.4584  0.0313
  778SOL    HW1 2333   2.099   0.652   2.343  0.0557  2.7013  0.5830
  778SOL    HW2 2334   2.157   0.637   2.183 -0.5796 -1.1260 -0.8094
  779SOL     OW 2335   3.002   0.043   0.099  0.2236  0.0836 -0.2110
  779SOL    HW1 2336   2.981   3.052   0.061  1.1785 -2.2498 -0.2020
  779SOL    HW2 2337   3.096   0.044   0.145 -1.2117  0.6355  1.3925
  780SOL     OW 2338   2.424   0.145   2.478  0.2938  0.4206 -0.3867
  780SOL    HW1 2339   2.328   0.147   2.459  2.4027  0.3183  0.4871
  780SOL    HW2 2340   2.479   0.152   2.395 -1.9159 -2.4095 -0.8776
  781SOL     OW 2341   0.262   0.224   1.809  0.1156  0.0882  0.1226
  781SOL    HW1 2342   0.239   0.275   1.726 -2.0295 -1.2245  3.3098
  781SOL    HW2 2343   0.217   0.257   1.893 -0.0632  1.4891  0.8295
  782SOL     OW 2344   1.853   2.189   3.020  0.0422  0.1391 -0.7937
  782SOL    HW1 2345   1.945   2.237   3.022 -0.9701  1.8307  0.7787
  782SOL    HW2 2346   1.835   2.136   2.932  1.0191 -0.7360 -2.1267
  783SOL     OW 2347   0.729   1.709   1.490  0.8436 -0.1711 -0.0918
  783SOL    HW1 2348   0.783   1.786   1.448  2.5121  1.1962 -1.3322
  783SOL    HW2 2349   0.791   1.630   1.504  1.2257 -1.7436  0.1456
  784SOL     OW 2350   1.845   0.496   2.284 -0.1729 -0.6751  0.1272
  784SOL    HW1 2351   1.933   0.531   2.312 -1.2574 -0.0251 -0.6683
  784SOL    HW2 2352   1.841   0.487   2.184 -1.1399 -1.2128 -1.1764
  785SOL     OW 2353   2.888   0.641   0.949 -0.1245  0.3500  0.2824
  785SOL    HW1 2354   2.889   0.732   0.994  1.0396 -1.4073 -2.1645
  785SOL    HW2 2355   2.830   0.577   1.004  0.5459 -3.1688 -0.9143
  786SOL     OW 2356   1.965   2.872   0.730  0.3685 -0.3347  0.2433
  786SOL    HW1 2357   1.862   2.859   0.722 -2.2872  1.8998 -2.0473
  786SOL    HW2 2358   2.010   2.792   0.694 -1.8240  1.7921  1.6289
  787SOL     OW 2359   1.072   0.041   0.924  0.3022 -0.4993  0.2714
  787SOL    HW1 2360   1.074   0.087   0.833 -1.2155 -1.8122  0.0882
  787SOL    HW2 2361   1.098   0.106   0.996 -1.1010 -1.9828 -3.0943
  788SOL     OW 2362   0.154   1.189   1.003 -0.2064 -0.4238  0.5158
  788SOL    HW1 2363   0.117   1.213   1.098 -0.9197 -1.3129  3.4999
  788SOL    HW2 2364   0.187   1.273   0.949  1.3732  2.7431 -1.7417
  789SOL     OW 2365   0.139   0.987   2.037 -0.2392  0.2092 -0.2348
  789SOL    HW1 2366   0.106   0.916   2.106  1.2785  0.4089  0.7208
  789SOL    HW2 2367   0.236   1.012   2.050  0.9176  4.0065 -2.5956
  790SOL     OW 2368   1.028   0.569   2.707  0.9065 -0.0376  1.0428
  790SOL    HW1 2369   0.959   0.535   2.777  3.2293 -0.1249 -0.3144
  790SOL    HW2 2370   0.993   0.550   2.607 -0.1299 -1.0421 -0.7722
  791SOL     OW 2371   2.453   0.399   0.202  0.0778  0.9606  0.5766
  791SOL    HW1 2372   2.353   0.384   0.208  2.0126  1.5352 -0.3500
  791SOL    HW2 2373   2.497   0.368   0.289  3.1722 -0.1943  0.1488
  792SOL     OW 2374   1.402   0.564   1.048 -0.7011  0.0258 -0.2976
  792SOL    HW1 2375   1.367   0.613   0.959 -2.4014  0.9843  1.3831
  792SOL    HW2 2376   1.461   0.482   1.021 -1.2153 -2.5095 -0.0186
  793SOL     OW 2377   0.182   2.973   1.450 -0.1527 -0.1834 -0.1268
  793SOL    HW1 2378   0.261   3.039   1.454  3.2641 -0.2766  0.5507
  793SOL    HW2 2379   0.096   3.013   1.419  0.7686 -1.6877  0.2387
  794SOL     OW 2380   0.162   0.614   2.089  0.1696 -0.2742 -0.2006
  794SOL    HW1 2381   0.136   0.665   2.001 -1.1531  0.5541 -1.4612
  794SOL    HW2 2382   0.220   0.678   2.143 -0.5900  1.0243  0.5860
  795SOL     OW 2383   0.350   2.360   2.553 -0.2553 -0.5725  0.5159
  795SOL    HW1 2384   0.427   2.403   2.499  0.7225 -0.3186  0.1908
  795SOL    HW2 2385   0.271   2.429   2.558 -0.9730  2.5897  1.3133
  796SOL     OW 2386   2.035   0.344   2.621  0.0902  0.5555  0.3443
  796SOL    HW1 2387   1.946   0.362   2.575 -1.5669  1.2419  3.0240
  796SOL    HW2 2388   2.026   0.261   2.678  0.6955  1.4269  0.0738
  797SOL     OW 2389   2.480   2.408   2.751 -0.4229  0.6776 -0.1403
  797SOL    HW1 2390   2.442   2.496   2.782  2.6700 -1.0541  0.9773
  797SOL    HW2 2391   2.500   2.354   2.839  1.9176 -3.2607  3.4029
  798SOL     OW 2392   0.233   0.806   1.529 -0.0852 -0.1605 -0.0048
  798SOL    HW1 2393   0.227   0.719   1.474 -2.9731 -2.3446 -1.4188
  798SOL    HW2 2394   0.219   0.790   1.630  1.6473 -0.7511 -0.0614
  799SOL     OW 2395   0.795   0.303   1.737 -0.1716 -0.1258  0.3820
  799SOL    HW1 2396   0.701   0.326   1.753 -1.7410 -0.8304  1.2881
  799SOL    HW2 2397   0.815   0.228   1.799 -1.8110  3.6838 -0.1221
  800SOL     OW 2398   3.034   2.580   0.485  0.0590  0.7231  0.2609
  800SOL    HW1 2399   3.048   2.479   0.455  0.2309 -0.3281 -1.4903
  800SOL    HW2 2400   0.011   2.634   0.451  1.1990  0.4381 -0.6431
  801SOL     OW 2401   1.715   1.724   0.623 -0.3396  0.2576  0.4838
  801SOL    HW1 2402   1.707   1.748   0.719 -0.6210 -0.0185 -0.5060
  801SOL    HW2 2403   1.633   1.667   0.591 -1.9332  0.9395 -1.0636
  802SOL     OW 2404   0.754   0.471   0.209  0.2895 -0.3765 -0.2419
  802SOL    HW1 2405   0.701   0.534   0.274 -1.3696  0.2397  1.8224
  802SOL    HW2 2406   0.691   0.451   0.131 -0.8278  0.6300 -0.2411
  803SOL     OW 2407   1.132   1.006   2.145  0.5542 -0.3256  0.2887
  803SOL    HW1 2408   1.151   0.920   2.197  0.5472 -0.2800  1.0769
  803SOL    HW2 2409   1.111   1.084   2.202  0.5536  2.0195 -1.2071
  804SOL     OW 2410   1.850   2.036   1.229 -0.4080 -0.1179  0.7317
  804SOL    HW1 2411   1.872   1.966   1.303  1.1709 -0.2927 -1.7043
  804SOL    HW2 2412   1.918   2.108   1.228  0.8529 -1.3604  2.9247
  805SOL     OW 2413   3.048   2.147   2.548 -0.0410  0.5484 -0.2556
  805SOL    HW1 2414   0.009   2.068   2.536 -0.5349  0.2408  1.1982
  805SOL    HW2 2415   3.054   2.216   2.476 -1.5508  0.0983  0.8436
  806SOL     OW 2416   0.521   2.402   0.329  0.1884  0.1610  0.1230
  806SOL    HW1 2417   0.561   2.481   0.283 -1.7643 -0.2734  2.4962
  806SOL    HW2 2418   0.431   2.432   0.372 -0.0174  0.5153  0.6086
  807SOL     OW 2419   2.389   0.945   2.884  0.2706  0.4668 -0.2874
  807SOL    HW1 2420   2.401   0.986   2.976  2.8907  1.7220 -0.8283
  807SOL    HW2 2421   2.301   0.888   2.884  2.1898 -1.7328 -1.4178
  808SOL     OW 2422   1.433   2.269   0.653  0.6918  0.2192  0.7698
  808SOL    HW1 2423   1.466   2.195   0.588  0.8583 -1.5709 -1.4383
  808SOL    HW2 2424   1.493   2.274   0.739  1.6590  0.9809  2.0883
  809SOL     OW 2425   0.312   0.650   0.751 -0.9233 -0.2480  0.4091
  809SOL    HW1 2426   0.317   0.741   0.798  1.0327  0.6692  1.6458
  809SOL    HW2 2427   0.292   0.570   0.812  0.0976 -1.1999 -2.4298
  810SOL     OW 2428   1.412   1.494   0.020 -0.7949 -0.4164  0.8480
  810SOL    HW1 2429   1.406   1.478   3.023 -4.5964 -1.2669 -0.9931
  810SOL    HW2 2430   1.473   1.577   0.042  1.1357 -2.9792 -0.7342
  811SOL     OW 2431   1.180   2.920   1.643 -0.1387 -0.1696  0.1550
  811SOL    HW1 2432   1.231   2.836   1.667  5.0774  1.2351 -2.6581
  811SOL    HW2 2433   1.139   2.923   1.550 -0.6015  0.1265 -1.4559
  812SOL     OW 2434   1.541   3.092   0.872  0.2035  0.0826 -0.5406
  812SOL    HW1 2435   1.459   3.065   0.815 -1.9058 -2.9255 -1.0361
  812SOL    HW2 2436   1.572   3.008   0.924 -0.4664 -1.7714  0.2761
  813SOL     OW 2437   1.450   2.935   2.068 -0.0813 -0.1865 -0.0287
  813SOL    HW1 2438   1.422   2.854   2.121 -0.5723 -1.3447  0.4020
  813SOL    HW2 2439   1.394   3.013   2.095  0.2657 -2.5742  1.4472
  814SOL     OW 2440   1.231   2.968   1.902 -0.1794  0.4582 -0.3135
  814SOL    HW1 2441   1.319   2.932   1.941  2.5743  1.1117 -2.4652
  814SOL    HW2 2442   1.237   2.974   1.797 -1.2405  1.3889  1.1165
  815SOL     OW 2443   0.161   0.071   0.195  0.1173 -0.7089  0.4041
  815SOL    HW1 2444   0.204   0.102   0.280 -0.3482  1.6082  1.6181
  815SOL    HW2 2445   0.186   0.124   0.116 -0.0103  0.4472  0.1962
  816SOL     OW 2446   2.702   1.461   3.004 -0.0569  0.0272 -0.2664
  816SOL    HW1 2447   2.730   1.460   2.906 -2.1957 -1.8320 -0.0491
  816SOL    HW2 2448   2.752   1.396   3.061  1.6551 -0.6906 -1.0075
  817SOL     OW 2449   2.581   2.340   2.507 -0.2726  0.0161 -0.2362
  817SOL    HW1 2450   2.519   2.364   2.585  2.2525  0.2948  0.0570
  817SOL    HW2 2451   2.636   2.262   2.531  1.2410 -0.4783 -0.1485
  818SOL     OW 2452   0.904   1.233   0.438  0.2462  0.5333 -0.3798
  818SOL    HW1 2453   0.979   1.194   0.499  0.4361 -1.1506 -0.5901
  818SOL    HW2 2454   0.817   1.254   0.485 -3.6451 -3.6798  2.7248
  819SOL     OW 2455   1.671   1.248   3.077  0.0598  0.6093  0.0254
  819SOL    HW1 2456   1.673   1.214   2.984  0.1144 -1.5271 -2.0680
  819SOL    HW2 2457   1.710   1.339   3.081  2.5537 -0.6302 -3.1277
  820SOL     OW 2458   0.460   1.402   0.677 -0.7182  0.2003  0.2348
  820SOL    HW1 2459   0.540   1.335   0.682  0.0962 -2.2896  1.0074
  820SOL    HW2 2460   0.482   1.474   0.605  2.1325  1.5547 -1.2988
  821SOL     OW 2461   0.412   0.026   1.432  0.1586  0.2540  0.2931
  821SOL    HW1 2462   0.437   3.069   1.352  1.5882 -0.1679 -0.4805
  821SOL    HW2 2463   0.496   0.049   1.490  1.8666 -0.7685 -0.7955
  822SOL     OW 2464   1.978   1.886   2.626 -0.5068 -0.2252 -0.0240
  822SOL    HW1 2465   1.994   1.973   2.677 -3.8567  1.0364  2.1369
  822SOL    HW2 2466   1.957   1.902   2.526 -1.5864 -0.6988 -2.2988
  823SOL     OW 2467   0.752   0.555   2.314 -0.1582  0.0846  0.5919
  823SOL    HW1 2468   0.796   0.615   2.250 -0.1450 -1.7130 -0.7955
  823SOL    HW2 2469   0.654   0.575   2.322  1.0045  0.7482  1.2661
  824SOL     OW 2470   2.439   2.939   1.444  0.2121  0.0054 -0.3061
  824SOL    HW1 2471   2.351   2.981   1.466 -3.5903  0.6560 -1.0867
  824SOL    HW2 2472   2.498   2.997   1.385  2.4069 -2.0585  0.1520
  825SOL     OW 2473   0.318   1.753   2.518  0.4204  0.1408  0.3033
  825SOL    HW1 2474   0.336   1.747   2.418  1.5227  2.4688 -0.4222
  825SOL    HW2 2475   0.228   1.796   2.539 -0.7638  1.9129 -1.5243
  826SOL     OW 2476   1.630   3.087   0.090 -0.1915 -0.3922  0.0497
  826SOL    HW1 2477   1.633   0.089   0.081  0.3726 -0.3021 -2.3504
  826SOL    HW2 2478   1.642   3.038   0.002 -0.7098  2.3758 -1.6938
  827SOL     OW 2479   3.053   2.042   2.076  0.2878 -0.4409 -0.2997
  827SOL    HW1 2480   3.039   1.974   2.005  0.8688  1.2057  1.6013
  827SOL    HW2 2481   0.018   2.002   2.144 -0.3893 -2.5185  2.3903
  828SOL     OW 2482   0.129   0.289   1.370  0.0208  0.6711  0.2281
  828SOL    HW1 2483   0.217   0.286   1.317 -0.3094 -0.3940  1.4878
  828SOL    HW2 2484   0.061   0.351   1.330  0.2442 -0.2027 -0.8447
  829SOL     OW 2485   1.010   1.676   2.147  0.1535  0.0829  0.2422
  829SOL    HW1 2486   1.074   1.606   2.180 -1.9772 -0.3387 -0.1686
  829SOL    HW2 2487   0.975   1.644   2.055 -0.8252 -0.4202  2.0413
  830SOL     OW 2488   0.888   1.098   1.482  0.6494 -0.0988  0.1237
  830SOL    HW1 2489   0.855   1.096   1.385  0.9002  1.6481  0.6585
  830SOL    HW2 2490   0.845   1.018   1.527 -1.0824 -3.5638  0.3866
  831SOL     OW 2491   2.671   1.898   0.188  0.3161  0.6317  0.3371
  831SOL    HW1 2492   2.669   1.829   0.110 -0.5187 -0.9864 -0.8645
  831SOL    HW2 2493   2.769   1.913   0.215  1.6240 -3.3489  0.5640
  832SOL     OW 2494   1.061   2.238   2.770  0.1161  0.0339 -0.5638
  832SOL    HW1 2495   0.967   2.269   2.799 -0.0319  3.0073  0.4959
  832SOL    HW2 2496   1.057   2.157   2.713  1.4481  3.1590 -1.1255
  833SOL     OW 2497   0.232   0.377   1.601  0.1641  0.7248 -0.0134
  833SOL    HW1 2498   0.175   0.459   1.623  1.9238 -1.0086  0.2356
  833SOL    HW2 2499   0.186   0.327   1.523  1.0326  2.1176 -0.2861
  834SOL     OW 2500   2.930   0.856   1.097 -0.9762 -0.3367  0.2229
  834SOL    HW1 2501   2.982   0.857   1.182 -5.1570 -4.0024  0.1415
  834SOL    HW2 2502   2.830   0.858   1.119  2.1284 -2.7008  0.5852
  835SOL     OW 2503   2.751   0.551   0.492  0.2851 -0.4239  0.5762
  835SOL    HW1 2504   2.827   0.537   0.555 -1.4900  0.1950  1.9836
  835SOL    HW2 2505   2.697   0.465   0.478  2.0689 -1.8510  0.6542
  836SOL     OW 2506   0.476   2.131   2.956 -0.4615 -0.1190  0.0482
  836SOL    HW1 2507   0.408   2.059   2.983 -2.3799 -0.8788  0.7268
  836SOL    HW2 2508   0.474   2.154   2.854  0.0049 -1.4416 -3.0049
  837SOL     OW 2509   1.415   1.868   0.345 -0.5215 -0.0096  0.1366
  837SOL    HW1 2510   1.464   1.828   0.263 -0.5387  2.0261  2.3720
  837SOL    HW2 2511   1.344   1.806   0.378  3.2055 -2.0159  1.3358
  838SOL     OW 2512   2.207   1.047   2.254 -0.2026 -0.1956  0.0892
  838SOL    HW1 2513   2.295   1.051   2.205 -4.8356  2.5665  2.7002
  838SOL    HW2 2514   2.130   1.045   2.185 -0.2157  2.4554 -1.8079
  839SOL     OW 2515   1.224   1.215   2.606 -0.2435 -0.0945  0.0361
  839SOL    HW1 2516   1.134   1.215   2.646  2.2097  0.4024 -0.2712
  839SOL    HW2 2517   1.245   1.124   2.560 -1.3849 -0.3638  1.7817
  840SOL     OW 2518   0.800   0.895   0.096  0.0716  0.4454 -0.1400
  840SOL    HW1 2519   0.746   0.815   0.068  0.2561 -1.2217  0.2979
  840SOL    HW2 2520   0.750   0.983   0.109 -0.1886  0.8243  0.2119
  841SOL     OW 2521   1.131   2.143   0.068 -0.0437  0.0267 -0.1628
  841SOL    HW1 2522   1.150   2.241   0.084  2.1156 -0.6428 -3.6219
  841SOL    HW2 2523   1.031   2.119   0.064 -1.8203  1.8025  0.1763
  842SOL     OW 2524   0.432   0.520   0.520  0.0305 -0.1211 -0.0254
  842SOL    HW1 2525   0.391   0.578   0.599 -0.7960 -1.0767  1.0481
  842SOL    HW2 2526   0.473   0.435   0.557  4.8580  0.4687 -1.2697
  843SOL     OW 2527   0.546   0.867   1.128  0.5672  0.1911  0.0887
  843SOL    HW1 2528   0.485   0.949   1.118  0.8750 -1.7901 -1.9924
  843SOL    HW2 2529   0.495   0.777   1.141 -0.9869  0.2513 -2.7815
  844SOL     OW 2530   2.117   2.471   2.759  0.1667  0.3698  0.0032
  844SOL    HW1 2531   2.198   2.509   2.708  1.4228  1.0091  1.3928
  844SOL    HW2 2532   2.037   2.475   2.691 -0.0171  1.3309  0.5168
  845SOL     OW 2533   2.562   2.996   1.908  0.2390 -0.4120 -0.1826
  845SOL    HW1 2534   2.659   2.987   1.939  0.2801  0.4543 -0.0990
  845SOL    HW2 2535   2.504   2.926   1.953  1.6385 -1.6913  0.2714
  846SOL     OW 2536   1.645   0.976   2.539 -0.0855 -0.5208  0.0975
  846SOL    HW1 2537   1.667   0.983   2.440 -0.9728 -0.0797  1.3249
  846SOL    HW2 2538   1.609   1.054   2.579  1.6519 -3.3492 -3.3356
  847SOL     OW 2539   3.088   0.594   1.698  0.2233 -0.1555  0.4152
  847SOL    HW1 2540   0.002   0.676   1.755 -2.3015  2.6400  0.0993
  847SOL    HW2 2541   3.048   0.517   1.754  1.6535 -1.7337  0.5850
  848SOL     OW 2542   2.614   2.804   0.136  0.3608 -0.0601  1.2158
  848SOL    HW1 2543   2.709   2.773   0.158  1.0174 -0.3542  0.9881
  848SOL    HW2 2544   2.547   2.749   0.195  0.1088 -1.1299  1.4031
  849SOL     OW 2545   0.477   2.773   0.929  0.1796  0.1965  0.0851
  849SOL    HW1 2546   0.495   2.702   0.999  0.5369 -0.8951 -1.4837
  849SOL    HW2 2547   0.377   2.799   0.926  1.4182 -1.0330 -0.0967
  850SOL     OW 2548   0.588   2.154   0.419 -1.0427  0.2574  0.6656
  850SOL    HW1 2549   0.564   2.241   0.369  0.1305 -0.0771  0.3374
  850SOL    HW2 2550   0.669   2.107   0.376 -0.9253  0.7639 -0.2168
  851SOL     OW 2551   2.320   0.450   2.859 -0.0341 -0.0439  0.1668
  851SOL    HW1 2552   2.241   0.494   2.810 -2.1228  1.3488 -2.5835
  851SOL    HW2 2553   2.351   0.372   2.806 -0.4415  1.1478  3.8111
  852SOL     OW 2554   1.665   2.385   2.557 -0.3711 -0.2180 -0.0106
  852SOL    HW1 2555   1.681   2.287   2.578  1.6504 -0.8832 -0.2886
  852SOL    HW2 2556   1.688   2.407   2.456  0.5513  0.2379 -1.2221
  853SOL     OW 2557   3.075   2.352   0.347  0.2514  0.2510 -0.4996
  853SOL    HW1 2558   0.028   2.388   0.265 -0.2467  0.3554 -1.9396
  853SOL    HW2 2559   0.021   2.275   0.396  0.0088  1.3372  1.1139
  854SOL     OW 2560   1.128   0.728   2.187  0.0225 -0.2274  0.1125
  854SOL    HW1 2561   1.198   0.708   2.112 -0.8335  1.3262 -1.5715
  854SOL    HW2 2562   1.167   0.704   2.276 -0.0665  0.6441 -3.0975
  855SOL     OW 2563   0.143   2.655   0.730  0.3177 -0.1948  0.0169
  855SOL    HW1 2564   0.118   2.561   0.723  0.2119 -0.3544 -1.2230
  855SOL    HW2 2565   0.153   2.700   0.635  1.7838  0.1529 -0.8249
  856SOL     OW 2566   0.405   2.985   2.507 -0.3400 -0.3289  0.4036
  856SOL    HW1 2567   0.383   2.886   2.499  0.8153  1.6682 -0.4356
  856SOL    HW2 2568   0.502   3.007   2.481 -0.2478  1.6784  2.3677
  857SOL     OW 2569   1.210   0.301   1.660 -0.9232 -1.1472 -0.5012
  857SOL    HW1 2570   1.223   0.359   1.743 -1.3557 -2.9869 -0.4349
  857SOL    HW2 2571   1.127   0.336   1.612  1.1499  2.2726  1.4076
  858SOL     OW 2572   3.054   2.066   1.772  0.0279  0.3519 -0.1104
  858SOL    HW1 2573   3.013   2.157   1.756  1.7128 -1.0051 -2.0243
  858SOL    HW2 2574   0.051   2.083   1.765 -1.5576  0.2267  0.7678
  859SOL     OW 2575   1.953   2.871   1.781 -0.0698 -0.0443  0.1925
  859SOL    HW1 2576   2.055   2.859   1.765  1.0310  1.8051 -0.6273
  859SOL    HW2 2577   1.894   2.840   1.703 -1.5900 -0.5445 -1.9428
  860SOL     OW 2578   1.807   0.109   0.730  0.3233  0.0656  0.7501
  860SOL    HW1 2579   1.722   0.064   0.772 -2.6413 -1.8009  0.6405
  860SOL    HW2 2580   1.873   0.041   0.690  2.6837 -1.6808  0.8443
  861SOL     OW 2581   2.895   0.897   0.755  0.1371 -0.3855  0.1161
  861SOL    HW1 2582   2.975   0.837   0.771 -2.0511  0.7683 -2.0811
  861SOL    HW2 2583   2.910   0.986   0.799  1.5835 -0.9600  0.1544
  862SOL     OW 2584   1.857   0.818   1.838 -0.0795 -0.0362  0.2024
  862SOL    HW1 2585   1.857   0.718   1.809  0.6415 -1.0848  2.2009
  862SOL    HW2 2586   1.897   0.876   1.765 -1.0146  3.2535  0.6023
  863SOL     OW 2587   0.771   0.747   0.978  0.1929 -0.4412 -0.1301
  863SOL    HW1 2588   0.678   0.765   1.015 -1.9985 -2.6528 -1.1247
  863SOL    HW2 2589   0.831   0.739   1.057 -1.3997 -1.6044 -2.4307
  864SOL     OW 2590   2.804   3.003   2.090 -0.3862 -0.6753 -0.0614
  864SOL    HW1 2591   2.787   2.934   2.160  1.2024  2.6328 -0.4636
  864SOL    HW2 2592   2.782   3.093   2.132  0.8997 -1.3239 -3.6860
  865SOL     OW 2593   1.223   0.631   2.445 -0.4072  0.1753  0.0860
  865SOL    HW1 2594   1.240   0.678   2.530 -1.2418  0.0884 -0.7990
  865SOL    HW2 2595   1.264   0.539   2.446  0.0078 -1.9633  0.2812
  866SOL     OW 2596   2.350   2.442   0.609 -0.0569 -0.2020  0.6019
  866SOL    HW1 2597   2.381   2.533   0.635  2.3509  0.0861  1.4481
  866SOL    HW2 2598   2.389   2.366   0.668 -1.3010  1.6784 -0.7555
  867SOL     OW 2599   2.663   2.825   0.501  0.0237  0.6478 -0.8001
  867SOL    HW1 2600   2.687   2.723   0.499 -0.4069 -2.8221  0.4457
  867SOL    HW2 2601   2.663   2.878   0.414 -1.0624 -1.3287 -0.0683
  868SOL     OW 2602   1.786   0.803   2.991 -0.2678  0.1500  0.4966
  868SOL    HW1 2603   1.730   0.815   2.904 -5.3208 -1.1969  0.0075
  868SOL    HW2 2604   1.769   0.878   3.060 -2.6143 -2.0534 -1.1965
  869SOL     OW 2605   2.709   2.338   0.666 -0.3661 -0.2998 -0.1735
  869SOL    HW1 2606   2.783   2.359   0.734  0.2851  0.5986 -0.2086
  869SOL    HW2 2607   2.621   2.307   0.712 -0.2090  1.6888 -2.0614
  870SOL     OW 2608   2.167   1.998   0.389  0.3807  0.0780  0.0098
  870SOL    HW1 2609   2.085   1.946   0.432 -0.1266  0.5522  1.7732
  870SOL    HW2 2610   2.249   1.940   0.369  0.1222  1.8975  1.3688
  871SOL     OW 2611   0.843   1.213   1.150 -0.2068  0.0311 -0.5782
  871SOL    HW1 2612   0.885   1.179   1.064  1.3826  2.0080  0.8485
  871SOL    HW2 2613   0.773   1.151   1.191  1.9255 -0.2149  1.5517
  872SOL     OW 2614   1.173   2.107   2.353 -0.9161 -0.4420  0.4064
  872SOL    HW1 2615   1.213   2.198   2.362  3.1068  0.2605  0.7949
  872SOL    HW2 2616   1.104   2.112   2.273  0.3142  1.0666 -1.5547
  873SOL     OW 2617   0.618   2.435   2.076 -0.4170 -0.4983  0.8652
  873SOL    HW1 2618   0.615   2.526   2.116 -1.3349  2.7958  0.6045
  873SOL    HW2 2619   0.524   2.394   2.081  0.3557  1.9745 -0.5676
  874SOL     OW 2620   0.710   0.285   1.065  0.6080 -0.0358 -0.4152
  874SOL    HW1 2621   0.785   0.334   1.014  0.8119 -0.3551  0.5371
  874SOL    HW2 2622   0.731   0.272   1.164  1.7724 -0.9830  0.8092
  875SOL     OW 2623   2.979   0.421   1.251 -0.5375 -0.2751 -0.2918
  875SOL    HW1 2624   2.992   0.500   1.312  1.1104 -0.9501 -2.3006
  875SOL    HW2 2625   2.895   0.366   1.271  1.5506 -1.9685 -3.1353
  876SOL     OW 2626   0.512   0.747   0.117 -0.1184 -0.3443 -0.1904
  876SOL    HW1 2627   0.545   0.705   0.208  0.4920 -2.3096  2.1521
  876SOL    HW2 2628   0.412   0.741   0.115 -2.5770  1.3246 -0.7127
  877SOL     OW 2629   1.147   0.628   1.500 -0.1730 -0.5952  0.0203
  877SOL    HW1 2630   1.187   0.573   1.421 -0.6173  0.3551 -0.4197
  877SOL    HW2 2631   1.149   0.729   1.480  0.5151  0.5088 -0.6971
  878SOL     OW 2632   1.830   2.458   0.277 -0.0322 -0.2331 -0.2097
  878SOL    HW1 2633   1.857   2.558   0.272  0.4203 -2.1429 -1.5648
  878SOL    HW2 2634   1.821   2.428   0.376  0.3634 -0.8731  3.0042
  879SOL     OW 2635   2.662   1.374   1.410 -0.1595 -0.1198  0.3266
  879SOL    HW1 2636   2.710   1.302   1.461  0.3694  0.7329 -0.8293
  879SOL    HW2 2637   2.644   1.346   1.311 -0.7320 -0.4149 -2.2063
  880SOL     OW 2638   1.349   2.517   0.619  0.2368  0.6859 -0.3609
  880SOL    HW1 2639   1.375   2.422   0.641  1.2636  1.6645  3.2179
  880SOL    HW2 2640   1.336   2.528   0.519 -1.4848  0.8056  2.9035
  881SOL     OW 2641   0.788   1.988   0.316  0.4120 -0.5524  0.4900
  881SOL    HW1 2642   0.870   1.987   0.375  2.9049 -0.9266  0.6656
  881SOL    HW2 2643   0.799   1.923   0.237 -1.6105  0.4324 -2.2303
  882SOL     OW 2644   1.876   0.799   1.152  0.0975  0.1527 -0.2662
  882SOL    HW1 2645   1.891   0.784   1.053 -3.0156  3.3802  2.6014
  882SOL    HW2 2646   1.802   0.729   1.184 -1.4785  1.8779  0.3140
  883SOL     OW 2647   1.620   1.058   1.681  0.0210  0.4197 -0.0567
  883SOL    HW1 2648   1.645   0.964   1.651  2.6178  4.0937  1.5754
  883SOL    HW2 2649   1.627   1.070   1.783  2.6345  0.3263 -1.1909
  884SOL     OW 2650   2.931   0.564   0.288  0.1487 -0.4465 -0.1996
  884SOL    HW1 2651   2.857   0.560   0.362 -2.0407 -1.5684 -1.8019
  884SOL    HW2 2652   3.012   0.511   0.314 -0.2498 -1.0287  0.0350
  885SOL     OW 2653   1.390   1.493   2.858  0.4503 -0.2987 -0.6638
  885SOL    HW1 2654   1.456   1.459   2.784 -1.5445 -2.1734 -1.2815
  885SOL    HW2 2655   1.292   1.483   2.832 -0.3961  1.9780  1.3724
  886SOL     OW 2656   1.449   1.794   2.586 -0.5384  0.0920  0.2225
  886SOL    HW1 2657   1.426   1.895   2.565  0.5661  3.2505 -0.7534
  886SOL    HW2 2658   1.540   1.785   2.633  0.1246  0.7300  0.1692
  887SOL     OW 2659   1.371   0.186   1.217  0.2900 -0.4053 -0.3846
  887SOL    HW1 2660   1.468   0.158   1.205 -1.3889  0.3211 -2.3815
  887SOL    HW2 2661   1.356   0.215   1.311 -0.7637  1.8393  0.7201
  888SOL     OW 2662   2.427   0.780   1.464  0.9229  0.0464 -0.1801
  888SOL    HW1 2663   2.502   0.721   1.427  3.0763  0.8782 -0.2391
  888SOL    HW2 2664   2.339   0.738   1.433 -1.7425 -3.5122  0.7945
  889SOL     OW 2665   3.026   2.774   0.991 -0.1401  0.5044 -0.1861
  889SOL    HW1 2666   3.010   2.766   0.893 -2.2914 -0.9811 -1.9647
  889SOL    HW2 2667   2.963   2.716   1.050 -1.1570 -0.7539  2.2314
  890SOL     OW 2668   1.773   2.114   0.434 -0.0297  0.1527  0.2787
  890SOL    HW1 2669   1.779   2.099   0.331  0.4739 -0.9707 -0.0415
  890SOL    HW2 2670   1.846   2.171   0.464 -0.6931  0.5734  0.2589
  891SOL     OW 2671   0.600   1.110   2.711  0.0171 -0.5130  0.2862
  891SOL    HW1 2672   0.504   1.106   2.673  2.8036  1.2360 -1.4791
  891SOL    HW2 2673   0.659   1.151   2.640  2.6210  0.2579 -3.7608
  892SOL     OW 2674   3.100   0.074   1.458 -0.0054  0.3710 -0.7025
  892SOL    HW1 2675   0.052   0.148   1.413  2.4305 -1.7149 -2.3987
  892SOL    HW2 2676   3.026   0.050   1.395  2.3519  1.0292 -0.6350
  893SOL     OW 2677   1.307   2.928   1.055  0.4723 -0.1882 -0.4336
  893SOL    HW1 2678   1.407   2.915   1.037 -0.0808  1.8399  0.8009
  893SOL    HW2 2679   1.274   3.027   1.038 -0.2493  2.3690 -0.7681
  894SOL     OW 2680   2.660   0.684   0.775 -0.3292  0.1037 -0.3690
  894SOL    HW1 2681   2.670   0.584   0.777  0.2015 -0.0121  1.0012
  894SOL    HW2 2682   2.744   0.726   0.731  1.8162  1.1579  0.2707
  895SOL     OW 2683   1.841   1.493   2.420  0.6285 -0.3330 -0.6365
  895SOL    HW1 2684   1.881   1.454   2.504 -1.6418  2.4023 -2.6842
  895SOL    HW2 2685   1.915   1.525   2.359 -0.4516 -0.0350  0.8783
  896SOL     OW 2686   1.556   0.524   1.690  0.3236  0.3069 -0.0574
  896SOL    HW1 2687   1.476   0.591   1.708 -3.1063  0.4289  1.7127
  896SOL    HW2 2688   1.530   0.462   1.613  1.6773 -1.5043 -0.8413
  897SOL     OW 2689   0.714   1.376   1.998  0.1918  0.7275  0.2746
  897SOL    HW1 2690   0.775   1.315   1.945  0.2852 -1.1459 -2.2556
  897SOL    HW2 2691   0.746   1.468   1.990 -0.0296 -0.0861 -0.3101
  898SOL     OW 2692   2.249   2.438   2.194  0.1766 -0.6604  0.0217
  898SOL    HW1 2693   2.244   2.397   2.102  0.0574 -1.6899 -0.5152
  898SOL    HW2 2694   2.322   2.385   2.240 -0.8392 -1.0497  1.8921
  899SOL     OW 2695   1.236   1.449   1.685  0.7433  0.1131  0.1384
  899SOL    HW1 2696   1.179   1.368   1.656  0.7225 -2.0354 -3.5734
  899SOL    HW2 2697   1.210   1.522   1.614 -3.2511  1.8913 -0.3171
  900SOL     OW 2698   1.114   2.004   2.604 -0.0230  0.2781  0.3337
  900SOL    HW1 2699   1.123   1.903   2.624  0.2178 -0.5907 -1.1910
  900SOL    HW2 2700   1.080   2.023   2.509 -1.8922  1.5624  0.5450
  901SOL     OW 2701   0.466   1.994   2.399 -0.4714  1.0903 -0.3028
  901SOL    HW1 2702   0.412   1.932   2.341  0.0394  0.3918 -0.2266
  901SOL    HW2 2703   0.431   2.087   2.396 -2.2047 -0.2398 -0.7582
  902SOL     OW 2704   1.937   1.822   0.247 -0.2315 -0.5753 -0.1478
  902SOL    HW1 2705   1.848   1.775   0.214 -0.4596 -1.8132  0.0680
  902SOL    HW2 2706   2.016   1.758   0.235  0.4479 -0.5664 -1.1227
  903SOL     OW 2707   1.816   1.428   0.222 -0.7319 -0.1962  0.1902
  903SOL    HW1 2708   1.826   1.473   0.132 -0.4937  0.6649 -1.5495
  903SOL    HW2 2709   1.909   1.391   0.252  1.6693  0.1829  1.7047
  904SOL     OW 2710   0.955   0.837   2.730 -0.1998  0.1392 -0.1471
  904SOL    HW1 2711   0.980   0.737   2.717 -0.8990  0.4971  1.8546
  904SOL    HW2 2712   1.030   0.889   2.771 -0.1256  0.7946 -1.0004
  905SOL     OW 2713   2.715   0.452   1.071 -0.7021  0.0790 -0.1766
  905SOL    HW1 2714   2.623   0.417   1.036 -2.5985 -2.9499  0.0821
  905SOL    HW2 2715   2.764   0.377   1.120 -2.0467 -1.7917  0.4680
  906SOL     OW 2716   2.724   2.082   0.523 -0.2614 -0.5425 -0.2789
  906SOL    HW1 2717   2.759   2.018   0.599  1.4521 -0.8788  1.2336
  906SOL    HW2 2718   2.746   2.180   0.542  0.4303 -1.6322 -0.3230
  907SOL     OW 2719   1.560   0.477   0.442 -0.3373  0.2308  0.0187
  907SOL    HW1 2720   1.595   0.402   0.501  0.3876  3.3158 -0.6597
  907SOL    HW2 2721   1.511   0.445   0.359 -0.2222  0.1769 -4.1735
  908SOL     OW 2722   1.928   0.117   1.597  0.1096  0.0238  0.0306
  908SOL    HW1 2723   1.897   0.031   1.546 -0.6955 -3.3246 -1.2710
  908SOL    HW2 2724   1.952   0.093   1.697  0.0619 -0.8480  2.9089
  909SOL     OW 2725   2.334   0.625   1.155  0.1809 -0.2752  0.1090
  909SOL    HW1 2726   2.427   0.583   1.157 -3.1092 -1.9854  2.0957
  909SOL    HW2 2727   2.334   0.730   1.148 -0.8022  1.5022  1.0487
  910SOL     OW 2728   1.094   2.782   2.335  0.0309 -0.4120 -0.0749
  910SOL    HW1 2729   1.083   2.804   2.434  1.9187  0.4069 -0.5495
  910SOL    HW2 2730   1.015   2.731   2.304  2.8189  0.3919 -2.9533
  911SOL     OW 2731   2.307   0.808   1.719  0.9030  0.4345  0.0959
  911SOL    HW1 2732   2.348   0.813   1.627 -1.3194  0.4689 -0.1194
  911SOL    HW2 2733   2.210   0.832   1.720  0.9206 -2.8610  0.6316
  912SOL     OW 2734   2.785   2.024   1.482  0.2683 -0.7110  0.0835
  912SOL    HW1 2735   2.727   2.066   1.410 -2.4309 -1.3353  2.5865
  912SOL    HW2 2736   2.742   2.030   1.573  1.6263 -0.3879  0.2780
  913SOL     OW 2737   2.653   2.142   1.281  0.0947 -0.9048 -0.1289
  913SOL    HW1 2738   2.555   2.115   1.286 -0.2914  2.7091 -1.2125
  913SOL    HW2 2739   2.683   2.154   1.187 -1.5518 -0.3514 -0.5114
  914SOL     OW 2740   1.984   1.619   1.441 -0.3511 -0.3758  0.2514
  914SOL    HW1 2741   2.080   1.596   1.420  0.3384 -0.1062 -0.6048
  914SOL    HW2 2742   1.957   1.595   1.535  2.1142  2.4912 -2.5900
  915SOL     OW 2743   1.217   1.620   1.475  0.5014  0.7724 -0.1800
  915SOL    HW1 2744   1.189   1.719   1.481  0.4815  1.0088 -2.4443
  915SOL    HW2 2745   1.145   1.566   1.422  0.3749  0.0808 -1.4486
  916SOL     OW 2746   2.521   2.716   1.581 -0.0921 -0.3390  0.3945
  916SOL    HW1 2747   2.514   2.796   1.518  2.9043 -0.1154  0.7821
  916SOL    HW2 2748   2.440   2.698   1.634 -1.3552  0.2247  0.7506
  917SOL     OW 2749   2.673   1.723   3.073 -0.3700  0.1683  0.0290
  917SOL    HW1 2750   2.639   1.744   2.982 -0.7830 -1.8827  0.1022
  917SOL    HW2 2751   2.700   1.626   3.066  1.1006  1.0011 -1.0611
  918SOL     OW 2752   1.684   2.375   2.276 -1.0454  0.6799 -0.4106
  918SOL    HW1 2753   1.661   2.474   2.289 -0.3361 -3.4365 -0.6366
  918SOL    HW2 2754   1.783   2.358   2.264 -1.7859 -1.4346 -1.6313
  919SOL     OW 2755   1.271   2.332   1.758  0.5997  0.4313 -0.5081
  919SOL    HW1 2756   1.357   2.331   1.708  1.9695 -0.6951  0.9680
  919SOL    HW2 2757   1.205   2.280   1.696 -1.7679 -0.9517 -1.4669
  920SOL     OW 2758   2.985   0.230   2.821 -0.1936 -0.8084 -0.8400
  920SOL    HW1 2759   3.032   0.310   2.773  0.9288  3.4051  0.4429
  920SOL    HW2 2760   2.956   0.251   2.922 -1.2790  0.2546  3.7023
  921SOL     OW 2761   2.796   0.202   2.292  0.1482  0.4762  0.0333
  921SOL    HW1 2762   2.803   0.240   2.388 -0.1512  2.7034  0.8616
  921SOL    HW2 2763   2.700   0.164   2.280 -1.7829  0.2983  1.4740
  922SOL     OW 2764   2.297   2.076   0.660 -0.5672  0.7197  0.0767
  922SOL    HW1 2765   2.320   2.108   0.567  0.9207  0.1067 -1.7983
  922SOL    HW2 2766   2.256   1.982   0.659  2.0307  0.4249  0.6607
  923SOL     OW 2767   0.304   1.779   0.285  0.5349 -0.2414  0.2287
  923SOL    HW1 2768   0.304   1.783   0.184 -2.8786 -0.3276 -0.8509
  923SOL    HW2 2769   0.399   1.775   0.322 -0.2921  1.3666  3.2210
  924SOL     OW 2770   1.340   0.339   2.922 -0.2755 -0.4786 -0.6867
  924SOL    HW1 2771   1.304   0.344   3.016 -1.4571 -0.4391 -1.7287
  924SOL    HW2 2772   1.389   0.252   2.904  1.2161  0.4675 -1.2817
  925SOL     OW 2773   2.512   1.032   0.844 -0.1334  0.9495  0.1713
  925SOL    HW1 2774   2.503   1.134   0.824 -1.0261  1.6850  0.8150
  925SOL    HW2 2775   2.570   0.997   0.764  2.0623  0.4645  1.0838
  926SOL     OW 2776   2.794   1.155   1.065 -0.3586  0.1530  1.4345
  926SOL    HW1 2777   2.750   1.060   1.080  0.2118 -2.7054  0.8692
  926SOL    HW2 2778   2.840   1.172   0.970  4.2119  1.3873  0.0700
  927SOL     OW 2779   0.532   1.280   0.312  0.2695 -0.0717  0.4530
  927SOL    HW1 2780   0.437   1.245   0.347 -0.3607  0.9436  0.1450
  927SOL    HW2 2781   0.568   1.221   0.240 -0.3774 -1.3063  1.2589
  928SOL     OW 2782   0.059   0.457   2.329 -0.1476 -0.0238  0.0411
  928SOL    HW1 2783   0.073   0.498   2.236  0.5628 -0.8174 -0.6318
  928SOL    HW2 2784   0.143   0.398   2.352  1.1916 -1.8510 -0.7253
  929SOL     OW 2785   2.875   3.100   1.303 -0.5358 -0.6815 -0.1621
  929SOL    HW1 2786   2.843   3.076   1.211  2.8618  2.3543  2.3480
  929SOL    HW2 2787   2.828   0.076   1.340  0.7134 -1.8647  1.8263
  930SOL     OW 2788   1.945   1.885   1.428  0.4938 -0.2966 -0.6499
  930SOL    HW1 2789   1.961   1.783   1.443 -0.3708 -1.4024  0.1092
  930SOL    HW2 2790   1.916   1.938   1.513 -0.8450 -3.1760  1.8653
  931SOL     OW 2791   1.630   1.437   0.755  0.8427  0.3386  0.4932
  931SOL    HW1 2792   1.588   1.478   0.839 -3.6530  0.3963 -0.2500
  931SOL    HW2 2793   1.579   1.468   0.672  1.9754 -0.8429  0.8219
  932SOL     OW 2794   2.933   1.185   1.308 -0.0836 -0.0515 -0.4442
  932SOL    HW1 2795   2.863   1.143   1.372  1.5061 -0.3112 -2.2286
  932SOL    HW2 2796   2.893   1.202   1.214  2.5153 -0.5581 -1.3030
  933SOL     OW 2797   2.434   1.423   1.561 -0.7746 -0.1675  0.0483
  933SOL    HW1 2798   2.448   1.417   1.662 -0.2275 -0.4143 -2.5229
  933SOL    HW2 2799   2.517   1.402   1.499  3.9102 -0.4456  0.4898
  934SOL     OW 2800   1.636   0.107   1.121  0.0611 -0.0324 -0.2090
  934SOL    HW1 2801   1.608   0.066   1.035 -0.5190  0.5134  2.5445
  934SOL    HW2 2802   1.709   0.050   1.167  0.5108  0.2895 -2.9004
  935SOL     OW 2803   0.357   1.615   1.007 -0.1656 -0.1879  0.3422
  935SOL    HW1 2804   0.427   1.543   1.031  0.4740 -1.5107 -3.6334
  935SOL    HW2 2805   0.337   1.673   1.083  0.1555 -3.1653 -2.5918
  936SOL     OW 2806   3.094   1.314   0.695 -0.1683  0.7499 -0.3086
  936SOL    HW1 2807   3.058   1.365   0.608 -0.1543 -0.4414 -1.7403
  936SOL    HW2 2808   0.069   1.360   0.742 -0.9212  1.9780 -0.1464
  937SOL     OW 2809   1.670   2.554   0.957 -0.4230 -0.2507 -0.2701
  937SOL    HW1 2810   1.588   2.530   1.017 -1.1007 -1.1113  1.6797
  937SOL    HW2 2811   1.650   2.553   0.862  0.9239  0.8999 -0.4021
  938SOL     OW 2812   2.504   2.518   1.050 -0.7384 -0.0471 -0.4267
  938SOL    HW1 2813   2.478   2.595   0.991  1.9005  0.4096  0.3745
  938SOL    HW2 2814   2.431   2.449   1.042  1.5350  1.3387  0.7571
  939SOL     OW 2815   0.320   2.275   0.056  0.7691  0.3476 -0.0543
  939SOL    HW1 2816   0.391   2.234   0.005 -3.0846  1.8255 -0.7496
  939SOL    HW2 2817   0.268   2.209   0.115  2.2278  0.7273  1.8174
  940SOL     OW 2818   2.978   2.912   3.069  0.1276 -0.1806  0.2903
  940SOL    HW1 2819   2.936   2.827   3.093  2.1926  3.5855 -1.5297
  940SOL    HW2 2820   3.075   2.898   3.039 -0.8779  0.1627 -1.4603
  941SOL     OW 2821   0.879   2.881   3.094 -0.3842 -0.2729 -0.0161
  941SOL    HW1 2822   0.909   2.787   3.061  0.7275  3.9246  2.8928
  941SOL    HW2 2823   0.850   2.874   0.090 -1.7847  0.9918 -1.3500
  942SOL     OW 2824   1.444   1.941   1.417 -0.4910 -0.1236 -0.0144
  942SOL    HW1 2825   1.518   2.003   1.457  1.3634 -0.3395  1.4434
  942SOL    HW2 2826   1.466   1.845   1.439  1.5370  2.0739  1.3223
  943SOL     OW 2827   2.130   1.168   1.396 -0.4974  0.4669  0.4348
  943SOL    HW1 2828   2.038   1.212   1.389 -1.2138 -1.8282  0.6298
  943SOL    HW2 2829   2.120   1.066   1.397  2.2382  1.1797  0.2182
  944SOL     OW 2830   2.031   0.878   1.350  0.0651 -0.0279 -0.1528
  944SOL    HW1 2831   1.971   0.851   1.269 -2.0406 -0.7572 -1.5801
  944SOL    HW2 2832   2.067   0.789   1.377 -1.7861 -0.3490  3.5908
  945SOL     OW 2833   0.009   3.038   1.026 -0.6496 -0.2993  0.0386
  945SOL    HW1 2834   3.095   2.944   0.989  2.0290 -1.5356 -0.4440
  945SOL    HW2 2835   3.021   3.081   1.054  0.7720  0.4746  0.1964
  946SOL     OW 2836   0.556   0.611   1.411 -0.2347  0.0169  0.4059
  946SOL    HW1 2837   0.523   0.544   1.478  1.1399  3.4301 -0.1346
  946SOL    HW2 2838   0.503   0.601   1.323  0.2384 -0.1463 -0.6286
  947SOL     OW 2839   0.488   2.656   0.690 -0.4693 -0.3719 -0.2705
  947SOL    HW1 2840   0.471   2.721   0.613 -1.3604 -1.6584  0.4501
  947SOL    HW2 2841   0.488   2.700   0.783  0.0301 -1.1625  0.2866
  948SOL     OW 2842   3.050   1.500   1.769  0.3157  0.2321 -0.6354
  948SOL    HW1 2843   3.055   1.599   1.755  3.2206 -0.5970  1.2786
  948SOL    HW2 2844   3.097   1.454   1.689  1.4362 -1.2610  0.6830
  949SOL     OW 2845   0.526   0.905   2.411 -0.7524 -0.6186  0.1631
  949SOL    HW1 2846   0.619   0.885   2.374  2.6802  0.2233 -1.5371
  949SOL    HW2 2847   0.477   0.820   2.448 -0.0335 -2.0538 -0.3803
  950SOL     OW 2848   1.081   0.471   1.070  0.5774 -0.3310 -0.3070
  950SOL    HW1 2849   1.074   0.558   1.119 -0.0543  0.2108  1.3957
  950SOL    HW2 2850   1.150   0.471   0.995 -2.0702  0.5276  1.0201
  951SOL     OW 2851   1.009   2.146   2.123  0.0634  0.1906 -0.2530
  951SOL    HW1 2852   1.036   2.177   2.028 -0.0363 -0.4669 -0.3761
  951SOL    HW2 2853   0.911   2.166   2.134  0.0965 -1.2290  0.6874
  952SOL     OW 2854   0.443   1.724   2.874  0.2448  0.0062  0.2927
  952SOL    HW1 2855   0.533   1.752   2.889 -2.3763  0.6856 -0.0459
  952SOL    HW2 2856   0.419   1.646   2.938  0.0848  1.4157 -2.0352
  953SOL     OW 2857   1.841   3.089   2.227 -0.1962 -0.2001 -0.3201
  953SOL    HW1 2858   1.920   3.075   2.292  1.9876 -2.4631  0.6973
  953SOL    HW2 2859   1.867   0.046   2.151  0.5125 -3.0961  1.1535
  954SOL     OW 2860   1.644   1.144   0.751  0.0354  0.5542 -0.2053
  954SOL    HW1 2861   1.667   1.133   0.653 -1.0786 -1.7692  0.7508
  954SOL    HW2 2862   1.658   1.239   0.780 -0.7716 -2.0725  0.0656
  955SOL     OW 2863   0.369   2.351   2.140  0.4154  0.4422  0.4902
  955SOL    HW1 2864   0.369   2.265   2.081  0.3333 -0.9900 -1.7550
  955SOL    HW2 2865   0.342   2.435   2.084  2.6730  1.7144  1.9257
  956SOL     OW 2866   1.671   0.808   1.581 -0.0542 -0.5969  0.0154
  956SOL    HW1 2867   1.623   0.779   1.493  0.5080 -1.3031 -0.1895
  956SOL    HW2 2868   1.697   0.727   1.634 -2.2631  0.3417 -1.7553
  957SOL     OW 2869   2.099   1.666   2.739  0.2438 -0.4376  0.1642
  957SOL    HW1 2870   2.155   1.644   2.653  2.6019 -0.8436  1.5710
  957SOL    HW2 2871   2.042   1.750   2.722 -1.8661  3.4466 -0.7280
  958SOL     OW 2872   1.045   2.492   0.948 -0.4077  0.1733 -0.4624
  958SOL    HW1 2873   0.975   2.566   0.964  0.0090  2.4951 -1.6376
  958SOL    HW2 2874   1.063   2.445   1.038  1.0926  0.5644  1.0093
  959SOL     OW 2875   1.661   2.103   2.582  0.4184 -0.1862  0.0488
  959SOL    HW1 2876   1.558   2.115   2.575 -1.1635 -4.5096  1.7820
  959SOL    HW2 2877   1.703   2.069   2.493 -1.3234 -2.4866 -0.4105
  960SOL     OW 2878   0.191   0.282   2.986 -0.2445 -0.2089 -0.3187
  960SOL    HW1 2879   0.213   0.326   2.895  0.4822  0.5391 -1.7925
  960SOL    HW2 2880   0.234   0.335   3.062  2.9424 -1.5465 -0.2743
  961SOL     OW 2881   0.780   0.915   2.296 -0.1580 -0.1841 -0.3627
  961SOL    HW1 2882   0.837   0.943   2.374 -2.3082  2.1926  1.4428
  961SOL    HW2 2883   0.833   0.855   2.228  1.8173  0.1100 -3.5227
  962SOL     OW 2884   1.021   1.359   3.000 -0.0071  0.5775 -0.2851
  962SOL    HW1 2885   1.060   1.327   3.091 -2.2898 -0.7297 -0.2526
  962SOL    HW2 2886   0.926   1.392   3.023 -3.9245  0.6414  1.3673
  963SOL     OW 2887   2.224   1.636   2.984  0.5368  0.2504  0.6707
  963SOL    HW1 2888   2.182   1.642   2.889 -0.0149  1.5690 -3.6838
  963SOL    HW2 2889   2.192   1.708   3.047  0.4035 -0.3401 -0.0464
  964SOL     OW 2890   1.435   2.501   1.080 -0.5200 -0.3042 -0.7566
  964SOL    HW1 2891   1.385   2.549   1.009  3.3759 -0.9227  2.7494
  964SOL    HW2 2892   1.403   2.528   1.173  1.6719 -1.3325 -0.0955
  965SOL     OW 2893   0.813   2.299   1.260  0.2862  1.1056 -0.7741
  965SOL    HW1 2894   0.800   2.257   1.356  1.0874  2.8506  0.7235
  965SOL    HW2 2895   0.767   2.248   1.183 -1.5623 -1.2002  1.3981
  966SOL     OW 2896   0.144   1.433   0.088 -0.5091  0.3657 -0.0667
  966SOL    HW1 2897   0.048   1.472   0.079 -1.9981 -0.4591 -0.9606
  966SOL    HW2 2898   0.156   1.400   0.185  2.0655  0.5973 -0.1368
  967SOL     OW 2899   1.600   0.091   1.872 -0.3803  0.5234 -0.2557
  967SOL    HW1 2900   1.543   0.006   1.872  0.0108 -1.8468  0.5336
  967SOL    HW2 2901   1.695   0.068   1.856 -1.4206 -1.3406 -0.7640
  968SOL     OW 2902   1.906   0.852   0.892  0.2213  0.1974 -0.3107
  968SOL    HW1 2903   1.979   0.914   0.869 -1.7365  1.2467  1.2441
  968SOL    HW2 2904   1.821   0.904   0.906  4.6746 -0.8193  0.7837
  969SOL     OW 2905   0.237   1.707   2.057 -0.1918 -0.2394  0.0170
  969SOL    HW1 2906   0.281   1.700   1.964 -0.0731  1.3321 -0.4125
  969SOL    HW2 2907   0.143   1.739   2.038 -1.3207 -1.9214  0.0586
  970SOL     OW 2908   2.665   1.551   1.044  0.5788  0.2731  0.5577
  970SOL    HW1 2909   2.627   1.470   1.094 -4.4678  0.9878  1.7794
  970SOL    HW2 2910   2.661   1.631   1.112 -0.3799 -0.6881 -0.2197
  971SOL     OW 2911   0.970   0.392   1.546  0.2091  0.4082 -0.1031
  971SOL    HW1 2912   0.979   0.491   1.543 -3.2533 -3.2370  2.3239
  971SOL    HW2 2913   0.905   0.360   1.616 -1.7184 -0.4519 -0.7357
  972SOL     OW 2914   0.946   0.488   2.466 -0.3304 -0.5010  0.3349
  972SOL    HW1 2915   1.026   0.506   2.407 -0.5801 -0.2473  1.3300
  972SOL    HW2 2916   0.859   0.505   2.413  2.0803 -1.3075  1.2975
  973SOL     OW 2917   0.554   1.436   1.132  0.1537  0.4155 -0.3627
  973SOL    HW1 2918   0.510   1.365   1.191  0.2259  0.5430  0.6054
  973SOL    HW2 2919   0.644   1.476   1.172 -0.6377  0.7979 -1.8546
  974SOL     OW 2920   2.097   1.195   1.979 -0.4073 -0.0449  0.0185
  974SOL    HW1 2921   2.051   1.258   1.912  0.6418  0.6128 -1.0808
  974SOL    HW2 2922   2.182   1.171   1.934 -3.0192  1.1279 -0.9851
  975SOL     OW 2923   2.611   0.059   0.422 -0.1859 -0.2791 -0.6791
  975SOL    HW1 2924   2.565   0.038   0.332  0.8177  1.3502 -0.4492
  975SOL    HW2 2925   2.713   0.067   0.412 -0.9658  1.2351  0.6100
  976SOL     OW 2926   0.008   1.755   1.941 -0.0229 -0.3043 -0.2545
  976SOL    HW1 2927   3.064   1.686   1.999  1.1026 -0.4559  1.8426
  976SOL    HW2 2928   3.062   1.771   1.850  0.3165 -0.5452 -4.7924
  977SOL     OW 2929   0.639   2.627   0.205  0.3387  0.0409  0.0739
  977SOL    HW1 2930   0.548   2.675   0.191 -2.0989  1.1288 -2.5351
  977SOL    HW2 2931   0.714   2.693   0.233  1.4792  2.8055 -0.5302
  978SOL     OW 2932   0.836   1.549   0.077 -0.1912  0.4482 -0.8698
  978SOL    HW1 2933   0.741   1.523   0.049 -1.3336 -1.3458 -2.5596
  978SOL    HW2 2934   0.869   1.487   0.156  1.1883 -0.0818  0.3407
  979SOL     OW 2935   1.440   1.903   1.156 -0.2068  0.3613 -0.1045
  979SOL    HW1 2936   1.435   1.941   1.252 -1.5318 -0.6336 -1.1162
  979SOL    HW2 2937   1.531   1.861   1.139 -0.5119 -0.9363  0.0524
  980SOL     OW 2938   0.395   1.378   2.366  0.2362 -0.0577 -0.5842
  980SOL    HW1 2939   0.459   1.304   2.336 -0.0002  1.5435  0.7988
  980SOL    HW2 2940   0.319   1.399   2.302  3.4797  0.8508 -0.3669
  981SOL     OW 2941   0.133   1.341   0.330  0.8504  0.1217 -0.5488
  981SOL    HW1 2942   0.174   1.431   0.367  2.1214  0.0898 -0.2634
  981SOL    HW2 2943   0.193   1.266   0.366  1.2001 -0.1023  0.0131
  982SOL     OW 2944   2.381   2.656   2.793  0.2692  0.2483 -0.0407
  982SOL    HW1 2945   2.419   2.680   2.700 -2.7660 -0.8387 -0.0289
  982SOL    HW2 2946   2.419   2.706   2.870 -2.0589 -4.1542 -0.7483
  983SOL     OW 2947   1.797   0.474   1.451  0.2686  0.0473  0.3752
  983SOL    HW1 2948   1.784   0.548   1.381  0.0910  1.5157 -0.4569
  983SOL    HW2 2949   1.885   0.428   1.442 -0.4610  0.4154  0.6766
  984SOL     OW 2950   0.971   0.197   2.447 -0.0401  0.3766  0.5517
  984SOL    HW1 2951   1.005   0.116   2.395 -1.5260 -1.9896 -3.1529
  984SOL    HW2 2952   1.020   0.281   2.416  0.8898 -0.8506  1.0101
  985SOL     OW 2953   1.546   2.166   1.873  0.0772 -0.0694 -0.2839
  985SOL    HW1 2954   1.566   2.259   1.910  0.7879  1.1388  0.5522
  985SOL    HW2 2955   1.467   2.123   1.929 -1.0485 -0.7323  0.7897
  986SOL     OW 2956   2.098   3.056   2.346 -0.4276  0.0553 -0.1070
  986SOL    HW1 2957   2.120   3.052   2.248  2.4678 -2.1518  2.6470
  986SOL    HW2 2958   2.110   0.047   2.381 -1.9920  0.6990 -1.3284
  987SOL     OW 2959   2.703   0.561   2.131  0.2776 -0.5544  0.0224
  987SOL    HW1 2960   2.793   0.538   2.171 -1.4014 -0.2057  0.5010
  987SOL    HW2 2961   2.627   0.524   2.193  1.2208  0.6967 -0.0444
  988SOL     OW 2962   2.551   0.478   2.344 -0.0787  0.3033  0.4043
  988SOL    HW1 2963   2.599   0.457   2.434 -2.1352  1.0589 -1.4827
  988SOL    HW2 2964   2.506   0.572   2.352  1.6751 -1.2053 -1.1457
  989SOL     OW 2965   2.103   2.436   2.447  0.0468  0.2401  0.2678
  989SOL    HW1 2966   2.164   2.464   2.372 -2.9112  0.6131 -0.9067
  989SOL    HW2 2967   2.134   2.356   2.500 -0.7349  2.5755  0.4473
  990SOL     OW 2968   0.462   1.059   3.044  0.6140 -0.5468 -0.3092
  990SOL    HW1 2969   0.380   1.125   3.032 -2.0460  0.8315 -0.8200
  990SOL    HW2 2970   0.455   1.001   0.024  0.8175  0.2814 -0.1478
  991SOL     OW 2971   0.780   1.215   2.542 -0.4720  0.0570 -0.1399
  991SOL    HW1 2972   0.844   1.136   2.515  2.4972  1.3947  0.4140
  991SOL    HW2 2973   0.756   1.264   2.459  0.9180  0.1049  0.7331
  992SOL     OW 2974   2.820   2.175   2.020 -0.4665 -0.4093  0.6257
  992SOL    HW1 2975   2.830   2.277   2.007 -0.7496 -1.6900  0.7278
  992SOL    HW2 2976   2.910   2.131   2.042 -2.1869 -0.6823 -1.0134
  993SOL     OW 2977   0.729   0.147   0.756 -0.1911  0.0626 -0.1751
  993SOL    HW1 2978   0.787   0.214   0.803  0.4512 -1.4303 -1.9826
  993SOL    HW2 2979   0.720   0.057   0.803  0.9352 -0.3545 -1.5884
  994SOL     OW 2980   0.360   2.049   1.546 -0.6670  0.4519  0.1298
  994SOL    HW1 2981   0.354   1.946   1.560  0.4703 -1.4428 -2.7670
  994SOL    HW2 2982   0.323   2.075   1.451 -0.6144 -0.0964 -3.9493
  995SOL     OW 2983   2.252   1.654   2.498  0.3941  0.3912 -0.4453
  995SOL    HW1 2984   2.310   1.570   2.478 -1.8349 -0.6250  1.3704
  995SOL    HW2 2985   2.307   1.743   2.493  2.1030  0.0418  0.3184
  996SOL     OW 2986   1.944   1.439   2.696 -0.1157 -0.7925 -0.0067
  996SOL    HW1 2987   1.970   1.513   2.761 -1.1766  1.4619  0.8920
  996SOL    HW2 2988   1.894   1.364   2.739  3.3695  1.3089  0.6359
  997SOL     OW 2989   1.639   1.358   1.889  0.3436 -0.0001 -0.5481
  997SOL    HW1 2990   1.625   1.258   1.907 -1.4474 -2.6431 -1.2737
  997SOL    HW2 2991   1.721   1.406   1.931  2.5517 -1.0808 -1.0089
  998SOL     OW 2992   2.444   1.992   0.932  0.2373  0.1867  0.5124
  998SOL    HW1 2993   2.358   2.033   0.903  0.0532  2.5739  3.1563
  998SOL    HW2 2994   2.440   1.889   0.918 -0.8970 -2.0626  0.5596
  999SOL     OW 2995   2.270   2.377   0.069 -0.0151  0.0353 -0.2077
  999SOL    HW1 2996   2.229   2.469   0.052 -0.4942  2.7085  2.2050
  999SOL    HW2 2997   2.292   2.354   0.166 -0.5323  0.0046 -1.8178
 1000SOL     OW 2998   0.669   3.061   2.469 -0.5955 -0.0942  1.0475
 1000SOL    HW1 2999   0.691   0.057   2.478 -1.2107  1.1462 -0.2672
 1000SOL    HW2 3000   0.698   3.003   2.551 -0.8499 -1.7971  3.0178
   3.10198   3.10198   3.10198
