1000 SPC/Fw water molecules t= 211.00000 step= 211000
 3000
    1SOL     OW    1   2.844   2.954   0.999  0.2531  0.4411  0.8751
    1SOL    HW1    2   2.865   2.864   0.957 -1.2579  2.1462 -1.7491
    1SOL    HW2    3   2.875   3.027   0.933  1.4867 -3.2673  1.4637
    2SOL     OW    4   1.783   1.578   2.103 -0.2614 -0.2566  0.8761
    2SOL    HW1    5   1.880   1.598   2.088  0.0069 -0.1210 -1.8016
    2SOL    HW2    6   1.769   1.501   2.169  1.4746 -0.8668 -0.8758
    3SOL     OW    7   1.869   2.541   2.258 -0.2297 -0.2230  0.2488
    3SOL    HW1    8   1.766   2.531   2.265  0.6925 -1.9346  0.4604
    3SOL    HW2    9   1.924   2.459   2.293  3.0872 -4.1761 -0.0544
    4SOL     OW   10   1.935   1.739   2.466 -0.0276  0.1833 -0.4679
    4SOL    HW1   11   1.923   1.710   2.372  3.2238 -0.1440 -2.2235
    4SOL    HW2   12   1.925   1.659   2.529  1.0195 -0.9225  1.8452
    5SOL     OW   13   1.329   0.650   1.667  0.6553  0.2215  0.1746
    5SOL    HW1   14   1.384   0.568   1.637  1.5046 -1.6156 -0.2612
    5SOL    HW2   15   1.250   0.672   1.605  0.3590  2.2719 -2.1400
    6SOL     OW   16   2.781   0.566   2.886 -0.1883 -0.5862  0.1081
    6SOL    HW1   17   2.849   0.493   2.893 -0.7277  0.5908  1.1411
    6SOL    HW2   18   2.693   0.536   2.934 -3.6937  0.1820 -1.1658
    7SOL     OW   19   0.724   1.361   1.341  0.7232  0.3569  0.4592
    7SOL    HW1   20   0.743   1.436   1.279 -1.4322 -3.5464 -0.5768
    7SOL    HW2   21   0.714   1.276   1.294  1.2962  1.5183  1.7526
    8SOL     OW   22   1.204   0.636   0.891  0.3146 -0.2426 -0.0904
    8SOL    HW1   23   1.126   0.602   0.833 -0.9498  1.7105 -1.5704
    8SOL    HW2   24   1.226   0.564   0.957  1.3989  0.4277  1.3569
    9SOL     OW   25   1.042   0.692   2.417 -0.2313  0.6431  0.3871
    9SOL    HW1   26   1.068   0.727   2.322 -0.8590  1.3508 -1.2770
    9SOL    HW2   27   1.056   0.593   2.427  1.0982  2.1342 -2.0409
   10SOL     OW   28   0.494   2.552   0.346 -0.0481 -0.1030 -0.5452
   10SOL    HW1   29   0.579   2.525   0.298 -0.8567 -0.4899  1.7574
   10SOL    HW2   30   0.468   2.648   0.325  0.0473  2.0129 -1.2492
   11SOL     OW   31   0.761   1.386   3.058  0.0612 -0.3021  0.4101
   11SOL    HW1   32   0.684   1.323   3.059  2.0899  2.3292 -0.6607
   11SOL    HW2   33   0.785   1.415   0.068  1.0704 -0.2252  1.6855
   12SOL     OW   34   0.398   0.368   1.495 -0.1719 -0.4802 -0.3737
   12SOL    HW1   35   0.355   0.307   1.430  1.2835  2.8524  1.3269
   12SOL    HW2   36   0.458   0.318   1.560 -2.0282 -0.6616  0.4572
   13SOL     OW   37   0.882   0.010   0.202 -0.3757 -0.3552  0.2402
   13SOL    HW1   38   0.962   0.058   0.159  0.9250 -1.0627  0.3816
   13SOL    HW2   39   0.911   3.057   0.293 -1.8829 -2.4178 -0.4044
   14SOL     OW   40   1.318   2.312   1.294 -0.3493 -0.0299 -0.5847
   14SOL    HW1   41   1.218   2.336   1.319 -3.2999  0.8603 -0.4614
   14SOL    HW2   42   1.373   2.345   1.373 -1.1845 -1.4284 -0.1451
   15SOL     OW   43   2.752   1.181   1.873  0.0929  0.4734  0.2731
   15SOL    HW1   44   2.755   1.155   1.774 -1.3073  0.2880  1.2685
   15SOL    HW2   45   2.844   1.221   1.901 -0.9927  0.4472 -0.3292
   16SOL     OW   46   1.367   2.949   0.158 -0.1257 -0.2168 -0.1392
   16SOL    HW1   47   1.360   3.050   0.135  2.0390  1.9255  0.5457
   16SOL    HW2   48   1.462   2.914   0.131  0.0518  3.0681 -0.1046
   17SOL     OW   49   0.701   0.231   1.338  0.5661  0.3478 -0.1931
   17SOL    HW1   50   0.674   0.160   1.266  0.7613 -3.0467 -2.5043
   17SOL    HW2   51   0.664   0.324   1.318 -1.2489 -0.9801 -1.8616
   18SOL     OW   52   1.206   0.755   0.051 -0.3988 -0.0287  0.1874
   18SOL    HW1   53   1.233   0.662   0.078  0.0377  1.3389 -0.5139
   18SOL    HW2   54   1.105   0.771   0.050 -0.4618 -1.2271 -0.9160
   19SOL     OW   55   2.122   1.644   3.045  0.7027  0.0968  0.1399
   19SOL    HW1   56   2.091   1.737   3.065 -2.7908 -3.8837  0.7500
   19SOL    HW2   57   2.036   1.592   3.027  0.6233  0.1105 -0.1305
   20SOL     OW   58   1.963   1.724   1.578 -0.3403 -0.1996 -0.3272
   20SOL    HW1   59   1.956   1.783   1.662  1.3248 -0.9054  2.0149
   20SOL    HW2   60   1.871   1.683   1.557 -1.4218 -0.8997  0.3091
   21SOL     OW   61   0.904   1.106   3.029  0.4254 -0.1929  0.1967
   21SOL    HW1   62   0.965   1.169   2.979 -0.3094  1.2377 -0.6148
   21SOL    HW2   63   0.807   1.126   3.011 -1.8543 -3.0199 -0.3819
   22SOL     OW   64   2.132   3.074   1.336  0.0391 -0.0505 -0.2630
   22SOL    HW1   65   2.079   0.053   1.277  2.5409 -2.5588  0.7359
   22SOL    HW2   66   2.160   2.988   1.285  3.5594  0.1545  0.9490
   23SOL     OW   67   3.035   0.920   1.678 -0.0986 -0.1333 -0.4781
   23SOL    HW1   68   0.034   0.920   1.618 -0.1052 -0.1864  1.8921
   23SOL    HW2   69   2.964   0.845   1.653 -1.0278 -3.1349  3.1232
   24SOL     OW   70   2.222   2.473   1.179  0.2435  0.5584 -0.0171
   24SOL    HW1   71   2.124   2.482   1.152  2.4394 -0.4544  1.9976
   24SOL    HW2   72   2.275   2.521   1.109 -0.9096  0.2235  4.9652
   25SOL     OW   73   1.804   2.815   2.757  0.2045  0.5048  0.0438
   25SOL    HW1   74   1.710   2.817   2.717  0.4752  1.2962  1.9309
   25SOL    HW2   75   1.861   2.743   2.714 -1.6853 -0.7881 -0.0180
   26SOL     OW   76   1.382   2.696   0.504 -0.2907  0.3441  0.3585
   26SOL    HW1   77   1.466   2.637   0.518  1.6168 -0.3206  0.3279
   26SOL    HW2   78   1.317   2.651   0.436 -0.8441 -1.6295 -0.5038
   27SOL     OW   79   0.466   1.728   2.452 -0.0976  0.1677 -0.4667
   27SOL    HW1   80   0.377   1.750   2.494  1.1161  0.7683  1.2994
   27SOL    HW2   81   0.456   1.705   2.353  1.2082  0.6127  2.3203
   28SOL     OW   82   2.963   1.262   1.527 -0.5147 -0.2313  0.2382
   28SOL    HW1   83   2.950   1.339   1.463  0.8844 -0.0296 -1.0653
   28SOL    HW2   84   3.058   1.261   1.560  2.0562  1.8115 -1.5553
   29SOL     OW   85   2.478   2.339   2.139  0.1928  0.3812 -0.0670
   29SOL    HW1   86   2.556   2.340   2.208 -0.0464  1.0507 -0.1575
   29SOL    HW2   87   2.504   2.300   2.048  4.0521 -1.0871 -0.8659
   30SOL     OW   88   1.382   0.150   0.132 -0.7574 -0.0776 -0.1685
   30SOL    HW1   89   1.438   0.168   0.047  3.1896  0.6240  1.6297
   30SOL    HW2   90   1.423   0.193   0.217 -2.4382 -0.0595  0.6137
   31SOL     OW   91   2.618   2.444   1.777 -0.1765 -0.4314  0.2982
   31SOL    HW1   92   2.598   2.531   1.828  1.9855 -0.7897 -0.1652
   31SOL    HW2   93   2.700   2.399   1.817  1.9803  1.5234 -0.4889
   32SOL     OW   94   1.313   1.255   1.425 -0.6076  0.3240  0.2179
   32SOL    HW1   95   1.212   1.237   1.431 -2.1663  1.1116  2.5048
   32SOL    HW2   96   1.323   1.355   1.441 -0.7583  3.5719  0.5099
   33SOL     OW   97   0.106   2.530   2.617 -0.0036 -0.1190  0.1834
   33SOL    HW1   98   0.198   2.538   2.572 -1.6276 -1.2114  0.2079
   33SOL    HW2   99   0.040   2.570   2.554  1.0227 -3.5458  1.1215
   34SOL     OW  100   1.853   0.024   0.746 -0.8548  0.5845  0.2245
   34SOL    HW1  101   1.903   0.048   0.660  2.2309 -1.3939 -3.3887
   34SOL    HW2  102   1.767   0.077   0.753 -0.3069 -1.5908 -2.5748
   35SOL     OW  103   2.292   0.081   0.792  0.1026  0.2361 -0.3073
   35SOL    HW1  104   2.236   3.080   0.816 -0.6633  0.1211 -1.5645
   35SOL    HW2  105   2.382   0.054   0.750  1.2559  2.4102  0.4770
   36SOL     OW  106   1.935   2.657   2.560  0.1950  0.1448 -0.7881
   36SOL    HW1  107   2.039   2.639   2.573  1.2051  1.4521 -0.1185
   36SOL    HW2  108   1.914   2.669   2.463 -0.7312  2.1010  1.7785
   37SOL     OW  109   1.086   2.541   2.448 -0.6890 -0.1335 -0.0828
   37SOL    HW1  110   1.020   2.523   2.522 -1.8138  0.7335  1.0126
   37SOL    HW2  111   1.180   2.520   2.475  1.5001  0.9666  3.3945
   38SOL     OW  112   2.851   0.165   2.739 -0.1802 -0.5285 -0.0409
   38SOL    HW1  113   2.782   0.204   2.803  0.7598 -0.6493 -0.3049
   38SOL    HW2  114   2.859   0.061   2.741  1.5444 -0.5756 -0.3869
   39SOL     OW  115   2.077   1.487   1.695 -0.1059 -0.0393  0.0956
   39SOL    HW1  116   2.162   1.524   1.743  0.4933  1.1962 -0.8776
   39SOL    HW2  117   2.026   1.560   1.645 -0.6270  2.3902 -0.2746
   40SOL     OW  118   0.154   2.961   2.635  0.1505 -0.1947 -0.0340
   40SOL    HW1  119   0.153   3.037   2.701  1.3165 -0.6286 -2.6852
   40SOL    HW2  120   0.121   2.879   2.682  0.7563  2.8327 -2.2396
   41SOL     OW  121   1.766   0.494   0.785 -0.1958 -0.1336 -0.1658
   41SOL    HW1  122   1.703   0.565   0.827 -0.9199  0.9859 -2.5131
   41SOL    HW2  123   1.862   0.526   0.790  2.0357  0.0738  1.2120
   42SOL     OW  124   0.567   0.736   1.416 -0.0709  0.3083  0.8879
   42SOL    HW1  125   0.483   0.677   1.406 -2.8189 -0.6610  0.3129
   42SOL    HW2  126   0.612   0.724   1.509  0.5748  0.8037  2.3997
   43SOL     OW  127   2.688   1.525   2.534  0.6482 -0.2959 -0.0468
   43SOL    HW1  128   2.735   1.560   2.453  1.1435  0.2253  3.9838
   43SOL    HW2  129   2.682   1.423   2.522  0.4431  3.2949 -1.2161
   44SOL     OW  130   2.833   2.864   0.581  0.2278  0.1425  0.1565
   44SOL    HW1  131   2.851   2.962   0.568 -1.8968 -1.6686 -0.6452
   44SOL    HW2  132   2.893   2.829   0.658  2.4692 -3.0255  2.3895
   45SOL     OW  133   0.011   2.371   1.934 -0.0593 -0.5580 -0.0334
   45SOL    HW1  134   3.012   2.433   1.935  0.0814 -1.5524 -1.1527
   45SOL    HW2  135   3.076   2.286   1.883  2.2906  1.4549  0.3718
   46SOL     OW  136   2.231   2.442   2.388  0.6473 -0.1812 -0.0051
   46SOL    HW1  137   2.300   2.372   2.413  0.6269  3.5121  0.3776
   46SOL    HW2  138   2.246   2.480   2.293 -1.1900 -1.2628 -1.4881
   47SOL     OW  139   2.065   2.035   1.640  0.0093 -0.1818  0.2356
   47SOL    HW1  140   2.141   1.982   1.599 -1.4093  0.2787  1.8243
   47SOL    HW2  141   2.004   1.978   1.694  3.0455  3.1809 -0.6171
   48SOL     OW  142   0.687   1.753   0.338  0.5335 -0.4268 -0.5124
   48SOL    HW1  143   0.632   1.754   0.250 -0.6612 -0.7444  0.6689
   48SOL    HW2  144   0.786   1.730   0.319  2.7089  0.7951 -0.4424
   49SOL     OW  145   2.530   0.383   2.495 -0.6500 -0.4464  0.2009
   49SOL    HW1  146   2.492   0.351   2.584  0.0004 -2.0783  1.8853
   49SOL    HW2  147   2.502   0.478   2.471 -0.7717 -0.2262  0.7463
   50SOL     OW  148   2.433   1.088   0.061  0.2637 -0.2775  0.0129
   50SOL    HW1  149   2.337   1.093   0.100 -1.3024 -0.3348 -0.7161
   50SOL    HW2  150   2.465   0.990   0.056 -0.1761 -1.5930 -0.4417
   51SOL     OW  151   2.021   0.720   1.067 -0.1533 -0.1543 -0.2601
   51SOL    HW1  152   1.958   0.653   1.109  0.8401 -0.2550 -1.0312
   51SOL    HW2  153   2.102   0.733   1.122 -2.8148 -2.3730  0.7221
   52SOL     OW  154   1.190   1.123   2.973 -0.1953 -0.6554 -0.0812
   52SOL    HW1  155   1.224   1.168   3.060  1.8009  2.8767 -1.3726
   52SOL    HW2  156   1.240   1.038   2.950 -0.7165  3.0905 -0.2474
   53SOL     OW  157   1.023   1.531   1.966  0.2208  0.2612  0.2210
   53SOL    HW1  158   0.959   1.592   2.023  0.5346 -0.9683  1.2136
   53SOL    HW2  159   0.968   1.500   1.885  0.8530  1.6348  0.1936
   54SOL     OW  160   2.030   0.377   1.043  0.1233  0.0466  0.3867
   54SOL    HW1  161   2.052   0.281   1.069 -1.3745  3.1699 -0.1574
   54SOL    HW2  162   2.107   0.424   0.998 -1.2718  0.4236  1.1010
   55SOL     OW  163   2.576   2.626   1.007 -0.0164 -0.1800  0.2923
   55SOL    HW1  164   2.485   2.589   0.991  1.4190  1.2137 -2.3207
   55SOL    HW2  165   2.573   2.716   1.049 -1.4915 -3.8300  0.0331
   56SOL     OW  166   0.735   2.816   1.569 -0.1652  0.7369 -0.7854
   56SOL    HW1  167   0.742   2.760   1.481  0.4810  2.9441 -0.2957
   56SOL    HW2  168   0.822   2.869   1.584  3.5624 -0.8648  1.2966
   57SOL     OW  169   1.407   1.250   0.342  0.7748 -0.4090  0.0270
   57SOL    HW1  170   1.365   1.227   0.432  0.3666  0.1398 -2.7215
   57SOL    HW2  171   1.431   1.348   0.328 -0.5100  1.0042  0.3288
   58SOL     OW  172   3.027   0.471   2.430  0.0246  0.1210  0.1544
   58SOL    HW1  173   3.003   0.548   2.368 -0.8656 -0.4503  0.1017
   58SOL    HW2  174   2.942   0.430   2.478 -3.5976 -2.5243 -0.3559
   59SOL     OW  175   0.908   2.666   2.757  0.6551  0.0616 -0.0129
   59SOL    HW1  176   0.970   2.683   2.835 -0.8075  3.3270 -2.8164
   59SOL    HW2  177   0.892   2.566   2.733 -2.5939  1.5763  0.2675
   60SOL     OW  178   2.264   2.672   0.689  0.2884 -0.3200  0.1393
   60SOL    HW1  179   2.278   2.615   0.606 -2.2553  2.4387  1.3887
   60SOL    HW2  180   2.174   2.714   0.685  0.8433  0.7132 -1.6073
   61SOL     OW  181   1.227   2.280   0.937  0.2244 -0.1783 -0.1773
   61SOL    HW1  182   1.233   2.376   0.906  0.1331 -1.7592  2.2321
   61SOL    HW2  183   1.299   2.262   1.005  0.3136  0.3819  0.9706
   62SOL     OW  184   2.512   2.162   2.680 -0.7686 -0.1141 -0.6934
   62SOL    HW1  185   2.434   2.120   2.728 -1.1160 -0.2128  1.4653
   62SOL    HW2  186   2.597   2.112   2.703 -3.3908  0.3222 -0.4877
   63SOL     OW  187   2.370   0.685   2.774  0.4712 -0.1948  0.0748
   63SOL    HW1  188   2.372   0.591   2.739 -1.4879  1.1810 -0.7274
   63SOL    HW2  189   2.363   0.687   2.874  0.3765 -0.3927 -0.5566
   64SOL     OW  190   1.114   0.800   2.649 -0.3790 -0.1375  0.2161
   64SOL    HW1  191   1.040   0.830   2.715 -3.2969  0.8122  1.0018
   64SOL    HW2  192   1.076   0.747   2.569  0.2530  0.4100  0.2390
   65SOL     OW  193   1.139   1.927   0.492 -0.1310 -0.3769  0.6793
   65SOL    HW1  194   1.121   2.023   0.516 -0.4576  0.2064 -1.3126
   65SOL    HW2  195   1.229   1.917   0.439  1.1672 -3.7751 -2.7669
   66SOL     OW  196   0.277   1.103   1.961 -0.5469  0.3599  0.1876
   66SOL    HW1  197   0.295   1.203   1.957  0.6643 -0.6943  0.7410
   66SOL    HW2  198   0.371   1.055   1.950  1.4301 -0.4579  1.4836
   67SOL     OW  199   2.354   0.032   2.419 -0.1146  0.2325  0.3350
   67SOL    HW1  200   2.431   0.100   2.411 -0.3733  0.8670 -0.3947
   67SOL    HW2  201   2.374   3.021   2.375  0.1460 -2.6806  0.7364
   68SOL     OW  202   0.656   2.013   1.235  0.0885  0.0866 -0.4372
   68SOL    HW1  203   0.634   1.919   1.271 -2.1832 -0.8167 -1.3130
   68SOL    HW2  204   0.574   2.063   1.208  0.5724 -1.0004  2.1514
   69SOL     OW  205   0.982   2.569   0.539 -0.1095 -0.0049  0.5383
   69SOL    HW1  206   0.944   2.600   0.446  0.3440  0.1461 -1.9766
   69SOL    HW2  207   1.038   2.638   0.589 -0.4345  2.2996  2.4676
   70SOL     OW  208   3.063   1.057   2.860  0.2418 -0.2132 -0.3611
   70SOL    HW1  209   3.013   1.135   2.901  2.0636  0.5354  0.1279
   70SOL    HW2  210   3.010   1.026   2.781  1.0622  2.9860  1.7368
   71SOL     OW  211   0.124   1.317   2.699  0.6517 -0.2107 -0.2288
   71SOL    HW1  212   0.064   1.390   2.655  1.4724 -1.2423  0.7329
   71SOL    HW2  213   0.167   1.254   2.630  5.1402  1.2251 -1.8865
   72SOL     OW  214   2.927   2.221   0.537  0.0583 -0.1252  0.2857
   72SOL    HW1  215   2.911   2.123   0.519  0.4513  0.1468  0.3075
   72SOL    HW2  216   3.013   2.244   0.588  1.1778 -0.3906 -0.6310
   73SOL     OW  217   0.884   1.395   0.226 -0.5477 -0.2419  0.4497
   73SOL    HW1  218   0.951   1.344   0.284  0.2118  0.4881  0.7967
   73SOL    HW2  219   0.896   1.493   0.255 -1.6305 -2.4636  2.2264
   74SOL     OW  220   3.008   0.452   0.060  0.2909  0.4978  0.1482
   74SOL    HW1  221   0.003   0.388   0.102  2.8716  2.0419  1.5207
   74SOL    HW2  222   2.998   0.441   3.044  0.7401 -0.8531 -0.2867
   75SOL     OW  223   1.993   1.385   1.937  0.0587 -0.4572  0.3030
   75SOL    HW1  224   1.993   1.365   1.834  0.7093 -3.0480 -2.3258
   75SOL    HW2  225   2.008   1.483   1.948 -0.9390 -0.0376 -0.1440
   76SOL     OW  226   2.042   2.737   1.574 -0.2588  0.3943 -0.2511
   76SOL    HW1  227   2.108   2.666   1.532  3.3516 -1.0089 -1.2903
   76SOL    HW2  228   2.008   2.693   1.659  0.5788  2.6538  1.4893
   77SOL     OW  229   2.688   0.391   1.243 -0.1963 -0.7004 -0.4261
   77SOL    HW1  230   2.784   0.411   1.213 -1.6107 -0.2677 -0.7051
   77SOL    HW2  231   2.666   0.294   1.233  1.5313  0.9405  0.2818
   78SOL     OW  232   1.457   0.974   3.067 -0.5406 -0.2471 -0.1835
   78SOL    HW1  233   1.416   0.887   0.005  0.0125  2.2630  0.0465
   78SOL    HW2  234   1.450   1.002   2.971  0.8833  1.2995  0.5313
   79SOL     OW  235   0.532   1.895   1.783  0.3139  0.3676  0.0701
   79SOL    HW1  236   0.562   1.992   1.799 -0.9974 -0.3929  3.7910
   79SOL    HW2  237   0.613   1.832   1.795  2.6644 -0.8445  0.5099
   80SOL     OW  238   1.634   0.972   0.997 -0.0475 -0.0055 -0.5061
   80SOL    HW1  239   1.609   0.986   1.094  0.2830 -2.6662 -0.2738
   80SOL    HW2  240   1.725   1.013   0.975 -1.0491 -0.9496 -0.2295
   81SOL     OW  241   0.233   0.328   1.037 -0.3622  0.7812  0.3260
   81SOL    HW1  242   0.191   0.247   0.994  1.2940  1.7250 -0.0375
   81SOL    HW2  243   0.315   0.349   0.978  0.7316  2.0643 -0.4787
   82SOL     OW  244   1.502   2.719   1.821  0.3024  0.0595  0.0329
   82SOL    HW1  245   1.404   2.690   1.826  2.8434  0.4194  3.9715
   82SOL    HW2  246   1.560   2.671   1.891  1.2755  2.4310 -0.5618
   83SOL     OW  247   0.513   2.896   1.291  0.1278  0.3426 -0.0199
   83SOL    HW1  248   0.428   2.840   1.290  0.2754 -0.2246  0.8825
   83SOL    HW2  249   0.592   2.842   1.311 -1.8518 -0.3683  1.3189
   84SOL     OW  250   0.361   1.265   2.914 -0.4717  0.3965 -0.3315
   84SOL    HW1  251   0.400   1.314   2.834  1.2915  0.1509 -1.1388
   84SOL    HW2  252   0.275   1.214   2.891 -2.1592  0.4087  0.9439
   85SOL     OW  253   2.960   2.290   1.657  0.3701  0.0054  0.1704
   85SOL    HW1  254   2.955   2.371   1.594 -0.3249 -0.1646 -0.2108
   85SOL    HW2  255   2.876   2.233   1.642  0.4762 -0.8828  2.1640
   86SOL     OW  256   2.594   2.568   1.467  0.2620  0.2077  0.3793
   86SOL    HW1  257   2.614   2.548   1.563 -1.7452  2.2922 -2.7932
   86SOL    HW2  258   2.589   2.481   1.409 -1.0358 -0.6285 -1.5412
   87SOL     OW  259   2.856   2.383   2.671  0.6697  0.4899  0.3842
   87SOL    HW1  260   2.916   2.455   2.637  2.0561  0.5695  1.4943
   87SOL    HW2  261   2.863   2.296   2.615  2.0409 -1.2333  0.8970
   88SOL     OW  262   0.257   1.747   1.313  0.4717  0.2182  0.7280
   88SOL    HW1  263   0.289   1.817   1.378 -0.8993 -0.7975 -0.5015
   88SOL    HW2  264   0.316   1.665   1.316 -0.9878  0.3313 -2.7694
   89SOL     OW  265   0.870   0.100   1.822 -0.3155 -0.6805 -0.0043
   89SOL    HW1  266   0.808   0.110   1.744  0.9278  1.7163  1.4956
   89SOL    HW2  267   0.891   3.081   1.839  1.6541 -1.1772  1.2666
   90SOL     OW  268   0.275   1.816   1.829 -0.0574 -0.0395  0.1407
   90SOL    HW1  269   0.200   1.864   1.786  0.6114  0.0602  0.7825
   90SOL    HW2  270   0.360   1.870   1.824 -0.3891  2.2435  0.5816
   91SOL     OW  271   1.013   1.697   0.539 -0.1125 -0.5208  0.1909
   91SOL    HW1  272   1.066   1.621   0.498 -1.0767  0.0418  0.2692
   91SOL    HW2  273   1.060   1.784   0.512  1.7635 -0.5243 -0.8749
   92SOL     OW  274   2.543   0.154   1.208  0.2346  0.3781 -0.6068
   92SOL    HW1  275   2.469   0.177   1.273 -1.0655  0.0919 -4.3114
   92SOL    HW2  276   2.515   0.173   1.111 -0.1783 -1.0786  4.4679
   93SOL     OW  277   2.491   1.443   2.922 -0.6379  0.1883  0.3165
   93SOL    HW1  278   2.578   1.400   2.952  1.4865  0.8891 -0.3059
   93SOL    HW2  279   2.460   1.415   2.831 -0.1139  0.0575 -0.9987
   94SOL     OW  280   2.400   2.243   2.449  0.1598 -0.3042  0.7251
   94SOL    HW1  281   2.441   2.225   2.539 -0.1911 -1.8479  1.9946
   94SOL    HW2  282   2.464   2.274   2.374 -1.2179  1.5574 -1.5385
   95SOL     OW  283   1.868   0.541   1.209 -0.0201  0.1866 -0.5069
   95SOL    HW1  284   1.770   0.510   1.221  0.1751  1.4756  0.6362
   95SOL    HW2  285   1.919   0.470   1.169 -0.9258  2.1257 -0.2230
   96SOL     OW  286   2.859   2.679   1.654  0.3656  0.0611  0.4622
   96SOL    HW1  287   2.876   2.619   1.575 -0.4600 -1.5830 -1.2935
   96SOL    HW2  288   2.855   2.772   1.618  1.1324  2.1071  1.3093
   97SOL     OW  289   2.324   0.194   1.360 -0.9197  0.1787 -0.4764
   97SOL    HW1  290   2.248   0.120   1.341 -1.8158  2.1015  0.3776
   97SOL    HW2  291   2.271   0.276   1.374 -0.1886 -3.4995 -1.7077
   98SOL     OW  292   1.527   2.350   1.477  0.9571  0.3749 -1.2151
   98SOL    HW1  293   1.596   2.306   1.417 -0.5826  0.8810 -2.1555
   98SOL    HW2  294   1.566   2.389   1.563  1.0301 -0.9023  0.4960
   99SOL     OW  295   0.020   2.865   1.760  0.3500 -0.2047  0.3938
   99SOL    HW1  296   0.058   2.936   1.692  1.9174  1.5794 -3.3639
   99SOL    HW2  297   3.056   2.787   1.708 -0.1148  0.5749 -0.7264
  100SOL     OW  298   0.051   0.971   2.438 -0.0984  0.1712  0.4056
  100SOL    HW1  299   0.076   0.911   2.361 -0.5092 -1.4007  0.5978
  100SOL    HW2  300   0.133   1.021   2.470 -2.0180  2.2776  0.0434
  101SOL     OW  301   1.904   0.569   3.064  0.9168 -0.0385  0.0500
  101SOL    HW1  302   1.914   0.468   3.073  1.4067  3.7340 -3.4656
  101SOL    HW2  303   1.882   0.603   0.076 -0.3486 -1.7515 -1.3163
  102SOL     OW  304   0.141   0.550   1.209 -0.0646 -0.2560 -0.1375
  102SOL    HW1  305   0.167   0.460   1.165 -0.6374  0.3365  0.8439
  102SOL    HW2  306   0.146   0.633   1.149  3.0722  1.1388  1.3614
  103SOL     OW  307   2.630   0.734   2.009  0.5264  0.1531 -0.2257
  103SOL    HW1  308   2.715   0.682   2.034 -0.1769  0.0870  1.6598
  103SOL    HW2  309   2.648   0.839   2.022  0.1640  0.2744  2.2822
  104SOL     OW  310   0.356   0.311   2.518  0.2916 -0.2570 -0.2200
  104SOL    HW1  311   0.328   0.269   2.431 -1.3783  4.8775  0.5854
  104SOL    HW2  312   0.434   0.263   2.557  0.9375  1.7072 -2.7082
  105SOL     OW  313   2.078   1.282   1.540 -0.0643 -0.4246  0.6538
  105SOL    HW1  314   1.994   1.273   1.490  1.1571 -3.6146  0.3527
  105SOL    HW2  315   2.068   1.364   1.605 -2.2710  0.9144  1.4726
  106SOL     OW  316   1.005   3.049   0.450 -0.4650 -0.2830 -0.5139
  106SOL    HW1  317   0.958   0.057   0.473 -0.4454  3.5538 -1.5765
  106SOL    HW2  318   0.988   2.985   0.527 -2.1295  2.2308 -1.1394
  107SOL     OW  319   0.424   1.555   1.452 -0.1942 -0.2896  0.0073
  107SOL    HW1  320   0.487   1.569   1.533  1.7547 -1.0418 -0.7370
  107SOL    HW2  321   0.468   1.530   1.365  0.6015 -3.2743 -1.0319
  108SOL     OW  322   0.122   2.816   2.202  0.1238  0.4991  0.0649
  108SOL    HW1  323   0.188   2.824   2.283 -2.2034 -0.5378 -0.2244
  108SOL    HW2  324   0.062   2.894   2.192  0.6116 -1.1548  1.2028
  109SOL     OW  325   1.853   0.322   0.144  0.1938  0.1396  0.0496
  109SOL    HW1  326   1.798   0.397   0.180 -0.0365 -0.0506 -0.7198
  109SOL    HW2  327   1.795   0.238   0.134  2.4061 -0.1154 -0.8300
  110SOL     OW  328   0.420   2.266   2.486  0.0758 -0.1840  0.3105
  110SOL    HW1  329   0.380   2.302   2.400  0.1853  0.8527  2.9449
  110SOL    HW2  330   0.512   2.306   2.505  0.7350 -1.4072 -1.5041
  111SOL     OW  331   1.377   2.511   2.066  0.2879  0.4463  0.0915
  111SOL    HW1  332   1.383   2.593   2.122  2.9358 -1.4030 -0.4799
  111SOL    HW2  333   1.330   2.526   1.974  0.5188  3.6816 -0.6738
  112SOL     OW  334   2.016   2.151   2.607 -0.3037  0.6008  0.1435
  112SOL    HW1  335   2.085   2.127   2.676  0.2900  0.8189 -0.8607
  112SOL    HW2  336   1.960   2.075   2.571 -1.1349  0.7263 -1.8469
  113SOL     OW  337   2.299   2.747   1.787  0.6099  0.2895  0.6466
  113SOL    HW1  338   2.359   2.684   1.835  1.7441 -0.1055 -0.8687
  113SOL    HW2  339   2.337   2.777   1.700 -1.3213 -1.6586 -0.0077
  114SOL     OW  340   2.990   0.827   0.778 -0.4848 -0.3385  0.1992
  114SOL    HW1  341   0.007   0.806   0.747  4.3707 -1.2485 -1.0974
  114SOL    HW2  342   2.937   0.861   0.700 -1.5312  1.3586  0.1228
  115SOL     OW  343   0.436   1.608   2.959 -0.4150  1.0797  0.1454
  115SOL    HW1  344   0.514   1.665   2.930 -2.3375  0.2614 -0.2331
  115SOL    HW2  345   0.429   1.583   3.061  0.2732  0.1597 -0.4245
  116SOL     OW  346   0.349   1.363   2.003 -0.1604 -0.1733 -0.3885
  116SOL    HW1  347   0.372   1.437   1.940 -0.4426 -3.9040  0.8439
  116SOL    HW2  348   0.252   1.368   2.047 -2.4245  1.4642 -0.1095
  117SOL     OW  349   2.530   0.031   0.677 -0.4714 -0.3316 -0.5138
  117SOL    HW1  350   2.607   0.097   0.708 -0.0552 -0.7647  0.8650
  117SOL    HW2  351   2.518   0.048   0.580 -1.7426 -0.2340 -2.6260
  118SOL     OW  352   1.146   1.817   1.748  0.4546  0.3626  0.4961
  118SOL    HW1  353   1.167   1.715   1.761  1.7119 -1.9510  0.4045
  118SOL    HW2  354   1.111   1.853   1.834  0.0347  1.6633  0.4681
  119SOL     OW  355   0.990   2.251   0.261  0.2649 -0.2609 -0.2223
  119SOL    HW1  356   0.968   2.259   0.362  1.5428 -0.7047  0.4857
  119SOL    HW2  357   1.046   2.169   0.238 -4.6381  0.4267  2.1007
  120SOL     OW  358   0.253   1.138   2.497 -0.4260 -0.1373 -0.1675
  120SOL    HW1  359   0.294   1.202   2.425 -0.4409 -1.5216 -1.8752
  120SOL    HW2  360   0.333   1.092   2.547  0.9783  0.0699  2.0493
  121SOL     OW  361   2.008   2.828   1.144 -0.4182  0.3614 -0.2710
  121SOL    HW1  362   1.983   2.912   1.090  1.3408 -0.3008  0.3740
  121SOL    HW2  363   2.111   2.816   1.144 -1.6325  0.3914  1.4312
  122SOL     OW  364   2.301   2.158   1.910  0.4154 -0.0705  0.4280
  122SOL    HW1  365   2.270   2.109   1.992  0.1936  0.3135 -3.9460
  122SOL    HW2  366   2.239   2.231   1.882  0.1243 -1.9413 -2.2284
  123SOL     OW  367   2.961   0.015   0.555  0.4356 -0.4278 -0.0657
  123SOL    HW1  368   2.965   0.101   0.498 -2.1805 -2.1055  0.0724
  123SOL    HW2  369   3.007   3.019   0.508  2.7158 -1.4222 -0.1456
  124SOL     OW  370   1.904   0.713   2.370 -0.4618  0.2508  0.1151
  124SOL    HW1  371   1.818   0.745   2.331  0.2465 -1.2261 -0.6794
  124SOL    HW2  372   1.980   0.737   2.307 -2.5017 -0.1279  0.7099
  125SOL     OW  373   0.451   1.476   0.471 -0.3069  0.3123  0.2338
  125SOL    HW1  374   0.495   1.454   0.383 -3.2819  1.8278 -0.7932
  125SOL    HW2  375   0.518   1.501   0.540 -0.5934 -0.6746  2.2997
  126SOL     OW  376   2.476   1.630   0.571 -0.1995  0.5190  0.4224
  126SOL    HW1  377   2.458   1.554   0.508  1.2879  5.1708  1.1293
  126SOL    HW2  378   2.463   1.600   0.666  0.1252  0.1476 -1.3755
  127SOL     OW  379   0.066   1.900   1.688 -0.4984 -0.4093  0.3567
  127SOL    HW1  380   0.058   1.897   1.584 -0.9932 -0.8457 -0.3167
  127SOL    HW2  381   0.052   1.997   1.719  1.5969  0.8639  1.0172
  128SOL     OW  382   0.790   0.741   2.473  0.3153  0.2307  0.6694
  128SOL    HW1  383   0.736   0.736   2.388  1.3176  0.0763  2.3179
  128SOL    HW2  384   0.890   0.711   2.455  1.5560 -0.2609  0.0100
  129SOL     OW  385   2.648   0.905   1.025  1.2573  0.1525 -0.6505
  129SOL    HW1  386   2.710   0.956   1.084 -1.6401 -1.4596 -1.8963
  129SOL    HW2  387   2.592   0.836   1.079 -2.0656 -1.8968  0.4802
  130SOL     OW  388   2.401   1.534   1.519 -0.0778 -0.4400 -0.1981
  130SOL    HW1  389   2.482   1.500   1.465 -3.5412 -1.5805 -1.5643
  130SOL    HW2  390   2.400   1.637   1.524 -1.0729  2.4012 -1.6872
  131SOL     OW  391   2.732   0.812   2.936  0.1044 -0.1453 -0.2320
  131SOL    HW1  392   2.809   0.874   2.940 -3.0493  0.1009 -0.1904
  131SOL    HW2  393   2.755   0.722   2.895 -1.7380 -1.0769 -0.9770
  132SOL     OW  394   2.568   2.122   1.973 -0.3066  0.1043 -0.5514
  132SOL    HW1  395   2.474   2.147   1.936 -0.4049  0.4905 -0.4402
  132SOL    HW2  396   2.562   2.045   2.037 -0.0791  1.2969 -1.7281
  133SOL     OW  397   0.577   1.161   0.855 -0.3673  0.5461  0.3634
  133SOL    HW1  398   0.498   1.219   0.842  2.6972 -1.4316  0.8826
  133SOL    HW2  399   0.591   1.161   0.953 -2.3723  1.1194 -1.2304
  134SOL     OW  400   0.234   1.297   0.099  0.6697 -0.3794 -0.1213
  134SOL    HW1  401   0.137   1.340   0.099 -3.0129  1.1524  0.1796
  134SOL    HW2  402   0.262   1.279   0.002  1.4950  0.5344 -2.0697
  135SOL     OW  403   2.147   1.528   1.142  0.1242 -0.0848 -0.3020
  135SOL    HW1  404   2.193   1.454   1.198 -2.9761 -0.9518  2.7105
  135SOL    HW2  405   2.055   1.499   1.122  2.6526 -2.2412  1.9742
  136SOL     OW  406   2.392   1.098   0.622  0.1151  0.4462 -0.5131
  136SOL    HW1  407   2.471   1.083   0.561  2.6421 -0.0256  2.3546
  136SOL    HW2  408   2.300   1.077   0.581 -3.0816 -0.0599  2.9828
  137SOL     OW  409   2.699   1.836   0.897  0.8755 -0.1358 -1.1829
  137SOL    HW1  410   2.664   1.901   0.970 -1.6392  2.7564 -2.7876
  137SOL    HW2  411   2.773   1.779   0.931 -3.3426  0.9837  3.2512
  138SOL     OW  412   1.673   0.378   1.363 -0.2957  0.1228 -0.4652
  138SOL    HW1  413   1.748   0.307   1.370  1.2470 -2.3523  0.5942
  138SOL    HW2  414   1.584   0.326   1.382 -0.3300 -1.5060  0.5381
  139SOL     OW  415   2.240   2.989   2.763  0.1049 -0.2096  0.1570
  139SOL    HW1  416   2.168   3.026   2.705  3.2946  0.7975  3.9935
  139SOL    HW2  417   2.207   2.902   2.810  0.7941 -0.0803  0.2588
  140SOL     OW  418   1.620   1.786   2.135 -0.4347  0.2050  0.1016
  140SOL    HW1  419   1.539   1.809   2.083  0.2598 -0.7279 -0.1331
  140SOL    HW2  420   1.667   1.706   2.099 -0.4630  0.9981 -0.6932
  141SOL     OW  421   1.905   1.847   1.058  0.0018 -0.4332 -0.2930
  141SOL    HW1  422   1.985   1.903   1.095  3.3476  1.4405  0.4246
  141SOL    HW2  423   1.864   1.803   1.137  1.8027  0.7063 -3.1160
  142SOL     OW  424   3.074   0.715   0.119  0.4418 -0.0809 -0.3559
  142SOL    HW1  425   3.050   0.620   0.086 -0.3916  1.2228  0.5555
  142SOL    HW2  426   3.064   0.725   0.221  0.8280 -0.2137 -0.3463
  143SOL     OW  427   0.455   2.269   3.078 -0.2642  0.2210  0.1231
  143SOL    HW1  428   0.427   2.179   0.038  0.1108 -0.1720 -0.6470
  143SOL    HW2  429   0.524   2.250   3.002  0.2600 -0.1098 -0.7785
  144SOL     OW  430   0.955   2.920   1.840  0.6504  0.0074 -0.0158
  144SOL    HW1  431   0.961   2.922   1.736 -2.3675  1.3399  1.3174
  144SOL    HW2  432   1.009   2.842   1.875  0.2811  3.9844 -0.2771
  145SOL     OW  433   2.118   1.423   0.342 -0.0894 -0.4809 -0.8670
  145SOL    HW1  434   2.036   1.483   0.316 -0.0796 -1.0232 -0.3406
  145SOL    HW2  435   2.209   1.465   0.339  1.9039 -2.5387 -0.9278
  146SOL     OW  436   2.454   0.050   2.877  0.2538  0.0675 -0.0372
  146SOL    HW1  437   2.367   0.006   2.845  1.6200  1.5321  2.9915
  146SOL    HW2  438   2.529   3.063   2.877 -0.1463 -0.5086  0.8915
  147SOL     OW  439   2.801   2.578   1.166 -0.0288 -0.2634 -0.1230
  147SOL    HW1  440   2.715   2.574   1.112 -0.3507 -0.8491  0.0442
  147SOL    HW2  441   2.808   2.648   1.238 -1.7245 -2.4003  0.4358
  148SOL     OW  442   1.540   2.828   2.719 -0.2337  0.0286  0.0230
  148SOL    HW1  443   1.499   2.741   2.742 -0.6226 -1.5130 -2.7198
  148SOL    HW2  444   1.469   2.901   2.707  1.2706  1.8631 -1.4243
  149SOL     OW  445   1.070   0.449   2.442  0.6909 -0.2199  0.2982
  149SOL    HW1  446   1.157   0.400   2.461 -1.5642 -2.0957  2.7635
  149SOL    HW2  447   0.996   0.399   2.493  0.7180 -0.3843 -0.9088
  150SOL     OW  448   0.827   2.925   0.635 -0.6412 -0.0851  0.3067
  150SOL    HW1  449   0.817   2.845   0.570 -1.5076  2.0271 -1.3533
  150SOL    HW2  450   0.754   2.919   0.707 -0.1789  3.1235 -0.3493
  151SOL     OW  451   2.995   1.769   0.102 -0.0751  0.3931  0.2416
  151SOL    HW1  452   2.917   1.759   0.041  1.0946 -0.8987  0.7920
  151SOL    HW2  453   0.000   1.743   0.056 -1.5502  3.7265 -0.5833
  152SOL     OW  454   0.247   1.000   0.807 -0.2029  0.4205 -0.6620
  152SOL    HW1  455   0.251   1.067   0.733  0.9616 -0.1266 -0.5818
  152SOL    HW2  456   0.227   0.903   0.777  0.9947 -1.8784  0.3855
  153SOL     OW  457   2.127   2.829   0.400 -0.9337  0.4508  0.3010
  153SOL    HW1  458   2.129   2.921   0.362 -0.7778 -1.5279  0.4189
  153SOL    HW2  459   2.092   2.761   0.335 -0.0182  1.7554  1.3525
  154SOL     OW  460   0.781   0.439   1.531  0.2911 -0.2732 -0.1057
  154SOL    HW1  461   0.874   0.399   1.538  3.7428 -1.7737 -2.6541
  154SOL    HW2  462   0.738   0.450   1.619  1.8207 -2.0774  0.9992
  155SOL     OW  463   2.964   1.958   1.052 -0.6628 -0.1669 -0.2891
  155SOL    HW1  464   2.957   1.857   1.056  1.3089  0.0388  1.0280
  155SOL    HW2  465   2.983   1.980   0.954  2.2308 -1.8013 -0.7609
  156SOL     OW  466   2.184   2.225   0.160  0.2261  0.0335 -0.2756
  156SOL    HW1  467   2.261   2.202   0.224  4.2687 -1.2795 -2.0234
  156SOL    HW2  468   2.227   2.256   0.075 -0.3915 -1.9606  1.7114
  157SOL     OW  469   0.963   2.771   0.880 -0.6311  0.6032 -0.5418
  157SOL    HW1  470   0.905   2.684   0.872 -0.7493 -1.0736 -1.5272
  157SOL    HW2  471   1.016   2.783   0.792  0.3833  2.2357  0.4785
  158SOL     OW  472   2.491   0.623   2.345 -0.2271 -0.0144  0.0297
  158SOL    HW1  473   2.408   0.678   2.369 -0.6156 -0.0623  2.6920
  158SOL    HW2  474   2.565   0.692   2.342  0.5434 -0.5522 -0.1344
  159SOL     OW  475   0.725   0.502   3.034  0.5530  0.5489 -0.6015
  159SOL    HW1  476   0.750   0.590   0.001  2.4269  3.3073 -1.0393
  159SOL    HW2  477   0.631   0.507   3.005  0.5475 -0.3047  0.5600
  160SOL     OW  478   0.746   2.011   0.054  0.3924  0.1389  0.0479
  160SOL    HW1  479   0.718   2.099   0.104 -2.9715 -0.5584 -0.5143
  160SOL    HW2  480   0.843   1.994   0.081  0.8491 -0.5549 -0.8168
  161SOL     OW  481   3.018   2.029   2.865 -0.4114 -0.2627  0.0008
  161SOL    HW1  482   3.080   2.071   2.793  1.2866  1.4162  0.6159
  161SOL    HW2  483   3.012   2.087   2.948  1.6828  0.3254 -1.6223
  162SOL     OW  484   0.253   2.825   1.263 -0.5326  0.8686  0.2927
  162SOL    HW1  485   0.203   2.736   1.237 -0.9873 -5.6891 -2.1883
  162SOL    HW2  486   0.186   2.900   1.278  2.1989 -0.4253 -1.5646
  163SOL     OW  487   2.231   0.396   2.901  0.4018  0.0994 -0.2295
  163SOL    HW1  488   2.304   0.446   2.953  2.0362  2.3116 -0.7641
  163SOL    HW2  489   2.150   0.362   2.959 -2.1644  0.9013  0.0650
  164SOL     OW  490   2.999   2.075   0.819  0.0819  0.4289 -0.3596
  164SOL    HW1  491   3.055   2.113   0.742  0.6767  1.4862 -2.0015
  164SOL    HW2  492   2.957   2.157   0.866 -0.9138  0.1380  0.3443
  165SOL     OW  493   2.842   2.946   1.595  0.2667 -0.3920 -0.7919
  165SOL    HW1  494   2.885   3.036   1.626 -0.0402  1.3741 -0.4395
  165SOL    HW2  495   2.758   2.965   1.541  1.7591  1.2325  0.7811
  166SOL     OW  496   2.198   0.315   0.680 -0.0839  0.3775 -0.6280
  166SOL    HW1  497   2.189   0.400   0.733 -2.9890  1.1235 -2.1860
  166SOL    HW2  498   2.222   0.230   0.735 -1.5052 -1.3636 -0.5340
  167SOL     OW  499   0.473   0.438   0.904 -0.0333 -0.3867  0.4153
  167SOL    HW1  500   0.535   0.403   0.979  0.0370  0.8449 -1.7077
  167SOL    HW2  501   0.497   0.403   0.811 -1.2679 -2.5994 -0.9352
  168SOL     OW  502   2.107   2.872   1.948 -0.1428  0.4151 -0.7183
  168SOL    HW1  503   2.097   2.818   2.036  1.2559 -1.3493 -0.7630
  168SOL    HW2  504   2.163   2.819   1.880  0.6392  2.1895  0.8474
  169SOL     OW  505   0.163   1.319   0.694  0.3800 -0.9106  0.5571
  169SOL    HW1  506   0.228   1.315   0.767 -1.5874 -2.0282 -1.1098
  169SOL    HW2  507   0.145   1.416   0.673  1.4074  0.2719  0.0807
  170SOL     OW  508   2.586   0.730   1.235 -0.0837 -0.1166  0.4469
  170SOL    HW1  509   2.537   0.646   1.256  2.2274 -0.3346  0.9446
  170SOL    HW2  510   2.551   0.817   1.285 -1.0174  1.6431  2.0982
  171SOL     OW  511   1.181   2.472   1.615  0.3639  0.4591  0.6334
  171SOL    HW1  512   1.219   2.377   1.609  1.2580 -0.1272  0.4132
  171SOL    HW2  513   1.117   2.490   1.540 -0.1947  0.4933 -1.2023
  172SOL     OW  514   0.249   2.450   1.344  0.3429  0.5389 -0.1122
  172SOL    HW1  515   0.339   2.448   1.395  2.2081  1.6456 -0.3125
  172SOL    HW2  516   0.197   2.527   1.382  0.6516  0.3701  0.4235
  173SOL     OW  517   1.565   0.208   3.022 -0.2344  0.2527 -0.1438
  173SOL    HW1  518   1.572   0.168   2.928 -2.3447  2.3916 -1.4921
  173SOL    HW2  519   1.525   0.299   3.017 -0.3753 -2.1803  1.2665
  174SOL     OW  520   1.213   2.660   3.001 -0.3757 -0.1136 -0.7299
  174SOL    HW1  521   1.186   2.567   2.968 -0.5586 -0.8063  0.6572
  174SOL    HW2  522   1.176   2.680   0.011  1.2388 -1.2203  1.4231
  175SOL     OW  523   1.556   2.543   0.164  0.3192 -0.7916 -0.5851
  175SOL    HW1  524   1.555   2.624   0.107  0.0671 -0.7161  0.7225
  175SOL    HW2  525   1.612   2.559   0.245 -2.8348 -0.1054 -1.5406
  176SOL     OW  526   1.566   0.100   2.773  0.3199 -0.0210  0.3281
  176SOL    HW1  527   1.646   0.051   2.735 -0.1224 -0.6534 -2.2159
  176SOL    HW2  528   1.480   0.057   2.733  0.3297 -1.6144  0.8268
  177SOL     OW  529   0.939   1.540   0.767  0.2731 -0.2939 -0.0679
  177SOL    HW1  530   1.032   1.558   0.811  0.5561 -0.5284  0.9213
  177SOL    HW2  531   0.940   1.591   0.676  0.9385 -0.1320  0.2772
  178SOL     OW  532   2.840   1.578   2.313  0.0180  0.0981  0.5165
  178SOL    HW1  533   2.867   1.513   2.240  1.2861  1.3362 -0.4552
  178SOL    HW2  534   2.917   1.638   2.345  1.8393  0.3855  1.4832
  179SOL     OW  535   0.461   2.611   2.753  0.1071  0.2061  0.1956
  179SOL    HW1  536   0.410   2.587   2.669  0.2124  0.5030  0.6709
  179SOL    HW2  537   0.543   2.665   2.739 -1.8183  1.5607  0.2468
  180SOL     OW  538   1.908   1.875   1.802  0.2438  0.3212 -0.3767
  180SOL    HW1  539   1.944   1.876   1.898  1.9240 -0.0702 -0.2552
  180SOL    HW2  540   1.807   1.861   1.805 -3.4341 -0.5112 -0.0903
  181SOL     OW  541   1.039   1.170   2.296  0.2046  0.2787 -0.1670
  181SOL    HW1  542   1.117   1.145   2.359 -2.3960  0.8409 -1.6544
  181SOL    HW2  543   1.049   1.268   2.264  1.2364  1.5872  0.3718
  182SOL     OW  544   0.106   0.331   2.635  0.5745  0.4621 -0.3384
  182SOL    HW1  545   0.041   0.375   2.566 -4.6090  0.4214  0.2626
  182SOL    HW2  546   0.198   0.319   2.599 -1.2728  1.0906  1.2203
  183SOL     OW  547   1.226   0.432   2.763  0.1538  0.6853  0.1174
  183SOL    HW1  548   1.250   0.389   2.676  0.5838  1.2212  2.6859
  183SOL    HW2  549   1.309   0.477   2.799 -0.0604 -0.6456 -0.8967
  184SOL     OW  550   1.044   1.245   1.344  0.0696  0.0203 -0.4455
  184SOL    HW1  551   0.979   1.167   1.357 -1.1543  0.4953  0.4927
  184SOL    HW2  552   1.050   1.275   1.245 -1.9608 -0.5552  1.6687
  185SOL     OW  553   2.828   1.223   1.187  0.0884  0.0277 -0.1251
  185SOL    HW1  554   2.890   1.288   1.238  0.2560 -1.4762  0.1384
  185SOL    HW2  555   2.773   1.170   1.257  2.3234 -0.4759 -0.1794
  186SOL     OW  556   0.697   1.610   2.588  0.0027  0.6757  0.1775
  186SOL    HW1  557   0.773   1.580   2.530  5.8804  1.4991  2.7369
  186SOL    HW2  558   0.620   1.647   2.533 -0.2355  0.6146 -0.1979
  187SOL     OW  559   2.760   1.503   0.119 -0.2048  0.3067 -0.8157
  187SOL    HW1  560   2.740   1.402   0.106  3.5282 -0.8372  0.3936
  187SOL    HW2  561   2.736   1.534   0.213  2.0358 -1.2762  3.2724
  188SOL     OW  562   0.077   2.262   0.653  0.2389  0.0556  0.1187
  188SOL    HW1  563   0.107   2.318   0.730 -2.4581  0.0930  0.1816
  188SOL    HW2  564   0.146   2.191   0.641  0.4348  0.0313  3.5331
  189SOL     OW  565   2.540   0.852   0.057 -0.5685 -0.2466 -0.2556
  189SOL    HW1  566   2.605   0.838   3.065  0.0744 -1.8337  2.9310
  189SOL    HW2  567   2.586   0.817   0.141  2.1837 -0.3007 -2.9055
  190SOL     OW  568   1.096   1.436   2.208  0.0773  0.1224  0.2319
  190SOL    HW1  569   1.189   1.451   2.239 -0.2635 -1.4689  1.4907
  190SOL    HW2  570   1.073   1.476   2.115  0.5974 -2.3467  0.7751
  191SOL     OW  571   2.208   0.263   1.854 -0.6215 -0.2149 -0.2111
  191SOL    HW1  572   2.285   0.293   1.788 -0.8021  0.8866 -0.1876
  191SOL    HW2  573   2.193   0.162   1.846 -0.1528  1.2955  0.2448
  192SOL     OW  574   1.949   0.325   1.610  0.7320  0.1684 -0.1234
  192SOL    HW1  575   1.848   0.347   1.622 -3.6821  1.3956  1.5523
  192SOL    HW2  576   1.990   0.341   1.707  1.4644  2.4001  4.4862
  193SOL     OW  577   0.630   0.627   0.628  0.5280  0.3918  0.2046
  193SOL    HW1  578   0.657   0.635   0.726  0.3598  0.1919 -2.0125
  193SOL    HW2  579   0.674   0.697   0.570 -0.8982 -2.0936 -0.1209
  194SOL     OW  580   1.184   3.062   1.112 -0.6375 -0.5384  0.6199
  194SOL    HW1  581   1.284   3.076   1.110 -0.9590  0.5376  1.5291
  194SOL    HW2  582   1.132   0.047   1.166  1.1391  1.8470 -1.2830
  195SOL     OW  583   2.633   1.026   0.339  0.0399  0.8474  0.9581
  195SOL    HW1  584   2.702   1.048   0.263  2.6529  1.7710 -0.3523
  195SOL    HW2  585   2.581   0.946   0.304  1.3410 -1.4937 -0.6444
  196SOL     OW  586   1.471   1.638   1.667 -0.1720  0.3392  0.1906
  196SOL    HW1  587   1.543   1.570   1.690 -0.1749  0.0999 -1.3479
  196SOL    HW2  588   1.390   1.631   1.726 -0.5666  0.0176 -3.1608
  197SOL     OW  589   0.084   2.975   0.385  0.3538 -0.5705 -0.5121
  197SOL    HW1  590   0.068   2.876   0.369 -3.9153  0.9505 -0.9102
  197SOL    HW2  591   0.164   2.987   0.443  0.3948  1.5159 -0.7275
  198SOL     OW  592   0.986   1.313   0.637 -0.1371 -1.0329 -0.5523
  198SOL    HW1  593   0.970   1.402   0.686 -0.0948 -0.5949 -0.2505
  198SOL    HW2  594   0.899   1.260   0.642  1.8194 -0.2608  0.9099
  199SOL     OW  595   0.010   0.556   1.878 -0.2523 -0.7388 -0.4781
  199SOL    HW1  596   3.026   0.574   1.954 -2.9133  0.8181 -0.1314
  199SOL    HW2  597   0.067   0.637   1.853  1.3246 -2.7608 -1.4802
  200SOL     OW  598   2.284   2.023   2.744  0.7874  0.1700  0.0879
  200SOL    HW1  599   2.274   1.931   2.692  1.0510 -2.8895 -1.8806
  200SOL    HW2  600   2.279   2.013   2.844 -0.5849 -2.5298 -0.1924
  201SOL     OW  601   2.433   2.878   0.794  0.1527 -0.6646 -0.0883
  201SOL    HW1  602   2.465   2.957   0.737 -1.5164  0.7552 -0.2747
  201SOL    HW2  603   2.412   2.791   0.742 -1.6226  1.7497  1.0459
  202SOL     OW  604   2.750   0.526   0.122  0.2733  0.3371 -0.2176
  202SOL    HW1  605   2.677   0.457   0.098 -0.6044 -1.0638  1.0057
  202SOL    HW2  606   2.844   0.495   0.086  3.3920 -1.0363 -2.1417
  203SOL     OW  607   1.359   1.447   2.237 -0.0974  0.2244  0.7658
  203SOL    HW1  608   1.379   1.425   2.139  0.7815 -0.6787 -0.5642
  203SOL    HW2  609   1.397   1.377   2.298  0.5306  0.5319 -4.2521
  204SOL     OW  610   0.825   1.675   2.090 -0.2670  0.4790 -0.3550
  204SOL    HW1  611   0.832   1.731   2.174 -0.3208  0.2532  0.4741
  204SOL    HW2  612   0.721   1.678   2.061 -0.7034  0.7571 -0.7055
  205SOL     OW  613   1.375   1.950   1.613  0.3883  0.3404 -0.0984
  205SOL    HW1  614   1.303   1.878   1.610 -2.3320  1.7775  0.3064
  205SOL    HW2  615   1.431   1.947   1.699  1.1407  1.1147  0.1709
  206SOL     OW  616   0.135   0.539   2.817 -0.8917  0.1442  0.1897
  206SOL    HW1  617   0.146   0.462   2.749 -0.6722 -0.9150  0.6746
  206SOL    HW2  618   0.097   0.624   2.771  0.8955  1.2927 -0.4941
  207SOL     OW  619   1.810   2.823   2.302  0.3062  0.1113  0.6237
  207SOL    HW1  620   1.781   2.774   2.214 -1.1080 -1.8107 -4.1837
  207SOL    HW2  621   1.899   2.868   2.286  0.0073  1.2286  0.2020
  208SOL     OW  622   0.366   2.279   1.779 -0.1868 -0.0914  0.2220
  208SOL    HW1  623   0.415   2.221   1.712  1.8982  0.6196 -1.8191
  208SOL    HW2  624   0.353   2.376   1.745  0.4231  1.4505 -0.5729
  209SOL     OW  625   1.762   0.835   2.803  1.2390  0.2821 -0.3995
  209SOL    HW1  626   1.710   0.864   2.717 -3.4406  0.4749 -2.0551
  209SOL    HW2  627   1.793   0.739   2.802  0.1888  0.9884 -3.0190
  210SOL     OW  628   2.628   0.733   0.547  0.3069 -0.4363 -0.0679
  210SOL    HW1  629   2.672   0.824   0.564 -2.0839  2.1301 -3.6358
  210SOL    HW2  630   2.604   0.701   0.644  1.0545 -1.6842 -1.6429
  211SOL     OW  631   0.776   0.704   0.860  0.0874 -0.0875 -0.2762
  211SOL    HW1  632   0.792   0.805   0.853 -1.6728  1.2653 -0.8132
  211SOL    HW2  633   0.739   0.685   0.954 -1.8383  1.0920  2.4206
  212SOL     OW  634   1.167   1.510   0.380 -0.1997  0.9315  0.6132
  212SOL    HW1  635   1.157   1.410   0.364  1.9114 -1.1256 -2.3246
  212SOL    HW2  636   1.219   1.555   0.303  0.1843  1.6471  2.6710
  213SOL     OW  637   1.278   2.978   1.730 -0.1470  0.1711 -0.3822
  213SOL    HW1  638   1.271   3.039   1.648 -0.6691  3.2786  0.1571
  213SOL    HW2  639   1.341   3.028   1.795  1.4091  0.8153  0.8472
  214SOL     OW  640   1.489   1.255   2.391  0.8017 -0.0870 -0.0562
  214SOL    HW1  641   1.407   1.203   2.363  1.4321  0.1421  2.1318
  214SOL    HW2  642   1.496   1.269   2.490 -0.4341 -0.1020 -0.6434
  215SOL     OW  643   0.500   1.584   1.171 -0.0256 -0.0176 -0.1523
  215SOL    HW1  644   0.480   1.482   1.156 -1.5236 -5.3707  1.0032
  215SOL    HW2  645   0.447   1.636   1.102  2.3937 -2.3879 -2.7540
  216SOL     OW  646   0.555   2.887   2.385  0.0410  0.0214 -0.1386
  216SOL    HW1  647   0.567   2.936   2.295 -0.1363 -0.9036 -1.3567
  216SOL    HW2  648   0.604   2.932   2.463  0.7562 -0.0729  0.4639
  217SOL     OW  649   2.344   0.706   3.059  0.0246 -0.1818  0.1077
  217SOL    HW1  650   2.356   0.629   0.040  1.9904 -1.1061 -3.7107
  217SOL    HW2  651   2.417   0.778   3.071  1.0659  4.7640 -1.5190
  218SOL     OW  652   2.073   1.616   2.062 -0.3652  0.0119  0.5590
  218SOL    HW1  653   2.158   1.571   2.092 -1.3549 -1.5279 -0.3181
  218SOL    HW2  654   2.088   1.717   2.047  2.3990 -1.0195 -0.0091
  219SOL     OW  655   1.582   1.061   0.337 -0.2036 -0.4235 -0.7126
  219SOL    HW1  656   1.533   1.149   0.345  0.9714  0.3115 -0.7633
  219SOL    HW2  657   1.635   1.064   0.252 -3.7507 -1.9799  1.9420
  220SOL     OW  658   1.523   1.685   1.119 -0.5324 -0.8716  0.1073
  220SOL    HW1  659   1.534   1.786   1.102  2.5206  0.8082  0.8499
  220SOL    HW2  660   1.523   1.639   1.030  1.4267  0.2232 -1.9458
  221SOL     OW  661   0.476   0.544   2.901 -0.6340  0.3876 -0.5947
  221SOL    HW1  662   0.508   0.523   2.804 -0.0114  0.5080 -2.2514
  221SOL    HW2  663   0.425   0.634   2.904 -1.6553  1.7500 -2.1284
  222SOL     OW  664   1.241   2.182   1.670 -0.0825  0.4016  0.3483
  222SOL    HW1  665   1.180   2.108   1.625 -0.5165 -2.6538 -0.5989
  222SOL    HW2  666   1.336   2.149   1.657  1.8957  2.2405 -0.8369
  223SOL     OW  667   1.415   2.609   2.812 -0.5437 -0.0265  0.2416
  223SOL    HW1  668   1.480   2.545   2.863 -0.9674 -0.5360  0.4220
  223SOL    HW2  669   1.343   2.639   2.876  2.1361 -0.0057  1.3424
  224SOL     OW  670   2.614   1.307   1.051  0.3294 -0.0100 -0.5765
  224SOL    HW1  671   2.705   1.279   1.094 -1.0018  3.1205  0.2349
  224SOL    HW2  672   2.607   1.289   0.952  2.2149  1.3092  1.0904
  225SOL     OW  673   1.346   1.156   1.161  0.0988 -0.1836  0.0154
  225SOL    HW1  674   1.324   1.179   1.261 -0.4760  0.0261  1.4775
  225SOL    HW2  675   1.423   1.092   1.149 -0.8808 -0.8917  0.4320
  226SOL     OW  676   1.554   2.418   2.910 -0.2912 -0.5074 -0.1201
  226SOL    HW1  677   1.653   2.420   2.941  0.6167  2.8252 -2.6889
  226SOL    HW2  678   1.502   2.332   2.915  1.7782 -0.3955 -0.9214
  227SOL     OW  679   1.068   2.112   1.191 -0.2138  0.0462 -0.2803
  227SOL    HW1  680   0.966   2.112   1.199  0.5555  2.1462  0.3854
  227SOL    HW2  681   1.100   2.211   1.195  4.4070  4.5107 -1.7129
  228SOL     OW  682   0.416   2.129   1.191  0.0678  0.0979  0.0257
  228SOL    HW1  683   0.358   2.155   1.276 -2.4268 -0.3789  3.8240
  228SOL    HW2  684   0.357   2.110   1.107 -0.7406 -2.8184  0.8027
  229SOL     OW  685   2.072   0.773   2.986 -0.4820  0.2650  0.0223
  229SOL    HW1  686   2.167   0.758   3.023  0.0564  1.4136  1.2252
  229SOL    HW2  687   2.007   0.696   3.000  2.0568  3.5040  0.2648
  230SOL     OW  688   0.905   0.938   1.957  0.0409  0.1559  0.3607
  230SOL    HW1  689   0.830   0.982   2.006  0.9960 -2.2800 -0.2772
  230SOL    HW2  690   1.001   0.952   1.996  2.1057 -0.0538 -2.1083
  231SOL     OW  691   1.369   1.880   1.990 -0.3687 -0.0599 -0.0712
  231SOL    HW1  692   1.331   1.802   1.942 -0.8938  0.7309 -2.5160
  231SOL    HW2  693   1.300   1.905   2.058  1.8279  1.1947  0.6707
  232SOL     OW  694   2.130   2.239   1.491 -0.0901 -0.7468  0.5916
  232SOL    HW1  695   2.089   2.161   1.547 -1.1796 -1.1802 -0.8543
  232SOL    HW2  696   2.064   2.317   1.479 -1.9864  1.0494 -4.3181
  233SOL     OW  697   1.815   2.402   2.622 -0.1206 -0.5858  0.4237
  233SOL    HW1  698   1.878   2.368   2.693  0.0305  1.4240 -2.1230
  233SOL    HW2  699   1.848   2.493   2.590  1.3655  0.7925  1.2950
  234SOL     OW  700   1.255   2.959   2.906 -0.2524 -0.1120  0.3659
  234SOL    HW1  701   1.267   2.869   2.954  0.4759  0.4244 -1.2759
  234SOL    HW2  702   1.156   2.985   2.911  3.3596  1.3639  0.2599
  235SOL     OW  703   2.407   2.793   3.052  0.0001  0.2117  0.6632
  235SOL    HW1  704   2.482   2.769   2.985 -1.8764  1.5835 -2.4598
  235SOL    HW2  705   2.436   2.798   0.065 -0.1984  0.8269 -4.0833
  236SOL     OW  706   2.215   2.590   2.618 -0.2355 -0.6240  0.4678
  236SOL    HW1  707   2.218   2.527   2.533 -0.2639 -1.7298 -3.6276
  236SOL    HW2  708   2.283   2.666   2.617  0.3030 -0.8589 -2.8583
  237SOL     OW  709   1.510   1.087   1.543 -0.0319 -0.3992  0.3878
  237SOL    HW1  710   1.505   0.988   1.559 -0.4180  1.3008  1.3379
  237SOL    HW2  711   1.427   1.128   1.503  2.2313  1.6031 -1.0991
  238SOL     OW  712   2.055   0.110   2.132 -0.6301  0.3160  0.6172
  238SOL    HW1  713   2.155   0.135   2.143 -0.2393  1.1122 -1.1360
  238SOL    HW2  714   2.038   0.014   2.157 -1.3174 -0.3616  0.2829
  239SOL     OW  715   0.561   1.674   2.052  0.3947  0.3552 -0.4292
  239SOL    HW1  716   0.494   1.643   1.981  0.0018 -2.2975 -1.4863
  239SOL    HW2  717   0.509   1.737   2.122  1.3732  2.3358  3.6466
  240SOL     OW  718   2.955   2.745   0.811  0.3886 -0.3051  0.0224
  240SOL    HW1  719   3.054   2.714   0.790  1.0300 -1.9036 -3.0120
  240SOL    HW2  720   2.898   2.662   0.815 -0.4167  0.1801  2.8601
  241SOL     OW  721   1.775   2.069   0.952  0.2548 -0.2686  0.2103
  241SOL    HW1  722   1.824   1.988   0.995 -0.6797 -1.0025 -1.3449
  241SOL    HW2  723   1.789   2.076   0.850 -0.4608  1.5881 -1.4530
  242SOL     OW  724   1.300   1.818   3.036 -0.4243  0.6943  0.3954
  242SOL    HW1  725   1.399   1.781   3.011  2.0642 -1.0488 -0.5087
  242SOL    HW2  726   1.292   1.914   3.001 -1.5827 -1.5173  1.1483
  243SOL     OW  727   0.987   2.726   2.286 -0.1558 -0.0915  0.7275
  243SOL    HW1  728   0.914   2.696   2.222 -1.4863  1.1761  0.0446
  243SOL    HW2  729   1.023   2.649   2.342 -2.9992  2.6491  1.2668
  244SOL     OW  730   1.824   0.020   2.630 -0.5480 -0.3183 -0.5193
  244SOL    HW1  731   1.867   3.010   2.645  1.5761  0.7714 -1.1742
  244SOL    HW2  732   1.899   0.086   2.615  0.8459 -0.0813  2.3476
  245SOL     OW  733   1.154   2.775   0.659 -0.1502 -0.1065  0.0235
  245SOL    HW1  734   1.238   2.761   0.599  2.6291 -0.8503 -0.8660
  245SOL    HW2  735   1.179   2.850   0.723  1.6405  0.1206  0.3137
  246SOL     OW  736   1.001   3.057   2.976 -0.3466 -0.5695 -0.3241
  246SOL    HW1  737   0.904   3.021   2.998 -0.0803  2.6654  0.0569
  246SOL    HW2  738   1.029   0.046   3.045 -0.1112 -0.1066 -1.4540
  247SOL     OW  739   0.239   0.692   2.080 -0.1759 -0.0048 -0.0728
  247SOL    HW1  740   0.233   0.710   1.976 -0.5443 -0.0349 -0.9431
  247SOL    HW2  741   0.292   0.606   2.094  0.0738 -0.3722 -0.0987
  248SOL     OW  742   0.713   1.094   2.064 -0.2449  0.2443  0.3368
  248SOL    HW1  743   0.744   1.082   2.165  1.1274  0.2454  1.2714
  248SOL    HW2  744   0.678   1.192   2.050 -0.4631  2.0062 -1.2343
  249SOL     OW  745   2.128   0.490   0.238  0.0448 -0.3360 -0.1885
  249SOL    HW1  746   2.187   0.419   0.201 -1.9947  1.7802  0.2795
  249SOL    HW2  747   2.034   0.463   0.258 -1.8781 -0.6045  0.7565
  250SOL     OW  748   0.711   0.190   0.476  0.4717  0.3810 -0.3816
  250SOL    HW1  749   0.657   0.098   0.479 -3.9393 -4.7522 -0.4291
  250SOL    HW2  750   0.711   0.225   0.380 -1.6518  0.3479 -2.4333
  251SOL     OW  751   1.372   3.039   2.676 -0.4065 -0.1546 -0.3053
  251SOL    HW1  752   1.323   3.032   2.770 -3.1568 -0.1942  2.9781
  251SOL    HW2  753   1.310   3.018   2.596  0.3207  0.6921 -2.2051
  252SOL     OW  754   1.807   1.368   2.282 -0.3348  1.0514 -0.1239
  252SOL    HW1  755   1.804   1.293   2.352  0.7962  0.2425  1.3004
  252SOL    HW2  756   1.810   1.332   2.190  2.7860 -0.2652  1.1312
  253SOL     OW  757   2.267   2.479   2.116 -0.5664 -0.7612 -0.1325
  253SOL    HW1  758   2.346   2.423   2.131 -2.6045 -1.3916 -1.4870
  253SOL    HW2  759   2.225   2.452   2.025 -1.9713 -2.3372  0.5958
  254SOL     OW  760   1.042   2.016   1.580 -1.0388 -0.0054 -0.8487
  254SOL    HW1  761   0.951   2.022   1.535 -2.0483 -0.8095  0.6890
  254SOL    HW2  762   1.045   1.951   1.656  0.2604 -0.0998 -2.0251
  255SOL     OW  763   1.108   1.078   0.766 -0.1657 -0.1806  0.2202
  255SOL    HW1  764   1.133   1.036   0.855  4.1240  0.3426  0.6357
  255SOL    HW2  765   1.083   1.176   0.775 -1.4887 -0.5115  1.1081
  256SOL     OW  766   1.731   2.008   2.227 -0.3991 -1.0146  0.0647
  256SOL    HW1  767   1.811   2.053   2.180  0.3943  0.1513  2.9307
  256SOL    HW2  768   1.707   1.919   2.183  2.1743  0.3608 -1.2588
  257SOL     OW  769   0.511   2.517   2.998  0.0419 -0.0958 -0.1642
  257SOL    HW1  770   0.478   2.527   2.901  0.6149 -0.9029 -0.7356
  257SOL    HW2  771   0.476   2.430   3.041 -0.0473 -1.7751  0.4181
  258SOL     OW  772   0.742   0.186   2.076 -0.4449 -0.0120 -0.5028
  258SOL    HW1  773   0.835   0.173   2.116 -1.7000 -1.2300 -1.5364
  258SOL    HW2  774   0.753   0.161   1.980 -2.5189  0.1945  2.7512
  259SOL     OW  775   0.978   0.123   2.203  0.1365  0.3712  0.3397
  259SOL    HW1  776   1.064   0.073   2.173  0.2197 -1.0426 -0.5372
  259SOL    HW2  777   0.998   0.221   2.205 -1.5797 -2.6250  0.8458
  260SOL     OW  778   1.610   0.680   0.888 -0.6069  0.6686 -0.1537
  260SOL    HW1  779   1.653   0.767   0.914 -0.3690 -0.5566 -1.0870
  260SOL    HW2  780   1.520   0.698   0.837 -0.0368 -0.7105  0.1522
  261SOL     OW  781   0.499   0.177   2.690  1.1462 -0.6376 -0.1074
  261SOL    HW1  782   0.446   0.122   2.762 -0.3705 -1.6219  0.4609
  261SOL    HW2  783   0.576   0.230   2.730 -2.5956 -0.8064 -1.5014
  262SOL     OW  784   2.598   2.745   2.206 -0.1113  0.2664 -0.0890
  262SOL    HW1  785   2.694   2.720   2.190 -1.4737 -1.0873  0.8641
  262SOL    HW2  786   2.590   2.844   2.217  0.3430 -1.4039 -2.2417
  263SOL     OW  787   0.346   2.008   2.359  0.2855  0.2291  0.1523
  263SOL    HW1  788   0.387   2.086   2.410  1.9785 -0.1877  0.3969
  263SOL    HW2  789   0.249   2.036   2.348  0.1967  1.0355 -0.8277
  264SOL     OW  790   0.885   1.160   1.057 -0.1426  0.0644 -0.4326
  264SOL    HW1  791   0.914   1.258   1.047 -0.4133 -0.2611 -1.3529
  264SOL    HW2  792   0.964   1.101   1.079 -0.8813 -0.9113  1.1956
  265SOL     OW  793   0.430   2.035   0.129 -0.1862  0.0722  0.4485
  265SOL    HW1  794   0.420   2.038   0.229  0.6222 -0.7145 -1.0168
  265SOL    HW2  795   0.448   1.938   0.106 -0.6796 -0.6683  0.6823
  266SOL     OW  796   1.088   0.995   0.395  0.4080  0.4032  0.4929
  266SOL    HW1  797   1.181   0.957   0.376  0.2856  0.6478 -2.0959
  266SOL    HW2  798   1.046   0.942   0.469  1.6482 -1.4416  0.8960
  267SOL     OW  799   2.845   1.128   0.127 -0.1280 -0.2736  0.0131
  267SOL    HW1  800   2.923   1.167   0.177 -1.5332 -2.5752 -1.2515
  267SOL    HW2  801   2.868   1.043   0.072  0.4146 -1.9799 -1.5735
  268SOL     OW  802   2.372   0.278   2.702 -0.6298 -0.7485 -0.1248
  268SOL    HW1  803   2.401   0.185   2.729 -1.4097  1.5971  2.6081
  268SOL    HW2  804   2.316   0.317   2.774  4.4075  0.3701 -0.5926
  269SOL     OW  805   1.518   0.454   2.501  0.1039  0.6499  0.3173
  269SOL    HW1  806   1.507   0.393   2.413 -1.6131 -0.5628 -0.6587
  269SOL    HW2  807   1.505   0.548   2.474 -2.1352  2.5756  0.0708
  270SOL     OW  808   0.868   1.202   2.632 -0.0751 -0.0797  0.8681
  270SOL    HW1  809   0.867   1.294   2.677  1.0267 -1.2569 -1.0927
  270SOL    HW2  810   0.951   1.152   2.667 -1.9335 -2.0543  1.0015
  271SOL     OW  811   2.786   1.339   0.542  0.3196  0.2230  0.0728
  271SOL    HW1  812   2.822   1.369   0.452 -2.3494 -2.1099 -2.1931
  271SOL    HW2  813   2.856   1.286   0.593  1.0026 -1.0053  0.7628
  272SOL     OW  814   2.849   1.542   2.754 -0.3116 -0.2726 -0.2482
  272SOL    HW1  815   2.773   1.547   2.686 -1.3906  0.4349 -0.6812
  272SOL    HW2  816   2.903   1.630   2.759 -0.2985  0.7074 -1.7952
  273SOL     OW  817   2.178   0.007   0.335 -0.7009  0.5209 -0.3393
  273SOL    HW1  818   2.228   0.079   0.384 -1.9227 -0.5315 -0.8250
  273SOL    HW2  819   2.204   0.006   0.237 -1.7219  0.5660  2.5535
  274SOL     OW  820   0.412   2.395   1.106 -0.0455  0.1167 -0.1874
  274SOL    HW1  821   0.451   2.303   1.130 -1.5463  1.4800 -2.9049
  274SOL    HW2  822   0.348   2.426   1.183 -0.7410  0.7145  1.1462
  275SOL     OW  823   2.378   1.517   0.312 -0.3790  0.4511 -0.2275
  275SOL    HW1  824   2.370   1.530   0.209 -0.5329 -0.9820 -2.5446
  275SOL    HW2  825   2.433   1.431   0.325  1.7197 -0.6711 -2.1226
  276SOL     OW  826   0.011   1.253   2.333  0.5612 -0.3194 -0.0137
  276SOL    HW1  827   0.083   1.198   2.367 -2.1245 -0.5733 -1.2222
  276SOL    HW2  828   3.011   1.202   2.293  1.3303  0.9088 -1.2049
  277SOL     OW  829   1.869   2.741   1.358  0.4763 -0.3878  0.1346
  277SOL    HW1  830   1.941   2.761   1.425 -0.0449  0.9963 -1.8325
  277SOL    HW2  831   1.900   2.774   1.268 -1.7531  0.7735 -1.4897
  278SOL     OW  832   1.159   3.082   2.049 -0.4035  0.3463  0.1030
  278SOL    HW1  833   1.093   3.030   1.993  1.0269 -0.4904 -1.2450
  278SOL    HW2  834   1.246   0.006   1.994  1.9965 -2.7472 -3.3790
  279SOL     OW  835   1.741   1.782   0.440  0.5196  0.3499  0.1364
  279SOL    HW1  836   1.720   1.779   0.539 -1.3387  1.1419 -1.3663
  279SOL    HW2  837   1.821   1.721   0.417 -0.7292 -0.5294 -0.0818
  280SOL     OW  838   0.468   1.583   0.827 -0.1477  1.0124 -0.2167
  280SOL    HW1  839   0.507   1.642   0.752 -2.4044  0.7270  0.6834
  280SOL    HW2  840   0.455   1.639   0.909  0.4459 -0.4149 -1.8191
  281SOL     OW  841   2.786   0.400   2.556  0.2340  0.1007  0.2140
  281SOL    HW1  842   2.696   0.379   2.504 -0.9299 -1.7063 -1.4975
  281SOL    HW2  843   2.799   0.318   2.616  0.2600  0.5560  1.6602
  282SOL     OW  844   0.355   1.051   0.559 -0.0748  0.2151  0.4815
  282SOL    HW1  845   0.407   0.985   0.626  2.9319 -0.7312  0.3198
  282SOL    HW2  846   0.325   1.009   0.471  1.5351  0.0916 -0.6354
  283SOL     OW  847   1.876   1.762   0.083 -0.0700 -0.3744  0.1439
  283SOL    HW1  848   1.787   1.793   0.118  0.0650  1.7219 -1.2891
  283SOL    HW2  849   1.944   1.833   0.068 -2.5020 -2.8629  1.5238
  284SOL     OW  850   1.373   0.872   0.320 -0.5767 -0.5512 -0.4002
  284SOL    HW1  851   1.346   0.852   0.222 -0.0279  2.4792 -1.1085
  284SOL    HW2  852   1.453   0.937   0.319 -1.1099 -0.0500 -0.6498
  285SOL     OW  853   2.321   0.808   2.397 -0.1130  0.0095 -0.2239
  285SOL    HW1  854   2.341   0.896   2.447 -0.3893 -0.4246  0.9674
  285SOL    HW2  855   2.224   0.799   2.372  1.5789 -0.6490 -1.1136
  286SOL     OW  856   1.602   2.686   1.419  0.4362  0.6470 -0.8045
  286SOL    HW1  857   1.614   2.618   1.497  0.7111 -2.1410  2.4857
  286SOL    HW2  858   1.700   2.709   1.388 -1.7412  0.6751  1.2700
  287SOL     OW  859   1.131   1.000   1.071 -0.3281  0.4786  0.1381
  287SOL    HW1  860   1.117   0.909   1.114 -1.6032 -1.4522  0.7500
  287SOL    HW2  861   1.207   1.052   1.121  2.2783  0.7224  4.7368
  288SOL     OW  862   0.948   2.770   3.065 -0.0923  0.2120 -0.3580
  288SOL    HW1  863   0.888   2.843   3.031  1.7852  0.7532  1.2062
  288SOL    HW2  864   1.022   2.806   0.041 -0.3203  0.8367 -0.0565
  289SOL     OW  865   0.421   1.568   1.842 -0.9951 -0.0918 -0.3101
  289SOL    HW1  866   0.504   1.553   1.783 -0.1552  0.2967 -0.7557
  289SOL    HW2  867   0.371   1.645   1.801 -1.4219 -1.3797 -1.5483
  290SOL     OW  868   1.727   2.314   1.067  0.6479 -0.5744 -0.8332
  290SOL    HW1  869   1.727   2.226   1.013 -0.9995  1.5766 -2.9089
  290SOL    HW2  870   1.646   2.375   1.053 -0.8926  1.2951  2.8377
  291SOL     OW  871   1.938   2.308   2.880  0.1143 -0.3507 -0.3489
  291SOL    HW1  872   1.869   2.343   2.946 -1.7501 -2.1374  2.3865
  291SOL    HW2  873   2.017   2.372   2.877 -0.6055  1.1940 -2.5411
  292SOL     OW  874   0.923   0.816   1.710 -0.2817 -0.2402  0.2935
  292SOL    HW1  875   0.926   0.859   1.803 -1.0199 -0.7382 -1.8232
  292SOL    HW2  876   0.961   0.873   1.631  2.7893  0.4850 -4.3411
  293SOL     OW  877   1.855   2.675   0.987 -0.1554 -0.2610  0.0681
  293SOL    HW1  878   1.763   2.717   0.968  1.4251  1.0913 -0.1592
  293SOL    HW2  879   1.911   2.724   1.055 -0.1260  0.9724  0.2434
  294SOL     OW  880   0.492   0.797   2.503  0.1873  0.6018 -0.2327
  294SOL    HW1  881   0.464   0.696   2.506 -0.8697  0.2711 -0.6396
  294SOL    HW2  882   0.596   0.800   2.489  1.3086  0.1930 -1.4853
  295SOL     OW  883   1.452   1.552   0.791  0.9294 -0.0549  0.4146
  295SOL    HW1  884   1.481   1.469   0.742  0.3649  1.6753 -1.2579
  295SOL    HW2  885   1.359   1.585   0.767  0.9435 -1.4781  1.1734
  296SOL     OW  886   2.366   2.118   0.332  0.0156 -0.3116 -0.0368
  296SOL    HW1  887   2.448   2.154   0.274  1.5386  2.5892  0.4625
  296SOL    HW2  888   2.358   2.014   0.335  0.6204 -1.5038 -0.3556
  297SOL     OW  889   2.257   3.056   0.085 -0.3280  0.3754 -0.2601
  297SOL    HW1  890   2.339   3.001   0.064 -1.1917  0.1832  1.6995
  297SOL    HW2  891   2.176   2.991   0.083 -1.3360  0.8170 -0.3484
  298SOL     OW  892   1.230   2.281   2.686 -0.1663  0.1931  0.1321
  298SOL    HW1  893   1.325   2.321   2.674  2.1664  1.1674  2.0687
  298SOL    HW2  894   1.174   2.326   2.761  1.7796  1.2946  0.3320
  299SOL     OW  895   1.345   2.523   2.559  0.4766  0.5407  0.2245
  299SOL    HW1  896   1.357   2.570   2.645 -1.6593 -0.5187 -2.7887
  299SOL    HW2  897   1.429   2.477   2.531 -0.6583  1.3525 -0.2621
  300SOL     OW  898   2.104   0.031   2.546  0.5447 -0.1305 -0.2647
  300SOL    HW1  899   2.086   0.134   2.555 -1.1389  0.6669 -0.9092
  300SOL    HW2  900   2.199   0.019   2.518 -1.2646  0.7275  1.3832
  301SOL     OW  901   1.370   1.080   1.992  0.3257 -0.0919  0.1853
  301SOL    HW1  902   1.402   1.173   2.025  1.8047  1.6622 -1.7006
  301SOL    HW2  903   1.450   1.022   1.977  2.8471  0.6844 -0.7828
  302SOL     OW  904   2.787   2.355   0.057 -0.2355 -0.8484  0.2142
  302SOL    HW1  905   2.835   2.437   0.024  1.4093  0.9516  2.5514
  302SOL    HW2  906   2.850   2.281   0.042 -3.6021  1.6300 -3.2045
  303SOL     OW  907   2.694   2.292   2.297  0.2309 -0.1243 -0.6251
  303SOL    HW1  908   2.729   2.246   2.384  2.1866 -3.0472  1.6032
  303SOL    HW2  909   2.737   2.250   2.216  0.8529 -0.1783 -2.3256
  304SOL     OW  910   2.629   0.555   1.769  0.9298 -0.4181  0.6983
  304SOL    HW1  911   2.600   0.589   1.857  1.4099 -1.2131 -1.1990
  304SOL    HW2  912   2.672   0.466   1.774 -0.5472  0.9368 -1.8308
  305SOL     OW  913   0.620   2.153   1.851  0.0827 -0.4722  0.7725
  305SOL    HW1  914   0.711   2.186   1.816  0.1825  1.2526 -0.3299
  305SOL    HW2  915   0.570   2.231   1.889  1.2638 -2.9910 -0.4370
  306SOL     OW  916   2.619   0.873   1.755  0.1806 -0.4920 -0.5095
  306SOL    HW1  917   2.542   0.846   1.691 -1.2776  0.6752  0.2622
  306SOL    HW2  918   2.628   0.811   1.828  0.3904  1.9827 -1.2963
  307SOL     OW  919   1.618   0.958   1.931  0.3049 -0.6056  0.8439
  307SOL    HW1  920   1.698   0.982   1.985 -0.7109 -0.8918 -2.2539
  307SOL    HW2  921   1.626   0.867   1.890  0.0639  3.3915  1.0092
  308SOL     OW  922   2.907   1.682   1.033 -0.3455 -0.1149 -0.0205
  308SOL    HW1  923   2.955   1.605   0.983 -0.0009  1.3697  2.2520
  308SOL    HW2  924   2.828   1.653   1.087 -0.1103  1.8169 -0.5977
  309SOL     OW  925   2.693   1.549   1.159  0.3622  0.1857 -0.4007
  309SOL    HW1  926   2.605   1.599   1.192 -2.1308  0.2620  0.8300
  309SOL    HW2  927   2.670   1.462   1.113  1.1509  1.7144 -1.0223
  310SOL     OW  928   2.785   1.833   2.575  0.5711  0.2813 -0.1081
  310SOL    HW1  929   2.691   1.812   2.547 -0.8601  1.7534  2.2678
  310SOL    HW2  930   2.776   1.892   2.654  0.8580  0.2032 -0.1705
  311SOL     OW  931   0.002   2.695   0.288  1.0289 -0.4875  0.0282
  311SOL    HW1  932   2.984   2.711   0.317 -1.1860 -0.1875  0.6347
  311SOL    HW2  933   0.031   2.605   0.323 -0.4406 -0.3672  0.1530
  312SOL     OW  934   2.109   1.494   0.777 -0.0042  0.1341 -0.4714
  312SOL    HW1  935   2.019   1.535   0.789 -1.4637 -2.5421 -2.5007
  312SOL    HW2  936   2.178   1.564   0.786 -1.3973 -1.6867 -1.9803
  313SOL     OW  937   2.461   0.223   0.971 -0.0941 -0.3999 -0.0858
  313SOL    HW1  938   2.388   0.176   0.918  1.2217  1.4994 -0.1886
  313SOL    HW2  939   2.545   0.224   0.914  1.1518 -0.1625 -0.6267
  314SOL     OW  940   1.270   1.632   0.174  0.3620 -0.5639  0.1307
  314SOL    HW1  941   1.358   1.592   0.148 -2.2715  1.6194 -3.5219
  314SOL    HW2  942   1.254   1.719   0.114 -2.8055 -0.0850 -2.4282
  315SOL     OW  943   1.289   2.268   2.156 -0.7204 -0.7757 -0.1391
  315SOL    HW1  944   1.338   2.350   2.116 -2.4861  0.8167 -3.2380
  315SOL    HW2  945   1.253   2.206   2.078 -2.3763  0.1472 -1.9968
  316SOL     OW  946   2.991   0.978   0.447  0.1076 -0.1820  0.0303
  316SOL    HW1  947   2.907   0.973   0.510 -1.8056 -1.0983  2.0767
  316SOL    HW2  948   3.048   1.060   0.473  0.9307  0.4864  0.0492
  317SOL     OW  949   0.496   0.006   0.424  0.2267  0.2604 -0.1737
  317SOL    HW1  950   0.422   3.063   0.489 -0.9420 -3.5839 -0.6428
  317SOL    HW2  951   0.527   3.011   0.366  3.1358  0.2476 -0.9597
  318SOL     OW  952   2.658   2.302   0.488 -0.2213 -0.6806  0.1105
  318SOL    HW1  953   2.609   2.233   0.544  3.6486  2.2929 -1.4950
  318SOL    HW2  954   2.756   2.281   0.492  1.3930  0.8782  0.5768
  319SOL     OW  955   0.798   1.405   2.797 -0.0021 -0.8179  0.4720
  319SOL    HW1  956   0.715   1.455   2.767 -0.4614 -1.5471  0.3755
  319SOL    HW2  957   0.805   1.412   2.899  0.8470  0.0682 -0.1086
  320SOL     OW  958   0.810   2.432   1.753 -0.4783 -0.2390  0.3516
  320SOL    HW1  959   0.744   2.508   1.761  0.4912  2.0562 -0.6835
  320SOL    HW2  960   0.881   2.434   1.824 -2.9998  0.8233  2.8070
  321SOL     OW  961   1.595   2.131   3.052 -0.6211  0.1532  0.6500
  321SOL    HW1  962   1.621   2.119   0.070  2.1450 -0.2609  0.6892
  321SOL    HW2  963   1.667   2.093   2.987 -0.9357 -0.6426 -1.9386
  322SOL     OW  964   2.944   1.414   2.119 -0.1822  0.2273 -0.3477
  322SOL    HW1  965   2.920   1.327   2.164 -0.2106  1.7670  0.5267
  322SOL    HW2  966   2.927   1.410   2.020  0.3258 -0.4948  2.4851
  323SOL     OW  967   2.547   1.320   0.426  0.3209  0.5498  0.0874
  323SOL    HW1  968   2.565   1.245   0.358  0.0971 -3.0140 -2.8864
  323SOL    HW2  969   2.632   1.352   0.465  1.4101 -0.3960  1.0352
  324SOL     OW  970   0.082   2.737   2.787 -0.0528 -0.0325 -0.1777
  324SOL    HW1  971   0.091   2.657   2.726 -0.1550 -1.6913  1.4573
  324SOL    HW2  972   0.105   2.715   2.883 -1.4930 -1.7292  0.5293
  325SOL     OW  973   1.483   0.315   2.265 -0.2998 -0.0639 -0.8904
  325SOL    HW1  974   1.558   0.299   2.198  2.5253 -1.9512  1.9462
  325SOL    HW2  975   1.457   0.227   2.318  0.4630 -1.6752  1.9936
  326SOL     OW  976   2.220   2.576   1.466  0.0678 -0.0731  0.2612
  326SOL    HW1  977   2.286   2.510   1.502 -3.1453 -0.1414 -1.1505
  326SOL    HW2  978   2.224   2.572   1.362  3.7030  2.0620 -0.5960
  327SOL     OW  979   1.707   0.063   0.092  0.0164 -0.2496 -0.2768
  327SOL    HW1  980   1.767   0.019   0.028  1.1540  1.9473  1.5215
  327SOL    HW2  981   1.642   0.123   0.036 -0.4598  2.5112 -3.0237
  328SOL     OW  982   2.927   0.698   2.315 -0.3034 -0.1177 -0.1437
  328SOL    HW1  983   2.998   0.763   2.281 -0.9406 -0.6012  2.4950
  328SOL    HW2  984   2.835   0.739   2.315  2.4970 -2.0140 -2.0122
  329SOL     OW  985   1.426   0.008   1.949 -0.3376 -0.4359  0.1269
  329SOL    HW1  986   1.417   0.107   1.922 -0.8994 -0.9652 -1.6143
  329SOL    HW2  987   1.501   3.081   2.019  0.7354 -1.0469 -0.0105
  330SOL     OW  988   2.761   1.897   1.386  0.0301  0.0410 -0.1364
  330SOL    HW1  989   2.859   1.901   1.395 -2.9630 -0.2084 -0.6374
  330SOL    HW2  990   2.732   1.818   1.442 -0.0433 -1.5168 -1.2701
  331SOL     OW  991   0.538   1.505   2.296  0.0219 -0.0269 -0.1807
  331SOL    HW1  992   0.570   1.553   2.211  0.1635  1.6694  0.3264
  331SOL    HW2  993   0.612   1.451   2.336 -0.7994  1.3387 -0.1774
  332SOL     OW  994   0.160   3.079   1.623 -0.3814 -0.2130 -0.2879
  332SOL    HW1  995   0.230   0.019   1.553  0.3960  1.2706 -3.0912
  332SOL    HW2  996   0.147   0.085   1.675  0.9667  0.0731 -2.7548
  333SOL     OW  997   2.438   2.785   1.523  0.7520 -0.3900 -0.1539
  333SOL    HW1  998   2.510   2.710   1.504  0.1623 -2.0787 -2.4633
  333SOL    HW2  999   2.357   2.775   1.463 -1.4728  0.4874  0.6244
  334SOL     OW 1000   1.134   1.946   0.987 -0.0354 -0.3249 -0.2818
  334SOL    HW1 1001   1.118   1.995   1.076  2.9697  0.4285 -0.1510
  334SOL    HW2 1002   1.097   2.007   0.917  1.9098  1.5772  2.4420
  335SOL     OW 1003   0.644   2.211   0.209 -0.0914 -0.2725 -0.5513
  335SOL    HW1 1004   0.565   2.218   0.141 -1.5554 -0.8233 -1.5227
  335SOL    HW2 1005   0.623   2.148   0.288  0.7056 -0.4077 -1.1293
  336SOL     OW 1006   0.305   0.142   1.903  0.1821  0.3038 -0.6948
  336SOL    HW1 1007   0.222   0.189   1.866 -2.2348  0.9995  1.2156
  336SOL    HW2 1008   0.384   0.153   1.841  1.7262 -2.0459 -0.5826
  337SOL     OW 1009   2.636   1.901   2.930  0.4237  0.0507 -0.2203
  337SOL    HW1 1010   2.595   1.943   3.013  0.7624 -2.3705 -2.2025
  337SOL    HW2 1011   2.693   1.822   2.960 -1.2427  1.0683  2.3614
  338SOL     OW 1012   1.035   1.651   1.100 -0.8559  0.1785 -0.0727
  338SOL    HW1 1013   1.124   1.653   1.152 -1.3698 -0.6709 -0.6643
  338SOL    HW2 1014   1.006   1.742   1.074 -2.1849  0.1921  3.4709
  339SOL     OW 1015   3.068   0.262   1.986  0.4650  0.1449  0.5513
  339SOL    HW1 1016   2.967   0.289   2.000  0.1287  0.0880 -0.9803
  339SOL    HW2 1017   0.049   0.291   2.065  1.9177 -0.1864 -0.7011
  340SOL     OW 1018   1.591   2.484   0.502 -0.1981  0.1486  0.1596
  340SOL    HW1 1019   1.540   2.404   0.474  3.3699  3.1797 -0.0846
  340SOL    HW2 1020   1.616   2.473   0.603 -0.3908 -1.1398  2.2545
  341SOL     OW 1021   1.911   1.442   1.056  0.1761 -0.1071 -0.5590
  341SOL    HW1 1022   1.919   1.497   0.974  2.2424 -1.5939 -1.4350
  341SOL    HW2 1023   1.825   1.454   1.111 -0.6734 -0.4289  0.8558
  342SOL     OW 1024   0.112   1.959   0.578 -0.9454 -0.5679  0.1053
  342SOL    HW1 1025   0.077   1.975   0.484 -0.6750 -2.6806 -0.3887
  342SOL    HW2 1026   0.212   1.928   0.576  4.8364  0.8820  3.6862
  343SOL     OW 1027   1.511   2.541   1.201 -0.0857  0.6066  0.0900
  343SOL    HW1 1028   1.527   2.598   1.281 -1.6890  0.7965 -0.5194
  343SOL    HW2 1029   1.440   2.473   1.217 -0.3732  0.1141 -0.6646
  344SOL     OW 1030   2.188   2.914   0.899 -0.3328 -0.4631 -0.8450
  344SOL    HW1 1031   2.124   2.896   0.822  1.3830 -1.6144  0.7171
  344SOL    HW2 1032   2.284   2.911   0.859  1.6741 -0.5386 -0.2395
  345SOL     OW 1033   2.754   2.040   2.743  0.2142 -0.7355  0.0300
  345SOL    HW1 1034   2.689   1.992   2.811 -3.5960 -0.3758  1.8962
  345SOL    HW2 1035   2.846   2.057   2.791  2.3259  1.7238  0.9929
  346SOL     OW 1036   0.335   1.745   1.031 -0.0180  0.1909  0.2331
  346SOL    HW1 1037   0.270   1.789   0.957 -1.4655 -0.0692 -1.8096
  346SOL    HW2 1038   0.295   1.767   1.122  2.8720 -1.4879  1.0156
  347SOL     OW 1039   1.944   2.435   1.389  0.0481 -0.5791  0.0054
  347SOL    HW1 1040   1.935   2.521   1.432 -2.2699 -1.7841  0.3964
  347SOL    HW2 1041   1.952   2.453   1.288  0.3947 -2.6439 -1.9744
  348SOL     OW 1042   1.201   1.497   2.694  0.0726  0.6000 -0.0897
  348SOL    HW1 1043   1.139   1.530   2.776 -1.1256 -1.9947 -0.4906
  348SOL    HW2 1044   1.202   1.560   2.617 -0.5263  1.2635  0.9464
  349SOL     OW 1045   2.426   1.119   2.184 -0.3053 -0.3770  0.4771
  349SOL    HW1 1046   2.422   1.121   2.284  0.8237 -1.5214 -1.2559
  349SOL    HW2 1047   2.330   1.119   2.147 -0.0133 -0.0274 -0.3144
  350SOL     OW 1048   2.968   2.474   1.483 -0.0235 -0.0664  0.1695
  350SOL    HW1 1049   3.050   2.526   1.516 -0.8303 -1.1993 -1.3288
  350SOL    HW2 1050   2.987   2.442   1.389  1.6460  0.0255  1.9199
  351SOL     OW 1051   0.614   0.481   2.691 -0.2092 -0.0119 -0.4519
  351SOL    HW1 1052   0.617   0.466   2.591 -2.1797  1.7970 -0.7199
  351SOL    HW2 1053   0.680   0.414   2.738  0.8394  0.4612  0.3308
  352SOL     OW 1054   0.794   2.345   1.482 -0.0368  0.2745  0.0018
  352SOL    HW1 1055   0.816   2.368   1.581  0.0205 -0.5996 -2.0811
  352SOL    HW2 1056   0.699   2.368   1.454  0.1966 -1.3633 -1.7669
  353SOL     OW 1057   0.875   1.501   2.360  0.0262 -0.9407  0.0606
  353SOL    HW1 1058   0.833   1.411   2.380 -0.8195  1.3276 -4.8546
  353SOL    HW2 1059   0.952   1.489   2.293 -0.6038  1.1046 -0.9519
  354SOL     OW 1060   1.697   0.983   0.590  0.3270  0.1142 -0.0066
  354SOL    HW1 1061   1.625   0.991   0.662 -0.5078 -1.7465 -1.2037
  354SOL    HW2 1062   1.657   0.996   0.497 -1.0960  0.4440  0.8122
  355SOL     OW 1063   2.834   0.574   0.480 -0.1007  0.0621 -0.2539
  355SOL    HW1 1064   2.751   0.629   0.494  0.9195  0.1183  1.4509
  355SOL    HW2 1065   2.912   0.626   0.438  3.5509 -0.8260  1.4120
  356SOL     OW 1066   2.668   0.982   2.569 -0.8666 -0.3614  0.4293
  356SOL    HW1 1067   2.769   0.981   2.583  2.1669 -2.1667 -0.0050
  356SOL    HW2 1068   2.617   0.964   2.655  1.2081  0.9017 -0.7194
  357SOL     OW 1069   0.655   2.652   1.775 -0.0633  0.1661 -0.6495
  357SOL    HW1 1070   0.657   2.711   1.695  0.4466 -0.4223 -2.3275
  357SOL    HW2 1071   0.672   2.715   1.856  0.7320 -0.9044  0.8959
  358SOL     OW 1072   2.172   1.190   2.048  0.3035 -0.2735  0.7565
  358SOL    HW1 1073   2.108   1.262   2.016  1.0002 -0.1633  2.4801
  358SOL    HW2 1074   2.262   1.192   1.996  0.2497 -1.4853  1.0223
  359SOL     OW 1075   2.311   2.281   3.009 -0.4318 -0.4306 -0.0311
  359SOL    HW1 1076   2.255   2.314   2.932 -0.6301  2.1212  0.4283
  359SOL    HW2 1077   2.399   2.335   3.009 -0.9480  1.5245  0.1271
  360SOL     OW 1078   2.270   0.645   0.660  0.3236 -0.2079 -0.0857
  360SOL    HW1 1079   2.371   0.651   0.680  2.5812 -0.0184 -0.5185
  360SOL    HW2 1080   2.244   0.660   0.561  2.1625  0.2700 -0.3978
  361SOL     OW 1081   1.902   3.021   0.988 -0.4875  0.0243  0.3407
  361SOL    HW1 1082   1.884   3.041   0.888  1.7063 -2.1839 -3.2144
  361SOL    HW2 1083   1.820   2.981   1.019  4.6908  1.7623 -2.3118
  362SOL     OW 1084   1.333   1.144   0.595 -0.6063  0.4009 -0.2274
  362SOL    HW1 1085   1.242   1.135   0.629  3.0797  0.6941 -2.3998
  362SOL    HW2 1086   1.393   1.080   0.645 -0.8824 -1.5230  3.7930
  363SOL     OW 1087   2.489   1.658   2.258  0.0106  0.1742 -0.2230
  363SOL    HW1 1088   2.533   1.567   2.248 -2.2345 -2.3973 -2.6643
  363SOL    HW2 1089   2.506   1.704   2.344  1.4937  1.4829 -4.0536
  364SOL     OW 1090   1.101   0.670   1.496 -0.0983 -0.6851  0.9368
  364SOL    HW1 1091   1.038   0.603   1.538 -1.6032  1.8719  0.4974
  364SOL    HW2 1092   1.131   0.647   1.400 -2.0233 -0.6658  0.2890
  365SOL     OW 1093   0.023   0.079   1.049 -0.2764  0.2339 -0.1822
  365SOL    HW1 1094   3.046   0.061   0.968  2.3206  1.8177 -0.7719
  365SOL    HW2 1095   3.078   0.164   1.100 -0.4366 -0.3241  1.4358
  366SOL     OW 1096   2.753   1.649   0.358  0.1860 -0.1160 -0.1358
  366SOL    HW1 1097   2.719   1.714   0.430 -1.3794 -1.1340  0.2386
  366SOL    HW2 1098   2.851   1.624   0.359 -2.3541  1.4819 -1.6014
  367SOL     OW 1099   3.032   2.195   0.005 -0.4658 -0.2713  0.3015
  367SOL    HW1 1100   0.003   2.259   3.032  0.5671  1.5352 -2.0798
  367SOL    HW2 1101   3.074   2.179   0.096 -0.7563 -1.5518  0.4124
  368SOL     OW 1102   0.051   2.377   1.010  0.3927 -0.9033  0.3095
  368SOL    HW1 1103   0.144   2.403   0.971 -0.4584  0.9125 -1.3207
  368SOL    HW2 1104   3.058   2.370   0.942 -2.5186  1.3211 -1.1503
  369SOL     OW 1105   0.376   0.236   0.310  0.1083 -0.7540  0.1177
  369SOL    HW1 1106   0.335   0.255   0.400  1.6987 -1.8249 -0.6946
  369SOL    HW2 1107   0.444   0.162   0.325  1.9416  0.6298  3.1476
  370SOL     OW 1108   0.347   1.096   1.415 -0.3714 -0.5170 -0.2443
  370SOL    HW1 1109   0.397   1.098   1.504 -1.3057  0.1641 -2.5960
  370SOL    HW2 1110   0.330   1.196   1.392  0.2651 -0.7754 -0.9129
  371SOL     OW 1111   2.194   2.307   0.860 -0.2184 -0.2603 -0.5159
  371SOL    HW1 1112   2.200   2.213   0.901 -1.0655  0.9759  0.3714
  371SOL    HW2 1113   2.112   2.319   0.798 -3.5123  0.5573  0.1001
  372SOL     OW 1114   2.941   0.941   2.623 -0.2696 -0.3240 -0.0816
  372SOL    HW1 1115   2.899   0.846   2.623  0.5961 -2.9814  1.2061
  372SOL    HW2 1116   3.018   0.944   2.551  0.3317 -0.9812  0.1965
  373SOL     OW 1117   2.948   1.766   0.702 -0.0149 -0.0594  0.0611
  373SOL    HW1 1118   2.951   1.838   0.773 -0.3924  1.5483  1.7725
  373SOL    HW2 1119   2.861   1.713   0.710  1.8388 -0.3806 -0.8960
  374SOL     OW 1120   0.300   2.392   0.455 -0.6352  0.0311 -0.0987
  374SOL    HW1 1121   0.361   2.448   0.395 -0.3246 -1.3186  0.7222
  374SOL    HW2 1122   0.205   2.403   0.431  3.3491 -0.4437 -0.2705
  375SOL     OW 1123   0.726   0.243   0.198  0.8272  0.3217  0.1923
  375SOL    HW1 1124   0.788   0.163   0.189  0.1810  2.4034  0.1717
  375SOL    HW2 1125   0.694   0.275   0.104  2.2672  2.2499  0.7617
  376SOL     OW 1126   0.374   2.997   2.037 -0.4152 -0.2362 -0.1926
  376SOL    HW1 1127   0.348   3.072   1.973  1.2340 -0.8449  0.2685
  376SOL    HW2 1128   0.325   2.911   2.010  0.6117  0.6003 -0.9811
  377SOL     OW 1129   1.060   2.329   2.283 -0.3022  0.8260 -0.6130
  377SOL    HW1 1130   1.139   2.311   2.222 -0.1689 -0.8166 -0.8118
  377SOL    HW2 1131   1.071   2.426   2.323 -0.3048  0.4005 -0.1164
  378SOL     OW 1132   1.025   0.859   0.621 -0.6006 -0.8093  0.1446
  378SOL    HW1 1133   1.061   0.937   0.673  0.2906 -0.1113  2.0879
  378SOL    HW2 1134   1.024   0.769   0.672 -1.4782  0.8692 -0.7800
  379SOL     OW 1135   1.100   1.666   2.902  0.0633  0.1500 -0.0434
  379SOL    HW1 1136   1.109   1.588   2.964  0.4558  1.5622 -2.9560
  379SOL    HW2 1137   1.186   1.723   2.903 -0.5576  1.4308  0.8470
  380SOL     OW 1138   2.934   1.765   1.746  0.2620 -0.0790 -0.2144
  380SOL    HW1 1139   2.934   1.737   1.841 -1.7299  0.5724 -0.7315
  380SOL    HW2 1140   3.022   1.818   1.732  0.9267 -2.6604  0.8093
  381SOL     OW 1141   0.043   0.981   1.945 -0.5014 -0.5358 -0.1302
  381SOL    HW1 1142   0.139   1.018   1.950  2.4963  0.6523 -0.5762
  381SOL    HW2 1143   0.010   0.996   1.853 -0.4351 -0.5064 -0.5097
  382SOL     OW 1144   2.544   2.428   3.036  0.5488  0.3777 -0.3612
  382SOL    HW1 1145   2.572   2.468   2.948 -0.9075 -2.3789  1.0820
  382SOL    HW2 1146   2.632   2.397   3.078 -1.3679 -0.0803  0.6561
  383SOL     OW 1147   2.291   1.962   2.126  0.4764  0.1002 -0.0641
  383SOL    HW1 1148   2.388   1.934   2.133  1.4089 -1.5679  0.5223
  383SOL    HW2 1149   2.265   2.020   2.208 -0.6177  2.4270  2.8628
  384SOL     OW 1150   0.793   2.297   2.149 -0.6073  0.4405  0.1248
  384SOL    HW1 1151   0.823   2.271   2.241 -2.1492 -0.3704 -3.8951
  384SOL    HW2 1152   0.699   2.259   2.146 -1.8710  1.4891 -2.3222
  385SOL     OW 1153   2.683   2.221   1.058  0.0185  0.1098 -0.4400
  385SOL    HW1 1154   2.587   2.231   1.027  0.1425  3.8923  1.1892
  385SOL    HW2 1155   2.699   2.125   1.079  0.0183 -1.7596 -1.8012
  386SOL     OW 1156   1.826   0.577   2.791 -0.2185  0.0874 -0.0455
  386SOL    HW1 1157   1.758   0.504   2.773  2.2772  1.0898 -1.2898
  386SOL    HW2 1158   1.869   0.559   2.884  1.2009  0.8344  0.7128
  387SOL     OW 1159   0.366   0.477   1.819  0.5153 -0.3341  0.1548
  387SOL    HW1 1160   0.289   0.469   1.752  0.0151 -0.4492 -0.1353
  387SOL    HW2 1161   0.350   0.409   1.893 -0.2365  1.8180 -1.3007
  388SOL     OW 1162   2.756   1.055   1.610 -1.1911  0.5381 -0.2708
  388SOL    HW1 1163   2.706   0.978   1.650  1.2406  0.3252 -1.3331
  388SOL    HW2 1164   2.861   1.043   1.622  4.5268 -2.1177  1.0405
  389SOL     OW 1165   1.630   0.803   2.238  0.4580  0.3663  0.1317
  389SOL    HW1 1166   1.647   0.902   2.253 -1.4985  1.1677  0.2520
  389SOL    HW2 1167   1.643   0.785   2.138  0.4780 -0.2195 -3.4943
  390SOL     OW 1168   2.012   2.265   0.620  0.5424 -0.4049 -0.3095
  390SOL    HW1 1169   2.113   2.282   0.590  0.6704  0.8756 -1.1092
  390SOL    HW2 1170   1.949   2.333   0.578 -0.3054 -1.1674  0.4417
  391SOL     OW 1171   1.656   2.864   0.910 -0.2129  0.2037 -0.0019
  391SOL    HW1 1172   1.721   2.874   0.829 -0.0549 -1.8408  0.5091
  391SOL    HW2 1173   1.562   2.851   0.870  0.1615 -1.0197 -0.2930
  392SOL     OW 1174   2.751   2.761   1.349  0.1700 -0.6775  0.4592
  392SOL    HW1 1175   2.704   2.852   1.353  1.3309  4.0432  1.0016
  392SOL    HW2 1176   2.693   2.691   1.392  2.3219  1.4424 -0.5220
  393SOL     OW 1177   1.838   1.698   2.846  0.0018  0.5138  0.1274
  393SOL    HW1 1178   1.848   1.795   2.871  0.5304 -2.4519 -1.0612
  393SOL    HW2 1179   1.844   1.641   2.928 -0.1417  0.8644  3.3223
  394SOL     OW 1180   0.363   2.700   0.060  0.0297  0.9439 -0.2687
  394SOL    HW1 1181   0.421   2.631   0.016 -0.5628  2.5720 -1.4743
  394SOL    HW2 1182   0.261   2.685   0.043 -0.6336  1.1815 -2.9783
  395SOL     OW 1183   1.269   1.318   0.938  0.1077  0.2458  0.4363
  395SOL    HW1 1184   1.296   1.258   1.014 -0.6098  0.2311  0.7839
  395SOL    HW2 1185   1.342   1.378   0.914 -0.5701 -1.8278  0.9042
  396SOL     OW 1186   2.163   0.873   2.749 -0.5361 -0.5989 -0.5021
  396SOL    HW1 1187   2.120   0.849   2.841 -1.0798  0.5095 -2.2515
  396SOL    HW2 1188   2.216   0.796   2.721 -2.4316  0.3673 -0.4843
  397SOL     OW 1189   0.087   0.705   2.560  0.0703 -0.0788  0.0646
  397SOL    HW1 1190   3.078   0.665   2.551  3.8576 -1.8915  1.4044
  397SOL    HW2 1191   0.083   0.801   2.549  0.2254 -3.6005 -1.6573
  398SOL     OW 1192   1.285   0.503   0.082 -0.0343 -0.1973  0.2159
  398SOL    HW1 1193   1.356   0.486   0.013  0.9758 -0.6290  0.1636
  398SOL    HW2 1194   1.196   0.468   0.054  2.7020  0.0630 -4.3995
  399SOL     OW 1195   1.864   2.910   1.837 -0.2470  0.0985 -0.3683
  399SOL    HW1 1196   1.964   2.895   1.860  0.1463  0.4821  0.0186
  399SOL    HW2 1197   1.842   2.871   1.746 -2.4582 -1.3043 -1.5583
  400SOL     OW 1198   0.050   1.897   2.286 -0.5589  0.1167 -0.0084
  400SOL    HW1 1199   0.064   1.856   2.196 -2.4595 -0.2571  1.8644
  400SOL    HW2 1200   0.002   1.828   2.348 -0.3258 -1.5921  0.6516
  401SOL     OW 1201   0.622   3.038   0.131  0.1626 -0.4275  0.3506
  401SOL    HW1 1202   0.712   3.073   0.165 -2.2848 -0.8655  0.5364
  401SOL    HW2 1203   0.561   0.030   0.090  1.3412 -1.4443  0.5182
  402SOL     OW 1204   0.528   2.377   1.466 -0.5045  0.0828 -0.1464
  402SOL    HW1 1205   0.471   2.296   1.494 -0.4037  0.2729  1.7019
  402SOL    HW2 1206   0.519   2.455   1.531 -1.8331 -1.6469 -0.8171
  403SOL     OW 1207   0.249   1.347   1.359 -0.3653 -0.5818  0.2556
  403SOL    HW1 1208   0.197   1.392   1.290  2.3282  1.4657  2.2781
  403SOL    HW2 1209   0.294   1.417   1.421 -1.8599 -1.4425 -0.5679
  404SOL     OW 1210   2.879   2.523   1.920  0.1677  1.0525  0.2122
  404SOL    HW1 1211   2.849   2.572   1.840 -0.6997 -2.1784 -0.6859
  404SOL    HW2 1212   2.869   2.577   2.005  0.2556  1.3908 -0.4165
  405SOL     OW 1213   2.803   0.301   2.120 -0.1622  0.3083  0.0973
  405SOL    HW1 1214   2.711   0.336   2.146  0.6376  1.0040  1.3745
  405SOL    HW2 1215   2.838   0.239   2.194  2.7658  1.1490  1.4666
  406SOL     OW 1216   1.969   2.397   0.189 -0.2558  0.0599  0.0944
  406SOL    HW1 1217   2.047   2.334   0.186 -0.1618  0.2791 -0.8901
  406SOL    HW2 1218   1.945   2.424   0.284  0.6319  1.1017 -0.6783
  407SOL     OW 1219   1.895   1.680   0.827 -0.3140 -0.5024  0.5066
  407SOL    HW1 1220   1.868   1.728   0.910  0.8138 -1.4330 -1.9388
  407SOL    HW2 1221   1.958   1.740   0.769  1.8074 -3.1468  0.0693
  408SOL     OW 1222   0.639   0.396   2.172 -0.2991 -0.4839 -0.1917
  408SOL    HW1 1223   0.673   0.471   2.113 -0.2095  3.7113 -0.0969
  408SOL    HW2 1224   0.661   0.303   2.138 -0.2218  1.3566 -1.4487
  409SOL     OW 1225   2.598   1.876   0.666 -0.0132  0.3122  0.6556
  409SOL    HW1 1226   2.616   1.866   0.765  0.2261 -1.1974  0.8603
  409SOL    HW2 1227   2.572   1.786   0.625  2.5816 -3.6209 -1.3156
  410SOL     OW 1228   2.432   1.544   0.831  0.1560  0.1210 -0.1054
  410SOL    HW1 1229   2.467   1.447   0.839 -1.6325  1.0934 -1.0908
  410SOL    HW2 1230   2.400   1.567   0.923 -1.6312 -4.1176 -1.0148
  411SOL     OW 1231   3.045   0.722   0.388  0.3562 -0.3218  0.3582
  411SOL    HW1 1232   0.053   0.686   0.416  0.3861  2.7228 -2.2978
  411SOL    HW2 1233   3.028   0.820   0.410 -0.4156 -1.7206  0.0166
  412SOL     OW 1234   1.706   0.504   0.251  0.1505 -0.4349 -0.4443
  412SOL    HW1 1235   1.631   0.574   0.234 -1.3776  1.0052 -2.4273
  412SOL    HW2 1236   1.704   0.475   0.350  1.1888  0.1266  2.0862
  413SOL     OW 1237   0.830   0.851   1.136 -0.2760  0.5719  0.4690
  413SOL    HW1 1238   0.736   0.821   1.155 -2.7312 -0.3154 -0.2436
  413SOL    HW2 1239   0.836   0.897   1.044 -2.1167  1.9548 -0.8554
  414SOL     OW 1240   3.004   1.327   2.866 -0.4346  0.1842  0.1332
  414SOL    HW1 1241   2.946   1.389   2.814 -0.2190 -4.3662  1.6633
  414SOL    HW2 1242   0.001   1.300   2.811 -3.3279  0.5128 -0.2958
  415SOL     OW 1243   0.132   1.623   2.895  0.3795  0.3284  0.1760
  415SOL    HW1 1244   0.229   1.604   2.885  0.8788 -0.0333 -0.4912
  415SOL    HW2 1245   0.072   1.543   2.889  0.3939 -1.4965  0.3681
  416SOL     OW 1246   1.678   0.798   0.174  0.3795  0.4570 -0.1558
  416SOL    HW1 1247   1.770   0.806   0.211 -2.7186 -0.3376 -2.7628
  416SOL    HW2 1248   1.609   0.841   0.238 -0.5314  1.4640 -1.7198
  417SOL     OW 1249   0.148   0.774   1.065 -0.0384  0.2996  0.2625
  417SOL    HW1 1250   0.170   0.859   1.121  0.6577 -0.1710 -1.6638
  417SOL    HW2 1251   0.216   0.770   0.992  1.3443  0.6297 -1.3478
  418SOL     OW 1252   2.333   1.087   2.724  0.2331 -0.0691  0.0037
  418SOL    HW1 1253   2.262   1.013   2.727 -0.9411  1.7152  3.3079
  418SOL    HW2 1254   2.412   1.055   2.783  1.2681 -3.8643  1.0506
  419SOL     OW 1255   0.343   0.511   0.197  0.1469 -0.6046 -0.2105
  419SOL    HW1 1256   0.374   0.439   0.259 -0.2450 -1.8330  0.7349
  419SOL    HW2 1257   0.310   0.471   0.110  1.1555 -1.5475  3.5164
  420SOL     OW 1258   0.372   1.333   0.860  0.1200 -0.5124 -0.3017
  420SOL    HW1 1259   0.369   1.345   0.963  2.9021  3.1010 -0.3993
  420SOL    HW2 1260   0.398   1.425   0.818 -0.1748  0.9265  0.7630
  421SOL     OW 1261   0.312   2.105   0.375 -0.1754  0.3504  0.0195
  421SOL    HW1 1262   0.312   2.207   0.395 -1.7821  3.8436 -2.6495
  421SOL    HW2 1263   0.347   2.046   0.451  0.4684  2.8134 -0.5930
  422SOL     OW 1264   2.540   0.417   1.491 -0.7330 -0.4466  0.2590
  422SOL    HW1 1265   2.595   0.410   1.404  3.4420  0.0444  0.3351
  422SOL    HW2 1266   2.594   0.401   1.575 -2.4922 -3.6866 -0.5308
  423SOL     OW 1267   2.126   1.260   0.958 -0.4427 -0.0287  0.6643
  423SOL    HW1 1268   2.138   1.323   0.885 -0.6169  0.0992  2.7077
  423SOL    HW2 1269   2.213   1.247   1.012 -1.9053  1.2119  0.7187
  424SOL     OW 1270   1.695   1.078   0.075  0.3552 -0.1010 -0.3601
  424SOL    HW1 1271   1.759   1.061   3.077  0.9959  0.4404  0.0734
  424SOL    HW2 1272   1.600   1.053   0.051  2.3514  0.5024 -2.2322
  425SOL     OW 1273   0.209   2.787   1.922  0.1525 -0.1682 -0.0577
  425SOL    HW1 1274   0.182   2.814   2.017 -1.2503  0.0721  0.4714
  425SOL    HW2 1275   0.138   2.817   1.851  0.1900 -0.7057 -0.3036
  426SOL     OW 1276   2.530   2.694   2.797 -0.1986  0.2056 -0.0413
  426SOL    HW1 1277   2.472   2.740   2.730  1.1899  2.0815  0.7324
  426SOL    HW2 1278   2.549   2.601   2.759 -1.4804  1.0122  0.2283
  427SOL     OW 1279   0.666   0.792   2.213  0.0763  0.4540  0.1658
  427SOL    HW1 1280   0.577   0.836   2.226  3.3927 -1.4502 -0.5637
  427SOL    HW2 1281   0.740   0.858   2.216 -2.4657  0.2574  1.8563
  428SOL     OW 1282   2.100   0.737   2.189  0.1208 -0.0407  0.4074
  428SOL    HW1 1283   2.174   0.712   2.124 -0.4160 -0.3162 -1.2086
  428SOL    HW2 1284   2.096   0.840   2.197 -2.8143 -0.6718 -1.8010
  429SOL     OW 1285   2.298   0.203   0.451 -0.3816 -0.4339 -0.0679
  429SOL    HW1 1286   2.395   0.170   0.443  1.7839  3.0465  1.8365
  429SOL    HW2 1287   2.286   0.238   0.542  1.2296 -2.7250  1.1224
  430SOL     OW 1288   1.862   1.002   2.033 -0.8251  0.1745  0.2366
  430SOL    HW1 1289   1.918   1.000   2.110 -3.9890  0.1128 -5.6108
  430SOL    HW2 1290   1.918   1.031   1.951 -0.8791  4.5863  0.8502
  431SOL     OW 1291   2.745   2.154   1.493  0.0739 -0.1674 -0.3673
  431SOL    HW1 1292   2.749   2.057   1.459 -0.8037  1.1992  1.7571
  431SOL    HW2 1293   2.739   2.217   1.417  0.2095  0.4449  2.5618
  432SOL     OW 1294   1.245   2.605   1.846  0.8949 -0.0865 -0.1556
  432SOL    HW1 1295   1.159   2.627   1.897  0.9098  1.3325 -0.3879
  432SOL    HW2 1296   1.225   2.564   1.757  0.2138  0.3221 -1.3204
  433SOL     OW 1297   1.489   0.042   1.291  0.4508  0.0339  0.3945
  433SOL    HW1 1298   1.537   0.043   1.196  2.5625 -0.5622 -3.0109
  433SOL    HW2 1299   1.453   3.030   1.305  1.6266 -0.9622 -0.2480
  434SOL     OW 1300   0.079   2.324   2.209  0.5620  0.2843  0.2694
  434SOL    HW1 1301   0.045   2.324   2.116  0.2511 -0.4472  1.4632
  434SOL    HW2 1302   0.182   2.313   2.213  2.1418 -0.8492  0.0249
  435SOL     OW 1303   0.300   1.797   0.260 -0.2715 -0.0376 -0.0435
  435SOL    HW1 1304   0.378   1.758   0.203  2.9811  0.3500 -0.9586
  435SOL    HW2 1305   0.246   1.866   0.201 -0.2418  1.3888  1.9128
  436SOL     OW 1306   0.429   1.139   1.675  0.1542 -0.2053  0.2962
  436SOL    HW1 1307   0.508   1.195   1.669 -2.5781 -2.5284  1.6148
  436SOL    HW2 1308   0.456   1.071   1.750  1.0341  1.0701  3.7798
  437SOL     OW 1309   0.987   0.607   2.887 -0.5282  0.5794  0.1701
  437SOL    HW1 1310   0.954   0.700   2.870  0.1624 -1.9709  1.1505
  437SOL    HW2 1311   1.061   0.579   2.823 -1.0781  1.1463 -1.5647
  438SOL     OW 1312   0.460   1.868   1.519  0.3368 -0.0304  0.3624
  438SOL    HW1 1313   0.503   1.787   1.476  0.8265  1.7829 -0.6999
  438SOL    HW2 1314   0.512   1.883   1.607  2.5522 -0.8697  1.6073
  439SOL     OW 1315   1.881   1.477   3.003  0.0898  0.5566 -0.0047
  439SOL    HW1 1316   1.921   1.392   2.964 -2.2319  3.3436  0.5659
  439SOL    HW2 1317   1.795   1.446   3.048 -1.2463  0.8491 -1.0201
  440SOL     OW 1318   1.444   0.663   0.483  0.5984 -0.4506 -0.0620
  440SOL    HW1 1319   1.422   0.738   0.417  1.9931  1.3724  0.2805
  440SOL    HW2 1320   1.400   0.578   0.447  0.6314  3.1686  1.2475
  441SOL     OW 1321   0.406   2.525   1.664  0.2767  0.0863  0.3067
  441SOL    HW1 1322   0.456   2.586   1.729  0.7060  1.5875  0.6409
  441SOL    HW2 1323   0.306   2.525   1.692 -1.3672 -0.7464  0.1256
  442SOL     OW 1324   2.322   2.533   0.927  0.8877  0.0110  0.5141
  442SOL    HW1 1325   2.262   2.452   0.918  0.7425  1.0275 -1.5055
  442SOL    HW2 1326   2.323   2.587   0.841  2.1568 -0.9325  2.4464
  443SOL     OW 1327   2.642   1.269   2.489  0.2685 -0.1705  0.0149
  443SOL    HW1 1328   2.540   1.266   2.476 -2.5459  0.4682 -0.3602
  443SOL    HW2 1329   2.667   1.187   2.544  0.6528 -1.7755  3.5219
  444SOL     OW 1330   1.409   0.681   2.344 -0.0829  0.1902 -0.5046
  444SOL    HW1 1331   1.488   0.739   2.312  0.2511  1.2345  2.5956
  444SOL    HW2 1332   1.337   0.663   2.274  0.3119  3.8987 -0.2098
  445SOL     OW 1333   2.373   2.387   1.687  0.1012  0.6477 -0.4421
  445SOL    HW1 1334   2.373   2.307   1.625 -2.0650  0.5085 -0.0108
  445SOL    HW2 1335   2.469   2.406   1.723 -0.1755 -0.1488  2.9880
  446SOL     OW 1336   3.032   1.595   0.333  0.0222  0.0960 -0.3161
  446SOL    HW1 1337   3.021   1.653   0.251 -0.3748  0.0584  1.0607
  446SOL    HW2 1338   0.033   1.625   0.388 -1.3269 -2.3972  1.2509
  447SOL     OW 1339   1.006   2.618   1.171  0.1841 -0.1948  0.1136
  447SOL    HW1 1340   0.981   2.702   1.117  2.2447 -2.1997  2.1744
  447SOL    HW2 1341   1.009   2.533   1.112  2.3239  0.3475  1.2048
  448SOL     OW 1342   1.664   1.473   1.778 -0.5668  0.3906  0.0746
  448SOL    HW1 1343   1.727   1.499   1.857 -0.2427  0.9686  0.7237
  448SOL    HW2 1344   1.664   1.370   1.770 -0.2058  0.2543  1.1946
  449SOL     OW 1345   0.679   1.975   2.699 -0.1164 -0.5722  0.1057
  449SOL    HW1 1346   0.640   1.906   2.764  0.5561  0.5883 -0.1719
  449SOL    HW2 1347   0.745   2.028   2.750  1.7190 -0.3164 -0.0330
  450SOL     OW 1348   3.017   1.721   2.467 -0.2474  0.1758 -0.0169
  450SOL    HW1 1349   3.037   1.624   2.492  0.1192 -1.8090 -0.9190
  450SOL    HW2 1350   2.954   1.761   2.533  1.6598 -2.1677 -0.9341
  451SOL     OW 1351   2.111   0.720   1.577 -0.0910 -0.2039 -0.1682
  451SOL    HW1 1352   2.154   0.663   1.646  4.0878  1.2897 -0.2844
  451SOL    HW2 1353   2.040   0.773   1.625  1.2197  0.0056  0.8210
  452SOL     OW 1354   1.054   2.412   1.372 -0.0393 -0.5660 -0.3994
  452SOL    HW1 1355   0.981   2.350   1.424 -2.5615 -0.9721  3.4988
  452SOL    HW2 1356   1.019   2.486   1.313  1.5675 -1.7828  0.0075
  453SOL     OW 1357   1.366   1.899   0.883 -0.3004 -0.4577 -0.3744
  453SOL    HW1 1358   1.441   1.925   0.944  0.6566 -2.8090 -0.8361
  453SOL    HW2 1359   1.274   1.920   0.916  0.2629 -1.5197 -1.2528
  454SOL     OW 1360   2.995   1.235   0.690 -0.7091 -0.2654 -0.1501
  454SOL    HW1 1361   3.001   1.203   0.783 -0.3858  2.4679 -1.3450
  454SOL    HW2 1362   0.012   1.248   0.669  1.5766 -1.8908  2.0494
  455SOL     OW 1363   0.598   1.077   0.461 -1.0926  0.0665 -0.1430
  455SOL    HW1 1364   0.591   1.093   0.358  0.7959  1.5118 -0.2179
  455SOL    HW2 1365   0.507   1.092   0.513 -1.3024  0.8080  4.5384
  456SOL     OW 1366   1.948   2.470   1.121 -0.0784 -0.3757  0.4878
  456SOL    HW1 1367   1.880   2.395   1.103 -1.1416 -1.1537 -1.7016
  456SOL    HW2 1368   1.924   2.555   1.068  0.2633 -3.0152 -0.3184
  457SOL     OW 1369   1.380   2.334   0.159  0.0370 -0.0908  0.4408
  457SOL    HW1 1370   1.374   2.276   0.076  2.7622  1.3512 -2.8761
  457SOL    HW2 1371   1.442   2.413   0.147  0.0636  1.6893  1.1207
  458SOL     OW 1372   2.659   0.216   2.927  0.2640 -0.1916 -0.5982
  458SOL    HW1 1373   2.571   0.159   2.913 -2.4764 -1.0105  1.0616
  458SOL    HW2 1374   2.710   0.191   3.013  2.8406 -2.7419  3.1065
  459SOL     OW 1375   2.240   0.006   1.854  0.0719  0.1878 -0.1872
  459SOL    HW1 1376   2.219   0.004   1.758 -0.5419 -0.5139  4.0963
  459SOL    HW2 1377   2.185   3.014   1.893 -1.2961 -1.6539  0.0392
  460SOL     OW 1378   2.999   0.378   2.884 -0.0988 -0.0280  0.0232
  460SOL    HW1 1379   0.004   0.419   2.861  2.9746  0.8476 -1.0173
  460SOL    HW2 1380   2.969   0.294   2.832 -1.6725 -1.7471  0.4107
  461SOL     OW 1381   0.183   2.134   1.002 -0.0873  0.4532 -0.3761
  461SOL    HW1 1382   0.122   2.056   0.990 -2.6973  2.0427 -0.4088
  461SOL    HW2 1383   0.137   2.220   1.027 -1.5399 -1.3322 -1.1126
  462SOL     OW 1384   2.953   0.051   0.821  0.0750 -0.1492  0.2264
  462SOL    HW1 1385   2.962   0.014   0.724  1.0106 -0.4951  0.1478
  462SOL    HW2 1386   2.938   0.152   0.821  1.6169  0.7745  1.0712
  463SOL     OW 1387   2.368   1.588   0.056 -0.1545 -0.2016 -0.4437
  463SOL    HW1 1388   2.274   1.621   0.039  0.8257  0.5622  1.8009
  463SOL    HW2 1389   2.406   1.547   3.055 -0.7208  2.1659  1.7306
  464SOL     OW 1390   0.673   3.079   1.147  0.3317  0.1801 -0.0909
  464SOL    HW1 1391   0.621   3.016   1.211 -0.3782  2.0288  2.0352
  464SOL    HW2 1392   0.755   3.028   1.117 -1.4919  3.2919  0.6722
  465SOL     OW 1393   0.989   0.566   1.213 -0.2537  0.0711  0.5732
  465SOL    HW1 1394   0.994   0.654   1.170  0.9776 -1.4963  1.3310
  465SOL    HW2 1395   0.901   0.553   1.263  1.7664 -2.5943 -0.7622
  466SOL     OW 1396   1.616   2.437   2.186  0.0096  0.1520  0.3302
  466SOL    HW1 1397   1.527   2.475   2.159 -0.4934 -3.1249 -0.7987
  466SOL    HW2 1398   1.599   2.353   2.247  2.3204 -2.2468  0.2896
  467SOL     OW 1399   0.741   2.827   1.964 -0.3436  0.3158  0.4087
  467SOL    HW1 1400   0.700   2.894   2.024 -2.0372  0.2522 -2.2799
  467SOL    HW2 1401   0.825   2.873   1.923 -0.0876  1.6144  0.2441
  468SOL     OW 1402   0.130   1.460   2.129  0.5909  0.4860 -0.1645
  468SOL    HW1 1403   0.028   1.437   2.135  0.5419 -1.1498 -0.3533
  468SOL    HW2 1404   0.149   1.546   2.078  1.2639  0.9072  0.2847
  469SOL     OW 1405   1.052   2.135   0.790  0.5120 -0.0783 -0.2865
  469SOL    HW1 1406   1.022   2.187   0.707  0.2503 -1.7688 -1.9363
  469SOL    HW2 1407   1.130   2.186   0.833 -2.7621 -0.1518 -0.5926
  470SOL     OW 1408   2.090   1.013   2.234  0.4140 -0.0430  0.0146
  470SOL    HW1 1409   2.133   1.078   2.168 -0.8974 -0.8059 -2.8173
  470SOL    HW2 1410   2.053   1.054   2.318  0.0231  1.3520  1.4432
  471SOL     OW 1411   0.737   2.456   0.246  0.0485 -0.4817 -0.3154
  471SOL    HW1 1412   0.733   2.353   0.270  1.7501  0.4537 -1.2367
  471SOL    HW2 1413   0.707   2.483   0.155  2.7840 -0.1320  1.3183
  472SOL     OW 1414   3.069   2.585   2.250  0.0857  0.0824  0.1436
  472SOL    HW1 1415   0.023   2.494   2.274 -3.6959 -1.8319 -0.7917
  472SOL    HW2 1416   0.057   2.655   2.223 -2.7595 -1.9981  0.2035
  473SOL     OW 1417   0.742   2.938   2.993 -0.1145 -1.2305  0.3817
  473SOL    HW1 1418   0.668   2.889   2.943 -3.0867  0.3922 -0.4556
  473SOL    HW2 1419   0.701   2.985   3.070  0.9653  0.2884 -0.6855
  474SOL     OW 1420   1.651   0.241   0.742  0.4265  0.0930  0.0404
  474SOL    HW1 1421   1.648   0.258   0.644  0.2958  0.6682 -0.6161
  474SOL    HW2 1422   1.689   0.322   0.788  3.1946 -0.0379 -1.6309
  475SOL     OW 1423   1.395   0.278   1.397  0.1994 -0.3142 -0.5644
  475SOL    HW1 1424   1.325   0.333   1.347 -0.1497 -1.7824  1.9571
  475SOL    HW2 1425   1.413   0.189   1.352  1.6366 -0.4557 -0.6809
  476SOL     OW 1426   0.149   1.148   1.010 -0.2857 -0.4358  0.5328
  476SOL    HW1 1427   0.159   1.095   1.096  0.0549 -1.6935 -0.7390
  476SOL    HW2 1428   0.171   1.093   0.928 -1.0640 -0.6601  0.6179
  477SOL     OW 1429   0.806   1.851   0.744  0.3331 -0.3656 -0.4689
  477SOL    HW1 1430   0.900   1.821   0.724 -1.0861 -0.2194 -1.0079
  477SOL    HW2 1431   0.793   1.875   0.844 -2.0530 -2.1070 -0.1349
  478SOL     OW 1432   0.350   2.597   2.492  0.0879  0.0982 -0.1214
  478SOL    HW1 1433   0.429   2.559   2.447 -1.0543 -1.3887  3.3907
  478SOL    HW2 1434   0.323   2.693   2.457 -0.3741  1.2003 -0.1050
  479SOL     OW 1435   2.957   0.368   1.554  0.0004 -0.1816  0.0951
  479SOL    HW1 1436   2.930   0.425   1.633  1.5887  1.5463  1.2073
  479SOL    HW2 1437   2.989   0.427   1.476 -3.0410 -0.4067  1.3446
  480SOL     OW 1438   2.845   2.608   3.061 -0.1396 -0.4879  0.1556
  480SOL    HW1 1439   2.848   2.642   2.968 -1.0587  0.9414  3.1089
  480SOL    HW2 1440   2.913   2.657   0.037  2.2582  1.7636 -0.9903
  481SOL     OW 1441   2.401   1.991   1.739  0.3631  0.5301 -0.4392
  481SOL    HW1 1442   2.455   2.041   1.666  0.7733  1.4253 -0.2117
  481SOL    HW2 1443   2.342   2.052   1.800 -4.9619  3.0971  2.8120
  482SOL     OW 1444   1.671   1.540   2.458  0.4247 -0.2448  0.5530
  482SOL    HW1 1445   1.709   1.486   2.384 -0.8455  0.9600  0.7974
  482SOL    HW2 1446   1.743   1.586   2.517 -0.2710  1.6691 -0.2071
  483SOL     OW 1447   0.905   1.454   1.719  0.4421 -0.4162  0.5242
  483SOL    HW1 1448   0.965   1.443   1.639 -1.5763  0.4636  0.9661
  483SOL    HW2 1449   0.846   1.371   1.743 -0.5802 -0.4954 -1.3265
  484SOL     OW 1450   0.330   0.619   1.423  0.1006  0.2868  0.0123
  484SOL    HW1 1451   0.349   0.544   1.487 -1.3484  2.9782 -0.3840
  484SOL    HW2 1452   0.275   0.586   1.344 -1.6822  2.9541 -1.0214
  485SOL     OW 1453   2.262   1.271   3.007 -0.0228 -0.0629  0.6861
  485SOL    HW1 1454   2.292   1.352   2.954  0.6549 -2.3473 -1.4210
  485SOL    HW2 1455   2.340   1.221   3.050  0.7015  3.1717  1.5922
  486SOL     OW 1456   1.186   0.008   1.469 -0.0557 -0.0706  0.4589
  486SOL    HW1 1457   1.150   0.095   1.427  1.2505  0.9670 -0.0474
  486SOL    HW2 1458   1.212   3.029   1.392  0.3670 -1.8018 -1.7617
  487SOL     OW 1459   0.836   2.082   1.433 -0.4258 -0.4605 -0.2453
  487SOL    HW1 1460   0.835   2.181   1.444 -1.6904 -0.5529  1.7194
  487SOL    HW2 1461   0.769   2.050   1.363 -1.6492  0.9465  0.8918
  488SOL     OW 1462   2.480   1.701   2.823 -0.3319  0.0061 -0.2389
  488SOL    HW1 1463   2.522   1.776   2.872  1.0010 -0.4154 -0.1054
  488SOL    HW2 1464   2.534   1.619   2.826  0.3296  0.8752 -1.1232
  489SOL     OW 1465   2.033   2.851   0.668 -0.1371  0.0464  0.0086
  489SOL    HW1 1466   1.930   2.842   0.677 -1.1158  0.5219  0.5000
  489SOL    HW2 1467   2.063   2.853   0.570  0.5494  0.2349 -1.3230
  490SOL     OW 1468   0.938   2.352   3.058  0.6937 -0.2163  0.0704
  490SOL    HW1 1469   0.876   2.438   3.060  2.8435  1.4157  2.1664
  490SOL    HW2 1470   0.961   2.326   0.068 -0.3515  0.2208 -1.5929
  491SOL     OW 1471   0.642   1.321   1.597  0.1963  1.0813  0.6177
  491SOL    HW1 1472   0.690   1.353   1.512  3.1826  0.2093  1.3418
  491SOL    HW2 1473   0.702   1.254   1.642 -2.0333 -0.3384 -1.4987
  492SOL     OW 1474   0.889   0.559   1.830  0.4442  0.2203 -0.1602
  492SOL    HW1 1475   0.890   0.643   1.776  0.6700  2.0555  4.0923
  492SOL    HW2 1476   0.981   0.514   1.826  0.0724 -0.7448  1.9693
  493SOL     OW 1477   2.268   1.804   0.763 -0.2315  0.2029  0.0513
  493SOL    HW1 1478   2.202   1.838   0.697  3.2813 -0.8373  0.3631
  493SOL    HW2 1479   2.346   1.755   0.715  0.3162 -0.3660 -0.1737
  494SOL     OW 1480   0.718   1.453   0.883 -0.3023  0.2137 -0.6062
  494SOL    HW1 1481   0.798   1.475   0.828 -3.5243 -1.6613  1.8537
  494SOL    HW2 1482   0.631   1.479   0.842  0.4243  0.6185  1.5286
  495SOL     OW 1483   2.269   2.511   0.466 -0.4180  0.1228  0.0111
  495SOL    HW1 1484   2.285   2.516   0.365 -0.8783  2.5707 -0.6318
  495SOL    HW2 1485   2.291   2.416   0.496  0.6503  0.1849 -2.2678
  496SOL     OW 1486   2.629   2.997   1.416 -0.1312 -0.1062 -0.2810
  496SOL    HW1 1487   2.633   0.010   1.385  0.4934 -0.9803  0.4429
  496SOL    HW2 1488   2.544   2.982   1.469 -0.8266 -0.8945 -0.9508
  497SOL     OW 1489   2.362   1.177   2.471  0.1936 -0.6677  0.1346
  497SOL    HW1 1490   2.286   1.224   2.434  3.6320 -1.6915  1.1896
  497SOL    HW2 1491   2.332   1.140   2.557  0.0636 -1.3157 -3.7460
  498SOL     OW 1492   0.196   2.190   1.366  0.1348 -0.2801 -0.1834
  498SOL    HW1 1493   0.103   2.159   1.340 -2.0942 -3.2552 -3.4410
  498SOL    HW2 1494   0.203   2.290   1.351  0.7086 -0.5801 -0.3848
  499SOL     OW 1495   0.990   2.379   1.965 -0.0646 -0.0987  0.1542
  499SOL    HW1 1496   0.913   2.342   2.023 -0.2933  0.3059  0.3666
  499SOL    HW2 1497   1.054   2.306   1.927 -1.7965  0.4291  0.8456
  500SOL     OW 1498   0.598   2.008   0.396  0.1492  0.3214 -0.4255
  500SOL    HW1 1499   0.634   1.923   0.353  0.5379 -1.4479 -0.5731
  500SOL    HW2 1500   0.536   1.989   0.477 -3.7902  0.3470  1.5431
  501SOL     OW 1501   1.965   0.128   1.162  0.0053  0.6283  0.4240
  501SOL    HW1 1502   1.935   0.055   1.099 -0.9187  0.2967  2.8805
  501SOL    HW2 1503   1.905   0.145   1.246  0.3981 -0.1089 -2.8253
  502SOL     OW 1504   2.733   0.311   1.690  0.2955 -0.2084 -0.4594
  502SOL    HW1 1505   2.807   0.283   1.628 -1.2948 -0.6914 -0.2551
  502SOL    HW2 1506   2.721   0.242   1.768 -2.8296 -1.0708  2.7661
  503SOL     OW 1507   2.403   1.265   1.895  0.4005  0.3192 -0.4437
  503SOL    HW1 1508   2.370   1.356   1.859  0.1767 -2.0526  0.0264
  503SOL    HW2 1509   2.503   1.275   1.897 -2.0839  0.5843 -0.9785
  504SOL     OW 1510   1.543   0.815   1.590  0.3488 -0.5345  0.0020
  504SOL    HW1 1511   1.465   0.780   1.643  0.5602  0.7840  0.5306
  504SOL    HW2 1512   1.586   0.740   1.539  1.3721 -0.9561  0.6953
  505SOL     OW 1513   0.549   3.036   1.613 -0.0682  0.0017  0.1344
  505SOL    HW1 1514   0.573   2.935   1.607 -0.2877 -2.3817  0.1491
  505SOL    HW2 1515   0.467   3.059   1.561 -0.7321 -1.1885  1.2522
  506SOL     OW 1516   0.134   0.303   0.143  0.3790  0.0071  0.1947
  506SOL    HW1 1517   0.185   0.315   0.056 -2.6511  0.2550  1.4636
  506SOL    HW2 1518   0.194   0.271   0.220  2.3368  0.2397  3.3575
  507SOL     OW 1519   2.460   0.490   0.142  0.1388 -0.9546  0.6587
  507SOL    HW1 1520   2.400   0.411   0.157  1.8196  4.3054 -1.0931
  507SOL    HW2 1521   2.496   0.535   0.224  1.7183 -2.7330 -1.7452
  508SOL     OW 1522   1.329   0.261   1.866  0.0712  0.2791  0.5061
  508SOL    HW1 1523   1.231   0.257   1.843 -0.6652  1.6450 -2.7249
  508SOL    HW2 1524   1.384   0.311   1.794 -0.3917  0.7480 -2.2477
  509SOL     OW 1525   1.762   1.712   1.269 -0.1247 -0.2527 -0.4315
  509SOL    HW1 1526   1.662   1.710   1.244 -0.1454 -0.2488 -0.8548
  509SOL    HW2 1527   1.770   1.664   1.358 -1.5634  0.7330 -2.2400
  510SOL     OW 1528   2.674   1.119   1.363 -0.1978 -0.5527  0.3144
  510SOL    HW1 1529   2.701   1.082   1.451  0.8574  0.9708 -1.0744
  510SOL    HW2 1530   2.585   1.071   1.338  0.2114  1.5251  2.0427
  511SOL     OW 1531   1.702   1.988   1.462  0.0653 -0.5450 -0.0228
  511SOL    HW1 1532   1.744   1.910   1.416 -0.3750  1.1435  1.7578
  511SOL    HW2 1533   1.700   2.072   1.400  0.4033 -0.0704  0.5677
  512SOL     OW 1534   0.099   1.592   0.671 -0.6476  0.3907  0.9998
  512SOL    HW1 1535   0.160   1.627   0.592  1.4230  2.6702  0.1241
  512SOL    HW2 1536   0.024   1.656   0.671  2.5488  0.3894  1.4980
  513SOL     OW 1537   0.183   1.884   3.079 -0.7072 -0.0583  0.8177
  513SOL    HW1 1538   0.114   1.953   3.049 -2.1908  0.6282 -1.8790
  513SOL    HW2 1539   0.229   1.842   2.996 -1.3485  0.3201  4.3098
  514SOL     OW 1540   2.789   1.860   2.283 -0.4986 -0.0929  0.1829
  514SOL    HW1 1541   2.818   1.904   2.370  0.8020 -0.1075 -0.5018
  514SOL    HW2 1542   2.784   1.758   2.306  0.2192  1.3000  0.4320
  515SOL     OW 1543   2.128   1.057   0.555 -0.0030 -0.0749  0.3768
  515SOL    HW1 1544   2.091   1.152   0.549  3.2000 -0.3757  0.2086
  515SOL    HW2 1545   2.078   1.008   0.627 -0.8216 -0.2280  0.2223
  516SOL     OW 1546   2.112   2.650   0.173 -0.4999  0.0316  0.0573
  516SOL    HW1 1547   2.039   2.577   0.161  1.9966 -1.3181  0.5627
  516SOL    HW2 1548   2.199   2.598   0.177 -0.1405 -1.9347  0.5568
  517SOL     OW 1549   1.009   1.987   2.531 -0.7433 -0.0299  0.1562
  517SOL    HW1 1550   1.087   2.041   2.488  0.8634  0.1100 -1.3629
  517SOL    HW2 1551   1.003   1.897   2.481  0.7688  0.4897  2.6058
  518SOL     OW 1552   0.268   0.153   2.315 -0.3113  0.5459  0.0131
  518SOL    HW1 1553   0.288   0.091   2.238  0.8245  2.9303 -1.4420
  518SOL    HW2 1554   0.226   0.237   2.277  1.3713 -0.1208 -3.5065
  519SOL     OW 1555   0.431   1.485   0.137  0.1878 -0.2162  0.1551
  519SOL    HW1 1556   0.349   1.430   0.117 -2.0407 -0.9012 -1.4101
  519SOL    HW2 1557   0.501   1.427   0.188  2.0556  0.5480  1.2828
  520SOL     OW 1558   2.943   1.966   2.078  0.7235 -0.2122  0.3778
  520SOL    HW1 1559   2.891   1.930   2.159  1.5631 -1.7138 -0.2516
  520SOL    HW2 1560   2.907   2.058   2.056 -2.5784  1.4252  2.0951
  521SOL     OW 1561   0.654   2.405   2.489 -0.4846  0.2562 -0.0110
  521SOL    HW1 1562   0.716   2.344   2.439 -0.9681 -0.0421 -0.1992
  521SOL    HW2 1563   0.643   2.498   2.452  2.9868  2.7471  1.1192
  522SOL     OW 1564   1.726   2.822   2.055  0.0304  0.1763 -0.4364
  522SOL    HW1 1565   1.679   2.902   2.101 -1.2336 -0.8141 -0.0095
  522SOL    HW2 1566   1.793   2.855   1.990 -0.4483  0.1270 -1.3513
  523SOL     OW 1567   2.034   1.914   2.035  0.1768  0.7575  0.4694
  523SOL    HW1 1568   2.138   1.911   2.049  0.8803  1.0830 -0.3631
  523SOL    HW2 1569   1.997   2.001   2.072  1.5378 -0.0260  0.7980
  524SOL     OW 1570   0.703   2.768   0.422 -0.1982 -0.1890 -0.3133
  524SOL    HW1 1571   0.765   2.729   0.355 -1.6753  1.2542  0.1417
  524SOL    HW2 1572   0.613   2.782   0.379  2.5193 -0.8814  0.7648
  525SOL     OW 1573   0.187   0.616   0.452 -0.0586  0.0255  0.1421
  525SOL    HW1 1574   0.276   0.618   0.405  1.7846  1.6390  1.7598
  525SOL    HW2 1575   0.151   0.521   0.443  2.1593 -3.2900  2.1282
  526SOL     OW 1576   0.578   2.983   0.791 -0.0346  0.3518  0.0106
  526SOL    HW1 1577   0.534   2.907   0.842  1.7800 -0.8835 -1.5159
  526SOL    HW2 1578   0.534   3.073   0.825 -1.1050  5.0018  1.7440
  527SOL     OW 1579   2.295   1.740   1.026 -0.0857 -0.0692  0.1910
  527SOL    HW1 1580   2.286   1.769   0.929 -0.4797  1.3004 -1.1361
  527SOL    HW2 1581   2.230   1.664   1.054  1.6345  0.6066  0.6394
  528SOL     OW 1582   2.965   2.664   2.532  0.4930 -0.0310 -0.2593
  528SOL    HW1 1583   2.882   2.615   2.493  0.1855  1.4850 -1.7503
  528SOL    HW2 1584   2.981   2.744   2.471 -0.1441  1.3814 -1.4766
  529SOL     OW 1585   1.391   1.710   2.253  0.1958  0.1079  0.1043
  529SOL    HW1 1586   1.378   1.607   2.260 -0.8705  0.4443 -1.9371
  529SOL    HW2 1587   1.486   1.724   2.225 -0.5353 -1.7096  1.7099
  530SOL     OW 1588   1.579   1.262   2.828  0.0710 -0.0461 -0.4988
  530SOL    HW1 1589   1.548   1.328   2.758  0.7088  1.0939  0.2931
  530SOL    HW2 1590   1.539   1.170   2.810 -1.2616 -0.2928 -0.5574
  531SOL     OW 1591   0.581   1.156   3.023  0.0042 -0.1752  0.3944
  531SOL    HW1 1592   0.498   1.202   2.987  1.7078  0.9280  1.6993
  531SOL    HW2 1593   0.594   1.061   2.990  0.1423  2.1926 -0.7890
  532SOL     OW 1594   1.635   1.455   0.384 -0.2531  0.3580  0.4255
  532SOL    HW1 1595   1.704   1.399   0.435 -1.2316  1.3849 -0.5417
  532SOL    HW2 1596   1.603   1.519   0.442  0.8165 -4.4323 -1.3659
  533SOL     OW 1597   0.687   0.419   2.435  0.4574  0.0179 -0.2539
  533SOL    HW1 1598   0.683   0.392   2.336  0.5863  0.6295 -1.0515
  533SOL    HW2 1599   0.775   0.388   2.478  0.4467 -0.2690  0.5772
  534SOL     OW 1600   0.775   2.555   3.068 -0.2083  0.0722  0.2007
  534SOL    HW1 1601   0.680   2.550   3.027 -1.4115  0.9331 -0.7612
  534SOL    HW2 1602   0.828   2.635   3.042 -2.7822  2.3856  1.3721
  535SOL     OW 1603   0.078   0.012   0.143 -0.1206 -0.4680  0.0605
  535SOL    HW1 1604   0.068   3.049   0.235 -0.5487 -1.1351 -0.7642
  535SOL    HW2 1605   0.077   0.113   0.146 -1.3968 -0.5045  0.3735
  536SOL     OW 1606   0.050   0.848   2.180  0.1591 -0.6605 -0.1804
  536SOL    HW1 1607   0.033   0.932   2.122 -4.3359 -0.8391  1.8718
  536SOL    HW2 1608   0.122   0.782   2.144 -0.6259  0.9607  1.5018
  537SOL     OW 1609   1.077   0.172   1.268  0.1753 -0.3451 -0.3673
  537SOL    HW1 1610   0.990   0.211   1.236 -2.1439 -3.0293 -0.0622
  537SOL    HW2 1611   1.140   0.248   1.281  3.9008 -0.4719  1.6867
  538SOL     OW 1612   0.226   1.660   0.461  0.2361  0.1234 -0.1113
  538SOL    HW1 1613   0.251   1.727   0.386  1.0360  0.6812  0.0079
  538SOL    HW2 1614   0.301   1.589   0.452  1.5022  0.6896 -0.4066
  539SOL     OW 1615   2.648   1.003   2.043 -0.4024  0.0726  0.0733
  539SOL    HW1 1616   2.555   1.036   2.066 -1.7001  1.0785 -3.8184
  539SOL    HW2 1617   2.691   1.051   1.965 -1.1886  0.8392  0.0165
  540SOL     OW 1618   1.774   1.260   2.034 -0.0399  0.0629  0.2182
  540SOL    HW1 1619   1.786   1.157   2.047  0.2429 -2.1014 -0.2920
  540SOL    HW2 1620   1.858   1.294   1.990 -1.9060  1.7136  2.6532
  541SOL     OW 1621   0.829   1.191   1.761 -0.3234 -0.1941  0.1372
  541SOL    HW1 1622   0.809   1.149   1.853 -0.5616 -0.5489  1.7818
  541SOL    HW2 1623   0.924   1.167   1.729  2.5745  0.3387 -2.5742
  542SOL     OW 1624   1.709   0.259   2.112 -0.8893  0.5819  0.2342
  542SOL    HW1 1625   1.778   0.271   2.191 -0.4427 -2.0262  1.4224
  542SOL    HW2 1626   1.757   0.259   2.024 -1.4363 -0.7102  1.4638
  543SOL     OW 1627   1.047   0.481   0.460 -0.2378 -0.7870 -0.0052
  543SOL    HW1 1628   0.984   0.489   0.379  0.0972 -0.0560  1.7120
  543SOL    HW2 1629   1.142   0.506   0.432  0.6275  0.3653  0.0758
  544SOL     OW 1630   2.558   1.890   2.140  0.5014  0.7148 -0.3086
  544SOL    HW1 1631   2.512   1.802   2.153  0.6827  1.3527 -0.9865
  544SOL    HW2 1632   2.652   1.887   2.179  1.0187 -0.5763  1.0657
  545SOL     OW 1633   1.933   2.146   2.129 -0.4984  0.1479  0.0020
  545SOL    HW1 1634   1.961   2.216   2.200  0.9112 -0.4709 -0.9564
  545SOL    HW2 1635   1.875   2.177   2.055  2.3765 -1.2735  2.6637
  546SOL     OW 1636   0.376   0.054   2.896 -0.7258 -0.7194  0.2017
  546SOL    HW1 1637   0.379   0.094   2.991  1.2176 -0.2664  2.6752
  546SOL    HW2 1638   0.413   3.040   2.889  2.4522  0.7573  0.3283
  547SOL     OW 1639   1.934   0.772   0.263  0.3079 -0.5703  0.3701
  547SOL    HW1 1640   1.943   0.721   0.349 -2.1023  0.8596  1.9305
  547SOL    HW2 1641   2.000   0.854   0.261  2.1002  1.6409 -2.3765
  548SOL     OW 1642   2.285   1.488   2.180  0.3432  0.2037  0.4605
  548SOL    HW1 1643   2.265   1.406   2.241  1.5028  0.2726 -0.0319
  548SOL    HW2 1644   2.359   1.547   2.209 -0.3367 -0.7564  0.0576
  549SOL     OW 1645   1.977   0.345   0.506  0.0955  0.1066  0.1168
  549SOL    HW1 1646   1.982   0.440   0.471 -0.4141 -1.3621 -1.8243
  549SOL    HW2 1647   2.065   0.318   0.543 -0.1057 -1.6786  0.5791
  550SOL     OW 1648   2.453   2.210   0.934  0.7478 -0.4250  0.1191
  550SOL    HW1 1649   2.379   2.151   0.975 -1.3761 -2.0062  0.1383
  550SOL    HW2 1650   2.418   2.300   0.909  1.7756  2.3011  0.5433
  551SOL     OW 1651   0.946   2.975   1.566  0.0491  0.2239  0.1146
  551SOL    HW1 1652   1.038   2.974   1.530  0.5868 -1.0738  3.6489
  551SOL    HW2 1653   0.883   3.052   1.545 -0.3926  0.0344 -0.8231
  552SOL     OW 1654   2.820   2.155   2.489 -0.0223  0.2197 -0.1688
  552SOL    HW1 1655   2.798   2.125   2.587  0.1639  0.7591  4.2134
  552SOL    HW2 1656   2.913   2.123   2.460  1.4013  1.0738  0.7758
  553SOL     OW 1657   0.298   2.993   0.596  0.6340 -0.4240  0.5533
  553SOL    HW1 1658   0.299   3.042   0.687 -1.8310  1.9809 -0.3187
  553SOL    HW2 1659   0.324   2.894   0.607 -0.4626  0.6227  0.4306
  554SOL     OW 1660   2.189   2.411   1.862 -0.0112 -0.1307  0.0399
  554SOL    HW1 1661   2.096   2.398   1.819  3.5336 -0.6277  0.1686
  554SOL    HW2 1662   2.262   2.431   1.791  0.8553 -0.4601 -1.3956
  555SOL     OW 1663   1.177   2.147   1.933 -0.5136 -0.3238  0.1834
  555SOL    HW1 1664   1.208   2.170   1.838  1.0862 -1.8609  0.0751
  555SOL    HW2 1665   1.161   2.046   1.940  2.4599  0.4608 -1.1283
  556SOL     OW 1666   1.325   1.527   1.458  0.1417 -0.8673  0.1199
  556SOL    HW1 1667   1.324   1.601   1.388 -0.8103 -0.1820  1.7781
  556SOL    HW2 1668   1.389   1.561   1.535  1.2379  2.1591  3.4349
  557SOL     OW 1669   1.987   2.300   2.349  0.3256 -0.7772  0.0788
  557SOL    HW1 1670   2.078   2.353   2.351 -0.1967  1.5523 -0.4109
  557SOL    HW2 1671   1.974   2.241   2.431  0.8633 -2.2163  0.3600
  558SOL     OW 1672   0.623   2.994   2.137 -0.0047  0.1469 -0.3537
  558SOL    HW1 1673   0.525   3.011   2.117  0.6418  0.5649  0.7437
  558SOL    HW2 1674   0.669   0.001   2.136  0.8872  0.3830  1.8381
  559SOL     OW 1675   2.267   2.911   1.148  0.2002  1.0649 -0.0233
  559SOL    HW1 1676   2.370   2.914   1.140 -1.1960 -2.9997 -1.4004
  559SOL    HW2 1677   2.226   2.937   1.053  0.5678  2.4314 -1.1244
  560SOL     OW 1678   0.923   2.286   0.585  0.0485  0.2281 -0.0179
  560SOL    HW1 1679   0.909   2.381   0.565  0.5104  1.6622  0.5016
  560SOL    HW2 1680   0.835   2.231   0.584  0.2509 -1.8151  2.4156
  561SOL     OW 1681   1.038   0.432   0.006  0.1211  0.3442 -0.0422
  561SOL    HW1 1682   0.989   0.490   3.019 -0.6553 -0.2138 -2.7933
  561SOL    HW2 1683   0.988   0.438   0.095 -0.4057  1.9168  1.3006
  562SOL     OW 1684   0.743   0.304   2.834  0.5362  0.6870 -0.4355
  562SOL    HW1 1685   0.762   0.364   2.914  0.5462 -0.8816  0.3825
  562SOL    HW2 1686   0.834   0.272   2.798 -0.4235 -1.2312 -0.6845
  563SOL     OW 1687   1.559   1.720   2.906 -0.8458  0.1528 -0.3013
  563SOL    HW1 1688   1.652   1.719   2.874  0.1680 -1.8551  0.3082
  563SOL    HW2 1689   1.502   1.753   2.829  1.5838  1.5292 -2.9936
  564SOL     OW 1690   2.553   1.298   0.800 -0.1041 -0.2718  0.0366
  564SOL    HW1 1691   2.641   1.246   0.786  1.9953  0.6439  0.1602
  564SOL    HW2 1692   2.479   1.272   0.734 -1.6497 -2.9049 -1.6682
  565SOL     OW 1693   1.006   0.232   2.809 -0.2423 -0.4496 -0.4384
  565SOL    HW1 1694   1.037   0.141   2.854 -1.3440 -3.9780  4.4297
  565SOL    HW2 1695   1.073   0.307   2.833  2.1241  0.9670  0.1221
  566SOL     OW 1696   1.414   0.065   2.407 -0.7980 -0.3344  0.2131
  566SOL    HW1 1697   1.368   3.076   2.348 -0.4903  0.1606 -1.5342
  566SOL    HW2 1698   1.516   0.045   2.417  1.2812  0.9315  1.4849
  567SOL     OW 1699   2.033   1.330   0.592  0.0156 -0.2555 -0.0134
  567SOL    HW1 1700   2.044   1.358   0.493 -1.0371  0.1456 -1.4889
  567SOL    HW2 1701   2.061   1.403   0.660  0.2178  1.3247 -2.2407
  568SOL     OW 1702   2.041   1.860   0.641 -0.9646 -0.1330  0.2533
  568SOL    HW1 1703   2.037   1.810   0.550 -4.2271 -1.1928 -1.9723
  568SOL    HW2 1704   1.966   1.929   0.631  0.4189 -0.5849 -0.5613
  569SOL     OW 1705   2.010   1.232   2.868  0.1605  0.3020  0.5185
  569SOL    HW1 1706   1.968   1.148   2.912 -0.7495  1.9502 -0.3281
  569SOL    HW2 1707   2.103   1.238   2.902 -3.7264  1.4204 -0.0556
  570SOL     OW 1708   0.166   2.546   1.786 -0.5036 -0.0059 -0.3207
  570SOL    HW1 1709   0.103   2.483   1.840 -0.6340 -1.4135 -3.1868
  570SOL    HW2 1710   0.188   2.637   1.832  2.0073 -0.6463  1.6737
  571SOL     OW 1711   0.121   0.351   2.211 -0.2932 -0.0632 -0.1889
  571SOL    HW1 1712   0.194   0.413   2.170  0.3896  0.1463  0.1219
  571SOL    HW2 1713   0.074   0.390   2.288  1.7511 -1.1361 -0.5824
  572SOL     OW 1714   1.171   1.666   0.805  0.2279 -0.3719  0.4425
  572SOL    HW1 1715   1.167   1.729   0.880 -1.4579 -0.4258  1.7872
  572SOL    HW2 1716   1.153   1.716   0.719  2.4861  2.5844  2.8702
  573SOL     OW 1717   1.159   2.066   0.184  0.1532  0.2469 -0.3503
  573SOL    HW1 1718   1.223   2.104   0.114 -1.7405 -1.9278  2.9913
  573SOL    HW2 1719   1.208   1.999   0.236 -1.3799  1.2170  0.1731
  574SOL     OW 1720   0.893   0.058   0.828  0.6099 -0.0181 -0.1452
  574SOL    HW1 1721   0.878   0.004   0.912  1.8893  0.0998 -1.6638
  574SOL    HW2 1722   0.876   3.079   0.749  2.5430 -0.9253  0.9467
  575SOL     OW 1723   3.042   1.044   1.359  0.6442  0.4955 -0.3020
  575SOL    HW1 1724   2.990   0.962   1.337  0.7077  1.1060 -0.2717
  575SOL    HW2 1725   2.997   1.103   1.431 -1.1222 -1.0042  0.5476
  576SOL     OW 1726   1.623   0.059   1.540 -0.1782 -0.0191  0.0842
  576SOL    HW1 1727   1.628   3.055   1.587  1.6152  3.2690 -0.2299
  576SOL    HW2 1728   1.565   0.056   1.456  0.2090 -0.3386  1.4977
  577SOL     OW 1729   0.514   0.989   1.882 -0.5810  0.1452 -0.1312
  577SOL    HW1 1730   0.601   1.010   1.932 -2.2760 -0.8072 -0.6567
  577SOL    HW2 1731   0.502   0.891   1.877 -0.1741  0.9381  0.4240
  578SOL     OW 1732   2.065   0.295   2.577  0.7035  0.0173 -0.2831
  578SOL    HW1 1733   2.134   0.319   2.652  0.3421 -0.4236  2.6797
  578SOL    HW2 1734   2.026   0.381   2.534  0.9414  2.8662  0.1161
  579SOL     OW 1735   2.552   1.791   1.884 -0.4575 -0.1440 -0.6216
  579SOL    HW1 1736   2.518   1.861   1.818  4.1036  2.5366 -0.2669
  579SOL    HW2 1737   2.574   1.826   1.973 -2.9396 -1.2408 -3.0170
  580SOL     OW 1738   1.869   1.162   2.470 -0.4447 -0.1383 -0.1739
  580SOL    HW1 1739   1.857   1.227   2.550  0.7822  0.1285  0.5614
  580SOL    HW2 1740   1.926   1.081   2.503 -0.7203  0.8592  1.1794
  581SOL     OW 1741   1.465   1.004   2.786  0.4734  0.0281 -0.2081
  581SOL    HW1 1742   1.378   0.950   2.779 -2.7550 -1.0092  1.0546
  581SOL    HW2 1743   1.534   0.972   2.719 -1.3359 -0.0810 -1.0604
  582SOL     OW 1744   1.043   1.509   1.439  0.1430 -0.1171 -0.3544
  582SOL    HW1 1745   1.030   1.414   1.400 -1.9274  0.7564  1.9861
  582SOL    HW2 1746   1.145   1.525   1.442  1.5385  0.5621 -1.8411
  583SOL     OW 1747   1.750   1.186   1.288  0.3722  0.5230  0.6835
  583SOL    HW1 1748   1.845   1.175   1.251 -0.2337 -0.6947  0.2157
  583SOL    HW2 1749   1.712   1.275   1.260 -0.9198 -3.5463 -0.0548
  584SOL     OW 1750   1.899   2.565   0.728 -0.1036 -0.0001 -0.5915
  584SOL    HW1 1751   1.836   2.491   0.755 -0.4249 -0.8713 -0.3931
  584SOL    HW2 1752   1.928   2.619   0.810 -0.4891 -2.0682 -3.9741
  585SOL     OW 1753   1.909   2.661   2.965  0.6518 -0.0261 -0.4949
  585SOL    HW1 1754   1.871   2.732   2.906  0.9140 -1.4366  0.0537
  585SOL    HW2 1755   1.860   2.574   2.957 -1.1995  2.0308  1.6567
  586SOL     OW 1756   2.864   2.325   0.889 -0.4072  0.3999  0.3983
  586SOL    HW1 1757   2.836   2.417   0.852  0.5235 -0.0732 -0.4720
  586SOL    HW2 1758   2.785   2.278   0.928  0.3218  0.5987  0.0377
  587SOL     OW 1759   1.023   1.882   0.017  0.6373  0.5002  0.6143
  587SOL    HW1 1760   1.077   1.963   0.054 -0.2113  0.2955 -0.5030
  587SOL    HW2 1761   1.031   1.863   3.000 -2.4009  2.3163 -1.7121
  588SOL     OW 1762   0.499   0.108   0.986 -0.6221 -0.3369 -0.5830
  588SOL    HW1 1763   0.556   0.045   1.042 -1.9092  0.5515  1.1446
  588SOL    HW2 1764   0.532   0.198   1.015  2.7635 -0.4581  0.8734
  589SOL     OW 1765   1.390   0.740   0.727 -0.2955 -0.3382  0.0984
  589SOL    HW1 1766   1.395   0.711   0.630  1.4261  1.1854  0.0388
  589SOL    HW2 1767   1.305   0.719   0.777  0.1199  0.2868 -0.0705
  590SOL     OW 1768   1.783   2.438   3.068 -0.7918 -0.2147  0.1758
  590SOL    HW1 1769   1.871   2.440   0.043  1.8437 -0.1113 -1.1617
  590SOL    HW2 1770   1.711   2.433   0.053  3.1745  0.4718  0.5008
  591SOL     OW 1771   0.253   2.306   2.704 -0.0619  0.4799  0.0876
  591SOL    HW1 1772   0.336   2.296   2.642  1.8399  0.7447  0.5252
  591SOL    HW2 1773   0.192   2.386   2.682  1.6164  0.9818  0.8386
  592SOL     OW 1774   2.694   1.506   1.907 -0.4102  0.0937  0.9399
  592SOL    HW1 1775   2.634   1.582   1.884  1.4486 -2.5079  4.0112
  592SOL    HW2 1776   2.721   1.448   1.830 -0.0166 -0.3590  0.0265
  593SOL     OW 1777   1.742   1.598   1.507  0.1303  0.8058  0.0048
  593SOL    HW1 1778   1.780   1.503   1.529  0.2633 -2.1733  1.5554
  593SOL    HW2 1779   1.647   1.612   1.538  3.4001 -2.9321  0.0707
  594SOL     OW 1780   2.633   1.271   0.088 -0.5437 -0.1071 -0.1763
  594SOL    HW1 1781   2.711   1.217   0.105 -3.2652  1.1387 -3.2620
  594SOL    HW2 1782   2.552   1.209   0.076 -0.3425  2.2350 -0.3100
  595SOL     OW 1783   0.759   0.865   0.570  0.3489  0.2167 -0.6934
  595SOL    HW1 1784   0.728   0.943   0.518  1.3955 -1.4909 -0.0637
  595SOL    HW2 1785   0.856   0.890   0.596  1.6614 -0.1371 -0.9360
  596SOL     OW 1786   2.970   1.437   1.309  0.1635 -0.4444 -0.4129
  596SOL    HW1 1787   3.043   1.426   1.244 -0.9055  5.0202  2.0638
  596SOL    HW2 1788   2.964   1.530   1.346  0.4140 -0.9788  1.2352
  597SOL     OW 1789   1.096   1.906   1.344 -0.3030  0.0455 -0.1359
  597SOL    HW1 1790   1.085   1.982   1.280  3.8303  0.3854 -1.1932
  597SOL    HW2 1791   1.098   1.955   1.436  0.3167  0.9630  1.0416
  598SOL     OW 1792   2.910   2.909   1.950  0.0789 -0.0038 -0.0648
  598SOL    HW1 1793   2.991   2.906   1.889 -2.2052  0.5569  0.5898
  598SOL    HW2 1794   2.825   2.952   1.910  0.9796  2.0158  0.3837
  599SOL     OW 1795   0.509   1.436   2.763 -0.2242 -1.0649  0.3733
  599SOL    HW1 1796   0.469   1.493   2.839  2.2083 -0.3744 -0.4807
  599SOL    HW2 1797   0.539   1.496   2.686  1.0602  2.9821 -1.3241
  600SOL     OW 1798   0.593   0.874   2.951 -0.1185 -0.4446  0.2271
  600SOL    HW1 1799   0.635   0.839   2.865  0.5407 -0.1213 -0.4554
  600SOL    HW2 1800   0.595   0.804   3.027 -1.4605  1.1993  0.8627
  601SOL     OW 1801   0.671   0.733   1.668  0.3215 -0.6889  0.0860
  601SOL    HW1 1802   0.760   0.755   1.702  0.7595  0.8843 -1.8147
  601SOL    HW2 1803   0.602   0.741   1.741  2.1083  1.1304 -1.8034
  602SOL     OW 1804   0.366   0.102   0.077 -0.0698  0.2375 -0.4560
  602SOL    HW1 1805   0.373   0.163   0.155 -1.1466 -1.0951 -0.9578
  602SOL    HW2 1806   0.287   0.036   0.096 -1.3975  3.9670 -0.2325
  603SOL     OW 1807   1.369   2.706   2.267 -0.1418 -0.3445  0.2126
  603SOL    HW1 1808   1.336   2.797   2.267  0.2726 -2.9027  1.7277
  603SOL    HW2 1809   1.395   2.674   2.361 -1.3124  1.0304 -1.2511
  604SOL     OW 1810   0.177   2.321   2.988 -0.3619 -0.4560  0.1064
  604SOL    HW1 1811   0.278   2.327   3.004 -0.9858  2.9046 -2.6083
  604SOL    HW2 1812   0.147   2.350   2.894 -0.4320 -0.5654 -3.0374
  605SOL     OW 1813   2.217   1.004   1.329 -0.6154  0.5522  0.1385
  605SOL    HW1 1814   2.176   1.005   1.237 -0.2153 -0.0468 -1.0648
  605SOL    HW2 1815   2.165   1.057   1.393  2.4695 -0.4044 -1.0394
  606SOL     OW 1816   0.619   1.117   2.685  0.3669 -0.2162  0.4224
  606SOL    HW1 1817   0.583   1.210   2.710 -1.2531 -0.2775  3.3378
  606SOL    HW2 1818   0.719   1.127   2.667 -0.2482 -0.5784  1.5963
  607SOL     OW 1819   0.647   0.379   1.099 -0.2670 -0.0910  0.1217
  607SOL    HW1 1820   0.667   0.456   1.162  0.7102  0.1670 -2.2809
  607SOL    HW2 1821   0.736   0.339   1.070  0.4760  3.2242  1.5890
  608SOL     OW 1822   2.950   1.695   2.014  0.0727  0.4537  0.0913
  608SOL    HW1 1823   2.892   1.620   2.054 -0.7790 -0.1902 -0.1069
  608SOL    HW2 1824   2.916   1.787   2.035 -1.6148 -0.3515  0.6790
  609SOL     OW 1825   2.486   0.589   0.376  0.1886  0.0634 -0.7845
  609SOL    HW1 1826   2.541   0.647   0.440 -1.5346  0.5079 -0.4033
  609SOL    HW2 1827   2.391   0.633   0.371 -3.1910 -0.0612 -1.1569
  610SOL     OW 1828   0.108   2.623   1.495  0.0169  0.0944  0.0135
  610SOL    HW1 1829   0.137   2.677   1.579 -1.1807 -0.2991  1.3061
  610SOL    HW2 1830   0.057   2.682   1.424  0.9610 -3.0342 -0.0461
  611SOL     OW 1831   1.666   2.058   0.243 -0.0801  0.0417  0.1686
  611SOL    HW1 1832   1.764   2.062   0.266 -0.0598  0.8422  0.5747
  611SOL    HW2 1833   1.638   1.963   0.228 -1.4355  1.8301 -0.7692
  612SOL     OW 1834   0.628   0.429   1.765 -0.2168 -0.4678  0.1553
  612SOL    HW1 1835   0.699   0.486   1.811  3.4060 -0.3507 -0.5970
  612SOL    HW2 1836   0.538   0.468   1.782  2.2941 -2.1785  2.5990
  613SOL     OW 1837   0.370   2.076   0.788 -0.3372  0.1260  0.0133
  613SOL    HW1 1838   0.296   2.086   0.860  2.1745  1.2491  0.5472
  613SOL    HW2 1839   0.457   2.129   0.817 -0.1506  2.4451 -0.0609
  614SOL     OW 1840   1.690   0.251   1.728 -0.6894 -0.3236  0.9298
  614SOL    HW1 1841   1.743   0.218   1.811 -0.0573 -0.5885  1.1262
  614SOL    HW2 1842   1.648   0.175   1.677  0.0560  2.3327 -0.9571
  615SOL     OW 1843   1.518   1.333   0.659 -0.4525 -0.3878  0.1494
  615SOL    HW1 1844   1.594   1.306   0.598 -2.7167 -1.0827  1.5051
  615SOL    HW2 1845   1.439   1.263   0.643  1.8718 -3.5041  0.0081
  616SOL     OW 1846   1.882   1.564   0.283 -0.2982 -0.8450  0.2887
  616SOL    HW1 1847   1.794   1.531   0.314  2.1714 -0.2594  0.2742
  616SOL    HW2 1848   1.876   1.589   0.185  0.7218 -1.5115  0.7017
  617SOL     OW 1849   1.597   0.712   3.009  0.1652  0.3636  0.0489
  617SOL    HW1 1850   1.640   0.750   0.011 -0.1735 -1.0489  0.1453
  617SOL    HW2 1851   1.625   0.766   2.930 -1.4767 -2.5113  1.6555
  618SOL     OW 1852   0.491   0.710   1.876 -0.2154 -0.5939 -0.4944
  618SOL    HW1 1853   0.562   0.667   1.931 -2.9251 -0.9311  0.7412
  618SOL    HW2 1854   0.428   0.641   1.839  1.0508 -1.9905  2.8695
  619SOL     OW 1855   2.983   1.657   1.487  0.6582  0.1174 -0.0976
  619SOL    HW1 1856   2.927   1.688   1.567  1.6815 -3.4841 -1.3689
  619SOL    HW2 1857   3.045   1.735   1.454 -0.3457  2.0759  0.9213
  620SOL     OW 1858   2.388   2.813   2.595  0.0877 -0.0626 -0.1719
  620SOL    HW1 1859   2.410   2.811   2.495  1.3539  2.0370  0.2177
  620SOL    HW2 1860   2.337   2.895   2.625 -0.9348 -1.5484 -0.1305
  621SOL     OW 1861   2.561   2.024   0.079  0.2560  0.2336  0.2091
  621SOL    HW1 1862   2.579   1.935   0.128 -1.7214 -1.4134 -1.2006
  621SOL    HW2 1863   2.555   2.105   0.142 -0.2016 -1.4051 -2.1889
  622SOL     OW 1864   1.291   0.317   2.522  0.5796 -0.0870 -0.2819
  622SOL    HW1 1865   1.310   0.217   2.511  0.6300  0.2358  2.2156
  622SOL    HW2 1866   1.376   0.372   2.524 -2.8363  2.6692  1.3471
  623SOL     OW 1867   0.638   1.770   1.346 -0.5514 -0.5556 -0.3736
  623SOL    HW1 1868   0.707   1.714   1.400  0.2054 -2.8249  1.2805
  623SOL    HW2 1869   0.599   1.712   1.272  0.3846  0.6559 -1.4981
  624SOL     OW 1870   2.837   2.970   3.061 -0.6399  0.0453 -0.0434
  624SOL    HW1 1871   2.761   2.957   2.997 -0.2095  2.4513  1.2334
  624SOL    HW2 1872   2.923   2.986   3.009  2.4443  0.5291  0.8145
  625SOL     OW 1873   0.737   2.078   0.622  0.0367 -0.6172  0.3906
  625SOL    HW1 1874   0.755   1.989   0.671  0.8455  0.5698 -1.3714
  625SOL    HW2 1875   0.713   2.051   0.531  0.4657 -2.1694 -0.4441
  626SOL     OW 1876   2.846   0.687   2.652 -0.1989  0.0499 -0.9255
  626SOL    HW1 1877   2.823   0.623   2.575 -2.8795 -0.7547 -0.7360
  626SOL    HW2 1878   2.828   0.638   2.742 -1.7506  0.0798  1.5503
  627SOL     OW 1879   1.336   2.119   3.063 -0.0795 -0.1694 -0.2608
  627SOL    HW1 1880   1.437   2.128   3.069  0.4825  0.5333 -2.8025
  627SOL    HW2 1881   1.304   2.099   2.967 -3.6922 -1.9191  0.7091
  628SOL     OW 1882   2.847   2.677   2.800 -0.5510  0.4798 -0.1855
  628SOL    HW1 1883   2.927   2.699   2.747 -1.2868  1.6678  2.9453
  628SOL    HW2 1884   2.783   2.606   2.761  2.5319  1.2494  2.0750
  629SOL     OW 1885   0.669   2.797   2.689  0.5033 -0.3761 -0.3883
  629SOL    HW1 1886   0.758   2.764   2.713 -0.6332  1.9088 -2.7181
  629SOL    HW2 1887   0.677   2.891   2.651  0.5981 -0.2160 -0.7098
  630SOL     OW 1888   1.065   0.307   1.859  0.5241 -0.4801  0.8981
  630SOL    HW1 1889   0.990   0.240   1.845 -0.6908 -0.6440  1.0192
  630SOL    HW2 1890   1.066   0.334   1.958  0.9371  0.6052 -0.7636
  631SOL     OW 1891   2.141   0.985   0.302  0.3708  0.1156 -0.2712
  631SOL    HW1 1892   2.126   1.069   0.247 -1.4244  2.3995  2.2596
  631SOL    HW2 1893   2.123   0.997   0.403 -1.1594 -0.6709 -4.9441
  632SOL     OW 1894   2.401   0.409   1.732 -1.1003  0.3134  0.2095
  632SOL    HW1 1895   2.388   0.381   1.635  1.7414 -3.3930 -5.1541
  632SOL    HW2 1896   2.476   0.484   1.739  0.6209  0.0868  4.1648
  633SOL     OW 1897   1.065   1.261   0.382  0.1184  0.1908 -0.0511
  633SOL    HW1 1898   1.045   1.303   0.473  0.6349  1.8691 -0.0552
  633SOL    HW2 1899   1.076   1.160   0.389 -0.7835  2.8908  0.6353
  634SOL     OW 1900   2.743   2.558   2.413  0.3844  0.3608  0.3108
  634SOL    HW1 1901   2.717   2.477   2.356  1.0668  0.4605 -0.2246
  634SOL    HW2 1902   2.679   2.635   2.395  1.1017 -1.5124 -0.6861
  635SOL     OW 1903   1.924   0.621   0.498 -0.4352 -0.3389  0.3595
  635SOL    HW1 1904   1.955   0.634   0.591 -2.2515  3.5608 -2.0365
  635SOL    HW2 1905   1.837   0.567   0.494 -0.4965  1.7137  1.2686
  636SOL     OW 1906   0.761   1.172   0.667 -0.1315  0.2059  0.5118
  636SOL    HW1 1907   0.691   1.183   0.738  1.6328 -0.6584 -2.0416
  636SOL    HW2 1908   0.724   1.173   0.575  2.9562  0.8115 -0.0381
  637SOL     OW 1909   2.589   2.254   0.241 -0.2310  0.7293  0.3330
  637SOL    HW1 1910   2.605   2.274   0.341 -2.7203  0.8263 -0.0787
  637SOL    HW2 1911   2.663   2.289   0.181 -0.6159 -3.7546 -2.1231
  638SOL     OW 1912   1.569   2.382   2.512 -0.1411  0.2193 -1.0370
  638SOL    HW1 1913   1.553   2.308   2.443 -1.9652 -0.7187 -0.5327
  638SOL    HW2 1914   1.662   2.376   2.556 -0.0201 -3.7443  1.0267
  639SOL     OW 1915   1.478   1.888   0.638 -0.4792  0.1200 -0.2986
  639SOL    HW1 1916   1.415   1.884   0.719  0.4247  0.4246  0.2094
  639SOL    HW2 1917   1.559   1.824   0.654  0.8672 -3.7792 -0.0831
  640SOL     OW 1918   1.929   0.077   0.462 -0.1230 -0.4080 -0.6340
  640SOL    HW1 1919   2.003   0.050   0.400  1.5371 -0.8725  1.7023
  640SOL    HW2 1920   1.931   0.180   0.480 -1.4099  0.8772 -0.4864
  641SOL     OW 1921   2.808   0.143   0.067 -0.5306 -0.3407  0.4109
  641SOL    HW1 1922   2.841   0.046   0.059  0.4906 -0.6392 -0.3401
  641SOL    HW2 1923   2.859   0.195   0.138  0.3212  0.7751  0.8018
  642SOL     OW 1924   0.570   0.802   1.114 -0.6563  0.5305 -0.5174
  642SOL    HW1 1925   0.506   0.769   1.040  0.0993 -1.6057 -1.5471
  642SOL    HW2 1926   0.545   0.766   1.208  1.5028  0.1319  0.5683
  643SOL     OW 1927   0.716   1.295   2.415  0.2094 -0.0333  0.0690
  643SOL    HW1 1928   0.752   1.258   2.502  3.9798  1.8659  1.0264
  643SOL    HW2 1929   0.638   1.236   2.380  3.1388 -0.4432  0.9845
  644SOL     OW 1930   1.588   2.155   0.638  0.4872  0.3185  0.2910
  644SOL    HW1 1931   1.542   2.066   0.634  0.8613  0.3161 -0.0776
  644SOL    HW2 1932   1.560   2.206   0.557  1.1803 -1.9915  0.5676
  645SOL     OW 1933   1.377   1.926   0.366  0.1321 -0.2934  0.6035
  645SOL    HW1 1934   1.444   1.911   0.294 -1.0652  0.3375 -1.2564
  645SOL    HW2 1935   1.413   1.897   0.461  1.0600  1.6109  2.8488
  646SOL     OW 1936   3.005   1.756   2.803 -0.1867 -0.0498  0.1859
  646SOL    HW1 1937   2.998   1.852   2.829  0.7434 -1.5149 -2.8163
  646SOL    HW2 1938   0.016   1.735   2.819 -1.3051  0.2942  0.9404
  647SOL     OW 1939   0.873   0.330   0.957  0.2072  0.1232 -0.0514
  647SOL    HW1 1940   0.883   0.250   0.899  3.2385  2.9447 -2.1291
  647SOL    HW2 1941   0.916   0.408   0.907 -2.5995  1.6430 -0.9437
  648SOL     OW 1942   1.569   0.491   1.096  0.6065  0.2412  0.1759
  648SOL    HW1 1943   1.593   0.535   1.005  0.5021  0.2586 -1.0633
  648SOL    HW2 1944   1.621   0.401   1.109 -0.1019 -1.2218  0.1386
  649SOL     OW 1945   0.938   1.684   0.234 -0.3106 -0.3780  0.1818
  649SOL    HW1 1946   0.992   1.717   0.151  1.6170 -1.5218 -0.4850
  649SOL    HW2 1947   1.002   1.678   0.317  0.8577  0.4467  2.4817
  650SOL     OW 1948   2.365   1.514   1.800 -0.4000  0.7345  0.5105
  650SOL    HW1 1949   2.391   1.597   1.856 -0.5887  1.3999  0.1829
  650SOL    HW2 1950   2.393   1.514   1.703 -0.3550  2.5630 -0.0745
  651SOL     OW 1951   1.521   2.183   2.744  0.9296  0.0413  0.5308
  651SOL    HW1 1952   1.567   2.272   2.730 -3.7588  1.1174 -2.7060
  651SOL    HW2 1953   1.580   2.103   2.729  1.0874  1.4102  2.8135
  652SOL     OW 1954   2.561   1.773   0.167  0.0381  0.2733 -0.2065
  652SOL    HW1 1955   2.495   1.700   0.148  4.3493  1.0225  1.9205
  652SOL    HW2 1956   2.647   1.737   0.211  2.8072  1.0267  0.8550
  653SOL     OW 1957   0.304   0.230   0.569 -0.1960 -0.6923  0.4125
  653SOL    HW1 1958   0.384   0.254   0.625  1.6542  1.2657  0.8379
  653SOL    HW2 1959   0.271   0.138   0.585 -1.8145  1.1022 -1.2841
  654SOL     OW 1960   2.560   2.996   2.252 -0.1574  0.5625 -0.1208
  654SOL    HW1 1961   2.590   3.074   2.316  0.1659 -0.5488  0.2899
  654SOL    HW2 1962   2.533   3.028   2.163 -1.1837 -2.8477  0.7590
  655SOL     OW 1963   0.449   2.884   1.010  0.8358 -0.5581  0.0707
  655SOL    HW1 1964   0.354   2.884   0.971  3.0395  0.2247 -1.0322
  655SOL    HW2 1965   0.457   2.924   1.107 -2.0699  1.3689  4.6405
  656SOL     OW 1966   2.863   2.971   2.688 -0.3179 -0.9655 -0.0362
  656SOL    HW1 1967   2.891   2.945   2.593 -1.8226  1.1531  1.9457
  656SOL    HW2 1968   2.879   2.899   2.761 -1.8359  1.2780 -0.4997
  657SOL     OW 1969   2.969   0.914   3.047  0.3828  0.7606  0.4805
  657SOL    HW1 1970   3.030   0.965   2.979  1.2310  2.1723 -0.0063
  657SOL    HW2 1971   3.015   0.850   0.020 -2.1851  2.5961 -2.5711
  658SOL     OW 1972   2.412   2.010   1.261  0.6852 -0.4313  0.3149
  658SOL    HW1 1973   2.366   2.102   1.262  1.5606  0.3906 -0.7632
  658SOL    HW2 1974   2.398   1.962   1.349 -1.1019  0.7401 -2.1729
  659SOL     OW 1975   1.784   2.579   0.346 -0.3462 -1.0262  0.0339
  659SOL    HW1 1976   1.876   2.581   0.393  1.8104 -0.3299  1.6878
  659SOL    HW2 1977   1.721   2.527   0.408 -1.2491  0.7216 -1.2166
  660SOL     OW 1978   1.612   0.914   2.589 -0.3236 -0.0991 -0.0075
  660SOL    HW1 1979   1.651   0.932   2.496  0.1518 -1.5910 -0.9585
  660SOL    HW2 1980   1.509   0.898   2.570 -3.4038  0.9736 -2.2669
  661SOL     OW 1981   3.021   2.104   1.289 -0.2718  0.1379  0.2176
  661SOL    HW1 1982   2.977   2.198   1.292 -0.8155  0.6934 -0.1441
  661SOL    HW2 1983   2.989   2.047   1.205  0.0895  1.9043 -0.4436
  662SOL     OW 1984   0.472   0.710   0.087 -0.1010 -0.4556 -0.2041
  662SOL    HW1 1985   0.395   0.773   0.088  1.1358 -0.4533 -2.1851
  662SOL    HW2 1986   0.436   0.621   0.118  0.1390  0.9934 -0.1061
  663SOL     OW 1987   2.085   2.026   1.203  0.5485  0.0018 -0.0407
  663SOL    HW1 1988   2.070   2.097   1.275 -2.3531  2.7637 -0.4208
  663SOL    HW2 1989   2.109   1.936   1.247 -0.1109 -1.2079 -0.1842
  664SOL     OW 1990   0.792   1.552   1.139  0.5369  0.7774  0.0102
  664SOL    HW1 1991   0.774   1.499   1.056 -1.7063 -0.0773  0.9585
  664SOL    HW2 1992   0.889   1.584   1.140 -1.7148  3.4978  0.9594
  665SOL     OW 1993   1.700   2.576   1.972 -0.5847  0.0298  0.1488
  665SOL    HW1 1994   1.721   2.667   2.013 -1.2020 -0.0238 -0.5363
  665SOL    HW2 1995   1.673   2.513   2.049  0.9464 -2.3354  1.3368
  666SOL     OW 1996   2.820   2.693   0.355 -0.0301  0.1347  0.0780
  666SOL    HW1 1997   2.759   2.733   0.280 -2.3824 -0.9113 -2.8651
  666SOL    HW2 1998   2.814   2.749   0.438 -1.0109 -0.2319  0.1559
  667SOL     OW 1999   2.760   1.432   1.636  0.3572  0.3969  0.0663
  667SOL    HW1 2000   2.695   1.410   1.562  4.1244  0.9363 -0.4970
  667SOL    HW2 2001   2.825   1.356   1.641 -2.3055  1.6286  1.8491
  668SOL     OW 2002   0.319   0.566   2.459 -0.2088  0.6236  0.3308
  668SOL    HW1 2003   0.348   0.477   2.504  2.8232 -0.2012 -0.1464
  668SOL    HW2 2004   0.232   0.599   2.490  3.5649 -2.0422 -2.6441
  669SOL     OW 2005   2.249   1.869   2.504  0.3095  0.3120 -0.0998
  669SOL    HW1 2006   2.238   1.926   2.418  2.5120  0.0542 -4.3848
  669SOL    HW2 2007   2.160   1.833   2.541 -0.9329  0.6020 -2.5462
  670SOL     OW 2008   2.596   1.425   2.148  0.2318  0.2086 -0.6022
  670SOL    HW1 2009   2.529   1.348   2.137 -0.9049  2.5334 -0.7313
  670SOL    HW2 2010   2.641   1.446   2.061 -1.7145  0.3263  0.6597
  671SOL     OW 2011   0.157   1.862   0.837  0.4452 -0.3518  0.0334
  671SOL    HW1 2012   0.130   1.779   0.788 -2.0328 -0.9981 -0.3679
  671SOL    HW2 2013   0.120   1.941   0.783 -0.9605  2.3288  0.5994
  672SOL     OW 2014   2.340   0.716   2.042 -0.3100  0.2813  0.5153
  672SOL    HW1 2015   2.319   0.782   1.964 -0.3325  1.5271 -0.5591
  672SOL    HW2 2016   2.438   0.734   2.063 -1.4813 -0.4195  0.1248
  673SOL     OW 2017   2.566   2.671   1.930  0.1610  0.2670  0.0412
  673SOL    HW1 2018   2.572   2.661   2.032  0.1974 -1.5351  1.5567
  673SOL    HW2 2019   2.590   2.767   1.907 -0.7045  2.2185  0.7264
  674SOL     OW 2020   1.659   2.534   1.646 -0.6899 -0.2982 -0.0572
  674SOL    HW1 2021   1.592   2.560   1.720  0.0320 -1.2982  0.4527
  674SOL    HW2 2022   1.750   2.544   1.691  1.8090  1.6136 -0.0555
  675SOL     OW 2023   0.497   0.896   0.722  0.0604 -0.0939 -0.0686
  675SOL    HW1 2024   0.508   0.973   0.785 -1.9045  1.6784 -0.4163
  675SOL    HW2 2025   0.586   0.857   0.697 -1.6864  1.0429  1.5531
  676SOL     OW 2026   1.781   1.249   0.561  0.0301  0.0989 -0.0697
  676SOL    HW1 2027   1.767   1.149   0.582  1.5593 -2.2601  1.9626
  676SOL    HW2 2028   1.876   1.278   0.578 -1.1901 -0.7123  0.7737
  677SOL     OW 2029   3.029   1.455   2.517 -0.3609  0.2447 -0.3646
  677SOL    HW1 2030   2.942   1.427   2.557  0.3906  1.6682 -0.7247
  677SOL    HW2 2031   3.065   1.397   2.437  1.4389  2.0190  1.7074
  678SOL     OW 2032   2.649   1.960   1.149 -0.1921  0.2500  0.0658
  678SOL    HW1 2033   2.704   1.927   1.230  1.1689 -1.8519 -2.4184
  678SOL    HW2 2034   2.554   1.984   1.180  1.0544  1.7410  0.0573
  679SOL     OW 2035   1.995   2.529   0.471 -0.0681  0.6230  0.0895
  679SOL    HW1 2036   2.097   2.524   0.444  2.6406 -3.2887 -4.2736
  679SOL    HW2 2037   1.984   2.571   0.565  1.7927  0.6423 -0.4058
  680SOL     OW 2038   2.817   2.207   2.054  0.2878 -0.0054 -0.0979
  680SOL    HW1 2039   2.738   2.165   2.005  1.5236 -0.2724 -1.7443
  680SOL    HW2 2040   2.829   2.302   2.021  2.2764 -2.9839 -0.7099
  681SOL     OW 2041   0.129   1.250   1.672  0.3464  0.4092  0.2569
  681SOL    HW1 2042   0.222   1.214   1.649 -0.4412 -1.1215 -3.6490
  681SOL    HW2 2043   0.128   1.351   1.655 -0.1703 -0.7615 -1.3936
  682SOL     OW 2044   1.248   2.568   0.853  0.2305 -0.3756 -0.4774
  682SOL    HW1 2045   1.244   2.619   0.944 -0.2770  1.0230  0.2077
  682SOL    HW2 2046   1.216   2.627   0.781  1.7455  0.0647  1.1633
  683SOL     OW 2047   2.358   1.216   1.102 -0.0040 -0.2433 -0.0355
  683SOL    HW1 2048   2.452   1.255   1.093  1.7458 -1.1234  0.3039
  683SOL    HW2 2049   2.315   1.238   1.191  1.9428  0.6174 -0.8012
  684SOL     OW 2050   0.612   1.949   2.432  0.0792 -0.5663  0.1687
  684SOL    HW1 2051   0.641   1.980   2.528 -0.1617 -3.5988  5.4671
  684SOL    HW2 2052   0.543   1.875   2.440  3.2846  1.2860  1.5446
  685SOL     OW 2053   1.527   1.594   0.075  0.4214 -0.0714  0.5239
  685SOL    HW1 2054   1.567   1.503   0.060  2.4298  0.8249  0.3368
  685SOL    HW2 2055   1.543   1.650   3.076 -0.6136  1.1799 -0.9387
  686SOL     OW 2056   2.842   0.738   1.543  0.1192  0.2731  0.1021
  686SOL    HW1 2057   2.762   0.743   1.605 -0.0009 -0.5628 -0.8260
  686SOL    HW2 2058   2.817   0.740   1.444  0.5153  0.3804  1.2630
  687SOL     OW 2059   0.876   2.199   2.844 -0.2675  0.1665  0.0553
  687SOL    HW1 2060   0.892   2.238   2.936  0.1826  0.4739  0.4215
  687SOL    HW2 2061   0.936   2.122   2.834 -1.9548  0.6217  0.6943
  688SOL     OW 2062   0.123   2.040   2.000 -0.1142 -0.3917 -0.0962
  688SOL    HW1 2063   0.109   2.067   1.902  0.6177 -0.2603  0.2154
  688SOL    HW2 2064   0.037   1.994   2.034 -2.5993  1.4785 -0.3144
  689SOL     OW 2065   1.997   0.725   1.838  0.2577 -0.2935  0.0993
  689SOL    HW1 2066   1.909   0.741   1.890  0.4067  0.6503  0.6770
  689SOL    HW2 2067   2.028   0.629   1.846 -0.8034 -0.0894  0.5596
  690SOL     OW 2068   2.355   0.799   1.020 -0.1063 -0.3129  0.2374
  690SOL    HW1 2069   2.297   0.795   1.105  1.0676  2.1287  3.4430
  690SOL    HW2 2070   2.359   0.896   0.989 -2.0286 -0.6739 -0.2495
  691SOL     OW 2071   0.833   1.733   1.688  0.0457 -0.3857 -0.5232
  691SOL    HW1 2072   0.873   1.637   1.695 -0.7098 -2.9425 -0.3121
  691SOL    HW2 2073   0.866   1.776   1.604 -2.4446 -3.1638 -1.8061
  692SOL     OW 2074   2.112   0.354   1.396 -0.1926  0.0028  0.0049
  692SOL    HW1 2075   2.056   0.325   1.481 -2.4844 -1.7032 -0.6694
  692SOL    HW2 2076   2.057   0.408   1.325  0.5859  2.3355 -2.2052
  693SOL     OW 2077   0.526   1.145   2.291 -0.3497 -0.1349  0.6537
  693SOL    HW1 2078   0.484   1.060   2.265  0.9379  0.2700 -0.2170
  693SOL    HW2 2079   0.467   1.229   2.274  0.7612 -2.6029 -1.8642
  694SOL     OW 2080   1.560   0.011   1.039  0.2016  0.2107 -0.0165
  694SOL    HW1 2081   1.498   0.047   0.966  0.8816 -1.3542 -0.4905
  694SOL    HW2 2082   1.565   2.992   1.039  0.7349  1.6975  0.7083
  695SOL     OW 2083   1.091   1.121   1.730  0.5114  0.3696 -0.4173
  695SOL    HW1 2084   1.097   1.062   1.645  0.7011  1.7974  0.4829
  695SOL    HW2 2085   1.119   1.065   1.813 -1.5655 -1.5887 -1.4666
  696SOL     OW 2086   1.288   0.025   0.403 -0.7340  0.5333  0.0348
  696SOL    HW1 2087   1.196   0.000   0.435  1.8051  1.2906  1.5920
  696SOL    HW2 2088   1.316   3.053   0.321 -1.7828 -0.6641  1.3189
  697SOL     OW 2089   1.015   0.590   0.708 -0.0560  0.4161 -0.2544
  697SOL    HW1 2090   0.918   0.596   0.737  0.9121 -0.0602  0.3563
  697SOL    HW2 2091   1.029   0.541   0.621 -3.3200 -1.3355  1.6290
  698SOL     OW 2092   1.258   1.111   2.466  0.3977  0.2528  0.4529
  698SOL    HW1 2093   1.210   1.146   2.553  0.5256  0.5255  0.3598
  698SOL    HW2 2094   1.317   1.034   2.486 -1.3614  3.5325  1.7356
  699SOL     OW 2095   1.659   1.407   1.145 -0.1122  0.1211 -0.0344
  699SOL    HW1 2096   1.583   1.474   1.149 -0.2073  1.5809 -1.2467
  699SOL    HW2 2097   1.644   1.334   1.072  3.7113 -1.4890  0.1123
  700SOL     OW 2098   1.476   0.201   0.406  0.5531 -0.5145  0.2807
  700SOL    HW1 2099   1.399   0.132   0.420 -2.1509 -1.9693 -0.5691
  700SOL    HW2 2100   1.561   0.145   0.407 -1.7443 -0.9012 -0.7033
  701SOL     OW 2101   2.907   0.124   2.318  0.4100  0.2892 -0.3812
  701SOL    HW1 2102   2.959   0.056   2.265 -0.8215  1.0633  0.2663
  701SOL    HW2 2103   2.978   0.165   2.378  0.0342 -0.1409 -0.3619
  702SOL     OW 2104   1.084   0.170   0.074 -0.6810 -0.0476  0.6106
  702SOL    HW1 2105   1.076   0.272   0.054 -0.1585  2.7960 -0.0609
  702SOL    HW2 2106   1.171   0.142   0.121  0.8080  1.5532 -1.7208
  703SOL     OW 2107   2.332   2.779   2.292  0.1480 -0.0669 -0.3743
  703SOL    HW1 2108   2.253   2.746   2.236 -2.7335  3.0312 -0.0326
  703SOL    HW2 2109   2.423   2.778   2.252  0.1032 -0.4439  0.3117
  704SOL     OW 2110   0.774   2.227   1.063  0.5403 -0.1826  0.1778
  704SOL    HW1 2111   0.707   2.235   0.986  2.0325  2.7914  0.4425
  704SOL    HW2 2112   0.744   2.166   1.140  0.9925 -0.5527 -1.6372
  705SOL     OW 2113   2.745   0.134   1.905  0.4120  0.1185  0.4448
  705SOL    HW1 2114   2.763   0.174   1.998  0.5439  0.4825 -0.5943
  705SOL    HW2 2115   2.668   0.064   1.902  1.6247  0.8221  0.6931
  706SOL     OW 2116   1.669   0.014   0.390  0.5107 -0.2988 -0.0711
  706SOL    HW1 2117   1.764   3.081   0.423 -0.7565 -1.6953  0.4164
  706SOL    HW2 2118   1.667   0.028   0.288  0.3551 -0.6485 -0.3031
  707SOL     OW 2119   1.202   1.926   2.204 -0.5029 -0.1620 -0.3876
  707SOL    HW1 2120   1.245   1.842   2.233  1.9140  0.7146  0.2073
  707SOL    HW2 2121   1.202   1.998   2.276  1.0272 -2.0352 -1.6961
  708SOL     OW 2122   0.084   2.150   1.749 -0.2086 -0.4964  0.1064
  708SOL    HW1 2123   0.181   2.175   1.748  2.0272 -1.4737 -1.2309
  708SOL    HW2 2124   0.025   2.217   1.704  0.8503  3.7841 -0.1069
  709SOL     OW 2125   1.875   0.120   1.905 -0.3906 -0.0993 -0.0026
  709SOL    HW1 2126   1.878   0.029   1.867 -3.9017  0.1593 -0.9420
  709SOL    HW2 2127   1.958   0.130   1.965  0.4179 -0.5660 -0.9848
  710SOL     OW 2128   2.335   0.545   1.406  0.2145 -0.0900  0.2125
  710SOL    HW1 2129   2.243   0.509   1.419  1.3283  2.6120  1.5476
  710SOL    HW2 2130   2.407   0.483   1.443  1.3019  0.2294  0.3156
  711SOL     OW 2131   0.404   1.934   0.573 -0.1637 -0.2799  0.1571
  711SOL    HW1 2132   0.410   1.985   0.662  1.2072  0.8934 -2.6548
  711SOL    HW2 2133   0.429   1.835   0.579  1.7167 -2.4296 -0.4002
  712SOL     OW 2134   0.575   2.627   2.317 -0.5496  0.4047 -0.3267
  712SOL    HW1 2135   0.634   2.625   2.236  0.0364  2.5210  1.3484
  712SOL    HW2 2136   0.571   2.722   2.352  0.4406  1.2054 -1.8308
  713SOL     OW 2137   1.902   0.999   2.956 -0.1401  0.0011  0.0093
  713SOL    HW1 2138   1.844   0.938   2.895  0.5597 -3.3720 -2.5272
  713SOL    HW2 2139   1.965   0.944   3.014  0.3247 -3.5158  0.3058
  714SOL     OW 2140   0.789   1.831   1.029  0.1195 -0.0128  0.0926
  714SOL    HW1 2141   0.781   1.737   1.067 -0.1216 -0.5318 -0.6219
  714SOL    HW2 2142   0.728   1.900   1.075 -1.3629  1.6440  2.3131
  715SOL     OW 2143   1.823   2.961   2.998  0.1231 -0.0016  0.6089
  715SOL    HW1 2144   1.907   2.937   3.051 -1.5781 -2.6614  0.6475
  715SOL    HW2 2145   1.831   2.934   2.897  0.3862 -0.0742 -3.6006
  716SOL     OW 2146   0.089   0.237   1.744 -0.0938 -0.2476  0.1533
  716SOL    HW1 2147   0.100   0.325   1.685  1.4512  2.0827  4.2554
  716SOL    HW2 2148   0.042   0.265   1.828  0.5109  0.3919 -0.6359
  717SOL     OW 2149   0.297   1.073   0.251  0.4905  0.1977 -0.5875
  717SOL    HW1 2150   0.272   0.993   0.197 -1.1362 -2.3862 -0.9895
  717SOL    HW2 2151   0.267   1.150   0.195  0.6721 -2.4484  0.7692
  718SOL     OW 2152   1.348   0.857   2.521 -0.0681 -0.0420  0.0485
  718SOL    HW1 2153   1.263   0.834   2.584 -2.6491  0.5136  2.4838
  718SOL    HW2 2154   1.354   0.785   2.450 -2.7748  2.4233 -0.8500
  719SOL     OW 2155   2.784   1.691   3.016 -0.0878 -0.0656  0.2537
  719SOL    HW1 2156   2.758   1.626   0.008  0.2068  2.0789 -2.0682
  719SOL    HW2 2157   2.843   1.645   2.947 -1.2568 -2.1299 -1.2190
  720SOL     OW 2158   1.208   0.736   1.166 -0.3449 -0.2756 -0.2395
  720SOL    HW1 2159   1.199   0.712   1.065  1.5403  1.5541 -0.3403
  720SOL    HW2 2160   1.303   0.717   1.204 -1.4819 -0.0087  1.7412
  721SOL     OW 2161   2.735   0.775   0.231 -0.0197  0.0743 -0.0033
  721SOL    HW1 2162   2.719   0.680   0.191  0.8181 -0.6278 -2.2460
  721SOL    HW2 2163   2.824   0.783   0.279 -0.5849  1.7511  0.6293
  722SOL     OW 2164   1.281   0.828   2.907  0.2194 -0.2858  0.1339
  722SOL    HW1 2165   1.248   0.804   2.999  1.1414  3.0276  0.7930
  722SOL    HW2 2166   1.225   0.794   2.834  2.4489 -1.3384  1.7883
  723SOL     OW 2167   0.102   1.186   0.471  0.0078  0.4188  0.0441
  723SOL    HW1 2168   0.146   1.225   0.553  1.4282 -0.0476  1.6200
  723SOL    HW2 2169   0.178   1.148   0.413  1.5165  0.4359  1.1636
  724SOL     OW 2170   0.795   2.017   2.032 -0.2285  0.1088  0.0577
  724SOL    HW1 2171   0.838   2.105   2.053 -0.2153 -1.2829 -3.2711
  724SOL    HW2 2172   0.712   2.040   1.982  1.1863  0.8849 -2.3004
  725SOL     OW 2173   2.478   0.936   1.367  0.5329 -0.3060  0.2355
  725SOL    HW1 2174   2.385   0.971   1.343  0.3745 -0.3523 -2.0292
  725SOL    HW2 2175   2.471   0.896   1.460 -0.8910  1.4750  0.0177
  726SOL     OW 2176   1.760   2.791   0.667 -0.6941  0.5079 -0.1706
  726SOL    HW1 2177   1.779   2.689   0.657  0.4911 -1.4224  0.4975
  726SOL    HW2 2178   1.692   2.828   0.600  1.3958 -0.5753 -2.6577
  727SOL     OW 2179   1.126   1.025   2.070 -0.3810 -0.2039  0.0147
  727SOL    HW1 2180   1.104   1.088   2.147  1.4534  2.7303 -0.1772
  727SOL    HW2 2181   1.225   1.034   2.041  2.8590  1.5047  3.9018
  728SOL     OW 2182   1.288   2.679   1.093 -0.2667  0.1333  1.2575
  728SOL    HW1 2183   1.369   2.691   1.151  0.1196  0.0232 -0.7385
  728SOL    HW2 2184   1.208   2.663   1.151  0.7470 -3.2191 -0.8230
  729SOL     OW 2185   2.108   0.993   1.068 -0.4235 -0.4209  0.2214
  729SOL    HW1 2186   2.175   1.029   0.995  0.5691  0.8318 -2.0547
  729SOL    HW2 2187   2.080   0.892   1.054  0.1838 -1.7287 -2.1685
  730SOL     OW 2188   0.802   1.879   2.273  0.5083  0.0931 -0.2513
  730SOL    HW1 2189   0.782   1.938   2.196  0.7188 -0.3825 -2.2741
  730SOL    HW2 2190   0.727   1.892   2.344  0.0410  0.4946 -1.5850
  731SOL     OW 2191   0.542   0.369   0.639 -0.1392 -0.3743 -0.4207
  731SOL    HW1 2192   0.612   0.303   0.612 -1.7614  3.9025 -0.1090
  731SOL    HW2 2193   0.562   0.465   0.610 -0.9181 -0.0964  0.4666
  732SOL     OW 2194   0.748   0.699   0.132  0.0164  0.1763  0.3186
  732SOL    HW1 2195   0.651   0.733   0.122  0.3036  1.3437 -1.2443
  732SOL    HW2 2196   0.814   0.777   0.147  1.0425  0.5934 -0.9127
  733SOL     OW 2197   0.974   2.381   1.030  0.0599  0.1368 -0.0642
  733SOL    HW1 2198   1.039   2.324   0.979  0.7224 -0.6731 -0.2207
  733SOL    HW2 2199   0.892   2.328   1.057 -1.1249  2.2548  0.9110
  734SOL     OW 2200   0.121   2.065   2.630  0.7411  0.2470 -0.0101
  734SOL    HW1 2201   0.061   2.090   2.550  1.0080  0.3388 -0.5217
  734SOL    HW2 2202   0.179   2.143   2.656 -0.2026 -0.3109 -1.1721
  735SOL     OW 2203   0.895   2.940   1.088  0.3747  0.1020 -0.6355
  735SOL    HW1 2204   0.987   2.977   1.109 -0.7723 -0.0039 -0.4402
  735SOL    HW2 2205   0.902   2.872   1.008  1.2426  0.8803 -1.9117
  736SOL     OW 2206   1.606   2.839   0.081 -0.8998  0.2117  0.1764
  736SOL    HW1 2207   1.684   2.860   0.144  0.7005  0.0234  0.9970
  736SOL    HW2 2208   1.640   2.860   3.067  2.0648  0.9891 -1.2882
  737SOL     OW 2209   2.982   0.231   0.403  0.5581 -0.1911 -0.0805
  737SOL    HW1 2210   3.067   0.290   0.424  0.0858  2.7938  2.2095
  737SOL    HW2 2211   2.895   0.274   0.428  2.1926 -2.4702 -1.0808
  738SOL     OW 2212   2.568   2.911   1.056  0.0910  0.1810  0.2434
  738SOL    HW1 2213   2.668   2.922   1.042  1.7246 -1.1486 -1.6256
  738SOL    HW2 2214   2.529   2.915   0.965  0.6340  1.1379  2.2006
  739SOL     OW 2215   1.510   2.246   0.388 -0.0314 -0.2351 -0.0487
  739SOL    HW1 2216   1.547   2.151   0.371 -0.7899 -1.6206 -0.4917
  739SOL    HW2 2217   1.467   2.278   0.303  0.1336 -0.8601  0.2821
  740SOL     OW 2218   1.413   0.149   0.863 -0.3785 -0.0926 -0.5336
  740SOL    HW1 2219   1.364   0.114   0.787  1.2542  0.1264  0.2522
  740SOL    HW2 2220   1.494   0.200   0.828  0.0364  1.2652  4.2212
  741SOL     OW 2221   2.238   0.691   0.351  0.2204  0.0976  0.4919
  741SOL    HW1 2222   2.216   0.778   0.299 -0.9961 -0.0627 -1.9284
  741SOL    HW2 2223   2.187   0.613   0.312 -1.8530 -0.1021 -1.9060
  742SOL     OW 2224   1.198   2.141   2.425 -0.1756 -0.1442 -0.0530
  742SOL    HW1 2225   1.218   2.186   2.515  1.1792  4.5164  0.9989
  742SOL    HW2 2226   1.151   2.200   2.355  0.9222 -1.2111 -3.8274
  743SOL     OW 2227   2.009   0.422   1.858 -0.1275 -0.0212  0.2931
  743SOL    HW1 2228   1.986   0.442   1.954  1.0355  2.2555  0.0359
  743SOL    HW2 2229   2.084   0.356   1.862 -0.9694 -0.6558 -2.0720
  744SOL     OW 2230   2.301   0.454   0.968 -1.2089  0.3017  0.3107
  744SOL    HW1 2231   2.348   0.366   0.985 -0.6263  0.0282  2.1915
  744SOL    HW2 2232   2.369   0.530   0.955  1.1238  3.0384  1.4218
  745SOL     OW 2233   1.793   1.323   1.518 -0.0580  0.1580 -0.3538
  745SOL    HW1 2234   1.762   1.281   1.606  0.3110 -2.0209  1.7793
  745SOL    HW2 2235   1.767   1.267   1.439  2.0914  1.4701 -0.4266
  746SOL     OW 2236   1.637   1.261   0.915  0.1528 -0.4637 -0.8101
  746SOL    HW1 2237   1.595   1.269   0.822 -0.1409  0.0549  0.8719
  746SOL    HW2 2238   1.733   1.227   0.905  0.5423  2.3516 -2.4675
  747SOL     OW 2239   2.005   1.188   1.199 -0.1910  0.0481 -0.0825
  747SOL    HW1 2240   1.985   1.260   1.131 -0.3119  0.2682 -0.2660
  747SOL    HW2 2241   2.037   1.104   1.151 -0.5306  1.3806  1.3876
  748SOL     OW 2242   0.265   2.424   0.862 -0.6145 -0.0083 -0.1987
  748SOL    HW1 2243   0.312   2.414   0.954  2.0351  1.1045 -1.4724
  748SOL    HW2 2244   0.333   2.403   0.786  0.8832 -1.8627 -0.3465
  749SOL     OW 2245   2.959   2.930   2.443  0.0988 -0.2909 -0.1026
  749SOL    HW1 2246   3.033   3.000   2.457 -1.1333  0.4998  2.1394
  749SOL    HW2 2247   2.887   2.974   2.390 -0.2704  2.9475  2.5747
  750SOL     OW 2248   2.547   0.713   0.808  0.3373  0.5339  0.3385
  750SOL    HW1 2249   2.600   0.659   0.874 -2.2158  0.6169 -1.3245
  750SOL    HW2 2250   2.480   0.772   0.861 -1.4828 -0.0898  1.4133
  751SOL     OW 2251   2.707   0.336   0.387 -0.3241 -0.0186 -0.3573
  751SOL    HW1 2252   2.707   0.406   0.314 -0.8107  0.2732  1.9328
  751SOL    HW2 2253   2.712   0.382   0.479 -2.3459 -0.0513  0.7388
  752SOL     OW 2254   0.183   2.873   0.966  0.1187 -0.3205  1.0478
  752SOL    HW1 2255   0.161   2.839   1.055  0.2721  1.4748 -1.4260
  752SOL    HW2 2256   0.165   2.803   0.896 -1.1594  2.7418 -0.1080
  753SOL     OW 2257   1.221   0.616   1.935  0.2564  0.2211 -0.4006
  753SOL    HW1 2258   1.261   0.521   1.946  0.8657  1.3655  2.3404
  753SOL    HW2 2259   1.249   0.666   1.851 -0.6880 -0.3679  0.0383
  754SOL     OW 2260   1.759   2.244   1.970 -0.5350  0.3973  0.1828
  754SOL    HW1 2261   1.721   2.332   2.001  1.0030  1.5643 -1.3837
  754SOL    HW2 2262   1.688   2.170   1.975  0.9388 -1.7186  1.2149
  755SOL     OW 2263   2.765   0.973   0.576 -0.1284 -0.4690  0.3484
  755SOL    HW1 2264   2.744   1.022   0.664 -4.2335  1.0249  1.7116
  755SOL    HW2 2265   2.706   1.002   0.499  0.8150 -2.7601 -1.7679
  756SOL     OW 2266   1.476   1.448   2.650  0.1718  0.0949 -0.1683
  756SOL    HW1 2267   1.377   1.458   2.662  0.7527  0.1263  2.9220
  756SOL    HW2 2268   1.520   1.504   2.578 -0.1647 -0.5879 -0.1099
  757SOL     OW 2269   1.562   2.892   0.512  0.3339  0.2273  0.1012
  757SOL    HW1 2270   1.495   2.848   0.445 -2.5929 -1.2782  0.5237
  757SOL    HW2 2271   1.604   2.974   0.471 -0.3990 -0.0649 -1.6063
  758SOL     OW 2272   0.252   0.209   1.297  0.0443 -0.2526 -0.2203
  758SOL    HW1 2273   0.166   0.178   1.343 -0.9858 -2.6801  1.7931
  758SOL    HW2 2274   0.226   0.247   1.205  2.1365  0.7293  0.0426
  759SOL     OW 2275   0.172   0.999   1.223 -0.7627  0.6048 -0.3672
  759SOL    HW1 2276   0.256   1.022   1.280  1.5718  1.3362 -2.1414
  759SOL    HW2 2277   0.086   1.016   1.274  1.9611  0.9036 -0.0013
  760SOL     OW 2278   2.338   1.021   0.889  0.0219 -0.1425  0.4975
  760SOL    HW1 2279   2.366   1.021   0.794 -0.0963  2.2028  1.6788
  760SOL    HW2 2280   2.380   1.098   0.941 -3.4287  1.0399 -2.6552
  761SOL     OW 2281   1.494   0.995   0.753 -0.0058  0.4190  0.3714
  761SOL    HW1 2282   1.445   0.907   0.742  0.1724 -1.7216  2.1689
  761SOL    HW2 2283   1.514   1.006   0.851 -2.2193  0.3412 -1.1437
  762SOL     OW 2284   2.335   2.285   1.339  0.1617  0.2198 -0.0631
  762SOL    HW1 2285   2.262   2.265   1.408 -2.0869 -1.1050 -2.3357
  762SOL    HW2 2286   2.303   2.362   1.282 -1.4726  1.5311 -0.2401
  763SOL     OW 2287   1.477   1.341   1.998  0.4240 -0.4790 -0.1503
  763SOL    HW1 2288   1.574   1.319   2.018 -1.6790  0.3650 -0.6447
  763SOL    HW2 2289   1.477   1.363   1.899 -1.0996 -2.7522 -1.3811
  764SOL     OW 2290   0.222   1.819   2.566 -0.5436  0.3054 -0.2784
  764SOL    HW1 2291   0.144   1.770   2.529 -1.5185 -0.7880  1.7018
  764SOL    HW2 2292   0.200   1.916   2.593 -1.1015  0.3920  0.5015
  765SOL     OW 2293   0.743   2.722   1.311  0.7464  0.2194  0.2674
  765SOL    HW1 2294   0.839   2.755   1.298  0.9338  2.8311  1.1217
  765SOL    HW2 2295   0.716   2.673   1.224 -1.2625 -1.2958 -0.3519
  766SOL     OW 2296   0.833   2.218   2.424 -0.1526 -0.5004 -0.5849
  766SOL    HW1 2297   0.918   2.277   2.436  0.6180  1.0170  0.6307
  766SOL    HW2 2298   0.849   2.122   2.449 -1.4978  1.1981  3.2739
  767SOL     OW 2299   1.926   0.288   2.289  0.2009 -0.2032 -0.2072
  767SOL    HW1 2300   1.975   0.208   2.246 -1.7507  3.1780 -2.9455
  767SOL    HW2 2301   1.938   0.301   2.386  0.9483  1.0589 -2.6456
  768SOL     OW 2302   1.180   2.391   2.955  0.4595  0.2912 -0.2291
  768SOL    HW1 2303   1.082   2.392   2.996  0.1655 -0.7578 -1.1805
  768SOL    HW2 2304   1.252   2.344   3.010  1.6017  2.2211  1.1481
  769SOL     OW 2305   0.080   2.649   1.151  0.5151  1.1260 -0.0883
  769SOL    HW1 2306   0.003   2.705   1.172  1.6699 -3.4944 -0.5634
  769SOL    HW2 2307   0.050   2.559   1.115 -0.2733  1.6961  1.3816
  770SOL     OW 2308   0.484   2.860   2.919  0.1558  0.1359  0.5145
  770SOL    HW1 2309   0.458   2.811   3.001 -3.9662  0.0087 -2.9127
  770SOL    HW2 2310   0.465   2.803   2.839  0.4279 -0.4279  1.3704
  771SOL     OW 2311   0.865   2.417   2.678  0.2472 -0.0968  0.6996
  771SOL    HW1 2312   0.853   2.347   2.753  0.5744 -0.2989  3.3082
  771SOL    HW2 2313   0.788   2.403   2.612 -2.8571 -1.4828 -2.6046
  772SOL     OW 2314   2.445   0.048   2.032  0.0450  0.4396 -0.3760
  772SOL    HW1 2315   2.424   0.122   2.101 -1.3936 -0.1254 -1.4642
  772SOL    HW2 2316   2.356   0.045   1.982  1.6006  2.2487  3.8568
  773SOL     OW 2317   1.035   2.671   2.014 -0.4541 -0.0572 -0.1305
  773SOL    HW1 2318   1.000   2.575   2.024  1.6699  1.5712 -0.9056
  773SOL    HW2 2319   1.082   2.702   2.101  0.8882 -1.2306  0.7032
  774SOL     OW 2320   1.294   0.394   2.101 -0.6880  0.0265 -0.3661
  774SOL    HW1 2321   1.358   0.366   2.176  0.1581 -1.3721  0.3712
  774SOL    HW2 2322   1.328   0.343   2.016  0.5175 -0.3119 -4.0625
  775SOL     OW 2323   2.037   2.886   0.101 -0.1780  0.2811  0.0160
  775SOL    HW1 2324   2.090   2.797   0.111 -0.9943 -0.5260  0.7543
  775SOL    HW2 2325   1.951   2.878   0.159  1.2773  2.3057  1.6835
  776SOL     OW 2326   2.256   0.855   1.811  0.1483  0.1283 -0.3175
  776SOL    HW1 2327   2.163   0.810   1.826 -2.4929 -2.2487 -0.7121
  776SOL    HW2 2328   2.248   0.952   1.787 -0.9218 -1.3260 -0.0865
  777SOL     OW 2329   2.841   1.171   2.240  0.0836  0.3474 -0.3231
  777SOL    HW1 2330   2.767   1.186   2.311 -2.2406  3.3689  2.5668
  777SOL    HW2 2331   2.806   1.115   2.165 -3.0239  1.5979  4.7109
  778SOL     OW 2332   2.343   0.436   2.041  0.4469  0.4394 -0.1884
  778SOL    HW1 2333   2.317   0.536   2.047 -0.2554  1.8351  1.0086
  778SOL    HW2 2334   2.313   0.387   1.955  0.7667 -3.4330  0.1873
  779SOL     OW 2335   3.080   3.034   2.982  0.3960 -0.5095 -0.0325
  779SOL    HW1 2336   0.017   0.019   2.905  1.0166  0.4840 -0.1577
  779SOL    HW2 2337   0.030   3.066   3.075  2.1127  0.8287 -2.0031
  780SOL     OW 2338   2.037   2.976   2.333 -0.3720 -0.3887  0.2116
  780SOL    HW1 2339   2.106   2.905   2.323 -1.3321 -1.3761  2.6975
  780SOL    HW2 2340   2.052   3.024   2.421  1.2511  0.0539  1.9042
  781SOL     OW 2341   0.191   0.846   1.537  0.3849 -0.0253 -0.0446
  781SOL    HW1 2342   0.261   0.785   1.499 -0.2011  1.8196 -1.8462
  781SOL    HW2 2343   0.210   0.939   1.503 -0.5127  0.1368  1.1726
  782SOL     OW 2344   1.955   2.059   0.293 -0.6952  0.1300 -0.0647
  782SOL    HW1 2345   2.016   2.133   0.264  0.5467  0.7203  0.4376
  782SOL    HW2 2346   2.009   1.973   0.307  1.2678 -0.9502 -1.4641
  783SOL     OW 2347   0.902   1.732   1.429 -0.0995  0.1648  0.4702
  783SOL    HW1 2348   0.977   1.790   1.397 -0.4216  0.8027 -1.5469
  783SOL    HW2 2349   0.937   1.638   1.445 -1.2890  1.6312  0.4584
  784SOL     OW 2350   1.946   0.496   2.102 -0.0773 -0.0230  0.0127
  784SOL    HW1 2351   1.938   0.426   2.172  1.7764 -2.0199  1.8189
  784SOL    HW2 2352   2.003   0.576   2.129  1.5737  3.0455 -1.3162
  785SOL     OW 2353   2.901   0.311   0.860  0.3465 -0.2266 -0.2693
  785SOL    HW1 2354   2.912   0.317   0.957 -1.0904 -0.1068 -1.5187
  785SOL    HW2 2355   2.931   0.400   0.819 -0.0198  2.8823  0.9901
  786SOL     OW 2356   1.822   2.830   0.248 -0.5195 -0.1759 -0.5004
  786SOL    HW1 2357   1.816   2.879   0.337  0.8030 -1.1636 -0.2290
  786SOL    HW2 2358   1.820   2.732   0.276 -0.4503 -1.3543 -2.0235
  787SOL     OW 2359   1.209   0.124   0.690  0.2555 -0.0143 -0.2825
  787SOL    HW1 2360   1.256   0.208   0.658 -0.0182 -0.7477 -2.0082
  787SOL    HW2 2361   1.111   0.118   0.658 -1.2732 -1.1401 -2.7491
  788SOL     OW 2362   0.033   1.891   1.420  0.2068  0.0349  0.4894
  788SOL    HW1 2363   3.080   1.977   1.368  1.5122  0.0881 -2.1051
  788SOL    HW2 2364   0.106   1.838   1.367 -1.2427  0.5156 -0.3729
  789SOL     OW 2365   2.853   0.562   2.062  0.2767  0.7587 -0.0586
  789SOL    HW1 2366   2.835   0.464   2.085 -1.3743  0.6367  0.6277
  789SOL    HW2 2367   2.906   0.610   2.134 -0.8774  0.1410  1.1383
  790SOL     OW 2368   0.705   0.753   2.718  0.5650 -0.0083 -0.0050
  790SOL    HW1 2369   0.732   0.737   2.622 -1.8659  0.4183  0.5527
  790SOL    HW2 2370   0.634   0.687   2.742  0.9868  0.8446 -1.5301
  791SOL     OW 2371   2.539   0.464   2.961 -0.1381  0.5228  0.3127
  791SOL    HW1 2372   2.574   0.370   2.928 -1.7389 -2.2145 -2.9487
  791SOL    HW2 2373   2.500   0.471   3.058 -3.2364 -0.1914 -1.4495
  792SOL     OW 2374   1.480   0.717   1.246 -0.8593  0.0883  0.0477
  792SOL    HW1 2375   1.518   0.647   1.184  2.9870  0.3211 -0.8188
  792SOL    HW2 2376   1.535   0.710   1.333  3.1147 -0.1643  0.2986
  793SOL     OW 2377   2.930   0.107   1.692  0.1969 -0.2762  0.3002
  793SOL    HW1 2378   2.875   0.116   1.775 -1.2760 -0.0290 -1.9125
  793SOL    HW2 2379   3.023   0.145   1.705 -0.4564 -2.5460  0.2686
  794SOL     OW 2380   3.020   3.070   2.109  0.0730  0.4298  0.3691
  794SOL    HW1 2381   3.067   0.060   2.061 -0.0137  1.4705  2.6889
  794SOL    HW2 2382   2.977   2.997   2.047  0.4126 -2.7091 -0.0213
  795SOL     OW 2383   0.602   2.210   2.841 -0.3752 -0.1639  0.4821
  795SOL    HW1 2384   0.702   2.231   2.844 -2.4885 -0.8527  0.4663
  795SOL    HW2 2385   0.569   2.223   2.746  0.4341  0.3492  0.0089
  796SOL     OW 2386   1.974   0.537   2.550 -0.7170  0.3593  0.4578
  796SOL    HW1 2387   1.940   0.593   2.473 -1.4341  0.5833 -1.5936
  796SOL    HW2 2388   1.940   0.574   2.637  1.6033  0.9934 -2.1323
  797SOL     OW 2389   2.327   2.021   3.016  0.2360 -0.8047  0.3990
  797SOL    HW1 2390   2.330   2.123   3.020  0.7442  4.0352  0.5405
  797SOL    HW2 2391   2.416   1.979   3.044  0.3067  0.8437  0.1686
  798SOL     OW 2392   3.072   0.615   1.444 -0.7070 -0.0296 -0.0008
  798SOL    HW1 2393   0.068   0.624   1.380 -1.3069 -3.6685  0.5600
  798SOL    HW2 2394   3.021   0.697   1.458  0.5419 -0.7791  0.1406
  799SOL     OW 2395   0.480   0.207   1.715  0.2433 -0.3334 -0.6197
  799SOL    HW1 2396   0.543   0.284   1.747 -0.7065 -0.9340 -1.7611
  799SOL    HW2 2397   0.533   0.128   1.684  0.7746 -0.4311  1.0034
  800SOL     OW 2398   0.054   2.430   0.369 -0.2197  0.0531  0.0218
  800SOL    HW1 2399   3.077   2.368   0.425 -0.4415 -1.2722  0.4598
  800SOL    HW2 2400   0.080   2.384   0.281 -0.7956  2.1711  1.2612
  801SOL     OW 2401   1.664   1.704   0.684 -0.4918 -0.1012  0.0449
  801SOL    HW1 2402   1.763   1.697   0.708 -2.7774 -2.0212  1.4302
  801SOL    HW2 2403   1.611   1.625   0.723  0.9880  0.0538 -0.3610
  802SOL     OW 2404   0.893   0.464   0.227 -0.1411 -0.2039 -0.0993
  802SOL    HW1 2405   0.832   0.395   0.194  1.2813  1.7491 -0.8201
  802SOL    HW2 2406   0.843   0.553   0.233 -0.9728 -0.2971 -0.2378
  803SOL     OW 2407   1.326   1.330   1.727  0.0699 -0.2440  0.0588
  803SOL    HW1 2408   1.255   1.278   1.780  0.2815 -0.1312 -1.3931
  803SOL    HW2 2409   1.336   1.304   1.632 -0.6830  3.2082  0.8628
  804SOL     OW 2410   1.744   2.257   1.341 -0.3102  0.1840 -0.4511
  804SOL    HW1 2411   1.822   2.304   1.389 -1.6952 -1.1421  1.8980
  804SOL    HW2 2412   1.738   2.283   1.239  1.9569 -1.5957 -0.0346
  805SOL     OW 2413   3.071   2.124   2.406 -0.2752  0.3848 -0.0508
  805SOL    HW1 2414   0.016   2.043   2.351 -0.2970  1.2223 -1.7726
  805SOL    HW2 2415   0.006   2.205   2.349  0.4922  1.6913  3.9579
  806SOL     OW 2416   0.915   2.664   0.282 -0.1352 -0.0718  0.6664
  806SOL    HW1 2417   1.005   2.696   0.243 -1.3383 -1.7100 -0.7930
  806SOL    HW2 2418   0.885   2.574   0.248  0.6257  0.3696  1.4441
  807SOL     OW 2419   2.522   0.905   2.792  0.7209  0.0069 -0.4421
  807SOL    HW1 2420   2.613   0.894   2.846 -0.7551 -1.8196  0.9255
  807SOL    HW2 2421   2.469   0.819   2.778 -0.0827  2.8060  0.3990
  808SOL     OW 2422   1.536   1.961   1.066 -0.1387 -0.4417  0.4512
  808SOL    HW1 2423   1.629   1.996   1.024  1.8131 -1.9510  0.1402
  808SOL    HW2 2424   1.517   1.999   1.162 -2.2394  0.2989  3.2773
  809SOL     OW 2425   0.093   0.380   0.530 -0.2862  0.4477  0.5019
  809SOL    HW1 2426   0.035   0.385   0.608  3.0048 -0.9776 -2.6168
  809SOL    HW2 2427   0.184   0.342   0.551 -3.8742 -1.7306  0.9364
  810SOL     OW 2428   1.220   1.202   0.138 -0.3714 -0.5938 -0.7111
  810SOL    HW1 2429   1.303   1.204   0.198  0.5917 -1.7413  0.4448
  810SOL    HW2 2430   1.138   1.188   0.193  3.2535 -1.0279  1.0047
  811SOL     OW 2431   1.394   2.855   1.338 -0.0780  0.0330  0.3613
  811SOL    HW1 2432   1.480   2.804   1.348 -0.1513  0.1786  0.4284
  811SOL    HW2 2433   1.323   2.828   1.412 -0.1959 -0.1682 -3.9809
  812SOL     OW 2434   1.342   0.348   0.627  0.0010  0.3314 -0.5123
  812SOL    HW1 2435   1.320   0.445   0.613 -0.3413  0.0818 -0.0379
  812SOL    HW2 2436   1.418   0.313   0.566 -0.5718  0.0453 -3.2141
  813SOL     OW 2437   1.254   2.973   2.265  0.2497 -0.3121  0.2462
  813SOL    HW1 2438   1.171   2.980   2.321 -1.8971 -1.5949 -1.5888
  813SOL    HW2 2439   1.222   2.991   2.167 -0.8140 -0.5666 -0.4779
  814SOL     OW 2440   1.245   2.784   1.552 -0.1967  0.1130  0.1430
  814SOL    HW1 2441   1.254   2.680   1.568 -0.6826 -0.4576 -0.0364
  814SOL    HW2 2442   1.255   2.833   1.636 -1.8454 -1.0946  0.9115
  815SOL     OW 2443   0.085   2.748   0.017 -0.3322  0.2058  0.0938
  815SOL    HW1 2444   0.061   2.842   0.000  1.2215 -3.5895 -1.2974
  815SOL    HW2 2445   0.072   2.725   0.117  0.5979  1.5648 -0.0644
  816SOL     OW 2446   2.343   1.358   2.717  0.3713  0.0863  0.0332
  816SOL    HW1 2447   2.261   1.398   2.672 -0.8501 -1.9565 -1.3603
  816SOL    HW2 2448   2.357   1.263   2.701 -3.5954  2.6445 -0.4883
  817SOL     OW 2449   2.214   2.091   2.351 -0.2351  0.1729  0.0030
  817SOL    HW1 2450   2.282   2.155   2.388 -0.9847 -1.2335 -1.4038
  817SOL    HW2 2451   2.121   2.116   2.383 -0.4188 -3.0761  1.6805
  818SOL     OW 2452   0.993   0.902   0.132  0.4147  0.3486  0.4528
  818SOL    HW1 2453   1.019   0.938   0.225  3.2087  0.0892  1.2529
  818SOL    HW2 2454   0.960   0.966   0.070  0.7268 -0.2635 -0.8583
  819SOL     OW 2455   1.653   1.361   3.072  0.1226  0.0786 -0.5514
  819SOL    HW1 2456   1.634   1.327   2.980  0.1810 -2.6081 -1.1543
  819SOL    HW2 2457   1.650   1.294   0.066 -1.4341  2.3804 -0.2040
  820SOL     OW 2458   0.210   0.749   0.708  0.1574 -0.3514  0.1365
  820SOL    HW1 2459   0.274   0.718   0.782  3.5303 -0.6350 -0.9230
  820SOL    HW2 2460   0.219   0.688   0.629  0.1285  0.8594  0.5398
  821SOL     OW 2461   0.360   0.010   1.430 -0.1028  0.4900 -0.5038
  821SOL    HW1 2462   0.341   0.095   1.381 -0.5365 -0.9540  1.9422
  821SOL    HW2 2463   0.389   3.029   1.357 -0.8704 -0.9554  1.4971
  822SOL     OW 2464   1.850   2.058   2.918 -0.1948  0.0347  0.1896
  822SOL    HW1 2465   1.891   2.146   2.894  0.2786 -0.6064 -0.6145
  822SOL    HW2 2466   1.793   2.013   2.847  1.4902 -0.4111  2.7492
  823SOL     OW 2467   0.721   0.599   2.028 -0.5403  0.6735  0.0919
  823SOL    HW1 2468   0.793   0.600   1.955  0.8227 -0.4694 -1.4448
  823SOL    HW2 2469   0.740   0.680   2.092  0.7591  1.1348 -0.0075
  824SOL     OW 2470   2.405   0.041   1.584  0.5269  0.6666  0.1033
  824SOL    HW1 2471   2.389   0.112   1.514  0.6357  0.0131 -0.8779
  824SOL    HW2 2472   2.325   3.060   1.593 -2.4931 -0.0264 -0.3794
  825SOL     OW 2473   0.322   1.337   2.312 -0.0072 -0.5416 -0.7153
  825SOL    HW1 2474   0.396   1.408   2.332 -0.7048  2.1675  4.1083
  825SOL    HW2 2475   0.251   1.373   2.247  2.0518 -0.0638 -1.6632
  826SOL     OW 2476   1.611   0.365   2.742 -0.3722  0.1953  0.2627
  826SOL    HW1 2477   1.592   0.396   2.646 -0.3217  2.3835  1.9259
  826SOL    HW2 2478   1.596   0.267   2.760 -0.2925  0.0872  0.4414
  827SOL     OW 2479   0.368   2.378   2.235  0.3983 -0.2593 -0.2958
  827SOL    HW1 2480   0.435   2.327   2.185 -3.0815  2.0681  1.1288
  827SOL    HW2 2481   0.378   2.475   2.219  1.7121 -2.5811 -2.6733
  828SOL     OW 2482   3.013   0.162   1.366  0.3414  0.3709  0.4613
  828SOL    HW1 2483   2.991   0.195   1.462 -0.7091 -0.5206  3.3132
  828SOL    HW2 2484   2.935   0.140   1.307 -2.2588 -0.6980 -0.8189
  829SOL     OW 2485   1.254   1.568   1.829 -0.4726  0.2636 -0.2055
  829SOL    HW1 2486   1.304   1.479   1.802 -1.3876 -1.6354 -0.0027
  829SOL    HW2 2487   1.166   1.547   1.869  0.9466  0.1147 -1.5252
  830SOL     OW 2488   0.874   1.014   1.357 -0.1522  0.0763  0.3297
  830SOL    HW1 2489   0.863   0.949   1.282 -0.2744 -1.1577 -0.5741
  830SOL    HW2 2490   0.782   1.032   1.393  3.0591  0.0641  1.7656
  831SOL     OW 2491   3.021   1.967   0.334  0.1567 -0.3471  0.0421
  831SOL    HW1 2492   3.010   1.909   0.250 -0.5484 -2.5473 -0.1943
  831SOL    HW2 2493   2.959   1.935   0.403  0.2326 -1.3623  0.2920
  832SOL     OW 2494   1.213   2.482   0.353 -0.4507 -0.0946 -0.3621
  832SOL    HW1 2495   1.139   2.492   0.418  0.2322 -0.7385  0.1198
  832SOL    HW2 2496   1.241   2.385   0.357 -0.1202  3.9135  0.9386
  833SOL     OW 2497   0.131   0.486   1.632 -0.1272 -0.1554  0.6463
  833SOL    HW1 2498   0.088   0.535   1.552  2.1897  0.1637 -2.1605
  833SOL    HW2 2499   0.078   0.508   1.718 -1.3498 -0.2844 -0.0061
  834SOL     OW 2500   2.977   0.737   1.050  0.2390 -0.0914  0.1215
  834SOL    HW1 2501   3.075   0.743   1.070 -0.4461 -0.0422 -0.6862
  834SOL    HW2 2502   2.963   0.778   0.958 -0.2466  1.6696  2.3172
  835SOL     OW 2503   2.561   0.110   0.426  0.3909 -0.3667 -0.1647
  835SOL    HW1 2504   2.622   0.191   0.415  0.2962  3.4825  0.9668
  835SOL    HW2 2505   2.553   0.055   0.340 -0.7598 -2.2948 -0.6079
  836SOL     OW 2506   0.972   1.944   2.799 -0.1588 -0.0588 -0.2874
  836SOL    HW1 2507   0.926   1.855   2.806 -1.1634  4.8712  1.2636
  836SOL    HW2 2508   0.987   1.963   2.702  1.5889  1.0402  0.3566
  837SOL     OW 2509   1.582   1.806   0.224 -0.1948  0.2654 -0.0628
  837SOL    HW1 2510   1.618   1.800   0.317  1.4317  0.4018 -2.5580
  837SOL    HW2 2511   1.555   1.716   0.183 -1.9480  0.7957 -1.9344
  838SOL     OW 2512   2.671   0.853   2.315 -0.3317 -0.6051 -0.3415
  838SOL    HW1 2513   2.679   0.891   2.409 -1.2450  1.1681  0.4343
  838SOL    HW2 2514   2.625   0.919   2.249  1.9315 -0.2080 -0.7628
  839SOL     OW 2515   0.840   0.986   2.294 -0.1378  0.5223  0.5763
  839SOL    HW1 2516   0.910   1.060   2.281 -1.6471  3.2406  0.3880
  839SOL    HW2 2517   0.843   0.950   2.386  1.4501 -2.1853  0.1388
  840SOL     OW 2518   0.898   0.868   2.831  0.0767 -0.4328  0.5458
  840SOL    HW1 2519   0.874   0.952   2.888 -1.5992 -0.1926  0.7503
  840SOL    HW2 2520   0.812   0.829   2.794  1.0914 -1.1552 -0.8410
  841SOL     OW 2521   0.850   2.540   0.812 -0.1406 -0.3808 -0.1919
  841SOL    HW1 2522   0.891   2.518   0.721  1.9900  0.5671  1.9577
  841SOL    HW2 2523   0.857   2.465   0.881 -0.2059  0.2312  2.6183
  842SOL     OW 2524   0.399   0.708   0.929 -0.0887  0.1786  0.3661
  842SOL    HW1 2525   0.443   0.750   0.846  1.6809 -2.7078  0.1859
  842SOL    HW2 2526   0.409   0.606   0.924  1.5875  0.8674  0.6108
  843SOL     OW 2527   0.598   0.998   1.366 -0.3760 -0.2301  0.4273
  843SOL    HW1 2528   0.609   0.902   1.401  0.0754 -0.9512  0.7686
  843SOL    HW2 2529   0.495   1.017   1.379  0.3025 -1.3120 -0.3055
  844SOL     OW 2530   2.156   2.460   2.857 -0.6634 -1.0031  0.4091
  844SOL    HW1 2531   2.141   2.544   2.921  1.3713  0.2421  0.1845
  844SOL    HW2 2532   2.194   2.495   2.765  0.7079 -0.5523 -0.1390
  845SOL     OW 2533   2.176   2.993   1.603  0.2678 -0.0351 -0.2595
  845SOL    HW1 2534   2.157   3.036   1.512 -0.8759 -0.5749  0.9245
  845SOL    HW2 2535   2.139   2.898   1.604  0.6672 -0.8783 -1.8585
  846SOL     OW 2536   1.989   0.930   2.533 -0.3741  0.5167 -0.2026
  846SOL    HW1 2537   1.975   0.832   2.503  1.8632 -0.1291  3.3975
  846SOL    HW2 2538   2.016   0.924   2.632  2.7109  0.1319 -1.5329
  847SOL     OW 2539   2.583   2.964   1.866 -0.1212 -0.0685  0.2650
  847SOL    HW1 2540   2.515   2.989   1.940 -0.1520 -0.1957  0.0793
  847SOL    HW2 2541   2.554   3.006   1.777  1.1196  0.2095 -0.7496
  848SOL     OW 2542   2.693   2.787   0.132 -0.3441 -0.2538  0.9139
  848SOL    HW1 2543   2.696   2.698   0.089 -0.1492  1.8598  1.4807
  848SOL    HW2 2544   2.754   2.850   0.083 -2.6515 -0.3220  0.5546
  849SOL     OW 2545   0.293   0.028   0.845 -0.1715 -0.5340 -0.1336
  849SOL    HW1 2546   0.217   3.051   0.878 -0.5753 -0.8804 -0.0479
  849SOL    HW2 2547   0.361   0.048   0.919  0.6323  0.0706  0.3071
  850SOL     OW 2548   0.596   2.215   0.844 -0.3650 -0.5083 -0.2857
  850SOL    HW1 2549   0.558   2.295   0.796  0.6905 -0.6960  2.1244
  850SOL    HW2 2550   0.640   2.156   0.776 -1.8083  0.1709  0.5263
  851SOL     OW 2551   2.002   0.263   2.994 -0.0998  0.4868  0.2482
  851SOL    HW1 2552   1.974   0.174   2.949  0.5202  0.4781 -1.1005
  851SOL    HW2 2553   1.981   0.251   0.012  2.5526  1.7969 -1.4291
  852SOL     OW 2554   1.664   1.959   2.724 -0.3791 -0.1217  0.3612
  852SOL    HW1 2555   1.596   1.886   2.724 -1.0093 -0.3754 -0.2333
  852SOL    HW2 2556   1.705   1.966   2.632 -0.1663 -0.4477 -0.2547
  853SOL     OW 2557   0.081   2.171   0.233 -0.1011  0.3952 -1.1254
  853SOL    HW1 2558   0.028   2.090   0.268 -0.0941  1.0407 -0.8980
  853SOL    HW2 2559   0.181   2.148   0.255  0.2546  0.6024  0.8951
  854SOL     OW 2560   1.737   0.694   1.960  0.2284  0.3650 -0.0949
  854SOL    HW1 2561   1.739   0.620   1.885 -0.2088 -0.9554  1.2810
  854SOL    HW2 2562   1.755   0.642   2.047  0.7980 -2.8253  0.1524
  855SOL     OW 2563   0.370   2.724   0.606 -0.0830 -0.3332 -0.3445
  855SOL    HW1 2564   0.461   2.726   0.644  0.6364 -0.8582  0.6922
  855SOL    HW2 2565   0.363   2.640   0.550  1.5582 -3.6192 -0.4822
  856SOL     OW 2566   0.287   2.859   2.420  0.0226 -0.4271  0.7309
  856SOL    HW1 2567   0.236   2.896   2.495 -1.1253 -0.5451 -1.4391
  856SOL    HW2 2568   0.384   2.898   2.418 -0.6581 -0.4858 -2.0143
  857SOL     OW 2569   0.771   0.108   1.562 -0.3385  0.1142  0.1304
  857SOL    HW1 2570   0.755   0.172   1.482 -2.6531 -0.8500  2.3669
  857SOL    HW2 2571   0.692   0.041   1.570  1.0182  0.4077 -1.4941
  858SOL     OW 2572   0.376   2.146   2.032  0.5290 -0.2489  0.1070
  858SOL    HW1 2573   0.296   2.085   2.059 -2.8700  0.1286 -3.4739
  858SOL    HW2 2574   0.356   2.184   1.939  0.9884 -0.0739 -0.3021
  859SOL     OW 2575   1.912   2.586   1.787  0.8885 -0.0523 -0.2849
  859SOL    HW1 2576   1.856   2.604   1.869  0.3040  0.5239 -1.7680
  859SOL    HW2 2577   1.929   2.487   1.774  1.2390  1.2233  0.4419
  860SOL     OW 2578   1.677   0.500   0.537 -0.7933  0.1575 -0.1231
  860SOL    HW1 2579   1.598   0.565   0.533 -0.5277  0.6668 -0.8236
  860SOL    HW2 2580   1.709   0.482   0.632  2.3065 -0.2725 -2.0651
  861SOL     OW 2581   2.960   0.545   0.716 -0.5189 -0.2158  0.0040
  861SOL    HW1 2582   2.938   0.637   0.759  0.1750 -0.1608 -0.0848
  861SOL    HW2 2583   2.922   0.553   0.622 -0.2109  0.8085 -2.9254
  862SOL     OW 2584   1.911   0.777   1.367 -0.3983 -0.0129 -0.0940
  862SOL    HW1 2585   1.917   0.700   1.295  0.2929 -0.5320 -2.1186
  862SOL    HW2 2586   1.987   0.754   1.431 -0.9202  0.1298  1.5166
  863SOL     OW 2587   0.629   1.137   1.133  0.4854  0.0763 -0.8927
  863SOL    HW1 2588   0.627   1.071   1.212  0.0358  1.5349 -0.2282
  863SOL    HW2 2589   0.722   1.143   1.109 -3.6458  1.0718 -0.4964
  864SOL     OW 2590   2.849   2.697   2.135 -0.1040 -0.3221  0.3815
  864SOL    HW1 2591   2.924   2.657   2.190  3.2072  1.6157  0.2777
  864SOL    HW2 2592   2.877   2.768   2.074 -2.6241 -0.4233 -1.2209
  865SOL     OW 2593   1.026   0.381   2.149 -0.7062 -0.0440 -0.1187
  865SOL    HW1 2594   0.965   0.458   2.175 -0.2464 -3.4720 -2.9009
  865SOL    HW2 2595   1.126   0.407   2.155  0.8855 -0.0671 -0.9388
  866SOL     OW 2596   2.377   2.774   0.275  0.0587 -0.3880 -0.3891
  866SOL    HW1 2597   2.293   2.805   0.318  1.1935  1.4033  1.2707
  866SOL    HW2 2598   2.451   2.785   0.346 -0.4635  0.7602  0.1910
  867SOL     OW 2599   2.567   2.814   0.461 -0.0643 -0.6770  0.0876
  867SOL    HW1 2600   2.578   2.728   0.513  0.0891 -0.3703 -0.7885
  867SOL    HW2 2601   2.650   2.880   0.457  6.1791  1.2025 -3.6416
  868SOL     OW 2602   1.812   1.306   2.701  0.5854 -0.1315  0.4253
  868SOL    HW1 2603   1.885   1.268   2.757 -1.5912 -1.0082 -1.9642
  868SOL    HW2 2604   1.731   1.298   2.756  1.3301  1.8576  0.5187
  869SOL     OW 2605   2.659   2.557   0.565  0.6668 -0.5632 -0.1790
  869SOL    HW1 2606   2.632   2.462   0.561  1.3498  2.4562 -2.1041
  869SOL    HW2 2607   2.719   2.581   0.484  1.4120 -0.5137 -2.1005
  870SOL     OW 2608   2.515   2.158   0.673  0.2091  0.7408 -0.0849
  870SOL    HW1 2609   2.503   2.186   0.767  1.9796  0.1056 -2.3174
  870SOL    HW2 2610   2.523   2.056   0.669  0.6980 -0.4217  2.2871
  871SOL     OW 2611   0.421   1.329   1.130  0.1571  0.0426 -0.1616
  871SOL    HW1 2612   0.489   1.252   1.133 -0.3816 -0.5477  1.9342
  871SOL    HW2 2613   0.335   1.311   1.185 -2.1009  0.7933  0.9136
  872SOL     OW 2614   1.272   1.709   2.519 -0.5728 -0.0289 -0.3123
  872SOL    HW1 2615   1.177   1.734   2.508  0.8364  1.0428 -0.8568
  872SOL    HW2 2616   1.322   1.717   2.427 -1.3311  1.8281  1.0012
  873SOL     OW 2617   0.787   2.572   2.137  0.1003  0.4341 -0.3137
  873SOL    HW1 2618   0.788   2.632   2.057  1.9287 -1.5465 -0.4765
  873SOL    HW2 2619   0.807   2.475   2.111  2.3788 -0.4764  0.3786
  874SOL     OW 2620   0.717   0.546   1.303  0.0074  0.0234 -0.0485
  874SOL    HW1 2621   0.666   0.629   1.336 -2.5119  1.8936 -0.7927
  874SOL    HW2 2622   0.740   0.493   1.392  0.8665 -0.0712  0.6627
  875SOL     OW 2623   2.984   0.355   1.111  0.9974  0.1831  0.0406
  875SOL    HW1 2624   3.063   0.426   1.112  4.4518  2.5952 -0.1140
  875SOL    HW2 2625   2.977   0.306   1.200  1.0235 -1.4661 -0.5328
  876SOL     OW 2626   0.550   1.102   0.207  0.0758  1.0468 -0.2840
  876SOL    HW1 2627   0.449   1.084   0.231 -0.5981 -2.1985  1.1896
  876SOL    HW2 2628   0.558   1.130   0.110  0.6944 -1.2291  0.0604
  877SOL     OW 2629   1.084   0.945   1.513  0.6038 -0.2580  0.3673
  877SOL    HW1 2630   1.108   0.849   1.506 -1.8494  1.1670  0.1279
  877SOL    HW2 2631   1.004   0.966   1.453 -1.8280  0.7357  0.7937
  878SOL     OW 2632   2.291   2.253   0.560  0.3799 -0.1430 -0.5318
  878SOL    HW1 2633   2.294   2.186   0.479  0.3084  0.1967 -5.6554
  878SOL    HW2 2634   2.379   2.242   0.613 -0.9445  0.5825 -0.1131
  879SOL     OW 2635   2.717   1.695   1.606  0.1725  0.3305  0.0155
  879SOL    HW1 2636   2.773   1.761   1.662 -0.2676  2.1763  1.0088
  879SOL    HW2 2637   2.734   1.597   1.633  1.2445 -0.5464 -0.1694
  880SOL     OW 2638   1.694   2.387   0.753 -0.1306  0.3129 -0.5563
  880SOL    HW1 2639   1.633   2.419   0.828  0.8688  1.4332 -0.0400
  880SOL    HW2 2640   1.678   2.287   0.739  0.0227  1.6808  2.5732
  881SOL     OW 2641   0.487   2.381   0.660 -0.4767  0.1527  0.0876
  881SOL    HW1 2642   0.418   2.376   0.586 -0.5232  0.2925  2.8635
  881SOL    HW2 2643   0.543   2.468   0.656  0.7897  2.8297  1.2256
  882SOL     OW 2644   2.015   0.640   0.788 -0.2771  0.0288 -0.1120
  882SOL    HW1 2645   2.104   0.645   0.741 -1.8232 -0.6491  0.8042
  882SOL    HW2 2646   2.030   0.648   0.886 -1.4495 -0.6255  0.1302
  883SOL     OW 2647   1.667   0.642   1.424 -0.4456 -0.0742  0.5425
  883SOL    HW1 2648   1.668   0.543   1.400  3.4174 -1.5961  1.4935
  883SOL    HW2 2649   1.753   0.693   1.396  2.2851  0.4955  0.6615
  884SOL     OW 2650   2.303   0.278   0.164  0.4319 -0.1055 -0.0356
  884SOL    HW1 2651   2.296   0.254   0.262 -0.1415  1.7876 -0.5109
  884SOL    HW2 2652   2.283   0.200   0.099  1.0106  0.3668  0.8384
  885SOL     OW 2653   1.171   1.221   2.692 -0.3262 -0.0757 -0.5753
  885SOL    HW1 2654   1.196   1.188   2.788 -2.0018 -0.2055  0.6131
  885SOL    HW2 2655   1.174   1.326   2.687  2.0117 -0.8062 -4.2795
  886SOL     OW 2656   1.404   1.831   2.718  0.3918  0.6340 -0.5116
  886SOL    HW1 2657   1.339   1.786   2.651  0.2383  1.3879  0.0279
  886SOL    HW2 2658   1.363   1.916   2.749 -1.1151 -0.6056 -1.9167
  887SOL     OW 2659   1.204   0.413   1.257  0.6769 -0.1874 -0.3818
  887SOL    HW1 2660   1.253   0.420   1.175  2.5652  0.6401  4.7025
  887SOL    HW2 2661   1.116   0.466   1.252  1.7365 -0.4596 -0.5254
  888SOL     OW 2662   2.429   0.776   1.591  0.1126  0.2293 -0.4985
  888SOL    HW1 2663   2.357   0.794   1.659  1.1639 -0.9498 -0.7750
  888SOL    HW2 2664   2.404   0.686   1.549  0.4218 -0.7068  1.5496
  889SOL     OW 2665   0.156   2.671   0.792 -0.0906 -0.0999  0.3750
  889SOL    HW1 2666   0.209   2.701   0.710  1.7894 -0.3379 -1.3687
  889SOL    HW2 2667   0.198   2.586   0.834 -1.3275 -2.0779  1.6880
  890SOL     OW 2668   1.844   2.041   0.672 -0.1615  0.3761  0.0955
  890SOL    HW1 2669   1.918   2.100   0.634 -3.4489  1.6506  1.5652
  890SOL    HW2 2670   1.754   2.076   0.634  1.5026 -0.6168 -2.2489
  891SOL     OW 2671   0.244   0.961   2.895 -0.0414  0.3626 -0.1163
  891SOL    HW1 2672   0.295   0.954   2.805  1.9968  0.1900 -1.6258
  891SOL    HW2 2673   0.148   0.975   2.878  2.0097  0.1234 -0.6127
  892SOL     OW 2674   2.945   2.370   1.219 -0.0702  0.8787 -0.3398
  892SOL    HW1 2675   2.984   2.345   1.125 -1.0753 -0.4638 -0.4908
  892SOL    HW2 2676   2.883   2.446   1.208  0.5973  0.0918  0.3976
  893SOL     OW 2677   1.328   0.402   0.964  0.2860  0.7935 -0.0856
  893SOL    HW1 2678   1.333   0.323   0.902  0.9907  0.0855 -3.3313
  893SOL    HW2 2679   1.413   0.425   1.013 -2.5137  1.8492  0.8275
  894SOL     OW 2680   2.489   0.407   0.573 -0.5181 -0.5919  0.5559
  894SOL    HW1 2681   2.397   0.419   0.610  3.6913 -2.7496  0.0614
  894SOL    HW2 2682   2.498   0.453   0.481  0.0186  0.7056  2.2998
  895SOL     OW 2683   1.669   1.058   2.324  0.5822  0.2093 -0.3907
  895SOL    HW1 2684   1.594   1.125   2.343 -2.9899 -2.0343 -0.8769
  895SOL    HW2 2685   1.760   1.095   2.358  3.1303  1.4677  1.0890
  896SOL     OW 2686   1.472   0.400   1.644 -0.0711  0.1503 -0.2649
  896SOL    HW1 2687   1.568   0.365   1.668  2.4672  0.1817 -2.2120
  896SOL    HW2 2688   1.439   0.352   1.559 -2.6000 -0.9428 -1.5471
  897SOL     OW 2689   0.620   1.590   1.653  0.1038  0.3564 -0.2784
  897SOL    HW1 2690   0.635   1.489   1.638  1.0295 -2.2625 -0.4414
  897SOL    HW2 2691   0.707   1.646   1.658  0.8832  1.5797 -1.0788
  898SOL     OW 2692   2.096   2.694   2.169 -0.1912  0.2551 -0.2803
  898SOL    HW1 2693   2.014   2.652   2.217 -0.0504 -1.3312 -3.5814
  898SOL    HW2 2694   2.147   2.616   2.129 -1.5885 -2.2965  1.2101
  899SOL     OW 2695   1.065   1.377   1.090 -0.3207  0.8016 -0.1621
  899SOL    HW1 2696   1.139   1.358   1.019 -0.4055  1.6590 -0.7008
  899SOL    HW2 2697   1.047   1.476   1.100 -0.5487  1.4042  0.0813
  900SOL     OW 2698   1.244   2.037   2.819 -0.0934  0.3142  0.4267
  900SOL    HW1 2699   1.147   2.020   2.812  2.1924 -0.0822 -1.0892
  900SOL    HW2 2700   1.267   2.113   2.758 -1.2992 -1.6683  0.0946
  901SOL     OW 2701   1.011   1.751   2.400  0.4436 -0.2806 -0.0087
  901SOL    HW1 2702   0.948   1.808   2.341  1.8307 -0.9748 -0.1703
  901SOL    HW2 2703   0.976   1.656   2.410 -1.2832 -1.2565 -0.1638
  902SOL     OW 2704   2.369   1.826   0.363  0.1872 -0.3454  0.0893
  902SOL    HW1 2705   2.433   1.822   0.283  0.0514  0.2558  2.2794
  902SOL    HW2 2706   2.406   1.765   0.438 -0.4829 -1.3852 -0.2435
  903SOL     OW 2707   2.059   1.759   0.397  0.1951  0.4167  0.3973
  903SOL    HW1 2708   2.012   1.684   0.349  1.2600  1.7451  1.1638
  903SOL    HW2 2709   2.160   1.759   0.388  1.7243  1.9873  0.7169
  904SOL     OW 2710   1.136   0.752   2.164  0.1901  0.6222  0.0503
  904SOL    HW1 2711   1.151   0.848   2.139 -1.1436  1.8911  2.0472
  904SOL    HW2 2712   1.159   0.691   2.080 -1.1682 -1.3733  0.4899
  905SOL     OW 2713   2.663   0.217   0.789  0.4530  0.1515  0.3131
  905SOL    HW1 2714   2.627   0.288   0.724  1.7917 -3.2038 -0.4263
  905SOL    HW2 2715   2.760   0.246   0.815 -0.3698  1.2003 -2.0788
  906SOL     OW 2716   2.815   1.925   0.510 -0.3582 -0.2596 -0.2085
  906SOL    HW1 2717   2.880   1.866   0.561  2.2803  0.1604  1.4348
  906SOL    HW2 2718   2.728   1.920   0.561  0.8825 -1.9997 -1.5008
  907SOL     OW 2719   1.345   0.447   0.353  0.2304  0.0759  0.9706
  907SOL    HW1 2720   1.390   0.355   0.362  1.8443 -3.1118 -1.9728
  907SOL    HW2 2721   1.346   0.480   0.257 -2.1163  0.2922  0.7418
  908SOL     OW 2722   1.834   0.174   1.408 -0.0502 -0.0651  0.5299
  908SOL    HW1 2723   1.763   0.123   1.464 -3.6378  1.1827  0.7032
  908SOL    HW2 2724   1.912   0.191   1.470 -1.6993 -0.3804 -2.7392
  909SOL     OW 2725   2.715   0.551   0.986  0.6055 -0.4303 -0.2016
  909SOL    HW1 2726   2.801   0.599   1.016 -2.0238 -0.1826  1.2650
  909SOL    HW2 2727   2.664   0.499   1.058  0.4168  0.8445  2.4387
  910SOL     OW 2728   1.001   2.884   2.509 -0.4767  0.3937 -0.2058
  910SOL    HW1 2729   1.004   2.825   2.590  1.4055 -1.9763  0.5976
  910SOL    HW2 2730   0.987   2.822   2.426 -2.0279 -0.5370 -0.7336
  911SOL     OW 2731   2.226   1.132   1.726  0.4923  0.6054  0.6750
  911SOL    HW1 2732   2.325   1.150   1.737 -3.0343 -0.3742  1.1351
  911SOL    HW2 2733   2.187   1.196   1.658 -1.6237  1.0652 -2.0562
  912SOL     OW 2734   2.468   2.168   1.534  0.0250  0.6552  0.9239
  912SOL    HW1 2735   2.567   2.176   1.539 -1.8185 -1.4092 -0.6853
  912SOL    HW2 2736   2.437   2.189   1.439  1.0313 -1.0560 -3.3508
  913SOL     OW 2737   2.588   2.350   1.300 -0.2530  0.4574  0.6935
  913SOL    HW1 2738   2.639   2.346   1.213  0.2335 -0.2394  2.1606
  913SOL    HW2 2739   2.493   2.314   1.287 -0.6038  1.3121 -0.7059
  914SOL     OW 2740   2.126   1.798   1.331  0.1506 -0.2455  0.1286
  914SOL    HW1 2741   2.157   1.712   1.290  0.7710 -1.6372  1.6837
  914SOL    HW2 2742   2.079   1.783   1.420 -3.1412 -1.3809 -1.0415
  915SOL     OW 2743   1.252   1.697   1.248 -0.2278  0.2707 -0.2033
  915SOL    HW1 2744   1.211   1.775   1.305 -1.0452 -1.1851 -0.5637
  915SOL    HW2 2745   1.342   1.721   1.200 -0.8242  0.9286  1.5496
  916SOL     OW 2746   3.009   2.765   1.343 -0.1495  0.4390 -0.3663
  916SOL    HW1 2747   3.061   2.846   1.308 -2.1152  1.9415  1.1588
  916SOL    HW2 2748   2.909   2.785   1.357 -1.5542  1.9586  1.6504
  917SOL     OW 2749   2.507   1.768   2.503 -0.3762  0.0098  0.0004
  917SOL    HW1 2750   2.422   1.817   2.485  4.1785 -1.6391 -2.5215
  917SOL    HW2 2751   2.503   1.704   2.582  0.9481 -1.3757 -0.2476
  918SOL     OW 2752   1.853   1.997   2.475  0.1996  0.2933 -0.5844
  918SOL    HW1 2753   1.798   2.003   2.388 -0.2098 -2.6391  1.5890
  918SOL    HW2 2754   1.900   1.905   2.488  0.6029 -1.2230  1.6742
  919SOL     OW 2755   1.575   2.062   1.907  0.2061 -0.4967 -0.0598
  919SOL    HW1 2756   1.494   2.011   1.928  0.4121  2.0642 -1.1705
  919SOL    HW2 2757   1.609   2.043   1.811  2.0434  2.1248 -0.1532
  920SOL     OW 2758   0.102   0.109   2.790  0.5157  0.4834  1.0917
  920SOL    HW1 2759   0.092   0.197   2.742 -0.6268 -2.5067 -0.2167
  920SOL    HW2 2760   0.193   0.102   2.824 -1.6768 -0.0402 -0.8550
  921SOL     OW 2761   2.611   0.146   2.369  0.4430 -0.1990  0.4253
  921SOL    HW1 2762   2.714   0.155   2.370  0.8173  0.0886 -1.5658
  921SOL    HW2 2763   2.561   0.220   2.421 -1.7833 -0.0401  1.1125
  922SOL     OW 2764   2.469   1.664   1.253  0.1272 -0.1825  0.0046
  922SOL    HW1 2765   2.452   1.719   1.336  1.7103  1.0271 -0.4196
  922SOL    HW2 2766   2.418   1.705   1.177  0.7324  0.7776  0.6500
  923SOL     OW 2767   0.629   1.687   0.590 -0.3740  0.0258 -0.7285
  923SOL    HW1 2768   0.644   1.699   0.489 -0.6594 -0.9061 -0.7279
  923SOL    HW2 2769   0.709   1.729   0.635 -1.4437 -2.1354 -1.1748
  924SOL     OW 2770   1.467   0.490   2.959  0.1768 -0.0813 -0.6327
  924SOL    HW1 2771   1.497   0.584   2.982 -0.5404  0.0917 -1.3650
  924SOL    HW2 2772   1.511   0.464   2.874 -1.7764  0.7515  2.0707
  925SOL     OW 2773   2.747   1.585   0.707 -0.0274  0.1112 -0.8557
  925SOL    HW1 2774   2.690   1.556   0.791  0.9917 -0.2741  0.1366
  925SOL    HW2 2775   2.768   1.500   0.654  2.0809  1.0543  0.7748
  926SOL     OW 2776   2.746   1.114   0.823  0.5310  0.2070 -0.1957
  926SOL    HW1 2777   2.725   1.029   0.877 -1.3424 -2.4522 -0.7676
  926SOL    HW2 2778   2.834   1.154   0.852  0.6752  0.6689  1.4250
  927SOL     OW 2779   0.624   1.337   0.288  0.7816  0.1460 -0.2026
  927SOL    HW1 2780   0.587   1.242   0.276  2.9322 -0.3429 -0.2335
  927SOL    HW2 2781   0.721   1.336   0.268 -2.0347 -1.6345 -0.3927
  928SOL     OW 2782   0.040   0.085   2.470  0.4701  0.1643 -0.2703
  928SOL    HW1 2783   0.083   0.046   2.553 -0.7556  1.6153 -2.3886
  928SOL    HW2 2784   0.111   0.111   2.402  2.4812  0.0328 -0.5332
  929SOL     OW 2785   2.814   0.117   1.164  0.6484  0.1888  0.0924
  929SOL    HW1 2786   2.838   0.030   1.116  1.0986 -2.0680 -3.2412
  929SOL    HW2 2787   2.719   0.118   1.186  3.1209 -0.5365 -2.3716
  930SOL     OW 2788   1.960   2.314   1.772  0.2333 -0.5821 -0.1491
  930SOL    HW1 2789   1.875   2.292   1.831 -0.0609  0.2971  2.2922
  930SOL    HW2 2790   1.978   2.240   1.703 -0.1892 -1.6905  1.2874
  931SOL     OW 2791   1.889   1.168   0.869 -0.3071 -0.5126 -0.0191
  931SOL    HW1 2792   1.966   1.199   0.930 -1.8775 -0.4480 -0.1042
  931SOL    HW2 2793   1.907   1.078   0.828  0.7935  0.1793 -1.4347
  932SOL     OW 2794   2.847   0.766   1.284 -0.0652 -0.1660 -0.3548
  932SOL    HW1 2795   2.745   0.750   1.275 -0.3058  1.5328  3.1311
  932SOL    HW2 2796   2.901   0.727   1.202  2.9356 -0.8323 -0.0049
  933SOL     OW 2797   2.463   1.803   1.524  0.4861 -0.6063  0.0180
  933SOL    HW1 2798   2.423   1.842   1.611  1.7618  0.5017  1.8123
  933SOL    HW2 2799   2.549   1.756   1.541  0.2373 -0.7332  0.9729
  934SOL     OW 2800   1.730   0.252   1.065  0.1970  0.1722  0.0195
  934SOL    HW1 2801   1.689   0.160   1.053 -1.3767  0.9714 -2.1084
  934SOL    HW2 2802   1.830   0.244   1.066  0.8965  0.6830  1.1127
  935SOL     OW 2803   0.063   1.399   1.097 -0.2317  0.1493  0.7633
  935SOL    HW1 2804   0.013   1.450   1.028 -0.5748  1.2493  0.1172
  935SOL    HW2 2805   0.099   1.314   1.060 -1.0908  0.5936  1.2446
  936SOL     OW 2806   2.955   1.193   0.951 -0.2729 -0.2065 -0.8425
  936SOL    HW1 2807   2.909   1.195   1.039  1.4756  0.9973 -1.3672
  936SOL    HW2 2808   3.041   1.140   0.964  0.6439 -2.2233  3.6280
  937SOL     OW 2809   1.427   2.851   0.792  0.7407  0.0058 -0.5202
  937SOL    HW1 2810   1.337   2.897   0.807  0.8904 -1.5001 -1.5370
  937SOL    HW2 2811   1.445   2.842   0.692  0.8635 -1.8681 -0.0934
  938SOL     OW 2812   2.776   2.548   0.804  0.2996 -0.5808 -0.0114
  938SOL    HW1 2813   2.742   2.570   0.717  0.6184 -0.0845  5.0851
  938SOL    HW2 2814   2.710   2.566   0.883  2.5758  0.1209  0.3479
  939SOL     OW 2815   0.641   1.822   2.949  0.1245 -0.1916  0.2770
  939SOL    HW1 2816   0.712   1.766   2.901  0.7226 -1.8513 -1.5196
  939SOL    HW2 2817   0.677   1.901   3.001 -0.0486 -4.3132 -0.8075
  940SOL     OW 2818   2.660   2.951   2.839  0.0385 -0.7183  0.3878
  940SOL    HW1 2819   2.729   2.971   2.766 -2.9040  2.6065  0.1460
  940SOL    HW2 2820   2.614   2.859   2.826  0.4345  0.3770  0.3076
  941SOL     OW 2821   1.169   2.738   0.191 -0.0179 -0.2500  0.0554
  941SOL    HW1 2822   1.206   2.644   0.216 -0.6198 -1.3439  0.7953
  941SOL    HW2 2823   1.238   2.819   0.203  0.7777 -0.2040  2.5796
  942SOL     OW 2824   1.633   1.861   1.705 -0.3732  0.5285  0.7569
  942SOL    HW1 2825   1.575   1.776   1.699 -0.0039 -2.0096  1.3485
  942SOL    HW2 2826   1.656   1.897   1.611 -1.1876  0.0266  0.7528
  943SOL     OW 2827   2.257   1.367   1.326 -0.0064  0.3332 -0.2554
  943SOL    HW1 2828   2.326   1.429   1.371  1.6352  0.0226  1.0508
  943SOL    HW2 2829   2.187   1.347   1.398  1.6709 -2.1200  0.6125
  944SOL     OW 2830   1.834   0.992   1.558 -0.0596 -0.1833  0.3025
  944SOL    HW1 2831   1.738   0.989   1.594 -1.0172  2.4395 -2.2789
  944SOL    HW2 2832   1.842   0.923   1.485 -1.3559  1.2334 -0.4599
  945SOL     OW 2833   0.037   2.992   1.258  0.4306  0.3550  0.2893
  945SOL    HW1 2834   0.038   3.026   1.161 -0.6468  0.9801  2.5640
  945SOL    HW2 2835   3.074   3.068   1.315  1.3858 -3.2768 -0.4644
  946SOL     OW 2836   0.166   0.753   1.815 -0.0889  0.0959  0.0017
  946SOL    HW1 2837   0.127   0.841   1.850 -0.9552 -0.7358  1.5439
  946SOL    HW2 2838   0.177   0.755   1.714  1.3640  2.9301 -2.8508
  947SOL     OW 2839   0.631   2.612   0.648 -0.5756  0.0514  0.4124
  947SOL    HW1 2840   0.672   2.650   0.561  0.4958 -0.5020  3.2782
  947SOL    HW2 2841   0.691   2.631   0.725 -1.7392  0.2095 -2.7966
  948SOL     OW 2842   3.016   1.274   1.881  0.5187  0.1842 -0.4691
  948SOL    HW1 2843   0.001   1.280   1.803  2.9511  0.3551 -1.1083
  948SOL    HW2 2844   3.065   1.233   1.959 -0.3152  0.0108 -1.4759
  949SOL     OW 2845   0.393   0.895   2.237 -0.1135 -0.5872  0.0876
  949SOL    HW1 2846   0.397   0.861   2.332 -1.9011  0.0212  0.5360
  949SOL    HW2 2847   0.340   0.834   2.181  1.4994  1.9576  1.0554
  950SOL     OW 2848   0.796   0.974   0.874 -0.2164 -0.1228 -0.3365
  950SOL    HW1 2849   0.745   1.006   0.791  0.6388 -0.8299  0.3354
  950SOL    HW2 2850   0.858   1.046   0.915  0.7266  1.6793  1.6596
  951SOL     OW 2851   1.062   1.897   1.984 -1.1961  0.0507  0.2506
  951SOL    HW1 2852   1.111   1.895   2.072 -1.2685  0.9997 -0.8130
  951SOL    HW2 2853   0.961   1.922   1.994  0.1405 -0.1969 -2.2988
  952SOL     OW 2854   0.850   1.708   2.821  0.2051 -0.1923  0.2520
  952SOL    HW1 2855   0.941   1.668   2.836 -1.1847  2.1867  0.6841
  952SOL    HW2 2856   0.802   1.683   2.732  0.6311  0.3651 -0.7640
  953SOL     OW 2857   1.612   3.075   2.134 -0.0279 -0.2899 -0.0841
  953SOL    HW1 2858   1.647   0.082   2.100  0.6854 -1.8610 -1.0270
  953SOL    HW2 2859   1.629   3.063   2.236 -0.1925 -1.3422  1.5203
  954SOL     OW 2860   2.099   1.200   0.135 -0.3635 -0.1586 -0.1817
  954SOL    HW1 2861   2.110   1.273   0.206  2.8364  0.2552  0.4139
  954SOL    HW2 2862   2.121   1.246   0.049 -0.5813  0.1713  1.4509
  955SOL     OW 2863   0.558   2.155   2.234  0.2813 -0.1403 -0.3477
  955SOL    HW1 2864   0.551   2.101   2.322 -0.4349 -1.1025  1.4317
  955SOL    HW2 2865   0.485   2.129   2.164 -1.1222  2.0989  0.7307
  956SOL     OW 2866   1.541   0.985   1.252  0.6390  0.0509  0.2116
  956SOL    HW1 2867   1.511   0.891   1.273  0.0279 -2.1275  0.3065
  956SOL    HW2 2868   1.601   1.016   1.329  0.4967 -1.0561  1.8971
  957SOL     OW 2869   2.141   1.342   2.361 -0.0649  0.2306 -0.1882
  957SOL    HW1 2870   2.170   1.401   2.440  0.5622 -0.0159 -0.4503
  957SOL    HW2 2871   2.042   1.353   2.342  0.5326  2.7433  0.2691
  958SOL     OW 2872   1.513   2.493   0.926  0.1737 -0.3475  0.3039
  958SOL    HW1 2873   1.430   2.522   0.877 -0.6022  0.1091 -0.5000
  958SOL    HW2 2874   1.521   2.544   1.013  0.1229 -1.3972 -1.7541
  959SOL     OW 2875   1.906   1.541   2.636  0.0909 -0.0215 -0.5005
  959SOL    HW1 2876   1.880   1.446   2.659  2.4305 -3.2037  1.6420
  959SOL    HW2 2877   1.902   1.603   2.716  0.0809  0.4930  0.9890
  960SOL     OW 2878   0.274   0.404   3.010  0.0011 -0.2784 -0.0612
  960SOL    HW1 2879   0.188   0.439   2.966 -1.4178 -0.9249 -0.1738
  960SOL    HW2 2880   0.355   0.447   2.965 -0.6909  0.8697 -1.4488
  961SOL     OW 2881   0.378   0.489   2.214  0.2933 -0.6724  0.4934
  961SOL    HW1 2882   0.474   0.454   2.193  2.0598 -0.9496 -0.7215
  961SOL    HW2 2883   0.371   0.536   2.304  0.7511 -0.3313  1.0187
  962SOL     OW 2884   1.087   1.415   3.048  0.4878  0.5321  0.3446
  962SOL    HW1 2885   1.139   1.350   0.029 -0.8471 -0.4361  0.4735
  962SOL    HW2 2886   0.989   1.395   3.041 -0.7862  0.4813  0.8575
  963SOL     OW 2887   2.061   1.923   3.052  0.2232  0.0534  0.2178
  963SOL    HW1 2888   1.988   1.983   3.013 -1.9269  2.0496  0.9609
  963SOL    HW2 2889   2.153   1.971   3.053 -2.2876  1.2298  1.1987
  964SOL     OW 2890   1.192   2.964   0.826 -0.3739  0.3008 -0.3013
  964SOL    HW1 2891   1.182   3.056   0.775  1.8876  1.3765 -2.2832
  964SOL    HW2 2892   1.159   2.972   0.922  2.1285  0.4039 -1.7254
  965SOL     OW 2893   0.631   2.656   1.075  0.2676  0.1167 -0.6152
  965SOL    HW1 2894   0.588   2.564   1.067 -1.8044  0.8828 -2.1098
  965SOL    HW2 2895   0.563   2.728   1.060  3.3323  2.5195  1.0926
  966SOL     OW 2896   3.081   1.407   0.042  0.6780  0.1340  0.3215
  966SOL    HW1 2897   3.041   1.383   3.035 -0.4467  0.2679 -0.8358
  966SOL    HW2 2898   3.009   1.436   0.108  1.0908 -0.1701  0.2292
  967SOL     OW 2899   1.612   2.871   1.614 -0.5222 -0.4440 -0.4197
  967SOL    HW1 2900   1.589   2.820   1.529  0.3967 -0.2572  2.5999
  967SOL    HW2 2901   1.560   2.838   1.691  1.7005  1.4455 -1.9193
  968SOL     OW 2902   1.920   0.903   0.747 -0.1957 -0.1110  0.2353
  968SOL    HW1 2903   1.839   0.929   0.688 -1.3013  1.1128  0.8859
  968SOL    HW2 2904   1.926   0.804   0.762  0.5257  2.3356 -0.8247
  969SOL     OW 2905   0.377   1.772   2.212  0.1967 -0.0173  0.5830
  969SOL    HW1 2906   0.289   1.741   2.168  0.6994 -0.3685  0.7002
  969SOL    HW2 2907   0.362   1.852   2.273  1.5344  1.5919  0.7575
  970SOL     OW 2908   2.613   1.392   1.399  0.1779  0.4320 -0.3593
  970SOL    HW1 2909   2.647   1.296   1.387 -0.4171  2.4883  1.1317
  970SOL    HW2 2910   2.629   1.447   1.318 -1.1296  0.0584 -0.9828
  971SOL     OW 2911   1.076   0.395   1.583  0.0736  0.2008  0.2298
  971SOL    HW1 2912   1.059   0.376   1.682 -2.9457 -0.3264 -1.8451
  971SOL    HW2 2913   1.171   0.367   1.556 -0.5164  1.4507 -0.4345
  972SOL     OW 2914   0.897   0.277   2.565  0.4338 -0.1730  0.4826
  972SOL    HW1 2915   0.952   0.274   2.649 -1.8027  1.4397 -0.6058
  972SOL    HW2 2916   0.890   0.187   2.523 -1.4061 -0.6811  1.8179
  973SOL     OW 2917   3.016   1.493   0.869  0.0616 -0.4207  0.3633
  973SOL    HW1 2918   2.942   1.455   0.802 -3.1602  3.8731  0.2778
  973SOL    HW2 2919   0.013   1.528   0.814 -0.9343 -0.6446 -1.1370
  974SOL     OW 2920   1.967   1.078   1.793  0.2284 -0.2576 -0.0686
  974SOL    HW1 2921   2.066   1.092   1.768  2.5175  0.1514 -1.4819
  974SOL    HW2 2922   1.910   1.067   1.709 -0.4295 -1.3108 -0.3602
  975SOL     OW 2923   2.553   3.028   0.192  0.2976  0.3192 -0.0715
  975SOL    HW1 2924   2.568   2.930   0.164 -0.2246  0.3985 -1.5270
  975SOL    HW2 2925   2.590   0.010   0.122  0.5601 -0.6407  0.3002
  976SOL     OW 2926   0.126   1.522   1.656  0.1050  0.6351  0.0743
  976SOL    HW1 2927   0.202   1.582   1.688  0.8348 -1.1489  0.9427
  976SOL    HW2 2928   0.042   1.573   1.631  2.8549 -1.3246 -0.8743
  977SOL     OW 2929   0.491   2.827   0.242 -0.0443  0.1721  0.6308
  977SOL    HW1 2930   0.541   2.894   0.188  1.6902 -4.6289  2.2465
  977SOL    HW2 2931   0.428   2.778   0.177 -0.0050  2.3698 -2.1869
  978SOL     OW 2932   0.519   1.752   0.125  0.0727 -0.2295  0.0626
  978SOL    HW1 2933   0.504   1.650   0.140  0.0179  0.1932 -1.1174
  978SOL    HW2 2934   0.568   1.773   0.037 -2.4104  1.1214  1.4949
  979SOL     OW 2935   1.427   2.066   1.326 -0.6838 -0.0176 -0.1874
  979SOL    HW1 2936   1.388   2.160   1.314  3.0322 -0.9944 -2.4297
  979SOL    HW2 2937   1.429   2.037   1.426 -1.1231 -0.7930  2.0986
  980SOL     OW 2938   0.636   1.372   2.021  0.2024 -0.6564  0.1128
  980SOL    HW1 2939   0.650   1.464   1.978  0.8344  0.6759  2.5365
  980SOL    HW2 2940   0.535   1.351   2.029 -0.4388 -0.5106  1.0199
  981SOL     OW 2941   2.966   1.310   0.315 -0.1440  0.4901 -0.3262
  981SOL    HW1 2942   3.005   1.244   0.375 -0.5677  1.2292 -1.0669
  981SOL    HW2 2943   3.010   1.402   0.318 -0.7503  4.3263 -1.2954
  982SOL     OW 2944   2.165   2.759   2.914 -0.0513  0.0272  0.2123
  982SOL    HW1 2945   2.251   2.771   2.973  2.4661 -0.4078  4.1451
  982SOL    HW2 2946   2.079   2.757   2.970 -1.1203  0.9331 -0.6365
  983SOL     OW 2947   2.228   0.727   1.239  0.2675  0.5908 -0.3060
  983SOL    HW1 2948   2.240   0.811   1.299  0.1441 -0.5171  1.9658
  983SOL    HW2 2949   2.272   0.646   1.285  0.5281 -1.4225  1.8117
  984SOL     OW 2950   0.895   0.049   2.442 -0.3720 -0.1088  0.3262
  984SOL    HW1 2951   0.917   0.066   2.344 -0.1100 -1.2219 -3.5189
  984SOL    HW2 2952   0.926   3.044   2.480 -0.9054 -1.5511  1.2875
  985SOL     OW 2953   1.569   2.202   2.300  0.1019  0.0275 -0.2609
  985SOL    HW1 2954   1.478   2.163   2.269  0.5972  0.7439 -1.5031
  985SOL    HW2 2955   1.644   2.131   2.292  1.6284  0.8512  0.2202
  986SOL     OW 2956   1.657   3.020   2.407  0.4738  0.2328  0.0738
  986SOL    HW1 2957   1.697   3.074   2.487  2.4567  0.8907  1.1935
  986SOL    HW2 2958   1.700   2.926   2.401  0.3413 -1.3727 -2.7341
  987SOL     OW 2959   2.321   0.221   2.181 -0.1681  0.9395 -0.4853
  987SOL    HW1 2960   2.321   0.311   2.129  0.6982 -0.0350  0.6799
  987SOL    HW2 2961   2.331   0.230   2.280 -1.1692 -1.4700 -0.2005
  988SOL     OW 2962   2.577   0.425   2.183 -0.7040  0.1577 -0.3842
  988SOL    HW1 2963   2.558   0.498   2.252 -1.4159  0.0498  0.2581
  988SOL    HW2 2964   2.502   0.412   2.120  1.2368 -2.9797  2.2028
  989SOL     OW 2965   2.603   2.415   2.740 -0.1931  0.5535 -0.4015
  989SOL    HW1 2966   2.701   2.396   2.714  1.0404 -0.8710  1.4575
  989SOL    HW2 2967   2.557   2.325   2.716 -0.4887 -1.5981 -1.6760
  990SOL     OW 2968   0.253   0.859   0.070 -0.2451  0.7178  0.3499
  990SOL    HW1 2969   0.170   0.801   0.096  0.1186 -1.3382  3.3292
  990SOL    HW2 2970   0.253   0.895   3.056 -0.3726 -1.2726 -0.5487
  991SOL     OW 2971   0.391   0.981   2.665 -0.3135  0.1140  0.0977
  991SOL    HW1 2972   0.474   1.040   2.681  1.9497 -1.6154 -0.8394
  991SOL    HW2 2973   0.414   0.904   2.602  2.3473  1.9208  0.8795
  992SOL     OW 2974   0.137   1.720   2.047  0.3089 -0.0208  0.2908
  992SOL    HW1 2975   0.184   1.743   1.960 -0.4214 -1.3840 -0.2039
  992SOL    HW2 2976   0.036   1.715   2.034  2.6074 -0.8052  0.6455
  993SOL     OW 2977   0.977   0.238   0.508  0.2401 -0.7005 -0.2732
  993SOL    HW1 2978   1.009   0.331   0.491 -1.8505  2.6252  0.8745
  993SOL    HW2 2979   0.879   0.244   0.520  2.5966 -0.0230  2.1270
  994SOL     OW 2980   0.372   2.142   1.534 -0.4215 -0.5118 -0.5134
  994SOL    HW1 2981   0.295   2.166   1.472  1.7544  0.0129 -0.1924
  994SOL    HW2 2982   0.409   2.044   1.523 -0.2065 -0.4264 -0.3518
  995SOL     OW 2983   2.221   1.674   2.776 -0.1884 -0.1156  0.0462
  995SOL    HW1 2984   2.318   1.693   2.792  1.2139  1.9949  0.9282
  995SOL    HW2 2985   2.180   1.635   2.857 -1.5087  0.9733 -1.2842
  996SOL     OW 2986   2.162   1.501   2.564  0.3504  0.2972  0.1406
  996SOL    HW1 2987   2.071   1.516   2.607  0.0476  1.1393  0.8540
  996SOL    HW2 2988   2.235   1.558   2.609  1.2330 -0.1118 -0.6156
  997SOL     OW 2989   1.641   1.198   1.748  0.2709 -0.2048 -0.1964
  997SOL    HW1 2990   1.656   1.114   1.807 -0.8183 -4.0476  0.5224
  997SOL    HW2 2991   1.577   1.171   1.679  3.1686  1.2145  0.1119
  998SOL     OW 2992   2.238   2.062   0.975 -0.0482  0.4694  0.1232
  998SOL    HW1 2993   2.197   2.045   1.066 -0.3360 -0.1250 -1.4179
  998SOL    HW2 2994   2.240   1.976   0.918  0.0310  0.3128 -0.3802
  999SOL     OW 2995   2.356   2.515   0.171  0.3775 -0.3125  0.3886
  999SOL    HW1 2996   2.400   2.602   0.191 -1.9788 -3.2538 -0.0890
  999SOL    HW2 2997   2.413   2.464   0.110 -2.7415  1.0078  1.6177
 1000SOL     OW 2998   0.658   3.050   2.566 -0.0557 -0.1247  0.1214
 1000SOL    HW1 2999   0.601   0.031   2.617 -0.2029 -2.8353 -1.1401
 1000SOL    HW2 3000   0.742   0.012   2.530 -0.8472  0.6926  1.2490
   3.08226   3.08226   3.08226
