1000 SPC/Fw water molecules t= 485.00000 step= 485000
 3000
    1SOL     OW    1   2.745   3.024   1.240 -0.2430  0.2122  0.2596
    1SOL    HW1    2   2.758   0.008   1.267  0.4767 -0.2966 -0.8045
    1SOL    HW2    3   2.674   2.986   1.301  0.3530  0.7623  0.7516
    2SOL     OW    4   2.891   2.707   3.013  0.4340 -0.2067 -0.0921
    2SOL    HW1    5   2.821   2.755   2.960  0.9581  0.2338 -1.1404
    2SOL    HW2    6   2.882   2.609   2.988 -0.2004 -0.1918 -0.6249
    3SOL     OW    7   0.986   2.029   0.174 -0.2810  0.5174  0.0269
    3SOL    HW1    8   1.022   2.044   0.079 -1.3802 -1.5288 -3.3206
    3SOL    HW2    9   1.014   2.104   0.239 -0.7412  1.0214  1.3501
    4SOL     OW   10   1.332   2.846   2.212  0.3743  0.8358  0.2685
    4SOL    HW1   11   1.230   2.858   2.198 -1.1406  0.6703 -0.6932
    4SOL    HW2   12   1.360   2.860   2.311  1.9707 -1.6425  1.4032
    5SOL     OW   13   1.932   0.189   3.020  0.4899 -0.0170  0.4238
    5SOL    HW1   14   1.863   0.116   2.993  2.6415  0.4949  0.6596
    5SOL    HW2   15   1.907   0.216   0.003 -0.3024  0.3978 -0.0630
    6SOL     OW   16   0.216   1.418   0.896 -0.2712  0.2721  0.2502
    6SOL    HW1   17   0.217   1.508   0.942  1.4259  0.0568 -0.9341
    6SOL    HW2   18   0.297   1.397   0.834  2.8622  0.1903 -0.0308
    7SOL     OW   19   1.158   1.871   0.599  0.1180  0.0836 -0.0909
    7SOL    HW1   20   1.115   1.784   0.560  0.0711  2.9651 -0.1574
    7SOL    HW2   21   1.154   1.856   0.700 -0.8231  0.9486 -0.1117
    8SOL     OW   22   0.552   0.428   0.421  0.4632  0.6800 -0.6452
    8SOL    HW1   23   0.648   0.410   0.457  0.8911  1.5789  1.9037
    8SOL    HW2   24   0.526   0.527   0.436 -2.2786  1.3285 -2.7680
    9SOL     OW   25   0.169   2.524   1.723 -0.1814  0.1573  0.2663
    9SOL    HW1   26   0.203   2.620   1.713 -0.7243 -0.2710 -3.9178
    9SOL    HW2   27   0.102   2.504   1.651  2.1687 -0.0972  1.6267
   10SOL     OW   28   1.328   1.696   0.210 -0.2386 -0.0118 -0.3303
   10SOL    HW1   29   1.378   1.789   0.225 -1.9451 -2.2002 -0.4362
   10SOL    HW2   30   1.351   1.658   0.116  1.0950 -0.2510 -0.3098
   11SOL     OW   31   1.909   0.542   1.645 -0.1487  0.4736  0.2760
   11SOL    HW1   32   1.948   0.604   1.718 -0.1231 -1.3683 -2.4404
   11SOL    HW2   33   1.817   0.509   1.673 -1.0483  1.7437  2.5840
   12SOL     OW   34   0.412   0.742   2.163  0.4916 -0.1830 -0.3304
   12SOL    HW1   35   0.499   0.791   2.176 -0.8901 -0.5768 -1.0992
   12SOL    HW2   36   0.414   0.654   2.218  0.5503  0.2786  1.9836
   13SOL     OW   37   2.050   0.204   0.323 -0.0968  0.0468 -0.1562
   13SOL    HW1   38   2.071   0.114   0.283  1.1289 -2.7507  1.1300
   13SOL    HW2   39   2.012   0.192   0.417  0.8049 -0.3690  0.9546
   14SOL     OW   40   2.513   2.140   0.267 -0.3095 -0.2089  1.0894
   14SOL    HW1   41   2.460   2.224   0.245  2.2472  2.5513 -0.8760
   14SOL    HW2   42   2.535   2.091   0.178  0.6758 -2.5307 -0.8624
   15SOL     OW   43   2.763   0.083   2.895  0.0679  0.0489 -0.3821
   15SOL    HW1   44   2.743   0.025   2.814  1.9940 -0.8054  2.2938
   15SOL    HW2   45   2.685   0.140   2.927  1.2786 -0.2071  2.1598
   16SOL     OW   46   3.012   0.726   1.056  0.4622  0.1701 -0.8002
   16SOL    HW1   47   3.077   0.646   1.057 -1.4548  1.9985  0.5091
   16SOL    HW2   48   2.961   0.739   0.969 -1.2257  0.3775  1.7468
   17SOL     OW   49   0.610   0.313   1.187 -0.4384 -0.0121  0.6113
   17SOL    HW1   50   0.690   0.323   1.126  2.3113  1.0798  0.8941
   17SOL    HW2   51   0.591   0.402   1.240  4.7389  1.8640 -1.5692
   18SOL     OW   52   2.915   0.177   0.645  0.2807  0.2934 -0.0238
   18SOL    HW1   53   2.911   0.135   0.736  2.2984  2.4466  0.8790
   18SOL    HW2   54   3.010   0.198   0.627 -1.8444  0.5143 -2.3248
   19SOL     OW   55   2.031   1.849   0.946  0.1356 -0.0916  0.2638
   19SOL    HW1   56   2.021   1.928   0.881 -1.9741  0.3158 -0.4956
   19SOL    HW2   57   2.042   1.759   0.894 -0.6535  0.3858 -1.3867
   20SOL     OW   58   2.170   1.695   2.399 -0.1720  0.1715  0.4584
   20SOL    HW1   59   2.080   1.745   2.399 -2.5993  0.6800 -1.2457
   20SOL    HW2   60   2.205   1.711   2.493  0.1213 -1.0258 -2.0345
   21SOL     OW   61   1.311   0.395   0.354 -0.3875 -0.0653 -0.3426
   21SOL    HW1   62   1.270   0.479   0.313 -2.2660 -0.6553 -0.4875
   21SOL    HW2   63   1.341   0.324   0.284 -1.1877 -1.9562 -4.3455
   22SOL     OW   64   2.513   1.054   0.032 -0.1604 -0.2342 -0.5919
   22SOL    HW1   65   2.588   1.003   0.077  1.3750 -0.3751 -0.6055
   22SOL    HW2   66   2.524   1.030   3.050 -1.9713  0.4956  3.0979
   23SOL     OW   67   0.385   0.068   2.456  0.5687 -0.3402 -0.4471
   23SOL    HW1   68   0.375   0.036   2.359  1.0070  0.6595 -1.2849
   23SOL    HW2   69   0.482   0.075   2.486  0.4497  0.1069  1.4093
   24SOL     OW   70   2.145   2.521   0.775  0.1615 -0.3627  0.4679
   24SOL    HW1   71   2.218   2.580   0.812  0.5917  0.5082 -1.2535
   24SOL    HW2   72   2.082   2.487   0.847 -0.6044 -0.6866  0.7365
   25SOL     OW   73   1.591   0.503   0.138  0.3227  0.7018 -0.0258
   25SOL    HW1   74   1.619   0.406   0.155 -1.0959 -0.7568  2.0702
   25SOL    HW2   75   1.678   0.553   0.116 -1.7077 -0.5636 -2.0184
   26SOL     OW   76   1.119   2.698   2.839  0.3310  0.3034  0.0002
   26SOL    HW1   77   1.050   2.771   2.862 -1.0854  0.3872 -2.6506
   26SOL    HW2   78   1.100   2.623   2.903  0.0143 -0.7196  1.1934
   27SOL     OW   79   0.910   0.773   1.401 -0.0491 -0.2480 -0.5752
   27SOL    HW1   80   0.900   0.730   1.306 -0.1015  2.6876  0.3488
   27SOL    HW2   81   0.964   0.859   1.393 -2.5322 -0.0274  0.6788
   28SOL     OW   82   0.796   2.022   1.326 -0.0834 -0.2169 -0.1449
   28SOL    HW1   83   0.811   1.935   1.282 -0.8919  0.4407  1.4616
   28SOL    HW2   84   0.738   2.007   1.408  1.0204 -1.2117 -2.0511
   29SOL     OW   85   2.720   0.562   0.766  0.3002  0.0356  0.3805
   29SOL    HW1   86   2.620   0.587   0.788 -1.6375  0.6887  0.8518
   29SOL    HW2   87   2.777   0.645   0.791 -2.7315 -0.3202  0.9551
   30SOL     OW   88   1.589   0.210   1.677  0.0005  0.8549 -0.4543
   30SOL    HW1   89   1.620   0.158   1.602 -4.0509  2.6972  2.2881
   30SOL    HW2   90   1.505   0.165   1.715  1.5885  0.9962  0.0144
   31SOL     OW   91   1.108   0.216   1.241 -0.1157  0.2685 -0.3331
   31SOL    HW1   92   1.209   0.213   1.225 -0.0103  1.4592 -1.9323
   31SOL    HW2   93   1.086   0.127   1.283  0.6981 -1.5695  0.1107
   32SOL     OW   94   2.441   1.092   2.143 -0.2957  0.0163  0.0104
   32SOL    HW1   95   2.535   1.130   2.147 -0.9346 -0.0779  0.3603
   32SOL    HW2   96   2.409   1.090   2.046  1.2144  0.5775 -0.5068
   33SOL     OW   97   2.470   2.850   2.532 -0.3862  0.3459  0.4803
   33SOL    HW1   98   2.465   2.794   2.445 -2.1263 -2.9430 -2.8288
   33SOL    HW2   99   2.448   2.946   2.522  1.0425 -3.0289 -0.0651
   34SOL     OW  100   1.926   0.952   3.002  0.0246 -0.3282  0.5241
   34SOL    HW1  101   1.984   0.937   3.087  1.2896  0.6007 -1.7511
   34SOL    HW2  102   1.826   0.946   3.020 -2.7181 -0.8980 -0.3332
   35SOL     OW  103   3.034   1.208   1.215  0.4764 -0.1422 -0.4114
   35SOL    HW1  104   3.103   1.200   1.141 -2.0420  1.6921  0.8115
   35SOL    HW2  105   2.948   1.158   1.190  0.9401  4.3336 -1.3385
   36SOL     OW  106   2.321   2.429   2.674 -0.0336  0.1482 -0.4542
   36SOL    HW1  107   2.406   2.435   2.619  1.5274  0.3304 -0.1885
   36SOL    HW2  108   2.269   2.516   2.673  1.0842  0.6832 -0.2363
   37SOL     OW  109   1.563   0.190   2.054  0.5985  0.0828 -0.1582
   37SOL    HW1  110   1.496   0.217   1.987  0.4354 -0.0756 -0.9017
   37SOL    HW2  111   1.656   0.170   2.012  0.9984  1.0735 -1.2730
   38SOL     OW  112   1.147   1.501   2.291 -0.4995  0.1888  0.0467
   38SOL    HW1  113   1.179   1.589   2.248  0.9766  1.2648 -3.0586
   38SOL    HW2  114   1.127   1.436   2.215 -0.6587  2.5668 -0.1323
   39SOL     OW  115   1.648   0.473   1.670 -0.4628  0.0765 -0.4726
   39SOL    HW1  116   1.569   0.524   1.637  0.7685 -0.4903 -0.7613
   39SOL    HW2  117   1.626   0.372   1.661  2.2132  1.7539 -2.2574
   40SOL     OW  118   1.061   2.451   0.737  0.4689 -0.2614 -0.0242
   40SOL    HW1  119   1.124   2.388   0.684  3.9803 -0.3941 -0.7110
   40SOL    HW2  120   1.100   2.545   0.766 -2.9718  1.8656  3.7556
   41SOL     OW  121   2.385   2.231   1.277 -0.1128 -0.4568 -0.1308
   41SOL    HW1  122   2.383   2.317   1.220  0.0221 -1.0832  0.1320
   41SOL    HW2  123   2.481   2.204   1.294 -0.9319  1.1778  0.9235
   42SOL     OW  124   2.563   2.853   0.328  0.2060  0.2146  0.7037
   42SOL    HW1  125   2.649   2.880   0.280  2.3563 -1.4661 -1.3938
   42SOL    HW2  126   2.567   2.888   0.426  3.5479 -1.2649 -0.1341
   43SOL     OW  127   1.032   1.760   2.042  0.8933  0.8779  0.0850
   43SOL    HW1  128   1.014   1.680   1.977  3.0677 -2.3051 -0.7374
   43SOL    HW2  129   1.117   1.744   2.097 -1.6233 -1.5455  1.3537
   44SOL     OW  130   1.897   2.839   0.996  0.1426 -0.0764 -0.1142
   44SOL    HW1  131   1.918   2.874   0.905 -1.7953 -1.0803  1.3127
   44SOL    HW2  132   1.969   2.850   1.067 -0.8459 -1.7265  0.0858
   45SOL     OW  133   0.210   2.320   2.448  0.0533 -0.2364 -0.1860
   45SOL    HW1  134   0.208   2.219   2.439  0.1468 -1.6909  0.2735
   45SOL    HW2  135   0.214   2.342   2.548  0.1163  0.3885 -0.3561
   46SOL     OW  136   0.718   2.545   1.922 -0.4493 -0.0906 -0.0878
   46SOL    HW1  137   0.640   2.498   1.971 -0.5356 -2.3215 -2.6894
   46SOL    HW2  138   0.806   2.541   1.974  1.3654 -1.4856 -3.0837
   47SOL     OW  139   0.420   1.868   0.505  0.4462 -0.0410  0.7200
   47SOL    HW1  140   0.418   1.937   0.584 -3.2463 -0.4585 -0.4261
   47SOL    HW2  141   0.437   1.918   0.421  1.8635 -2.8746  0.6117
   48SOL     OW  142   0.693   2.838   1.558 -0.1635  0.6688  0.1329
   48SOL    HW1  143   0.619   2.797   1.498  0.1873 -0.8530 -1.7508
   48SOL    HW2  144   0.678   2.933   1.585  1.1479 -1.3241  1.4537
   49SOL     OW  145   0.266   2.779   0.281  0.0718  0.0838  0.1555
   49SOL    HW1  146   0.282   2.834   0.195 -0.7077  2.6247  0.4758
   49SOL    HW2  147   0.165   2.757   0.288 -1.6475  1.4441 -1.7153
   50SOL     OW  148   1.704   0.890   0.609 -0.2240  0.0454  0.0154
   50SOL    HW1  149   1.673   0.964   0.672  1.5695  0.0172 -0.8248
   50SOL    HW2  150   1.767   0.932   0.535  0.0216 -3.1621 -2.0510
   51SOL     OW  151   1.921   2.887   0.708  0.2186  0.5995  0.1277
   51SOL    HW1  152   1.904   2.788   0.695 -3.3666 -0.2874 -1.6830
   51SOL    HW2  153   1.839   2.941   0.732 -2.7289 -0.2227 -0.3552
   52SOL     OW  154   0.499   1.855   0.913  0.5608 -0.5736  0.0206
   52SOL    HW1  155   0.578   1.792   0.934  1.3636 -2.0235 -2.6139
   52SOL    HW2  156   0.449   1.878   0.999 -2.0277 -1.3864 -0.6557
   53SOL     OW  157   0.371   1.036   2.503 -0.8130 -0.3909  0.1553
   53SOL    HW1  158   0.350   1.021   2.604  1.1307 -0.4878 -0.6150
   53SOL    HW2  159   0.327   0.973   2.441 -0.0522  0.6836  1.0109
   54SOL     OW  160   2.188   1.950   2.738 -0.4096 -0.4465  0.2199
   54SOL    HW1  161   2.096   1.986   2.766  0.1339  0.8673  1.9204
   54SOL    HW2  162   2.261   1.968   2.812  4.1373  1.5938  1.2875
   55SOL     OW  163   2.645   2.233   1.350 -0.3979  0.2258 -0.3355
   55SOL    HW1  164   2.687   2.320   1.316 -1.0335  3.3779  0.5607
   55SOL    HW2  165   2.646   2.225   1.451 -2.0588 -0.9703 -0.5987
   56SOL     OW  166   1.236   1.115   1.468 -0.8684 -0.0468 -0.0950
   56SOL    HW1  167   1.246   1.201   1.521  0.4141 -1.6072  2.6722
   56SOL    HW2  168   1.316   1.104   1.408 -0.7122  0.7264 -2.2313
   57SOL     OW  169   2.109   2.178   0.827  0.0587 -0.3385 -0.0891
   57SOL    HW1  170   2.100   2.232   0.913 -2.3478  1.5010  0.5936
   57SOL    HW2  171   2.176   2.225   0.765  0.8224 -2.7655 -1.7674
   58SOL     OW  172   1.971   0.368   2.239 -0.4694  0.1896 -0.1217
   58SOL    HW1  173   1.985   0.413   2.329 -1.6023  1.1903  0.8999
   58SOL    HW2  174   1.904   0.421   2.179  1.1188  0.9311 -1.8736
   59SOL     OW  175   1.470   0.161   2.609 -0.2776 -0.1759 -0.8606
   59SOL    HW1  176   1.513   0.175   2.701  1.1983  0.4951 -0.7594
   59SOL    HW2  177   1.447   0.063   2.594  2.2315 -1.1809 -1.1452
   60SOL     OW  178   1.880   1.844   2.991 -0.0247 -0.3786 -0.1023
   60SOL    HW1  179   1.825   1.831   3.074  0.3397  0.4128 -0.4183
   60SOL    HW2  180   1.830   1.846   2.902 -1.2202  0.4809 -1.6563
   61SOL     OW  181   0.361   2.217   3.030  0.0793 -0.0986 -0.1069
   61SOL    HW1  182   0.293   2.152   3.075 -0.1338 -1.8112  0.9644
   61SOL    HW2  183   0.394   2.173   2.944  0.4179 -2.4921 -0.0161
   62SOL     OW  184   1.458   2.276   1.242 -0.2736 -0.2793 -0.8060
   62SOL    HW1  185   1.360   2.282   1.217  0.8223 -0.5118  1.2190
   62SOL    HW2  186   1.469   2.297   1.343  0.2370  0.8911  3.1273
   63SOL     OW  187   0.997   2.078   0.524  0.6103 -0.3680 -0.2656
   63SOL    HW1  188   0.914   2.017   0.534 -1.0646  2.0253  1.3427
   63SOL    HW2  189   1.084   2.022   0.539  0.5672 -1.7411 -0.9934
   64SOL     OW  190   1.892   1.729   2.494  0.0166 -0.4745  0.3015
   64SOL    HW1  191   1.861   1.636   2.466  1.4778 -2.7758  0.4819
   64SOL    HW2  192   1.869   1.803   2.425 -1.0777  0.0821 -2.1385
   65SOL     OW  193   1.861   2.004   1.338  0.0202 -0.5092  0.1329
   65SOL    HW1  194   1.913   2.083   1.295  1.1285  1.1220 -0.3954
   65SOL    HW2  195   1.858   1.927   1.274 -1.5623  0.9029  1.1722
   66SOL     OW  196   2.708   0.343   0.560  0.3167 -0.4791 -0.2894
   66SOL    HW1  197   2.805   0.313   0.575 -0.5527 -0.1420 -2.5464
   66SOL    HW2  198   2.685   0.408   0.634 -0.5947 -0.2269  0.6343
   67SOL     OW  199   2.006   2.568   1.067  0.4646 -0.5100  0.0815
   67SOL    HW1  200   1.907   2.552   1.051  2.8721 -0.1303  1.5231
   67SOL    HW2  201   2.024   2.666   1.082 -0.0246 -2.1933 -0.1679
   68SOL     OW  202   2.629   2.472   1.595 -0.3738 -0.1562  0.6290
   68SOL    HW1  203   2.549   2.484   1.533  1.5340 -0.6692  2.4631
   68SOL    HW2  204   2.649   2.555   1.650 -0.5446  1.6430  0.8858
   69SOL     OW  205   2.716   2.783   2.814  0.6798 -0.2333 -0.3089
   69SOL    HW1  206   2.718   2.867   2.760  1.8279 -0.5854 -1.1025
   69SOL    HW2  207   2.627   2.782   2.869 -0.5173  0.8777 -0.4005
   70SOL     OW  208   1.275   1.717   2.158  0.0061  0.3213  0.2338
   70SOL    HW1  209   1.333   1.687   2.077  1.0565 -0.8080  0.0047
   70SOL    HW2  210   1.335   1.778   2.215 -3.1413  1.4167 -0.4945
   71SOL     OW  211   1.087   1.897   1.817 -0.2326  0.0465 -0.1951
   71SOL    HW1  212   1.066   1.862   1.913 -2.7325 -0.3918  2.2035
   71SOL    HW2  213   1.013   1.858   1.760 -1.6068  1.9601  0.2750
   72SOL     OW  214   2.656   1.227   1.412  0.2356 -0.2478  0.3314
   72SOL    HW1  215   2.665   1.233   1.512  1.3545 -1.9859 -3.3904
   72SOL    HW2  216   2.594   1.303   1.376 -1.2061 -1.3441  2.3340
   73SOL     OW  217   0.682   2.231   2.668  0.4479  0.3944 -0.5717
   73SOL    HW1  218   0.679   2.236   2.564 -0.4579  1.0797 -1.2051
   73SOL    HW2  219   0.770   2.276   2.704 -0.3570 -1.3367  0.9233
   74SOL     OW  220   0.697   0.145   2.388 -0.3425 -0.1519  0.0772
   74SOL    HW1  221   0.719   0.046   2.407 -2.9758  2.3737 -0.8041
   74SOL    HW2  222   0.759   0.183   2.316 -0.6819 -0.0548 -0.6200
   75SOL     OW  223   0.798   3.041   0.581 -0.1107  0.5194 -0.2543
   75SOL    HW1  224   0.782   2.941   0.584 -2.7467  0.5466 -3.2199
   75SOL    HW2  225   0.866   3.069   0.652  1.7901 -0.7675  1.3126
   76SOL     OW  226   0.643   0.993   2.597  0.1220 -0.6947  0.6987
   76SOL    HW1  227   0.549   1.019   2.560 -0.1666 -0.6016 -0.1816
   76SOL    HW2  228   0.662   0.893   2.578 -1.0056 -0.5460 -0.6542
   77SOL     OW  229   0.581   2.736   0.734  0.0522  0.0241 -0.0236
   77SOL    HW1  230   0.513   2.726   0.659  0.2500  2.0995  3.3074
   77SOL    HW2  231   0.680   2.748   0.703 -0.9031 -2.7795  0.4102
   78SOL     OW  232   2.740   1.087   2.683 -0.5293 -0.5147  0.1510
   78SOL    HW1  233   2.714   1.169   2.634  2.5417  0.8432  4.4790
   78SOL    HW2  234   2.693   1.005   2.658  1.2841 -1.2938  2.1022
   79SOL     OW  235   1.083   1.344   2.513 -0.0519 -0.0880 -0.6331
   79SOL    HW1  236   1.101   1.401   2.427  1.8496 -0.8627  0.4865
   79SOL    HW2  237   0.984   1.323   2.518  3.7916 -0.1395  0.4168
   80SOL     OW  238   2.146   0.869   1.546 -0.0836 -0.4553 -0.2092
   80SOL    HW1  239   2.079   0.945   1.577 -0.6042  2.0807  1.6569
   80SOL    HW2  240   2.241   0.906   1.557 -1.8066  0.7243 -1.9991
   81SOL     OW  241   2.560   0.974   2.891  0.3935  0.1323  0.2660
   81SOL    HW1  242   2.477   0.958   2.832 -2.6182  0.2382  0.0926
   81SOL    HW2  243   2.638   1.007   2.835 -0.6454  0.4771 -1.9056
   82SOL     OW  244   2.369   2.052   1.564  0.1811  0.1238 -0.2033
   82SOL    HW1  245   2.320   2.011   1.487 -3.5709  3.1312  0.5453
   82SOL    HW2  246   2.392   1.990   1.641  1.8165  1.3509  3.5714
   83SOL     OW  247   1.841   2.910   0.217  0.3417 -0.0121  0.3178
   83SOL    HW1  248   1.769   2.952   0.281 -0.6604  0.8203  0.1544
   83SOL    HW2  249   1.798   2.878   0.129  0.2796  0.4762 -0.5461
   84SOL     OW  250   0.867   0.820   0.757 -0.1873  0.1639  0.1994
   84SOL    HW1  251   0.906   0.791   0.846 -1.4933 -1.4556 -0.1667
   84SOL    HW2  252   0.763   0.812   0.765 -1.5144 -1.8591  1.7329
   85SOL     OW  253   2.079   1.517   1.318  0.1153 -0.5262 -0.1840
   85SOL    HW1  254   2.082   1.433   1.263  1.7032  0.4515 -0.6669
   85SOL    HW2  255   2.117   1.590   1.259 -0.3545 -0.3144  0.8679
   86SOL     OW  256   0.588   0.801   1.173  0.1892  0.5193  0.1276
   86SOL    HW1  257   0.488   0.794   1.140 -1.3116  0.2026 -0.6884
   86SOL    HW2  258   0.596   0.887   1.220 -1.7606 -3.3301 -0.0479
   87SOL     OW  259   3.063   2.358   2.338  0.3619 -0.1169 -0.0951
   87SOL    HW1  260   3.094   2.374   2.244  0.5083 -1.4624  0.8358
   87SOL    HW2  261   0.037   2.357   2.396  4.3086 -1.9383  0.9170
   88SOL     OW  262   0.320   2.958   0.097 -0.5842  0.3563 -0.1269
   88SOL    HW1  263   0.382   2.927   0.020 -0.2226  0.5382 -3.8687
   88SOL    HW2  264   0.278   3.049   0.065 -1.8404  2.5061 -2.1470
   89SOL     OW  265   1.452   0.540   1.359 -0.6046  0.2003 -0.2303
   89SOL    HW1  266   1.548   0.571   1.353 -1.8037 -2.2502  3.3602
   89SOL    HW2  267   1.431   0.531   1.457 -1.0746  1.2375 -2.0153
   90SOL     OW  268   3.017   1.206   1.997 -0.0772  0.1214 -0.1422
   90SOL    HW1  269   3.004   1.307   2.000  0.0545 -0.8946  0.2402
   90SOL    HW2  270   3.073   1.190   1.914  1.7144  1.6474 -0.7647
   91SOL     OW  271   1.801   2.654   0.773 -0.0164 -0.6723  0.3239
   91SOL    HW1  272   1.854   2.571   0.750 -2.3739 -0.3160  3.4003
   91SOL    HW2  273   1.782   2.657   0.874 -0.7619  0.2044  1.4001
   92SOL     OW  274   1.959   2.016   0.657  0.3523  0.2904 -0.5809
   92SOL    HW1  275   2.001   2.087   0.722  2.4942  2.8423  2.1860
   92SOL    HW2  276   1.865   2.046   0.627  0.3378  0.0881  0.6390
   93SOL     OW  277   0.456   1.548   0.387  0.5642 -0.4682 -0.6001
   93SOL    HW1  278   0.522   1.544   0.464  2.9345  1.4808 -1.1218
   93SOL    HW2  279   0.386   1.621   0.399  0.1196  3.4441  0.8243
   94SOL     OW  280   0.732   2.387   1.016  0.0727  0.3325 -0.3189
   94SOL    HW1  281   0.815   2.337   0.988 -3.5037  0.1662  0.6820
   94SOL    HW2  282   0.684   2.349   1.100  1.4306 -1.8650  2.8463
   95SOL     OW  283   0.509   0.697   0.438  0.0493  0.8403 -0.4192
   95SOL    HW1  284   0.412   0.736   0.443 -1.9845  2.1658 -0.1101
   95SOL    HW2  285   0.571   0.764   0.397 -1.0485  0.8920  0.7534
   96SOL     OW  286   0.936   2.514   2.076 -0.2231  0.0665  0.0689
   96SOL    HW1  287   1.009   2.562   2.023  0.6787 -1.1296 -1.2879
   96SOL    HW2  288   0.953   2.413   2.074  1.9019 -1.1665 -2.7235
   97SOL     OW  289   2.331   1.013   0.426 -0.1235  0.5311 -0.0705
   97SOL    HW1  290   2.298   1.065   0.509  0.1780  2.1201  2.2903
   97SOL    HW2  291   2.409   1.057   0.382  1.4373 -1.9687  0.4878
   98SOL     OW  292   0.266   1.890   1.971 -0.2650 -0.3665 -0.6645
   98SOL    HW1  293   0.257   1.797   1.928  0.4321  2.0076 -1.0944
   98SOL    HW2  294   0.230   1.960   1.910 -0.6772 -1.2342 -0.6288
   99SOL     OW  295   0.126   0.577   2.040  0.1191  0.2754 -0.4529
   99SOL    HW1  296   0.191   0.632   1.985  0.2015  0.2823  4.7670
   99SOL    HW2  297   0.168   0.484   2.049  0.7746  1.6773 -2.6506
  100SOL     OW  298   2.266   0.795   2.565  0.2820  0.3902  0.1535
  100SOL    HW1  299   2.234   0.702   2.604  0.7534 -1.2624 -0.1022
  100SOL    HW2  300   2.304   0.848   2.641  4.6096 -0.8449  0.4661
  101SOL     OW  301   1.063   0.236   1.871 -0.0090  0.3281 -0.7848
  101SOL    HW1  302   1.057   0.137   1.877  1.3899  1.8733 -0.5001
  101SOL    HW2  303   0.972   0.266   1.835 -0.2627  0.8985 -1.5364
  102SOL     OW  304   0.426   0.658   1.620 -0.2545  0.4630  0.5867
  102SOL    HW1  305   0.395   0.713   1.540  1.1535  0.2554 -0.4148
  102SOL    HW2  306   0.382   0.687   1.707  0.8628 -0.0609 -3.7427
  103SOL     OW  307   0.440   0.777   2.958 -0.5242  0.0066  0.3026
  103SOL    HW1  308   0.438   0.715   3.040 -0.2866 -0.5900  0.3462
  103SOL    HW2  309   0.540   0.777   2.919 -1.9644 -0.5610  1.4860
  104SOL     OW  310   0.335   2.664   2.002 -0.5105 -0.6185 -0.0456
  104SOL    HW1  311   0.371   2.569   1.995 -0.2369 -0.2190  0.5587
  104SOL    HW2  312   0.237   2.666   2.035 -1.8196  1.3530  0.5845
  105SOL     OW  313   2.470   2.753   1.979  0.0465 -0.5620  0.2747
  105SOL    HW1  314   2.482   2.818   1.899  0.5739  0.8709 -0.5520
  105SOL    HW2  315   2.445   2.793   2.069 -0.4868 -0.0972  2.4907
  106SOL     OW  316   0.471   2.959   0.860  0.1067  0.4970  0.0448
  106SOL    HW1  317   0.541   3.034   0.870  1.1288  3.5263 -1.0978
  106SOL    HW2  318   0.502   2.874   0.809  0.9163 -2.7766  0.2037
  107SOL     OW  319   2.965   1.478   1.123  0.0184 -0.0722  0.1936
  107SOL    HW1  320   3.008   1.396   1.162  0.0878  0.5577  1.3658
  107SOL    HW2  321   2.906   1.522   1.199  1.2251  0.6237 -1.4033
  108SOL     OW  322   0.547   2.162   0.940  0.5817  0.0021  0.3782
  108SOL    HW1  323   0.562   2.262   0.924 -0.7484  1.7011  1.1664
  108SOL    HW2  324   0.549   2.147   1.040  1.2478  1.7043 -2.5185
  109SOL     OW  325   1.238   3.014   0.527  0.0295  0.0583  0.0378
  109SOL    HW1  326   1.251   3.008   0.627  0.2176 -2.4588 -1.9657
  109SOL    HW2  327   1.327   3.019   0.478  2.7842  0.5097 -1.7707
  110SOL     OW  328   1.644   1.802   0.449  0.0104 -0.4301 -0.2807
  110SOL    HW1  329   1.726   1.849   0.414 -1.0508 -0.9143 -0.3728
  110SOL    HW2  330   1.636   1.813   0.544 -1.4431  0.6698 -3.0701
  111SOL     OW  331   1.640   2.858   2.082  0.6009  0.1812 -0.1065
  111SOL    HW1  332   1.576   2.815   2.150  1.0007 -0.6656  1.0623
  111SOL    HW2  333   1.674   2.946   2.118 -1.2212 -0.4720  1.1409
  112SOL     OW  334   1.864   2.628   2.780 -0.2734 -0.3004  0.3434
  112SOL    HW1  335   1.940   2.601   2.713 -3.3966  1.4446 -0.3925
  112SOL    HW2  336   1.893   2.686   2.855  1.1592 -1.4384 -0.0788
  113SOL     OW  337   2.262   2.173   2.099 -0.3339 -0.0193  0.1948
  113SOL    HW1  338   2.301   2.206   2.191 -0.8068 -0.9019 -1.8273
  113SOL    HW2  339   2.276   2.229   2.020 -0.2164 -0.1399  2.2786
  114SOL     OW  340   0.100   1.183   1.816  0.2070 -1.0242 -0.4232
  114SOL    HW1  341   0.151   1.106   1.769 -0.0282 -2.4010 -1.9536
  114SOL    HW2  342   0.132   1.277   1.787 -1.1395 -0.4555 -0.7085
  115SOL     OW  343   0.117   0.599   3.085  0.2111 -0.8385 -0.0193
  115SOL    HW1  344   0.133   0.693   3.049  3.1063  3.0415  1.1305
  115SOL    HW2  345   0.133   0.596   0.077  1.0862  1.7577 -2.1400
  116SOL     OW  346   2.860   0.383   0.070 -0.3064  0.0259 -0.1074
  116SOL    HW1  347   2.917   0.406   3.098  0.7952 -1.5443 -1.3918
  116SOL    HW2  348   2.868   0.282   0.091 -1.4267  2.0785  2.1814
  117SOL     OW  349   2.847   2.826   0.727 -0.5018 -0.4701 -0.0602
  117SOL    HW1  350   2.871   2.725   0.730  1.5190 -2.4093 -2.2163
  117SOL    HW2  351   2.862   2.868   0.817 -0.5690  0.5692 -1.3884
  118SOL     OW  352   0.978   2.240   2.049 -0.4701  0.4049 -0.2472
  118SOL    HW1  353   1.076   2.267   2.047  0.0671 -2.7305 -2.2288
  118SOL    HW2  354   0.958   2.164   2.119  0.7028  1.6149  0.3576
  119SOL     OW  355   0.703   2.394   0.136  0.3000  0.3500  0.2066
  119SOL    HW1  356   0.630   2.404   0.060 -1.0129 -0.4077 -2.8804
  119SOL    HW2  357   0.694   2.468   0.207 -2.4453  3.2298  1.9600
  120SOL     OW  358   1.499   0.904   0.214  0.0911  0.2171  0.5138
  120SOL    HW1  359   1.509   0.835   0.291 -0.5047 -1.4410  0.0360
  120SOL    HW2  360   1.401   0.910   0.191  1.7177 -0.9244  0.1834
  121SOL     OW  361   1.506   1.044   1.283  0.4325 -0.4885  0.2120
  121SOL    HW1  362   1.579   0.973   1.289  0.1662  1.5927 -3.5557
  121SOL    HW2  363   1.545   1.128   1.242  1.2088  0.3009 -0.5581
  122SOL     OW  364   2.047   1.350   2.149  0.5943  0.0810 -0.3989
  122SOL    HW1  365   1.954   1.334   2.189  0.9042  1.7546  3.6925
  122SOL    HW2  366   2.108   1.287   2.200  1.5727  0.1526 -0.3647
  123SOL     OW  367   0.264   0.821   0.420  0.1300 -0.4300 -0.1029
  123SOL    HW1  368   0.284   0.919   0.399 -1.0029  0.3284  1.5213
  123SOL    HW2  369   0.232   0.812   0.515 -0.8926 -2.0331 -0.7900
  124SOL     OW  370   0.765   0.205   2.872  0.3521  0.4742  0.4433
  124SOL    HW1  371   0.742   0.282   2.813 -0.9914 -2.9709 -0.2229
  124SOL    HW2  372   0.850   0.227   2.924 -0.7084  3.0992 -2.0484
  125SOL     OW  373   0.477   2.890   2.991  0.3520  0.0882 -0.5295
  125SOL    HW1  374   0.500   2.801   2.941  2.3647 -3.5321 -0.5828
  125SOL    HW2  375   0.484   2.964   2.922  0.8507 -2.6441  1.0959
  126SOL     OW  376   0.822   1.428   2.704  0.0736 -0.2058 -0.3831
  126SOL    HW1  377   0.846   1.514   2.654 -0.3358  0.0448  0.1205
  126SOL    HW2  378   0.863   1.423   2.796  0.6378  0.4537 -0.3660
  127SOL     OW  379   1.118   2.867   0.981  0.0282 -0.1227  0.0903
  127SOL    HW1  380   1.111   2.896   1.076 -3.0766 -0.7439 -0.4340
  127SOL    HW2  381   1.174   2.936   0.933  4.1690 -0.5233 -0.9616
  128SOL     OW  382   1.771   2.200   0.164 -0.1432 -0.7549  0.0706
  128SOL    HW1  383   1.691   2.160   0.216  1.5108 -0.5710 -0.9797
  128SOL    HW2  384   1.785   2.160   0.074  0.2296  1.5167  4.0706
  129SOL     OW  385   1.841   1.615   1.340 -0.0396  0.1085 -0.3255
  129SOL    HW1  386   1.936   1.581   1.338 -1.4928 -2.2941 -2.5294
  129SOL    HW2  387   1.837   1.674   1.258  2.8818 -3.4787  3.1740
  130SOL     OW  388   2.039   1.914   1.522  0.2601 -0.0416  0.8641
  130SOL    HW1  389   1.969   1.932   1.450 -0.0521  1.4689  1.0955
  130SOL    HW2  390   2.131   1.898   1.473  1.4365 -3.4983  0.4555
  131SOL     OW  391   0.846   2.822   1.859 -0.1982  0.4310  0.3331
  131SOL    HW1  392   0.842   2.793   1.959 -3.0963  0.6862 -0.0043
  131SOL    HW2  393   0.754   2.848   1.833 -0.4004  0.1057 -3.0282
  132SOL     OW  394   2.473   1.439   0.658  0.4001  0.3645  0.1163
  132SOL    HW1  395   2.528   1.521   0.696 -0.8745  0.7373  1.4146
  132SOL    HW2  396   2.535   1.365   0.627  0.7339 -1.0382 -1.2954
  133SOL     OW  397   0.600   1.677   1.672  0.0632 -0.0093  0.1769
  133SOL    HW1  398   0.581   1.592   1.725 -0.9924  0.1353 -1.0002
  133SOL    HW2  399   0.576   1.765   1.717 -0.8738  1.7660  2.9818
  134SOL     OW  400   0.134   1.003   0.760  0.1006 -0.4243 -0.6364
  134SOL    HW1  401   0.075   1.064   0.703 -0.5686  0.3095 -0.4599
  134SOL    HW2  402   0.106   0.909   0.735 -0.2652  0.6245  0.5152
  135SOL     OW  403   2.126   1.856   3.099 -0.4896  0.0639 -0.4214
  135SOL    HW1  404   2.145   1.758   0.013 -1.4484  0.1456  0.3024
  135SOL    HW2  405   2.040   1.863   3.044  1.6108 -0.7984 -0.1149
  136SOL     OW  406   2.789   1.565   1.316 -0.3241  0.0499 -0.0634
  136SOL    HW1  407   2.762   1.493   1.387 -2.4673 -1.4920  0.1451
  136SOL    HW2  408   2.770   1.655   1.349  2.2882 -2.8514  1.6286
  137SOL     OW  409   2.763   1.318   2.862  0.0059 -0.1205 -0.1954
  137SOL    HW1  410   2.744   1.222   2.834  2.7816 -1.1416  1.5588
  137SOL    HW2  411   2.733   1.344   2.961 -1.3621  0.0581  0.5498
  138SOL     OW  412   2.901   0.394   0.958  0.2689 -0.6312  0.0149
  138SOL    HW1  413   2.869   0.303   0.986 -2.5293 -0.3159 -1.6684
  138SOL    HW2  414   2.836   0.429   0.892 -0.4436 -1.4169  1.8331
  139SOL     OW  415   1.882   2.191   2.989  0.2530 -0.1408 -0.0667
  139SOL    HW1  416   1.874   2.288   2.970  0.9333  1.0684  1.2763
  139SOL    HW2  417   1.892   2.133   2.906 -1.3690 -1.0591  0.7150
  140SOL     OW  418   0.967   1.727   0.765 -0.2503 -0.4503 -0.2547
  140SOL    HW1  419   0.871   1.760   0.743  0.8987 -1.2648 -1.1328
  140SOL    HW2  420   1.000   1.679   0.680 -1.1004  3.0278  3.6230
  141SOL     OW  421   1.363   1.646   1.101  0.8342  0.3746 -0.1885
  141SOL    HW1  422   1.310   1.646   1.017  2.0210  0.4839  2.0135
  141SOL    HW2  423   1.453   1.600   1.082  0.3724 -0.1886 -0.4131
  142SOL     OW  424   1.076   0.911   1.165 -0.2468 -0.2483 -0.3978
  142SOL    HW1  425   1.047   0.990   1.112 -1.8664 -1.9762 -2.7060
  142SOL    HW2  426   1.026   0.823   1.144  0.2122  0.5027 -3.3247
  143SOL     OW  427   0.252   0.167   2.710 -0.5829  0.0200 -0.3342
  143SOL    HW1  428   0.251   0.114   2.620  0.1705 -0.3016  1.4500
  143SOL    HW2  429   0.292   0.258   2.693  0.0278 -0.8042  0.9198
  144SOL     OW  430   2.341   0.152   0.297 -0.7328  0.2375  0.4978
  144SOL    HW1  431   2.424   0.213   0.306  0.4782 -0.4434 -3.1720
  144SOL    HW2  432   2.258   0.200   0.320  3.3085 -0.8341  0.4207
  145SOL     OW  433   1.887   3.064   2.773  1.1337 -0.1246  0.0089
  145SOL    HW1  434   1.936   0.037   2.745 -1.5112 -0.0250 -2.2848
  145SOL    HW2  435   1.957   2.984   2.784  3.6672 -5.0468 -0.0394
  146SOL     OW  436   2.884   2.669   0.303  0.1748 -0.7340  0.0515
  146SOL    HW1  437   2.844   2.754   0.260 -3.5913  1.7367  0.8344
  146SOL    HW2  438   2.857   2.581   0.267  3.3893  0.1995  2.2002
  147SOL     OW  439   1.656   1.124   0.226 -0.0033 -0.0510 -0.1268
  147SOL    HW1  440   1.586   1.049   0.213 -1.1842 -0.9751  0.1722
  147SOL    HW2  441   1.669   1.164   0.132  1.4885 -4.7810 -2.2369
  148SOL     OW  442   1.019   3.058   0.255  0.3723 -0.7235  0.2932
  148SOL    HW1  443   0.940   0.002   0.216 -2.0170 -0.4183  0.0038
  148SOL    HW2  444   1.058   3.109   0.336 -1.2924  0.6148  1.2511
  149SOL     OW  445   1.401   0.637   2.506 -0.0297 -0.2502  0.6409
  149SOL    HW1  446   1.306   0.673   2.489 -1.7301 -0.9932 -0.7424
  149SOL    HW2  447   1.392   0.551   2.559  0.1846  0.8682 -1.7050
  150SOL     OW  448   1.357   2.844   2.747 -0.1674  0.4122  0.2140
  150SOL    HW1  449   1.453   2.825   2.768  0.8337 -0.6647  0.5601
  150SOL    HW2  450   1.300   2.766   2.774  1.2094  1.8568 -0.9405
  151SOL     OW  451   0.314   1.069   2.774  0.3419 -0.0210 -0.1378
  151SOL    HW1  452   0.321   1.171   2.752  2.2192  1.1773 -2.6693
  151SOL    HW2  453   0.355   1.063   2.867  0.1099 -0.0527 -2.2645
  152SOL     OW  454   0.634   0.269   1.611  0.7254 -0.0247 -0.0496
  152SOL    HW1  455   0.548   0.315   1.607  2.9250  0.7151  1.2358
  152SOL    HW2  456   0.687   0.288   1.528  2.9452 -0.6658  0.5599
  153SOL     OW  457   2.555   3.043   1.444  0.5078  0.0238 -0.4348
  153SOL    HW1  458   2.554   0.024   1.480 -3.5951 -1.2140  1.7114
  153SOL    HW2  459   2.490   2.991   1.502 -0.6661  0.8974  0.1218
  154SOL     OW  460   2.298   0.504   1.826 -0.1224  0.1120  0.2794
  154SOL    HW1  461   2.287   0.421   1.767  1.2076 -0.4969 -1.9997
  154SOL    HW2  462   2.248   0.491   1.910  0.8359 -0.1334 -2.5721
  155SOL     OW  463   0.469   1.030   0.169 -0.3750  0.2561  0.3281
  155SOL    HW1  464   0.558   0.999   0.207 -1.9090  2.1282 -2.8290
  155SOL    HW2  465   0.414   1.068   0.242  1.1509 -1.6585 -2.7466
  156SOL     OW  466   1.890   1.286   0.264  0.1426  0.0581 -0.5760
  156SOL    HW1  467   1.966   1.218   0.274 -0.4233 -5.4599 -1.0868
  156SOL    HW2  468   1.796   1.243   0.265 -2.4707 -1.5045 -0.2304
  157SOL     OW  469   1.273   2.050   3.085  0.2684 -0.1819  0.5120
  157SOL    HW1  470   1.213   2.006   3.016  0.0983  1.1432  0.1234
  157SOL    HW2  471   1.267   2.150   3.080  1.3828 -1.4816  0.4268
  158SOL     OW  472   1.640   0.874   1.916  0.1361  0.5455 -0.0767
  158SOL    HW1  473   1.630   0.772   1.912  1.3619  1.4101 -1.2895
  158SOL    HW2  474   1.546   0.920   1.919 -4.9775  2.7509 -0.4480
  159SOL     OW  475   0.202   0.197   0.635  0.1878  0.6335  0.2403
  159SOL    HW1  476   0.191   0.107   0.686 -0.2095 -2.1207  1.2971
  159SOL    HW2  477   0.178   0.189   0.536 -1.8921 -2.0336 -2.8597
  160SOL     OW  478   2.450   1.577   1.689 -0.3179  0.0163 -0.3697
  160SOL    HW1  479   2.491   1.513   1.759  0.5165 -0.1691 -1.9356
  160SOL    HW2  480   2.351   1.590   1.720 -1.3583  1.1078  1.2673
  161SOL     OW  481   0.063   2.992   0.452  0.4887 -0.6855 -0.0654
  161SOL    HW1  482   0.044   2.899   0.420  1.2802  0.7334 -1.1853
  161SOL    HW2  483   0.162   3.018   0.443  2.0721 -1.0124  0.4640
  162SOL     OW  484   0.221   0.319   2.415  0.2112 -0.1648  0.2492
  162SOL    HW1  485   0.140   0.293   2.475 -0.5145  1.5637  0.9178
  162SOL    HW2  486   0.299   0.255   2.413  0.7616 -1.4229 -0.9330
  163SOL     OW  487   0.023   2.773   2.471 -0.3076  0.2234  0.1666
  163SOL    HW1  488   0.043   2.724   2.560 -0.1723 -0.7789  0.3392
  163SOL    HW2  489   3.036   2.787   2.467  0.8846  1.6883 -1.5189
  164SOL     OW  490   2.450   2.031   0.497 -0.0646  0.0694 -0.9070
  164SOL    HW1  491   2.481   2.059   0.399 -1.1954 -0.9197 -2.8142
  164SOL    HW2  492   2.348   2.027   0.502 -5.0391 -0.8068 -0.4965
  165SOL     OW  493   0.916   0.581   1.604  0.4324 -0.7692  0.4670
  165SOL    HW1  494   0.914   0.660   1.537  1.0558  1.2449  1.2467
  165SOL    HW2  495   0.831   0.591   1.661  1.2881 -2.9276  1.1937
  166SOL     OW  496   2.934   0.007   0.397  0.2422 -0.0457  0.0749
  166SOL    HW1  497   3.020   3.072   0.424 -1.0332  2.6576 -1.0655
  166SOL    HW2  498   2.893   0.051   0.479  2.3170  0.7717  0.7808
  167SOL     OW  499   2.119   0.508   0.905  0.2750  0.6341  0.1310
  167SOL    HW1  500   2.152   0.540   0.995 -1.0548  1.2120 -0.4756
  167SOL    HW2  501   2.047   0.437   0.932  0.1216 -1.4976  2.7236
  168SOL     OW  502   1.092   0.457   2.368 -0.2961 -0.0305  0.2037
  168SOL    HW1  503   1.179   0.413   2.345  0.6932  1.7283  2.8077
  168SOL    HW2  504   1.047   0.409   2.446 -0.6614 -0.2565  0.2479
  169SOL     OW  505   1.132   1.997   1.321  0.8387 -0.0213  0.4938
  169SOL    HW1  506   1.130   1.945   1.232 -1.0719  1.7234  3.6001
  169SOL    HW2  507   1.070   2.078   1.311 -0.3136 -5.2958  0.5751
  170SOL     OW  508   2.938   3.097   1.585  0.8381 -0.5365 -0.2065
  170SOL    HW1  509   2.979   3.007   1.575 -0.6437  2.2787  2.0244
  170SOL    HW2  510   2.962   0.043   1.501  1.0351 -0.6908 -1.5565
  171SOL     OW  511   2.596   0.519   2.285  0.0412 -0.4473 -0.0215
  171SOL    HW1  512   2.546   0.467   2.213  0.0631  0.0909  0.6764
  171SOL    HW2  513   2.531   0.585   2.327  1.6106  0.2467  1.0265
  172SOL     OW  514   1.193   3.032   1.385  0.1539  0.3050 -0.1046
  172SOL    HW1  515   1.158   3.106   1.446  2.0414  2.0092 -2.6026
  172SOL    HW2  516   1.122   2.996   1.321 -3.1342 -0.6844  1.3217
  173SOL     OW  517   2.652   2.440   2.865  0.4869 -0.1997  0.5050
  173SOL    HW1  518   2.553   2.422   2.876 -0.3424 -0.1672  0.5146
  173SOL    HW2  519   2.672   2.467   2.770 -1.9055  1.4532  1.6646
  174SOL     OW  520   1.825   0.960   0.345 -0.5131  0.2789 -0.3520
  174SOL    HW1  521   1.839   0.877   0.291  0.6131  1.7150 -0.1189
  174SOL    HW2  522   1.763   1.020   0.295  2.0495 -1.0085 -2.7505
  175SOL     OW  523   0.868   1.631   1.298  0.9942  0.2828 -0.5441
  175SOL    HW1  524   0.807   1.580   1.366  0.2600 -1.6384  1.5482
  175SOL    HW2  525   0.922   1.705   1.343 -0.3165  0.6152  0.1584
  176SOL     OW  526   0.221   3.059   0.774 -0.7004 -0.2488  0.3878
  176SOL    HW1  527   0.311   3.024   0.811 -0.0585 -0.1074 -0.8265
  176SOL    HW2  528   0.150   2.984   0.772 -0.3530 -1.1425  0.6627
  177SOL     OW  529   2.689   1.385   0.225  0.3206  0.0913 -0.1189
  177SOL    HW1  530   2.784   1.401   0.193 -1.8156  1.3961  1.4505
  177SOL    HW2  531   2.642   1.472   0.252 -3.0255  0.7074  1.1756
  178SOL     OW  532   2.715   2.635   2.182  0.5577  0.0600 -0.0066
  178SOL    HW1  533   2.769   2.655   2.098  0.8524  0.0642  1.8324
  178SOL    HW2  534   2.770   2.614   2.270  1.2517 -1.5312  0.6164
  179SOL     OW  535   2.338   3.005   0.274  0.2394 -0.1485  0.5043
  179SOL    HW1  536   2.428   2.962   0.293  0.7683  1.3203  3.8265
  179SOL    HW2  537   2.343   3.111   0.279 -2.0783 -0.7235 -0.4764
  180SOL     OW  538   2.159   0.434   0.621 -0.0122 -0.2762  0.1952
  180SOL    HW1  539   2.143   0.454   0.717 -0.3420 -0.3050 -1.1306
  180SOL    HW2  540   2.080   0.451   0.567  2.0444 -0.9777  1.7947
  181SOL     OW  541   2.814   0.321   2.652  0.1104 -0.2797 -0.2424
  181SOL    HW1  542   2.871   0.243   2.688 -0.2598 -1.6627  3.6054
  181SOL    HW2  543   2.779   0.303   2.557  0.2083 -1.5895 -0.7985
  182SOL     OW  544   2.760   1.950   2.459  0.4003 -0.3814 -0.1182
  182SOL    HW1  545   2.665   1.919   2.441  0.4680  0.1428  0.2262
  182SOL    HW2  546   2.778   2.040   2.411 -0.5310  2.0400  1.1718
  183SOL     OW  547   0.257   1.037   1.635  0.2909 -0.0913  0.5308
  183SOL    HW1  548   0.238   1.093   1.550 -0.8580  1.3679 -1.1174
  183SOL    HW2  549   0.356   1.023   1.653  3.4190 -1.4560  2.0128
  184SOL     OW  550   0.319   1.236   1.160  0.1846 -0.2398  0.3784
  184SOL    HW1  551   0.244   1.214   1.095 -1.0039  0.9288  1.4547
  184SOL    HW2  552   0.409   1.222   1.116  0.0707 -2.0131 -1.4305
  185SOL     OW  553   3.008   2.571   1.310  0.1324  0.6717 -0.2361
  185SOL    HW1  554   3.048   2.564   1.215 -1.7064  0.5642 -1.2555
  185SOL    HW2  555   2.984   2.668   1.335 -2.5317 -1.1968 -1.4517
  186SOL     OW  556   1.613   2.636   2.691 -0.0602  0.1296  0.2726
  186SOL    HW1  557   1.712   2.630   2.721  0.5374 -1.2857  1.2331
  186SOL    HW2  558   1.542   2.590   2.745  0.0247  2.3860 -2.4973
  187SOL     OW  559   0.228   1.303   0.519  0.3746  0.0667 -0.1170
  187SOL    HW1  560   0.150   1.257   0.563  0.9781 -1.9357 -0.5312
  187SOL    HW2  561   0.300   1.336   0.585 -2.0407 -3.3862 -0.7154
  188SOL     OW  562   1.867   1.903   0.252  0.2141 -0.3868  0.2466
  188SOL    HW1  563   1.959   1.870   0.265  0.6184 -0.5384 -0.3828
  188SOL    HW2  564   1.871   1.986   0.192 -0.2595  0.7412  0.5212
  189SOL     OW  565   0.001   1.697   2.943  0.0471 -0.2194  0.2468
  189SOL    HW1  566   3.103   1.718   3.041  0.2930 -2.9039  0.3334
  189SOL    HW2  567   0.082   1.644   2.925 -2.7989  2.0001  2.7530
  190SOL     OW  568   2.470   0.803   2.125 -0.0713 -0.4635 -0.6214
  190SOL    HW1  569   2.451   0.905   2.133 -0.1102 -0.5894  0.4730
  190SOL    HW2  570   2.465   0.758   2.216  0.6789 -1.6125 -0.0227
  191SOL     OW  571   0.656   1.222   2.298  0.0648 -0.0449 -0.1101
  191SOL    HW1  572   0.555   1.249   2.311 -3.3388  0.6003  0.5885
  191SOL    HW2  573   0.705   1.223   2.384 -1.5194  0.1556 -1.4640
  192SOL     OW  574   2.043   1.273   1.906  0.1270 -0.0534 -0.2079
  192SOL    HW1  575   2.040   1.324   1.997 -0.6639  2.5313  0.7199
  192SOL    HW2  576   2.130   1.275   1.862 -1.7361  0.4868  1.7306
  193SOL     OW  577   0.673   0.057   0.858 -0.2840 -0.2055 -0.0531
  193SOL    HW1  578   0.626   0.143   0.847 -0.1982  0.8602 -0.0152
  193SOL    HW2  579   0.733   0.038   0.775  0.5288 -2.7048  0.2619
  194SOL     OW  580   1.595   1.523   1.287 -0.2702  0.4036 -0.1732
  194SOL    HW1  581   1.680   1.564   1.327  1.0941 -0.0313  0.8698
  194SOL    HW2  582   1.590   1.552   1.191  1.5960  0.1010  2.0678
  195SOL     OW  583   1.894   0.331   0.938 -0.0568 -0.3328 -0.5785
  195SOL    HW1  584   1.905   0.232   0.914 -2.2763  1.6047 -1.2223
  195SOL    HW2  585   1.827   0.365   0.872  1.2509 -0.1945 -1.4035
  196SOL     OW  586   1.250   1.549   1.813 -0.5984 -0.0476 -0.4064
  196SOL    HW1  587   1.309   1.601   1.877  0.0769  0.4919  1.3253
  196SOL    HW2  588   1.152   1.573   1.827 -3.0609  1.2806  2.0274
  197SOL     OW  589   0.126   2.940   2.718  0.1181 -0.0516 -0.8425
  197SOL    HW1  590   0.100   2.933   2.816 -2.9517  2.4362  1.2728
  197SOL    HW2  591   0.157   2.853   2.686 -2.0391 -0.9193  1.4616
  198SOL     OW  592   0.092   0.752   0.654 -0.1723 -0.3505  0.3551
  198SOL    HW1  593   0.152   0.666   0.660  2.1925  1.6027 -0.7419
  198SOL    HW2  594   0.023   0.735   0.582  3.0588 -1.5430  0.1969
  199SOL     OW  595   0.353   1.924   1.132 -0.3381 -0.1609 -0.6619
  199SOL    HW1  596   0.293   2.007   1.113  0.3295  0.1818 -2.5120
  199SOL    HW2  597   0.376   1.920   1.230 -2.0430 -1.1620 -0.8039
  200SOL     OW  598   2.586   1.871   0.074  0.8045  0.4645 -0.2016
  200SOL    HW1  599   2.590   1.954   0.015  1.2973 -0.2877  1.7163
  200SOL    HW2  600   2.634   1.792   0.032  2.1532  0.7019 -2.3575
  201SOL     OW  601   1.055   2.581   1.475  0.0431  0.2706 -0.1139
  201SOL    HW1  602   1.098   2.593   1.380  1.9171  0.2910  0.1565
  201SOL    HW2  603   1.100   2.501   1.523 -1.0908 -1.3177  2.3229
  202SOL     OW  604   1.031   2.590   0.227 -0.3890 -0.3123  0.4966
  202SOL    HW1  605   0.934   2.585   0.255  0.7751  0.8837 -0.7905
  202SOL    HW2  606   1.058   2.683   0.201  1.3637 -1.1251  1.3900
  203SOL     OW  607   1.310   0.057   3.036 -0.4320  0.2924  0.0252
  203SOL    HW1  608   1.376   0.112   2.974  2.4601  0.0409 -2.9233
  203SOL    HW2  609   1.246   3.112   2.976 -0.6502 -1.8156 -1.4076
  204SOL     OW  610   0.492   1.626   1.302  0.0987 -0.1979  0.1596
  204SOL    HW1  611   0.407   1.571   1.296 -0.0591  0.8938 -0.4392
  204SOL    HW2  612   0.569   1.573   1.341 -0.7668 -0.7845  0.2235
  205SOL     OW  613   1.791   1.257   2.239  0.2010  0.0322  0.2355
  205SOL    HW1  614   1.809   1.160   2.264 -4.6838 -1.5813  2.0835
  205SOL    HW2  615   1.720   1.260   2.161 -0.2365  2.4861  0.0387
  206SOL     OW  616   0.121   2.115   0.029 -0.1691  0.1043 -0.1277
  206SOL    HW1  617   0.140   2.059   3.057 -0.9342 -0.2049  1.3876
  206SOL    HW2  618   0.021   2.111   0.043  3.1641 -0.0489  0.2010
  207SOL     OW  619   0.384   1.974   2.205  0.2646  0.1796 -0.1218
  207SOL    HW1  620   0.478   2.000   2.177  0.9273  2.1189 -0.4058
  207SOL    HW2  621   0.338   1.934   2.124  2.1733 -0.9296 -1.0614
  208SOL     OW  622   0.200   2.403   1.196  0.5646 -0.5161  0.1164
  208SOL    HW1  623   0.289   2.441   1.157  1.3110 -0.9288 -0.6069
  208SOL    HW2  624   0.119   2.440   1.140  0.7295  2.1286  2.4268
  209SOL     OW  625   1.064   2.822   2.178 -0.1870 -0.0303 -0.3499
  209SOL    HW1  626   0.980   2.771   2.193  0.9562  3.6987 -1.2855
  209SOL    HW2  627   1.031   2.916   2.162  0.1286 -2.3688  0.8437
  210SOL     OW  628   2.729   1.229   1.805 -0.3980 -0.1809  0.2050
  210SOL    HW1  629   2.825   1.227   1.770  0.7016  0.2944 -2.0694
  210SOL    HW2  630   2.678   1.150   1.777 -0.4890  2.2242  2.5095
  211SOL     OW  631   0.973   3.053   2.017  0.5394 -0.3214 -0.5492
  211SOL    HW1  632   0.981   2.990   1.935 -0.9344  0.1687 -1.5471
  211SOL    HW2  633   0.879   3.083   2.027  0.0366 -0.2748 -0.5375
  212SOL     OW  634   1.942   2.762   2.014  0.1807 -0.0996  0.2484
  212SOL    HW1  635   1.840   2.787   2.030 -0.2355  0.6067  1.9944
  212SOL    HW2  636   1.959   2.668   2.047 -2.2044  1.5793 -1.8683
  213SOL     OW  637   2.811   0.236   1.898 -0.3083 -0.2513  0.0365
  213SOL    HW1  638   2.832   0.307   1.832 -1.0224  0.3619 -0.0831
  213SOL    HW2  639   2.885   0.227   1.971  2.6819 -0.1213  3.2308
  214SOL     OW  640   0.961   2.263   0.882 -0.0556 -0.1242 -0.5759
  214SOL    HW1  641   1.045   2.223   0.924  0.2294 -0.4757 -1.3025
  214SOL    HW2  642   0.982   2.332   0.815 -2.3174 -4.0431  0.1827
  215SOL     OW  643   2.615   1.960   0.714 -0.3014 -0.1767 -0.1338
  215SOL    HW1  644   2.710   1.992   0.688  3.8111 -0.8094 -0.7691
  215SOL    HW2  645   2.549   1.988   0.639 -0.4958  0.1131 -2.8354
  216SOL     OW  646   2.903   0.816   1.712  0.2845  0.1858  0.0654
  216SOL    HW1  647   2.944   0.851   1.630 -1.6188 -2.1545 -0.2032
  216SOL    HW2  648   2.958   0.739   1.751  0.8997  1.1725 -0.1204
  217SOL     OW  649   2.425   0.177   1.451 -0.0195  0.1014  0.0124
  217SOL    HW1  650   2.334   0.162   1.398 -0.6932 -0.0005 -0.2336
  217SOL    HW2  651   2.475   0.247   1.405  0.3971  0.3893 -0.1328
  218SOL     OW  652   1.816   2.606   1.451 -0.1552 -0.0362 -0.1386
  218SOL    HW1  653   1.732   2.652   1.412  0.1377  0.0010 -0.3601
  218SOL    HW2  654   1.846   2.642   1.540  0.5385 -3.6287 -3.7338
  219SOL     OW  655   2.247   2.726   0.053 -0.1341  0.1145 -0.9989
  219SOL    HW1  656   2.198   2.648   0.010  0.9826  0.4385 -0.2826
  219SOL    HW2  657   2.305   2.700   0.133 -1.0577  1.6194 -1.2604
  220SOL     OW  658   1.410   3.047   0.318  0.1350 -0.4472 -0.1297
  220SOL    HW1  659   1.403   0.035   0.303 -1.3655 -0.7968 -1.3867
  220SOL    HW2  660   1.415   3.003   0.225  1.2884  2.8993  0.3746
  221SOL     OW  661   2.988   1.963   1.494 -0.0320  0.1015  0.2519
  221SOL    HW1  662   3.025   2.057   1.510 -2.5837 -2.0831  2.3072
  221SOL    HW2  663   2.900   1.945   1.546 -2.3459 -3.5110 -2.6730
  222SOL     OW  664   1.742   2.522   1.031 -0.3127  0.3966  0.3393
  222SOL    HW1  665   1.683   2.588   1.080 -0.1639  0.7358  1.2236
  222SOL    HW2  666   1.687   2.437   1.007 -2.4284 -1.0283 -0.1833
  223SOL     OW  667   1.381   0.196   1.306 -0.3670  0.0023  0.3616
  223SOL    HW1  668   1.326   0.228   1.388 -1.2000  0.0849  3.0164
  223SOL    HW2  669   1.446   0.130   1.341  0.9773  0.0491  0.8701
  224SOL     OW  670   3.111   2.436   1.535 -1.1635 -0.7546  0.5122
  224SOL    HW1  671   3.101   2.475   1.443  1.4433  0.1244 -2.1173
  224SOL    HW2  672   3.019   2.412   1.568  1.2065 -2.7636 -3.5176
  225SOL     OW  673   2.347   2.015   1.115  0.0706  0.4695  0.3472
  225SOL    HW1  674   2.356   2.102   1.167  1.9081 -2.1384  1.3802
  225SOL    HW2  675   2.367   2.040   1.016  0.0065  0.9665 -2.5206
  226SOL     OW  676   1.516   2.166   0.320  0.0850  0.1866  0.0939
  226SOL    HW1  677   1.484   2.087   0.378 -1.1959  1.1959 -1.0129
  226SOL    HW2  678   1.466   2.249   0.345  1.1743  0.4862 -4.9980
  227SOL     OW  679   2.052   0.987   0.792 -0.3244  0.2097  0.0758
  227SOL    HW1  680   2.003   1.036   0.868  1.2863 -0.8208  0.5114
  227SOL    HW2  681   2.028   0.882   0.794 -0.4239 -0.0852  1.3358
  228SOL     OW  682   1.461   0.801   0.473 -0.3134  0.1850  0.4959
  228SOL    HW1  683   1.465   0.702   0.454 -0.4810 -0.4064 -0.5689
  228SOL    HW2  684   1.539   0.841   0.524  1.2993  1.0821 -2.1009
  229SOL     OW  685   2.782   0.931   2.143  0.5076  0.3827 -0.2441
  229SOL    HW1  686   2.736   0.877   2.069  0.3070 -1.8836  2.0312
  229SOL    HW2  687   2.820   1.020   2.128  1.4221  0.8963 -0.5440
  230SOL     OW  688   0.555   1.189   1.009  0.0735  0.0123  0.2077
  230SOL    HW1  689   0.630   1.178   1.079  0.0698  0.3922  0.1959
  230SOL    HW2  690   0.599   1.221   0.921  2.9032  1.5845  1.6162
  231SOL     OW  691   2.235   0.543   2.741  0.0954 -0.1479 -0.1109
  231SOL    HW1  692   2.175   0.499   2.814  0.3100 -3.4133  1.8671
  231SOL    HW2  693   2.331   0.561   2.770 -2.0484  0.6189 -0.4017
  232SOL     OW  694   2.937   1.786   1.027  0.4310 -0.1163  0.5532
  232SOL    HW1  695   2.942   1.685   1.033  1.7661  0.1554 -1.2149
  232SOL    HW2  696   2.957   1.835   1.113 -0.1621  0.4628  2.0049
  233SOL     OW  697   1.668   2.894   2.634 -0.1815 -0.2446  0.3463
  233SOL    HW1  698   1.736   2.944   2.692  0.5092  1.6222 -1.0686
  233SOL    HW2  699   1.658   2.795   2.660 -0.4411  2.0873 -0.8764
  234SOL     OW  700   1.487   2.549   1.142  0.2908  0.1648 -0.6915
  234SOL    HW1  701   1.513   2.609   1.220  1.2809  1.8340  2.7296
  234SOL    HW2  702   1.500   2.452   1.167  2.8897  0.5762 -0.9331
  235SOL     OW  703   0.870   1.739   1.677  0.4555 -0.4385 -0.5738
  235SOL    HW1  704   0.768   1.750   1.666 -0.6383 -1.7823 -0.9159
  235SOL    HW2  705   0.926   1.756   1.597  2.6621 -1.4081  1.4017
  236SOL     OW  706   0.657   2.645   2.898 -0.6121 -0.0076  0.2738
  236SOL    HW1  707   0.743   2.597   2.911  0.0329  1.3858 -1.0285
  236SOL    HW2  708   0.575   2.596   2.928 -1.1505  0.7431 -0.7019
  237SOL     OW  709   0.687   3.088   1.648 -0.3087  0.0212  0.1981
  237SOL    HW1  710   0.651   3.051   1.738  1.4947  1.1058 -0.1213
  237SOL    HW2  711   0.676   0.079   1.660 -0.2266  1.1695 -0.6820
  238SOL     OW  712   0.922   0.860   0.481 -0.2840 -0.5277 -0.0181
  238SOL    HW1  713   0.928   0.779   0.418 -1.9070 -1.5930 -1.7378
  238SOL    HW2  714   0.885   0.844   0.576 -2.3827  0.4841 -0.2645
  239SOL     OW  715   2.641   0.718   2.992  0.5099 -0.8679 -0.1372
  239SOL    HW1  716   2.631   0.812   2.953 -1.9051  0.5877 -0.1728
  239SOL    HW2  717   2.740   0.703   3.023  3.5906  2.0817 -0.4774
  240SOL     OW  718   2.680   2.220   0.987  0.3637  0.3449 -0.4982
  240SOL    HW1  719   2.735   2.134   0.967 -0.0945 -0.6874 -1.2140
  240SOL    HW2  720   2.580   2.203   0.966 -1.5555  0.9050 -1.3499
  241SOL     OW  721   1.202   1.675   0.891  0.1475  0.2498  0.0999
  241SOL    HW1  722   1.266   1.639   0.822  0.2541  1.7670 -0.1215
  241SOL    HW2  723   1.109   1.682   0.847  1.1182 -0.2067  1.4354
  242SOL     OW  724   0.768   0.407   0.970  0.2826 -0.1116 -0.0428
  242SOL    HW1  725   0.715   0.491   0.958 -1.0259  1.4292 -2.6549
  242SOL    HW2  726   0.750   0.351   0.891  0.2610 -1.8497  1.5576
  243SOL     OW  727   0.268   0.560   1.254 -0.0564 -0.3411  0.1768
  243SOL    HW1  728   0.211   0.575   1.171 -2.4076 -1.5137 -2.0309
  243SOL    HW2  729   0.354   0.502   1.239  2.1960 -1.7620 -1.7619
  244SOL     OW  730   0.595   0.032   0.402  0.0509 -0.1952  0.5169
  244SOL    HW1  731   0.555   3.053   0.383  0.7631 -1.2633  1.5174
  244SOL    HW2  732   0.660   0.020   0.481 -1.7602  3.6831 -0.5936
  245SOL     OW  733   2.113   1.133   0.308 -0.4258  0.4113  0.1539
  245SOL    HW1  734   2.147   1.086   0.392  0.7157 -1.7632  1.6921
  245SOL    HW2  735   2.190   1.188   0.270  0.5894 -0.9712 -0.3801
  246SOL     OW  736   0.302   0.034   1.717  0.0544 -0.5581 -0.4787
  246SOL    HW1  737   0.288   3.061   1.764  0.9226  3.4488 -0.7226
  246SOL    HW2  738   0.293   0.014   1.616 -2.2171 -0.2910 -0.0715
  247SOL     OW  739   0.813   0.314   1.802  0.1697  0.0495  0.2044
  247SOL    HW1  740   0.794   0.407   1.841  0.6235 -0.6496  0.0711
  247SOL    HW2  741   0.740   0.305   1.730  0.7729 -1.2105 -1.3961
  248SOL     OW  742   0.441   1.672   2.162  0.3532  0.6621 -0.2306
  248SOL    HW1  743   0.527   1.632   2.203 -1.8802  0.6967  0.8810
  248SOL    HW2  744   0.433   1.776   2.176  0.1487  2.8801 -1.8785
  249SOL     OW  745   1.018   2.265   0.305 -0.3539 -0.0214  0.4442
  249SOL    HW1  746   1.021   2.231   0.401 -0.4101  0.7062 -1.5226
  249SOL    HW2  747   0.967   2.353   0.293  0.0838  0.8384 -0.2855
  250SOL     OW  748   0.599   3.047   2.129  0.1601 -0.3010 -0.3926
  250SOL    HW1  749   0.512   3.061   2.180  0.1217  1.6007 -1.0542
  250SOL    HW2  750   0.632   0.017   2.087  0.5824 -0.2208  2.0126
  251SOL     OW  751   2.741   1.953   1.635  0.0601  0.6957  0.1777
  251SOL    HW1  752   2.762   1.940   1.732  0.0058  0.1956 -3.1508
  251SOL    HW2  753   2.680   2.032   1.613  3.0870 -0.7416 -1.0139
  252SOL     OW  754   1.277   0.319   2.022  0.1551 -0.3856 -0.2630
  252SOL    HW1  755   1.260   0.298   2.121 -0.8870  0.8966  0.3595
  252SOL    HW2  756   1.205   0.281   1.964 -1.2251  3.5305 -0.1182
  253SOL     OW  757   2.514   1.836   2.399 -0.6113  0.4788 -0.4790
  253SOL    HW1  758   2.523   1.822   2.298  2.4641 -0.4746  0.4921
  253SOL    HW2  759   2.426   1.882   2.418  0.9766 -1.8094  0.2760
  254SOL     OW  760   0.869   1.476   0.885  0.1111 -0.1971 -0.1301
  254SOL    HW1  761   0.934   1.483   0.962 -0.0934 -0.7476 -0.0520
  254SOL    HW2  762   0.884   1.557   0.828  1.0477 -2.4609 -0.0905
  255SOL     OW  763   3.030   2.546   1.861  0.1805 -0.2662  0.1149
  255SOL    HW1  764   2.957   2.503   1.803 -0.4709 -0.1021 -0.6577
  255SOL    HW2  765   0.009   2.552   1.815 -1.5931  0.9275  1.3790
  256SOL     OW  766   0.446   2.768   0.467 -0.7510 -0.0207  0.5009
  256SOL    HW1  767   0.539   2.795   0.425  0.9843  0.1874 -1.3907
  256SOL    HW2  768   0.367   2.783   0.405  0.1101  1.8322 -0.3838
  257SOL     OW  769   1.114   2.457   2.466  0.4042 -0.2765 -0.2439
  257SOL    HW1  770   1.119   2.557   2.486 -1.8195 -1.1067 -1.3436
  257SOL    HW2  771   1.193   2.426   2.409 -0.0574 -1.3155  0.9810
  258SOL     OW  772   1.652   2.277   2.106  0.2086 -0.4722 -0.1008
  258SOL    HW1  773   1.614   2.185   2.086 -2.6512  2.6067  0.1654
  258SOL    HW2  774   1.733   2.298   2.045 -2.2172 -1.1041  1.3746
  259SOL     OW  775   0.652   0.595   2.312 -0.3369  0.1844 -0.0233
  259SOL    HW1  776   0.558   0.553   2.302 -0.7479 -0.2945  1.1404
  259SOL    HW2  777   0.672   0.670   2.249 -0.8883 -1.7428  3.0347
  260SOL     OW  778   2.902   0.769   3.075  0.3362  0.2244  0.7915
  260SOL    HW1  779   2.927   0.772   0.062  2.1713 -1.0304 -0.0575
  260SOL    HW2  780   2.979   0.779   3.011 -0.9615  0.0324 -0.1138
  261SOL     OW  781   1.040   1.251   0.858 -0.7597  0.3169 -0.3346
  261SOL    HW1  782   1.134   1.278   0.895 -0.6707  0.8028 -0.4592
  261SOL    HW2  783   0.972   1.323   0.850 -0.2072  1.6261  0.6986
  262SOL     OW  784   1.941   2.491   2.529 -0.1404 -0.3030  0.6847
  262SOL    HW1  785   1.929   2.515   2.428 -3.5633  0.0537 -1.6739
  262SOL    HW2  786   2.018   2.543   2.570  2.1765  0.8289  0.4061
  263SOL     OW  787   0.838   2.856   0.975 -0.2542 -0.0975  0.1322
  263SOL    HW1  788   0.943   2.840   0.988  1.6838  0.7519  1.1746
  263SOL    HW2  789   0.826   2.953   1.008  2.5793 -2.6353  0.5655
  264SOL     OW  790   2.857   2.005   0.625  0.2242  0.4019 -0.0608
  264SOL    HW1  791   2.871   1.925   0.562 -3.1278 -3.1822 -0.7006
  264SOL    HW2  792   2.931   2.073   0.613 -2.0930 -0.8523 -0.2980
  265SOL     OW  793   1.985   1.283   2.680 -0.0474 -0.0392  0.0492
  265SOL    HW1  794   2.070   1.232   2.653  3.4719 -0.9289 -0.9255
  265SOL    HW2  795   1.996   1.387   2.688  0.2812  1.0009  1.3948
  266SOL     OW  796   1.568   2.001   2.119  0.3214  0.2715 -0.1233
  266SOL    HW1  797   1.654   1.957   2.149 -2.3323 -1.3953  0.5173
  266SOL    HW2  798   1.503   1.986   2.197  0.1679 -1.1383  1.1901
  267SOL     OW  799   2.385   0.656   2.358 -0.1687  0.0968  0.6615
  267SOL    HW1  800   2.343   0.734   2.414  0.2472 -0.0577  0.2389
  267SOL    HW2  801   2.359   0.570   2.405  2.1818  1.5933  0.7766
  268SOL     OW  802   1.072   1.192   2.966  0.3039 -0.0378  0.1283
  268SOL    HW1  803   1.038   1.286   2.943 -0.1334 -0.4167 -3.4160
  268SOL    HW2  804   1.043   1.130   2.892 -1.1570  3.2698 -2.2485
  269SOL     OW  805   3.041   1.983   2.192  0.1462  0.2347 -0.2754
  269SOL    HW1  806   3.100   1.950   2.266  1.2655  0.8709 -1.8129
  269SOL    HW2  807   2.994   1.910   2.141 -0.1839 -0.8292 -2.2164
  270SOL     OW  808   0.001   1.754   0.093 -0.5421  0.5218  0.1457
  270SOL    HW1  809   0.001   1.804   0.179  0.4371  0.5198  0.5914
  270SOL    HW2  810   0.013   1.655   0.114 -3.0468  1.8421 -1.3393
  271SOL     OW  811   0.420   0.222   0.268 -0.1563  0.6449 -0.0035
  271SOL    HW1  812   0.478   0.140   0.296 -0.0536 -0.9434  0.4083
  271SOL    HW2  813   0.465   0.309   0.297  3.1169  0.9432  0.5455
  272SOL     OW  814   0.019   2.703   0.400 -0.2151 -0.5176 -0.5479
  272SOL    HW1  815   0.037   2.649   0.482 -0.3884  1.9624 -0.4442
  272SOL    HW2  816   3.041   2.682   0.357  0.0758 -1.1072  1.6314
  273SOL     OW  817   3.038   2.940   2.095 -0.1340 -0.3406  0.2269
  273SOL    HW1  818   0.000   2.892   2.143 -0.9938  0.9114  1.4202
  273SOL    HW2  819   2.984   2.876   2.042  1.6669 -1.4044  2.2972
  274SOL     OW  820   0.388   0.385   1.558 -0.2939 -0.2516  0.1503
  274SOL    HW1  821   0.303   0.344   1.524  2.5437 -0.8220  2.5914
  274SOL    HW2  822   0.394   0.486   1.551 -0.3290 -2.9871  0.6489
  275SOL     OW  823   1.102   1.878   1.060 -0.3203 -0.1246 -0.0909
  275SOL    HW1  824   1.003   1.890   1.066  1.2711 -0.6006  1.3079
  275SOL    HW2  825   1.130   1.792   1.016  0.2462 -0.4627  0.2015
  276SOL     OW  826   0.278   1.598   1.943  0.1672  0.2635  0.1117
  276SOL    HW1  827   0.332   1.670   1.991 -0.7197 -0.9770  1.5239
  276SOL    HW2  828   0.296   1.513   1.993 -2.1648 -0.8137  0.5668
  277SOL     OW  829   1.239   2.284   2.061  0.3689 -0.1069  0.4995
  277SOL    HW1  830   1.243   2.364   1.995 -0.8312  0.1402  1.5908
  277SOL    HW2  831   1.255   2.324   2.158  1.4772  0.5278  0.6374
  278SOL     OW  832   1.926   0.062   2.321 -0.4961  0.0582  0.0525
  278SOL    HW1  833   1.848   0.040   2.256 -1.8376  1.9262  1.6263
  278SOL    HW2  834   1.963   0.154   2.299  0.1877  0.2684 -3.2280
  279SOL     OW  835   1.423   1.561   3.105 -0.4097  0.0330 -0.1090
  279SOL    HW1  836   1.474   1.502   0.060  0.0403 -0.7362  2.1255
  279SOL    HW2  837   1.476   1.571   3.014 -0.4351  0.0231 -2.3677
  280SOL     OW  838   1.274   0.652   0.909  0.4321  0.5379  0.0563
  280SOL    HW1  839   1.271   0.750   0.891  3.5931  0.2729  1.0195
  280SOL    HW2  840   1.183   0.610   0.918 -0.1205  1.6569 -0.6689
  281SOL     OW  841   3.078   0.483   2.258 -0.0251  0.0741  0.1756
  281SOL    HW1  842   0.014   0.535   2.184  0.4696  0.2114  1.1434
  281SOL    HW2  843   0.032   0.423   2.302  0.6359 -0.9465 -0.1333
  282SOL     OW  844   0.236   2.709   0.655 -0.1854  0.2722 -0.2614
  282SOL    HW1  845   0.229   2.608   0.647  1.1675  2.7397  0.3212
  282SOL    HW2  846   0.292   2.749   0.583 -2.3135 -1.5760  0.9540
  283SOL     OW  847   1.192   2.388   1.621 -0.4694 -0.0882  0.2109
  283SOL    HW1  848   1.225   2.434   1.705  2.5279 -2.1948  0.4788
  283SOL    HW2  849   1.254   2.310   1.587  0.8349 -2.2326 -1.6995
  284SOL     OW  850   2.007   2.838   1.447 -0.2543 -0.2809  0.1664
  284SOL    HW1  851   2.081   2.775   1.422 -1.6083  0.0345 -1.3605
  284SOL    HW2  852   1.930   2.813   1.393  0.4667  0.1888  3.0135
  285SOL     OW  853   0.837   1.850   1.070 -0.6206 -0.7549  0.1079
  285SOL    HW1  854   0.829   1.918   0.992 -3.0189  1.7360 -0.1567
  285SOL    HW2  855   0.772   1.771   1.075 -1.0859 -0.7149  0.3841
  286SOL     OW  856   2.897   2.741   1.992  0.6421  0.3426  0.3167
  286SOL    HW1  857   2.832   2.764   1.922  2.5432  1.1864  2.3515
  286SOL    HW2  858   2.956   2.661   1.960 -2.2590  0.3747  2.4231
  287SOL     OW  859   0.701   1.295   0.798 -0.1672  0.1476 -0.1049
  287SOL    HW1  860   0.774   1.361   0.829  2.4839 -1.3924 -0.2627
  287SOL    HW2  861   0.737   1.262   0.705 -1.1668 -2.3820 -1.5673
  288SOL     OW  862   1.365   2.156   2.702  0.0450 -0.0744 -0.4341
  288SOL    HW1  863   1.294   2.227   2.708  2.4640  2.2083  2.2162
  288SOL    HW2  864   1.331   2.065   2.730  0.0894  1.6775  1.3075
  289SOL     OW  865   2.328   1.268   2.663 -0.5617  0.2199 -0.1474
  289SOL    HW1  866   2.352   1.329   2.745 -1.7631 -1.8277  1.4678
  289SOL    HW2  867   2.295   1.325   2.582 -0.7408 -1.0374 -1.2745
  290SOL     OW  868   1.909   1.757   0.595 -0.0320  0.0660  0.2887
  290SOL    HW1  869   1.934   1.722   0.506 -1.5904  1.0474  1.4322
  290SOL    HW2  870   1.951   1.848   0.619  2.4433  0.8592 -1.2959
  291SOL     OW  871   1.189   0.749   3.004 -0.0013  0.3724 -0.1781
  291SOL    HW1  872   1.229   0.793   2.922 -0.6203  1.1169 -2.4547
  291SOL    HW2  873   1.270   0.709   3.056  0.6781  0.0908  2.7422
  292SOL     OW  874   2.062   1.596   0.823 -0.1707  0.0848  0.3810
  292SOL    HW1  875   2.001   1.548   0.758  0.8175 -0.0886  1.8027
  292SOL    HW2  876   2.137   1.638   0.768  0.5992 -1.2754 -0.2075
  293SOL     OW  877   1.693   0.070   1.065  0.3153 -0.2193  0.9163
  293SOL    HW1  878   1.766   0.053   1.137 -0.8995 -2.0675 -2.8811
  293SOL    HW2  879   1.637   0.150   1.073  3.3786 -1.4712  1.5540
  294SOL     OW  880   2.526   1.152   0.291 -0.3108  0.0272 -0.1233
  294SOL    HW1  881   2.519   1.093   0.207  1.0648  1.1650  0.0458
  294SOL    HW2  882   2.600   1.221   0.278 -0.8471  3.7689  1.5851
  295SOL     OW  883   2.249   1.686   2.644  0.1950  0.4050 -0.1496
  295SOL    HW1  884   2.267   1.775   2.691  1.6591  0.9063  0.6228
  295SOL    HW2  885   2.337   1.639   2.627 -1.0207  1.5172  0.3404
  296SOL     OW  886   1.539   1.872   1.178 -0.2131  0.4425 -0.5401
  296SOL    HW1  887   1.478   1.791   1.166 -1.3256 -1.4465 -0.2130
  296SOL    HW2  888   1.504   1.915   1.262  2.1499 -0.0422  2.0754
  297SOL     OW  889   0.398   0.701   2.684 -0.3468 -0.0091 -0.0600
  297SOL    HW1  890   0.300   0.692   2.661 -1.5895 -1.9266 -0.6189
  297SOL    HW2  891   0.425   0.745   2.772  1.2924  0.5007 -2.3381
  298SOL     OW  892   1.564   2.883   1.550 -0.3766  0.1400  0.1879
  298SOL    HW1  893   1.604   2.884   1.642 -0.7544  3.3498  0.1215
  298SOL    HW2  894   1.466   2.890   1.555  0.0381  0.2707  0.3335
  299SOL     OW  895   1.011   0.339   2.599  0.2934  0.1366 -0.2912
  299SOL    HW1  896   0.937   0.380   2.653  2.2437 -2.1836  0.3712
  299SOL    HW2  897   1.003   0.238   2.597  2.4617  1.5131  2.0270
  300SOL     OW  898   1.994   1.409   0.025 -0.0968 -0.0953  0.4417
  300SOL    HW1  899   1.978   1.381   0.119  1.0102  1.0264  0.8296
  300SOL    HW2  900   1.981   1.327   3.073  2.7513 -1.0842 -3.8853
  301SOL     OW  901   2.404   0.436   2.542 -0.1159  0.9180 -0.2565
  301SOL    HW1  902   2.391   0.359   2.472 -0.9829  0.1380  0.0327
  301SOL    HW2  903   2.326   0.439   2.612 -1.9200  0.5299  0.7804
  302SOL     OW  904   2.524   1.664   2.611 -0.3330  0.4671  0.2245
  302SOL    HW1  905   2.604   1.602   2.588  2.3066 -1.2944 -2.3619
  302SOL    HW2  906   2.518   1.733   2.536 -1.3034  1.9379  1.9609
  303SOL     OW  907   0.242   2.481   2.236 -0.6579 -0.0115 -0.0876
  303SOL    HW1  908   0.178   2.449   2.159 -0.9918 -1.6677 -1.3788
  303SOL    HW2  909   0.223   2.429   2.323 -0.1375 -1.1442  1.7727
  304SOL     OW  910   0.098   1.174   0.983 -0.4289 -0.9652  0.3345
  304SOL    HW1  911   0.127   1.271   0.955  1.4233  3.4888 -4.5469
  304SOL    HW2  912   0.105   1.113   0.900  0.3800 -0.8164  1.2692
  305SOL     OW  913   2.970   0.228   2.120  0.1092  0.9601  0.0966
  305SOL    HW1  914   2.940   0.317   2.162  1.1414  1.2414  0.6900
  305SOL    HW2  915   2.997   0.165   2.194  0.5557  2.0687 -0.7645
  306SOL     OW  916   1.383   1.613   0.704 -0.0863 -0.2356  0.3802
  306SOL    HW1  917   1.426   1.703   0.685 -1.3420 -0.9637  1.5915
  306SOL    HW2  918   1.307   1.586   0.640 -3.0750 -0.3686 -0.5531
  307SOL     OW  919   2.967   2.866   1.343 -0.0214 -0.1865 -0.0393
  307SOL    HW1  920   3.032   2.856   1.265 -0.6278 -0.0725 -0.9694
  307SOL    HW2  921   2.886   2.923   1.306  2.2595  1.4964 -1.1583
  308SOL     OW  922   2.799   1.922   2.713 -0.2971 -0.6123 -0.7043
  308SOL    HW1  923   2.816   1.824   2.742  1.0058 -1.1313 -1.4180
  308SOL    HW2  924   2.779   1.923   2.612 -1.3672 -0.0421 -0.5188
  309SOL     OW  925   0.190   1.946   2.927  0.0952 -0.4059  0.0480
  309SOL    HW1  926   0.236   1.856   2.927  0.0903  1.7992 -2.1703
  309SOL    HW2  927   0.113   1.944   2.861  3.0381  0.3281 -1.6074
  310SOL     OW  928   2.274   0.407   0.033  0.4167  0.0506 -0.3465
  310SOL    HW1  929   2.332   0.490   0.041 -1.0036  0.7029  2.6016
  310SOL    HW2  930   2.326   0.326   0.064  1.5328 -2.9905 -0.6515
  311SOL     OW  931   1.950   1.244   2.943 -0.3137  0.1011  0.1208
  311SOL    HW1  932   1.976   1.265   2.846  0.1654 -0.6798  0.9061
  311SOL    HW2  933   1.936   1.141   2.951  1.1272  0.7263 -1.5061
  312SOL     OW  934   1.096   1.299   2.114 -0.3114  0.0267  0.0250
  312SOL    HW1  935   0.997   1.322   2.135  0.2595 -2.2679  1.2570
  312SOL    HW2  936   1.118   1.204   2.154 -1.7424 -2.8683 -0.4569
  313SOL     OW  937   0.370   0.195   0.015  0.3150  0.2243 -0.0789
  313SOL    HW1  938   0.357   0.278   3.075  1.0884 -1.8001  1.5138
  313SOL    HW2  939   0.398   0.219   0.110 -1.1853 -1.4810 -0.7696
  314SOL     OW  940   0.445   1.834   1.442 -0.1989  0.1131 -0.7291
  314SOL    HW1  941   0.455   1.754   1.381 -0.1701  2.6923 -1.3714
  314SOL    HW2  942   0.537   1.854   1.480  2.3376 -1.4892 -1.7987
  315SOL     OW  943   1.379   1.918   1.410  0.4755  0.4988  0.8376
  315SOL    HW1  944   1.382   1.827   1.459  1.0757 -0.6538  0.7713
  315SOL    HW2  945   1.284   1.946   1.391  0.6632 -0.7115  0.6775
  316SOL     OW  946   0.539   2.387   0.451  0.4593 -0.0340  0.3487
  316SOL    HW1  947   0.615   2.435   0.404 -2.7069 -3.1870 -2.1261
  316SOL    HW2  948   0.571   2.318   0.517 -2.0399  0.8312 -1.6060
  317SOL     OW  949   2.764   0.153   1.035  0.0883 -0.4564  0.1401
  317SOL    HW1  950   2.777   0.179   1.132  1.3542 -2.6823 -2.7742
  317SOL    HW2  951   2.664   0.151   1.017  2.5013  0.0783 -0.2639
  318SOL     OW  952   1.236   2.620   0.392 -0.3432 -0.4564  0.3470
  318SOL    HW1  953   1.189   2.658   0.473 -2.2884 -1.9193 -1.1232
  318SOL    HW2  954   1.165   2.607   0.320  1.1274 -2.2284 -0.1500
  319SOL     OW  955   1.012   0.056   2.730 -0.0034 -0.0108 -0.2653
  319SOL    HW1  956   1.057   3.097   2.790  1.5596 -1.5921  1.6088
  319SOL    HW2  957   0.989   0.136   2.783  1.1125  0.6427  0.5409
  320SOL     OW  958   2.416   1.859   1.755  0.3026 -0.0029  0.0588
  320SOL    HW1  959   2.314   1.846   1.762  0.2116 -0.3991  1.7685
  320SOL    HW2  960   2.468   1.771   1.738 -0.6168 -2.1201 -0.5475
  321SOL     OW  961   0.066   2.664   3.080  0.0510 -0.3058  0.5562
  321SOL    HW1  962   3.084   2.691   3.043 -1.7529  0.7625  0.2422
  321SOL    HW2  963   0.084   2.563   3.098  0.7019  0.7152 -0.9653
  322SOL     OW  964   2.508   0.845   1.314  0.1367 -0.5028 -0.1183
  322SOL    HW1  965   2.464   0.892   1.395 -1.2685  1.0082  2.0650
  322SOL    HW2  966   2.576   0.911   1.280  0.3758  0.4331  1.1934
  323SOL     OW  967   1.955   1.527   0.363 -0.0439  0.1901 -0.1547
  323SOL    HW1  968   1.863   1.565   0.392 -1.3135  1.3490 -1.3855
  323SOL    HW2  969   1.948   1.441   0.308  1.6572  0.0397  0.4758
  324SOL     OW  970   0.141   0.287   1.501 -0.2692  0.4093 -0.0298
  324SOL    HW1  971   0.098   0.378   1.483 -0.7965  0.9832  0.0665
  324SOL    HW2  972   0.093   0.243   1.578  0.4731  0.3666  0.5323
  325SOL     OW  973   2.810   2.843   1.023 -0.1029 -0.3971 -0.5347
  325SOL    HW1  974   2.740   2.772   1.044 -1.9207  2.5683 -0.9752
  325SOL    HW2  975   2.785   2.931   1.076 -1.4224  3.7093  0.3053
  326SOL     OW  976   1.654   2.991   0.396 -0.1746  0.0212 -0.0892
  326SOL    HW1  977   1.556   3.002   0.374  1.3153  0.9549  0.6284
  326SOL    HW2  978   1.662   2.925   0.473 -0.5412 -3.0803  1.0023
  327SOL     OW  979   2.338   2.371   0.281 -0.1312  0.6932  0.0394
  327SOL    HW1  980   2.260   2.329   0.333 -1.0265  1.4985  0.4668
  327SOL    HW2  981   2.333   2.472   0.269  1.6854 -1.9330  1.2586
  328SOL     OW  982   2.633   2.367   1.959 -0.0573 -0.4409  0.5476
  328SOL    HW1  983   2.711   2.320   1.907  2.9377  0.5425  0.0155
  328SOL    HW2  984   2.648   2.352   2.059  0.8895 -2.5724  1.6704
  329SOL     OW  985   0.248   2.215   0.741  0.0762 -0.1595  0.1792
  329SOL    HW1  986   0.200   2.169   0.822  0.1809 -0.2638  0.3348
  329SOL    HW2  987   0.335   2.166   0.733 -2.5943  1.2877 -0.2086
  330SOL     OW  988   2.298   1.067   1.887  0.5123  0.3928 -0.4456
  330SOL    HW1  989   2.302   1.171   1.870 -1.6305 -3.6585 -1.0476
  330SOL    HW2  990   2.205   1.035   1.877  1.9839 -0.7375 -1.2264
  331SOL     OW  991   2.256   1.688   0.681 -0.1469 -0.3810 -0.0864
  331SOL    HW1  992   2.356   1.691   0.694  0.0940 -0.9892 -3.4863
  331SOL    HW2  993   2.242   1.655   0.587  1.0063  0.1902 -1.1688
  332SOL     OW  994   0.209   2.838   1.572  0.1295 -1.0677 -0.2815
  332SOL    HW1  995   0.109   2.849   1.589 -1.4731  1.6287  1.0273
  332SOL    HW2  996   0.245   2.917   1.518  0.4968 -0.2835 -1.1152
  333SOL     OW  997   3.109   1.669   1.847  0.2239 -0.8399  0.0994
  333SOL    HW1  998   0.083   1.629   1.872  0.5730  1.6257 -1.1113
  333SOL    HW2  999   3.109   1.707   1.748  1.8865 -0.8867 -1.4486
  334SOL     OW 1000   0.342   0.815   1.386 -0.2280  0.1127  0.3331
  334SOL    HW1 1001   0.263   0.879   1.398  2.3389  1.2885 -2.3726
  334SOL    HW2 1002   0.307   0.738   1.332 -1.5214 -0.4463  0.7215
  335SOL     OW 1003   2.892   1.806   2.051 -0.4999  0.0694 -0.2339
  335SOL    HW1 1004   2.948   1.765   1.976 -1.7768 -1.5443 -2.0512
  335SOL    HW2 1005   2.837   1.732   2.100 -0.9554 -0.0930  0.9432
  336SOL     OW 1006   1.763   3.087   2.999 -0.1563  0.7082  0.6005
  336SOL    HW1 1007   1.726   3.008   3.052 -1.8472 -0.7660 -0.6158
  336SOL    HW2 1008   1.816   3.058   2.912  0.8732 -2.8407  2.1196
  337SOL     OW 1009   0.556   0.531   1.322 -0.1427  0.0921  0.5520
  337SOL    HW1 1010   0.567   0.630   1.296 -1.0881  0.1481 -0.7864
  337SOL    HW2 1011   0.564   0.516   1.421  1.1939  0.4512  2.4515
  338SOL     OW 1012   1.586   2.376   0.799 -0.0177 -0.5707  0.1335
  338SOL    HW1 1013   1.588   2.381   0.697  0.7479 -1.1128 -0.5805
  338SOL    HW2 1014   1.681   2.346   0.827  2.8345  0.7677  0.7287
  339SOL     OW 1015   0.196   1.675   1.022  0.4493  0.4493  0.1676
  339SOL    HW1 1016   0.145   1.734   0.954 -2.1918  1.8026 -0.8693
  339SOL    HW2 1017   0.251   1.733   1.081 -3.6793 -0.8750 -1.5125
  340SOL     OW 1018   0.348   3.073   2.215  0.0770 -0.1570  0.5833
  340SOL    HW1 1019   0.303   3.112   2.131 -0.6987 -0.5748 -0.0441
  340SOL    HW2 1020   0.281   3.012   2.255  0.4240 -0.6122 -1.3748
  341SOL     OW 1021   2.277   1.395   0.844  0.1860  0.4791 -0.2688
  341SOL    HW1 1022   2.185   1.432   0.820  2.8081 -1.2932 -1.2601
  341SOL    HW2 1023   2.355   1.428   0.781  2.1307  1.5504  0.5963
  342SOL     OW 1024   1.716   2.097   0.525 -0.1696 -0.1727 -0.1663
  342SOL    HW1 1025   1.616   2.107   0.545  0.4048 -0.6157 -0.7223
  342SOL    HW2 1026   1.750   2.179   0.478  0.8879  1.5977  0.3299
  343SOL     OW 1027   1.955   0.080   0.833  0.0797  0.3245  0.2591
  343SOL    HW1 1028   1.871   0.023   0.829 -1.9016 -0.7071 -1.4179
  343SOL    HW2 1029   2.008   0.057   0.919 -1.8822  0.5600 -1.4224
  344SOL     OW 1030   2.573   0.300   2.813  0.2386  0.2438  0.0471
  344SOL    HW1 1031   2.544   0.399   2.819 -0.0314 -1.3481 -2.7840
  344SOL    HW2 1032   2.636   0.289   2.736 -1.6559 -1.2031  0.6895
  345SOL     OW 1033   1.372   3.060   1.086 -0.2949  0.4659  0.4246
  345SOL    HW1 1034   1.385   3.028   1.185  2.5381 -2.2819  3.5568
  345SOL    HW2 1035   1.382   0.049   1.079 -1.6741  1.0096  2.5511
  346SOL     OW 1036   2.253   2.354   1.587 -0.0174 -0.2292 -0.2341
  346SOL    HW1 1037   2.154   2.376   1.604  0.3993  1.7652  0.6459
  346SOL    HW2 1038   2.265   2.253   1.579 -1.5507  2.0506  1.0948
  347SOL     OW 1039   2.606   2.910   0.625  0.0257  0.0848 -0.4003
  347SOL    HW1 1040   2.685   2.863   0.674  0.1306 -1.5916  0.8555
  347SOL    HW2 1041   2.605   3.005   0.662  4.2888 -1.1222 -0.7406
  348SOL     OW 1042   0.785   1.303   1.221  0.4722 -0.2823  0.3137
  348SOL    HW1 1043   0.808   1.403   1.207  1.6122 -0.6774  2.1695
  348SOL    HW2 1044   0.749   1.284   1.313 -0.7077  0.6829 -1.1191
  349SOL     OW 1045   2.149   0.031   3.026 -0.4079 -0.9319 -0.2932
  349SOL    HW1 1046   2.067   0.093   3.022  0.8540 -0.8442  0.9196
  349SOL    HW2 1047   2.164   3.112   0.013 -1.7181 -1.1853 -0.4375
  350SOL     OW 1048   2.554   2.105   3.009 -0.6090 -0.2366 -0.3348
  350SOL    HW1 1049   2.489   2.034   2.975  0.1458  0.8667  1.2484
  350SOL    HW2 1050   2.510   2.195   2.990 -1.2661 -1.1716 -0.9624
  351SOL     OW 1051   1.037   0.520   0.888 -0.5147 -0.1848  0.2191
  351SOL    HW1 1052   0.946   0.501   0.925  1.7219  1.4840  1.0509
  351SOL    HW2 1053   1.047   0.498   0.788  2.3980 -0.0283 -0.0648
  352SOL     OW 1054   2.141   2.639   2.660 -0.7320 -0.0402 -0.0705
  352SOL    HW1 1055   2.196   2.700   2.723  0.3852  0.2475 -1.5661
  352SOL    HW2 1056   2.133   2.677   2.565 -0.4827 -0.3969 -1.8668
  353SOL     OW 1057   0.683   0.610   0.097 -0.4090  0.0234  0.0240
  353SOL    HW1 1058   0.709   0.556   0.175 -0.7840  1.6041  0.1509
  353SOL    HW2 1059   0.581   0.618   0.096  0.5950  0.9297 -0.0565
  354SOL     OW 1060   0.973   1.810   3.049  0.0672 -0.2619  0.2140
  354SOL    HW1 1061   0.904   1.754   3.101 -0.8854  1.7601 -0.9472
  354SOL    HW2 1062   1.070   1.781   3.056 -2.4137  0.0422 -0.2518
  355SOL     OW 1063   2.810   2.798   1.733  0.0685 -0.1339 -0.0402
  355SOL    HW1 1064   2.741   2.724   1.748 -2.1602  0.0474 -0.7126
  355SOL    HW2 1065   2.763   2.891   1.749 -3.3916 -2.0536  1.1790
  356SOL     OW 1066   2.951   0.726   0.536 -0.3304 -0.6082  0.3246
  356SOL    HW1 1067   2.927   0.821   0.504 -0.6475  0.0575  1.6551
  356SOL    HW2 1068   2.879   0.662   0.505  0.4307 -0.9025 -1.6898
  357SOL     OW 1069   2.457   0.413   0.937 -0.1056  0.0953 -0.6619
  357SOL    HW1 1070   2.494   0.494   0.989  1.0071  0.5712 -0.1301
  357SOL    HW2 1071   2.503   0.324   0.960  1.0429 -1.2503  0.7912
  358SOL     OW 1072   1.171   2.602   1.223  0.2037 -0.3915  0.0292
  358SOL    HW1 1073   1.186   2.502   1.216  0.4227  1.8390 -0.2163
  358SOL    HW2 1074   1.196   2.652   1.135  0.3019  2.3745 -0.4374
  359SOL     OW 1075   0.037   2.224   2.791  0.0579 -0.3275 -0.1110
  359SOL    HW1 1076   0.031   2.128   2.756  1.0951 -1.5130  1.2872
  359SOL    HW2 1077   3.063   2.239   2.845  0.1221 -2.7111 -1.4474
  360SOL     OW 1078   0.525   1.013   1.671  0.1040 -0.3038  0.1036
  360SOL    HW1 1079   0.509   1.075   1.755 -0.3681  0.3133  0.5197
  360SOL    HW2 1080   0.614   0.971   1.676  0.2719  0.9598 -0.4736
  361SOL     OW 1081   2.452   2.694   0.592  0.1170 -0.3686  0.9704
  361SOL    HW1 1082   2.383   2.744   0.532  2.1453  1.3659 -1.7628
  361SOL    HW2 1083   2.521   2.759   0.629  1.0099  2.1218 -1.7812
  362SOL     OW 1084   3.075   2.884   1.087 -0.3665 -0.0228 -0.1537
  362SOL    HW1 1085   0.038   2.855   1.019  2.7190 -2.4724 -1.7090
  362SOL    HW2 1086   2.980   2.853   1.053 -1.6608 -0.2686 -1.4547
  363SOL     OW 1087   0.869   1.454   0.501  0.1518  0.2252 -0.1974
  363SOL    HW1 1088   0.863   1.354   0.481 -2.1777 -2.1579  0.4649
  363SOL    HW2 1089   0.777   1.500   0.515 -1.5499 -0.0463  1.8458
  364SOL     OW 1090   0.679   1.521   1.463 -0.4894  0.6552  0.1244
  364SOL    HW1 1091   0.669   1.420   1.481  1.0806  2.1513 -1.0806
  364SOL    HW2 1092   0.667   1.568   1.553  0.5226 -1.3621 -2.1628
  365SOL     OW 1093   2.345   1.540   0.434  0.6608  0.2392  0.8348
  365SOL    HW1 1094   2.382   1.503   0.520  0.6896 -0.3266  0.7003
  365SOL    HW2 1095   2.407   1.613   0.401  1.4072 -1.0851  2.4584
  366SOL     OW 1096   2.657   1.553   1.030 -0.0603 -0.2497 -0.1468
  366SOL    HW1 1097   2.711   1.511   1.106  3.5154  0.7666  3.1048
  366SOL    HW2 1098   2.647   1.653   1.032  1.9846 -0.4717 -0.0379
  367SOL     OW 1099   2.098   1.833   2.046  0.2320  0.1799  0.1272
  367SOL    HW1 1100   2.002   1.857   2.069 -1.4960  1.9534  1.1185
  367SOL    HW2 1101   2.165   1.871   2.108 -4.4420 -1.2328 -4.3339
  368SOL     OW 1102   2.722   1.024   1.260 -0.1715  1.1826  0.0356
  368SOL    HW1 1103   2.715   1.099   1.324 -1.1725 -3.4515 -0.5701
  368SOL    HW2 1104   2.759   0.939   1.307 -0.3315 -1.7254 -0.9037
  369SOL     OW 1105   2.410   2.633   0.233 -1.1430 -0.1781  0.0617
  369SOL    HW1 1106   2.463   2.701   0.285 -0.5776 -1.4123 -1.8401
  369SOL    HW2 1107   2.469   2.607   0.149  1.8527 -1.3242 -0.3422
  370SOL     OW 1108   3.054   2.855   1.605  0.4788  0.3010  0.0114
  370SOL    HW1 1109   2.979   2.835   1.675  1.4681  1.2270 -0.2919
  370SOL    HW2 1110   3.017   2.850   1.509 -0.7278 -0.8744 -0.3981
  371SOL     OW 1111   0.834   1.634   2.498 -0.3913  0.1940 -0.0651
  371SOL    HW1 1112   0.753   1.683   2.538  0.4703  1.0242  0.0330
  371SOL    HW2 1113   0.836   1.653   2.399  0.9602  0.3799  2.4366
  372SOL     OW 1114   0.761   1.198   0.550  0.5297 -0.9555 -0.1351
  372SOL    HW1 1115   0.667   1.163   0.532 -1.2770 -1.5041  1.1755
  372SOL    HW2 1116   0.823   1.148   0.491 -0.1138 -1.8896  0.6544
  373SOL     OW 1117   1.487   2.695   3.055 -0.2092  0.1696  0.6867
  373SOL    HW1 1118   1.462   2.666   0.038  1.7929 -0.3610 -1.4846
  373SOL    HW2 1119   1.479   2.612   2.992 -2.5755 -0.1099  0.2331
  374SOL     OW 1120   0.359   1.802   0.132  0.4810  0.9325 -0.2012
  374SOL    HW1 1121   0.262   1.809   0.128  2.8104 -1.6708  1.1657
  374SOL    HW2 1122   0.390   1.706   0.137 -0.2978 -0.8634  0.6226
  375SOL     OW 1123   0.958   1.581   1.857  0.6296  0.4884 -0.5635
  375SOL    HW1 1124   0.910   1.642   1.784  0.7254 -0.2218 -0.2519
  375SOL    HW2 1125   0.906   1.492   1.867  1.3263 -3.4660  0.7991
  376SOL     OW 1126   0.516   2.375   1.707 -0.6472 -0.3532  0.1917
  376SOL    HW1 1127   0.523   2.373   1.808  1.8446  0.0533 -0.3752
  376SOL    HW2 1128   0.573   2.449   1.667 -0.8733  0.8874 -1.7106
  377SOL     OW 1129   2.517   1.515   2.121 -0.2896  1.0179 -0.4400
  377SOL    HW1 1130   2.436   1.547   2.173  0.9465 -0.6614  1.2235
  377SOL    HW2 1131   2.542   1.423   2.151  1.7217 -1.2267  2.7915
  378SOL     OW 1132   0.979   2.841   3.039  0.5787 -0.5739  0.3434
  378SOL    HW1 1133   0.878   2.851   3.051 -0.0904  0.8226 -1.7560
  378SOL    HW2 1134   1.035   2.839   0.012 -1.3162 -1.8247 -0.4371
  379SOL     OW 1135   1.689   0.420   0.795  0.0623  0.4073  0.2721
  379SOL    HW1 1136   1.634   0.470   0.863  1.7522  1.0092 -0.7606
  379SOL    HW2 1137   1.700   0.484   0.714 -1.1166  0.0061  1.8652
  380SOL     OW 1138   2.727   1.801   1.406 -0.0449  0.3866  0.1223
  380SOL    HW1 1139   2.736   1.843   1.498 -0.1957  1.2313 -1.0004
  380SOL    HW2 1140   2.714   1.872   1.340  3.9469 -1.8387  0.2895
  381SOL     OW 1141   1.708   1.804   1.766 -0.2501 -0.1777  0.2872
  381SOL    HW1 1142   1.622   1.844   1.808  1.7644  0.5324  2.4384
  381SOL    HW2 1143   1.719   1.861   1.680 -2.0457  2.4676 -2.0256
  382SOL     OW 1144   3.026   0.461   2.960 -0.3228 -0.2014 -0.1486
  382SOL    HW1 1145   2.985   0.524   2.890  0.2817 -1.2703 -0.0640
  382SOL    HW2 1146   3.092   0.508   3.022 -2.0570  0.2397  0.4793
  383SOL     OW 1147   1.744   1.151   2.716 -0.2112 -0.4323 -0.3062
  383SOL    HW1 1148   1.663   1.206   2.735  1.0211 -0.3649  0.2655
  383SOL    HW2 1149   1.828   1.211   2.700  2.4027  3.7061 -1.0688
  384SOL     OW 1150   1.193   2.308   1.195  0.4546 -0.2173  0.2302
  384SOL    HW1 1151   1.195   2.270   1.099 -0.8448  3.4355 -2.0444
  384SOL    HW2 1152   1.117   2.274   1.254  0.0296  0.1515  1.4181
  385SOL     OW 1153   1.856   2.324   0.769 -0.2753  0.0035 -0.1580
  385SOL    HW1 1154   1.857   2.323   0.668 -0.1023 -0.3002  0.8395
  385SOL    HW2 1155   1.908   2.245   0.809  2.1896 -1.7520 -0.1028
  386SOL     OW 1156   2.056   2.310   1.055  0.3308  0.3431 -0.4035
  386SOL    HW1 1157   2.031   2.405   1.070  2.3662  1.9388  0.0783
  386SOL    HW2 1158   2.056   2.264   1.148 -0.9348 -1.1649  1.1708
  387SOL     OW 1159   0.287   2.080   1.432  0.2738  0.2589  0.1103
  387SOL    HW1 1160   0.345   2.163   1.422  0.6826  2.0772 -0.2863
  387SOL    HW2 1161   0.342   1.992   1.438 -1.0962  0.0569 -2.3233
  388SOL     OW 1162   3.031   0.617   1.851  0.1794 -0.4323  0.3880
  388SOL    HW1 1163   2.934   0.588   1.869 -0.6459  2.9998 -2.3322
  388SOL    HW2 1164   3.097   0.594   1.925  1.9511  3.9265 -0.5255
  389SOL     OW 1165   1.904   1.142   0.981  0.3274  0.2818  0.1841
  389SOL    HW1 1166   1.951   1.229   1.010  0.5372 -1.0896  0.6741
  389SOL    HW2 1167   1.809   1.159   0.947  0.7739 -3.0084 -0.5200
  390SOL     OW 1168   0.930   2.073   2.281  0.0243  0.0142 -0.3818
  390SOL    HW1 1169   0.861   2.144   2.301 -2.1244  2.4238 -1.7560
  390SOL    HW2 1170   0.882   1.986   2.256  0.1723  0.0002 -1.6137
  391SOL     OW 1171   1.004   1.985   2.680  0.4637 -0.1963 -0.5015
  391SOL    HW1 1172   0.930   1.999   2.748 -0.1028  2.4241  0.1279
  391SOL    HW2 1173   0.999   2.050   2.603  0.8837 -0.2394 -2.0414
  392SOL     OW 1174   2.829   3.057   2.215  0.2936  0.3955 -0.1610
  392SOL    HW1 1175   2.875   0.013   2.268  0.4047  0.0382 -1.2651
  392SOL    HW2 1176   2.900   3.019   2.149  0.5125  0.2474 -1.3085
  393SOL     OW 1177   2.050   2.714   0.306  0.1018 -0.2397  0.3605
  393SOL    HW1 1178   1.969   2.767   0.289 -0.4228  1.4590 -2.5631
  393SOL    HW2 1179   2.101   2.707   0.218  1.1510 -1.2536 -1.8280
  394SOL     OW 1180   0.653   0.693   2.565  0.4240 -0.1874  0.2324
  394SOL    HW1 1181   0.558   0.706   2.601 -1.1185 -1.4830  1.3207
  394SOL    HW2 1182   0.654   0.651   2.474  1.1699  1.7835  4.2349
  395SOL     OW 1183   0.651   1.236   1.465 -0.4156 -0.5416  0.3092
  395SOL    HW1 1184   0.570   1.195   1.421  2.0711 -1.9987  1.4617
  395SOL    HW2 1185   0.689   1.167   1.529  0.9062 -0.1063  2.4216
  396SOL     OW 1186   1.734   1.635   2.179  0.2655  0.2424 -0.7305
  396SOL    HW1 1187   1.697   1.571   2.108  0.9212 -2.5500 -1.6069
  396SOL    HW2 1188   1.765   1.579   2.264  1.4267  1.6841  1.6263
  397SOL     OW 1189   0.783   0.490   2.706 -0.1676 -0.5290  0.4981
  397SOL    HW1 1190   0.791   0.518   2.802  0.8775 -0.3729 -1.3274
  397SOL    HW2 1191   0.746   0.567   2.654 -1.5044 -0.3489  1.6115
  398SOL     OW 1192   0.414   1.894   2.657  0.1247  0.2811  0.2849
  398SOL    HW1 1193   0.429   1.970   2.725 -1.2503  1.9356  0.6734
  398SOL    HW2 1194   0.389   1.939   2.568 -1.3984  0.9427 -1.6921
  399SOL     OW 1195   0.188   1.642   2.282  0.2266 -0.0321  0.0526
  399SOL    HW1 1196   0.128   1.561   2.263  1.1211  0.1757 -0.1300
  399SOL    HW2 1197   0.279   1.634   2.234 -0.5231 -0.5906 -2.8213
  400SOL     OW 1198   2.763   0.395   1.651  0.1294 -0.0102 -0.0538
  400SOL    HW1 1199   2.700   0.385   1.575  0.5276 -1.8617  2.1634
  400SOL    HW2 1200   2.733   0.467   1.719 -1.2744 -0.7484  1.5417
  401SOL     OW 1201   0.819   1.701   0.306 -0.6121  0.0170  0.6572
  401SOL    HW1 1202   0.757   1.685   0.225 -2.9042  1.4561 -1.7355
  401SOL    HW2 1203   0.918   1.699   0.279  0.9584  1.6307  0.8146
  402SOL     OW 1204   0.044   2.379   2.081 -1.0986  0.1796  0.1514
  402SOL    HW1 1205   0.008   2.435   2.000 -0.1736  0.9094 -1.3570
  402SOL    HW2 1206   0.049   2.282   2.055  0.7542  0.8944  1.2890
  403SOL     OW 1207   0.298   1.323   2.067 -0.1266  0.0894 -0.0434
  403SOL    HW1 1208   0.221   1.257   2.044 -2.0046 -0.6345 -0.2959
  403SOL    HW2 1209   0.327   1.316   2.169 -0.3855 -1.0718  1.6363
  404SOL     OW 1210   1.652   1.935   1.523 -0.2143  0.2856 -0.2186
  404SOL    HW1 1211   1.574   1.918   1.461  0.8742 -0.4528 -1.3997
  404SOL    HW2 1212   1.732   1.958   1.465  2.5419 -0.7225  0.4092
  405SOL     OW 1213   2.772   2.567   2.639 -0.2413 -0.0272  0.3323
  405SOL    HW1 1214   2.776   2.654   2.691  0.9977  2.8116 -2.7761
  405SOL    HW2 1215   2.867   2.527   2.633  0.3235  1.0588  3.1876
  406SOL     OW 1216   0.638   1.326   2.898  0.2142  0.1707  0.2498
  406SOL    HW1 1217   0.664   1.229   2.869  0.2376 -1.0398 -0.6094
  406SOL    HW2 1218   0.681   1.396   2.836 -0.5016 -1.1559 -0.0173
  407SOL     OW 1219   2.329   2.833   2.761  0.0764  0.4540  0.4898
  407SOL    HW1 1220   2.390   2.837   2.675  1.8072 -0.7429 -1.4593
  407SOL    HW2 1221   2.393   2.835   2.841 -1.7711  1.1155 -2.7088
  408SOL     OW 1222   2.577   2.558   0.018 -0.6442  0.0077  0.1354
  408SOL    HW1 1223   2.656   2.534   0.083  1.6565  1.3161  0.9162
  408SOL    HW2 1224   2.588   2.512   3.041  0.2837 -1.2330 -0.1972
  409SOL     OW 1225   2.258   1.117   0.681 -0.1287  0.3212  0.3021
  409SOL    HW1 1226   2.254   1.202   0.739 -1.7557 -1.9030  1.9289
  409SOL    HW2 1227   2.183   1.054   0.719 -1.5519 -0.4206  0.9415
  410SOL     OW 1228   3.082   1.447   0.706 -0.0298 -0.1987 -0.1452
  410SOL    HW1 1229   3.000   1.460   0.771  0.5967 -0.6077  0.2521
  410SOL    HW2 1230   0.058   1.460   0.760  1.9800 -1.2503 -0.0323
  411SOL     OW 1231   0.432   1.396   0.709 -0.8224  0.1906 -0.3948
  411SOL    HW1 1232   0.445   1.499   0.700  1.5435  0.5150 -0.8866
  411SOL    HW2 1233   0.515   1.354   0.742  0.3914 -0.2986  1.0714
  412SOL     OW 1234   2.300   2.285   0.665  0.0208 -0.0018 -0.1454
  412SOL    HW1 1235   2.380   2.298   0.602  1.0137  1.6859 -0.1495
  412SOL    HW2 1236   2.255   2.374   0.678  0.6511 -0.1318  0.6953
  413SOL     OW 1237   1.566   1.175   2.084  0.4966  0.6757 -0.2633
  413SOL    HW1 1238   1.509   1.100   2.036  1.0542 -1.0847 -1.4608
  413SOL    HW2 1239   1.545   1.171   2.183  1.0942  1.3953 -0.5463
  414SOL     OW 1240   2.837   2.913   0.220  0.3829 -0.0605 -0.2246
  414SOL    HW1 1241   2.834   2.930   0.118  1.5958  0.7353 -2.1919
  414SOL    HW2 1242   2.890   2.981   0.264 -2.0345  1.2123 -2.4961
  415SOL     OW 1243   0.977   2.259   1.329  0.3795  0.2924  0.3072
  415SOL    HW1 1244   0.963   2.359   1.356  0.7030  3.1487 -0.1542
  415SOL    HW2 1245   0.892   2.200   1.342 -1.0249 -0.5995 -1.2348
  416SOL     OW 1246   3.045   2.458   2.628 -0.1494  0.0642  0.1216
  416SOL    HW1 1247   0.015   2.518   2.650  0.3528  2.1373 -0.1656
  416SOL    HW2 1248   3.054   2.368   2.674  0.0622 -2.2440 -0.1187
  417SOL     OW 1249   2.825   0.486   1.200  0.2124 -0.0762  0.1806
  417SOL    HW1 1250   2.887   0.473   1.122 -0.0326 -2.4047  1.0537
  417SOL    HW2 1251   2.877   0.484   1.286 -2.5910 -0.2581 -2.4672
  418SOL     OW 1252   2.926   0.121   0.152 -0.0562  0.0464 -0.2617
  418SOL    HW1 1253   2.923   0.092   0.249  3.1229  2.2174 -0.2907
  418SOL    HW2 1254   2.931   0.042   0.090 -0.7223 -0.4689  3.0829
  419SOL     OW 1255   0.083   1.500   1.470 -0.3624 -0.4087  0.3912
  419SOL    HW1 1256   3.105   1.452   1.465  0.2861  0.8114 -0.3881
  419SOL    HW2 1257   0.126   1.511   1.379 -2.0123  0.3304  0.1950
  420SOL     OW 1258   0.290   1.374   0.020  0.2529  0.4562  0.2998
  420SOL    HW1 1259   0.371   1.430   0.052 -1.0043  0.7681  3.4496
  420SOL    HW2 1260   0.287   1.361   3.031 -2.7242 -0.6770 -1.2326
  421SOL     OW 1261   2.081   2.701   2.395 -0.2938  0.3497  0.3673
  421SOL    HW1 1262   1.984   2.681   2.372  1.4868  1.4819  0.8233
  421SOL    HW2 1263   2.141   2.640   2.340 -2.2565 -2.4760 -1.4091
  422SOL     OW 1264   0.200   0.864   2.389 -0.2829 -0.3396 -0.1059
  422SOL    HW1 1265   0.169   0.840   2.296  1.2722  2.1954  2.5243
  422SOL    HW2 1266   0.175   0.793   2.459  0.6693  1.3841 -2.0494
  423SOL     OW 1267   1.205   2.266   0.624 -0.0190 -0.0916 -0.2690
  423SOL    HW1 1268   1.282   2.226   0.684  2.5832 -0.4222  0.3962
  423SOL    HW2 1269   1.124   2.205   0.622 -0.4339 -1.1656 -0.9477
  424SOL     OW 1270   0.666   1.987   1.572  0.5959 -0.6009  0.2417
  424SOL    HW1 1271   0.715   2.074   1.587  1.0480  1.8499 -1.5109
  424SOL    HW2 1272   0.613   1.960   1.656  0.4556 -1.0912  0.0803
  425SOL     OW 1273   2.543   2.488   2.526 -0.2135  0.0192 -0.1249
  425SOL    HW1 1274   2.513   2.542   2.446  0.0712  0.3395  1.9846
  425SOL    HW2 1275   2.622   2.530   2.568 -1.6776 -2.0941 -1.4108
  426SOL     OW 1276   1.535   0.599   0.945  0.3800  0.0426  0.0841
  426SOL    HW1 1277   1.550   0.570   1.041 -0.0299  2.0338 -0.3654
  426SOL    HW2 1278   1.435   0.620   0.925 -1.0133  0.1809  0.6379
  427SOL     OW 1279   0.064   1.570   2.679  0.4276 -0.0376  0.0346
  427SOL    HW1 1280   3.096   1.578   2.737  1.1564  2.3619 -0.6258
  427SOL    HW2 1281   0.038   1.535   2.586  0.5865  1.6630  2.4490
  428SOL     OW 1282   1.226   1.293   0.035  0.4406 -0.4153  0.3246
  428SOL    HW1 1283   1.239   1.244   0.124  0.6793  1.2405 -0.0539
  428SOL    HW2 1284   1.162   1.239   3.087 -1.3184  0.5370  0.0633
  429SOL     OW 1285   2.882   2.594   0.577  0.2036 -0.4709  0.1167
  429SOL    HW1 1286   2.833   2.505   0.579 -1.6461  1.8709 -1.1759
  429SOL    HW2 1287   2.872   2.644   0.488 -0.1918  0.4384 -0.8784
  430SOL     OW 1288   0.495   2.249   2.302  0.1644 -0.5378 -0.5612
  430SOL    HW1 1289   0.458   2.344   2.308 -1.7846 -1.1936  0.6017
  430SOL    HW2 1290   0.425   2.178   2.300  1.0543  1.8653 -1.7103
  431SOL     OW 1291   2.987   1.171   0.187 -0.3365 -0.2349 -0.3637
  431SOL    HW1 1292   2.956   1.266   0.179 -1.2415  1.0064 -2.0409
  431SOL    HW2 1293   3.087   1.164   0.165 -0.6294 -0.6182 -0.5000
  432SOL     OW 1294   1.621   2.666   2.400  0.4553 -0.0833 -0.0748
  432SOL    HW1 1295   1.639   2.765   2.416 -0.7459  2.8815 -2.1490
  432SOL    HW2 1296   1.608   2.610   2.487  1.0744  1.0388 -0.1038
  433SOL     OW 1297   1.107   2.775   0.580 -0.0960 -0.3242 -0.0229
  433SOL    HW1 1298   1.150   2.858   0.535 -1.3190  0.5972  0.5084
  433SOL    HW2 1299   1.159   2.745   0.663 -2.6251 -0.2002 -1.0453
  434SOL     OW 1300   1.404   1.909   2.330 -0.4368  0.3790  0.3469
  434SOL    HW1 1301   1.410   2.007   2.365 -0.8783  1.1182 -0.6845
  434SOL    HW2 1302   1.384   1.855   2.414  0.8776  1.5842  1.2916
  435SOL     OW 1303   2.435   0.652   0.042 -0.0021 -0.4632 -0.2813
  435SOL    HW1 1304   2.497   0.717   3.106  1.7300  1.7994 -1.4099
  435SOL    HW2 1305   2.390   0.702   0.122 -2.2810  0.5005  0.1192
  436SOL     OW 1306   0.382   2.710   2.301  0.2124 -0.3071  0.3233
  436SOL    HW1 1307   0.312   2.633   2.288 -4.0806 -1.4300 -1.3719
  436SOL    HW2 1308   0.455   2.702   2.228 -1.6640  0.6599  2.1441
  437SOL     OW 1309   2.046   3.092   1.540  0.3618 -0.5751 -0.4283
  437SOL    HW1 1310   2.013   3.001   1.504 -1.8931 -1.0980 -2.7034
  437SOL    HW2 1311   2.091   0.032   1.463 -0.7271 -0.9696  0.3905
  438SOL     OW 1312   0.155   1.745   0.599 -0.2180 -0.5029  0.4481
  438SOL    HW1 1313   0.092   1.761   0.675 -0.5547 -2.4721 -1.9127
  438SOL    HW2 1314   0.251   1.735   0.632  1.3245  1.1373 -1.2717
  439SOL     OW 1315   0.075   0.016   1.181  0.3772 -0.2963 -0.0079
  439SOL    HW1 1316   0.129   0.063   1.103  1.3766  0.2433 -2.3135
  439SOL    HW2 1317   0.024   3.044   1.150 -1.2555 -2.0029  0.3188
  440SOL     OW 1318   2.845   2.848   2.427 -0.3975 -0.4557  0.2560
  440SOL    HW1 1319   2.743   2.842   2.422 -1.3612  0.1170  0.4081
  440SOL    HW2 1320   2.875   2.908   2.349  1.7453 -0.4487 -1.2526
  441SOL     OW 1321   0.226   0.617   0.217 -0.3525 -0.1903 -0.2353
  441SOL    HW1 1322   0.238   0.705   0.269 -1.8006  2.5046 -0.9905
  441SOL    HW2 1323   0.193   0.543   0.278  0.2033 -0.5770  1.5554
  442SOL     OW 1324   1.534   2.520   2.187 -0.1100 -0.0455 -0.4835
  442SOL    HW1 1325   1.581   2.434   2.152 -2.2160 -2.8880 -3.8155
  442SOL    HW2 1326   1.574   2.568   2.269  0.2491  0.7864 -0.1039
  443SOL     OW 1327   0.698   2.931   0.024 -0.8724 -0.3212 -0.6302
  443SOL    HW1 1328   0.608   2.904   3.098 -1.3435 -0.2770  2.1461
  443SOL    HW2 1329   0.716   3.031   0.003  0.1322 -0.1256  1.4419
  444SOL     OW 1330   1.488   1.765   2.734  0.1407 -0.6512  0.2913
  444SOL    HW1 1331   1.408   1.812   2.781 -4.3890  1.1994  0.4255
  444SOL    HW2 1332   1.452   1.718   2.653  2.6085  2.2475  1.9100
  445SOL     OW 1333   0.378   0.326   1.026 -0.1835  0.1103  0.5806
  445SOL    HW1 1334   0.310   0.253   1.013  1.5993  0.5717 -0.3789
  445SOL    HW2 1335   0.452   0.310   1.093 -0.3538  0.2782  1.3588
  446SOL     OW 1336   1.740   0.757   0.902  0.3144 -0.0887  0.4763
  446SOL    HW1 1337   1.654   0.698   0.899 -0.8930  0.2587  1.4052
  446SOL    HW2 1338   1.780   0.761   0.994 -1.3215  1.2246  2.1891
  447SOL     OW 1339   2.910   0.790   0.229  0.7387  0.2219 -1.1217
  447SOL    HW1 1340   2.924   0.697   0.262 -0.0642 -1.0492  0.2280
  447SOL    HW2 1341   2.936   0.863   0.300  1.5515 -0.9583  2.4369
  448SOL     OW 1342   2.139   1.740   1.160 -0.5607 -0.6031  0.5510
  448SOL    HW1 1343   2.138   1.805   1.238  0.3719 -1.6124  1.0595
  448SOL    HW2 1344   2.105   1.780   1.073 -2.6332 -1.8876 -0.5022
  449SOL     OW 1345   0.986   1.433   2.931 -0.3196  0.3855  0.2957
  449SOL    HW1 1346   1.040   1.489   2.868 -2.5816 -1.8815 -1.2067
  449SOL    HW2 1347   1.011   1.459   3.025  0.1381  0.5176 -1.0131
  450SOL     OW 1348   2.141   2.966   2.373 -0.2241  0.0487 -0.1601
  450SOL    HW1 1349   2.127   2.870   2.395  0.9239  1.8691 -0.1320
  450SOL    HW2 1350   2.055   3.005   2.329 -1.0005 -1.9796 -0.7842
  451SOL     OW 1351   2.687   0.848   2.541  0.3682  0.1168  0.2354
  451SOL    HW1 1352   2.646   0.758   2.566  1.2700  2.1705 -0.5177
  451SOL    HW2 1353   2.624   0.894   2.478  1.2973  0.3813  1.1958
  452SOL     OW 1354   1.749   1.170   1.465  0.0640 -0.0664 -0.2973
  452SOL    HW1 1355   1.702   1.212   1.384 -3.0356  0.7750 -2.2062
  452SOL    HW2 1356   1.715   1.208   1.554  0.8715 -0.1652  1.8129
  453SOL     OW 1357   1.598   0.612   1.908  0.8439 -0.6583 -0.3327
  453SOL    HW1 1358   1.629   0.563   1.829 -0.4909 -0.3855 -0.6235
  453SOL    HW2 1359   1.500   0.587   1.924 -1.4078 -1.5494  1.1421
  454SOL     OW 1360   0.113   0.839   2.932 -0.1253  0.4281  0.3798
  454SOL    HW1 1361   0.067   0.830   2.843  0.4433  2.4865 -0.8437
  454SOL    HW2 1362   0.181   0.915   2.931  0.6456  0.7562  1.8622
  455SOL     OW 1363   2.460   1.693   1.393  0.1426  0.4067 -0.1778
  455SOL    HW1 1364   2.459   1.660   1.490 -1.7244 -0.3657  0.6771
  455SOL    HW2 1365   2.551   1.730   1.364 -1.6813  0.6086  0.2578
  456SOL     OW 1366   1.684   2.899   1.809  0.1544 -0.1718 -0.6522
  456SOL    HW1 1367   1.638   2.866   1.893 -0.5006  4.2257  0.3959
  456SOL    HW2 1368   1.742   2.975   1.845 -1.7716 -2.1970 -1.4008
  457SOL     OW 1369   1.486   2.846   0.754 -0.0116  0.0583 -0.1146
  457SOL    HW1 1370   1.530   2.842   0.662  0.0473 -1.7244 -0.5297
  457SOL    HW2 1371   1.498   2.759   0.800  2.3097  3.9398 -1.0245
  458SOL     OW 1372   3.093   2.949   0.717 -0.6870  0.5424 -0.2335
  458SOL    HW1 1373   3.013   2.888   0.711  1.2005  1.6070  0.2592
  458SOL    HW2 1374   0.016   2.962   0.622  1.0190  1.5350 -0.8576
  459SOL     OW 1375   1.910   1.130   0.553  0.3857 -0.3608  0.1738
  459SOL    HW1 1376   1.900   1.091   0.459 -1.5623 -2.5938  0.2011
  459SOL    HW2 1377   1.954   1.061   0.608 -0.8469  0.6292 -3.6758
  460SOL     OW 1378   0.857   2.496   2.359  0.1483  0.6773 -0.2253
  460SOL    HW1 1379   0.854   2.511   2.258 -1.1003  0.6210  1.8736
  460SOL    HW2 1380   0.951   2.465   2.390 -0.1010  2.0671  0.6876
  461SOL     OW 1381   0.726   1.695   0.052  0.4406  0.0467 -0.6474
  461SOL    HW1 1382   0.636   1.736   0.020 -0.2453  3.3569  3.2652
  461SOL    HW2 1383   0.730   1.597   0.029 -2.3015  3.1283 -1.1955
  462SOL     OW 1384   2.096   2.231   0.340  0.4724  0.0098  0.3978
  462SOL    HW1 1385   2.127   2.152   0.394 -1.7021 -1.1507  0.0913
  462SOL    HW2 1386   2.065   2.200   0.246 -0.4508  0.0085  1.0345
  463SOL     OW 1387   2.712   0.599   0.451  0.0636  0.3418  0.7934
  463SOL    HW1 1388   2.690   0.496   0.456  0.1259 -3.9047  1.0136
  463SOL    HW2 1389   2.633   0.655   0.483  0.6366  2.7730  0.2306
  464SOL     OW 1390   0.497   1.992   0.255 -0.1079  0.2885  0.5625
  464SOL    HW1 1391   0.470   1.915   0.189  0.3609 -3.7088 -3.2431
  464SOL    HW2 1392   0.593   1.980   0.291  1.0408 -0.0844  1.0222
  465SOL     OW 1393   2.175   0.150   1.329 -0.1611  0.6235  0.0814
  465SOL    HW1 1394   2.193   0.195   1.233 -1.3945  1.2597 -2.7140
  465SOL    HW2 1395   2.158   0.222   1.399 -0.1654  2.4048  0.0712
  466SOL     OW 1396   2.388   0.029   0.758  0.3110  0.1285 -0.1163
  466SOL    HW1 1397   2.306   3.086   0.730 -0.9235  0.2908 -1.1466
  466SOL    HW2 1398   2.378   0.125   0.723 -1.0783 -1.4394 -0.0523
  467SOL     OW 1399   0.402   0.507   2.289 -0.0981 -0.3930  0.0072
  467SOL    HW1 1400   0.376   0.466   2.376 -0.6218  2.3298  0.7657
  467SOL    HW2 1401   0.418   0.443   2.214  0.2139  1.3622  1.5761
  468SOL     OW 1402   2.543   0.026   2.182 -0.5871  0.3525 -0.2696
  468SOL    HW1 1403   2.531   0.109   2.122  0.8321  0.1287 -0.0737
  468SOL    HW2 1404   2.642   3.099   2.177  3.6205 -0.7508  0.5616
  469SOL     OW 1405   1.035   2.953   1.719 -0.1385 -0.6343  0.3639
  469SOL    HW1 1406   1.025   2.963   1.618 -1.5051 -1.1690  0.5710
  469SOL    HW2 1407   0.952   2.903   1.756 -1.9051  0.0699  0.7991
  470SOL     OW 1408   2.536   1.017   1.771  0.1013  0.0673 -0.3734
  470SOL    HW1 1409   2.584   0.946   1.826 -0.8263 -1.7464  2.1664
  470SOL    HW2 1410   2.452   1.042   1.824 -0.2958 -2.4598 -0.3941
  471SOL     OW 1411   2.860   1.672   2.835 -0.5470  0.1330 -0.2850
  471SOL    HW1 1412   2.962   1.697   2.843  1.7249  0.4634  0.0784
  471SOL    HW2 1413   2.824   1.640   2.923  3.7542  1.4230  1.6913
  472SOL     OW 1414   0.680   2.158   0.541  0.1222 -0.4933 -0.3333
  472SOL    HW1 1415   0.693   2.112   0.452 -1.2192 -0.3920 -0.7202
  472SOL    HW2 1416   0.746   2.237   0.550  0.1830  0.8255 -1.7875
  473SOL     OW 1417   1.320   2.373   2.302 -0.2310 -0.2581 -1.0534
  473SOL    HW1 1418   1.346   2.289   2.349  0.5397 -1.6666  2.7523
  473SOL    HW2 1419   1.400   2.433   2.279 -2.1990 -3.1464  0.6684
  474SOL     OW 1420   0.637   2.797   2.659 -0.1141 -0.1095 -0.7601
  474SOL    HW1 1421   0.639   2.739   2.742 -0.9562 -0.4948 -1.6656
  474SOL    HW2 1422   0.639   2.892   2.689 -1.0174 -0.7500 -3.5713
  475SOL     OW 1423   0.754   1.781   2.856  0.1575 -0.6842 -0.0186
  475SOL    HW1 1424   0.836   1.792   2.914 -4.1875  0.0205  0.4670
  475SOL    HW2 1425   0.670   1.809   2.908 -1.1865  1.1030 -0.3859
  476SOL     OW 1426   0.654   0.651   0.963 -0.0216  0.0440 -0.0334
  476SOL    HW1 1427   0.620   0.715   1.038 -2.3390  0.1439  1.2040
  476SOL    HW2 1428   0.615   0.682   0.875  1.7973 -1.2139  1.3555
  477SOL     OW 1429   2.040   2.222   1.305  0.5094  0.1007  0.5244
  477SOL    HW1 1430   2.113   2.228   1.370  0.3964 -0.7554 -1.4937
  477SOL    HW2 1431   1.962   2.280   1.335 -1.1440  1.3598  0.8863
  478SOL     OW 1432   0.304   0.411   2.988 -0.5287  0.4267  0.3085
  478SOL    HW1 1433   0.209   0.444   2.993 -1.0869 -1.8972 -2.0981
  478SOL    HW2 1434   0.334   0.418   2.892 -1.1725  1.5453  0.4753
  479SOL     OW 1435   1.218   0.224   1.547 -0.2001  0.4261 -0.2164
  479SOL    HW1 1436   1.213   0.315   1.594  0.0303  1.9454  1.1221
  479SOL    HW2 1437   1.121   0.198   1.524  0.2229  0.7956  0.0226
  480SOL     OW 1438   2.767   2.254   0.342 -0.0580 -0.1235 -0.1896
  480SOL    HW1 1439   2.670   2.223   0.324 -0.8146 -2.3234 -1.7980
  480SOL    HW2 1440   2.833   2.174   0.331  1.9291  0.2955  1.2358
  481SOL     OW 1441   0.118   0.694   1.666  0.1821  0.2795  0.4799
  481SOL    HW1 1442   0.115   0.791   1.682  1.7199 -2.8244  0.6975
  481SOL    HW2 1443   0.060   0.657   1.738 -1.7857  0.9508  0.1170
  482SOL     OW 1444   0.998   2.931   1.225 -0.3440 -0.3328  0.1370
  482SOL    HW1 1445   0.919   2.981   1.186  1.1621 -1.1246 -0.2258
  482SOL    HW2 1446   0.969   2.866   1.297 -1.0188  2.4607 -2.1886
  483SOL     OW 1447   3.019   1.478   2.471  0.5129 -0.0641 -0.5171
  483SOL    HW1 1448   2.956   1.437   2.540 -1.5590 -0.1221  2.3375
  483SOL    HW2 1449   2.983   1.574   2.444  2.2163  1.7430 -1.2009
  484SOL     OW 1450   1.827   1.873   2.092 -0.0530 -0.4036 -0.5708
  484SOL    HW1 1451   1.802   1.776   2.110 -0.6933  0.5275  0.5062
  484SOL    HW2 1452   1.808   1.905   1.996  1.3603  1.0676 -0.9557
  485SOL     OW 1453   0.161   2.874   2.270 -0.0710 -0.3445  0.4316
  485SOL    HW1 1454   0.100   2.848   2.344  1.1740 -0.0552  0.1337
  485SOL    HW2 1455   0.253   2.830   2.288  2.3819 -0.7612  0.9017
  486SOL     OW 1456   0.996   0.053   0.737  0.2079 -0.7921  0.6048
  486SOL    HW1 1457   1.077   3.105   0.750 -1.3434  0.9397 -1.3938
  486SOL    HW2 1458   1.001   0.128   0.808 -0.2144  1.3743  1.4051
  487SOL     OW 1459   1.424   0.186   0.921 -0.0456 -0.2111 -0.0530
  487SOL    HW1 1460   1.474   0.182   0.831 -2.1094 -1.2749 -3.4920
  487SOL    HW2 1461   1.465   0.262   0.980 -0.8191  0.3699  2.8397
  488SOL     OW 1462   2.483   1.030   0.833 -0.2129 -0.5348  0.1846
  488SOL    HW1 1463   2.414   1.065   0.766 -0.4653  2.7806 -1.2755
  488SOL    HW2 1464   2.461   1.057   0.933  0.1394 -1.7995  0.8995
  489SOL     OW 1465   1.259   0.712   1.297  1.0803  0.1787 -0.2373
  489SOL    HW1 1466   1.246   0.773   1.214  0.0985  0.0674 -0.6433
  489SOL    HW2 1467   1.335   0.651   1.295 -3.8263  3.6009 -1.6714
  490SOL     OW 1468   0.816   0.563   2.961  0.0848  0.3725  0.2003
  490SOL    HW1 1469   0.914   0.537   2.975  0.5092  0.7262  0.2043
  490SOL    HW2 1470   0.768   0.576   3.049  1.8692  0.0808 -2.0322
  491SOL     OW 1471   0.920   2.834   0.380  0.0715 -0.3228  0.2342
  491SOL    HW1 1472   0.967   2.910   0.321 -1.0107  0.3499 -0.6294
  491SOL    HW2 1473   0.986   2.801   0.447 -3.3319 -0.5064  2.3017
  492SOL     OW 1474   1.347   1.685   1.542  0.2274 -0.2412 -0.6540
  492SOL    HW1 1475   1.326   1.668   1.638  2.3404  4.3741  2.0394
  492SOL    HW2 1476   1.385   1.603   1.496  1.9156  0.4167  3.3765
  493SOL     OW 1477   0.482   1.549   0.134 -0.2067 -0.6290  0.6880
  493SOL    HW1 1478   0.578   1.538   0.098  1.1776  0.9394  3.0641
  493SOL    HW2 1479   0.478   1.536   0.235  3.2922 -0.8602 -0.5262
  494SOL     OW 1480   1.880   2.332   0.483 -0.3327  0.4730  0.5264
  494SOL    HW1 1481   1.956   2.292   0.425  1.2460 -1.4624 -0.3656
  494SOL    HW2 1482   1.917   2.429   0.512  1.0589  2.5990  2.5442
  495SOL     OW 1483   0.510   1.556   2.459 -0.3392  0.2115 -0.4640
  495SOL    HW1 1484   0.559   1.626   2.511 -0.7077 -1.2158  0.0267
  495SOL    HW2 1485   0.418   1.547   2.503 -1.1902  2.3890 -1.9433
  496SOL     OW 1486   0.403   2.698   2.568 -0.1193 -0.0185 -0.1547
  496SOL    HW1 1487   0.499   2.727   2.584  0.3415  0.9653  0.9140
  496SOL    HW2 1488   0.389   2.685   2.468 -0.2089  2.0733  3.8956
  497SOL     OW 1489   1.613   1.310   0.498 -0.0057  0.2749 -0.3711
  497SOL    HW1 1490   1.564   1.271   0.417  0.5330 -2.7348 -0.1852
  497SOL    HW2 1491   1.703   1.264   0.509  1.0766 -0.7822 -1.1239
  498SOL     OW 1492   2.773   2.468   0.174 -0.2113  0.5570 -0.3092
  498SOL    HW1 1493   2.854   2.455   0.109 -0.2975 -2.6635 -0.4738
  498SOL    HW2 1494   2.771   2.393   0.242 -1.6108 -2.4712  1.0678
  499SOL     OW 1495   1.985   2.554   0.544 -0.1960  0.4870 -0.7255
  499SOL    HW1 1496   2.024   2.538   0.636 -1.7764 -2.4981  0.7467
  499SOL    HW2 1497   2.042   2.604   0.476 -0.6947  1.8899  1.1154
  500SOL     OW 1498   0.389   0.418   2.722  0.5497 -0.2759 -0.1506
  500SOL    HW1 1499   0.402   0.518   2.720 -1.3726 -2.7889 -1.7146
  500SOL    HW2 1500   0.459   0.368   2.668  0.5894  1.0374 -0.9493
  501SOL     OW 1501   1.877   2.685   1.689  0.7801  0.0422  0.0497
  501SOL    HW1 1502   1.969   2.714   1.706 -1.7191  3.5411 -0.3196
  501SOL    HW2 1503   1.812   2.754   1.730  0.8202  1.1859  1.6315
  502SOL     OW 1504   0.002   0.032   2.597 -0.3593 -0.3156 -0.1808
  502SOL    HW1 1505   3.079   0.093   2.669 -1.3716 -0.2971 -3.4134
  502SOL    HW2 1506   0.059   3.061   2.632  0.2948 -1.2978  1.7404
  503SOL     OW 1507   1.872   2.584   2.275  0.1548 -0.1691 -0.4089
  503SOL    HW1 1508   1.881   2.535   2.187 -3.1901 -0.4608  0.3468
  503SOL    HW2 1509   1.774   2.598   2.301 -0.9463 -0.2700  0.8649
  504SOL     OW 1510   2.185   0.252   1.782 -0.0070  0.2691 -0.5934
  504SOL    HW1 1511   2.128   0.186   1.836 -2.4402  1.0636  0.5285
  504SOL    HW2 1512   2.131   0.288   1.704 -2.4868  0.2952 -0.7090
  505SOL     OW 1513   2.458   1.402   1.340 -0.0453 -0.0618 -0.1347
  505SOL    HW1 1514   2.439   1.499   1.365 -0.5378  0.1170  1.2265
  505SOL    HW2 1515   2.454   1.387   1.239  2.1419  0.5368 -0.4046
  506SOL     OW 1516   0.023   1.737   1.589 -0.6422 -0.0458 -0.1480
  506SOL    HW1 1517   0.035   1.646   1.552  0.5139  1.0471  2.1045
  506SOL    HW2 1518   3.065   1.790   1.543  1.6887  3.1381  2.4579
  507SOL     OW 1519   0.464   2.289   1.452 -0.2694 -0.2219  0.8441
  507SOL    HW1 1520   0.493   2.296   1.549  1.3206 -0.9271 -1.5117
  507SOL    HW2 1521   0.442   2.374   1.407 -0.0981 -0.6493 -0.0801
  508SOL     OW 1522   0.681   0.610   1.733  0.5443  0.0187  0.2599
  508SOL    HW1 1523   0.694   0.599   1.834  1.2927  0.5100  0.7708
  508SOL    HW2 1524   0.585   0.628   1.700 -0.3775 -0.6224  0.3276
  509SOL     OW 1525   1.651   2.489   1.732  0.2757 -0.3032  0.2801
  509SOL    HW1 1526   1.558   2.534   1.729 -0.8200  0.8604  0.3282
  509SOL    HW2 1527   1.722   2.560   1.718  0.7055  1.7107  0.4912
  510SOL     OW 1528   2.602   1.320   2.505 -0.0250 -0.5941 -0.5249
  510SOL    HW1 1529   2.509   1.359   2.478 -1.1211  1.8324 -0.4487
  510SOL    HW2 1530   2.645   1.380   2.575  2.0100  0.2594 -2.1068
  511SOL     OW 1531   1.018   1.504   1.107 -0.5766  0.0977  0.3824
  511SOL    HW1 1532   1.095   1.442   1.145  2.0046  0.0211  2.1010
  511SOL    HW2 1533   0.982   1.564   1.180 -3.8336 -1.4887  2.1000
  512SOL     OW 1534   2.980   1.521   0.458  0.2918  0.0495 -0.2602
  512SOL    HW1 1535   2.981   1.470   0.548 -1.4143 -0.0265 -0.3812
  512SOL    HW2 1536   3.075   1.554   0.438 -0.2208 -1.6984 -0.3559
  513SOL     OW 1537   1.073   2.179   2.500 -0.1063  0.2274 -0.5296
  513SOL    HW1 1538   1.030   2.135   2.414  0.3363 -1.5869  1.9686
  513SOL    HW2 1539   1.090   2.276   2.475  2.2519 -1.7410 -0.1582
  514SOL     OW 1540   0.113   2.145   1.207 -0.2711  0.0447 -0.4929
  514SOL    HW1 1541   0.124   2.247   1.213  1.1916  0.8366  0.1637
  514SOL    HW2 1542   0.140   2.117   1.299  1.1153  1.0227  0.2323
  515SOL     OW 1543   1.875   0.861   1.751  0.1716  0.2485  0.1584
  515SOL    HW1 1544   1.786   0.869   1.796 -0.5226  0.9181 -2.9566
  515SOL    HW2 1545   1.893   0.946   1.694  0.6706  3.0519  1.4849
  516SOL     OW 1546   2.528   0.204   3.077 -0.2329  0.5899  0.7154
  516SOL    HW1 1547   2.555   0.258   2.996 -3.3742  1.4527 -1.5381
  516SOL    HW2 1548   2.600   0.194   0.040  0.1121 -1.5688 -1.1176
  517SOL     OW 1549   1.246   1.720   2.989  0.9222  0.2320 -0.8578
  517SOL    HW1 1550   1.312   1.661   3.040  1.5638 -1.5794  1.3557
  517SOL    HW2 1551   1.207   1.665   2.912 -1.0365  2.4207 -1.2617
  518SOL     OW 1552   1.575   0.005   1.433  0.1261  0.1155 -0.1369
  518SOL    HW1 1553   1.568   3.020   1.457 -0.9936  1.1969 -3.6268
  518SOL    HW2 1554   1.674   0.025   1.413  0.9531  1.0223  1.9594
  519SOL     OW 1555   2.245   2.749   0.903 -0.1305  0.2319 -0.4282
  519SOL    HW1 1556   2.338   2.712   0.880  0.4552  0.2406  0.2261
  519SOL    HW2 1557   2.214   2.811   0.827 -0.2880  2.3414  1.8193
  520SOL     OW 1558   2.751   1.983   1.908  0.4121 -0.8367  0.0119
  520SOL    HW1 1559   2.796   1.913   1.965 -0.1912 -2.9639 -0.6551
  520SOL    HW2 1560   2.658   1.998   1.951 -0.1166  1.5688 -0.7430
  521SOL     OW 1561   2.943   0.493   0.307  0.2419  0.0120  0.2481
  521SOL    HW1 1562   2.921   0.456   0.214  0.1643 -0.1463  0.1874
  521SOL    HW2 1563   2.859   0.518   0.362 -0.7536 -0.3190  2.1368
  522SOL     OW 1564   0.912   0.830   2.581 -0.3262  0.1764 -0.4392
  522SOL    HW1 1565   0.835   0.771   2.599 -0.7694  0.7615 -0.9938
  522SOL    HW2 1566   0.901   0.869   2.489  2.1221 -1.5254  1.6408
  523SOL     OW 1567   0.167   2.454   0.608  0.2292 -0.3295 -0.2244
  523SOL    HW1 1568   0.204   2.376   0.663 -1.2399 -1.3136 -2.0603
  523SOL    HW2 1569   0.183   2.434   0.510 -1.8021  2.2254  2.3323
  524SOL     OW 1570   1.945   2.753   2.989  0.5773 -0.4886  0.1055
  524SOL    HW1 1571   2.015   2.803   2.935  1.7318 -0.4392 -0.8541
  524SOL    HW2 1572   1.989   2.669   3.034 -0.2650 -0.9019 -1.8532
  525SOL     OW 1573   2.616   0.403   1.371 -0.2899 -0.3549 -0.3087
  525SOL    HW1 1574   2.690   0.432   1.313 -1.5096  0.9894 -0.9413
  525SOL    HW2 1575   2.534   0.468   1.375 -2.6328 -1.2577  4.2373
  526SOL     OW 1576   1.084   0.156   0.476 -0.2898  0.4956  0.2162
  526SOL    HW1 1577   1.049   0.154   0.568  0.2986 -1.3801 -0.8896
  526SOL    HW2 1578   1.169   0.098   0.481  0.1102  0.6947  0.7135
  527SOL     OW 1579   2.231   2.848   0.471  0.2186 -0.4277  0.4186
  527SOL    HW1 1580   2.153   2.798   0.426  0.4091  1.9971 -0.0009
  527SOL    HW2 1581   2.278   2.912   0.412  0.3509 -1.4625  0.5477
  528SOL     OW 1582   2.068   0.901   2.767 -0.1874 -0.0836 -0.0253
  528SOL    HW1 1583   2.033   0.938   2.854  0.7298 -1.2127 -2.0781
  528SOL    HW2 1584   2.001   0.908   2.690  0.0492 -1.3278  0.3630
  529SOL     OW 1585   1.754   1.480   2.408  0.0218  0.2291 -0.0085
  529SOL    HW1 1586   1.658   1.467   2.445 -0.7788 -2.9576 -2.5144
  529SOL    HW2 1587   1.773   1.400   2.352  1.7037 -0.6231  1.0191
  530SOL     OW 1588   2.509   2.798   2.979  0.1760  0.3537 -0.5779
  530SOL    HW1 1589   2.520   2.882   3.030 -0.4603  0.4667 -1.4282
  530SOL    HW2 1590   2.520   2.718   3.043  1.8578 -1.2090  0.8233
  531SOL     OW 1591   1.865   1.556   2.966 -0.1414 -0.9999  0.5899
  531SOL    HW1 1592   1.912   1.498   3.031 -0.6914 -0.6810 -0.1883
  531SOL    HW2 1593   1.859   1.648   3.006 -0.2928 -2.3447  2.7822
  532SOL     OW 1594   1.556   0.325   1.126  0.2320  0.1218 -0.6732
  532SOL    HW1 1595   1.487   0.313   1.203 -1.2290 -0.0289 -2.2749
  532SOL    HW2 1596   1.642   0.369   1.156 -1.3634  1.1257  1.7939
  533SOL     OW 1597   0.691   0.794   2.877  0.3034  0.2175 -0.3285
  533SOL    HW1 1598   0.728   0.708   2.924 -1.0741 -3.2292  2.3496
  533SOL    HW2 1599   0.736   0.879   2.902 -3.0788 -1.0714 -0.5662
  534SOL     OW 1600   1.380   0.603   3.097 -0.2780  0.3688 -0.6770
  534SOL    HW1 1601   1.385   0.565   3.004 -2.1262  1.6733  0.6929
  534SOL    HW2 1602   1.466   0.582   0.038  0.6787 -0.5757  0.3398
  535SOL     OW 1603   0.932   2.083   3.013  0.2381 -0.5505  0.0629
  535SOL    HW1 1604   0.845   2.104   3.063  2.1099 -2.7753 -0.7986
  535SOL    HW2 1605   0.965   1.987   3.047 -0.5515 -3.4825  1.2126
  536SOL     OW 1606   0.656   2.872   0.315 -0.0734  0.1455 -0.8060
  536SOL    HW1 1607   0.650   2.898   0.218  1.1427 -1.0277 -0.1599
  536SOL    HW2 1608   0.753   2.856   0.339 -1.7649  0.1924  0.5393
  537SOL     OW 1609   1.881   0.311   0.150  0.0011 -0.4739  0.0867
  537SOL    HW1 1610   1.946   0.264   0.211 -3.3449  0.8216 -0.1499
  537SOL    HW2 1611   1.913   0.410   0.134  0.8569 -0.3642  3.9134
  538SOL     OW 1612   2.394   2.330   2.930 -0.1712  0.3773  0.6786
  538SOL    HW1 1613   2.356   2.353   2.838  1.7087 -0.4887  0.1553
  538SOL    HW2 1614   2.322   2.339   3.003 -1.0690  0.1631  0.9864
  539SOL     OW 1615   2.614   1.380   3.086  0.3416 -0.1885 -0.0523
  539SOL    HW1 1616   2.644   1.370   0.070 -0.6057  3.3628  0.1801
  539SOL    HW2 1617   2.519   1.343   3.079  2.1171 -0.0698 -0.5343
  540SOL     OW 1618   0.591   2.948   1.859 -0.6966  0.2748  0.0327
  540SOL    HW1 1619   0.498   2.913   1.835  0.4451  3.4969  1.2626
  540SOL    HW2 1620   0.592   2.974   1.960  0.3475 -0.3402  0.1171
  541SOL     OW 1621   2.348   3.103   2.514  0.0747 -0.2611  0.3519
  541SOL    HW1 1622   2.328   0.037   2.599  1.1849 -2.1180 -4.1070
  541SOL    HW2 1623   2.274   3.036   2.495  1.9381 -0.2046 -1.4101
  542SOL     OW 1624   0.416   0.572   0.040 -0.2872  0.1867 -0.2488
  542SOL    HW1 1625   0.371   0.504   3.088 -1.4396  0.6127 -1.4289
  542SOL    HW2 1626   0.345   0.599   0.106  1.8189  2.7674  0.6897
  543SOL     OW 1627   0.402   0.985   0.774 -0.2707  0.0567 -0.1399
  543SOL    HW1 1628   0.302   1.001   0.762  1.2451  0.5770  0.1982
  543SOL    HW2 1629   0.447   1.031   0.848 -0.9391 -2.7107  0.3947
  544SOL     OW 1630   2.612   0.662   1.084 -0.1135  0.1903 -0.0108
  544SOL    HW1 1631   2.691   0.604   1.114  1.2210  0.0507  1.3868
  544SOL    HW2 1632   2.563   0.702   1.165 -1.6314  1.0371  1.0080
  545SOL     OW 1633   1.071   1.718   0.184 -0.5541  0.1284 -0.1897
  545SOL    HW1 1634   1.045   1.815   0.174  1.4846 -3.4791 -0.3654
  545SOL    HW2 1635   1.173   1.705   0.202  2.3034  1.0745  0.3753
  546SOL     OW 1636   2.427   2.512   1.442 -0.0123 -0.2695  0.3462
  546SOL    HW1 1637   2.362   2.459   1.498  1.1188  2.2772 -3.1163
  546SOL    HW2 1638   2.415   2.484   1.344 -0.9014 -0.7681 -3.2435
  547SOL     OW 1639   1.220   2.482   1.882  0.0486  0.0145  0.0267
  547SOL    HW1 1640   1.277   2.554   1.928 -1.3591  2.3640 -0.6480
  547SOL    HW2 1641   1.147   2.529   1.831  3.1302 -2.3735 -1.0520
  548SOL     OW 1642   1.655   0.714   2.851 -0.6109 -0.4553  0.2449
  548SOL    HW1 1643   1.745   0.668   2.846 -0.0580 -0.1623 -0.5814
  548SOL    HW2 1644   1.579   0.657   2.878  0.7002 -0.5475  1.6476
  549SOL     OW 1645   2.310   0.752   0.284  0.1626  0.4405 -0.3432
  549SOL    HW1 1646   2.338   0.665   0.335 -2.4408 -0.5411 -0.3358
  549SOL    HW2 1647   2.303   0.834   0.340  2.0059  1.7064  0.9984
  550SOL     OW 1648   2.303   1.328   0.250 -0.0310 -0.2219 -0.1014
  550SOL    HW1 1649   2.298   1.409   0.313  0.3484 -1.0234 -1.7739
  550SOL    HW2 1650   2.389   1.278   0.266  1.5377 -3.2220 -0.2340
  551SOL     OW 1651   1.843   0.384   1.376  0.0926 -0.1340 -0.2478
  551SOL    HW1 1652   1.798   0.443   1.443 -0.8317  1.1829 -0.9442
  551SOL    HW2 1653   1.846   0.429   1.289 -0.5711 -0.1938  3.0741
  552SOL     OW 1654   1.529   0.158   2.888 -0.2753 -0.5269 -0.3448
  552SOL    HW1 1655   1.577   0.248   2.891 -1.0434  1.1850  0.2462
  552SOL    HW2 1656   1.583   0.081   2.919  0.1513  0.0898 -1.9589
  553SOL     OW 1657   0.491   2.384   1.978  0.2827 -0.3004  0.1179
  553SOL    HW1 1658   0.492   2.310   2.050 -0.3959 -1.5719 -0.1965
  553SOL    HW2 1659   0.411   2.364   1.914 -0.3399  0.7822  0.1468
  554SOL     OW 1660   0.269   3.075   1.457 -0.3656  0.0266  0.4793
  554SOL    HW1 1661   0.207   0.016   1.399  3.7504  2.6680 -0.5894
  554SOL    HW2 1662   0.357   3.055   1.405 -1.2167  0.3379 -0.1414
  555SOL     OW 1663   2.514   1.810   2.117  0.2790  0.0459 -0.2155
  555SOL    HW1 1664   2.494   1.894   2.066  0.3954 -1.5240  0.5875
  555SOL    HW2 1665   2.500   1.724   2.066  0.3083 -2.0132 -2.0588
  556SOL     OW 1666   1.074   0.496   3.042 -0.0744 -0.0115 -0.7421
  556SOL    HW1 1667   1.119   0.587   3.042  0.2238 -1.6241 -1.0132
  556SOL    HW2 1668   1.111   0.445   0.011  0.3723  0.2009  0.1074
  557SOL     OW 1669   0.259   2.020   2.443  0.7881 -0.0268  0.5287
  557SOL    HW1 1670   0.308   1.995   2.358  0.9286  1.4536  2.2841
  557SOL    HW2 1671   0.171   1.968   2.454  2.3919 -0.4145  0.9418
  558SOL     OW 1672   1.926   0.671   2.892  0.5063  0.0010 -0.7149
  558SOL    HW1 1673   1.987   0.593   2.906  0.5893  3.4037 -1.4735
  558SOL    HW2 1674   1.969   0.753   2.856 -0.7123 -2.2294  1.7590
  559SOL     OW 1675   2.148   1.761   1.743 -0.1700  0.1285 -0.4738
  559SOL    HW1 1676   2.106   1.795   1.661  1.3409 -1.1383  0.2072
  559SOL    HW2 1677   2.082   1.773   1.818 -1.6544  0.7973  1.7013
  560SOL     OW 1678   2.027   1.003   1.955  0.1028  0.5730  0.7188
  560SOL    HW1 1679   1.974   0.944   1.887 -0.8901 -2.1139 -0.8883
  560SOL    HW2 1680   2.036   1.101   1.931  2.0025 -1.3156  1.2034
  561SOL     OW 1681   3.014   0.199   2.811 -0.5976 -0.2067  0.0864
  561SOL    HW1 1682   2.965   0.125   2.864  1.4782 -0.7735  1.2107
  561SOL    HW2 1683   3.031   0.273   2.875 -0.1054 -4.7722 -2.6396
  562SOL     OW 1684   1.053   1.796   1.478 -0.9312  0.1661  0.5990
  562SOL    HW1 1685   1.143   1.763   1.518  1.6486  2.6538  1.7223
  562SOL    HW2 1686   1.080   1.876   1.420 -0.1981  1.0423 -2.7876
  563SOL     OW 1687   1.031   0.288   0.139  0.2557 -0.6356 -0.0627
  563SOL    HW1 1688   1.081   0.285   0.230  1.8221 -0.0849  0.6966
  563SOL    HW2 1689   0.953   0.221   0.141 -0.4772 -0.6606  1.6130
  564SOL     OW 1690   3.050   2.389   0.715  0.3053 -0.3350 -0.0683
  564SOL    HW1 1691   0.033   2.406   0.684 -1.0439 -0.6033 -1.9395
  564SOL    HW2 1692   2.997   2.463   0.679 -0.5149 -1.7038  0.4476
  565SOL     OW 1693   0.602   2.212   1.217 -0.2508  0.5642  0.3451
  565SOL    HW1 1694   0.687   2.164   1.246  0.6328 -0.6849  0.8615
  565SOL    HW2 1695   0.539   2.237   1.292 -0.1872 -2.0302  1.3807
  566SOL     OW 1696   1.043   3.017   2.500  0.1289 -0.1171  0.2984
  566SOL    HW1 1697   1.033   3.080   2.582  0.7024  0.9878  2.4902
  566SOL    HW2 1698   0.962   3.013   2.439 -1.2327 -0.2255 -0.4731
  567SOL     OW 1699   2.156   3.099   1.001 -0.4722  0.2780  0.4851
  567SOL    HW1 1700   2.160   3.019   1.062  2.3549  1.0827  1.3898
  567SOL    HW2 1701   2.214   3.088   0.917  0.0623  1.6585  2.7464
  568SOL     OW 1702   1.736   1.644   0.757 -0.1447 -0.4219  1.1617
  568SOL    HW1 1703   1.800   1.695   0.695  1.0540 -2.0257  1.3028
  568SOL    HW2 1704   1.771   1.546   0.753 -1.2039 -1.6789 -1.0940
  569SOL     OW 1705   2.144   1.032   2.451  0.7065 -0.3325 -0.1112
  569SOL    HW1 1706   2.046   1.031   2.473  1.8726  0.0531  1.4001
  569SOL    HW2 1707   2.184   0.938   2.461  0.2431  0.2249 -0.0722
  570SOL     OW 1708   0.038   0.086   1.995  0.3727  0.7662 -0.4749
  570SOL    HW1 1709   3.083   0.152   2.030 -2.0311  1.5364  1.3340
  570SOL    HW2 1710   0.020   3.100   2.017  1.7200 -1.6678  0.3259
  571SOL     OW 1711   0.337   2.875   1.819  0.2530 -0.2854 -0.5676
  571SOL    HW1 1712   0.323   2.807   1.894 -0.6854 -1.1157 -0.4471
  571SOL    HW2 1713   0.287   2.851   1.736  2.0936  2.3889  1.7603
  572SOL     OW 1714   0.053   2.175   1.555  0.3572  0.2907  0.1538
  572SOL    HW1 1715   0.047   2.278   1.547 -0.4269  1.2717 -2.4924
  572SOL    HW2 1716   0.146   2.143   1.540 -0.1844 -0.3506  1.4542
  573SOL     OW 1717   1.325   0.906   2.827  0.4509  0.4690 -0.7086
  573SOL    HW1 1718   1.419   0.892   2.783  3.7148 -0.4920 -0.7671
  573SOL    HW2 1719   1.266   0.963   2.771  1.4659 -2.2018  0.5111
  574SOL     OW 1720   2.472   2.673   2.315  0.3443  0.1162 -0.0065
  574SOL    HW1 1721   2.553   2.686   2.255 -0.3010  0.8959 -0.5643
  574SOL    HW2 1722   2.395   2.629   2.265  0.6540  1.0812  0.7715
  575SOL     OW 1723   1.272   3.038   0.822 -0.4144  0.3597 -0.1307
  575SOL    HW1 1724   1.313   3.106   0.886 -0.1977 -0.2538  1.0404
  575SOL    HW2 1725   1.344   2.975   0.790  0.7490 -2.4582  0.6227
  576SOL     OW 1726   0.914   0.397   1.201 -0.7211 -0.5357  0.0659
  576SOL    HW1 1727   0.874   0.404   1.110  1.7331 -0.6614  1.4726
  576SOL    HW2 1728   0.994   0.339   1.207  0.3964  0.8733  2.2041
  577SOL     OW 1729   2.088   1.770   0.331  0.0028 -0.0449  0.3190
  577SOL    HW1 1730   2.171   1.778   0.266 -0.7644  2.3280 -2.2785
  577SOL    HW2 1731   2.051   1.679   0.343  2.5518 -0.3682  0.5282
  578SOL     OW 1732   2.138   0.550   1.197  0.2319 -0.1355 -0.1837
  578SOL    HW1 1733   2.139   0.584   1.294  1.7579 -0.1609  1.8180
  578SOL    HW2 1734   2.148   0.451   1.185 -0.4629  1.2112 -1.7306
  579SOL     OW 1735   1.908   0.936   2.544 -0.0502  0.4909 -0.1893
  579SOL    HW1 1736   1.898   0.932   2.441  0.2087 -0.4626 -0.2042
  579SOL    HW2 1737   1.843   1.004   2.579  0.5493  0.7414  2.7551
  580SOL     OW 1738   1.274   1.230   1.906 -0.1140 -0.0571  0.0525
  580SOL    HW1 1739   1.250   1.254   1.809 -1.9794 -1.0891  0.2148
  580SOL    HW2 1740   1.195   1.260   1.964 -0.1293  1.0124  1.6784
  581SOL     OW 1741   0.354   0.761   1.074 -0.3356  0.6276  0.3750
  581SOL    HW1 1742   0.267   0.816   1.075 -1.9866  0.7525  1.7619
  581SOL    HW2 1743   0.348   0.688   1.003 -2.0831  4.7949 -0.0992
  582SOL     OW 1744   2.739   0.551   1.884  0.3620 -0.0039  0.2280
  582SOL    HW1 1745   2.652   0.592   1.867  0.6371 -0.0820 -3.0375
  582SOL    HW2 1746   2.744   0.534   1.985  0.1988  2.3201  2.7770
  583SOL     OW 1747   3.097   0.376   2.574 -0.1481 -0.3807  0.0143
  583SOL    HW1 1748   3.021   0.442   2.592  3.3608 -1.9251 -0.3249
  583SOL    HW2 1749   3.108   0.308   2.649  1.4059  3.2059  1.8245
  584SOL     OW 1750   2.057   2.537   0.002  0.2866 -0.1977  0.1298
  584SOL    HW1 1751   2.111   2.451   0.007 -1.7726  1.4090  0.0715
  584SOL    HW2 1752   1.974   2.522   0.057  0.9012 -0.8143  0.8080
  585SOL     OW 1753   0.136   2.401   0.013 -0.3478  0.1234  0.0692
  585SOL    HW1 1754   0.140   2.299   0.017  0.2142  3.2396  0.2829
  585SOL    HW2 1755   0.206   2.439   0.077  0.5775 -3.3950 -0.6409
  586SOL     OW 1756   1.887   1.959   2.335  0.1459  0.1479 -0.2028
  586SOL    HW1 1757   1.861   1.922   2.245  0.4045 -0.3636 -0.0648
  586SOL    HW2 1758   1.986   1.978   2.333 -0.3240 -1.0225  0.4881
  587SOL     OW 1759   2.469   1.703   2.868 -0.7715  0.3488  0.1067
  587SOL    HW1 1760   2.511   1.685   2.774  1.4714 -2.2769 -0.4305
  587SOL    HW2 1761   2.413   1.620   2.893 -0.5333 -2.0234 -0.3818
  588SOL     OW 1762   3.051   0.150   1.371  0.5176  0.5179  0.6743
  588SOL    HW1 1763   3.088   0.108   1.286 -0.9519  0.6416 -0.1790
  588SOL    HW2 1764   0.008   0.214   1.406  0.8875  0.6548 -1.9364
  589SOL     OW 1765   0.714   0.296   0.729 -0.2510  0.2363 -0.1015
  589SOL    HW1 1766   0.777   0.344   0.670 -1.6591 -1.8841  2.0808
  589SOL    HW2 1767   0.625   0.269   0.680  0.0655  0.1927 -2.7331
  590SOL     OW 1768   2.428   2.116   0.877  0.2804  0.2543  0.0519
  590SOL    HW1 1769   2.372   2.154   0.797 -0.0346  1.6443 -2.4448
  590SOL    HW2 1770   2.490   2.046   0.835 -0.6790 -0.2702  0.1210
  591SOL     OW 1771   0.758   2.640   1.130  0.7960 -0.1305 -0.2746
  591SOL    HW1 1772   0.775   2.551   1.082  1.6908  0.5157 -0.3873
  591SOL    HW2 1773   0.795   2.721   1.074  1.7371  4.7492  1.3605
  592SOL     OW 1774   1.318   1.020   1.090  0.7418 -0.3968  0.3943
  592SOL    HW1 1775   1.383   1.038   1.168  1.1162 -1.6447 -1.1429
  592SOL    HW2 1776   1.235   0.972   1.122 -0.3764  1.0564 -0.6647
  593SOL     OW 1777   0.795   2.459   1.432  0.0435 -1.1157 -0.3591
  593SOL    HW1 1778   0.745   2.501   1.508  1.0013 -1.4259 -1.7618
  593SOL    HW2 1779   0.847   2.530   1.381  0.8993 -1.8027  0.0777
  594SOL     OW 1780   1.045   1.479   0.071 -0.1133 -0.4159 -0.0048
  594SOL    HW1 1781   1.125   1.415   0.073 -0.5082 -3.8846  2.0783
  594SOL    HW2 1782   1.065   1.565   0.122 -0.4769 -1.3322 -0.1036
  595SOL     OW 1783   1.599   1.235   1.679 -0.2479  0.3390 -0.0578
  595SOL    HW1 1784   1.624   1.308   1.747  2.5866 -0.1517  0.7448
  595SOL    HW2 1785   1.523   1.181   1.716  0.1836 -0.9289  1.4861
  596SOL     OW 1786   2.910   1.176   2.231  0.2117 -0.0679  0.2381
  596SOL    HW1 1787   2.966   1.164   2.317  0.7399 -2.5115  1.0050
  596SOL    HW2 1788   2.970   1.184   2.148 -0.2462 -1.4469 -0.0258
  597SOL     OW 1789   1.419   2.653   1.733  0.2035 -0.8672 -0.2938
  597SOL    HW1 1790   1.363   2.711   1.671 -1.1636  3.6564 -1.3120
  597SOL    HW2 1791   1.380   2.652   1.827 -2.0917 -0.0499 -1.0542
  598SOL     OW 1792   2.322   1.225   1.520 -0.5414  0.9812 -0.7456
  598SOL    HW1 1793   2.370   1.293   1.465 -2.6664 -1.2759  2.2694
  598SOL    HW2 1794   2.230   1.263   1.540 -0.8795 -0.7761  1.1645
  599SOL     OW 1795   0.862   2.480   3.032 -0.3067 -0.3985  0.3395
  599SOL    HW1 1796   0.957   2.497   3.056 -2.4238  1.8579  0.2212
  599SOL    HW2 1797   0.805   2.449   3.111  1.8423  0.3549 -1.4253
  600SOL     OW 1798   2.911   1.960   0.261 -0.0162  0.1211  0.1777
  600SOL    HW1 1799   2.853   1.889   0.309  0.4015 -0.4360  0.1994
  600SOL    HW2 1800   3.004   1.950   0.296  0.0526 -1.7697 -0.5801
  601SOL     OW 1801   0.517   1.024   1.377  0.6711 -0.1627  0.3513
  601SOL    HW1 1802   0.552   1.002   1.469  1.8268 -0.6514 -0.9381
  601SOL    HW2 1803   0.446   0.958   1.347 -2.3643  0.3308 -0.2743
  602SOL     OW 1804   0.694   0.096   1.336  0.3085  0.5153  0.2297
  602SOL    HW1 1805   0.682   0.096   1.436  0.7614  1.1054 -1.2008
  602SOL    HW2 1806   0.648   0.173   1.287  0.8022 -2.4308 -1.3669
  603SOL     OW 1807   0.407   3.055   2.766 -0.0604 -0.2383 -0.1424
  603SOL    HW1 1808   0.376   0.043   2.759 -2.0835  1.0239 -0.4778
  603SOL    HW2 1809   0.330   2.995   2.731 -0.4507 -2.8619 -1.2320
  604SOL     OW 1810   1.280   2.883   1.602 -0.1738  0.2184  0.2405
  604SOL    HW1 1811   1.239   2.904   1.509 -0.4824 -2.1699  1.1112
  604SOL    HW2 1812   1.205   2.903   1.669 -2.7034  0.7219 -1.4191
  605SOL     OW 1813   1.614   1.463   2.020  0.1859  0.1519  0.6310
  605SOL    HW1 1814   1.674   1.449   1.939 -0.6909  0.1553  1.9162
  605SOL    HW2 1815   1.570   1.375   2.046  1.1889  0.8654 -1.0322
  606SOL     OW 1816   2.092   2.924   2.858  0.4776  0.5396 -0.0086
  606SOL    HW1 1817   2.105   3.001   2.925  1.2905 -0.7425 -2.0405
  606SOL    HW2 1818   2.177   2.892   2.817 -3.2303  1.0492  0.4147
  607SOL     OW 1819   0.758   0.107   1.997  0.2505  0.3426  0.0748
  607SOL    HW1 1820   0.758   0.158   2.088 -3.9547  1.4725  0.7112
  607SOL    HW2 1821   0.756   0.174   1.919 -0.2266 -3.0790 -1.6831
  608SOL     OW 1822   0.003   2.125   1.977 -0.1289 -0.1304 -0.2890
  608SOL    HW1 1823   3.095   2.066   2.060 -1.1030 -1.8627 -0.5109
  608SOL    HW2 1824   0.064   2.078   1.915 -0.1537  0.6742 -1.0646
  609SOL     OW 1825   1.252   1.032   0.219  0.4585  0.0598  0.3234
  609SOL    HW1 1826   1.246   1.003   0.320  1.2799 -0.5371  0.7181
  609SOL    HW2 1827   1.182   0.983   0.158 -3.0342 -0.6019 -0.4022
  610SOL     OW 1828   0.368   2.829   1.092  0.7074  0.3861 -0.3748
  610SOL    HW1 1829   0.407   2.866   1.009 -2.4550 -1.2545  0.6114
  610SOL    HW2 1830   0.387   2.890   1.176  0.6238  0.5609  1.9404
  611SOL     OW 1831   1.086   1.603   0.542  0.3189  0.0618  0.3198
  611SOL    HW1 1832   1.153   1.569   0.477 -2.1402  1.0030  0.1521
  611SOL    HW2 1833   0.999   1.549   0.523  0.2088 -0.3370 -1.3831
  612SOL     OW 1834   2.157   2.004   0.487 -0.3202 -0.0688 -0.0226
  612SOL    HW1 1835   2.146   1.910   0.453  0.7405  0.9923  2.1193
  612SOL    HW2 1836   2.086   2.023   0.561 -1.8024  0.7437  1.4856
  613SOL     OW 1837   1.683   1.538   0.394 -0.2616  0.1803 -0.2013
  613SOL    HW1 1838   1.641   1.632   0.405  1.6177 -1.8645  1.7308
  613SOL    HW2 1839   1.626   1.469   0.448  1.7285 -0.2353  1.0009
  614SOL     OW 1840   2.629   0.595   2.579 -0.2799 -0.1585  0.2977
  614SOL    HW1 1841   2.552   0.531   2.571  0.0464  1.7433  2.9531
  614SOL    HW2 1842   2.711   0.568   2.521  0.5759 -2.0847 -1.9920
  615SOL     OW 1843   0.657   1.610   0.546  0.3347  0.7466 -0.7257
  615SOL    HW1 1844   0.691   1.659   0.461 -1.3147  1.0505  0.8734
  615SOL    HW2 1845   0.664   1.671   0.623 -1.8288 -0.0250 -2.8026
  616SOL     OW 1846   1.589   0.940   2.741  0.0116 -0.2265  0.2029
  616SOL    HW1 1847   1.660   1.020   2.742  3.0779  1.6302  4.0897
  616SOL    HW2 1848   1.622   0.852   2.781  2.7247 -0.9601 -0.6085
  617SOL     OW 1849   1.708   0.608   0.602 -0.7820  0.0545  0.3983
  617SOL    HW1 1850   1.705   0.709   0.621 -1.0407 -0.2684  1.3478
  617SOL    HW2 1851   1.652   0.576   0.522 -0.0809  1.3952 -1.9921
  618SOL     OW 1852   0.040   1.851   2.426  0.4093 -0.2238 -0.2518
  618SOL    HW1 1853   0.106   1.790   2.379  1.3203  1.8606  0.7788
  618SOL    HW2 1854   3.058   1.810   2.427  2.5220 -0.4791  0.9120
  619SOL     OW 1855   2.527   1.690   0.763  0.2785  0.4588  0.0824
  619SOL    HW1 1856   2.496   1.712   0.862  0.8639 -1.3637 -0.0229
  619SOL    HW2 1857   2.579   1.774   0.728  0.9209 -0.3665  1.2387
  620SOL     OW 1858   2.402   3.079   1.214 -0.2015  0.6557  0.4751
  620SOL    HW1 1859   2.438   3.080   1.309  1.2513  0.8021  0.2634
  620SOL    HW2 1860   2.309   0.011   1.209 -0.7996 -1.1390  0.2975
  621SOL     OW 1861   0.051   1.831   0.875 -0.0822 -0.2562  0.3848
  621SOL    HW1 1862   3.072   1.811   0.921  0.3727  1.5008  1.6913
  621SOL    HW2 1863   0.058   1.930   0.871 -1.1622  2.0627  0.6612
  622SOL     OW 1864   0.507   1.905   1.789  0.8294 -0.2706 -0.0349
  622SOL    HW1 1865   0.418   1.852   1.788 -0.7077  0.3336 -1.2288
  622SOL    HW2 1866   0.523   1.931   1.886 -1.0225 -0.6172  0.5158
  623SOL     OW 1867   2.352   2.954   2.164 -0.0286 -0.4331 -0.3616
  623SOL    HW1 1868   2.277   2.959   2.229  1.3960  1.1974 -1.5795
  623SOL    HW2 1869   2.422   3.032   2.175  1.6324  3.0356 -0.2943
  624SOL     OW 1870   0.753   1.970   0.327 -0.7162  0.2917 -0.1073
  624SOL    HW1 1871   0.766   1.869   0.340  0.2778  1.8834  1.2061
  624SOL    HW2 1872   0.822   2.008   0.260 -0.6791  0.9066 -0.4037
  625SOL     OW 1873   0.814   1.836   2.217  0.4438 -0.4183 -0.2592
  625SOL    HW1 1874   0.892   1.809   2.160 -2.1819 -0.8471  1.7425
  625SOL    HW2 1875   0.756   1.752   2.230  2.4796 -0.3848  0.1464
  626SOL     OW 1876   0.290   2.331   0.380  0.0647 -0.3206  0.3617
  626SOL    HW1 1877   0.388   2.337   0.398 -0.6513 -3.5811 -3.3863
  626SOL    HW2 1878   0.264   2.244   0.328  0.4363  0.1079  1.2247
  627SOL     OW 1879   1.354   1.673   2.498  0.4501  0.3344 -0.8471
  627SOL    HW1 1880   1.383   1.575   2.486 -0.4820  0.0348  0.5079
  627SOL    HW2 1881   1.250   1.677   2.508 -3.2069 -0.8629  0.4142
  628SOL     OW 1882   1.408   1.957   0.458  0.3404  0.7386 -0.7031
  628SOL    HW1 1883   1.323   1.906   0.482 -1.7313  0.6453  1.9620
  628SOL    HW2 1884   1.492   1.894   0.457  0.6581 -0.6080 -0.6672
  629SOL     OW 1885   0.897   0.559   2.185 -0.0030  0.1770  0.1348
  629SOL    HW1 1886   0.810   0.580   2.237 -2.4510  1.0842  1.2134
  629SOL    HW2 1887   0.969   0.528   2.244 -1.3698  1.9527 -2.2963
  630SOL     OW 1888   2.254   2.762   1.394 -0.2640 -0.0668 -0.7584
  630SOL    HW1 1889   2.271   2.826   1.472  2.4635  0.8496 -0.4743
  630SOL    HW2 1890   2.304   2.671   1.402  2.5156  0.0353  1.7679
  631SOL     OW 1891   1.573   0.968   0.880  0.6150 -0.2377 -0.2458
  631SOL    HW1 1892   1.490   0.916   0.859 -0.4865 -0.0131 -1.7280
  631SOL    HW2 1893   1.645   0.904   0.909  1.6766 -0.1143 -0.5003
  632SOL     OW 1894   2.193   0.487   2.089 -0.5703  0.0553  0.4948
  632SOL    HW1 1895   2.101   0.450   2.115 -1.8643  0.8676 -1.8015
  632SOL    HW2 1896   2.182   0.591   2.083 -0.7030  2.7114 -2.4080
  633SOL     OW 1897   1.673   1.212   3.091 -0.0421  0.0390  0.7345
  633SOL    HW1 1898   1.587   1.170   3.058  2.0927 -1.3740  0.6057
  633SOL    HW2 1899   1.743   1.209   3.018  2.1922  1.1912 -1.3155
  634SOL     OW 1900   0.225   2.055   0.282 -0.1517  0.2429 -0.1470
  634SOL    HW1 1901   0.323   2.032   0.272 -0.8460  0.9939 -0.1154
  634SOL    HW2 1902   0.193   2.108   0.200  1.3741 -0.1840  1.5262
  635SOL     OW 1903   2.790   1.597   2.178  0.5123  0.1447  0.1351
  635SOL    HW1 1904   2.823   1.538   2.100  0.6319 -0.1389 -3.2575
  635SOL    HW2 1905   2.696   1.561   2.201 -0.1197 -4.1912  3.4400
  636SOL     OW 1906   0.292   1.699   2.832  0.1084  0.2811 -0.1575
  636SOL    HW1 1907   0.287   1.604   2.801 -1.8891 -0.1137  2.1535
  636SOL    HW2 1908   0.313   1.761   2.754 -0.5114 -0.5390  0.9206
  637SOL     OW 1909   0.042   1.900   0.367  0.1584 -0.2213 -0.5416
  637SOL    HW1 1910   0.100   1.978   0.340  2.5620 -0.7044  0.1368
  637SOL    HW2 1911   0.091   1.850   0.440 -2.8522 -0.4421  0.3984
  638SOL     OW 1912   2.507   2.414   0.524  0.3225 -0.2075 -0.1678
  638SOL    HW1 1913   2.497   2.517   0.543  1.2195  3.4645  1.2351
  638SOL    HW2 1914   2.472   2.393   0.432 -0.4543 -1.0967  0.2180
  639SOL     OW 1915   0.904   0.698   0.245  0.3845  0.2093  0.0158
  639SOL    HW1 1916   0.950   0.782   0.206 -0.4158 -1.2695  0.5500
  639SOL    HW2 1917   0.913   0.615   0.187 -0.1990  1.0715 -1.1202
  640SOL     OW 1918   2.345   2.316   1.872  0.2520  0.0846  0.1770
  640SOL    HW1 1919   2.444   2.291   1.889  0.2156 -0.4494  0.7897
  640SOL    HW2 1920   2.320   2.330   1.772 -0.4124  1.6386  0.4127
  641SOL     OW 1921   2.428   2.818   1.152  0.4671  0.2427  0.1043
  641SOL    HW1 1922   2.457   2.919   1.141  0.4479  1.2861  0.2277
  641SOL    HW2 1923   2.374   2.800   1.234 -0.8437 -0.3107 -0.6573
  642SOL     OW 1924   0.855   1.088   1.678  0.1526  0.3172 -0.1069
  642SOL    HW1 1925   0.822   0.995   1.648  1.6081 -2.5548  1.2034
  642SOL    HW2 1926   0.936   1.115   1.619  0.6442 -0.0823 -3.3573
  643SOL     OW 1927   0.829   1.363   2.151  0.2118 -0.4340 -0.1867
  643SOL    HW1 1928   0.756   1.303   2.192  1.2530  0.0610 -0.2034
  643SOL    HW2 1929   0.841   1.345   2.052 -0.6604 -0.7741 -2.3975
  644SOL     OW 1930   0.864   0.256   2.192  0.2645 -0.2494  0.4730
  644SOL    HW1 1931   0.842   0.353   2.219 -0.5703  1.2513 -2.1243
  644SOL    HW2 1932   0.964   0.233   2.180 -1.7877 -1.4784  0.1433
  645SOL     OW 1933   1.976   1.092   1.610 -0.2052 -0.0242  0.2814
  645SOL    HW1 1934   1.892   1.102   1.555  0.2003  1.4637  4.4037
  645SOL    HW2 1935   2.015   1.183   1.635 -2.5092 -1.2133 -0.9453
  646SOL     OW 1936   1.825   2.462   0.115  0.4140  0.0350  0.4036
  646SOL    HW1 1937   1.801   2.468   0.017 -2.3084  2.4248  0.2582
  646SOL    HW2 1938   1.800   2.372   0.157  0.4507 -0.6858 -0.9116
  647SOL     OW 1939   1.662   2.774   0.565 -0.1320  0.0577 -0.3081
  647SOL    HW1 1940   1.701   2.726   0.650  0.2307 -1.7167 -0.2166
  647SOL    HW2 1941   1.691   2.719   0.487  0.6361 -1.3897  1.5969
  648SOL     OW 1942   0.321   2.597   1.415  0.5739  0.0431 -0.3282
  648SOL    HW1 1943   0.282   2.688   1.436 -0.8797 -3.2864 -1.0366
  648SOL    HW2 1944   0.259   2.551   1.351 -1.8514  0.7728 -1.5182
  649SOL     OW 1945   1.133   2.521   3.070 -0.8281  0.0024 -0.0501
  649SOL    HW1 1946   1.187   2.435   3.059 -2.5075  0.7038 -1.8174
  649SOL    HW2 1947   1.126   2.543   0.057  2.4017 -1.8805 -2.6654
  650SOL     OW 1948   2.729   1.644   3.107 -0.0178  0.2392  0.3404
  650SOL    HW1 1949   2.664   1.567   3.097  1.1534  1.1980  1.1531
  650SOL    HW2 1950   2.806   1.617   0.061  0.6627 -0.8740 -0.9042
  651SOL     OW 1951   2.381   2.262   2.320  0.3053  0.6412  0.0074
  651SOL    HW1 1952   2.474   2.285   2.300 -2.6284 -0.1519  0.4381
  651SOL    HW2 1953   2.361   2.228   2.415 -0.2200 -0.1827  1.0472
  652SOL     OW 1954   2.756   2.347   0.609  0.0140  0.2841 -0.0323
  652SOL    HW1 1955   2.652   2.351   0.600  0.2132 -0.5732 -3.1888
  652SOL    HW2 1956   2.797   2.312   0.521 -0.4925  1.6762  0.7931
  653SOL     OW 1957   2.270   1.891   1.357 -0.0611  0.5975 -0.6370
  653SOL    HW1 1958   2.295   1.940   1.272 -0.6309  1.8900  0.6476
  653SOL    HW2 1959   2.309   1.799   1.367 -2.5281  0.5142  0.4620
  654SOL     OW 1960   0.949   1.103   0.383  0.4968 -0.1036  0.1473
  654SOL    HW1 1961   0.932   1.012   0.417  1.1303  2.9550 -1.2230
  654SOL    HW2 1962   1.046   1.121   0.363 -3.0033 -0.5133  0.4805
  655SOL     OW 1963   1.542   1.385   0.748 -0.1288  0.5633  0.1720
  655SOL    HW1 1964   1.591   1.367   0.658 -0.1078  1.4750  2.5163
  655SOL    HW2 1965   1.474   1.466   0.741  0.3281  1.8400  4.1964
  656SOL     OW 1966   1.349   2.653   2.029 -0.3739  0.1998 -0.1794
  656SOL    HW1 1967   1.307   2.720   2.093  3.6858 -1.0166  3.1296
  656SOL    HW2 1968   1.423   2.606   2.080  1.5327 -0.2000 -1.9703
  657SOL     OW 1969   1.914   1.421   0.648  0.2487 -0.2168  0.3809
  657SOL    HW1 1970   1.899   1.320   0.650 -0.9850 -0.7830 -0.7760
  657SOL    HW2 1971   1.946   1.460   0.558 -3.9430  0.4693  1.4135
  658SOL     OW 1972   1.999   0.039   1.823  0.8124  0.0036  0.2482
  658SOL    HW1 1973   2.038   3.066   1.859  1.7658 -0.7423 -1.1217
  658SOL    HW2 1974   2.012   0.058   1.722  0.2025  1.4610 -3.1935
  659SOL     OW 1975   2.949   1.445   0.181 -0.7446 -0.1983  0.6135
  659SOL    HW1 1976   3.037   1.454   0.121  1.2088 -3.7483  0.2606
  659SOL    HW2 1977   2.955   1.494   0.268 -0.4974  0.0646  1.1056
  660SOL     OW 1978   1.085   0.206   0.952 -0.0753 -0.6542 -0.1748
  660SOL    HW1 1979   1.059   0.188   1.052 -3.0578 -1.7165  2.9033
  660SOL    HW2 1980   1.185   0.205   0.936 -1.5485  0.2127  0.2063
  661SOL     OW 1981   1.844   0.592   0.059  0.2280  0.2146 -0.3698
  661SOL    HW1 1982   1.921   0.596   0.121 -3.6667  2.7446 -2.6926
  661SOL    HW2 1983   1.876   0.627   3.081 -1.5692 -1.8229 -0.4697
  662SOL     OW 1984   0.332   3.056   0.492 -0.4740  0.2177  0.4323
  662SOL    HW1 1985   0.392   0.019   0.524  2.9314 -0.3064  0.7632
  662SOL    HW2 1986   0.370   2.964   0.522  2.6813 -0.7748 -1.1567
  663SOL     OW 1987   1.427   2.498   2.866 -0.1394  0.0978  0.1966
  663SOL    HW1 1988   1.326   2.502   2.841 -2.4700 -0.6024  0.0179
  663SOL    HW2 1989   1.479   2.412   2.846  1.0778 -1.0330 -1.4704
  664SOL     OW 1990   0.580   2.725   1.326  0.4962  0.3845  0.4150
  664SOL    HW1 1991   0.496   2.665   1.330 -1.9003  1.0429 -1.4125
  664SOL    HW2 1992   0.651   2.687   1.271 -0.0966  2.5846 -0.3520
  665SOL     OW 1993   1.636   2.830   1.079 -0.1267 -0.1853 -0.1827
  665SOL    HW1 1994   1.566   2.907   1.057 -0.8097  1.1253 -2.4066
  665SOL    HW2 1995   1.727   2.845   1.034  0.1529 -0.3407  1.1003
  666SOL     OW 1996   0.885   2.303   2.832 -0.6519  0.2421 -0.2457
  666SOL    HW1 1997   0.883   2.383   2.898 -1.8891  2.3831 -0.2094
  666SOL    HW2 1998   0.899   2.215   2.888  0.4740 -1.5125  0.1960
  667SOL     OW 1999   2.912   0.527   1.460 -0.7709  0.4229 -0.1373
  667SOL    HW1 2000   2.880   0.476   1.543  2.0711 -3.9738  0.8616
  667SOL    HW2 2001   3.010   0.556   1.475 -1.0402  2.6382  1.0620
  668SOL     OW 2002   1.168   0.451   1.690 -0.0535  0.1185 -0.0136
  668SOL    HW1 2003   1.098   0.505   1.650  0.6892 -0.7823  0.3033
  668SOL    HW2 2004   1.137   0.401   1.775  0.5778 -0.9634  0.0745
  669SOL     OW 2005   1.609   2.738   1.322 -0.1178  0.2919  0.0875
  669SOL    HW1 2006   1.555   2.789   1.391 -0.4525 -0.2498 -0.8609
  669SOL    HW2 2007   1.611   2.787   1.232  1.6750 -1.4257  2.0280
  670SOL     OW 2008   1.780   2.452   2.971  0.0332 -0.2684  0.1632
  670SOL    HW1 2009   1.708   2.405   2.918  0.6689  1.0540  0.5325
  670SOL    HW2 2010   1.817   2.536   2.921  1.0696 -2.2492 -0.7105
  671SOL     OW 2011   0.373   1.330   2.874  0.1539  1.0305  0.2138
  671SOL    HW1 2012   0.346   1.381   2.787  0.9837 -0.0012 -2.2982
  671SOL    HW2 2013   0.467   1.350   2.906  1.5939 -1.6366 -1.9621
  672SOL     OW 2014   2.486   0.556   2.818  0.1806  0.0204  0.3144
  672SOL    HW1 2015   2.505   0.570   2.918 -0.1383  0.0918  0.7754
  672SOL    HW2 2016   2.562   0.588   2.754  0.3555 -0.5123  1.9054
  673SOL     OW 2017   3.014   1.943   1.231 -0.0039 -0.3000 -0.1642
  673SOL    HW1 2018   3.004   1.941   1.334 -0.3551 -0.2353  2.6204
  673SOL    HW2 2019   3.090   2.006   1.214 -0.1869  1.6538  2.2123
  674SOL     OW 2020   1.408   2.135   1.592  0.0103 -0.0923 -0.3431
  674SOL    HW1 2021   1.361   2.104   1.678 -3.1345 -0.4412  1.0463
  674SOL    HW2 2022   1.388   2.065   1.519 -1.8804  1.1640 -1.2197
  675SOL     OW 2023   1.264   1.421   1.195  0.6858 -0.0759 -0.2907
  675SOL    HW1 2024   1.264   1.522   1.171 -0.8511  1.1239  1.0192
  675SOL    HW2 2025   1.267   1.368   1.109 -1.2131  0.7968  1.9910
  676SOL     OW 2026   2.548   0.757   0.828 -0.2399 -0.3028 -0.0573
  676SOL    HW1 2027   2.506   0.848   0.845  0.9050  2.2638  0.2108
  676SOL    HW2 2028   2.579   0.719   0.915  2.1925 -0.2858 -4.2814
  677SOL     OW 2029   2.521   0.334   0.363  0.2379  0.5424  0.2066
  677SOL    HW1 2030   2.600   0.322   0.426 -0.4557 -0.8946 -1.4023
  677SOL    HW2 2031   2.548   0.381   0.277  0.0276  0.0570  2.3361
  678SOL     OW 2032   2.482   1.124   1.078 -0.0524  0.6774  0.1982
  678SOL    HW1 2033   2.479   1.228   1.082 -0.1680 -0.2147  1.2623
  678SOL    HW2 2034   2.568   1.096   1.126  0.5153  1.1982  1.2928
  679SOL     OW 2035   2.582   0.445   0.134  0.3613 -0.1793  0.1545
  679SOL    HW1 2036   2.535   0.526   0.093 -1.5237 -2.9958  2.3008
  679SOL    HW2 2037   2.675   0.419   0.102 -0.0332 -1.3121  1.2292
  680SOL     OW 2038   0.699   1.592   2.252  0.1213 -0.2117  0.5434
  680SOL    HW1 2039   0.747   1.506   2.212  2.3210  0.3236 -1.2120
  680SOL    HW2 2040   0.648   1.570   2.336 -0.5069  1.0959 -0.8393
  681SOL     OW 2041   2.610   2.205   1.625  0.3441  0.3236  0.5637
  681SOL    HW1 2042   2.619   2.307   1.605 -2.4978  3.0992 -2.6670
  681SOL    HW2 2043   2.515   2.172   1.613  1.6674 -1.5464 -0.2827
  682SOL     OW 2044   0.617   1.728   2.626  0.0448  0.4672 -0.2357
  682SOL    HW1 2045   0.675   1.748   2.712  0.4208 -0.8804 -1.0158
  682SOL    HW2 2046   0.541   1.794   2.621  0.6566 -1.6101  3.5624
  683SOL     OW 2047   2.737   2.001   1.213  0.5973 -0.2896  0.0003
  683SOL    HW1 2048   2.834   1.990   1.227 -0.4184 -0.0721  1.2065
  683SOL    HW2 2049   2.703   2.094   1.242  2.4602 -1.5054 -0.4980
  684SOL     OW 2050   2.562   1.412   1.875 -0.0011  0.7171 -0.0692
  684SOL    HW1 2051   2.549   1.453   1.968  1.3012 -0.1044  2.2055
  684SOL    HW2 2052   2.630   1.337   1.877 -0.8199 -0.5815  2.9675
  685SOL     OW 2053   0.946   1.131   1.091 -0.1124 -0.6251  0.0227
  685SOL    HW1 2054   0.953   1.192   1.007 -1.3775  4.2797 -1.5710
  685SOL    HW2 2055   0.879   1.176   1.151 -1.6077 -0.9438 -3.0329
  686SOL     OW 2056   0.700   3.047   2.708 -0.3885  0.3475  0.7247
  686SOL    HW1 2057   0.783   3.047   2.769 -0.0736  0.4683  3.2060
  686SOL    HW2 2058   0.618   3.053   2.766  2.2301  0.4550  1.4773
  687SOL     OW 2059   0.604   1.984   2.032  0.1841  0.0993  0.0608
  687SOL    HW1 2060   0.653   2.054   1.979 -0.1206 -0.4309 -2.1985
  687SOL    HW2 2061   0.667   1.926   2.088  1.9900 -0.7111  2.4910
  688SOL     OW 2062   2.122   0.345   1.504  0.4314 -0.4617  0.3578
  688SOL    HW1 2063   2.025   0.366   1.479 -2.6540  0.2528  1.5899
  688SOL    HW2 2064   2.168   0.429   1.544 -2.5806 -1.3193  0.3180
  689SOL     OW 2065   1.971   0.681   0.761 -0.0594  0.1680 -1.0114
  689SOL    HW1 2066   1.873   0.687   0.790  1.0746  1.1549 -1.0974
  689SOL    HW2 2067   2.019   0.613   0.818 -1.1039  0.3296 -0.2737
  690SOL     OW 2068   2.845   0.776   1.338  0.4496 -0.1144 -0.4509
  690SOL    HW1 2069   2.872   0.750   1.241  0.4255 -0.8519 -1.7147
  690SOL    HW2 2070   2.863   0.697   1.402  3.0487 -1.4341  1.0816
  691SOL     OW 2071   3.073   0.923   2.025 -0.1387 -0.1957  0.1444
  691SOL    HW1 2072   3.046   1.020   2.024  0.4908  0.5466 -0.3369
  691SOL    HW2 2073   2.996   0.874   2.062  2.3434  0.5056 -0.4567
  692SOL     OW 2074   0.619   1.077   2.087  0.0289  0.3401 -0.7417
  692SOL    HW1 2075   0.624   1.139   2.167  1.1504 -1.0208 -1.0192
  692SOL    HW2 2076   0.705   1.087   2.030  0.1470  3.2438  1.2118
  693SOL     OW 2077   0.470   1.180   1.896 -0.4344  0.5419  0.4121
  693SOL    HW1 2078   0.528   1.140   1.971 -1.1872  1.2667 -2.0076
  693SOL    HW2 2079   0.396   1.236   1.932 -0.8683 -1.7108  1.4216
  694SOL     OW 2080   1.562   1.848   0.718  0.6338 -0.0465  0.0060
  694SOL    HW1 2081   1.620   1.771   0.755  0.6144 -0.5462  0.9703
  694SOL    HW2 2082   1.549   1.914   0.794 -2.5909  1.4068  0.9065
  695SOL     OW 2083   0.103   0.890   1.108 -0.8495  0.1086 -0.1755
  695SOL    HW1 2084   0.073   0.968   1.048  0.3034  2.1796 -1.6478
  695SOL    HW2 2085   0.043   0.814   1.087 -1.6925  0.8174  2.0517
  696SOL     OW 2086   0.833   2.386   0.581  0.0493 -0.6773  0.0527
  696SOL    HW1 2087   0.757   2.391   0.647  1.9646 -1.9002  0.1435
  696SOL    HW2 2088   0.914   2.409   0.638 -0.8737 -0.4888 -2.0344
  697SOL     OW 2089   1.254   0.805   1.525 -0.8818  0.8028 -0.0111
  697SOL    HW1 2090   1.267   0.903   1.509  3.0210 -2.8783 -1.5452
  697SOL    HW2 2091   1.255   0.758   1.433  1.1895 -0.9978  0.5813
  698SOL     OW 2092   1.836   1.579   1.635 -0.1465 -0.0140 -0.5018
  698SOL    HW1 2093   1.824   1.664   1.693  0.1861 -0.0551  2.2125
  698SOL    HW2 2094   1.807   1.594   1.535 -1.2967 -0.5432  1.3741
  699SOL     OW 2095   0.137   0.646   2.547  0.0815 -0.1976  0.2012
  699SOL    HW1 2096   0.116   0.549   2.568  1.7478 -2.1376 -0.4418
  699SOL    HW2 2097   0.063   0.707   2.582  1.7648 -1.7203 -0.3458
  700SOL     OW 2098   1.600   2.400   0.531  0.1110  0.4398 -0.1143
  700SOL    HW1 2099   1.648   2.465   0.470  0.5108  1.0968  2.8155
  700SOL    HW2 2100   1.515   2.369   0.479 -1.4644 -1.0472  0.5866
  701SOL     OW 2101   0.030   1.409   2.238  0.0435 -0.6609 -0.8168
  701SOL    HW1 2102   3.095   1.424   2.330  0.4876 -0.2729 -0.8960
  701SOL    HW2 2103   0.073   1.316   2.240 -0.5505 -0.8871  0.0441
  702SOL     OW 2104   0.623   0.086   3.066 -0.6618 -0.4705 -0.7179
  702SOL    HW1 2105   0.671   0.120   2.982  1.0138  0.3217 -0.1887
  702SOL    HW2 2106   0.533   0.125   3.093 -1.2427 -3.9019 -0.0407
  703SOL     OW 2107   1.450   0.512   2.840 -0.2138 -0.0579  0.2397
  703SOL    HW1 2108   1.540   0.466   2.858 -4.9572  1.4050 -0.6528
  703SOL    HW2 2109   1.394   0.468   2.771  2.2642  0.5579  0.3345
  704SOL     OW 2110   2.881   1.490   0.880  0.1290 -0.7126 -0.5555
  704SOL    HW1 2111   2.786   1.518   0.909 -1.0237 -0.5172  1.4949
  704SOL    HW2 2112   2.943   1.479   0.963  0.8775 -0.1369 -2.2478
  705SOL     OW 2113   2.479   2.057   1.969 -0.1830 -0.0740 -0.2708
  705SOL    HW1 2114   2.393   2.101   2.005 -1.7838 -0.5087  0.2400
  705SOL    HW2 2115   2.465   2.034   1.872 -0.2790  1.4811  2.5704
  706SOL     OW 2116   3.102   2.539   1.067 -0.8309  0.3031  0.6481
  706SOL    HW1 2117   0.006   2.614   1.003 -0.2583 -0.6478  0.3921
  706SOL    HW2 2118   3.043   2.470   1.020  0.6445 -0.4359  0.0162
  707SOL     OW 2119   1.141   2.840   0.145  0.4894  0.3302  0.0492
  707SOL    HW1 2120   1.244   2.853   0.144  0.7365 -0.5358  1.7113
  707SOL    HW2 2121   1.106   2.928   0.189  0.8330  2.6299  0.7537
  708SOL     OW 2122   0.764   2.256   1.633  0.3117 -0.5380 -0.5073
  708SOL    HW1 2123   0.818   2.323   1.574  0.1700 -0.8426 -0.8638
  708SOL    HW2 2124   0.672   2.300   1.649  3.3526  1.5940  1.6667
  709SOL     OW 2125   2.002   0.421   2.507  0.1352 -0.3778 -0.0917
  709SOL    HW1 2126   1.912   0.414   2.562 -3.1858 -0.3007  0.6455
  709SOL    HW2 2127   2.073   0.474   2.557  0.3647 -0.3994 -1.7549
  710SOL     OW 2128   1.124   2.722   2.543  0.4033 -0.4441 -0.0651
  710SOL    HW1 2129   1.096   2.815   2.520 -2.3496 -1.9357  1.7583
  710SOL    HW2 2130   1.110   2.715   2.641  0.2298  1.2195  0.2111
  711SOL     OW 2131   1.152   2.365   2.715  0.2230 -0.0702  0.0941
  711SOL    HW1 2132   1.132   2.408   2.622 -1.7668  0.8898  0.1612
  711SOL    HW2 2133   1.062   2.324   2.744  0.5485 -0.1688 -1.1541
  712SOL     OW 2134   1.235   1.920   2.815 -0.2023  0.5506 -0.2811
  712SOL    HW1 2135   1.147   1.918   2.768  0.4602  0.8633  1.6317
  712SOL    HW2 2136   1.238   1.846   2.888 -1.4011 -0.2735 -0.3039
  713SOL     OW 2137   0.845   1.059   1.955 -0.8778 -0.7685  0.4996
  713SOL    HW1 2138   0.862   1.098   1.862 -0.1586  3.3639  1.2955
  713SOL    HW2 2139   0.913   0.982   1.975  0.9511  0.5483  1.1254
  714SOL     OW 2140   1.579   2.006   0.952 -0.0342 -0.2361  0.0131
  714SOL    HW1 2141   1.676   2.036   0.967  2.1510 -0.1137 -1.4194
  714SOL    HW2 2142   1.550   1.951   1.035 -1.4568 -2.7580  0.5220
  715SOL     OW 2143   0.221   0.504   0.616 -0.3528 -0.4274  0.1785
  715SOL    HW1 2144   0.240   0.409   0.647  1.8738  0.9014  0.5591
  715SOL    HW2 2145   0.153   0.498   0.538 -0.0754  2.3376  1.6150
  716SOL     OW 2146   0.751   2.564   0.351  0.3110  0.2142  0.2211
  716SOL    HW1 2147   0.717   2.661   0.345  1.0003  1.1951  0.3652
  716SOL    HW2 2148   0.803   2.550   0.436 -0.6715 -1.3448 -0.6212
  717SOL     OW 2149   0.140   0.194   0.371 -0.0214  0.1914 -0.0895
  717SOL    HW1 2150   0.082   0.123   0.328 -0.0673  1.5169 -1.5643
  717SOL    HW2 2151   0.240   0.191   0.335 -0.0978  0.9353 -2.2927
  718SOL     OW 2152   1.706   2.259   1.133 -0.4789  0.3763  0.1770
  718SOL    HW1 2153   1.604   2.244   1.150  2.6855  0.2335 -0.2011
  718SOL    HW2 2154   1.744   2.331   1.192  0.6740  1.2537  0.1167
  719SOL     OW 2155   2.927   2.363   0.980  0.0739  0.2084 -0.1678
  719SOL    HW1 2156   2.852   2.293   0.984 -1.9765  0.2895 -0.5666
  719SOL    HW2 2157   2.957   2.366   0.880  0.4181 -3.9602  0.7883
  720SOL     OW 2158   1.301   1.280   0.950  0.1418  0.0746 -0.5234
  720SOL    HW1 2159   1.371   1.289   0.875  1.5019 -2.1313 -0.4662
  720SOL    HW2 2160   1.314   1.191   1.000 -2.8480  1.5602  0.1004
  721SOL     OW 2161   0.919   0.675   1.121  0.4459  0.2567 -0.3127
  721SOL    HW1 2162   0.832   0.657   1.065 -0.4556 -0.7164  1.3989
  721SOL    HW2 2163   0.954   0.589   1.159  0.7566 -1.3722 -2.8360
  722SOL     OW 2164   0.985   1.078   1.386  0.4611 -0.0118  0.0716
  722SOL    HW1 2165   1.078   1.089   1.426 -2.3772  0.7101 -2.8598
  722SOL    HW2 2166   0.981   1.088   1.284 -0.9524 -1.5759 -2.0357
  723SOL     OW 2167   0.978   0.107   1.500 -0.2941  0.2248 -0.1830
  723SOL    HW1 2168   0.929   0.196   1.483  1.0464 -0.9893  0.5878
  723SOL    HW2 2169   0.940   0.034   1.562 -1.6853 -0.0830  3.8262
  724SOL     OW 2170   1.955   2.075   1.790 -0.0873  0.3796 -0.0959
  724SOL    HW1 2171   2.018   2.021   1.846 -1.3214 -1.0599  1.1811
  724SOL    HW2 2172   1.945   2.035   1.699 -0.9724 -3.5595  2.1598
  725SOL     OW 2173   0.959   2.835   1.481  0.5680 -0.0123 -0.1240
  725SOL    HW1 2174   1.001   2.744   1.474 -0.3263 -2.1285 -0.1156
  725SOL    HW2 2175   0.863   2.820   1.517  0.3402 -0.8272  1.3264
  726SOL     OW 2176   1.524   0.538   0.398 -0.1203  0.4154  0.4908
  726SOL    HW1 2177   1.442   0.481   0.420  2.7615  0.8966  2.5930
  726SOL    HW2 2178   1.547   0.527   0.301  1.6099  0.1996  2.3083
  727SOL     OW 2179   1.400   2.184   0.851  0.2380  0.3484 -0.0214
  727SOL    HW1 2180   1.460   2.265   0.824 -0.1888  1.5750 -2.0543
  727SOL    HW2 2181   1.461   2.110   0.885 -1.8994 -0.1302 -1.1808
  728SOL     OW 2182   1.704   0.246   2.441  0.0324  0.2843  0.2439
  728SOL    HW1 2183   1.617   0.212   2.481 -1.2191  1.9961  0.8128
  728SOL    HW2 2184   1.780   0.177   2.437 -0.9822  0.3235  0.5886
  729SOL     OW 2185   2.449   1.400   1.060  0.1560 -0.0892  0.2674
  729SOL    HW1 2186   2.395   1.411   0.974  1.8288 -1.5626  1.4695
  729SOL    HW2 2187   2.531   1.461   1.047  0.0590 -0.5617  3.7710
  730SOL     OW 2188   2.320   0.990   2.756 -0.2554  0.0110  0.3988
  730SOL    HW1 2189   2.326   1.071   2.696 -1.4337  0.4802  0.6832
  730SOL    HW2 2190   2.220   0.971   2.771 -2.2615  0.1381 -1.1384
  731SOL     OW 2191   0.358   0.286   1.796  0.1849 -0.0179  0.2314
  731SOL    HW1 2192   0.375   0.318   1.700 -0.3622 -1.9264  0.7453
  731SOL    HW2 2193   0.319   0.190   1.794 -1.7200  0.9043  0.6341
  732SOL     OW 2194   1.794   0.490   1.141 -0.4091 -0.1653  0.2027
  732SOL    HW1 2195   1.854   0.574   1.142 -1.2731  1.0584  0.6515
  732SOL    HW2 2196   1.836   0.421   1.078  1.0058 -2.0692 -2.6716
  733SOL     OW 2197   0.814   1.328   1.847  0.0659 -0.0440  0.2666
  733SOL    HW1 2198   0.717   1.348   1.819 -0.5701  0.1601  1.6698
  733SOL    HW2 2199   0.855   1.252   1.795 -3.2729  0.9206  0.8413
  734SOL     OW 2200   2.534   1.784   0.411  0.7327 -0.1730  0.2715
  734SOL    HW1 2201   2.517   1.798   0.314  0.1556 -0.7313  1.1578
  734SOL    HW2 2202   2.507   1.863   0.471 -0.1383 -0.9658  2.1612
  735SOL     OW 2203   0.690   0.896   0.289  0.4085 -1.1240  0.5022
  735SOL    HW1 2204   0.732   0.934   0.374 -2.0563 -0.9501  2.0791
  735SOL    HW2 2205   0.744   0.823   0.243 -1.1763 -0.9019  0.2455
  736SOL     OW 2206   1.726   2.836   0.001 -0.0349  0.0600  0.0760
  736SOL    HW1 2207   1.806   2.810   3.054 -0.2482 -0.8078  0.4548
  736SOL    HW2 2208   1.655   2.767   3.092  0.2547 -0.1738  1.9532
  737SOL     OW 2209   1.155   2.140   0.990  0.0507 -0.0741 -0.4152
  737SOL    HW1 2210   1.149   2.040   1.016 -1.0174  0.6790  1.7377
  737SOL    HW2 2211   1.242   2.158   0.943 -2.0848 -0.7222 -1.5468
  738SOL     OW 2212   2.034   0.168   2.689  0.3668  0.2912 -0.1993
  738SOL    HW1 2213   2.033   0.257   2.642 -0.0837  0.1994  0.9965
  738SOL    HW2 2214   2.128   0.132   2.704  1.9729 -4.4296 -1.3095
  739SOL     OW 2215   1.808   2.267   2.622  0.3634 -0.3758 -0.4021
  739SOL    HW1 2216   1.756   2.221   2.551  2.3320  0.1157  1.1336
  739SOL    HW2 2217   1.865   2.350   2.590  1.5691  0.9214  0.3984
  740SOL     OW 2218   1.841   2.318   1.868 -0.0660  0.4253 -0.4841
  740SOL    HW1 2219   1.759   2.337   1.816  1.1135 -1.1560 -0.7785
  740SOL    HW2 2220   1.878   2.226   1.842  1.1712 -0.4950 -1.7887
  741SOL     OW 2221   2.336   2.003   2.516  0.5161  0.4186  0.1767
  741SOL    HW1 2222   2.261   1.979   2.588 -1.5374  0.2415  1.1461
  741SOL    HW2 2223   2.403   2.066   2.549 -2.2381 -2.2235 -0.6505
  742SOL     OW 2224   1.203   1.576   2.765 -0.2423 -0.2143  0.1227
  742SOL    HW1 2225   1.242   1.506   2.703 -1.4935 -0.3860  0.1291
  742SOL    HW2 2226   1.146   1.643   2.717  0.9484  0.0062  0.9273
  743SOL     OW 2227   1.527   1.337   2.783  0.1494  0.8352  0.4560
  743SOL    HW1 2228   1.479   1.271   2.842  0.4656 -2.1157 -0.6533
  743SOL    HW2 2229   1.544   1.433   2.823 -0.1090  0.1870 -0.6488
  744SOL     OW 2230   2.138   2.856   1.126  0.0470 -0.1406 -0.0839
  744SOL    HW1 2231   2.181   2.830   1.211 -1.0646  1.2944  0.4797
  744SOL    HW2 2232   2.174   2.803   1.044  0.2091 -1.7005  0.5285
  745SOL     OW 2233   2.774   1.023   0.849 -0.1602  0.6492 -0.8711
  745SOL    HW1 2234   2.675   1.048   0.846  0.7341 -0.5331 -1.4548
  745SOL    HW2 2235   2.834   1.093   0.811  1.1128 -0.4943 -0.6911
  746SOL     OW 2236   2.407   1.752   1.027  0.4144 -0.2555 -0.1615
  746SOL    HW1 2237   2.340   1.708   1.089  0.8563 -0.2845 -1.1148
  746SOL    HW2 2238   2.391   1.854   1.045 -0.7165 -0.8584  1.0773
  747SOL     OW 2239   1.649   0.147   0.095  0.4672 -0.7381  0.1792
  747SOL    HW1 2240   1.712   0.182   0.163 -1.7077  0.7168 -2.3262
  747SOL    HW2 2241   1.691   0.098   0.015 -1.7534 -0.4694  1.3591
  748SOL     OW 2242   0.733   1.432   0.011 -0.6813 -0.4216 -0.2869
  748SOL    HW1 2243   0.697   1.369   3.047 -0.9489 -1.1363 -1.2594
  748SOL    HW2 2244   0.813   1.388   0.059 -0.6660  1.0862 -0.2343
  749SOL     OW 2245   2.833   0.534   2.149 -0.6031  0.3073  0.4894
  749SOL    HW1 2246   2.762   0.526   2.220  0.3750  0.3840 -1.2097
  749SOL    HW2 2247   2.930   0.533   2.191  1.0964 -1.4482  0.8792
  750SOL     OW 2248   1.034   0.844   2.042 -0.2372  0.3438  0.1156
  750SOL    HW1 2249   0.984   0.768   2.082 -1.0839  0.1604 -1.1923
  750SOL    HW2 2250   1.081   0.820   1.954 -1.4969 -1.1319  0.1870
  751SOL     OW 2251   2.241   2.565   1.989  0.3430  0.3486 -0.8436
  751SOL    HW1 2252   2.264   2.476   1.941 -1.5886 -2.7049 -1.7837
  751SOL    HW2 2253   2.308   2.637   1.963 -0.7194  0.3979 -3.8184
  752SOL     OW 2254   1.903   1.425   0.986  0.1343 -0.3250  0.0961
  752SOL    HW1 2255   1.981   1.425   1.054  1.5520  3.1242 -0.3967
  752SOL    HW2 2256   1.915   1.503   0.917 -0.1137  2.3310  0.0478
  753SOL     OW 2257   1.113   1.048   2.197 -0.0827 -0.5256  0.9186
  753SOL    HW1 2258   1.086   0.985   2.122  2.6898 -1.0247 -1.5181
  753SOL    HW2 2259   1.164   0.996   2.266 -1.2544  0.5230 -1.3014
  754SOL     OW 2260   0.649   2.465   0.778 -0.0144 -0.0097  0.1412
  754SOL    HW1 2261   0.605   2.560   0.779 -0.3575  0.5441  4.4079
  754SOL    HW2 2262   0.679   2.453   0.874 -0.2000  0.0867 -1.7977
  755SOL     OW 2263   2.493   0.132   1.018 -0.2435  0.4956  0.1432
  755SOL    HW1 2264   2.458   0.094   0.929 -1.4944  0.5548  0.9395
  755SOL    HW2 2265   2.476   0.069   1.097  0.6988 -0.6487 -1.3056
  756SOL     OW 2266   2.137   2.004   2.283  0.2014 -0.2845  0.7220
  756SOL    HW1 2267   2.202   1.983   2.358  0.5738 -0.3943 -3.1080
  756SOL    HW2 2268   2.175   2.069   2.211  1.0217  0.2497 -0.5735
  757SOL     OW 2269   2.746   3.074   1.776 -0.2038  1.0136 -0.5272
  757SOL    HW1 2270   2.815   3.084   1.702 -1.3048 -1.1337 -0.8851
  757SOL    HW2 2271   2.747   0.055   1.826 -0.0041  0.9908  1.5209
  758SOL     OW 2272   0.399   2.555   1.095  0.1930 -0.6364 -0.1656
  758SOL    HW1 2273   0.458   2.520   1.022 -1.9753  0.3149 -2.4467
  758SOL    HW2 2274   0.391   2.657   1.105 -1.8275 -2.0760 -0.8327
  759SOL     OW 2275   1.958   0.976   1.182 -0.0883 -0.6138  0.4462
  759SOL    HW1 2276   1.927   1.036   1.104  0.9042  2.3621 -0.7082
  759SOL    HW2 2277   2.053   1.009   1.213  3.0362  1.7837  0.5112
  760SOL     OW 2278   1.403   0.585   1.627 -0.7739  0.3906 -0.5182
  760SOL    HW1 2279   1.329   0.525   1.664  1.0315 -1.0946  1.4627
  760SOL    HW2 2280   1.369   0.670   1.594  1.3913 -1.6109  2.3239
  761SOL     OW 2281   2.218   0.288   1.100 -0.5615 -0.1128 -0.4738
  761SOL    HW1 2282   2.316   0.319   1.086  2.2499 -0.2965 -0.4726
  761SOL    HW2 2283   2.183   0.238   1.019 -0.3393 -1.0647 -1.5036
  762SOL     OW 2284   1.746   0.142   0.468 -0.3474 -0.1226  0.0082
  762SOL    HW1 2285   1.842   0.160   0.494 -0.5044 -1.0581  2.0345
  762SOL    HW2 2286   1.733   0.049   0.428  1.6723 -1.0506  1.1596
  763SOL     OW 2287   0.865   0.354   1.468  0.2153  0.2429 -0.3405
  763SOL    HW1 2288   0.893   0.426   1.534  1.9918 -1.1158 -2.1081
  763SOL    HW2 2289   0.882   0.385   1.370  1.6589  0.8675 -1.4751
  764SOL     OW 2290   2.246   2.514   2.269  0.5356 -0.3479  0.4604
  764SOL    HW1 2291   2.282   2.414   2.282 -1.6453 -3.0905  0.4733
  764SOL    HW2 2292   2.218   2.525   2.168  0.4711 -0.0470 -0.0865
  765SOL     OW 2293   3.059   1.111   2.482 -0.0186 -0.5213  0.0521
  765SOL    HW1 2294   2.996   1.030   2.461 -1.0881  1.9319 -0.6865
  765SOL    HW2 2295   3.036   1.148   2.573  1.4201 -0.4316  0.4887
  766SOL     OW 2296   3.064   0.775   2.713 -0.2797  0.1547 -0.0528
  766SOL    HW1 2297   3.013   0.693   2.738 -1.2198  0.8627  1.5499
  766SOL    HW2 2298   3.005   0.837   2.661  2.0255 -2.7945  0.2260
  767SOL     OW 2299   0.263   2.315   1.860  1.0409 -0.4467  0.1217
  767SOL    HW1 2300   0.235   2.223   1.831  0.1409 -0.2436 -0.1781
  767SOL    HW2 2301   0.204   2.376   1.809  1.2557  2.5787  0.7037
  768SOL     OW 2302   1.031   0.868   0.084 -0.3292 -0.1930  0.2043
  768SOL    HW1 2303   1.068   0.818   0.005 -2.1311 -1.8468  0.7770
  768SOL    HW2 2304   0.996   0.960   0.059 -3.5119 -1.2856  1.9948
  769SOL     OW 2305   1.429   2.666   0.205 -0.7355 -0.7274  0.6189
  769SOL    HW1 2306   1.350   2.664   0.268 -0.1494  0.0006 -0.9254
  769SOL    HW2 2307   1.518   2.665   0.260  1.0494  2.3423  1.0237
  770SOL     OW 2308   1.113   0.133   2.172  0.2737 -0.2652 -1.2618
  770SOL    HW1 2309   1.209   0.099   2.170  2.6529  0.4188  0.4760
  770SOL    HW2 2310   1.045   0.070   2.132  0.9920 -1.3124  1.5776
  771SOL     OW 2311   0.860   2.785   0.715 -0.0024  0.1970 -0.3902
  771SOL    HW1 2312   0.957   2.746   0.714  1.3182 -0.8695  0.6785
  771SOL    HW2 2313   0.846   2.802   0.818 -0.6454  0.2458 -3.5742
  772SOL     OW 2314   2.740   0.977   0.142  0.0682  0.1939  0.4767
  772SOL    HW1 2315   2.805   1.034   0.081 -2.3948 -2.7926 -0.4829
  772SOL    HW2 2316   2.791   0.895   0.169  0.7398  2.7974 -2.1609
  773SOL     OW 2317   2.021   0.676   1.855 -0.1433 -0.3746 -0.6920
  773SOL    HW1 2318   2.045   0.709   1.953  0.1580 -1.2347  0.9048
  773SOL    HW2 2319   1.962   0.742   1.800  0.6553 -2.3959 -1.4750
  774SOL     OW 2320   0.483   0.242   0.608 -0.6418  0.4487  0.5107
  774SOL    HW1 2321   0.385   0.228   0.626  2.5039  0.4272 -1.9811
  774SOL    HW2 2322   0.489   0.306   0.524 -0.3640 -1.3274 -3.0705
  775SOL     OW 2323   1.608   0.177   0.721  0.2305  0.2616  0.1050
  775SOL    HW1 2324   1.644   0.270   0.744  0.2766  2.9344 -3.0534
  775SOL    HW2 2325   1.656   0.132   0.642  1.5223 -0.1055  0.6816
  776SOL     OW 2326   2.362   0.233   2.371  0.2617 -0.2495  0.0692
  776SOL    HW1 2327   2.384   0.268   2.277 -1.6148  0.4396  1.4077
  776SOL    HW2 2328   2.315   0.142   2.366  0.9399 -0.6173  0.6202
  777SOL     OW 2329   1.303   1.525   0.409 -0.3861 -0.1522 -0.2207
  777SOL    HW1 2330   1.332   1.596   0.343 -2.2320 -0.3394 -0.2509
  777SOL    HW2 2331   1.330   1.431   0.377  0.8360 -1.9677 -1.2490
  778SOL     OW 2332   0.293   2.520   0.181  0.4557 -0.3495 -0.3271
  778SOL    HW1 2333   0.305   2.457   0.260 -0.7949 -0.6954 -2.1934
  778SOL    HW2 2334   0.283   2.618   0.207 -0.0591 -2.6047 -2.8115
  779SOL     OW 2335   0.094   1.504   0.143  0.4419 -0.3578  0.3285
  779SOL    HW1 2336   0.167   1.457   0.087 -1.9310  0.4986 -2.0303
  779SOL    HW2 2337   0.126   1.537   0.233 -1.8719  1.7170 -0.2797
  780SOL     OW 2338   1.592   0.381   2.233  0.7114 -0.3145  0.1721
  780SOL    HW1 2339   1.594   0.307   2.158  0.9977  0.7259 -0.7251
  780SOL    HW2 2340   1.652   0.346   2.310  0.0081 -0.8600 -3.0194
  781SOL     OW 2341   1.814   1.799   1.159 -0.1192  0.1825  0.0681
  781SOL    HW1 2342   1.724   1.835   1.136  2.9009 -0.0860 -0.3743
  781SOL    HW2 2343   1.875   1.822   1.082 -0.6289 -0.7615  0.5838
  782SOL     OW 2344   1.973   2.491   2.040 -1.0091  0.5945 -0.2551
  782SOL    HW1 2345   1.923   2.443   1.967  2.2337 -3.8083  2.2732
  782SOL    HW2 2346   2.068   2.514   2.009  1.2466  0.6480  1.9070
  783SOL     OW 2347   1.305   0.605   1.983  0.2125 -0.2366  0.0063
  783SOL    HW1 2348   1.336   0.635   2.076 -3.7769  0.4274 -1.7416
  783SOL    HW2 2349   1.283   0.506   1.987 -0.9507 -1.7331  0.9209
  784SOL     OW 2350   1.409   0.993   1.928  0.2917  0.4642  0.3212
  784SOL    HW1 2351   1.359   1.080   1.940 -0.3507 -1.9178  1.5513
  784SOL    HW2 2352   1.339   0.924   1.892  1.0533 -0.2128 -1.2320
  785SOL     OW 2353   1.961   0.585   0.498  0.3606  0.3400  0.4006
  785SOL    HW1 2354   1.998   0.644   0.575 -0.7955  0.9934 -1.3664
  785SOL    HW2 2355   1.863   0.576   0.496  3.4717  1.0751  2.5208
  786SOL     OW 2356   3.105   1.170   0.601  0.0723  0.0321  0.0345
  786SOL    HW1 2357   3.076   1.120   0.517  1.6526 -1.7677 -1.7866
  786SOL    HW2 2358   3.032   1.232   0.635 -2.9956  1.9655  0.6273
  787SOL     OW 2359   1.690   1.796   0.053  0.2402 -0.0332  0.0818
  787SOL    HW1 2360   1.748   1.812   0.137  2.4378  0.1510  3.3581
  787SOL    HW2 2361   1.606   1.856   0.054 -0.3128  0.3753  0.5178
  788SOL     OW 2362   2.234   1.083   1.215 -0.0022 -0.1272  0.1789
  788SOL    HW1 2363   2.251   1.102   1.311 -0.1335 -0.1189 -1.0384
  788SOL    HW2 2364   2.321   1.077   1.156  2.0724 -1.1761 -0.2191
  789SOL     OW 2365   2.897   1.733   2.402 -0.2358 -0.1426 -0.4584
  789SOL    HW1 2366   2.839   1.814   2.435  0.4303  0.9792  1.3481
  789SOL    HW2 2367   2.866   1.689   2.317  1.1487 -0.4811  1.7913
  790SOL     OW 2368   0.764   2.997   2.458  0.1349  0.4443 -0.3091
  790SOL    HW1 2369   0.744   3.026   2.552  0.5723  1.0552  0.4097
  790SOL    HW2 2370   0.736   2.899   2.448  1.4939 -0.1722  0.4530
  791SOL     OW 2371   0.296   2.588   2.919 -0.8912  0.5605 -0.2714
  791SOL    HW1 2372   0.351   2.519   2.978 -1.7852 -1.5735  1.3372
  791SOL    HW2 2373   0.207   2.609   2.965 -0.4965  1.6746  5.3962
  792SOL     OW 2374   1.351   0.321   2.328  0.2264 -0.1006  0.1956
  792SOL    HW1 2375   1.445   0.356   2.308 -0.3980 -0.6169  2.4087
  792SOL    HW2 2376   1.360   0.240   2.383 -0.4211 -0.6826 -0.5293
  793SOL     OW 2377   2.602   0.077   2.459 -0.8917  0.3992  0.1817
  793SOL    HW1 2378   2.503   0.093   2.480  0.5930 -0.2184 -2.0686
  793SOL    HW2 2379   2.611   0.017   2.379 -0.2177  3.3944 -0.6037
  794SOL     OW 2380   0.484   0.346   2.063 -0.0951 -0.4368  0.1714
  794SOL    HW1 2381   0.496   0.328   1.965 -0.0783  1.5076  0.5955
  794SOL    HW2 2382   0.385   0.323   2.089 -0.5838 -0.7227 -0.1174
  795SOL     OW 2383   2.975   0.993   0.399  0.5761  0.5117  0.0232
  795SOL    HW1 2384   3.002   1.045   0.316 -1.7571 -2.0810  1.5378
  795SOL    HW2 2385   2.880   1.015   0.422  1.9357 -0.8682  1.0391
  796SOL     OW 2386   2.653   2.326   2.217 -0.2821 -0.2147  0.5408
  796SOL    HW1 2387   2.696   2.249   2.265 -0.9146 -0.3844 -2.2986
  796SOL    HW2 2388   2.711   2.410   2.238 -0.4764  3.2960  0.9212
  797SOL     OW 2389   2.973   2.104   0.048 -0.1921 -0.0081 -0.9636
  797SOL    HW1 2390   2.905   2.080   3.090 -1.2154  1.3698  0.9393
  797SOL    HW2 2391   2.948   2.055   0.140  1.2383 -1.6538  2.3161
  798SOL     OW 2392   0.352   0.740   1.897  0.3669  0.0969  0.4214
  798SOL    HW1 2393   0.414   0.731   1.975 -2.0393 -0.6360 -2.5555
  798SOL    HW2 2394   0.325   0.836   1.879  1.0898 -0.8574  1.0403
  799SOL     OW 2395   2.921   0.904   2.402 -0.0173  0.1053 -0.3215
  799SOL    HW1 2396   2.851   0.905   2.476 -0.5407  1.1223  0.0970
  799SOL    HW2 2397   2.886   0.907   2.306  2.2717 -0.8642  0.8967
  800SOL     OW 2398   3.081   2.147   0.593 -0.3421  0.6695  0.8602
  800SOL    HW1 2399   3.041   2.234   0.616 -0.3483 -3.4509 -1.3282
  800SOL    HW2 2400   0.071   2.141   0.604  2.2557  2.0319  0.2129
  801SOL     OW 2401   1.278   0.904   0.845 -0.0273  0.1757 -0.5917
  801SOL    HW1 2402   1.305   0.956   0.930 -1.5330  1.5941 -1.1204
  801SOL    HW2 2403   1.196   0.947   0.803  1.3926 -2.1438 -1.1610
  802SOL     OW 2404   1.853   2.093   0.974 -0.1294 -0.4390  1.2028
  802SOL    HW1 2405   1.811   2.156   1.042 -1.6785 -1.7361  1.6255
  802SOL    HW2 2406   1.952   2.106   0.962 -0.2806 -0.5667 -0.0078
  803SOL     OW 2407   0.161   1.556   0.407  0.3645  0.2301  0.5239
  803SOL    HW1 2408   0.171   1.466   0.457 -2.0535 -0.7138  1.3022
  803SOL    HW2 2409   0.162   1.637   0.468 -2.1217 -2.4222  1.7111
  804SOL     OW 2410   1.339   2.369   0.422 -0.1787  0.3502  0.1164
  804SOL    HW1 2411   1.278   2.335   0.499 -1.4373 -0.5212  0.7635
  804SOL    HW2 2412   1.309   2.466   0.397 -0.0744 -0.3776  2.2508
  805SOL     OW 2413   1.451   2.148   2.433  0.0634  0.8352 -0.3256
  805SOL    HW1 2414   1.423   2.147   2.531  0.0185 -1.9852 -0.4924
  805SOL    HW2 2415   1.556   2.154   2.429  1.7528 -3.0270 -0.0937
  806SOL     OW 2416   1.817   0.126   1.399 -0.6176 -0.4568  0.3571
  806SOL    HW1 2417   1.887   0.091   1.459 -4.1699 -1.2088 -2.3347
  806SOL    HW2 2418   1.825   0.229   1.387  1.4588  1.7605 -2.3026
  807SOL     OW 2419   2.070   3.069   0.173  0.2065 -0.1605  0.1905
  807SOL    HW1 2420   1.983   3.012   0.175  1.5425 -1.0288 -0.2212
  807SOL    HW2 2421   2.147   3.006   0.195  0.3984  0.7065  1.2991
  808SOL     OW 2422   0.512   1.781   3.013 -0.1133  0.0437 -0.2102
  808SOL    HW1 2423   0.442   1.744   2.953  0.6786  0.1742  4.3938
  808SOL    HW2 2424   0.470   1.840   3.083  0.5264 -1.8116 -0.0650
  809SOL     OW 2425   0.041   1.142   2.753 -0.3456  0.1023  0.0603
  809SOL    HW1 2426   0.130   1.117   2.711 -0.6249 -2.4517 -2.5712
  809SOL    HW2 2427   0.009   1.062   2.804 -0.5672 -0.8721  0.7006
  810SOL     OW 2428   2.898   0.550   2.743 -0.2801 -0.7364  0.4446
  810SOL    HW1 2429   2.863   0.457   2.747  0.0590  2.0887  0.9840
  810SOL    HW2 2430   2.863   0.597   2.661 -1.2436  1.3793  1.4611
  811SOL     OW 2431   2.011   2.412   1.681 -0.1973  0.4748  0.2311
  811SOL    HW1 2432   1.952   2.486   1.649  0.3729  1.6153  0.7631
  811SOL    HW2 2433   1.960   2.356   1.750  1.0834  2.0363  1.1295
  812SOL     OW 2434   1.084   0.481   0.471 -0.1060  0.2747 -0.4081
  812SOL    HW1 2435   1.116   0.561   0.530  1.3034  1.3919 -0.4396
  812SOL    HW2 2436   1.158   0.416   0.459 -1.9297  0.0103  0.6358
  813SOL     OW 2437   1.813   0.523   2.040 -0.0592 -0.0593 -0.0798
  813SOL    HW1 2438   1.722   0.568   2.014 -3.7168  1.8635 -1.1550
  813SOL    HW2 2439   1.883   0.538   1.968  1.0497  1.0361  0.9404
  814SOL     OW 2440   1.948   0.723   1.104  0.1230  0.1273 -0.1367
  814SOL    HW1 2441   2.020   0.668   1.144  1.3369  0.8148 -0.6257
  814SOL    HW2 2442   1.947   0.818   1.140 -1.2276 -1.8638  1.6633
  815SOL     OW 2443   0.509   1.099   0.521 -0.7314  0.0428 -0.2492
  815SOL    HW1 2444   0.488   1.059   0.610 -0.3204 -1.1244 -1.3130
  815SOL    HW2 2445   0.437   1.104   0.447 -3.1039 -0.2708 -1.4721
  816SOL     OW 2446   2.213   2.312   0.039 -0.0830  0.3111 -0.4321
  816SOL    HW1 2447   2.161   2.227   0.051  0.1233 -0.6306  0.8583
  816SOL    HW2 2448   2.264   2.333   0.124 -0.7317 -1.0636  0.6807
  817SOL     OW 2449   2.784   2.438   1.233 -0.1971  0.0709  0.1022
  817SOL    HW1 2450   2.810   2.369   1.167  1.4357 -0.0857  4.0688
  817SOL    HW2 2451   2.870   2.471   1.275  0.2647  0.3539 -1.0672
  818SOL     OW 2452   1.674   0.887   3.098  0.0874  0.1144 -0.5565
  818SOL    HW1 2453   1.585   0.911   0.028  3.8528  2.6886 -2.0602
  818SOL    HW2 2454   1.673   0.819   3.024  0.5215 -2.7891  1.3398
  819SOL     OW 2455   0.594   0.797   0.739 -0.3250  0.1991  0.4319
  819SOL    HW1 2456   0.533   0.875   0.772  1.3449  0.5051 -0.4500
  819SOL    HW2 2457   0.545   0.742   0.669  2.3455  1.9508  3.0837
  820SOL     OW 2458   2.006   0.675   1.404 -0.3746 -0.0440  0.1610
  820SOL    HW1 2459   2.060   0.758   1.426  0.4027 -0.9822 -0.1082
  820SOL    HW2 2460   1.998   0.615   1.490  0.0208 -1.0449  0.2477
  821SOL     OW 2461   3.009   0.071   0.900  0.3070  0.1186 -0.1281
  821SOL    HW1 2462   2.923   0.041   0.945  2.1275  0.4067  0.5857
  821SOL    HW2 2463   3.059   3.110   0.855 -1.7230  2.3516 -0.4374
  822SOL     OW 2464   0.755   2.255   2.372  0.6553  0.2979 -0.1977
  822SOL    HW1 2465   0.794   2.347   2.381  1.3454 -1.7139 -0.0271
  822SOL    HW2 2466   0.657   2.254   2.339 -0.0347  2.9667  0.1857
  823SOL     OW 2467   2.971   1.150   1.662  0.0537 -0.0517 -0.8350
  823SOL    HW1 2468   2.987   1.052   1.620  0.9476 -3.2490 -0.2729
  823SOL    HW2 2469   3.047   1.175   1.728  1.3595 -1.1960  1.2022
  824SOL     OW 2470   0.705   2.723   2.419  0.0125  0.5485 -0.2927
  824SOL    HW1 2471   0.676   2.741   2.518 -0.1284 -0.5325  1.7027
  824SOL    HW2 2472   0.735   2.624   2.407 -0.6810 -2.0553 -1.1461
  825SOL     OW 2473   1.594   1.565   2.875 -0.2061  0.1965  0.0185
  825SOL    HW1 2474   1.565   1.640   2.817 -1.3159 -2.8158  4.5851
  825SOL    HW2 2475   1.682   1.584   2.923 -0.1197  1.9930  0.4642
  826SOL     OW 2476   1.250   2.288   0.063  0.2418  0.0297  0.2245
  826SOL    HW1 2477   1.189   2.282   0.143  0.1393  0.9990 -0.1792
  826SOL    HW2 2478   1.341   2.286   0.100 -2.6732  2.4089  1.2982
  827SOL     OW 2479   0.226   1.422   1.716  0.6027  0.0053 -0.5235
  827SOL    HW1 2480   0.195   1.461   1.629 -0.9614 -1.5214 -0.1853
  827SOL    HW2 2481   0.265   1.495   1.771  1.6750  0.6069  2.3638
  828SOL     OW 2482   0.247   1.502   1.221 -0.0751 -0.1062  0.7862
  828SOL    HW1 2483   0.261   1.406   1.183  0.5218 -1.3817  0.3629
  828SOL    HW2 2484   0.226   1.572   1.148  3.6638 -0.4842 -0.0587
  829SOL     OW 2485   2.965   2.440   3.109  0.4175 -0.6417  0.6199
  829SOL    HW1 2486   3.058   2.409   0.024 -0.2564  1.2945  2.6334
  829SOL    HW2 2487   2.933   2.383   3.027 -1.5824 -1.9882 -1.9723
  830SOL     OW 2488   1.193   0.666   0.621  0.0009 -0.3653  0.5529
  830SOL    HW1 2489   1.189   0.765   0.590 -0.1728 -0.5879  0.7608
  830SOL    HW2 2490   1.264   0.657   0.693  0.8043  3.5075  0.2371
  831SOL     OW 2491   2.895   2.275   2.887  0.1271  0.0597  0.3103
  831SOL    HW1 2492   2.879   2.172   2.911 -0.3600 -1.9728  2.1338
  831SOL    HW2 2493   2.807   2.322   2.880  0.7005  1.1569  1.9323
  832SOL     OW 2494   1.730   2.577   0.370 -0.2133 -0.0425 -0.0796
  832SOL    HW1 2495   1.747   2.548   0.275 -2.0377  1.8435 -1.0409
  832SOL    HW2 2496   1.801   2.547   0.436 -1.4086  2.0009  0.9704
  833SOL     OW 2497   0.417   1.328   2.332 -0.0958 -0.3831 -0.3299
  833SOL    HW1 2498   0.460   1.407   2.378  2.7003 -0.7300 -1.2086
  833SOL    HW2 2499   0.347   1.286   2.389  1.5700  1.2895 -0.9093
  834SOL     OW 2500   2.357   0.538   0.447  0.4366  0.7349  0.5536
  834SOL    HW1 2501   2.286   0.513   0.520 -1.4007 -0.5987  0.9501
  834SOL    HW2 2502   2.416   0.453   0.428 -0.4325  1.8458 -1.0353
  835SOL     OW 2503   2.122   0.761   2.103 -0.7548  0.8377 -0.5692
  835SOL    HW1 2504   2.202   0.825   2.095 -2.0220  0.2143  1.0226
  835SOL    HW2 2505   2.054   0.808   2.162 -0.0387  0.2924 -1.5969
  836SOL     OW 2506   0.791   2.047   0.883 -0.1008  0.2399  0.3627
  836SOL    HW1 2507   0.698   2.089   0.892 -1.8424 -1.1204  1.8731
  836SOL    HW2 2508   0.865   2.114   0.891 -0.0040 -1.5824  2.8374
  837SOL     OW 2509   2.288   1.323   1.809 -0.1029  0.0385 -0.3350
  837SOL    HW1 2510   2.357   1.325   1.735  1.0245  1.3171 -0.2771
  837SOL    HW2 2511   2.293   1.403   1.866 -1.1830 -0.1392  1.6629
  838SOL     OW 2512   0.114   1.143   2.249 -0.2549 -0.0247 -0.3373
  838SOL    HW1 2513   0.178   1.095   2.185  5.1650  1.4990 -1.2169
  838SOL    HW2 2514   0.077   1.077   2.317  0.7900 -0.1536 -0.1461
  839SOL     OW 2515   0.030   2.927   3.013 -0.3648 -0.0536  0.4366
  839SOL    HW1 2516   0.071   2.847   3.061  1.4773 -3.3190  1.3585
  839SOL    HW2 2517   0.092   3.010   3.011 -0.9315  0.9061  2.6413
  840SOL     OW 2518   2.968   1.340   2.708 -0.1588 -0.5329 -0.1661
  840SOL    HW1 2519   3.050   1.282   2.717 -1.7711  0.3565  0.8287
  840SOL    HW2 2520   2.906   1.330   2.791  1.8241  0.9032  2.8978
  841SOL     OW 2521   0.458   2.142   2.771  0.2251 -0.2924 -0.4932
  841SOL    HW1 2522   0.408   2.224   2.738  0.5259 -3.1572  1.5996
  841SOL    HW2 2523   0.558   2.137   2.744  1.1361  1.0849 -0.1502
  842SOL     OW 2524   0.811   3.109   1.079 -0.5273  0.2152 -0.0114
  842SOL    HW1 2525   0.778   0.039   1.166  0.2924 -0.3862 -2.9276
  842SOL    HW2 2526   0.753   0.020   0.998 -3.7344 -2.1199 -0.7901
  843SOL     OW 2527   3.000   1.462   2.015 -0.6252 -0.3427  0.0317
  843SOL    HW1 2528   3.034   1.524   1.943 -3.0076  0.6255 -1.8511
  843SOL    HW2 2529   3.071   1.452   2.090  0.0412  1.7070  0.8188
  844SOL     OW 2530   1.719   2.157   2.390  0.2068  0.1264  0.0751
  844SOL    HW1 2531   1.715   2.221   2.312 -2.1412  1.7366  1.7628
  844SOL    HW2 2532   1.791   2.084   2.381 -2.4029  1.1432 -3.4695
  845SOL     OW 2533   1.603   3.039   2.415 -0.1853  0.0387 -0.1452
  845SOL    HW1 2534   1.507   3.056   2.439  2.2994  1.1945  2.1540
  845SOL    HW2 2535   1.646   3.000   2.502  0.5437  0.0313 -0.5562
  846SOL     OW 2536   2.365   1.705   0.172 -0.2015  0.2523  0.0048
  846SOL    HW1 2537   2.302   1.629   0.140  0.3139 -1.6031 -1.8838
  846SOL    HW2 2538   2.424   1.756   0.105 -2.1643  0.6532 -0.0595
  847SOL     OW 2539   2.332   0.119   2.781  0.2450 -0.1080  0.9714
  847SOL    HW1 2540   2.338   0.063   2.865 -0.6813  2.6351  0.7372
  847SOL    HW2 2541   2.370   0.212   2.798 -1.3600  2.3086  1.2312
  848SOL     OW 2542   2.037   0.542   0.240 -0.2867  0.2339  0.1344
  848SOL    HW1 2543   2.028   0.545   0.342  1.3622 -0.4957  1.2563
  848SOL    HW2 2544   2.133   0.506   0.217  1.8589 -1.7553 -1.2968
  849SOL     OW 2545   1.151   3.002   2.889  0.4547  0.4580  0.6425
  849SOL    HW1 2546   1.215   2.951   2.835 -0.6650  0.0763  0.7548
  849SOL    HW2 2547   1.108   2.945   2.965 -0.7152 -1.6056  1.2860
  850SOL     OW 2548   0.086   0.462   0.401  0.3480 -0.2402  0.2841
  850SOL    HW1 2549   0.127   0.370   0.385 -0.0226  0.7160 -0.2025
  850SOL    HW2 2550   3.095   0.456   0.386 -0.0180 -0.5586 -0.2689
  851SOL     OW 2551   0.221   1.215   1.431  0.0520  0.0526 -0.1397
  851SOL    HW1 2552   0.290   1.236   1.359 -0.1185  1.3953  0.1940
  851SOL    HW2 2553   0.171   1.298   1.458  1.3786 -0.7362  1.0103
  852SOL     OW 2554   1.326   0.880   2.371  0.2389 -0.4962  0.0499
  852SOL    HW1 2555   1.368   0.831   2.293  0.9445  0.7847 -1.8639
  852SOL    HW2 2556   1.248   0.830   2.409  2.8301  0.6353 -2.6841
  853SOL     OW 2557   2.318   1.450   2.901  0.2252  0.2426  0.2103
  853SOL    HW1 2558   2.310   1.380   2.976 -0.7901  1.6233 -1.6850
  853SOL    HW2 2559   2.224   1.464   2.851 -3.5063  1.2336 -0.9750
  854SOL     OW 2560   1.287   1.317   1.653  0.2277 -0.0581 -0.0617
  854SOL    HW1 2561   1.338   1.358   1.578 -2.1675 -0.3272 -1.3777
  854SOL    HW2 2562   1.268   1.384   1.728 -1.6430 -0.0786 -0.6171
  855SOL     OW 2563   0.166   2.028   1.769  0.3862  0.1832 -0.6615
  855SOL    HW1 2564   0.098   2.059   1.701  0.5858 -3.3700  0.4963
  855SOL    HW2 2565   0.222   1.947   1.738 -0.7873  1.9560  0.6947
  856SOL     OW 2566   1.211   1.138   2.628 -0.1686  0.0688 -0.3128
  856SOL    HW1 2567   1.304   1.120   2.592 -0.6763 -1.0880  0.7813
  856SOL    HW2 2568   1.166   1.229   2.608 -2.8076  1.3833  1.5221
  857SOL     OW 2569   0.977   1.024   2.758  0.5213  0.0445  0.1318
  857SOL    HW1 2570   1.049   1.071   2.702  2.3123  2.3288  0.3489
  857SOL    HW2 2571   0.957   0.939   2.705  3.4249  2.8371  0.3517
  858SOL     OW 2572   0.216   0.324   2.053  0.2985  0.1661 -0.3602
  858SOL    HW1 2573   0.261   0.327   1.961 -1.4403  1.5390 -1.7344
  858SOL    HW2 2574   0.146   0.251   2.060 -0.1244  2.9498  2.2892
  859SOL     OW 2575   2.394   0.297   0.697 -0.7089  0.3194 -0.0457
  859SOL    HW1 2576   2.316   0.328   0.639 -0.8369 -1.7345 -0.3808
  859SOL    HW2 2577   2.408   0.358   0.780 -0.6768  2.3664  1.0611
  860SOL     OW 2578   0.744   0.841   1.593 -1.0639  1.1313 -0.4845
  860SOL    HW1 2579   0.699   0.764   1.639  0.6795  0.9896  0.8399
  860SOL    HW2 2580   0.800   0.811   1.514 -0.5472 -2.6211 -2.3176
  861SOL     OW 2581   1.752   0.930   1.337 -0.1728 -0.4195 -0.5179
  861SOL    HW1 2582   1.829   0.946   1.272 -0.4614 -2.1820  3.5766
  861SOL    HW2 2583   1.736   1.011   1.397  2.5245  2.7879 -2.6415
  862SOL     OW 2584   0.755   2.829   2.137 -0.4679 -0.0807  0.0065
  862SOL    HW1 2585   0.728   2.792   2.225 -2.5130  0.2177 -0.3463
  862SOL    HW2 2586   0.705   2.911   2.105  0.4902 -2.9967  0.1494
  863SOL     OW 2587   2.777   0.192   1.297 -0.7013  0.3219 -0.0953
  863SOL    HW1 2588   2.718   0.244   1.361 -3.5660  0.4063 -1.3744
  863SOL    HW2 2589   2.878   0.187   1.330  1.8513 -1.2537  0.9396
  864SOL     OW 2590   2.764   3.036   2.663  0.0806  0.1076  1.0199
  864SOL    HW1 2591   2.830   2.981   2.606 -0.8498  2.0739  0.9223
  864SOL    HW2 2592   2.707   3.093   2.601 -2.7169 -1.7334  0.1610
  865SOL     OW 2593   1.421   1.175   2.318  0.3269 -0.1946  0.7761
  865SOL    HW1 2594   1.436   1.123   2.401 -0.3151  2.0550 -2.3874
  865SOL    HW2 2595   1.325   1.187   2.299  2.2657 -1.2515 -3.0822
  866SOL     OW 2596   2.473   2.569   0.884  0.1795  0.0941 -0.2938
  866SOL    HW1 2597   2.553   2.581   0.946  1.6464 -0.2948  0.1785
  866SOL    HW2 2598   2.501   2.511   0.806 -1.5143  1.4820  2.2023
  867SOL     OW 2599   2.643   2.633   1.089  0.6243  0.1859  0.1904
  867SOL    HW1 2600   2.585   2.682   1.153  1.7206 -0.5118 -5.2250
  867SOL    HW2 2601   2.694   2.562   1.139 -0.2407  2.0491  1.8132
  868SOL     OW 2602   2.985   1.335   1.479 -0.1911  0.2425  0.0765
  868SOL    HW1 2603   2.964   1.262   1.546  2.3346 -0.2958 -1.9180
  868SOL    HW2 2604   2.997   1.285   1.389 -2.4051 -0.8533 -1.4818
  869SOL     OW 2605   2.240   1.552   2.175  0.2800  0.0517  0.5275
  869SOL    HW1 2606   2.216   1.624   2.247 -1.2039  0.5678 -1.3226
  869SOL    HW2 2607   2.161   1.483   2.166  0.2413  0.8410  1.3197
  870SOL     OW 2608   1.642   1.225   0.949  0.1058  0.1084  0.5654
  870SOL    HW1 2609   1.610   1.131   0.922 -2.4670  1.7676  0.4236
  870SOL    HW2 2610   1.612   1.296   0.881 -0.9353  0.5731  0.1089
  871SOL     OW 2611   2.283   1.578   1.921 -0.0105  0.5715  0.1909
  871SOL    HW1 2612   2.224   1.660   1.920  1.1074 -0.6041 -1.0330
  871SOL    HW2 2613   2.298   1.554   2.020 -1.0457 -0.4445 -2.3527
  872SOL     OW 2614   1.462   1.400   2.505 -1.2053 -0.7168 -0.3729
  872SOL    HW1 2615   1.503   1.359   2.589  1.4783 -2.1723  1.2721
  872SOL    HW2 2616   1.441   1.318   2.449  0.3804 -1.8649  0.9758
  873SOL     OW 2617   1.396   1.428   1.432  0.4016  0.2637  0.4930
  873SOL    HW1 2618   1.336   1.399   1.356  2.7046  0.6849  0.9262
  873SOL    HW2 2619   1.486   1.458   1.396 -0.2296  1.0189  1.7033
  874SOL     OW 2620   1.636   1.267   1.207 -0.2367  0.5978  0.3622
  874SOL    HW1 2621   1.627   1.360   1.250 -2.3068  1.4571  0.0277
  874SOL    HW2 2622   1.631   1.268   1.102 -1.3215  0.5980  1.0469
  875SOL     OW 2623   2.732   0.309   2.379  0.5238 -0.4539 -0.3569
  875SOL    HW1 2624   2.667   0.380   2.340 -4.6444  0.7795 -2.6568
  875SOL    HW2 2625   2.683   0.219   2.396 -4.3882  1.8419 -1.5534
  876SOL     OW 2626   1.076   1.030   0.721 -0.3215  0.0363 -0.0363
  876SOL    HW1 2627   0.991   0.983   0.727  1.1376  3.3033 -1.3363
  876SOL    HW2 2628   1.068   1.124   0.764 -0.4830  0.1130  0.6622
  877SOL     OW 2629   2.187   2.970   0.698 -0.0838 -0.2462 -0.4389
  877SOL    HW1 2630   2.210   2.933   0.606 -0.1802 -2.4219  2.2273
  877SOL    HW2 2631   2.088   2.982   0.708 -0.6185 -1.3011  0.5898
  878SOL     OW 2632   2.849   1.771   0.485  0.7658 -0.4051  0.6607
  878SOL    HW1 2633   2.900   1.683   0.491 -3.5413 -1.3904 -1.9406
  878SOL    HW2 2634   2.750   1.754   0.480  0.7653 -1.7419 -3.1109
  879SOL     OW 2635   2.888   2.202   1.881  0.1635 -0.0782  0.3747
  879SOL    HW1 2636   2.829   2.119   1.869  0.1087  0.8784 -1.6016
  879SOL    HW2 2637   2.981   2.181   1.925  1.4115 -0.1457 -0.8376
  880SOL     OW 2638   0.408   1.683   0.718  0.7397  0.1449  0.0910
  880SOL    HW1 2639   0.442   1.731   0.635 -0.4592  2.7853  0.8538
  880SOL    HW2 2640   0.428   1.739   0.801 -0.0890  1.9460  2.0241
  881SOL     OW 2641   1.307   0.398   2.637  0.0445  0.2409 -0.0715
  881SOL    HW1 2642   1.355   0.314   2.611 -0.6014  1.9018 -0.0948
  881SOL    HW2 2643   1.211   0.390   2.652  1.8959 -0.3951  1.3295
  882SOL     OW 2644   2.681   0.930   0.582  0.4021 -0.3067  0.1198
  882SOL    HW1 2645   2.684   0.915   0.680 -0.4513  1.2718  0.1808
  882SOL    HW2 2646   2.617   0.868   0.540 -2.2347  0.5845  0.1571
  883SOL     OW 2647   1.713   0.668   2.496 -0.3915  0.5390 -0.2049
  883SOL    HW1 2648   1.610   0.681   2.494  0.3568 -0.8216 -1.1106
  883SOL    HW2 2649   1.759   0.757   2.481  0.0098 -0.4947 -1.0243
  884SOL     OW 2650   3.102   0.167   1.703 -0.3023  0.0275  0.4740
  884SOL    HW1 2651   3.041   0.092   1.674 -3.1406  3.4125  0.2288
  884SOL    HW2 2652   0.024   0.164   1.795 -1.4532  1.7787  0.9045
  885SOL     OW 2653   1.880   0.968   2.268 -0.6690  0.0264  0.0837
  885SOL    HW1 2654   1.922   0.995   2.178 -0.8464 -0.2689  0.9289
  885SOL    HW2 2655   1.830   0.877   2.255 -2.7901  0.9575 -0.7467
  886SOL     OW 2656   1.678   0.383   2.914 -0.1851 -0.1164  0.0354
  886SOL    HW1 2657   1.731   0.404   2.830 -1.3342 -0.5044 -2.2535
  886SOL    HW2 2658   1.739   0.367   2.991  2.2928  1.3719 -0.9753
  887SOL     OW 2659   1.360   0.083   1.760 -0.4606  0.1082 -0.0234
  887SOL    HW1 2660   1.304   0.126   1.689 -3.7296  2.4224  0.3387
  887SOL    HW2 2661   1.308   0.014   1.807 -1.1259 -0.9319 -0.7457
  888SOL     OW 2662   2.419   0.584   1.371  0.3119  0.8930  0.0259
  888SOL    HW1 2663   2.340   0.587   1.438  1.1752 -0.6316 -0.5107
  888SOL    HW2 2664   2.462   0.675   1.352  1.8747  0.2576  1.8523
  889SOL     OW 2665   1.695   3.011   0.822  0.0774 -0.4091 -0.4162
  889SOL    HW1 2666   1.618   2.947   0.821 -0.1157  0.9785 -3.2471
  889SOL    HW2 2667   1.675   3.080   0.896 -0.8313 -1.1799  0.7950
  890SOL     OW 2668   1.213   2.677   0.798 -0.5518 -0.3298  0.9462
  890SOL    HW1 2669   1.310   2.648   0.818  1.1701 -0.0002  2.1228
  890SOL    HW2 2670   1.177   2.727   0.872  0.0977 -1.5463 -2.8629
  891SOL     OW 2671   0.138   1.149   0.140 -0.7858 -0.3539  0.1205
  891SOL    HW1 2672   0.171   1.074   0.076 -0.8318 -1.6541 -1.4862
  891SOL    HW2 2673   0.181   1.239   0.117  0.4276 -0.3215  1.3518
  892SOL     OW 2674   2.319   1.399   2.416  0.0094 -0.4679 -0.2997
  892SOL    HW1 2675   2.317   1.313   2.361 -0.4523 -0.3262  1.3218
  892SOL    HW2 2676   2.275   1.478   2.370  1.4188  1.5837 -0.2108
  893SOL     OW 2677   2.365   2.474   1.155 -0.3266  0.2815  0.6925
  893SOL    HW1 2678   2.271   2.484   1.119  2.3799 -1.0690 -0.2097
  893SOL    HW2 2679   2.422   2.526   1.090 -1.2192 -0.5967 -1.7445
  894SOL     OW 2680   0.349   0.556   0.898  0.5742 -0.3725  0.3787
  894SOL    HW1 2681   0.367   0.464   0.943 -0.5507 -0.2409  0.4813
  894SOL    HW2 2682   0.342   0.536   0.798  2.4307 -2.7670 -0.6039
  895SOL     OW 2683   2.855   2.147   2.306 -0.2371 -0.5358 -0.3378
  895SOL    HW1 2684   2.894   2.238   2.319  1.3861 -0.4411 -0.7123
  895SOL    HW2 2685   2.914   2.090   2.243 -0.8250 -1.2928  0.5177
  896SOL     OW 2686   1.373   3.029   2.531  0.1727 -0.0825 -0.4926
  896SOL    HW1 2687   1.389   2.943   2.585 -0.0798 -2.6164 -1.2419
  896SOL    HW2 2688   1.280   3.038   2.498 -1.3238 -0.5202 -0.7702
  897SOL     OW 2689   0.284   1.778   1.662  0.0105 -0.2901  0.5368
  897SOL    HW1 2690   0.194   1.734   1.630 -0.9229 -1.7000  1.6744
  897SOL    HW2 2691   0.342   1.809   1.582 -0.4997  0.7657 -2.4010
  898SOL     OW 2692   0.756   2.169   1.914 -0.3014  0.3750 -0.2181
  898SOL    HW1 2693   0.781   2.198   1.819 -0.0317 -2.0131  1.8208
  898SOL    HW2 2694   0.828   2.198   1.985  0.4061  1.4396  1.9851
  899SOL     OW 2695   1.770   0.158   1.899 -0.1285  0.4219 -0.1249
  899SOL    HW1 2696   1.867   0.120   1.882  2.7330 -0.3334 -0.1458
  899SOL    HW2 2697   1.722   0.178   1.811 -0.9644 -1.0501 -0.0397
  900SOL     OW 2698   1.387   1.278   0.322  0.3505  0.3456 -0.2555
  900SOL    HW1 2699   1.416   1.288   0.225  2.2443  0.4714 -1.6406
  900SOL    HW2 2700   1.336   1.190   0.341  0.2209  0.1885 -0.1998
  901SOL     OW 2701   1.448   1.041   2.530 -0.2084 -0.0171  0.3082
  901SOL    HW1 2702   1.485   1.000   2.613 -1.1972 -0.7792 -3.6917
  901SOL    HW2 2703   1.400   0.971   2.468  2.8843 -0.5512 -0.2601
  902SOL     OW 2704   0.030   2.107   0.956  0.1410  0.3199  0.0048
  902SOL    HW1 2705   3.046   2.131   0.949  0.2790  0.4608 -1.0472
  902SOL    HW2 2706   0.061   2.130   1.053 -0.2343 -0.4627  0.5668
  903SOL     OW 2707   2.646   1.267   2.230 -0.5983  0.3921  0.1531
  903SOL    HW1 2708   2.739   1.221   2.227  1.2462  0.6195  0.2690
  903SOL    HW2 2709   2.627   1.286   2.333  1.1217  0.4060  2.4266
  904SOL     OW 2710   1.493   1.980   0.102  0.2533  0.1370 -0.7301
  904SOL    HW1 2711   1.412   2.009   0.049  0.1673  1.9587 -0.3107
  904SOL    HW2 2712   1.502   2.034   0.183  0.6946  0.6552 -1.3269
  905SOL     OW 2713   2.131   2.924   1.927 -0.3638 -0.5452 -0.0085
  905SOL    HW1 2714   2.059   2.853   1.949  2.5214 -0.1253  0.1182
  905SOL    HW2 2715   2.192   2.930   2.007  1.3195 -0.5132  2.5257
  906SOL     OW 2716   1.385   2.944   0.072 -0.0238  0.4223 -0.2688
  906SOL    HW1 2717   1.359   3.033   0.026 -1.5646 -0.2992 -1.6980
  906SOL    HW2 2718   1.435   2.884   0.005  0.8708 -2.7687 -1.1539
  907SOL     OW 2719   0.139   2.766   0.916 -0.0685  0.2282 -0.1483
  907SOL    HW1 2720   0.217   2.762   0.978  2.2367 -2.0570 -0.1622
  907SOL    HW2 2721   0.173   2.757   0.823 -1.5967 -1.2395  2.9713
  908SOL     OW 2722   0.681   2.585   1.648  0.1056 -0.6840  0.0675
  908SOL    HW1 2723   0.691   2.676   1.610 -0.6407 -2.3204 -1.3695
  908SOL    HW2 2724   0.693   2.591   1.744  0.4187  0.7485  0.5044
  909SOL     OW 2725   1.728   0.665   1.404  0.2621 -0.6983  0.1324
  909SOL    HW1 2726   1.703   0.758   1.424  0.5926  0.2521  0.4756
  909SOL    HW2 2727   1.827   0.663   1.380  2.0349 -3.6827  3.1194
  910SOL     OW 2728   0.830   0.389   0.451 -0.2391  0.4210 -0.2332
  910SOL    HW1 2729   0.847   0.302   0.403  1.7868 -0.2819 -1.5424
  910SOL    HW2 2730   0.923   0.435   0.456  2.1176 -0.5734  0.2343
  911SOL     OW 2731   0.212   0.018   3.001  0.0916  0.3071  0.9997
  911SOL    HW1 2732   0.192   0.058   2.910  2.1657 -2.6103 -1.9510
  911SOL    HW2 2733   0.280   0.081   3.046 -0.1200  2.4337  1.2208
  912SOL     OW 2734   3.107   1.936   2.725  0.3582 -0.0931  0.3284
  912SOL    HW1 2735   3.019   1.894   2.758  0.8385 -0.7312 -0.8018
  912SOL    HW2 2736   0.012   1.932   2.623 -0.7218 -0.1945 -2.3155
  913SOL     OW 2737   2.455   3.046   3.098 -0.7446  0.8379 -0.4435
  913SOL    HW1 2738   2.356   3.020   3.095 -0.7684 -1.3110 -1.0139
  913SOL    HW2 2739   2.458   0.032   3.086 -2.0222  1.3329  1.4624
  914SOL     OW 2740   1.450   1.668   1.976  0.4917 -0.1323  0.4173
  914SOL    HW1 2741   1.523   1.602   2.005 -0.3827 -0.4770 -0.3523
  914SOL    HW2 2742   1.484   1.756   1.934 -0.6230  5.6572 -2.4602
  915SOL     OW 2743   2.857   2.508   2.372  0.2837 -0.2109  0.2483
  915SOL    HW1 2744   2.948   2.463   2.363 -0.8639 -1.1465 -3.2523
  915SOL    HW2 2745   2.821   2.505   2.467 -1.6948  0.1265  0.9373
  916SOL     OW 2746   2.917   0.621   2.464  0.3347  0.1220 -0.4119
  916SOL    HW1 2747   2.976   0.555   2.409 -1.5539  0.2740  3.9247
  916SOL    HW2 2748   2.910   0.717   2.427 -0.4804  1.2551  0.7508
  917SOL     OW 2749   1.408   0.219   0.168  0.0839  0.0203 -0.0010
  917SOL    HW1 2750   1.504   0.186   0.148 -0.7844 -1.1780  0.3037
  917SOL    HW2 2751   1.338   0.180   0.100 -2.5939  1.1362 -2.7626
  918SOL     OW 2752   1.705   3.112   2.188 -0.1099  0.1644  0.7263
  918SOL    HW1 2753   1.651   3.095   2.271  0.0663 -2.5181  0.6745
  918SOL    HW2 2754   1.668   0.086   2.145 -1.3699  1.5985  1.0822
  919SOL     OW 2755   1.566   2.327   1.488 -0.3080 -0.7102  0.3061
  919SOL    HW1 2756   1.590   2.397   1.558  1.9506  1.2936 -3.5050
  919SOL    HW2 2757   1.530   2.242   1.535 -0.2213 -1.9099  2.4435
  920SOL     OW 2758   0.346   1.011   3.035  0.0178 -0.2402 -0.4083
  920SOL    HW1 2759   0.405   1.060   3.106 -1.0237 -0.8785 -0.6056
  920SOL    HW2 2760   0.391   0.926   3.002  1.0783  0.8115 -0.5418
  921SOL     OW 2761   2.522   1.051   2.419 -0.1637 -0.3049  0.4866
  921SOL    HW1 2762   2.465   1.052   2.335  1.6885  0.2879  0.5997
  921SOL    HW2 2763   2.528   1.143   2.466  0.7258  1.0448 -0.3016
  922SOL     OW 2764   1.084   1.738   2.592  0.6050  0.1973  0.6514
  922SOL    HW1 2765   1.058   1.836   2.607 -1.2110 -1.9718 -0.0657
  922SOL    HW2 2766   0.997   1.691   2.559 -2.8742 -2.4523  1.9003
  923SOL     OW 2767   0.798   1.220   2.541  0.1397  0.5343  0.1385
  923SOL    HW1 2768   0.742   1.147   2.577  2.6139  2.5438 -3.0915
  923SOL    HW2 2769   0.803   1.297   2.611  1.3538 -0.3749  2.0352
  924SOL     OW 2770   0.270   2.345   2.719 -0.4073  0.3083  0.0897
  924SOL    HW1 2771   0.198   2.299   2.765  4.0474  2.2361 -0.4323
  924SOL    HW2 2772   0.308   2.422   2.771  0.6943 -1.5406 -3.1614
  925SOL     OW 2773   1.642   1.557   1.013  0.5928 -0.3830  0.1862
  925SOL    HW1 2774   1.724   1.512   1.049  1.2250  0.0848  0.6468
  925SOL    HW2 2775   1.651   1.578   0.912 -0.0328 -0.3856 -1.6004
  926SOL     OW 2776   1.765   0.421   2.629 -0.3892 -0.3467  0.0213
  926SOL    HW1 2777   1.750   0.367   2.543 -1.9264  1.2279  2.6388
  926SOL    HW2 2778   1.744   0.522   2.610  0.0938  1.5334  2.0344
  927SOL     OW 2779   2.636   2.607   1.846  0.6140  0.4343 -0.3549
  927SOL    HW1 2780   2.632   2.506   1.861 -0.6301  1.8188  0.6255
  927SOL    HW2 2781   2.579   2.655   1.915  1.2889 -0.1190 -0.2627
  928SOL     OW 2782   0.725   1.075   2.845 -0.7026 -0.7130  0.3605
  928SOL    HW1 2783   0.692   1.022   2.762  1.1481 -0.4729  1.6175
  928SOL    HW2 2784   0.827   1.066   2.849 -0.4087  1.5745 -1.1449
  929SOL     OW 2785   0.176   0.158   0.937 -0.3127  0.0357  0.0516
  929SOL    HW1 2786   0.187   0.075   0.880  1.1266  2.5933  0.7046
  929SOL    HW2 2787   0.106   0.224   0.901 -1.2806  2.3246 -1.0002
  930SOL     OW 2788   2.531   0.201   1.946  0.1873  0.1794 -0.3837
  930SOL    HW1 2789   2.509   0.203   1.850  4.0634  1.8952  2.9274
  930SOL    HW2 2790   2.630   0.224   1.941 -0.5850 -0.4434  0.0657
  931SOL     OW 2791   2.347   1.277   3.105 -0.3200 -0.3888 -0.3626
  931SOL    HW1 2792   2.332   1.298   0.095  1.2020  1.3230  1.7095
  931SOL    HW2 2793   2.356   1.178   3.093 -1.4885  1.8759 -0.2543
  932SOL     OW 2794   2.836   1.251   0.723 -0.1002  0.9280 -0.2351
  932SOL    HW1 2795   2.875   1.326   0.783  0.4668  0.4776  1.6696
  932SOL    HW2 2796   2.737   1.264   0.718  1.6000  1.3518  3.5449
  933SOL     OW 2797   2.889   2.362   1.671 -0.4139  0.5489 -0.1446
  933SOL    HW1 2798   2.889   2.291   1.748  0.8909  1.5895  0.7505
  933SOL    HW2 2799   2.796   2.396   1.645  1.9139  2.6444 -0.3775
  934SOL     OW 2800   0.504   3.007   1.288  0.3088 -0.0988 -0.2538
  934SOL    HW1 2801   0.527   2.911   1.299 -3.7791  1.0269  0.7239
  934SOL    HW2 2802   0.587   3.071   1.293 -0.8007 -0.1568 -1.9109
  935SOL     OW 2803   2.407   0.338   2.131  0.3906  0.0867 -0.1524
  935SOL    HW1 2804   2.324   0.403   2.126 -0.5510  0.2088  0.3502
  935SOL    HW2 2805   2.433   0.294   2.047  0.4674  0.0736  1.2279
  936SOL     OW 2806   2.710   0.832   1.900  0.3305  0.0099 -0.0995
  936SOL    HW1 2807   2.783   0.808   1.836 -2.2341  1.5133  1.3565
  936SOL    HW2 2808   2.636   0.756   1.895 -2.3897 -3.4928 -2.5812
  937SOL     OW 2809   1.819   1.425   1.850  0.7613 -0.7330  0.2867
  937SOL    HW1 2810   1.830   1.480   1.764 -0.8825 -0.0458  2.7649
  937SOL    HW2 2811   1.905   1.370   1.868  0.4325  0.5729  2.5183
  938SOL     OW 2812   0.709   2.160   0.001  0.2866 -0.1072 -0.1465
  938SOL    HW1 2813   0.716   2.242   0.065  1.2915  2.8159 -0.8134
  938SOL    HW2 2814   0.630   2.167   3.054  1.7986  0.0911 -0.8687
  939SOL     OW 2815   2.085   0.424   2.934  0.4687  0.3966 -0.5673
  939SOL    HW1 2816   2.142   0.436   3.015 -0.9848  1.1177  0.0995
  939SOL    HW2 2817   2.024   0.347   2.949  2.7231  1.4319 -2.3231
  940SOL     OW 2818   1.462   2.615   0.890 -0.1380 -0.0502 -0.3897
  940SOL    HW1 2819   1.502   2.531   0.853  3.0594  0.9897 -3.1898
  940SOL    HW2 2820   1.476   2.614   0.993  1.2332  0.8923 -1.6712
  941SOL     OW 2821   1.294   2.058   1.826 -0.4746 -0.1143  0.0736
  941SOL    HW1 2822   1.279   2.127   1.899 -0.0039  1.4610  2.6110
  941SOL    HW2 2823   1.205   2.009   1.810  0.2186 -0.1143  1.3570
  942SOL     OW 2824   2.795   2.025   2.955 -0.0880  0.3982 -0.4704
  942SOL    HW1 2825   2.774   1.976   2.865  0.8812 -1.2570 -2.3049
  942SOL    HW2 2826   2.714   2.073   2.982  0.1549 -0.5960  0.9089
  943SOL     OW 2827   2.319   2.926   1.608 -0.1023 -0.1748 -0.2364
  943SOL    HW1 2828   2.241   2.990   1.633 -1.8836 -0.6526  0.3375
  943SOL    HW2 2829   2.390   2.916   1.683 -0.6646 -1.7109  0.9818
  944SOL     OW 2830   1.925   2.046   2.742 -0.4290 -0.0747  0.1356
  944SOL    HW1 2831   1.880   1.954   2.737  1.3552 -0.3013 -1.2424
  944SOL    HW2 2832   1.873   2.114   2.681  0.9523  2.8412  0.9436
  945SOL     OW 2833   2.851   2.010   0.907 -0.0082  0.2074 -0.0028
  945SOL    HW1 2834   2.851   1.924   0.962 -1.2840  2.2160 -1.2694
  945SOL    HW2 2835   2.856   1.988   0.807  2.1137  1.3250  3.6028
  946SOL     OW 2836   1.417   1.133   2.984 -0.6425  0.2293  0.0452
  946SOL    HW1 2837   1.399   1.061   2.911 -1.2452 -1.2790 -1.6350
  946SOL    HW2 2838   1.334   1.186   3.010  0.6130  1.0019 -1.2209
  947SOL     OW 2839   0.228   0.927   2.102 -0.1087 -0.3016 -0.1864
  947SOL    HW1 2840   0.131   0.893   2.079 -2.3404 -2.4175  0.3461
  947SOL    HW2 2841   0.282   0.851   2.138 -1.6543  1.2713 -0.4140
  948SOL     OW 2842   0.302   1.119   0.359  0.1152  0.1280 -0.3128
  948SOL    HW1 2843   0.280   1.205   0.412 -1.4480  2.3998  0.8710
  948SOL    HW2 2844   0.244   1.118   0.274 -2.5315  0.5213 -2.1278
  949SOL     OW 2845   0.601   0.316   2.590 -0.5459 -0.4051  0.8733
  949SOL    HW1 2846   0.657   0.396   2.626 -0.2677  0.7400  2.1996
  949SOL    HW2 2847   0.643   0.270   2.511  0.0264 -0.0638 -1.9417
  950SOL     OW 2848   0.087   0.542   1.447 -0.3016 -0.6813  0.2753
  950SOL    HW1 2849   0.104   0.601   1.527  0.4997 -2.6301 -2.5657
  950SOL    HW2 2850   0.155   0.559   1.373 -2.2358  1.8156  1.6226
  951SOL     OW 2851   0.225   1.259   2.519 -0.5852  0.1876 -0.2185
  951SOL    HW1 2852   0.131   1.253   2.499  4.4066 -0.0563  3.9042
  951SOL    HW2 2853   0.272   1.170   2.513  0.2050 -0.8457  0.8712
  952SOL     OW 2854   1.821   2.344   1.381 -0.8107 -0.3643  0.4253
  952SOL    HW1 2855   1.736   2.311   1.426  0.5748  0.7955  0.8499
  952SOL    HW2 2856   1.836   2.442   1.402  1.8459 -0.1634  0.2262
  953SOL     OW 2857   0.476   2.447   3.082  0.1056 -0.0706 -0.5169
  953SOL    HW1 2858   0.424   2.489   0.048 -1.6254  0.3885 -1.6499
  953SOL    HW2 2859   0.436   2.355   3.055 -1.9906 -3.7935  2.6473
  954SOL     OW 2860   2.892   0.772   0.815 -0.0431  0.2336  0.5364
  954SOL    HW1 2861   2.865   0.871   0.806  1.1674  1.3588 -1.0711
  954SOL    HW2 2862   2.950   0.745   0.735  1.4996 -0.4854 -1.3999
  955SOL     OW 2863   1.587   1.411   0.155 -0.2732 -0.5488  0.3489
  955SOL    HW1 2864   1.637   1.366   0.079  1.2722  0.3619 -0.0854
  955SOL    HW2 2865   1.639   1.473   0.213 -1.2576  1.6793 -1.7215
  956SOL     OW 2866   1.145   0.707   2.472 -0.6332  0.4616  0.0397
  956SOL    HW1 2867   1.066   0.746   2.524 -0.8431  2.2672 -0.9508
  956SOL    HW2 2868   1.131   0.609   2.438 -2.3509 -0.6178 -1.2765
  957SOL     OW 2869   0.707   0.502   1.993 -0.2715  0.8767 -0.1188
  957SOL    HW1 2870   0.628   0.449   2.028  0.0279  2.5008  2.5701
  957SOL    HW2 2871   0.782   0.519   2.061 -0.0417  1.2713 -0.3713
  958SOL     OW 2872   0.474   2.057   0.695 -0.3124  0.7189 -0.5929
  958SOL    HW1 2873   0.503   2.032   0.792  2.8958  0.4263 -0.5074
  958SOL    HW2 2874   0.539   2.119   0.652 -0.5509 -0.3691 -0.3170
  959SOL     OW 2875   2.222   0.602   1.592  0.1703 -0.2847  0.5152
  959SOL    HW1 2876   2.179   0.696   1.587 -0.8039 -0.2767  2.0879
  959SOL    HW2 2877   2.254   0.586   1.688  2.5768  1.7375  0.7736
  960SOL     OW 2878   0.295   1.477   2.636 -0.6870  0.5042 -0.3195
  960SOL    HW1 2879   0.265   1.396   2.583 -1.3265 -0.0156  0.7989
  960SOL    HW2 2880   0.222   1.548   2.639 -0.9277  3.2846 -1.6931
  961SOL     OW 2881   0.717   1.830   0.709 -0.4327  0.2717 -0.1653
  961SOL    HW1 2882   0.765   1.915   0.731  2.2279  0.2124 -1.3510
  961SOL    HW2 2883   0.616   1.844   0.721 -2.2564 -0.3828 -1.8972
  962SOL     OW 2884   0.676   1.644   1.022  0.2010  0.1260 -0.1709
  962SOL    HW1 2885   0.714   1.557   0.980 -1.8585  0.7622 -1.1841
  962SOL    HW2 2886   0.678   1.647   1.125 -1.1701  0.9844 -0.5334
  963SOL     OW 2887   1.595   2.298   2.777  0.5668  0.2334  0.3737
  963SOL    HW1 2888   1.513   2.233   2.752  1.8384 -1.6428 -2.3979
  963SOL    HW2 2889   1.674   2.288   2.710 -0.6261  1.4852 -1.3110
  964SOL     OW 2890   0.163   2.616   2.691 -0.1101  0.1755 -0.3332
  964SOL    HW1 2891   0.209   2.605   2.785 -0.5174  0.5584  1.3423
  964SOL    HW2 2892   0.240   2.632   2.624  2.5757  2.7615  1.7028
  965SOL     OW 2893   2.550   2.178   2.622 -0.4201 -0.2640 -0.2177
  965SOL    HW1 2894   2.620   2.124   2.676  0.5869 -1.4527  0.3512
  965SOL    HW2 2895   2.551   2.280   2.636  1.2921 -0.8223  1.7263
  966SOL     OW 2896   2.731   1.488   2.667  0.0992 -0.2506  0.2890
  966SOL    HW1 2897   2.770   1.569   2.708 -2.0647 -2.2251 -2.0778
  966SOL    HW2 2898   2.743   1.421   2.741 -1.6363  1.5260  0.1353
  967SOL     OW 2899   1.992   0.173   0.582 -0.0667 -0.4371 -0.1139
  967SOL    HW1 2900   1.964   0.120   0.657 -0.9859  0.0511 -1.9057
  967SOL    HW2 2901   2.027   0.262   0.615 -1.6022 -1.5132  0.8093
  968SOL     OW 2902   2.661   0.056   0.715 -0.1586 -0.8992 -0.1228
  968SOL    HW1 2903   2.570   0.066   0.766  0.4117  0.1502  2.0849
  968SOL    HW2 2904   2.681   0.126   0.644 -1.6352 -0.1730 -0.1212
  969SOL     OW 2905   0.663   0.854   2.240  0.0407  0.1086 -0.0967
  969SOL    HW1 2906   0.646   0.911   2.153  1.6392  1.7074  0.7624
  969SOL    HW2 2907   0.737   0.907   2.287 -0.1806  1.4806 -0.1015
  970SOL     OW 2908   2.065   1.513   2.778 -0.5103  0.2297 -0.0799
  970SOL    HW1 2909   1.982   1.540   2.827  1.2199 -1.4244 -0.1430
  970SOL    HW2 2910   2.119   1.592   2.746 -1.5886 -2.1240 -2.0658
  971SOL     OW 2911   2.434   0.205   1.715 -0.2751  0.4090 -0.0435
  971SOL    HW1 2912   2.341   0.224   1.749  2.7584 -0.4002 -0.9781
  971SOL    HW2 2913   2.429   0.173   1.619  1.2848  2.7887 -0.3622
  972SOL     OW 2914   0.087   0.542   1.012  0.2039 -0.1158 -0.2382
  972SOL    HW1 2915   0.029   0.462   0.986 -0.4037 -2.3445 -1.8496
  972SOL    HW2 2916   0.181   0.539   0.970  1.5407  2.5322 -0.4886
  973SOL     OW 2917   2.948   0.136   2.393  0.2654 -0.0728 -0.0419
  973SOL    HW1 2918   3.027   0.107   2.453  0.4110  0.4371  2.6476
  973SOL    HW2 2919   2.911   0.234   2.397 -0.6340  0.1650  2.4706
  974SOL     OW 2920   3.000   0.935   1.494 -0.2989  0.1370 -0.2295
  974SOL    HW1 2921   3.087   0.971   1.451  0.3144  0.1943 -2.1472
  974SOL    HW2 2922   2.957   0.875   1.423 -1.1498  1.3645 -0.1399
  975SOL     OW 2923   1.348   0.008   2.137 -0.1917  0.1147  0.0769
  975SOL    HW1 2924   1.347   3.018   2.144  1.1819 -0.5346 -0.6828
  975SOL    HW2 2925   1.442   0.037   2.108 -0.5751  0.7923  1.9235
  976SOL     OW 2926   2.079   1.353   1.588  0.3461  0.1450 -0.8273
  976SOL    HW1 2927   2.061   1.408   1.506  1.5912  1.9895  2.6093
  976SOL    HW2 2928   2.055   1.405   1.675 -0.5885  1.8652 -1.5561
  977SOL     OW 2929   2.895   3.021   3.078 -0.0705 -0.2728 -0.3094
  977SOL    HW1 2930   2.981   2.973   3.045 -0.3954  0.5161 -1.8358
  977SOL    HW2 2931   2.844   3.066   3.001 -0.3432 -0.9013 -1.7197
  978SOL     OW 2932   2.228   1.200   2.259 -0.0853 -0.1980  0.2654
  978SOL    HW1 2933   2.297   1.143   2.210  0.1446 -0.8977 -1.0424
  978SOL    HW2 2934   2.192   1.147   2.342 -0.3144 -0.3115  3.6827
  979SOL     OW 2935   0.892   1.001   2.378  0.2817 -0.2563 -0.5020
  979SOL    HW1 2936   0.953   1.035   2.305  0.0264  1.1456 -0.8216
  979SOL    HW2 2937   0.894   1.063   2.459 -0.1004 -1.1730  0.0693
  980SOL     OW 2938   1.768   1.840   2.751  0.3308 -0.4622 -0.1276
  980SOL    HW1 2939   1.675   1.804   2.770 -2.1469  0.7508  1.1203
  980SOL    HW2 2940   1.803   1.803   2.662  1.8361  0.4345  3.7775
  981SOL     OW 2941   1.200   0.813   1.826  0.2783 -0.2531 -0.3337
  981SOL    HW1 2942   1.219   0.806   1.724  0.3887 -2.0943 -2.2319
  981SOL    HW2 2943   1.242   0.736   1.875 -2.4542 -1.4642 -2.6367
  982SOL     OW 2944   0.803   0.093   0.161  0.0240 -0.3265 -0.8061
  982SOL    HW1 2945   0.755   0.037   0.231  1.3518 -0.0659 -1.0944
  982SOL    HW2 2946   0.737   0.128   0.089 -1.4041 -1.5340 -0.0917
  983SOL     OW 2947   2.051   0.873   0.162 -0.4599 -0.0760  0.3700
  983SOL    HW1 2948   2.142   0.823   0.172  0.3238  0.2110  0.3817
  983SOL    HW2 2949   2.046   0.942   0.238 -2.8401  1.9861  1.9394
  984SOL     OW 2950   0.996   0.260   2.978  0.2162 -0.1498 -0.2817
  984SOL    HW1 2951   1.028   0.183   3.037  2.7083 -0.3780  0.0032
  984SOL    HW2 2952   1.038   0.348   2.999  2.0913 -3.0641  0.0651
  985SOL     OW 2953   1.032   2.625   1.750 -0.0662  0.1108 -0.3638
  985SOL    HW1 2954   0.955   2.688   1.784  1.3916  2.3572  0.0981
  985SOL    HW2 2955   1.040   2.617   1.652  1.5091 -2.2796  2.1195
  986SOL     OW 2956   2.498   2.992   1.818 -0.3971  0.9577  0.0884
  986SOL    HW1 2957   2.458   3.077   1.857  0.6010  3.5993  1.0187
  986SOL    HW2 2958   2.592   3.012   1.783 -1.2356  0.4605 -0.6372
  987SOL     OW 2959   2.135   1.351   1.106  0.4436  0.4191  0.1871
  987SOL    HW1 2960   2.197   1.398   1.042 -1.8980  0.0651  1.5052
  987SOL    HW2 2961   2.165   1.254   1.114 -0.2081  2.7745 -0.2533
  988SOL     OW 2962   2.399   0.968   1.530  0.5453 -0.1232  0.0905
  988SOL    HW1 2963   2.465   0.944   1.608  0.7259 -1.8566 -2.5100
  988SOL    HW2 2964   2.371   1.067   1.527  1.1867 -0.2002 -0.6227
  989SOL     OW 2965   2.042   2.095   0.073 -0.2457  0.1606  0.0139
  989SOL    HW1 2966   1.990   2.138   3.105  0.2326 -0.8984 -2.5581
  989SOL    HW2 2967   2.084   2.004   0.045  1.8258 -0.7630 -0.8936
  990SOL     OW 2968   1.435   0.625   2.242 -0.0696 -0.0754 -0.5671
  990SOL    HW1 2969   1.406   0.630   2.337  2.4652 -1.6579 -1.4121
  990SOL    HW2 2970   1.510   0.553   2.229 -0.4609 -2.0482  2.1438
  991SOL     OW 2971   1.237   1.004   0.495  0.3534 -0.5828  0.0071
  991SOL    HW1 2972   1.172   0.993   0.574 -1.6661  0.2904  0.6301
  991SOL    HW2 2973   1.326   0.960   0.511  1.7859 -3.1941  2.0257
  992SOL     OW 2974   0.117   0.959   1.364  0.2291 -0.3002  0.1634
  992SOL    HW1 2975   0.146   1.057   1.365 -1.0077 -2.1843  1.0901
  992SOL    HW2 2976   0.124   0.920   1.269 -0.4679 -1.6318 -2.3017
  993SOL     OW 2977   2.508   0.661   1.882  0.0370  0.0544 -0.2731
  993SOL    HW1 2978   2.486   0.701   1.972 -0.2696 -0.4051  1.4879
  993SOL    HW2 2979   2.429   0.603   1.848 -0.6073  1.2844  3.2607
  994SOL     OW 2980   1.501   1.916   1.882 -0.0493  0.0652 -0.1444
  994SOL    HW1 2981   1.532   1.942   1.976 -0.6449 -1.8081  0.3129
  994SOL    HW2 2982   1.416   1.971   1.861  1.2364  1.1872 -3.1883
  995SOL     OW 2983   2.353   1.931   2.957  0.0769  0.0888  0.2057
  995SOL    HW1 2984   2.263   1.912   3.009 -1.2361  0.0042  0.5829
  995SOL    HW2 2985   2.406   1.845   2.941  0.0901 -2.8074  0.3991
  996SOL     OW 2986   2.196   1.579   0.003  0.2219  0.4093  0.6990
  996SOL    HW1 2987   2.113   1.519   0.021  3.0655  1.0944  1.6946
  996SOL    HW2 2988   2.250   1.547   3.033  0.2337  1.0879 -1.2965
  997SOL     OW 2989   1.821   0.710   2.240  0.3043 -0.1019 -0.5666
  997SOL    HW1 2990   1.809   0.649   2.158 -0.7497 -1.3849 -2.8927
  997SOL    HW2 2991   1.793   0.662   2.326  0.2342  1.5893 -1.2524
  998SOL     OW 2992   2.502   0.728   0.555 -0.5262  0.1730 -0.3360
  998SOL    HW1 2993   2.507   0.743   0.658 -0.4531 -3.0726  0.1011
  998SOL    HW2 2994   2.431   0.657   0.534 -2.6962  0.3801 -0.2060
  999SOL     OW 2995   2.581   1.190   0.586  0.0939 -0.0287  0.6970
  999SOL    HW1 2996   2.635   1.107   0.584 -1.3433  2.6264  1.0187
  999SOL    HW2 2997   2.492   1.168   0.542  2.5519  2.9558 -1.1360
 1000SOL     OW 2998   0.551   1.392   1.748 -0.5177  0.2174  0.0402
 1000SOL    HW1 2999   0.515   1.311   1.800 -1.3039  1.3127  1.1871
 1000SOL    HW2 3000   0.498   1.395   1.663 -0.7556 -1.9553 -0.5857
   3.11232   3.11232   3.11232
