1000 SPC/Fw water molecules t= 319.00000 step= 319000
 3000
    1SOL     OW    1   2.577   3.057   1.000  0.3887  0.0735  0.1789
    1SOL    HW1    2   2.568   2.971   0.951  1.4318 -0.0885  0.0969
    1SOL    HW2    3   2.675   3.086   1.009  0.2940 -1.6177  1.9216
    2SOL     OW    4   2.996   2.333   0.873 -0.2557 -0.6678  0.2639
    2SOL    HW1    5   2.947   2.275   0.941  0.1178 -0.9075 -0.1797
    2SOL    HW2    6   3.095   2.316   0.869 -1.6539 -0.7489  0.3003
    3SOL     OW    7   0.808   2.885   2.935 -0.1569 -0.1684  0.4291
    3SOL    HW1    8   0.795   2.834   3.025  0.8360  0.3725  2.4935
    3SOL    HW2    9   0.731   2.947   2.913  0.0076 -1.5069 -3.8172
    4SOL     OW   10   2.097   2.357   2.097 -0.9648 -0.1725 -0.5769
    4SOL    HW1   11   2.040   2.339   2.021  2.9499  0.2712  1.2788
    4SOL    HW2   12   2.191   2.321   2.078  2.4104  0.6587 -0.2834
    5SOL     OW   13   1.945   0.768   1.470  0.0922  0.0316  0.1037
    5SOL    HW1   14   1.981   0.840   1.403 -1.3794  2.3134  1.4675
    5SOL    HW2   15   1.843   0.772   1.478 -0.4791  1.1621  0.7518
    6SOL     OW   16   2.156   2.726   0.456 -0.6384 -0.0943 -0.2357
    6SOL    HW1   17   2.136   2.820   0.503 -1.0057  4.1409  2.1581
    6SOL    HW2   18   2.066   2.694   0.416  0.6675 -1.0226  0.2998
    7SOL     OW   19   2.593   1.440   1.062 -0.1813 -0.6632  1.0439
    7SOL    HW1   20   2.692   1.440   1.085 -0.7561 -0.4597  0.0126
    7SOL    HW2   21   2.537   1.441   1.147  2.3228 -2.5141 -2.4914
    8SOL     OW   22   1.186   2.167   1.342  0.0857 -0.4180  0.8287
    8SOL    HW1   23   1.107   2.231   1.339 -1.2122 -0.3547  2.8184
    8SOL    HW2   24   1.275   2.215   1.364  4.3398 -0.2161  0.5448
    9SOL     OW   25   1.392   2.714   2.319  0.0520  0.5380  0.0816
    9SOL    HW1   26   1.302   2.672   2.354  0.0299 -1.5307  1.1857
    9SOL    HW2   27   1.394   2.677   2.226  1.2779  0.7481  2.0574
   10SOL     OW   28   0.601   1.770   0.962  0.2261  0.4893  0.6354
   10SOL    HW1   29   0.676   1.768   0.893  0.3925 -2.0432 -0.4113
   10SOL    HW2   30   0.620   1.835   1.037  1.3638  3.4568 -0.5249
   11SOL     OW   31   1.819   1.684   1.066 -0.2391 -0.9094  0.4069
   11SOL    HW1   32   1.873   1.605   1.104  2.9407 -1.9364  2.7314
   11SOL    HW2   33   1.750   1.713   1.134 -0.9750  0.0480 -0.1649
   12SOL     OW   34   2.642   2.684   1.976  0.0116 -0.0469 -0.0107
   12SOL    HW1   35   2.633   2.673   2.078  2.0639 -1.2941  0.2759
   12SOL    HW2   36   2.733   2.726   1.947  0.0644 -0.5882  1.7880
   13SOL     OW   37   2.461   3.077   0.433 -0.2837  0.4349  0.0273
   13SOL    HW1   38   2.515   3.026   0.504  2.5725 -1.5147  0.2114
   13SOL    HW2   39   2.524   3.117   0.359  0.2388 -0.2142 -0.5434
   14SOL     OW   40   1.579   2.286   0.394  0.0182  0.0195 -0.7735
   14SOL    HW1   41   1.507   2.216   0.371 -0.5266 -1.5172 -1.1378
   14SOL    HW2   42   1.669   2.266   0.344  1.7834 -0.2437  2.8559
   15SOL     OW   43   3.015   2.197   1.924  0.4564 -0.4329 -0.4755
   15SOL    HW1   44   2.948   2.142   1.980 -0.5702 -0.1896 -1.3539
   15SOL    HW2   45   2.990   2.292   1.907  1.1257 -1.4159  0.1318
   16SOL     OW   46   2.303   2.882   0.286 -0.5095  0.2012  0.1280
   16SOL    HW1   47   2.268   2.805   0.346  1.4101 -2.3167 -0.2189
   16SOL    HW2   48   2.306   2.976   0.333  2.7480  1.0049  3.2335
   17SOL     OW   49   0.500   0.206   1.192 -0.3509  0.0390 -0.1175
   17SOL    HW1   50   0.507   0.300   1.228 -0.5690 -0.4822 -0.4518
   17SOL    HW2   51   0.588   0.158   1.195 -1.4037  0.7715  0.9226
   18SOL     OW   52   2.062   0.990   0.336 -0.0699 -0.8475  0.2309
   18SOL    HW1   53   2.033   0.994   0.238 -0.4517  0.6936 -1.6976
   18SOL    HW2   54   2.151   0.938   0.351  1.3905  1.0858 -0.6076
   19SOL     OW   55   1.695   1.932   0.632  0.0409  0.4160 -0.3104
   19SOL    HW1   56   1.773   1.879   0.672  2.3143 -1.5992 -0.0504
   19SOL    HW2   57   1.705   1.934   0.534 -0.9075 -1.2306  3.0486
   20SOL     OW   58   2.334   2.106   2.239 -0.0281 -0.4728 -0.1731
   20SOL    HW1   59   2.277   2.151   2.310  0.5885 -1.5425  1.1929
   20SOL    HW2   60   2.392   2.171   2.184  0.9579  2.2520  1.0335
   21SOL     OW   61   1.654   0.465   0.581 -0.0833 -0.0057 -0.0781
   21SOL    HW1   62   1.716   0.385   0.595  1.9918  0.2645  0.8775
   21SOL    HW2   63   1.581   0.448   0.512 -1.5557 -1.7901 -1.3021
   22SOL     OW   64   2.524   0.076   1.639 -0.6286 -0.1040  0.1630
   22SOL    HW1   65   2.527   0.037   1.550  1.5214  0.7221  1.3484
   22SOL    HW2   66   2.463   0.025   1.703 -2.2420  0.5246  0.1472
   23SOL     OW   67   3.080   0.401   1.778  0.6481 -0.1915 -0.3308
   23SOL    HW1   68   3.001   0.343   1.812 -1.4022 -2.3126 -1.1910
   23SOL    HW2   69   3.045   0.487   1.732 -0.5850  1.9768 -3.0072
   24SOL     OW   70   2.554   2.777   0.193 -0.1398  0.0534  0.1965
   24SOL    HW1   71   2.651   2.796   0.228 -0.0117 -0.1159 -1.6003
   24SOL    HW2   72   2.485   2.822   0.256 -0.3886  1.6323 -0.3657
   25SOL     OW   73   1.371   3.047   2.345  0.2259 -0.4666 -0.1928
   25SOL    HW1   74   1.421   3.018   2.432  1.7625  0.7630 -0.6288
   25SOL    HW2   75   1.437   3.103   2.287  1.1254  0.9658  0.1458
   26SOL     OW   76   1.430   2.523   0.481 -0.5860 -0.4724 -0.2750
   26SOL    HW1   77   1.502   2.459   0.448  1.5956  1.1307 -2.8561
   26SOL    HW2   78   1.368   2.558   0.409 -1.6671  1.9097 -0.0105
   27SOL     OW   79   2.457   1.342   2.882 -0.1783 -0.1978 -0.5444
   27SOL    HW1   80   2.474   1.434   2.923  1.8514  0.7047 -0.7639
   27SOL    HW2   81   2.520   1.328   2.802 -0.6827  0.5940 -2.0461
   28SOL     OW   82   1.162   1.370   1.319  0.4610  0.6909  0.0695
   28SOL    HW1   83   1.124   1.274   1.306 -1.7141 -1.4875 -0.3160
   28SOL    HW2   84   1.097   1.430   1.369  0.6268  1.1729 -1.1099
   29SOL     OW   85   2.914   2.469   1.848 -0.3356 -0.7669  0.4687
   29SOL    HW1   86   2.931   2.520   1.759  0.9239  1.0053  1.8649
   29SOL    HW2   87   2.896   2.541   1.923 -1.0573  1.9874  3.0456
   30SOL     OW   88   1.223   0.357   1.077 -0.5416 -0.1128 -0.3102
   30SOL    HW1   89   1.197   0.316   0.987  0.5228  0.1345  1.2266
   30SOL    HW2   90   1.316   0.404   1.076  1.3475  1.0152 -1.2486
   31SOL     OW   91   2.123   2.821   2.098 -0.3371  0.8515 -0.0919
   31SOL    HW1   92   2.081   2.736   2.141 -0.2790 -1.5642  1.2266
   31SOL    HW2   93   2.158   2.793   2.007  1.5246  0.0684  1.1615
   32SOL     OW   94   1.115   1.763   0.466 -0.6354  0.3635 -0.1074
   32SOL    HW1   95   1.089   1.776   0.566 -0.8837  0.7405 -0.5119
   32SOL    HW2   96   1.051   1.707   0.416 -1.5494  0.1670  0.2405
   33SOL     OW   97   0.313   0.503   2.342 -0.1982  0.3276 -0.0508
   33SOL    HW1   98   0.380   0.563   2.389  2.2343  0.2063 -1.4227
   33SOL    HW2   99   0.324   0.528   2.243 -1.1658  0.5838  1.2661
   34SOL     OW  100   2.110   2.994   0.522 -0.2395  0.1052 -0.6082
   34SOL    HW1  101   2.054   2.986   0.602 -0.2451 -0.4988 -1.6694
   34SOL    HW2  102   2.153   3.085   0.528 -5.1575  0.5559 -1.1327
   35SOL     OW  103   2.127   2.566   1.579  0.9321  0.2297  0.8136
   35SOL    HW1  104   2.196   2.637   1.557 -0.8919  1.7423  0.2803
   35SOL    HW2  105   2.164   2.471   1.598  0.7796 -3.2379 -1.5642
   36SOL     OW  106   1.861   2.369   0.024 -0.1660 -0.4568  0.2743
   36SOL    HW1  107   1.803   2.288   0.039 -0.0960  0.3532 -0.8406
   36SOL    HW2  108   1.912   2.356   3.062 -0.4124  1.0688  0.4856
   37SOL     OW  109   1.135   0.561   2.309  0.2535  0.7273  0.1256
   37SOL    HW1  110   1.060   0.601   2.367 -2.5379  0.3565  0.2901
   37SOL    HW2  111   1.208   0.511   2.362  0.7278 -1.2726  1.3733
   38SOL     OW  112   0.433   0.213   2.796 -0.0362  0.0670  0.2187
   38SOL    HW1  113   0.482   0.294   2.753 -1.8280  1.5524 -0.2831
   38SOL    HW2  114   0.411   0.144   2.725  1.9014 -1.8728 -0.9484
   39SOL     OW  115   2.577   1.299   1.732 -0.5504  0.2133  0.0861
   39SOL    HW1  116   2.585   1.400   1.714  2.4812 -2.0395  1.3941
   39SOL    HW2  117   2.654   1.272   1.798  3.1343  0.0490 -1.1995
   40SOL     OW  118   1.179   3.043   0.345  0.5249  0.3766 -0.8475
   40SOL    HW1  119   1.162   0.012   0.367 -1.8887 -1.3122  2.1288
   40SOL    HW2  120   1.185   2.987   0.429 -0.3911  2.4336 -1.2057
   41SOL     OW  121   2.411   1.592   0.922 -0.5969  0.5052 -0.2166
   41SOL    HW1  122   2.481   1.559   0.988  0.3023 -0.1790 -0.3716
   41SOL    HW2  123   2.430   1.688   0.901 -0.4272 -1.5236  3.1835
   42SOL     OW  124   0.852   0.375   1.166  0.0406  0.0425 -0.4464
   42SOL    HW1  125   0.771   0.364   1.231 -2.0586  2.6570  1.4386
   42SOL    HW2  126   0.906   0.460   1.183 -1.7886  0.5982  0.1161
   43SOL     OW  127   3.043   1.937   2.713 -0.0033  0.1912 -0.8079
   43SOL    HW1  128   3.123   1.926   2.777  1.0660 -0.6862 -0.0368
   43SOL    HW2  129   2.954   1.887   2.739 -1.2274 -0.6878 -2.5242
   44SOL     OW  130   2.397   3.029   1.813  0.2774 -0.1788  0.2696
   44SOL    HW1  131   2.382   3.028   1.916  0.0043 -0.5916 -0.3649
   44SOL    HW2  132   2.307   3.053   1.770  1.3100 -1.6457  2.5740
   45SOL     OW  133   1.241   0.192   2.280  0.0552 -0.2637  0.1220
   45SOL    HW1  134   1.269   0.162   2.184  3.4333 -0.6351  0.6536
   45SOL    HW2  135   1.213   0.115   2.343  1.1312 -0.4474  0.9441
   46SOL     OW  136   1.041   2.761   2.596 -0.0917 -0.2503 -0.9649
   46SOL    HW1  137   0.946   2.729   2.607 -2.0249  0.9948  0.7257
   46SOL    HW2  138   1.080   2.802   2.685  2.2132 -2.0554  1.3384
   47SOL     OW  139   1.905   1.799   0.745  0.4819 -0.6124  0.1336
   47SOL    HW1  140   1.894   1.855   0.829 -2.1543  3.8682 -0.1824
   47SOL    HW2  141   1.911   1.702   0.768  0.3172  1.0818  2.6964
   48SOL     OW  142   1.121   2.278   0.655  0.1175 -0.3758 -0.2263
   48SOL    HW1  143   1.136   2.303   0.556 -1.4502 -0.3482 -0.3122
   48SOL    HW2  144   1.082   2.182   0.668  0.2596 -0.5668 -1.4619
   49SOL     OW  145   2.052   2.912   2.569  0.0311  0.0473 -0.4790
   49SOL    HW1  146   2.126   2.931   2.501  2.3566 -0.3315  1.9692
   49SOL    HW2  147   2.094   2.905   2.660  0.8037  1.8559 -1.5452
   50SOL     OW  148   1.692   2.920   0.188  0.0052 -0.5061 -0.6079
   50SOL    HW1  149   1.772   2.951   0.242  0.6475 -3.0674  0.8134
   50SOL    HW2  150   1.632   2.995   0.160 -0.2183 -1.6125 -1.3547
   51SOL     OW  151   2.038   0.611   1.192 -0.5234  0.9348 -0.4678
   51SOL    HW1  152   2.132   0.579   1.214  1.3462  0.0471  1.9402
   51SOL    HW2  153   2.007   0.692   1.251  0.3916  2.6838 -1.6441
   52SOL     OW  154   1.130   1.628   0.971 -0.5518  0.1966  0.3496
   52SOL    HW1  155   1.223   1.637   0.939  0.4533 -0.6754  0.4480
   52SOL    HW2  156   1.118   1.662   1.065 -1.7781  0.9182 -0.1610
   53SOL     OW  157   0.624   1.627   2.632  0.0261  0.1295 -0.1444
   53SOL    HW1  158   0.554   1.591   2.697 -0.9291 -0.8151  2.0924
   53SOL    HW2  159   0.712   1.572   2.631 -1.4824 -0.2954  2.1608
   54SOL     OW  160   2.812   1.143   1.843  0.6863 -0.5004 -0.2314
   54SOL    HW1  161   2.884   1.147   1.773 -1.3477 -1.2724  0.7398
   54SOL    HW2  162   2.780   1.047   1.863 -0.4392 -0.3462  1.1415
   55SOL     OW  163   2.640   1.936   0.650 -0.1940 -0.2217  0.0022
   55SOL    HW1  164   2.696   1.849   0.666  1.6672 -0.4549 -0.5780
   55SOL    HW2  165   2.707   2.010   0.616 -0.1170  0.7887 -1.8965
   56SOL     OW  166   1.585   0.083   1.700  0.0621 -0.3943 -0.1721
   56SOL    HW1  167   1.569   3.125   1.751 -0.4765  1.3515  0.5833
   56SOL    HW2  168   1.540   0.170   1.737 -1.4019  2.6893  1.1893
   57SOL     OW  169   1.393   1.577   2.976  0.4913 -0.0269 -0.2324
   57SOL    HW1  170   1.451   1.505   2.942 -1.1311 -0.5370  0.1506
   57SOL    HW2  171   1.443   1.655   3.021 -0.1225  0.4792  0.8112
   58SOL     OW  172   3.096   0.875   1.810 -0.3454 -0.2982 -0.0604
   58SOL    HW1  173   0.070   0.883   1.836  1.9366 -1.3876  1.6904
   58SOL    HW2  174   3.057   0.951   1.755  0.6417  0.5994 -0.7682
   59SOL     OW  175   1.908   2.672   0.335  0.1717  0.1827  0.5124
   59SOL    HW1  176   1.926   2.608   0.258 -0.8483  0.4371  2.4130
   59SOL    HW2  177   1.899   2.767   0.304 -0.6205 -0.8626  1.0813
   60SOL     OW  178   2.872   1.784   0.138  0.0227 -0.0396 -0.2093
   60SOL    HW1  179   2.852   1.863   0.201  0.6411 -2.5895  3.3783
   60SOL    HW2  180   2.930   1.811   0.062  0.8964  2.8328  2.3140
   61SOL     OW  181   0.954   2.770   0.743 -0.0560  0.2688 -0.4379
   61SOL    HW1  182   0.918   2.683   0.780  0.1559 -0.4338 -0.3662
   61SOL    HW2  183   0.888   2.809   0.674 -1.2158 -2.0584  2.8724
   62SOL     OW  184   1.918   1.842   2.679 -0.0244 -1.0481  0.0783
   62SOL    HW1  185   1.950   1.811   2.588 -1.7420  0.5293  0.6093
   62SOL    HW2  186   1.964   1.937   2.699  0.6724  0.6987 -1.5256
   63SOL     OW  187   2.216   2.434   0.699 -0.3340 -0.1487  0.4678
   63SOL    HW1  188   2.233   2.446   0.598 -0.8619 -1.9205 -1.7852
   63SOL    HW2  189   2.130   2.380   0.708  1.1176  3.7528  0.2980
   64SOL     OW  190   1.567   0.975   2.686 -0.1679 -0.2744  0.2590
   64SOL    HW1  191   1.543   0.949   2.591  0.8395 -0.7927  0.3749
   64SOL    HW2  192   1.668   0.991   2.687  2.9595  0.7125 -0.9349
   65SOL     OW  193   1.986   1.764   2.413 -0.4564 -1.0471  0.6128
   65SOL    HW1  194   2.070   1.810   2.432  0.1292 -0.4897  2.4876
   65SOL    HW2  195   1.927   1.823   2.349 -1.9553  0.5781 -0.8103
   66SOL     OW  196   0.296   1.007   1.527  0.2612  0.3838  0.1222
   66SOL    HW1  197   0.268   1.070   1.450 -1.3012 -1.5449  0.5013
   66SOL    HW2  198   0.373   1.050   1.581 -1.0520 -1.0361  1.4730
   67SOL     OW  199   2.434   2.737   2.650 -0.0827  0.0716  0.4553
   67SOL    HW1  200   2.362   2.781   2.705 -0.7595  0.7978 -0.9758
   67SOL    HW2  201   2.474   2.811   2.591 -0.4991  1.2154 -3.6257
   68SOL     OW  202   1.328   2.665   1.216  0.6060  0.4800 -0.8044
   68SOL    HW1  203   1.263   2.730   1.260 -1.1336  0.2042 -1.1893
   68SOL    HW2  204   1.302   2.645   1.118  2.1466  0.2588  0.1990
   69SOL     OW  205   0.712   2.580   3.031  0.3357 -0.2108 -0.4454
   69SOL    HW1  206   0.791   2.638   3.066  0.2925 -3.3373 -1.6662
   69SOL    HW2  207   0.753   2.513   2.969 -2.3423 -0.7990 -0.9275
   70SOL     OW  208   2.880   0.267   2.363 -0.0976  0.1458 -0.1583
   70SOL    HW1  209   2.842   0.258   2.456  0.3379  0.7390  0.1498
   70SOL    HW2  210   2.932   0.355   2.366 -1.2446 -1.3798  2.3108
   71SOL     OW  211   0.171   1.301   2.577 -0.1807 -0.5478 -0.1311
   71SOL    HW1  212   0.099   1.227   2.593 -0.5580  0.9850  0.8514
   71SOL    HW2  213   0.250   1.281   2.635 -0.2059 -1.8782  3.2310
   72SOL     OW  214   0.076   2.025   2.961 -0.4952 -0.3028 -0.4758
   72SOL    HW1  215   0.016   2.102   2.978  2.8266 -1.6385  2.2589
   72SOL    HW2  216   0.160   2.053   2.910  2.6604 -1.0148 -2.2409
   73SOL     OW  217   1.525   1.361   0.140 -0.2887 -0.7473  0.1415
   73SOL    HW1  218   1.549   1.370   0.244  0.9635 -0.1075  2.8377
   73SOL    HW2  219   1.469   1.441   0.106 -1.1557  0.7959 -2.1262
   74SOL     OW  220   2.173   2.636   2.829 -0.1083  0.0571  0.4574
   74SOL    HW1  221   2.179   2.595   2.733  0.1964  0.7077 -1.7543
   74SOL    HW2  222   2.177   2.735   2.825  3.2889 -3.3224 -1.6003
   75SOL     OW  223   2.127   1.972   1.121  0.3281  0.5665  0.3853
   75SOL    HW1  224   2.207   2.016   1.074  0.6234  0.5447 -1.7850
   75SOL    HW2  225   2.057   1.940   1.052 -1.6866 -1.3424  0.2039
   76SOL     OW  226   2.430   2.510   1.929  0.1148 -0.2526  0.0189
   76SOL    HW1  227   2.517   2.565   1.919 -1.0501 -0.2938  2.1592
   76SOL    HW2  228   2.449   2.433   1.993 -0.2720 -1.2098  0.5918
   77SOL     OW  229   2.560   3.101   2.163 -0.3472  0.6346  0.1935
   77SOL    HW1  230   2.491   0.042   2.133  0.5279  2.3984  0.2578
   77SOL    HW2  231   2.524   3.007   2.139 -1.3746  0.9653  0.8662
   78SOL     OW  232   1.989   1.244   3.062 -0.0691  0.7770 -0.3480
   78SOL    HW1  233   2.042   1.156   3.057  2.5325  2.5990  2.0782
   78SOL    HW2  234   1.912   1.231   3.128  1.5910 -2.7041 -0.4015
   79SOL     OW  235   2.557   1.513   2.501 -0.0474  0.8907 -0.1514
   79SOL    HW1  236   2.606   1.602   2.527  0.4071 -0.2942  0.9985
   79SOL    HW2  237   2.456   1.527   2.488  1.0055  1.8648 -1.2189
   80SOL     OW  238   1.920   1.652   1.564 -0.2140  0.0823  0.4839
   80SOL    HW1  239   1.832   1.703   1.576  0.0867  1.7002  3.0536
   80SOL    HW2  240   1.975   1.667   1.648  0.2462 -0.9176 -0.6238
   81SOL     OW  241   2.016   0.529   1.590  0.0325  0.1949 -0.9531
   81SOL    HW1  242   2.114   0.528   1.616 -1.2187 -2.1064 -0.6290
   81SOL    HW2  243   1.993   0.608   1.533  3.2696 -0.6384  0.2750
   82SOL     OW  244   2.186   2.288   1.588 -0.3401  0.5862  0.1057
   82SOL    HW1  245   2.272   2.260   1.540  1.5399  0.7570  1.6213
   82SOL    HW2  246   2.117   2.213   1.572  1.2193 -0.3164  0.7446
   83SOL     OW  247   2.949   3.076   0.081 -0.1436 -0.5071 -0.1085
   83SOL    HW1  248   2.943   0.015   0.158  0.1454  1.1511  0.6190
   83SOL    HW2  249   2.902   3.108   3.125 -1.4717  1.2480 -0.4281
   84SOL     OW  250   0.574   1.364   0.177 -0.0746  1.1070 -0.2157
   84SOL    HW1  251   0.653   1.383   0.122  0.0642 -0.0471  0.3386
   84SOL    HW2  252   0.582   1.279   0.229  0.2450 -2.2020  2.1437
   85SOL     OW  253   2.754   2.002   1.663  0.0707  0.3218  0.5170
   85SOL    HW1  254   2.775   1.903   1.666 -1.5398 -0.6995  0.9886
   85SOL    HW2  255   2.770   2.039   1.568  0.7283  3.4927 -0.2826
   86SOL     OW  256   0.346   2.609   1.474  0.0320  0.2121  0.0975
   86SOL    HW1  257   0.390   2.525   1.441 -2.3612  0.9901  0.5238
   86SOL    HW2  258   0.423   2.674   1.483  1.3933 -0.3682  0.5179
   87SOL     OW  259   0.384   2.657   2.406 -0.4159  0.0264  0.2370
   87SOL    HW1  260   0.478   2.633   2.383  0.6681  0.7202  0.3330
   87SOL    HW2  261   0.331   2.576   2.435  4.8293 -0.7522 -1.2376
   88SOL     OW  262   0.412   1.945   0.827  0.3404 -0.0622  0.1767
   88SOL    HW1  263   0.432   2.032   0.870  1.3660 -0.7954 -0.4038
   88SOL    HW2  264   0.489   1.882   0.853 -0.9132 -2.1359  0.0602
   89SOL     OW  265   0.912   0.570   1.535  0.7310  0.3630  0.6339
   89SOL    HW1  266   0.976   0.645   1.540 -0.0747 -0.4064 -1.8959
   89SOL    HW2  267   0.939   0.514   1.456 -0.1844  1.3169  0.8559
   90SOL     OW  268   3.125   1.376   1.727  0.7401 -0.1066 -0.2477
   90SOL    HW1  269   0.095   1.400   1.705  1.4428 -1.1780 -1.2785
   90SOL    HW2  270   3.088   1.428   1.807  0.1627  1.1505 -2.2645
   91SOL     OW  271   1.137   0.807   0.957 -0.3609  0.1357  0.5774
   91SOL    HW1  272   1.172   0.880   1.022 -1.0427  0.6275 -0.9204
   91SOL    HW2  273   1.210   0.777   0.897 -0.8222 -1.4425  1.8554
   92SOL     OW  274   2.142   1.030   0.639  0.0220 -0.0968  0.3437
   92SOL    HW1  275   2.229   1.072   0.606  0.7348  0.5672 -1.0525
   92SOL    HW2  276   2.057   1.059   0.585 -1.1397  0.3140  0.2919
   93SOL     OW  277   2.418   0.861   2.624 -0.4524 -0.1683 -0.0140
   93SOL    HW1  278   2.423   0.785   2.560 -1.6406  2.0648 -0.4522
   93SOL    HW2  279   2.344   0.845   2.692 -1.3005 -0.6466 -1.3449
   94SOL     OW  280   2.217   1.947   2.538 -0.7833 -0.2767  0.0473
   94SOL    HW1  281   2.209   2.039   2.494 -1.4152  0.1140  0.2359
   94SOL    HW2  282   2.294   1.935   2.603 -0.2365 -0.5799 -2.4114
   95SOL     OW  283   2.542   0.586   1.262 -0.2148  0.1293  0.2541
   95SOL    HW1  284   2.441   0.573   1.273 -1.0958  1.8931 -3.0547
   95SOL    HW2  285   2.589   0.494   1.269  0.0491 -1.8175 -0.8055
   96SOL     OW  286   2.544   2.797   1.748  0.5280 -0.0469 -0.2578
   96SOL    HW1  287   2.495   2.886   1.767  0.6889 -1.6691 -0.7337
   96SOL    HW2  288   2.569   2.755   1.836  1.6066 -0.5326 -0.2628
   97SOL     OW  289   2.553   1.044   1.289  0.5183  0.1497 -0.5517
   97SOL    HW1  290   2.554   1.085   1.197 -0.4235  1.3881  0.9878
   97SOL    HW2  291   2.544   1.121   1.359  1.6319 -0.7022 -0.0184
   98SOL     OW  292   1.644   1.891   1.560  1.0289 -0.1101 -0.0484
   98SOL    HW1  293   1.607   1.836   1.637 -1.4964 -0.3109 -0.5078
   98SOL    HW2  294   1.594   1.983   1.551 -1.3709  1.9267 -1.8080
   99SOL     OW  295   0.085   2.377   1.572  0.2851 -0.2170 -0.0222
   99SOL    HW1  296   0.052   2.448   1.509  0.4918  0.4771  0.2739
   99SOL    HW2  297   0.151   2.418   1.636 -0.9878  1.2943  1.2028
  100SOL     OW  298   1.277   0.774   2.897  0.5857 -0.0889 -0.2498
  100SOL    HW1  299   1.224   0.837   2.835  2.2970 -1.8533  0.3540
  100SOL    HW2  300   1.321   0.829   2.973  1.0381 -1.4160  0.7517
  101SOL     OW  301   2.137   0.283   2.610  0.3180 -0.0074  0.0112
  101SOL    HW1  302   2.217   0.240   2.560  0.1737 -1.3080 -2.5704
  101SOL    HW2  303   2.168   0.324   2.697 -0.1777  0.6731  0.7205
  102SOL     OW  304   0.427   0.731   1.470 -0.1889 -0.4126  0.0036
  102SOL    HW1  305   0.407   0.832   1.455  1.2083  1.9896 -0.2027
  102SOL    HW2  306   0.528   0.715   1.467  1.4833  0.7399  1.5521
  103SOL     OW  307   0.119   0.630   2.746  0.4313 -0.2319  0.3789
  103SOL    HW1  308   0.123   0.730   2.721  0.6324 -1.9192  1.9404
  103SOL    HW2  309   0.191   0.604   2.811 -2.2956 -0.9131 -0.6030
  104SOL     OW  310   0.939   0.579   2.497 -0.6319 -0.1896  0.7869
  104SOL    HW1  311   0.844   0.577   2.462  1.8674  0.3688  1.1194
  104SOL    HW2  312   0.966   0.503   2.562  3.7786  1.6211 -1.1631
  105SOL     OW  313   2.106   1.787   1.745  0.0700  0.2631 -0.4792
  105SOL    HW1  314   2.122   1.765   1.840 -0.5364  3.8236 -1.3387
  105SOL    HW2  315   2.187   1.836   1.707 -1.2320  0.3203  2.9907
  106SOL     OW  316   1.804   0.239   0.605  1.0099 -0.2618 -0.2478
  106SOL    HW1  317   1.756   0.152   0.630 -1.8494 -4.0154  3.4558
  106SOL    HW2  318   1.901   0.226   0.569 -0.0546 -0.0380  2.0342
  107SOL     OW  319   2.831   2.187   1.031  0.3558 -0.2448  0.2900
  107SOL    HW1  320   2.807   2.211   1.125 -1.5213 -1.5242 -0.0451
  107SOL    HW2  321   2.751   2.178   0.967  1.1466  1.8812  0.8575
  108SOL     OW  322   2.943   2.620   1.613 -0.6576 -0.0050  0.2195
  108SOL    HW1  323   2.851   2.656   1.592  2.7129  1.6092  0.6762
  108SOL    HW2  324   3.011   2.652   1.543 -1.7307 -0.9132  0.6498
  109SOL     OW  325   2.260   2.986   0.791 -0.2294  0.5844  0.1288
  109SOL    HW1  326   2.206   2.898   0.791  3.0666 -0.9780  1.1885
  109SOL    HW2  327   2.216   3.056   0.846  2.9642  0.0927  0.7690
  110SOL     OW  328   0.770   1.848   2.531 -0.4195  0.0183  0.4756
  110SOL    HW1  329   0.702   1.779   2.561 -0.9704  1.5375 -0.6946
  110SOL    HW2  330   0.847   1.851   2.599  0.2866  1.3741  0.0451
  111SOL     OW  331   1.710   2.538   2.213 -0.5780  0.6628 -0.1899
  111SOL    HW1  332   1.740   2.630   2.248  1.7779 -0.8584  0.7663
  111SOL    HW2  333   1.661   2.532   2.122 -3.0523 -1.8525 -0.2884
  112SOL     OW  334   1.896   1.814   0.064 -0.2588  0.2174 -0.2752
  112SOL    HW1  335   1.844   1.869   3.123 -2.9458 -1.4068 -0.8475
  112SOL    HW2  336   1.996   1.809   0.042  3.7460 -1.3473 -0.2929
  113SOL     OW  337   2.008   2.104   1.527 -0.4267 -0.2042  0.0786
  113SOL    HW1  338   2.057   2.025   1.485  0.3625  0.4486 -2.3384
  113SOL    HW2  339   1.955   2.061   1.601 -0.7425  1.2764 -0.0406
  114SOL     OW  340   2.977   1.168   0.806  0.2582  0.6012  0.0921
  114SOL    HW1  341   2.915   1.243   0.778 -0.1965  1.8974 -0.2121
  114SOL    HW2  342   2.947   1.080   0.758 -0.2675 -0.8121  2.9250
  115SOL     OW  343   0.812   0.768   3.081  0.0888  0.0019  0.3811
  115SOL    HW1  344   0.711   0.765   3.078  1.9236 -0.6139  1.3867
  115SOL    HW2  345   0.858   0.708   3.014 -1.3294  0.5056  1.1435
  116SOL     OW  346   2.769   1.711   2.582 -0.4845 -0.3271 -0.2537
  116SOL    HW1  347   2.712   1.796   2.573 -0.3021 -1.0339 -2.7508
  116SOL    HW2  348   2.796   1.689   2.678  1.9867 -1.6035  0.2766
  117SOL     OW  349   3.118   2.922   0.574 -0.2214  0.0868 -0.3664
  117SOL    HW1  350   0.057   2.849   0.538 -0.5067 -0.4697 -0.9025
  117SOL    HW2  351   3.025   2.896   0.561  0.2500  0.7552  0.7175
  118SOL     OW  352   0.856   1.569   2.933  0.5438 -0.0597  0.0762
  118SOL    HW1  353   0.798   1.650   2.948  0.3776 -2.1425  1.7968
  118SOL    HW2  354   0.942   1.596   2.890 -1.3131  0.7812  2.4523
  119SOL     OW  355   0.412   2.340   0.167  0.3232  0.2362 -0.0899
  119SOL    HW1  356   0.486   2.408   0.143  0.3211 -1.9507 -0.1714
  119SOL    HW2  357   0.458   2.259   0.206 -0.6580  0.3119  1.3229
  120SOL     OW  358   1.308   0.494   2.942 -0.1374 -0.0229  0.3513
  120SOL    HW1  359   1.403   0.497   2.982 -0.0699  0.5927 -1.9167
  120SOL    HW2  360   1.272   0.590   2.946 -2.7525  0.6973  0.7139
  121SOL     OW  361   1.196   2.811   0.507 -0.6465 -0.5177  0.0365
  121SOL    HW1  362   1.240   2.785   0.593 -0.5790  1.2547  0.5578
  121SOL    HW2  363   1.251   2.776   0.425 -1.1334 -0.4650 -0.1453
  122SOL     OW  364   2.385   2.459   1.385  0.5096 -0.3034 -0.2823
  122SOL    HW1  365   2.436   2.529   1.334  2.5950  0.7804 -1.0706
  122SOL    HW2  366   2.423   2.440   1.477 -0.4228 -1.3117 -0.9049
  123SOL     OW  367   0.760   1.994   0.567  0.2022 -0.5874 -0.3099
  123SOL    HW1  368   0.786   1.984   0.468  1.8838 -0.4368 -2.0746
  123SOL    HW2  369   0.669   2.043   0.569 -3.3519 -0.2900 -0.7639
  124SOL     OW  370   2.737   0.678   0.140  0.4417  0.2328 -0.1230
  124SOL    HW1  371   2.797   0.637   0.213 -0.4400  0.6262  0.1973
  124SOL    HW2  372   2.671   0.745   0.175  2.6074  1.9574  0.1903
  125SOL     OW  373   0.478   0.854   0.360 -0.2720 -0.3067  0.3085
  125SOL    HW1  374   0.527   0.769   0.360  1.1109  2.6519  1.5673
  125SOL    HW2  375   0.392   0.852   0.307  1.8697 -1.2400  0.3817
  126SOL     OW  376   0.186   1.961   0.983  0.0386  0.0536 -0.7688
  126SOL    HW1  377   0.268   1.949   0.926 -1.7500 -1.1538 -0.6174
  126SOL    HW2  378   0.106   1.910   0.950 -0.1941 -2.0847  1.0596
  127SOL     OW  379   1.467   1.808   1.782  0.4077 -0.1313  0.1835
  127SOL    HW1  380   1.516   1.815   1.872 -0.9388 -2.4050  0.2721
  127SOL    HW2  381   1.403   1.885   1.761  2.4876 -0.6188  0.5916
  128SOL     OW  382   1.112   1.026   0.244  0.4831 -0.0689  0.1471
  128SOL    HW1  383   1.065   1.070   0.163 -0.5308 -0.5326 -2.2088
  128SOL    HW2  384   1.198   1.074   0.255 -0.2886 -0.8654  1.1445
  129SOL     OW  385   2.029   1.130   1.012  0.4652 -0.0941 -0.4219
  129SOL    HW1  386   2.048   1.040   0.973 -0.1120  3.7324 -1.7049
  129SOL    HW2  387   1.948   1.166   0.961 -2.1251 -2.3057 -0.7978
  130SOL     OW  388   2.566   1.562   1.693 -0.5454 -0.2643  0.6093
  130SOL    HW1  389   2.486   1.620   1.664 -1.6574 -0.6164  0.8466
  130SOL    HW2  390   2.659   1.609   1.700  1.3169 -1.6305 -0.2517
  131SOL     OW  391   3.000   2.692   2.932 -0.1193 -0.3035  0.1534
  131SOL    HW1  392   2.900   2.696   2.963 -2.8375 -0.9050  2.0550
  131SOL    HW2  393   3.013   2.729   2.840  0.4641  0.9521  3.8534
  132SOL     OW  394   0.034   1.563   0.456  0.3296 -0.0430  0.5835
  132SOL    HW1  395   3.087   1.531   0.390 -2.6643  2.8584 -1.1401
  132SOL    HW2  396   0.037   1.515   0.546 -1.7867 -1.3974 -0.0110
  133SOL     OW  397   0.574   0.368   1.581  0.0658  0.3277  0.0523
  133SOL    HW1  398   0.497   0.323   1.627  3.1905  3.6067  0.3195
  133SOL    HW2  399   0.654   0.366   1.647  0.3130  1.5917  1.6382
  134SOL     OW  400   0.315   1.823   3.118  0.6383  0.2104 -0.2717
  134SOL    HW1  401   0.236   1.758   3.113  0.8307 -1.5879 -0.3690
  134SOL    HW2  402   0.357   1.833   3.026  3.4374  0.5413  0.2489
  135SOL     OW  403   1.693   0.573   1.911  0.0548 -0.2881 -0.0272
  135SOL    HW1  404   1.657   0.668   1.903  0.7623 -1.0548 -1.0624
  135SOL    HW2  405   1.624   0.516   1.955  1.5001  0.6244 -0.5359
  136SOL     OW  406   2.999   1.031   0.188  0.1232 -0.8726 -0.5745
  136SOL    HW1  407   3.069   0.985   0.125 -0.0385 -0.5190  0.0251
  136SOL    HW2  408   2.956   1.113   0.148 -0.4485 -0.0316  1.3574
  137SOL     OW  409   0.442   1.122   1.206  0.4721  0.4238  0.4612
  137SOL    HW1  410   0.364   1.136   1.272  1.3333 -0.4626  1.2423
  137SOL    HW2  411   0.413   1.081   1.119 -0.2792  3.0033  0.1562
  138SOL     OW  412   2.270   0.499   1.305  0.2454 -0.1144  0.1199
  138SOL    HW1  413   2.280   0.402   1.278 -2.5493  2.5323 -1.0524
  138SOL    HW2  414   2.294   0.514   1.405 -1.5219  0.0098 -0.5901
  139SOL     OW  415   1.288   2.688   0.286  0.3167 -0.2540  0.2936
  139SOL    HW1  416   1.363   2.715   0.224  0.5473 -1.4286  0.5037
  139SOL    HW2  417   1.207   2.654   0.231 -2.9423  0.4840 -0.9231
  140SOL     OW  418   1.430   1.411   1.413 -0.0092 -1.0194  0.0742
  140SOL    HW1  419   1.330   1.401   1.428  2.3554 -1.4095 -0.6720
  140SOL    HW2  420   1.440   1.421   1.312  0.9658  3.4062  1.2286
  141SOL     OW  421   1.397   2.066   0.357  0.2100 -0.1150 -0.5747
  141SOL    HW1  422   1.312   2.069   0.299  0.9873  3.2938  0.0777
  141SOL    HW2  423   1.371   2.069   0.456  1.4611 -1.0258 -1.0543
  142SOL     OW  424   0.882   0.382   0.421 -0.6058  0.2108 -0.2532
  142SOL    HW1  425   0.928   0.349   0.339  0.7515  1.7603 -0.7587
  142SOL    HW2  426   0.833   0.465   0.398  1.5438  1.0275  0.6491
  143SOL     OW  427   0.456   1.928   2.907 -0.2918 -0.8526 -0.1983
  143SOL    HW1  428   0.511   2.009   2.947  5.1828  1.2066 -0.5905
  143SOL    HW2  429   0.412   1.949   2.818  0.3836  1.2471 -0.8358
  144SOL     OW  430   1.641   2.703   0.924  0.2300  0.2838  0.4183
  144SOL    HW1  431   1.623   2.772   0.996 -0.3835 -0.4508  0.7927
  144SOL    HW2  432   1.734   2.711   0.881 -0.3773  0.4977 -1.1674
  145SOL     OW  433   1.953   0.806   2.851 -1.1716 -0.3010 -0.0895
  145SOL    HW1  434   1.940   0.709   2.822 -0.0392 -0.4344 -0.0697
  145SOL    HW2  435   1.913   0.814   2.943 -2.1413 -0.4516 -0.5025
  146SOL     OW  436   0.128   2.630   0.901 -0.2220  0.0849 -0.6958
  146SOL    HW1  437   0.076   2.718   0.885 -0.3787  0.2008  2.1263
  146SOL    HW2  438   0.137   2.575   0.820 -0.7941 -0.1360  0.5970
  147SOL     OW  439   2.126   3.074   2.158  0.5697 -0.5418  0.6343
  147SOL    HW1  440   2.093   2.983   2.130 -0.8315 -2.5156  0.1860
  147SOL    HW2  441   2.050   0.019   2.153 -2.9848  0.3644 -1.7732
  148SOL     OW  442   1.073   0.061   1.954  1.0703  0.0785 -0.2695
  148SOL    HW1  443   1.047   0.158   1.937  2.2874 -0.0068  1.2894
  148SOL    HW2  444   0.995   3.123   1.975 -0.7349 -0.6062  0.1082
  149SOL     OW  445   1.442   0.454   2.033  0.6245  0.0285 -0.3386
  149SOL    HW1  446   1.485   0.458   2.121 -0.8813 -0.0294 -1.1250
  149SOL    HW2  447   1.350   0.502   2.035 -0.1279  0.5743  2.2625
  150SOL     OW  448   2.847   0.082   3.002  0.1821  0.0913  0.1336
  150SOL    HW1  449   2.826   0.178   3.009 -2.4072 -4.3261 -3.6952
  150SOL    HW2  450   2.866   0.059   2.902  0.7546 -1.1284  0.6770
  151SOL     OW  451   0.820   1.605   0.424 -0.0762 -0.3698  0.0783
  151SOL    HW1  452   0.726   1.610   0.464  0.3440 -0.9901 -1.2104
  151SOL    HW2  453   0.812   1.642   0.328  1.3038  1.3891 -1.9918
  152SOL     OW  454   2.863   0.587   0.372 -0.5743  0.2752  0.0964
  152SOL    HW1  455   2.807   0.542   0.445 -4.1013 -0.6833  0.1376
  152SOL    HW2  456   2.953   0.622   0.414  1.6572 -0.0171 -0.1564
  153SOL     OW  457   2.840   0.415   1.514  0.1231 -0.2789 -0.0826
  153SOL    HW1  458   2.867   0.498   1.463 -1.7824 -3.0013  2.8693
  153SOL    HW2  459   2.797   0.446   1.601 -1.6452  0.2580  2.5022
  154SOL     OW  460   1.535   0.029   2.128  0.1385  0.6736  0.5493
  154SOL    HW1  461   1.558   3.064   2.091  1.9845  1.4509  0.3042
  154SOL    HW2  462   1.448   0.063   2.080  0.6979  1.4728  0.6969
  155SOL     OW  463   0.288   1.664   0.686  1.0585  0.0747 -0.1442
  155SOL    HW1  464   0.315   1.565   0.663 -2.3442 -1.9559 -0.3557
  155SOL    HW2  465   0.329   1.710   0.765 -0.3777  0.2847 -0.5716
  156SOL     OW  466   2.254   2.367   0.105  0.5603 -0.1033 -0.1215
  156SOL    HW1  467   2.215   2.435   0.038 -1.8455 -0.8988 -0.1640
  156SOL    HW2  468   2.184   2.334   0.170  5.0833  0.2052 -0.9956
  157SOL     OW  469   1.179   0.459   0.053 -0.1756  0.0843 -0.4868
  157SOL    HW1  470   1.148   0.550   0.089 -2.4952  0.1987  2.7014
  157SOL    HW2  471   1.225   0.469   3.093 -2.7553  0.4435  1.3727
  158SOL     OW  472   2.437   0.009   2.709 -0.1779  0.2849  0.0823
  158SOL    HW1  473   2.404   0.041   2.796  1.3471 -1.4121 -0.1965
  158SOL    HW2  474   2.416   0.078   2.637 -0.9744 -1.0039  1.1648
  159SOL     OW  475   2.907   0.105   0.288  0.1030 -0.3025 -0.0254
  159SOL    HW1  476   2.956   0.190   0.257 -0.0441  0.4355 -3.0114
  159SOL    HW2  477   2.922   0.096   0.388  0.8325 -1.0991  1.7463
  160SOL     OW  478   1.587   1.855   2.396  0.2313  0.2434 -0.0039
  160SOL    HW1  479   1.623   1.786   2.456  1.3963  1.7242 -0.0017
  160SOL    HW2  480   1.517   1.819   2.332 -1.3082  0.8094 -1.8735
  161SOL     OW  481   2.664   0.914   2.708 -0.5977 -0.2754 -0.0284
  161SOL    HW1  482   2.704   0.819   2.719 -0.2956 -1.5384  1.3872
  161SOL    HW2  483   2.570   0.909   2.668  1.2749  0.7044 -1.1265
  162SOL     OW  484   0.465   2.365   1.417  0.1124  0.6165  0.0041
  162SOL    HW1  485   0.526   2.428   1.368 -2.1448  0.3516  0.6046
  162SOL    HW2  486   0.490   2.370   1.515 -3.1820  1.8939 -2.3264
  163SOL     OW  487   2.008   0.492   2.440  0.2875  0.5178 -0.7199
  163SOL    HW1  488   2.018   0.410   2.501 -1.5661  2.0214  2.4005
  163SOL    HW2  489   2.069   0.466   2.360 -3.6609  2.3996  1.1322
  164SOL     OW  490   2.023   1.819   0.393  0.2125  0.0290 -0.3877
  164SOL    HW1  491   1.984   1.762   0.319 -0.8686  0.4052  0.1282
  164SOL    HW2  492   2.050   1.757   0.468  1.0800 -1.6745 -0.5006
  165SOL     OW  493   3.087   0.221   1.532  0.2584  0.3720 -0.3933
  165SOL    HW1  494   3.022   0.299   1.542 -1.1219  0.6063  0.9675
  165SOL    HW2  495   0.028   0.249   1.460  0.1000 -0.9775  1.8922
  166SOL     OW  496   2.373   1.192   3.106  0.0345  0.4476  0.3394
  166SOL    HW1  497   2.401   1.240   3.020 -0.3946  1.4197  0.0954
  166SOL    HW2  498   2.349   1.251   0.058  1.1622  0.7413 -1.5442
  167SOL     OW  499   2.876   0.804   3.043 -0.1972 -0.4616 -0.3181
  167SOL    HW1  500   2.852   0.772   0.004  1.4135  0.5639 -2.2005
  167SOL    HW2  501   2.905   0.720   2.989  2.6260 -1.0574 -0.2679
  168SOL     OW  502   1.454   2.870   2.804  0.4884  0.4060  0.1087
  168SOL    HW1  503   1.555   2.872   2.814  0.2415 -0.1679  1.3591
  168SOL    HW2  504   1.425   2.853   2.703 -0.5877 -1.6307 -2.1012
  169SOL     OW  505   0.021   1.455   0.739 -0.0066  0.4797 -0.4860
  169SOL    HW1  506   0.007   1.554   0.733 -1.1917  1.2513 -1.8019
  169SOL    HW2  507   3.057   1.412   0.755 -2.8367  2.8875  0.4787
  170SOL     OW  508   0.101   0.346   1.337 -0.3725 -0.4962 -0.4284
  170SOL    HW1  509   0.189   0.375   1.375 -0.8954  0.4281 -0.0400
  170SOL    HW2  510   0.048   0.425   1.296 -0.6154 -0.4753 -0.2482
  171SOL     OW  511   1.799   2.093   2.468 -0.2271  0.9863 -0.3453
  171SOL    HW1  512   1.737   2.022   2.433  1.7878  0.3988 -1.1731
  171SOL    HW2  513   1.857   2.142   2.401  1.5010 -0.3022  1.1935
  172SOL     OW  514   0.034   2.606   1.425  0.1557  0.4997  0.7402
  172SOL    HW1  515   0.040   2.580   1.325  1.0004  3.0525  0.3732
  172SOL    HW2  516   0.103   2.678   1.442 -0.9403 -0.4917  1.2708
  173SOL     OW  517   1.219   0.773   0.207  0.1496  0.3039 -0.1613
  173SOL    HW1  518   1.203   0.872   0.210  3.8386 -0.6575  2.4344
  173SOL    HW2  519   1.309   0.751   0.160  1.8600 -2.0709 -0.7710
  174SOL     OW  520   1.197   0.126   2.665 -0.5006 -0.2016 -0.1656
  174SOL    HW1  521   1.263   0.090   2.731 -0.7470  1.3877  2.0797
  174SOL    HW2  522   1.168   0.056   2.597 -1.4471  1.2338  0.9297
  175SOL     OW  523   2.135   1.969   0.824 -0.3368 -0.0545 -0.2675
  175SOL    HW1  524   2.041   1.934   0.851 -0.6335 -0.5384  4.0630
  175SOL    HW2  525   2.153   2.067   0.850 -0.4763 -0.7450  0.3261
  176SOL     OW  526   1.328   0.008   0.130  0.2710 -0.1555 -0.4814
  176SOL    HW1  527   1.292   3.099   0.225 -0.1873 -1.1809  2.2111
  176SOL    HW2  528   1.265   3.109   0.057  1.4890 -1.9839  0.1483
  177SOL     OW  529   1.010   1.444   0.293 -0.3232  0.0422  0.1175
  177SOL    HW1  530   0.962   1.496   0.364  1.8765 -0.2207  0.6355
  177SOL    HW2  531   1.088   1.490   0.252 -2.0578  2.6968  0.6826
  178SOL     OW  532   2.559   2.353   2.989  0.4382  0.1319  0.1274
  178SOL    HW1  533   2.631   2.285   3.014  2.2746 -1.2574  0.8782
  178SOL    HW2  534   2.533   2.413   3.069  1.1453  3.0025 -1.0996
  179SOL     OW  535   2.623   3.003   2.838  0.0991 -0.2440 -0.1718
  179SOL    HW1  536   2.603   2.986   2.935 -0.2070  2.8978  1.9161
  179SOL    HW2  537   2.544   3.046   2.792 -0.5335  0.2078 -0.2000
  180SOL     OW  538   1.547   1.534   0.720 -0.1602 -0.2132  0.6033
  180SOL    HW1  539   1.520   1.437   0.719  0.4567  0.4651  0.8897
  180SOL    HW2  540   1.502   1.586   0.646 -0.0701 -1.2816 -0.9989
  181SOL     OW  541   1.751   1.227   2.512 -0.6147 -0.0223  0.5378
  181SOL    HW1  542   1.812   1.160   2.559  2.2939 -2.2679  2.0106
  181SOL    HW2  543   1.755   1.320   2.558 -0.3254 -0.4814  1.5724
  182SOL     OW  544   2.527   2.913   2.469 -0.1303 -0.4383  0.1340
  182SOL    HW1  545   2.539   2.988   2.541 -0.1608  1.1054 -2.3898
  182SOL    HW2  546   2.595   2.925   2.394 -0.1188  1.4413 -1.9119
  183SOL     OW  547   1.778   0.611   2.373  0.1394 -0.4543 -0.7951
  183SOL    HW1  548   1.789   0.645   2.278 -0.4601 -0.9787  2.8077
  183SOL    HW2  549   1.860   0.561   2.410 -1.2259  0.2634  2.9166
  184SOL     OW  550   0.191   1.175   1.357 -0.6267  0.2947  1.0565
  184SOL    HW1  551   0.093   1.151   1.379 -1.4343  0.2648  1.2454
  184SOL    HW2  552   0.204   1.269   1.323  0.2945 -1.0867 -1.0184
  185SOL     OW  553   1.790   0.728   0.617 -0.3771 -0.3207  0.2760
  185SOL    HW1  554   1.889   0.705   0.605 -1.0172  1.6372 -1.6628
  185SOL    HW2  555   1.731   0.648   0.617  0.9583  0.2825 -3.0098
  186SOL     OW  556   0.336   2.586   3.055 -0.1415  0.1820 -0.3706
  186SOL    HW1  557   0.246   2.639   3.054 -0.3352  2.1344  3.2357
  186SOL    HW2  558   0.323   2.484   3.043  0.9866 -3.7121 -0.5965
  187SOL     OW  559   2.685   1.013   0.242  0.0210  0.2158  0.3239
  187SOL    HW1  560   2.774   0.961   0.229  1.6134 -0.6344 -2.9127
  187SOL    HW2  561   2.624   1.003   0.161  0.8928 -2.7814 -1.9776
  188SOL     OW  562   2.863   1.719   1.471 -0.1940  0.3338  0.2614
  188SOL    HW1  563   2.923   1.637   1.480 -0.1842 -0.0934  2.0920
  188SOL    HW2  564   2.915   1.806   1.466  1.5501  1.5927 -1.3455
  189SOL     OW  565   2.417   0.426   2.936 -0.0862 -0.1781  0.4618
  189SOL    HW1  566   2.477   0.448   2.855  4.5241  0.9184 -3.4901
  189SOL    HW2  567   2.467   0.429   3.026 -0.1767 -0.1212  1.9597
  190SOL     OW  568   1.508   1.338   2.221  0.9071  0.6164 -0.3349
  190SOL    HW1  569   1.464   1.342   2.126  1.9578  0.0272 -0.2854
  190SOL    HW2  570   1.455   1.397   2.285 -3.6609 -0.3285  4.3496
  191SOL     OW  571   0.558   0.275   1.921  0.1863  0.3180 -0.5033
  191SOL    HW1  572   0.487   0.250   1.855 -0.2690  0.8838  1.6219
  191SOL    HW2  573   0.629   0.198   1.907 -0.2990 -2.6779 -2.5992
  192SOL     OW  574   1.894   1.444   1.191  0.0471 -0.4253  0.2391
  192SOL    HW1  575   1.825   1.377   1.159  1.7197 -2.6344  0.8805
  192SOL    HW2  576   1.907   1.432   1.290  0.7690 -0.6260  2.4321
  193SOL     OW  577   1.468   0.676   0.979  0.1230 -0.2581 -0.2550
  193SOL    HW1  578   1.566   0.669   0.954  1.1569  1.0939  0.9692
  193SOL    HW2  579   1.411   0.746   0.926  2.2879 -0.8077  0.6703
  194SOL     OW  580   0.952   2.227   1.506 -0.4831 -0.0627 -0.2775
  194SOL    HW1  581   0.880   2.259   1.572  1.5173 -0.9323 -0.0018
  194SOL    HW2  582   0.922   2.135   1.466 -1.6178 -2.9737 -0.4670
  195SOL     OW  583   1.921   0.146   2.935 -0.4957  0.3110  0.1011
  195SOL    HW1  584   2.001   0.100   2.978  0.8969 -0.0266 -1.5465
  195SOL    HW2  585   1.930   0.142   2.831 -4.0313  2.1762 -3.5735
  196SOL     OW  586   0.543   1.682   1.740  0.2062  0.1723  0.0905
  196SOL    HW1  587   0.544   1.625   1.657 -1.4362  0.8147 -1.0052
  196SOL    HW2  588   0.637   1.697   1.769 -0.8945 -2.0194 -1.1812
  197SOL     OW  589   1.024   0.090   1.391 -0.0886  0.3521 -0.3833
  197SOL    HW1  590   1.062   0.088   1.295  3.5601  0.7588  1.3545
  197SOL    HW2  591   1.075   0.154   1.453 -0.4381  0.7947  0.8454
  198SOL     OW  592   0.814   1.061   1.127 -0.3475  0.3649  0.2442
  198SOL    HW1  593   0.791   0.981   1.179  1.1446 -0.7934 -3.1571
  198SOL    HW2  594   0.818   1.035   1.027 -2.1676  0.8566  2.4843
  199SOL     OW  595   0.227   2.562   1.721  1.1940 -0.5208 -0.2543
  199SOL    HW1  596   0.294   2.532   1.793 -2.0522 -2.7146  1.6866
  199SOL    HW2  597   0.281   2.587   1.636  0.5010  0.1424 -2.8216
  200SOL     OW  598   1.804   1.657   2.031 -0.1014 -1.1892 -0.1895
  200SOL    HW1  599   1.798   1.605   1.943  0.7659  3.2633  0.1819
  200SOL    HW2  600   1.836   1.589   2.103 -0.0969 -2.5045  2.3631
  201SOL     OW  601   0.448   1.675   2.412  0.2230 -0.6039  0.1375
  201SOL    HW1  602   0.369   1.731   2.438  1.7247 -0.1537 -1.0013
  201SOL    HW2  603   0.503   1.658   2.495 -2.1462  0.7309 -0.7548
  202SOL     OW  604   1.822   0.605   3.115  0.0904 -0.0367  0.1409
  202SOL    HW1  605   1.819   0.508   0.021  0.7340 -1.6906  2.7585
  202SOL    HW2  606   1.792   0.667   0.065 -1.7402 -0.3078  1.3923
  203SOL     OW  607   1.143   2.467   1.965  0.6462 -0.1211 -0.1801
  203SOL    HW1  608   1.065   2.439   2.028 -1.9966 -2.2390  0.1535
  203SOL    HW2  609   1.103   2.490   1.875  0.6874  2.9806  0.0795
  204SOL     OW  610   1.025   1.921   1.766  0.1223  0.1751  0.1764
  204SOL    HW1  611   0.974   1.927   1.679  0.4527 -0.8514  2.4129
  204SOL    HW2  612   1.124   1.921   1.744  1.5833 -2.1524 -0.1027
  205SOL     OW  613   1.598   1.822   2.046 -0.3084 -0.1213  0.2478
  205SOL    HW1  614   1.679   1.761   2.028  2.0007 -1.4317  1.2994
  205SOL    HW2  615   1.528   1.772   2.095  1.2996  0.5694 -2.8059
  206SOL     OW  616   0.029   1.022   2.463 -0.1800  0.2235  0.6779
  206SOL    HW1  617   0.011   0.937   2.408  1.5879 -1.2407  0.0978
  206SOL    HW2  618   0.098   1.078   2.410  0.4571  0.5529 -1.1632
  207SOL     OW  619   0.907   2.998   2.022 -0.2363 -0.2744 -0.3701
  207SOL    HW1  620   0.970   2.945   2.085  0.9215  0.2359  1.0877
  207SOL    HW2  621   0.831   2.931   1.992 -0.9376 -2.7669  0.6925
  208SOL     OW  622   0.706   2.770   1.994 -0.9918 -0.3924  0.0784
  208SOL    HW1  623   0.776   2.696   1.987  2.8661 -2.8388 -0.2320
  208SOL    HW2  624   0.644   2.769   1.916  0.4916  0.2481  2.8767
  209SOL     OW  625   1.580   0.053   0.072  0.3142 -0.0592  0.4442
  209SOL    HW1  626   1.616   0.113   0.148 -2.4642 -1.7326  0.8581
  209SOL    HW2  627   1.483   0.024   0.090 -0.8845 -0.6757  0.5152
  210SOL     OW  628   2.717   0.784   0.802  0.6352 -0.5316  0.2799
  210SOL    HW1  629   2.765   0.774   0.892 -0.5725  1.3605  0.5097
  210SOL    HW2  630   2.779   0.829   0.735 -2.9991 -1.0707 -1.9447
  211SOL     OW  631   0.622   0.417   1.298 -0.3477 -0.1540  0.4081
  211SOL    HW1  632   0.624   0.515   1.284  2.6016 -2.2252  0.0708
  211SOL    HW2  633   0.589   0.386   1.390  0.6623 -1.0946 -1.0737
  212SOL     OW  634   1.658   1.848   1.272 -0.8569 -0.0286  0.4202
  212SOL    HW1  635   1.657   1.840   1.373  4.6893  1.7556 -0.7210
  212SOL    HW2  636   1.662   1.947   1.247  0.9642 -0.4681 -0.9045
  213SOL     OW  637   2.354   0.313   1.863  0.0863 -0.5874  0.5622
  213SOL    HW1  638   2.364   0.262   1.778  0.8683  0.4932 -0.4514
  213SOL    HW2  639   2.423   0.388   1.860 -1.2752 -2.4224 -1.0932
  214SOL     OW  640   0.642   2.574   2.338 -0.1034  0.3851 -0.0394
  214SOL    HW1  641   0.706   2.655   2.341  0.2938 -0.6122 -0.7853
  214SOL    HW2  642   0.690   2.491   2.377  1.6873 -1.3665  4.7879
  215SOL     OW  643   2.802   1.667   1.752 -0.4600  0.5479  0.0557
  215SOL    HW1  644   2.851   1.628   1.836  1.0499  0.6680 -0.4232
  215SOL    HW2  645   2.859   1.651   1.666 -1.0296 -1.4039 -1.1475
  216SOL     OW  646   0.714   0.930   1.707  0.0486  0.1268 -0.0763
  216SOL    HW1  647   0.801   0.976   1.677  1.3000  0.3267  2.3823
  216SOL    HW2  648   0.638   0.995   1.723  0.0541  1.4823 -0.5473
  217SOL     OW  649   2.737   0.496   0.585  0.4905  0.6935 -0.3370
  217SOL    HW1  650   2.824   0.503   0.641  0.4293  0.6800  1.8124
  217SOL    HW2  651   2.659   0.550   0.632  1.3398  2.8194  1.2081
  218SOL     OW  652   1.620   2.111   1.223  0.2791  0.4063 -0.3524
  218SOL    HW1  653   1.611   2.183   1.150 -0.1643  1.6672  2.3019
  218SOL    HW2  654   1.666   2.153   1.302 -0.4655  2.1712 -1.6198
  219SOL     OW  655   1.728   0.007   0.640  0.4306 -0.4271 -0.0950
  219SOL    HW1  656   1.785   3.050   0.643  1.9443  1.0593 -0.9736
  219SOL    HW2  657   1.656   3.126   0.568 -0.8214  0.1276 -1.4784
  220SOL     OW  658   1.748   2.233   0.610 -0.4169  0.5793 -0.0376
  220SOL    HW1  659   1.678   2.243   0.535 -1.9715 -0.6676 -0.2455
  220SOL    HW2  660   1.726   2.147   0.662  0.0783  0.4352 -0.9803
  221SOL     OW  661   2.873   1.390   0.408  0.6544 -0.1365 -0.2731
  221SOL    HW1  662   2.796   1.343   0.362 -0.8598  0.4408  0.4869
  221SOL    HW2  663   2.921   1.450   0.336  2.1689 -0.4133  2.0717
  222SOL     OW  664   0.711   2.174   1.150  0.3834 -0.2281 -0.3465
  222SOL    HW1  665   0.808   2.163   1.117 -0.9157  0.2139  2.5783
  222SOL    HW2  666   0.704   2.266   1.200 -0.6525  4.2991  1.1968
  223SOL     OW  667   1.371   0.286   0.180  0.1168  0.2161  0.2199
  223SOL    HW1  668   1.299   0.339   0.133  1.2172 -1.6045 -3.1512
  223SOL    HW2  669   1.363   0.188   0.153 -1.7204  1.1199  0.1720
  224SOL     OW  670   2.806   1.248   1.448  0.3200  0.3553  0.2751
  224SOL    HW1  671   2.712   1.234   1.475  1.3278 -1.4187 -1.7072
  224SOL    HW2  672   2.816   1.299   1.359 -0.9847 -0.7986  0.4914
  225SOL     OW  673   0.602   1.504   1.541  0.0092 -0.4670  0.3584
  225SOL    HW1  674   0.637   1.411   1.565 -1.0835 -0.2688 -0.2095
  225SOL    HW2  675   0.535   1.492   1.462 -2.1021 -1.8700 -0.6232
  226SOL     OW  676   0.718   2.976   0.762 -0.1644 -0.1795  0.1976
  226SOL    HW1  677   0.741   2.910   0.833  1.3095 -0.5643 -3.0839
  226SOL    HW2  678   0.626   3.023   0.785 -3.1211  1.3422  0.9539
  227SOL     OW  679   1.285   1.600   1.802 -0.5761  0.1701  0.1536
  227SOL    HW1  680   1.257   1.596   1.703  0.0625 -0.4815  1.3256
  227SOL    HW2  681   1.362   1.664   1.819  0.0554  0.4331 -0.1446
  228SOL     OW  682   0.803   0.126   1.696  0.0492  0.3292 -0.4664
  228SOL    HW1  683   0.827   0.220   1.676 -2.1180 -1.0683  1.5023
  228SOL    HW2  684   0.886   0.068   1.677 -0.0687 -1.9592 -0.0269
  229SOL     OW  685   2.807   0.680   2.699 -0.3876 -0.1047 -0.1482
  229SOL    HW1  686   2.820   0.672   2.596 -1.2083  0.0644 -0.0526
  229SOL    HW2  687   2.889   0.651   2.756  1.0457  1.1480  3.2241
  230SOL     OW  688   0.325   0.790   1.164  0.3955  0.2107  0.7229
  230SOL    HW1  689   0.335   0.872   1.100  0.8726  1.3284 -3.6553
  230SOL    HW2  690   0.256   0.800   1.233  3.0071 -0.6637  1.2568
  231SOL     OW  691   1.210   2.780   1.660  0.1361  0.6791 -0.0821
  231SOL    HW1  692   1.169   2.851   1.600 -2.1813  0.1341  1.6357
  231SOL    HW2  693   1.306   2.805   1.681 -0.5901 -0.8941 -0.3158
  232SOL     OW  694   3.053   2.227   0.195 -0.2628  0.7504 -0.4471
  232SOL    HW1  695   3.055   2.128   0.228  0.9058  0.6671  2.9548
  232SOL    HW2  696   2.966   2.266   0.205  2.7851 -2.6058  0.1361
  233SOL     OW  697   1.205   2.510   2.913  0.1714  0.4347 -0.0743
  233SOL    HW1  698   1.178   2.477   2.822  1.9170  1.9236  1.2533
  233SOL    HW2  699   1.281   2.576   2.916  2.4018 -1.2092 -1.6170
  234SOL     OW  700   0.492   1.140   1.654 -0.6584  0.4223 -0.1499
  234SOL    HW1  701   0.570   1.178   1.603 -0.9914 -1.1739  0.5946
  234SOL    HW2  702   0.451   1.210   1.717  0.9607 -0.0859  3.4016
  235SOL     OW  703   3.114   2.498   2.478  0.2923 -0.1087  0.5579
  235SOL    HW1  704   0.084   2.509   2.459 -2.9344  1.1073 -1.6275
  235SOL    HW2  705   3.101   2.429   2.555 -0.0313 -2.1707  1.7872
  236SOL     OW  706   1.611   2.146   2.777  0.1780 -0.4425  0.3208
  236SOL    HW1  707   1.683   2.173   2.709  2.7583  0.2931 -1.1734
  236SOL    HW2  708   1.583   2.226   2.830 -0.3041 -3.6202 -2.4212
  237SOL     OW  709   1.763   0.980   0.998 -0.1656  0.3036 -0.5948
  237SOL    HW1  710   1.777   1.041   0.919 -1.3291  2.2956 -0.1813
  237SOL    HW2  711   1.776   1.028   1.091 -1.2005  1.9205  1.0173
  238SOL     OW  712   1.324   2.640   2.064 -0.0833  0.1519 -0.3141
  238SOL    HW1  713   1.260   2.563   2.045  0.0106  0.4863 -1.4338
  238SOL    HW2  714   1.289   2.730   2.025  1.3574 -0.3037  0.9112
  239SOL     OW  715   0.908   2.151   1.881  0.3332 -0.5297 -0.1648
  239SOL    HW1  716   0.935   2.214   1.953 -2.9548 -4.1540 -4.3445
  239SOL    HW2  717   0.973   2.080   1.855 -1.6653  3.3922 -1.3860
  240SOL     OW  718   2.410   0.154   0.893 -0.2346 -0.8819 -0.0485
  240SOL    HW1  719   2.462   0.072   0.913  0.1098  2.0574 -1.2871
  240SOL    HW2  720   2.442   0.193   0.806  1.6222 -3.3968 -0.6978
  241SOL     OW  721   1.138   1.564   2.922 -0.5215  0.2712  0.9164
  241SOL    HW1  722   1.107   1.642   2.976  0.1290 -1.2055 -1.9574
  241SOL    HW2  723   1.239   1.549   2.936 -2.1192  0.9551 -0.6481
  242SOL     OW  724   2.775   1.036   2.954  0.2626 -0.4101  0.3402
  242SOL    HW1  725   2.837   0.958   2.977  0.2006 -2.1099  2.2676
  242SOL    HW2  726   2.722   1.006   2.873 -1.5843 -0.5940  0.9579
  243SOL     OW  727   0.789   0.422   1.739  0.2568  0.1566 -0.6405
  243SOL    HW1  728   0.765   0.509   1.788  1.1628  1.6504 -0.8750
  243SOL    HW2  729   0.816   0.452   1.647  0.6324  0.6898 -1.0414
  244SOL     OW  730   1.116   2.871   2.833 -0.2502 -0.4637  0.4813
  244SOL    HW1  731   1.046   2.805   2.874 -0.1077  0.2450  0.0410
  244SOL    HW2  732   1.180   2.913   2.901  0.0595  2.6428 -1.7062
  245SOL     OW  733   1.520   2.715   0.117 -0.2870 -0.1512 -0.1242
  245SOL    HW1  734   1.558   2.625   0.142 -3.1377  2.4585  1.1202
  245SOL    HW2  735   1.586   2.791   0.145  2.6725 -0.4581  0.7317
  246SOL     OW  736   0.689   1.121   1.945  0.1139  0.0065 -0.1163
  246SOL    HW1  737   0.672   1.161   2.036  1.3335 -0.1161  0.2337
  246SOL    HW2  738   0.788   1.113   1.920 -1.3381 -0.3912  2.3881
  247SOL     OW  739   3.035   0.496   2.300 -0.0071  0.4240 -0.1743
  247SOL    HW1  740   3.041   0.432   2.224  0.6351 -0.9690  0.9614
  247SOL    HW2  741   3.110   0.484   2.373  1.0348 -1.1191  2.5877
  248SOL     OW  742   0.098   1.236   2.027 -0.2924  0.0733 -0.3802
  248SOL    HW1  743   0.006   1.202   2.008 -0.9802 -0.5867 -3.4969
  248SOL    HW2  744   0.149   1.173   2.083 -0.4134  0.9882 -1.4056
  249SOL     OW  745   3.028   0.360   0.260  0.1910  0.2333 -0.2084
  249SOL    HW1  746   3.115   0.343   0.306 -2.5255 -2.7554  0.5252
  249SOL    HW2  747   2.970   0.435   0.296 -0.1073  0.2791 -1.0670
  250SOL     OW  748   2.751   0.348   2.998  0.0158 -0.0053 -0.2503
  250SOL    HW1  749   2.680   0.389   3.064  0.1507  1.7306  1.6865
  250SOL    HW2  750   2.749   0.388   2.902  0.8523  0.2808  1.8509
  251SOL     OW  751   0.947   1.764   2.034 -0.3795 -0.3669  0.7391
  251SOL    HW1  752   0.920   1.801   2.123  0.8277 -1.2546 -5.6392
  251SOL    HW2  753   0.963   1.846   1.975 -0.9094 -0.1219 -2.4007
  252SOL     OW  754   2.158   1.629   1.422  0.1853  0.0405 -0.4384
  252SOL    HW1  755   2.146   1.572   1.337 -1.9339 -0.6068 -1.7240
  252SOL    HW2  756   2.069   1.620   1.472 -0.2505  1.4186 -1.1197
  253SOL     OW  757   1.602   2.278   2.241  0.2718 -0.2396  0.1227
  253SOL    HW1  758   1.647   2.367   2.229 -1.3343 -1.0136 -1.6325
  253SOL    HW2  759   1.631   2.215   2.168  0.2735 -1.9778  1.1652
  254SOL     OW  760   0.578   2.434   2.105 -0.2566  0.1587  0.0294
  254SOL    HW1  761   0.624   2.338   2.109  1.8047 -2.3180 -0.6015
  254SOL    HW2  762   0.602   2.484   2.190 -1.8883  0.4953  1.6238
  255SOL     OW  763   1.173   0.331   0.793 -0.2600  0.4014 -0.1342
  255SOL    HW1  764   1.185   0.420   0.750 -2.9449 -2.8082  0.0165
  255SOL    HW2  765   1.086   0.294   0.760  1.3909 -0.7128  1.4173
  256SOL     OW  766   2.348   2.094   1.436 -0.7995 -0.5326  0.0680
  256SOL    HW1  767   2.416   2.124   1.368 -0.1890 -0.5973  0.8209
  256SOL    HW2  768   2.282   2.020   1.395 -2.0183 -4.9041 -2.1719
  257SOL     OW  769   0.548   2.358   2.755 -0.7510 -0.7986  0.0805
  257SOL    HW1  770   0.604   2.305   2.823 -2.6990 -1.5209  0.9737
  257SOL    HW2  771   0.482   2.420   2.803  0.0022  1.5959 -1.6572
  258SOL     OW  772   0.323   0.841   2.166 -0.2864  0.1629  0.2471
  258SOL    HW1  773   0.311   0.742   2.140  1.0737 -0.3692  0.1718
  258SOL    HW2  774   0.364   0.895   2.095 -0.9335 -1.0432  0.5609
  259SOL     OW  775   0.703   1.091   2.266 -0.1962  0.6404 -0.0884
  259SOL    HW1  776   0.794   1.132   2.291  1.4561 -1.3324 -0.5256
  259SOL    HW2  777   0.638   1.163   2.245  2.8535 -0.9443 -1.7853
  260SOL     OW  778   2.093   0.913   0.863 -0.1227 -0.2563 -0.5919
  260SOL    HW1  779   2.167   0.867   0.920 -0.3966  1.7455  1.7349
  260SOL    HW2  780   2.140   0.964   0.790 -1.4558  1.1645  0.2877
  261SOL     OW  781   0.916   0.154   0.788  0.7990 -0.2687  0.1961
  261SOL    HW1  782   0.871   0.145   0.695  1.7969  0.8111  0.6855
  261SOL    HW2  783   0.980   0.081   0.795 -1.5286  0.3758  1.6292
  262SOL     OW  784   2.018   2.537   2.493  0.0284  0.4641  0.2281
  262SOL    HW1  785   1.958   2.595   2.554 -1.1294  2.7102  2.4958
  262SOL    HW2  786   2.105   2.499   2.536  3.1193 -0.2635 -0.5035
  263SOL     OW  787   0.611   1.754   0.064  0.0123  0.1624 -0.9329
  263SOL    HW1  788   0.512   1.750   0.080  1.4501 -0.3511 -0.7381
  263SOL    HW2  789   0.636   1.794   3.103  0.9388 -0.9905 -0.2001
  264SOL     OW  790   0.407   1.879   1.469  0.2269  0.4340 -0.4409
  264SOL    HW1  791   0.507   1.897   1.471 -0.4278 -1.0151  2.8334
  264SOL    HW2  792   0.361   1.910   1.385  0.1448  0.7399  0.2866
  265SOL     OW  793   0.886   0.808   0.535 -0.2423 -0.0852  0.2539
  265SOL    HW1  794   0.826   0.737   0.493  1.7637  1.1566 -0.1503
  265SOL    HW2  795   0.880   0.803   0.635 -2.0418 -0.0292 -1.0206
  266SOL     OW  796   1.332   2.099   3.069 -0.4960  0.1193 -0.7471
  266SOL    HW1  797   1.393   2.181   3.070 -3.0201 -0.1092 -4.2612
  266SOL    HW2  798   1.386   2.028   3.019 -2.1391  1.5402  1.2309
  267SOL     OW  799   0.349   0.520   2.915  0.4038  0.0775 -0.0750
  267SOL    HW1  800   0.319   0.447   2.976  2.3619 -1.3545 -0.3740
  267SOL    HW2  801   0.416   0.484   2.848  1.3205 -1.1207  1.5534
  268SOL     OW  802   0.900   0.661   2.806  0.0294  0.2477  0.3361
  268SOL    HW1  803   0.950   0.583   2.760 -1.7339 -0.5629  3.2700
  268SOL    HW2  804   0.877   0.739   2.745  1.3202 -0.9048  0.0272
  269SOL     OW  805   1.676   0.070   2.495 -0.0812 -0.3064 -0.2468
  269SOL    HW1  806   1.670   0.122   2.406  0.8250 -1.8117 -1.5390
  269SOL    HW2  807   1.652   0.129   2.578 -0.5784 -0.3827  1.3241
  270SOL     OW  808   0.816   0.881   2.661  0.5064  0.1157 -0.2860
  270SOL    HW1  809   0.752   0.861   2.583  1.4031 -0.7395  1.2543
  270SOL    HW2  810   0.784   0.965   2.712  0.4781  3.4336  1.2016
  271SOL     OW  811   0.158   0.826   0.257  0.6291 -0.3633 -0.0377
  271SOL    HW1  812   0.113   0.868   0.337  0.8296 -3.0456 -4.4955
  271SOL    HW2  813   0.165   0.726   0.259 -0.2062  2.3493 -2.1541
  272SOL     OW  814   2.234   1.288   2.442  0.2509  0.4674  0.2278
  272SOL    HW1  815   2.149   1.252   2.387 -2.9584 -3.5918 -1.5269
  272SOL    HW2  816   2.306   1.216   2.439 -1.7477  0.3239 -0.1924
  273SOL     OW  817   0.016   0.360   2.079 -0.0966 -0.6985  0.1700
  273SOL    HW1  818   0.043   0.450   2.036 -0.1329  1.2434 -1.1828
  273SOL    HW2  819   0.052   0.284   2.027  2.7995  1.1690  2.3354
  274SOL     OW  820   2.838   0.271   1.882  0.0721 -0.0216 -0.4638
  274SOL    HW1  821   2.823   0.213   1.800  0.8384  2.1940 -2.2472
  274SOL    HW2  822   2.852   0.216   1.968 -1.1319 -2.0562 -0.5476
  275SOL     OW  823   2.022   1.247   0.405  0.4637 -0.3509  0.2137
  275SOL    HW1  824   2.047   1.149   0.395 -0.2457 -0.4989 -2.5696
  275SOL    HW2  825   1.999   1.293   0.315 -3.4872 -1.1879 -1.0169
  276SOL     OW  826   0.368   1.221   3.040 -0.4635  0.1606 -0.1097
  276SOL    HW1  827   0.443   1.152   3.033  0.4866  0.7920  2.2523
  276SOL    HW2  828   0.282   1.192   2.997  0.5630  1.8877  0.1440
  277SOL     OW  829   1.820   2.773   2.289 -0.6511 -0.0393 -0.0393
  277SOL    HW1  830   1.922   2.750   2.290  1.9625  0.5158  1.3226
  277SOL    HW2  831   1.792   2.827   2.371 -0.7427 -0.1587  0.4264
  278SOL     OW  832   1.785   3.124   1.524  1.0927  0.5804  0.5082
  278SOL    HW1  833   1.872   3.077   1.545  1.9475  0.3593 -0.4303
  278SOL    HW2  834   1.744   0.042   1.608  1.3318  0.3745  0.6998
  279SOL     OW  835   1.271   1.174   2.774  0.7559 -0.0073  0.1735
  279SOL    HW1  836   1.330   1.245   2.734 -2.3011 -0.4259 -0.4481
  279SOL    HW2  837   1.280   1.148   2.871 -3.1240 -0.6247 -0.5078
  280SOL     OW  838   0.811   1.216   0.281  0.1950  0.2430  0.3307
  280SOL    HW1  839   0.834   1.314   0.262  0.3802  0.9230  1.0259
  280SOL    HW2  840   0.879   1.180   0.351  0.5425  1.2619  0.8267
  281SOL     OW  841   0.372   3.110   1.651 -0.6194  0.3258  0.3885
  281SOL    HW1  842   0.367   3.018   1.693  0.4909 -0.6074 -0.3101
  281SOL    HW2  843   0.450   3.120   1.590 -0.5411 -0.6767  2.0793
  282SOL     OW  844   0.134   2.219   0.896 -0.2994  0.0342 -0.7652
  282SOL    HW1  845   0.214   2.278   0.890 -3.7520  1.8973  1.5555
  282SOL    HW2  846   0.160   2.125   0.925 -0.6637 -2.2047  0.6706
  283SOL     OW  847   1.308   2.240   1.991  0.5471 -0.0511 -0.4301
  283SOL    HW1  848   1.235   2.311   1.986  0.6480  1.3577 -0.5514
  283SOL    HW2  849   1.381   2.265   1.927 -2.5913  0.1426 -2.6393
  284SOL     OW  850   2.312   0.859   0.333 -0.0622 -0.7172  0.5995
  284SOL    HW1  851   2.335   0.801   0.418 -0.3060 -1.0982  1.3748
  284SOL    HW2  852   2.366   0.842   0.248 -1.6558 -1.6946  0.0676
  285SOL     OW  853   3.023   2.762   2.669  0.8455  0.8191 -0.2009
  285SOL    HW1  854   3.055   2.731   2.580  1.4471 -0.5797 -0.6669
  285SOL    HW2  855   3.050   2.862   2.674 -2.2773  0.6861 -0.4842
  286SOL     OW  856   2.245   2.661   1.122 -0.4517  0.1455  0.7583
  286SOL    HW1  857   2.216   2.739   1.179 -0.4782 -1.9544 -0.9756
  286SOL    HW2  858   2.192   2.579   1.157 -0.8293  2.2522  2.9387
  287SOL     OW  859   0.603   1.376   0.954 -0.1719 -0.2575 -0.4381
  287SOL    HW1  860   0.678   1.440   0.925  1.3587 -1.7965  0.1556
  287SOL    HW2  861   0.622   1.330   1.049 -1.0282 -0.7662  0.7328
  288SOL     OW  862   1.628   2.461   0.150 -0.5904  0.5882 -0.5028
  288SOL    HW1  863   1.631   2.425   0.247 -0.6347  2.5202  1.7093
  288SOL    HW2  864   1.720   2.466   0.105  0.9384 -3.2286 -2.1795
  289SOL     OW  865   0.299   1.968   2.698 -0.8103  0.1235 -0.6262
  289SOL    HW1  866   0.293   2.071   2.690 -0.3112  2.8268  2.1065
  289SOL    HW2  867   0.285   1.923   2.606  0.0200  0.8942 -0.9149
  290SOL     OW  868   1.705   2.136   0.936 -0.0706  0.1489  0.2063
  290SOL    HW1  869   1.778   2.214   0.925  1.4320 -1.2033  0.6812
  290SOL    HW2  870   1.612   2.169   0.924  1.7006  2.2154 -0.3838
  291SOL     OW  871   1.604   1.734   3.078  0.0675 -0.5325 -0.2933
  291SOL    HW1  872   1.683   1.685   3.037 -1.1401 -0.9229  0.1027
  291SOL    HW2  873   1.623   1.776   0.041 -0.9938  0.2710 -2.2842
  292SOL     OW  874   1.509   1.578   1.182 -0.4400  0.2717 -0.2527
  292SOL    HW1  875   1.465   1.588   1.089  0.2021  1.9008  0.3431
  292SOL    HW2  876   1.496   1.656   1.246  0.2884 -2.9870 -3.1878
  293SOL     OW  877   1.941   2.962   0.721 -0.1833  0.1901  0.0854
  293SOL    HW1  878   1.957   2.999   0.811  0.3895  0.3390 -3.0795
  293SOL    HW2  879   1.919   2.862   0.721  1.4292 -0.2888 -0.6800
  294SOL     OW  880   3.037   1.325   2.819 -0.0652 -0.0019  0.0009
  294SOL    HW1  881   2.952   1.377   2.839  1.4433 -0.2248 -0.5005
  294SOL    HW2  882   3.032   1.296   2.722 -2.2009 -1.5846  1.1440
  295SOL     OW  883   1.351   1.836   2.669 -0.7281 -0.3912 -0.6031
  295SOL    HW1  884   1.432   1.832   2.607 -0.3933 -0.4267  1.9974
  295SOL    HW2  885   1.382   1.876   2.761 -1.4034  0.2733 -0.0338
  296SOL     OW  886   1.757   1.463   2.223  0.1071 -0.2608  0.1783
  296SOL    HW1  887   1.826   1.401   2.176 -0.1793  0.9419  1.1685
  296SOL    HW2  888   1.658   1.438   2.213 -1.9161 -1.0742  0.2795
  297SOL     OW  889   2.854   0.657   2.448 -0.0993 -0.6742  0.0235
  297SOL    HW1  890   2.938   0.639   2.394 -0.0682  0.3742  1.0018
  297SOL    HW2  891   2.769   0.685   2.399 -1.3484  3.8240  1.2250
  298SOL     OW  892   0.892   2.375   2.046 -0.0474  0.1175  0.2334
  298SOL    HW1  893   0.872   2.474   2.045 -0.0416 -5.3095  1.0290
  298SOL    HW2  894   0.816   2.323   2.093  0.7691  0.3358  0.4672
  299SOL     OW  895   0.790   2.684   2.730 -0.1779 -0.1654  0.0336
  299SOL    HW1  896   0.692   2.693   2.704  2.0701  0.4258 -0.5060
  299SOL    HW2  897   0.813   2.756   2.795 -2.5394  0.1693 -1.4725
  300SOL     OW  898   2.995   0.610   2.906  0.2414 -0.0512 -0.5023
  300SOL    HW1  899   3.034   0.542   2.974 -1.7169  1.5408  0.0818
  300SOL    HW2  900   3.065   0.647   2.839  0.5735  2.6450  0.1176
  301SOL     OW  901   1.684   0.727   1.433 -0.2574  0.3407 -0.2905
  301SOL    HW1  902   1.626   0.685   1.510 -0.6156 -1.9452  1.3358
  301SOL    HW2  903   1.623   0.781   1.365 -1.1342 -1.0946 -0.7449
  302SOL     OW  904   2.692   2.008   2.838 -0.7423  0.0139  0.2478
  302SOL    HW1  905   2.668   2.017   2.739  2.3162  1.3137 -0.1625
  302SOL    HW2  906   2.729   1.914   2.861  0.7367 -0.4788  0.9934
  303SOL     OW  907   0.091   0.108   2.550 -0.2373  0.1082  0.0528
  303SOL    HW1  908   0.146   0.144   2.470 -0.4989  1.7029 -2.6749
  303SOL    HW2  909   0.060   0.185   2.608 -0.1247 -0.0233 -1.3351
  304SOL     OW  910   2.948   0.718   1.378 -0.6933  0.1404 -0.8454
  304SOL    HW1  911   2.977   0.650   1.308  1.0062 -1.2425 -3.4570
  304SOL    HW2  912   2.854   0.747   1.353  2.3395 -2.5727 -0.7339
  305SOL     OW  913   0.027   3.088   1.987 -0.0330 -0.5531 -0.2353
  305SOL    HW1  914   3.103   3.028   2.049  0.2309  0.7065  1.3957
  305SOL    HW2  915   3.105   3.113   1.903  0.3517  2.1147 -1.1747
  306SOL     OW  916   2.956   1.451   1.515 -0.2872 -0.2129  0.0994
  306SOL    HW1  917   3.003   1.432   1.602 -0.5386 -1.1079 -0.8876
  306SOL    HW2  918   2.910   1.370   1.477  2.5875  0.1839 -1.1350
  307SOL     OW  919   1.951   0.327   1.253 -0.0281 -0.3261 -0.1199
  307SOL    HW1  920   1.922   0.365   1.344 -0.4289 -0.2547  1.1486
  307SOL    HW2  921   1.914   0.394   1.191  1.0172  1.7340 -0.4382
  308SOL     OW  922   0.277   1.960   1.234 -0.1131 -0.0108 -0.5713
  308SOL    HW1  923   0.251   1.943   1.134 -0.9053 -0.6385 -1.6069
  308SOL    HW2  924   0.223   2.038   1.268 -0.4957 -0.8805 -1.2388
  309SOL     OW  925   2.387   1.683   1.523 -0.0359 -0.1283  0.4082
  309SOL    HW1  926   2.301   1.650   1.480  1.1743  4.4523  0.1817
  309SOL    HW2  927   2.371   1.767   1.575  0.3319 -2.9497 -2.7020
  310SOL     OW  928   2.635   1.767   0.006 -0.0602 -0.1712 -0.0452
  310SOL    HW1  929   2.715   1.747   0.065  0.4157  1.8085 -0.1340
  310SOL    HW2  930   2.578   1.844   0.048 -1.0279  0.5962  2.6035
  311SOL     OW  931   2.244   1.548   2.473  0.1028  0.0005 -0.2739
  311SOL    HW1  932   2.234   1.447   2.452 -0.2583 -0.7039  0.1575
  311SOL    HW2  933   2.218   1.569   2.571  1.3634  2.7069  1.3461
  312SOL     OW  934   2.010   2.218   1.214  0.2553 -0.3364  0.1839
  312SOL    HW1  935   1.938   2.214   1.285 -0.1009  1.5195 -0.6733
  312SOL    HW2  936   2.057   2.125   1.217 -0.7263 -1.0395 -1.3830
  313SOL     OW  937   0.039   2.591   1.147  0.1249 -0.2879 -0.0784
  313SOL    HW1  938   0.076   2.583   1.051 -1.2257 -0.5183  2.4932
  313SOL    HW2  939   3.068   2.570   1.152  0.5615 -0.4691  2.2679
  314SOL     OW  940   1.228   1.926   1.445  0.3043 -0.2453  0.2847
  314SOL    HW1  941   1.181   2.008   1.400 -1.7108  0.1999  1.6459
  314SOL    HW2  942   1.250   1.946   1.542 -0.4555 -3.0749  1.9426
  315SOL     OW  943   0.341   3.061   2.311 -0.4056 -0.4612 -0.0138
  315SOL    HW1  944   0.411   3.025   2.256  1.4182  1.9582 -3.6967
  315SOL    HW2  945   0.289   0.001   2.251  0.3160 -1.2032 -2.7251
  316SOL     OW  946   3.082   1.855   0.908  0.6500  0.1987  0.3860
  316SOL    HW1  947   3.099   1.810   0.820 -1.8847 -1.9362  2.9264
  316SOL    HW2  948   2.989   1.821   0.937 -2.0036 -0.3180  0.2141
  317SOL     OW  949   1.902   0.181   0.283 -0.2356  0.0046 -0.2131
  317SOL    HW1  950   1.802   0.192   0.305  0.8256 -2.0665 -1.3590
  317SOL    HW2  951   1.959   0.204   0.363 -0.5236 -3.4216 -3.0224
  318SOL     OW  952   2.857   2.634   0.157  0.0007 -0.0871 -0.2977
  318SOL    HW1  953   2.813   2.637   0.066 -0.1995 -0.0951 -2.0671
  318SOL    HW2  954   2.883   2.727   0.188 -1.0293  1.7256 -0.5221
  319SOL     OW  955   1.467   1.636   0.284  0.5762  0.2040  0.3649
  319SOL    HW1  956   1.432   1.647   0.378 -0.9256  2.6305 -0.7264
  319SOL    HW2  957   1.508   1.728   0.251 -1.1370  2.2683 -1.5513
  320SOL     OW  958   0.540   2.739   2.653 -0.4637  0.4660 -0.0381
  320SOL    HW1  959   0.511   2.743   2.749  0.9035  0.0529  1.9952
  320SOL    HW2  960   0.463   2.733   2.587 -0.0585  1.0329  0.3178
  321SOL     OW  961   0.858   0.065   0.109  0.0505  0.3639  0.4251
  321SOL    HW1  962   0.826   0.026   0.197 -1.5881 -0.7048  0.2775
  321SOL    HW2  963   0.909   3.118   0.064  1.5603 -0.5067  2.5261
  322SOL     OW  964   2.336   1.002   2.166 -0.8159 -0.3699  0.4856
  322SOL    HW1  965   2.266   0.976   2.229  1.2790  3.5212 -0.2898
  322SOL    HW2  966   2.351   1.103   2.164 -1.2577 -1.5326 -0.0590
  323SOL     OW  967   2.600   0.964   0.493 -0.2082  0.2457  0.3204
  323SOL    HW1  968   2.568   0.871   0.510 -1.8848  1.5147  1.0270
  323SOL    HW2  969   2.618   0.976   0.392  1.1971  0.1062 -0.2701
  324SOL     OW  970   0.100   0.538   2.478  0.3401  0.1306  0.4603
  324SOL    HW1  971   0.097   0.585   2.573  2.4790  0.9399  2.9025
  324SOL    HW2  972   0.193   0.542   2.435  0.5774  0.5830  1.7981
  325SOL     OW  973   1.318   2.921   2.075  0.8120  0.2791  0.2526
  325SOL    HW1  974   1.365   2.984   2.013 -0.1146  2.0514  0.6491
  325SOL    HW2  975   1.368   2.919   2.160  2.2725  2.4683  1.9281
  326SOL     OW  976   2.539   2.966   1.253  0.4994  0.3134 -0.1304
  326SOL    HW1  977   2.521   2.991   1.154  0.5950 -1.9476  0.1135
  326SOL    HW2  978   2.474   3.011   1.322 -0.8601  1.9832  0.4756
  327SOL     OW  979   1.752   0.898   3.026 -0.2371 -0.4421  0.0750
  327SOL    HW1  980   1.716   0.989   2.999 -2.4552 -2.0929  3.0808
  327SOL    HW2  981   1.687   0.831   2.996 -1.4814  0.8590  0.8626
  328SOL     OW  982   2.832   1.571   2.294 -0.4460 -0.0369 -0.1400
  328SOL    HW1  983   2.873   1.628   2.364  0.5409 -2.3790 -1.1411
  328SOL    HW2  984   2.851   1.473   2.315  0.3618 -0.1263 -0.8072
  329SOL     OW  985   1.749   2.735   1.851  0.7053  0.1074 -0.1308
  329SOL    HW1  986   1.687   2.672   1.901 -1.0162 -0.6388 -0.5023
  329SOL    HW2  987   1.788   2.683   1.775 -2.3026  4.0239  2.2845
  330SOL     OW  988   2.435   1.586   1.957 -0.0488 -0.0920 -0.0974
  330SOL    HW1  989   2.486   1.550   1.875 -4.5403 -1.4290  0.8769
  330SOL    HW2  990   2.497   1.639   2.017 -1.6932 -1.9106  1.6820
  331SOL     OW  991   3.103   2.090   0.720  0.1247 -0.1743 -0.2523
  331SOL    HW1  992   3.069   2.020   0.785 -0.2999 -0.1276 -1.7624
  331SOL    HW2  993   0.040   2.152   0.773  0.8247 -1.0454  2.5212
  332SOL     OW  994   0.309   0.049   0.474 -0.3142 -0.0268  0.6247
  332SOL    HW1  995   0.271   0.067   0.564 -1.2660 -2.3165 -0.5619
  332SOL    HW2  996   0.253   3.111   0.416 -3.2615  0.7505 -2.4559
  333SOL     OW  997   2.231   3.016   2.400 -0.2365 -0.0875  0.1010
  333SOL    HW1  998   2.323   2.974   2.402  0.2855  0.6417  3.7688
  333SOL    HW2  999   2.194   3.027   2.306 -2.8005 -0.1132  2.7244
  334SOL     OW 1000   0.867   1.476   0.900  0.0779 -0.5752 -0.1297
  334SOL    HW1 1001   0.870   1.475   0.799 -0.0077  2.8047 -1.1679
  334SOL    HW2 1002   0.961   1.502   0.941  3.5432  2.9559 -0.7385
  335SOL     OW 1003   3.079   2.725   2.340 -0.2615  0.1308  0.2372
  335SOL    HW1 1004   0.042   2.765   2.339 -0.9212 -0.8332 -0.1409
  335SOL    HW2 1005   3.072   2.632   2.389  0.6304 -1.1398  2.9274
  336SOL     OW 1006   2.902   2.753   1.938 -0.4315  0.1863  0.2012
  336SOL    HW1 1007   2.921   2.794   2.029  1.2667 -1.3001  0.7622
  336SOL    HW2 1008   2.995   2.731   1.896  0.9154  0.4106  1.5669
  337SOL     OW 1009   1.965   1.526   0.758 -0.3662 -0.3752 -0.1721
  337SOL    HW1 1010   2.051   1.506   0.813  1.3023 -0.0241  1.3725
  337SOL    HW2 1011   1.887   1.518   0.820  0.6652  2.0639 -0.0824
  338SOL     OW 1012   1.126   1.702   1.235  0.3169  0.1073 -0.4376
  338SOL    HW1 1013   1.137   1.616   1.288 -0.7656 -3.0730 -0.3523
  338SOL    HW2 1014   1.213   1.759   1.238  2.4737  2.0163  1.7743
  339SOL     OW 1015   2.876   0.822   1.037 -0.0307  0.0376  0.4373
  339SOL    HW1 1016   2.953   0.882   1.062 -0.6955  1.1266  0.0671
  339SOL    HW2 1017   2.813   0.808   1.115 -0.8515 -2.2408  1.1234
  340SOL     OW 1018   1.610   2.877   2.101  0.1245 -0.9675 -0.1407
  340SOL    HW1 1019   1.532   2.813   2.098 -0.7902 -0.6431  0.2867
  340SOL    HW2 1020   1.691   2.836   2.149  0.7383 -0.9358  2.1366
  341SOL     OW 1021   2.184   1.457   0.887  0.2828 -0.0597 -0.4270
  341SOL    HW1 1022   2.269   1.513   0.883  0.4067 -0.1362 -0.3315
  341SOL    HW2 1023   2.201   1.364   0.851  0.1989 -3.3935  0.9517
  342SOL     OW 1024   0.039   1.735   0.680 -0.1704  0.3658 -0.4190
  342SOL    HW1 1025   0.136   1.714   0.690 -2.5049  1.1729 -0.3283
  342SOL    HW2 1026   0.034   1.772   0.589  1.6223  0.4470 -1.6985
  343SOL     OW 1027   2.511   1.229   1.477 -0.4904 -0.5511 -0.3791
  343SOL    HW1 1028   2.408   1.240   1.468  1.2151  1.4683 -1.3498
  343SOL    HW2 1029   2.532   1.247   1.577  1.1961  0.0542  0.7796
  344SOL     OW 1030   2.057   0.452   0.961  0.5247  0.1469 -0.2761
  344SOL    HW1 1031   2.003   0.367   0.958 -0.8251  0.4422  0.0538
  344SOL    HW2 1032   2.029   0.509   1.041 -4.8594  0.7358  1.9452
  345SOL     OW 1033   3.016   2.944   2.163  0.0306 -0.5466 -0.5259
  345SOL    HW1 1034   3.038   2.858   2.216  0.1979  0.4188 -1.3074
  345SOL    HW2 1035   2.988   3.019   2.232 -2.7110  2.1153  2.7063
  346SOL     OW 1036   2.989   1.541   0.240  0.5704 -0.1041  0.0107
  346SOL    HW1 1037   2.974   1.635   0.211  0.8546 -1.8421  0.9555
  346SOL    HW2 1038   3.037   1.490   0.164  2.2274 -1.2905 -0.7906
  347SOL     OW 1039   1.621   2.506   1.575 -0.0849 -0.4319  0.1877
  347SOL    HW1 1040   1.721   2.497   1.599  0.0402  0.0248  1.1810
  347SOL    HW2 1041   1.610   2.536   1.477  1.1500  0.9941  0.2127
  348SOL     OW 1042   0.973   1.184   1.899  0.9132  0.1031 -0.2929
  348SOL    HW1 1043   0.967   1.222   1.807 -1.5471  0.0405  2.3171
  348SOL    HW2 1044   1.063   1.194   1.944 -1.8467  0.8264 -2.5810
  349SOL     OW 1045   2.348   1.666   2.250  0.6827  0.3260  0.0083
  349SOL    HW1 1046   2.319   1.623   2.338 -1.1268 -0.4412  1.2205
  349SOL    HW2 1047   2.372   1.764   2.266 -2.1882 -1.7083 -1.3112
  350SOL     OW 1048   2.838   2.368   0.548  0.3122 -0.1210  0.1944
  350SOL    HW1 1049   2.804   2.389   0.458  0.3033 -1.6639  0.8767
  350SOL    HW2 1050   2.933   2.396   0.563 -1.0363 -0.2512 -0.4695
  351SOL     OW 1051   0.372   0.244   1.721 -0.2502  0.0462 -0.2571
  351SOL    HW1 1052   0.372   0.145   1.695 -0.5223  1.3674 -2.1110
  351SOL    HW2 1053   0.301   0.266   1.792  1.2228 -0.2119  0.6588
  352SOL     OW 1054   1.312   2.480   1.633  0.0148 -0.1999 -0.0044
  352SOL    HW1 1055   1.269   2.570   1.607  1.6627 -0.4285 -2.0935
  352SOL    HW2 1056   1.398   2.488   1.693  2.7704 -0.7479  1.3314
  353SOL     OW 1057   0.938   1.191   2.332  0.3524 -0.4096 -0.0798
  353SOL    HW1 1058   0.967   1.199   2.430  0.1504 -5.2723  0.9661
  353SOL    HW2 1059   0.985   1.267   2.277  2.4262  1.5248 -1.3699
  354SOL     OW 1060   1.396   1.678   0.528 -0.0859  0.4390  0.3598
  354SOL    HW1 1061   1.425   1.771   0.561  1.8176  1.3190 -1.6184
  354SOL    HW2 1062   1.296   1.667   0.519 -1.5341 -0.7712  0.2976
  355SOL     OW 1063   1.905   0.210   0.885 -0.1842  0.6472  0.1690
  355SOL    HW1 1064   1.835   0.212   0.957  0.5490 -1.3993 -0.3437
  355SOL    HW2 1065   1.873   0.247   0.796 -2.2868  2.5778  1.8661
  356SOL     OW 1066   3.092   1.368   0.045  0.2465  0.0363 -0.4378
  356SOL    HW1 1067   0.048   1.316   0.068 -0.9076 -0.4518  0.6888
  356SOL    HW2 1068   3.017   1.296   0.030 -1.4169 -2.6034 -0.8030
  357SOL     OW 1069   0.438   2.892   1.800 -0.0854 -0.2244 -0.0766
  357SOL    HW1 1070   0.476   2.942   1.883 -0.9489 -4.5649  1.0452
  357SOL    HW2 1071   0.334   2.887   1.815 -0.0206 -0.9018 -0.5004
  358SOL     OW 1072   0.379   1.475   0.033 -0.6176  0.2296  0.0028
  358SOL    HW1 1073   0.386   1.399   3.097  2.7027 -0.6835  1.3060
  358SOL    HW2 1074   0.458   1.465   0.099  3.5813 -2.3642  4.7345
  359SOL     OW 1075   2.758   2.549   2.597  0.6167  0.3028 -0.0293
  359SOL    HW1 1076   2.724   2.578   2.685 -0.7826  0.5610 -1.1572
  359SOL    HW2 1077   2.791   2.630   2.538 -0.2897 -2.3450  1.0200
  360SOL     OW 1078   1.636   1.354   1.107 -0.3251 -0.0204  0.0865
  360SOL    HW1 1079   1.654   1.353   1.004  1.6055 -1.6917 -0.0451
  360SOL    HW2 1080   1.597   1.441   1.143  1.1075 -1.7726 -1.3711
  361SOL     OW 1081   2.139   2.450   1.240  0.5306 -0.1659  0.6734
  361SOL    HW1 1082   2.122   2.353   1.216 -0.5535 -1.1152 -0.8002
  361SOL    HW2 1083   2.212   2.467   1.309 -0.0869  3.4695  0.0214
  362SOL     OW 1084   1.745   1.483   0.881  0.5881  0.7248 -0.0965
  362SOL    HW1 1085   1.761   1.563   0.941  0.3591  2.2928 -0.3900
  362SOL    HW2 1086   1.667   1.506   0.818  0.7759 -0.4254 -0.3051
  363SOL     OW 1087   2.515   2.319   0.431  0.3921 -0.2893 -0.1916
  363SOL    HW1 1088   2.540   2.313   0.527 -0.5130  1.1500 -2.2927
  363SOL    HW2 1089   2.569   2.254   0.373 -0.0461 -0.1977  2.1205
  364SOL     OW 1090   2.970   3.117   1.426 -0.0207 -0.0661 -0.3948
  364SOL    HW1 1091   2.994   0.091   1.411  3.7913  1.2197 -2.8579
  364SOL    HW2 1092   3.056   3.064   1.450 -1.0542  0.3542  1.1226
  365SOL     OW 1093   0.673   2.761   0.972 -0.5473 -0.9542  0.4198
  365SOL    HW1 1094   0.593   2.747   0.909 -3.4044  1.1603  0.1416
  365SOL    HW2 1095   0.745   2.690   0.961 -0.8867  0.8530  0.9917
  366SOL     OW 1096   0.583   1.628   0.530  0.0817  0.0365 -0.2888
  366SOL    HW1 1097   0.541   1.694   0.470 -1.5508 -1.5926  0.8288
  366SOL    HW2 1098   0.536   1.543   0.525 -0.1344  2.8092  1.5560
  367SOL     OW 1099   2.606   2.574   2.809 -0.8146 -0.0946 -0.2749
  367SOL    HW1 1100   2.528   2.598   2.745 -0.7757  1.1808  0.9235
  367SOL    HW2 1101   2.592   2.492   2.866  1.4009  1.4519 -0.8147
  368SOL     OW 1102   2.598   2.103   0.875  0.0458 -0.2895  0.3803
  368SOL    HW1 1103   2.535   2.053   0.941 -1.3065  0.2141  0.4262
  368SOL    HW2 1104   2.619   2.037   0.802 -0.1534 -1.4800  1.0228
  369SOL     OW 1105   0.955   1.068   0.456  0.4074  0.1620 -0.9840
  369SOL    HW1 1106   0.914   0.980   0.486  0.6570  1.6943 -0.0612
  369SOL    HW2 1107   1.028   1.054   0.383 -0.1232  0.7250  1.6773
  370SOL     OW 1108   0.208   2.863   1.101 -0.0494  0.9866  0.6170
  370SOL    HW1 1109   0.181   2.766   1.104  2.4014 -0.1665  2.2829
  370SOL    HW2 1110   0.160   2.926   1.162  0.2880  0.0355  0.3759
  371SOL     OW 1111   2.656   1.345   2.681  0.3360 -0.4067  0.1089
  371SOL    HW1 1112   2.601   1.411   2.618 -0.7263  2.6037 -5.2517
  371SOL    HW2 1113   2.696   1.264   2.632 -0.8713 -1.4824 -1.1318
  372SOL     OW 1114   0.699   0.514   2.353  0.3204 -0.1356  0.0427
  372SOL    HW1 1115   0.661   0.515   2.257  1.4366 -1.2076 -1.5283
  372SOL    HW2 1116   0.671   0.428   2.402  1.0635 -0.2899  1.6623
  373SOL     OW 1117   0.533   0.446   2.714  0.1226  0.2949  0.2223
  373SOL    HW1 1118   0.561   0.382   2.635 -2.0944  1.8098  1.5142
  373SOL    HW2 1119   0.593   0.527   2.730  0.9730 -0.5293  0.2783
  374SOL     OW 1120   1.014   2.349   0.143  0.3086  0.0355 -0.8432
  374SOL    HW1 1121   1.037   2.339   0.048 -1.9373  0.2022  1.4946
  374SOL    HW2 1122   0.934   2.293   0.169  3.3296 -0.0999  0.0865
  375SOL     OW 1123   0.831   0.087   1.055 -0.1510 -0.0620  0.1449
  375SOL    HW1 1124   0.892   0.140   1.118 -1.2488  0.6607  0.7510
  375SOL    HW2 1125   0.847   0.114   0.958 -0.0347  0.2543 -0.7074
  376SOL     OW 1126   0.417   2.576   1.919 -0.7165 -0.4705 -0.3006
  376SOL    HW1 1127   0.352   2.634   1.977  0.0783  3.3167  1.6359
  376SOL    HW2 1128   0.488   2.535   1.982  1.3805  1.4621 -0.4234
  377SOL     OW 1129   2.229   2.076   3.090 -0.1911  0.6465 -0.0228
  377SOL    HW1 1130   2.251   2.167   0.006 -0.0521  0.4216  0.4395
  377SOL    HW2 1131   2.263   2.077   2.994 -0.3654 -1.9628  0.2031
  378SOL     OW 1132   2.048   0.250   0.491  0.0624 -0.2137  0.1248
  378SOL    HW1 1133   2.057   0.330   0.555  0.8081 -1.1117 -0.4329
  378SOL    HW2 1134   2.127   0.185   0.492 -2.3449 -0.1142 -3.2154
  379SOL     OW 1135   1.380   0.868   0.833 -0.0527 -0.3676  0.7174
  379SOL    HW1 1136   1.361   0.955   0.884  2.6576  0.1170  0.1590
  379SOL    HW2 1137   1.421   0.891   0.744  1.4074 -0.6373  1.6222
  380SOL     OW 1138   2.539   2.086   1.859  0.1476  0.0478 -0.0447
  380SOL    HW1 1139   2.584   2.003   1.896 -0.6983 -0.1674  1.1085
  380SOL    HW2 1140   2.590   2.114   1.773  1.5053 -0.2057 -1.5316
  381SOL     OW 1141   2.897   1.293   2.282 -0.1657  0.0002 -0.4923
  381SOL    HW1 1142   2.956   1.266   2.357  1.0217  2.1036 -0.7085
  381SOL    HW2 1143   2.928   1.247   2.195 -1.5915 -1.2254  0.5091
  382SOL     OW 1144   3.017   2.218   3.040 -0.0577  0.1766 -0.2160
  382SOL    HW1 1145   3.038   2.306   3.000  0.7775 -2.8243  0.3226
  382SOL    HW2 1146   3.059   2.201   0.003 -0.0278 -1.0590 -0.4525
  383SOL     OW 1147   1.137   0.943   2.260  0.3416 -0.0404  0.3985
  383SOL    HW1 1148   1.071   0.940   2.182  1.4602 -1.5079  0.5151
  383SOL    HW2 1149   1.107   0.895   2.340  1.1340  0.0227 -1.0903
  384SOL     OW 1150   1.197   2.187   2.307  0.0238  0.4046  0.4773
  384SOL    HW1 1151   1.196   2.212   2.207 -1.8089 -2.1129 -1.2578
  384SOL    HW2 1152   1.293   2.185   2.340  0.2077 -0.6379  0.2740
  385SOL     OW 1153   2.258   2.599   3.097 -0.4252  0.2208 -0.1940
  385SOL    HW1 1154   2.266   2.576   2.997  1.5342  0.4018  0.6218
  385SOL    HW2 1155   2.347   2.572   0.021  2.7238  0.3611 -2.0066
  386SOL     OW 1156   1.495   1.271   0.747 -0.0013 -0.1659 -0.4211
  386SOL    HW1 1157   1.397   1.265   0.778 -1.3576 -0.3991  0.3120
  386SOL    HW2 1158   1.521   1.214   0.665  0.6737 -2.6033  1.1252
  387SOL     OW 1159   0.140   1.715   1.840 -0.7058 -0.0659  0.1258
  387SOL    HW1 1160   0.100   1.700   1.929  1.6703  1.6046 -3.6314
  387SOL    HW2 1161   0.176   1.633   1.787 -0.0535 -0.7471 -1.8218
  388SOL     OW 1162   0.704   1.246   1.490 -0.4864  0.7563  0.6038
  388SOL    HW1 1163   0.781   1.185   1.517 -0.8536  0.2542  1.8434
  388SOL    HW2 1164   0.701   1.265   1.389 -1.4779 -0.3402 -0.0400
  389SOL     OW 1165   2.095   1.017   2.314  0.1204  0.1940  0.1504
  389SOL    HW1 1166   2.020   0.959   2.359 -0.9793  0.6787  0.7273
  389SOL    HW2 1167   2.045   1.103   2.287  0.0280  5.4843 -1.9355
  390SOL     OW 1168   1.129   2.017   0.318 -0.3254  0.3855  0.5089
  390SOL    HW1 1169   1.025   1.994   0.306 -3.0967  0.0711 -2.1870
  390SOL    HW2 1170   1.179   1.940   0.362 -0.9119  1.3310  2.4904
  391SOL     OW 1171   0.982   2.052   0.727  0.0788 -0.3080  0.1838
  391SOL    HW1 1172   1.027   1.965   0.761  0.3348  1.4457  0.1926
  391SOL    HW2 1173   0.890   2.032   0.690 -1.9692 -0.6298  1.1201
  392SOL     OW 1174   2.599   2.631   2.252  0.5465 -0.1892  0.1369
  392SOL    HW1 1175   2.547   2.565   2.306  0.5244 -0.6265 -0.0026
  392SOL    HW2 1176   2.678   2.667   2.306  1.0917  0.1712 -1.0495
  393SOL     OW 1177   1.515   2.295   3.093  0.5891 -0.3943  0.7250
  393SOL    HW1 1178   1.537   2.365   0.035  0.9695 -1.8935 -2.0160
  393SOL    HW2 1179   1.522   2.325   3.001  0.5290 -2.4030  1.7040
  394SOL     OW 1180   0.217   0.219   2.328  0.4466 -0.1382  0.5828
  394SOL    HW1 1181   0.247   0.319   2.333 -1.4554  3.3669 -0.3568
  394SOL    HW2 1182   0.207   0.179   2.233  0.9439 -0.8181 -0.4364
  395SOL     OW 1183   3.091   0.941   1.140  0.6609 -0.0214 -0.3481
  395SOL    HW1 1184   0.004   1.007   1.072 -1.8713  3.3356 -3.0593
  395SOL    HW2 1185   0.030   0.881   1.183 -1.4056 -0.3504  0.5432
  396SOL     OW 1186   2.181   1.574   2.729 -0.1961 -0.2637  0.0092
  396SOL    HW1 1187   2.218   1.483   2.751  0.6097 -0.3878  0.6722
  396SOL    HW2 1188   2.108   1.594   2.801  0.8000  0.3268  0.6092
  397SOL     OW 1189   0.502   0.967   2.934  1.0874 -0.2901  0.5316
  397SOL    HW1 1190   0.435   0.931   2.864  1.0877  1.0353 -0.6102
  397SOL    HW2 1191   0.589   1.000   2.891  3.7627  0.5905 -0.4837
  398SOL     OW 1192   0.934   2.822   0.399 -0.0859  0.0676  0.3546
  398SOL    HW1 1193   1.020   2.798   0.447  0.7156  0.4112  1.8259
  398SOL    HW2 1194   0.934   2.919   0.359  0.0547 -0.7713 -1.0466
  399SOL     OW 1195   2.066   2.609   2.226  0.7229  0.5970 -0.1998
  399SOL    HW1 1196   2.072   2.575   2.326  0.1700 -1.6895  2.0687
  399SOL    HW2 1197   2.033   2.531   2.170 -1.1562  1.0068  1.7381
  400SOL     OW 1198   0.356   1.307   1.832  0.5158  0.0537  0.4837
  400SOL    HW1 1199   0.269   1.279   1.870  3.4006  0.0501  2.9368
  400SOL    HW2 1200   0.388   1.394   1.874 -2.9767 -0.6777 -0.9871
  401SOL     OW 1201   0.402   0.936   0.624  0.4241 -0.1182 -0.4931
  401SOL    HW1 1202   0.404   0.868   0.694 -0.2113 -2.3489 -0.2780
  401SOL    HW2 1203   0.444   0.900   0.538  0.9547  1.6832  1.5224
  402SOL     OW 1204   0.888   3.087   2.409  0.4266  0.3967 -0.0261
  402SOL    HW1 1205   0.986   3.094   2.428 -4.7665  0.4844  0.0046
  402SOL    HW2 1206   0.862   0.017   2.333  0.4194 -0.6424  3.9454
  403SOL     OW 1207   2.659   1.857   1.953 -0.4679  0.7819 -0.9722
  403SOL    HW1 1208   2.655   1.791   2.034  1.5972 -0.6218 -0.1088
  403SOL    HW2 1209   2.723   1.812   1.888 -0.1550 -1.7481 -1.4687
  404SOL     OW 1210   2.741   2.278   1.679 -0.4791  0.6798 -0.0671
  404SOL    HW1 1211   2.808   2.309   1.749 -0.5741  0.0669  0.2189
  404SOL    HW2 1212   2.746   2.176   1.672 -0.0939 -0.4670 -1.1350
  405SOL     OW 1213   1.926   0.102   2.667 -0.4160  0.3392  0.4765
  405SOL    HW1 1214   1.880   0.061   2.590  2.0172  2.6758 -0.6791
  405SOL    HW2 1215   2.007   0.146   2.640 -0.2208 -4.8034 -0.0941
  406SOL     OW 1216   1.116   1.973   0.043 -0.1898  0.0180 -0.3826
  406SOL    HW1 1217   1.192   2.019   3.123 -1.6627  0.1366 -0.2157
  406SOL    HW2 1218   1.128   1.985   0.143  0.1622  2.2460 -1.2983
  407SOL     OW 1219   1.633   1.349   0.385  0.1089  0.5094 -0.5015
  407SOL    HW1 1220   1.696   1.388   0.453  0.0249  0.0253 -1.0283
  407SOL    HW2 1221   1.601   1.254   0.416  0.2550 -1.7925  0.0981
  408SOL     OW 1222   0.324   0.448   1.445 -0.1875  0.3881  0.2276
  408SOL    HW1 1223   0.399   0.420   1.512  0.7822  0.5802 -0.5030
  408SOL    HW2 1224   0.339   0.549   1.426 -0.0509 -0.2573 -2.1804
  409SOL     OW 1225   2.710   1.433   0.047  0.0578  0.2968  0.5917
  409SOL    HW1 1226   2.692   1.366   0.119  2.2452  0.3942 -0.7980
  409SOL    HW2 1227   2.721   1.528   0.085  0.9323 -1.3472 -1.1995
  410SOL     OW 1228   2.842   2.995   0.542  0.3050 -0.3235 -0.4104
  410SOL    HW1 1229   2.800   3.053   0.619 -0.2584  0.0886  0.4209
  410SOL    HW2 1230   2.821   2.895   0.562 -1.9295  0.0417  0.0840
  411SOL     OW 1231   0.362   0.341   0.153  0.1186 -0.0358  0.8080
  411SOL    HW1 1232   0.391   0.254   0.189 -0.4469  1.8052  1.1281
  411SOL    HW2 1233   0.333   0.327   0.057 -0.7999  2.0417 -1.0111
  412SOL     OW 1234   1.492   0.065   0.504  0.4638 -0.4194 -0.0641
  412SOL    HW1 1235   1.415   0.022   0.458  0.9334  2.3233  2.2277
  412SOL    HW2 1236   1.458   0.096   0.599  0.5642 -1.5337 -1.6751
  413SOL     OW 1237   1.835   0.686   2.133 -0.5446 -0.5615  0.1536
  413SOL    HW1 1238   1.905   0.761   2.114  0.5794 -0.4453  0.9990
  413SOL    HW2 1239   1.803   0.634   2.053  0.6980  1.6626 -0.6605
  414SOL     OW 1240   3.093   0.648   0.497  0.1042 -0.0394  0.4444
  414SOL    HW1 1241   3.113   0.743   0.530 -0.9912 -0.6826 -1.6199
  414SOL    HW2 1242   0.054   0.593   0.493 -2.1442  1.0678 -0.7076
  415SOL     OW 1243   2.970   1.123   0.459 -0.7378 -0.1480 -0.3080
  415SOL    HW1 1244   2.952   1.223   0.474 -0.2058 -0.1427  1.3559
  415SOL    HW2 1245   2.972   1.092   0.361  0.4957  1.4457 -1.8426
  416SOL     OW 1246   2.657   0.450   2.737 -0.1264  0.2867 -0.0082
  416SOL    HW1 1247   2.616   0.425   2.648  1.0528 -1.0755  1.4704
  416SOL    HW2 1248   2.698   0.541   2.734 -0.0922 -3.7389  2.1155
  417SOL     OW 1249   2.392   0.323   0.679 -0.2947 -0.2845  0.0088
  417SOL    HW1 1250   2.351   0.413   0.705  2.8588  2.8928  1.5874
  417SOL    HW2 1251   2.441   0.328   0.586  1.2246 -1.1990  1.4374
  418SOL     OW 1252   0.648   3.094   2.868  0.0786  0.5990  0.5599
  418SOL    HW1 1253   0.661   0.026   2.945 -1.4130 -3.5017 -1.8300
  418SOL    HW2 1254   0.549   3.073   2.856 -0.8124  0.3337 -1.5298
  419SOL     OW 1255   0.274   0.582   0.998 -0.3375 -0.7695 -0.0744
  419SOL    HW1 1256   0.287   0.657   1.070  2.2625  0.5219 -1.0018
  419SOL    HW2 1257   0.333   0.505   1.022  1.3055  0.9554 -0.7498
  420SOL     OW 1258   3.035   1.099   1.397 -0.1477  0.0925 -0.0257
  420SOL    HW1 1259   3.050   1.067   1.300 -1.2169 -0.4688 -0.7967
  420SOL    HW2 1260   2.945   1.145   1.405  0.8795 -0.5100  0.7684
  421SOL     OW 1261   0.886   2.025   3.071 -0.3823  0.6488  0.3374
  421SOL    HW1 1262   0.980   2.010   3.115 -2.4912 -0.4515  2.6110
  421SOL    HW2 1263   0.854   1.943   3.023  1.7146  0.4243  0.9934
  422SOL     OW 1264   2.418   0.340   2.329  0.3278  0.1450  0.3134
  422SOL    HW1 1265   2.500   0.362   2.263  2.0089  0.0266 -2.3164
  422SOL    HW2 1266   2.327   0.355   2.286  1.2948  1.2937  1.3578
  423SOL     OW 1267   1.818   1.593   0.170  0.3345  0.0446  0.2834
  423SOL    HW1 1268   1.830   1.691   0.141  1.6925 -0.6425 -2.6097
  423SOL    HW2 1269   1.724   1.562   0.197 -1.1096 -0.8228 -0.1578
  424SOL     OW 1270   1.212   1.183   2.036  0.2624  0.0885  0.3404
  424SOL    HW1 1271   1.175   1.208   2.127  1.2277 -0.3974  0.0620
  424SOL    HW2 1272   1.279   1.108   2.047  0.3032 -0.3792 -0.5697
  425SOL     OW 1273   0.244   2.684   2.096 -0.5256  0.0045  0.3734
  425SOL    HW1 1274   0.235   2.705   2.191  1.8278  1.7377 -1.8998
  425SOL    HW2 1275   0.225   2.758   2.025 -0.3006  0.7785 -2.0850
  426SOL     OW 1276   2.514   3.017   0.696  0.0901  0.3413  0.8192
  426SOL    HW1 1277   2.545   2.932   0.746 -0.4582 -0.6843  0.3073
  426SOL    HW2 1278   2.413   3.030   0.715  0.3640 -0.8957  1.2934
  427SOL     OW 1279   0.369   0.859   2.695 -0.2822  0.0166  0.1852
  427SOL    HW1 1280   0.269   0.883   2.687 -2.8819 -0.4045  4.0850
  427SOL    HW2 1281   0.434   0.923   2.648  2.4256  2.4693 -4.5837
  428SOL     OW 1282   2.785   1.512   2.903 -0.0644  0.0605  0.3448
  428SOL    HW1 1283   2.740   1.497   2.995  1.8513  0.3495 -0.0260
  428SOL    HW2 1284   2.749   1.456   2.824 -2.7398  0.5019 -0.4169
  429SOL     OW 1285   2.367   0.286   0.210 -0.6802  0.1993 -0.0232
  429SOL    HW1 1286   2.443   0.259   0.276  1.7917  2.5494  3.8586
  429SOL    HW2 1287   2.332   0.376   0.238 -1.3584 -1.8856  1.3985
  430SOL     OW 1288   1.447   2.185   2.467  0.3559  0.1037  0.1096
  430SOL    HW1 1289   1.462   2.120   2.545 -3.4524 -2.3532  0.6717
  430SOL    HW2 1290   1.516   2.195   2.391  1.8060  0.6170 -3.0036
  431SOL     OW 1291   0.348   1.883   1.794 -0.2772 -0.1307 -0.4787
  431SOL    HW1 1292   0.271   1.825   1.820  0.7611  1.6501 -1.2638
  431SOL    HW2 1293   0.428   1.819   1.776  0.5195 -0.2858  0.1714
  432SOL     OW 1294   1.534   2.310   1.833  0.1138  0.0691 -0.3288
  432SOL    HW1 1295   1.570   2.248   1.903 -1.2047 -1.9928  2.0497
  432SOL    HW2 1296   1.566   2.283   1.743  1.0976 -1.7951  2.1057
  433SOL     OW 1297   1.133   2.325   0.400  0.2246  0.3257  0.1036
  433SOL    HW1 1298   1.085   2.382   0.334  3.4774 -0.9282  0.2140
  433SOL    HW2 1299   1.142   2.234   0.360 -0.6329 -0.2868  0.5293
  434SOL     OW 1300   0.294   2.257   2.683  0.3816  0.0000  0.0446
  434SOL    HW1 1301   0.394   2.291   2.679  0.6689  0.4351  1.3828
  434SOL    HW2 1302   0.260   2.285   2.776  0.4655  0.3907 -3.3505
  435SOL     OW 1303   0.057   0.941   0.489  0.0487 -0.4578  0.3480
  435SOL    HW1 1304   3.106   1.000   0.462  1.4580  0.8746 -1.0528
  435SOL    HW2 1305   0.123   0.993   0.552  1.8948  1.2364  3.8116
  436SOL     OW 1306   0.608   2.721   1.679 -0.0127  0.0370 -0.3672
  436SOL    HW1 1307   0.529   2.775   1.724 -1.6295  1.5238  3.0914
  436SOL    HW2 1308   0.616   2.758   1.586 -0.5528  1.2783  1.5755
  437SOL     OW 1309   0.687   0.230   0.551  0.0700 -0.1653  0.1602
  437SOL    HW1 1310   0.739   0.307   0.508 -0.4367  0.6607 -0.4024
  437SOL    HW2 1311   0.632   0.184   0.481 -0.5480  0.6953  1.4247
  438SOL     OW 1312   0.534   2.134   0.572  0.3093 -0.2011 -0.6010
  438SOL    HW1 1313   0.531   2.234   0.575  1.5944  0.6122 -1.1250
  438SOL    HW2 1314   0.476   2.098   0.649 -2.6156 -0.9323  2.7119
  439SOL     OW 1315   0.810   2.548   1.607 -0.2374 -0.0503 -0.3816
  439SOL    HW1 1316   0.806   2.457   1.644 -0.6530  2.9949  0.5557
  439SOL    HW2 1317   0.738   2.612   1.637  2.3198 -0.8038 -2.3535
  440SOL     OW 1318   1.945   2.902   1.866  0.1878 -0.1008  0.3230
  440SOL    HW1 1319   1.857   2.849   1.852  0.6997  0.2538  0.5425
  440SOL    HW2 1320   2.001   2.865   1.945  0.1872 -1.7426 -2.2909
  441SOL     OW 1321   2.773   0.511   1.768 -0.1610  0.2114 -0.3233
  441SOL    HW1 1322   2.780   0.426   1.832  0.7680 -3.8097 -1.8155
  441SOL    HW2 1323   2.862   0.557   1.754 -0.2666 -0.1647 -0.3925
  442SOL     OW 1324   1.912   2.304   0.966 -0.3047 -0.1200 -0.1413
  442SOL    HW1 1325   1.970   2.293   0.884 -2.3093 -1.3540  2.8965
  442SOL    HW2 1326   1.968   2.276   1.047 -0.0148 -0.2306 -0.1357
  443SOL     OW 1327   2.640   0.654   2.275  0.0447 -0.1986 -0.2574
  443SOL    HW1 1328   2.682   0.572   2.232 -1.0222 -0.6302 -0.2372
  443SOL    HW2 1329   2.573   0.700   2.213 -1.2230 -2.0155  0.8936
  444SOL     OW 1330   2.189   1.012   1.825 -0.1795  0.2675  0.4715
  444SOL    HW1 1331   2.170   0.914   1.827  0.7143 -2.0347  1.7399
  444SOL    HW2 1332   2.287   1.027   1.819 -1.5821 -1.1437 -0.4749
  445SOL     OW 1333   3.061   2.319   1.256  0.4872 -0.2246  0.3417
  445SOL    HW1 1334   3.014   2.311   1.344 -0.1474  0.2798  0.6243
  445SOL    HW2 1335   3.027   2.398   1.200  0.9056  0.5026  0.9205
  446SOL     OW 1336   2.895   1.662   0.983  0.1146  0.2797 -0.0200
  446SOL    HW1 1337   2.825   1.673   1.056 -0.6385  0.4016 -0.9514
  446SOL    HW2 1338   2.967   1.596   1.008 -1.2345 -0.8707 -2.4933
  447SOL     OW 1339   0.578   1.109   0.865  0.6314  0.0029 -0.5582
  447SOL    HW1 1340   0.674   1.079   0.869 -1.8861  0.5298 -1.9117
  447SOL    HW2 1341   0.580   1.210   0.887  0.5509  2.2793 -1.5624
  448SOL     OW 1342   1.389   1.371   1.956 -0.6015 -0.0759 -0.2759
  448SOL    HW1 1343   1.369   1.444   1.889  1.1525 -1.3365  1.9495
  448SOL    HW2 1344   1.316   1.298   1.964  0.5354  0.9476 -0.1807
  449SOL     OW 1345   1.292   1.284   3.101 -0.0152  0.5637 -0.4612
  449SOL    HW1 1346   1.299   1.192   0.013 -4.5008  1.3078  0.2972
  449SOL    HW2 1347   1.198   1.309   3.066  0.6323  1.4886 -0.3780
  450SOL     OW 1348   2.739   2.290   2.184 -0.1032  0.0599  0.3354
  450SOL    HW1 1349   2.815   2.352   2.187 -2.2017 -1.8512  1.3146
  450SOL    HW2 1350   2.774   2.208   2.131 -0.2037 -0.7584 -2.0085
  451SOL     OW 1351   1.783   2.951   2.505  0.1366  0.2172  0.4009
  451SOL    HW1 1352   1.885   2.952   2.525 -0.0985 -1.2217 -0.1821
  451SOL    HW2 1353   1.754   3.045   2.494  1.1888 -5.5923  2.0825
  452SOL     OW 1354   1.661   2.913   1.395  0.3112  0.0679  0.4128
  452SOL    HW1 1355   1.563   2.930   1.418  3.6324  1.6591 -0.9321
  452SOL    HW2 1356   1.720   2.993   1.417  1.3580 -0.2466  0.2110
  453SOL     OW 1357   1.757   0.728   0.910  0.0052  0.3688 -0.8811
  453SOL    HW1 1358   1.809   0.717   0.822  0.4101 -3.5417  4.0522
  453SOL    HW2 1359   1.773   0.823   0.941  2.5398  0.6128  0.0398
  454SOL     OW 1360   0.189   1.391   0.949 -0.6048  0.0794  0.4257
  454SOL    HW1 1361   0.266   1.448   0.976 -0.5522 -1.3402  0.2162
  454SOL    HW2 1362   0.159   1.426   0.857 -0.5734 -0.2345 -2.4267
  455SOL     OW 1363   2.635   0.108   0.276  0.1436 -0.4181 -0.3696
  455SOL    HW1 1364   2.597   0.114   0.182 -0.6847  0.5458  1.5923
  455SOL    HW2 1365   2.740   0.098   0.271  2.5534  0.8625 -1.0873
  456SOL     OW 1366   2.909   2.504   1.109  0.1034 -0.4573 -0.2183
  456SOL    HW1 1367   2.866   2.597   1.113  1.9280  0.4269  3.1654
  456SOL    HW2 1368   2.900   2.468   1.016  0.2603 -0.6358 -0.8984
  457SOL     OW 1369   1.168   0.181   0.410  0.3436  0.4431 -0.3436
  457SOL    HW1 1370   1.143   0.211   0.318  0.5515  1.8794  1.6140
  457SOL    HW2 1371   1.143   0.250   0.484  0.6229 -1.5402  2.9226
  458SOL     OW 1372   2.336   0.668   0.515 -0.1589 -0.2849 -0.0667
  458SOL    HW1 1373   2.400   0.650   0.591 -0.2551 -0.1859 -0.4452
  458SOL    HW2 1374   2.350   0.607   0.435 -1.5950  1.8993 -0.1919
  459SOL     OW 1375   2.055   0.755   2.496 -0.0714 -0.1386 -0.2147
  459SOL    HW1 1376   2.032   0.655   2.486 -0.8109  0.9125  0.8336
  459SOL    HW2 1377   2.066   0.776   2.596 -2.0200  1.0464  1.2325
  460SOL     OW 1378   2.844   0.019   2.732 -0.3985 -0.1978 -0.0532
  460SOL    HW1 1379   2.769   3.080   2.762 -0.9386  0.5912 -0.0964
  460SOL    HW2 1380   2.928   3.092   2.702 -0.3893  2.0711 -1.2870
  461SOL     OW 1381   1.003   1.771   0.741 -0.7576 -0.2893 -0.6544
  461SOL    HW1 1382   1.043   1.737   0.829 -1.1921  1.7167 -0.5150
  461SOL    HW2 1383   0.900   1.773   0.746  0.4175  1.8923 -1.9146
  462SOL     OW 1384   2.554   2.687   1.298 -0.5688  0.2918 -0.3936
  462SOL    HW1 1385   2.614   2.669   1.377  0.2959  0.1269 -2.1962
  462SOL    HW2 1386   2.539   2.786   1.287  2.4007 -0.6404  1.9327
  463SOL     OW 1387   2.465   1.136   0.664 -0.1343  0.0810  0.1889
  463SOL    HW1 1388   2.525   1.086   0.600  1.0984  0.8061  0.5967
  463SOL    HW2 1389   2.444   1.071   0.743  0.2881 -0.1511  1.4264
  464SOL     OW 1390   0.353   2.525   1.015 -0.0442  0.0311  0.1316
  464SOL    HW1 1391   0.258   2.552   0.995 -0.9549  0.5511 -0.3577
  464SOL    HW2 1392   0.361   2.440   1.072  1.1203 -0.0437 -0.4304
  465SOL     OW 1393   0.142   1.581   3.101  0.3220 -0.0482 -0.1628
  465SOL    HW1 1394   0.072   1.512   3.124  1.4840  1.2061  1.0848
  465SOL    HW2 1395   0.238   1.547   0.002 -0.1780 -0.2608 -0.1687
  466SOL     OW 1396   1.592   0.253   2.672  0.1402 -0.0643 -0.3426
  466SOL    HW1 1397   1.504   0.305   2.667  0.7308  2.3810 -0.2683
  466SOL    HW2 1398   1.601   0.208   2.760  0.5980  0.7900 -0.8308
  467SOL     OW 1399   0.981   0.712   1.923  0.1033 -0.0727  0.2690
  467SOL    HW1 1400   1.069   0.661   1.955  3.3833 -0.9315  0.9581
  467SOL    HW2 1401   0.961   0.802   1.973 -2.0359 -0.7418  0.6165
  468SOL     OW 1402   0.496   1.048   2.531  0.8211 -0.7032  0.0847
  468SOL    HW1 1403   0.557   0.982   2.489 -0.3639 -1.2243  0.7706
  468SOL    HW2 1404   0.452   1.113   2.462 -1.1537  1.9482 -1.7321
  469SOL     OW 1405   0.163   2.241   0.068 -0.2687  0.4048 -0.4221
  469SOL    HW1 1406   0.241   2.297   0.098 -3.8104 -0.8547  1.9287
  469SOL    HW2 1407   0.089   2.262   0.137 -2.0610  2.3039 -0.2538
  470SOL     OW 1408   2.374   1.784   2.758  0.1922  0.5130  0.1330
  470SOL    HW1 1409   2.299   1.725   2.719  0.8911 -2.1381 -1.7254
  470SOL    HW2 1410   2.427   1.738   2.829 -0.1749  1.1020  0.1277
  471SOL     OW 1411   2.216   0.739   2.284  0.2039 -0.1111  0.0731
  471SOL    HW1 1412   2.134   0.762   2.338  1.1307  1.1737 -2.5915
  471SOL    HW2 1413   2.301   0.781   2.316 -2.3593  0.1924 -0.0975
  472SOL     OW 1414   0.490   2.655   0.794  0.0101 -0.1530  0.2326
  472SOL    HW1 1415   0.426   2.686   0.723  0.9360 -0.9192 -0.0512
  472SOL    HW2 1416   0.446   2.609   0.871 -3.2806 -1.2514 -1.2938
  473SOL     OW 1417   0.704   0.066   2.598 -0.2812  0.0289  0.5351
  473SOL    HW1 1418   0.780   0.028   2.544 -4.3715  1.1751  1.7933
  473SOL    HW2 1419   0.697   0.033   2.693  2.0725  2.3627 -3.0026
  474SOL     OW 1420   1.678   0.211   2.272  0.3358 -0.3958  0.0590
  474SOL    HW1 1421   1.647   0.310   2.262 -0.2915  2.5842  1.0456
  474SOL    HW2 1422   1.618   0.153   2.217  1.1509  1.7183 -0.4977
  475SOL     OW 1423   1.880   2.698   0.806  0.0201 -0.5620  0.2409
  475SOL    HW1 1424   1.972   2.680   0.847 -2.8724  1.2194  0.2068
  475SOL    HW2 1425   1.865   2.622   0.738 -1.0586  0.4639  0.3205
  476SOL     OW 1426   0.006   0.631   0.921 -0.2140 -0.4993 -0.7863
  476SOL    HW1 1427   0.010   0.733   0.937  0.1926  0.2788  1.7267
  476SOL    HW2 1428   0.096   0.587   0.936 -1.1735  2.1141 -1.9214
  477SOL     OW 1429   1.313   2.441   0.711 -0.0703  0.0818 -0.2627
  477SOL    HW1 1430   1.360   2.461   0.620  0.9965  0.8559  0.5921
  477SOL    HW2 1431   1.234   2.378   0.704  2.7390  3.0006  1.1276
  478SOL     OW 1432   0.258   2.421   2.447  0.1693  0.2216  0.4367
  478SOL    HW1 1433   0.247   2.348   2.516  1.2890  1.0151 -1.1060
  478SOL    HW2 1434   0.303   2.381   2.364  0.0280  1.7217 -1.2630
  479SOL     OW 1435   2.294   0.559   0.915 -0.4592 -1.0211  0.2244
  479SOL    HW1 1436   2.200   0.529   0.910  3.2987  1.5379 -3.0392
  479SOL    HW2 1437   2.339   0.495   0.981 -0.3804 -0.3761 -0.4860
  480SOL     OW 1438   0.069   2.984   0.065  0.2168  0.1860 -0.0795
  480SOL    HW1 1439   3.099   3.014   0.071 -1.4201  3.0682 -1.4617
  480SOL    HW2 1440   0.129   3.067   0.055 -1.4281 -1.0947  1.1019
  481SOL     OW 1441   2.898   2.359   1.481  0.2475 -0.0326 -0.2966
  481SOL    HW1 1442   2.821   2.330   1.541 -1.6685  0.4909 -0.2998
  481SOL    HW2 1443   2.947   2.439   1.521  1.1880  0.0897  3.2884
  482SOL     OW 1444   0.909   2.425   2.773  0.4719  0.4595 -0.3557
  482SOL    HW1 1445   1.006   2.419   2.747 -0.1582 -0.0021 -1.0126
  482SOL    HW2 1446   0.862   2.504   2.737  0.6120 -2.0434  1.8180
  483SOL     OW 1447   0.683   2.091   2.445  0.3302 -0.1594 -0.4117
  483SOL    HW1 1448   0.697   2.010   2.509 -0.7798 -1.6303  1.0139
  483SOL    HW2 1449   0.581   2.095   2.430 -1.5551  1.0292 -0.1406
  484SOL     OW 1450   1.008   0.821   1.627  0.4873 -0.2390 -0.1417
  484SOL    HW1 1451   0.981   0.789   1.718 -1.5173  0.2834 -1.8918
  484SOL    HW2 1452   1.105   0.802   1.610 -0.4326 -1.6235 -0.5200
  485SOL     OW 1453   2.174   1.037   3.009  0.1214  0.2124  0.1302
  485SOL    HW1 1454   2.185   0.981   2.922 -1.1416 -0.9253  0.8703
  485SOL    HW2 1455   2.252   1.095   3.039 -1.0063  0.0512 -0.8622
  486SOL     OW 1456   2.214   3.087   1.197  0.4439 -0.1022  0.1920
  486SOL    HW1 1457   2.176   2.996   1.222  0.1406 -0.2262  1.0686
  486SOL    HW2 1458   2.174   3.124   1.110 -1.2234 -1.3848 -2.3689
  487SOL     OW 1459   0.554   1.959   1.176 -0.4624  0.5038 -0.6567
  487SOL    HW1 1460   0.602   2.051   1.168 -1.4331  0.9207  1.3076
  487SOL    HW2 1461   0.454   1.970   1.172  3.7955 -1.4435 -0.8347
  488SOL     OW 1462   2.530   0.987   0.013 -0.0726 -0.3918  0.6310
  488SOL    HW1 1463   2.462   1.061   0.003 -0.1062 -0.5836 -0.8074
  488SOL    HW2 1464   2.612   1.008   3.091 -0.6840  2.6972 -3.3047
  489SOL     OW 1465   1.679   0.209   1.041 -0.0668 -0.3486  0.0329
  489SOL    HW1 1466   1.650   0.172   1.131  0.2551  0.1163 -1.1298
  489SOL    HW2 1467   1.628   0.298   1.022 -0.1481  1.7493 -0.1012
  490SOL     OW 1468   0.749   0.631   0.367  0.0758  0.3083  0.1135
  490SOL    HW1 1469   0.666   0.603   0.315 -0.2065  0.6670  0.0409
  490SOL    HW2 1470   0.822   0.657   0.301  1.6197  0.6931 -0.4312
  491SOL     OW 1471   0.572   2.399   0.715 -0.4408  0.2015 -0.5581
  491SOL    HW1 1472   0.673   2.391   0.699  2.0187 -1.8990 -0.5806
  491SOL    HW2 1473   0.553   2.496   0.739  0.5744 -1.3085  2.3889
  492SOL     OW 1474   1.390   1.748   2.224  0.2669 -0.3318  0.1628
  492SOL    HW1 1475   1.385   1.656   2.267  0.2785 -0.6095 -0.9883
  492SOL    HW2 1476   1.307   1.805   2.225 -1.1900  1.5496  0.4896
  493SOL     OW 1477   2.834   2.719   0.531 -0.2266 -0.3813 -0.0466
  493SOL    HW1 1478   2.889   2.654   0.593  1.0394  0.2275  1.6600
  493SOL    HW2 1479   2.869   2.702   0.435  0.2192 -1.9655  1.9994
  494SOL     OW 1480   2.606   2.188   0.185  0.0071  0.0236 -0.1911
  494SOL    HW1 1481   2.553   2.102   0.192 -1.0118  0.1007 -1.6358
  494SOL    HW2 1482   2.651   2.186   0.097 -1.4041  0.2711 -0.9124
  495SOL     OW 1483   2.746   2.156   3.076  0.1510 -0.0110 -0.0362
  495SOL    HW1 1484   2.724   2.095   2.996 -0.1764 -2.3883 -5.4848
  495SOL    HW2 1485   2.842   2.180   3.070 -1.4384 -2.3045  1.5640
  496SOL     OW 1486   2.796   0.050   1.676 -0.0074 -0.4616 -0.9044
  496SOL    HW1 1487   2.697   0.054   1.668  3.7965  2.1356 -1.2315
  496SOL    HW2 1488   2.834   0.034   1.583 -0.2602  0.3594 -2.5314
  497SOL     OW 1489   2.880   1.197   0.021 -0.1365  0.0743 -0.0777
  497SOL    HW1 1490   2.846   1.149   3.063 -1.6306  0.3796 -1.2821
  497SOL    HW2 1491   2.838   1.288   0.027  1.5105 -1.7651 -0.0892
  498SOL     OW 1492   0.050   1.742   2.241 -0.2085  0.6866 -0.6373
  498SOL    HW1 1493   0.027   1.821   2.176 -1.1399 -0.2285  1.7746
  498SOL    HW2 1494   3.112   1.734   2.325 -4.7207  1.9621  3.8227
  499SOL     OW 1495   0.785   2.268   2.958  0.0247 -0.2800 -0.4981
  499SOL    HW1 1496   0.856   2.197   2.973  0.4566 -1.7116 -2.4083
  499SOL    HW2 1497   0.833   2.338   2.905 -0.8223 -2.2525  1.3632
  500SOL     OW 1498   1.635   0.135   2.936 -0.2560 -0.2816  0.9501
  500SOL    HW1 1499   1.592   0.084   3.009 -1.5555  1.6859 -2.6174
  500SOL    HW2 1500   1.737   0.125   2.944  0.8774 -0.0497  1.6184
  501SOL     OW 1501   1.400   2.981   1.410  0.2703 -0.6670  0.0743
  501SOL    HW1 1502   1.303   2.960   1.420 -0.6757  0.4175 -0.8780
  501SOL    HW2 1503   1.417   3.078   1.436  0.6141  1.0029 -1.4358
  502SOL     OW 1504   2.475   0.794   2.059 -0.0705  0.3153 -0.1462
  502SOL    HW1 1505   2.425   0.878   2.091 -2.4839 -0.1196 -0.0780
  502SOL    HW2 1506   2.418   0.735   2.000  0.2052 -1.5661  0.9740
  503SOL     OW 1507   2.200   2.198   2.443 -0.0964  0.7224 -0.3962
  503SOL    HW1 1508   2.221   2.269   2.515  0.5327  0.2969 -0.3513
  503SOL    HW2 1509   2.107   2.223   2.405 -1.4381 -0.4271  1.0023
  504SOL     OW 1510   1.532   0.581   1.642 -0.1472  0.2862  0.2212
  504SOL    HW1 1511   1.538   0.495   1.582  1.5777 -2.8411 -1.7665
  504SOL    HW2 1512   1.610   0.577   1.707 -1.3765 -0.9097 -0.2508
  505SOL     OW 1513   0.719   0.677   1.812 -0.5881 -0.1110  0.8442
  505SOL    HW1 1514   0.683   0.769   1.782  0.2032  0.7175 -0.9389
  505SOL    HW2 1515   0.809   0.678   1.846 -1.4933  0.7912 -1.3317
  506SOL     OW 1516   0.417   0.635   2.540 -0.1763 -0.1861  0.4520
  506SOL    HW1 1517   0.393   0.720   2.586  2.7665 -3.5257 -0.4205
  506SOL    HW2 1518   0.455   0.572   2.611 -1.6543 -1.0179 -0.0792
  507SOL     OW 1519   0.264   0.039   0.061 -0.0624  0.0652  0.1032
  507SOL    HW1 1520   0.300   3.110   3.116 -3.9089  1.4244  0.1317
  507SOL    HW2 1521   0.290   0.136   0.046 -2.7040  1.5314 -1.0335
  508SOL     OW 1522   1.338   0.826   1.378 -0.1587  0.5075  0.0193
  508SOL    HW1 1523   1.338   0.827   1.480 -0.3606  1.0348 -0.0619
  508SOL    HW2 1524   1.425   0.861   1.334  3.3592 -0.8553 -1.2648
  509SOL     OW 1525   1.809   2.248   1.386 -0.3253 -0.8640 -0.0081
  509SOL    HW1 1526   1.831   2.348   1.391  0.9929 -1.7308  2.3052
  509SOL    HW2 1527   1.863   2.206   1.461  1.7872 -0.1741 -1.3252
  510SOL     OW 1528   2.345   1.367   2.126  0.4209  0.0906  0.3194
  510SOL    HW1 1529   2.364   1.447   2.067  1.3220 -0.1421 -0.1476
  510SOL    HW2 1530   2.421   1.363   2.193  1.9248 -0.1066  0.2818
  511SOL     OW 1531   0.835   1.975   1.571  0.2431 -1.1297  0.4991
  511SOL    HW1 1532   0.787   1.911   1.509 -1.1600 -0.1918 -2.6476
  511SOL    HW2 1533   0.769   2.013   1.639  1.4539  1.3454  1.7832
  512SOL     OW 1534   2.843   2.106   0.564  0.1735 -0.1162 -0.2802
  512SOL    HW1 1535   2.828   2.211   0.570 -1.9918  1.6424  0.6565
  512SOL    HW2 1536   2.925   2.081   0.619  4.8252 -1.1824  0.3414
  513SOL     OW 1537   3.068   1.820   3.068  0.3294 -0.2763  0.3884
  513SOL    HW1 1538   3.105   1.904   3.026  1.2638  0.0641 -0.0038
  513SOL    HW2 1539   0.015   1.758   3.088 -4.2300  3.6654  2.6795
  514SOL     OW 1540   2.993   2.389   2.224  0.6655 -0.0082 -0.2852
  514SOL    HW1 1541   3.011   2.371   2.323 -1.3198 -0.2157  0.1993
  514SOL    HW2 1542   3.081   2.412   2.173  0.2945 -1.8719 -3.9645
  515SOL     OW 1543   2.276   1.234   1.065  0.4079  0.0363 -0.2343
  515SOL    HW1 1544   2.186   1.191   1.038  0.7463  2.2643 -0.1212
  515SOL    HW2 1545   2.258   1.304   1.138 -0.7652  0.4068 -1.4926
  516SOL     OW 1546   2.106   2.064   0.496  0.0176  0.1552  0.1942
  516SOL    HW1 1547   2.207   2.056   0.505 -0.4994 -0.7419 -0.2494
  516SOL    HW2 1548   2.062   1.973   0.475 -1.9093  2.3398 -0.7520
  517SOL     OW 1549   0.953   1.135   0.053 -0.0479  0.4094 -0.2890
  517SOL    HW1 1550   0.993   1.199   3.112 -0.3515  5.3618  1.1330
  517SOL    HW2 1551   0.878   1.182   0.102  1.4898 -0.9329 -2.5052
  518SOL     OW 1552   0.170   2.864   1.911  0.1181 -0.6562 -0.2561
  518SOL    HW1 1553   0.118   2.944   1.951 -0.6948  3.1755  0.0723
  518SOL    HW2 1554   0.104   2.791   1.877 -0.3919  1.6532 -2.2115
  519SOL     OW 1555   1.592   1.606   2.544  0.7627  0.5529  0.5027
  519SOL    HW1 1556   1.683   1.596   2.499  0.9480 -0.6591  1.3500
  519SOL    HW2 1557   1.590   1.663   2.627  1.4133  0.8656  0.2346
  520SOL     OW 1558   2.747   3.002   2.340 -0.2377  0.4026  0.1886
  520SOL    HW1 1559   2.697   3.021   2.254  1.4697 -1.2629 -2.2661
  520SOL    HW2 1560   2.836   3.056   2.346 -1.1130  3.8022 -1.3651
  521SOL     OW 1561   3.092   1.924   2.051  1.2288 -0.2450 -0.1458
  521SOL    HW1 1562   0.021   2.005   2.059 -2.0853  0.5693  2.1816
  521SOL    HW2 1563   3.049   1.918   1.960  0.8536 -1.2504 -0.3111
  522SOL     OW 1564   0.996   2.644   1.783 -0.1171  0.7027  0.1675
  522SOL    HW1 1565   0.920   2.610   1.720 -0.0817 -1.2993 -3.5859
  522SOL    HW2 1566   1.075   2.688   1.728 -0.7905 -1.9220 -0.4686
  523SOL     OW 1567   0.170   2.197   1.336  1.2127  0.1670  0.0038
  523SOL    HW1 1568   0.210   2.253   1.409 -1.1638 -3.0272 -3.0465
  523SOL    HW2 1569   0.082   2.235   1.304 -0.7145  1.1080 -1.1648
  524SOL     OW 1570   1.398   2.688   0.776  0.2576 -0.3989 -0.1602
  524SOL    HW1 1571   1.409   2.605   0.720  0.5142  0.4992  0.9061
  524SOL    HW2 1572   1.474   2.682   0.840  1.5031 -0.2505  0.5988
  525SOL     OW 1573   2.532   1.155   1.044  0.4436 -0.0988 -0.1295
  525SOL    HW1 1574   2.585   1.239   1.064 -2.1584 -1.7169  0.0258
  525SOL    HW2 1575   2.435   1.166   1.059  0.7790 -2.4643  1.2235
  526SOL     OW 1576   0.824   2.376   0.655  0.1490  0.5529 -0.2794
  526SOL    HW1 1577   0.825   2.446   0.581 -2.9111 -1.4192  2.6854
  526SOL    HW2 1578   0.908   2.322   0.666 -0.2138  2.6595 -0.0316
  527SOL     OW 1579   2.597   2.324   0.687 -0.0619 -0.3182 -0.0646
  527SOL    HW1 1580   2.687   2.371   0.687 -0.2713  2.3757  0.5062
  527SOL    HW2 1581   2.583   2.264   0.766 -1.6608  0.4564 -0.7481
  528SOL     OW 1582   2.080   0.508   3.063 -0.9022 -0.4896 -0.2539
  528SOL    HW1 1583   1.982   0.546   3.071  0.1247  0.4164 -2.8948
  528SOL    HW2 1584   2.088   0.420   3.111 -0.6528  0.6580 -1.6623
  529SOL     OW 1585   1.120   1.379   2.226  0.1138 -0.1767  0.2214
  529SOL    HW1 1586   1.160   1.440   2.297 -0.7521 -3.2147  0.2229
  529SOL    HW2 1587   1.130   1.417   2.132 -0.5549 -2.0537 -0.6549
  530SOL     OW 1588   2.425   1.086   2.491 -0.5040 -0.0359 -0.5346
  530SOL    HW1 1589   2.491   1.071   2.417 -0.2729 -0.6221  1.1512
  530SOL    HW2 1590   2.409   0.996   2.543 -1.2118 -3.3320 -0.1050
  531SOL     OW 1591   0.929   0.987   2.966 -0.2617  0.9012  0.1748
  531SOL    HW1 1592   0.935   1.028   3.058 -0.4281 -1.4418 -1.3793
  531SOL    HW2 1593   0.887   0.894   2.984 -0.9327 -0.6268 -0.8588
  532SOL     OW 1594   1.513   1.131   0.503 -0.1378 -0.1526  0.1681
  532SOL    HW1 1595   1.526   1.034   0.533  0.7279 -0.0709 -0.7386
  532SOL    HW2 1596   1.431   1.147   0.443  0.9714 -0.4394  1.5244
  533SOL     OW 1597   0.344   0.573   2.092  0.3618 -0.1105 -0.6715
  533SOL    HW1 1598   0.283   0.523   2.025  3.8946  1.8380 -1.7633
  533SOL    HW2 1599   0.439   0.553   2.070 -0.1610  0.0523 -0.9909
  534SOL     OW 1600   1.570   0.462   2.265 -0.1643  0.3055 -0.3260
  534SOL    HW1 1601   1.641   0.515   2.310  0.8752 -3.3153 -2.8528
  534SOL    HW2 1602   1.487   0.438   2.321 -0.6101  0.6059 -3.1541
  535SOL     OW 1603   0.486   0.130   0.285  0.1086  0.2694 -0.5391
  535SOL    HW1 1604   0.527   0.045   0.242 -0.1292 -2.4512 -2.2931
  535SOL    HW2 1605   0.431   0.109   0.371 -3.4296  0.0676  0.9637
  536SOL     OW 1606   1.120   0.439   0.528  0.4806  0.3054  0.2324
  536SOL    HW1 1607   1.137   0.538   0.522 -0.0243 -3.3569 -2.0306
  536SOL    HW2 1608   1.036   0.408   0.476  1.9912 -1.4533  3.1613
  537SOL     OW 1609   1.534   2.970   1.869  0.2888 -0.3040  0.1760
  537SOL    HW1 1610   1.593   2.944   1.945 -3.7120 -0.8531 -1.2758
  537SOL    HW2 1611   1.546   2.897   1.799 -0.1114  0.5486 -0.1034
  538SOL     OW 1612   0.396   2.857   0.156  0.5708 -0.6347  0.0593
  538SOL    HW1 1613   0.339   2.931   0.199 -2.1110 -1.3518 -0.8290
  538SOL    HW2 1614   0.385   2.864   0.059 -0.0681 -1.7482  2.0617
  539SOL     OW 1615   2.871   1.558   1.987 -0.5198 -0.2065 -0.3190
  539SOL    HW1 1616   2.970   1.566   2.015 -0.3284 -0.4559  3.2501
  539SOL    HW2 1617   2.811   1.557   2.071  1.5322  2.7347 -0.6852
  540SOL     OW 1618   2.489   2.280   2.055 -0.0053 -0.2422  0.5148
  540SOL    HW1 1619   2.574   2.293   2.110  0.1967 -0.4718 -0.9521
  540SOL    HW2 1620   2.510   2.238   1.965  3.1765 -1.1098 -1.0402
  541SOL     OW 1621   0.481   2.858   1.168  0.1216  0.0908  0.2848
  541SOL    HW1 1622   0.390   2.839   1.118  1.0708 -0.3257  1.0991
  541SOL    HW2 1623   0.562   2.827   1.114  0.8325  1.0896  0.2395
  542SOL     OW 1624   2.685   0.374   2.176 -0.3119  0.2683  0.3824
  542SOL    HW1 1625   2.736   0.310   2.239 -3.1266 -1.0816 -0.4690
  542SOL    HW2 1626   2.702   0.356   2.079 -1.4955  0.1874  1.0555
  543SOL     OW 1627   0.680   0.628   0.895 -0.0337 -0.0497 -0.4276
  543SOL    HW1 1628   0.617   0.637   0.978  0.7192 -0.2824  4.2970
  543SOL    HW2 1629   0.725   0.534   0.890 -0.1601  0.8819  2.1901
  544SOL     OW 1630   2.469   2.297   1.154 -0.3260 -0.3850 -0.0271
  544SOL    HW1 1631   2.433   2.320   1.061 -0.3803 -2.6185  0.7470
  544SOL    HW2 1632   2.428   2.360   1.223 -1.2338 -1.0473 -1.3036
  545SOL     OW 1633   1.197   1.370   1.038  0.3339  0.6936 -0.2574
  545SOL    HW1 1634   1.162   1.461   1.007  1.5320 -0.7194  1.4425
  545SOL    HW2 1635   1.197   1.361   1.139 -0.1558 -1.5810 -2.4557
  546SOL     OW 1636   2.822   0.264   2.609  0.5029  0.0488  0.3226
  546SOL    HW1 1637   2.826   0.170   2.652 -0.7056  0.8472  1.8726
  546SOL    HW2 1638   2.769   0.336   2.661 -2.2663  2.2384 -0.1554
  547SOL     OW 1639   2.181   0.363   2.842 -0.0828 -0.0779  0.4047
  547SOL    HW1 1640   2.129   0.406   2.914  1.1092 -0.9625 -1.9604
  547SOL    HW2 1641   2.280   0.377   2.860  1.7343 -0.1443  2.2982
  548SOL     OW 1642   2.373   2.043   2.841 -0.5088 -0.0463 -0.4198
  548SOL    HW1 1643   2.331   1.954   2.815 -1.1413  3.1397  2.6118
  548SOL    HW2 1644   2.471   2.042   2.850 -2.2764  1.5714  0.2657
  549SOL     OW 1645   2.105   0.452   0.658 -0.0927  0.4458  0.4934
  549SOL    HW1 1646   2.081   0.437   0.756 -0.8672  1.4834 -0.6168
  549SOL    HW2 1647   2.089   0.550   0.638  1.0051 -0.6748  0.2440
  550SOL     OW 1648   2.669   1.280   0.270 -0.3854 -0.2074 -0.6012
  550SOL    HW1 1649   2.590   1.308   0.326 -0.3641 -0.9086  0.4243
  550SOL    HW2 1650   2.663   1.184   0.242 -0.1801 -0.7558 -0.9910
  551SOL     OW 1651   1.551   2.528   1.321 -0.0507  0.0943  0.6917
  551SOL    HW1 1652   1.470   2.579   1.286  0.6549  2.3516 -1.3853
  551SOL    HW2 1653   1.625   2.526   1.251 -1.8111 -0.3502 -0.2051
  552SOL     OW 1654   2.895   2.340   2.675  0.0670 -0.3799 -0.1911
  552SOL    HW1 1655   2.821   2.285   2.722 -0.9868 -2.1429 -0.9840
  552SOL    HW2 1656   2.846   2.419   2.632  1.0093 -1.2642  0.1405
  553SOL     OW 1657   0.507   2.982   0.538  0.0466 -0.0607  0.5594
  553SOL    HW1 1658   0.450   3.063   0.511  0.0782 -1.2245  1.9461
  553SOL    HW2 1659   0.558   3.004   0.623  0.2946 -1.4648 -0.1258
  554SOL     OW 1660   1.873   1.923   1.703  0.6101  0.1933 -0.2437
  554SOL    HW1 1661   1.796   1.906   1.641 -0.0343 -3.1490 -0.3799
  554SOL    HW2 1662   1.947   1.853   1.693  0.5971  1.6572 -0.4175
  555SOL     OW 1663   1.561   2.562   1.969 -0.4979  0.3441  0.0783
  555SOL    HW1 1664   1.564   2.466   1.936  1.3643 -3.1753 -1.3350
  555SOL    HW2 1665   1.463   2.594   1.996 -3.8179  2.1594  1.2423
  556SOL     OW 1666   1.537   0.893   0.614  0.5239  0.1732  0.1063
  556SOL    HW1 1667   1.630   0.864   0.627 -3.0769  1.8142  0.3540
  556SOL    HW2 1668   1.477   0.812   0.597  2.6033  1.0620  1.2321
  557SOL     OW 1669   1.587   2.186   1.548 -0.1027  0.0587 -0.3887
  557SOL    HW1 1670   1.668   2.221   1.490  1.3900 -0.4925  1.0324
  557SOL    HW2 1671   1.495   2.220   1.513  1.7198 -1.1003 -3.6823
  558SOL     OW 1672   2.999   1.206   2.560  0.3532  0.4714  0.4023
  558SOL    HW1 1673   2.902   1.181   2.565  1.5452  0.8105  1.3878
  558SOL    HW2 1674   3.050   1.132   2.511  1.4752  0.5279 -0.0167
  559SOL     OW 1675   2.510   2.510   2.488  0.0440  0.2967  0.2806
  559SOL    HW1 1676   2.603   2.475   2.493 -0.2181  1.4794  1.1689
  559SOL    HW2 1677   2.512   2.606   2.518  2.4608  1.2243  0.8244
  560SOL     OW 1678   0.419   0.031   2.571  0.2326  0.3143  0.0340
  560SOL    HW1 1679   0.369   3.121   2.492 -1.7525  0.7695 -1.1033
  560SOL    HW2 1680   0.520   0.006   2.566  2.4437 -0.2402 -3.0084
  561SOL     OW 1681   1.407   0.656   0.569  0.2515  0.3195  0.4336
  561SOL    HW1 1682   1.309   0.681   0.554  1.1516 -0.0407  0.4569
  561SOL    HW2 1683   1.433   0.566   0.519  3.0401 -2.8309 -0.8493
  562SOL     OW 1684   0.596   1.331   2.162 -0.2734  0.1601  0.5979
  562SOL    HW1 1685   0.670   1.404   2.189  0.7291  6.2991  1.5828
  562SOL    HW2 1686   0.522   1.374   2.101 -0.4138  2.3852  0.1433
  563SOL     OW 1687   1.811   2.234   0.274  0.4686  0.2685  0.1769
  563SOL    HW1 1688   1.811   2.186   0.183  1.7991  0.4077  3.1788
  563SOL    HW2 1689   1.907   2.261   0.289 -0.1418 -1.4389  3.3784
  564SOL     OW 1690   0.174   2.142   0.549  0.1138 -0.3202  0.8484
  564SOL    HW1 1691   0.223   2.063   0.501 -3.9188 -0.1871 -2.2281
  564SOL    HW2 1692   0.088   2.116   0.605 -0.6481  1.8042  3.8053
  565SOL     OW 1693   0.397   3.006   3.003  0.2700  0.1380  0.2346
  565SOL    HW1 1694   0.340   2.997   2.917  0.5586 -0.1354  1.1126
  565SOL    HW2 1695   0.475   2.943   2.993  2.3812  0.4046 -0.6066
  566SOL     OW 1696   1.466   2.652   2.961 -0.1342  0.4934  0.4891
  566SOL    HW1 1697   1.471   2.664   3.058  2.2696  1.0860 -4.3258
  566SOL    HW2 1698   1.467   2.742   2.907  3.2638  2.9995  0.0410
  567SOL     OW 1699   2.502   1.813   1.307 -0.2133  0.0437  0.0833
  567SOL    HW1 1700   2.586   1.868   1.326  0.7895  1.0588  1.1354
  567SOL    HW2 1701   2.473   1.760   1.390  0.2027  0.7013 -0.4025
  568SOL     OW 1702   1.872   1.026   2.669 -0.5623 -0.2894 -0.0488
  568SOL    HW1 1703   1.866   0.951   2.737  0.1889  0.8305 -1.0281
  568SOL    HW2 1704   1.921   1.105   2.717  0.9091  2.3980  1.0874
  569SOL     OW 1705   2.142   2.006   2.075 -0.1268  0.7564 -0.1184
  569SOL    HW1 1706   2.142   1.903   2.061 -0.3240 -2.1835 -0.8552
  569SOL    HW2 1707   2.216   2.032   2.141  2.2361 -0.8570 -2.5653
  570SOL     OW 1708   0.008   2.680   1.810 -0.2933 -0.0373  0.0076
  570SOL    HW1 1709   0.086   2.622   1.787 -0.1277 -0.1281 -1.1654
  570SOL    HW2 1710   3.067   2.668   1.739 -3.0602 -0.2589  2.2016
  571SOL     OW 1711   0.090   0.844   1.351 -0.0980 -0.2976  0.1083
  571SOL    HW1 1712   0.141   0.867   1.434 -0.1993 -0.5028 -1.9428
  571SOL    HW2 1713   3.117   0.846   1.371  2.1854  1.7071 -1.6038
  572SOL     OW 1714   0.383   1.413   0.663  0.0994 -0.6033  0.0177
  572SOL    HW1 1715   0.332   1.324   0.665  1.8030 -0.7972 -0.9289
  572SOL    HW2 1716   0.481   1.400   0.663 -3.9161  1.3490  1.4449
  573SOL     OW 1717   0.950   0.688   0.192  0.9526  0.0758  0.6613
  573SOL    HW1 1718   0.914   0.710   0.097 -0.9570  1.6161 -5.8820
  573SOL    HW2 1719   1.032   0.742   0.214 -3.8896  2.1317 -0.3650
  574SOL     OW 1720   0.183   0.262   0.359 -0.0587 -0.5422  0.1325
  574SOL    HW1 1721   0.231   0.188   0.407  0.1310  1.2494  0.6485
  574SOL    HW2 1722   0.225   0.291   0.275  0.3653  1.4897  2.3928
  575SOL     OW 1723   0.944   2.102   1.023 -0.1990 -0.4259  0.1245
  575SOL    HW1 1724   0.928   2.116   0.922  0.0124  2.1116 -4.7939
  575SOL    HW2 1725   1.043   2.123   1.043 -1.4683  1.6127  0.0334
  576SOL     OW 1726   3.058   0.052   1.745  0.0203 -0.4875  0.9843
  576SOL    HW1 1727   3.076   0.113   1.666 -1.5975 -0.0532 -1.2366
  576SOL    HW2 1728   2.961   0.028   1.737  0.7676  0.3348  1.2073
  577SOL     OW 1729   2.605   1.687   2.157 -0.1536  0.0364 -0.0794
  577SOL    HW1 1730   2.508   1.666   2.189 -0.4964 -0.4676  1.4334
  577SOL    HW2 1731   2.671   1.664   2.232 -0.6296  0.4001  0.8507
  578SOL     OW 1732   1.145   3.048   2.490 -0.3355  0.0105 -0.3728
  578SOL    HW1 1733   1.229   3.044   2.428 -0.8461 -0.1132 -0.7876
  578SOL    HW2 1734   1.126   2.956   2.525  1.9605  3.3080 -1.1950
  579SOL     OW 1735   1.803   1.894   2.245  0.4432  0.5907  0.0172
  579SOL    HW1 1736   1.799   1.876   2.148  1.6374  0.7023  3.4689
  579SOL    HW2 1737   1.711   1.881   2.287  0.0162 -2.4305 -0.2555
  580SOL     OW 1738   1.779   1.033   2.035 -0.4152  0.1089  0.2459
  580SOL    HW1 1739   1.867   0.984   2.063  1.9834  1.4049  0.7707
  580SOL    HW2 1740   1.717   1.033   2.115  1.4234 -0.9724  1.4467
  581SOL     OW 1741   1.271   1.149   2.437 -0.0384  0.2413 -0.2736
  581SOL    HW1 1742   1.318   1.057   2.447 -0.5244 -1.7917  1.8310
  581SOL    HW2 1743   1.227   1.160   2.349 -1.3786  0.4155  1.1596
  582SOL     OW 1744   0.092   2.439   2.085 -0.4430 -0.3754 -0.2340
  582SOL    HW1 1745   0.120   2.381   2.007  2.3185 -1.5800 -0.5654
  582SOL    HW2 1746   0.158   2.519   2.093  0.2821  4.0387  1.8195
  583SOL     OW 1747   1.686   1.136   1.253  0.2145 -0.2967  0.1481
  583SOL    HW1 1748   1.655   1.213   1.190  0.0582 -0.6481 -0.4408
  583SOL    HW2 1749   1.705   1.176   1.343 -0.0646 -1.6497 -0.9820
  584SOL     OW 1750   1.022   2.098   2.777  0.4681 -0.5199  0.2670
  584SOL    HW1 1751   1.049   2.148   2.861 -0.3187  0.3125  0.9861
  584SOL    HW2 1752   1.056   2.139   2.692  1.4838 -1.4094  0.9110
  585SOL     OW 1753   0.220   2.486   0.299 -0.2860  0.0654 -0.0182
  585SOL    HW1 1754   0.135   2.492   0.242  0.7589 -0.1845  2.4322
  585SOL    HW2 1755   0.292   2.423   0.260  1.9331 -0.7393  2.1840
  586SOL     OW 1756   2.066   1.581   0.518  0.2723 -0.0858 -0.5549
  586SOL    HW1 1757   2.095   1.497   0.479  0.8025  3.1199  1.5722
  586SOL    HW2 1758   2.013   1.563   0.603  2.2419  0.4022  0.2001
  587SOL     OW 1759   2.997   2.004   0.352 -0.8040  0.1504 -0.0742
  587SOL    HW1 1760   3.071   1.952   0.401  0.3551 -2.0728 -5.5651
  587SOL    HW2 1761   2.928   2.041   0.415 -0.7529 -2.0439 -0.9964
  588SOL     OW 1762   2.418   0.370   1.052 -0.1169 -0.0948  0.3213
  588SOL    HW1 1763   2.485   0.351   1.125  0.3127  0.2779 -1.5508
  588SOL    HW2 1764   2.405   0.290   0.985 -0.2217 -0.2646 -0.5060
  589SOL     OW 1765   0.889   0.768   0.808  0.0973  0.5655 -0.0082
  589SOL    HW1 1766   0.973   0.763   0.866 -3.0613 -0.3513 -0.7858
  589SOL    HW2 1767   0.811   0.714   0.851  0.1019 -2.6351 -0.2187
  590SOL     OW 1768   2.498   2.545   0.088  0.4071  0.4191  0.0082
  590SOL    HW1 1769   2.463   2.486   0.162 -0.2595 -0.2720 -1.4893
  590SOL    HW2 1770   2.513   2.638   0.124  1.2653  0.3727 -0.6366
  591SOL     OW 1771   0.754   2.279   1.688  0.3759 -0.3935  0.7466
  591SOL    HW1 1772   0.807   2.241   1.766  0.7200  1.8448 -1.4566
  591SOL    HW2 1773   0.650   2.280   1.702 -2.9796 -1.0655  0.2504
  592SOL     OW 1774   0.772   1.641   1.881 -0.0592 -0.4011 -0.2918
  592SOL    HW1 1775   0.847   1.684   1.936 -1.3009  0.0787 -1.4813
  592SOL    HW2 1776   0.715   1.581   1.943  1.4485  1.7317  2.3617
  593SOL     OW 1777   1.379   1.853   1.213 -0.2371 -0.6183  0.2937
  593SOL    HW1 1778   1.476   1.875   1.214 -2.1142  0.4796  0.8047
  593SOL    HW2 1779   1.339   1.889   1.301 -2.9841  0.6868  0.9462
  594SOL     OW 1780   0.391   1.228   2.764  0.3540 -0.3097  0.1327
  594SOL    HW1 1781   0.381   1.168   2.846  0.1855  0.4442 -0.3739
  594SOL    HW2 1782   0.459   1.187   2.702 -1.9735 -0.9372 -0.7689
  595SOL     OW 1783   1.493   0.411   1.062 -0.2913  0.0004  0.1720
  595SOL    HW1 1784   1.532   0.441   1.151 -0.5804  1.8702  0.2824
  595SOL    HW2 1785   1.506   0.484   0.989 -0.7492  1.7785 -0.3542
  596SOL     OW 1786   0.349   1.005   0.978  0.3956 -0.2896 -0.2587
  596SOL    HW1 1787   0.423   1.018   0.912 -0.9226  0.6410 -2.0982
  596SOL    HW2 1788   0.263   1.046   0.948  0.1212 -1.4398  0.6176
  597SOL     OW 1789   0.202   2.345   2.943  0.0434 -0.1355 -0.2836
  597SOL    HW1 1790   0.170   2.277   3.022 -1.2128  1.1547  1.5252
  597SOL    HW2 1791   0.119   2.397   2.917  1.4853 -3.1913 -3.0139
  598SOL     OW 1792   2.024   2.043   2.850  0.1548  0.4099  0.3374
  598SOL    HW1 1793   2.011   2.132   2.796 -0.8785  1.6437  0.1305
  598SOL    HW2 1794   2.084   2.060   2.927  1.1466  1.2495 -2.3638
  599SOL     OW 1795   1.737   0.720   0.196  0.1892  0.0615  0.2203
  599SOL    HW1 1796   1.699   0.630   0.229 -1.3420  0.4919  3.8860
  599SOL    HW2 1797   1.753   0.786   0.276 -0.5078  2.8283  1.8755
  600SOL     OW 1798   1.007   0.294   0.210  0.3128 -0.7257 -0.3269
  600SOL    HW1 1799   0.955   0.217   0.171  2.4195  0.1079 -0.4275
  600SOL    HW2 1800   1.046   0.357   0.141  0.3585  0.0437  0.3544
  601SOL     OW 1801   0.611   0.012   1.522  0.2181 -0.6625 -0.5197
  601SOL    HW1 1802   0.684   0.040   1.590  1.7241  0.8276 -3.8826
  601SOL    HW2 1803   0.648   0.035   1.432 -2.3193 -0.1460  0.4043
  602SOL     OW 1804   0.054   2.928   0.836  0.6765  0.1772  0.2794
  602SOL    HW1 1805   0.041   2.938   0.735  0.8236  1.6930  0.1752
  602SOL    HW2 1806   0.139   2.971   0.870 -1.2747  2.4728  0.7043
  603SOL     OW 1807   0.720   2.853   2.416  0.7527 -0.3042  0.4781
  603SOL    HW1 1808   0.794   2.921   2.401 -3.3149 -2.0571 -0.5413
  603SOL    HW2 1809   0.665   2.853   2.502  2.1317  1.2332 -1.8841
  604SOL     OW 1810   1.006   2.671   3.028 -0.1261  0.6995  0.0061
  604SOL    HW1 1811   1.022   2.672   0.004 -0.0947  1.0040  3.1365
  604SOL    HW2 1812   1.066   2.601   2.983  0.5686 -0.0169  1.6325
  605SOL     OW 1813   1.307   0.779   1.652 -0.0300 -0.1676  0.0566
  605SOL    HW1 1814   1.361   0.692   1.646 -0.5299 -0.4650 -0.6080
  605SOL    HW2 1815   1.331   0.822   1.743 -2.3340  0.7286  1.7528
  606SOL     OW 1816   1.344   0.361   2.690  0.0334 -0.3097  0.0355
  606SOL    HW1 1817   1.324   0.412   2.776 -0.7897  0.3465  2.5016
  606SOL    HW2 1818   1.282   0.281   2.682 -2.8603  2.6924  2.5291
  607SOL     OW 1819   0.664   1.255   1.201 -0.5433  0.1512 -0.0678
  607SOL    HW1 1820   0.741   1.194   1.171  0.3791 -3.0619  0.3071
  607SOL    HW2 1821   0.581   1.196   1.209 -0.2843  1.6113  0.9839
  608SOL     OW 1822   2.762   2.156   2.426 -0.1419 -0.0178  0.2657
  608SOL    HW1 1823   2.765   2.191   2.330  0.4929 -0.9968 -0.1502
  608SOL    HW2 1824   2.855   2.146   2.463  1.5555  0.4427 -0.5422
  609SOL     OW 1825   2.171   0.266   0.028 -0.1862 -0.3361 -0.5734
  609SOL    HW1 1826   2.125   0.176   0.036  1.8298 -0.1497 -1.0498
  609SOL    HW2 1827   2.251   0.271   0.088  0.1429 -0.0744 -0.4901
  610SOL     OW 1828   0.631   2.524   1.247 -0.8782 -0.2179  0.2946
  610SOL    HW1 1829   0.622   2.508   1.148 -4.3869  0.4529 -0.1691
  610SOL    HW2 1830   0.710   2.582   1.275 -0.4185  0.0707  2.3548
  611SOL     OW 1831   0.830   1.416   0.619 -0.1425 -0.0919 -0.1043
  611SOL    HW1 1832   0.855   1.466   0.532  0.9010  0.8857 -1.8136
  611SOL    HW2 1833   0.750   1.354   0.599 -0.8578  1.0369 -0.0421
  612SOL     OW 1834   0.827   0.115   2.208 -0.4777 -0.0830 -0.5094
  612SOL    HW1 1835   0.751   0.116   2.143 -1.4801  0.0884  2.9272
  612SOL    HW2 1836   0.888   0.190   2.187 -0.0102  0.2947 -2.1954
  613SOL     OW 1837   2.416   1.643   0.497  0.3701 -0.0350 -0.2154
  613SOL    HW1 1838   2.357   1.675   0.572  1.9005  3.5617  0.7212
  613SOL    HW2 1839   2.513   1.640   0.526  2.3575 -0.1326 -2.2521
  614SOL     OW 1840   1.898   0.399   1.802 -0.0444  0.4697 -0.2664
  614SOL    HW1 1841   1.827   0.462   1.846 -1.0107 -1.6752 -1.2229
  614SOL    HW2 1842   1.943   0.441   1.722 -1.6336 -0.9739  0.5050
  615SOL     OW 1843   0.887   1.817   1.117 -0.6029  0.0682 -0.0993
  615SOL    HW1 1844   0.981   1.795   1.148  2.8291 -2.5893 -0.3971
  615SOL    HW2 1845   0.894   1.897   1.059 -1.5933 -1.5089  1.5152
  616SOL     OW 1846   1.564   1.373   2.843 -0.2095  0.1289  0.5440
  616SOL    HW1 1847   1.660   1.410   2.828  1.4143  1.0818 -0.8844
  616SOL    HW2 1848   1.527   1.337   2.756  1.1589  1.4387  3.2708
  617SOL     OW 1849   1.851   2.526   0.583  0.7595 -0.2143  0.0373
  617SOL    HW1 1850   1.850   2.579   0.498 -1.2169 -1.5849 -0.0783
  617SOL    HW2 1851   1.813   2.431   0.572 -1.1124  1.1055  1.8984
  618SOL     OW 1852   0.710   1.110   2.816 -0.1934 -0.1215 -0.6076
  618SOL    HW1 1853   0.780   1.096   2.887 -1.8890 -1.2487 -2.1229
  618SOL    HW2 1854   0.710   1.203   2.777  0.4748 -0.1849  1.1348
  619SOL     OW 1855   2.882   1.414   0.695 -0.5068 -0.3191 -0.4784
  619SOL    HW1 1856   2.881   1.416   0.591 -0.7747  1.3276  0.5813
  619SOL    HW2 1857   2.789   1.400   0.728 -0.0382 -2.0296  0.6670
  620SOL     OW 1858   2.293   2.890   3.119  0.2753  0.1939  0.5099
  620SOL    HW1 1859   2.296   2.790   3.095 -1.3445  0.3469 -3.0670
  620SOL    HW2 1860   2.304   2.910   0.089  0.3140  0.1605 -1.1122
  621SOL     OW 1861   2.325   1.352   0.173 -0.0226  0.4646 -0.9392
  621SOL    HW1 1862   2.377   1.383   0.252 -0.1000 -1.6014 -0.4535
  621SOL    HW2 1863   2.228   1.331   0.200 -1.0434  0.2235 -0.5979
  622SOL     OW 1864   1.019   2.398   2.416  0.3608  0.3211  0.0464
  622SOL    HW1 1865   0.917   2.389   2.424  1.2887  0.1170  0.9145
  622SOL    HW2 1866   1.055   2.319   2.357  1.3917 -2.2068 -1.3472
  623SOL     OW 1867   0.880   1.698   0.161 -0.2073 -0.4909 -0.0646
  623SOL    HW1 1868   0.962   1.690   0.107 -1.8980  0.2560 -0.9018
  623SOL    HW2 1869   0.798   1.731   0.110 -0.0106  0.2618 -2.3889
  624SOL     OW 1870   0.272   3.004   2.757 -0.2869 -0.0369 -0.2143
  624SOL    HW1 1871   0.295   3.076   2.688 -0.7999 -1.4948 -1.0231
  624SOL    HW2 1872   0.180   3.029   2.804 -1.8457  4.6735  2.1450
  625SOL     OW 1873   0.848   1.932   0.324  0.0898 -0.3189  0.0712
  625SOL    HW1 1874   0.832   2.021   0.278 -1.3441  0.8939 -2.2477
  625SOL    HW2 1875   0.836   1.856   0.255  0.6226 -1.8197 -1.6625
  626SOL     OW 1876   2.326   0.093   2.948 -0.0857 -0.0169 -0.7595
  626SOL    HW1 1877   2.266   0.031   2.998  1.6953  0.6372 -2.3008
  626SOL    HW2 1878   2.286   0.187   2.944 -1.9013  0.0923 -2.2626
  627SOL     OW 1879   1.482   1.293   2.597  0.0939 -0.6057  0.1405
  627SOL    HW1 1880   1.407   1.251   2.542  3.0843 -0.9213 -0.4337
  627SOL    HW2 1881   1.570   1.269   2.549  2.2211 -1.2156 -3.3291
  628SOL     OW 1882   0.683   0.864   2.409  0.6217 -0.2828 -0.2471
  628SOL    HW1 1883   0.698   0.949   2.354  2.3716  0.4311 -1.6345
  628SOL    HW2 1884   0.658   0.784   2.353  1.2863  0.9204  0.1538
  629SOL     OW 1885   0.499   3.059   2.015  0.9200 -0.2308 -0.1576
  629SOL    HW1 1886   0.515   2.995   2.095  1.5673 -2.2047 -1.0722
  629SOL    HW2 1887   0.587   3.094   1.986 -2.2802 -0.4610 -1.9117
  630SOL     OW 1888   2.415   0.795   1.739  0.3401  0.1387  0.1539
  630SOL    HW1 1889   2.444   0.884   1.773  1.7220 -0.3860  0.6678
  630SOL    HW2 1890   2.388   0.803   1.642  1.1691  1.7467  4.6097
  631SOL     OW 1891   2.458   1.384   0.419 -0.4745 -0.2502  0.6549
  631SOL    HW1 1892   2.453   1.320   0.495 -1.2872  2.1217 -1.9815
  631SOL    HW2 1893   2.457   1.477   0.452 -1.1651 -3.6411 -2.1627
  632SOL     OW 1894   2.114   0.470   1.948 -0.2118  0.3448 -0.4061
  632SOL    HW1 1895   2.192   0.421   1.911  1.1193 -0.7004 -0.3491
  632SOL    HW2 1896   2.029   0.425   1.924  0.0156  0.6659  0.9301
  633SOL     OW 1897   0.786   3.087   0.352 -0.0385  0.4373  0.5694
  633SOL    HW1 1898   0.708   3.026   0.339  1.4133  2.3331  0.7645
  633SOL    HW2 1899   0.831   3.070   0.442  0.0426 -2.1780 -1.4025
  634SOL     OW 1900   1.394   0.004   2.860 -0.1649  0.0476  0.0258
  634SOL    HW1 1901   1.471   0.071   2.867 -0.2465 -2.5555 -2.9615
  634SOL    HW2 1902   1.426   3.040   2.822  1.6979  0.1578 -0.5842
  635SOL     OW 1903   2.562   0.442   0.036  0.5555  0.0612  0.0045
  635SOL    HW1 1904   2.616   0.508   0.088  0.1503 -2.3622 -2.2823
  635SOL    HW2 1905   2.495   0.392   0.099 -1.5514 -1.7698 -0.9311
  636SOL     OW 1906   0.791   1.556   1.214 -0.0766  0.1506 -0.4053
  636SOL    HW1 1907   0.824   1.652   1.189 -0.5758 -0.7677  1.0611
  636SOL    HW2 1908   0.769   1.497   1.136  0.6248 -0.5007  0.2325
  637SOL     OW 1909   0.146   2.728   0.467  0.3365  0.4218 -0.5182
  637SOL    HW1 1910   0.233   2.751   0.520 -2.0580 -1.7162  1.4418
  637SOL    HW2 1911   0.154   2.641   0.423  0.0473 -1.0490 -0.8436
  638SOL     OW 1912   0.208   2.964   0.313  0.3398  0.2049 -0.0745
  638SOL    HW1 1913   0.158   2.980   0.224 -1.0369 -1.2930  1.1419
  638SOL    HW2 1914   0.182   2.871   0.351  0.8173  1.3975 -0.9614
  639SOL     OW 1915   1.272   1.540   0.125  0.2860 -0.2581  0.3182
  639SOL    HW1 1916   1.280   1.473   0.050  0.7241  0.7647  1.9947
  639SOL    HW2 1917   1.356   1.566   0.174 -2.8070  0.0506  0.5288
  640SOL     OW 1918   1.195   2.557   0.992  0.5087 -0.6344 -0.6353
  640SOL    HW1 1919   1.236   2.533   0.903 -1.7026 -0.8690 -0.0704
  640SOL    HW2 1920   1.098   2.585   0.981  1.0845  0.0562 -2.6683
  641SOL     OW 1921   3.021   2.563   0.678  0.2721 -0.1689  0.1650
  641SOL    HW1 1922   2.970   2.497   0.735  2.5482  0.8488 -2.4917
  641SOL    HW2 1923   3.120   2.532   0.670  0.5501 -0.0271 -1.7180
  642SOL     OW 1924   0.990   3.064   1.708 -0.8572  0.1825  0.3151
  642SOL    HW1 1925   1.046   3.012   1.640 -1.3506  2.1811  2.2889
  642SOL    HW2 1926   1.037   3.090   1.799 -0.2547  1.8707  1.7708
  643SOL     OW 1927   0.705   2.176   2.152 -0.2971 -0.1534 -0.0334
  643SOL    HW1 1928   0.679   2.111   2.075 -0.6254 -0.7394 -1.0674
  643SOL    HW2 1929   0.712   2.128   2.238 -0.2464  1.7664 -4.1282
  644SOL     OW 1930   0.897   3.052   0.600 -0.1233 -0.3621 -0.0832
  644SOL    HW1 1931   0.986   3.058   0.657  0.4002 -2.2038  1.5177
  644SOL    HW2 1932   0.822   3.014   0.655  0.0134  3.1424  0.8450
  645SOL     OW 1933   1.380   1.514   2.408 -0.2292 -0.7330 -0.0418
  645SOL    HW1 1934   1.304   1.522   2.478 -0.7127  1.2407  2.0385
  645SOL    HW2 1935   1.469   1.524   2.459  0.6249  2.3575  1.5578
  646SOL     OW 1936   0.564   1.124   0.365 -0.1181  0.3777 -0.1861
  646SOL    HW1 1937   0.546   1.027   0.349  1.2214  0.1908 -1.6018
  646SOL    HW2 1938   0.656   1.148   0.335 -1.6377  2.5111  0.5997
  647SOL     OW 1939   1.363   0.102   0.768  0.7093  0.0847  0.0193
  647SOL    HW1 1940   1.334   0.195   0.788  1.0139 -2.6695 -0.2732
  647SOL    HW2 1941   1.427   0.070   0.839 -2.0004  1.1547 -1.0244
  648SOL     OW 1942   2.686   2.725   1.534  0.0740 -0.1117  0.1730
  648SOL    HW1 1943   2.632   2.739   1.616  2.3449 -0.9485 -0.2819
  648SOL    HW2 1944   2.710   2.812   1.486 -3.7095  1.8372  0.4198
  649SOL     OW 1945   0.813   2.158   0.193  0.1896 -0.2475 -1.0213
  649SOL    HW1 1946   0.822   2.145   0.093 -1.4042  1.0321  2.2264
  649SOL    HW2 1947   0.714   2.151   0.229 -2.7406 -1.4999 -0.4602
  650SOL     OW 1948   3.047   1.938   1.409 -0.1356 -0.3984  0.1519
  650SOL    HW1 1949   3.095   1.997   1.471 -3.4914 -4.3864 -2.7510
  650SOL    HW2 1950   3.031   1.983   1.321 -1.2242  0.1335  0.6202
  651SOL     OW 1951   0.068   3.060   2.911 -0.0694  0.5388 -0.4046
  651SOL    HW1 1952   0.070   3.006   2.994 -0.6553  0.8106 -1.8100
  651SOL    HW2 1953   0.057   0.031   2.926  2.5028 -0.0706  0.7282
  652SOL     OW 1954   2.443   1.936   0.107  0.0787 -0.8606 -0.3110
  652SOL    HW1 1955   2.373   1.973   0.047  2.3422  1.8726  2.0168
  652SOL    HW2 1956   2.401   1.867   0.172 -2.1285  1.6082  1.3251
  653SOL     OW 1957   0.365   0.316   0.987  0.3160 -0.1511 -0.2831
  653SOL    HW1 1958   0.411   0.287   0.897  0.7881 -1.8461 -1.7213
  653SOL    HW2 1959   0.404   0.265   1.066 -0.2545  0.6405 -0.5984
  654SOL     OW 1960   1.043   2.937   0.148 -1.4012  0.0945  0.5460
  654SOL    HW1 1961   1.092   2.962   0.233 -1.1533  1.7693 -0.0911
  654SOL    HW2 1962   1.103   2.944   0.061 -0.0940  1.7300 -1.1236
  655SOL     OW 1963   0.855   2.563   0.885 -0.4637 -0.6959  0.0127
  655SOL    HW1 1964   0.870   2.523   0.978 -0.7585  1.3636  1.7954
  655SOL    HW2 1965   0.848   2.495   0.809  2.2301 -0.7206 -1.1390
  656SOL     OW 1966   0.583   2.898   2.199 -0.5208 -0.2649  0.4415
  656SOL    HW1 1967   0.630   2.830   2.135  1.1954  2.4296 -1.2826
  656SOL    HW2 1968   0.614   2.887   2.296 -0.8817  0.3781 -0.6579
  657SOL     OW 1969   1.822   0.898   2.428  0.0602  0.2069  0.1706
  657SOL    HW1 1970   1.832   0.800   2.418 -1.2384  0.1751 -0.8413
  657SOL    HW2 1971   1.840   0.935   2.522 -1.7112 -0.2538  0.6313
  658SOL     OW 1972   2.439   1.973   1.060  0.0080  0.5793 -0.1349
  658SOL    HW1 1973   2.444   1.930   1.148  1.6288  0.1299 -2.2983
  658SOL    HW2 1974   2.432   1.911   0.978 -0.5160  0.4460  1.4314
  659SOL     OW 1975   2.611   2.931   3.109  0.3292  0.3046 -0.7429
  659SOL    HW1 1976   2.595   3.026   0.010  2.6696  0.6466 -2.2266
  659SOL    HW2 1977   2.588   2.864   0.055 -0.1218 -0.9593  3.0105
  660SOL     OW 1978   1.101   0.951   2.752  0.6363 -0.4541  0.0239
  660SOL    HW1 1979   1.170   1.023   2.747  0.1221  0.1153 -2.1706
  660SOL    HW2 1980   1.055   0.957   2.843  2.2947 -0.4867  2.7997
  661SOL     OW 1981   2.490   2.661   1.025 -0.3342  0.4969  0.3591
  661SOL    HW1 1982   2.390   2.669   1.041 -0.7747  2.9095 -5.4414
  661SOL    HW2 1983   2.534   2.679   1.115 -0.5659  0.6938 -0.4572
  662SOL     OW 1984   0.548   0.585   0.212 -0.4099 -0.8511  0.1316
  662SOL    HW1 1985   0.510   0.491   0.207 -0.1683 -1.2659  2.3701
  662SOL    HW2 1986   0.548   0.622   0.112  2.0055  1.9034 -1.9274
  663SOL     OW 1987   1.157   2.432   2.661  0.3684 -0.1467  0.1224
  663SOL    HW1 1988   1.254   2.414   2.639 -2.5681  0.1287 -0.6352
  663SOL    HW2 1989   1.111   2.431   2.567 -1.2785 -2.7216 -1.7645
  664SOL     OW 1990   0.918   2.482   1.146 -0.3762  0.2351 -0.1762
  664SOL    HW1 1991   0.906   2.525   1.238 -0.1375 -1.7262 -0.6638
  664SOL    HW2 1992   1.013   2.454   1.137 -2.8363 -0.7335  1.5648
  665SOL     OW 1993   1.545   1.521   1.624 -0.4139  0.0120 -0.0693
  665SOL    HW1 1994   1.485   1.601   1.641  0.3682  0.8243 -2.2311
  665SOL    HW2 1995   1.509   1.471   1.543 -1.2622 -0.9903  0.3768
  666SOL     OW 1996   0.555   2.581   0.144  0.2734 -0.1470  0.3436
  666SOL    HW1 1997   0.623   2.586   0.069  2.5699  0.1083 -1.1890
  666SOL    HW2 1998   0.485   2.653   0.138  0.9685 -0.8250 -0.3485
  667SOL     OW 1999   1.915   1.375   1.502 -0.3790 -0.1210 -0.3048
  667SOL    HW1 2000   1.983   1.322   1.563  1.1025 -2.7878  1.5775
  667SOL    HW2 2001   1.888   1.467   1.541 -1.4433  0.8788  3.0241
  668SOL     OW 2002   0.262   0.059   2.074  0.5027  0.2634  0.1239
  668SOL    HW1 2003   0.356   0.035   2.037  0.6623  1.0713 -1.7280
  668SOL    HW2 2004   0.173   0.034   2.027 -3.2283  0.6457  1.5034
  669SOL     OW 2005   1.977   2.299   2.339 -0.2790 -0.2022 -0.1069
  669SOL    HW1 2006   1.966   2.386   2.389  0.3237  0.6235 -0.4152
  669SOL    HW2 2007   2.018   2.318   2.249  0.5356 -1.4550 -0.5707
  670SOL     OW 2008   2.401   2.050   0.519 -0.0573  0.1126  0.4308
  670SOL    HW1 2009   2.459   1.989   0.578 -0.1860  0.9543 -1.5563
  670SOL    HW2 2010   2.429   2.151   0.511  0.7454  0.7929  1.2980
  671SOL     OW 2011   0.919   1.057   1.499 -0.5929  0.0011  0.1618
  671SOL    HW1 2012   0.953   1.070   1.404  0.4427 -1.4943 -0.9261
  671SOL    HW2 2013   0.939   0.957   1.520  1.7714  0.7816 -0.2908
  672SOL     OW 2014   2.617   1.322   2.257 -0.0351 -0.4584 -0.5609
  672SOL    HW1 2015   2.598   1.392   2.329 -1.4906 -0.8603 -4.3993
  672SOL    HW2 2016   2.713   1.311   2.244 -1.1795  1.5541 -3.2674
  673SOL     OW 2017   3.012   1.673   2.454  0.3905 -0.3741  0.2188
  673SOL    HW1 2018   2.955   1.691   2.536  1.1006  0.3376  1.5942
  673SOL    HW2 2019   3.104   1.643   2.486 -0.7334  0.1578  0.7854
  674SOL     OW 2020   1.091   2.843   2.174 -0.3072 -0.0746  0.2635
  674SOL    HW1 2021   1.164   2.900   2.136  0.3124  0.3236 -0.8496
  674SOL    HW2 2022   1.124   2.785   2.250 -3.9610 -1.9162 -3.6115
  675SOL     OW 2023   0.700   0.727   1.474 -0.2450  0.1826  0.3569
  675SOL    HW1 2024   0.788   0.671   1.478  1.6107 -0.4698  0.5802
  675SOL    HW2 2025   0.694   0.781   1.563 -1.3670 -1.2550  0.1903
  676SOL     OW 2026   1.783   0.908   0.408 -0.5767 -0.3011 -0.1712
  676SOL    HW1 2027   1.809   0.849   0.485  1.4951 -1.3182  0.3939
  676SOL    HW2 2028   1.871   0.921   0.358 -0.9487  0.7605 -1.5349
  677SOL     OW 2029   2.875   1.761   2.873 -0.2431  0.0231 -0.0271
  677SOL    HW1 2030   2.853   1.659   2.876  0.3176  0.6481  2.3170
  677SOL    HW2 2031   2.947   1.778   2.940  2.2797  0.3090 -0.9992
  678SOL     OW 2032   0.073   3.037   1.260 -0.6285 -0.2023  0.1874
  678SOL    HW1 2033   0.122   3.126   1.236  2.8471  2.3349  0.5399
  678SOL    HW2 2034   0.106   3.003   1.350 -1.9156  3.3867  1.9327
  679SOL     OW 2035   2.265   0.109   0.530  0.4065  0.3242  0.0576
  679SOL    HW1 2036   2.301   0.189   0.578 -0.2217 -0.5340 -1.1684
  679SOL    HW2 2037   2.341   0.046   0.500  0.8654 -1.0721 -1.2134
  680SOL     OW 2038   0.358   2.297   2.222 -0.1856  0.9511 -0.1440
  680SOL    HW1 2039   0.394   2.206   2.239 -3.4410  2.3092 -3.8565
  680SOL    HW2 2040   0.423   2.353   2.164  0.2728  0.9156 -0.2841
  681SOL     OW 2041   0.324   1.632   1.434  0.1471 -0.1587  0.1718
  681SOL    HW1 2042   0.394   1.585   1.371 -1.9304 -4.5501 -0.1635
  681SOL    HW2 2043   0.357   1.721   1.470 -1.3512  0.3035  0.5294
  682SOL     OW 2044   0.493   2.366   1.723 -0.0446  0.4179  0.1839
  682SOL    HW1 2045   0.433   2.280   1.733 -0.4518 -3.5745 -3.8263
  682SOL    HW2 2046   0.480   2.437   1.793 -1.4506 -1.4677 -1.1864
  683SOL     OW 2047   3.011   1.901   1.777 -0.0958  0.3019  0.2125
  683SOL    HW1 2048   2.987   1.958   1.697  2.2949 -1.2885  1.6051
  683SOL    HW2 2049   3.098   1.851   1.755 -2.1066  1.0582 -0.8139
  684SOL     OW 2050   2.459   1.644   2.974 -0.5950 -0.5128  0.8765
  684SOL    HW1 2051   2.388   1.623   3.043 -0.2179  1.1481 -1.8994
  684SOL    HW2 2052   2.538   1.693   3.018  3.5805 -1.3474 -0.8259
  685SOL     OW 2053   1.370   1.134   0.246 -0.0649  0.0915 -0.1308
  685SOL    HW1 2054   1.458   1.076   0.251  0.8089  0.3285 -1.0472
  685SOL    HW2 2055   1.386   1.220   0.188  0.4947  3.0246 -2.5514
  686SOL     OW 2056   0.210   0.092   0.704 -0.2223 -0.0723  0.1338
  686SOL    HW1 2057   0.194   0.056   0.798  2.1120  0.4842 -0.8853
  686SOL    HW2 2058   0.213   0.197   0.705 -1.6261  0.4841  0.0575
  687SOL     OW 2059   1.011   1.218   2.636 -0.6728 -0.2257  0.0284
  687SOL    HW1 2060   1.111   1.235   2.636  1.9491 -0.3089 -0.2321
  687SOL    HW2 2061   0.994   1.117   2.636 -2.0196 -0.1354 -0.4441
  688SOL     OW 2062   1.211   1.652   1.552  0.2975 -0.1221  0.4366
  688SOL    HW1 2063   1.123   1.602   1.540  2.3506 -1.4198  1.0914
  688SOL    HW2 2064   1.212   1.744   1.505 -0.1260 -2.6085  0.0098
  689SOL     OW 2065   2.491   0.140   1.236  0.4244 -0.3821 -0.5216
  689SOL    HW1 2066   2.516   0.065   1.167  0.9077 -1.7104 -1.6684
  689SOL    HW2 2067   2.397   0.171   1.221 -1.0334  1.6577 -2.3536
  690SOL     OW 2068   3.124   1.544   1.091 -0.3957 -0.1785  0.4111
  690SOL    HW1 2069   0.025   1.616   1.160  0.5624 -0.6937 -0.9648
  690SOL    HW2 2070   0.078   1.502   1.043  2.1194 -2.1615 -1.0474
  691SOL     OW 2071   0.382   2.264   1.170  0.9399  0.1048 -0.4262
  691SOL    HW1 2072   0.419   2.311   1.252 -1.3199  1.1937  0.0581
  691SOL    HW2 2073   0.286   2.236   1.195 -4.3914  1.6254 -0.3881
  692SOL     OW 2074   2.339   3.041   1.444  0.2478  0.5540 -0.1435
  692SOL    HW1 2075   2.293   3.058   1.356 -0.2647  1.5546  0.6579
  692SOL    HW2 2076   2.293   3.097   1.512  1.1884 -0.0720 -1.6854
  693SOL     OW 2077   0.229   1.821   2.471  0.3070 -0.3805  0.4072
  693SOL    HW1 2078   0.173   1.746   2.511 -0.5002 -1.6309 -2.5825
  693SOL    HW2 2079   0.167   1.894   2.432 -1.8591 -0.2887  0.2111
  694SOL     OW 2080   1.671   1.012   1.605  0.6884  0.1311 -0.4329
  694SOL    HW1 2081   1.734   0.986   1.532 -2.4055  3.3680  1.3981
  694SOL    HW2 2082   1.634   1.105   1.591 -0.1165 -0.4573 -0.9335
  695SOL     OW 2083   0.786   0.815   1.235 -0.0700 -0.6521 -0.0085
  695SOL    HW1 2084   0.742   0.782   1.322 -1.8731 -2.0921 -1.7213
  695SOL    HW2 2085   0.866   0.756   1.209  2.2066 -1.9903  0.7734
  696SOL     OW 2086   1.566   3.118   0.915 -0.2816 -0.0336  0.3605
  696SOL    HW1 2087   1.622   0.071   0.951  1.4308  0.5337 -1.1114
  696SOL    HW2 2088   1.579   3.096   0.819 -1.5691  1.4755  1.0032
  697SOL     OW 2089   1.126   0.442   1.326  0.0700 -0.5692  0.0832
  697SOL    HW1 2090   1.161   0.390   1.405  0.4511  1.2505 -2.9884
  697SOL    HW2 2091   1.171   0.400   1.246  1.5256 -1.2214  1.9804
  698SOL     OW 2092   1.378   1.007   2.140  0.3006  0.3314 -0.0898
  698SOL    HW1 2093   1.307   0.986   2.204  3.3685  0.8979  0.0575
  698SOL    HW2 2094   1.466   1.040   2.190 -0.3575  2.0117  1.2043
  699SOL     OW 2095   1.782   0.593   1.140 -0.0325  0.3194  0.0221
  699SOL    HW1 2096   1.883   0.600   1.171 -0.3842  0.5249  1.3509
  699SOL    HW2 2097   1.771   0.624   1.044 -1.3866  0.2180  2.3794
  700SOL     OW 2098   1.041   2.633   0.177  0.1722  0.6459  0.0917
  700SOL    HW1 2099   0.978   2.681   0.241  0.0758 -1.6075  0.3739
  700SOL    HW2 2100   1.007   2.539   0.172  2.5119  1.8525 -3.2845
  701SOL     OW 2101   2.024   2.337   2.942 -0.6474  0.1999 -0.1053
  701SOL    HW1 2102   1.956   2.374   2.880  0.6403  0.7065  0.3871
  701SOL    HW2 2103   2.121   2.348   2.907 -2.0908 -0.9145  0.3493
  702SOL     OW 2104   0.564   0.276   0.779  0.0135  0.0493  0.7489
  702SOL    HW1 2105   0.642   0.306   0.838 -0.6383 -0.2672  0.2555
  702SOL    HW2 2106   0.600   0.266   0.685 -1.7069  0.9777  1.0728
  703SOL     OW 2107   2.315   0.131   2.474 -0.1613  0.5933  0.2908
  703SOL    HW1 2108   2.283   0.040   2.439 -0.4777 -0.2977  1.7262
  703SOL    HW2 2109   2.364   0.187   2.405 -0.7298 -0.3451  0.6863
  704SOL     OW 2110   3.104   2.314   0.458 -0.3960  0.2511 -0.1041
  704SOL    HW1 2111   3.079   2.287   0.363  0.5814 -0.0427  0.1759
  704SOL    HW2 2112   0.042   2.246   0.494 -0.0267 -1.3430 -1.2429
  705SOL     OW 2113   2.809   2.736   2.398  0.1990 -0.1004  0.0042
  705SOL    HW1 2114   2.901   2.733   2.368 -0.6172  1.8012  1.0023
  705SOL    HW2 2115   2.768   2.832   2.399 -0.7533  0.7984  0.1721
  706SOL     OW 2116   2.151   2.847   1.308 -0.5288  0.1139  0.5077
  706SOL    HW1 2117   2.064   2.838   1.358  0.2168  0.9777  0.8471
  706SOL    HW2 2118   2.225   2.827   1.367 -0.2549  1.1789 -3.6653
  707SOL     OW 2119   0.932   2.632   2.054 -0.1890 -0.6034 -0.2651
  707SOL    HW1 2120   0.968   2.642   1.959 -0.0132 -0.2223 -2.3628
  707SOL    HW2 2121   0.973   2.707   2.108  1.4730 -0.2602  1.5015
  708SOL     OW 2122   0.118   2.141   2.080 -0.0304  0.0412  0.2112
  708SOL    HW1 2123   0.043   2.170   2.018  0.1731  0.5432  1.3307
  708SOL    HW2 2124   0.203   2.198   2.079  1.3273  1.8689  0.4029
  709SOL     OW 2125   2.042   0.165   1.786 -0.2593  0.2131  0.0473
  709SOL    HW1 2126   1.988   0.255   1.785 -1.3239  3.1783 -1.4811
  709SOL    HW2 2127   2.003   0.100   1.855  0.8104 -1.0643  2.6271
  710SOL     OW 2128   1.619   0.727   2.831  0.2607 -0.3872  0.3860
  710SOL    HW1 2129   1.674   0.661   2.771  2.5111 -0.1516 -1.6846
  710SOL    HW2 2130   1.585   0.806   2.777  0.5553 -1.0681 -0.4455
  711SOL     OW 2131   0.944   1.839   2.749 -0.1358 -0.1744 -0.1807
  711SOL    HW1 2132   0.981   1.934   2.754 -1.6999  1.7878 -1.8228
  711SOL    HW2 2133   1.011   1.781   2.702  0.6381  0.1496  2.7013
  712SOL     OW 2134   0.765   2.355   2.464 -0.4074 -0.5684 -0.6164
  712SOL    HW1 2135   0.743   2.393   2.556 -0.0637 -0.7711 -0.2495
  712SOL    HW2 2136   0.731   2.260   2.463  3.4763  2.6176  2.0189
  713SOL     OW 2137   1.807   1.431   2.699  0.2665  0.0900  0.0733
  713SOL    HW1 2138   1.879   1.361   2.712 -1.7100 -1.3721 -1.7299
  713SOL    HW2 2139   1.837   1.482   2.614 -0.3199 -1.4390 -2.1806
  714SOL     OW 2140   1.130   1.566   2.031 -0.3395 -0.0744  0.3550
  714SOL    HW1 2141   1.072   1.655   2.047  0.6048  0.9199  2.1079
  714SOL    HW2 2142   1.183   1.575   1.942 -0.2846 -1.1606 -0.6499
  715SOL     OW 2143   1.929   0.529   2.750 -0.4307  0.3237 -0.1329
  715SOL    HW1 2144   1.982   0.442   2.749 -2.4070 -0.7394  0.8228
  715SOL    HW2 2145   1.833   0.509   2.718 -2.6752 -1.0372  0.0241
  716SOL     OW 2146   3.078   2.145   1.637  0.1975 -0.2418 -0.5025
  716SOL    HW1 2147   3.055   2.145   1.734  0.6583  2.8500  0.0425
  716SOL    HW2 2148   3.095   2.240   1.605 -1.8523  1.5546 -0.8307
  717SOL     OW 2149   2.642   1.339   0.770  0.0774  0.0936 -0.2520
  717SOL    HW1 2150   2.590   1.390   0.840  0.6703  1.0965 -0.2610
  717SOL    HW2 2151   2.586   1.258   0.745 -1.9072 -0.2839 -0.1750
  718SOL     OW 2152   1.230   1.975   1.976  0.4794  0.6225 -0.0608
  718SOL    HW1 2153   1.274   2.062   1.994  2.6204 -1.3292 -0.4185
  718SOL    HW2 2154   1.195   1.932   2.062 -1.8371  0.6072 -0.2017
  719SOL     OW 2155   2.214   0.844   2.810 -0.4046 -0.4978 -0.2634
  719SOL    HW1 2156   2.113   0.833   2.833 -1.7358 -2.7710  1.2103
  719SOL    HW2 2157   2.262   0.774   2.863 -2.2118  0.7534  0.3095
  720SOL     OW 2158   0.767   0.365   0.911 -0.7726 -0.2198 -0.0141
  720SOL    HW1 2159   0.784   0.346   1.011  0.7976 -0.0503 -2.1655
  720SOL    HW2 2160   0.834   0.306   0.855  0.8712 -1.1919 -2.1980
  721SOL     OW 2161   2.832   0.979   0.624  0.2472  0.4684  0.2920
  721SOL    HW1 2162   2.881   1.031   0.548  2.2578  0.9671  1.1265
  721SOL    HW2 2163   2.731   0.984   0.602 -0.2495  0.5204 -1.9868
  722SOL     OW 2164   3.077   0.322   2.698 -0.1229 -0.4390  0.3509
  722SOL    HW1 2165   2.990   0.286   2.658 -0.4212  0.8725 -0.8541
  722SOL    HW2 2166   3.102   0.419   2.663 -0.6398  4.1841  0.1031
  723SOL     OW 2167   1.640   0.190   0.305  0.0874  0.1144  0.1860
  723SOL    HW1 2168   1.586   0.276   0.313  0.1352  0.5618 -0.5342
  723SOL    HW2 2169   1.610   0.131   0.382  0.7176 -1.0142 -1.9307
  724SOL     OW 2170   0.781   1.766   2.262 -0.3235 -0.4029  0.0044
  724SOL    HW1 2171   0.689   1.777   2.220 -1.5122  0.1865  0.5175
  724SOL    HW2 2172   0.781   1.813   2.353  2.4782 -1.8460  0.3388
  725SOL     OW 2173   1.541   2.917   1.101  0.5549 -0.3219 -0.4854
  725SOL    HW1 2174   1.553   2.931   1.202 -0.5694  2.2516 -1.4012
  725SOL    HW2 2175   1.578   2.996   1.048 -0.3837  2.8742  0.5230
  726SOL     OW 2176   1.990   2.597   0.077 -0.1635 -0.0438  0.1947
  726SOL    HW1 2177   1.962   2.496   0.077 -1.8294 -0.1710 -2.2699
  726SOL    HW2 2178   2.088   2.612   0.047 -0.2877  0.6062  2.0256
  727SOL     OW 2179   1.392   1.639   0.914  0.4232 -0.5545 -0.0625
  727SOL    HW1 2180   1.421   1.736   0.904 -0.6749 -0.6606 -1.2942
  727SOL    HW2 2181   1.433   1.586   0.835  0.8873 -0.2944  1.2466
  728SOL     OW 2182   2.191   2.702   1.886 -0.9486 -0.2507 -0.1260
  728SOL    HW1 2183   2.159   2.676   1.794  0.1991  1.3931  1.9833
  728SOL    HW2 2184   2.269   2.644   1.915  0.3435 -0.6506 -0.0294
  729SOL     OW 2185   2.153   1.909   1.386  0.0198 -0.2403  0.1261
  729SOL    HW1 2186   2.159   1.807   1.409  2.1421 -3.7609  1.6936
  729SOL    HW2 2187   2.155   1.908   1.284 -0.2915  0.4041 -0.4125
  730SOL     OW 2188   1.553   0.546   3.030 -0.0635  0.4609  0.1845
  730SOL    HW1 2189   1.557   0.607   2.945  1.8397 -0.2681 -2.1432
  730SOL    HW2 2190   1.640   0.503   3.049  2.3333 -2.5189 -0.7378
  731SOL     OW 2191   0.494   3.126   0.807 -0.4986  0.0803  0.5841
  731SOL    HW1 2192   0.415   3.124   0.866  0.5614 -0.1690 -1.9323
  731SOL    HW2 2193   0.524   0.098   0.793  1.7707  0.6717 -1.2252
  732SOL     OW 2194   1.405   0.397   0.429 -0.2546  0.0486 -0.0352
  732SOL    HW1 2195   1.388   0.352   0.341  2.2758 -0.4086 -2.6844
  732SOL    HW2 2196   1.337   0.373   0.499 -1.7690 -1.5916  0.6788
  733SOL     OW 2197   0.985   1.522   1.416  0.4146  0.2242 -0.3331
  733SOL    HW1 2198   0.948   1.534   1.513 -0.6499 -2.8223  2.7009
  733SOL    HW2 2199   0.915   1.529   1.340 -1.4296  2.5204 -0.1584
  734SOL     OW 2200   2.759   2.706   3.031 -0.1025  0.0777  0.5138
  734SOL    HW1 2201   2.741   2.806   3.025 -0.0640  2.2980  0.3715
  734SOL    HW2 2202   2.683   2.656   2.985 -0.6547  1.9213 -1.1558
  735SOL     OW 2203   1.106   2.912   1.210  0.1765  0.0924  0.3099
  735SOL    HW1 2204   1.017   2.911   1.168 -1.3231  0.0723 -2.1279
  735SOL    HW2 2205   1.179   2.963   1.161  0.5293  1.2137 -0.4239
  736SOL     OW 2206   1.783   1.980   0.372 -0.4825  0.7705 -0.0620
  736SOL    HW1 2207   1.791   2.080   0.353  0.5521 -0.9754  0.3284
  736SOL    HW2 2208   1.876   1.937   0.390  0.9872 -3.2965 -0.7100
  737SOL     OW 2209   0.050   1.729   1.304  0.0559  0.4981  0.2854
  737SOL    HW1 2210   0.125   1.691   1.361  1.4398  0.0203  0.8630
  737SOL    HW2 2211   0.019   1.817   1.342 -0.9148  1.7892 -0.9739
  738SOL     OW 2212   1.957   2.216   2.660 -0.0433  0.2933 -0.2448
  738SOL    HW1 2213   1.889   2.286   2.681 -0.6073 -2.0547  0.7416
  738SOL    HW2 2214   1.925   2.148   2.582 -0.1635 -2.0657 -0.9307
  739SOL     OW 2215   1.143   1.678   2.637  0.3010 -0.1143  0.3023
  739SOL    HW1 2216   1.231   1.741   2.635  3.2848  1.3403 -1.5136
  739SOL    HW2 2217   1.157   1.615   2.718  1.2030  1.1590  0.5190
  740SOL     OW 2218   1.290   3.031   1.055  0.5438  0.1439  0.2480
  740SOL    HW1 2219   1.375   2.985   1.092  1.4193 -1.2693  0.8766
  740SOL    HW2 2220   1.259   2.994   0.962 -1.1075 -2.2858  0.7662
  741SOL     OW 2221   0.253   1.153   0.629  0.0804  0.1455 -0.0192
  741SOL    HW1 2222   0.188   1.150   0.705 -0.3148  1.3659 -2.0953
  741SOL    HW2 2223   0.321   1.078   0.628  1.1101 -0.7610 -1.4792
  742SOL     OW 2224   1.059   1.674   2.372  0.6129 -0.7075  0.3725
  742SOL    HW1 2225   1.089   1.682   2.471  0.6450 -0.0272 -2.2381
  742SOL    HW2 2226   0.956   1.673   2.369 -0.7375 -1.0966 -0.5293
  743SOL     OW 2227   0.932   0.958   2.045  0.3162  0.0217  0.3391
  743SOL    HW1 2228   0.871   0.983   2.117  1.2842  1.0410  1.2110
  743SOL    HW2 2229   0.937   1.031   1.973 -0.4287 -0.1797 -0.8797
  744SOL     OW 2230   2.194   3.111   1.656 -0.2242  0.1786 -0.1790
  744SOL    HW1 2231   2.160   0.070   1.694 -1.9481  0.0101 -1.9243
  744SOL    HW2 2232   2.109   3.057   1.634  2.5421  1.3796 -1.2987
  745SOL     OW 2233   2.103   1.215   1.651 -0.1058  0.1028 -0.0487
  745SOL    HW1 2234   2.126   1.302   1.701  0.7113  1.8503  1.5658
  745SOL    HW2 2235   2.105   1.136   1.718  0.4547  0.1178  1.6746
  746SOL     OW 2236   1.838   1.170   0.584 -0.2212  0.2857 -0.1912
  746SOL    HW1 2237   1.905   1.221   0.528 -0.8605  0.9438  1.8385
  746SOL    HW2 2238   1.794   1.096   0.529 -0.6013 -2.3235  0.7563
  747SOL     OW 2239   2.451   1.840   0.825  0.6374  0.0962 -0.0279
  747SOL    HW1 2240   2.530   1.880   0.772  2.3780 -0.1823  1.4760
  747SOL    HW2 2241   2.359   1.842   0.776 -2.9610 -0.1755  2.1653
  748SOL     OW 2242   0.314   1.944   0.409 -0.2076 -0.2936  0.1717
  748SOL    HW1 2243   0.323   1.992   0.318 -0.7047  2.7775 -0.6317
  748SOL    HW2 2244   0.388   1.882   0.431  0.2609  1.6474 -3.5835
  749SOL     OW 2245   3.071   2.444   2.876  0.1686 -0.4094  0.3418
  749SOL    HW1 2246   3.012   2.409   2.800  0.2241  0.1993  1.7656
  749SOL    HW2 2247   3.048   2.536   2.900  0.8493 -1.2101  0.4717
  750SOL     OW 2248   2.076   0.728   0.614  0.1057 -0.0123 -0.3663
  750SOL    HW1 2249   2.171   0.710   0.577  2.3183 -0.9298 -2.3918
  750SOL    HW2 2250   2.067   0.780   0.701 -0.7581  0.7634  1.0783
  751SOL     OW 2251   2.583   0.086   0.005 -0.1327 -0.2790  0.1493
  751SOL    HW1 2252   2.501   0.133   3.096 -2.8249  0.2489 -0.7563
  751SOL    HW2 2253   2.665   0.091   3.073 -1.0598 -1.4135  1.3173
  752SOL     OW 2254   2.928   2.797   0.824 -0.7385  0.1733 -0.1127
  752SOL    HW1 2255   3.003   2.871   0.822  5.2782  0.4840 -0.2848
  752SOL    HW2 2256   2.958   2.712   0.771  0.4702  0.5358 -0.4757
  753SOL     OW 2257   1.604   1.089   2.255 -0.0388  0.0655  0.1550
  753SOL    HW1 2258   1.652   1.077   2.340 -3.2466 -0.3348 -1.5112
  753SOL    HW2 2259   1.578   1.186   2.249  1.1028 -2.0830 -0.0691
  754SOL     OW 2260   1.923   2.080   1.935  0.5989  0.0481 -0.3492
  754SOL    HW1 2261   1.901   2.005   1.867 -3.0340 -0.1960 -2.2686
  754SOL    HW2 2262   2.007   2.059   1.989 -1.8067 -2.2295  0.7189
  755SOL     OW 2263   2.499   0.959   0.866 -0.4253  0.0231 -0.3751
  755SOL    HW1 2264   2.583   0.902   0.846 -0.6977 -0.4939 -1.0119
  755SOL    HW2 2265   2.524   1.055   0.898 -2.7167  0.1812 -1.1294
  756SOL     OW 2266   0.802   1.440   0.033 -0.0392 -0.4050  0.3332
  756SOL    HW1 2267   0.857   1.494   0.097  0.6114  0.8664 -1.7139
  756SOL    HW2 2268   0.822   1.459   3.063  0.7675 -1.2950 -0.7098
  757SOL     OW 2269   1.895   2.524   1.322  0.0615  0.0723 -0.2346
  757SOL    HW1 2270   1.868   2.551   1.233  2.9036  2.2511  3.8055
  757SOL    HW2 2271   1.992   2.486   1.316 -3.7535 -0.2216 -2.0233
  758SOL     OW 2272   1.394   2.321   1.406  0.0233  0.5360 -0.0329
  758SOL    HW1 2273   1.462   2.366   1.340  3.2318  2.4457 -0.4129
  758SOL    HW2 2274   1.377   2.385   1.489 -0.8313 -1.4475  1.0775
  759SOL     OW 2275   2.859   1.425   1.188 -0.7462 -0.4569 -0.2311
  759SOL    HW1 2276   2.832   1.518   1.220  0.6651 -1.4093  2.4865
  759SOL    HW2 2277   2.960   1.431   1.172 -1.6619  1.6551  1.1793
  760SOL     OW 2278   2.261   1.213   1.437  0.2599 -0.8227 -0.2637
  760SOL    HW1 2279   2.217   1.163   1.362 -2.1279  0.3819 -0.6588
  760SOL    HW2 2280   2.209   1.218   1.524  2.1690  0.8065 -0.6449
  761SOL     OW 2281   1.920   3.023   0.289 -0.4047  0.0927 -0.1736
  761SOL    HW1 2282   2.000   3.007   0.345  0.0497  0.0910 -0.5471
  761SOL    HW2 2283   1.909   3.125   0.276 -5.1484  2.3662  0.5562
  762SOL     OW 2284   1.791   1.928   2.949  0.7090 -1.1273  0.0446
  762SOL    HW1 2285   1.743   1.861   2.890  3.2022 -0.4511  2.8125
  762SOL    HW2 2286   1.870   1.974   2.904 -2.0510  0.8425 -1.1348
  763SOL     OW 2287   0.589   1.992   1.687 -0.5868  0.1104 -0.3276
  763SOL    HW1 2288   0.587   1.889   1.672 -0.3053 -1.0966  1.3905
  763SOL    HW2 2289   0.494   2.033   1.690 -0.8949  1.1293 -0.5714
  764SOL     OW 2290   0.030   2.547   0.133  0.4435  0.1003  0.3377
  764SOL    HW1 2291   3.057   2.537   0.120 -3.2655  0.1798  0.8160
  764SOL    HW2 2292   0.067   2.609   0.061  0.0412 -1.0732  1.4070
  765SOL     OW 2293   0.766   0.060   1.308  0.0480 -0.1171  0.0667
  765SOL    HW1 2294   0.850   0.068   1.369  1.4699  2.0365  0.5103
  765SOL    HW2 2295   0.791   0.071   1.208  0.6180 -0.5922 -2.3358
  766SOL     OW 2296   2.820   2.059   2.073 -0.0113  0.1992 -0.3464
  766SOL    HW1 2297   2.880   1.988   2.119  1.9792 -2.1864  1.6565
  766SOL    HW2 2298   2.753   2.005   2.012  0.1685 -0.8051  0.0348
  767SOL     OW 2299   2.693   0.924   1.984  0.4446  0.0524  0.4728
  767SOL    HW1 2300   2.619   0.857   2.001  0.7824  0.7293 -1.3093
  767SOL    HW2 2301   2.782   0.878   2.002 -2.1178  1.0175 -2.6172
  768SOL     OW 2302   0.972   0.403   2.692 -0.0130 -0.3850  0.0422
  768SOL    HW1 2303   1.016   0.342   2.757  0.0912 -0.5552  1.7838
  768SOL    HW2 2304   0.890   0.353   2.654  0.1398  2.0631  1.5729
  769SOL     OW 2305   2.624   2.811   0.849 -0.1585  0.1147 -0.1343
  769SOL    HW1 2306   2.715   2.778   0.818  0.4860 -3.4430 -0.5700
  769SOL    HW2 2307   2.572   2.745   0.908  0.3096  1.0530 -1.6760
  770SOL     OW 2308   3.089   3.027   2.673  0.2149  0.8556  0.2188
  770SOL    HW1 2309   0.015   3.084   2.607  2.1489 -3.7821 -0.6907
  770SOL    HW2 2310   3.117   3.036   2.770 -2.7394  2.3136  0.7864
  771SOL     OW 2311   1.662   2.129   2.034  0.3422  0.0608  0.5510
  771SOL    HW1 2312   1.762   2.126   2.009  2.8228  2.9444 -0.8409
  771SOL    HW2 2313   1.616   2.040   2.040  2.5173  1.3010 -0.4214
  772SOL     OW 2314   1.189   3.054   3.049 -0.4761 -0.1021  0.3250
  772SOL    HW1 2315   1.102   3.085   3.011 -0.3224 -1.3037  1.1280
  772SOL    HW2 2316   1.267   3.096   2.997  1.7369 -0.0795  2.7181
  773SOL     OW 2317   2.506   0.547   1.799 -0.9504 -0.3939 -0.5165
  773SOL    HW1 2318   2.608   0.542   1.784  2.2604 -0.0901 -0.1157
  773SOL    HW2 2319   2.473   0.645   1.792 -2.9081  0.0061 -1.8525
  774SOL     OW 2320   1.047   1.130   1.250 -0.0708  0.0842 -0.4187
  774SOL    HW1 2321   1.107   1.057   1.208  3.6306 -0.3808  1.5238
  774SOL    HW2 2322   0.955   1.138   1.205  1.3812  1.0608  0.7981
  775SOL     OW 2323   2.250   2.914   2.819 -0.0376  0.4197  0.0655
  775SOL    HW1 2324   2.307   2.981   2.769 -0.4968  1.6302 -0.6428
  775SOL    HW2 2325   2.254   2.930   2.918  3.0871 -1.2346 -0.8328
  776SOL     OW 2326   2.496   1.042   1.785 -0.4141 -0.5114 -0.0947
  776SOL    HW1 2327   2.578   1.015   1.838 -2.6519  1.1828 -1.6248
  776SOL    HW2 2328   2.508   1.139   1.759 -2.2295  1.5131  0.5586
  777SOL     OW 2329   0.226   1.068   2.277 -0.2076 -0.2280  0.2787
  777SOL    HW1 2330   0.272   0.981   2.259  0.2328  3.3208 -0.2852
  777SOL    HW2 2331   0.288   1.147   2.292  0.1696 -0.0037  2.3096
  778SOL     OW 2332   0.505   0.731   3.078 -0.3295 -0.1929  0.2471
  778SOL    HW1 2333   0.493   0.831   3.072  1.0667 -1.2081 -4.1547
  778SOL    HW2 2334   0.447   0.685   3.009  0.4842 -0.4069  2.0589
  779SOL     OW 2335   0.607   0.305   2.492 -0.2846  0.1709  0.2487
  779SOL    HW1 2336   0.652   0.213   2.493  1.1489  0.5308  0.4754
  779SOL    HW2 2337   0.516   0.296   2.444 -3.0585  0.6865  1.9987
  780SOL     OW 2338   2.239   1.307   2.706 -0.0671  0.0876  0.1861
  780SOL    HW1 2339   2.320   1.269   2.757 -0.0313 -1.2962 -1.4743
  780SOL    HW2 2340   2.251   1.293   2.605  1.7189 -1.1591 -0.1876
  781SOL     OW 2341   2.969   1.156   2.058 -0.5583 -0.0180 -0.0624
  781SOL    HW1 2342   2.909   1.176   1.976 -0.0665  0.8698  1.1787
  781SOL    HW2 2343   2.969   1.057   2.079 -0.0738  0.5058  0.5570
  782SOL     OW 2344   0.399   1.504   2.780  0.6521 -0.1396  0.1384
  782SOL    HW1 2345   0.397   1.405   2.780 -0.5073  2.0851 -2.7178
  782SOL    HW2 2346   0.301   1.544   2.783 -2.8261  2.3674 -1.4595
  783SOL     OW 2347   1.233   2.127   1.047 -0.2089 -0.0311 -0.5444
  783SOL    HW1 2348   1.231   2.117   1.147 -2.8424 -0.7461 -1.4379
  783SOL    HW2 2349   1.304   2.191   1.015  0.1258  0.3153 -1.1837
  784SOL     OW 2350   1.684   0.528   2.646 -0.6952 -0.5695 -0.5503
  784SOL    HW1 2351   1.650   0.434   2.644  0.3251  2.5064  0.0411
  784SOL    HW2 2352   1.700   0.569   2.554  1.8606 -0.0516 -1.4880
  785SOL     OW 2353   0.729   0.052   1.929 -0.4933  0.4185 -0.2517
  785SOL    HW1 2354   0.811   3.127   1.962  0.4638  1.5169 -0.9369
  785SOL    HW2 2355   0.752   0.085   1.830  0.9575  0.5598  1.7373
  786SOL     OW 2356   0.570   2.122   0.268  0.3261 -0.5172 -0.1083
  786SOL    HW1 2357   0.500   2.057   0.245  5.9588  1.7656 -0.1544
  786SOL    HW2 2358   0.578   2.140   0.371  1.4856 -0.5770  3.0766
  787SOL     OW 2359   1.139   0.718   0.475  0.1810  0.3813 -0.1394
  787SOL    HW1 2360   1.168   0.751   0.383  0.2292 -0.2955  0.8350
  787SOL    HW2 2361   1.054   0.764   0.510 -0.3966  0.4122  1.4967
  788SOL     OW 2362   2.745   1.666   1.210  0.1026  0.0363 -0.8677
  788SOL    HW1 2363   2.793   1.695   1.295 -0.2408 -1.3594  3.3950
  788SOL    HW2 2364   2.644   1.687   1.220  1.6972 -0.8190  0.5584
  789SOL     OW 2365   2.625   1.038   2.284  0.4649  0.2485  0.8579
  789SOL    HW1 2366   2.674   0.975   2.222  0.1735  0.9424  0.4573
  789SOL    HW2 2367   2.619   1.134   2.247  0.8309  0.9201 -1.8154
  790SOL     OW 2368   0.722   0.188   3.038 -0.3038 -0.4572  0.5253
  790SOL    HW1 2369   0.759   0.171   0.001  1.8642 -2.3438  1.5738
  790SOL    HW2 2370   0.689   0.285   3.026  2.2686  1.8701  0.9335
  791SOL     OW 2371   3.020   0.348   3.115  0.1416  0.4452  0.8502
  791SOL    HW1 2372   2.925   0.325   3.086  0.0594 -0.9499 -1.6589
  791SOL    HW2 2373   3.037   0.326   0.086  1.8628 -2.7003 -1.5757
  792SOL     OW 2374   1.505   0.882   2.434 -0.1302 -0.4217  0.0165
  792SOL    HW1 2375   1.427   0.838   2.396  2.1134  1.0399  2.3045
  792SOL    HW2 2376   1.588   0.858   2.381 -3.2487  1.0467 -1.5849
  793SOL     OW 2377   3.031   0.259   0.903  0.2034 -0.3468  0.7644
  793SOL    HW1 2378   2.954   0.241   0.838  1.2306 -1.7130 -0.9521
  793SOL    HW2 2379   2.993   0.253   0.997 -1.0000  0.7455 -2.8100
  794SOL     OW 2380   0.211   0.454   1.870 -0.3074 -0.2158 -0.0524
  794SOL    HW1 2381   0.245   0.532   1.812  0.0419  0.9450  0.0227
  794SOL    HW2 2382   0.128   0.417   1.821  3.1277  1.1892 -0.6808
  795SOL     OW 2383   0.298   1.194   0.359 -0.2446  0.4240  0.0983
  795SOL    HW1 2384   0.393   1.167   0.379 -0.5003  2.4494 -0.4702
  795SOL    HW2 2385   0.244   1.200   0.446  2.0247  1.4453  1.7533
  796SOL     OW 2386   0.125   0.978   0.050  0.1733 -0.3828 -0.3277
  796SOL    HW1 2387   0.142   0.913   0.125  0.3694  1.7616 -0.9574
  796SOL    HW2 2388   0.152   1.074   0.069 -0.9942  0.0167 -1.4281
  797SOL     OW 2389   1.827   2.646   2.649  0.4765 -0.2582  0.7314
  797SOL    HW1 2390   1.810   2.729   2.709  1.8908  3.0408 -1.1125
  797SOL    HW2 2391   1.762   2.648   2.571 -0.2537  2.0700  2.6040
  798SOL     OW 2392   0.240   0.136   1.190  0.2545  0.6458 -0.1956
  798SOL    HW1 2393   0.180   0.208   1.231 -2.4728 -1.3715  1.5629
  798SOL    HW2 2394   0.328   0.140   1.237 -0.3436  2.2978  1.2806
  799SOL     OW 2395   2.192   0.746   1.892 -0.6050 -0.1364  0.0732
  799SOL    HW1 2396   2.277   0.758   1.834 -4.4335 -1.4324 -0.9027
  799SOL    HW2 2397   2.164   0.650   1.895  2.3256  0.8168  1.9684
  800SOL     OW 2398   0.054   1.843   0.446 -0.6167  0.2108  0.2412
  800SOL    HW1 2399   0.148   1.875   0.433 -1.3401  0.3180  0.0921
  800SOL    HW2 2400   0.042   1.745   0.417 -0.7768 -2.3218  1.3162
  801SOL     OW 2401   1.434   1.925   0.646  0.3979 -0.2219 -0.3774
  801SOL    HW1 2402   1.402   1.945   0.741  2.2632  1.7639  0.9425
  801SOL    HW2 2403   1.536   1.933   0.640  1.4970  0.8157 -0.0127
  802SOL     OW 2404   1.632   1.125   2.918 -0.2380  0.2406  0.2828
  802SOL    HW1 2405   1.620   1.223   2.904  0.0186  1.6376 -1.6831
  802SOL    HW2 2406   1.607   1.077   2.832 -0.6016  1.6564  1.1814
  803SOL     OW 2407   0.322   2.154   1.691 -0.1654 -0.4558 -0.6270
  803SOL    HW1 2408   0.301   2.147   1.588 -0.3578 -0.6111 -0.7004
  803SOL    HW2 2409   0.291   2.069   1.739 -0.0894 -3.2309  0.7263
  804SOL     OW 2410   1.722   2.495   1.108 -0.3632 -0.3630 -0.3239
  804SOL    HW1 2411   1.773   2.424   1.055 -0.2517 -0.7995  0.2384
  804SOL    HW2 2412   1.685   2.560   1.036  0.8498 -2.1543 -1.0920
  805SOL     OW 2413   2.345   2.315   2.820 -0.2857  0.5115 -0.0333
  805SOL    HW1 2414   2.427   2.338   2.877  0.3940  0.3446 -0.7634
  805SOL    HW2 2415   2.338   2.214   2.798 -0.5035 -1.0591  0.8138
  806SOL     OW 2416   2.871   0.151   0.721 -0.2031 -0.4181 -0.3990
  806SOL    HW1 2417   2.795   0.180   0.661  0.1989  0.3052  0.6554
  806SOL    HW2 2418   2.951   0.120   0.668 -0.8979  0.0990 -0.0032
  807SOL     OW 2419   0.114   1.171   2.917 -0.1396 -0.0606 -0.3773
  807SOL    HW1 2420   0.088   1.074   2.919  2.4031 -0.3626  2.3786
  807SOL    HW2 2421   0.035   1.228   2.888  1.2354  1.5132 -0.6911
  808SOL     OW 2422   0.727   1.796   0.728  0.2104 -0.0679 -0.5127
  808SOL    HW1 2423   0.673   1.726   0.679 -1.3185  2.0199  0.4042
  808SOL    HW2 2424   0.755   1.861   0.657  1.1466 -2.8823  1.8247
  809SOL     OW 2425   2.821   0.101   2.097 -0.7692  0.2252 -0.7453
  809SOL    HW1 2426   2.736   0.053   2.122  0.9898  0.1577 -0.5726
  809SOL    HW2 2427   2.870   0.139   2.179  3.1553  3.7089 -1.2492
  810SOL     OW 2428   1.422   0.612   1.255 -0.6220 -0.6465  0.1082
  810SOL    HW1 2429   1.443   0.636   1.161 -2.2039  2.9472  1.5158
  810SOL    HW2 2430   1.367   0.690   1.291  2.2095  1.6887  1.8712
  811SOL     OW 2431   1.912   0.041   1.977  0.3188  0.2162  0.2967
  811SOL    HW1 2432   1.888   3.076   1.941  0.2854 -1.4604  2.1247
  811SOL    HW2 2433   1.836   0.079   2.032 -0.0306 -1.4366 -3.3323
  812SOL     OW 2434   2.001   2.228   0.680 -0.4223  0.4451  0.3048
  812SOL    HW1 2435   1.909   2.245   0.641  2.3045 -0.3736  0.1848
  812SOL    HW2 2436   2.046   2.166   0.613  0.6457 -2.9685 -1.1354
  813SOL     OW 2437   1.200   0.448   1.743 -0.0009 -0.0903  0.0900
  813SOL    HW1 2438   1.127   0.392   1.785  1.0298  0.1181 -1.0115
  813SOL    HW2 2439   1.213   0.540   1.787 -1.5265 -0.6751 -3.5961
  814SOL     OW 2440   0.249   3.098   0.977 -0.7221  0.0723 -0.6625
  814SOL    HW1 2441   0.264   3.001   1.006  0.4993 -0.0332  0.2610
  814SOL    HW2 2442   0.248   0.034   1.062 -3.0685  0.9836  2.2921
  815SOL     OW 2443   3.071   0.067   0.550 -0.2649 -0.1202 -0.1443
  815SOL    HW1 2444   3.075   3.090   0.558  0.8886 -1.6409 -2.4534
  815SOL    HW2 2445   0.028   0.117   0.569  0.8657  1.5644  0.6578
  816SOL     OW 2446   2.427   1.897   2.386 -0.0922  0.4211 -0.0828
  816SOL    HW1 2447   2.449   1.976   2.329 -3.1058  2.4278  1.0514
  816SOL    HW2 2448   2.336   1.913   2.436 -3.0210  1.4896  0.2489
  817SOL     OW 2449   1.120   3.091   0.750  0.0625  0.5938  0.0647
  817SOL    HW1 2450   1.212   3.125   0.749 -1.9622 -1.3816  2.6441
  817SOL    HW2 2451   1.117   2.996   0.786  1.6166  1.4175  0.1834
  818SOL     OW 2452   1.850   0.311   0.019 -0.0118  0.0865 -0.2056
  818SOL    HW1 2453   1.849   0.251   3.064 -3.0695 -1.1913  0.3749
  818SOL    HW2 2454   1.873   0.253   0.102  2.0683  0.5965 -1.8373
  819SOL     OW 2455   2.104   3.123   3.088 -0.4502 -0.1980 -0.1218
  819SOL    HW1 2456   2.171   3.052   3.125  3.2463 -0.9878 -0.1913
  819SOL    HW2 2457   2.007   3.099   3.099 -0.3124  1.2377 -0.6156
  820SOL     OW 2458   1.979   1.237   2.790 -0.6062 -0.4075 -0.0851
  820SOL    HW1 2459   1.984   1.256   2.891 -0.0599 -3.3512  0.3346
  820SOL    HW2 2460   2.067   1.264   2.743  2.6028  1.1913  0.5607
  821SOL     OW 2461   3.016   0.521   1.185 -0.1554  0.4057 -0.3690
  821SOL    HW1 2462   2.986   0.431   1.158 -0.8941  0.8876  0.8778
  821SOL    HW2 2463   3.042   0.577   1.106 -0.2458 -0.1063  3.4000
  822SOL     OW 2464   1.153   2.641   2.388 -0.2723  0.0061 -0.0339
  822SOL    HW1 2465   1.085   2.567   2.364 -2.3764 -1.5111  1.4836
  822SOL    HW2 2466   1.133   2.688   2.477  3.0051  0.9557 -0.0405
  823SOL     OW 2467   0.472   1.525   1.967 -0.2504  0.1327 -0.5336
  823SOL    HW1 2468   0.494   1.592   1.894 -0.1852 -3.0098  1.0691
  823SOL    HW2 2469   0.406   1.562   2.034 -1.6900  0.9218 -2.4740
  824SOL     OW 2470   1.603   2.575   2.473  0.1761 -0.1748 -0.2224
  824SOL    HW1 2471   1.652   2.517   2.403  3.3477 -4.6280 -2.9861
  824SOL    HW2 2472   1.533   2.633   2.427 -0.5130  2.5828  0.9206
  825SOL     OW 2473   1.608   1.011   0.207 -0.5240  0.0065  0.0436
  825SOL    HW1 2474   1.656   1.071   0.142 -0.4089 -1.2591 -0.7271
  825SOL    HW2 2475   1.671   0.993   0.285  0.2204  1.1771  1.0485
  826SOL     OW 2476   1.995   0.982   0.072  0.2034 -0.1081 -0.2624
  826SOL    HW1 2477   1.917   0.957   0.010  2.0655  0.8930  0.9298
  826SOL    HW2 2478   2.082   0.977   0.020 -1.6649  1.5088  1.5146
  827SOL     OW 2479   0.710   1.824   2.930 -0.2838  0.1706 -0.2493
  827SOL    HW1 2480   0.614   1.825   2.906  1.7013 -1.4665  2.5033
  827SOL    HW2 2481   0.767   1.842   2.851  2.5107  0.2919 -0.1614
  828SOL     OW 2482   2.470   1.454   1.317 -0.2784 -0.2268 -0.2272
  828SOL    HW1 2483   2.446   1.536   1.376 -0.3780  0.0821  0.2933
  828SOL    HW2 2484   2.465   1.374   1.383  2.3937 -0.0448  0.0928
  829SOL     OW 2485   0.397   1.563   0.984  0.0433  0.2257 -0.0445
  829SOL    HW1 2486   0.450   1.654   0.993  0.4287  1.1376  3.1738
  829SOL    HW2 2487   0.451   1.498   0.927 -0.4873 -1.4927 -2.2816
  830SOL     OW 2488   1.237   0.947   1.153  0.2575 -0.0527 -0.2539
  830SOL    HW1 2489   1.314   1.004   1.122 -0.4206  1.1201 -0.4793
  830SOL    HW2 2490   1.258   0.908   1.246  0.4940 -0.1419 -2.3042
  831SOL     OW 2491   0.332   2.028   0.161  0.6299  0.0491  0.4211
  831SOL    HW1 2492   0.292   2.102   0.110 -0.8072 -0.3857 -2.0737
  831SOL    HW2 2493   0.316   1.947   0.097 -1.1855  0.9790 -0.0869
  832SOL     OW 2494   0.801   0.420   2.943  0.6882 -0.6065  0.2196
  832SOL    HW1 2495   0.815   0.512   2.903  0.8729 -0.4215  1.2654
  832SOL    HW2 2496   0.885   0.363   2.937 -1.3556 -3.2183 -2.5397
  833SOL     OW 2497   0.618   0.493   2.068 -0.1660  0.3646  0.0131
  833SOL    HW1 2498   0.654   0.552   1.993  1.0049 -1.5314  2.5680
  833SOL    HW2 2499   0.595   0.400   2.036  1.3067  0.3396 -1.5439
  834SOL     OW 2500   0.146   0.346   0.822 -0.3340  0.0248  0.1021
  834SOL    HW1 2501   0.058   0.307   0.857 -0.3655  2.2016  0.7119
  834SOL    HW2 2502   0.215   0.361   0.899 -0.1406 -1.4493 -0.6241
  835SOL     OW 2503   2.836   0.038   0.985  0.1066  0.4223  0.1906
  835SOL    HW1 2504   2.856   0.069   0.890 -0.3607 -1.4262  4.2651
  835SOL    HW2 2505   2.894   3.087   1.007 -3.5411  0.6691 -0.1165
  836SOL     OW 2506   0.562   2.141   3.039  0.1817  0.4476 -0.4483
  836SOL    HW1 2507   0.644   2.199   3.014  0.2305 -0.7086 -3.0228
  836SOL    HW2 2508   0.560   2.113   0.009 -2.8488 -0.4914  0.4595
  837SOL     OW 2509   1.667   1.738   2.779  0.1918  0.4294 -0.2701
  837SOL    HW1 2510   1.733   1.787   2.722  0.0984 -2.7235 -0.8939
  837SOL    HW2 2511   1.703   1.650   2.818 -0.1870  0.1771  2.7964
  838SOL     OW 2512   3.044   1.124   1.678 -0.0874  0.1214 -0.0793
  838SOL    HW1 2513   3.045   1.119   1.576 -2.6175  0.7625 -1.1260
  838SOL    HW2 2514   3.056   1.221   1.699 -0.9988 -0.9642 -0.5619
  839SOL     OW 2515   0.842   1.039   0.859  0.1794  0.0734 -0.1034
  839SOL    HW1 2516   0.894   1.109   0.801  0.4398  0.6345 -1.7095
  839SOL    HW2 2517   0.879   0.948   0.835 -1.2595  2.0290  2.2019
  840SOL     OW 2518   1.525   2.774   1.644  0.4882 -0.2799  0.3508
  840SOL    HW1 2519   1.539   2.674   1.623  0.2830 -2.1454  2.1117
  840SOL    HW2 2520   1.580   2.826   1.575  0.9308  1.6601 -1.9281
  841SOL     OW 2521   0.523   2.557   0.405 -0.5036 -0.1489  0.0855
  841SOL    HW1 2522   0.508   2.569   0.304  0.5352  2.2012  1.0579
  841SOL    HW2 2523   0.485   2.470   0.438 -1.2544  0.6279 -0.9911
  842SOL     OW 2524   0.439   0.715   0.765  0.1348 -0.2994 -0.2733
  842SOL    HW1 2525   0.372   0.681   0.832 -1.1524  1.7779 -2.1647
  842SOL    HW2 2526   0.534   0.697   0.797 -2.0675  0.5934  0.7397
  843SOL     OW 2527   0.792   1.512   2.189 -0.6193  0.0896  0.3453
  843SOL    HW1 2528   0.897   1.496   2.184 -0.3414  1.6078 -0.8353
  843SOL    HW2 2529   0.779   1.606   2.219 -0.7763 -2.0893 -2.4391
  844SOL     OW 2530   1.115   2.246   3.003  0.1626 -0.3681  0.0512
  844SOL    HW1 2531   1.195   2.192   3.034 -0.8588 -0.6364  0.9732
  844SOL    HW2 2532   1.135   2.347   2.995  0.4512  1.0969 -1.0943
  845SOL     OW 2533   2.247   2.473   2.614  0.0988  0.7200  0.8778
  845SOL    HW1 2534   2.325   2.504   2.557  1.0447 -0.2575  0.2909
  845SOL    HW2 2535   2.283   2.422   2.698  0.0547 -1.8166  0.0818
  846SOL     OW 2536   1.714   2.115   0.025 -0.1871  0.2352  0.2792
  846SOL    HW1 2537   1.618   2.137   0.005  1.0966  4.7218 -0.0517
  846SOL    HW2 2538   1.744   2.039   3.092 -1.8503 -2.4852 -1.3735
  847SOL     OW 2539   1.747   2.860   2.842  0.4128  0.1907 -0.1030
  847SOL    HW1 2540   1.768   2.958   2.832  0.3517  3.8142  0.4375
  847SOL    HW2 2541   1.785   2.833   2.935  2.9510 -0.1426  2.8288
  848SOL     OW 2542   0.221   0.533   0.574 -0.3714  0.1791 -0.4095
  848SOL    HW1 2543   0.308   0.572   0.599 -3.6383 -1.5764 -1.4254
  848SOL    HW2 2544   0.177   0.468   0.641 -1.5677  1.8554  0.5063
  849SOL     OW 2545   1.117   2.967   1.475 -0.4641 -0.1085 -0.0857
  849SOL    HW1 2546   1.092   3.066   1.465  1.7916  0.7776 -2.4681
  849SOL    HW2 2547   1.102   2.917   1.381 -0.0694  0.7175 -2.2222
  850SOL     OW 2548   0.491   1.753   0.326  0.7125  0.6249  0.4204
  850SOL    HW1 2549   0.412   1.689   0.315  1.4428 -1.3965 -1.3616
  850SOL    HW2 2550   0.551   1.739   0.243  0.5402  0.8073 -2.5034
  851SOL     OW 2551   0.111   1.134   0.911  0.1714  0.5206 -0.2361
  851SOL    HW1 2552   0.017   1.161   0.887  1.2302  2.0932 -3.2709
  851SOL    HW2 2553   0.161   1.214   0.940 -2.2957 -4.3242 -2.1687
  852SOL     OW 2554   1.963   2.344   1.810 -0.0886 -0.0435 -0.0394
  852SOL    HW1 2555   1.956   2.252   1.860 -0.0583 -1.7992  1.0549
  852SOL    HW2 2556   2.030   2.345   1.733 -1.0033 -0.7296 -1.1512
  853SOL     OW 2557   0.291   1.555   0.346 -0.2113 -0.3443 -0.6704
  853SOL    HW1 2558   0.196   1.564   0.383  2.4093 -0.5442 -0.0283
  853SOL    HW2 2559   0.320   1.460   0.351 -0.3536  2.5825  1.9535
  854SOL     OW 2560   1.664   1.257   1.940 -0.1849 -0.0400 -0.3986
  854SOL    HW1 2561   1.715   1.167   1.954 -1.8746 -2.3272  1.8935
  854SOL    HW2 2562   1.564   1.258   1.949  1.4331  1.3967  1.8110
  855SOL     OW 2563   0.512   2.735   2.915  0.3505 -0.5277  0.0059
  855SOL    HW1 2564   0.428   2.680   2.938  1.4524  0.7159 -0.9305
  855SOL    HW2 2565   0.592   2.689   2.949 -0.9524  1.0867 -2.8252
  856SOL     OW 2566   2.992   0.664   1.698 -0.3533  0.1569  0.2904
  856SOL    HW1 2567   3.026   0.740   1.757  2.1142  1.8960 -0.6538
  856SOL    HW2 2568   2.984   0.698   1.603  0.5630 -2.4383  1.8859
  857SOL     OW 2569   0.483   0.945   1.936 -0.0539  0.2910 -0.5454
  857SOL    HW1 2570   0.549   1.026   1.935 -0.4644  3.2756  0.5345
  857SOL    HW2 2571   0.528   0.854   1.929  1.9785 -0.0459 -1.6628
  858SOL     OW 2572   0.420   1.249   2.354  0.4832 -0.0046  0.5352
  858SOL    HW1 2573   0.340   1.306   2.387 -0.5093 -0.1193 -2.9067
  858SOL    HW2 2574   0.483   1.308   2.299  0.4338  0.1709  0.4599
  859SOL     OW 2575   2.541   0.344   0.455  0.6254  0.6475  0.3503
  859SOL    HW1 2576   2.608   0.391   0.517  1.4841 -1.7691 -0.8826
  859SOL    HW2 2577   2.580   0.255   0.416 -0.3156 -0.5031 -1.0059
  860SOL     OW 2578   1.847   2.809   3.091  0.3345  0.5308  0.0350
  860SOL    HW1 2579   1.790   2.849   0.034 -0.4365  0.8761 -1.1477
  860SOL    HW2 2580   1.909   2.740   0.002 -2.3705  1.5561 -1.5736
  861SOL     OW 2581   0.241   0.561   0.324  0.1606 -0.0795  0.2512
  861SOL    HW1 2582   0.289   0.497   0.263 -0.0164  0.7650 -0.4519
  861SOL    HW2 2583   0.242   0.546   0.425  2.2338  1.5971 -0.6310
  862SOL     OW 2584   1.330   0.134   2.017  0.1916  0.6235 -0.3180
  862SOL    HW1 2585   1.359   0.203   1.954  0.8771 -1.7971  1.1032
  862SOL    HW2 2586   1.239   0.103   1.986  0.2164  3.8886 -2.1099
  863SOL     OW 2587   2.737   2.253   1.279 -0.4890 -0.0320  0.4208
  863SOL    HW1 2588   2.652   2.289   1.237 -0.3113 -0.9035  0.0172
  863SOL    HW2 2589   2.770   2.312   1.354  0.1103  1.1787 -0.4215
  864SOL     OW 2590   2.423   2.866   2.164 -0.7788 -0.0150  0.1089
  864SOL    HW1 2591   2.322   2.856   2.143 -0.8490  0.8806 -0.5747
  864SOL    HW2 2592   2.477   2.779   2.160 -0.1071  2.0983 -2.5853
  865SOL     OW 2593   1.185   0.258   1.545  0.0002  0.3125 -0.0756
  865SOL    HW1 2594   1.275   0.213   1.550 -1.9696 -1.4303  1.4264
  865SOL    HW2 2595   1.169   0.313   1.627  3.0857 -1.1707 -1.8216
  866SOL     OW 2596   2.135   0.062   0.950  0.0396 -0.2381  0.1919
  866SOL    HW1 2597   2.217   0.123   0.943  0.5463  1.8438 -0.8972
  866SOL    HW2 2598   2.049   0.118   0.933  0.0022 -1.5850  0.8574
  867SOL     OW 2599   2.812   2.924   0.266  0.2184 -0.1054 -0.0056
  867SOL    HW1 2600   2.883   2.974   0.210 -0.4245  1.1667  2.0068
  867SOL    HW2 2601   2.811   2.954   0.363 -0.9385  0.6569  1.1625
  868SOL     OW 2602   1.299   2.016   1.722  0.4002 -0.9167  0.9420
  868SOL    HW1 2603   1.288   1.995   1.823 -0.9267 -2.3676  0.3347
  868SOL    HW2 2604   1.274   2.117   1.706 -0.8794  0.8307 -2.4470
  869SOL     OW 2605   2.088   2.273   0.324 -0.2543  0.3670  0.2213
  869SOL    HW1 2606   2.100   2.182   0.368  2.6132  0.2403 -0.0198
  869SOL    HW2 2607   2.159   2.339   0.365  1.5685 -1.3689  2.5355
  870SOL     OW 2608   2.365   2.415   0.937  0.2029  0.3304  0.5732
  870SOL    HW1 2609   2.341   2.420   0.835  4.3460 -0.1153 -2.9449
  870SOL    HW2 2610   2.437   2.482   0.960  0.0741  0.2094  2.4629
  871SOL     OW 2611   0.257   1.521   1.671  0.1236  0.3541  0.0809
  871SOL    HW1 2612   0.259   1.563   1.576 -1.5988  0.4124  0.3281
  871SOL    HW2 2613   0.316   1.441   1.688  0.7492  0.8352  1.2454
  872SOL     OW 2614   0.795   1.364   2.744 -0.8005  0.2299  0.0892
  872SOL    HW1 2615   0.832   1.426   2.813  0.6047 -1.4001 -2.2997
  872SOL    HW2 2616   0.868   1.314   2.688  1.5049 -2.7183 -1.3014
  873SOL     OW 2617   0.891   2.638   1.362  0.2412  0.5023  0.0681
  873SOL    HW1 2618   0.872   2.594   1.454 -0.9654 -2.8645 -0.0870
  873SOL    HW2 2619   0.888   2.741   1.366  0.2279  1.9957 -0.8983
  874SOL     OW 2620   1.396   0.835   1.924 -0.0871 -0.2364 -0.3606
  874SOL    HW1 2621   1.375   0.895   2.004  0.0465 -0.9488  1.2675
  874SOL    HW2 2622   1.487   0.855   1.884 -1.2010  0.5792 -1.9062
  875SOL     OW 2623   2.854   2.775   1.179  0.3373  0.1993  0.1477
  875SOL    HW1 2624   2.806   2.827   1.251  1.6420  0.0735  0.6443
  875SOL    HW2 2625   2.910   2.843   1.128 -1.5514 -0.5541  0.5247
  876SOL     OW 2626   0.999   1.206   0.687 -0.6265  0.0709 -0.5726
  876SOL    HW1 2627   0.996   1.156   0.599  0.7884  0.7504  2.5721
  876SOL    HW2 2628   0.930   1.280   0.693 -0.8711  2.2523  0.1848
  877SOL     OW 2629   2.885   0.266   1.130 -0.2128  0.2222 -0.0953
  877SOL    HW1 2630   2.812   0.295   1.187  1.2853 -0.1122 -2.5336
  877SOL    HW2 2631   2.869   0.168   1.099  1.4731 -0.9381  1.2893
  878SOL     OW 2632   2.319   1.622   0.083  0.0367  0.2839  0.1117
  878SOL    HW1 2633   2.327   1.680   0.168  0.8183 -2.0084  1.7028
  878SOL    HW2 2634   2.309   1.525   0.112 -0.9433  0.8989  1.2317
  879SOL     OW 2635   2.756   1.979   1.350  0.1105 -0.2976  0.2728
  879SOL    HW1 2636   2.819   1.930   1.285 -0.1951  1.6142 -1.9956
  879SOL    HW2 2637   2.751   2.078   1.330  0.5229  0.3655 -0.9316
  880SOL     OW 2638   0.459   2.208   0.882 -0.1192 -0.1653  0.1465
  880SOL    HW1 2639   0.434   2.239   0.977 -1.5812 -0.0359  0.3394
  880SOL    HW2 2640   0.507   2.284   0.831  2.1178 -0.2414  1.5600
  881SOL     OW 2641   1.408   1.109   1.037 -0.1653  0.5081 -0.4851
  881SOL    HW1 2642   1.505   1.134   1.036 -4.9051 -1.9026 -2.1510
  881SOL    HW2 2643   1.349   1.173   0.987  1.9564 -0.4522 -0.1943
  882SOL     OW 2644   2.739   1.128   2.561 -0.0967 -0.1791  0.3385
  882SOL    HW1 2645   2.716   1.106   2.466  2.2564 -0.8437  1.6484
  882SOL    HW2 2646   2.715   1.060   2.630  1.8920  4.0359 -0.9870
  883SOL     OW 2647   1.115   0.107   1.151  0.0340  0.2387 -0.2709
  883SOL    HW1 2648   1.175   0.052   1.093 -1.1253 -0.0082  0.6894
  883SOL    HW2 2649   1.124   0.205   1.138 -2.0887 -2.2182 -1.0253
  884SOL     OW 2650   3.014   2.967   1.061  0.2697 -0.0030 -0.6419
  884SOL    HW1 2651   3.071   2.992   1.143  1.2809 -1.0637  1.4651
  884SOL    HW2 2652   3.066   2.980   0.969 -2.2609  1.7643 -1.8181
  885SOL     OW 2653   1.575   0.888   1.261 -0.0224  0.2010 -0.0132
  885SOL    HW1 2654   1.604   0.987   1.264 -0.3002  2.7661  3.5674
  885SOL    HW2 2655   1.589   0.849   1.169  0.0308  2.1904  3.4931
  886SOL     OW 2656   1.407   0.996   3.044 -0.6194  0.4484  0.2352
  886SOL    HW1 2657   1.434   0.935   3.123 -1.3273 -3.0665 -0.9320
  886SOL    HW2 2658   1.492   1.046   3.006  1.4554 -1.6326 -1.6612
  887SOL     OW 2659   1.487   0.371   1.385 -0.1319  0.2323  0.1783
  887SOL    HW1 2660   1.590   0.382   1.392  1.0049 -1.2580 -0.6709
  887SOL    HW2 2661   1.447   0.452   1.340 -2.0392  0.2124  0.7545
  888SOL     OW 2662   2.159   1.250   1.982  0.5126  0.0492  0.2650
  888SOL    HW1 2663   2.233   1.260   2.051  1.2780 -1.0091 -0.7336
  888SOL    HW2 2664   2.159   1.152   1.957  4.4058  1.0138  0.1763
  889SOL     OW 2665   2.269   2.180   0.971  0.0871 -0.0183  0.3248
  889SOL    HW1 2666   2.340   2.131   1.020 -2.1593  1.2851 -1.0319
  889SOL    HW2 2667   2.298   2.267   0.930  1.2445 -1.6666 -1.4387
  890SOL     OW 2668   1.346   1.907   0.945 -0.8227  0.1716 -0.2222
  890SOL    HW1 2669   1.276   1.978   0.936 -2.7128 -1.7256 -0.5011
  890SOL    HW2 2670   1.353   1.876   1.040 -2.2962 -0.3283 -0.8847
  891SOL     OW 2671   2.443   0.636   2.476 -0.3248  0.1173  0.0990
  891SOL    HW1 2672   2.523   0.670   2.426 -1.9562  1.9057 -0.1206
  891SOL    HW2 2673   2.413   0.547   2.439  0.1885  2.4482 -0.9834
  892SOL     OW 2674   1.027   0.326   2.166 -0.1615 -0.0051 -0.3454
  892SOL    HW1 2675   1.116   0.284   2.196  3.2672  0.4374  2.9077
  892SOL    HW2 2676   1.004   0.403   2.232  0.0191 -0.6511  0.6068
  893SOL     OW 2677   1.431   0.129   1.487  0.8031 -0.1396 -0.0385
  893SOL    HW1 2678   1.499   0.102   1.559  1.5090 -0.8277 -2.0904
  893SOL    HW2 2679   1.463   0.208   1.431 -1.1635 -1.6125 -0.0618
  894SOL     OW 2680   2.473   0.635   0.746  0.5022  0.1834  0.5015
  894SOL    HW1 2681   2.405   0.611   0.820 -0.5361 -2.4447  0.1835
  894SOL    HW2 2682   2.556   0.680   0.786  1.1022  2.4518 -1.5084
  895SOL     OW 2683   1.796   2.407   2.760  0.2067 -0.5409  0.3628
  895SOL    HW1 2684   1.808   2.508   2.730  1.5299  2.0916 -1.4056
  895SOL    HW2 2685   1.702   2.395   2.803  1.3449  1.3593  1.0664
  896SOL     OW 2686   1.978   2.959   1.607 -0.4365  0.0044  0.6030
  896SOL    HW1 2687   1.954   2.937   1.702 -2.3556 -0.5767 -3.5803
  896SOL    HW2 2688   1.964   2.877   1.542  0.3204 -0.5498 -1.9496
  897SOL     OW 2689   0.534   1.849   2.131 -0.3062  0.4613  0.4203
  897SOL    HW1 2690   0.437   1.841   2.112  0.0472 -1.2875  4.4357
  897SOL    HW2 2691   0.586   1.906   2.064  0.4644 -0.2835  0.8778
  898SOL     OW 2692   2.145   1.725   2.027  0.0476  0.3470 -0.0367
  898SOL    HW1 2693   2.055   1.686   2.063 -2.2412  1.2426  2.0156
  898SOL    HW2 2694   2.226   1.704   2.088  1.4300 -2.3199  0.0531
  899SOL     OW 2695   2.140   2.656   0.872  0.1145 -0.1129  0.2533
  899SOL    HW1 2696   2.174   2.566   0.831  0.7769 -0.7060 -2.9254
  899SOL    HW2 2697   2.179   2.671   0.966 -1.5319  1.2139 -1.6457
  900SOL     OW 2698   0.947   0.012   2.926 -0.0326 -0.0739  0.1431
  900SOL    HW1 2699   0.900   3.053   2.891 -0.5909 -0.7796 -0.9510
  900SOL    HW2 2700   0.872   0.067   2.959 -1.6753 -0.9841 -3.0794
  901SOL     OW 2701   1.166   1.909   2.248 -0.2708  0.2584 -0.2546
  901SOL    HW1 2702   1.125   1.992   2.288  0.6136 -0.0693  0.8486
  901SOL    HW2 2703   1.132   1.828   2.299 -0.2572 -1.9116 -3.0980
  902SOL     OW 2704   2.283   0.654   2.994  1.0546  0.1907 -0.2774
  902SOL    HW1 2705   2.333   0.572   2.968  1.5137  1.5443  2.7185
  902SOL    HW2 2706   2.194   0.621   3.028  0.1567  2.2990  0.9001
  903SOL     OW 2707   2.024   0.891   2.056 -0.2729 -0.6046 -0.0287
  903SOL    HW1 2708   2.089   0.832   2.005 -1.5385 -1.2753 -1.3845
  903SOL    HW2 2709   2.064   0.909   2.149 -1.3147 -0.9201  0.5958
  904SOL     OW 2710   1.647   0.850   1.812  0.4356  0.5291 -0.4540
  904SOL    HW1 2711   1.631   0.903   1.730  0.6001  0.8618  2.7266
  904SOL    HW2 2712   1.724   0.887   1.867 -1.7244  2.2141 -0.8400
  905SOL     OW 2713   2.220   0.220   1.264  0.0510 -0.0025 -0.0980
  905SOL    HW1 2714   2.213   0.124   1.243  0.1671  0.1158 -0.2033
  905SOL    HW2 2715   2.131   0.268   1.274  4.8902  1.4232  3.4064
  906SOL     OW 2716   2.221   1.770   0.675 -0.0342  0.3370 -0.2049
  906SOL    HW1 2717   2.188   1.858   0.711 -0.1169 -0.1163 -2.8583
  906SOL    HW2 2718   2.144   1.702   0.665 -0.7406 -0.2866 -1.3400
  907SOL     OW 2719   1.193   2.841   0.873  0.3062  0.1026  0.4691
  907SOL    HW1 2720   1.270   2.782   0.836 -0.3885  4.1997 -4.4726
  907SOL    HW2 2721   1.103   2.803   0.843  0.9215  0.6049 -1.6325
  908SOL     OW 2722   1.413   2.411   2.584 -0.4000  0.1559 -0.1381
  908SOL    HW1 2723   1.431   2.324   2.536  0.7974  2.7762 -0.9961
  908SOL    HW2 2724   1.485   2.477   2.562 -0.6168 -0.5616  0.9340
  909SOL     OW 2725   2.179   0.464   2.235  0.1153 -0.0400 -0.1519
  909SOL    HW1 2726   2.196   0.564   2.246 -0.3786  0.4381 -1.2643
  909SOL    HW2 2727   2.115   0.449   2.157  2.2960 -3.4975 -0.5497
  910SOL     OW 2728   1.059   0.812   2.504  0.0296  0.1998  0.2545
  910SOL    HW1 2729   1.036   0.865   2.592  0.3796  0.2170  0.3101
  910SOL    HW2 2730   0.999   0.729   2.501 -1.8855  0.5500  1.6022
  911SOL     OW 2731   3.100   0.928   2.963 -0.0380  0.4323 -1.1298
  911SOL    HW1 2732   0.028   0.951   3.044 -0.9143 -2.6306  0.3717
  911SOL    HW2 2733   3.016   0.883   3.000  1.5843  1.4933 -2.0563
  912SOL     OW 2734   0.147   2.466   0.650 -0.0888  0.3798  0.2773
  912SOL    HW1 2735   0.246   2.452   0.635  1.9098 -0.4643  2.4737
  912SOL    HW2 2736   0.089   2.428   0.575  0.1124 -2.2769 -1.7360
  913SOL     OW 2737   2.619   1.954   2.565  0.3739  0.2675 -0.4095
  913SOL    HW1 2738   2.544   1.925   2.505  0.1888 -2.2940  0.5356
  913SOL    HW2 2739   2.671   2.033   2.529  0.0734 -1.6428  1.9462
  914SOL     OW 2740   1.831   1.205   0.859  0.4136  0.2902 -0.8492
  914SOL    HW1 2741   1.838   1.164   0.766  0.4642 -0.9174  2.2657
  914SOL    HW2 2742   1.809   1.303   0.854  0.5159 -1.2011  0.4157
  915SOL     OW 2743   0.188   2.830   2.343  0.1978  0.2140 -0.1000
  915SOL    HW1 2744   0.226   2.926   2.330 -0.7618 -1.8681  1.1284
  915SOL    HW2 2745   0.256   2.776   2.396  1.5804  3.1724  2.5492
  916SOL     OW 2746   0.881   2.934   1.054  0.3973  0.4603  0.5964
  916SOL    HW1 2747   0.839   3.029   1.055  0.7308  1.9080 -0.7874
  916SOL    HW2 2748   0.812   2.861   1.037  1.8141  0.1005 -2.0338
  917SOL     OW 2749   2.425   0.754   0.086 -0.1208 -0.2388  0.7195
  917SOL    HW1 2750   2.467   0.844   0.063 -0.7655 -1.7605  1.7362
  917SOL    HW2 2751   2.382   0.718   0.001  1.4216  1.1322 -1.6209
  918SOL     OW 2752   1.518   2.406   2.838  0.0729 -0.0419  0.8408
  918SOL    HW1 2753   1.502   2.509   2.861  0.3474  1.7975  1.9304
  918SOL    HW2 2754   1.466   2.391   2.747  0.2390 -1.2743 -3.5523
  919SOL     OW 2755   1.907   2.770   1.417  0.6856 -0.3774  0.7440
  919SOL    HW1 2756   1.812   2.805   1.411 -0.3856 -1.0199 -1.2459
  919SOL    HW2 2757   1.912   2.668   1.400  0.9166 -1.0867  1.2825
  920SOL     OW 2758   1.354   0.385   2.421  0.4555  0.2470 -0.0546
  920SOL    HW1 2759   1.350   0.385   2.525  0.9696 -0.2204 -1.6348
  920SOL    HW2 2760   1.307   0.306   2.378 -1.1001 -0.4101  0.2006
  921SOL     OW 2761   0.109   0.905   2.697 -0.1326 -0.0083  0.2280
  921SOL    HW1 2762   0.081   0.972   2.620  0.3109  0.5343 -0.8139
  921SOL    HW2 2763   0.048   0.919   2.774 -1.8009  0.0795  2.1173
  922SOL     OW 2764   2.988   2.008   1.164  0.1287 -0.0187 -0.0873
  922SOL    HW1 2765   2.933   2.078   1.114  1.8909  3.4333  0.1483
  922SOL    HW2 2766   3.079   1.994   1.124  1.3707 -0.0953  2.1755
  923SOL     OW 2767   0.315   1.646   2.153 -0.4605 -0.4992  0.5631
  923SOL    HW1 2768   0.386   1.639   2.228 -1.2856 -0.9707  0.1615
  923SOL    HW2 2769   0.232   1.695   2.188  0.4304 -2.4764  1.8981
  924SOL     OW 2770   1.513   2.887   2.532  0.0771 -0.1837  0.0665
  924SOL    HW1 2771   1.486   2.837   2.452  0.7197  1.1090 -2.1226
  924SOL    HW2 2772   1.608   2.924   2.522 -0.6227  0.7592  0.6047
  925SOL     OW 2773   2.758   1.708   0.692  0.1461 -0.5115  0.0557
  925SOL    HW1 2774   2.780   1.636   0.627  0.5503  0.0443  0.7073
  925SOL    HW2 2775   2.795   1.680   0.783  0.6867 -2.3465 -2.7815
  926SOL     OW 2776   2.301   0.826   1.006  0.2160 -0.2014 -0.4725
  926SOL    HW1 2777   2.313   0.731   0.974  1.6940  0.5072 -0.0292
  926SOL    HW2 2778   2.376   0.884   0.971 -1.5745 -1.1801 -2.5135
  927SOL     OW 2779   1.757   0.132   1.298  0.2921  0.4811 -0.3430
  927SOL    HW1 2780   1.834   0.198   1.285 -2.7890  0.4541  1.1244
  927SOL    HW2 2781   1.772   0.070   1.379  1.6220 -2.3862  1.0346
  928SOL     OW 2782   0.017   0.777   2.241  0.3778  0.3605 -0.4004
  928SOL    HW1 2783   0.109   0.811   2.230 -1.9107 -1.0288 -0.9637
  928SOL    HW2 2784   0.010   0.677   2.267 -2.1663 -1.2709 -0.3223
  929SOL     OW 2785   2.297   0.882   1.264 -0.6686  0.3749 -0.0115
  929SOL    HW1 2786   2.297   0.849   1.164 -2.0137 -2.4085 -1.0030
  929SOL    HW2 2787   2.382   0.926   1.291  0.7287 -0.4348 -0.0600
  930SOL     OW 2788   2.500   2.407   1.674  0.0293  0.0582 -0.1330
  930SOL    HW1 2789   2.587   2.363   1.704  0.5170 -0.4588 -0.5015
  930SOL    HW2 2790   2.442   2.434   1.752  0.1484 -1.4878 -1.0686
  931SOL     OW 2791   2.023   0.943   1.279  0.4350  0.2881  0.0079
  931SOL    HW1 2792   2.128   0.935   1.271  1.6635 -0.4242  0.5717
  931SOL    HW2 2793   1.996   1.021   1.219  2.2527 -1.5312  1.4858
  932SOL     OW 2794   0.298   0.660   1.706 -0.5984  0.2884  0.1816
  932SOL    HW1 2795   0.341   0.674   1.612  2.0047  1.7646  0.2019
  932SOL    HW2 2796   0.278   0.751   1.752  0.3084  2.8047  0.0149
  933SOL     OW 2797   2.357   1.920   1.656 -0.4966  0.3585 -0.0577
  933SOL    HW1 2798   2.359   1.989   1.578 -1.1516  0.9223 -2.3842
  933SOL    HW2 2799   2.402   1.955   1.739 -0.5214 -1.0789  0.5120
  934SOL     OW 2800   1.151   2.251   1.671  0.1123  0.1367 -0.2753
  934SOL    HW1 2801   1.193   2.342   1.647 -1.3660  0.3318 -1.1964
  934SOL    HW2 2802   1.070   2.250   1.612  1.2883  0.5549  3.1412
  935SOL     OW 2803   0.016   1.534   2.030  0.0669 -0.0705  0.6812
  935SOL    HW1 2804   0.083   1.457   2.034 -0.5756 -2.1334 -1.4690
  935SOL    HW2 2805   3.124   1.571   2.121  0.3430 -1.0380 -0.5025
  936SOL     OW 2806   2.689   0.800   1.252 -0.1655  0.0041  0.0861
  936SOL    HW1 2807   2.637   0.889   1.266 -1.6455  1.9331  0.0361
  936SOL    HW2 2808   2.630   0.722   1.239  0.5893  4.1679  0.7994
  937SOL     OW 2809   1.755   0.449   1.396 -0.2140  0.1106 -0.0948
  937SOL    HW1 2810   1.744   0.526   1.331 -0.6907 -1.6028 -1.2996
  937SOL    HW2 2811   1.829   0.470   1.469  1.5584  0.5891  0.6771
  938SOL     OW 2812   0.385   2.745   0.563  0.1000  0.0113 -0.2719
  938SOL    HW1 2813   0.416   2.674   0.501  1.0936  0.6757 -0.3749
  938SOL    HW2 2814   0.443   2.827   0.546  1.3839  2.1339 -0.8402
  939SOL     OW 2815   3.086   2.179   2.594 -0.1080  0.3020  0.2846
  939SOL    HW1 2816   3.082   2.082   2.630  0.0105 -1.4909 -0.1739
  939SOL    HW2 2817   3.015   2.233   2.639 -0.2184 -0.4611 -0.1356
  940SOL     OW 2818   1.574   1.894   0.204 -0.0181  0.5328 -0.0208
  940SOL    HW1 2819   1.661   1.907   0.248  1.3194 -0.0822 -0.1012
  940SOL    HW2 2820   1.504   1.952   0.249  1.9006 -1.9971  0.6047
  941SOL     OW 2821   2.259   2.469   0.432  0.4458  0.4437  0.6476
  941SOL    HW1 2822   2.358   2.452   0.417 -0.1023 -0.0819 -1.1839
  941SOL    HW2 2823   2.229   2.567   0.415 -0.5582 -0.4894 -0.7200
  942SOL     OW 2824   1.889   1.940   0.960  0.1314 -0.2035 -0.1483
  942SOL    HW1 2825   1.828   2.021   0.959 -1.5636  2.6871  1.9975
  942SOL    HW2 2826   1.850   1.867   1.016  1.3675  1.2606 -1.8000
  943SOL     OW 2827   2.237   0.820   1.515  0.0801  0.4092  0.4100
  943SOL    HW1 2828   2.267   0.848   1.421  0.5296 -0.5122  1.8295
  943SOL    HW2 2829   2.142   0.838   1.533  1.1464 -1.6667 -0.1432
  944SOL     OW 2830   1.225   0.625   2.058  0.4367 -0.0189 -0.1446
  944SOL    HW1 2831   1.180   0.600   2.147 -0.2002  0.2288  2.4936
  944SOL    HW2 2832   1.278   0.714   2.064 -2.4168 -0.7167 -2.5665
  945SOL     OW 2833   2.314   2.788   1.568  0.5710  0.7801  0.0679
  945SOL    HW1 2834   2.367   2.729   1.626  0.4356  1.9311 -2.0762
  945SOL    HW2 2835   2.348   2.883   1.578  0.5379 -2.0939 -0.2156
  946SOL     OW 2836   0.600   1.260   0.587  0.0470 -0.4057  0.4027
  946SOL    HW1 2837   0.626   1.201   0.668 -0.4519 -0.0121  1.0965
  946SOL    HW2 2838   0.574   1.202   0.509 -0.5658  0.8212  1.9794
  947SOL     OW 2839   1.432   2.281   0.941  0.1803  0.0263 -0.1169
  947SOL    HW1 2840   1.410   2.367   0.988 -0.3180  1.0350  0.0923
  947SOL    HW2 2841   1.418   2.296   0.839 -0.8212  1.1312 -1.5612
  948SOL     OW 2842   0.514   1.525   1.270  0.2077 -0.0557 -0.3807
  948SOL    HW1 2843   0.615   1.528   1.269  2.2160 -3.1610  1.6840
  948SOL    HW2 2844   0.483   1.527   1.175 -1.0336 -2.1925  0.8922
  949SOL     OW 2845   0.992   1.291   1.645  0.5146 -0.9310  0.3796
  949SOL    HW1 2846   0.956   1.385   1.633  0.2532 -1.8010 -2.6550
  949SOL    HW2 2847   0.997   1.239   1.558 -1.7186 -0.9616  0.4430
  950SOL     OW 2848   0.555   0.655   1.156  0.6672 -0.0160 -0.0514
  950SOL    HW1 2849   0.634   0.719   1.179  0.5065 -2.7117  0.6746
  950SOL    HW2 2850   0.464   0.704   1.165  1.3161  0.3920  3.2827
  951SOL     OW 2851   0.660   2.005   1.949  0.6399  0.2677 -0.1880
  951SOL    HW1 2852   0.607   1.983   1.865  2.1085  0.8852  2.1296
  951SOL    HW2 2853   0.737   2.064   1.923  2.1305 -1.5163  1.0391
  952SOL     OW 2854   1.106   1.711   0.009 -0.3506 -0.2635  0.0808
  952SOL    HW1 2855   1.126   1.814   0.011  0.1551  1.9361  1.1341
  952SOL    HW2 2856   1.173   1.650   0.064  1.8224 -0.7736  1.8087
  953SOL     OW 2857   0.808   2.817   0.102  0.1295 -0.3758 -0.5794
  953SOL    HW1 2858   0.744   2.829   0.179  0.0697  0.5710 -1.8797
  953SOL    HW2 2859   0.902   2.851   0.123 -1.1382 -2.4419  1.2741
  954SOL     OW 2860   1.734   1.209   0.063  0.0160  0.1134 -0.1849
  954SOL    HW1 2861   1.703   1.162   3.111  0.3616  4.5106  0.4554
  954SOL    HW2 2862   1.660   1.267   0.101  0.1454 -1.6146 -0.1811
  955SOL     OW 2863   0.112   2.729   3.075 -0.1989  0.3545  0.1200
  955SOL    HW1 2864   0.115   2.813   0.003 -0.4767  0.5210  2.6173
  955SOL    HW2 2865   0.019   2.723   3.029 -0.5705 -0.1365  1.5769
  956SOL     OW 2866   0.987   0.624   1.186  0.0468  0.3129 -0.5883
  956SOL    HW1 2867   1.014   0.655   1.095 -1.2774  0.1269  0.4579
  956SOL    HW2 2868   1.060   0.566   1.228  0.5714  1.9715  0.0491
  957SOL     OW 2869   1.733   1.491   1.806  0.6929  0.0446  0.4332
  957SOL    HW1 2870   1.660   1.511   1.733  1.8709  2.6287 -0.2290
  957SOL    HW2 2871   1.707   1.411   1.858 -1.1292  0.0058 -0.8434
  958SOL     OW 2872   0.674   1.828   1.390  0.0027  0.4307  0.0692
  958SOL    HW1 2873   0.668   1.727   1.374 -1.5645 -1.2451 -2.5715
  958SOL    HW2 2874   0.647   1.878   1.306 -0.7888 -1.6812  0.6384
  959SOL     OW 2875   1.660   1.259   1.494  0.4520  0.7198  0.0156
  959SOL    HW1 2876   1.753   1.304   1.501  0.3954 -0.1865 -0.5467
  959SOL    HW2 2877   1.585   1.328   1.483 -0.5497  0.9625  2.2469
  960SOL     OW 2878   0.190   1.230   0.117 -0.1578  0.2589  0.0642
  960SOL    HW1 2879   0.237   1.224   0.210  0.7666  0.5788 -0.9120
  960SOL    HW2 2880   0.259   1.248   0.047 -0.7854  0.5081 -0.0312
  961SOL     OW 2881   0.937   1.585   1.679  0.0354  0.7088 -0.0770
  961SOL    HW1 2882   1.025   1.612   1.724 -1.8512  2.9602 -2.1259
  961SOL    HW2 2883   0.859   1.599   1.744  0.8337 -0.2686  2.0498
  962SOL     OW 2884   1.232   1.209   0.833 -0.1563 -0.2755  0.0110
  962SOL    HW1 2885   1.197   1.287   0.894 -0.1456  1.0481 -0.6529
  962SOL    HW2 2886   1.148   1.182   0.781 -2.1795 -1.3682 -0.4101
  963SOL     OW 2887   1.467   1.935   2.900 -0.4477 -0.4080 -0.1788
  963SOL    HW1 2888   1.543   2.002   2.875  0.0539  0.0687  2.5180
  963SOL    HW2 2889   1.506   1.860   2.960  2.0809 -3.2400  2.3991
  964SOL     OW 2890   0.603   2.898   0.300  0.2660 -0.3441 -0.4885
  964SOL    HW1 2891   0.566   2.917   0.392 -1.3912  2.1810 -0.9428
  964SOL    HW2 2892   0.528   2.873   0.238 -0.3916  2.2746  1.8545
  965SOL     OW 2893   0.375   2.349   0.490  0.1873  0.1839  0.3338
  965SOL    HW1 2894   0.328   2.265   0.525  2.0093 -2.7190 -1.8861
  965SOL    HW2 2895   0.314   2.401   0.424 -1.3722  1.6389 -1.8585
  966SOL     OW 2896   0.140   1.543   2.841 -0.0368  0.2564  0.1502
  966SOL    HW1 2897   0.078   1.461   2.823 -1.7044  0.4329  1.2576
  966SOL    HW2 2898   0.150   1.563   2.943 -2.7514  0.3942  1.9724
  967SOL     OW 2899   3.010   3.125   2.348  0.1983 -0.3907  0.1678
  967SOL    HW1 2900   3.099   3.084   2.376 -1.4619  3.8762  0.7919
  967SOL    HW2 2901   3.014   0.100   2.355 -3.7869  2.7951  0.1679
  968SOL     OW 2902   2.313   0.546   0.239 -0.6571 -0.5923  0.4373
  968SOL    HW1 2903   2.220   0.582   0.254  0.3815 -1.8598 -0.8109
  968SOL    HW2 2904   2.373   0.614   0.186 -1.6321  1.8824  0.4008
  969SOL     OW 2905   0.262   0.916   1.783  0.7788  0.0428  0.1163
  969SOL    HW1 2906   0.250   0.949   1.692  0.3709 -3.9891  3.6008
  969SOL    HW2 2907   0.317   0.970   1.846 -2.9704 -0.6038  0.1702
  970SOL     OW 2908   2.158   1.511   1.180  0.0083 -0.3034 -0.5994
  970SOL    HW1 2909   2.216   1.551   1.110  0.8783  3.4929 -0.8427
  970SOL    HW2 2910   2.071   1.471   1.144  0.5050 -1.7909 -2.4327
  971SOL     OW 2911   2.762   2.939   1.397 -0.1842  0.7273  0.9078
  971SOL    HW1 2912   2.693   2.995   1.345  0.0823  0.3628 -1.8239
  971SOL    HW2 2913   2.850   2.986   1.412  0.9832 -0.5574 -0.8088
  972SOL     OW 2914   0.551   2.837   1.433  0.2622  0.3822  0.6036
  972SOL    HW1 2915   0.596   2.928   1.442 -2.3927 -1.3736  1.1456
  972SOL    HW2 2916   0.515   2.827   1.336  1.6990 -2.0530 -1.4080
  973SOL     OW 2917   0.309   0.266   3.028  0.2447  0.0299 -0.0322
  973SOL    HW1 2918   0.348   0.237   2.937  0.4528 -3.0670 -0.5733
  973SOL    HW2 2919   0.208   0.244   3.022  0.6457 -0.1289  2.7881
  974SOL     OW 2920   1.849   1.547   2.461  0.1244 -0.8277 -0.5521
  974SOL    HW1 2921   1.817   1.501   2.371  0.5426 -0.1414 -2.3239
  974SOL    HW2 2922   1.909   1.627   2.441  1.2653 -1.3930 -3.6703
  975SOL     OW 2923   0.102   3.064   1.552 -0.3515 -0.0916 -1.0384
  975SOL    HW1 2924   0.194   3.107   1.580 -0.2001 -0.5991  1.8651
  975SOL    HW2 2925   0.033   3.085   1.626  1.4466 -1.0778 -0.8867
  976SOL     OW 2926   0.418   2.065   2.306  0.1354  0.4572 -0.2467
  976SOL    HW1 2927   0.324   2.056   2.341 -0.0991 -0.2672 -1.5548
  976SOL    HW2 2928   0.455   1.976   2.275 -0.0613  0.1502 -0.4832
  977SOL     OW 2929   0.780   2.576   0.456 -0.5617  0.5757  0.2423
  977SOL    HW1 2930   0.684   2.561   0.425 -0.9830  0.9842 -1.0561
  977SOL    HW2 2931   0.812   2.671   0.450 -0.0925 -2.5091 -1.6686
  978SOL     OW 2932   0.108   1.582   2.576 -0.0630 -0.3775 -0.5197
  978SOL    HW1 2933   0.131   1.487   2.549 -0.0272 -1.3856  1.1376
  978SOL    HW2 2934   0.101   1.583   2.677  1.4157  0.6782  1.2193
  979SOL     OW 2935   1.879   2.577   1.678 -0.4948 -0.0198  0.0720
  979SOL    HW1 2936   1.964   2.630   1.654 -0.2259 -0.3089 -0.9542
  979SOL    HW2 2937   1.914   2.491   1.722 -1.1632 -1.1463  1.6792
  980SOL     OW 2938   1.040   1.283   2.977  0.6759  0.1775 -0.1855
  980SOL    HW1 2939   1.047   1.230   2.891  2.9817 -2.1016 -2.4623
  980SOL    HW2 2940   1.049   1.381   2.951 -0.7311 -1.4630 -0.6101
  981SOL     OW 2941   2.357   0.112   2.075  0.0245 -0.2641 -0.5160
  981SOL    HW1 2942   2.274   0.078   2.120 -0.5563  0.3713 -0.2447
  981SOL    HW2 2943   2.342   0.194   2.027 -0.6306 -1.5784  4.8718
  982SOL     OW 2944   0.061   0.219   2.948  0.1493 -0.0680 -0.2490
  982SOL    HW1 2945   3.120   0.268   3.007 -5.0826  0.0011  0.9618
  982SOL    HW2 2946   0.053   0.243   2.850  1.6522 -0.3369  0.7202
  983SOL     OW 2947   1.978   1.251   2.321 -0.1985 -0.4836 -0.2961
  983SOL    HW1 2948   1.897   1.269   2.378  0.9344 -0.6665 -2.0708
  983SOL    HW2 2949   1.970   1.294   2.231 -0.4746  3.3769  0.8183
  984SOL     OW 2950   1.422   0.280   1.791  0.0446 -0.4729 -0.0656
  984SOL    HW1 2951   1.341   0.324   1.749  0.7679 -0.9525 -3.0904
  984SOL    HW2 2952   1.458   0.354   1.848 -3.1333 -2.1182 -0.6772
  985SOL     OW 2953   1.921   1.334   2.077  0.2063  0.0095  0.7478
  985SOL    HW1 2954   1.850   1.312   2.008 -2.9362 -0.7124 -1.8158
  985SOL    HW2 2955   2.019   1.321   2.047 -0.0783 -1.0710  1.6350
  986SOL     OW 2956   2.285   0.567   1.601  0.2954 -0.1029  0.6770
  986SOL    HW1 2957   2.355   0.575   1.669  2.5757 -2.1049 -0.5270
  986SOL    HW2 2958   2.268   0.652   1.543  0.2090 -1.8481 -0.6963
  987SOL     OW 2959   2.647   0.346   1.310 -0.2424 -0.0522 -0.6949
  987SOL    HW1 2960   2.705   0.341   1.396  0.3882 -0.1479 -0.2281
  987SOL    HW2 2961   2.587   0.265   1.294 -5.1929  2.1559 -1.3716
  988SOL     OW 2962   2.976   0.880   2.046  0.1381  0.3392 -0.8987
  988SOL    HW1 2963   3.023   0.892   1.957 -0.5636  0.5314 -0.6538
  988SOL    HW2 2964   3.034   0.831   2.113 -0.4156  0.7284  1.2398
  989SOL     OW 2965   2.159   1.824   3.107  0.2255 -0.0385  0.2972
  989SOL    HW1 2966   2.190   1.922   3.099 -1.0528  0.3968  2.1715
  989SOL    HW2 2967   2.242   1.767   3.128  0.1099 -0.9785 -0.7431
  990SOL     OW 2968   1.052   0.271   2.916  0.0313 -0.1399  0.1682
  990SOL    HW1 2969   1.031   0.173   2.908 -0.0359  0.0720  1.1934
  990SOL    HW2 2970   1.102   0.285   3.001 -1.7942 -1.2256  2.0659
  991SOL     OW 2971   1.469   0.773   0.045 -0.7709 -0.1902 -0.6377
  991SOL    HW1 2972   1.529   0.797   0.123  2.8749  0.5136 -0.8279
  991SOL    HW2 2973   1.515   0.708   3.109 -1.8163  3.1310  2.1426
  992SOL     OW 2974   2.033   1.392   0.170 -0.5965 -0.1419  0.2165
  992SOL    HW1 2975   1.955   1.460   0.163  0.6720  0.8521  0.9207
  992SOL    HW2 2976   2.035   1.339   0.083  1.6486  2.1513  1.3950
  993SOL     OW 2977   2.973   0.521   0.705 -0.1181 -0.2692  0.1210
  993SOL    HW1 2978   3.025   0.577   0.635  2.6948  1.1273 -1.4750
  993SOL    HW2 2979   3.013   0.537   0.794 -0.9022  3.0983 -0.3747
  994SOL     OW 2980   0.115   2.098   2.372  0.1880  0.5261  0.2803
  994SOL    HW1 2981   0.056   2.146   2.441  0.2479 -1.8831  0.2775
  994SOL    HW2 2982   0.108   2.145   2.285  1.6414  0.9055  0.8939
  995SOL     OW 2983   1.786   1.565   2.985 -0.5041 -0.2714 -0.0520
  995SOL    HW1 2984   1.878   1.601   2.955  1.2994 -0.7684  0.9344
  995SOL    HW2 2985   1.798   1.491   3.052 -1.5526  2.7198  1.4078
  996SOL     OW 2986   2.014   1.688   2.916  0.2866 -0.6751  0.3707
  996SOL    HW1 2987   2.059   1.743   2.987  0.0843  1.2229 -2.1307
  996SOL    HW2 2988   1.981   1.748   2.837  1.5762  2.4427 -0.3944
  997SOL     OW 2989   2.199   1.433   1.769 -0.0308  0.0490 -0.0379
  997SOL    HW1 2990   2.257   1.513   1.798  0.9960 -1.4327 -0.7957
  997SOL    HW2 2991   2.154   1.386   1.847  0.7798 -0.5178 -0.3455
  998SOL     OW 2992   2.305   1.787   0.285  0.0576 -0.4606  0.8194
  998SOL    HW1 2993   2.336   1.733   0.366  1.3919 -0.4842 -3.1444
  998SOL    HW2 2994   2.218   1.836   0.309 -1.9665  0.5972  0.6770
  999SOL     OW 2995   2.822   2.373   0.224 -0.4839 -0.3383  0.4588
  999SOL    HW1 2996   2.737   2.320   0.217  0.3909 -0.8063  1.7325
  999SOL    HW2 2997   2.808   2.469   0.208  0.0519 -0.6185 -0.8569
 1000SOL     OW 2998   0.998   0.333   1.889  0.1368 -0.3510  0.0093
 1000SOL    HW1 2999   0.982   0.353   1.991 -3.2392 -0.8014 -1.4753
 1000SOL    HW2 3000   0.925   0.371   1.836  2.1155  0.6725  2.9623
   3.12814   3.12814   3.12814
