1000 SPC/Fw water molecules t= 362.00000 step= 362000
 3000
    1SOL     OW    1   2.444   2.892   1.520  0.1370 -0.2398  0.0542
    1SOL    HW1    2   2.458   2.932   1.614 -0.6892  0.9724  3.0702
    1SOL    HW2    3   2.487   2.949   1.447  0.6322 -0.3478  1.4452
    2SOL     OW    4   2.506   2.312   0.633 -0.3272  0.4936  0.3301
    2SOL    HW1    5   2.564   2.344   0.708 -0.1300 -1.3002 -1.4978
    2SOL    HW2    6   2.526   2.360   0.544 -0.1669  2.9916 -0.2119
    3SOL     OW    7   1.298   0.114   0.126  0.6800 -0.5459  0.1153
    3SOL    HW1    8   1.349   0.184   0.083 -2.5467 -1.6359  3.2398
    3SOL    HW2    9   1.284   0.033   0.063  0.3938 -3.3928  0.3053
    4SOL     OW   10   1.625   2.700   2.097  0.0536 -0.5318 -0.2615
    4SOL    HW1   11   1.555   2.771   2.122  0.2339 -1.1568  0.8548
    4SOL    HW2   12   1.656   2.720   2.002 -2.0826  0.2231 -1.9347
    5SOL     OW   13   1.950   0.413   1.695  0.0736 -0.1904 -0.2447
    5SOL    HW1   14   1.957   0.513   1.717 -1.6247  2.7611  2.8578
    5SOL    HW2   15   1.857   0.376   1.720 -0.7781 -0.4970  0.4036
    6SOL     OW   16   2.201   2.461   0.462 -0.1336  0.5019 -0.0768
    6SOL    HW1   17   2.116   2.507   0.430 -0.8866  0.3255  1.0505
    6SOL    HW2   18   2.201   2.449   0.561  0.8492  1.6168  1.3811
    7SOL     OW   19   1.669   0.895   1.092  0.0329  0.0287  0.3653
    7SOL    HW1   20   1.711   0.906   0.998  0.1933  1.1587 -2.1661
    7SOL    HW2   21   1.682   0.983   1.147  0.9272  0.6486  0.9525
    8SOL     OW   22   0.867   1.548   1.353 -0.5651  0.3922 -0.1301
    8SOL    HW1   23   0.777   1.572   1.313 -0.9651 -1.3701 -0.1694
    8SOL    HW2   24   0.931   1.504   1.288 -0.3814  0.9656  2.7530
    9SOL     OW   25   1.107   2.346   1.896  0.0906  0.5257 -0.0577
    9SOL    HW1   26   1.026   2.405   1.909  0.8123 -2.0425 -0.4546
    9SOL    HW2   27   1.080   2.274   1.825 -0.8548 -1.7892  0.0518
   10SOL     OW   28   0.793   2.350   0.791  0.0908  0.1076 -0.7021
   10SOL    HW1   29   0.703   2.399   0.794 -0.5128  0.2184 -0.4595
   10SOL    HW2   30   0.818   2.352   0.695  2.2237  1.2644  1.6704
   11SOL     OW   31   1.537   1.930   1.254  0.0402  0.3700  0.0446
   11SOL    HW1   32   1.451   1.979   1.268  0.1723 -2.4362  1.0848
   11SOL    HW2   33   1.600   1.973   1.185 -0.3443 -0.4519  2.0686
   12SOL     OW   34   2.791   0.516   2.204 -0.9308 -0.3277  0.0460
   12SOL    HW1   35   2.845   0.432   2.185 -3.7001 -0.3368 -0.3419
   12SOL    HW2   36   2.814   0.564   2.290  1.2127  1.0879  1.1321
   13SOL     OW   37   2.644   3.074   0.594  0.0294  0.5875 -0.5181
   13SOL    HW1   38   2.617   3.034   0.684  1.5410  1.3019  0.1274
   13SOL    HW2   39   2.718   3.015   0.561 -1.1994  0.2822  2.1490
   14SOL     OW   40   1.606   1.500   2.813  0.1278  0.7016  0.0615
   14SOL    HW1   41   1.678   1.478   2.878 -1.9919  0.5015 -3.0493
   14SOL    HW2   42   1.525   1.530   2.867  0.6061 -0.7176 -1.5017
   15SOL     OW   43   2.407   2.410   1.451 -0.6201  0.1596 -0.0775
   15SOL    HW1   44   2.450   2.327   1.488  2.2667  2.2074 -1.8086
   15SOL    HW2   45   2.337   2.447   1.515 -0.5633  0.8539  0.7236
   16SOL     OW   46   2.334   2.825   0.340 -0.2432 -0.2794 -0.4128
   16SOL    HW1   47   2.288   2.837   0.430  2.2153 -1.1846 -0.4177
   16SOL    HW2   48   2.425   2.873   0.339  2.4194 -1.2744 -1.8226
   17SOL     OW   49   0.797   0.420   1.031 -0.0116  0.0202  0.3885
   17SOL    HW1   50   0.730   0.412   0.957  2.8189 -0.7962  3.5260
   17SOL    HW2   51   0.819   0.520   1.045  2.3247  0.7329 -3.3628
   18SOL     OW   52   2.054   0.454   0.499 -0.5040  0.2720  0.3710
   18SOL    HW1   53   2.012   0.379   0.556 -0.5739 -0.0046 -0.7485
   18SOL    HW2   54   2.059   0.421   0.403 -0.6551 -0.4378  0.5255
   19SOL     OW   55   1.988   1.307   0.066  0.2246 -0.1924 -0.1101
   19SOL    HW1   56   2.053   1.297   3.086 -0.1024  0.0424  3.8980
   19SOL    HW2   57   1.992   1.391   0.124 -0.5943 -2.5676  1.3701
   20SOL     OW   58   2.407   1.547   2.400 -0.7236  0.0385 -0.7200
   20SOL    HW1   59   2.485   1.548   2.468 -1.4621  2.0055  2.0173
   20SOL    HW2   60   2.421   1.487   2.319  1.2852  0.2121  1.7460
   21SOL     OW   61   1.488   0.173   0.590  0.0506  0.3002 -0.1949
   21SOL    HW1   62   1.435   0.176   0.679 -0.3968 -0.3963  1.4152
   21SOL    HW2   63   1.434   0.206   0.508  0.1182  0.2002 -0.0120
   22SOL     OW   64   2.782   0.493   1.514 -0.0081 -0.3385  0.1834
   22SOL    HW1   65   2.720   0.573   1.521  1.8499 -3.8171 -0.8198
   22SOL    HW2   66   2.787   0.464   1.415  1.0041  0.1315 -0.1421
   23SOL     OW   67   0.351   0.279   1.749 -0.3189  0.6354 -0.3807
   23SOL    HW1   68   0.333   0.379   1.755  0.3072 -5.7506  0.3548
   23SOL    HW2   69   0.275   0.229   1.794 -0.6748 -0.1392 -0.1931
   24SOL     OW   70   2.650   2.763   0.193 -0.2492 -0.0919 -0.5331
   24SOL    HW1   71   2.745   2.747   0.236  1.3116 -0.7319 -0.3946
   24SOL    HW2   72   2.608   2.855   0.216 -0.1244  1.3808  1.2955
   25SOL     OW   73   1.076   2.758   2.785 -0.0141 -0.4135 -0.0925
   25SOL    HW1   74   1.007   2.728   2.714  1.6611 -0.0763 -0.5324
   25SOL    HW2   75   1.096   2.860   2.778  1.1926 -2.2461  0.8631
   26SOL     OW   76   1.307   2.617   0.333  0.1536 -0.4569 -0.3856
   26SOL    HW1   77   1.336   2.520   0.327  1.3247  0.9058 -1.9187
   26SOL    HW2   78   1.335   2.656   0.425 -1.1509  2.0660 -1.5740
   27SOL     OW   79   2.126   0.861   0.973  0.5164 -0.1639 -0.0090
   27SOL    HW1   80   2.112   0.913   1.055 -0.4883 -1.0161  2.5027
   27SOL    HW2   81   2.214   0.814   0.972 -2.1704  1.3378  0.5711
   28SOL     OW   82   0.969   1.510   1.091  0.1554 -0.2906 -0.2829
   28SOL    HW1   83   0.914   1.504   1.005  0.3262 -0.0364 -1.9356
   28SOL    HW2   84   1.062   1.467   1.080  2.5278  3.0285  0.5634
   29SOL     OW   85   3.060   2.880   1.747  0.4393  0.3808 -0.0478
   29SOL    HW1   86   0.020   2.945   1.800 -1.9295 -0.5045 -1.7300
   29SOL    HW2   87   2.975   2.927   1.723 -1.1122 -0.4736  1.0241
   30SOL     OW   88   1.285   0.051   1.256  0.0555  0.3197  0.5557
   30SOL    HW1   89   1.238   3.092   1.185 -1.3191  0.5985 -2.5571
   30SOL    HW2   90   1.280   0.015   1.348 -2.0053 -1.2900 -2.4401
   31SOL     OW   91   1.773   2.671   2.329  0.4904 -0.1804  0.2025
   31SOL    HW1   92   1.714   2.673   2.244 -2.5388  2.4639 -1.4544
   31SOL    HW2   93   1.797   2.766   2.354 -1.1880  0.9704 -1.4383
   32SOL     OW   94   1.102   1.406   0.124  0.2049  0.2491 -0.4506
   32SOL    HW1   95   1.147   1.441   0.040 -2.1829 -0.3333  1.6034
   32SOL    HW2   96   1.080   1.484   0.188 -0.1295 -0.0800  1.2476
   33SOL     OW   97   0.048   0.981   2.514 -0.1088  0.0478  0.1327
   33SOL    HW1   98   0.050   0.894   2.460 -1.1979  0.5250  0.6438
   33SOL    HW2   99   0.031   0.953   2.611 -0.3710 -1.8175 -2.2249
   34SOL     OW  100   2.190   0.025   0.587 -0.0550 -0.3202  0.3928
   34SOL    HW1  101   2.190   0.075   0.674  0.8682 -1.7541 -2.3516
   34SOL    HW2  102   2.160   3.027   0.599 -1.7518 -3.1055 -0.3057
   35SOL     OW  103   2.598   2.395   1.816 -0.4413 -0.2493 -0.1744
   35SOL    HW1  104   2.634   2.390   1.914  3.0242 -0.2755  0.7349
   35SOL    HW2  105   2.680   2.410   1.759 -0.6069 -1.3923 -0.2221
   36SOL     OW  106   2.195   2.101   2.720  0.4914 -0.4749 -0.3596
   36SOL    HW1  107   2.229   2.109   2.624 -0.4777  0.5817  2.9494
   36SOL    HW2  108   2.158   2.192   2.750  2.0336 -0.6731 -0.4063
   37SOL     OW  109   1.884   0.326   2.144 -0.9862 -0.8575 -0.2418
   37SOL    HW1  110   1.829   0.370   2.073  1.6231 -0.8704 -0.2397
   37SOL    HW2  111   1.884   0.221   2.137  1.0468 -3.0221  0.0542
   38SOL     OW  112   3.084   0.565   3.014 -0.4957  0.2861 -0.0198
   38SOL    HW1  113   3.009   0.511   2.970 -0.0943 -1.3804  0.0653
   38SOL    HW2  114   3.089   0.538   0.014 -1.2516  1.3976  0.5486
   39SOL     OW  115   1.918   1.177   1.743 -0.6999 -0.3496 -0.2103
   39SOL    HW1  116   1.987   1.147   1.812 -1.4466 -0.4935 -0.1600
   39SOL    HW2  117   1.920   1.281   1.732  0.6799  3.9358 -0.1964
   40SOL     OW  118   1.219   2.153   0.458 -0.3667  0.4891  0.7650
   40SOL    HW1  119   1.206   2.136   0.559  0.6586 -2.1784 -2.7384
   40SOL    HW2  120   1.135   2.155   0.405 -0.4958  1.9548 -0.2179
   41SOL     OW  121   1.930   1.634   0.911 -0.5312 -0.6473  0.9020
   41SOL    HW1  122   1.955   1.696   0.989  1.9720  0.9476 -2.6416
   41SOL    HW2  123   1.875   1.686   0.845  0.8593 -1.3513  1.4042
   42SOL     OW  124   0.485   0.239   1.103  0.2177 -0.3141 -0.0185
   42SOL    HW1  125   0.468   0.160   1.166  0.6604 -1.3492 -1.0949
   42SOL    HW2  126   0.488   0.329   1.157  0.9103  1.3546  0.9380
   43SOL     OW  127   0.082   1.708   2.363 -0.6826 -0.3325  0.1710
   43SOL    HW1  128   0.066   1.793   2.413 -0.0962 -1.1839 -0.5040
   43SOL    HW2  129   0.045   1.630   2.408  1.9688  2.9226 -2.9042
   44SOL     OW  130   2.237   2.815   1.383  0.4574 -0.5419  0.3104
   44SOL    HW1  131   2.187   2.767   1.457  0.1800 -0.9745 -0.6111
   44SOL    HW2  132   2.325   2.845   1.421 -0.9824  1.7753  1.6510
   45SOL     OW  133   1.129   0.091   2.475 -0.3942 -0.1962  0.1892
   45SOL    HW1  134   1.182   0.031   2.409  0.4429 -1.0894  2.7244
   45SOL    HW2  135   1.034   0.096   2.442  0.4123 -1.9256  1.5533
   46SOL     OW  136   0.842   2.712   2.638  0.0176 -0.2786  0.6472
   46SOL    HW1  137   0.829   2.777   2.564  0.2331  1.1349 -0.2917
   46SOL    HW2  138   0.829   2.617   2.608  2.6528  3.2158  1.7018
   47SOL     OW  139   0.783   1.973   0.806  0.7132 -0.1122 -0.2771
   47SOL    HW1  140   0.887   1.973   0.794  3.6246  0.9965 -2.2352
   47SOL    HW2  141   0.757   2.049   0.868  0.3161 -1.6778 -1.1643
   48SOL     OW  142   1.279   2.725   0.930 -0.2591  0.6610  0.1568
   48SOL    HW1  143   1.269   2.634   0.879 -0.6203 -1.8355 -0.6736
   48SOL    HW2  144   1.265   2.709   1.024  0.0434 -2.8442 -2.6452
   49SOL     OW  145   2.278   0.202   3.028 -0.1980 -0.2332  0.1789
   49SOL    HW1  146   2.350   0.133   3.024 -2.1815  0.7390 -2.2676
   49SOL    HW2  147   2.260   0.235   2.933 -0.2528 -1.5495 -3.0864
   50SOL     OW  148   1.670   0.132   0.242 -0.1882  0.1884 -0.2374
   50SOL    HW1  149   1.773   0.116   0.244 -2.7003 -0.4789  1.1907
   50SOL    HW2  150   1.657   0.225   0.216 -0.0270 -0.6543  0.8401
   51SOL     OW  151   2.310   0.632   1.246  0.3061  0.1670  0.0379
   51SOL    HW1  152   2.310   0.732   1.271 -0.6242  2.3434 -0.0924
   51SOL    HW2  153   2.338   0.575   1.324 -1.1369  1.2920  0.4812
   52SOL     OW  154   0.690   1.660   0.221 -0.0457  0.1957  0.2976
   52SOL    HW1  155   0.719   1.612   0.135  1.9551  0.8585  0.3877
   52SOL    HW2  156   0.755   1.726   0.255 -2.1469 -1.2814 -1.4178
   53SOL     OW  157   0.190   1.456   2.894  0.1739  0.5481 -0.3191
   53SOL    HW1  158   0.188   1.362   2.858 -0.8191  0.0688 -1.9993
   53SOL    HW2  159   0.268   1.469   2.957  0.0929  0.7758  2.5378
   54SOL     OW  160   2.679   1.228   1.744 -0.1727  0.1747 -0.4349
   54SOL    HW1  161   2.613   1.204   1.816  0.9795  0.1387 -1.1632
   54SOL    HW2  162   2.777   1.213   1.773  3.3172 -0.0389 -0.2491
   55SOL     OW  163   2.271   1.945   0.365 -0.1680  0.2093  0.4876
   55SOL    HW1  164   2.370   1.951   0.366 -1.6384 -0.6643  0.5250
   55SOL    HW2  165   2.241   1.862   0.423  0.8214  0.8748  1.2076
   56SOL     OW  166   1.998   0.041   1.522  0.5626  0.2237 -0.8150
   56SOL    HW1  167   1.930   3.092   1.578 -0.2828  0.7659  1.2223
   56SOL    HW2  168   2.013   3.089   1.440 -2.3856 -1.0317  2.1718
   57SOL     OW  169   1.524   1.244   2.804 -0.5875  0.3583  0.1581
   57SOL    HW1  170   1.615   1.195   2.827  1.7442 -1.2480  1.5143
   57SOL    HW2  171   1.542   1.337   2.767 -0.5266 -0.4342  3.6370
   58SOL     OW  172   0.214   0.494   1.292  0.0291  0.2721 -0.0706
   58SOL    HW1  173   0.212   0.512   1.394  0.4428 -0.4297 -2.1570
   58SOL    HW2  174   0.118   0.492   1.250 -0.9516 -1.9008 -0.3956
   59SOL     OW  175   1.337   2.701   0.059  0.2379  0.0566  0.4939
   59SOL    HW1  176   1.346   2.676   0.157 -0.3071 -1.5841 -1.1392
   59SOL    HW2  177   1.238   2.726   0.034  0.1713 -2.7822 -0.9277
   60SOL     OW  178   0.116   1.977   2.761  0.4477  0.6719  0.5641
   60SOL    HW1  179   0.215   1.964   2.780  0.4416 -1.1377  1.3525
   60SOL    HW2  180   0.078   2.072   2.785 -2.3750  0.2284  1.8857
   61SOL     OW  181   0.961   2.285   1.153 -0.1150 -0.0635 -0.6942
   61SOL    HW1  182   0.872   2.256   1.125  1.4735  0.9942  0.5907
   61SOL    HW2  183   0.957   2.387   1.154 -0.9830 -0.3494  0.7013
   62SOL     OW  184   1.719   1.725   2.692  0.6535  0.5727 -0.1568
   62SOL    HW1  185   1.675   1.642   2.725  1.2911  4.0205  1.1544
   62SOL    HW2  186   1.753   1.777   2.772 -0.2808  1.3804  0.6748
   63SOL     OW  187   2.102   1.784   0.161 -0.2335 -0.1287 -0.3843
   63SOL    HW1  188   2.015   1.820   0.125  0.5547 -0.2616 -1.0670
   63SOL    HW2  189   2.159   1.862   0.200  0.7223  3.2043  0.9151
   64SOL     OW  190   2.022   1.095   0.224  0.3087 -0.3427 -0.4439
   64SOL    HW1  191   2.018   1.165   0.152 -0.1253 -1.9807  0.6177
   64SOL    HW2  192   2.110   1.070   0.257 -2.5111 -2.3262 -3.5915
   65SOL     OW  193   2.318   1.704   2.042  0.5855 -0.1652 -0.7642
   65SOL    HW1  194   2.249   1.634   2.068  1.6211 -1.4923  0.9495
   65SOL    HW2  195   2.374   1.741   2.122  1.5362  1.4679 -1.4529
   66SOL     OW  196   0.589   1.060   1.246 -0.5863 -0.5102 -0.3748
   66SOL    HW1  197   0.583   0.962   1.266  1.4758  2.0406  2.9203
   66SOL    HW2  198   0.495   1.101   1.251 -0.2357  1.0593 -2.2869
   67SOL     OW  199   2.074   0.096   2.658  0.5732 -0.0708 -0.0360
   67SOL    HW1  200   1.987   0.130   2.617  2.2724  0.4288 -2.5633
   67SOL    HW2  201   2.133   0.072   2.582 -0.7485  0.1896 -1.7000
   68SOL     OW  202   1.359   2.153   1.478  0.0322 -0.1008  0.7597
   68SOL    HW1  203   1.297   2.165   1.395 -2.7308  0.3942  2.5661
   68SOL    HW2  204   1.394   2.242   1.517  2.0920  0.0423  0.8710
   69SOL     OW  205   0.526   2.479   3.036  0.1138 -0.3400 -0.0982
   69SOL    HW1  206   0.573   2.421   0.002 -0.4253 -0.2051 -2.0919
   69SOL    HW2  207   0.596   2.529   2.982 -3.0818  0.3910 -2.5535
   70SOL     OW  208   0.243   0.668   2.205 -0.5071 -0.3783 -0.3163
   70SOL    HW1  209   0.179   0.652   2.126  2.5334 -0.6346  0.8344
   70SOL    HW2  210   0.323   0.719   2.165  1.6930  2.8797  0.1875
   71SOL     OW  211   0.721   1.410   2.681  0.3165  0.7889 -0.3812
   71SOL    HW1  212   0.624   1.391   2.651  0.6628 -1.7551 -0.4988
   71SOL    HW2  213   0.746   1.327   2.741 -1.1634 -2.6908  1.3223
   72SOL     OW  214   3.007   1.722   2.132 -0.0369 -0.6570 -0.0108
   72SOL    HW1  215   3.052   1.720   2.226  0.2322  1.8827  1.0205
   72SOL    HW2  216   2.966   1.815   2.107 -0.8703  0.8480 -1.6788
   73SOL     OW  217   1.579   1.625   0.378 -0.0978  0.0721 -0.2393
   73SOL    HW1  218   1.630   1.713   0.366  1.9392  0.3477 -2.1864
   73SOL    HW2  219   1.493   1.638   0.432 -2.2954  2.7193  2.1360
   74SOL     OW  220   2.425   3.096   2.727  0.2160  0.3641  0.3970
   74SOL    HW1  221   2.427   0.004   2.827  0.6153 -3.3204 -1.7574
   74SOL    HW2  222   2.341   3.050   2.697 -2.5949  0.8795 -2.7507
   75SOL     OW  223   1.693   2.101   1.100  1.2372  0.0827 -0.0362
   75SOL    HW1  224   1.733   2.193   1.125 -0.7750 -1.7526  1.6901
   75SOL    HW2  225   1.717   2.081   1.006 -2.5552 -0.5385  0.3899
   76SOL     OW  226   0.067   1.894   1.806  0.8604 -0.0313 -0.5768
   76SOL    HW1  227   0.003   1.816   1.834 -1.4151  1.2890  0.3372
   76SOL    HW2  228   0.030   1.956   1.733 -0.9877  0.2449 -0.7368
   77SOL     OW  229   0.108   3.074   1.882 -0.6744  0.1494 -0.4169
   77SOL    HW1  230   0.195   3.053   1.835  1.1461 -0.7381 -0.8163
   77SOL    HW2  231   0.079   0.068   1.860  0.7243  0.8708 -0.0752
   78SOL     OW  232   2.480   1.015   0.196 -0.6604 -0.4815  0.5615
   78SOL    HW1  233   2.499   1.092   0.127  2.6195  0.7520  0.1533
   78SOL    HW2  234   2.564   0.974   0.238 -3.4985  1.3047 -2.5869
   79SOL     OW  235   3.084   1.469   2.484 -0.0459  0.5147  0.0488
   79SOL    HW1  236   3.008   1.488   2.546 -0.9509  3.1762 -0.4912
   79SOL    HW2  237   0.014   1.371   2.508 -0.0486 -3.5496 -0.5207
   80SOL     OW  238   1.705   1.337   1.420  0.0126 -0.1017 -0.1621
   80SOL    HW1  239   1.734   1.310   1.512  1.3649 -0.3837  1.7161
   80SOL    HW2  240   1.738   1.434   1.406  0.3280  1.0253  0.7361
   81SOL     OW  241   2.109   1.050   1.940  0.2064 -0.2452 -0.1272
   81SOL    HW1  242   2.047   0.980   1.984 -2.8233 -1.8712 -2.3718
   81SOL    HW2  243   2.190   1.009   1.896  0.6271 -1.3119  4.5697
   82SOL     OW  244   1.614   1.490   1.680  0.1307 -0.0989 -0.5429
   82SOL    HW1  245   1.700   1.454   1.736 -0.1534 -2.3939 -0.4625
   82SOL    HW2  246   1.534   1.430   1.696  2.2380  0.6208 -0.4426
   83SOL     OW  247   0.164   0.277   0.328 -0.1572  0.3586 -0.2026
   83SOL    HW1  248   0.248   0.259   0.276  2.2975 -3.3671  1.6489
   83SOL    HW2  249   0.143   0.196   0.384 -0.9023  0.6353  0.8618
   84SOL     OW  250   0.077   1.027   2.993  0.5146  0.3015 -0.2294
   84SOL    HW1  251   0.029   1.117   2.971 -0.5125  0.6828 -0.6025
   84SOL    HW2  252   0.152   1.044   3.062  1.4195 -0.2495  0.6196
   85SOL     OW  253   2.362   2.230   1.049  0.4129 -0.6002 -0.3291
   85SOL    HW1  254   2.333   2.190   0.958  0.1982 -1.9830 -1.6680
   85SOL    HW2  255   2.459   2.224   1.071  0.0305  0.6414 -1.0032
   86SOL     OW  256   0.407   2.469   1.362 -0.0879  0.5399  0.5763
   86SOL    HW1  257   0.506   2.486   1.350  1.6454 -0.0571 -0.1332
   86SOL    HW2  258   0.366   2.438   1.271 -0.2426 -0.7073  4.4212
   87SOL     OW  259   0.720   2.501   2.151  0.0096  0.0400  0.1389
   87SOL    HW1  260   0.773   2.540   2.230 -1.6807 -0.8345  2.3709
   87SOL    HW2  261   0.618   2.516   2.161  0.3080 -0.3670  0.3454
   88SOL     OW  262   0.132   2.125   0.193 -0.1216  0.4419  0.7827
   88SOL    HW1  263   0.049   2.179   0.188  0.6351 -0.9665 -0.8341
   88SOL    HW2  264   0.121   2.027   0.172  0.6954  2.2537 -0.0900
   89SOL     OW  265   0.840   0.861   0.708  0.4642 -0.1959 -0.3483
   89SOL    HW1  266   0.781   0.937   0.673 -0.2907  1.4328  0.2130
   89SOL    HW2  267   0.915   0.839   0.647 -2.8654 -1.5218  1.3852
   90SOL     OW  268   0.220   1.327   2.154 -0.1201 -0.1431  0.1410
   90SOL    HW1  269   0.227   1.427   2.139 -1.7420  0.6804 -0.3925
   90SOL    HW2  270   0.132   1.290   2.115  2.9617 -0.7687 -0.5446
   91SOL     OW  271   1.743   0.975   0.803  0.1042  0.1041  0.6150
   91SOL    HW1  272   1.709   1.073   0.791  0.4699  1.8680 -1.4385
   91SOL    HW2  273   1.667   0.905   0.776 -0.7885 -0.7854 -1.8473
   92SOL     OW  274   2.124   1.236   0.941  0.6121  0.8181  0.0762
   92SOL    HW1  275   2.041   1.290   0.933  0.2292  0.4537  1.0982
   92SOL    HW2  276   2.147   1.187   0.854 -1.2198 -2.2084  2.6810
   93SOL     OW  277   2.743   0.843   2.385  0.1097  0.2989 -0.2746
   93SOL    HW1  278   2.665   0.805   2.329 -0.8188 -3.6225  0.5325
   93SOL    HW2  279   2.814   0.772   2.406  0.1335  0.8333  0.5304
   94SOL     OW  280   1.961   1.952   2.660 -0.2234  0.2044  0.6918
   94SOL    HW1  281   1.884   2.004   2.620 -1.5829 -1.9390  1.4633
   94SOL    HW2  282   2.045   2.012   2.673 -2.1233 -0.1078 -1.4863
   95SOL     OW  283   2.806   0.167   1.099  0.0867 -1.0002  0.3237
   95SOL    HW1  284   2.834   0.177   1.004  1.4567  0.8736  2.7821
   95SOL    HW2  285   2.844   0.084   1.143 -2.5080 -2.5312  1.8474
   96SOL     OW  286   2.669   2.738   1.555 -0.4079 -0.2697 -0.0702
   96SOL    HW1  287   2.666   2.714   1.658 -1.0192  0.0624  0.4580
   96SOL    HW2  288   2.577   2.771   1.532  0.5163  0.5344 -0.4482
   97SOL     OW  289   2.688   0.961   1.643  0.0377  0.4981  0.0507
   97SOL    HW1  290   2.771   0.916   1.687  3.6152  0.5222 -1.3293
   97SOL    HW2  291   2.677   1.051   1.681  2.3771 -2.8358  0.7224
   98SOL     OW  292   1.974   2.575   1.781 -0.0644 -0.5734  0.2117
   98SOL    HW1  293   2.017   2.514   1.850 -0.6289 -1.0890  2.2709
   98SOL    HW2  294   1.908   2.529   1.717  0.1802  0.3573 -0.8587
   99SOL     OW  295   0.321   2.688   1.603  0.2531 -0.0249 -0.7063
   99SOL    HW1  296   0.376   2.628   1.667  2.8432 -1.1238 -0.1568
   99SOL    HW2  297   0.345   2.657   1.508  1.4679 -0.3815  2.5871
  100SOL     OW  298   1.587   0.558   2.571  0.1049  0.3848 -0.1293
  100SOL    HW1  299   1.616   0.651   2.547  1.8465 -2.6063  0.1509
  100SOL    HW2  300   1.600   0.543   2.672  0.9043 -1.7019 -3.3494
  101SOL     OW  301   2.428   0.449   2.729 -0.4402  0.3406  0.3588
  101SOL    HW1  302   2.360   0.377   2.725  0.0534  1.6118  2.8100
  101SOL    HW2  303   2.440   0.500   2.641 -0.6695 -1.0169  1.4600
  102SOL     OW  304   0.486   0.816   1.408  0.0570 -0.2189 -0.5153
  102SOL    HW1  305   0.436   0.829   1.497 -1.1659 -1.8631 -0.7629
  102SOL    HW2  306   0.586   0.790   1.419  0.5982  1.2426 -0.1211
  103SOL     OW  307   0.880   0.954   2.735  0.2014  0.0781 -0.4646
  103SOL    HW1  308   0.966   0.935   2.686  1.1255 -1.2785 -1.9239
  103SOL    HW2  309   0.839   0.871   2.779 -0.3578 -1.5637  1.5195
  104SOL     OW  310   0.341   0.872   2.656 -0.5860 -0.1046  0.0535
  104SOL    HW1  311   0.243   0.889   2.656  2.7684 -1.0066  1.1328
  104SOL    HW2  312   0.356   0.771   2.686 -1.8247 -0.4583  0.8744
  105SOL     OW  313   2.215   2.027   1.441 -0.4970 -0.1337  0.1812
  105SOL    HW1  314   2.214   2.081   1.531  0.2674 -2.4046 -0.7491
  105SOL    HW2  315   2.123   1.993   1.415  2.0273 -0.8561 -0.4352
  106SOL     OW  316   1.866   2.893   0.539  0.2317  0.5992  0.1617
  106SOL    HW1  317   1.793   2.819   0.557 -4.5408 -2.2850  1.1718
  106SOL    HW2  318   1.951   2.881   0.596 -1.3401  1.6207 -0.5706
  107SOL     OW  319   2.053   2.220   1.102 -0.2710 -0.8480  0.4402
  107SOL    HW1  320   2.039   2.123   1.122  0.0870 -1.5657  0.0465
  107SOL    HW2  321   2.105   2.270   1.171 -0.0421 -1.4334 -1.5710
  108SOL     OW  322   2.825   2.642   1.359 -0.7659 -0.8890  0.2826
  108SOL    HW1  323   2.805   2.541   1.371  0.5169 -0.9136  0.6901
  108SOL    HW2  324   2.785   2.699   1.434  0.7216  0.6789  0.0879
  109SOL     OW  325   2.098   2.430   0.934 -0.3789  0.3098 -0.0482
  109SOL    HW1  326   2.163   2.383   0.870  3.1291 -1.9161  1.0244
  109SOL    HW2  327   2.080   2.363   1.009  0.8180 -1.6707  0.7522
  110SOL     OW  328   1.124   1.816   2.103  0.0079  0.0149 -0.0475
  110SOL    HW1  329   1.034   1.760   2.109 -4.7949  2.0194 -0.9722
  110SOL    HW2  330   1.136   1.855   2.006 -1.5486  2.7772  0.3388
  111SOL     OW  331   1.727   2.199   2.149 -0.0949  0.0398 -0.4633
  111SOL    HW1  332   1.721   2.171   2.049 -0.1916  0.8849  1.0522
  111SOL    HW2  333   1.664   2.277   2.172  1.9568  1.3695  0.0402
  112SOL     OW  334   1.534   1.843   2.519  0.4027 -0.3061  0.2970
  112SOL    HW1  335   1.560   1.893   2.431 -1.6666 -0.1987 -1.7330
  112SOL    HW2  336   1.615   1.800   2.567  0.3303  1.8378  0.5880
  113SOL     OW  337   1.861   1.892   1.864  0.1568  0.2207  0.1846
  113SOL    HW1  338   1.795   1.968   1.882 -1.8414 -0.1370 -1.0228
  113SOL    HW2  339   1.852   1.819   1.942  0.7912  2.0752  2.1367
  114SOL     OW  340   0.063   0.984   1.466 -0.2044 -0.9104 -0.1429
  114SOL    HW1  341   0.047   1.036   1.380  1.5499  0.0075  0.9585
  114SOL    HW2  342   3.095   0.909   1.487  0.7266 -0.7730 -2.1468
  115SOL     OW  343   0.825   0.748   0.053 -0.8361 -0.3937  0.4831
  115SOL    HW1  344   0.772   0.752   0.141 -2.0526  1.3722  0.0599
  115SOL    HW2  345   0.908   0.811   0.062 -1.3337  1.1539  0.9392
  116SOL     OW  346   2.872   2.079   2.253 -0.6231 -0.2451  0.0059
  116SOL    HW1  347   2.885   2.037   2.160  1.7218 -0.3706  0.8480
  116SOL    HW2  348   2.812   2.018   2.308  0.1331 -0.6255  0.0941
  117SOL     OW  349   0.017   2.618   0.693  0.3022 -0.0595  0.2852
  117SOL    HW1  350   0.024   2.597   0.594  0.5593  1.8715 -0.2202
  117SOL    HW2  351   0.060   2.547   0.746 -3.7040 -2.4214 -2.7411
  118SOL     OW  352   0.815   1.949   2.906 -0.1642  0.2291 -0.2121
  118SOL    HW1  353   0.749   2.024   2.883  0.6611  2.7780 -0.6090
  118SOL    HW2  354   0.837   1.893   2.822  3.3302 -0.8372 -1.2710
  119SOL     OW  355   0.560   2.015   0.380 -0.0020 -0.2269 -0.2715
  119SOL    HW1  356   0.497   1.992   0.460  2.8201  2.6213 -2.4241
  119SOL    HW2  357   0.574   2.118   0.384 -1.1066  0.9913 -0.2567
  120SOL     OW  358   1.229   0.636   0.192 -0.1648 -1.0054  0.3266
  120SOL    HW1  359   1.236   0.679   0.284  0.0463 -0.6348  1.7316
  120SOL    HW2  360   1.165   0.556   0.197  3.0364  0.3901 -0.8988
  121SOL     OW  361   1.458   2.378   0.667  0.4783 -0.5165 -0.3238
  121SOL    HW1  362   1.491   2.285   0.697  0.4618  0.1011  0.7740
  121SOL    HW2  363   1.461   2.388   0.568 -3.0870  0.6240  1.6119
  122SOL     OW  364   2.879   2.277   1.701  0.3291  0.0828 -0.3428
  122SOL    HW1  365   2.962   2.234   1.666 -1.1635 -0.7483  2.1338
  122SOL    HW2  366   2.898   2.306   1.800 -0.3258  1.9804 -1.0515
  123SOL     OW  367   0.610   1.731   0.835 -0.1008  0.1625  0.2629
  123SOL    HW1  368   0.681   1.798   0.817  0.5592 -1.6778  2.1270
  123SOL    HW2  369   0.546   1.733   0.755  0.0442 -1.1625 -1.5831
  124SOL     OW  370   0.061   0.952   0.453  0.3760  0.1307  0.4767
  124SOL    HW1  371   0.017   0.858   0.474 -2.5526 -1.6419 -1.4658
  124SOL    HW2  372   0.000   1.007   0.390  0.3947  3.2306  2.2752
  125SOL     OW  373   0.333   0.773   3.030 -0.5346  0.0683  0.8223
  125SOL    HW1  374   0.293   0.848   2.974  0.5160  1.7575 -1.1280
  125SOL    HW2  375   0.272   0.741   0.003 -2.2403  1.5017 -0.1721
  126SOL     OW  376   2.970   1.766   0.522  0.1311 -0.4463 -0.3053
  126SOL    HW1  377   2.949   1.672   0.564  1.3712  0.6426 -1.0637
  126SOL    HW2  378   3.036   1.820   0.576 -1.1306 -1.3995  0.6491
  127SOL     OW  379   1.359   2.404   1.842 -0.2170  0.7317 -0.2693
  127SOL    HW1  380   1.260   2.379   1.858 -1.4247 -3.5822 -2.7006
  127SOL    HW2  381   1.418   2.392   1.924  0.0663 -0.2201  2.7737
  128SOL     OW  382   1.219   1.155   0.119 -0.3665  0.1875 -0.3062
  128SOL    HW1  383   1.176   1.119   0.035  0.0473  2.7981 -1.4378
  128SOL    HW2  384   1.199   1.253   0.121  0.3903 -3.3918 -3.1275
  129SOL     OW  385   1.823   1.840   1.597  0.2837 -0.1937 -0.6563
  129SOL    HW1  386   1.805   1.930   1.549 -1.5597  0.0741 -1.2066
  129SOL    HW2  387   1.841   1.856   1.696  0.6998  2.7995 -1.3751
  130SOL     OW  388   2.078   1.741   1.635  0.0774  0.4187 -0.4545
  130SOL    HW1  389   2.100   1.795   1.718 -0.8847 -0.4657 -0.5839
  130SOL    HW2  390   1.991   1.761   1.590  2.1143  1.1678 -0.1356
  131SOL     OW  391   2.848   3.010   2.854 -0.0020  0.7354 -0.6904
  131SOL    HW1  392   2.774   3.073   2.818 -1.9894 -0.6955  0.9230
  131SOL    HW2  393   2.874   2.935   2.788  0.9693  0.4206 -0.8614
  132SOL     OW  394   2.452   2.052   0.583  0.2145 -0.4009 -0.1361
  132SOL    HW1  395   2.480   2.029   0.484  1.6365  0.2315 -0.6441
  132SOL    HW2  396   2.473   2.147   0.601 -0.5294 -0.8842  0.1451
  133SOL     OW  397   0.627   0.132   2.339 -0.5582  0.2384  0.2467
  133SOL    HW1  398   0.598   0.055   2.282 -0.1538  2.4624  2.1497
  133SOL    HW2  399   0.614   0.223   2.301  1.6341 -2.0044  0.1698
  134SOL     OW  400   2.900   2.057   3.050  0.2061 -0.2258 -0.1208
  134SOL    HW1  401   2.960   1.974   3.025  1.3549 -1.6176 -1.5523
  134SOL    HW2  402   2.829   2.076   2.979 -1.7195  0.0647 -1.0547
  135SOL     OW  403   1.508   0.929   2.192  0.6309  0.1718 -0.3034
  135SOL    HW1  404   1.494   1.004   2.262  2.0718 -0.2065  0.1259
  135SOL    HW2  405   1.512   0.964   2.099 -0.3074  2.1028  2.2035
  136SOL     OW  406   2.337   1.748   0.712 -0.5900  0.4554  0.4557
  136SOL    HW1  407   2.438   1.740   0.728  1.3439 -1.2710  1.0397
  136SOL    HW2  408   2.293   1.673   0.764 -1.6393 -0.2497 -0.5831
  137SOL     OW  409   2.601   1.682   0.762 -0.1009  0.5220 -0.3332
  137SOL    HW1  410   2.589   1.579   0.788 -1.9067 -1.4516  1.0914
  137SOL    HW2  411   2.653   1.722   0.840 -1.0562  1.7464  2.1202
  138SOL     OW  412   2.745   0.591   1.072  0.1277  0.6259  0.1854
  138SOL    HW1  413   2.705   0.678   1.111  0.2257 -1.1762 -1.5984
  138SOL    HW2  414   2.811   0.612   0.996 -0.7360  2.0846  1.1975
  139SOL     OW  415   0.297   2.613   2.960  0.8879 -0.2960  0.3758
  139SOL    HW1  416   0.382   2.565   2.993 -0.2814 -1.1418  0.5170
  139SOL    HW2  417   0.270   2.574   2.866  1.1793 -0.1889 -1.3401
  140SOL     OW  418   0.730   1.819   1.466  0.2208 -0.0228  0.0003
  140SOL    HW1  419   0.774   1.828   1.560 -0.7837 -0.3186  1.3811
  140SOL    HW2  420   0.779   1.875   1.391 -1.9591  0.7027 -1.8561
  141SOL     OW  421   1.177   2.137   0.719 -0.0400  0.2781  0.1856
  141SOL    HW1  422   1.127   2.049   0.740 -3.9826 -2.5338 -0.7995
  141SOL    HW2  423   1.132   2.210   0.777 -0.2819  2.1779  0.7948
  142SOL     OW  424   1.042   0.624   0.854 -0.3887  0.0078  0.4436
  142SOL    HW1  425   0.963   0.590   0.799 -1.5204 -0.4852 -1.8185
  142SOL    HW2  426   1.025   0.709   0.906  1.3242  0.1668 -3.0903
  143SOL     OW  427   0.775   1.179   2.847  0.1220  0.5182 -0.7462
  143SOL    HW1  428   0.800   1.200   2.944 -1.2183 -0.9455  0.3702
  143SOL    HW2  429   0.829   1.102   2.806 -1.2112 -0.7150 -1.6917
  144SOL     OW  430   1.869   2.488   0.739 -0.2062  0.7104 -0.3503
  144SOL    HW1  431   1.783   2.513   0.780  1.8999 -1.4172  1.2004
  144SOL    HW2  432   1.925   2.462   0.821  0.4066 -2.5588  0.1168
  145SOL     OW  433   1.828   0.885   2.826  0.5169  0.8103 -0.8203
  145SOL    HW1  434   1.900   0.922   2.772 -1.5793  1.4828 -1.8108
  145SOL    HW2  435   1.823   0.785   2.836 -1.4482 -1.2539  0.4398
  146SOL     OW  436   2.937   2.832   0.763  0.4113 -0.2303 -0.0569
  146SOL    HW1  437   2.868   2.830   0.837  1.4310  0.0778 -2.2869
  146SOL    HW2  438   3.002   2.759   0.776 -1.4090  1.8351 -0.2815
  147SOL     OW  439   1.148   0.885   2.117 -0.0832 -0.0527 -0.3062
  147SOL    HW1  440   1.185   0.941   2.037  1.7695  2.2924 -0.6810
  147SOL    HW2  441   1.224   0.838   2.169  2.6670 -2.6751  2.3253
  148SOL     OW  442   1.250   0.516   2.060  0.5711 -0.3138  0.0045
  148SOL    HW1  443   1.272   0.603   2.108  1.2170  0.0520 -0.8882
  148SOL    HW2  444   1.251   0.436   2.114 -1.9892  2.6208 -4.4738
  149SOL     OW  445   1.586   0.198   2.204  0.2506 -0.1126  0.1406
  149SOL    HW1  446   1.570   0.298   2.180  1.4990  1.9614  0.0123
  149SOL    HW2  447   1.563   0.136   2.128 -0.1495 -0.0031 -3.0731
  150SOL     OW  448   2.605   0.042   0.142 -0.4757 -0.1555  0.2444
  150SOL    HW1  449   2.699   0.017   0.112  1.0097  2.4161 -0.8059
  150SOL    HW2  450   2.583   0.135   0.117 -2.3760 -4.2330 -1.9031
  151SOL     OW  451   0.577   1.365   3.044 -0.1869 -0.6469 -0.6207
  151SOL    HW1  452   0.545   1.269   3.033  1.5639 -0.6227 -3.6306
  151SOL    HW2  453   0.502   1.433   3.027 -0.4828  0.5208  1.1159
  152SOL     OW  454   2.954   0.164   0.854  1.4369 -0.2587  0.0793
  152SOL    HW1  455   2.990   0.078   0.808  2.6781  0.1617 -0.7724
  152SOL    HW2  456   3.031   0.232   0.867  1.5120  1.2646 -2.9271
  153SOL     OW  457   2.465   0.280   1.550  0.2929  0.0906 -0.1850
  153SOL    HW1  458   2.399   0.203   1.568 -2.6971 -3.3444  3.1195
  153SOL    HW2  459   2.545   0.249   1.494  0.0940  2.9529 -0.7998
  154SOL     OW  460   1.539   0.492   2.144  0.2680  0.3829 -0.2320
  154SOL    HW1  461   1.613   0.554   2.174 -1.3650 -0.7261  3.2140
  154SOL    HW2  462   1.493   0.520   2.055 -0.1998 -0.6721 -0.7271
  155SOL     OW  463   2.978   1.766   0.243 -0.0336 -0.0563  0.6008
  155SOL    HW1  464   3.061   1.820   0.216  0.7164 -0.3457 -0.8288
  155SOL    HW2  465   2.963   1.773   0.345  0.7022  1.4831 -0.2152
  156SOL     OW  466   2.787   1.781   2.871 -0.2656  0.1687 -0.4005
  156SOL    HW1  467   2.887   1.789   2.869 -2.4705  1.6216  4.3142
  156SOL    HW2  468   2.756   1.713   2.945 -3.1272  0.5983  0.8685
  157SOL     OW  469   0.739   0.152   0.679  0.1278 -0.4060  0.6628
  157SOL    HW1  470   0.701   0.055   0.677 -1.8914  0.2690 -0.3646
  157SOL    HW2  471   0.742   0.191   0.583 -0.7016 -0.4982  1.0929
  158SOL     OW  472   2.230   0.671   1.722 -0.0869 -0.0047 -0.6230
  158SOL    HW1  473   2.252   0.620   1.810 -0.6337 -0.6089  1.2342
  158SOL    HW2  474   2.267   0.624   1.642 -0.9107  0.7894 -2.3149
  159SOL     OW  475   0.000   0.479   0.508  0.2921 -0.2249 -0.2735
  159SOL    HW1  476   3.016   0.444   0.558 -1.6374 -2.1985  1.7790
  159SOL    HW2  477   0.061   0.404   0.471  0.0312 -2.6538 -1.3958
  160SOL     OW  478   2.057   2.086   1.850  0.0601 -0.1517  0.2014
  160SOL    HW1  479   2.048   2.129   1.940 -1.8031 -2.5695 -1.5174
  160SOL    HW2  480   1.987   2.007   1.849 -2.2476 -1.4774  1.0692
  161SOL     OW  481   2.925   0.628   2.441  0.6230 -0.6792  0.0674
  161SOL    HW1  482   2.933   0.663   2.534 -1.3693  0.9873 -2.3966
  161SOL    HW2  483   2.979   0.547   2.426 -1.2639  3.0206  1.7581
  162SOL     OW  484   1.003   2.701   1.361 -0.4047 -0.7554  0.2391
  162SOL    HW1  485   0.983   2.645   1.443 -2.3950 -3.6063 -1.1688
  162SOL    HW2  486   1.038   2.791   1.390 -3.9415  0.8822  1.3385
  163SOL     OW  487   2.471   0.217   2.369  0.1851 -0.0064 -0.5388
  163SOL    HW1  488   2.546   0.154   2.347  3.6984 -0.8965  0.0387
  163SOL    HW2  489   2.501   0.307   2.409 -0.4198  0.5881  2.4354
  164SOL     OW  490   2.219   1.742   3.022 -0.1660  0.3137 -0.7199
  164SOL    HW1  491   2.184   1.768   0.015 -1.7096 -1.2400 -3.4240
  164SOL    HW2  492   2.260   1.646   3.023  1.9957 -0.2771 -0.5192
  165SOL     OW  493   3.078   0.501   1.099 -0.4691  0.2306 -0.0819
  165SOL    HW1  494   0.022   0.442   1.027 -0.6036  1.2036 -3.4357
  165SOL    HW2  495   2.985   0.526   1.058 -1.9395 -1.2542  1.0435
  166SOL     OW  496   2.299   0.838   0.535 -0.8632  0.0637 -0.3201
  166SOL    HW1  497   2.385   0.822   0.578  1.0641  0.8940  0.1627
  166SOL    HW2  498   2.290   0.932   0.502 -2.2535  0.3941  1.4614
  167SOL     OW  499   2.686   0.958   2.996  0.0303  0.3699  0.2940
  167SOL    HW1  500   2.607   0.893   2.983 -0.0130  3.3581 -0.4492
  167SOL    HW2  501   2.657   1.039   3.045  0.8195  1.1455 -2.2312
  168SOL     OW  502   1.750   0.225   2.938 -0.6316 -0.0859 -0.1304
  168SOL    HW1  503   1.834   0.204   2.994 -1.0321  0.1117  0.6840
  168SOL    HW2  504   1.729   0.146   2.877  0.4845 -2.1344 -0.3651
  169SOL     OW  505   0.197   1.500   0.873  0.1937 -0.0097 -0.7603
  169SOL    HW1  506   0.137   1.457   0.945 -2.5098  1.4151  0.4873
  169SOL    HW2  507   0.294   1.509   0.909 -1.2090  1.1561 -1.9381
  170SOL     OW  508   0.053   0.763   1.170 -0.1794  0.0286  0.6905
  170SOL    HW1  509   0.149   0.798   1.186  0.8565  1.1861  2.4798
  170SOL    HW2  510   0.055   0.665   1.155  2.8105  1.0179  1.4390
  171SOL     OW  511   2.563   1.992   2.009 -0.2526 -0.3693 -0.1019
  171SOL    HW1  512   2.603   2.019   1.921 -0.8914 -1.0039 -0.0621
  171SOL    HW2  513   2.465   1.977   1.991  0.3595  2.4077 -2.3279
  172SOL     OW  514   0.299   2.233   1.497 -0.6826 -0.3511  0.0420
  172SOL    HW1  515   0.249   2.176   1.428  1.0842 -0.2382  1.3662
  172SOL    HW2  516   0.328   2.323   1.463 -1.0983 -0.0812  1.1446
  173SOL     OW  517   1.435   1.412   3.043  0.0283  0.0702 -0.1609
  173SOL    HW1  518   1.476   1.330   3.009 -0.8219  4.5198  1.9154
  173SOL    HW2  519   1.341   1.434   3.004  2.6129  0.1448  0.6937
  174SOL     OW  520   1.399   0.571   2.873 -0.1240 -0.3288  0.0750
  174SOL    HW1  521   1.434   0.642   2.810  2.7115 -1.1792 -1.6939
  174SOL    HW2  522   1.426   0.595   2.970 -0.9076 -0.0672  0.4450
  175SOL     OW  523   1.256   1.652   1.171 -0.3563  0.4659  0.0409
  175SOL    HW1  524   1.346   1.679   1.207  0.1094 -1.8457  2.2221
  175SOL    HW2  525   1.260   1.553   1.151  0.6539  0.8092 -0.9817
  176SOL     OW  526   1.437   3.090   0.332 -0.1445 -0.2229  0.2293
  176SOL    HW1  527   1.378   0.043   0.267 -0.2544 -0.9967  0.3307
  176SOL    HW2  528   1.525   0.047   0.338 -0.2871  1.2067  1.5972
  177SOL     OW  529   0.456   1.140   0.001 -0.1490  0.7709 -0.1334
  177SOL    HW1  530   0.380   1.166   0.058 -1.7493  0.4495  0.5546
  177SOL    HW2  531   0.531   1.094   0.050 -1.8802 -0.3385 -1.8272
  178SOL     OW  532   2.322   2.364   2.200  0.2604 -0.1299  0.2599
  178SOL    HW1  533   2.286   2.420   2.282 -1.8240 -1.9536  2.0033
  178SOL    HW2  534   2.333   2.422   2.115 -3.6881 -0.9281  1.3688
  179SOL     OW  535   2.828   0.138   2.529  0.2683 -0.9539 -0.5103
  179SOL    HW1  536   2.785   0.155   2.617  0.6794 -1.6454  0.3345
  179SOL    HW2  537   2.762   0.090   2.469 -1.3846 -1.2209  0.0402
  180SOL     OW  538   1.933   0.703   0.775  0.6137 -0.4087  0.6422
  180SOL    HW1  539   1.990   0.620   0.803  3.6585  0.6197  0.3233
  180SOL    HW2  540   1.962   0.780   0.837 -1.8130 -1.1587 -2.5166
  181SOL     OW  541   2.190   1.203   2.440  0.0752 -0.2698  0.6528
  181SOL    HW1  542   2.282   1.174   2.412  0.5347 -0.2990 -1.5669
  181SOL    HW2  543   2.136   1.123   2.478 -1.2787 -0.8102  1.1810
  182SOL     OW  544   2.708   2.393   2.077  0.3064  0.0082  0.3393
  182SOL    HW1  545   2.797   2.352   2.045  0.3870  2.1840 -1.4451
  182SOL    HW2  546   2.682   2.353   2.162  1.4108  2.5815 -2.6672
  183SOL     OW  547   1.963   0.682   1.782  0.1420 -0.1291  0.0616
  183SOL    HW1  548   1.928   0.657   1.879 -0.5379 -1.1035  2.2555
  183SOL    HW2  549   2.066   0.697   1.778 -0.8415 -1.2616  1.7738
  184SOL     OW  550   3.093   1.503   1.356 -0.4070  0.6453  0.2992
  184SOL    HW1  551   0.003   1.482   1.256  0.3357  0.7232 -2.0839
  184SOL    HW2  552   0.067   1.458   1.410 -0.3674 -1.1599 -2.4616
  185SOL     OW  553   2.479   0.112   0.973  0.3424 -0.0758  0.6615
  185SOL    HW1  554   2.472   0.197   0.914 -1.8676 -0.9696 -0.5687
  185SOL    HW2  555   2.514   0.035   0.916 -0.0194 -1.5267  0.3576
  186SOL     OW  556   2.934   2.528   2.703 -0.0655  0.2187  0.2139
  186SOL    HW1  557   2.907   2.434   2.732  0.1802  0.2799  0.4663
  186SOL    HW2  558   2.994   2.569   2.775 -0.1486  0.1423  0.2804
  187SOL     OW  559   2.890   1.508   0.639 -0.2855 -0.2382  0.2948
  187SOL    HW1  560   2.915   1.462   0.727 -0.5020  0.6001  1.4618
  187SOL    HW2  561   2.800   1.478   0.603  0.4395  1.5818  0.5309
  188SOL     OW  562   2.532   1.205   1.134 -0.2168 -0.1097 -0.0947
  188SOL    HW1  563   2.443   1.260   1.121 -5.9904 -0.6119 -0.7614
  188SOL    HW2  564   2.545   1.176   1.234  0.2282 -1.5540 -0.1700
  189SOL     OW  565   2.989   0.342   2.427  0.9031 -0.0440  0.2225
  189SOL    HW1  566   2.924   0.289   2.482  0.8083 -1.2675 -0.8245
  189SOL    HW2  567   3.089   0.325   2.448 -4.1371 -0.3937 -1.2638
  190SOL     OW  568   1.515   0.582   1.854 -0.0814  0.2911  0.4090
  190SOL    HW1  569   1.468   0.664   1.883  0.8284 -2.3576  1.9169
  190SOL    HW2  570   1.535   0.576   1.755 -0.9051 -3.3892  0.3008
  191SOL     OW  571   0.849   0.455   2.123 -0.0323  0.3339  0.6030
  191SOL    HW1  572   0.915   0.373   2.116 -1.3541 -0.7252 -1.2004
  191SOL    HW2  573   0.898   0.545   2.136  0.0204 -2.5393 -0.8173
  192SOL     OW  574   1.456   2.029   1.951  0.2334  0.1843 -0.1885
  192SOL    HW1  575   1.457   1.948   2.009 -2.1388  2.9153 -5.5517
  192SOL    HW2  576   1.416   2.005   1.857 -1.1430 -1.9439 -2.4053
  193SOL     OW  577   1.387   0.246   0.823 -0.0781 -0.1591  0.0054
  193SOL    HW1  578   1.315   0.300   0.869 -0.2953 -0.1327 -0.9353
  193SOL    HW2  579   1.468   0.228   0.885  2.3374 -0.2135  1.3344
  194SOL     OW  580   0.854   2.076   1.357 -0.2649 -0.1225 -0.3448
  194SOL    HW1  581   0.845   2.028   1.270 -1.4367  2.9997 -0.4547
  194SOL    HW2  582   0.949   2.071   1.400  2.1938  2.2463 -3.7840
  195SOL     OW  583   1.511   0.570   0.375  0.0937 -0.1479  0.0669
  195SOL    HW1  584   1.580   0.644   0.391 -1.1260  0.5780  1.2677
  195SOL    HW2  585   1.533   0.515   0.295 -0.8762  0.8583 -0.8671
  196SOL     OW  586   0.598   1.542   1.793  0.2099  0.5012 -0.1083
  196SOL    HW1  587   0.649   1.526   1.709  1.2502 -0.4102 -0.0236
  196SOL    HW2  588   0.527   1.610   1.767 -1.5726 -0.4638  0.0650
  197SOL     OW  589   1.020   0.311   1.755  0.0686 -0.2167  0.1150
  197SOL    HW1  590   1.037   0.291   1.657 -2.9595  0.0569  3.4671
  197SOL    HW2  591   1.059   0.403   1.787  5.4590  1.8851  1.2865
  198SOL     OW  592   0.950   1.197   0.882 -0.1620  0.4202  0.0080
  198SOL    HW1  593   0.904   1.221   0.969 -0.8843 -0.7566 -0.3689
  198SOL    HW2  594   1.046   1.163   0.890  3.7984  1.0790 -1.4908
  199SOL     OW  595   0.038   2.344   1.579  0.2132 -0.2935 -0.0961
  199SOL    HW1  596   0.008   2.427   1.635 -0.8894  1.2799 -1.7364
  199SOL    HW2  597   0.138   2.323   1.583 -1.6855 -0.4529 -1.4882
  200SOL     OW  598   1.503   1.058   1.930 -0.0493 -0.0937 -0.4693
  200SOL    HW1  599   1.493   1.158   1.955  0.0786  1.1202 -0.9156
  200SOL    HW2  600   1.409   1.019   1.906 -0.9850 -0.4152  1.3981
  201SOL     OW  601   0.791   1.797   2.282  0.3006  0.1241  0.0270
  201SOL    HW1  602   0.847   1.881   2.286 -1.5642 -1.1521 -0.5138
  201SOL    HW2  603   0.827   1.738   2.207 -0.1398 -1.0028 -1.2189
  202SOL     OW  604   1.113   0.055   0.329  0.4639  0.4124  0.0286
  202SOL    HW1  605   1.122   3.053   0.349 -2.4691 -1.1563  0.7290
  202SOL    HW2  606   1.180   0.088   0.253  0.3460  0.1738  0.6877
  203SOL     OW  607   1.384   0.018   2.385  0.1078 -0.5640 -0.1007
  203SOL    HW1  608   1.378   3.068   2.471 -0.3559  0.7309  0.4903
  203SOL    HW2  609   1.425   0.112   2.403  0.6300  3.2095 -0.4174
  204SOL     OW  610   0.876   1.816   1.702  0.0130 -0.5898  0.1614
  204SOL    HW1  611   0.956   1.832   1.641  0.1139  0.0330  0.0362
  204SOL    HW2  612   0.881   1.883   1.781 -0.6179  2.4039  0.8053
  205SOL     OW  613   1.682   1.435   2.337 -0.7182  0.2270  0.0421
  205SOL    HW1  614   1.747   1.387   2.272  2.5110 -0.1960 -0.2520
  205SOL    HW2  615   1.719   1.463   2.427  0.2040 -1.1880 -0.8987
  206SOL     OW  616   0.306   1.818   2.264  0.0984  0.0495 -0.2375
  206SOL    HW1  617   0.377   1.813   2.332 -1.5829  2.3092  2.0162
  206SOL    HW2  618   0.224   1.771   2.304 -1.3044 -1.1478  0.1176
  207SOL     OW  619   1.093   2.913   1.498 -0.2463 -0.3032 -0.1470
  207SOL    HW1  620   1.074   2.847   1.576  0.2219  0.1344  0.3784
  207SOL    HW2  621   1.159   2.988   1.523 -0.0666 -0.4064  0.9833
  208SOL     OW  622   0.489   2.539   1.774 -0.4782 -0.0959  0.0519
  208SOL    HW1  623   0.520   2.460   1.833 -0.9231 -0.4521  2.4147
  208SOL    HW2  624   0.556   2.553   1.700 -0.7396 -0.3397 -0.6314
  209SOL     OW  625   1.370   2.737   0.569 -0.1068 -0.1420  0.0280
  209SOL    HW1  626   1.422   2.749   0.653 -0.2509  2.3525 -0.7051
  209SOL    HW2  627   1.338   2.829   0.544  0.1486  0.9085  1.3776
  210SOL     OW  628   2.781   0.967   0.874 -0.7982 -0.2877  0.2716
  210SOL    HW1  629   2.822   0.894   0.811 -1.1757 -0.2328 -2.0981
  210SOL    HW2  630   2.683   0.951   0.889  3.3775  0.3670  1.8719
  211SOL     OW  631   0.553   0.261   1.949  0.1371  0.1122 -0.1217
  211SOL    HW1  632   0.649   0.283   1.927  0.3644 -1.0516 -1.1027
  211SOL    HW2  633   0.509   0.243   1.860  0.7802 -0.7029  0.9347
  212SOL     OW  634   1.444   2.368   1.598  0.3612 -0.0154  0.2600
  212SOL    HW1  635   1.494   2.448   1.559  0.2635 -1.1197  2.7664
  212SOL    HW2  636   1.413   2.385   1.697 -0.8694  1.0069  1.5329
  213SOL     OW  637   3.035   0.341   1.530  0.1148 -0.7712  0.0254
  213SOL    HW1  638   3.015   0.277   1.453  0.1110  1.3747  0.2333
  213SOL    HW2  639   2.967   0.413   1.542 -1.5586 -2.0679 -0.2142
  214SOL     OW  640   0.793   2.688   1.744  0.5378  0.1070 -0.5146
  214SOL    HW1  641   0.753   2.634   1.667  2.2943  0.8673 -1.9550
  214SOL    HW2  642   0.725   2.728   1.809  2.2332 -0.2620 -1.5927
  215SOL     OW  643   2.497   1.631   1.436  0.8648  0.0484  0.4306
  215SOL    HW1  644   2.412   1.576   1.429 -2.2343  1.1141 -2.6270
  215SOL    HW2  645   2.466   1.719   1.480 -2.5167 -2.4276 -1.7186
  216SOL     OW  646   0.408   0.864   2.153  0.0757  0.2672  0.1297
  216SOL    HW1  647   0.417   0.959   2.119 -0.6321  1.1110 -2.0565
  216SOL    HW2  648   0.483   0.801   2.120 -1.2424  0.6657  0.5536
  217SOL     OW  649   2.684   0.174   1.451 -0.2814 -0.6127  0.1098
  217SOL    HW1  650   2.764   0.116   1.458  0.8911 -1.0295 -3.2011
  217SOL    HW2  651   2.707   0.246   1.380 -2.6873  0.2383  0.0593
  218SOL     OW  652   1.439   2.204   1.083  0.6011  0.6822 -0.2968
  218SOL    HW1  653   1.440   2.187   0.982 -1.3403  2.2395 -2.0409
  218SOL    HW2  654   1.527   2.168   1.121 -1.1605  1.3221 -0.0142
  219SOL     OW  655   1.685   2.653   0.475  0.2925  0.1319  0.3877
  219SOL    HW1  656   1.585   2.663   0.496  2.0980  0.9616 -3.5896
  219SOL    HW2  657   1.704   2.657   0.375 -1.9979 -2.6090 -1.9671
  220SOL     OW  658   1.717   2.398   0.218  0.3407  0.2044  0.3258
  220SOL    HW1  659   1.637   2.340   0.187 -0.6950 -1.0376  0.5093
  220SOL    HW2  660   1.695   2.499   0.215  0.0206  0.6109  1.7440
  221SOL     OW  661   2.600   1.993   0.835 -0.0771  0.8328 -0.8123
  221SOL    HW1  662   2.550   2.010   0.746  0.4291 -1.8398 -0.6609
  221SOL    HW2  663   2.545   1.932   0.896 -1.8267  0.4163  1.4027
  222SOL     OW  664   1.078   2.309   0.895  0.5726  0.4137  0.0611
  222SOL    HW1  665   0.980   2.319   0.864 -0.0850 -1.6601  3.2873
  222SOL    HW2  666   1.069   2.277   0.989 -1.0176  1.6165 -1.4453
  223SOL     OW  667   1.106   2.759   3.036 -0.2845  0.0018 -0.1772
  223SOL    HW1  668   1.093   2.768   2.935  3.9780  3.1484 -0.0244
  223SOL    HW2  669   1.018   2.740   3.092 -1.7470  2.1555  3.2721
  224SOL     OW  670   3.072   1.003   1.030 -0.4721  0.0400 -0.1128
  224SOL    HW1  671   3.040   1.018   0.932 -0.9896  0.1746 -1.7079
  224SOL    HW2  672   3.049   0.913   1.065  1.4617  0.4045  0.2200
  225SOL     OW  673   2.885   1.778   0.871  0.0562  0.0099 -0.0574
  225SOL    HW1  674   2.861   1.874   0.848  2.4220  0.4424  0.8559
  225SOL    HW2  675   2.987   1.760   0.855  0.4776 -2.1720  1.3737
  226SOL     OW  676   0.931   2.668   0.863  0.5358  0.0612 -0.2084
  226SOL    HW1  677   0.920   2.612   0.777  2.9155 -2.0024 -0.1270
  226SOL    HW2  678   1.008   2.735   0.869  2.7322  4.1835  0.7305
  227SOL     OW  679   0.870   1.227   1.394 -0.1698 -0.2695  0.2589
  227SOL    HW1  680   0.861   1.196   1.291 -1.7387  0.3577 -3.7954
  227SOL    HW2  681   0.944   1.301   1.409 -0.3709  2.5975 -0.7580
  228SOL     OW  682   1.313   0.231   2.077  0.6113 -0.1545  0.1853
  228SOL    HW1  683   1.376   0.152   2.051 -0.3942 -2.5543 -0.2188
  228SOL    HW2  684   1.305   0.246   2.179 -0.2815  0.7771  0.5911
  229SOL     OW  685   0.035   0.793   2.324 -0.2949 -0.4442  0.4187
  229SOL    HW1  686   3.063   0.721   2.332  0.7805  0.3442  0.5224
  229SOL    HW2  687   0.116   0.742   2.295 -1.1445  0.7766  0.1517
  230SOL     OW  688   0.177   1.162   0.982 -0.2504  0.1627  0.5853
  230SOL    HW1  689   0.144   1.208   0.896  1.3436  2.4397 -1.0473
  230SOL    HW2  690   0.113   1.085   1.008 -0.1976 -0.3606 -0.4647
  231SOL     OW  691   1.526   0.265   2.457  0.2285 -0.2600  0.1955
  231SOL    HW1  692   1.568   0.356   2.478 -0.7159  0.1096 -1.0852
  231SOL    HW2  693   1.553   0.247   2.358  2.8981 -1.8249 -0.2141
  232SOL     OW  694   0.349   1.560   3.083 -0.4104 -0.4536 -0.3667
  232SOL    HW1  695   0.426   1.629   3.070  0.4360  2.3768  0.2438
  232SOL    HW2  696   0.333   1.540   0.082  0.4324 -0.9327  1.7557
  233SOL     OW  697   1.323   2.301   3.012 -0.1960 -0.1660 -0.7956
  233SOL    HW1  698   1.373   2.219   2.969 -1.0541  0.9461 -1.0307
  233SOL    HW2  699   1.271   2.356   2.947  0.2252 -1.5799  0.3788
  234SOL     OW  700   0.910   1.646   2.095  0.0979  0.3669 -0.0523
  234SOL    HW1  701   0.823   1.596   2.067  0.8989 -0.0466  0.0878
  234SOL    HW2  702   0.954   1.599   2.174  1.1451 -1.9404 -1.7930
  235SOL     OW  703   0.597   2.341   1.947 -0.1677 -0.3862 -0.5138
  235SOL    HW1  704   0.594   2.240   1.961  2.0042 -2.5880  0.7300
  235SOL    HW2  705   0.667   2.380   2.013  0.0321 -0.5480 -0.9840
  236SOL     OW  706   1.589   2.228   2.666 -0.2069 -1.0322  0.1800
  236SOL    HW1  707   1.487   2.224   2.650 -0.1851  0.8741 -1.4494
  236SOL    HW2  708   1.612   2.320   2.706 -0.8653  0.0871  2.4276
  237SOL     OW  709   1.471   0.527   0.785 -0.3857  0.1476  0.5852
  237SOL    HW1  710   1.573   0.515   0.786  2.3361 -2.2948 -0.6793
  237SOL    HW2  711   1.433   0.430   0.789 -0.7585  0.5748 -0.0737
  238SOL     OW  712   0.852   3.055   2.617 -0.4976  0.3023  0.1068
  238SOL    HW1  713   0.820   2.996   2.542  0.0260 -0.2069  0.3661
  238SOL    HW2  714   0.812   0.050   2.616  0.8581 -2.1995  0.5521
  239SOL     OW  715   1.161   2.977   1.868 -0.1311 -0.5929 -0.4076
  239SOL    HW1  716   1.118   2.892   1.826 -0.7937  1.3093  2.1361
  239SOL    HW2  717   1.110   3.065   1.842  0.1839  2.6265 -1.2247
  240SOL     OW  718   2.185   2.697   0.933  0.3306 -0.2631  0.5072
  240SOL    HW1  719   2.130   2.612   0.923  0.4811 -1.9948 -0.6770
  240SOL    HW2  720   2.237   2.693   1.019 -1.1229 -3.4201 -1.2575
  241SOL     OW  721   1.504   1.354   1.977 -0.0902  0.2216 -0.1555
  241SOL    HW1  722   1.471   1.322   1.888  0.5106  1.0252  0.3969
  241SOL    HW2  723   1.429   1.389   2.039 -0.3947 -0.2979 -0.4018
  242SOL     OW  724   2.668   0.648   0.377  0.4547 -0.0359  0.4402
  242SOL    HW1  725   2.746   0.627   0.318  0.7791  2.0038 -2.5208
  242SOL    HW2  726   2.608   0.569   0.387 -0.8342  1.8717  0.0332
  243SOL     OW  727   0.809   0.682   1.119 -0.5785 -0.5326  0.1016
  243SOL    HW1  728   0.817   0.675   1.220  0.2215  1.7179  2.1081
  243SOL    HW2  729   0.863   0.759   1.075  1.0096  0.2250 -1.3306
  244SOL     OW  730   1.503   0.262   3.075  0.3433 -0.0437 -0.0773
  244SOL    HW1  731   1.428   0.272   3.008  3.1393  0.4262  0.2566
  244SOL    HW2  732   1.584   0.240   3.022 -3.3366 -0.0961 -2.8321
  245SOL     OW  733   2.024   0.103   3.043 -0.1474 -0.2189 -0.4456
  245SOL    HW1  734   2.122   0.123   3.066  1.6985 -0.3843 -1.7024
  245SOL    HW2  735   2.023   0.028   2.972 -1.9753 -3.9004  2.2110
  246SOL     OW  736   1.033   0.962   1.370 -0.0994 -0.1707 -0.2612
  246SOL    HW1  737   1.017   0.991   1.467 -1.6376 -1.0946 -0.9414
  246SOL    HW2  738   1.115   0.902   1.366  0.2387  0.7196  1.7171
  247SOL     OW  739   0.575   0.010   2.099  0.1130 -0.4991  0.1293
  247SOL    HW1  740   0.506   3.043   2.067  0.8366  0.4941 -0.9424
  247SOL    HW2  741   0.577   0.091   2.041 -2.6000  0.2191 -1.3509
  248SOL     OW  742   0.178   1.625   1.655 -0.4482  0.1162  0.1702
  248SOL    HW1  743   0.096   1.649   1.712  1.9542 -1.6545  0.4487
  248SOL    HW2  744   0.264   1.663   1.699  0.8825  1.3831  1.8110
  249SOL     OW  745   3.012   0.134   2.888 -0.1441  0.0660 -0.0653
  249SOL    HW1  746   2.963   0.048   2.894 -0.0222  0.4435  0.7047
  249SOL    HW2  747   3.065   0.155   2.973  2.3534 -1.5057 -1.3420
  250SOL     OW  748   2.917   0.101   0.427  0.1177  0.2105 -0.4043
  250SOL    HW1  749   2.856   0.025   0.455  1.6621 -0.2798  1.3614
  250SOL    HW2  750   3.009   0.058   0.410  1.0841 -2.0579 -1.2786
  251SOL     OW  751   0.622   1.540   1.209 -0.5407  0.2543 -0.6834
  251SOL    HW1  752   0.655   1.507   1.116 -0.0923  0.2544 -0.9184
  251SOL    HW2  753   0.551   1.477   1.247 -2.3161  1.2329 -0.0699
  252SOL     OW  754   1.662   2.863   1.451 -0.2487 -0.6167  0.3095
  252SOL    HW1  755   1.730   2.805   1.399  1.6915  0.1708 -0.6947
  252SOL    HW2  756   1.583   2.885   1.388 -0.4386  0.6970 -1.2983
  253SOL     OW  757   2.350   1.816   2.653 -0.2467 -0.3565  0.8334
  253SOL    HW1  758   2.374   1.915   2.640 -1.0338  1.4261 -0.8122
  253SOL    HW2  759   2.436   1.771   2.670  1.0079 -2.6094 -2.8185
  254SOL     OW  760   0.627   2.031   2.354 -0.3622 -0.0002 -0.3858
  254SOL    HW1  761   0.646   1.938   2.326 -1.5708  0.2053  2.4030
  254SOL    HW2  762   0.597   2.041   2.452  3.5714 -1.3322  3.2374
  255SOL     OW  763   1.035   0.221   1.478  0.0368  0.0178  0.4339
  255SOL    HW1  764   1.104   0.279   1.424  2.7849  1.7071 -2.1919
  255SOL    HW2  765   0.957   0.185   1.421  0.3733 -1.4798 -2.5477
  256SOL     OW  766   2.359   2.006   1.227  0.3653  0.6326 -0.2277
  256SOL    HW1  767   2.301   2.018   1.310  2.0409  0.1245  0.7210
  256SOL    HW2  768   2.351   2.085   1.164 -0.0017 -0.5321  0.0340
  257SOL     OW  769   0.400   2.313   2.839  0.0188 -0.0614  0.1852
  257SOL    HW1  770   0.343   2.364   2.771 -0.8953 -1.4268 -1.1449
  257SOL    HW2  771   0.453   2.372   2.897  0.6573  1.8361 -3.1360
  258SOL     OW  772   0.554   1.734   3.004  0.0320 -0.1111  0.7788
  258SOL    HW1  773   0.644   1.782   3.008  0.5130  3.5867 -2.5700
  258SOL    HW2  774   0.538   1.687   2.914  0.1421 -0.0113  1.8430
  259SOL     OW  775   0.523   1.607   2.784 -0.3402  0.1813 -0.8242
  259SOL    HW1  776   0.430   1.609   2.743 -0.7650 -0.0331  0.8465
  259SOL    HW2  777   0.587   1.554   2.726 -0.3211  2.5725 -1.0126
  260SOL     OW  778   2.297   1.130   1.562  0.3354  0.7761 -0.1196
  260SOL    HW1  779   2.316   1.230   1.584 -2.4126  0.5311  0.7408
  260SOL    HW2  780   2.207   1.117   1.514 -0.2918  0.6710  1.2345
  261SOL     OW  781   1.243   0.624   0.653  0.3122  0.0942  0.8622
  261SOL    HW1  782   1.328   0.567   0.669  0.0579  1.2475 -2.2084
  261SOL    HW2  783   1.181   0.633   0.735  1.2687  1.6175 -0.5194
  262SOL     OW  784   1.795   2.122   2.510 -0.1819 -0.7002 -0.6716
  262SOL    HW1  785   1.872   2.192   2.502  0.7342 -1.6631 -0.1721
  262SOL    HW2  786   1.723   2.150   2.576  0.9411  1.6975 -0.8416
  263SOL     OW  787   0.077   1.623   0.009 -0.1002 -0.2645 -0.0026
  263SOL    HW1  788   0.011   1.551   0.047 -0.1882 -3.0245  0.7416
  263SOL    HW2  789   0.163   1.574   3.074  0.1853 -1.1497 -1.6478
  264SOL     OW  790   0.355   1.905   1.184 -0.0654  0.2622  0.2054
  264SOL    HW1  791   0.313   1.843   1.251  0.3400  1.2057 -1.2657
  264SOL    HW2  792   0.447   1.868   1.164  0.8226  0.1449  0.3735
  265SOL     OW  793   0.755   0.993   0.311 -0.2785  0.4809 -0.2886
  265SOL    HW1  794   0.855   0.965   0.327  1.8383  0.6595  1.8598
  265SOL    HW2  795   0.724   1.064   0.376 -1.5387 -0.4155 -1.4940
  266SOL     OW  796   1.308   1.722   0.080 -0.2248 -0.4437  0.4564
  266SOL    HW1  797   1.313   1.670   0.171  2.0541  0.8500  1.2602
  266SOL    HW2  798   1.220   1.716   0.035 -0.0767 -0.0522  0.8116
  267SOL     OW  799   0.639   0.730   2.065 -0.4261  0.5716 -0.1112
  267SOL    HW1  800   0.668   0.785   1.985 -0.2549  0.5321  0.3499
  267SOL    HW2  801   0.671   0.632   2.067 -1.5506 -4.2806  1.3668
  268SOL     OW  802   0.595   0.894   2.929 -0.4717 -0.2317  0.4946
  268SOL    HW1  803   0.636   0.976   2.976  3.0089  1.9861  0.9465
  268SOL    HW2  804   0.521   0.852   2.982  0.7233  1.9425 -1.4925
  269SOL     OW  805   1.723   2.952   2.572 -0.3394  0.1669 -0.4742
  269SOL    HW1  806   1.796   2.930   2.504 -2.1888  1.8560 -2.6770
  269SOL    HW2  807   1.652   2.882   2.585 -0.4333  2.5120 -2.6157
  270SOL     OW  808   1.027   1.485   2.299  0.1339 -0.7283 -0.2393
  270SOL    HW1  809   0.946   1.441   2.343  0.2087  0.1820  1.3664
  270SOL    HW2  810   1.119   1.464   2.337 -1.6637  2.5122 -0.2448
  271SOL     OW  811   0.075   0.162   3.091  0.2577  0.2236 -0.1770
  271SOL    HW1  812   0.112   0.258   3.078  0.3775 -0.1042 -1.9449
  271SOL    HW2  813   0.155   0.096   3.079 -1.2510  1.0633  0.7639
  272SOL     OW  814   2.294   0.831   0.250 -0.7471 -0.5810  0.1994
  272SOL    HW1  815   2.308   0.823   0.353  0.4180 -0.2080  5.2062
  272SOL    HW2  816   2.362   0.893   0.205 -2.4980 -1.1252  0.5950
  273SOL     OW  817   0.225   0.189   2.211 -0.2880  0.6509 -0.3568
  273SOL    HW1  818   0.151   0.214   2.146  0.6486 -0.8139  1.9372
  273SOL    HW2  819   0.190   0.217   2.305  0.4250 -0.6067  0.3446
  274SOL     OW  820   0.056   0.263   1.783  0.4511 -0.4514 -0.0454
  274SOL    HW1  821   0.005   0.339   1.823 -0.8359 -0.0236 -1.0042
  274SOL    HW2  822   0.023   0.244   1.689 -1.4639  0.1488 -0.6993
  275SOL     OW  823   1.382   1.705   0.634 -0.4543 -0.1048  0.3977
  275SOL    HW1  824   1.285   1.681   0.628  1.9590 -1.7377 -0.2145
  275SOL    HW2  825   1.416   1.666   0.720 -1.4798 -3.6047 -1.8957
  276SOL     OW  826   0.706   0.787   2.355 -0.1207  0.2025 -0.4085
  276SOL    HW1  827   0.721   0.876   2.413  3.9284  2.8125  1.7069
  276SOL    HW2  828   0.648   0.797   2.272 -1.2550 -0.2140 -0.0852
  277SOL     OW  829   1.944   2.470   2.268  0.1466 -0.3778  0.1648
  277SOL    HW1  830   1.925   2.420   2.184 -0.4685  0.0518 -1.1115
  277SOL    HW2  831   1.873   2.544   2.285 -3.6932  3.1202  0.6284
  278SOL     OW  832   1.887   2.916   2.342  0.5080 -0.0667  0.5231
  278SOL    HW1  833   1.937   2.861   2.269 -0.5704 -2.9829 -0.3479
  278SOL    HW2  834   1.861   3.006   2.304  1.7925 -2.6691 -0.2793
  279SOL     OW  835   1.725   1.209   0.070 -0.3523 -0.0226 -0.6401
  279SOL    HW1  836   1.656   1.278   0.112 -2.6841  1.6589  3.7019
  279SOL    HW2  837   1.819   1.237   0.095 -2.4074  0.4210 -1.7489
  280SOL     OW  838   0.898   1.232   0.012 -0.0438 -0.4850  0.1282
  280SOL    HW1  839   0.938   1.294   0.083 -0.5274  1.6572  1.3244
  280SOL    HW2  840   0.967   1.184   3.056  1.0848  1.9664 -1.1170
  281SOL     OW  841   3.063   0.216   1.294 -0.7321 -0.5250  0.3506
  281SOL    HW1  842   0.036   0.146   1.277  3.3072 -2.4756 -0.8224
  281SOL    HW2  843   3.018   0.246   1.209 -0.9611 -0.4895  1.1874
  282SOL     OW  844   2.881   2.026   0.815 -0.1313  0.3696  0.4177
  282SOL    HW1  845   2.922   2.087   0.886  0.6360 -0.0334 -1.0518
  282SOL    HW2  846   2.779   2.027   0.813  0.6889 -2.8471  2.8079
  283SOL     OW  847   1.404   1.817   2.096 -0.4778  0.2777  0.4532
  283SOL    HW1  848   1.446   1.725   2.088 -0.7404 -1.2074  0.5193
  283SOL    HW2  849   1.304   1.806   2.121 -0.4380  1.4461  0.8814
  284SOL     OW  850   1.745   0.076   0.590  0.2008  0.1207 -0.1300
  284SOL    HW1  851   1.761   3.098   0.524 -0.0040 -0.7576 -3.1358
  284SOL    HW2  852   1.647   0.107   0.579 -0.7732  0.9549 -1.1062
  285SOL     OW  853   2.830   2.806   2.652  0.6566  0.0812  0.2193
  285SOL    HW1  854   2.731   2.782   2.649 -0.2047 -0.1818 -0.8523
  285SOL    HW2  855   2.887   2.729   2.671 -2.0761  3.8214  2.6560
  286SOL     OW  856   2.223   2.370   1.257 -0.5406  0.5000  0.0986
  286SOL    HW1  857   2.294   2.412   1.320  0.1127 -2.7385 -1.8409
  286SOL    HW2  858   2.275   2.319   1.184  1.4641 -0.7267  0.8057
  287SOL     OW  859   0.502   1.267   0.590 -0.0865  0.3416  0.1976
  287SOL    HW1  860   0.413   1.283   0.631  0.7673 -0.8999 -2.7088
  287SOL    HW2  861   0.546   1.356   0.574 -0.1130 -1.9923  1.3340
  288SOL     OW  862   2.163   1.618   2.725  0.2425  0.1566  0.2290
  288SOL    HW1  863   2.113   1.622   2.814 -0.1627 -1.0523 -0.1154
  288SOL    HW2  864   2.228   1.695   2.726  0.3233 -0.5937 -1.6866
  289SOL     OW  865   0.259   1.674   2.685  0.0041  0.0759 -0.1653
  289SOL    HW1  866   0.205   1.761   2.705 -0.7479 -0.2435 -0.1196
  289SOL    HW2  867   0.221   1.599   2.742  3.0840  0.3969  3.2565
  290SOL     OW  868   1.116   1.955   1.155 -0.5519  0.7051  0.2902
  290SOL    HW1  869   1.176   1.912   1.080  2.5643 -4.5488 -1.9793
  290SOL    HW2  870   1.085   1.891   1.229 -0.5725 -0.7744 -1.2401
  291SOL     OW  871   1.742   1.137   2.899 -0.3472 -0.5935  0.3338
  291SOL    HW1  872   1.780   1.045   2.878 -1.0487 -0.1386 -1.3957
  291SOL    HW2  873   1.712   1.148   2.996 -2.5460 -1.5403 -2.0122
  292SOL     OW  874   1.125   1.587   0.663  0.4687  0.3531 -0.4364
  292SOL    HW1  875   1.023   1.575   0.646 -0.1660 -1.2992 -0.5127
  292SOL    HW2  876   1.154   1.505   0.718  0.0106 -2.8397 -0.4492
  293SOL     OW  877   1.807   2.893   1.056  0.7435  0.0475  0.5609
  293SOL    HW1  878   1.883   2.958   1.048 -2.1534  2.6861 -1.2345
  293SOL    HW2  879   1.722   2.930   1.020 -0.0745 -0.7163  0.5401
  294SOL     OW  880   2.654   1.248   2.815 -0.1480 -0.0860 -0.0343
  294SOL    HW1  881   2.565   1.233   2.763  0.7654 -0.0643 -0.4374
  294SOL    HW2  882   2.723   1.174   2.794  1.1688  0.7494  2.6468
  295SOL     OW  883   1.615   2.015   2.320  0.6420 -0.1007 -0.3680
  295SOL    HW1  884   1.670   2.067   2.393  0.2329  0.8436  2.3395
  295SOL    HW2  885   1.655   2.032   2.226  0.4839  2.3513 -1.6244
  296SOL     OW  886   1.790   0.566   1.978  0.1574  0.0706 -0.3160
  296SOL    HW1  887   1.692   0.578   1.947 -1.9730 -2.8241  1.8604
  296SOL    HW2  888   1.810   0.590   2.075  0.5261  2.0621 -3.9569
  297SOL     OW  889   0.085   0.614   1.958  0.2236  0.4624  0.0903
  297SOL    HW1  890   0.017   0.537   1.946  0.4298  0.1249  0.0122
  297SOL    HW2  891   0.039   0.697   1.928  0.0240  0.0612 -2.3472
  298SOL     OW  892   1.108   2.626   2.111 -0.6434  0.3783  0.1965
  298SOL    HW1  893   1.040   2.573   2.061 -2.7968  1.0894 -1.2279
  298SOL    HW2  894   1.182   2.557   2.130  2.3792  0.1447  0.9647
  299SOL     OW  895   1.233   2.503   2.823  0.6793  0.1182  0.1892
  299SOL    HW1  896   1.208   2.592   2.867  1.2477 -1.1727 -0.4343
  299SOL    HW2  897   1.314   2.513   2.761 -1.5749  2.9565 -0.2474
  300SOL     OW  898   2.839   1.046   2.781  0.0567 -0.0598  0.3704
  300SOL    HW1  899   2.788   1.000   2.854  1.1820  0.3739 -1.8896
  300SOL    HW2  900   2.904   0.978   2.736  0.7324 -0.9355 -1.2153
  301SOL     OW  901   1.798   1.054   1.519  0.0890  0.6448  0.2966
  301SOL    HW1  902   1.829   0.961   1.514  0.4377  1.3300 -0.8224
  301SOL    HW2  903   1.834   1.096   1.603  0.1693  1.3365  0.8864
  302SOL     OW  904   2.734   1.888   2.441 -0.2509 -0.2666  0.6303
  302SOL    HW1  905   2.685   1.807   2.390 -0.2928 -0.8672  1.1259
  302SOL    HW2  906   2.659   1.951   2.473 -1.2038 -1.9009 -0.5199
  303SOL     OW  907   0.088   2.954   2.339 -0.2129  0.0004  0.8109
  303SOL    HW1  908   0.015   2.975   2.405  2.3348  0.3268  0.9847
  303SOL    HW2  909   0.179   2.973   2.384 -1.7863 -2.6279 -1.7222
  304SOL     OW  910   0.310   0.877   1.216 -0.5222 -0.0615  0.0848
  304SOL    HW1  911   0.290   0.973   1.242  1.4520  1.8328 -1.7056
  304SOL    HW2  912   0.362   0.831   1.289  0.8951  0.3716  2.5061
  305SOL     OW  913   2.732   0.463   1.799 -0.0751  0.4613  0.1605
  305SOL    HW1  914   2.746   0.472   1.694 -0.6013  0.7186 -3.3033
  305SOL    HW2  915   2.685   0.375   1.811  0.0901  1.6770 -0.6760
  306SOL     OW  916   2.521   1.120   1.388  0.1568  0.1314 -0.0136
  306SOL    HW1  917   2.617   1.128   1.407 -1.2820  0.1172 -0.1336
  306SOL    HW2  918   2.468   1.112   1.478 -2.6501  0.8639  0.6280
  307SOL     OW  919   2.573   2.926   0.833  0.2899 -0.2145 -0.2191
  307SOL    HW1  920   2.597   2.914   0.933 -0.5136  2.0360  1.5538
  307SOL    HW2  921   2.519   2.845   0.805 -0.9961 -1.1257 -1.6810
  308SOL     OW  922   2.684   1.765   1.309  0.7265 -0.4211  0.3792
  308SOL    HW1  923   2.613   1.719   1.366  2.5597 -3.5444  3.3697
  308SOL    HW2  924   2.678   1.730   1.212 -1.6595 -0.4320 -1.2335
  309SOL     OW  925   2.228   2.186   1.663  0.1787 -0.2290  0.1934
  309SOL    HW1  926   2.227   2.288   1.663 -0.9352 -0.0517  0.5445
  309SOL    HW2  927   2.165   2.150   1.737  2.0325 -1.2392  3.9152
  310SOL     OW  928   2.188   1.354   2.692 -0.5585  0.4377 -0.1067
  310SOL    HW1  929   2.170   1.455   2.703 -0.7133 -1.0457  2.2991
  310SOL    HW2  930   2.171   1.321   2.598  0.2152 -0.6903  2.1066
  311SOL     OW  931   2.139   1.033   2.908 -0.4291  0.0043 -0.1311
  311SOL    HW1  932   2.069   1.060   2.840 -1.2013  0.9706  0.5125
  311SOL    HW2  933   2.106   0.953   2.962 -2.1237 -1.4127  0.2376
  312SOL     OW  934   1.289   2.445   2.204 -0.1171  0.3397 -0.1783
  312SOL    HW1  935   1.298   2.346   2.178  1.3077 -0.6387 -0.6235
  312SOL    HW2  936   1.247   2.459   2.295 -0.6112  0.5734 -2.1047
  313SOL     OW  937   0.577   2.982   0.829  0.2336 -0.0417 -0.1790
  313SOL    HW1  938   0.485   2.934   0.839 -1.4460  0.0149  0.6989
  313SOL    HW2  939   0.652   2.916   0.844  0.9936 -0.1112 -1.0838
  314SOL     OW  940   0.580   1.774   1.090 -0.1117  0.0773  0.6230
  314SOL    HW1  941   0.572   1.692   1.151 -0.1444 -0.0582  1.1838
  314SOL    HW2  942   0.611   1.742   0.996 -3.1783 -0.9643 -0.4077
  315SOL     OW  943   0.917   2.653   2.301  0.1301 -0.1050  0.4885
  315SOL    HW1  944   0.850   2.728   2.309 -1.3422 -0.0108 -1.8476
  315SOL    HW2  945   0.974   2.667   2.217 -1.7488 -0.5983  0.8145
  316SOL     OW  946   3.075   2.165   0.936 -0.1926 -0.6193  0.5885
  316SOL    HW1  947   3.037   2.172   1.026 -1.0753  0.2756 -2.4059
  316SOL    HW2  948   0.056   2.102   0.935 -1.1895  1.6912  0.0619
  317SOL     OW  949   1.895   0.695   0.491  0.0805  0.2307  0.2296
  317SOL    HW1  950   1.902   0.706   0.595  0.8313 -1.8668  0.3484
  317SOL    HW2  951   1.965   0.623   0.467  0.4608  2.0022 -1.1760
  318SOL     OW  952   2.628   2.656   3.037  0.2462  0.2426 -0.2475
  318SOL    HW1  953   2.624   2.688   0.037 -1.4410 -1.4796  0.8221
  318SOL    HW2  954   2.695   2.576   3.026  2.6967 -1.4676  0.0733
  319SOL     OW  955   1.529   1.739   3.027 -0.1549 -0.0332  0.2872
  319SOL    HW1  956   1.486   1.768   2.942  0.7561  0.2487  0.3755
  319SOL    HW2  957   1.454   1.707   3.090 -2.3243 -1.4201 -0.4647
  320SOL     OW  958   0.665   2.408   2.592 -0.3661 -0.3258 -0.0338
  320SOL    HW1  959   0.586   2.407   2.525 -1.2916 -0.3706 -0.9477
  320SOL    HW2  960   0.695   2.318   2.623 -0.1733 -0.0115  0.8811
  321SOL     OW  961   0.906   2.689   0.089 -0.0155  1.0323  0.1879
  321SOL    HW1  962   0.931   2.610   0.147 -2.0927  0.6540 -2.9416
  321SOL    HW2  963   0.836   2.753   0.136 -2.2153  1.4037  0.3890
  322SOL     OW  964   2.023   0.452   2.465  0.0809  0.2942 -0.5741
  322SOL    HW1  965   2.073   0.507   2.538  1.1041 -1.6193  3.0281
  322SOL    HW2  966   2.082   0.437   2.380  1.5573  1.2625 -0.7961
  323SOL     OW  967   2.943   0.826   0.699 -0.2682  0.3071 -0.0001
  323SOL    HW1  968   3.035   0.835   0.749 -0.3516  0.7310  3.2992
  323SOL    HW2  969   2.939   0.874   0.612 -0.1223 -2.1505 -0.8164
  324SOL     OW  970   0.325   0.482   2.426 -0.0131  0.0639 -0.1914
  324SOL    HW1  971   0.294   0.571   2.388  0.7656 -0.0754 -3.4394
  324SOL    HW2  972   0.377   0.441   2.349 -0.8723  2.6365 -0.2482
  325SOL     OW  973   0.358   3.098   2.349  0.4120 -0.6679  0.4154
  325SOL    HW1  974   0.324   0.073   2.289 -1.3709 -2.0208 -0.0761
  325SOL    HW2  975   0.348   0.005   2.451 -1.7219  1.4789  3.4732
  326SOL     OW  976   2.553   2.235   0.196 -0.6556 -0.1965 -0.2320
  326SOL    HW1  977   2.508   2.264   0.109 -2.2417 -0.3982 -1.1648
  326SOL    HW2  978   2.591   2.309   0.250  0.1075 -2.4251 -0.3843
  327SOL     OW  979   2.380   1.361   0.676  0.3699 -0.2408  0.2888
  327SOL    HW1  980   2.386   1.262   0.708  2.0005 -1.0345  0.7334
  327SOL    HW2  981   2.364   1.363   0.577  0.7588 -0.2504  1.5518
  328SOL     OW  982   0.233   2.083   2.205 -0.4199  0.7900 -0.5186
  328SOL    HW1  983   0.203   1.989   2.239  1.8550 -0.7172 -0.1524
  328SOL    HW2  984   0.188   2.100   2.115 -2.7246  1.5520  0.8946
  329SOL     OW  985   2.814   2.373   1.390 -0.2946  0.5155  0.0454
  329SOL    HW1  986   2.725   2.334   1.373 -0.6033 -0.8946  0.4834
  329SOL    HW2  987   2.866   2.319   1.457 -0.8383  1.6288  0.0339
  330SOL     OW  988   2.503   1.360   2.215  0.2348 -0.2330  0.3420
  330SOL    HW1  989   2.427   1.309   2.168 -1.0653  0.5346 -0.0446
  330SOL    HW2  990   2.590   1.334   2.165  3.9692 -1.5102  0.9128
  331SOL     OW  991   2.633   2.189   1.039 -0.0944 -0.5047 -0.1164
  331SOL    HW1  992   2.676   2.152   1.127  1.4955  1.3354  0.7335
  331SOL    HW2  993   2.619   2.117   0.971  4.2660 -1.0140  0.5668
  332SOL     OW  994   0.419   2.656   0.934  0.2178 -0.1681  0.1948
  332SOL    HW1  995   0.389   2.692   0.841 -0.2891  0.1699 -1.2005
  332SOL    HW2  996   0.357   2.700   1.004 -2.2550  1.5642 -3.5597
  333SOL     OW  997   2.038   0.176   2.334  0.5260  0.2366  0.8983
  333SOL    HW1  998   1.963   0.121   2.290 -0.2916 -0.5418 -2.4118
  333SOL    HW2  999   1.996   0.258   2.373 -1.5609 -0.8188  0.3770
  334SOL     OW 1000   1.019   0.948   0.343 -0.5912 -0.5151 -0.3234
  334SOL    HW1 1001   1.086   1.016   0.374 -1.5108 -0.6379  2.2596
  334SOL    HW2 1002   1.032   0.866   0.402 -0.8408 -1.3459  1.2746
  335SOL     OW 1003   0.446   2.513   2.153  0.2278  0.7132 -0.0899
  335SOL    HW1 1004   0.385   2.433   2.128 -2.5218 -2.7400 -1.0704
  335SOL    HW2 1005   0.433   2.584   2.086 -1.0430 -2.3133  1.2985
  336SOL     OW 1006   2.527   2.838   2.659 -0.7785  0.4161 -0.3130
  336SOL    HW1 1007   2.503   2.933   2.682 -0.5798 -0.3956 -0.4923
  336SOL    HW2 1008   2.523   2.820   2.559  0.2672  1.3185  0.2873
  337SOL     OW 1009   1.233   1.401   1.072 -0.5720 -0.3494 -0.3007
  337SOL    HW1 1010   1.221   1.311   1.119 -2.3131 -1.6298 -0.8750
  337SOL    HW2 1011   1.221   1.391   0.969 -2.5858 -1.0921  2.7226
  338SOL     OW 1012   0.809   1.910   1.160  0.5359  0.1986  0.3212
  338SOL    HW1 1013   0.877   1.888   1.090  1.9359  2.2376  0.6616
  338SOL    HW2 1014   0.714   1.882   1.135  0.1248  2.4348  0.3041
  339SOL     OW 1015   0.085   1.184   1.658  0.2859  0.1182  0.1942
  339SOL    HW1 1016   0.086   1.105   1.596  2.0013  1.5668 -0.5325
  339SOL    HW2 1017   3.092   1.219   1.680  0.2562  0.9687  0.9819
  340SOL     OW 1018   1.538   0.027   2.001  0.6671  0.3103 -0.1162
  340SOL    HW1 1019   1.626   0.054   1.960 -0.9737 -0.9945 -0.9090
  340SOL    HW2 1020   1.501   3.038   1.974 -0.1401 -0.2080  0.0473
  341SOL     OW 1021   1.606   1.555   1.101  0.9692  0.6073  0.2119
  341SOL    HW1 1022   1.536   1.577   1.172 -1.0079 -1.1183  1.3631
  341SOL    HW2 1023   1.572   1.469   1.057  2.9888  1.1727  2.7129
  342SOL     OW 1024   2.891   1.400   0.888 -0.3682 -0.1159 -0.0724
  342SOL    HW1 1025   2.860   1.304   0.913  0.4764  0.0763  0.9477
  342SOL    HW2 1026   2.809   1.464   0.890 -1.5883  0.3983 -1.1167
  343SOL     OW 1027   3.058   0.755   1.445  0.4393  0.4668 -0.2199
  343SOL    HW1 1028   0.008   0.678   1.495  1.3750 -0.2301  0.7838
  343SOL    HW2 1029   3.053   0.743   1.348 -0.4782 -0.1102  2.4590
  344SOL     OW 1030   1.755   0.377   0.994  0.1692  0.1434  0.1522
  344SOL    HW1 1031   1.785   0.409   0.899 -0.5105  2.5623 -0.8540
  344SOL    HW2 1032   1.733   0.455   1.055  1.9847  0.1379 -2.5980
  345SOL     OW 1033   0.288   2.791   2.592  0.4493  0.1268 -0.5934
  345SOL    HW1 1034   0.315   2.739   2.506  0.5744 -0.4092  1.1930
  345SOL    HW2 1035   0.334   2.882   2.599 -0.0232  2.0103 -0.6067
  346SOL     OW 1036   2.487   1.638   0.333  0.6798 -0.6712 -0.2124
  346SOL    HW1 1037   2.393   1.677   0.316  1.4346  2.6064 -1.0682
  346SOL    HW2 1038   2.553   1.681   0.396 -1.5079 -2.6962  0.3955
  347SOL     OW 1039   2.121   0.232   1.792 -0.4066  0.0958  0.5978
  347SOL    HW1 1040   2.054   0.295   1.759  0.2605 -1.0467  0.1023
  347SOL    HW2 1041   2.163   0.169   1.726  1.6163  1.3677  2.0487
  348SOL     OW 1042   1.160   1.323   1.403 -0.3621 -0.0528  0.5457
  348SOL    HW1 1043   1.138   1.265   1.321  0.0274 -4.5844 -0.7872
  348SOL    HW2 1044   1.264   1.344   1.405  4.3451  0.0392  0.1304
  349SOL     OW 1045   2.690   0.729   1.896  0.0544  0.5743  0.0107
  349SOL    HW1 1046   2.656   0.634   1.873  2.3319  0.4212  0.6512
  349SOL    HW2 1047   2.783   0.747   1.853  3.4775  1.6764 -0.3882
  350SOL     OW 1048   2.328   1.972   2.951 -0.3690  0.0984  0.1834
  350SOL    HW1 1049   2.267   2.013   2.879 -2.1677  0.9800  1.3650
  350SOL    HW2 1050   2.298   1.885   2.990 -0.2396  0.5868  0.8487
  351SOL     OW 1051   0.692   3.070   1.776 -0.0808  0.0461 -0.2850
  351SOL    HW1 1052   0.784   3.095   1.813 -1.9791  0.2003  0.2259
  351SOL    HW2 1053   0.662   0.025   1.691 -0.9709 -1.8938 -0.9232
  352SOL     OW 1054   2.073   2.436   2.010 -0.4154  0.4169  0.5620
  352SOL    HW1 1055   2.176   2.441   2.005  0.5402 -1.3488 -3.2455
  352SOL    HW2 1056   2.040   2.336   2.030 -1.1169 -3.1950 -0.5767
  353SOL     OW 1057   0.797   1.337   2.427 -0.0933 -0.8006  0.3653
  353SOL    HW1 1058   0.857   1.255   2.408 -2.2327 -2.9870  2.0369
  353SOL    HW2 1059   0.786   1.339   2.529 -0.6752 -1.2034 -0.5576
  354SOL     OW 1060   1.097   1.748   3.014  0.0464 -0.4533 -0.8944
  354SOL    HW1 1061   1.115   1.847   3.007 -0.8165  0.4818 -1.6630
  354SOL    HW2 1062   1.005   1.730   2.977 -0.0448  1.8299 -0.5383
  355SOL     OW 1063   2.028   3.074   1.061 -0.2575  0.1500 -0.3138
  355SOL    HW1 1064   2.126   3.045   1.041  2.0862 -1.2134 -0.1698
  355SOL    HW2 1065   2.019   0.072   1.031  0.1906  1.0076  0.3792
  356SOL     OW 1066   2.562   1.205   0.009 -0.5384  0.4517  0.5057
  356SOL    HW1 1067   2.592   1.212   3.012 -1.7813 -2.5402  1.3306
  356SOL    HW2 1068   2.548   1.296   0.052 -0.8122  0.0581  1.5035
  357SOL     OW 1069   2.900   0.036   2.157 -0.0993 -0.3127  0.3618
  357SOL    HW1 1070   2.981   3.076   2.171 -0.6064 -0.8208  2.3674
  357SOL    HW2 1071   2.855   0.001   2.071 -1.4444  0.0287  0.4983
  358SOL     OW 1072   0.257   1.358   0.641  1.0057  0.2630 -0.0704
  358SOL    HW1 1073   0.180   1.293   0.632  1.0993  1.8065  1.2727
  358SOL    HW2 1074   0.230   1.430   0.711 -0.1211  0.1419  0.4815
  359SOL     OW 1075   2.657   0.405   2.868  0.2494  0.2812  0.1555
  359SOL    HW1 1076   2.577   0.418   2.806 -1.5223  1.3496 -0.5367
  359SOL    HW2 1077   2.635   0.449   2.959  0.9230 -1.5969  0.9442
  360SOL     OW 1078   1.377   0.867   1.083 -0.4084 -0.4497  0.6092
  360SOL    HW1 1079   1.380   0.765   1.060  0.4836 -0.9780  0.1663
  360SOL    HW2 1080   1.472   0.905   1.075 -0.9678 -2.6127  1.6984
  361SOL     OW 1081   2.648   2.398   0.862 -0.0067 -0.4377 -0.5260
  361SOL    HW1 1082   2.642   2.329   0.938  0.9126  0.0318 -1.0728
  361SOL    HW2 1083   2.603   2.484   0.895  2.1965  1.5460 -0.7130
  362SOL     OW 1084   1.178   0.399   0.946  0.0745  0.0368 -0.5230
  362SOL    HW1 1085   1.149   0.359   1.035 -1.6427 -0.1498 -1.2101
  362SOL    HW2 1086   1.113   0.462   0.904  0.4055 -0.1915  1.0574
  363SOL     OW 1087   1.956   1.862   0.503 -0.4073 -0.5156  0.1906
  363SOL    HW1 1088   2.048   1.823   0.511 -2.5608  2.5983 -0.2187
  363SOL    HW2 1089   1.965   1.952   0.461  1.2981 -0.7522 -2.5776
  364SOL     OW 1090   0.483   0.450   1.259  0.0287 -0.1319 -0.3725
  364SOL    HW1 1091   0.386   0.470   1.283  1.5192 -0.2314  0.3466
  364SOL    HW2 1092   0.525   0.529   1.209 -0.1157 -1.3546 -2.7871
  365SOL     OW 1093   0.197   0.037   0.935 -0.3185  0.3659  0.4152
  365SOL    HW1 1094   0.287   0.069   0.902  0.8534 -0.5181 -2.3238
  365SOL    HW2 1095   0.212   3.093   1.026 -2.1430 -0.1730 -1.4912
  366SOL     OW 1096   2.905   1.512   0.180 -0.5388  0.5486 -0.4418
  366SOL    HW1 1097   2.947   1.463   0.098  2.0314  0.9016 -1.3808
  366SOL    HW2 1098   2.939   1.609   0.190  0.9926  2.1504 -1.3502
  367SOL     OW 1099   2.306   2.535   2.408  0.2927  0.1661  0.0548
  367SOL    HW1 1100   2.264   2.526   2.500  1.0157 -0.9512  0.4473
  367SOL    HW2 1101   2.401   2.493   2.418 -1.6739 -1.3336  1.4682
  368SOL     OW 1102   2.188   1.722   0.503  0.0148  0.3443 -0.0798
  368SOL    HW1 1103   2.242   1.731   0.588 -1.5215  0.5473 -0.3290
  368SOL    HW2 1104   2.166   1.624   0.485  0.0802  1.8128  0.7616
  369SOL     OW 1105   1.551   0.898   0.011  0.0034 -0.2078 -0.0539
  369SOL    HW1 1106   1.524   0.945   0.097 -2.1039  1.0227 -1.4592
  369SOL    HW2 1107   1.515   0.802   0.012  0.5898 -0.6858  0.1353
  370SOL     OW 1108   0.463   0.135   0.860  0.1740  0.3257  0.8045
  370SOL    HW1 1109   0.462   0.152   0.958 -0.3608  0.2902 -0.5937
  370SOL    HW2 1110   0.522   0.057   0.837 -1.2068 -0.8369  0.5526
  371SOL     OW 1111   2.809   1.424   2.661  0.2742 -0.2036 -0.2702
  371SOL    HW1 1112   2.884   1.469   2.714  3.6514  3.0578 -0.8972
  371SOL    HW2 1113   2.746   1.377   2.725  1.5785 -0.7772 -0.7421
  372SOL     OW 1114   0.681   0.531   2.421 -0.0092  0.0458 -0.0647
  372SOL    HW1 1115   0.630   0.475   2.357 -3.0090 -0.2844  1.1799
  372SOL    HW2 1116   0.688   0.626   2.388 -1.8308 -0.8076 -1.1472
  373SOL     OW 1117   0.552   0.148   2.957 -0.1173  0.1954  0.0037
  373SOL    HW1 1118   0.574   0.096   2.870 -0.1975 -1.1445 -2.7989
  373SOL    HW2 1119   0.615   0.112   3.029 -0.9578 -1.4267 -2.1893
  374SOL     OW 1120   1.192   1.489   2.957  0.2100 -0.6151 -0.6599
  374SOL    HW1 1121   1.200   1.485   2.856 -0.7129 -1.8757  1.0656
  374SOL    HW2 1122   1.154   1.583   2.986 -4.4130  2.5682  0.0758
  375SOL     OW 1123   0.791   0.360   1.872 -0.3718 -0.3576 -0.3298
  375SOL    HW1 1124   0.869   0.352   1.808  0.7812  0.0944 -2.3553
  375SOL    HW2 1125   0.830   0.379   1.969 -1.4659 -1.2574  2.2634
  376SOL     OW 1126   0.416   2.870   2.063  0.0371 -0.0374 -0.0821
  376SOL    HW1 1127   0.317   2.861   2.071  2.8937 -0.4791  3.8572
  376SOL    HW2 1128   0.460   2.860   2.152  2.6019  1.8004 -2.4595
  377SOL     OW 1129   2.572   2.280   2.922 -0.1343 -0.5516  0.2044
  377SOL    HW1 1130   2.508   2.323   2.989  0.7560 -0.6602 -2.1832
  377SOL    HW2 1131   2.572   2.178   2.945 -4.9488  1.7297  2.2692
  378SOL     OW 1132   2.014   0.365   0.236  0.0025  0.2609  0.4672
  378SOL    HW1 1133   1.983   0.268   0.232  0.4743  0.5668 -1.7280
  378SOL    HW2 1134   2.117   0.369   0.228 -0.0967 -0.6600 -0.0858
  379SOL     OW 1135   1.663   0.799   0.373 -0.2297  0.1851 -0.2589
  379SOL    HW1 1136   1.743   0.753   0.420 -2.8458  0.0279 -0.7093
  379SOL    HW2 1137   1.702   0.868   0.305 -0.8581  1.9391 -0.0422
  380SOL     OW 1138   2.726   2.102   1.817 -0.2621 -0.1286  0.2390
  380SOL    HW1 1139   2.771   2.175   1.758 -1.9736 -2.8017  0.1506
  380SOL    HW2 1140   2.707   2.019   1.765  2.0603  2.3348  0.9633
  381SOL     OW 1141   2.772   1.309   2.124 -0.5132 -0.0149 -0.9485
  381SOL    HW1 1142   2.839   1.358   2.187  2.2620  0.3579 -0.3067
  381SOL    HW2 1143   2.773   1.208   2.143  0.8590  0.6913 -0.5758
  382SOL     OW 1144   2.835   2.276   2.760 -0.4134  0.2473 -0.1784
  382SOL    HW1 1145   2.746   2.298   2.813 -4.8832  1.9292  0.7479
  382SOL    HW2 1146   2.836   2.185   2.718  0.9878  2.8437  1.3756
  383SOL     OW 1147   1.229   1.038   2.692  0.0960 -0.9351  0.2560
  383SOL    HW1 1148   1.185   0.962   2.650  0.6028 -0.0769  0.5251
  383SOL    HW2 1149   1.297   1.005   2.760 -0.9364 -1.3362  0.5211
  384SOL     OW 1150   1.903   1.910   2.280  0.6378  0.1191  0.2756
  384SOL    HW1 1151   1.849   1.967   2.344  0.2380  0.1623 -0.4449
  384SOL    HW2 1152   1.995   1.895   2.319 -0.5739  0.2559  2.3356
  385SOL     OW 1153   2.318   2.552   0.200 -0.1422  0.3148  0.5801
  385SOL    HW1 1154   2.292   2.482   0.272  0.4183 -0.3664  0.7531
  385SOL    HW2 1155   2.316   2.643   0.243 -1.1730  1.4305 -0.8489
  386SOL     OW 1156   1.883   1.421   0.610  0.2408 -0.6249  0.1851
  386SOL    HW1 1157   1.871   1.332   0.554 -0.5696 -2.8258 -0.3580
  386SOL    HW2 1158   1.800   1.484   0.594 -0.9195  0.0533 -0.4071
  387SOL     OW 1159   2.457   1.854   1.033  0.6934 -0.4083  0.6888
  387SOL    HW1 1160   2.421   1.875   1.125  0.9495  0.2420 -1.1065
  387SOL    HW2 1161   2.516   1.773   1.037 -1.5833 -0.8457  0.2550
  388SOL     OW 1162   0.516   1.109   1.735 -0.4739  0.0815 -0.8639
  388SOL    HW1 1163   0.427   1.083   1.766  2.5509 -0.2805 -0.6031
  388SOL    HW2 1164   0.553   1.183   1.799 -2.1110  1.8685  0.7912
  389SOL     OW 1165   2.351   0.994   2.757 -0.4708 -0.1631  0.5580
  389SOL    HW1 1166   2.264   0.996   2.816 -2.4420 -0.6967  0.7080
  389SOL    HW2 1167   2.365   1.088   2.717 -1.5105 -1.2247  1.8203
  390SOL     OW 1168   0.799   1.536   3.096 -0.8173 -0.3044  0.1422
  390SOL    HW1 1169   0.861   1.535   3.012 -0.1223  1.1678  0.2941
  390SOL    HW2 1170   0.740   1.455   3.092  0.5062  0.6490  2.3951
  391SOL     OW 1171   0.812   1.973   0.074  0.6244 -0.4774 -0.1529
  391SOL    HW1 1172   0.842   1.949   3.078  1.8815 -0.5276  0.9804
  391SOL    HW2 1173   0.715   2.008   0.086  0.4081  1.0567 -0.4225
  392SOL     OW 1174   2.715   2.655   2.139 -0.4935  0.6987  0.0268
  392SOL    HW1 1175   2.790   2.669   2.072 -1.0708 -1.9875 -1.5782
  392SOL    HW2 1176   2.687   2.555   2.130 -0.7369 -1.2979  0.2851
  393SOL     OW 1177   1.490   2.231   0.160 -0.1813  0.1809 -0.0460
  393SOL    HW1 1178   1.449   2.265   0.072 -0.0577 -0.7883 -1.4315
  393SOL    HW2 1179   1.447   2.136   0.178 -1.4702 -2.6546 -0.3257
  394SOL     OW 1180   0.702   0.188   2.590  0.1662 -0.3527 -0.2793
  394SOL    HW1 1181   0.714   0.284   2.609  1.7988 -1.4555  0.6050
  394SOL    HW2 1182   0.665   0.170   2.493 -0.0121  0.9156 -0.6455
  395SOL     OW 1183   0.335   1.459   1.285 -0.4239 -0.2520  0.3571
  395SOL    HW1 1184   0.336   1.557   1.246  2.9867  1.0983  0.5822
  395SOL    HW2 1185   0.279   1.447   1.373  0.2652 -1.0531  3.8986
  396SOL     OW 1186   2.164   1.288   2.952 -0.8466 -0.0131 -0.3557
  396SOL    HW1 1187   2.159   1.187   2.961 -1.1476 -0.4424 -0.9341
  396SOL    HW2 1188   2.173   1.309   2.855  0.3820 -1.4173  1.1314
  397SOL     OW 1189   0.410   0.525   0.268  0.0659 -0.5414 -0.1239
  397SOL    HW1 1190   0.375   0.537   0.178 -0.2968 -2.9069  3.7368
  397SOL    HW2 1191   0.410   0.427   0.302 -0.0722 -1.6294  3.2410
  398SOL     OW 1192   1.063   2.704   0.380  0.1809 -0.2820  0.6074
  398SOL    HW1 1193   1.153   2.693   0.337 -5.0316  2.5460 -0.0861
  398SOL    HW2 1194   0.995   2.643   0.333 -1.8722 -2.0715 -1.0292
  399SOL     OW 1195   2.023   2.284   2.472  0.0103 -0.2220  0.5554
  399SOL    HW1 1196   1.984   2.350   2.402 -0.7851 -0.6293 -4.0582
  399SOL    HW2 1197   2.076   2.210   2.422  0.9330 -0.3982  0.6913
  400SOL     OW 1198   2.950   1.469   1.605  0.8626  0.3080  0.1612
  400SOL    HW1 1199   2.853   1.449   1.586  0.7401  1.8414 -1.1868
  400SOL    HW2 1200   2.997   1.504   1.522  0.2989  1.9229 -2.2433
  401SOL     OW 1201   1.553   0.806   0.727  0.5914 -0.0548  0.6345
  401SOL    HW1 1202   1.503   0.716   0.740 -0.6359 -4.6049  1.3298
  401SOL    HW2 1203   1.529   0.855   0.643  0.7403 -0.8099 -1.4843
  402SOL     OW 1204   0.361   3.064   2.624 -0.8143 -0.9716  0.1939
  402SOL    HW1 1205   0.449   3.078   2.674  0.6251  0.6767 -0.2214
  402SOL    HW2 1206   0.283   0.017   2.659  1.3143 -1.5330 -0.7946
  403SOL     OW 1207   2.783   1.675   1.734 -0.2750 -0.3222 -0.5480
  403SOL    HW1 1208   2.853   1.629   1.681 -0.4097  1.0023  0.6944
  403SOL    HW2 1209   2.762   1.765   1.694 -0.3763 -4.1154  0.5597
  404SOL     OW 1210   2.419   1.879   1.559  0.1163  0.6182 -0.3455
  404SOL    HW1 1211   2.381   1.881   1.655 -0.3411  1.8380 -0.8514
  404SOL    HW2 1212   2.358   1.928   1.499  3.5279 -0.7043  2.0318
  405SOL     OW 1213   2.176   0.315   2.783 -0.0545 -0.1504  0.3907
  405SOL    HW1 1214   2.131   0.232   2.744 -1.1830  1.8742 -0.7704
  405SOL    HW2 1215   2.109   0.394   2.787 -1.0083 -1.3827  3.2398
  406SOL     OW 1216   0.954   1.572   2.736 -0.0537 -0.0367  0.4145
  406SOL    HW1 1217   0.878   1.511   2.706  0.0416  0.9561 -0.2424
  406SOL    HW2 1218   1.047   1.529   2.741  2.2359  2.1994  0.1891
  407SOL     OW 1219   1.768   2.061   0.813  0.2700 -0.4052 -0.1575
  407SOL    HW1 1220   1.686   2.084   0.751  0.7657 -0.0330  1.7608
  407SOL    HW2 1221   1.850   2.100   0.766 -0.5332  0.4996 -0.5916
  408SOL     OW 1222   0.016   3.067   0.738  0.1885  0.1172 -0.0530
  408SOL    HW1 1223   0.083   3.078   0.818  2.8206 -1.6658  1.6922
  408SOL    HW2 1224   3.061   2.977   0.745 -1.9870 -6.0957  1.2595
  409SOL     OW 1225   1.895   1.368   0.867 -0.1408  0.1446 -0.2410
  409SOL    HW1 1226   1.909   1.455   0.919  2.2560 -0.0300 -0.9636
  409SOL    HW2 1227   1.884   1.394   0.766  2.5671  2.6483 -1.4282
  410SOL     OW 1228   1.957   2.375   0.092 -0.3737  0.5677  0.0120
  410SOL    HW1 1229   1.866   2.392   0.133 -0.2942 -1.4861  0.8232
  410SOL    HW2 1230   2.027   2.344   0.162  1.8986 -0.4526 -0.7567
  411SOL     OW 1231   0.200   3.042   0.286  0.1470  0.2598  0.4546
  411SOL    HW1 1232   0.110   3.047   0.235  0.8217 -1.5862  0.4398
  411SOL    HW2 1233   0.200   3.070   0.386  0.4091 -0.9783  1.6018
  412SOL     OW 1234   1.503   2.793   0.807  0.5408  0.2422  0.1628
  412SOL    HW1 1235   1.420   2.777   0.866  0.6797  0.1337  0.8289
  412SOL    HW2 1236   1.553   2.885   0.826  1.6762  0.2046  0.7668
  413SOL     OW 1237   1.799   0.203   2.553 -0.5074 -0.3184  0.0495
  413SOL    HW1 1238   1.709   0.167   2.578 -1.9799 -0.3612 -2.9409
  413SOL    HW2 1239   1.798   0.299   2.579 -0.8136 -1.8513 -0.5986
  414SOL     OW 1240   0.387   0.712   0.482  0.1068 -0.3047  0.0944
  414SOL    HW1 1241   0.379   0.794   0.427  0.2676 -0.3833  2.4124
  414SOL    HW2 1242   0.395   0.628   0.429  2.5556  2.3641 -0.8694
  415SOL     OW 1243   0.021   1.175   1.242  0.0932  0.3741  0.2713
  415SOL    HW1 1244   0.123   1.191   1.263  1.8473  0.6193  0.4581
  415SOL    HW2 1245   0.012   1.098   1.174  1.8137  3.4463  0.5594
  416SOL     OW 1246   0.181   0.396   3.078  0.0078  0.0046 -0.2509
  416SOL    HW1 1247   0.141   0.469   3.026 -1.4741 -2.8351 -0.3125
  416SOL    HW2 1248   0.280   0.395   3.069 -2.1132 -0.9585  0.2558
  417SOL     OW 1249   2.388   0.306   0.783  0.1669 -0.3902 -0.2393
  417SOL    HW1 1250   2.445   0.287   0.702 -0.3420 -3.5915  0.1813
  417SOL    HW2 1251   2.420   0.388   0.839 -1.3669  0.7851  0.0852
  418SOL     OW 1252   0.380   0.603   2.688  0.1290  0.0856  0.2277
  418SOL    HW1 1253   0.463   0.545   2.709 -0.1558  2.0996 -0.2012
  418SOL    HW2 1254   0.359   0.576   2.591 -1.2982 -0.4124 -1.3699
  419SOL     OW 1255   0.427   0.863   0.710  0.2300  0.3167 -0.2053
  419SOL    HW1 1256   0.400   0.805   0.629 -0.9004  0.5655  1.1449
  419SOL    HW2 1257   0.425   0.806   0.797  0.7001 -0.0023 -0.8364
  420SOL     OW 1258   2.131   1.562   1.210 -0.0088  0.2838  0.6028
  420SOL    HW1 1259   2.035   1.539   1.194  1.3806  0.2353  1.6231
  420SOL    HW2 1260   2.143   1.646   1.154  0.7255 -2.5881  0.2533
  421SOL     OW 1261   1.256   2.012   2.732  0.1126  0.5149  0.5404
  421SOL    HW1 1262   1.170   1.990   2.684  0.7967  1.6539  0.9807
  421SOL    HW2 1263   1.301   2.089   2.685  0.0959 -0.1547  2.5597
  422SOL     OW 1264   2.610   0.552   3.092 -0.1521 -0.4134 -0.4473
  422SOL    HW1 1265   2.522   0.594   0.030 -0.9365  0.0797  0.3320
  422SOL    HW2 1266   2.681   0.628   3.084 -0.2205  0.1244 -1.3020
  423SOL     OW 1267   1.952   1.559   0.217  0.2269 -0.4319 -0.2529
  423SOL    HW1 1268   1.996   1.653   0.210  2.5037  1.7672 -0.3765
  423SOL    HW2 1269   1.862   1.568   0.167  1.7433  1.7156 -1.5603
  424SOL     OW 1270   0.765   1.061   1.580  0.1573 -0.2418  0.2067
  424SOL    HW1 1271   0.674   1.097   1.616 -1.2415 -1.1876 -0.8886
  424SOL    HW2 1272   0.791   1.114   1.499  0.0055  0.9983  1.4752
  425SOL     OW 1273   2.621   2.883   2.272  0.0761  0.1134 -0.2536
  425SOL    HW1 1274   2.530   2.840   2.303 -1.2834 -1.2157  1.9757
  425SOL    HW2 1275   2.680   2.814   2.231 -3.7255  1.2810  1.1592
  426SOL     OW 1276   1.950   2.604   0.509  0.0005 -0.5651  0.6278
  426SOL    HW1 1277   1.852   2.612   0.484 -0.5502 -0.9375 -3.0102
  426SOL    HW2 1278   1.951   2.542   0.593  0.0925 -2.7518 -0.3194
  427SOL     OW 1279   0.558   0.604   3.033  0.2391  0.2827 -0.3755
  427SOL    HW1 1280   0.626   0.670   3.081  2.0867 -0.4439  1.9421
  427SOL    HW2 1281   0.468   0.651   3.010 -2.9216  0.8850  0.8163
  428SOL     OW 1282   2.442   1.233   2.661  0.2383 -0.3956 -0.4079
  428SOL    HW1 1283   2.459   1.224   2.561  1.2920  0.0679  1.0988
  428SOL    HW2 1284   2.358   1.285   2.681 -0.6945 -1.7800 -1.0788
  429SOL     OW 1285   2.888   0.291   0.625 -0.0245 -0.0387  0.4776
  429SOL    HW1 1286   2.913   0.213   0.563 -0.8022  1.0476 -1.5797
  429SOL    HW2 1287   2.883   0.263   0.724  0.1861  0.5178  0.6586
  430SOL     OW 1288   1.173   2.880   2.123  0.1863 -0.5384 -0.5267
  430SOL    HW1 1289   1.164   2.778   2.116 -1.3163 -2.2957  0.9628
  430SOL    HW2 1290   1.180   2.916   2.027  3.5374  0.9829 -1.5796
  431SOL     OW 1291   2.959   1.741   1.431 -0.1105  0.2553  0.2803
  431SOL    HW1 1292   3.001   1.651   1.427  0.8784  1.7312  1.0161
  431SOL    HW2 1293   2.875   1.750   1.372 -0.9795 -0.9640  2.8349
  432SOL     OW 1294   2.372   2.489   1.940 -0.2579 -0.1869 -0.2829
  432SOL    HW1 1295   2.457   2.464   1.882  2.8759 -1.6757  0.5187
  432SOL    HW2 1296   2.372   2.594   1.965  0.8319  1.4203  0.3789
  433SOL     OW 1297   1.354   1.971   0.214  0.1895  0.4843 -0.2169
  433SOL    HW1 1298   1.341   1.892   0.148 -1.1245 -1.2422 -2.0548
  433SOL    HW2 1299   1.265   2.002   0.257 -1.0981  0.3595 -0.1097
  434SOL     OW 1300   0.104   2.267   2.809 -0.3096  0.1790  0.4271
  434SOL    HW1 1301   0.187   2.240   2.863  2.9297  1.7010  2.5026
  434SOL    HW2 1302   0.128   2.359   2.763  2.3015  3.5494 -0.2533
  435SOL     OW 1303   0.062   1.181   0.661  0.3613 -0.0517 -0.0467
  435SOL    HW1 1304   0.097   1.105   0.609  2.4025 -0.5340  1.6509
  435SOL    HW2 1305   3.059   1.177   0.643 -0.6185 -0.2043  1.5649
  436SOL     OW 1306   0.619   2.837   1.886 -0.2587  0.6711  0.1739
  436SOL    HW1 1307   0.533   2.856   1.940 -2.3921  1.5272  4.3715
  436SOL    HW2 1308   0.658   2.925   1.849 -2.7262 -0.1082 -3.8930
  437SOL     OW 1309   1.380   2.480   1.111 -0.1944 -0.2482 -0.3551
  437SOL    HW1 1310   1.390   2.379   1.125  1.2263 -0.5555 -0.5921
  437SOL    HW2 1311   1.369   2.501   1.016 -1.1867 -1.0148  0.4917
  438SOL     OW 1312   0.328   2.320   0.763 -0.0549  0.3450  0.2537
  438SOL    HW1 1313   0.308   2.320   0.658 -1.2759 -1.0302 -2.5523
  438SOL    HW2 1314   0.246   2.362   0.800  0.4454  1.7994 -0.3669
  439SOL     OW 1315   1.071   2.754   1.737  0.3398  0.3876  0.3392
  439SOL    HW1 1316   1.089   2.669   1.685  1.3288 -0.1068  0.4289
  439SOL    HW2 1317   0.970   2.752   1.762  1.2343  1.2025 -1.5331
  440SOL     OW 1318   2.004   2.884   2.078  0.2615  0.3080  0.8195
  440SOL    HW1 1319   2.072   2.819   2.117  2.1292 -1.3439  0.5070
  440SOL    HW2 1320   2.038   2.983   2.072 -0.2010  0.5207 -1.0335
  441SOL     OW 1321   0.284   0.545   1.767  0.7388 -0.0792  0.5838
  441SOL    HW1 1322   0.359   0.612   1.759  0.0914  1.5433 -1.9464
  441SOL    HW2 1323   0.219   0.577   1.842 -1.1326 -0.0034  0.9470
  442SOL     OW 1324   1.743   2.349   0.478 -0.4811 -0.1238 -0.3219
  442SOL    HW1 1325   1.728   2.441   0.518 -0.0690  1.1218  1.2068
  442SOL    HW2 1326   1.715   2.358   0.379 -0.4368  0.4895 -0.3221
  443SOL     OW 1327   0.016   0.873   2.773 -0.7662  0.1592  0.2502
  443SOL    HW1 1328   3.058   0.792   2.755 -1.0344  2.2791 -2.0954
  443SOL    HW2 1329   0.033   0.896   2.868  1.7941 -2.4145 -1.6606
  444SOL     OW 1330   1.906   1.045   2.238  0.1773 -0.5284 -0.3076
  444SOL    HW1 1331   1.909   0.968   2.170  0.1755 -0.6104  0.7778
  444SOL    HW2 1332   1.870   1.127   2.191  0.4837 -0.0193  0.2284
  445SOL     OW 1333   3.083   2.525   1.365 -1.0135  0.1310  0.0242
  445SOL    HW1 1334   0.007   2.468   1.449  1.6984 -0.4947  1.5787
  445SOL    HW2 1335   2.986   2.553   1.368  0.9927 -1.8680 -1.3406
  446SOL     OW 1336   2.690   1.682   1.040  0.2947 -0.3693  0.3186
  446SOL    HW1 1337   2.686   1.584   1.064 -0.9661  3.8867 -1.2623
  446SOL    HW2 1338   2.777   1.718   1.002 -1.3103  0.9345  0.0167
  447SOL     OW 1339   0.299   0.914   0.337  0.8088  0.0270 -0.2733
  447SOL    HW1 1340   0.341   1.005   0.315 -0.5087  2.5193  0.0354
  447SOL    HW2 1341   0.200   0.932   0.360 -0.3933 -1.1924 -0.0234
  448SOL     OW 1342   1.271   2.176   2.074 -0.1122  0.4482 -0.5598
  448SOL    HW1 1343   1.219   2.214   1.998  1.4083 -0.3501  2.3091
  448SOL    HW2 1344   1.336   2.111   2.033 -1.3699  1.6662 -1.9937
  449SOL     OW 1345   1.272   1.603   0.340  0.0742 -0.7944 -0.3001
  449SOL    HW1 1346   1.313   1.515   0.372  1.7064  1.5726 -0.7071
  449SOL    HW2 1347   1.172   1.591   0.333 -0.9186 -1.0463 -0.7639
  450SOL     OW 1348   2.916   2.700   1.944  0.0942 -0.4808 -0.1416
  450SOL    HW1 1349   2.995   2.668   2.002  2.5905  1.3033 -1.4433
  450SOL    HW2 1350   2.942   2.778   1.883 -0.7588  1.3342 -0.6115
  451SOL     OW 1351   2.095   0.688   2.600  0.3443 -0.5313  0.4514
  451SOL    HW1 1352   2.195   0.709   2.590  0.4225 -1.0596  2.0322
  451SOL    HW2 1353   2.067   0.644   2.688  0.5161  0.3362  1.3896
  452SOL     OW 1354   1.769   0.491   0.750  0.1417  0.3786 -0.4242
  452SOL    HW1 1355   1.806   0.421   0.681 -1.0597 -1.2429 -0.8500
  452SOL    HW2 1356   1.821   0.578   0.749 -0.6139 -3.3596  3.3256
  453SOL     OW 1357   1.805   0.753   1.568 -0.1572  0.2056 -0.7997
  453SOL    HW1 1358   1.868   0.730   1.646  1.0425 -1.5456 -2.0504
  453SOL    HW2 1359   1.817   0.685   1.492  0.5253  1.9114  0.2537
  454SOL     OW 1360   3.033   1.391   0.402  0.2661  0.4233 -0.0665
  454SOL    HW1 1361   3.029   1.437   0.490  0.3060  0.3083 -3.5520
  454SOL    HW2 1362   2.981   1.436   0.329 -1.0665 -1.1480  1.5721
  455SOL     OW 1363   2.560   3.054   1.340 -0.4018  0.0486 -0.1767
  455SOL    HW1 1364   2.605   0.017   1.403 -0.9959  0.8132 -3.8200
  455SOL    HW2 1365   2.470   3.095   1.315  0.8155  2.4117  0.3337
  456SOL     OW 1366   0.086   2.844   1.512  0.0274 -0.3065 -0.0246
  456SOL    HW1 1367   0.141   2.762   1.530  0.0703  0.2719  0.2985
  456SOL    HW2 1368   0.044   2.871   1.598 -0.4408 -0.3553 -0.8890
  457SOL     OW 1369   1.299   2.996   0.544 -0.1124 -0.3662  0.5485
  457SOL    HW1 1370   1.364   3.045   0.481 -1.8860 -1.4283 -0.7762
  457SOL    HW2 1371   1.276   3.056   0.625 -0.6204  1.0905  2.7833
  458SOL     OW 1372   2.388   2.739   0.762  0.4667 -0.0691 -0.5429
  458SOL    HW1 1373   2.304   2.733   0.825 -1.4230  1.4779  1.7698
  458SOL    HW2 1374   2.359   2.771   0.670  2.1519 -0.0000 -1.1507
  459SOL     OW 1375   2.300   0.608   2.922  0.1039  0.4047  0.2054
  459SOL    HW1 1376   2.306   0.589   3.020  1.4111 -0.5450 -1.6375
  459SOL    HW2 1377   2.347   0.535   2.870  0.0862  1.2127 -0.3188
  460SOL     OW 1378   2.241   2.880   2.980 -0.8224 -0.3075  0.0161
  460SOL    HW1 1379   2.162   2.921   2.935  1.2925 -3.8158  1.0687
  460SOL    HW2 1380   2.257   2.786   2.947 -1.1590  0.3453  2.4911
  461SOL     OW 1381   0.904   1.811   0.278 -0.1405  0.1024 -0.2996
  461SOL    HW1 1382   0.950   1.865   0.348 -0.7726 -0.4714 -0.2103
  461SOL    HW2 1383   0.873   1.874   0.202 -1.2298  2.5344 -1.2221
  462SOL     OW 1384   2.027   2.116   0.710  0.0036 -0.6464 -0.2222
  462SOL    HW1 1385   2.094   2.040   0.707 -1.6441 -0.1859  1.7223
  462SOL    HW2 1386   2.001   2.147   0.616  2.2878  1.3334 -2.4048
  463SOL     OW 1387   2.593   1.030   0.567  0.4451  0.1909 -0.6207
  463SOL    HW1 1388   2.596   0.938   0.611 -1.3940 -0.8586 -0.7060
  463SOL    HW2 1389   2.507   1.072   0.603 -1.7368 -0.9983  0.8538
  464SOL     OW 1390   0.683   2.752   0.979  0.1630  0.5393  0.5401
  464SOL    HW1 1391   0.598   2.700   0.958  1.5021  1.5857  2.8026
  464SOL    HW2 1392   0.770   2.718   0.935  0.6615 -0.8336  0.0165
  465SOL     OW 1393   2.500   1.460   0.122  0.2609  0.4803 -0.2120
  465SOL    HW1 1394   2.504   1.536   0.191 -1.6466  0.5607  2.4050
  465SOL    HW2 1395   2.417   1.471   0.062  0.2228  1.4206 -0.8980
  466SOL     OW 1396   1.701   0.477   2.844 -0.3530 -0.4034 -0.2477
  466SOL    HW1 1397   1.700   0.544   2.919  0.1912 -1.8402 -2.0199
  466SOL    HW2 1398   1.712   0.382   2.884 -0.6734  2.4871 -3.2707
  467SOL     OW 1399   0.895   0.533   1.483 -0.4926 -1.4887 -0.0758
  467SOL    HW1 1400   0.998   0.543   1.461  0.1832  1.4521 -0.3177
  467SOL    HW2 1401   0.866   0.439   1.475  1.6573  0.7927  1.3833
  468SOL     OW 1402   0.460   1.121   2.753 -0.0705  0.2876 -0.6498
  468SOL    HW1 1403   0.547   1.124   2.797 -0.3346 -0.1484 -0.1144
  468SOL    HW2 1404   0.427   1.031   2.724  0.5799  1.7225  1.4821
  469SOL     OW 1405   0.553   2.283   0.348 -0.8362 -0.1680  0.0840
  469SOL    HW1 1406   0.501   2.274   0.258 -0.9063  0.8957  1.3033
  469SOL    HW2 1407   0.586   2.380   0.356 -0.0822  1.6968  1.6327
  470SOL     OW 1408   2.700   1.591   2.458 -0.5295  0.1273  0.1451
  470SOL    HW1 1409   2.735   1.511   2.514 -2.3177 -1.1428  1.5462
  470SOL    HW2 1410   2.709   1.578   2.356 -0.0946 -0.6773  0.5273
  471SOL     OW 1411   2.732   1.038   2.127 -0.0200 -0.1632 -0.1070
  471SOL    HW1 1412   2.707   0.975   2.202 -1.8281 -0.5636  0.4222
  471SOL    HW2 1413   2.694   1.014   2.037  0.5271 -1.7160 -0.9125
  472SOL     OW 1414   0.387   2.776   0.658 -0.4796 -0.0904 -0.1917
  472SOL    HW1 1415   0.348   2.816   0.572 -0.0323  2.2396 -2.8659
  472SOL    HW2 1416   0.486   2.745   0.648  2.1800 -0.0054 -0.0426
  473SOL     OW 1417   0.691   0.067   0.086 -0.3796 -0.2570  0.8138
  473SOL    HW1 1418   0.637   0.002   0.140 -1.6856  1.3839  0.1187
  473SOL    HW2 1419   0.757   0.025   0.022 -2.0701 -0.6017  2.2590
  474SOL     OW 1420   1.792   0.035   2.197 -0.3241  0.5097 -0.2529
  474SOL    HW1 1421   1.715   0.105   2.218 -1.4150 -0.0205 -0.9728
  474SOL    HW2 1422   1.770   3.091   2.109  0.7261  1.1864  0.1651
  475SOL     OW 1423   1.382   2.360   0.396  0.0195 -0.6917 -0.1178
  475SOL    HW1 1424   1.319   2.297   0.443  1.2865  2.0716 -1.7141
  475SOL    HW2 1425   1.420   2.310   0.318 -2.0348 -1.1578  0.9807
  476SOL     OW 1426   0.638   1.036   0.627  0.6431 -0.3898 -0.3067
  476SOL    HW1 1427   0.578   0.962   0.670 -1.9442  0.0688  1.2176
  476SOL    HW2 1428   0.579   1.109   0.589  1.3000  0.0569 -1.6510
  477SOL     OW 1429   1.571   2.572   1.265  0.0515 -0.2671  0.2864
  477SOL    HW1 1430   1.499   2.537   1.202  0.0202  0.5323 -1.0134
  477SOL    HW2 1431   1.661   2.579   1.216  0.6926  0.8027  0.5673
  478SOL     OW 1432   0.428   1.802   2.526  0.6475 -0.1404  0.1189
  478SOL    HW1 1433   0.516   1.754   2.524 -4.7878 -0.1389  0.3812
  478SOL    HW2 1434   0.365   1.745   2.580  0.8362  1.2229  0.3469
  479SOL     OW 1435   2.918   3.027   1.191  0.0623  0.0395  0.1274
  479SOL    HW1 1436   2.868   3.002   1.107  1.1401 -1.6678 -0.4299
  479SOL    HW2 1437   2.987   2.953   1.222 -0.1919 -0.9953  0.8465
  480SOL     OW 1438   2.829   2.887   0.517  0.0527  0.1164  0.0372
  480SOL    HW1 1439   2.877   2.873   0.609 -0.0582 -0.7397  1.4618
  480SOL    HW2 1440   2.884   2.849   0.439  0.5542 -0.5774 -1.3906
  481SOL     OW 1441   2.535   2.607   0.956 -0.1412 -0.1692  0.0500
  481SOL    HW1 1442   2.480   2.648   0.879 -1.7652  1.0531 -1.3647
  481SOL    HW2 1443   2.486   2.625   1.044  1.1223 -1.8625 -1.4461
  482SOL     OW 1444   1.356   2.205   2.571  0.0053  0.7547  0.4477
  482SOL    HW1 1445   1.343   2.162   2.480 -1.7782  3.0361 -1.2232
  482SOL    HW2 1446   1.360   2.304   2.560 -1.4115  0.7796 -0.0762
  483SOL     OW 1447   0.509   2.059   2.623  0.3470 -0.0158  0.3502
  483SOL    HW1 1448   0.478   1.964   2.613 -0.5856 -0.8188  0.1263
  483SOL    HW2 1449   0.440   2.133   2.603 -0.0615 -1.4995 -0.0331
  484SOL     OW 1450   0.882   1.222   1.984  0.6264 -0.0514 -0.0597
  484SOL    HW1 1451   0.854   1.136   2.036 -2.2454  1.1623  3.0147
  484SOL    HW2 1452   0.958   1.202   1.917  0.9495 -1.0380  0.8058
  485SOL     OW 1453   2.501   0.450   0.442 -0.3296 -0.3864 -0.0049
  485SOL    HW1 1454   2.507   0.350   0.468 -0.0535  1.4519  0.7191
  485SOL    HW2 1455   2.433   0.489   0.504  0.4251 -0.3095 -0.3371
  486SOL     OW 1456   1.627   3.046   0.828  0.1676 -0.2170  0.0760
  486SOL    HW1 1457   1.603   0.028   0.882  3.0485 -1.6932 -0.3887
  486SOL    HW2 1458   1.689   3.078   0.745  2.2731 -0.5147 -1.8408
  487SOL     OW 1459   0.429   2.091   0.853  0.0297  0.0048 -0.1620
  487SOL    HW1 1460   0.383   2.176   0.828  0.7149 -1.2094 -0.4254
  487SOL    HW2 1461   0.522   2.111   0.894  0.8866 -0.5035  0.0178
  488SOL     OW 1462   2.684   1.379   0.291 -0.4837  0.2548 -0.6284
  488SOL    HW1 1463   2.773   1.427   0.272  0.2695  1.9142 -0.1216
  488SOL    HW2 1464   2.610   1.407   0.222 -0.2341  0.6352  0.1611
  489SOL     OW 1465   1.570   0.104   1.243 -0.7072  0.4453 -0.1784
  489SOL    HW1 1466   1.609   0.081   1.335 -0.2830 -3.2552 -2.0503
  489SOL    HW2 1467   1.474   0.077   1.231  2.0075 -1.8664  1.0212
  490SOL     OW 1468   1.049   0.885   0.086  0.3015 -0.3251  1.1758
  490SOL    HW1 1469   1.131   0.824   0.101 -0.2172  1.7785 -1.0690
  490SOL    HW2 1470   1.019   0.920   0.176 -1.4851 -1.2340  0.8978
  491SOL     OW 1471   0.638   2.514   0.402 -0.3155 -0.2144  0.4977
  491SOL    HW1 1472   0.647   2.574   0.480 -0.4562 -1.6867 -0.3412
  491SOL    HW2 1473   0.589   2.560   0.327  1.3384  1.8715  1.2743
  492SOL     OW 1474   1.276   1.464   2.086  0.0041  0.1370 -0.0785
  492SOL    HW1 1475   1.279   1.477   2.185  1.1437  0.1810  0.7380
  492SOL    HW2 1476   1.215   1.381   2.074  3.0812  1.6527  0.9044
  493SOL     OW 1477   0.086   2.413   0.868 -0.5026 -0.5963 -0.1161
  493SOL    HW1 1478   0.048   2.322   0.892 -0.0097 -0.9794 -0.1632
  493SOL    HW2 1479   0.074   2.477   0.949 -1.2900 -2.2996  3.0071
  494SOL     OW 1480   2.612   2.021   2.967 -0.2170  0.1069  0.0494
  494SOL    HW1 1481   2.660   1.934   2.960 -2.4103  0.1709 -0.1229
  494SOL    HW2 1482   2.510   1.998   2.956 -2.7256 -0.5507  1.3421
  495SOL     OW 1483   2.599   1.721   2.693  0.3140  0.2528 -0.3699
  495SOL    HW1 1484   2.669   1.748   2.759  1.2264 -0.4711 -2.6754
  495SOL    HW2 1485   2.647   1.704   2.610 -2.3755  2.4553  1.2289
  496SOL     OW 1486   2.659   0.184   1.778  0.1709 -0.1352 -0.2070
  496SOL    HW1 1487   2.676   0.176   1.675 -1.9992  1.3699 -1.2726
  496SOL    HW2 1488   2.697   0.110   1.837 -0.2552 -0.3072 -2.2241
  497SOL     OW 1489   2.706   0.931   0.340 -0.3443  0.0055  0.0021
  497SOL    HW1 1490   2.682   0.975   0.429 -0.3342 -5.1222  1.3173
  497SOL    HW2 1491   2.709   0.829   0.345  1.0375  1.1088 -0.9132
  498SOL     OW 1492   0.169   2.428   2.453  0.0528  0.1048 -0.1527
  498SOL    HW1 1493   0.129   2.505   2.405 -1.5199 -0.1198  0.2700
  498SOL    HW2 1494   0.116   2.341   2.434 -3.7211  0.2266  0.9878
  499SOL     OW 1495   0.961   2.156   0.356 -0.0677 -0.5884  0.3663
  499SOL    HW1 1496   0.933   2.080   0.415  1.8297 -1.0252  0.9846
  499SOL    HW2 1497   0.937   2.143   0.260 -1.9079 -1.6271  2.4771
  500SOL     OW 1498   1.208   3.028   3.063 -0.3736 -0.4497  0.2847
  500SOL    HW1 1499   1.137   0.000   3.048  0.0238  1.2568 -0.9042
  500SOL    HW2 1500   1.178   2.933   3.053  1.1180  0.1111  0.9227
  501SOL     OW 1501   1.665   0.077   1.494 -0.2138  0.3571  0.2346
  501SOL    HW1 1502   1.583   0.078   1.561 -2.3656  0.5503  0.3974
  501SOL    HW2 1503   1.741   0.025   1.536 -0.4431 -0.7513  2.9570
  502SOL     OW 1504   2.980   0.286   2.178 -0.1753  0.0417 -0.5150
  502SOL    HW1 1505   2.988   0.302   2.278  0.9886 -0.6366 -0.6910
  502SOL    HW2 1506   2.948   0.188   2.169 -1.3467  1.6254 -0.3025
  503SOL     OW 1507   2.542   2.076   2.464 -0.1734  0.3342  0.4027
  503SOL    HW1 1508   2.554   2.115   2.370 -2.6941  1.0459  2.2729
  503SOL    HW2 1509   2.510   2.143   2.532 -0.4297 -1.5085  0.7358
  504SOL     OW 1510   1.298   0.351   1.573 -0.1397  0.2147 -0.1778
  504SOL    HW1 1511   1.388   0.335   1.524  1.0356  1.9460  0.5586
  504SOL    HW2 1512   1.315   0.349   1.676 -0.4716 -0.0639 -0.0008
  505SOL     OW 1513   0.273   0.877   1.664  0.4125  0.1864 -0.4732
  505SOL    HW1 1514   0.273   0.944   1.742  0.3450  1.6563 -1.0452
  505SOL    HW2 1515   0.216   0.915   1.590 -1.2349 -1.1490  1.7382
  506SOL     OW 1516   0.479   0.974   2.429 -0.4315 -0.2888  0.3484
  506SOL    HW1 1517   0.437   0.934   2.512 -2.7832  2.2393  1.3201
  506SOL    HW2 1518   0.432   0.950   2.340  0.3245 -1.2988 -6.2073
  507SOL     OW 1519   0.055   2.860   2.707  0.1432  0.3723  0.4723
  507SOL    HW1 1520   0.004   2.911   2.634  0.2149  0.2499  0.7397
  507SOL    HW2 1521   0.141   2.826   2.666  0.7974 -0.6169  1.4232
  508SOL     OW 1522   1.551   0.650   1.592  0.0755  0.3145  0.9204
  508SOL    HW1 1523   1.538   0.597   1.504 -0.7829 -1.8676 -0.7583
  508SOL    HW2 1524   1.643   0.695   1.590  2.4024 -1.8205  1.4494
  509SOL     OW 1525   1.092   2.004   1.515  0.1076 -0.1977  0.1970
  509SOL    HW1 1526   1.189   2.038   1.512  0.1917 -0.2237 -1.7232
  509SOL    HW2 1527   1.097   1.911   1.474 -0.0579  0.3314  3.0760
  510SOL     OW 1528   2.213   1.245   2.155  0.2880 -0.2883  1.1213
  510SOL    HW1 1529   2.167   1.221   2.239 -0.4100  0.1442 -1.3122
  510SOL    HW2 1530   2.180   1.183   2.079 -2.6802 -2.3632 -0.0640
  511SOL     OW 1531   0.409   1.973   0.576 -0.0835  0.1945  0.5765
  511SOL    HW1 1532   0.308   1.986   0.553 -4.1448 -1.0017  1.1021
  511SOL    HW2 1533   0.427   1.978   0.673 -1.6712 -0.2308 -2.2631
  512SOL     OW 1534   2.237   2.175   0.058  0.5646  0.2115 -0.2667
  512SOL    HW1 1535   2.262   2.101   3.091  0.3184  1.2025  1.6408
  512SOL    HW2 1536   2.171   2.142   0.128 -0.8137 -1.5618  3.5386
  513SOL     OW 1537   0.080   1.964   2.494 -0.1963  0.0333  0.1670
  513SOL    HW1 1538   0.105   1.980   2.591  0.7543  1.0378 -0.9357
  513SOL    HW2 1539   0.060   2.053   2.451  2.3073 -1.5180  0.8497
  514SOL     OW 1540   0.249   2.517   2.706  0.0689 -0.0641  0.0272
  514SOL    HW1 1541   0.203   2.467   2.632  3.2692 -0.3000  2.5839
  514SOL    HW2 1542   0.284   2.608   2.669 -1.0489  1.8130 -0.3454
  515SOL     OW 1543   1.955   1.480   1.708 -0.1819 -0.8076  0.2873
  515SOL    HW1 1544   1.971   1.485   1.807  2.4193 -0.0102  0.9593
  515SOL    HW2 1545   1.985   1.567   1.667 -2.3363 -2.8226  1.5896
  516SOL     OW 1546   2.483   2.287   2.666  0.6653  0.7376  0.7906
  516SOL    HW1 1547   2.462   2.389   2.645  2.6107  2.7644 -0.3095
  516SOL    HW2 1548   2.515   2.276   2.764  0.8047 -2.2063  1.1655
  517SOL     OW 1549   1.406   1.008   2.885 -0.1565 -0.3260 -0.3214
  517SOL    HW1 1550   1.452   1.096   2.858  1.2362 -0.6062 -0.9987
  517SOL    HW2 1551   1.438   0.977   2.982  1.9560 -1.7213  2.0448
  518SOL     OW 1552   2.688   0.037   2.335  0.1803 -0.4607 -0.0975
  518SOL    HW1 1553   2.777   0.044   2.290 -1.2856  0.4152  0.8975
  518SOL    HW2 1554   2.653   3.040   2.331 -0.4789  1.2967 -0.2168
  519SOL     OW 1555   1.810   1.753   2.077  0.6127  0.3811 -0.7314
  519SOL    HW1 1556   1.714   1.725   2.101  0.1553 -2.0106  2.5325
  519SOL    HW2 1557   1.854   1.819   2.145  1.5825  1.2096 -2.5832
  520SOL     OW 1558   2.677   0.136   2.774  0.3000 -0.1079 -0.3707
  520SOL    HW1 1559   2.672   0.231   2.820  1.9540 -1.7945 -0.6243
  520SOL    HW2 1560   2.584   0.095   2.754 -1.7388 -2.2097 -0.8139
  521SOL     OW 1561   0.636   1.558   2.110  0.5467 -0.0360 -0.1220
  521SOL    HW1 1562   0.608   1.494   2.038 -0.6257  1.4609  2.4990
  521SOL    HW2 1563   0.598   1.526   2.200 -0.4428 -1.3963 -1.9220
  522SOL     OW 1564   1.257   0.028   1.534 -0.1602  0.2053  0.3812
  522SOL    HW1 1565   1.346   0.045   1.586  0.8736  3.0416  1.9273
  522SOL    HW2 1566   1.196   0.107   1.544  2.5968 -1.3491  2.0463
  523SOL     OW 1567   0.115   2.530   1.128  0.7610  0.6060 -0.2047
  523SOL    HW1 1568   0.063   2.545   1.216  2.0589 -0.1071  0.4884
  523SOL    HW2 1569   0.184   2.455   1.143  2.7751 -1.7207 -0.4207
  524SOL     OW 1570   1.613   2.556   0.809  0.0765  0.0125  0.0500
  524SOL    HW1 1571   1.561   2.494   0.745 -3.3507  1.1980  1.5887
  524SOL    HW2 1572   1.564   2.648   0.814  1.1381  0.0135  0.2452
  525SOL     OW 1573   2.504   0.972   0.969  0.2038  0.3625 -0.1779
  525SOL    HW1 1574   2.520   1.043   1.043  0.1899  1.3216 -1.6890
  525SOL    HW2 1575   2.426   0.905   0.986  0.7735  0.4140  0.4211
  526SOL     OW 1576   0.921   2.600   0.611 -0.0892  0.5616  0.2926
  526SOL    HW1 1577   0.888   2.510   0.577  0.0374 -1.2123 -1.7542
  526SOL    HW2 1578   0.992   2.631   0.546  1.7343 -4.7917  0.5805
  527SOL     OW 1579   2.271   2.009   0.770 -0.3880  0.5448  0.0156
  527SOL    HW1 1580   2.343   2.046   0.698  1.5906  1.0490 -0.8743
  527SOL    HW2 1581   2.263   1.907   0.758 -0.8064 -1.3170  0.6076
  528SOL     OW 1582   2.296   0.550   0.620 -0.0048 -0.6757 -0.1835
  528SOL    HW1 1583   2.278   0.651   0.617 -0.9640  2.4256 -0.2108
  528SOL    HW2 1584   2.222   0.498   0.566  0.2452 -1.3852  0.2678
  529SOL     OW 1585   1.155   1.214   2.064 -0.6776 -0.0421 -0.3870
  529SOL    HW1 1586   1.067   1.258   2.087 -0.7834 -2.3868  0.5737
  529SOL    HW2 1587   1.187   1.164   2.151  1.3054 -2.5376  4.9311
  530SOL     OW 1588   2.472   0.807   2.910 -0.0110 -0.1233 -0.1115
  530SOL    HW1 1589   2.407   0.731   2.919  1.2983  0.7249 -0.5455
  530SOL    HW2 1590   2.428   0.885   2.853 -0.3085  0.6362 -1.0900
  531SOL     OW 1591   1.435   0.989   0.232 -0.5766  0.0617 -0.0385
  531SOL    HW1 1592   1.394   1.070   0.184  1.3218 -2.1081 -1.5814
  531SOL    HW2 1593   1.390   0.957   0.319 -0.8120  0.2308 -1.1263
  532SOL     OW 1594   2.117   0.207   0.812 -0.6810 -0.4468  1.0224
  532SOL    HW1 1595   2.076   0.248   0.897 -0.5702 -0.4388 -0.8545
  532SOL    HW2 1596   2.206   0.253   0.790 -1.7248 -1.2160  2.0392
  533SOL     OW 1597   0.709   0.867   1.831 -0.3391 -0.1479 -0.1771
  533SOL    HW1 1598   0.696   0.962   1.796 -3.3587 -0.1815  0.1347
  533SOL    HW2 1599   0.777   0.811   1.776 -0.4228  0.2803  1.9789
  534SOL     OW 1600   1.671   0.019   2.785  0.3542 -0.1599  0.1985
  534SOL    HW1 1601   1.693   3.073   2.695  0.9129  2.0894  0.9971
  534SOL    HW2 1602   1.587   3.074   2.831 -0.8256  1.2799 -0.3662
  535SOL     OW 1603   0.388   0.209   0.193  0.7215 -0.3838 -0.0275
  535SOL    HW1 1604   0.423   0.265   0.119  2.0089 -1.0677 -0.1125
  535SOL    HW2 1605   0.335   0.133   0.157 -1.0779  0.7796 -0.4221
  536SOL     OW 1606   0.890   2.543   1.163 -0.1834 -0.2862 -0.1260
  536SOL    HW1 1607   0.938   2.605   1.229 -1.6356 -1.5144 -1.7291
  536SOL    HW2 1608   0.899   2.584   1.074  0.0941  2.8413  2.6737
  537SOL     OW 1609   1.808   0.054   1.904  0.2675  0.0557  0.2170
  537SOL    HW1 1610   1.899   0.060   1.952  1.6419  1.2997  1.4307
  537SOL    HW2 1611   1.811   0.024   1.806 -1.5553 -1.0831  0.6098
  538SOL     OW 1612   2.915   2.771   0.293 -0.0823 -0.0447 -0.4461
  538SOL    HW1 1613   2.933   2.761   0.187 -1.6716  0.9727 -1.3504
  538SOL    HW2 1614   2.937   2.692   0.347  1.3237  1.9909 -0.4915
  539SOL     OW 1615   2.950   1.972   1.987  0.4929  0.4598 -0.4569
  539SOL    HW1 1616   3.041   2.008   1.966 -0.8876  0.8423  2.4030
  539SOL    HW2 1617   2.883   2.009   1.917 -0.4214  0.4120 -1.0980
  540SOL     OW 1618   0.045   2.592   1.722  0.6542 -0.0323 -0.2444
  540SOL    HW1 1619   0.139   2.623   1.742 -0.3750 -2.0020 -0.5846
  540SOL    HW2 1620   3.080   2.671   1.741 -1.0721  0.0521  0.8188
  541SOL     OW 1621   2.813   2.947   1.656 -0.1234 -0.1283 -0.0213
  541SOL    HW1 1622   2.779   2.858   1.616  2.3745 -1.8994  0.2679
  541SOL    HW2 1623   2.850   3.012   1.587  2.6389 -2.4692  0.8165
  542SOL     OW 1624   2.979   0.429   1.953 -0.3906 -0.5769  0.1932
  542SOL    HW1 1625   2.886   0.441   1.907 -0.9576 -0.6692 -0.9234
  542SOL    HW2 1626   2.973   0.377   2.040  0.4041 -0.0017 -1.3866
  543SOL     OW 1627   0.781   0.594   0.680 -0.2228  0.0603 -0.2463
  543SOL    HW1 1628   0.755   0.685   0.713 -1.0516 -0.4747 -1.3823
  543SOL    HW2 1629   0.724   0.521   0.726 -0.2901 -1.8146 -1.0697
  544SOL     OW 1630   1.956   1.946   1.051 -0.2644  0.3846 -0.1524
  544SOL    HW1 1631   1.948   2.004   0.970 -0.0087 -0.3142  2.7687
  544SOL    HW2 1632   2.040   1.885   1.049 -0.8437  0.3930  1.1828
  545SOL     OW 1633   1.146   1.856   0.447 -0.1206 -0.2832 -0.6496
  545SOL    HW1 1634   1.187   1.766   0.426 -3.3966 -0.9183  0.6316
  545SOL    HW2 1635   1.197   1.918   0.506 -0.0534 -3.5258 -0.4991
  546SOL     OW 1636   2.515   0.505   2.206 -0.1380 -0.0926  0.2190
  546SOL    HW1 1637   2.462   0.559   2.140  2.8381 -1.9145  2.1879
  546SOL    HW2 1638   2.617   0.524   2.198 -0.4797 -0.6870 -3.1662
  547SOL     OW 1639   0.156   0.254   2.451  0.1322  0.4412 -0.2292
  547SOL    HW1 1640   0.138   0.215   2.543 -2.2457  0.6374 -2.4668
  547SOL    HW2 1641   0.239   0.310   2.461 -0.7907 -1.8523  1.1506
  548SOL     OW 1642   2.160   2.136   2.300 -0.4214 -0.6562  0.3191
  548SOL    HW1 1643   2.249   2.192   2.290  2.6087  2.9826  2.0059
  548SOL    HW2 1644   2.168   2.046   2.349 -1.3272  0.4864 -0.1465
  549SOL     OW 1645   2.527   0.518   0.911 -0.3639  0.4604  0.2081
  549SOL    HW1 1646   2.567   0.497   0.820 -0.3892 -0.4458  2.1549
  549SOL    HW2 1647   2.595   0.536   0.982 -0.2557 -1.5825 -1.9622
  550SOL     OW 1648   1.672   1.582   0.621 -0.1509 -0.1874 -0.0346
  550SOL    HW1 1649   1.638   1.604   0.527 -2.9565 -0.6592  1.3324
  550SOL    HW2 1650   1.727   1.658   0.660  0.1190 -0.3635 -0.0483
  551SOL     OW 1651   1.228   0.328   1.279  0.2764  0.0500 -0.2601
  551SOL    HW1 1652   1.139   0.334   1.233  0.0569  1.6650  1.2690
  551SOL    HW2 1653   1.272   0.241   1.262 -1.2559 -0.8810  1.6239
  552SOL     OW 1654   1.990   2.183   2.107 -0.2374 -0.0504 -0.1510
  552SOL    HW1 1655   1.896   2.164   2.142  0.8981 -1.3557  0.8244
  552SOL    HW2 1656   2.059   2.161   2.185  1.8710 -0.3821  0.2267
  553SOL     OW 1657   0.493   3.011   0.178  0.0473  0.6114 -0.1447
  553SOL    HW1 1658   0.444   3.011   0.267  0.8811 -0.1980  1.9338
  553SOL    HW2 1659   0.422   3.005   0.109 -0.5144  3.0233 -0.3633
  554SOL     OW 1660   1.799   2.781   1.891  0.3723 -0.1531 -0.5204
  554SOL    HW1 1661   1.840   2.690   1.860 -0.1668 -2.5143  0.9509
  554SOL    HW2 1662   1.869   2.840   1.939 -0.7475 -0.8451  2.7123
  555SOL     OW 1663   2.332   2.763   1.999  0.3373  0.1683  0.1258
  555SOL    HW1 1664   2.256   2.747   2.069 -0.2524 -1.7370  1.4262
  555SOL    HW2 1665   2.299   2.798   1.910  2.3541 -0.9263  4.4133
  556SOL     OW 1666   0.777   2.956   0.508  0.3297  0.3705 -0.0465
  556SOL    HW1 1667   0.864   2.911   0.529 -2.8358  1.3880 -2.8948
  556SOL    HW2 1668   0.788   3.034   0.442 -0.2620  0.9361  1.8189
  557SOL     OW 1669   0.801   2.244   2.210  0.1339 -0.2695  0.1033
  557SOL    HW1 1670   0.775   2.345   2.212 -0.2732  2.1516 -2.7902
  557SOL    HW2 1671   0.724   2.186   2.244  0.0842 -2.7457  0.1835
  558SOL     OW 1672   2.767   1.106   2.437  0.2607  0.0691 -0.5054
  558SOL    HW1 1673   2.772   1.005   2.421  0.3352 -1.0484 -0.2811
  558SOL    HW2 1674   2.837   1.152   2.502  3.7288  4.6430  1.1416
  559SOL     OW 1675   2.542   2.212   2.217  0.1629 -0.0418 -0.3376
  559SOL    HW1 1676   2.471   2.285   2.203 -0.1155  0.8834 -1.7577
  559SOL    HW2 1677   2.557   2.151   2.138 -0.3126 -0.1539  2.6125
  560SOL     OW 1678   0.599   0.370   2.195 -0.2732  0.0644 -0.0987
  560SOL    HW1 1679   0.690   0.404   2.166 -3.0114 -0.0947 -2.1169
  560SOL    HW2 1680   0.553   0.326   2.119  1.6190  2.4330  1.7528
  561SOL     OW 1681   1.046   0.453   0.269 -0.1585  0.0826  0.3002
  561SOL    HW1 1682   0.973   0.506   0.316  2.9339 -1.8402  2.4286
  561SOL    HW2 1683   1.006   0.375   0.216  0.3732 -0.4077 -1.7412
  562SOL     OW 1684   0.847   1.544   1.626 -0.1132 -0.0852 -0.4123
  562SOL    HW1 1685   0.852   1.547   1.527  0.3019  1.5230 -0.3928
  562SOL    HW2 1686   0.854   1.642   1.663  0.6719  0.0577 -0.0662
  563SOL     OW 1687   1.728   2.674   0.201 -0.6462 -0.3831  0.0531
  563SOL    HW1 1688   1.821   2.682   0.152  1.6037  1.6612  0.0625
  563SOL    HW2 1689   1.656   2.743   0.181 -0.2908  0.1370  3.0614
  564SOL     OW 1690   2.871   2.076   0.473  0.3923  0.4628 -0.0972
  564SOL    HW1 1691   2.839   2.069   0.377 -0.7080 -0.7671 -1.5490
  564SOL    HW2 1692   2.838   1.997   0.523  1.1063  2.6642 -1.5377
  565SOL     OW 1693   0.520   2.870   2.347 -0.2675  0.2960  0.1321
  565SOL    HW1 1694   0.474   2.959   2.369 -1.3072  1.4376 -1.3337
  565SOL    HW2 1695   0.466   2.790   2.387 -0.5069 -2.6630  1.5716
  566SOL     OW 1696   1.680   2.613   2.576  0.2513  0.3299  0.4310
  566SOL    HW1 1697   1.689   2.543   2.649 -0.7431  3.0411 -1.4739
  566SOL    HW2 1698   1.735   2.587   2.492  0.4281 -1.0923 -1.0100
  567SOL     OW 1699   1.739   2.052   1.410  0.0131  0.3316  0.0280
  567SOL    HW1 1700   1.749   2.151   1.413 -2.2522  1.2285 -0.1315
  567SOL    HW2 1701   1.659   2.029   1.357  0.8366 -2.3150  1.2234
  568SOL     OW 1702   2.063   0.723   2.956  0.2446 -0.1884 -0.5748
  568SOL    HW1 1703   2.043   0.732   3.054  2.0701  1.5135  0.1358
  568SOL    HW2 1704   2.149   0.678   2.948 -0.5525  0.9610  1.0235
  569SOL     OW 1705   2.956   1.469   2.241  0.5198  0.1078 -0.1061
  569SOL    HW1 1706   2.996   1.549   2.192 -0.1315  1.8441  2.2820
  569SOL    HW2 1707   3.007   1.446   2.329  0.9392 -1.2878  1.2471
  570SOL     OW 1708   2.637   2.708   1.822 -0.1779  0.5299 -0.4119
  570SOL    HW1 1709   2.579   2.747   1.900  0.1680  1.9359  3.8467
  570SOL    HW2 1710   2.726   2.693   1.861 -0.8731  1.6772 -0.1287
  571SOL     OW 1711   0.382   0.088   1.562  0.5745 -0.1346 -0.2080
  571SOL    HW1 1712   0.481   0.088   1.542  0.7956  0.2132  0.6242
  571SOL    HW2 1713   0.354   0.169   1.620  1.9015 -0.4105 -0.4268
  572SOL     OW 1714   0.013   1.941   0.665  0.2252  0.6306 -0.5171
  572SOL    HW1 1715   3.053   2.011   0.708  0.0508  0.7622  0.5409
  572SOL    HW2 1716   0.017   1.861   0.728  0.5796 -0.8823 -1.0316
  573SOL     OW 1717   0.960   0.581   3.021 -0.1570  0.1110  0.1028
  573SOL    HW1 1718   0.915   0.651   3.081 -0.1700 -2.8404 -1.1914
  573SOL    HW2 1719   0.887   0.520   2.985  1.2843  0.7343 -0.6203
  574SOL     OW 1720   3.054   3.078   0.165 -0.1499  0.4328 -0.2657
  574SOL    HW1 1721   3.086   0.058   0.107  4.2571  3.4105  0.6390
  574SOL    HW2 1722   2.980   3.031   0.115  1.6570 -1.8507  1.3120
  575SOL     OW 1723   1.239   2.178   1.251  0.5438 -0.4471  0.0861
  575SOL    HW1 1724   1.152   2.137   1.203 -5.6111  2.2919  0.0253
  575SOL    HW2 1725   1.315   2.205   1.181  2.3215 -0.2379 -0.2161
  576SOL     OW 1726   3.055   2.837   1.289 -0.4029 -0.3370  0.1550
  576SOL    HW1 1727   2.999   2.756   1.294  2.5836  1.8038  1.2954
  576SOL    HW2 1728   0.022   2.841   1.366  1.3438  1.4462 -0.6643
  577SOL     OW 1729   2.226   1.565   1.480  0.0680  0.0073 -0.0150
  577SOL    HW1 1730   2.161   1.609   1.548 -2.9464  0.2793  0.4380
  577SOL    HW2 1731   2.197   1.576   1.385  1.1025 -0.5780  1.2928
  578SOL     OW 1732   1.062   3.050   2.798  0.5540 -0.0290 -0.4674
  578SOL    HW1 1733   1.009   3.061   2.713 -0.3524 -1.9642 -0.0807
  578SOL    HW2 1734   1.069   0.038   2.855 -0.2822  0.5145  1.5190
  579SOL     OW 1735   2.587   1.779   2.170 -0.1146 -0.3103  0.5502
  579SOL    HW1 1736   2.636   1.705   2.122 -1.7301 -1.3189  2.3066
  579SOL    HW2 1737   2.603   1.865   2.116  1.1333  1.9531 -3.5511
  580SOL     OW 1738   1.689   0.354   1.709  0.4050  0.0243  0.2473
  580SOL    HW1 1739   1.643   0.356   1.616 -2.2857  1.2976 -0.5208
  580SOL    HW2 1740   1.620   0.347   1.784  1.7439  0.7080 -0.0154
  581SOL     OW 1741   1.224   1.613   1.804 -0.3718 -0.3468 -0.4229
  581SOL    HW1 1742   1.245   1.612   1.904  0.6695  1.4400 -1.3177
  581SOL    HW2 1743   1.154   1.547   1.773 -0.3867  0.7000  1.3910
  582SOL     OW 1744   0.034   2.546   2.077 -0.6183 -0.5198  0.0101
  582SOL    HW1 1745   0.111   2.579   2.019 -0.7231 -1.2406  0.3952
  582SOL    HW2 1746   0.045   2.584   2.169 -2.0011  1.2631 -1.8874
  583SOL     OW 1747   1.649   1.157   1.208  0.0435 -0.1290  0.3413
  583SOL    HW1 1748   1.695   1.237   1.250 -0.5782 -0.1901  1.7960
  583SOL    HW2 1749   1.590   1.114   1.278  0.8833 -0.6684 -0.2223
  584SOL     OW 1750   1.400   1.792   2.771 -0.2394  0.0964 -0.6104
  584SOL    HW1 1751   1.482   1.809   2.716 -1.6917 -0.2299  0.1027
  584SOL    HW2 1752   1.328   1.856   2.744  0.0122 -0.1676  0.7479
  585SOL     OW 1753   0.177   2.493   0.291  0.0051 -0.3815  0.4152
  585SOL    HW1 1754   0.219   2.441   0.370 -0.2002  0.6184  1.6841
  585SOL    HW2 1755   0.172   2.444   0.199 -0.4650  0.7877 -0.0350
  586SOL     OW 1756   1.899   2.309   2.934 -0.0269  0.2019 -0.0929
  586SOL    HW1 1757   1.954   2.324   3.016 -0.0943  2.1904 -1.4865
  586SOL    HW2 1758   1.952   2.330   2.848 -3.0597  2.4057 -2.1773
  587SOL     OW 1759   2.539   2.015   0.330  0.3946 -0.1779  0.1965
  587SOL    HW1 1760   2.530   2.104   0.274 -1.3805  4.3767 -1.3656
  587SOL    HW2 1761   2.622   1.970   0.297 -1.1102  3.6647 -1.2648
  588SOL     OW 1762   2.169   0.394   1.180  0.1128 -0.4840  0.2758
  588SOL    HW1 1763   2.261   0.356   1.198 -1.7824 -1.3556  0.2180
  588SOL    HW2 1764   2.164   0.494   1.201 -0.5314 -0.9429  1.6832
  589SOL     OW 1765   1.039   0.733   0.512 -0.2236  0.7838 -0.3091
  589SOL    HW1 1766   0.965   0.669   0.490  2.2450  1.0630  2.6131
  589SOL    HW2 1767   1.116   0.690   0.562 -0.4678  0.3720 -0.3340
  590SOL     OW 1768   2.395   2.378   0.013  0.1896 -0.1084 -0.2263
  590SOL    HW1 1769   2.312   2.316   0.031 -0.9770 -1.3956 -1.7630
  590SOL    HW2 1770   2.376   2.471   0.048 -1.7916 -2.3072  0.8620
  591SOL     OW 1771   0.291   2.624   1.927  0.2555 -0.8505  0.1035
  591SOL    HW1 1772   0.374   2.591   1.878  0.0027  0.9586 -0.2263
  591SOL    HW2 1773   0.289   2.727   1.913  1.6428  0.0402 -0.4133
  592SOL     OW 1774   0.827   1.156   1.138  0.4206  0.3247  0.0461
  592SOL    HW1 1775   0.746   1.147   1.203  1.4714  1.0571  2.2531
  592SOL    HW2 1776   0.845   1.066   1.088  1.5314  1.1609 -1.5590
  593SOL     OW 1777   1.079   1.771   1.349 -0.3201  0.0323 -0.6048
  593SOL    HW1 1778   1.148   1.725   1.283  0.4245  2.0256  1.1469
  593SOL    HW2 1779   1.026   1.698   1.397  2.5326  1.9311 -0.8072
  594SOL     OW 1780   0.367   1.931   2.826  0.2793  0.1564 -0.2358
  594SOL    HW1 1781   0.391   1.881   2.911  2.2818  0.9998  2.8421
  594SOL    HW2 1782   0.437   1.996   2.799 -0.1546 -0.0157  1.2315
  595SOL     OW 1783   1.393   0.599   1.047 -0.3148 -0.2385  0.0492
  595SOL    HW1 1784   1.444   0.610   0.958  0.5488 -0.0652 -0.4499
  595SOL    HW2 1785   1.335   0.514   1.039 -1.7156 -1.2122 -1.0402
  596SOL     OW 1786   0.276   1.549   0.457  0.1649 -0.2177 -0.9349
  596SOL    HW1 1787   0.187   1.585   0.427  1.5653 -0.7413 -1.6364
  596SOL    HW2 1788   0.275   1.468   0.524  1.1393 -1.4293  1.0763
  597SOL     OW 1789   3.032   2.309   3.010  0.0598  0.0538  0.0131
  597SOL    HW1 1790   3.083   2.291   2.923  1.5789 -0.9155  0.3445
  597SOL    HW2 1791   2.988   2.221   3.032 -0.8555  2.1472 -1.5692
  598SOL     OW 1792   2.143   1.908   2.459  0.6456  0.1129  0.2943
  598SOL    HW1 1793   2.210   1.834   2.456  0.0429 -0.9549  0.6741
  598SOL    HW2 1794   2.082   1.886   2.537  0.5644  1.7771 -0.9043
  599SOL     OW 1795   1.306   0.392   0.418 -0.3501  0.6575  0.1956
  599SOL    HW1 1796   1.253   0.434   0.345  1.3802 -1.0803 -0.5434
  599SOL    HW2 1797   1.390   0.448   0.432 -0.2338  1.7168 -2.9948
  600SOL     OW 1798   0.718   2.812   0.258 -0.1795 -0.0563 -0.4647
  600SOL    HW1 1799   0.731   2.872   0.338 -0.8197  0.0063  0.4764
  600SOL    HW2 1800   0.624   2.785   0.237  0.2154 -0.4512 -0.0643
  601SOL     OW 1801   0.531   0.692   1.134 -0.6756  0.0980 -0.1452
  601SOL    HW1 1802   0.496   0.767   1.189 -0.3478  1.6317  0.3474
  601SOL    HW2 1803   0.632   0.689   1.137  0.6983 -0.6026 -0.3149
  602SOL     OW 1804   0.246   2.774   1.106  0.0549  0.7092  0.7456
  602SOL    HW1 1805   0.206   2.862   1.129  0.1581 -0.0309  2.5463
  602SOL    HW2 1806   0.181   2.697   1.119 -0.6787  0.4547 -1.1012
  603SOL     OW 1807   1.265   2.723   2.569 -0.0856 -0.3360 -0.8294
  603SOL    HW1 1808   1.301   2.816   2.579  1.4860  1.4655  1.1898
  603SOL    HW2 1809   1.200   2.706   2.645 -1.6263  1.1073 -0.2098
  604SOL     OW 1810   0.700   2.814   2.868  0.3146 -0.4621  0.4240
  604SOL    HW1 1811   0.713   2.748   2.944  0.1864 -0.5971 -0.6127
  604SOL    HW2 1812   0.747   2.787   2.779  1.0940 -1.7234 -2.3752
  605SOL     OW 1813   0.902   0.707   1.709  0.7320  0.3066  0.2410
  605SOL    HW1 1814   0.865   0.651   1.634  0.5084  1.7940 -0.5897
  605SOL    HW2 1815   0.968   0.659   1.768 -0.8940 -0.1072  0.3912
  606SOL     OW 1816   1.981   0.507   2.803  0.1060  0.4950  0.3328
  606SOL    HW1 1817   1.985   0.582   2.869 -1.7225  0.7304 -1.2061
  606SOL    HW2 1818   1.884   0.473   2.790 -0.9118  1.5585 -0.7849
  607SOL     OW 1819   0.621   1.266   0.940 -0.2952  0.5448  0.6078
  607SOL    HW1 1820   0.688   1.232   1.006  1.2699 -1.0016 -0.0301
  607SOL    HW2 1821   0.554   1.199   0.913  2.0310  2.4006  1.1097
  608SOL     OW 1822   0.046   2.653   2.325 -0.1414  0.4915 -0.2827
  608SOL    HW1 1823   0.065   2.752   2.312 -0.3657  0.7943  1.4016
  608SOL    HW2 1824   3.051   2.633   2.364 -2.9138 -1.9814 -1.1829
  609SOL     OW 1825   1.457   0.652   0.032  0.1712  0.1948  0.0440
  609SOL    HW1 1826   1.516   0.592   0.094 -0.8348 -1.4188 -0.0422
  609SOL    HW2 1827   1.365   0.659   0.080 -2.7379  0.4658 -1.0829
  610SOL     OW 1828   0.645   2.596   1.291 -0.0536 -0.1110  0.2079
  610SOL    HW1 1829   0.717   2.563   1.228  0.9998  0.1094  1.6730
  610SOL    HW2 1830   0.604   2.685   1.266  1.2198 -0.1464 -4.0068
  611SOL     OW 1831   1.516   0.990   0.521 -0.2610  0.1417  0.5696
  611SOL    HW1 1832   1.539   1.080   0.482  2.3958  2.9409 -0.1884
  611SOL    HW2 1833   1.557   0.917   0.465  2.9143  0.1317 -0.6262
  612SOL     OW 1834   1.440   0.778   2.708 -0.2231 -0.6619  0.2173
  612SOL    HW1 1835   1.351   0.767   2.666  0.6727  1.0852 -0.4379
  612SOL    HW2 1836   1.439   0.856   2.774  0.7704  4.5894  0.8105
  613SOL     OW 1837   2.392   1.080   0.747  0.9564  0.1351 -0.3077
  613SOL    HW1 1838   2.293   1.065   0.737 -3.8430 -0.6153 -1.3507
  613SOL    HW2 1839   2.440   1.020   0.819 -0.9265 -1.6833  1.4189
  614SOL     OW 1840   2.344   0.226   2.132 -0.1047  0.2246  0.1507
  614SOL    HW1 1841   2.396   0.211   2.221 -0.6891 -2.2279  1.6152
  614SOL    HW2 1842   2.402   0.220   2.049 -0.5908  2.3833 -0.0741
  615SOL     OW 1843   0.670   2.149   0.964 -0.1685  0.1845  0.1375
  615SOL    HW1 1844   0.644   2.131   1.061 -0.3636 -2.9618 -2.1531
  615SOL    HW2 1845   0.708   2.246   0.938  0.4117  2.9741 -2.3569
  616SOL     OW 1846   1.762   1.077   2.489  0.1315  0.3863  0.1476
  616SOL    HW1 1847   1.843   1.052   2.426  3.4765  2.2306 -1.0705
  616SOL    HW2 1848   1.772   1.162   2.544 -1.1949 -1.5723 -0.0477
  617SOL     OW 1849   1.535   2.856   0.162 -0.1437 -0.3923 -0.3428
  617SOL    HW1 1850   1.522   2.931   0.229  1.1135 -0.6639 -2.5608
  617SOL    HW2 1851   1.448   2.821   0.123 -0.0217 -1.4552 -1.1113
  618SOL     OW 1852   1.281   1.444   2.368 -0.5271  0.0639  0.1966
  618SOL    HW1 1853   1.309   1.536   2.408  1.5304 -0.9751  2.0061
  618SOL    HW2 1854   1.310   1.376   2.441 -0.8777 -0.7836 -0.6148
  619SOL     OW 1855   2.597   1.424   0.842 -0.2068 -0.5522 -0.1799
  619SOL    HW1 1856   2.515   1.425   0.778  1.4395  2.2580 -1.5471
  619SOL    HW2 1857   2.634   1.330   0.852  1.7247 -0.7324 -1.8130
  620SOL     OW 1858   2.235   2.575   2.671 -0.3576 -0.2004 -0.3410
  620SOL    HW1 1859   2.299   2.625   2.732 -0.5633 -0.3404 -3.7036
  620SOL    HW2 1860   2.143   2.617   2.682  0.0143 -0.7561  0.8146
  621SOL     OW 1861   2.668   1.306   0.550  0.4917 -0.3928 -0.1593
  621SOL    HW1 1862   2.671   1.324   0.449  0.3117  0.1914  1.3983
  621SOL    HW2 1863   2.633   1.210   0.561  2.0923  3.7394 -0.1230
  622SOL     OW 1864   1.408   2.484   2.581 -0.2750  0.3074  0.3090
  622SOL    HW1 1865   1.494   2.518   2.541 -2.2275  0.8601  0.8879
  622SOL    HW2 1866   1.336   2.545   2.555  2.9092  1.7893 -1.6640
  623SOL     OW 1867   0.380   2.262   0.153  0.5924  0.0804 -0.0398
  623SOL    HW1 1868   0.292   2.211   0.150  1.6019 -1.8257 -2.0470
  623SOL    HW2 1869   0.369   2.353   0.111  0.5837 -0.6747  0.0513
  624SOL     OW 1870   0.306   0.050   3.048 -0.1906 -0.5378 -0.6747
  624SOL    HW1 1871   0.389   0.091   3.002  2.2035 -1.1327 -0.3311
  624SOL    HW2 1872   0.320   3.048   3.047  1.1597  0.4209  0.4193
  625SOL     OW 1873   0.885   2.246   2.989 -0.3002 -0.2098 -0.0194
  625SOL    HW1 1874   0.928   2.318   2.931  1.1955 -0.2515  0.0087
  625SOL    HW2 1875   0.792   2.226   2.951 -0.2887  0.6792  0.0675
  626SOL     OW 1876   3.000   0.726   0.426  0.4130  0.3255  0.5166
  626SOL    HW1 1877   2.951   0.729   0.337  0.3281  0.8373  0.3983
  626SOL    HW2 1878   3.037   0.638   0.446 -1.7292  1.6443 -1.5259
  627SOL     OW 1879   1.853   1.416   2.892  0.0953  0.7633 -0.3355
  627SOL    HW1 1880   1.858   1.349   2.969  1.5756  0.6261 -1.5407
  627SOL    HW2 1881   1.919   1.492   2.897  1.3769  0.4772  1.1580
  628SOL     OW 1882   1.329   1.238   2.553 -0.5867  0.0877  0.0846
  628SOL    HW1 1883   1.297   1.164   2.610  1.3193  0.1141  0.6441
  628SOL    HW2 1884   1.421   1.224   2.516 -0.2390 -0.5301 -1.2052
  629SOL     OW 1885   0.295   2.958   1.703  0.4101 -0.2946 -0.2140
  629SOL    HW1 1886   0.301   2.870   1.651 -0.1658  0.2360  1.3991
  629SOL    HW2 1887   0.353   3.027   1.650  3.4132  1.4175 -1.2079
  630SOL     OW 1888   2.242   0.792   2.036  0.2301  0.1782  0.8309
  630SOL    HW1 1889   2.272   0.705   1.999 -1.0155  1.1888 -1.0038
  630SOL    HW2 1890   2.179   0.784   2.117 -2.1316  1.5720  1.2870
  631SOL     OW 1891   1.916   0.275   0.667 -0.3167  0.2679 -0.0867
  631SOL    HW1 1892   1.987   0.246   0.735  1.8915  1.1091 -0.8283
  631SOL    HW2 1893   1.861   0.192   0.632  0.4324 -2.1764 -1.1785
  632SOL     OW 1894   0.131   0.560   1.542  0.2668  0.0357  0.2900
  632SOL    HW1 1895   0.083   0.470   1.539  0.3909  2.3453 -2.1933
  632SOL    HW2 1896   0.206   0.563   1.609  2.0518 -2.4291 -2.9299
  633SOL     OW 1897   0.905   0.299   0.111 -0.5114 -0.2675 -0.2447
  633SOL    HW1 1898   0.879   0.363   0.032 -1.0214 -0.7934  1.1011
  633SOL    HW2 1899   0.829   0.238   0.145  0.0841  0.3609  0.5358
  634SOL     OW 1900   0.778   2.569   2.980 -0.4230 -0.0532  0.2961
  634SOL    HW1 1901   0.833   2.599   3.061  0.7743  1.2548  2.7706
  634SOL    HW2 1902   0.850   2.522   2.924 -0.2173 -0.7348  1.6191
  635SOL     OW 1903   0.179   0.650   0.637 -0.0178 -0.2798  0.9973
  635SOL    HW1 1904   0.122   0.586   0.579  0.6909 -1.0824 -0.4146
  635SOL    HW2 1905   0.263   0.679   0.584 -0.4323 -0.3336 -0.1548
  636SOL     OW 1906   0.597   1.336   0.208  0.3701 -0.0823 -0.3832
  636SOL    HW1 1907   0.625   1.346   0.109  0.6555  1.1013 -1.7113
  636SOL    HW2 1908   0.665   1.369   0.274 -1.3651  0.6145  2.4263
  637SOL     OW 1909   0.259   2.780   0.197  0.1720  0.2964  0.1157
  637SOL    HW1 1910   0.218   2.714   0.259  0.7381  1.1747 -0.0310
  637SOL    HW2 1911   0.234   2.877   0.213  1.1850 -2.7032 -1.2395
  638SOL     OW 1912   3.000   2.561   0.418 -0.3449 -0.0618  0.4858
  638SOL    HW1 1913   2.964   2.478   0.467 -0.6862 -0.9417 -0.1964
  638SOL    HW2 1914   3.074   2.531   0.351  1.7486 -2.4418  0.4888
  639SOL     OW 1915   1.784   0.919   0.134  0.5225  0.0053 -0.2442
  639SOL    HW1 1916   1.692   0.915   0.088  2.5607  0.7412 -1.0480
  639SOL    HW2 1917   1.819   1.011   0.136 -0.1519 -2.5945 -0.1005
  640SOL     OW 1918   1.746   2.487   1.666  0.4604  0.5427  0.0862
  640SOL    HW1 1919   1.674   2.545   1.630 -1.0362  0.5460  1.6434
  640SOL    HW2 1920   1.755   2.413   1.600 -1.2749  1.0756  2.7731
  641SOL     OW 1921   2.875   2.533   0.876  0.0745 -0.0516 -0.3809
  641SOL    HW1 1922   2.786   2.486   0.859  1.4058  1.9640 -2.6572
  641SOL    HW2 1923   2.929   2.548   0.791 -0.9759 -4.2510  1.6687
  642SOL     OW 1924   0.957   0.062   1.840  0.3927  0.4572  0.0387
  642SOL    HW1 1925   0.984   0.157   1.803 -0.2017  0.8446 -0.8704
  642SOL    HW2 1926   0.973   0.052   1.938  1.8070  0.4045 -0.2644
  643SOL     OW 1927   0.957   2.436   2.823 -0.0804 -0.1422 -0.3142
  643SOL    HW1 1928   0.952   2.402   2.728 -0.8933 -0.3649  0.9761
  643SOL    HW2 1929   1.057   2.458   2.840 -1.4921  2.1250  1.5560
  644SOL     OW 1930   1.257   2.481   0.816 -0.0809  0.5899 -0.0783
  644SOL    HW1 1931   1.336   2.430   0.773 -1.5734 -0.4597  1.2199
  644SOL    HW2 1932   1.185   2.417   0.846  0.5752  1.2908 -1.9340
  645SOL     OW 1933   1.373   1.324   1.716 -0.0086 -0.0150 -0.3089
  645SOL    HW1 1934   1.376   1.237   1.662 -3.6005 -0.5555  0.5022
  645SOL    HW2 1935   1.282   1.356   1.735  0.6924  0.8175  0.3766
  646SOL     OW 1936   0.174   0.699   0.144 -0.2136  0.2177  0.1600
  646SOL    HW1 1937   0.118   0.620   0.177 -3.0367 -0.0866  1.5700
  646SOL    HW2 1938   0.202   0.761   0.221 -0.9918  2.0452 -2.0027
  647SOL     OW 1939   1.098   0.238   0.526  0.5171  0.1031  0.4905
  647SOL    HW1 1940   1.123   0.171   0.449 -0.0555 -1.2637 -1.2569
  647SOL    HW2 1941   1.160   0.317   0.518 -0.0186 -2.0854 -2.1915
  648SOL     OW 1942   2.356   2.717   1.162  0.6628 -0.0902  0.4424
  648SOL    HW1 1943   2.430   2.672   1.214 -2.2781  0.1669  0.7353
  648SOL    HW2 1944   2.289   2.758   1.225  0.6531 -3.6817 -0.7137
  649SOL     OW 1945   0.629   2.147   2.913  0.1923  0.0896 -0.0008
  649SOL    HW1 1946   0.560   2.211   2.872 -2.8124  0.3522  0.9766
  649SOL    HW2 1947   0.605   2.127   3.012  1.7881 -0.6154  0.7934
  650SOL     OW 1948   2.321   1.921   1.841 -0.1041  0.2968 -0.7612
  650SOL    HW1 1949   2.242   1.979   1.855  4.0654 -0.7671 -0.3744
  650SOL    HW2 1950   2.320   1.846   1.911  0.6353  0.1953  2.4330
  651SOL     OW 1951   2.963   3.010   2.490  0.3392 -0.5390 -0.2481
  651SOL    HW1 1952   2.876   2.967   2.529 -1.2797 -2.6347 -0.7811
  651SOL    HW2 1953   2.951   0.009   2.501  0.7595 -1.8084 -0.7731
  652SOL     OW 1954   2.661   1.739   0.490  0.5368 -0.7039 -0.0955
  652SOL    HW1 1955   2.646   1.733   0.592 -0.6785 -0.2475  2.3818
  652SOL    HW2 1956   2.762   1.747   0.474  0.4256 -1.5923 -2.1598
  653SOL     OW 1957   0.096   0.300   0.944  0.5224 -0.1968  0.1335
  653SOL    HW1 1958   0.158   0.368   0.901 -2.7564 -0.5558 -2.0112
  653SOL    HW2 1959   0.129   0.204   0.940  2.0520  1.0696 -1.8317
  654SOL     OW 1960   0.844   0.044   0.327  0.0872  0.1784  0.1153
  654SOL    HW1 1961   0.942   0.036   0.307 -0.9684  0.1432 -0.3773
  654SOL    HW2 1962   0.795   0.055   0.235  2.2988  1.7668 -0.5361
  655SOL     OW 1963   0.523   2.829   1.182  0.4228  0.0012  0.0677
  655SOL    HW1 1964   0.565   2.797   1.096 -0.4522  2.1950  1.8401
  655SOL    HW2 1965   0.420   2.821   1.179  0.1614  0.5870  2.7124
  656SOL     OW 1966   0.129   2.882   2.060 -0.1360 -0.4805  0.1069
  656SOL    HW1 1967   0.105   2.927   2.147  0.5561  0.7043 -1.3529
  656SOL    HW2 1968   0.122   2.954   1.982  0.8980  0.5871 -3.3423
  657SOL     OW 1969   1.872   0.684   2.406 -0.3192 -0.5711  0.3354
  657SOL    HW1 1970   1.800   0.717   2.470 -0.7533 -2.0564  2.5595
  657SOL    HW2 1971   1.914   0.596   2.445  0.2867 -0.6194  1.5128
  658SOL     OW 1972   1.863   1.523   1.210 -0.1568 -0.1813  0.0604
  658SOL    HW1 1973   1.774   1.526   1.154 -0.1252  0.4698 -2.1758
  658SOL    HW2 1974   1.840   1.563   1.301  0.0599 -1.5531 -1.0093
  659SOL     OW 1975   2.418   2.693   2.853 -0.6949  0.2392 -0.0708
  659SOL    HW1 1976   2.466   2.749   2.783  0.0443  1.9949 -1.9238
  659SOL    HW2 1977   2.484   2.661   2.925 -1.2239 -0.1087 -0.1911
  660SOL     OW 1978   1.343   0.773   0.399 -0.0192  0.2787  0.0872
  660SOL    HW1 1979   1.320   0.746   0.499 -1.1985 -2.1885  2.9503
  660SOL    HW2 1980   1.417   0.708   0.360  0.3703  0.3820 -1.2873
  661SOL     OW 1981   2.563   2.975   0.360  0.0327 -0.0152 -0.0341
  661SOL    HW1 1982   2.591   2.999   0.456  0.5404 -0.4893  1.9876
  661SOL    HW2 1983   2.578   3.054   0.298 -2.5512 -0.1673 -1.2187
  662SOL     OW 1984   0.980   0.258   1.167  0.2877  0.0823 -0.5500
  662SOL    HW1 1985   0.912   0.335   1.148 -2.4301  0.1755 -0.6064
  662SOL    HW2 1986   0.948   0.176   1.115 -1.1121  1.8295  1.1821
  663SOL     OW 1987   1.446   2.919   2.181  0.5898  0.4958 -0.0583
  663SOL    HW1 1988   1.357   2.894   2.139  1.9343 -0.8591  1.1845
  663SOL    HW2 1989   1.445   2.989   2.255  1.4622 -1.3106  1.3217
  664SOL     OW 1990   0.751   2.255   1.619 -0.8312  0.7816  0.2337
  664SOL    HW1 1991   0.842   2.243   1.669 -0.3016  0.9292  1.2370
  664SOL    HW2 1992   0.768   2.224   1.526  0.2476 -0.8148 -0.0684
  665SOL     OW 1993   0.990   2.159   1.725  0.8670  0.3643  0.3763
  665SOL    HW1 1994   0.934   2.104   1.794 -0.2756 -2.3829  0.7982
  665SOL    HW2 1995   0.999   2.110   1.638  1.1134 -0.2970  3.0955
  666SOL     OW 1996   0.016   2.703   2.921  0.3515  1.0716  0.2488
  666SOL    HW1 1997   0.024   2.770   2.845 -0.2355  0.4527  1.3870
  666SOL    HW2 1998   0.106   2.685   2.969 -0.0225  0.3007  3.0195
  667SOL     OW 1999   1.495   1.685   1.321 -0.0060  0.4457  0.1780
  667SOL    HW1 2000   1.532   1.683   1.419 -0.3171  0.6329  1.8935
  667SOL    HW2 2001   1.519   1.777   1.281 -0.5089  2.6414  0.9454
  668SOL     OW 2002   1.261   0.328   2.318 -0.8384 -0.2081 -0.1257
  668SOL    HW1 2003   1.296   0.418   2.351  0.4159  1.6415 -2.0433
  668SOL    HW2 2004   1.201   0.276   2.386 -3.1174 -0.8022 -2.1320
  669SOL     OW 2005   2.506   2.164   1.637  0.5712 -0.3791 -0.1621
  669SOL    HW1 2006   2.402   2.149   1.662 -3.4709 -1.5851  1.1545
  669SOL    HW2 2007   2.551   2.227   1.706  0.7862  0.6319 -0.6430
  670SOL     OW 2008   1.847   1.868   0.103  0.3257 -0.3638 -0.6268
  670SOL    HW1 2009   1.775   1.876   0.176  0.6309  1.3214  2.8504
  670SOL    HW2 2010   1.805   1.870   0.013  2.8972 -1.5177  0.8696
  671SOL     OW 2011   1.215   1.037   0.938 -0.6122  0.6194  0.0621
  671SOL    HW1 2012   1.281   0.970   0.986  1.0117 -2.7110  2.2427
  671SOL    HW2 2013   1.237   1.047   0.838 -3.3555  0.5591  1.4736
  672SOL     OW 2014   2.492   1.162   2.387 -0.4916  0.2062  0.0177
  672SOL    HW1 2015   2.508   1.253   2.346 -0.1301  0.0186  1.6053
  672SOL    HW2 2016   2.585   1.127   2.423  2.3750  2.0340  0.5345
  673SOL     OW 2017   3.069   1.642   1.884  0.0630  0.3034  0.1488
  673SOL    HW1 2018   3.021   1.655   1.975 -0.5973  1.9272  4.7331
  673SOL    HW2 2019   2.999   1.632   1.810 -3.3425  1.2447  1.1416
  674SOL     OW 2020   1.153   2.551   2.409 -0.2682  0.6848 -0.0468
  674SOL    HW1 2021   1.183   2.637   2.460 -0.4973 -1.9101  0.3246
  674SOL    HW2 2022   1.077   2.566   2.341 -0.8812 -3.4295 -1.2994
  675SOL     OW 2023   1.088   1.424   1.661 -0.2495  0.0501  0.0345
  675SOL    HW1 2024   1.114   1.383   1.574 -0.5812 -1.9974 -0.3182
  675SOL    HW2 2025   0.998   1.466   1.664  2.0105 -1.5468  2.1848
  676SOL     OW 2026   2.157   0.553   0.848  0.0325 -0.1379 -0.3219
  676SOL    HW1 2027   2.204   0.530   0.758 -0.4691  0.2907  0.0424
  676SOL    HW2 2028   2.222   0.602   0.905  2.2669 -1.8179 -2.4641
  677SOL     OW 2029   2.490   1.518   2.835  0.6972 -0.2488  0.1557
  677SOL    HW1 2030   2.526   1.422   2.819  1.0367 -2.1350 -0.1134
  677SOL    HW2 2031   2.534   1.589   2.775 -2.9328 -2.7637 -2.1287
  678SOL     OW 2032   0.259   3.043   1.181  0.3222 -0.4099 -0.1503
  678SOL    HW1 2033   0.196   3.058   1.261  1.7743  0.2518  0.1507
  678SOL    HW2 2034   0.352   3.080   1.207  0.7245 -0.1056 -1.4949
  679SOL     OW 2035   2.272   0.333   0.172  0.4665 -0.0249  0.7160
  679SOL    HW1 2036   2.285   0.299   0.077  0.7618 -3.3989 -0.0843
  679SOL    HW2 2037   2.300   0.261   0.239  0.7975  2.0049  1.7997
  680SOL     OW 2038   0.310   2.334   1.918  0.3208 -0.3217  0.0375
  680SOL    HW1 2039   0.403   2.307   1.950  0.6577 -3.0828 -0.7805
  680SOL    HW2 2040   0.312   2.417   1.856 -0.2445 -0.2202 -2.2375
  681SOL     OW 2041   1.960   1.952   1.328  0.4089  0.2962  0.3704
  681SOL    HW1 2042   1.874   1.993   1.360  2.4636  0.4162 -1.5798
  681SOL    HW2 2043   1.949   1.926   1.230 -0.0461  3.3873 -2.3091
  682SOL     OW 2044   0.141   2.125   1.952 -0.3574  0.4740 -0.2261
  682SOL    HW1 2045   0.146   2.049   1.884 -0.9296 -0.3986 -0.2107
  682SOL    HW2 2046   0.200   2.204   1.923 -1.1126  0.7681  1.8404
  683SOL     OW 2047   0.143   2.111   1.308  0.4921  0.2900 -0.2600
  683SOL    HW1 2048   0.109   2.023   1.348 -2.8162 -2.4517 -0.1293
  683SOL    HW2 2049   0.058   2.143   1.261 -1.6078 -2.3358  1.1702
  684SOL     OW 2050   2.339   0.809   2.525 -0.6343 -0.4926  0.4095
  684SOL    HW1 2051   2.323   0.848   2.432 -1.1560 -1.2301  2.3901
  684SOL    HW2 2052   2.335   0.889   2.590 -1.6333  1.7384 -0.8137
  685SOL     OW 2053   1.386   1.368   0.476 -0.0568 -0.1280  0.4292
  685SOL    HW1 2054   1.454   1.300   0.444  0.0613  0.0448  3.1136
  685SOL    HW2 2055   1.401   1.385   0.573 -1.0479  2.3189 -2.5432
  686SOL     OW 2056   0.162   0.084   0.527  0.3538  0.5381  0.2546
  686SOL    HW1 2057   0.239   0.138   0.569 -1.4937  0.7683  0.1655
  686SOL    HW2 2058   0.105   0.040   0.601  0.5158 -1.2599  0.9238
  687SOL     OW 2059   1.549   1.206   2.376 -0.0952  0.2139  0.2264
  687SOL    HW1 2060   1.594   1.294   2.348 -1.0386  0.6702 -0.8989
  687SOL    HW2 2061   1.617   1.144   2.424  1.0816 -0.2966  0.7379
  688SOL     OW 2062   1.420   1.412   1.412  0.2329  0.1205 -0.5040
  688SOL    HW1 2063   1.506   1.357   1.429  1.7683 -0.5484  1.0811
  688SOL    HW2 2064   1.443   1.504   1.380 -0.8685 -1.4431  0.9385
  689SOL     OW 2065   2.309   0.055   1.307 -0.2330  0.6064 -0.0196
  689SOL    HW1 2066   2.347   0.146   1.268 -1.8307  1.2237 -1.6239
  689SOL    HW2 2067   2.273   3.090   1.236  4.1206 -0.1148 -2.2116
  690SOL     OW 2068   0.009   1.409   1.069 -0.0712  0.1785 -0.3233
  690SOL    HW1 2069   3.035   1.432   1.000 -0.1060  0.1867 -1.4425
  690SOL    HW2 2070   3.087   1.324   1.118 -0.0515 -1.3376  2.7002
  691SOL     OW 2071   0.328   2.363   1.123  0.1811 -0.1377  0.2984
  691SOL    HW1 2072   0.285   2.271   1.113 -1.0096  1.0847 -0.5187
  691SOL    HW2 2073   0.398   2.379   1.049  1.2322  0.9756  0.8485
  692SOL     OW 2074   2.334   0.534   1.993  0.0562  0.1559 -0.7911
  692SOL    HW1 2075   2.256   0.499   2.053 -1.6890 -0.0464 -1.6416
  692SOL    HW2 2076   2.386   0.459   1.949  0.0623  2.4800 -0.8004
  693SOL     OW 2077   0.443   1.822   1.997 -0.4096  0.0013 -0.4083
  693SOL    HW1 2078   0.510   1.744   1.998 -1.5530 -0.4958 -1.2336
  693SOL    HW2 2079   0.408   1.838   2.091  0.8962 -0.7934  1.3473
  694SOL     OW 2080   1.510   1.025   1.409  0.3493  0.7431 -0.2206
  694SOL    HW1 2081   1.433   0.958   1.412 -2.0678 -0.3667  2.1865
  694SOL    HW2 2082   1.574   1.003   1.487  1.1503 -0.9516  1.9846
  695SOL     OW 2083   0.844   1.220   0.641 -0.1639  0.1821 -0.3786
  695SOL    HW1 2084   0.896   1.220   0.734 -0.1956  2.3762  0.7305
  695SOL    HW2 2085   0.771   1.149   0.644 -0.9301 -0.1424  0.3846
  696SOL     OW 2086   1.042   2.907   0.554 -0.4048 -0.2260 -0.7765
  696SOL    HW1 2087   1.056   2.820   0.499 -0.1609  2.3491 -0.3864
  696SOL    HW2 2088   1.140   2.940   0.563  1.2416 -1.4154 -1.2671
  697SOL     OW 2089   1.438   0.325   1.852 -0.0897  0.3594 -0.8294
  697SOL    HW1 2090   1.378   0.293   1.933 -1.6656 -1.3694  0.2849
  697SOL    HW2 2091   1.458   0.423   1.851 -1.2508 -2.4486  0.2005
  698SOL     OW 2092   1.815   1.283   2.094  0.5822  0.7686  0.2323
  698SOL    HW1 2093   1.883   1.341   2.047  0.0561  2.4279  0.1674
  698SOL    HW2 2094   1.723   1.271   2.041 -0.4585 -0.2773 -0.3461
  699SOL     OW 2095   2.417   0.308   1.864  0.2940  0.2144  1.2024
  699SOL    HW1 2096   2.496   0.270   1.810  0.4918  0.7180 -0.3560
  699SOL    HW2 2097   2.335   0.299   1.805 -1.0566 -2.9532  1.4049
  700SOL     OW 2098   0.835   2.358   0.526  0.4222  0.4855  0.0416
  700SOL    HW1 2099   0.743   2.372   0.480 -0.1351 -1.4505  1.2080
  700SOL    HW2 2100   0.875   2.274   0.483 -1.6317 -2.2749 -2.5034
  701SOL     OW 2101   1.958   2.661   2.701 -0.1331 -0.1642 -0.4506
  701SOL    HW1 2102   1.879   2.670   2.641  1.2602 -3.2311  5.8214
  701SOL    HW2 2103   1.925   2.693   2.791  0.3027  4.1057 -0.8820
  702SOL     OW 2104   0.954   0.054   0.991  0.1533 -0.4763  0.8027
  702SOL    HW1 2105   1.031   3.085   0.999  1.7724 -1.3107  0.0693
  702SOL    HW2 2106   0.956   0.098   0.894  1.3226  2.7771 -1.3746
  703SOL     OW 2107   2.521   2.971   2.018 -0.2640  0.1737  0.4109
  703SOL    HW1 2108   2.446   2.906   1.992  0.3895  1.6306  0.0393
  703SOL    HW2 2109   2.542   2.958   2.115 -2.4554 -0.5674 -0.2500
  704SOL     OW 2110   2.931   2.336   0.545 -0.1744 -0.2771  0.1339
  704SOL    HW1 2111   2.924   2.379   0.641  0.1392  2.9513  1.4129
  704SOL    HW2 2112   2.890   2.242   0.541  0.3592 -2.9556 -0.2784
  705SOL     OW 2113   2.396   2.787   2.385 -0.3549  0.0320 -0.1684
  705SOL    HW1 2114   2.313   2.843   2.389 -1.1658 -1.0103  0.1765
  705SOL    HW2 2115   2.379   2.688   2.400 -0.0220 -0.8886 -0.8859
  706SOL     OW 2116   2.312   3.005   1.084  0.4401  0.0622 -0.0855
  706SOL    HW1 2117   2.375   3.084   1.055 -0.4246  0.7107 -1.2413
  706SOL    HW2 2118   2.373   2.923   1.096 -1.2027  0.1522  0.6104
  707SOL     OW 2119   0.987   3.019   2.238  0.1182  0.6175  0.1097
  707SOL    HW1 2120   1.075   2.965   2.219  0.9620  0.9338 -1.1815
  707SOL    HW2 2121   0.924   3.001   2.155 -2.0214  2.2532 -1.3170
  708SOL     OW 2122   3.080   2.071   1.625  0.4377 -0.2377 -0.6234
  708SOL    HW1 2123   0.021   2.158   1.594 -0.3299 -1.2750  0.4180
  708SOL    HW2 2124   0.006   1.993   1.560  1.3338  0.5612 -0.5860
  709SOL     OW 2125   1.549   0.349   1.458 -0.2282  0.0399  0.2071
  709SOL    HW1 2126   1.514   0.400   1.379 -0.3533 -0.5554  1.6159
  709SOL    HW2 2127   1.593   0.262   1.422 -0.3892  1.0897 -1.2567
  710SOL     OW 2128   0.591   3.051   2.743 -0.1681 -0.1075 -0.3820
  710SOL    HW1 2129   0.620   2.978   2.811  1.0336 -1.4350  3.6196
  710SOL    HW2 2130   0.660   3.077   2.673  0.1408 -0.4320  1.5449
  711SOL     OW 2131   0.788   2.156   2.659 -0.2539  0.2380 -0.0226
  711SOL    HW1 2132   0.708   2.098   2.688  0.3574 -1.4808 -0.5144
  711SOL    HW2 2133   0.875   2.099   2.656  1.4323 -1.2275  0.3350
  712SOL     OW 2134   1.084   2.002   2.978 -0.8360 -0.3944 -0.2253
  712SOL    HW1 2135   0.994   2.053   2.977 -1.6897  2.3178  2.0068
  712SOL    HW2 2136   1.151   2.051   2.917  1.3265  1.4197  0.0706
  713SOL     OW 2137   1.921   0.867   2.027  0.2368  0.1060 -0.1762
  713SOL    HW1 2138   1.835   0.847   1.976  0.2822  2.0818 -1.8990
  713SOL    HW2 2139   1.964   0.780   2.059  1.3063  1.4814  0.0779
  714SOL     OW 2140   1.150   1.872   1.847 -0.3245 -0.6730  0.6192
  714SOL    HW1 2141   1.211   1.929   1.789 -2.6136 -2.5610  0.1954
  714SOL    HW2 2142   1.163   1.772   1.831 -1.3114 -0.8891  2.0893
  715SOL     OW 2143   2.314   0.600   0.088  0.3574 -0.4044 -0.3548
  715SOL    HW1 2144   2.322   0.518   0.147  2.2604 -1.1564 -0.8265
  715SOL    HW2 2145   2.296   0.684   0.144  1.3396 -0.9477 -2.1929
  716SOL     OW 2146   3.012   2.188   1.219  0.2217  0.2724  0.4215
  716SOL    HW1 2147   2.929   2.126   1.237 -2.6525  0.4759  0.2044
  716SOL    HW2 2148   2.989   2.284   1.237  0.6380 -0.6906 -0.9199
  717SOL     OW 2149   2.765   1.199   1.002 -0.3247 -0.0403 -0.7803
  717SOL    HW1 2150   2.696   1.191   1.073  0.5794 -0.7776 -0.9007
  717SOL    HW2 2151   2.765   1.110   0.955 -1.2512  0.6874  0.1143
  718SOL     OW 2152   1.451   1.731   1.608  0.5404  0.6603 -0.4912
  718SOL    HW1 2153   1.521   1.684   1.665 -0.5753 -0.7753  1.1462
  718SOL    HW2 2154   1.363   1.682   1.631 -1.4642 -0.9099  3.0071
  719SOL     OW 2155   2.889   0.645   0.193 -0.1549 -0.2830 -0.5040
  719SOL    HW1 2156   2.856   0.682   0.104  1.8939  0.4917  1.1004
  719SOL    HW2 2157   2.957   0.568   0.183 -0.1690  0.5422 -2.1367
  720SOL     OW 2158   0.992   0.113   0.725  0.1388 -0.8377  0.1741
  720SOL    HW1 2159   1.043   0.156   0.642 -0.6093  3.3773 -4.7780
  720SOL    HW2 2160   0.891   0.127   0.712 -0.3325 -0.1990 -0.3312
  721SOL     OW 2161   2.576   0.768   0.619 -0.2044 -0.2686  0.3596
  721SOL    HW1 2162   2.627   0.716   0.543  1.3958 -0.7576  0.5363
  721SOL    HW2 2163   2.572   0.717   0.705  0.8007  2.8283 -0.4485
  722SOL     OW 2164   0.412   2.635   2.407  0.2237  0.1020 -0.5296
  722SOL    HW1 2165   0.407   2.547   2.459 -0.5632 -2.9064 -1.4731
  722SOL    HW2 2166   0.430   2.608   2.307  0.4920 -1.6949  1.6997
  723SOL     OW 2167   1.988   0.251   1.048  0.6169 -0.2219 -0.2386
  723SOL    HW1 2168   2.054   0.302   1.107  0.1271  1.9444  1.8174
  723SOL    HW2 2169   1.896   0.297   1.050  0.0844  1.0482  0.6494
  724SOL     OW 2170   1.133   1.881   2.360  0.0961 -0.0182  0.0431
  724SOL    HW1 2171   1.171   1.978   2.365  0.1977  1.2160  1.4129
  724SOL    HW2 2172   1.125   1.855   2.258  0.9528  2.3448 -2.2115
  725SOL     OW 2173   1.406   2.864   1.367 -0.1127 -0.4553  0.3934
  725SOL    HW1 2174   1.332   2.888   1.428 -0.3831 -1.5489 -1.8386
  725SOL    HW2 2175   1.356   2.803   1.303 -0.7889 -0.7084  0.3294
  726SOL     OW 2176   2.140   2.879   0.140 -0.0404 -0.2362 -0.2662
  726SOL    HW1 2177   2.170   2.902   0.049 -0.0612 -0.3666  1.3097
  726SOL    HW2 2178   2.219   2.860   0.196  0.5767  2.6014 -0.9583
  727SOL     OW 2179   1.249   1.809   0.942 -0.1667 -0.2794  0.1312
  727SOL    HW1 2180   1.226   1.745   1.020  1.0399 -2.2235  1.2212
  727SOL    HW2 2181   1.344   1.791   0.908 -1.4933  0.6299 -0.2707
  728SOL     OW 2182   2.144   2.678   2.164  0.0528  0.3067  0.3069
  728SOL    HW1 2183   2.179   2.664   2.259  0.7458 -4.1092 -0.6414
  728SOL    HW2 2184   2.078   2.608   2.142  0.4400  0.8545  0.0666
  729SOL     OW 2185   1.760   2.318   1.377 -0.6544 -0.4424 -0.0912
  729SOL    HW1 2186   1.748   2.362   1.285 -1.5963  0.3618 -2.8785
  729SOL    HW2 2187   1.852   2.353   1.412 -1.1628  0.9397  1.3357
  730SOL     OW 2188   1.668   0.814   2.565 -0.1418  0.5082  0.3724
  730SOL    HW1 2189   1.579   0.806   2.620  3.0473 -1.6161 -0.7437
  730SOL    HW2 2190   1.693   0.911   2.550 -0.4994 -0.3750 -1.8705
  731SOL     OW 2191   0.886   3.054   1.392 -0.0472 -0.4825 -0.0112
  731SOL    HW1 2192   0.968   3.010   1.440  1.8263  1.6654 -1.3772
  731SOL    HW2 2193   0.871   3.024   1.295 -0.6591 -2.2388  0.8786
  732SOL     OW 2194   1.226   0.011   0.779  0.0254  0.0451  0.0608
  732SOL    HW1 2195   1.133   0.043   0.750 -0.5717 -0.0342  0.1584
  732SOL    HW2 2196   1.293   0.087   0.770 -0.8853 -2.6652 -2.6126
  733SOL     OW 2197   1.232   1.348   0.804 -0.3462 -0.3729 -0.4818
  733SOL    HW1 2198   1.328   1.384   0.800 -3.5729  0.6067 -3.1460
  733SOL    HW2 2199   1.223   1.261   0.754 -1.0355 -0.8129 -2.1547
  734SOL     OW 2200   2.569   2.480   2.438  0.3935 -0.2684 -0.0383
  734SOL    HW1 2201   2.643   2.538   2.479  0.8227 -1.5147  0.6865
  734SOL    HW2 2202   2.607   2.388   2.413  0.2416 -2.7172 -2.9661
  735SOL     OW 2203   0.799   2.992   1.140  0.4238  0.1151 -0.2248
  735SOL    HW1 2204   0.767   2.922   1.072  0.7699 -2.6711 -1.5498
  735SOL    HW2 2205   0.850   3.063   1.088  1.1419 -0.1231  1.0221
  736SOL     OW 2206   1.472   2.072   2.961  0.0030  0.2916  0.1978
  736SOL    HW1 2207   1.546   2.094   2.895  1.3612  0.7536  0.7411
  736SOL    HW2 2208   1.426   1.985   2.941  1.6712 -0.1518  1.9945
  737SOL     OW 2209   0.523   2.129   1.199 -0.2922 -0.4267 -0.3398
  737SOL    HW1 2210   0.444   2.070   1.195  1.7572 -0.4853 -0.1880
  737SOL    HW2 2211   0.585   2.104   1.275  1.2033 -2.4554 -0.2517
  738SOL     OW 2212   1.432   2.967   2.885  0.8760  0.0077 -0.7668
  738SOL    HW1 2213   1.339   3.000   2.919 -0.9164  0.9859  1.6571
  738SOL    HW2 2214   1.456   2.886   2.939  1.4959 -2.0479  0.7106
  739SOL     OW 2215   0.959   2.046   2.140  0.6227 -0.1319  0.4259
  739SOL    HW1 2216   1.056   2.072   2.123  0.5791  0.3989 -0.1776
  739SOL    HW2 2217   0.904   2.123   2.181  0.6079 -1.3677  1.7382
  740SOL     OW 2218   1.245   2.694   1.203 -0.2114 -0.5989 -0.2395
  740SOL    HW1 2219   1.284   2.602   1.176 -1.9272 -1.1228 -0.2177
  740SOL    HW2 2220   1.153   2.674   1.236  0.3119 -1.6576 -1.2540
  741SOL     OW 2221   2.811   1.150   0.196 -0.7041  0.4574  0.2332
  741SOL    HW1 2222   2.805   1.054   0.228  0.1379 -1.5130 -0.0219
  741SOL    HW2 2223   2.754   1.217   0.243  2.5860  0.0514 -1.0361
  742SOL     OW 2224   0.655   1.673   2.487  0.4086  0.2286 -0.4995
  742SOL    HW1 2225   0.674   1.736   2.410  1.3700  0.2613  1.3357
  742SOL    HW2 2226   0.616   1.587   2.449 -1.7138  1.3214 -1.1195
  743SOL     OW 2227   0.738   1.005   2.507 -0.3632 -0.2241 -0.0623
  743SOL    HW1 2228   0.766   0.984   2.604  1.1446  1.3897 -0.9022
  743SOL    HW2 2229   0.636   1.024   2.503 -1.0718 -0.6517  2.5230
  744SOL     OW 2230   1.989   2.461   1.436  0.0716  0.4803 -0.1281
  744SOL    HW1 2231   2.081   2.427   1.403  1.9210 -3.7549  1.2092
  744SOL    HW2 2232   1.971   2.559   1.416 -0.7083  0.3759 -2.5280
  745SOL     OW 2233   1.994   1.136   1.364  0.7450  0.2666  0.1167
  745SOL    HW1 2234   1.990   1.235   1.369  0.6053 -0.6391  1.7963
  745SOL    HW2 2235   1.926   1.097   1.424  0.4648 -1.1049 -4.2905
  746SOL     OW 2236   2.148   1.069   1.154  0.2242  0.2136 -0.3426
  746SOL    HW1 2237   2.136   1.127   1.071 -1.2694 -2.1608  0.6273
  746SOL    HW2 2238   2.089   1.102   1.234 -3.0853  0.9392 -1.1594
  747SOL     OW 2239   1.798   1.808   0.720  0.8664  0.7767 -0.2118
  747SOL    HW1 2240   1.798   1.895   0.777 -0.4784 -0.6441  1.1646
  747SOL    HW2 2241   1.849   1.826   0.636 -1.3991  1.1901 -0.9103
  748SOL     OW 2242   0.611   1.520   0.457 -0.5521 -0.1714 -0.4866
  748SOL    HW1 2243   0.548   1.584   0.512  1.0379  0.0667  0.1987
  748SOL    HW2 2244   0.637   1.566   0.367 -1.9952  0.5963 -3.2011
  749SOL     OW 2245   2.913   2.492   2.433 -0.2893 -0.6249  0.7306
  749SOL    HW1 2246   2.858   2.408   2.417 -0.4255 -1.2348  1.1160
  749SOL    HW2 2247   2.922   2.528   2.528  0.9738  1.1633  0.5208
  750SOL     OW 2248   1.889   0.571   1.358 -0.4458  0.1669  0.1950
  750SOL    HW1 2249   1.990   0.587   1.339 -0.3844  0.2627  0.8336
  750SOL    HW2 2250   1.871   0.485   1.417 -1.4891 -2.0931  4.1263
  751SOL     OW 2251   2.285   0.111   0.333 -0.1016 -0.1915 -0.9875
  751SOL    HW1 2252   2.230   0.065   0.262  1.1368 -0.3077  1.1526
  751SOL    HW2 2253   2.246   0.091   0.426 -2.4838 -0.1643  1.3006
  752SOL     OW 2254   2.155   2.195   0.351  0.4130 -0.0712 -0.6025
  752SOL    HW1 2255   2.214   2.271   0.386  3.7901  1.2018 -0.8606
  752SOL    HW2 2256   2.215   2.114   0.339  1.2775  2.0258 -0.6226
  753SOL     OW 2257   1.874   1.569   2.540 -0.2257  0.2983 -0.1632
  753SOL    HW1 2258   1.957   1.616   2.495  1.5616  2.3375  0.9224
  753SOL    HW2 2259   1.817   1.634   2.591 -2.8406  0.0887 -0.8724
  754SOL     OW 2260   2.573   2.121   1.373  0.1898  0.2373  0.0211
  754SOL    HW1 2261   2.557   2.125   1.475 -3.2257 -1.5116 -0.9131
  754SOL    HW2 2262   2.498   2.076   1.318  1.1388  0.1678  2.0815
  755SOL     OW 2263   2.355   0.716   0.991  0.6784  0.2624  0.6380
  755SOL    HW1 2264   2.338   0.679   1.085 -0.1685 -2.1716 -1.7259
  755SOL    HW2 2265   2.433   0.665   0.949  1.9260 -0.3422 -0.0808
  756SOL     OW 2266   1.233   1.477   2.685 -0.7130 -0.4011 -0.0142
  756SOL    HW1 2267   1.267   1.559   2.626  0.3004 -1.4801 -1.4912
  756SOL    HW2 2268   1.291   1.393   2.665  0.9218 -0.9561  2.5569
  757SOL     OW 2269   1.750   2.630   1.040  0.2435  0.2865 -0.1845
  757SOL    HW1 2270   1.784   2.726   1.044 -0.2033 -0.3818  0.0778
  757SOL    HW2 2271   1.692   2.627   0.955  0.4598  0.0772  1.1142
  758SOL     OW 2272   1.076   2.315   1.419  0.7751  0.5811  0.3913
  758SOL    HW1 2273   0.981   2.295   1.386 -2.3533  0.2475 -1.4523
  758SOL    HW2 2274   1.142   2.274   1.353  0.2966 -2.4057  0.8800
  759SOL     OW 2275   2.302   1.375   1.086  0.0715  0.3337  0.1841
  759SOL    HW1 2276   2.260   1.443   1.151  1.4270 -1.1799 -0.6927
  759SOL    HW2 2277   2.228   1.323   1.037 -3.2021 -0.7455 -0.7156
  760SOL     OW 2278   2.347   0.937   1.246  0.4336 -0.1488 -0.4127
  760SOL    HW1 2279   2.260   0.980   1.212 -0.3530  0.1055  1.6938
  760SOL    HW2 2280   2.393   1.001   1.307 -1.2281  0.1971  1.2706
  761SOL     OW 2281   1.906   2.948   0.230  0.1754  0.5479 -0.5766
  761SOL    HW1 2282   1.876   2.895   0.312  1.1901 -0.1703 -0.5161
  761SOL    HW2 2283   1.990   2.904   0.191  0.8834  1.3935  0.7846
  762SOL     OW 2284   1.974   1.649   2.936  0.0675  0.0152  0.3090
  762SOL    HW1 2285   1.922   1.725   2.895 -0.6782 -2.6262  1.0317
  762SOL    HW2 2286   2.059   1.680   2.987  0.7215  1.3068  1.6356
  763SOL     OW 2287   0.302   1.176   1.237  0.3978 -0.0966 -0.2119
  763SOL    HW1 2288   0.314   1.272   1.260  0.4159 -1.1642 -1.6600
  763SOL    HW2 2289   0.266   1.161   1.139  0.9538 -1.2618  1.8058
  764SOL     OW 2290   2.785   2.428   3.032 -0.0173 -0.0134 -0.0752
  764SOL    HW1 2291   2.705   2.369   3.008  0.9830 -1.5916  2.0218
  764SOL    HW2 2292   2.876   2.396   3.002  2.5105  0.4732 -4.5520
  765SOL     OW 2293   0.814   2.979   2.051  0.4237 -0.5403  0.3417
  765SOL    HW1 2294   0.775   2.894   2.005  2.0388 -0.8771  0.3604
  765SOL    HW2 2295   0.739   3.044   2.073 -1.3596 -0.5556 -0.2703
  766SOL     OW 2296   0.020   2.193   2.352 -0.6295  0.4806  0.4783
  766SOL    HW1 2297   3.020   2.170   2.336 -0.8563  0.7610  0.6703
  766SOL    HW2 2298   0.082   2.146   2.287 -2.5001  1.3797 -0.5047
  767SOL     OW 2299   2.950   1.264   1.823  0.0035  0.1934 -0.2029
  767SOL    HW1 2300   3.003   1.261   1.910  0.2266  0.0156  1.4097
  767SOL    HW2 2301   2.952   1.351   1.771  1.7329  0.7289  0.4044
  768SOL     OW 2302   1.136   0.586   2.821 -0.4398 -0.1309  0.2517
  768SOL    HW1 2303   1.083   0.580   2.912 -1.6532 -1.9515 -0.2064
  768SOL    HW2 2304   1.239   0.566   2.836  1.4821  0.6128  0.1772
  769SOL     OW 2305   1.927   2.137   0.450  0.7827  0.2403 -0.6253
  769SOL    HW1 2306   2.015   2.164   0.413 -3.0782 -1.1776 -1.2218
  769SOL    HW2 2307   1.856   2.211   0.460  1.7893 -1.0596  0.8373
  770SOL     OW 2308   2.844   0.312   0.257 -0.2822  0.6651 -0.0890
  770SOL    HW1 2309   2.746   0.312   0.225 -1.9642  1.8424  0.6854
  770SOL    HW2 2310   2.882   0.224   0.293  3.9967 -0.7184 -0.5211
  771SOL     OW 2311   1.698   2.120   1.898 -0.3364 -0.4451  0.0601
  771SOL    HW1 2312   1.707   2.190   1.826 -0.0568 -0.4620  0.8199
  771SOL    HW2 2313   1.602   2.086   1.912 -0.6569 -2.3486  0.8923
  772SOL     OW 2314   0.753   0.428   2.965 -0.0283 -0.4143  0.1994
  772SOL    HW1 2315   0.688   0.492   3.024 -0.8980  2.6098  0.8577
  772SOL    HW2 2316   0.719   0.425   2.869  2.9939 -2.1418  0.9017
  773SOL     OW 2317   2.900   0.813   1.735  0.7185  0.1615  0.3229
  773SOL    HW1 2318   2.941   0.773   1.650 -2.7506  0.0053  1.6211
  773SOL    HW2 2319   2.974   0.831   1.800 -0.3803  1.0430 -0.3011
  774SOL     OW 2320   1.607   1.227   0.407  0.0527 -0.3862 -0.5245
  774SOL    HW1 2321   1.598   1.284   0.320  1.8653  0.2514  0.9965
  774SOL    HW2 2322   1.705   1.214   0.432  1.3359  0.6160  2.5465
  775SOL     OW 2323   2.429   3.074   2.995 -0.5839 -0.1073  0.4170
  775SOL    HW1 2324   2.495   3.065   3.074  0.6984 -1.9270  1.4333
  775SOL    HW2 2325   2.372   2.989   2.987 -0.9100  2.1979 -0.6007
  776SOL     OW 2326   2.337   0.931   2.290  0.4033 -0.1505  0.1309
  776SOL    HW1 2327   2.410   1.001   2.289 -1.2255  0.0127 -0.6799
  776SOL    HW2 2328   2.301   0.909   2.198 -1.5287 -2.1843  0.5636
  777SOL     OW 2329   0.186   1.217   2.765  0.0256 -0.1609  0.2112
  777SOL    HW1 2330   0.281   1.189   2.788  0.4639 -1.5907 -1.2815
  777SOL    HW2 2331   0.167   1.214   2.661 -0.8280  1.5423  0.9255
  778SOL     OW 2332   0.548   0.201   0.408 -0.4106  0.2994  0.1059
  778SOL    HW1 2333   0.647   0.220   0.400 -2.9439 -1.4435 -2.2552
  778SOL    HW2 2334   0.493   0.212   0.324  0.7176 -0.2179  1.2628
  779SOL     OW 2335   0.641   0.516   2.691  0.0353 -0.0960  0.2434
  779SOL    HW1 2336   0.669   0.604   2.737  1.3420  1.2378 -0.1956
  779SOL    HW2 2337   0.649   0.516   2.587 -1.8109 -0.1752 -1.4253
  780SOL     OW 2338   2.055   0.948   2.451 -0.7467 -0.4219 -0.4796
  780SOL    HW1 2339   2.019   0.966   2.361  0.8407 -0.4204 -0.6103
  780SOL    HW2 2340   2.054   0.849   2.479 -0.3869  1.5352 -1.9919
  781SOL     OW 2341   0.001   0.869   1.918 -0.3367 -0.9082  0.3818
  781SOL    HW1 2342   0.091   0.910   1.883 -0.2166  0.6105 -1.8925
  781SOL    HW2 2343   3.064   0.925   1.996 -2.3031  0.6680  2.0183
  782SOL     OW 2344   0.806   1.786   2.700  0.4666  0.4443 -0.1706
  782SOL    HW1 2345   0.716   1.744   2.687 -1.1262  0.8605 -1.4868
  782SOL    HW2 2346   0.879   1.716   2.716  2.0770  3.6169 -0.3716
  783SOL     OW 2347   0.665   2.529   1.573  0.2791 -1.1583 -0.0394
  783SOL    HW1 2348   0.693   2.432   1.572  0.2329  0.8482 -0.9943
  783SOL    HW2 2349   0.663   2.565   1.478 -1.1745  0.3566 -2.0689
  784SOL     OW 2350   1.319   0.307   2.899  0.2588 -0.1647 -0.0246
  784SOL    HW1 2351   1.300   0.276   2.804  1.2128  0.5356 -0.4650
  784SOL    HW2 2352   1.343   0.409   2.895  0.9684 -0.1203 -0.5129
  785SOL     OW 2353   1.099   0.427   2.603  0.0502  0.0463  0.0945
  785SOL    HW1 2354   1.173   0.359   2.595 -1.4276  0.5883  0.3003
  785SOL    HW2 2355   1.114   0.485   2.686 -0.5452 -2.9419  0.8706
  786SOL     OW 2356   0.448   1.836   0.216  0.0282 -0.1134 -0.1160
  786SOL    HW1 2357   0.516   1.766   0.194 -1.9919  2.7248 -1.9572
  786SOL    HW2 2358   0.482   1.896   0.294 -1.7076  0.4056 -0.5164
  787SOL     OW 2359   1.877   1.195   0.412  0.0641  0.4297  0.5122
  787SOL    HW1 2360   1.941   1.169   0.332  2.7842  0.6116 -1.1208
  787SOL    HW2 2361   1.903   1.138   0.490 -1.5133  1.7932 -0.5779
  788SOL     OW 2362   1.790   1.600   1.462 -0.5461  0.0721 -0.1948
  788SOL    HW1 2363   1.828   1.692   1.483  0.2543  0.7738 -1.8502
  788SOL    HW2 2364   1.737   1.566   1.545 -2.5065  1.4448  1.0517
  789SOL     OW 2365   0.222   1.565   2.035 -0.5163  0.0342 -0.3812
  789SOL    HW1 2366   0.153   1.582   1.964  1.2200 -0.9385  0.9693
  789SOL    HW2 2367   0.271   1.650   2.070  2.4210  1.9271  0.5858
  790SOL     OW 2368   0.497   2.652   0.187  0.0958 -0.1828  0.2243
  790SOL    HW1 2369   0.515   2.613   0.097 -0.4531  1.4477  1.7807
  790SOL    HW2 2370   0.396   2.672   0.201 -0.1114 -1.3768 -1.8330
  791SOL     OW 2371   0.458   0.369   3.066 -0.4661  0.3937 -0.2284
  791SOL    HW1 2372   0.502   0.462   3.038 -0.5353  0.6227 -3.3219
  791SOL    HW2 2373   0.516   0.295   3.028  2.0056 -1.0293  0.8304
  792SOL     OW 2374   1.687   0.697   2.216  0.0494 -0.8090 -0.0881
  792SOL    HW1 2375   1.754   0.699   2.289 -2.5631 -0.0977 -0.8342
  792SOL    HW2 2376   1.649   0.793   2.205 -0.1094 -1.0758 -0.2639
  793SOL     OW 2377   0.378   0.650   0.911  0.3253 -0.5745 -0.6567
  793SOL    HW1 2378   0.364   0.551   0.904  1.4926 -0.3829 -0.1624
  793SOL    HW2 2379   0.439   0.672   0.991  0.1266 -1.0047  0.1802
  794SOL     OW 2380   0.660   0.091   1.515 -0.3241  0.4916  0.0106
  794SOL    HW1 2381   0.732   0.028   1.470 -0.7069 -2.0863 -0.1366
  794SOL    HW2 2382   0.677   0.190   1.500  0.0509 -2.2967 -0.6358
  795SOL     OW 2383   3.034   1.364   0.003 -0.0408 -0.1117 -0.1547
  795SOL    HW1 2384   3.094   1.298   0.045  2.2794  1.6671 -0.8641
  795SOL    HW2 2385   3.033   1.350   3.004  0.2158  0.7851  0.5757
  796SOL     OW 2386   3.058   0.451   0.169  0.2005 -0.9438  0.6621
  796SOL    HW1 2387   0.043   0.404   0.203  2.2819  2.5739  2.7970
  796SOL    HW2 2388   2.977   0.399   0.189  3.5451  1.3976 -0.2024
  797SOL     OW 2389   1.490   2.530   2.984 -0.3962  0.5470  0.5794
  797SOL    HW1 2390   1.434   2.609   3.015  1.9251 -0.0064  0.9158
  797SOL    HW2 2391   1.451   2.440   3.008 -1.2741  1.7091  0.4186
  798SOL     OW 2392   2.925   0.619   0.885 -0.1377  0.2207  0.1260
  798SOL    HW1 2393   2.889   0.618   0.790  1.4108 -1.5184  2.2766
  798SOL    HW2 2394   3.014   0.671   0.893 -1.0048 -0.5419 -1.2283
  799SOL     OW 2395   2.584   0.794   2.156 -0.6248 -0.8660 -0.0259
  799SOL    HW1 2396   2.502   0.818   2.103  1.6907 -0.1814  0.2329
  799SOL    HW2 2397   2.657   0.762   2.093 -2.1701 -0.8519  1.9102
  800SOL     OW 2398   0.173   2.071   0.466 -0.0237 -0.2874  0.4854
  800SOL    HW1 2399   0.097   2.021   0.510 -0.0317  1.9684 -0.1186
  800SOL    HW2 2400   0.161   2.073   0.364 -3.9701 -0.7614  2.9595
  801SOL     OW 2401   1.038   1.882   0.749 -0.1943  0.0110  0.2239
  801SOL    HW1 2402   1.089   1.836   0.828 -0.3641 -1.1619  2.8364
  801SOL    HW2 2403   1.052   1.829   0.664  1.0830 -0.8668 -2.1593
  802SOL     OW 2404   1.009   1.931   2.601  0.9678 -0.5558 -0.2530
  802SOL    HW1 2405   0.931   1.871   2.626 -0.2461 -1.2000 -0.9354
  802SOL    HW2 2406   1.043   1.904   2.508 -1.9621 -2.2718  1.4508
  803SOL     OW 2407   0.073   1.874   1.469  0.0256 -0.2989 -0.4062
  803SOL    HW1 2408   3.085   1.821   1.457 -1.9052  0.2706  0.7921
  803SOL    HW2 2409   0.154   1.815   1.464 -0.4591 -3.4768  0.3630
  804SOL     OW 2410   1.123   2.541   1.570 -0.1166 -0.0984 -0.0800
  804SOL    HW1 2411   1.222   2.556   1.594  0.3912 -1.9629 -0.8422
  804SOL    HW2 2412   1.116   2.475   1.494 -0.1614  2.5014  0.4211
  805SOL     OW 2413   2.329   1.491   3.037  0.1339  0.7229  0.5226
  805SOL    HW1 2414   2.393   1.497   2.955 -1.5841  0.9670 -1.2658
  805SOL    HW2 2415   2.262   1.417   3.014  1.3788  2.5697  1.8124
  806SOL     OW 2416   2.091   2.915   0.810 -0.0318  0.3314 -0.6008
  806SOL    HW1 2417   2.112   2.832   0.868  1.9733 -1.7707 -0.2488
  806SOL    HW2 2418   2.053   2.984   0.875  0.5443 -0.4675  2.6621
  807SOL     OW 2419   2.950   0.680   2.709  0.4962  0.4257 -0.4183
  807SOL    HW1 2420   2.929   0.581   2.743 -0.2440 -0.6512  0.7187
  807SOL    HW2 2421   2.862   0.730   2.694 -2.0646  0.2284 -3.5809
  808SOL     OW 2422   0.456   1.126   0.300 -0.1965  0.3530 -0.5368
  808SOL    HW1 2423   0.516   1.187   0.249 -1.2356  0.6493 -0.1433
  808SOL    HW2 2424   0.416   1.178   0.374 -0.1339 -1.2815 -0.7411
  809SOL     OW 2425   2.565   0.987   1.911  0.0984 -0.3839  0.1477
  809SOL    HW1 2426   2.465   0.967   1.886  0.4708 -1.0339  0.0670
  809SOL    HW2 2427   2.611   0.897   1.891 -1.2965  0.2100 -1.7223
  810SOL     OW 2428   1.166   0.553   1.420  0.5227  0.1470  0.5283
  810SOL    HW1 2429   1.192   0.470   1.368 -1.0702  0.4112  0.0197
  810SOL    HW2 2430   1.221   0.552   1.503 -0.2648 -1.3108 -0.6518
  811SOL     OW 2431   2.215   2.933   1.752  0.5145  0.2743  0.2524
  811SOL    HW1 2432   2.222   3.014   1.688 -1.9318 -2.6648 -0.4415
  811SOL    HW2 2433   2.171   2.963   1.838 -0.7212 -0.3717 -2.0484
  812SOL     OW 2434   1.746   2.095   3.015 -0.2874  0.4267  0.6966
  812SOL    HW1 2435   1.654   2.103   3.059  2.5407  1.0466  0.2130
  812SOL    HW2 2436   1.795   2.184   3.011 -0.5095 -3.7377 -0.5280
  813SOL     OW 2437   1.286   0.697   1.657 -0.4725  0.3673 -0.0070
  813SOL    HW1 2438   1.230   0.779   1.643  2.8941 -0.8125  3.2340
  813SOL    HW2 2439   1.380   0.709   1.623  0.8842 -0.4316  0.4781
  814SOL     OW 2440   0.673   0.354   1.457  0.7103 -0.3994 -0.6655
  814SOL    HW1 2441   0.600   0.346   1.387  0.4126 -0.2814 -1.3719
  814SOL    HW2 2442   0.634   0.399   1.539 -0.1697  1.4781 -1.4423
  815SOL     OW 2443   0.623   0.734   0.244 -0.5369 -0.1657 -0.2566
  815SOL    HW1 2444   0.543   0.678   0.272 -0.5625  1.6995 -0.2751
  815SOL    HW2 2445   0.607   0.830   0.275 -0.1760  2.4438  2.0071
  816SOL     OW 2446   2.157   1.620   2.454  0.1551 -0.4175  0.0608
  816SOL    HW1 2447   2.176   1.619   2.554  0.2894 -0.9241  2.0727
  816SOL    HW2 2448   2.245   1.599   2.408 -0.9330 -0.8404 -0.1855
  817SOL     OW 2449   0.664   2.721   0.599  0.0930 -0.1431 -0.4464
  817SOL    HW1 2450   0.754   2.676   0.621  1.8745 -0.7745  0.2404
  817SOL    HW2 2451   0.684   2.815   0.564  1.3944 -0.4479  0.7567
  818SOL     OW 2452   1.717   0.698   3.009 -0.2836  0.3634  0.0945
  818SOL    HW1 2453   1.803   0.689   3.058 -2.5083 -2.1135 -0.7211
  818SOL    HW2 2454   1.660   0.779   3.035 -2.1218  0.2740  1.8943
  819SOL     OW 2455   1.609   0.440   0.157 -0.4865 -0.3718 -0.3382
  819SOL    HW1 2456   1.703   0.470   0.131  0.1972  0.6471 -1.0946
  819SOL    HW2 2457   1.577   0.373   0.090 -0.2214 -0.3707 -2.2223
  820SOL     OW 2458   1.861   0.553   0.129 -0.4292 -0.2964  0.3687
  820SOL    HW1 2459   1.914   0.469   0.147 -0.0869 -0.2909  0.2801
  820SOL    HW2 2460   1.912   0.640   0.141 -3.4582 -0.7628  1.3587
  821SOL     OW 2461   2.509   0.216   0.544 -0.0607  0.2479 -0.1529
  821SOL    HW1 2462   2.417   0.183   0.516  0.1095 -2.4477 -1.3269
  821SOL    HW2 2463   2.582   0.145   0.540 -0.3977 -0.2101 -1.5949
  822SOL     OW 2464   0.899   2.536   1.935  0.1218 -0.1269 -0.0093
  822SOL    HW1 2465   0.846   2.595   1.873 -0.2871  0.4894 -0.5090
  822SOL    HW2 2466   0.835   2.515   2.012 -2.8014  0.7856  0.5761
  823SOL     OW 2467   0.190   1.397   1.522  0.7514 -0.2528 -0.1907
  823SOL    HW1 2468   0.207   1.475   1.584 -0.5643  2.2868 -1.3168
  823SOL    HW2 2469   0.174   1.309   1.570 -1.5654  0.8923  1.1734
  824SOL     OW 2470   1.310   2.988   2.628 -0.1042  0.0057 -0.2498
  824SOL    HW1 2471   1.360   2.980   2.709 -1.9565  1.7628 -2.9355
  824SOL    HW2 2472   1.228   3.047   2.650  0.2844  0.7826 -0.9573
  825SOL     OW 2473   2.136   1.016   0.750 -0.1517  0.0746  0.6710
  825SOL    HW1 2474   2.110   0.976   0.845  0.4242 -2.2050  2.9359
  825SOL    HW2 2475   2.069   0.988   0.678  1.0204  1.2598 -1.8444
  826SOL     OW 2476   2.025   0.763   0.142  0.3146 -0.6876  0.4150
  826SOL    HW1 2477   2.101   0.809   0.187 -0.7925  0.0250  0.7513
  826SOL    HW2 2478   1.943   0.834   0.142 -5.1129  2.1867 -1.5965
  827SOL     OW 2479   0.401   1.733   1.732  0.2289 -0.0523 -0.0687
  827SOL    HW1 2480   0.441   1.803   1.674 -2.6728 -1.7426 -1.3647
  827SOL    HW2 2481   0.387   1.767   1.830  1.5332 -0.3212 -0.4312
  828SOL     OW 2482   2.394   1.391   1.660 -0.1580  0.1134  0.1250
  828SOL    HW1 2483   2.447   1.451   1.722  2.4744 -3.1852  0.2613
  828SOL    HW2 2484   2.336   1.443   1.600 -1.6649  1.8094  2.0978
  829SOL     OW 2485   0.136   1.855   0.157 -0.2539 -0.3138  0.6627
  829SOL    HW1 2486   0.240   1.860   0.154  1.1359  1.3613 -0.7231
  829SOL    HW2 2487   0.110   1.782   0.090  1.4340  0.7528 -0.5115
  830SOL     OW 2488   1.917   0.977   0.590 -0.0555 -0.3811  0.1443
  830SOL    HW1 2489   1.856   0.978   0.675 -0.5872 -2.3384  0.5089
  830SOL    HW2 2490   1.922   0.881   0.552  0.9849 -1.3246  1.2248
  831SOL     OW 2491   3.057   1.806   2.898  0.1926  0.5480 -0.0019
  831SOL    HW1 2492   0.013   1.874   2.849 -0.1592 -1.7599  2.1275
  831SOL    HW2 2493   0.006   1.746   2.969 -0.9241  0.6906  2.0104
  832SOL     OW 2494   0.792   0.285   0.456  0.0599  0.0449  0.0454
  832SOL    HW1 2495   0.845   0.364   0.489 -0.3541  1.4000  0.9838
  832SOL    HW2 2496   0.853   0.213   0.423  0.8030 -0.1976 -2.0862
  833SOL     OW 2497   0.635   0.509   1.668  0.0596 -0.0463  0.0517
  833SOL    HW1 2498   0.572   0.585   1.702 -2.0554 -1.7866  1.5743
  833SOL    HW2 2499   0.678   0.461   1.743 -1.8492  3.5337 -0.7506
  834SOL     OW 2500   0.295   0.444   0.773 -0.2328  0.3558  0.4146
  834SOL    HW1 2501   0.326   0.387   0.693  2.1918  1.1324  0.8152
  834SOL    HW2 2502   0.242   0.522   0.742  1.8327 -3.6519  0.3492
  835SOL     OW 2503   2.544   2.609   1.300  0.1319  0.0506  0.0115
  835SOL    HW1 2504   2.501   2.550   1.368 -0.1647 -0.8011 -0.6043
  835SOL    HW2 2505   2.647   2.613   1.295  2.7713  2.0016 -1.0369
  836SOL     OW 2506   0.551   2.034   0.063 -0.4259 -0.3331 -0.4426
  836SOL    HW1 2507   0.490   2.105   0.097  0.0032 -1.0048  1.5206
  836SOL    HW2 2508   0.514   1.942   0.090  0.2015 -3.5089 -2.9412
  837SOL     OW 2509   1.840   1.292   2.642 -0.1494  0.6457  0.0440
  837SOL    HW1 2510   1.820   1.305   2.744 -1.0368  0.4868  0.5865
  837SOL    HW2 2511   1.880   1.381   2.608  1.8886 -1.3285  1.0518
  838SOL     OW 2512   0.404   1.127   2.077  0.4518  0.8993 -0.6221
  838SOL    HW1 2513   0.498   1.161   2.061  1.9497 -0.0215 -1.6778
  838SOL    HW2 2514   0.327   1.191   2.096  2.9140 -0.2479 -1.4691
  839SOL     OW 2515   0.458   1.499   0.918 -0.1791  0.5154 -0.1331
  839SOL    HW1 2516   0.506   1.585   0.887 -0.1945 -0.5060  1.9542
  839SOL    HW2 2517   0.521   1.416   0.911  1.2462 -1.0779 -1.1195
  840SOL     OW 2518   2.235   0.065   2.460 -0.9776  0.1327  0.4249
  840SOL    HW1 2519   2.173   0.106   2.389  0.3295  1.3002 -2.5398
  840SOL    HW2 2520   2.328   0.093   2.438 -2.1462  0.8081  4.1280
  841SOL     OW 2521   0.954   2.482   0.253 -0.4275  0.3366  0.2847
  841SOL    HW1 2522   0.953   2.432   0.346 -1.2668 -0.9458  1.4921
  841SOL    HW2 2523   0.993   2.416   0.182  1.5787  2.8159 -0.1026
  842SOL     OW 2524   0.385   0.243   0.609 -0.1242 -0.2349  0.0308
  842SOL    HW1 2525   0.414   0.199   0.695  0.0032  2.2978 -0.6342
  842SOL    HW2 2526   0.455   0.231   0.531  2.5248  1.9389  0.8094
  843SOL     OW 2527   0.210   1.213   0.123 -0.1917  0.1207 -0.0316
  843SOL    HW1 2528   0.148   1.159   0.186 -0.4046 -2.8624 -0.5878
  843SOL    HW2 2529   0.250   1.295   0.165 -0.9006 -0.1283 -1.0178
  844SOL     OW 2530   1.070   2.285   0.075  0.1313  0.0422  0.0596
  844SOL    HW1 2531   1.012   2.247   3.096  0.2595 -0.8659 -2.2727
  844SOL    HW2 2532   1.168   2.279   0.052 -0.8357  1.0538 -0.8413
  845SOL     OW 2533   2.171   2.904   2.408 -0.2394  0.7252 -0.2981
  845SOL    HW1 2534   2.212   2.997   2.422 -2.0594 -2.4535 -0.3263
  845SOL    HW2 2535   2.073   2.900   2.429  4.7225  1.0765 -1.0957
  846SOL     OW 2536   1.835   1.882   2.878  0.2944  0.6177 -0.1727
  846SOL    HW1 2537   1.803   1.967   2.925  1.8017 -0.5804  1.0855
  846SOL    HW2 2538   1.881   1.911   2.790  2.3493 -0.3430 -0.8858
  847SOL     OW 2539   2.584   0.332   0.161  0.2183 -0.6654 -0.0232
  847SOL    HW1 2540   2.595   0.404   0.091  2.6156 -2.9304 -1.2303
  847SOL    HW2 2541   2.507   0.360   0.224 -1.5410  0.2912  1.5999
  848SOL     OW 2542   0.826   0.580   0.380 -0.6540 -0.1145 -0.0444
  848SOL    HW1 2543   0.788   0.577   0.475  1.0239  0.9354  0.1977
  848SOL    HW2 2544   0.763   0.620   0.313  2.7875 -4.1106 -1.5283
  849SOL     OW 2545   1.430   2.662   1.789  0.2508  0.0040  0.4266
  849SOL    HW1 2546   1.380   2.580   1.821  1.7508 -3.4712  0.6132
  849SOL    HW2 2547   1.491   2.639   1.708 -0.4897  0.9878 -5.1444
  850SOL     OW 2548   0.864   1.478   0.566  0.2523  0.1663 -0.2367
  850SOL    HW1 2549   0.869   1.378   0.574 -1.5199  0.8898 -0.2541
  850SOL    HW2 2550   0.771   1.496   0.530  1.1685  0.7520 -0.9134
  851SOL     OW 2551   0.337   1.444   0.231  0.4705  0.0511 -0.2891
  851SOL    HW1 2552   0.426   1.398   0.217  0.6709  1.2391 -0.5554
  851SOL    HW2 2553   0.333   1.499   0.316  0.5152 -3.6971 -0.9930
  852SOL     OW 2554   1.437   2.925   1.812  0.1660 -0.0650  0.0406
  852SOL    HW1 2555   1.341   2.949   1.833  0.9838 -1.7952 -1.1454
  852SOL    HW2 2556   1.446   2.827   1.780 -1.5766  0.3201  1.4859
  853SOL     OW 2557   2.725   1.613   3.079 -0.3409 -0.4477 -0.2357
  853SOL    HW1 2558   2.634   1.568   3.082  0.6527  2.7259 -0.2780
  853SOL    HW2 2559   2.771   1.606   0.070  2.3317  1.9993  2.7747
  854SOL     OW 2560   1.234   1.018   1.882 -0.5324  0.5070 -0.4090
  854SOL    HW1 2561   1.201   1.098   1.938 -0.1088  0.4852 -2.9110
  854SOL    HW2 2562   1.259   1.046   1.787 -0.7667  0.7270  1.3437
  855SOL     OW 2563   0.163   2.446   0.017 -0.1334  0.9994  0.4740
  855SOL    HW1 2564   0.069   2.428   3.074 -0.7482  0.3566 -1.9441
  855SOL    HW2 2565   0.200   2.532   3.070  1.2103  2.9992  1.1485
  856SOL     OW 2566   0.482   0.723   1.763  0.5662  0.3172 -0.3374
  856SOL    HW1 2567   0.560   0.789   1.782 -0.3765  2.6978  2.7082
  856SOL    HW2 2568   0.400   0.779   1.737  0.0955  2.5370  2.9544
  857SOL     OW 2569   1.230   1.128   2.301 -0.9717 -0.3204  0.0192
  857SOL    HW1 2570   1.134   1.137   2.324 -1.3979  0.0541 -2.4510
  857SOL    HW2 2571   1.285   1.199   2.353  0.2591 -1.6900 -1.3109
  858SOL     OW 2572   0.371   1.242   2.368  0.2292 -0.2920  0.0760
  858SOL    HW1 2573   0.316   1.247   2.281 -0.5605 -1.3806  0.3848
  858SOL    HW2 2574   0.406   1.146   2.379 -1.5892  1.2954  0.6376
  859SOL     OW 2575   2.465   0.249   1.198  0.3196 -0.0166 -0.0800
  859SOL    HW1 2576   2.483   0.191   1.117 -1.5192  1.3159  1.8416
  859SOL    HW2 2577   2.546   0.290   1.242  1.9256  1.1753 -0.7845
  860SOL     OW 2578   1.922   0.106   0.194 -0.3143  0.0124 -0.9704
  860SOL    HW1 2579   1.917   0.007   0.226 -0.6171  1.7644  0.1083
  860SOL    HW2 2580   1.939   0.103   0.092 -0.3870  1.5324 -2.6112
  861SOL     OW 2581   0.645   0.392   0.818  0.1936  0.3165  0.2324
  861SOL    HW1 2582   0.691   0.325   0.756 -2.0482  0.1783 -1.6350
  861SOL    HW2 2583   0.562   0.354   0.864  0.6894 -1.3348  0.9109
  862SOL     OW 2584   1.302   0.223   2.648  0.1322  0.0276 -0.1645
  862SOL    HW1 2585   1.231   0.183   2.591  1.7089  1.5195  0.1988
  862SOL    HW2 2586   1.387   0.228   2.596 -1.3359  0.6358  0.6039
  863SOL     OW 2587   2.241   2.340   0.723 -0.4813  0.2143  0.9897
  863SOL    HW1 2588   2.337   2.335   0.684  1.2759 -0.8740  1.4975
  863SOL    HW2 2589   2.195   2.250   0.713 -2.4397 -2.5096 -0.1998
  864SOL     OW 2590   2.745   3.062   1.908 -0.2749  0.6973  0.2943
  864SOL    HW1 2591   2.759   3.014   1.820  2.1998  0.4095  0.8499
  864SOL    HW2 2592   2.658   3.026   1.956 -0.4067 -0.5074  0.7516
  865SOL     OW 2593   1.116   0.582   1.832  0.3429  0.1345 -0.0601
  865SOL    HW1 2594   1.176   0.628   1.764 -0.7856  0.9243 -0.7932
  865SOL    HW2 2595   1.161   0.558   1.917 -0.3299  0.5253 -1.2264
  866SOL     OW 2596   1.904   2.718   1.316  0.2213 -0.2845  0.1568
  866SOL    HW1 2597   1.937   2.818   1.301  1.2575  0.1254  1.5481
  866SOL    HW2 2598   1.867   2.680   1.232 -1.9816  0.8321  0.5251
  867SOL     OW 2599   2.600   2.462   0.383  0.0747  0.4717  0.7783
  867SOL    HW1 2600   2.529   2.503   0.324  1.0605  1.2058  2.9002
  867SOL    HW2 2601   2.628   2.529   0.454 -0.2942 -3.2235 -2.7879
  868SOL     OW 2602   0.525   2.136   1.655  0.6417 -0.3169 -0.3138
  868SOL    HW1 2603   0.451   2.178   1.592 -3.7340  1.3265 -1.9893
  868SOL    HW2 2604   0.608   2.201   1.671  0.4389 -0.7692 -1.1595
  869SOL     OW 2605   2.102   2.346   2.739 -0.6400 -0.4834 -0.7662
  869SOL    HW1 2606   2.060   2.344   2.649 -1.7148  1.3718 -0.1221
  869SOL    HW2 2607   2.145   2.438   2.749 -1.0562  0.1615 -1.0670
  870SOL     OW 2608   1.522   1.742   0.903 -0.3973  0.1862 -0.3563
  870SOL    HW1 2609   1.584   1.808   0.866 -1.0879  0.0324  0.0127
  870SOL    HW2 2610   1.568   1.680   0.961 -0.4180  5.1637 -2.3245
  871SOL     OW 2611   0.304   1.725   1.406  0.1878 -0.0946 -0.0075
  871SOL    HW1 2612   0.373   1.786   1.452  1.2803 -2.3336  0.8454
  871SOL    HW2 2613   0.275   1.650   1.475 -0.2436 -0.5057  1.3253
  872SOL     OW 2614   0.469   1.353   2.630  0.5155  0.0079  0.4710
  872SOL    HW1 2615   0.407   1.379   2.554  0.7084  0.5694  1.7170
  872SOL    HW2 2616   0.455   1.260   2.666  2.2869 -0.2442 -0.9744
  873SOL     OW 2617   0.838   2.011   1.908 -0.1271 -0.3006  0.1718
  873SOL    HW1 2618   0.895   2.002   1.994  3.2391  1.3372  0.2097
  873SOL    HW2 2619   0.741   2.040   1.925  1.8989 -1.2611 -0.3671
  874SOL     OW 2620   1.013   0.995   1.641  0.1196  0.7762 -0.0008
  874SOL    HW1 2621   0.999   0.910   1.692  1.4806  2.3534 -0.6747
  874SOL    HW2 2622   0.925   1.042   1.615 -2.0858 -1.3572 -0.1598
  875SOL     OW 2623   2.667   2.638   0.574 -0.1216  0.3648 -0.2729
  875SOL    HW1 2624   2.686   2.729   0.540  1.7773 -0.2663 -1.1453
  875SOL    HW2 2625   2.654   2.637   0.674  1.0795  0.6568 -2.7460
  876SOL     OW 2626   1.004   1.561   0.348  0.1409 -0.1296 -0.1371
  876SOL    HW1 2627   0.967   1.536   0.440 -2.1028  2.7869 -0.7394
  876SOL    HW2 2628   0.952   1.641   0.313 -0.6382 -0.7036  1.0892
  877SOL     OW 2629   2.607   2.919   1.114  0.4933  0.3165  0.1510
  877SOL    HW1 2630   2.570   2.945   1.204  0.6122  1.4104 -0.1740
  877SOL    HW2 2631   2.703   2.879   1.127  1.8994 -0.1997  0.6881
  878SOL     OW 2632   2.103   1.478   0.410  0.1209  0.4223  0.0279
  878SOL    HW1 2633   2.051   1.497   0.324 -2.9364 -1.5788 -0.3285
  878SOL    HW2 2634   2.039   1.444   0.481  0.6431 -0.5064  2.6656
  879SOL     OW 2635   2.162   1.777   1.002  0.2973  0.0194 -0.1132
  879SOL    HW1 2636   2.225   1.852   0.978 -1.6980  1.0764  1.0723
  879SOL    HW2 2637   2.173   1.694   0.946 -0.7040 -1.3091  2.8092
  880SOL     OW 2638   0.554   2.444   0.833  0.2807 -0.3510  0.3276
  880SOL    HW1 2639   0.491   2.388   0.777 -1.0716  0.1964  0.3711
  880SOL    HW2 2640   0.514   2.535   0.866 -1.7817  0.8411  0.1540
  881SOL     OW 2641   0.957   0.857   0.965  0.0079 -0.2683 -0.4721
  881SOL    HW1 2642   0.915   0.880   0.876  0.1533  0.8567 -1.6832
  881SOL    HW2 2643   1.038   0.915   0.987 -0.4370  0.4621 -2.7734
  882SOL     OW 2644   2.341   1.131   0.418  0.1939 -0.0816  0.3101
  882SOL    HW1 2645   2.386   1.091   0.333 -0.0253  0.3605 -0.5723
  882SOL    HW2 2646   2.333   1.233   0.412  1.2206  1.4702 -2.5451
  883SOL     OW 2647   1.479   0.071   1.703  0.3333  0.0571  0.0173
  883SOL    HW1 2648   1.481   0.145   1.774 -0.3360 -0.9769  1.3921
  883SOL    HW2 2649   1.460   3.086   1.746 -1.1105  1.4578  0.3395
  884SOL     OW 2650   2.916   0.026   1.459  0.7751 -0.5452 -0.0733
  884SOL    HW1 2651   3.007   0.072   1.470 -0.0070  1.2679  1.3335
  884SOL    HW2 2652   2.901   3.085   1.367 -2.6338  0.6163 -0.5274
  885SOL     OW 2653   0.860   0.976   2.107 -0.4248  0.4145  0.3522
  885SOL    HW1 2654   0.958   0.939   2.099  1.1241 -1.8063 -1.4267
  885SOL    HW2 2655   0.794   0.896   2.094 -1.3578  0.1210  1.9887
  886SOL     OW 2656   1.327   0.722   2.232  0.8448 -0.4702  0.2726
  886SOL    HW1 2657   1.410   0.777   2.218 -0.6746  1.8899  0.4821
  886SOL    HW2 2658   1.329   0.673   2.319  1.4481  0.1640  1.3044
  887SOL     OW 2659   1.501   0.588   1.318 -0.0221 -0.2529  0.2388
  887SOL    HW1 2660   1.430   0.597   1.241 -1.4671 -1.2705 -0.0017
  887SOL    HW2 2661   1.590   0.571   1.269 -1.7777  0.7976 -2.0644
  888SOL     OW 2662   2.526   1.558   1.827  0.0673  0.1679 -0.3669
  888SOL    HW1 2663   2.608   1.601   1.789  1.0085 -0.6001 -1.9656
  888SOL    HW2 2664   2.481   1.614   1.898  3.2874  0.2327 -1.8044
  889SOL     OW 2665   1.599   2.138   0.622 -0.1875  0.2548 -0.3758
  889SOL    HW1 2666   1.638   2.215   0.561 -1.4518  0.3801 -1.7889
  889SOL    HW2 2667   1.561   2.058   0.566  1.0514 -2.9607 -1.1054
  890SOL     OW 2668   0.803   2.010   0.518 -0.2936 -0.1697 -0.1581
  890SOL    HW1 2669   0.785   1.989   0.616  1.1027  0.4310 -1.1925
  890SOL    HW2 2670   0.726   1.994   0.453  0.9814 -0.4536  0.4061
  891SOL     OW 2671   2.700   0.774   2.688  0.0829 -0.4245 -0.3522
  891SOL    HW1 2672   2.670   0.824   2.609  1.2272 -4.1229  1.0675
  891SOL    HW2 2673   2.625   0.756   2.753  5.8844  0.2466 -3.4538
  892SOL     OW 2674   0.940   0.634   2.497  0.2551  0.1036  0.8240
  892SOL    HW1 2675   0.842   0.644   2.467  1.3690  1.3061 -1.9694
  892SOL    HW2 2676   0.963   0.533   2.508  1.0359 -1.8535  1.8642
  893SOL     OW 2677   1.578   0.178   0.968 -0.1312 -0.5006 -0.0303
  893SOL    HW1 2678   1.648   0.252   0.977  4.4025  1.3687 -0.8332
  893SOL    HW2 2679   1.562   0.137   1.057  0.0514  1.5133 -2.2627
  894SOL     OW 2680   2.814   2.756   1.006 -0.3679  0.2376 -0.5566
  894SOL    HW1 2681   2.873   2.676   0.977  0.0091  1.1998 -2.1155
  894SOL    HW2 2682   2.719   2.722   1.005 -0.5698 -1.3378 -2.5113
  895SOL     OW 2683   1.876   2.785   2.938  0.0277  0.4487  0.3236
  895SOL    HW1 2684   1.799   2.843   2.963  1.6141 -0.1754  0.8185
  895SOL    HW2 2685   1.902   2.726   3.019 -0.0053 -1.0053  1.3326
  896SOL     OW 2686   2.072   0.076   2.027  0.4749 -0.4954 -0.0397
  896SOL    HW1 2687   2.091   0.126   1.939  3.1378 -0.6730  1.7454
  896SOL    HW2 2688   2.120   0.128   2.101 -0.6573  1.9568  0.8831
  897SOL     OW 2689   0.548   2.060   1.910  0.1950  0.1042  0.5055
  897SOL    HW1 2690   0.540   2.066   1.807  0.5632 -1.8941 -1.5206
  897SOL    HW2 2691   0.497   1.982   1.940  3.8638  2.0287 -2.0175
  898SOL     OW 2692   2.728   1.586   2.058  0.3795  0.0486 -0.0850
  898SOL    HW1 2693   2.718   1.487   2.087  4.1779 -3.2999  0.4080
  898SOL    HW2 2694   2.749   1.604   1.963 -1.2599 -3.3968  1.7227
  899SOL     OW 2695   1.424   2.141   0.830 -0.8124  0.1301 -0.1964
  899SOL    HW1 2696   1.329   2.147   0.796  0.3666  0.1037  3.5099
  899SOL    HW2 2697   1.489   2.079   0.776  2.3792 -1.9665  0.1963
  900SOL     OW 2698   0.836   3.031   2.986 -0.1579  0.2034 -0.5791
  900SOL    HW1 2699   0.784   2.952   2.951  0.9549 -0.2682 -0.0056
  900SOL    HW2 2700   0.918   3.047   2.930 -0.1564 -0.2740  0.0376
  901SOL     OW 2701   1.304   1.688   2.500 -0.5189  0.0831 -0.1076
  901SOL    HW1 2702   1.224   1.744   2.463  0.7473  0.1722 -4.0070
  901SOL    HW2 2703   1.380   1.755   2.507 -0.7824 -0.9227 -0.8445
  902SOL     OW 2704   2.919   0.436   2.827  0.3166  0.1522 -0.1650
  902SOL    HW1 2705   2.821   0.427   2.855  2.7051  2.3031 -0.3741
  902SOL    HW2 2706   2.966   0.345   2.829  0.6663 -0.8548  2.1707
  903SOL     OW 2707   2.058   0.687   2.213 -0.2797 -0.2792 -0.0854
  903SOL    HW1 2708   2.014   0.702   2.304 -1.2361  1.7785 -2.6777
  903SOL    HW2 2709   2.113   0.603   2.210  0.7033  0.2536 -0.6792
  904SOL     OW 2710   1.341   0.581   2.463  0.0255  0.0945  0.7221
  904SOL    HW1 2711   1.422   0.584   2.524 -1.0783  0.5201  0.6258
  904SOL    HW2 2712   1.251   0.568   2.511 -1.0197 -0.3156 -1.6394
  905SOL     OW 2713   2.259   2.462   1.657  0.3520  0.1049  0.2348
  905SOL    HW1 2714   2.200   2.542   1.638  1.2836 -0.8139  1.1590
  905SOL    HW2 2715   2.281   2.452   1.757  0.3562  0.9808  4.8814
  906SOL     OW 2716   1.723   1.880   0.344 -0.1606 -0.3492 -0.0887
  906SOL    HW1 2717   1.804   1.868   0.400 -2.5734  2.1891 -0.7901
  906SOL    HW2 2718   1.647   1.929   0.390  1.1497  1.2612  0.7224
  907SOL     OW 2719   1.157   2.978   1.025  0.1971 -0.7208 -0.1615
  907SOL    HW1 2720   1.183   3.013   0.928  0.7327 -0.3986 -0.4348
  907SOL    HW2 2721   1.219   2.903   1.061 -0.5964 -2.5227 -1.3255
  908SOL     OW 2722   1.549   2.432   2.111 -0.0341 -0.1911 -0.7518
  908SOL    HW1 2723   1.601   2.522   2.118  0.8097  2.4482 -0.3448
  908SOL    HW2 2724   1.457   2.442   2.155  0.7708  0.1513 -0.2022
  909SOL     OW 2725   2.147   0.436   2.147 -0.1220 -0.0075 -0.3627
  909SOL    HW1 2726   2.224   0.378   2.166 -2.9915  0.1965  0.5793
  909SOL    HW2 2727   2.053   0.400   2.135  0.7167  2.3245 -1.5701
  910SOL     OW 2728   1.084   1.076   2.996  0.2618 -0.1773 -0.3501
  910SOL    HW1 2729   1.063   0.993   3.050 -0.9708  0.7462  0.0176
  910SOL    HW2 2730   1.133   1.053   2.907  2.9892 -2.8073 -0.0887
  911SOL     OW 2731   3.074   1.159   0.260 -0.7153  0.4949 -0.5855
  911SOL    HW1 2732   3.071   1.239   0.324  0.7763  0.5762  0.3213
  911SOL    HW2 2733   2.984   1.133   0.219  1.5422 -0.9586 -1.8892
  912SOL     OW 2734   0.296   2.312   0.498  0.4816 -0.0721  0.2575
  912SOL    HW1 2735   0.224   2.243   0.476  1.5274  1.1185  1.0205
  912SOL    HW2 2736   0.387   2.273   0.470  0.7662 -1.3195  2.1407
  913SOL     OW 2737   2.762   2.278   2.428  0.1334  0.3089  0.0240
  913SOL    HW1 2738   2.814   2.230   2.357 -2.9074  2.6690 -0.4554
  913SOL    HW2 2739   2.726   2.212   2.498 -1.7465 -2.3333  0.0859
  914SOL     OW 2740   1.378   2.003   1.693 -0.1544  0.0894  0.5248
  914SOL    HW1 2741   1.388   2.078   1.619 -0.8223  3.5092 -0.9181
  914SOL    HW2 2742   1.413   1.913   1.662  0.6580  0.4832  2.4472
  915SOL     OW 2743   0.774   2.891   2.406  0.1038 -0.2320  0.9894
  915SOL    HW1 2744   0.837   2.944   2.345 -1.0924 -0.3886  0.4226
  915SOL    HW2 2745   0.676   2.892   2.367 -1.8040  1.9496 -0.3983
  916SOL     OW 2746   0.747   0.742   1.409  0.1367 -0.1738 -0.2531
  916SOL    HW1 2747   0.776   0.650   1.443 -0.9633 -2.1980  0.8612
  916SOL    HW2 2748   0.820   0.809   1.429 -2.2460  0.3920  0.5294
  917SOL     OW 2749   2.662   0.468   0.683 -0.3838  0.3207 -0.2725
  917SOL    HW1 2750   2.754   0.420   0.676  1.7625  0.6988  0.3060
  917SOL    HW2 2751   2.615   0.457   0.594  3.0900  0.9332  1.5078
  918SOL     OW 2752   1.688   2.452   2.794 -0.0249  0.7942  0.1102
  918SOL    HW1 2753   1.777   2.413   2.825 -2.6898  0.0103  0.7181
  918SOL    HW2 2754   1.637   2.479   2.873  0.7030  1.2419 -2.3875
  919SOL     OW 2755   1.531   2.609   1.516 -0.1951  0.4268  0.2803
  919SOL    HW1 2756   1.538   2.589   1.412 -1.2666  0.2859 -4.3860
  919SOL    HW2 2757   1.553   2.703   1.530 -1.3178 -0.7530  0.5014
  920SOL     OW 2758   0.771   0.716   2.835  0.1720  0.3475 -0.1885
  920SOL    HW1 2759   0.837   0.677   2.903 -2.0431 -4.2830 -1.8462
  920SOL    HW2 2760   0.711   0.793   2.869  1.5360 -0.9644 -0.2465
  921SOL     OW 2761   2.819   0.721   3.061  0.6543 -0.1820 -0.0073
  921SOL    HW1 2762   2.801   0.822   3.043 -3.0271  3.3979  4.3477
  921SOL    HW2 2763   2.879   0.677   2.989 -1.8522  2.2890  0.3993
  922SOL     OW 2764   0.179   1.977   0.977  0.0176 -0.1155  0.1030
  922SOL    HW1 2765   0.235   1.958   1.059 -0.8812 -0.2918 -0.7474
  922SOL    HW2 2766   0.238   2.000   0.898 -0.8493  0.8582 -1.9336
  923SOL     OW 2767   0.638   1.289   1.917  0.1720  0.0893  0.1331
  923SOL    HW1 2768   0.735   1.276   1.950 -1.0828 -0.7927  0.2402
  923SOL    HW2 2769   0.629   1.379   1.865 -0.8111 -0.7041 -1.9406
  924SOL     OW 2770   1.679   2.960   3.069  0.0613 -0.2794 -0.0591
  924SOL    HW1 2771   1.603   2.928   0.035 -1.6904 -2.4992  0.4289
  924SOL    HW2 2772   1.744   3.028   0.011  3.1583  0.4969 -0.8586
  925SOL     OW 2773   2.717   1.432   1.138  0.2707  0.2443 -0.4725
  925SOL    HW1 2774   2.722   1.344   1.091  0.7902  0.9166  2.7055
  925SOL    HW2 2775   2.663   1.410   1.223 -2.1052 -0.2852  2.2796
  926SOL     OW 2776   2.402   0.536   1.482 -0.0114  0.3049  0.3167
  926SOL    HW1 2777   2.485   0.593   1.503  0.7343 -0.2397 -1.2642
  926SOL    HW2 2778   2.413   0.438   1.517 -3.3111 -1.5059  0.4409
  927SOL     OW 2779   2.043   2.974   1.327 -0.2838 -0.1175  0.3443
  927SOL    HW1 2780   2.119   2.910   1.350  0.5706 -0.6103  2.3510
  927SOL    HW2 2781   2.056   3.020   1.239  3.1156 -1.1854  0.0525
  928SOL     OW 2782   0.139   1.228   2.505 -0.0316  0.5036 -0.6622
  928SOL    HW1 2783   0.229   1.242   2.455  4.8444  1.0383 -1.7510
  928SOL    HW2 2784   0.101   1.133   2.485  1.8396  0.2357 -0.8439
  929SOL     OW 2785   2.612   0.822   1.204 -0.1367 -0.3748  0.6628
  929SOL    HW1 2786   2.520   0.866   1.213 -4.2727 -2.1473 -0.6434
  929SOL    HW2 2787   2.695   0.880   1.218  0.7247 -0.3508  0.8046
  930SOL     OW 2788   2.981   2.313   1.976 -0.3848 -0.6211  0.1684
  930SOL    HW1 2789   3.021   2.393   2.023 -1.8666  0.6553  0.1124
  930SOL    HW2 2790   3.053   2.244   1.957 -2.0763  2.7428 -0.7377
  931SOL     OW 2791   1.713   0.608   1.159  0.0374 -0.0554  0.2245
  931SOL    HW1 2792   1.786   0.604   1.225  0.9653  1.5041 -2.1758
  931SOL    HW2 2793   1.680   0.702   1.147  1.7326 -0.0383  0.4224
  932SOL     OW 2794   0.252   1.093   1.858  0.3677 -0.0010  0.0596
  932SOL    HW1 2795   0.303   1.148   1.928 -0.6957 -1.9619 -2.0894
  932SOL    HW2 2796   0.193   1.148   1.796  0.0880 -0.2675 -1.9351
  933SOL     OW 2797   2.712   1.914   1.603 -0.7909  0.5821 -0.0754
  933SOL    HW1 2798   2.762   1.917   1.516 -0.2869  0.3561 -0.5151
  933SOL    HW2 2799   2.617   1.874   1.600  1.1761  1.8448  2.6066
  934SOL     OW 2800   0.492   1.893   1.541 -0.3936 -0.1999 -0.0290
  934SOL    HW1 2801   0.575   1.855   1.494  2.2032 -0.7690 -2.5019
  934SOL    HW2 2802   0.520   1.984   1.575  0.7708  1.4923 -1.4825
  935SOL     OW 2803   2.836   1.193   1.367  0.2355 -0.3761  0.2945
  935SOL    HW1 2804   2.818   1.262   1.444 -0.2341  4.1514  0.2995
  935SOL    HW2 2805   2.920   1.218   1.317 -0.8661  0.6556  0.5129
  936SOL     OW 2806   2.692   1.381   1.513  0.2893 -0.3462  0.5985
  936SOL    HW1 2807   2.653   1.341   1.597  2.4419  1.6642 -0.7306
  936SOL    HW2 2808   2.629   1.453   1.479 -1.6930 -0.1337  0.4398
  937SOL     OW 2809   1.952   0.305   1.446  0.5598  0.2623 -0.3584
  937SOL    HW1 2810   1.957   0.203   1.442 -0.5042  2.3923 -1.7386
  937SOL    HW2 2811   1.981   0.335   1.539  2.3756  0.1370  0.6814
  938SOL     OW 2812   0.334   2.872   3.056  0.0986 -0.0003  0.6764
  938SOL    HW1 2813   0.305   2.825   0.044 -0.0762  2.4250 -0.8475
  938SOL    HW2 2814   0.349   2.799   2.983 -0.7117 -0.8099 -0.6967
  939SOL     OW 2815   2.930   2.006   2.578 -0.0183  0.0122  0.1902
  939SOL    HW1 2816   3.023   1.967   2.568 -1.5337 -1.3986  3.4305
  939SOL    HW2 2817   2.864   1.943   2.529  0.9715 -0.9997  0.4561
  940SOL     OW 2818   1.477   1.929   0.511  0.3401  0.0565  0.8955
  940SOL    HW1 2819   1.426   1.944   0.426 -0.4795 -0.9335  1.7768
  940SOL    HW2 2820   1.444   1.845   0.556 -0.4626  3.1087 -0.3607
  941SOL     OW 2821   1.959   2.644   0.055  0.1839 -0.1712  0.2674
  941SOL    HW1 2822   2.059   2.654   0.072  1.5135 -0.6451  1.5434
  941SOL    HW2 2823   1.937   2.546   0.028 -1.6533  1.4459 -3.5052
  942SOL     OW 2824   1.792   2.368   1.099 -0.4760  0.1095 -0.2850
  942SOL    HW1 2825   1.796   2.466   1.077  2.2352 -1.3332  0.7713
  942SOL    HW2 2826   1.878   2.316   1.088  1.4156  2.8133 -1.3394
  943SOL     OW 2827   2.336   0.942   1.781 -0.4247 -0.0249 -0.3735
  943SOL    HW1 2828   2.308   0.972   1.684 -2.3134  1.6563 -2.8433
  943SOL    HW2 2829   2.307   0.843   1.797 -2.7554 -4.1475  0.9221
  944SOL     OW 2830   1.120   0.769   2.618 -0.2680 -0.0956 -0.1975
  944SOL    HW1 2831   1.041   0.731   2.559 -3.1065 -0.7550  0.6365
  944SOL    HW2 2832   1.127   0.715   2.707  0.1789 -0.8127  2.4594
  945SOL     OW 2833   2.781   2.031   1.229  0.1570 -0.0029 -0.9841
  945SOL    HW1 2834   2.781   1.931   1.227 -0.1102 -1.8159 -2.2496
  945SOL    HW2 2835   2.711   2.063   1.301 -2.7364  0.1754  1.2916
  946SOL     OW 2836   0.698   1.052   0.050  0.3667  0.2550 -0.3722
  946SOL    HW1 2837   0.698   1.019   0.146 -0.0804 -0.9464 -2.1318
  946SOL    HW2 2838   0.759   1.139   0.043 -0.3969  2.0431 -0.8912
  947SOL     OW 2839   2.121   2.725   1.613 -0.3093 -0.1003 -0.8468
  947SOL    HW1 2840   2.046   2.677   1.662 -0.4056 -2.6453  0.5219
  947SOL    HW2 2841   2.162   2.803   1.669  1.2907  2.4940  0.2158
  948SOL     OW 2842   0.059   1.733   0.836 -0.1050  0.7268 -0.6258
  948SOL    HW1 2843   0.107   1.796   0.899  0.7825  0.4602  2.6233
  948SOL    HW2 2844   0.116   1.647   0.830  2.0123  0.5197 -0.2668
  949SOL     OW 2845   1.280   1.059   1.630 -0.1686  0.4049 -0.5205
  949SOL    HW1 2846   1.319   1.056   1.537 -0.7718  0.2042 -0.8197
  949SOL    HW2 2847   1.181   1.030   1.630  0.0599 -1.8201 -1.1072
  950SOL     OW 2848   0.436   1.100   0.899  0.1572 -0.0981  0.2290
  950SOL    HW1 2849   0.344   1.133   0.919  2.3307 -1.0923 -0.2040
  950SOL    HW2 2850   0.434   1.017   0.836 -0.5586 -0.9572 -3.7385
  951SOL     OW 2851   0.468   2.210   2.234  0.3908  0.1148  0.0980
  951SOL    HW1 2852   0.399   2.133   2.208  1.1217 -0.5610  0.9783
  951SOL    HW2 2853   0.551   2.169   2.279 -0.7959 -1.6957  0.2282
  952SOL     OW 2854   1.552   1.411   0.210  0.4680 -0.0267  0.3257
  952SOL    HW1 2855   1.555   1.496   0.265 -2.1839 -1.8971  0.6903
  952SOL    HW2 2856   1.534   1.436   0.113  1.4797  0.4311  0.2682
  953SOL     OW 2857   1.085   0.160   2.992  0.5008 -0.1443  0.0002
  953SOL    HW1 2858   1.025   0.220   3.048  1.2431 -0.2789 -1.1787
  953SOL    HW2 2859   1.166   0.211   2.965 -2.0323 -1.9706 -1.2725
  954SOL     OW 2860   2.367   1.389   0.400  0.0542  0.1964 -0.1745
  954SOL    HW1 2861   2.277   1.435   0.391 -0.9270  3.4088 -0.8821
  954SOL    HW2 2862   2.437   1.456   0.362  0.4900  1.3338 -1.3236
  955SOL     OW 2863   2.852   3.006   0.018 -0.3859 -0.2592 -0.6092
  955SOL    HW1 2864   2.836   3.024   3.018 -1.8285 -0.2426  0.7678
  955SOL    HW2 2865   2.868   2.907   0.041 -2.6617  1.7232 -0.2770
  956SOL     OW 2866   1.260   0.813   1.361  0.1889  0.1863 -0.1257
  956SOL    HW1 2867   1.320   0.819   1.282 -0.5494  1.0696  2.0441
  956SOL    HW2 2868   1.222   0.718   1.367  1.4171 -1.4053 -1.5933
  957SOL     OW 2869   1.167   1.151   1.177 -0.1430  0.0659  0.2693
  957SOL    HW1 2870   1.124   1.067   1.219 -1.1083 -0.6680 -0.0848
  957SOL    HW2 2871   1.210   1.120   1.087  2.2303 -1.7822 -0.3880
  958SOL     OW 2872   0.455   1.697   0.608  0.2448  0.6517  0.8662
  958SOL    HW1 2873   0.445   1.790   0.570 -0.8128 -0.5540 -0.0851
  958SOL    HW2 2874   0.372   1.643   0.597  0.9654 -1.5887 -0.5988
  959SOL     OW 2875   1.627   1.293   0.953 -0.5147  0.7615  0.0002
  959SOL    HW1 2876   1.725   1.313   0.933  1.3400  1.3933 -1.3826
  959SOL    HW2 2877   1.612   1.214   1.018  1.1152 -2.0498  2.5365
  960SOL     OW 2878   3.028   1.230   2.865  0.3542  0.3034  0.2302
  960SOL    HW1 2879   0.008   1.246   2.801  1.2660 -4.7740  2.0528
  960SOL    HW2 2880   2.957   1.168   2.821 -0.1759 -0.9302  0.4690
  961SOL     OW 2881   0.825   1.471   0.861 -0.7964 -0.2365  0.0172
  961SOL    HW1 2882   0.760   1.400   0.892  0.8319 -3.7619  0.3663
  961SOL    HW2 2883   0.828   1.474   0.759 -2.1106 -1.6319 -2.4938
  962SOL     OW 2884   1.186   1.167   0.406 -0.0861 -0.0873  0.8255
  962SOL    HW1 2885   1.223   1.256   0.440  1.9113 -1.0113 -2.6287
  962SOL    HW2 2886   1.196   1.162   0.301  0.9516  1.0440 -3.2804
  963SOL     OW 2887   1.340   2.085   2.324  0.1847  0.2377 -0.4874
  963SOL    HW1 2888   1.420   2.024   2.323 -2.3793 -0.0902 -0.9602
  963SOL    HW2 2889   1.315   2.125   2.236 -0.2300 -0.7744  0.3627
  964SOL     OW 2890   2.920   2.737   0.025  0.3770 -0.9757 -0.2607
  964SOL    HW1 2891   2.825   2.702   0.002 -4.2340 -1.5949 -0.4609
  964SOL    HW2 2892   2.984   2.726   3.045  2.8577  0.0922 -2.6561
  965SOL     OW 2893   0.722   2.348   0.095  0.0592 -0.0060  0.4881
  965SOL    HW1 2894   0.787   2.419   0.141  2.4828  1.6240  0.5606
  965SOL    HW2 2895   0.774   2.285   0.040 -2.0919  5.3408  2.7575
  966SOL     OW 2896   3.042   1.539   2.774 -0.0481 -0.3573 -0.2242
  966SOL    HW1 2897   0.032   1.502   2.815  1.8109 -0.7716  2.2049
  966SOL    HW2 2898   3.023   1.637   2.795 -0.2892  2.5358 -1.3639
  967SOL     OW 2899   2.036   3.005   2.855  0.1504  0.2163  0.3112
  967SOL    HW1 2900   1.964   2.930   2.847 -0.7328  0.5395  2.1271
  967SOL    HW2 2901   2.035   3.063   2.767 -0.7555  1.1877 -2.4857
  968SOL     OW 2902   2.175   2.830   0.564  0.0846  0.4050 -0.0059
  968SOL    HW1 2903   2.113   2.770   0.511  0.0058  1.2553  0.4435
  968SOL    HW2 2904   2.140   2.858   0.653  0.9868 -1.1974 -1.0897
  969SOL     OW 2905   0.561   1.453   2.353 -0.5671  0.3394 -0.3752
  969SOL    HW1 2906   0.651   1.414   2.382  1.1928  1.4265  0.1784
  969SOL    HW2 2907   0.490   1.379   2.360 -0.7629 -2.3953 -1.8398
  970SOL     OW 2908   1.493   1.442   0.768  0.1906 -0.3171 -0.0633
  970SOL    HW1 2909   1.553   1.498   0.706 -0.5956  0.8750  0.6862
  970SOL    HW2 2910   1.555   1.401   0.844 -0.2051  0.5247  3.1397
  971SOL     OW 2911   2.262   0.080   1.579  0.0118  0.3059  0.5129
  971SOL    HW1 2912   2.159   0.099   1.588 -1.1154 -1.5871  0.3236
  971SOL    HW2 2913   2.286   0.050   1.486 -2.6480 -0.0290  1.7397
  972SOL     OW 2914   0.141   0.006   1.416  0.4455 -0.0551  0.4046
  972SOL    HW1 2915   0.215   0.056   1.460 -2.3266  0.1347 -1.4127
  972SOL    HW2 2916   0.115   3.017   1.462  0.3955  1.2534  0.7155
  973SOL     OW 2917   0.154   0.486   2.756  0.1422  0.5601 -0.3359
  973SOL    HW1 2918   0.101   0.548   2.813 -0.4038  0.3673  0.2064
  973SOL    HW2 2919   0.245   0.533   2.732  0.9761 -0.5431 -1.2489
  974SOL     OW 2920   2.156   1.502   2.161  0.1233 -0.1044 -0.1376
  974SOL    HW1 2921   2.142   1.525   2.258 -3.0585  0.1338 -1.9253
  974SOL    HW2 2922   2.196   1.411   2.150 -1.5167  1.7842  1.9421
  975SOL     OW 2923   0.518   0.020   1.268 -0.7894 -0.3252  0.1101
  975SOL    HW1 2924   0.559   3.028   1.250  0.0225  1.3207  1.1819
  975SOL    HW2 2925   0.571   0.064   1.341 -0.4412 -1.8022 -0.7476
  976SOL     OW 2926   1.029   2.340   2.565  0.1352 -0.1913 -0.5072
  976SOL    HW1 2927   1.097   2.396   2.516  1.0807  1.0677 -0.6317
  976SOL    HW2 2928   0.944   2.334   2.513 -1.2011 -0.2270  0.5487
  977SOL     OW 2929   0.463   3.051   0.467  0.3555  0.1487 -0.0278
  977SOL    HW1 2930   0.477   0.038   0.421  1.2887  0.1924  1.4300
  977SOL    HW2 2931   0.548   3.011   0.510  1.7301 -0.9137  0.2657
  978SOL     OW 2932   3.082   1.240   2.056 -0.0815 -0.3788 -0.5906
  978SOL    HW1 2933   3.076   1.156   2.119 -2.2368 -0.1258  0.5500
  978SOL    HW2 2934   2.993   1.285   2.056  3.6864 -0.4010 -2.4422
  979SOL     OW 2935   1.789   2.991   1.654  0.1796 -0.4915  0.2616
  979SOL    HW1 2936   1.730   2.943   1.582 -1.2026  0.8191  1.2315
  979SOL    HW2 2937   1.759   2.953   1.743 -0.1578 -0.6131 -2.6428
  980SOL     OW 2938   1.573   1.595   2.121 -0.2798 -0.0724  0.2578
  980SOL    HW1 2939   1.524   1.526   2.073  0.4814  0.3293 -0.1761
  980SOL    HW2 2940   1.609   1.570   2.216 -1.0884 -2.4264 -0.7281
  981SOL     OW 2941   2.616   0.727   1.481 -0.4681  0.3455 -0.1069
  981SOL    HW1 2942   2.623   0.812   1.541 -4.4955 -0.2005  3.3415
  981SOL    HW2 2943   2.634   0.742   1.382 -3.0093  0.0268  0.5558
  982SOL     OW 2944   0.118   0.201   2.716  0.1686  0.0113 -0.1568
  982SOL    HW1 2945   0.036   0.168   2.769  0.0393  1.7959  0.6624
  982SOL    HW2 2946   0.143   0.295   2.748 -1.2105 -0.4155 -0.3138
  983SOL     OW 2947   2.448   0.557   2.467  0.5114 -0.1042  0.0079
  983SOL    HW1 2948   2.420   0.655   2.477  1.0096 -0.2849 -0.2995
  983SOL    HW2 2949   2.477   0.534   2.375 -0.5197  2.9247  0.4455
  984SOL     OW 2950   1.022   0.182   2.100  0.5072 -0.2674  0.0250
  984SOL    HW1 2951   1.119   0.204   2.078 -0.0624 -1.7152  0.8143
  984SOL    HW2 2952   1.018   0.095   2.154 -0.4963 -3.5999 -0.6479
  985SOL     OW 2953   1.954   1.519   1.977 -0.4770  0.2797  0.0530
  985SOL    HW1 2954   1.901   1.593   2.019  0.9244  0.0493  2.8784
  985SOL    HW2 2955   2.040   1.508   2.031  2.0741  0.6602  0.9937
  986SOL     OW 2956   2.729   0.368   1.260  0.6013 -0.1452  0.4526
  986SOL    HW1 2957   2.755   0.293   1.199 -0.4826  0.5913  1.5620
  986SOL    HW2 2958   2.735   0.453   1.200 -0.3726 -2.4755 -0.5555
  987SOL     OW 2959   2.837   0.954   1.241  0.0934  0.1377 -0.3792
  987SOL    HW1 2960   2.836   1.035   1.302 -1.4043  1.0260  2.9949
  987SOL    HW2 2961   2.881   0.979   1.155 -0.6882 -2.4831  0.5718
  988SOL     OW 2962   3.015   1.018   2.183  0.2659 -0.0476  0.0427
  988SOL    HW1 2963   2.916   1.005   2.165 -1.6427  1.5153  1.1600
  988SOL    HW2 2964   3.063   0.945   2.234 -3.5971 -0.9113 -1.0408
  989SOL     OW 2965   1.750   1.588   0.028  0.0279  0.2570 -0.2041
  989SOL    HW1 2966   1.831   1.613   3.063  0.3191 -0.1257 -0.4241
  989SOL    HW2 2967   1.664   1.642   0.007 -0.3514  1.8780 -0.4790
  990SOL     OW 2968   0.960   0.689   2.157 -0.4322  0.3941  0.0181
  990SOL    HW1 2969   1.045   0.730   2.119  3.3271 -0.2319 -0.1858
  990SOL    HW2 2970   0.949   0.716   2.252  2.8842 -3.8272 -2.0006
  991SOL     OW 2971   1.297   1.086   0.667  0.4244 -0.3708 -0.7000
  991SOL    HW1 2972   1.225   1.125   0.604 -1.1366  1.5969 -0.1199
  991SOL    HW2 2973   1.373   1.042   0.618 -0.0487  1.1758  0.6951
  992SOL     OW 2974   2.254   1.525   0.857  0.0410  0.3140  0.2547
  992SOL    HW1 2975   2.265   1.486   0.953  0.5386 -1.2481  0.1760
  992SOL    HW2 2976   2.288   1.462   0.781  0.3386 -2.0124 -1.2283
  993SOL     OW 2977   0.065   0.797   0.834  0.5172  0.3479  0.0708
  993SOL    HW1 2978   0.131   0.785   0.912  1.1459 -2.7590  1.7486
  993SOL    HW2 2979   0.095   0.738   0.756 -1.2341 -2.7003 -0.9586
  994SOL     OW 2980   0.418   2.353   2.463 -0.0655 -0.1052  0.4449
  994SOL    HW1 2981   0.439   2.296   2.382 -1.4375  0.1252  2.0399
  994SOL    HW2 2982   0.321   2.385   2.461  0.1480  2.4943 -0.4208
  995SOL     OW 2983   2.013   1.077   2.693 -0.0631  0.2247 -0.2638
  995SOL    HW1 2984   2.019   1.009   2.619 -1.2726  3.2653  1.5483
  995SOL    HW2 2985   1.955   1.155   2.668 -0.4576 -1.9660  1.0502
  996SOL     OW 2986   2.891   1.147   0.652  0.0892  0.3950 -0.1000
  996SOL    HW1 2987   2.817   1.209   0.619  0.1933  0.7168  1.7122
  996SOL    HW2 2988   2.866   1.104   0.738  0.3188  1.4273 -0.0110
  997SOL     OW 2989   1.698   0.886   1.875 -0.0475  0.5072  0.0909
  997SOL    HW1 2990   1.614   0.938   1.897  0.5730  1.4538  1.9847
  997SOL    HW2 2991   1.727   0.900   1.778 -0.7143 -2.9693 -1.0035
  998SOL     OW 2992   2.812   1.983   0.209 -0.2778 -0.8427  0.0262
  998SOL    HW1 2993   2.856   1.892   0.214  0.7164 -1.8706  1.0449
  998SOL    HW2 2994   2.839   2.032   0.124  0.5803 -2.4989  3.8111
  999SOL     OW 2995   2.982   2.255   0.231  0.0801 -0.0146 -0.1839
  999SOL    HW1 2996   2.945   2.226   0.323  0.1690  2.0516  1.6402
  999SOL    HW2 2997   2.956   2.351   0.208  0.7161  1.1771 -2.7375
 1000SOL     OW 2998   0.927   1.117   2.365 -0.3740  0.1889 -0.3430
 1000SOL    HW1 2999   0.863   1.063   2.426  1.2612 -0.2186  3.1865
 1000SOL    HW2 3000   0.929   1.064   2.279  2.1219 -0.5647 -1.2102
   3.09949   3.09949   3.09949
