1000 SPC/Fw water molecules t= 480.00000 step= 480000
 3000
    1SOL     OW    1   2.753   0.089   1.600 -0.4015  0.1688 -0.1312
    1SOL    HW1    2   2.765   0.184   1.623  1.5284 -0.0224  1.5786
    1SOL    HW2    3   2.666   0.047   1.629  2.3466  1.9038  1.5538
    2SOL     OW    4   2.993   2.861   2.826  0.0408  0.2512  0.2143
    2SOL    HW1    5   3.013   2.765   2.794 -0.3625  0.8166 -1.0772
    2SOL    HW2    6   2.904   2.890   2.792  1.8980  2.8147 -0.1813
    3SOL     OW    7   1.123   2.091   0.126 -0.1871  0.1213  0.1400
    3SOL    HW1    8   1.064   2.029   0.073 -1.0398  2.1088  2.2844
    3SOL    HW2    9   1.083   2.111   0.216  0.7784  1.0170 -2.1724
    4SOL     OW   10   1.230   2.755   2.294 -0.1797 -0.2513 -0.1807
    4SOL    HW1   11   1.187   2.821   2.239 -0.8674 -3.8975  1.9501
    4SOL    HW2   12   1.255   2.791   2.387  0.9374  0.2357 -0.2020
    5SOL     OW   13   2.014   0.270   3.057  0.4961  0.2385 -0.2355
    5SOL    HW1   14   2.114   0.280   3.036  1.5925  0.7398  1.7284
    5SOL    HW2   15   1.989   0.267   0.046  0.6611  1.4307 -1.0683
    6SOL     OW   16   0.188   1.752   0.960 -0.0996  0.0001  0.0658
    6SOL    HW1   17   0.206   1.804   1.047 -0.2875 -1.9760 -0.3626
    6SOL    HW2   18   0.254   1.680   0.940 -0.1033  2.4760 -0.4173
    7SOL     OW   19   1.131   1.844   0.418  1.0680  0.0046  0.3180
    7SOL    HW1   20   1.085   1.760   0.444  0.4578  3.3515  1.2168
    7SOL    HW2   21   1.185   1.835   0.332  1.9663  0.8524 -2.5023
    8SOL     OW   22   0.394   0.435   0.315  0.0802 -0.0770  0.0751
    8SOL    HW1   23   0.480   0.450   0.368 -2.1148 -1.9641  0.0277
    8SOL    HW2   24   0.339   0.518   0.300  0.5780 -1.8495  0.8102
    9SOL     OW   25   0.210   2.595   1.714  0.0625  0.2122  0.1021
    9SOL    HW1   26   0.304   2.593   1.673  0.7032  0.7692  0.2354
    9SOL    HW2   27   0.132   2.592   1.649 -0.8052 -2.0485  0.1245
   10SOL     OW   28   1.211   1.396   0.041  0.4318  0.1615 -0.0351
   10SOL    HW1   29   1.246   1.394   3.054 -0.1093 -1.5859  0.9796
   10SOL    HW2   30   1.149   1.319   0.052  0.8476 -1.7931  1.1602
   11SOL     OW   31   2.044   0.622   1.449 -0.1033  0.2719 -0.2328
   11SOL    HW1   32   2.124   0.613   1.509 -0.6805 -1.0512  0.1599
   11SOL    HW2   33   1.963   0.647   1.512 -1.9762  0.2428  1.6434
   12SOL     OW   34   0.347   0.770   2.163 -0.4520  0.2738  0.6639
   12SOL    HW1   35   0.431   0.819   2.187 -1.1417 -0.7942 -3.0478
   12SOL    HW2   36   0.347   0.678   2.209  1.3503  1.0656 -1.2295
   13SOL     OW   37   2.219   0.139   0.304  0.4704  0.4038 -0.2419
   13SOL    HW1   38   2.261   0.094   0.222 -3.0218  3.7243  3.0174
   13SOL    HW2   39   2.127   0.097   0.322 -1.2210 -1.4816 -0.1781
   14SOL     OW   40   2.312   1.970   0.195  0.2632  0.3935  0.1406
   14SOL    HW1   41   2.293   2.022   0.279  2.8190  0.4007 -2.4411
   14SOL    HW2   42   2.372   2.014   0.127  0.1995  0.2656  1.8737
   15SOL     OW   43   2.729   2.904   0.051 -0.2459  0.1715 -0.9211
   15SOL    HW1   44   2.691   2.836   3.097 -0.0926 -2.5842  1.0070
   15SOL    HW2   45   2.713   2.999   0.015 -3.1375  2.1049 -1.3611
   16SOL     OW   46   3.015   0.720   1.037 -0.7958  0.3206 -0.2357
   16SOL    HW1   47   3.021   0.622   1.011 -0.2963 -0.4993  0.9566
   16SOL    HW2   48   2.985   0.778   0.962  0.4739  0.2273  0.9139
   17SOL     OW   49   0.657   0.390   0.929 -0.2634 -0.7070 -0.0310
   17SOL    HW1   50   0.736   0.331   0.892 -0.2983 -2.4454  0.7883
   17SOL    HW2   51   0.658   0.393   1.032  0.8543  1.4443  1.2125
   18SOL     OW   52   2.711   0.135   0.786  0.2847  0.6037 -0.3241
   18SOL    HW1   53   2.622   0.138   0.747 -0.0182  0.4489 -1.1019
   18SOL    HW2   54   2.740   0.229   0.811 -2.2501 -0.8954  0.9345
   19SOL     OW   55   1.992   1.598   1.023 -0.1281 -0.0289 -0.1814
   19SOL    HW1   56   2.003   1.682   0.966 -1.4749 -0.4970 -0.3505
   19SOL    HW2   57   1.913   1.549   0.990  1.7066  2.2741 -0.2901
   20SOL     OW   58   2.063   1.609   2.567 -0.6529  0.6102  0.0771
   20SOL    HW1   59   1.986   1.593   2.503 -0.7261 -2.9754  0.9076
   20SOL    HW2   60   2.095   1.705   2.561 -3.0261 -1.9096  0.7114
   21SOL     OW   61   1.378   0.021   0.510 -0.0453 -0.2269  0.1595
   21SOL    HW1   62   1.319   0.103   0.522 -1.4778 -1.3753  0.0717
   21SOL    HW2   63   1.442   0.019   0.429 -0.1363 -1.9878 -0.7674
   22SOL     OW   64   2.364   0.987   0.032  0.1623  0.2816 -0.2959
   22SOL    HW1   65   2.432   1.054   0.064 -0.0694 -2.7259 -0.1530
   22SOL    HW2   66   2.408   0.921   3.074 -0.5464 -1.8918  1.1946
   23SOL     OW   67   0.445   0.342   2.326 -0.3487 -0.5661  0.1878
   23SOL    HW1   68   0.406   0.262   2.284  0.5109  0.8305 -0.2224
   23SOL    HW2   69   0.544   0.354   2.295  1.8487 -0.8207  0.4232
   24SOL     OW   70   2.154   2.297   0.934 -0.3183  0.1314  0.2411
   24SOL    HW1   71   2.208   2.372   0.971 -1.4139 -2.3957 -0.0619
   24SOL    HW2   72   2.123   2.311   0.840  0.0670 -2.3540 -0.7073
   25SOL     OW   73   1.394   3.081   0.206  0.1194 -0.6179  0.4108
   25SOL    HW1   74   1.443   3.041   0.127  2.3190 -0.8258  0.1095
   25SOL    HW2   75   1.440   0.056   0.243  2.1772  1.2348  0.9228
   26SOL     OW   76   1.101   2.762   2.730 -0.4063  0.2593  0.5086
   26SOL    HW1   77   1.054   2.835   2.778  1.3022 -0.1146 -2.4496
   26SOL    HW2   78   1.166   2.708   2.784 -3.1743  4.1985 -2.3196
   27SOL     OW   79   1.088   0.591   1.349  0.0027  0.0027  0.3194
   27SOL    HW1   80   1.142   0.564   1.265  1.5479 -3.2601 -0.3785
   27SOL    HW2   81   1.012   0.528   1.369  2.4822  1.5037  0.7568
   28SOL     OW   82   0.900   1.954   1.171  0.8721 -0.6075  0.4641
   28SOL    HW1   83   0.835   1.976   1.093 -3.2266 -0.8636 -2.8280
   28SOL    HW2   84   0.856   1.967   1.261 -0.3778 -0.1269 -0.2718
   29SOL     OW   85   2.890   0.879   0.811  0.1634 -0.3967  0.2217
   29SOL    HW1   86   2.818   0.808   0.803  1.1679  0.0409  2.2385
   29SOL    HW2   87   2.853   0.946   0.875  2.1429 -2.2955 -2.4859
   30SOL     OW   88   1.344   0.057   1.734 -0.0299  0.4187 -0.0015
   30SOL    HW1   89   1.386   0.023   1.648  2.8104  0.0571 -0.5596
   30SOL    HW2   90   1.288   3.085   1.768 -0.1419  0.2760  2.6518
   31SOL     OW   91   1.320   3.061   1.315 -0.9093 -0.2588 -0.0393
   31SOL    HW1   92   1.414   3.064   1.280 -2.6741 -0.0022 -0.3001
   31SOL    HW2   93   1.250   3.066   1.239  1.7920 -0.9089  0.5977
   32SOL     OW   94   2.328   1.264   2.032  0.5483  0.1402  0.5456
   32SOL    HW1   95   2.411   1.229   1.987 -3.3387 -0.2198  0.6225
   32SOL    HW2   96   2.256   1.294   1.970 -0.5830 -2.7904 -1.0090
   33SOL     OW   97   2.415   2.618   2.702  0.0152  0.3119  0.1275
   33SOL    HW1   98   2.417   2.609   2.603  1.5040 -2.1818  0.7073
   33SOL    HW2   99   2.510   2.631   2.739  0.5733 -2.2782  3.3086
   34SOL     OW  100   1.849   0.861   0.133  0.5710 -0.5416  0.0376
   34SOL    HW1  101   1.948   0.848   0.128  0.7509  1.6160  1.5627
   34SOL    HW2  102   1.813   0.833   0.043  0.8396  0.6604  2.2409
   35SOL     OW  103   3.035   1.160   1.209  0.2193 -0.5719 -0.1321
   35SOL    HW1  104   3.053   1.251   1.169  0.0605 -2.0051  1.9349
   35SOL    HW2  105   0.010   1.119   1.242 -0.5004  0.6183 -3.6494
   36SOL     OW  106   2.378   2.322   2.691  0.3249 -0.0201  0.2769
   36SOL    HW1  107   2.406   2.417   2.674 -3.7222 -1.2739  0.7777
   36SOL    HW2  108   2.274   2.320   2.703 -1.9212 -1.9436 -0.9805
   37SOL     OW  109   1.572   0.069   2.218 -0.0730  0.2652 -0.1257
   37SOL    HW1  110   1.628   0.154   2.228  0.9441  1.2825 -1.8145
   37SOL    HW2  111   1.533   0.053   2.125  1.6769  1.3570  0.2737
   38SOL     OW  112   1.078   1.342   2.321  0.0462  0.6020  0.1943
   38SOL    HW1  113   0.988   1.376   2.287  2.7696 -2.7175  0.5034
   38SOL    HW2  114   1.101   1.250   2.276 -1.3809 -1.0648 -6.0332
   39SOL     OW  115   1.670   0.399   1.652 -1.1635 -0.2385 -0.1742
   39SOL    HW1  116   1.572   0.386   1.639 -1.9697  3.2964  0.2024
   39SOL    HW2  117   1.691   0.365   1.742  0.5182 -0.7384 -1.2998
   40SOL     OW  118   0.958   2.360   0.618  0.1283  0.1027  0.4672
   40SOL    HW1  119   0.992   2.291   0.553 -0.1025 -2.3929 -0.2428
   40SOL    HW2  120   1.022   2.437   0.624 -1.4740 -1.5546 -1.1767
   41SOL     OW  121   2.356   2.293   1.359 -0.2718 -0.2000 -0.2384
   41SOL    HW1  122   2.377   2.379   1.308 -0.4463  0.2247 -0.1285
   41SOL    HW2  123   2.441   2.251   1.394  0.2714 -0.5339 -0.6548
   42SOL     OW  124   2.488   3.072   0.478 -0.6596 -0.4538 -0.8125
   42SOL    HW1  125   2.577   0.001   0.452 -1.5051 -0.1305  0.2787
   42SOL    HW2  126   2.444   0.026   0.544  0.5255  0.0366  1.2485
   43SOL     OW  127   0.854   1.424   2.187 -0.4614  0.0639 -0.7388
   43SOL    HW1  128   0.838   1.362   2.104  0.6742 -0.7641 -3.7393
   43SOL    HW2  129   0.809   1.513   2.171  3.4366 -0.5379  1.6093
   44SOL     OW  130   2.016   2.907   1.070 -0.5657 -0.1757  0.7303
   44SOL    HW1  131   1.926   2.952   1.043 -1.0597  1.4817  0.2841
   44SOL    HW2  132   2.093   2.939   1.014 -1.4658 -0.1442  1.8644
   45SOL     OW  133   0.064   2.249   2.551  0.6628  0.2892  0.4381
   45SOL    HW1  134   0.086   2.171   2.481  0.5398 -3.0692 -1.0538
   45SOL    HW2  135   0.154   2.277   2.589  2.8525  0.1408 -1.6867
   46SOL     OW  136   0.743   2.562   2.140  0.0137  0.5050  0.2393
   46SOL    HW1  137   0.775   2.527   2.233  0.1856  0.4276 -0.1466
   46SOL    HW2  138   0.723   2.483   2.083 -1.3323 -0.3207  0.5318
   47SOL     OW  139   0.562   1.606   0.555  0.0866 -0.0308 -0.3670
   47SOL    HW1  140   0.483   1.666   0.525  0.2650  2.5731 -2.5955
   47SOL    HW2  141   0.582   1.523   0.503  1.2442  0.5940 -1.2730
   48SOL     OW  142   0.804   2.768   1.372  0.1505  0.1687  0.8506
   48SOL    HW1  143   0.794   2.678   1.334 -1.0969  1.6104  0.9218
   48SOL    HW2  144   0.721   2.795   1.424 -2.1943  2.7825  0.5081
   49SOL     OW  145   0.151   2.806   0.240 -0.2019  0.3135  0.9086
   49SOL    HW1  146   0.205   2.892   0.226  0.1350 -0.0139 -0.8909
   49SOL    HW2  147   0.075   2.806   0.175 -0.6386  2.5326 -2.8019
   50SOL     OW  148   1.606   0.783   0.499 -0.2046 -0.3254 -0.5476
   50SOL    HW1  149   1.601   0.807   0.602 -1.2557  2.0594  0.9945
   50SOL    HW2  150   1.695   0.816   0.459 -0.8185 -3.7569 -0.9264
   51SOL     OW  151   1.779   3.054   0.771 -0.3553  0.2332 -0.3701
   51SOL    HW1  152   1.871   3.022   0.742 -2.8949  0.1859  1.7592
   51SOL    HW2  153   1.769   0.049   0.783  2.1119  3.7156 -1.4923
   52SOL     OW  154   0.559   1.754   1.049  0.0948  0.4803  0.1298
   52SOL    HW1  155   0.581   1.677   1.110  0.1808  2.9584  0.6742
   52SOL    HW2  156   0.548   1.836   1.101 -0.6825 -2.4941 -2.6804
   53SOL     OW  157   0.387   1.091   2.680  0.7896  0.1579  0.0517
   53SOL    HW1  158   0.401   1.140   2.767  1.3480 -0.3798 -1.9605
   53SOL    HW2  159   0.304   1.024   2.684  1.0691 -0.5451 -1.4916
   54SOL     OW  160   2.320   2.054   2.682 -0.6957 -0.2070  0.5764
   54SOL    HW1  161   2.371   2.142   2.682 -1.8059 -0.9774 -1.7322
   54SOL    HW2  162   2.291   2.024   2.773 -1.0218 -0.7111 -0.5702
   55SOL     OW  163   2.613   2.247   1.444 -0.0324 -0.2568 -0.0118
   55SOL    HW1  164   2.660   2.328   1.407  1.4363  2.4095 -2.7394
   55SOL    HW2  165   2.637   2.232   1.539 -1.4682 -2.5208 -0.7667
   56SOL     OW  166   1.407   0.893   1.469 -0.2016 -0.1625  0.2567
   56SOL    HW1  167   1.507   0.882   1.499  1.5539 -0.6389 -2.1338
   56SOL    HW2  168   1.402   0.869   1.371  1.0477  0.7258  1.5762
   57SOL     OW  169   2.045   1.826   0.878  0.7095  0.7566  0.1172
   57SOL    HW1  170   2.123   1.887   0.894  1.0420 -2.3554  0.6818
   57SOL    HW2  171   2.077   1.768   0.795 -0.7955 -2.3046  3.0274
   58SOL     OW  172   1.991   0.213   2.285 -0.1618  0.1913 -0.2091
   58SOL    HW1  173   2.000   0.239   2.385 -4.1051  0.6881 -1.0312
   58SOL    HW2  174   2.044   0.277   2.227  1.1356  0.7061  0.0777
   59SOL     OW  175   1.592   0.185   2.859  0.0051  0.0541 -0.3342
   59SOL    HW1  176   1.680   0.136   2.878 -2.2201 -0.5724 -0.9891
   59SOL    HW2  177   1.607   0.218   2.765  3.0968 -3.1793  1.6554
   60SOL     OW  178   1.670   1.821   2.857  0.2767 -0.2433 -0.0358
   60SOL    HW1  179   1.749   1.879   2.892 -0.9221 -2.5381 -1.4205
   60SOL    HW2  180   1.691   1.786   2.761 -1.8386  0.1294 -0.3806
   61SOL     OW  181   0.369   2.172   3.035  0.1300  0.3441 -0.6151
   61SOL    HW1  182   0.284   2.136   3.076  1.0167 -0.0569  2.2652
   61SOL    HW2  183   0.380   2.146   2.934 -0.0303 -1.9152 -1.0047
   62SOL     OW  184   1.588   1.946   1.324  0.3887  0.3843 -0.4743
   62SOL    HW1  185   1.579   1.846   1.339 -1.1548  1.5424  0.9848
   62SOL    HW2  186   1.686   1.982   1.324 -0.2277  3.3100 -0.5836
   63SOL     OW  187   1.008   2.094   0.386  0.0536 -0.0354  0.8365
   63SOL    HW1  188   0.910   2.081   0.362 -0.3565 -1.8585  2.0078
   63SOL    HW2  189   1.057   2.002   0.398 -3.4187 -2.0001 -0.4455
   64SOL     OW  190   1.814   1.626   2.400  0.2545 -0.2123 -0.4757
   64SOL    HW1  191   1.779   1.541   2.359  0.9249 -1.1965  0.1832
   64SOL    HW2  192   1.814   1.707   2.340 -1.1581  2.7307  0.2006
   65SOL     OW  193   1.864   1.987   1.238  0.0058 -0.1902 -0.1112
   65SOL    HW1  194   1.857   2.037   1.149  0.7041 -1.2470  0.3042
   65SOL    HW2  195   1.945   1.927   1.240 -0.2156 -0.6318  3.6818
   66SOL     OW  196   2.845   0.806   0.524  0.1602  0.2434 -0.2532
   66SOL    HW1  197   2.773   0.737   0.497 -0.6572  1.0809 -1.2407
   66SOL    HW2  198   2.834   0.824   0.624 -0.6142  3.2332 -0.7435
   67SOL     OW  199   2.206   2.594   1.032 -0.1453  0.0350 -0.7306
   67SOL    HW1  200   2.107   2.584   1.024  0.4080  3.0136 -0.2481
   67SOL    HW2  201   2.251   2.624   0.948 -2.2836  2.0089  0.1445
   68SOL     OW  202   2.528   2.673   1.684  0.0120 -0.4817  0.3822
   68SOL    HW1  203   2.460   2.626   1.625 -1.3518  0.4885  1.7833
   68SOL    HW2  204   2.488   2.693   1.773  1.7224 -3.1593 -1.4391
   69SOL     OW  205   2.739   2.868   2.748 -0.1112 -0.4970  0.0615
   69SOL    HW1  206   2.713   2.901   2.657  0.5390 -1.7657 -3.0411
   69SOL    HW2  207   2.669   2.899   2.821 -0.3655 -2.1720 -0.6986
   70SOL     OW  208   1.345   1.411   2.328 -0.6901  0.0271  0.1657
   70SOL    HW1  209   1.269   1.355   2.295 -0.4780  1.1774  0.1471
   70SOL    HW2  210   1.418   1.422   2.258  2.5390  1.3210 -1.6120
   71SOL     OW  211   1.025   1.702   1.882  0.0513  1.0718 -0.5004
   71SOL    HW1  212   1.076   1.620   1.845  0.5141  0.5323 -3.0911
   71SOL    HW2  213   1.016   1.777   1.811 -0.4627 -0.3245 -0.6048
   72SOL     OW  214   2.586   1.347   1.564 -0.1576  0.0028 -0.6122
   72SOL    HW1  215   2.580   1.315   1.662  1.8163 -1.0563  1.0942
   72SOL    HW2  216   2.523   1.429   1.552 -0.7877  2.5030 -2.4366
   73SOL     OW  217   0.637   2.121   2.678  0.3431  0.2613  0.1263
   73SOL    HW1  218   0.687   2.181   2.609 -0.5325 -0.5250 -1.0081
   73SOL    HW2  219   0.670   2.141   2.772  0.4022 -4.0450 -2.1654
   74SOL     OW  220   0.777   0.331   2.445  0.6304  0.0268  0.5007
   74SOL    HW1  221   0.767   0.237   2.407 -1.7302  2.0546 -1.3711
   74SOL    HW2  222   0.873   0.337   2.471 -1.6201  1.9863  0.7278
   75SOL     OW  223   0.948   3.057   0.631  0.2883  0.1045  0.0294
   75SOL    HW1  224   0.873   2.990   0.657  0.7497 -1.6019 -1.2444
   75SOL    HW2  225   1.040   3.008   0.632  0.9723 -0.2119  0.2646
   76SOL     OW  226   0.640   1.300   2.679  0.3085 -0.1421 -0.3962
   76SOL    HW1  227   0.719   1.348   2.644 -2.2822 -1.8510  1.4989
   76SOL    HW2  228   0.561   1.325   2.627  0.9959 -0.4964 -0.3576
   77SOL     OW  229   0.606   2.663   0.640  0.2920 -0.2812  0.8488
   77SOL    HW1  230   0.518   2.700   0.601 -0.6573  1.2670  0.7194
   77SOL    HW2  231   0.646   2.588   0.588 -0.2159  1.5749  4.1444
   78SOL     OW  232   2.732   0.990   2.831 -0.0316  0.5328 -0.1251
   78SOL    HW1  233   2.807   0.936   2.786  1.2985  1.1233 -1.2394
   78SOL    HW2  234   2.664   0.934   2.884  0.6278 -0.1176 -1.8098
   79SOL     OW  235   0.867   1.434   2.627 -0.3847  0.0699  0.5365
   79SOL    HW1  236   0.937   1.365   2.607 -1.0477 -0.5949 -1.6518
   79SOL    HW2  237   0.873   1.507   2.556  2.5008 -1.4109  3.5620
   80SOL     OW  238   2.058   1.024   1.374  0.2783 -0.3332 -0.6952
   80SOL    HW1  239   2.041   1.065   1.467 -0.1923  0.7829  2.7298
   80SOL    HW2  240   2.143   1.069   1.342  3.3423 -0.2587  1.1907
   81SOL     OW  241   2.123   0.892   2.891  0.2004 -0.6333 -0.3910
   81SOL    HW1  242   2.055   0.963   2.927 -6.2420  2.3358  0.8627
   81SOL    HW2  243   2.153   0.828   2.969 -0.0999 -0.3177  3.8846
   82SOL     OW  244   2.401   1.863   1.431 -0.1393 -0.2080  0.0517
   82SOL    HW1  245   2.497   1.840   1.437 -1.1458 -0.0951  0.6142
   82SOL    HW2  246   2.357   1.858   1.522 -0.2431 -0.8320 -0.6432
   83SOL     OW  247   2.158   2.670   0.115  0.9340 -0.3179 -0.0900
   83SOL    HW1  248   2.115   2.681   0.210 -1.5262  2.0322  0.3778
   83SOL    HW2  249   2.171   2.570   0.089 -0.3738 -0.6921 -2.1097
   84SOL     OW  250   0.710   0.889   0.728  0.4519  0.4632  0.6363
   84SOL    HW1  251   0.732   0.937   0.815 -0.5518 -2.3957 -2.1874
   84SOL    HW2  252   0.701   0.786   0.743 -0.7712 -1.7487  1.0022
   85SOL     OW  253   2.132   1.683   1.256 -0.1758  0.1771 -0.4492
   85SOL    HW1  254   2.082   1.660   1.173 -0.7297  0.0750  3.2234
   85SOL    HW2  255   2.141   1.781   1.276  0.8902  0.5683 -1.5453
   86SOL     OW  256   0.732   0.752   1.080 -0.1944 -0.3669 -0.2975
   86SOL    HW1  257   0.661   0.823   1.062  0.4320  2.3975 -3.3402
   86SOL    HW2  258   0.808   0.799   1.134  1.1843  1.3438  2.1479
   87SOL     OW  259   3.075   2.395   2.331  0.1247  0.1014  0.2228
   87SOL    HW1  260   0.030   2.426   2.258 -0.3286 -0.9379 -0.5086
   87SOL    HW2  261   0.017   2.351   2.407  0.4444  1.4275  1.0389
   88SOL     OW  262   0.310   3.058   0.134  0.2024  0.1628 -0.2297
   88SOL    HW1  263   0.402   3.025   0.107  1.6087  2.8776  0.5367
   88SOL    HW2  264   0.323   0.041   0.184 -1.2605 -0.0652  2.2220
   89SOL     OW  265   1.389   0.353   1.328  0.1628 -0.2216 -0.3555
   89SOL    HW1  266   1.414   0.442   1.282  0.0128 -0.0820 -1.1320
   89SOL    HW2  267   1.416   0.357   1.428 -0.9467 -0.2853  2.3914
   90SOL     OW  268   2.993   1.240   1.983 -0.2467  0.1423 -0.3689
   90SOL    HW1  269   3.012   1.340   1.993 -3.2643  3.1378 -0.2232
   90SOL    HW2  270   3.082   1.188   1.970  0.1267 -2.0366 -1.4989
   91SOL     OW  271   2.034   2.714   0.790 -0.3566 -0.1232 -0.0977
   91SOL    HW1  272   2.070   2.647   0.719 -1.4579  0.3033 -1.4478
   91SOL    HW2  273   1.985   2.675   0.870  3.8812  0.8834  0.4637
   92SOL     OW  274   1.764   1.866   0.831  0.2530  0.1156  0.5994
   92SOL    HW1  275   1.859   1.841   0.853  0.3143 -1.0567  1.3420
   92SOL    HW2  276   1.761   1.871   0.729 -1.5976  2.5275 -0.4027
   93SOL     OW  277   0.255   1.334   0.295  0.1370  0.2156 -0.1258
   93SOL    HW1  278   0.262   1.234   0.294 -1.5804 -0.8828 -2.4673
   93SOL    HW2  279   0.331   1.375   0.243 -0.7384 -1.7097  1.6080
   94SOL     OW  280   0.729   2.373   0.979  0.3807 -0.6691 -0.2049
   94SOL    HW1  281   0.759   2.302   0.918  1.7221 -1.3163  1.4493
   94SOL    HW2  282   0.676   2.347   1.061  1.1180 -3.0532 -0.0102
   95SOL     OW  283   0.350   0.760   0.342  0.3034 -0.4254 -0.3349
   95SOL    HW1  284   0.348   0.817   0.427  1.5686  0.2930 -0.8782
   95SOL    HW2  285   0.447   0.736   0.319  4.3201 -1.1023  1.3159
   96SOL     OW  286   0.745   2.318   2.015 -0.2485 -0.0800  0.4133
   96SOL    HW1  287   0.771   2.243   2.076 -1.5309  0.4613 -1.2921
   96SOL    HW2  288   0.737   2.286   1.919 -0.3203  0.6653 -0.0346
   97SOL     OW  289   2.264   0.938   0.419 -0.6278 -0.4592  0.7606
   97SOL    HW1  290   2.238   0.952   0.516  0.1766 -1.0788  1.5055
   97SOL    HW2  291   2.285   1.025   0.365 -0.8511 -0.4709 -2.6219
   98SOL     OW  292   0.205   1.969   1.824  0.0891  0.3726 -0.1931
   98SOL    HW1  293   0.141   1.890   1.797 -0.7676 -1.4874 -0.8340
   98SOL    HW2  294   0.141   2.047   1.852 -4.5816 -0.7159 -1.2155
   99SOL     OW  295   0.063   0.391   1.705 -0.6144 -0.2264 -0.0273
   99SOL    HW1  296   3.102   0.403   1.780 -1.2995 -0.5886  1.0988
   99SOL    HW2  297   0.108   0.299   1.715 -0.3581  0.7175  0.1111
  100SOL     OW  298   2.079   0.606   2.391  0.2345 -0.2136  0.0418
  100SOL    HW1  299   2.173   0.560   2.396  1.1189  0.3675  0.8766
  100SOL    HW2  300   2.061   0.675   2.467  0.6009  1.2102 -1.1544
  101SOL     OW  301   1.206   2.963   1.844 -0.0958 -0.2930  0.5976
  101SOL    HW1  302   1.141   2.885   1.850 -0.5680  1.8845 -1.0869
  101SOL    HW2  303   1.176   3.040   1.903 -2.6606  0.7212 -1.8762
  102SOL     OW  304   0.563   0.589   1.674  0.3958  0.6846  0.2285
  102SOL    HW1  305   0.503   0.620   1.596  1.5051 -1.1441 -0.7433
  102SOL    HW2  306   0.530   0.621   1.760  1.0991  1.7135 -2.6540
  103SOL     OW  307   0.314   0.761   2.872 -0.5903  0.2191  0.4612
  103SOL    HW1  308   0.282   0.757   2.967 -1.3710  0.6630  1.0072
  103SOL    HW2  309   0.385   0.835   2.862  1.2301  0.8702  2.0211
  104SOL     OW  310   0.378   2.877   2.063  0.7818 -0.1801  0.7150
  104SOL    HW1  311   0.308   2.818   2.018  0.7068 -0.0154 -0.0731
  104SOL    HW2  312   0.359   2.969   2.029 -0.5768  0.5524  0.1338
  105SOL     OW  313   2.541   2.790   2.108  0.5902  0.1561  0.2994
  105SOL    HW1  314   2.569   2.865   2.042  2.0180 -1.6396  1.0740
  105SOL    HW2  315   2.545   2.824   2.204  0.6359  0.1442  0.6077
  106SOL     OW  316   0.613   3.091   0.912 -0.8002  0.0786 -0.0305
  106SOL    HW1  317   0.678   0.051   0.871 -1.0453 -2.3496 -1.5855
  106SOL    HW2  318   0.664   3.002   0.923  0.2603 -2.3044 -1.4485
  107SOL     OW  319   3.048   1.881   1.082  0.0658 -0.5480  0.2002
  107SOL    HW1  320   3.062   1.965   1.136  0.6139  0.7236 -0.7746
  107SOL    HW2  321   0.025   1.864   1.030 -1.7992  0.3919 -1.1066
  108SOL     OW  322   0.352   2.177   0.838 -0.2261 -0.1020  0.1703
  108SOL    HW1  323   0.366   2.275   0.839 -1.2003 -0.4260  1.2849
  108SOL    HW2  324   0.378   2.135   0.746 -0.9639 -0.3639 -0.7226
  109SOL     OW  325   1.553   2.852   0.691  0.0586  0.2512 -0.4167
  109SOL    HW1  326   1.477   2.860   0.756 -0.7640  1.0382  0.0812
  109SOL    HW2  327   1.641   2.884   0.729 -0.1823 -0.5014  0.2205
  110SOL     OW  328   1.464   2.051   0.346 -0.4230  0.0837 -0.0467
  110SOL    HW1  329   1.495   1.987   0.416  1.2830  0.3251 -2.4318
  110SOL    HW2  330   1.497   2.142   0.361 -1.3622 -2.5623 -0.9589
  111SOL     OW  331   1.675   2.740   2.253 -0.2508 -0.0199 -0.5825
  111SOL    HW1  332   1.581   2.711   2.229 -2.2059  0.2443 -1.1057
  111SOL    HW2  333   1.677   2.834   2.300 -2.1777  2.4568  3.1840
  112SOL     OW  334   1.826   2.410   2.824  0.1147 -0.7683  0.5921
  112SOL    HW1  335   1.855   2.480   2.890  2.9230  0.3314  1.4286
  112SOL    HW2  336   1.781   2.450   2.740 -3.0986  1.5114 -2.0609
  113SOL     OW  337   2.401   2.167   2.023  0.1600 -0.2217  0.3963
  113SOL    HW1  338   2.412   2.189   2.119  0.9223  0.7671 -0.1795
  113SOL    HW2  339   2.418   2.253   1.967  1.3050 -1.3554  0.2545
  114SOL     OW  340   0.179   1.213   1.699 -0.0294  0.4242  0.2982
  114SOL    HW1  341   0.260   1.273   1.691 -0.5948  0.8666 -1.1380
  114SOL    HW2  342   0.098   1.260   1.667  1.5024  0.7613 -0.2480
  115SOL     OW  343   2.746   0.644   2.909  0.5676  0.2220 -0.2750
  115SOL    HW1  344   2.796   0.689   2.833  0.7206 -1.0786  1.8184
  115SOL    HW2  345   2.785   0.671   3.001  0.0510 -0.5014  1.9705
  116SOL     OW  346   2.827   0.236   0.007  0.5144  0.2931 -0.5270
  116SOL    HW1  347   2.861   0.313   3.060 -3.3597 -1.5637  1.9318
  116SOL    HW2  348   2.896   0.163   0.030 -0.9263  0.1987  0.1804
  117SOL     OW  349   2.686   2.748   0.899 -0.1093 -0.1456  0.8645
  117SOL    HW1  350   2.687   2.680   0.825 -0.3008  2.8191  0.6952
  117SOL    HW2  351   2.676   2.705   0.989  0.9221 -1.2758  0.0275
  118SOL     OW  352   1.124   2.095   2.006  0.4566  0.3473  0.1680
  118SOL    HW1  353   1.123   2.061   1.910  1.0438 -3.1973 -1.0427
  118SOL    HW2  354   1.091   2.025   2.075  0.5394  1.2009  2.5035
  119SOL     OW  355   0.713   2.658   0.068  0.0016 -0.4155  0.9139
  119SOL    HW1  356   0.618   2.627   0.051  0.2351 -1.3510 -1.0128
  119SOL    HW2  357   0.708   2.692   0.161 -0.8669 -1.6468 -2.6771
  120SOL     OW  358   1.237   0.930   0.339  0.2092  0.1228 -0.0151
  120SOL    HW1  359   1.273   0.837   0.329  1.7793  1.0381 -0.1677
  120SOL    HW2  360   1.160   0.951   0.277 -0.8305 -2.5395 -1.8188
  121SOL     OW  361   1.743   0.929   0.929  0.2828 -0.1443 -0.1925
  121SOL    HW1  362   1.700   0.969   1.003  0.4872 -2.9651 -0.6754
  121SOL    HW2  363   1.683   0.862   0.882  1.8925 -0.6211  1.9124
  122SOL     OW  364   2.103   1.575   2.180  0.3523 -0.5965  0.0797
  122SOL    HW1  365   2.054   1.623   2.259  1.1543  1.9728  0.2008
  122SOL    HW2  366   2.148   1.486   2.209  1.3147 -3.1407  2.8534
  123SOL     OW  367   0.306   0.952   0.551 -0.3776  0.6924  0.5489
  123SOL    HW1  368   0.273   1.031   0.497 -2.8845  1.4983  0.1149
  123SOL    HW2  369   0.229   0.920   0.609  0.3769 -0.5155 -2.0141
  124SOL     OW  370   0.712   0.205   2.758 -0.1231  0.5615 -0.2502
  124SOL    HW1  371   0.699   0.305   2.736  0.2461  2.1643 -0.5204
  124SOL    HW2  372   0.810   0.180   2.768  0.0916 -1.8928 -3.5463
  125SOL     OW  373   0.730   2.900   3.023 -0.7107  0.4718  0.0023
  125SOL    HW1  374   0.763   2.809   3.058  1.8702 -1.0567  0.9160
  125SOL    HW2  375   0.683   2.891   2.934 -2.5047 -0.9987  0.8960
  126SOL     OW  376   0.547   1.482   2.866 -0.0489  0.1150  0.1536
  126SOL    HW1  377   0.588   1.411   2.799  1.1453 -1.2538  1.1133
  126SOL    HW2  378   0.621   1.515   2.926  0.4042  1.7645  0.1669
  127SOL     OW  379   1.041   2.747   0.823  0.2007  0.6170 -0.1875
  127SOL    HW1  380   0.956   2.791   0.791  2.2710  1.5413 -2.3049
  127SOL    HW2  381   1.105   2.813   0.874 -1.2605 -0.8973  0.2779
  128SOL     OW  382   1.799   2.012   0.104  0.1385  0.0032 -0.0804
  128SOL    HW1  383   1.723   1.947   0.113  0.2457  0.8808  2.1219
  128SOL    HW2  384   1.825   2.016   0.003  0.1826  0.2495  0.6772
  129SOL     OW  385   1.914   1.746   1.480  0.0189  0.0016 -0.0423
  129SOL    HW1  386   2.004   1.760   1.434  3.2871 -1.3618  0.4831
  129SOL    HW2  387   1.852   1.694   1.416  0.0077 -1.6856 -1.6571
  130SOL     OW  388   2.002   1.668   1.767  0.6174 -0.0802 -0.0864
  130SOL    HW1  389   1.925   1.735   1.763 -1.8660 -0.0896 -0.0340
  130SOL    HW2  390   2.079   1.719   1.808 -0.5752  0.4821  1.9174
  131SOL     OW  391   0.939   2.730   2.039 -0.7317 -0.5555 -0.0648
  131SOL    HW1  392   0.987   2.719   1.950  3.3246 -0.6910 -2.5869
  131SOL    HW2  393   0.880   2.657   2.064 -0.2046  5.9484 -0.0792
  132SOL     OW  394   2.640   1.460   0.873 -0.7855 -0.1896 -0.8960
  132SOL    HW1  395   2.718   1.528   0.874  0.0018  0.5678 -1.0095
  132SOL    HW2  396   2.644   1.391   0.799  0.0430 -1.3959 -2.3008
  133SOL     OW  397   0.678   1.800   1.723 -0.0356 -0.4062 -0.1560
  133SOL    HW1  398   0.646   1.815   1.820  1.1881  2.0650  0.8010
  133SOL    HW2  399   0.596   1.776   1.668  1.3356 -0.5461  3.5312
  134SOL     OW  400   0.102   1.324   0.902  0.2262 -0.5334 -0.0413
  134SOL    HW1  401   0.008   1.304   0.866 -1.3882 -0.8188 -1.8427
  134SOL    HW2  402   0.152   1.382   0.838  1.7848  0.2346  2.8272
  135SOL     OW  403   2.117   1.754   2.991 -0.0874  0.0266 -0.1060
  135SOL    HW1  404   2.179   1.699   3.047 -0.0088 -1.1721  1.8985
  135SOL    HW2  405   2.039   1.698   2.956  2.3918  0.3816 -1.4228
  136SOL     OW  406   3.084   1.745   1.484 -0.0848  0.1387 -0.0571
  136SOL    HW1  407   0.048   1.744   1.410  0.0835  0.3130 -1.9624
  136SOL    HW2  408   3.017   1.818   1.456 -0.6747  2.2583 -1.4533
  137SOL     OW  409   2.842   1.262   2.902 -0.0608  0.2134 -0.2176
  137SOL    HW1  410   2.821   1.165   2.930 -1.3880  0.5900 -0.4370
  137SOL    HW2  411   2.763   1.307   2.862  1.5655 -4.0156 -2.1430
  138SOL     OW  412   2.796   0.389   0.844  0.0411 -0.3061 -0.4965
  138SOL    HW1  413   2.748   0.370   0.935  0.0447 -2.0245  2.2459
  138SOL    HW2  414   2.735   0.445   0.784 -1.9311 -3.3858  0.8258
  139SOL     OW  415   1.954   2.164   2.777  0.2711  0.6552  0.0312
  139SOL    HW1  416   1.902   2.246   2.797  1.2364 -2.1624  1.1208
  139SOL    HW2  417   2.051   2.195   2.763 -1.2381  0.2260 -0.3584
  140SOL     OW  418   0.923   1.577   0.766 -0.5917 -0.3294  0.2169
  140SOL    HW1  419   0.879   1.655   0.725  4.2985 -2.3303  0.0901
  140SOL    HW2  420   0.878   1.492   0.734 -1.1021  0.2360 -0.4425
  141SOL     OW  421   1.249   1.452   1.023 -0.0608 -0.1466  0.4882
  141SOL    HW1  422   1.235   1.530   0.959  0.5440 -1.9285 -2.4773
  141SOL    HW2  423   1.332   1.469   1.074 -1.4061 -1.0562 -1.9677
  142SOL     OW  424   1.423   0.816   1.209 -0.3372  0.3974 -0.1354
  142SOL    HW1  425   1.336   0.827   1.156  2.9472  0.5175  1.1805
  142SOL    HW2  426   1.451   0.718   1.200 -1.8467  1.0605 -2.7823
  143SOL     OW  427   0.323   0.256   2.976  0.5147  0.1603  0.2784
  143SOL    HW1  428   0.329   0.305   2.888 -1.2153 -1.3289 -1.4437
  143SOL    HW2  429   0.245   0.292   3.031 -2.0718  2.3719 -0.9433
  144SOL     OW  430   2.335   0.361   0.297 -0.2280 -0.1535  0.0400
  144SOL    HW1  431   2.425   0.323   0.328  0.1078  1.0980 -0.2685
  144SOL    HW2  432   2.270   0.281   0.297 -2.2091 -0.1926  2.5369
  145SOL     OW  433   2.289   2.894   2.831 -0.6788  0.0889  0.3877
  145SOL    HW1  434   2.242   2.851   2.757  1.5393 -0.8907  0.2949
  145SOL    HW2  435   2.280   2.993   2.816 -2.1753 -0.6609 -1.9891
  146SOL     OW  436   3.048   2.685   0.445  0.0166 -0.5571 -0.0257
  146SOL    HW1  437   0.001   2.735   0.382  3.4382 -1.2735  0.0817
  146SOL    HW2  438   3.096   2.605   0.484 -0.9318  0.7227 -0.8570
  147SOL     OW  439   1.405   1.003   0.077  0.1153  0.1632  0.0638
  147SOL    HW1  440   1.314   1.048   0.095 -1.2969  1.0704 -0.0738
  147SOL    HW2  441   1.412   0.903   0.099  0.4623  4.1383  0.8283
  148SOL     OW  442   1.118   0.066   0.219  0.1006  0.0609 -0.0530
  148SOL    HW1  443   1.094   0.086   0.319  2.3052 -0.1037  0.1600
  148SOL    HW2  444   1.206   0.023   0.222 -2.5111 -1.6717 -0.1296
  149SOL     OW  445   1.330   0.556   2.606 -0.4431  0.3022  0.1373
  149SOL    HW1  446   1.236   0.593   2.605 -1.4207  0.8884 -0.8069
  149SOL    HW2  447   1.332   0.470   2.668  0.8195 -3.1916  3.7184
  150SOL     OW  448   1.497   2.909   2.908  0.1051 -0.0460 -0.4003
  150SOL    HW1  449   1.561   2.940   2.979 -0.2492 -0.1359 -0.6933
  150SOL    HW2  450   1.490   2.807   2.905 -1.4626 -0.8501  0.2333
  151SOL     OW  451   3.088   1.255   0.138  0.1838 -0.1098 -0.1740
  151SOL    HW1  452   0.034   1.212   0.058 -1.0524  1.6707  1.2202
  151SOL    HW2  453   0.027   1.252   0.227 -2.8665  1.5603  0.1206
  152SOL     OW  454   0.696   0.000   1.566  0.2599  0.4848  0.0507
  152SOL    HW1  455   0.644   0.069   1.615  0.5137 -1.9058 -0.6605
  152SOL    HW2  456   0.773   0.038   1.506  0.4177  2.2682 -1.2167
  153SOL     OW  457   2.500   0.016   1.764  0.1100  0.5839 -0.4400
  153SOL    HW1  458   2.463   0.111   1.759 -0.7681 -1.4594  3.7557
  153SOL    HW2  459   2.445   3.064   1.703 -1.2833  1.0198 -0.0915
  154SOL     OW  460   2.175   0.233   1.922 -0.0848  1.0372 -0.0765
  154SOL    HW1  461   2.095   0.229   1.859 -3.5664  1.2867 -1.1142
  154SOL    HW2  462   2.153   0.266   2.011  4.7289 -3.1049 -1.7082
  155SOL     OW  463   0.120   1.096   0.371 -0.2346 -0.0109 -0.2319
  155SOL    HW1  464   0.141   0.999   0.344  0.5693  0.6240 -0.1720
  155SOL    HW2  465   0.032   1.095   0.413  0.5274  1.0222  1.7472
  156SOL     OW  466   1.644   1.028   0.211  0.7255 -0.1676  0.5800
  156SOL    HW1  467   1.712   0.959   0.183  0.8503  3.4688  1.2151
  156SOL    HW2  468   1.559   1.015   0.157  1.5159 -0.4643  0.4348
  157SOL     OW  469   0.996   2.351   2.987  0.1045 -0.1379 -0.2000
  157SOL    HW1  470   1.097   2.322   2.983 -0.4601 -0.3376  1.2626
  157SOL    HW2  471   0.930   2.274   2.970  2.9813 -1.1312  0.1093
  158SOL     OW  472   1.660   0.897   1.566  0.2543  0.2332  0.2293
  158SOL    HW1  473   1.712   0.856   1.643  0.9234  0.2501 -0.1936
  158SOL    HW2  474   1.676   0.998   1.562 -0.7203 -1.2235 -0.5719
  159SOL     OW  475   0.227   0.194   0.815 -0.2566 -0.1703  0.0100
  159SOL    HW1  476   0.302   0.133   0.778  0.5542  0.0052  1.1926
  159SOL    HW2  477   0.159   0.202   0.746  1.9595 -0.3063 -0.4842
  160SOL     OW  478   2.658   1.756   1.757 -0.0108 -0.3220 -0.2167
  160SOL    HW1  479   2.657   1.655   1.783  0.2650  0.3983 -0.0879
  160SOL    HW2  480   2.721   1.768   1.680  3.1730  0.4640  0.1679
  161SOL     OW  481   3.039   3.060   0.359  0.1683  0.1369  0.4312
  161SOL    HW1  482   2.959   3.002   0.336  2.5616  0.2042  0.6459
  161SOL    HW2  483   0.008   3.028   0.301  1.2070  1.3739  1.1086
  162SOL     OW  484   0.275   0.547   2.307 -0.5118 -0.5339  0.1796
  162SOL    HW1  485   0.214   0.522   2.386 -4.6702  0.4553  1.2270
  162SOL    HW2  486   0.356   0.490   2.304 -1.0159  4.0702  1.5418
  163SOL     OW  487   3.106   2.967   2.462 -0.3091  0.5586  0.0848
  163SOL    HW1  488   3.067   3.042   2.509  4.0168 -2.4442 -2.0598
  163SOL    HW2  489   3.030   2.906   2.432  0.2804 -0.3941 -1.7690
  164SOL     OW  490   2.310   1.692   0.185 -0.3010 -0.0573 -0.1783
  164SOL    HW1  491   2.299   1.791   0.191 -1.2672 -3.7334 -0.5604
  164SOL    HW2  492   2.367   1.660   0.106 -0.9157 -1.1092 -0.4097
  165SOL     OW  493   0.796   0.171   1.224 -0.3695  0.4049  0.3769
  165SOL    HW1  494   0.804   0.270   1.238  1.8517  2.5128  0.6733
  165SOL    HW2  495   0.831   0.112   1.305  0.0645 -1.1436  0.0601
  166SOL     OW  496   2.974   0.174   0.500 -0.0659  0.1792 -0.5659
  166SOL    HW1  497   3.000   0.081   0.475 -0.7775 -1.2258  2.6537
  166SOL    HW2  498   2.973   0.184   0.604 -0.0287 -0.1315  2.3068
  167SOL     OW  499   2.236   0.656   0.801 -0.2987  0.2276  0.0925
  167SOL    HW1  500   2.195   0.715   0.869 -0.5121 -1.9483  0.1013
  167SOL    HW2  501   2.161   0.600   0.766  1.2455  0.0469  0.5547
  168SOL     OW  502   1.044   0.378   2.519 -0.1513  0.0392 -0.4148
  168SOL    HW1  503   1.094   0.296   2.487 -2.1450 -0.1717 -1.2016
  168SOL    HW2  504   1.057   0.398   2.617  1.8308 -0.1547 -1.6074
  169SOL     OW  505   1.158   1.915   1.212  0.1738 -0.5010  0.1995
  169SOL    HW1  506   1.202   1.978   1.146  1.3318  0.7791  0.1582
  169SOL    HW2  507   1.058   1.903   1.192  1.7079  0.8823  1.0231
  170SOL     OW  508   3.022   0.018   1.650  0.4667 -1.2512  0.2646
  170SOL    HW1  509   3.058   0.043   1.558  0.9311 -0.8631 -0.2575
  170SOL    HW2  510   2.921   0.034   1.657  2.2329  2.0361  0.3043
  171SOL     OW  511   2.842   0.649   2.222 -0.1766  0.1530 -0.4663
  171SOL    HW1  512   2.782   0.615   2.150  1.3914  0.2214  1.0006
  171SOL    HW2  513   2.791   0.724   2.270 -2.0250  0.0824  2.0891
  172SOL     OW  514   1.386   2.334   1.162  0.0231  0.7297  0.0417
  172SOL    HW1  515   1.322   2.306   1.086 -0.5889 -1.2221  0.3049
  172SOL    HW2  516   1.474   2.370   1.119 -0.6981 -1.9858  1.2364
  173SOL     OW  517   2.510   2.380   0.023  0.1712 -0.3287 -0.9776
  173SOL    HW1  518   2.539   2.335   3.047  0.2164  2.0840  2.3246
  173SOL    HW2  519   2.467   2.472   0.002  0.1778 -0.6338 -2.3713
  174SOL     OW  520   1.842   0.839   0.392 -0.4533  0.2813  0.1122
  174SOL    HW1  521   1.840   0.928   0.448 -1.6323  1.7784  2.3822
  174SOL    HW2  522   1.848   0.848   0.289  0.2178  0.0045  0.1792
  175SOL     OW  523   0.855   1.710   1.359 -0.2434 -0.1443 -0.3878
  175SOL    HW1  524   0.819   1.648   1.433 -1.1430 -2.7571  3.0161
  175SOL    HW2  525   0.949   1.746   1.378  0.1189 -0.1797  0.3434
  176SOL     OW  526   0.411   3.107   0.709 -0.9656 -0.1807 -0.0280
  176SOL    HW1  527   0.473   3.096   0.786 -1.1119  0.4128  0.1394
  176SOL    HW2  528   0.338   3.037   0.706  2.1633 -0.1969  0.9585
  177SOL     OW  529   2.541   1.311   0.282  0.0216 -0.1129 -0.3454
  177SOL    HW1  530   2.613   1.289   0.353  0.2317 -1.4161 -0.1978
  177SOL    HW2  531   2.496   1.400   0.313  2.8997  0.1510  0.4043
  178SOL     OW  532   2.740   2.585   2.115  0.7850  0.6743 -0.4761
  178SOL    HW1  533   2.693   2.678   2.118  3.7369 -1.5078 -1.7399
  178SOL    HW2  534   2.780   2.577   2.207 -1.0245  1.3765  0.4983
  179SOL     OW  535   2.363   2.932   0.295  0.2205  0.3918  0.0367
  179SOL    HW1  536   2.416   2.982   0.365  1.1587  0.7378  0.8641
  179SOL    HW2  537   2.348   2.989   0.210  0.5048 -2.6451  0.7659
  180SOL     OW  538   2.271   0.592   0.518 -0.0371 -0.0168  0.0554
  180SOL    HW1  539   2.311   0.646   0.596  0.6154  1.3229  0.9372
  180SOL    HW2  540   2.192   0.634   0.466  2.2071 -2.0391 -0.4025
  181SOL     OW  541   2.941   0.187   2.807 -0.0759 -0.6662 -0.0781
  181SOL    HW1  542   2.985   0.109   2.858 -0.6553 -2.4028  1.1804
  181SOL    HW2  543   2.846   0.165   2.773  1.0454  2.0394  2.7414
  182SOL     OW  544   2.690   1.979   2.536  0.2938  0.7396  0.7854
  182SOL    HW1  545   2.605   1.920   2.532  1.3184  0.4303  0.2960
  182SOL    HW2  546   2.679   2.061   2.476  1.0705 -0.2839 -0.4931
  183SOL     OW  547   0.167   0.951   1.542 -0.6529 -0.3880 -0.3669
  183SOL    HW1  548   0.167   0.960   1.435 -1.4071 -0.8238 -2.9238
  183SOL    HW2  549   0.164   1.043   1.591  0.9573  3.2119 -1.5410
  184SOL     OW  550   0.208   1.406   1.319 -0.1417  0.5347 -0.6968
  184SOL    HW1  551   0.133   1.432   1.252  0.6197 -2.0949  0.4961
  184SOL    HW2  552   0.259   1.331   1.278 -2.1943 -0.7349  0.0735
  185SOL     OW  553   3.034   2.977   1.239  0.4419 -0.1893  0.5939
  185SOL    HW1  554   3.060   2.975   1.140  2.3467  2.7845 -1.6949
  185SOL    HW2  555   3.080   3.063   1.282  0.0897  2.2066  0.8643
  186SOL     OW  556   2.132   2.769   2.608 -0.3144 -0.0996 -0.2235
  186SOL    HW1  557   2.149   2.672   2.592 -0.9417 -0.3801 -0.4027
  186SOL    HW2  558   2.034   2.794   2.630 -0.5889 -0.3319  3.0418
  187SOL     OW  559   0.232   1.271   0.575 -0.3012  0.6021 -0.0511
  187SOL    HW1  560   0.248   1.310   0.488  0.5415 -2.5246  3.0082
  187SOL    HW2  561   0.303   1.309   0.637 -0.0438 -0.1956 -2.5945
  188SOL     OW  562   1.825   1.577   0.151  0.0820 -0.0086 -0.1933
  188SOL    HW1  563   1.784   1.559   0.059  1.6835  1.0247  2.2913
  188SOL    HW2  564   1.925   1.561   0.144  1.2234  1.1785  0.1226
  189SOL     OW  565   3.068   1.688   2.942 -0.1349 -0.5611  0.3349
  189SOL    HW1  566   3.069   1.668   3.041 -1.3192  1.9521 -0.9222
  189SOL    HW2  567   3.094   1.784   2.922 -0.4466 -1.1429 -1.7232
  190SOL     OW  568   2.420   0.795   2.185  0.2713 -0.2344  0.0171
  190SOL    HW1  569   2.423   0.888   2.148  1.6418 -0.8658  1.1200
  190SOL    HW2  570   2.421   0.795   2.283  0.6165  0.4214  0.6158
  191SOL     OW  571   0.817   1.210   2.012  0.0912  0.1157 -0.3356
  191SOL    HW1  572   0.721   1.204   1.979  1.4575 -1.8665  3.0221
  191SOL    HW2  573   0.831   1.167   2.104  1.3140 -2.6614  0.5363
  192SOL     OW  574   1.963   1.409   2.008 -0.5585 -0.2032 -0.7069
  192SOL    HW1  575   1.966   1.453   2.099  1.1027  0.5954  0.1321
  192SOL    HW2  576   2.053   1.419   1.960 -0.9846 -2.0900 -0.5044
  193SOL     OW  577   0.821   0.150   0.788 -0.1856 -0.6809 -0.1476
  193SOL    HW1  578   0.751   0.174   0.721  0.7848  1.4466  0.9210
  193SOL    HW2  579   0.889   0.084   0.756  0.1439  0.6774 -0.2548
  194SOL     OW  580   1.486   1.475   1.599  0.5466 -0.6911 -0.0711
  194SOL    HW1  581   1.586   1.479   1.583 -1.6024 -1.6460 -1.3869
  194SOL    HW2  582   1.468   1.511   1.695 -0.0981  0.6557  0.5504
  195SOL     OW  583   1.930   0.328   0.896 -0.1262 -0.9231  0.2243
  195SOL    HW1  584   2.016   0.267   0.897  1.2669 -1.2323 -2.5716
  195SOL    HW2  585   1.948   0.408   0.831  1.8465  2.3483  0.8010
  196SOL     OW  586   1.177   1.471   1.826  0.1721  0.2944 -0.3735
  196SOL    HW1  587   1.267   1.501   1.854  2.0666  1.1665  1.2151
  196SOL    HW2  588   1.167   1.472   1.729  4.9206 -0.5815  1.4724
  197SOL     OW  589   0.485   0.191   2.584  0.0862  0.0024 -0.0787
  197SOL    HW1  590   0.460   0.253   2.504 -3.0660  1.1359 -0.2775
  197SOL    HW2  591   0.563   0.225   2.644 -3.6921  0.0041 -0.0525
  198SOL     OW  592   0.085   0.876   0.733  0.3169 -0.2428  0.3141
  198SOL    HW1  593   0.121   0.780   0.750 -0.6859 -0.6066  0.4992
  198SOL    HW2  594   3.092   0.870   0.735  2.0092  1.3876 -0.9906
  199SOL     OW  595   0.494   2.065   1.047 -0.2797 -0.0388  0.5150
  199SOL    HW1  596   0.582   2.035   1.016 -3.5851  0.0399 -1.2711
  199SOL    HW2  597   0.442   2.111   0.972  2.8027  0.8623 -0.8927
  200SOL     OW  598   2.494   1.859   2.908  0.0960 -0.1630 -0.8042
  200SOL    HW1  599   2.584   1.848   2.868 -0.4148  1.4592  0.1204
  200SOL    HW2  600   2.429   1.797   2.858 -0.8018 -1.2555  2.4540
  201SOL     OW  601   0.809   2.498   1.264  0.1692  0.1685  0.1175
  201SOL    HW1  602   0.860   2.513   1.178 -0.3574  1.1643  1.2252
  201SOL    HW2  603   0.732   2.431   1.254  1.4932 -0.8358  0.4426
  202SOL     OW  604   1.108   2.544   0.071  0.1102  0.1946 -0.0129
  202SOL    HW1  605   1.035   2.492   0.022  2.8191 -0.6208  1.7747
  202SOL    HW2  606   1.190   2.515   0.028 -2.4430 -0.2713 -1.8895
  203SOL     OW  607   1.605   3.054   0.002  0.3617 -0.5128  0.6714
  203SOL    HW1  608   1.688   3.090   0.051 -1.2987  0.5124  1.2574
  203SOL    HW2  609   1.542   0.022   3.084  1.4739  1.0589  1.6193
  204SOL     OW  610   0.437   1.670   1.394  0.0380  0.1381  0.2973
  204SOL    HW1  611   0.514   1.647   1.335  0.5565 -0.9237  2.1371
  204SOL    HW2  612   0.398   1.583   1.430  0.3337  2.3226 -2.2734
  205SOL     OW  613   1.925   1.233   2.445  0.1615  0.3670  0.2423
  205SOL    HW1  614   2.018   1.198   2.466 -1.2534  1.1875 -1.0903
  205SOL    HW2  615   1.853   1.164   2.432  1.1154  1.8324 -0.0549
  206SOL     OW  616   0.134   2.086   0.008  0.0017 -0.4132 -0.2064
  206SOL    HW1  617   0.067   2.103   3.041 -0.2135  0.3912 -0.8035
  206SOL    HW2  618   0.090   2.040   0.089 -0.4414  0.8147  1.8248
  207SOL     OW  619   0.358   2.152   2.162 -0.5713 -0.0243 -0.5600
  207SOL    HW1  620   0.438   2.134   2.104  1.3323  0.0888 -2.2621
  207SOL    HW2  621   0.274   2.171   2.104 -4.5465 -3.3725 -0.7565
  208SOL     OW  622   0.226   2.625   1.276  0.5709 -0.3901 -0.1218
  208SOL    HW1  623   0.228   2.606   1.376 -1.0191 -0.0680  1.6741
  208SOL    HW2  624   0.319   2.645   1.238  0.6427 -0.7877  0.7279
  209SOL     OW  625   0.992   2.914   2.213 -0.1881 -0.2863 -0.5394
  209SOL    HW1  626   0.973   2.837   2.145 -1.9827 -1.0568 -1.0227
  209SOL    HW2  627   0.903   2.935   2.265 -2.9203  1.3960 -0.0974
  210SOL     OW  628   2.574   1.237   1.827 -0.3607  0.3046 -0.0830
  210SOL    HW1  629   2.671   1.203   1.836 -1.8115 -3.3590  0.9550
  210SOL    HW2  630   2.520   1.157   1.805  0.3815  5.5592  2.4269
  211SOL     OW  631   1.129   0.029   2.080  0.2242 -0.4850  0.5401
  211SOL    HW1  632   1.105   3.067   2.152 -0.6984  2.4723 -1.7462
  211SOL    HW2  633   1.131   0.122   2.121  0.7805 -1.3636  0.5720
  212SOL     OW  634   1.815   2.707   2.027  0.5055 -0.0238  0.1417
  212SOL    HW1  635   1.752   2.711   2.109 -1.5951  1.9162  0.3859
  212SOL    HW2  636   1.884   2.635   2.044 -0.5866  1.8513 -0.9959
  213SOL     OW  637   2.765   0.477   1.685  0.0292 -0.8325 -0.5575
  213SOL    HW1  638   2.772   0.417   1.604  1.8531  0.6238  1.2351
  213SOL    HW2  639   2.705   0.560   1.670 -1.4743 -2.0729  1.7060
  214SOL     OW  640   0.872   2.189   0.814 -0.2362  0.0138 -0.7264
  214SOL    HW1  641   0.942   2.113   0.810  0.6415 -2.1848  0.2945
  214SOL    HW2  642   0.904   2.262   0.750  1.2048 -2.1118  2.1765
  215SOL     OW  643   2.625   1.854   0.692 -0.5695 -0.1260  0.1964
  215SOL    HW1  644   2.712   1.870   0.753  2.7145  0.7545 -0.8971
  215SOL    HW2  645   2.612   1.934   0.632  0.4323 -1.0739 -2.1152
  216SOL     OW  646   2.853   0.831   1.774 -0.1443 -0.6270 -0.1643
  216SOL    HW1  647   2.872   0.910   1.710  0.0017 -0.8478 -0.3642
  216SOL    HW2  648   2.941   0.793   1.806  1.0380  1.4144  0.5940
  217SOL     OW  649   2.293   0.293   1.476  0.3745 -0.5122  0.6788
  217SOL    HW1  650   2.344   0.225   1.423 -0.7701  0.8445  0.9176
  217SOL    HW2  651   2.289   0.383   1.423 -0.8595  0.9036  2.1929
  218SOL     OW  652   2.021   2.493   1.324  0.6293  0.4674  0.3344
  218SOL    HW1  653   1.962   2.564   1.279 -0.8460 -2.1748 -0.6910
  218SOL    HW2  654   2.073   2.536   1.400  0.6760 -1.2863 -0.8734
  219SOL     OW  655   2.316   2.276   0.164  0.5637  0.0222 -0.2849
  219SOL    HW1  656   2.238   2.338   0.145 -0.4083  0.7374  2.0062
  219SOL    HW2  657   2.401   2.303   0.111  0.7028  3.6961 -3.1029
  220SOL     OW  658   1.608   2.974   0.433 -0.8208 -0.4270  0.1181
  220SOL    HW1  659   1.537   2.940   0.500  1.8295 -0.7950 -0.3903
  220SOL    HW2  660   1.610   2.919   0.347 -0.3717 -1.1802 -0.7243
  221SOL     OW  661   3.080   2.203   1.560 -0.5112 -0.1123  0.4102
  221SOL    HW1  662   3.043   2.200   1.469 -0.7924  2.5334  1.1290
  221SOL    HW2  663   3.027   2.133   1.611  0.6966 -0.1567 -0.5899
  222SOL     OW  664   1.911   2.565   0.990 -0.2273 -0.0707  0.6112
  222SOL    HW1  665   1.895   2.617   1.075 -1.7302 -1.4169 -0.2438
  222SOL    HW2  666   1.881   2.466   1.009  0.2675  0.0318  2.0174
  223SOL     OW  667   1.217   2.814   1.368 -0.3629 -0.4236 -0.2880
  223SOL    HW1  668   1.252   2.901   1.335  0.8994  1.3105  1.3574
  223SOL    HW2  669   1.272   2.736   1.351 -1.6981  0.8551  0.0426
  224SOL     OW  670   2.794   2.480   1.380  0.1536 -0.4911  0.1143
  224SOL    HW1  671   2.801   2.568   1.335 -0.6824 -0.6626 -1.1441
  224SOL    HW2  672   2.830   2.484   1.478 -0.3093 -0.3347  2.4012
  225SOL     OW  673   2.416   2.209   0.849 -0.4339  0.1949  0.0196
  225SOL    HW1  674   2.317   2.199   0.872 -1.9568  0.2634  1.5823
  225SOL    HW2  675   2.428   2.226   0.749 -0.0308  0.8430  1.3954
  226SOL     OW  676   1.361   2.227   0.094  0.7601  0.2915  0.5408
  226SOL    HW1  677   1.433   2.210   0.159 -0.0831 -0.7221  1.0433
  226SOL    HW2  678   1.285   2.156   0.105 -1.1499 -1.3448 -0.9196
  227SOL     OW  679   2.092   1.270   0.656 -0.3691  0.5977 -0.3216
  227SOL    HW1  680   1.995   1.263   0.694 -0.5154 -0.8863  3.0926
  227SOL    HW2  681   2.126   1.179   0.633  2.3414  1.2535 -0.3706
  228SOL     OW  682   1.401   0.651   0.362 -0.1181 -0.6463  0.1821
  228SOL    HW1  683   1.390   0.557   0.397  0.0869 -0.3132  0.5200
  228SOL    HW2  684   1.485   0.686   0.404  1.9176 -0.2381 -0.0267
  229SOL     OW  685   2.641   1.072   2.248 -0.1494 -0.0069  0.0432
  229SOL    HW1  686   2.592   1.089   2.162  0.5825 -2.5458  0.2009
  229SOL    HW2  687   2.738   1.108   2.249  1.7964  2.9785  0.8650
  230SOL     OW  688   0.368   1.225   1.199  0.5685  0.1588 -0.1357
  230SOL    HW1  689   0.455   1.193   1.241  0.2926 -0.3412 -2.0712
  230SOL    HW2  690   0.384   1.240   1.099  0.5396  0.7277  1.7032
  231SOL     OW  691   2.400   0.431   2.671  0.7780  0.3446  0.0644
  231SOL    HW1  692   2.360   0.462   2.759  2.7190 -1.4577 -0.1167
  231SOL    HW2  693   2.499   0.413   2.690  0.5619  1.5573 -0.4174
  232SOL     OW  694   2.854   1.910   0.836  0.2008  0.2618 -0.3079
  232SOL    HW1  695   2.818   1.927   0.929  0.0296 -0.5898 -1.6068
  232SOL    HW2  696   2.953   1.931   0.827  0.5903 -0.0598  0.3681
  233SOL     OW  697   1.851   2.826   2.677  0.1259  0.6234  0.0175
  233SOL    HW1  698   1.820   2.805   2.773 -3.6637  0.1359  2.1191
  233SOL    HW2  699   1.820   2.916   2.648  1.1827 -1.2658  0.3837
  234SOL     OW  700   1.450   2.037   1.121  0.3802  0.3313  0.0671
  234SOL    HW1  701   1.484   2.002   1.209 -0.1212 -3.2239 -0.1023
  234SOL    HW2  702   1.402   2.125   1.139 -1.1147  0.8610 -0.0204
  235SOL     OW  703   0.970   1.881   1.677 -0.0691  0.4236  0.1687
  235SOL    HW1  704   0.877   1.846   1.701  0.6791  1.4569  0.5230
  235SOL    HW2  705   1.010   1.834   1.596 -3.0433  0.7030 -0.9024
  236SOL     OW  706   0.721   2.576   2.727 -0.1503 -0.1935 -0.3280
  236SOL    HW1  707   0.756   2.585   2.824 -3.1197  0.1188 -0.2333
  236SOL    HW2  708   0.621   2.583   2.723  1.0859 -2.9175  1.7906
  237SOL     OW  709   0.564   2.875   1.468  0.0566 -0.3568  0.3066
  237SOL    HW1  710   0.518   2.842   1.553  0.0241 -0.8569 -0.9071
  237SOL    HW2  711   0.599   2.972   1.484 -0.5856  0.6689 -1.1052
  238SOL     OW  712   0.896   0.853   0.501 -0.2220 -0.2043  0.1332
  238SOL    HW1  713   0.988   0.880   0.541  1.4482  2.6890 -2.3136
  238SOL    HW2  714   0.823   0.886   0.564  1.7687  0.9247 -2.0007
  239SOL     OW  715   2.523   0.843   2.932  0.5772  0.3240 -0.6414
  239SOL    HW1  716   2.434   0.845   2.882 -1.3627  1.7344  1.2749
  239SOL    HW2  717   2.572   0.757   2.914 -1.0917 -1.2491  3.2165
  240SOL     OW  718   2.846   2.199   1.020  0.0607 -0.0350  0.2115
  240SOL    HW1  719   2.757   2.152   1.015 -0.6948  2.8389  1.1566
  240SOL    HW2  720   2.857   2.259   0.938 -2.0267 -1.3818  0.9258
  241SOL     OW  721   1.191   1.591   0.818 -0.0738  0.0899 -0.3034
  241SOL    HW1  722   1.241   1.555   0.736 -0.7781  4.0150 -1.5698
  241SOL    HW2  723   1.090   1.577   0.806 -0.6966  1.3019 -1.3408
  242SOL     OW  724   1.060   0.680   0.886  0.0633 -0.3649  0.4733
  242SOL    HW1  725   0.983   0.716   0.830  1.2700 -1.1312 -1.3566
  242SOL    HW2  726   1.089   0.582   0.862  3.5461 -1.4351  0.2997
  243SOL     OW  727   0.409   0.520   1.141  0.0217 -0.0768  0.2180
  243SOL    HW1  728   0.399   0.422   1.150 -1.6389  2.1839 -0.1338
  243SOL    HW2  729   0.321   0.564   1.108 -0.0914 -1.1393  1.0114
  244SOL     OW  730   1.057   0.134   0.458 -0.9441 -0.4506 -0.1312
  244SOL    HW1  731   1.019   0.055   0.508 -1.0205  2.3015  0.3469
  244SOL    HW2  732   1.021   0.222   0.492  2.2183 -3.2589 -1.2334
  245SOL     OW  733   1.874   1.073   0.503  0.4249  0.5911  0.3276
  245SOL    HW1  734   1.913   1.059   0.595  1.9646  2.4161 -0.9679
  245SOL    HW2  735   1.936   1.109   0.429  0.4137  0.6446  1.1547
  246SOL     OW  736   0.348   0.112   1.821  0.0257 -0.3588 -0.1928
  246SOL    HW1  737   0.393   0.026   1.786 -1.0401 -0.7543 -0.2900
  246SOL    HW2  738   0.250   0.104   1.830  2.1395  2.2309  0.6642
  247SOL     OW  739   0.905   0.004   1.883  0.3051  0.0022 -0.4823
  247SOL    HW1  740   0.939   0.068   1.809  1.1303  0.4103  2.0067
  247SOL    HW2  741   0.974   0.014   1.960 -0.7464  0.4211  2.5438
  248SOL     OW  742   0.264   1.722   1.978 -0.0390 -0.0056  0.0311
  248SOL    HW1  743   0.358   1.679   1.992 -0.8936 -0.6145 -0.9555
  248SOL    HW2  744   0.274   1.813   1.933  0.4936 -0.3590  0.5587
  249SOL     OW  745   0.611   2.336   0.241  0.0649 -0.4216  0.4241
  249SOL    HW1  746   0.611   2.424   0.297 -1.8718 -0.1707  1.1746
  249SOL    HW2  747   0.624   2.361   0.143  0.6442 -0.7530  3.3088
  250SOL     OW  748   0.584   0.072   2.166  0.1574 -0.4575  0.2413
  250SOL    HW1  749   0.488   0.093   2.183  1.2439  2.2252 -2.3692
  250SOL    HW2  750   0.599   0.063   2.067  0.5733 -0.6483 -2.3786
  251SOL     OW  751   2.903   2.047   1.681 -0.1133 -0.1555  0.6435
  251SOL    HW1  752   2.920   1.968   1.746 -0.3293 -2.0221 -1.0203
  251SOL    HW2  753   2.830   2.110   1.719 -0.5109  0.4934 -1.1557
  252SOL     OW  754   1.252   0.300   1.845  0.3230 -0.3840  0.4804
  252SOL    HW1  755   1.159   0.296   1.879  2.2889 -1.3844 -2.2148
  252SOL    HW2  756   1.277   0.213   1.801 -2.7886  2.3348  2.5416
  253SOL     OW  757   2.293   1.966   2.335  0.1485  0.7926 -0.2341
  253SOL    HW1  758   2.305   1.918   2.245 -1.3783 -0.2274 -0.2208
  253SOL    HW2  759   2.193   1.986   2.345 -1.0304  0.6087  1.5832
  254SOL     OW  760   0.861   1.624   1.031  0.5828  0.5219  0.1621
  254SOL    HW1  761   0.883   1.711   1.076  2.2204  1.7311 -1.0918
  254SOL    HW2  762   0.882   1.622   0.930  0.5435 -1.8969  0.4882
  255SOL     OW  763   0.119   2.680   1.968 -0.2134  0.2359 -0.0395
  255SOL    HW1  764   0.015   2.680   1.955 -0.0170  0.1400  0.2396
  255SOL    HW2  765   0.167   2.657   1.879  2.1638 -0.9827 -1.0792
  256SOL     OW  766   0.380   2.813   0.450  0.4127 -0.7003  0.1953
  256SOL    HW1  767   0.452   2.868   0.402 -0.0959 -0.5211  1.2172
  256SOL    HW2  768   0.316   2.775   0.385  1.2898  1.2631  1.9810
  257SOL     OW  769   1.077   2.517   2.290  0.0713  0.2031  0.0245
  257SOL    HW1  770   1.115   2.610   2.298 -0.3076 -0.3232 -0.3058
  257SOL    HW2  771   1.097   2.481   2.196 -0.1058 -0.4045 -0.6351
  258SOL     OW  772   1.660   2.064   1.989  0.0018  0.6012 -0.3879
  258SOL    HW1  773   1.570   2.102   1.973  2.6682 -2.0763  0.8729
  258SOL    HW2  774   1.735   2.139   1.991  1.2973  2.7144  2.1661
  259SOL     OW  775   0.796   0.607   2.026 -0.1681  0.2577  0.4688
  259SOL    HW1  776   0.758   0.700   2.041  4.0394  0.9693  2.4448
  259SOL    HW2  777   0.726   0.538   1.989  0.3045 -1.2771  1.9655
  260SOL     OW  778   2.880   0.753   2.712  0.0454 -0.1744 -0.1734
  260SOL    HW1  779   2.973   0.719   2.740  0.0124  1.6251 -0.3982
  260SOL    HW2  780   2.884   0.817   2.632 -1.3413  1.2787  1.6580
  261SOL     OW  781   0.699   1.415   0.942 -0.5142 -0.2374 -0.0589
  261SOL    HW1  782   0.748   1.490   0.992 -2.6159 -1.2732 -1.3686
  261SOL    HW2  783   0.752   1.393   0.858 -3.1427 -2.0034 -0.5150
  262SOL     OW  784   2.071   2.146   2.376 -0.9441 -0.4718  0.6390
  262SOL    HW1  785   2.039   2.243   2.358  1.6762  2.5762 -1.9304
  262SOL    HW2  786   2.017   2.102   2.447  1.5013 -0.2275 -1.3736
  263SOL     OW  787   0.728   2.868   1.012  0.2580  0.8168 -0.2679
  263SOL    HW1  788   0.814   2.849   1.068  0.8384 -0.0227  0.4962
  263SOL    HW2  789   0.656   2.796   1.038 -0.5103 -1.5368 -0.9513
  264SOL     OW  790   2.903   2.182   0.634  0.5024  0.2415 -0.0258
  264SOL    HW1  791   2.899   2.267   0.686  1.7609 -0.9106 -0.9035
  264SOL    HW2  792   2.812   2.155   0.597 -1.6563 -1.3026 -0.1966
  265SOL     OW  793   1.865   1.428   2.649 -0.4457 -0.4087 -0.2632
  265SOL    HW1  794   1.861   1.343   2.591  0.3548  1.2055 -2.5246
  265SOL    HW2  795   1.938   1.493   2.622 -0.6965 -0.1088  0.5387
  266SOL     OW  796   1.508   1.831   1.943 -0.0547 -0.0397 -0.5830
  266SOL    HW1  797   1.590   1.888   1.978  1.0996  1.0868  1.1406
  266SOL    HW2  798   1.430   1.845   2.008 -1.8900  1.6714  2.6765
  267SOL     OW  799   2.456   0.751   2.461  0.3209  0.1862 -0.3767
  267SOL    HW1  800   2.410   0.790   2.543  0.3943  0.5128  1.7205
  267SOL    HW2  801   2.418   0.655   2.457  0.9507  3.3574  0.2249
  268SOL     OW  802   0.857   1.194   3.016  0.3140 -0.2465  0.0557
  268SOL    HW1  803   0.837   1.292   3.006  2.0829 -0.1556 -0.2001
  268SOL    HW2  804   0.844   1.150   2.926  0.9446 -0.8471 -0.8997
  269SOL     OW  805   3.079   2.024   1.948 -0.7369  0.2701 -0.1206
  269SOL    HW1  806   3.077   1.922   1.936 -0.3527 -0.7123 -2.2202
  269SOL    HW2  807   2.986   2.066   1.941  0.5783  1.9640 -0.3579
  270SOL     OW  808   0.008   1.949   0.215 -0.2656 -0.2996 -0.2152
  270SOL    HW1  809   3.100   2.007   0.297 -1.0701 -1.4613 -1.1395
  270SOL    HW2  810   3.083   1.854   0.225  2.4983  1.6613 -1.8147
  271SOL     OW  811   0.350   0.182   0.255  0.3018  0.4745 -0.1542
  271SOL    HW1  812   0.417   0.132   0.311 -2.1696 -0.1632  2.3209
  271SOL    HW2  813   0.351   0.277   0.278  2.0451 -0.2731 -1.5747
  272SOL     OW  814   3.093   2.883   0.637  0.4502 -0.4105 -0.4376
  272SOL    HW1  815   3.013   2.924   0.681  0.6021 -1.4908  0.4384
  272SOL    HW2  816   3.064   2.813   0.572 -2.4688 -4.1561  0.6687
  273SOL     OW  817   0.050   2.883   2.138  0.4291  0.7536 -0.0185
  273SOL    HW1  818   0.096   2.887   2.226 -0.5304 -2.7548 -0.6995
  273SOL    HW2  819   0.089   2.798   2.090 -2.2157 -3.3780 -2.4225
  274SOL     OW  820   0.358   0.347   1.419 -0.0333 -0.0384 -0.1459
  274SOL    HW1  821   0.345   0.319   1.320 -0.6069 -0.6889  1.0545
  274SOL    HW2  822   0.352   0.445   1.432  2.7292 -2.3938 -1.9752
  275SOL     OW  823   1.235   1.830   0.951 -0.2781  0.4086 -0.2049
  275SOL    HW1  824   1.333   1.829   0.974 -0.3144  0.0035 -2.2634
  275SOL    HW2  825   1.204   1.744   0.911 -1.1871  1.2568  1.4311
  276SOL     OW  826   0.504   1.569   1.948 -0.1857 -0.3879 -0.2153
  276SOL    HW1  827   0.549   1.660   1.961  0.9317  0.7103  1.1930
  276SOL    HW2  828   0.517   1.511   2.031  0.1792 -1.8810  0.8283
  277SOL     OW  829   1.397   2.205   1.965  0.1345  0.0884  0.7979
  277SOL    HW1  830   1.390   2.268   1.885  1.1964 -1.4289  0.7752
  277SOL    HW2  831   1.307   2.156   1.976  1.6820  1.4506  1.0776
  278SOL     OW  832   1.964   3.036   2.273  0.3181  0.1147  0.2171
  278SOL    HW1  833   1.867   3.012   2.300 -2.2564 -1.0589  1.6448
  278SOL    HW2  834   1.966   0.029   2.266  0.0726 -1.3243  0.9700
  279SOL     OW  835   1.377   1.484   2.858  0.5827 -0.3638  0.2152
  279SOL    HW1  836   1.468   1.447   2.876 -0.7640 -1.0395 -0.7693
  279SOL    HW2  837   1.378   1.545   2.779 -2.1570  2.1112  1.7243
  280SOL     OW  838   1.492   0.363   0.688  0.0194 -0.0091 -0.4855
  280SOL    HW1  839   1.446   0.317   0.764  0.3499  1.8830 -1.9871
  280SOL    HW2  840   1.426   0.379   0.613 -1.3909 -0.1249  0.0196
  281SOL     OW  841   0.150   0.336   2.107  0.0058  0.6817 -0.0278
  281SOL    HW1  842   0.191   0.342   2.018  0.1369 -0.3348  2.7931
  281SOL    HW2  843   0.146   0.437   2.134  1.4829  1.2968  0.9446
  282SOL     OW  844   0.264   2.877   0.691  0.5709 -0.3658 -0.2414
  282SOL    HW1  845   0.165   2.871   0.667  1.4536 -0.9138 -0.2565
  282SOL    HW2  846   0.311   2.876   0.599  0.4718 -1.2115 -3.5483
  283SOL     OW  847   1.347   2.331   1.425 -0.0485 -0.1063  0.3637
  283SOL    HW1  848   1.355   2.343   1.324  0.5955  1.6214  3.1201
  283SOL    HW2  849   1.423   2.281   1.467 -0.4232 -0.5298 -1.6424
  284SOL     OW  850   2.134   2.736   1.486  0.3475 -0.4697 -0.4471
  284SOL    HW1  851   2.093   2.704   1.572 -1.4901  1.3172  0.9326
  284SOL    HW2  852   2.214   2.681   1.464 -0.8888  0.0163  0.4549
  285SOL     OW  853   0.722   1.993   0.938 -0.1730 -0.2521  0.1391
  285SOL    HW1  854   0.761   2.067   0.881  0.5794  0.4808 -0.4811
  285SOL    HW2  855   0.716   1.903   0.893  0.6706  0.1395  0.9739
  286SOL     OW  856   2.969   2.637   1.963 -0.0669  0.0011  0.0991
  286SOL    HW1  857   2.897   2.647   2.033 -2.1257  0.6179 -2.5975
  286SOL    HW2  858   2.965   2.546   1.914  1.6553 -0.5343 -0.7940
  287SOL     OW  859   0.512   1.221   0.953 -0.3151 -0.1869  0.0720
  287SOL    HW1  860   0.583   1.291   0.952 -1.9983 -3.8544  0.8791
  287SOL    HW2  861   0.515   1.157   0.872 -0.2390  3.5143  2.0080
  288SOL     OW  862   1.538   2.099   2.807 -0.3212  0.4173  0.8100
  288SOL    HW1  863   1.577   2.004   2.810 -0.7291 -0.4826 -1.2482
  288SOL    HW2  864   1.439   2.098   2.793  1.3582  2.1857 -0.0594
  289SOL     OW  865   2.372   1.278   2.794  0.3096  0.0254 -0.0749
  289SOL    HW1  866   2.298   1.232   2.852 -0.2965 -1.4227  0.9671
  289SOL    HW2  867   2.341   1.366   2.750  2.3931 -0.3776 -0.0228
  290SOL     OW  868   1.585   1.574   0.901 -0.2393 -0.7527  0.1665
  290SOL    HW1  869   1.590   1.541   0.806  1.9959  2.1675  0.1369
  290SOL    HW2  870   1.572   1.676   0.892  2.0968  0.1767 -0.5871
  291SOL     OW  871   0.934   0.719   0.052 -0.2030  0.2287  0.5420
  291SOL    HW1  872   0.964   0.770   3.079  0.2573 -1.4193 -0.7739
  291SOL    HW2  873   0.991   0.641   0.086 -0.2362  1.7447  0.1515
  292SOL     OW  874   1.904   1.546   0.569  0.3718  0.4542 -0.2111
  292SOL    HW1  875   1.852   1.498   0.495  4.1422 -1.3093 -1.2203
  292SOL    HW2  876   2.002   1.525   0.559  2.0325  0.7423  2.5242
  293SOL     OW  877   1.574   3.093   1.225 -0.2092 -0.1302  0.1454
  293SOL    HW1  878   1.633   3.095   1.309 -0.2729 -3.0294 -0.4530
  293SOL    HW2  879   1.556   0.079   1.183 -0.8826 -1.6969 -1.7420
  294SOL     OW  880   2.108   0.937   0.110  0.0001  0.2119 -0.0492
  294SOL    HW1  881   2.203   0.964   0.084 -1.8494  1.0288 -1.0626
  294SOL    HW2  882   2.060   1.011   0.169  0.9310  3.0308  0.7352
  295SOL     OW  883   2.126   1.856   2.537  0.0023  0.2304  0.1164
  295SOL    HW1  884   2.036   1.906   2.540 -0.6383  1.3457 -2.1400
  295SOL    HW2  885   2.208   1.920   2.533 -1.9051  0.0789 -2.0401
  296SOL     OW  886   1.512   1.534   1.154 -0.8873 -0.5249  0.4419
  296SOL    HW1  887   1.542   1.554   1.058  0.4311 -2.5670  1.7421
  296SOL    HW2  888   1.461   1.614   1.193  0.4053 -1.0524 -1.0551
  297SOL     OW  889   0.555   0.914   2.518  0.3664  0.1399 -0.1007
  297SOL    HW1  890   0.528   0.989   2.579  0.2766 -1.9442 -0.7777
  297SOL    HW2  891   0.524   0.940   2.424 -1.1055  3.8197 -0.5279
  298SOL     OW  892   1.448   2.643   1.447 -0.2591  0.3131  0.3047
  298SOL    HW1  893   1.450   2.685   1.538  0.7595 -2.3121 -1.6041
  298SOL    HW2  894   1.463   2.543   1.445  1.1190 -0.7963 -2.0817
  299SOL     OW  895   1.034   0.398   2.808 -0.0726  0.0520 -0.2581
  299SOL    HW1  896   0.958   0.457   2.839  0.9666 -0.7176  1.0804
  299SOL    HW2  897   1.031   0.301   2.844 -0.1972 -1.6908 -0.6196
  300SOL     OW  898   1.909   1.294   0.048 -0.2044  0.2480 -0.0592
  300SOL    HW1  899   1.987   1.357   0.078 -0.1590  2.4366  0.8147
  300SOL    HW2  900   1.818   1.321   0.090 -0.9968  0.8520  2.9503
  301SOL     OW  901   2.351   0.500   2.416  0.4272 -0.2930 -0.7400
  301SOL    HW1  902   2.388   0.443   2.338  0.7379  0.5458 -2.6172
  301SOL    HW2  903   2.371   0.462   2.511 -1.1682 -1.1334  2.4254
  302SOL     OW  904   2.637   1.674   2.459 -0.7071  0.5025  0.2710
  302SOL    HW1  905   2.669   1.631   2.546 -1.3221 -2.4153 -2.3160
  302SOL    HW2  906   2.548   1.723   2.471 -0.0873 -0.9068 -0.7912
  303SOL     OW  907   0.267   2.532   2.408  0.1317  0.0226 -0.5386
  303SOL    HW1  908   0.241   2.506   2.316  0.8338 -0.6337  1.1502
  303SOL    HW2  909   0.210   2.611   2.448  1.3945 -1.9677  1.7455
  304SOL     OW  910   0.000   1.419   1.137 -0.3506  0.8952  0.0389
  304SOL    HW1  911   3.037   1.494   1.128  1.6724  0.0588 -0.9108
  304SOL    HW2  912   0.041   1.396   1.047 -1.6183 -0.6312  0.2709
  305SOL     OW  913   3.074   0.206   2.273  0.2915  0.4696 -0.8783
  305SOL    HW1  914   0.038   0.267   2.239 -2.4225 -1.9310  1.7607
  305SOL    HW2  915   3.076   0.198   2.377 -0.3358 -3.0891  4.3110
  306SOL     OW  916   1.292   1.473   0.578 -0.4552  0.0351 -0.0446
  306SOL    HW1  917   1.300   1.375   0.544 -0.8750 -3.4856 -1.6230
  306SOL    HW2  918   1.360   1.528   0.521 -1.8489  1.7292 -2.9051
  307SOL     OW  919   0.011   0.083   1.372  0.1937 -0.2576 -0.3848
  307SOL    HW1  920   0.107   0.103   1.406  1.9629  2.5325  0.8319
  307SOL    HW2  921   3.072   0.170   1.336  0.0070  1.5177 -0.3022
  308SOL     OW  922   2.721   1.823   2.763  0.0395  0.5568  0.2661
  308SOL    HW1  923   2.775   1.741   2.741  1.6989  2.5120  1.4132
  308SOL    HW2  924   2.717   1.884   2.682  0.9093 -1.5955 -0.0424
  309SOL     OW  925   0.037   1.937   2.860  0.9717 -0.0686 -0.1199
  309SOL    HW1  926   0.127   1.933   2.812  0.0460  1.4291 -1.4814
  309SOL    HW2  927   3.064   1.943   2.793 -1.4312  1.3896 -0.1707
  310SOL     OW  928   2.449   0.424   0.023  0.6518 -0.5010 -0.7517
  310SOL    HW1  929   2.488   0.519   0.022  1.1113  2.4334  0.4081
  310SOL    HW2  930   2.401   0.407   0.114 -0.0755 -1.8660  0.1703
  311SOL     OW  931   1.936   1.096   2.975  0.0048  0.3496  0.4351
  311SOL    HW1  932   1.880   1.130   2.897 -0.3995 -0.8769 -0.3982
  311SOL    HW2  933   1.922   1.157   3.060  0.6394 -0.9174  0.1572
  312SOL     OW  934   1.187   1.115   2.202 -0.5648  0.2777  0.0740
  312SOL    HW1  935   1.169   1.162   2.110 -0.0097  1.1758 -3.7909
  312SOL    HW2  936   1.192   1.014   2.188 -0.7892  1.1688 -1.0229
  313SOL     OW  937   0.140   0.277   0.100 -0.1435  0.1622  0.0142
  313SOL    HW1  938   0.064   0.213   0.088  0.7984  1.0736 -0.3146
  313SOL    HW2  939   0.221   0.232   0.139 -0.5503  0.5971  0.3225
  314SOL     OW  940   0.537   1.932   1.493 -0.0675  0.1107  0.4569
  314SOL    HW1  941   0.491   1.841   1.491 -1.5237 -0.7082  0.5391
  314SOL    HW2  942   0.637   1.931   1.467 -1.0103 -0.1337 -1.1709
  315SOL     OW  943   1.380   1.743   1.263  0.4471  0.0859 -0.2634
  315SOL    HW1  944   1.368   1.697   1.351 -3.6923  0.4249 -0.1574
  315SOL    HW2  945   1.302   1.800   1.240 -0.1793  1.1686  0.6025
  316SOL     OW  946   0.164   2.165   0.558 -0.3889 -0.0788 -0.2913
  316SOL    HW1  947   0.108   2.113   0.628 -1.8129 -2.3448  1.5514
  316SOL    HW2  948   0.259   2.136   0.558  0.8551 -1.6046  0.9996
  317SOL     OW  949   2.644   0.340   1.046 -0.1685 -0.3267 -0.0315
  317SOL    HW1  950   2.648   0.385   1.138 -0.4814  1.5866  0.6021
  317SOL    HW2  951   2.647   0.239   1.057  0.8834 -0.0281  0.0942
  318SOL     OW  952   1.323   2.687   0.208  0.1236 -0.2746 -0.7519
  318SOL    HW1  953   1.311   2.723   0.300  0.1337  0.0533 -1.9122
  318SOL    HW2  954   1.228   2.667   0.171 -1.5916 -1.2175 -1.8450
  319SOL     OW  955   1.402   0.169   3.053 -0.2090  0.0271 -0.2041
  319SOL    HW1  956   1.326   0.121   3.008  0.3378  2.1212 -1.3119
  319SOL    HW2  957   1.466   0.205   2.983  0.7833 -0.2235  2.0568
  320SOL     OW  958   2.621   1.995   1.888 -0.0456  0.0005 -0.4174
  320SOL    HW1  959   2.540   1.999   1.949  1.7161  0.1610  0.1254
  320SOL    HW2  960   2.634   1.906   1.837  0.5718 -1.2293  0.8363
  321SOL     OW  961   0.070   2.657   2.989  0.1128  0.6001 -0.4404
  321SOL    HW1  962   0.004   2.707   2.933  1.6048 -0.1566  2.3822
  321SOL    HW2  963   0.047   2.556   2.988  0.6407  0.4328  0.2688
  322SOL     OW  964   2.623   0.984   1.605 -0.3367 -0.1981 -0.0262
  322SOL    HW1  965   2.534   1.024   1.587  0.4196 -0.1430  0.8036
  322SOL    HW2  966   2.676   1.049   1.661 -1.0151  0.1533 -0.3210
  323SOL     OW  967   1.612   1.297   0.167  0.2640  0.7048  0.1807
  323SOL    HW1  968   1.533   1.332   0.222  1.9164  0.4392 -0.5433
  323SOL    HW2  969   1.615   1.194   0.183  1.8919 -2.0039  1.2283
  324SOL     OW  970   0.081   0.454   1.450 -0.2232 -0.3887 -1.0562
  324SOL    HW1  971   0.179   0.439   1.437  1.5733 -0.3265  1.4280
  324SOL    HW2  972   0.066   0.422   1.549  6.3290 -0.3803  0.4639
  325SOL     OW  973   2.804   0.004   1.331  0.8671  0.4707 -0.3425
  325SOL    HW1  974   2.889   3.059   1.332 -1.3895  0.5812 -0.9196
  325SOL    HW2  975   2.793   0.051   1.421 -1.4475 -2.1633  1.0669
  326SOL     OW  976   1.751   2.610   0.321 -0.5295  0.1037  0.1867
  326SOL    HW1  977   1.728   2.687   0.257  1.4274  0.5970 -0.6701
  326SOL    HW2  978   1.674   2.610   0.392 -0.7983  1.9814 -1.1929
  327SOL     OW  979   2.252   2.135   0.384  0.3743  0.4959  0.1483
  327SOL    HW1  980   2.159   2.168   0.397  2.4437  0.5458 -1.7408
  327SOL    HW2  981   2.289   2.194   0.308  0.2687 -1.9721  1.6201
  328SOL     OW  982   2.675   2.502   1.833  0.0156  0.1473 -0.1519
  328SOL    HW1  983   2.661   2.588   1.777  3.0479  0.0991  2.3075
  328SOL    HW2  984   2.685   2.524   1.933 -1.4120 -1.1428  1.5999
  329SOL     OW  985   0.102   2.208   0.927  0.1848  0.3529  0.1576
  329SOL    HW1  986   0.091   2.276   1.005  2.3337  0.0006  1.7202
  329SOL    HW2  987   0.194   2.216   0.880 -1.3197  0.5720 -1.0241
  330SOL     OW  988   2.261   1.009   2.132  0.0663 -0.1471  0.2018
  330SOL    HW1  989   2.169   0.963   2.137 -0.3218 -1.3354  1.6480
  330SOL    HW2  990   2.250   1.109   2.135  1.5989 -0.0429 -0.0764
  331SOL     OW  991   2.204   1.698   0.660  0.5586  0.3273  0.9764
  331SOL    HW1  992   2.291   1.699   0.713  0.0583 -1.3531 -1.5166
  331SOL    HW2  993   2.206   1.613   0.600 -1.5053 -0.9108 -0.1979
  332SOL     OW  994   0.206   2.964   1.606 -0.3940 -0.2215  0.1205
  332SOL    HW1  995   0.161   2.896   1.544 -0.4358  3.4171  2.2414
  332SOL    HW2  996   0.197   3.060   1.571  0.2945  0.0404  0.9352
  333SOL     OW  997   0.178   1.466   1.929 -0.1328 -0.5320 -0.6174
  333SOL    HW1  998   0.197   1.565   1.921 -0.9609 -0.8472 -0.6334
  333SOL    HW2  999   0.115   1.441   1.856  2.7837 -1.7869  3.4117
  334SOL     OW 1000   0.405   0.768   1.269  0.2979 -0.1657 -0.0994
  334SOL    HW1 1001   0.420   0.838   1.197 -1.2585 -1.1396  0.7002
  334SOL    HW2 1002   0.419   0.684   1.221 -0.5206 -0.0467  2.8268
  335SOL     OW 1003   2.959   1.799   1.834  0.2117 -0.0172 -0.8819
  335SOL    HW1 1004   3.042   1.746   1.811 -0.6494  1.7506 -0.3747
  335SOL    HW2 1005   2.900   1.752   1.908 -0.5107  0.2344  1.9018
  336SOL     OW 1006   1.941   2.998   3.005  0.2117 -0.0854  0.6907
  336SOL    HW1 1007   1.863   2.932   2.983 -1.4573  1.0813  0.2381
  336SOL    HW2 1008   2.025   2.950   3.044  1.6368 -0.8574  0.3231
  337SOL     OW 1009   0.672   0.499   1.207 -0.1322 -0.3200  0.0830
  337SOL    HW1 1010   0.717   0.586   1.183  0.8760  0.9510  0.8775
  337SOL    HW2 1011   0.573   0.506   1.179  3.7444  0.5158 -1.6131
  338SOL     OW 1012   1.546   2.254   0.739  0.1371 -0.2889 -0.0954
  338SOL    HW1 1013   1.557   2.256   0.641 -0.0691  0.3413  0.3787
  338SOL    HW2 1014   1.620   2.199   0.782 -1.9213  0.3481  2.4101
  339SOL     OW 1015   0.270   1.937   1.146 -0.4135  0.7352  0.0206
  339SOL    HW1 1016   0.210   2.000   1.202  1.1696  0.7514 -0.8186
  339SOL    HW2 1017   0.346   1.990   1.104 -0.7941  0.8000  0.9224
  340SOL     OW 1018   0.316   0.153   2.174 -0.1538 -0.2821  0.3823
  340SOL    HW1 1019   0.248   0.214   2.137  3.0802 -1.5822  1.9753
  340SOL    HW2 1020   0.276   0.083   2.240  0.1668 -0.8616  0.7215
  341SOL     OW 1021   2.262   1.520   0.976 -0.0565 -0.6087 -0.1715
  341SOL    HW1 1022   2.166   1.540   1.017 -1.2833 -0.8392 -0.8510
  341SOL    HW2 1023   2.310   1.605   0.948  0.5003 -1.7574 -0.7176
  342SOL     OW 1024   1.780   1.824   0.560 -0.5332 -0.0438 -0.1567
  342SOL    HW1 1025   1.809   1.729   0.540 -0.1689  0.8487  0.1986
  342SOL    HW2 1026   1.804   1.887   0.483  2.2534  0.1997  0.9500
  343SOL     OW 1027   2.142   0.171   0.867 -0.0623  0.1751  0.1801
  343SOL    HW1 1028   2.184   0.076   0.882  2.1139 -0.9960  0.7769
  343SOL    HW2 1029   2.129   0.172   0.769  2.7403  1.4862 -0.6974
  344SOL     OW 1030   2.607   0.139   2.814 -0.1695 -0.0446  0.0783
  344SOL    HW1 1031   2.606   0.239   2.829  0.8012  3.5055  1.4432
  344SOL    HW2 1032   2.635   0.125   2.718 -1.5154  0.9527 -0.2410
  345SOL     OW 1033   1.167   2.611   1.147  0.0566  0.1331 -0.2072
  345SOL    HW1 1034   1.158   2.591   1.244  0.2686  2.9132  0.1813
  345SOL    HW2 1035   1.091   2.566   1.096 -2.4892  0.3402 -0.6533
  346SOL     OW 1036   2.256   2.318   1.633  0.1570 -0.2691 -0.2782
  346SOL    HW1 1037   2.174   2.263   1.654  0.7443  1.1545  0.8316
  346SOL    HW2 1038   2.300   2.284   1.549  0.1267 -0.8504  0.5180
  347SOL     OW 1039   2.480   2.996   0.958  0.6508  0.1217 -0.4587
  347SOL    HW1 1040   2.533   2.911   0.961 -0.6012  1.5324  1.4371
  347SOL    HW2 1041   2.525   3.063   1.020 -0.4942  1.5827  0.2584
  348SOL     OW 1042   0.921   0.862   1.229 -0.1866 -0.4780  0.3480
  348SOL    HW1 1043   0.943   0.852   1.328  2.5240 -1.4840  0.1929
  348SOL    HW2 1044   0.942   0.957   1.193  1.9703 -1.3209 -2.9683
  349SOL     OW 1045   2.289   0.223   3.028 -0.1806  0.9361  0.4650
  349SOL    HW1 1046   2.359   0.280   3.067  0.1807 -0.5637 -0.6868
  349SOL    HW2 1047   2.307   0.177   2.936 -1.9502 -0.5067 -1.0769
  350SOL     OW 1048   2.521   2.054   3.101  0.4284  1.0593  0.6281
  350SOL    HW1 1049   2.534   1.976   3.033 -2.2234 -4.2793 -0.6575
  350SOL    HW2 1050   2.530   2.146   3.056  1.6011  0.9206  1.5335
  351SOL     OW 1051   1.129   0.440   0.776  0.0244  0.0748 -0.2069
  351SOL    HW1 1052   1.162   0.372   0.840 -1.0816  2.3961  2.3477
  351SOL    HW2 1053   1.089   0.395   0.695  2.4618  1.0026 -0.3888
  352SOL     OW 1054   2.122   2.360   2.719  0.1673 -0.6008  0.7164
  352SOL    HW1 1055   2.107   2.426   2.793  1.9001  1.5371  0.6677
  352SOL    HW2 1056   2.090   2.392   2.625 -0.8928 -0.9350 -2.2097
  353SOL     OW 1057   0.384   0.507   0.033  0.1651  0.2928  0.2227
  353SOL    HW1 1058   0.332   0.461   0.109 -0.6954  1.9932 -0.7186
  353SOL    HW2 1059   0.323   0.586   0.001  1.3298  3.1441 -0.3492
  354SOL     OW 1060   1.028   1.858   0.007  0.0634 -0.0595 -0.1666
  354SOL    HW1 1061   1.078   1.813   3.035 -3.0770 -1.7517  1.0624
  354SOL    HW2 1062   1.003   1.794   0.080 -1.1382  0.1595 -4.5450
  355SOL     OW 1063   2.793   2.765   1.654 -0.0852  0.0168 -0.2717
  355SOL    HW1 1064   2.786   2.831   1.730 -0.7813  1.7099  0.4177
  355SOL    HW2 1065   2.713   2.774   1.590 -0.6364 -1.2673 -2.5570
  356SOL     OW 1066   2.922   1.058   0.423 -0.1299 -0.0803  0.1305
  356SOL    HW1 1067   2.982   1.097   0.495  2.3769 -1.9765  0.3251
  356SOL    HW2 1068   2.894   0.961   0.445  1.5629  1.1750  1.4549
  357SOL     OW 1069   2.453   0.473   0.925  0.1231 -0.0951  0.4185
  357SOL    HW1 1070   2.452   0.567   0.964  2.8282 -1.3103  0.1397
  357SOL    HW2 1071   2.539   0.429   0.966  1.4683 -0.3131 -0.2809
  358SOL     OW 1072   0.967   2.516   1.015  0.0796 -0.2604 -0.2591
  358SOL    HW1 1073   0.902   2.445   0.983  1.6982 -1.7948 -1.2068
  358SOL    HW2 1074   0.998   2.578   0.936  0.1969  2.3741 -0.8896
  359SOL     OW 1075   3.033   2.375   2.870  0.8224 -0.2605  0.5447
  359SOL    HW1 1076   3.026   2.334   2.962  1.2967  1.0076  0.4870
  359SOL    HW2 1077   2.960   2.354   2.801  0.9197  0.0929  1.5674
  360SOL     OW 1078   0.564   0.920   1.939 -0.2799  0.1013  0.2596
  360SOL    HW1 1079   0.640   0.890   1.880 -2.7245  1.0321  0.8862
  360SOL    HW2 1080   0.486   0.857   1.907 -1.2254 -2.7321  0.5325
  361SOL     OW 1081   2.390   2.840   0.627 -0.0806  0.9180  0.0256
  361SOL    HW1 1082   2.292   2.835   0.603 -0.6790  0.2821 -3.2993
  361SOL    HW2 1083   2.432   2.923   0.602  0.0908 -1.7654 -0.4039
  362SOL     OW 1084   2.931   0.099   1.004 -0.1409  0.8028 -0.5485
  362SOL    HW1 1085   2.880   0.026   0.956 -0.4372  0.2741 -0.6217
  362SOL    HW2 1086   2.883   0.123   1.093 -1.6776 -1.6916 -0.1027
  363SOL     OW 1087   0.594   1.328   0.515 -0.8244 -0.0673  0.3173
  363SOL    HW1 1088   0.571   1.287   0.425  0.4280 -0.0638 -0.8280
  363SOL    HW2 1089   0.515   1.325   0.579 -0.0757  2.3602  1.0445
  364SOL     OW 1090   0.788   1.578   1.579 -0.2647 -0.5030  0.7416
  364SOL    HW1 1091   0.739   1.497   1.619 -0.0133  0.7780  0.6665
  364SOL    HW2 1092   0.778   1.654   1.644  0.3017 -1.4692 -0.2676
  365SOL     OW 1093   2.249   1.214   0.308  0.3494  0.2031 -0.0708
  365SOL    HW1 1094   2.297   1.206   0.398 -0.5311 -1.5094 -1.3426
  365SOL    HW2 1095   2.309   1.260   0.244 -3.7106 -0.8622  2.5396
  366SOL     OW 1096   2.926   1.626   1.148 -0.0910  0.5381  0.2205
  366SOL    HW1 1097   2.971   1.713   1.149  1.8653 -1.1618 -1.0935
  366SOL    HW2 1098   2.905   1.588   1.244  0.2685 -1.3052 -0.1400
  367SOL     OW 1099   2.207   2.025   1.892 -0.5290 -0.0379 -0.4801
  367SOL    HW1 1100   2.210   1.931   1.935 -0.3538 -0.0123  0.4141
  367SOL    HW2 1101   2.273   2.091   1.935  1.5238 -0.5005  0.4083
  368SOL     OW 1102   2.507   1.071   1.333 -0.5519  0.1556 -0.4674
  368SOL    HW1 1103   2.487   1.108   1.425  0.4945  2.4382  0.0936
  368SOL    HW2 1104   2.606   1.060   1.327 -0.0110 -2.0948  0.1440
  369SOL     OW 1105   2.420   2.630   3.059 -0.3353  0.2013 -0.1725
  369SOL    HW1 1106   2.448   2.660   0.046  1.3537 -0.2798 -2.7791
  369SOL    HW2 1107   2.469   2.680   2.981 -0.7835  3.4463 -1.2139
  370SOL     OW 1108   0.015   2.815   1.462  0.1302  0.0982 -0.3617
  370SOL    HW1 1109   3.058   2.843   1.538  0.0005  0.8413 -0.5452
  370SOL    HW2 1110   3.067   2.833   1.379  0.6571  1.0329  2.9317
  371SOL     OW 1111   0.785   1.669   2.446 -0.7457 -0.4834  0.3383
  371SOL    HW1 1112   0.724   1.734   2.493 -1.3701 -0.0505 -2.7132
  371SOL    HW2 1113   0.752   1.662   2.348  0.1865  0.2377 -0.4643
  372SOL     OW 1114   0.553   1.191   0.302 -0.1973 -0.1925  0.3037
  372SOL    HW1 1115   0.595   1.113   0.354  1.9978  1.2339 -2.5332
  372SOL    HW2 1116   0.551   1.167   0.207  0.7138  0.8375  2.1507
  373SOL     OW 1117   1.547   2.633   2.922  0.5358  0.3511  0.1671
  373SOL    HW1 1118   1.508   2.573   2.998 -0.6688 -1.9298  4.4731
  373SOL    HW2 1119   1.490   2.623   2.841  1.7154  0.4917 -0.9166
  374SOL     OW 1120   0.290   1.892   0.262  0.3365 -0.0841  0.6721
  374SOL    HW1 1121   0.342   1.975   0.254 -2.9733 -0.3720  0.3325
  374SOL    HW2 1122   0.190   1.908   0.244 -0.9080 -0.3303 -0.7911
  375SOL     OW 1123   1.091   1.497   1.549  0.4614  0.6305 -0.1307
  375SOL    HW1 1124   1.036   1.580   1.546  2.9205 -1.6683 -3.6112
  375SOL    HW2 1125   1.024   1.417   1.544  1.0528  1.3645  1.1760
  376SOL     OW 1126   0.778   2.498   1.622  0.8950  0.5126  0.0426
  376SOL    HW1 1127   0.695   2.514   1.564  4.3182 -0.7565 -1.6771
  376SOL    HW2 1128   0.770   2.518   1.721  2.7118 -1.6518  0.7209
  377SOL     OW 1129   2.463   1.562   2.148  0.4481 -0.7214  0.7560
  377SOL    HW1 1130   2.386   1.502   2.124  3.1936 -0.9613  0.2505
  377SOL    HW2 1131   2.528   1.518   2.211 -0.6319  0.9333 -1.2039
  378SOL     OW 1132   0.964   2.948   2.884  0.3366  0.0100  0.2000
  378SOL    HW1 1133   0.863   2.933   2.891 -1.0431  0.3677 -0.2793
  378SOL    HW2 1134   1.003   2.932   2.980  0.9520  1.1168  0.0768
  379SOL     OW 1135   2.002   0.530   0.703  0.8152 -0.1452 -0.1632
  379SOL    HW1 1136   1.946   0.618   0.694 -0.4364 -0.2500  1.4208
  379SOL    HW2 1137   1.994   0.476   0.615  1.3401  0.7436 -2.4363
  380SOL     OW 1138   2.905   1.954   1.424 -0.4989 -0.6950 -0.1891
  380SOL    HW1 1139   2.908   1.986   1.524 -0.9144 -1.2133  0.1158
  380SOL    HW2 1140   2.833   2.003   1.369 -0.1312  1.3381 -1.5265
  381SOL     OW 1141   1.795   1.856   1.697 -0.2775 -0.2837  0.1349
  381SOL    HW1 1142   1.761   1.953   1.694 -2.5009 -0.0243  1.2907
  381SOL    HW2 1143   1.841   1.825   1.612  0.1445 -0.3340 -0.6133
  382SOL     OW 1144   2.948   0.416   2.931 -0.1980 -0.0425  0.1029
  382SOL    HW1 1145   2.930   0.333   2.876 -0.9420  1.8455  0.9212
  382SOL    HW2 1146   2.957   0.504   2.875  2.0782  3.4186 -1.0747
  383SOL     OW 1147   1.800   1.184   2.753  0.0616  0.3302 -0.1504
  383SOL    HW1 1148   1.705   1.157   2.752  3.2731 -2.8507 -0.9885
  383SOL    HW2 1149   1.818   1.282   2.754 -0.7925 -1.9554 -0.8300
  384SOL     OW 1150   1.170   2.261   1.012  0.2159  0.0211 -0.1869
  384SOL    HW1 1151   1.129   2.181   0.959 -3.6590 -1.2542 -1.5532
  384SOL    HW2 1152   1.100   2.319   1.058 -0.3002 -0.2129  0.9697
  385SOL     OW 1153   2.018   2.274   0.682 -0.2209 -0.0830  0.7825
  385SOL    HW1 1154   1.998   2.253   0.584  1.8114  4.0034  0.0791
  385SOL    HW2 1155   1.937   2.257   0.741  3.0303 -0.0025  1.0217
  386SOL     OW 1156   2.227   2.000   1.003  0.2674  0.0687  0.1312
  386SOL    HW1 1157   2.187   2.083   1.034  0.0560  2.8165 -0.1050
  386SOL    HW2 1158   2.276   1.954   1.078  0.0666 -0.8170 -1.4904
  387SOL     OW 1159   0.536   2.191   1.440  0.2177 -1.0307 -0.1795
  387SOL    HW1 1160   0.446   2.233   1.455  2.1171  1.0483 -2.1110
  387SOL    HW2 1161   0.538   2.093   1.458 -0.1436  2.2783  2.5849
  388SOL     OW 1162   3.068   0.694   1.835  0.1516  0.0689  0.2152
  388SOL    HW1 1163   3.028   0.604   1.863 -2.9470 -0.0814  0.8981
  388SOL    HW2 1164   0.004   0.730   1.917  3.6150  1.1177  2.0973
  389SOL     OW 1165   1.814   1.214   0.774  0.2676 -0.0599 -0.0018
  389SOL    HW1 1166   1.828   1.286   0.846  0.0572 -0.0108 -1.5916
  389SOL    HW2 1167   1.714   1.215   0.746 -1.2952  1.1931 -1.3607
  390SOL     OW 1168   0.970   2.215   2.525  0.0289  0.2721  0.0480
  390SOL    HW1 1169   0.884   2.235   2.473 -1.6338  1.5956  3.2050
  390SOL    HW2 1170   1.006   2.297   2.573 -2.2704  1.2562 -1.0906
  391SOL     OW 1171   1.034   1.982   2.669  0.8904  0.0651 -0.1534
  391SOL    HW1 1172   0.968   1.965   2.748 -4.2841 -1.4153  1.4804
  391SOL    HW2 1173   1.011   2.071   2.626 -1.4611 -3.3963  0.7363
  392SOL     OW 1174   2.893   2.871   2.124  0.0535 -0.4517 -0.0991
  392SOL    HW1 1175   2.841   2.909   2.042  2.2722  0.7948  1.4153
  392SOL    HW2 1176   2.993   2.884   2.113  1.2178  0.1103 -1.3257
  393SOL     OW 1177   2.060   2.633   0.396 -0.3220 -0.4048 -0.0026
  393SOL    HW1 1178   1.965   2.606   0.366  0.4456 -1.1729 -0.7280
  393SOL    HW2 1179   2.091   2.579   0.476  2.7509  0.0013  2.1077
  394SOL     OW 1180   0.495   0.645   2.510  0.3086 -0.5899  0.1850
  394SOL    HW1 1181   0.467   0.744   2.505  0.1662  2.2202 -0.0184
  394SOL    HW2 1182   0.576   0.627   2.451 -5.0423  1.5369  1.3655
  395SOL     OW 1183   0.575   1.202   1.493  0.4897 -0.5433  0.1010
  395SOL    HW1 1184   0.575   1.105   1.471 -0.1136 -0.4189  1.3935
  395SOL    HW2 1185   0.630   1.260   1.426  0.3904  1.1088  1.2967
  396SOL     OW 1186   1.533   1.391   2.128  0.0891 -0.4082 -0.1503
  396SOL    HW1 1187   1.541   1.297   2.086 -0.2791 -1.2917  1.9432
  396SOL    HW2 1188   1.611   1.415   2.187 -0.8748 -2.7677  0.6901
  397SOL     OW 1189   0.821   0.593   2.854  0.0108 -0.0722  0.4495
  397SOL    HW1 1190   0.788   0.572   2.950  2.1837  0.8446  3.3669
  397SOL    HW2 1191   0.750   0.553   2.794  2.4238  0.2107  1.4490
  398SOL     OW 1192   0.257   1.929   2.692  0.0663 -0.4800 -0.1224
  398SOL    HW1 1193   0.289   2.024   2.715 -0.1791 -0.3126 -1.0099
  398SOL    HW2 1194   0.267   1.905   2.594  1.3294  0.3672 -0.1112
  399SOL     OW 1195   0.135   1.784   2.224  0.1042 -0.0187 -0.4068
  399SOL    HW1 1196   0.090   1.698   2.262 -1.5984 -1.5562 -0.8572
  399SOL    HW2 1197   0.181   1.756   2.139 -0.5567 -0.1643  1.3402
  400SOL     OW 1198   2.628   0.714   1.644 -0.0367 -0.1132 -0.3746
  400SOL    HW1 1199   2.603   0.807   1.605  2.0697  0.0232  0.2528
  400SOL    HW2 1200   2.702   0.733   1.714  1.3236  2.6588  1.5796
  401SOL     OW 1201   1.051   1.546   0.402  0.3513  0.2209  0.1456
  401SOL    HW1 1202   1.101   1.580   0.323  0.5301 -0.5430 -0.3963
  401SOL    HW2 1203   1.114   1.511   0.472 -0.7498  0.2649  1.0188
  402SOL     OW 1204   0.143   2.471   2.144  0.0630 -0.2074 -0.1810
  402SOL    HW1 1205   0.143   2.556   2.090  1.0006 -3.0801 -1.1956
  402SOL    HW2 1206   0.149   2.387   2.089  0.9463 -0.6737  2.0042
  403SOL     OW 1207   0.314   1.249   2.063 -0.4615 -0.3833 -0.3667
  403SOL    HW1 1208   0.287   1.265   2.162 -1.1963 -1.3276 -1.5733
  403SOL    HW2 1209   0.279   1.326   2.012  2.2644 -1.2937  4.6535
  404SOL     OW 1210   1.845   2.096   1.507 -0.0475  0.1230 -0.6253
  404SOL    HW1 1211   1.800   2.183   1.492 -0.6799 -2.4952 -0.0550
  404SOL    HW2 1212   1.870   2.050   1.419  1.6357  0.8989  1.2335
  405SOL     OW 1213   2.654   2.613   2.819  0.2894  0.5292 -0.0931
  405SOL    HW1 1214   2.712   2.553   2.882  0.7914 -0.6921  2.7807
  405SOL    HW2 1215   2.704   2.699   2.792 -0.3607 -1.0722 -0.2414
  406SOL     OW 1216   0.409   1.252   2.925 -0.1595 -0.2664 -0.4959
  406SOL    HW1 1217   0.479   1.220   2.992 -1.9116  1.1703 -2.0505
  406SOL    HW2 1218   0.428   1.348   2.895  0.0122 -0.4906 -1.3363
  407SOL     OW 1219   2.206   2.594   2.875 -0.5825 -0.3667 -0.1425
  407SOL    HW1 1220   2.257   2.622   2.790 -1.3949 -0.1310 -0.8588
  407SOL    HW2 1221   2.258   2.606   2.964  1.1214  2.8128 -0.0197
  408SOL     OW 1222   2.825   2.914   0.301 -0.1126  0.3044  0.0943
  408SOL    HW1 1223   2.820   2.816   0.317 -2.5006 -0.2978  0.2756
  408SOL    HW2 1224   2.778   2.920   0.210 -2.1315 -4.8324 -1.0065
  409SOL     OW 1225   2.324   1.375   0.762 -0.4143  0.2655  0.1252
  409SOL    HW1 1226   2.313   1.424   0.851  2.0862  0.5842 -0.5738
  409SOL    HW2 1227   2.232   1.373   0.716  0.8232  0.4232  0.5819
  410SOL     OW 1228   2.915   1.537   0.587 -0.1799  0.1652 -0.0177
  410SOL    HW1 1229   2.882   1.541   0.685  1.4234 -1.2221 -0.4392
  410SOL    HW2 1230   3.014   1.557   0.587 -1.5456  0.0203 -0.8135
  411SOL     OW 1231   0.424   1.385   0.734  0.1875  0.1519 -0.2061
  411SOL    HW1 1232   0.401   1.479   0.757 -0.1641 -3.4096  0.6345
  411SOL    HW2 1233   0.426   1.326   0.817  0.4502  0.3307 -1.7446
  412SOL     OW 1234   2.413   2.270   0.557 -0.0837 -0.1732 -0.4891
  412SOL    HW1 1235   2.433   2.362   0.523  0.5167  1.3852 -1.7782
  412SOL    HW2 1236   2.347   2.215   0.504 -1.8304  0.0986  1.2812
  413SOL     OW 1237   1.750   1.033   2.368  0.1776 -0.4189  0.0784
  413SOL    HW1 1238   1.748   1.025   2.266 -0.5930  0.8887 -1.6033
  413SOL    HW2 1239   1.653   1.030   2.399 -1.4722 -0.3374 -0.9834
  414SOL     OW 1240   2.731   0.078   0.411 -0.3361 -0.4136 -0.2408
  414SOL    HW1 1241   2.770   3.101   0.374 -2.5462 -1.1090  0.1695
  414SOL    HW2 1242   2.813   0.134   0.442  2.8362 -0.7497  0.7345
  415SOL     OW 1243   0.985   2.231   1.243 -0.3756  0.5846  0.0565
  415SOL    HW1 1244   0.944   2.254   1.331 -0.2463  2.5967 -1.3048
  415SOL    HW2 1245   0.973   2.129   1.224 -1.0726 -3.5781 -0.4724
  416SOL     OW 1246   3.049   2.629   2.702  0.0339 -0.5413  0.3265
  416SOL    HW1 1247   3.097   2.642   2.611  0.6757  0.0329  0.1012
  416SOL    HW2 1248   3.075   2.539   2.743 -0.5558 -1.4375 -1.6498
  417SOL     OW 1249   2.881   0.774   1.261  0.0971 -0.3158 -0.2116
  417SOL    HW1 1250   2.920   0.736   1.172  3.1825  0.8830 -1.8110
  417SOL    HW2 1251   2.905   0.716   1.344  1.1028 -2.3667  2.8902
  418SOL     OW 1252   3.052   0.091   0.063 -0.0916  0.2934 -0.1948
  418SOL    HW1 1253   3.055   0.024   0.140 -1.8151 -2.2294  3.2741
  418SOL    HW2 1254   3.067   0.036   3.086  4.4388 -0.4874 -0.3271
  419SOL     OW 1255   3.079   1.308   1.512 -0.3155  0.2850 -0.2764
  419SOL    HW1 1256   2.977   1.292   1.498 -3.3601 -0.6654  2.6731
  419SOL    HW2 1257   0.015   1.335   1.425 -0.6600 -0.1056  3.3629
  420SOL     OW 1258   0.472   1.493   0.182  0.6216  0.5422 -0.1018
  420SOL    HW1 1259   0.496   1.588   0.156 -2.3535  1.3253  0.3071
  420SOL    HW2 1260   0.525   1.425   0.131 -2.0785  0.4036 -2.6434
  421SOL     OW 1261   2.122   2.524   2.498 -0.0330  0.9757 -0.7204
  421SOL    HW1 1262   2.040   2.521   2.446  2.7609  1.1189  2.7219
  421SOL    HW2 1263   2.200   2.514   2.434 -0.7367 -0.6977  0.9890
  422SOL     OW 1264   0.200   0.887   2.658 -0.0387  0.4735 -0.1087
  422SOL    HW1 1265   0.193   0.822   2.574 -0.2331 -0.2933  0.1891
  422SOL    HW2 1266   0.246   0.829   2.728 -0.3909 -0.0101 -2.3036
  423SOL     OW 1267   1.205   2.247   0.489 -0.0737 -1.0936 -0.7011
  423SOL    HW1 1268   1.256   2.191   0.563  0.0663  1.4471 -0.7214
  423SOL    HW2 1269   1.128   2.193   0.452  2.3579  1.1041  0.4573
  424SOL     OW 1270   0.806   2.050   1.422 -0.1018  0.7525  0.6131
  424SOL    HW1 1271   0.821   2.148   1.429 -2.8076 -1.4835 -1.6214
  424SOL    HW2 1272   0.846   2.007   1.504 -0.5272 -0.7695 -1.3094
  425SOL     OW 1273   2.669   2.447   2.569 -0.2711  0.4739  0.3841
  425SOL    HW1 1274   2.612   2.515   2.520  0.9035  1.1909 -0.9644
  425SOL    HW2 1275   2.680   2.476   2.663  1.5836 -0.3772  0.4844
  426SOL     OW 1276   1.600   0.515   0.885  0.3298  0.1024 -0.1285
  426SOL    HW1 1277   1.663   0.465   0.945  0.4493  2.1194  3.6398
  426SOL    HW2 1278   1.554   0.449   0.826  2.4648 -1.1731 -1.3641
  427SOL     OW 1279   0.100   1.527   2.740 -0.6306  0.2139 -0.3114
  427SOL    HW1 1280   0.075   1.587   2.817  2.3122  2.5557 -1.8191
  427SOL    HW2 1281   0.082   1.434   2.758 -0.5761  0.6664 -0.3714
  428SOL     OW 1282   1.037   1.201   0.101 -0.0969  0.2793 -0.3510
  428SOL    HW1 1283   1.005   1.139   0.179 -3.4878 -1.1019  1.2508
  428SOL    HW2 1284   0.983   1.189   0.016  2.6789  0.7774  0.0986
  429SOL     OW 1285   2.841   2.624   0.617 -0.7521  0.2373  0.5936
  429SOL    HW1 1286   2.739   2.627   0.598 -2.0714 -0.8762 -1.2089
  429SOL    HW2 1287   2.899   2.649   0.531 -1.2265 -0.0464 -0.7512
  430SOL     OW 1288   0.451   2.312   2.376 -0.0735 -0.4359  0.0874
  430SOL    HW1 1289   0.392   2.394   2.379  3.0886  2.6946 -1.1353
  430SOL    HW2 1290   0.423   2.249   2.303  1.8464  0.9048  0.3466
  431SOL     OW 1291   2.755   1.273   0.439  0.5358 -0.3829  0.1398
  431SOL    HW1 1292   2.827   1.348   0.431  2.4309  2.5766 -0.0846
  431SOL    HW2 1293   2.788   1.186   0.404  0.6498  1.6042  0.0112
  432SOL     OW 1294   1.835   2.636   2.461  0.3347  0.4594  0.3113
  432SOL    HW1 1295   1.769   2.689   2.407  1.9219 -0.0401  1.3790
  432SOL    HW2 1296   1.857   2.685   2.550 -0.4991  0.2762  0.8385
  433SOL     OW 1297   1.547   2.622   0.492 -0.1275  0.5029 -0.3979
  433SOL    HW1 1298   1.536   2.714   0.541  0.7777  0.6191  1.8547
  433SOL    HW2 1299   1.463   2.567   0.489  1.2493 -1.3067 -0.5789
  434SOL     OW 1300   1.257   1.795   2.074 -0.2353 -0.2069  0.2300
  434SOL    HW1 1301   1.162   1.778   2.043  3.0487  1.7889  0.7422
  434SOL    HW2 1302   1.280   1.751   2.163  2.6107  2.2643  0.1173
  435SOL     OW 1303   2.607   0.675   0.115 -0.1584 -0.1975 -0.4937
  435SOL    HW1 1304   2.693   0.717   0.082 -0.8010  0.4438  0.7775
  435SOL    HW2 1305   2.554   0.730   0.179  0.3521  0.5904  1.6318
  436SOL     OW 1306   0.491   2.704   2.488  0.3866  0.5564  0.6888
  436SOL    HW1 1307   0.424   2.634   2.456 -2.2363 -1.8017  1.1342
  436SOL    HW2 1308   0.540   2.748   2.411 -0.4702 -3.5502 -0.3865
  437SOL     OW 1309   1.954   3.069   1.544 -0.2493  0.6467 -0.4295
  437SOL    HW1 1310   2.009   2.994   1.505 -0.2337 -1.5709  0.8225
  437SOL    HW2 1311   1.997   0.052   1.530 -0.3548  0.9688 -0.8692
  438SOL     OW 1312   0.171   1.849   0.713  0.9772 -0.3703 -0.1303
  438SOL    HW1 1313   0.112   1.925   0.740 -1.7894 -0.3563 -1.8345
  438SOL    HW2 1314   0.189   1.806   0.803  1.6473  0.9447 -2.5566
  439SOL     OW 1315   0.363   0.261   1.174  0.1266 -0.0538 -0.3233
  439SOL    HW1 1316   0.431   0.184   1.164  0.2560 -0.6789 -0.4861
  439SOL    HW2 1317   0.270   0.231   1.146 -2.8283 -4.2771 -0.4964
  440SOL     OW 1318   2.907   2.821   2.387  0.2944  0.3316 -0.2157
  440SOL    HW1 1319   2.871   2.723   2.399 -0.8180 -2.1816 -0.3122
  440SOL    HW2 1320   2.899   2.851   2.288 -3.3381 -1.4195  2.1321
  441SOL     OW 1321   0.104   0.824   0.244 -0.3708  0.0302  0.6046
  441SOL    HW1 1322   0.191   0.789   0.285  0.2162 -2.4632 -1.0805
  441SOL    HW2 1323   0.021   0.780   0.278  0.7311  3.0032 -2.1421
  442SOL     OW 1324   1.420   2.366   2.179 -0.5713 -0.7190  0.2045
  442SOL    HW1 1325   1.416   2.293   2.101 -0.2872  0.9610 -3.8257
  442SOL    HW2 1326   1.504   2.361   2.234 -2.6743  0.4078  1.0061
  443SOL     OW 1327   0.585   3.048   0.075  0.1752  0.3982  0.1220
  443SOL    HW1 1328   0.652   2.990   0.029 -0.7773 -0.8758  2.7211
  443SOL    HW2 1329   0.585   0.032   0.032  0.6227 -1.8925 -0.5253
  444SOL     OW 1330   1.433   1.842   2.520 -0.3399  0.0661 -0.2901
  444SOL    HW1 1331   1.417   1.933   2.483  0.8476 -2.2321 -0.0627
  444SOL    HW2 1332   1.407   1.779   2.444  2.2608 -1.1234 -5.0836
  445SOL     OW 1333   0.434   0.408   0.758  0.3588 -0.1813  0.0157
  445SOL    HW1 1334   0.365   0.342   0.790 -0.2192 -0.6099 -0.7828
  445SOL    HW2 1335   0.512   0.410   0.826  1.9437  3.6077  0.1917
  446SOL     OW 1336   1.932   0.827   0.726  0.0750 -0.2476  0.5574
  446SOL    HW1 1337   1.856   0.891   0.744  2.2527  0.7021 -0.0555
  446SOL    HW2 1338   1.969   0.794   0.813 -1.6881 -0.4170 -3.1672
  447SOL     OW 1339   2.855   1.097   0.143 -0.0486 -0.1182 -0.3548
  447SOL    HW1 1340   2.870   1.025   0.213  2.5315 -0.3447 -0.0477
  447SOL    HW2 1341   2.926   1.169   0.157 -0.3296 -1.6280 -1.1497
  448SOL     OW 1342   2.138   1.951   1.310 -0.2536 -0.0208  0.1101
  448SOL    HW1 1343   2.228   1.947   1.357  1.6454 -1.4028 -0.6716
  448SOL    HW2 1344   2.113   2.051   1.314 -1.5855  0.6429 -1.0469
  449SOL     OW 1345   0.804   1.479   3.000  0.0327  0.0099 -0.1747
  449SOL    HW1 1346   0.859   1.498   2.917 -1.3718 -2.5029  2.3487
  449SOL    HW2 1347   0.855   1.511   3.081 -1.4305 -0.7985  0.3251
  450SOL     OW 1348   2.208   2.933   2.358  0.2056  1.0939 -0.1583
  450SOL    HW1 1349   2.192   2.858   2.432  1.3471 -0.4648 -0.2798
  450SOL    HW2 1350   2.117   2.977   2.344 -2.7446  2.6065 -0.2159
  451SOL     OW 1351   2.354   0.922   2.683 -0.4182  0.1937 -0.4266
  451SOL    HW1 1352   2.284   0.959   2.746  0.3393  1.2634 -2.1336
  451SOL    HW2 1353   2.395   0.998   2.639  0.8478 -2.8494  2.9113
  452SOL     OW 1354   1.683   1.142   1.402  0.0520  0.4292  0.9982
  452SOL    HW1 1355   1.597   1.179   1.370  2.4761  0.4418  2.5496
  452SOL    HW2 1356   1.735   1.112   1.321 -0.7089 -1.0582  1.2293
  453SOL     OW 1357   1.831   0.618   1.615 -0.7101 -0.1609  0.5060
  453SOL    HW1 1358   1.773   0.535   1.617  3.1843  2.4934 -1.4902
  453SOL    HW2 1359   1.795   0.687   1.682 -0.0800  1.5056  0.1975
  454SOL     OW 1360   0.020   0.831   2.875  0.2830 -0.2122 -0.0510
  454SOL    HW1 1361   0.009   0.859   2.974 -2.1251 -0.8469  2.5268
  454SOL    HW2 1362   0.081   0.896   2.824  1.8857 -0.4361 -0.1109
  455SOL     OW 1363   2.874   1.571   1.428  0.0528 -0.0682 -0.2597
  455SOL    HW1 1364   2.968   1.612   1.439  3.3437 -1.5443 -0.6202
  455SOL    HW2 1365   2.873   1.468   1.438  2.2991 -1.2900 -0.2324
  456SOL     OW 1366   1.487   2.757   1.698  0.1293 -0.5145  0.5671
  456SOL    HW1 1367   1.440   2.729   1.787  0.0207  3.7977  2.7140
  456SOL    HW2 1368   1.466   2.854   1.674 -0.2286  0.4373  0.5900
  457SOL     OW 1369   1.438   2.664   0.998  0.0658 -0.2439 -0.0435
  457SOL    HW1 1370   1.497   2.599   0.944 -2.6456  1.1358  0.4841
  457SOL    HW2 1371   1.343   2.635   1.009  2.5188 -0.5668  0.3743
  458SOL     OW 1372   2.839   2.982   0.828  0.8606 -0.2104 -0.2376
  458SOL    HW1 1373   2.783   2.911   0.870  1.7429 -0.3183 -1.4223
  458SOL    HW2 1374   2.787   3.064   0.799 -0.2760 -0.6552  1.8991
  459SOL     OW 1375   1.605   1.138   0.448  0.3265  0.1377 -0.6696
  459SOL    HW1 1376   1.604   1.095   0.355  2.0569  1.6056 -0.9099
  459SOL    HW2 1377   1.703   1.138   0.477  0.0418  0.4855 -0.4173
  460SOL     OW 1378   0.827   2.529   2.397  0.1926 -0.2682 -0.1949
  460SOL    HW1 1379   0.909   2.506   2.342  0.8172 -1.6995  0.6878
  460SOL    HW2 1380   0.851   2.588   2.480 -0.8013  3.0072 -1.1665
  461SOL     OW 1381   0.200   1.633   0.320  0.4042 -0.7329 -0.5022
  461SOL    HW1 1382   0.229   1.533   0.305  2.3808 -0.2594  1.4914
  461SOL    HW2 1383   0.280   1.693   0.291  0.8378  0.2314 -1.2394
  462SOL     OW 1384   1.879   1.947   0.351  0.3309 -0.1250  0.0914
  462SOL    HW1 1385   1.962   1.890   0.373  2.0367 -0.2128 -3.1323
  462SOL    HW2 1386   1.886   1.969   0.252  0.4031 -0.9975 -1.7449
  463SOL     OW 1387   2.628   0.623   0.418  0.2829 -0.3355 -0.3342
  463SOL    HW1 1388   2.571   0.703   0.400  0.0087 -0.9986 -1.0578
  463SOL    HW2 1389   2.624   0.557   0.340 -0.4226 -0.7211 -1.8350
  464SOL     OW 1390   0.771   2.096   0.197 -0.1267  0.0599 -0.6489
  464SOL    HW1 1391   0.779   2.047   0.109 -1.1363  0.9450  3.2157
  464SOL    HW2 1392   0.703   2.171   0.197  1.3620 -1.9034  2.0659
  465SOL     OW 1393   2.331   0.473   1.293  0.5303  0.2320 -0.6500
  465SOL    HW1 1394   2.286   0.432   1.210  0.3355  1.7677  0.8738
  465SOL    HW2 1395   2.328   0.574   1.280  0.2018  1.7952  2.6965
  466SOL     OW 1396   2.156   0.194   0.617 -0.0710 -0.0912  0.2465
  466SOL    HW1 1397   2.177   0.127   0.544 -0.3689 -2.1779 -1.5211
  466SOL    HW2 1398   2.195   0.285   0.597 -0.4814  0.5264 -0.8630
  467SOL     OW 1399   0.723   0.591   2.337  0.3954 -0.5247  0.0343
  467SOL    HW1 1400   0.764   0.639   2.258  0.0767 -3.3638 -1.4666
  467SOL    HW2 1401   0.764   0.499   2.352 -0.7711  0.3638 -0.2628
  468SOL     OW 1402   2.650   0.213   2.076 -0.3142  0.6681  0.4011
  468SOL    HW1 1403   2.634   0.271   1.997  1.2720 -2.7069  0.2335
  468SOL    HW2 1404   2.737   0.251   2.118  0.1178  3.2221 -1.3612
  469SOL     OW 1405   1.027   2.714   1.792 -0.2109 -0.3788 -0.0613
  469SOL    HW1 1406   1.063   2.643   1.728 -1.1669  0.9329 -2.8826
  469SOL    HW2 1407   0.946   2.762   1.756  1.8601 -0.1190 -0.0765
  470SOL     OW 1408   2.383   1.016   1.871  0.1450 -0.5411 -0.1958
  470SOL    HW1 1409   2.465   0.956   1.884  1.9771  3.2269  1.7963
  470SOL    HW2 1410   2.327   1.002   1.951  1.6867  0.2000  0.4071
  471SOL     OW 1411   2.828   1.596   2.915  0.0221 -0.1183  0.0133
  471SOL    HW1 1412   2.916   1.643   2.930 -0.5109 -1.1563 -1.5956
  471SOL    HW2 1413   2.772   1.604   2.998  1.3651 -0.0858 -1.0431
  472SOL     OW 1414   0.430   2.079   0.590  0.1011  0.4973 -0.1523
  472SOL    HW1 1415   0.406   1.990   0.547  0.0891 -1.5679  0.5701
  472SOL    HW2 1416   0.527   2.090   0.584 -3.5590 -0.9433 -0.9870
  473SOL     OW 1417   1.140   2.406   2.036  0.6094 -0.0184 -0.5505
  473SOL    HW1 1418   1.081   2.325   2.016  1.6026 -0.4961  0.2988
  473SOL    HW2 1419   1.224   2.372   2.079  0.8331  0.3011  0.9043
  474SOL     OW 1420   0.873   2.747   2.598 -0.3245  0.1342  0.1657
  474SOL    HW1 1421   0.811   2.673   2.640 -2.8856 -1.4332  4.3489
  474SOL    HW2 1422   0.950   2.760   2.662 -2.3605 -0.0453  0.6206
  475SOL     OW 1423   0.825   1.984   3.024 -0.5035  0.9368  1.0774
  475SOL    HW1 1424   0.915   1.950   3.059  0.1252  1.3036  0.6891
  475SOL    HW2 1425   0.762   1.910   2.991 -0.8013 -0.4862 -0.2373
  476SOL     OW 1426   1.185   0.819   1.084 -0.7875 -0.0310  0.2148
  476SOL    HW1 1427   1.152   0.750   1.018  0.3491  1.3129 -1.2752
  476SOL    HW2 1428   1.106   0.833   1.142  1.9601 -1.0768 -1.4878
  477SOL     OW 1429   2.100   2.211   1.360 -0.1177 -0.1156 -0.1312
  477SOL    HW1 1430   2.193   2.251   1.378 -0.0893  0.9988  1.8392
  477SOL    HW2 1431   2.035   2.289   1.349  1.0479  2.1336 -1.0927
  478SOL     OW 1432   0.026   0.490   3.095  0.3924  0.7484  0.5445
  478SOL    HW1 1433   3.069   0.445   3.028  0.8429 -1.4322 -0.8512
  478SOL    HW2 1434   0.063   0.415   0.048  1.0406 -0.8762  0.4796
  479SOL     OW 1435   0.918   0.037   1.424  0.1602 -0.3935 -0.2047
  479SOL    HW1 1436   1.007   0.083   1.436 -1.6252  0.3978  2.0243
  479SOL    HW2 1437   0.931   3.052   1.470 -0.9157  1.1370  2.7401
  480SOL     OW 1438   2.733   2.345   0.286 -0.3611 -0.3513  0.0187
  480SOL    HW1 1439   2.710   2.247   0.277 -0.0272  1.3034 -1.1369
  480SOL    HW2 1440   2.836   2.355   0.269  0.0810  0.0163 -0.6324
  481SOL     OW 1441   0.211   0.726   1.679 -1.1379 -0.3292  0.0600
  481SOL    HW1 1442   0.180   0.813   1.634 -1.2460 -0.6917  1.5534
  481SOL    HW2 1443   0.128   0.679   1.712  2.1734 -0.4011 -0.3689
  482SOL     OW 1444   1.154   3.010   1.101 -0.3362  0.3231 -0.5136
  482SOL    HW1 1445   1.100   3.089   1.069  1.7838 -0.6395 -3.8972
  482SOL    HW2 1446   1.085   2.941   1.144  0.0800 -0.8459  0.0653
  483SOL     OW 1447   2.977   1.526   2.578 -0.6929  0.9799 -0.2120
  483SOL    HW1 1448   3.043   1.501   2.653 -0.0199 -1.3405  0.6219
  483SOL    HW2 1449   2.882   1.518   2.613  1.1352  1.6400 -1.1966
  484SOL     OW 1450   1.788   1.661   2.037  0.0877  0.1692  0.0918
  484SOL    HW1 1451   1.696   1.668   2.000  1.8568  0.6785  2.6743
  484SOL    HW2 1452   1.839   1.585   2.000 -0.6617  3.2468  0.5592
  485SOL     OW 1453   0.230   3.067   2.342  0.1110  0.1201 -0.1361
  485SOL    HW1 1454   0.152   3.057   2.401  0.7913  0.1736 -2.2475
  485SOL    HW2 1455   0.319   3.053   2.387 -2.0840  0.5867 -1.2515
  486SOL     OW 1456   1.203   2.963   0.639 -0.4402 -0.4094  0.3152
  486SOL    HW1 1457   1.240   2.930   0.730  1.1770 -0.5989  0.6478
  486SOL    HW2 1458   1.270   3.025   0.593 -1.1364 -1.3614 -1.7674
  487SOL     OW 1459   1.434   0.155   0.907 -0.1321  0.3995  0.3757
  487SOL    HW1 1460   1.432   0.058   0.905 -0.2253  3.7120  0.5273
  487SOL    HW2 1461   1.481   0.190   0.989 -1.0636  1.3996  1.3964
  488SOL     OW 1462   2.279   0.949   0.932 -0.2063 -0.0576 -0.5821
  488SOL    HW1 1463   2.331   1.039   0.919  0.8907  1.4927  1.6629
  488SOL    HW2 1464   2.177   0.965   0.941  1.0213 -0.1419  1.9352
  489SOL     OW 1465   1.180   0.153   1.440 -0.2625  0.4845  0.1662
  489SOL    HW1 1466   1.223   0.066   1.413  0.5898  0.8834  2.2177
  489SOL    HW2 1467   1.243   0.232   1.427 -1.2285  0.4076 -0.4508
  490SOL     OW 1468   0.620   0.479   3.024  0.2761 -0.5012  0.1151
  490SOL    HW1 1469   0.643   0.379   3.022  0.7930 -0.2184  1.5688
  490SOL    HW2 1470   0.525   0.490   3.053 -0.7800 -1.2626  1.2721
  491SOL     OW 1471   1.003   2.749   0.244  0.3580  0.1570  0.3723
  491SOL    HW1 1472   1.073   2.758   0.319 -0.5380  4.4355  2.0152
  491SOL    HW2 1473   0.999   2.655   0.204  1.1152 -2.8205 -0.7915
  492SOL     OW 1474   1.338   1.708   1.535 -0.0171 -0.1694 -0.5166
  492SOL    HW1 1475   1.387   1.783   1.592  4.0826  1.2244  3.2381
  492SOL    HW2 1476   1.382   1.619   1.556  1.1373  1.4318  0.9841
  493SOL     OW 1477   0.499   1.771   0.130  0.0452 -0.1289 -0.5444
  493SOL    HW1 1478   0.432   1.834   0.173  0.1787 -1.6279 -1.3064
  493SOL    HW2 1479   0.592   1.784   0.165 -3.1040  2.9420  0.3705
  494SOL     OW 1480   1.986   2.188   0.401  0.4120 -0.1310  0.3429
  494SOL    HW1 1481   1.937   2.105   0.365 -4.7509 -2.7671 -2.4657
  494SOL    HW2 1482   1.950   2.277   0.364 -1.4141 -1.1230 -0.5023
  495SOL     OW 1483   0.458   1.647   2.397 -0.1161  0.0623 -0.4805
  495SOL    HW1 1484   0.516   1.699   2.457  0.5387 -0.1653 -0.5625
  495SOL    HW2 1485   0.374   1.613   2.444  1.2649 -2.4113  1.9727
  496SOL     OW 1486   0.498   3.047   2.409 -0.3639  0.0971  0.5233
  496SOL    HW1 1487   0.514   0.027   2.461 -0.0027 -0.7695  1.2738
  496SOL    HW2 1488   0.557   3.038   2.326  0.5274  1.5006  0.5997
  497SOL     OW 1489   1.523   1.252   0.668 -0.6346  0.8828  1.0199
  497SOL    HW1 1490   1.548   1.195   0.583 -1.7019  0.5340  0.0344
  497SOL    HW2 1491   1.552   1.353   0.655 -0.0160  0.2826  2.3878
  498SOL     OW 1492   2.768   2.653   0.290  0.3073  0.3045 -0.4126
  498SOL    HW1 1493   2.829   2.636   0.206  2.3191 -0.2826 -1.8080
  498SOL    HW2 1494   2.731   2.558   0.315 -1.8696 -1.2789  0.1663
  499SOL     OW 1495   2.155   2.512   0.652 -0.4387 -0.1618  1.0790
  499SOL    HW1 1496   2.145   2.410   0.660  0.0770 -0.9950 -1.8156
  499SOL    HW2 1497   2.239   2.543   0.693 -0.1668  3.7768 -2.4285
  500SOL     OW 1498   0.372   0.476   2.786 -0.0421  0.0691  0.2649
  500SOL    HW1 1499   0.365   0.566   2.830 -1.0893 -1.4565 -0.0719
  500SOL    HW2 1500   0.473   0.463   2.775  0.5186 -2.1548  3.2700
  501SOL     OW 1501   1.747   2.749   1.760 -0.0535  0.2913 -0.2466
  501SOL    HW1 1502   1.756   2.771   1.860 -0.2607 -1.2278  0.6944
  501SOL    HW2 1503   1.650   2.751   1.727  1.0813 -0.3463 -1.5755
  502SOL     OW 1504   0.181   0.058   2.672  0.0288  0.6618 -0.3734
  502SOL    HW1 1505   0.164   3.106   2.750  2.3766 -0.0725 -1.2134
  502SOL    HW2 1506   0.285   0.080   2.664  1.9702 -0.8507  0.4994
  503SOL     OW 1507   1.903   2.412   2.315  0.3369  0.1464  0.1472
  503SOL    HW1 1508   1.904   2.436   2.216 -0.9333 -2.0778 -1.3686
  503SOL    HW2 1509   1.875   2.493   2.375  1.0970 -0.1837  2.0179
  504SOL     OW 1510   1.955   0.242   1.775  0.0948  0.1432  0.7559
  504SOL    HW1 1511   1.873   0.188   1.800  2.0732 -2.3321  0.6137
  504SOL    HW2 1512   1.980   0.219   1.676  0.5853  0.3539  0.3280
  505SOL     OW 1513   2.501   1.605   1.514 -0.1692 -0.1175 -0.2897
  505SOL    HW1 1514   2.579   1.660   1.479 -3.2390 -1.4557 -0.9498
  505SOL    HW2 1515   2.440   1.582   1.432 -1.0106  0.2471  0.2310
  506SOL     OW 1516   3.100   1.476   1.738 -0.5244 -0.0098 -0.4212
  506SOL    HW1 1517   3.074   1.435   1.649  2.0824  1.4936  0.3198
  506SOL    HW2 1518   0.023   1.575   1.729  2.3902  2.1424  0.9402
  507SOL     OW 1519   0.480   2.689   1.665 -0.1985 -0.2982 -0.3971
  507SOL    HW1 1520   0.532   2.686   1.750 -2.0725  2.3922 -0.6805
  507SOL    HW2 1521   0.519   2.626   1.597  0.0343  1.7463  0.3723
  508SOL     OW 1522   0.826   0.662   1.658 -0.7963  0.4398  0.3105
  508SOL    HW1 1523   0.880   0.621   1.733 -1.7822 -0.4220 -0.4471
  508SOL    HW2 1524   0.728   0.637   1.654  0.5720 -0.7816  0.4334
  509SOL     OW 1525   1.685   2.471   1.693 -0.2329 -0.3114  0.4843
  509SOL    HW1 1526   1.728   2.570   1.690  1.1290  2.2477 -1.4260
  509SOL    HW2 1527   1.587   2.476   1.720 -1.6316 -0.4426  0.5672
  510SOL     OW 1528   2.628   1.195   2.694  0.2019  0.0429  0.5005
  510SOL    HW1 1529   2.682   1.124   2.745 -1.7097 -2.2014 -0.5830
  510SOL    HW2 1530   2.534   1.203   2.729  2.4162  0.2124  1.5906
  511SOL     OW 1531   0.782   1.335   1.297 -0.4257 -0.1780 -0.1480
  511SOL    HW1 1532   0.849   1.319   1.223  0.2697  0.4238  0.6847
  511SOL    HW2 1533   0.825   1.322   1.386  2.1271 -0.8918  0.8450
  512SOL     OW 1534   2.667   1.669   0.476  0.0437  0.1206 -0.1436
  512SOL    HW1 1535   2.741   1.614   0.518  1.8498  0.5805 -1.4221
  512SOL    HW2 1536   2.627   1.735   0.548  0.3611  1.3843  4.6973
  513SOL     OW 1537   1.052   1.935   2.282  0.5127  0.2374  0.3076
  513SOL    HW1 1538   1.099   2.017   2.318 -1.0223  0.1876 -2.3160
  513SOL    HW2 1539   1.054   1.857   2.351  1.4490 -0.0981  2.6306
  514SOL     OW 1540   0.274   2.324   1.451  0.5917  0.1974  0.0230
  514SOL    HW1 1541   0.181   2.345   1.495  0.3941 -0.1050  2.1778
  514SOL    HW2 1542   0.254   2.302   1.351 -0.0854  1.5483 -2.1960
  515SOL     OW 1543   2.050   0.973   1.723 -0.3336  0.3259 -0.3296
  515SOL    HW1 1544   2.039   0.901   1.654  0.1385  0.5393 -1.7084
  515SOL    HW2 1545   2.056   1.066   1.680 -0.5554  0.9924 -1.2585
  516SOL     OW 1546   2.630   0.054   3.066  0.7597 -0.3162  0.4360
  516SOL    HW1 1547   2.619   0.079   2.966 -1.8030 -0.4585  1.9562
  516SOL    HW2 1548   2.678   0.130   0.012  2.2253  0.3755  1.4208
  517SOL     OW 1549   1.193   1.716   2.952  0.6998 -0.5323  0.1770
  517SOL    HW1 1550   1.286   1.692   2.917  0.6136 -0.0370  3.0099
  517SOL    HW2 1551   1.124   1.647   2.925 -2.2796 -0.1201  0.6821
  518SOL     OW 1552   1.465   2.998   1.557 -0.2051  0.1116 -0.5507
  518SOL    HW1 1553   1.562   3.019   1.531  1.1405 -1.2569 -3.7167
  518SOL    HW2 1554   1.409   2.976   1.477  4.3385  0.5190  4.3053
  519SOL     OW 1555   2.357   2.643   0.816 -0.7058 -0.1551  0.3175
  519SOL    HW1 1556   2.441   2.589   0.844  2.1722  0.2237 -1.5358
  519SOL    HW2 1557   2.380   2.733   0.779  0.8688 -1.8969  1.2589
  520SOL     OW 1558   2.840   2.135   2.009 -0.2222  0.1950  0.3650
  520SOL    HW1 1559   2.748   2.099   1.986  0.6423  1.1507 -0.3514
  520SOL    HW2 1560   2.855   2.142   2.110  1.1990  1.2074 -1.4930
  521SOL     OW 1561   2.867   0.742   0.022 -0.1188 -0.2782  0.1281
  521SOL    HW1 1562   2.929   0.664   0.040 -1.6309  3.0845  1.3393
  521SOL    HW2 1563   2.921   0.831   0.037  3.0419  0.7602  2.3490
  522SOL     OW 1564   0.825   0.847   2.489  0.5161 -0.0105  0.4225
  522SOL    HW1 1565   0.727   0.865   2.515  0.6866 -0.7917 -2.1939
  522SOL    HW2 1566   0.833   0.801   2.398 -1.1062 -1.5567 -1.8697
  523SOL     OW 1567   0.114   2.522   0.668 -0.3395  0.0959 -0.0829
  523SOL    HW1 1568   0.175   2.483   0.743  1.2308  1.1104  0.7360
  523SOL    HW2 1569   0.126   2.468   0.580 -0.1513 -3.8867  0.0813
  524SOL     OW 1570   1.970   2.573   2.986  0.6655 -0.3222  1.0792
  524SOL    HW1 1571   2.068   2.583   2.960 -0.7863  0.7360  2.0691
  524SOL    HW2 1572   1.977   2.540   3.080  0.8045 -1.6119 -1.2627
  525SOL     OW 1573   2.606   0.466   1.304 -0.8732  0.3875  0.0654
  525SOL    HW1 1574   2.635   0.563   1.278  1.3578 -0.0977 -0.7979
  525SOL    HW2 1575   2.504   0.461   1.304  2.0770  0.4454 -0.6040
  526SOL     OW 1576   1.156   2.737   0.468  0.5469 -0.0571 -0.5701
  526SOL    HW1 1577   1.155   2.823   0.520 -2.4262  0.4005 -1.4981
  526SOL    HW2 1578   1.146   2.658   0.533  0.6165 -1.0055 -3.8582
  527SOL     OW 1579   2.146   2.907   0.447 -0.3645  0.3697  0.2532
  527SOL    HW1 1580   2.102   2.816   0.431 -1.3797 -0.3736  0.0611
  527SOL    HW2 1581   2.235   2.931   0.396  0.6571 -0.6231 -1.4129
  528SOL     OW 1582   1.762   0.788   2.967  0.2002 -0.3370 -0.4291
  528SOL    HW1 1583   1.819   0.788   2.881  3.7485  1.1414 -1.9394
  528SOL    HW2 1584   1.720   0.697   2.987 -3.2302  0.2256  1.0371
  529SOL     OW 1585   1.747   1.380   2.309 -0.6034 -0.7059  0.7610
  529SOL    HW1 1586   1.676   1.354   2.380 -2.0971  2.2044 -0.2899
  529SOL    HW2 1587   1.837   1.337   2.329 -0.3370  0.2916 -1.2470
  530SOL     OW 1588   2.540   2.914   2.939  0.1062  0.5983  0.2017
  530SOL    HW1 1589   2.441   2.903   2.916 -2.6416  1.1447 -0.3465
  530SOL    HW2 1590   2.556   2.981   3.011 -0.1316  1.4412 -1.0900
  531SOL     OW 1591   1.716   1.567   3.015  0.0724  0.3281 -0.2594
  531SOL    HW1 1592   1.648   1.491   3.005 -2.0941  0.6149 -2.4759
  531SOL    HW2 1593   1.675   1.652   2.982  0.1264  2.3137 -1.2421
  532SOL     OW 1594   1.535   0.241   1.128  0.0625 -0.0417 -0.4903
  532SOL    HW1 1595   1.485   0.276   1.211  1.3556  0.2012 -1.9532
  532SOL    HW2 1596   1.620   0.298   1.118  1.0606 -1.1082 -0.1937
  533SOL     OW 1597   0.542   0.914   2.948  0.0622 -0.0573 -0.4396
  533SOL    HW1 1598   0.621   0.958   2.893  0.6294  1.4266 -0.9869
  533SOL    HW2 1599   0.570   0.834   3.009  0.1135  1.5034  0.9180
  534SOL     OW 1600   1.299   0.372   0.099 -0.0093 -0.0929  0.0372
  534SOL    HW1 1601   1.346   0.420   0.023  0.7795 -1.3958  1.0817
  534SOL    HW2 1602   1.359   0.296   0.130  1.5860 -2.5278 -2.0322
  535SOL     OW 1603   0.722   2.219   2.928 -0.1101  0.1947 -0.2909
  535SOL    HW1 1604   0.671   2.279   2.988 -0.5296  0.0112 -0.5249
  535SOL    HW2 1605   0.759   2.133   2.966 -1.9215  1.5610  1.0196
  536SOL     OW 1606   0.597   2.927   0.367 -0.7237 -0.0559 -0.1249
  536SOL    HW1 1607   0.610   2.961   0.275 -0.5556 -2.0946  1.7391
  536SOL    HW2 1608   0.639   2.833   0.373 -1.6858 -1.7140 -0.5655
  537SOL     OW 1609   1.948   0.363   0.210 -0.9242  0.1574 -0.0294
  537SOL    HW1 1610   1.926   0.331   0.304 -1.5293 -2.0658  3.6936
  537SOL    HW2 1611   2.023   0.430   0.213 -1.3342 -0.0185 -0.1788
  538SOL     OW 1612   2.559   2.251   2.902 -0.2092 -0.1674 -0.1494
  538SOL    HW1 1613   2.650   2.280   2.864  0.5456 -2.7615  2.1097
  538SOL    HW2 1614   2.497   2.215   2.827 -1.7122 -1.6218 -1.1378
  539SOL     OW 1615   2.568   1.373   2.938  0.2766  0.5742 -0.0326
  539SOL    HW1 1616   2.505   1.338   2.867  0.9116 -0.5601  1.8443
  539SOL    HW2 1617   2.573   1.308   3.016  1.7785  1.5063 -2.0562
  540SOL     OW 1618   0.774   2.895   1.763 -0.2782  0.0549 -0.3270
  540SOL    HW1 1619   0.822   2.969   1.818  0.6438  2.9090  0.6070
  540SOL    HW2 1620   0.730   2.941   1.684  1.7640  0.9763 -1.5473
  541SOL     OW 1621   2.348   0.078   2.370 -0.1063  0.5793  0.9409
  541SOL    HW1 1622   2.292   0.128   2.437 -1.2293  1.4369 -0.5409
  541SOL    HW2 1623   2.305   3.101   2.336 -1.4786 -0.3671  0.9178
  542SOL     OW 1624   0.187   0.723   3.091  0.5968  0.2342 -0.3372
  542SOL    HW1 1625   0.132   0.637   3.075 -1.4675 -3.9755  1.4281
  542SOL    HW2 1626   0.152   0.775   0.062  1.8539 -1.7671 -0.1047
  543SOL     OW 1627   0.461   0.960   1.089  0.0164  0.1341  0.1356
  543SOL    HW1 1628   0.367   0.997   1.072 -1.5835 -0.0395  0.8447
  543SOL    HW2 1629   0.535   1.018   1.049  1.1466  0.3916 -2.1034
  544SOL     OW 1630   2.604   0.746   1.214  0.1771  0.2151 -0.2663
  544SOL    HW1 1631   2.700   0.750   1.240 -1.3374 -0.8158  1.5274
  544SOL    HW2 1632   2.552   0.794   1.285 -0.3987  0.7380  0.7687
  545SOL     OW 1633   1.192   1.618   0.175 -0.3744  0.9722 -0.3995
  545SOL    HW1 1634   1.254   1.692   0.141  0.2178 -1.3215 -0.1843
  545SOL    HW2 1635   1.187   1.539   0.108  1.8843 -0.2283 -1.2163
  546SOL     OW 1636   2.346   2.555   1.525 -0.4566  0.1523 -0.2148
  546SOL    HW1 1637   2.313   2.478   1.577  2.0206  1.1894 -3.5798
  546SOL    HW2 1638   2.384   2.518   1.435  0.0315 -0.7697 -0.9083
  547SOL     OW 1639   0.796   2.113   2.168  0.4741 -0.0527  0.4611
  547SOL    HW1 1640   0.842   2.026   2.136  3.7884 -1.4911 -4.2983
  547SOL    HW2 1641   0.774   2.106   2.265  2.0086 -1.3152 -1.7607
  548SOL     OW 1642   1.263   0.823   2.921  0.0173 -0.3990  0.2929
  548SOL    HW1 1643   1.164   0.801   2.920  0.2460  3.1504  3.6987
  548SOL    HW2 1644   1.301   0.803   3.013  0.0530 -0.0910 -0.7535
  549SOL     OW 1645   2.428   0.766   0.307  0.2049  0.0631 -0.0739
  549SOL    HW1 1646   2.412   0.672   0.343  1.0163  0.7399  1.1545
  549SOL    HW2 1647   2.355   0.828   0.338  1.3874  0.1604 -0.4121
  550SOL     OW 1648   1.998   1.151   0.253  0.0973  0.0040  0.2794
  550SOL    HW1 1649   2.084   1.202   0.281  0.5599  0.8116  2.3316
  550SOL    HW2 1650   1.952   1.179   0.165  4.1102 -0.1023  2.2875
  551SOL     OW 1651   1.741   0.321   1.392 -0.6234 -0.0128  0.2989
  551SOL    HW1 1652   1.714   0.362   1.483 -1.6134  1.0283 -0.8969
  551SOL    HW2 1653   1.775   0.394   1.327  1.7470  1.4358 -3.2898
  552SOL     OW 1654   1.846   0.106   2.890  0.1621 -0.5779 -0.2192
  552SOL    HW1 1655   1.902   0.186   2.917  0.8179 -1.9059 -0.1371
  552SOL    HW2 1656   1.881   0.018   2.931  1.1767  2.5455  3.1884
  553SOL     OW 1657   0.583   2.775   2.250 -0.7189  0.5411 -0.2195
  553SOL    HW1 1658   0.636   2.701   2.201 -1.6666  1.0575 -1.1423
  553SOL    HW2 1659   0.512   2.811   2.188  2.9312 -2.8567 -1.3900
  554SOL     OW 1660   0.247   0.108   1.483  0.1574 -0.1218  0.3509
  554SOL    HW1 1661   0.279   0.208   1.484  0.6662  2.1411 -0.5404
  554SOL    HW2 1662   0.294   0.043   1.420 -0.3312 -0.1554  3.4863
  555SOL     OW 1663   2.408   1.816   2.094  0.0434 -0.4671 -0.3966
  555SOL    HW1 1664   2.473   1.884   2.134  1.0878 -1.5351 -1.4875
  555SOL    HW2 1665   2.445   1.722   2.102  1.1877 -0.2336 -0.0986
  556SOL     OW 1666   1.082   0.510   0.189  0.2863  0.3265  0.4600
  556SOL    HW1 1667   1.167   0.470   0.154 -0.3754 -0.2425  0.5047
  556SOL    HW2 1668   1.016   0.437   0.217  1.7471 -0.1513 -1.1618
  557SOL     OW 1669   0.220   1.999   2.383  0.3265  0.4962  0.0372
  557SOL    HW1 1670   0.267   2.073   2.326 -3.5000 -0.4267  0.5288
  557SOL    HW2 1671   0.191   1.927   2.317  1.7765  1.8299  1.3161
  558SOL     OW 1672   1.958   0.561   2.961  0.0316  0.4308  0.2729
  558SOL    HW1 1673   1.993   0.469   2.968  0.1962 -0.4515  1.0739
  558SOL    HW2 1674   2.031   0.632   2.959  0.9465  1.2382 -1.2468
  559SOL     OW 1675   2.289   1.882   1.675 -0.3322 -0.5199 -0.0389
  559SOL    HW1 1676   2.323   1.793   1.717  0.0644  1.3828  1.1143
  559SOL    HW2 1677   2.284   1.955   1.746 -0.2916 -1.4939 -2.6073
  560SOL     OW 1678   1.977   1.103   1.990  0.4524 -0.7552 -0.4621
  560SOL    HW1 1679   1.989   1.077   1.894 -1.2430 -0.7351 -0.2812
  560SOL    HW2 1680   1.970   1.205   1.991  0.2923  0.7847 -0.3930
  561SOL     OW 1681   3.065   3.089   2.931  0.0347 -0.6894  0.0597
  561SOL    HW1 1682   3.030   3.005   2.885  0.5654  2.7329 -1.0124
  561SOL    HW2 1683   0.057   3.090   2.955  0.8218 -1.2676  1.4549
  562SOL     OW 1684   1.103   1.795   1.438 -0.8525 -0.2553  0.6460
  562SOL    HW1 1685   1.185   1.758   1.486  1.2832  1.9480 -0.8919
  562SOL    HW2 1686   1.135   1.844   1.356 -1.2075  0.3091  1.5194
  563SOL     OW 1687   0.925   0.286   0.215 -0.0257 -0.0938 -0.4387
  563SOL    HW1 1688   0.984   0.212   0.257 -0.4326 -2.3554  1.4592
  563SOL    HW2 1689   0.840   0.240   0.186  3.2408 -1.5127 -0.1606
  564SOL     OW 1690   3.018   2.644   0.827 -0.1224 -0.3881  0.0793
  564SOL    HW1 1691   3.102   2.621   0.774 -1.7326  0.4121  2.3614
  564SOL    HW2 1692   2.937   2.646   0.762 -1.1229  0.3730 -0.2286
  565SOL     OW 1693   0.612   2.282   1.206  0.1379 -0.1720 -0.2838
  565SOL    HW1 1694   0.603   2.257   1.307  1.0234 -0.2652  2.7145
  565SOL    HW2 1695   0.566   2.217   1.143  1.5969  3.2500 -1.0283
  566SOL     OW 1696   1.253   0.128   2.724 -0.7878  0.3466 -0.2107
  566SOL    HW1 1697   1.252   0.074   2.814 -0.1702 -1.9555  2.3594
  566SOL    HW2 1698   1.183   0.091   2.661  2.2247 -0.2151  0.5217
  567SOL     OW 1699   2.211   3.003   0.913  0.2855 -0.3178  0.3910
  567SOL    HW1 1700   2.302   2.959   0.926  1.9541 -0.6242  5.2873
  567SOL    HW2 1701   2.175   2.975   0.817 -2.1590 -0.8811 -0.7136
  568SOL     OW 1702   1.643   1.487   0.636  0.6536 -0.4640  0.0628
  568SOL    HW1 1703   1.736   1.532   0.640 -1.0577 -0.8013 -0.7661
  568SOL    HW2 1704   1.582   1.520   0.559 -0.9232 -2.1293 -1.2739
  569SOL     OW 1705   2.181   1.155   2.443 -0.4300 -0.4738 -0.2585
  569SOL    HW1 1706   2.151   1.081   2.381  1.6433  1.6507  0.1092
  569SOL    HW2 1707   2.264   1.125   2.496 -0.2456 -1.0489 -2.0238
  570SOL     OW 1708   3.092   0.026   2.082  0.3177  0.0643  0.4089
  570SOL    HW1 1709   3.070   0.097   2.158  1.4295  1.0873  0.7476
  570SOL    HW2 1710   0.020   3.046   2.119 -0.3642  0.5165 -0.0988
  571SOL     OW 1711   0.443   2.997   1.730  0.0721  0.0037  0.1572
  571SOL    HW1 1712   0.490   2.911   1.765 -2.5719  0.0418 -0.3257
  571SOL    HW2 1713   0.364   2.975   1.671 -0.0682  1.3455  0.4007
  572SOL     OW 1714   2.964   2.258   1.248 -0.4862  0.2279  0.1114
  572SOL    HW1 1715   2.919   2.338   1.287  0.1042 -0.3554  0.2244
  572SOL    HW2 1716   2.917   2.226   1.162  3.2441 -1.6639 -1.2874
  573SOL     OW 1717   0.997   0.793   2.895  0.6114 -0.1458 -0.1585
  573SOL    HW1 1718   0.943   0.709   2.876  1.3600 -0.6030 -2.3019
  573SOL    HW2 1719   0.965   0.870   2.837 -0.5383 -0.7450  0.4391
  574SOL     OW 1720   2.475   2.616   2.410 -0.0415  0.3552  0.6699
  574SOL    HW1 1721   2.477   2.719   2.399 -0.5186 -0.9488 -0.4018
  574SOL    HW2 1722   2.402   2.577   2.350  0.0490  0.0495 -0.0091
  575SOL     OW 1723   1.299   2.904   0.895  0.3582  0.0732 -0.5448
  575SOL    HW1 1724   1.261   2.956   0.972  2.0979  1.7698  1.0762
  575SOL    HW2 1725   1.362   2.834   0.929 -0.3189 -0.1552 -0.2737
  576SOL     OW 1726   1.195   0.502   1.081  0.2251  0.6923 -0.3608
  576SOL    HW1 1727   1.195   0.401   1.054  1.1836 -1.5391  0.0202
  576SOL    HW2 1728   1.108   0.539   1.049  0.9851  0.6670  1.6254
  577SOL     OW 1729   2.174   1.455   0.468 -0.3085 -0.1998 -0.0303
  577SOL    HW1 1730   2.275   1.458   0.435  2.6094  2.3185 -0.8200
  577SOL    HW2 1731   2.156   1.383   0.538  0.2882  2.2264 -0.9309
  578SOL     OW 1732   2.014   0.790   0.987 -0.1876 -0.1869 -0.3382
  578SOL    HW1 1733   1.919   0.811   1.015  0.1285  1.1543 -1.5429
  578SOL    HW2 1734   2.067   0.762   1.072  0.3611 -2.0385 -3.0409
  579SOL     OW 1735   1.865   0.956   2.618 -0.3383 -0.7277 -0.7882
  579SOL    HW1 1736   1.815   1.007   2.544  0.2991 -0.8478 -0.7214
  579SOL    HW2 1737   1.877   1.017   2.696  1.4758 -1.7384  0.2794
  580SOL     OW 1738   1.501   0.864   1.936 -0.3756 -0.6716 -0.5970
  580SOL    HW1 1739   1.453   0.946   1.910 -1.4198 -0.0443 -2.3493
  580SOL    HW2 1740   1.442   0.813   2.007 -1.1753 -0.9800  1.2130
  581SOL     OW 1741   0.206   0.641   1.021 -0.4760  0.2974 -0.3435
  581SOL    HW1 1742   0.114   0.648   1.055  0.9910  0.2451  1.3987
  581SOL    HW2 1743   0.205   0.626   0.919  1.0824  2.0086 -1.3633
  582SOL     OW 1744   2.956   0.460   1.872  0.4778  0.1546 -0.1576
  582SOL    HW1 1745   2.875   0.466   1.808  0.2565 -1.8804  3.6659
  582SOL    HW2 1746   2.931   0.422   1.964 -1.9439 -0.3982  3.4146
  583SOL     OW 1747   0.168   0.427   2.608  0.1534  0.0742  0.1913
  583SOL    HW1 1748   0.256   0.445   2.661 -1.2185  1.5199  4.5288
  583SOL    HW2 1749   0.150   0.325   2.597 -1.1691 -1.0754  1.2210
  584SOL     OW 1750   2.082   2.401   0.080  0.3405 -0.0123 -0.0160
  584SOL    HW1 1751   2.074   2.325   0.020  1.5607  4.6659  2.3394
  584SOL    HW2 1752   2.001   2.413   0.144  1.4171  1.3311 -3.0845
  585SOL     OW 1753   0.092   2.375   0.055 -0.2023 -0.0613  0.2141
  585SOL    HW1 1754   0.130   2.286   0.027 -0.4685 -0.7164  1.7451
  585SOL    HW2 1755   0.157   2.440   0.100  1.5533 -1.4739 -0.9746
  586SOL     OW 1756   1.819   1.841   2.235  0.7083 -0.0372 -0.3420
  586SOL    HW1 1757   1.800   1.775   2.160  2.2734  0.2886  1.3847
  586SOL    HW2 1758   1.896   1.903   2.209  2.9365 -1.5516 -0.3539
  587SOL     OW 1759   2.337   1.715   2.767  0.0561 -0.1343  0.0924
  587SOL    HW1 1760   2.350   1.629   2.710 -2.7883 -3.5839 -0.6716
  587SOL    HW2 1761   2.252   1.753   2.728  0.5528  1.0707 -0.7795
  588SOL     OW 1762   3.011   0.312   1.282  0.7399 -0.2544  0.1392
  588SOL    HW1 1763   3.000   0.348   1.185 -0.7494  1.6479 -0.1669
  588SOL    HW2 1764   3.077   0.372   1.338  3.4016  1.4311  0.5966
  589SOL     OW 1765   0.947   0.356   0.574 -0.8702  0.1415  0.1865
  589SOL    HW1 1766   0.959   0.441   0.523 -0.5972 -2.7294 -0.1346
  589SOL    HW2 1767   0.848   0.328   0.580 -3.0920 -1.9571  0.6308
  590SOL     OW 1768   2.626   2.062   0.533 -0.1902  0.1373  0.7108
  590SOL    HW1 1769   2.552   2.134   0.539 -0.5374 -2.2905  0.4989
  590SOL    HW2 1770   2.623   2.022   0.439  1.5555  0.2388  0.3665
  591SOL     OW 1771   0.585   2.621   0.990 -0.0317 -0.7113 -0.1318
  591SOL    HW1 1772   0.646   2.552   0.950 -0.7583  2.6573  0.6347
  591SOL    HW2 1773   0.502   2.638   0.939 -0.0376  1.5182 -0.0722
  592SOL     OW 1774   1.549   1.041   1.091 -0.4511  0.2824  0.0922
  592SOL    HW1 1775   1.552   1.131   1.144  2.1628  3.3900  1.3629
  592SOL    HW2 1776   1.505   0.965   1.137 -2.3355  0.2333 -1.0464
  593SOL     OW 1777   1.142   2.300   1.643  0.2433  0.3325  0.2503
  593SOL    HW1 1778   1.154   2.399   1.664 -2.7813  1.9482  0.7565
  593SOL    HW2 1779   1.205   2.260   1.572 -3.0328  1.0515  1.8387
  594SOL     OW 1780   0.916   1.478   0.163 -0.4637  0.7485 -0.3441
  594SOL    HW1 1781   0.942   1.383   0.159 -1.1107  1.3821  2.5688
  594SOL    HW2 1782   0.952   1.504   0.258 -0.8238 -0.5135 -0.9501
  595SOL     OW 1783   1.794   1.165   1.657  0.3040 -0.2645 -0.1274
  595SOL    HW1 1784   1.733   1.212   1.723 -0.8353  2.0674 -0.3647
  595SOL    HW2 1785   1.764   1.175   1.560  0.3844 -1.8188  1.5765
  596SOL     OW 1786   2.871   1.194   2.219 -0.0528 -0.4134 -0.6378
  596SOL    HW1 1787   2.924   1.210   2.303  2.3270 -1.5930 -0.7679
  596SOL    HW2 1788   2.919   1.223   2.135  1.6718 -1.4449 -0.0872
  597SOL     OW 1789   1.330   2.631   1.899 -0.4544 -0.7003  0.6998
  597SOL    HW1 1790   1.239   2.663   1.901  1.4280  1.1037 -1.1021
  597SOL    HW2 1791   1.368   2.622   1.992 -3.8410  0.0746 -2.3947
  598SOL     OW 1792   2.305   1.350   1.502  0.4080 -0.5665 -0.1851
  598SOL    HW1 1793   2.303   1.393   1.412 -2.4065 -2.0524  2.3603
  598SOL    HW2 1794   2.225   1.385   1.556 -1.6621 -1.2070  0.7887
  599SOL     OW 1795   0.840   2.603   2.956 -0.4940 -0.4950 -0.0135
  599SOL    HW1 1796   0.796   2.631   3.045 -0.8735  0.6030  0.3182
  599SOL    HW2 1797   0.901   2.518   2.964  1.3497 -0.4647  0.5993
  600SOL     OW 1798   3.007   2.318   0.251 -0.2150  0.3364  0.2213
  600SOL    HW1 1799   3.071   2.317   0.170 -0.3239  0.0774 -1.6738
  600SOL    HW2 1800   3.005   2.229   0.300 -0.5854 -0.4679 -0.2335
  601SOL     OW 1801   0.600   0.943   1.420 -0.0844 -0.1339 -0.4820
  601SOL    HW1 1802   0.569   0.856   1.377  2.2678 -1.2054 -0.4146
  601SOL    HW2 1803   0.669   0.934   1.494  1.5412  0.1577 -2.8665
  602SOL     OW 1804   0.560   0.073   1.157 -0.1092  0.1593 -0.6790
  602SOL    HW1 1805   0.652   0.117   1.186  2.5113 -0.5038 -0.6956
  602SOL    HW2 1806   0.574   0.030   1.065 -1.0578  1.3303  0.7829
  603SOL     OW 1807   0.463   3.103   2.811  0.3068 -0.0011  0.8905
  603SOL    HW1 1808   0.485   0.094   2.800  2.9935 -1.5282 -3.4386
  603SOL    HW2 1809   0.524   3.044   2.755 -0.1979  0.1511 -1.1928
  604SOL     OW 1810   1.081   2.493   1.376 -0.7762  0.2053  0.1978
  604SOL    HW1 1811   1.099   2.393   1.391  0.7919 -0.7983  0.2039
  604SOL    HW2 1812   0.988   2.498   1.337 -4.3868 -0.0097  1.6799
  605SOL     OW 1813   1.552   1.179   1.921 -0.1352  0.0209  0.3705
  605SOL    HW1 1814   1.598   1.269   1.891  0.0362 -0.2913 -0.9915
  605SOL    HW2 1815   1.457   1.184   1.887  2.3862  1.1554  0.1864
  606SOL     OW 1816   2.166   2.881   3.063 -0.4034  0.5263  0.0897
  606SOL    HW1 1817   2.168   2.790   0.003  1.7532 -2.4438  3.5501
  606SOL    HW2 1818   2.207   2.876   2.969 -0.6566  1.1908  1.9866
  607SOL     OW 1819   0.656   0.086   1.899 -0.3671  0.0958 -0.0622
  607SOL    HW1 1820   0.639   0.145   1.817 -0.9571  1.1423 -0.8771
  607SOL    HW2 1821   0.752   0.053   1.898 -0.6476 -0.5013 -0.8959
  608SOL     OW 1822   0.138   2.240   2.036 -0.2410  0.4072 -0.0148
  608SOL    HW1 1823   0.055   2.184   2.048  4.5759  1.7401 -1.2779
  608SOL    HW2 1824   0.152   2.265   1.938  1.5087 -0.3061  1.7764
  609SOL     OW 1825   0.972   0.983   0.255 -0.0116  0.1651 -0.2723
  609SOL    HW1 1826   0.940   0.948   0.345  0.8689 -1.2670 -0.6637
  609SOL    HW2 1827   0.943   0.919   0.183  2.1148 -0.5121  0.7397
  610SOL     OW 1828   0.402   2.898   1.084  0.3525  0.9735  0.0379
  610SOL    HW1 1829   0.446   2.977   1.036  1.2460 -2.2649  0.6970
  610SOL    HW2 1830   0.339   2.930   1.157  1.7076 -0.1528  4.1238
  611SOL     OW 1831   0.810   1.337   0.689 -0.6047  0.4189 -0.2644
  611SOL    HW1 1832   0.733   1.331   0.620 -0.5886 -0.9002  2.4538
  611SOL    HW2 1833   0.872   1.258   0.677 -0.0865 -3.4957  1.0853
  612SOL     OW 1834   2.088   1.839   0.461  0.0252  0.6433  0.2938
  612SOL    HW1 1835   2.157   1.904   0.433 -3.7358 -1.8676 -0.6510
  612SOL    HW2 1836   2.125   1.776   0.532 -1.0630  0.3283 -1.8158
  613SOL     OW 1837   1.476   1.595   0.406  0.0813 -0.2336  0.4547
  613SOL    HW1 1838   1.519   1.665   0.343  1.2231  1.9801 -1.0741
  613SOL    HW2 1839   1.431   1.516   0.359  0.4091  0.3323  0.5763
  614SOL     OW 1840   2.822   0.515   2.548 -0.2469  0.4824 -0.2632
  614SOL    HW1 1841   2.807   0.567   2.463 -2.8974 -0.3513  1.1627
  614SOL    HW2 1842   2.863   0.573   2.618 -1.0728 -0.1202 -0.3285
  615SOL     OW 1843   0.808   1.681   0.472  0.4922  0.4185  0.2034
  615SOL    HW1 1844   0.874   1.601   0.458 -0.2289 -2.3223  0.6934
  615SOL    HW2 1845   0.723   1.644   0.519 -0.8203 -0.6726  4.4997
  616SOL     OW 1846   1.417   0.831   2.685 -0.1088  0.0417 -0.8438
  616SOL    HW1 1847   1.426   0.736   2.649 -2.4185  1.2201  1.9755
  616SOL    HW2 1848   1.367   0.834   2.768  3.7109  1.3197 -5.1940
  617SOL     OW 1849   1.697   0.506   0.521 -0.0722 -0.0412  0.5328
  617SOL    HW1 1850   1.695   0.595   0.468 -1.9231  1.0984 -0.7749
  617SOL    HW2 1851   1.606   0.487   0.558  3.0982  0.9363 -0.5098
  618SOL     OW 1852   3.007   1.947   2.362 -0.2868  0.1121 -0.2065
  618SOL    HW1 1853   3.094   1.897   2.367  4.2174 -0.9657 -1.7381
  618SOL    HW2 1854   2.932   1.885   2.325  0.0071 -0.5985 -0.8227
  619SOL     OW 1855   2.433   1.721   0.845 -0.3889 -0.2437  0.3135
  619SOL    HW1 1856   2.431   1.795   0.918 -1.5852  1.9894  2.0873
  619SOL    HW2 1857   2.513   1.739   0.778  1.5816  0.7660 -1.1939
  620SOL     OW 1858   2.354   0.070   1.237 -0.2669 -0.1541 -0.3950
  620SOL    HW1 1859   2.320   0.128   1.158 -0.6179  1.6891 -2.1328
  620SOL    HW2 1860   2.288   3.099   1.247 -0.5067 -0.8148 -0.4630
  621SOL     OW 1861   3.087   2.043   0.747 -0.3886 -0.5677 -0.0038
  621SOL    HW1 1862   3.004   2.086   0.706 -0.0010  1.6577 -0.2856
  621SOL    HW2 1863   0.020   2.107   0.820 -0.4534  0.5459 -2.1355
  622SOL     OW 1864   0.641   1.819   1.990 -0.5634  0.0486  0.2777
  622SOL    HW1 1865   0.591   1.909   1.992  0.3261  3.2236  2.2226
  622SOL    HW2 1866   0.742   1.834   2.005 -0.6099 -0.2860  0.3938
  623SOL     OW 1867   2.483   2.887   2.364 -0.1759  0.1593 -0.0676
  623SOL    HW1 1868   2.387   2.912   2.336 -1.3210 -0.6779  0.6387
  623SOL    HW2 1869   2.522   2.955   2.427  2.4220  1.6158  1.1259
  624SOL     OW 1870   0.755   1.965   0.433 -0.2791  0.1181  0.5431
  624SOL    HW1 1871   0.787   1.868   0.453  0.9085 -1.5542  1.4407
  624SOL    HW2 1872   0.739   1.984   0.334  1.6596 -0.1998 -0.7270
  625SOL     OW 1873   0.909   1.869   2.071 -0.1921  0.2576 -0.2345
  625SOL    HW1 1874   0.933   1.786   2.022 -3.1655  0.1375 -2.5515
  625SOL    HW2 1875   0.971   1.888   2.151  0.3572  3.1348 -0.9024
  626SOL     OW 1876   0.109   2.394   0.413  0.1517 -0.3592 -0.3832
  626SOL    HW1 1877   0.129   2.310   0.464 -1.5697 -0.2977  1.3106
  626SOL    HW2 1878   0.020   2.383   0.367  1.5190  1.5021 -0.8906
  627SOL     OW 1879   1.272   1.683   2.319 -0.0692  0.1765  0.4284
  627SOL    HW1 1880   1.292   1.580   2.330 -0.9879 -1.4391 -0.4901
  627SOL    HW2 1881   1.192   1.711   2.380 -2.7320 -0.5789  0.7695
  628SOL     OW 1882   1.289   1.882   0.193 -0.1041 -0.2293 -0.5731
  628SOL    HW1 1883   1.225   1.962   0.173 -0.5648 -2.8802 -0.8897
  628SOL    HW2 1884   1.377   1.913   0.229 -1.2153  1.5557  1.1493
  629SOL     OW 1885   0.968   0.506   1.835 -0.0151  0.4653 -0.2808
  629SOL    HW1 1886   0.932   0.544   1.922  3.0448  2.1671  0.0883
  629SOL    HW2 1887   1.072   0.493   1.839  4.6391 -1.5066 -1.2882
  630SOL     OW 1888   2.370   2.925   1.629  0.1149 -0.4146 -0.1078
  630SOL    HW1 1889   2.431   2.838   1.632  0.4346 -1.3073  1.8673
  630SOL    HW2 1890   2.289   2.912   1.691 -2.2521 -2.8271 -0.4374
  631SOL     OW 1891   1.564   0.758   0.767 -0.0061  0.2169  0.1451
  631SOL    HW1 1892   1.463   0.774   0.756 -0.0461  1.1187 -1.9730
  631SOL    HW2 1893   1.566   0.671   0.818  1.6796  3.3883 -1.5903
  632SOL     OW 1894   2.163   0.403   2.137  0.2948 -0.7358 -0.5529
  632SOL    HW1 1895   2.255   0.361   2.161 -0.5207 -0.4794  1.4880
  632SOL    HW2 1896   2.170   0.509   2.110  0.1894  2.1657 -1.2962
  633SOL     OW 1897   1.561   1.063   2.926 -0.7079  0.0436  0.1324
  633SOL    HW1 1898   1.479   1.034   2.980 -1.0981  0.5135  0.4837
  633SOL    HW2 1899   1.625   0.985   2.910  1.7000 -2.5943  0.1829
  634SOL     OW 1900   0.398   2.141   0.215  0.3243 -0.0495  0.2607
  634SOL    HW1 1901   0.464   2.205   0.256 -1.2889 -1.8657 -1.4567
  634SOL    HW2 1902   0.399   2.154   0.111 -0.1672  1.9408 -1.4030
  635SOL     OW 1903   2.829   1.610   2.069 -0.3423  0.0815  0.7383
  635SOL    HW1 1904   2.903   1.547   2.095 -2.6401  2.5791 -1.6804
  635SOL    HW2 1905   2.763   1.557   2.016  2.4143 -1.4216  0.8659
  636SOL     OW 1906   0.448   1.763   2.769  0.8316  0.1133 -0.2113
  636SOL    HW1 1907   0.407   1.675   2.806 -6.7903 -4.0242  2.3276
  636SOL    HW2 1908   0.367   1.824   2.752 -2.4300 -1.1711 -3.1330
  637SOL     OW 1909   3.054   2.105   0.405  0.1542 -0.4226  0.6149
  637SOL    HW1 1910   0.042   2.091   0.429 -1.7778  0.7579  0.2756
  637SOL    HW2 1911   2.991   2.108   0.487 -0.3815  0.6870  0.6027
  638SOL     OW 1912   2.585   2.649   0.642 -0.8154  0.0516  0.3869
  638SOL    HW1 1913   2.513   2.719   0.627 -0.9807  1.0463  4.2123
  638SOL    HW2 1914   2.570   2.572   0.573 -1.2987 -1.8176 -2.0606
  639SOL     OW 1915   0.931   0.595   0.403 -0.3797  0.1966  0.6201
  639SOL    HW1 1916   0.997   0.581   0.328  0.0086  1.1988  0.8609
  639SOL    HW2 1917   0.917   0.693   0.424 -0.5146 -0.9919 -0.1501
  640SOL     OW 1918   2.417   2.370   1.850  0.3233 -0.1806  0.1257
  640SOL    HW1 1919   2.494   2.435   1.833 -1.2088 -2.0227 -1.5077
  640SOL    HW2 1920   2.379   2.336   1.762  0.0361  0.4562  1.4112
  641SOL     OW 1921   2.473   2.921   1.321  0.1269 -0.6070  0.6318
  641SOL    HW1 1922   2.390   2.936   1.263 -1.4866 -1.6292 -0.3171
  641SOL    HW2 1923   2.462   2.943   1.420 -0.1945  1.6919 -0.6768
  642SOL     OW 1924   1.018   1.047   1.643 -0.1010  0.3599  0.2531
  642SOL    HW1 1925   1.017   0.963   1.584  0.7597 -0.6073 -1.2461
  642SOL    HW2 1926   1.106   1.093   1.633  2.0526 -1.9459 -1.6346
  643SOL     OW 1927   1.105   1.245   1.971 -0.6982  0.0771 -0.0717
  643SOL    HW1 1928   1.010   1.217   1.956  1.0069  1.6830  0.4534
  643SOL    HW2 1929   1.120   1.338   1.927  0.8958  0.7865 -2.4864
  644SOL     OW 1930   1.065   0.276   2.206  0.0436  0.3734  0.2134
  644SOL    HW1 1931   0.977   0.332   2.206 -1.3839  3.6963 -0.7499
  644SOL    HW2 1932   1.141   0.324   2.255 -0.5396  1.0755  2.1815
  645SOL     OW 1933   2.038   1.218   1.599 -0.3540 -0.1809 -0.2072
  645SOL    HW1 1934   1.937   1.201   1.624 -0.5873  2.1426  1.7691
  645SOL    HW2 1935   2.050   1.317   1.593  0.0993 -0.0435 -0.9510
  646SOL     OW 1936   1.679   2.255   0.178 -0.0442 -0.1609  0.6809
  646SOL    HW1 1937   1.664   2.291   0.083  2.8295 -2.1302  1.3938
  646SOL    HW2 1938   1.725   2.166   0.174  0.9438 -2.3352 -0.1965
  647SOL     OW 1939   1.617   2.509   0.871 -0.0098  0.2756 -0.3835
  647SOL    HW1 1940   1.698   2.559   0.826  0.1825  3.4089 -0.9850
  647SOL    HW2 1941   1.589   2.422   0.816 -0.8006 -0.4104 -1.0865
  648SOL     OW 1942   0.032   2.541   1.517 -0.1320 -0.2129  0.7274
  648SOL    HW1 1943   0.011   2.641   1.500 -0.2142 -1.5985 -0.1534
  648SOL    HW2 1944   3.069   2.481   1.556  2.5740  0.6334  2.5559
  649SOL     OW 1945   1.257   2.536   2.810  0.1351 -0.1280 -0.1256
  649SOL    HW1 1946   1.253   2.440   2.838 -1.0947 -0.1746 -1.6067
  649SOL    HW2 1947   1.323   2.550   2.735 -0.7226 -1.2543  1.8205
  650SOL     OW 1948   2.685   1.692   0.058  0.4246 -0.3368  0.5820
  650SOL    HW1 1949   2.716   1.733   0.145 -0.7531  1.3343 -0.4603
  650SOL    HW2 1950   2.595   1.642   0.066  2.2704 -0.5654 -3.0924
  651SOL     OW 1951   2.381   2.245   2.303 -0.3812  1.0169  0.2307
  651SOL    HW1 1952   2.464   2.209   2.352 -4.4653 -0.7734 -1.3761
  651SOL    HW2 1953   2.295   2.202   2.338  0.9557  0.3162  1.3621
  652SOL     OW 1954   2.498   2.488   0.395  0.0744 -0.2377  0.0056
  652SOL    HW1 1955   2.452   2.567   0.354 -0.7137  0.2242  1.3414
  652SOL    HW2 1956   2.586   2.461   0.345  1.1098 -0.4748  2.0232
  653SOL     OW 1957   2.690   1.766   1.385 -0.4706  0.1373  0.0724
  653SOL    HW1 1958   2.717   1.863   1.366  0.1986  1.2490  0.4262
  653SOL    HW2 1959   2.767   1.697   1.376  1.0449 -2.0589 -0.6688
  654SOL     OW 1960   0.599   1.142   0.003  0.3263 -0.0610  0.0471
  654SOL    HW1 1961   0.701   1.152   0.012 -0.2550 -1.4866 -0.0416
  654SOL    HW2 1962   0.574   1.052   3.071 -0.5807  3.0800 -2.3446
  655SOL     OW 1963   1.152   1.245   0.909  0.3650  0.3129 -0.1461
  655SOL    HW1 1964   1.234   1.187   0.896  5.0823  1.2554 -1.7196
  655SOL    HW2 1965   1.179   1.336   0.951  0.2241 -0.6833  0.0085
  656SOL     OW 1966   1.432   2.650   2.174 -0.5706  0.3256  0.5174
  656SOL    HW1 1967   1.353   2.697   2.219 -1.6996 -0.8537  0.3965
  656SOL    HW2 1968   1.413   2.549   2.188 -0.5100  0.9012 -0.7782
  657SOL     OW 1969   1.794   1.431   0.356 -0.4265 -0.1604  0.7782
  657SOL    HW1 1970   1.730   1.358   0.341 -1.2256 -0.3710 -0.9591
  657SOL    HW2 1971   1.791   1.497   0.277 -0.4843 -0.5227 -0.2308
  658SOL     OW 1972   1.814   3.075   1.790  0.2122  0.6149 -0.2464
  658SOL    HW1 1973   1.843   3.025   1.872  0.0710 -0.0486 -1.6229
  658SOL    HW2 1974   1.877   3.047   1.712  1.3030  0.8495 -1.9774
  659SOL     OW 1975   2.788   1.832   0.260 -0.1462 -0.1337 -0.3986
  659SOL    HW1 1976   2.885   1.796   0.246  1.2911  0.5291 -0.7377
  659SOL    HW2 1977   2.752   1.791   0.345  1.9533  1.3811 -0.8282
  660SOL     OW 1978   1.191   0.250   0.967  0.3871 -0.2987 -0.1774
  660SOL    HW1 1979   1.115   0.196   1.003  2.5320  2.8682  2.9023
  660SOL    HW2 1980   1.268   0.184   0.955  0.3625  0.1237  1.7818
  661SOL     OW 1981   1.676   0.310   0.110  0.1971  0.6141  0.3552
  661SOL    HW1 1982   1.753   0.365   0.139  1.4121 -3.5593 -1.1226
  661SOL    HW2 1983   1.716   0.216   0.097  1.5203 -1.1916  0.8125
  662SOL     OW 1984   0.542   0.105   0.464 -0.2573 -0.5127  0.4773
  662SOL    HW1 1985   0.479   0.097   0.547 -0.2353  0.5768  3.0596
  662SOL    HW2 1986   0.567   0.007   0.437 -0.1756 -0.1488 -1.3728
  663SOL     OW 1987   1.473   2.620   2.668 -0.4048  0.5248  0.4183
  663SOL    HW1 1988   1.438   2.653   2.576 -1.2411  1.4686  1.9998
  663SOL    HW2 1989   1.534   2.537   2.657 -0.3355 -0.5033 -1.0680
  664SOL     OW 1990   0.542   2.513   1.467 -0.1200  0.3375 -0.5126
  664SOL    HW1 1991   0.544   2.412   1.462  0.9824  0.0561 -1.0847
  664SOL    HW2 1992   0.495   2.553   1.382 -0.3729  0.1029 -1.5062
  665SOL     OW 1993   1.645   2.751   1.204  0.0107 -0.1204  0.3420
  665SOL    HW1 1994   1.577   2.734   1.135 -0.4913 -3.1105  1.2173
  665SOL    HW2 1995   1.595   2.751   1.294  0.6320  2.3065  4.3577
  666SOL     OW 1996   1.037   2.443   2.659  0.2995 -0.5730  0.0847
  666SOL    HW1 1997   0.949   2.438   2.703  3.2326  0.1343 -1.3178
  666SOL    HW2 1998   1.102   2.515   2.698  0.4860  0.0094  2.7646
  667SOL     OW 1999   2.992   0.642   1.503  0.0763 -0.5034 -0.3671
  667SOL    HW1 2000   2.982   0.625   1.603 -1.2255  0.5204 -0.3551
  667SOL    HW2 2001   3.060   0.583   1.463 -1.2765 -2.1437  0.5844
  668SOL     OW 2002   1.021   0.176   1.718 -0.1697  0.2893 -0.3049
  668SOL    HW1 2003   1.089   0.159   1.643  0.1303 -2.5716 -0.4497
  668SOL    HW2 2004   0.933   0.227   1.691 -1.4052  3.3891  0.0512
  669SOL     OW 2005   1.897   2.706   1.205 -0.6539 -0.1820  0.0690
  669SOL    HW1 2006   1.798   2.739   1.205 -0.6862  1.8888  1.3224
  669SOL    HW2 2007   1.959   2.784   1.182 -0.6553  1.2422  0.2213
  670SOL     OW 2008   1.621   2.293   3.002  0.3039 -0.3589 -0.1636
  670SOL    HW1 2009   1.563   2.230   2.947 -0.4596  1.1326 -1.2202
  670SOL    HW2 2010   1.682   2.350   2.944 -2.1836  0.9008  0.1248
  671SOL     OW 2011   0.126   1.142   3.018 -0.1872  0.6701  0.3888
  671SOL    HW1 2012   0.087   1.202   2.943 -5.4529  0.5855 -1.8641
  671SOL    HW2 2013   0.228   1.149   3.012  1.4872  1.5214  0.3731
  672SOL     OW 2014   2.656   0.410   2.764 -0.5701  0.3853 -0.0639
  672SOL    HW1 2015   2.657   0.484   2.833 -2.0586  0.3097  0.3790
  672SOL    HW2 2016   2.715   0.424   2.682  0.9101 -1.9371 -0.5723
  673SOL     OW 2017   0.045   2.060   1.290 -0.2828  0.2460 -0.3256
  673SOL    HW1 2018   3.105   1.998   1.360 -0.1579 -1.8883  1.4323
  673SOL    HW2 2019   3.094   2.141   1.272 -2.4310  0.0739 -2.8596
  674SOL     OW 2020   1.503   2.110   1.536  0.0105  0.0774 -0.3584
  674SOL    HW1 2021   1.457   2.051   1.605 -0.5406 -0.0578 -0.7882
  674SOL    HW2 2022   1.522   2.048   1.456 -1.5370 -0.9749 -0.6173
  675SOL     OW 2023   0.996   1.422   1.147  0.5229 -0.5424 -0.1233
  675SOL    HW1 2024   1.087   1.440   1.107  1.0897 -0.3448 -0.1022
  675SOL    HW2 2025   0.940   1.505   1.138  1.7171 -0.7564  1.5746
  676SOL     OW 2026   2.496   0.764   0.967  0.2851  0.3757 -0.3669
  676SOL    HW1 2027   2.411   0.817   0.956  0.1687  1.1570  2.6239
  676SOL    HW2 2028   2.532   0.785   1.062 -1.9293 -0.3973  1.9475
  677SOL     OW 2029   2.598   0.298   0.340 -0.1411  0.3862 -0.3481
  677SOL    HW1 2030   2.626   0.203   0.366 -1.1669  0.2389  2.8792
  677SOL    HW2 2031   2.655   0.340   0.265  0.8432 -0.5680  0.6243
  678SOL     OW 2032   2.587   1.200   1.104 -0.2812  0.3176  0.0646
  678SOL    HW1 2033   2.542   1.146   1.177  2.9700  0.9493 -3.0625
  678SOL    HW2 2034   2.599   1.298   1.128  0.3189 -1.1666 -1.0798
  679SOL     OW 2035   2.766   0.442   0.157 -0.2936  0.4312 -0.0074
  679SOL    HW1 2036   2.741   0.538   0.138  0.3932 -0.2831 -1.8736
  679SOL    HW2 2037   2.771   0.382   0.076  1.4183 -0.0429 -0.4874
  680SOL     OW 2038   0.628   1.642   2.203 -0.0604 -0.0585  0.4732
  680SOL    HW1 2039   0.639   1.735   2.168  2.5152  2.4908 -1.5521
  680SOL    HW2 2040   0.557   1.640   2.282  0.3088  0.4830 -1.3471
  681SOL     OW 2041   2.656   2.215   1.722  0.0092 -0.0639  0.0006
  681SOL    HW1 2042   2.670   2.306   1.767 -0.0456  0.6655  1.1250
  681SOL    HW2 2043   2.634   2.139   1.791  0.1329 -0.4718  1.4116
  682SOL     OW 2044   0.637   1.844   2.597 -0.3686  0.3768  0.5475
  682SOL    HW1 2045   0.573   1.807   2.665  1.2078 -0.7456  0.6749
  682SOL    HW2 2046   0.637   1.943   2.599  0.9739 -0.6930 -0.3897
  683SOL     OW 2047   2.687   2.035   1.294 -0.2770 -0.0621  0.3710
  683SOL    HW1 2048   2.656   2.036   1.196  2.7232  2.1577  0.7749
  683SOL    HW2 2049   2.651   2.115   1.344 -2.5256  2.9535 -0.7661
  684SOL     OW 2050   2.618   1.516   1.910  0.0175  0.0253 -0.2810
  684SOL    HW1 2051   2.554   1.525   1.991  0.3284  0.9451  1.0352
  684SOL    HW2 2052   2.609   1.428   1.864  0.8548 -0.2062  2.7454
  685SOL     OW 2053   0.767   1.043   0.995  0.5360  0.6690  0.0227
  685SOL    HW1 2054   0.720   1.137   0.984 -1.8710  1.5047  0.8886
  685SOL    HW2 2055   0.864   1.054   1.027  0.1844  1.4638  2.9319
  686SOL     OW 2056   0.948   0.114   2.862  0.3548 -0.0222 -0.6132
  686SOL    HW1 2057   0.968   0.014   2.869  1.7085 -2.1851  2.3445
  686SOL    HW2 2058   0.966   0.155   2.953 -2.0539  0.2838 -0.4844
  687SOL     OW 2059   0.570   2.087   1.970  0.2102  0.1821 -0.2958
  687SOL    HW1 2060   0.548   2.083   1.871  1.5134  0.1349 -1.9874
  687SOL    HW2 2061   0.617   2.178   1.991  0.2025 -1.1894  1.6259
  688SOL     OW 2062   2.011   0.223   1.501 -0.3929 -0.0047 -0.7806
  688SOL    HW1 2063   1.950   0.261   1.432  1.3063 -1.5759  0.0661
  688SOL    HW2 2064   2.105   0.266   1.496 -0.6274  1.9117  0.9599
  689SOL     OW 2065   2.169   0.955   0.660 -0.1897  0.4359  0.1359
  689SOL    HW1 2066   2.080   0.914   0.680  2.8020  2.7763  0.3847
  689SOL    HW2 2067   2.226   0.972   0.746  0.6421 -3.1670  1.3117
  690SOL     OW 2068   2.798   1.047   1.309  0.0228  0.0802 -0.4960
  690SOL    HW1 2069   2.873   1.089   1.251 -0.8053  1.5561  0.0457
  690SOL    HW2 2070   2.805   0.945   1.304 -2.8486  1.4950  0.4764
  691SOL     OW 2071   0.122   1.102   1.948  0.2889  0.2324 -0.1286
  691SOL    HW1 2072   0.131   1.128   1.849 -0.2165  1.5595  0.3302
  691SOL    HW2 2073   0.189   1.151   2.005 -4.2074  2.2426 -0.5217
  692SOL     OW 2074   0.797   0.873   1.805 -0.1618  0.3902 -0.1704
  692SOL    HW1 2075   0.886   0.894   1.849  0.9348  1.2778  0.5586
  692SOL    HW2 2076   0.811   0.798   1.736  1.5337 -0.1448 -1.3000
  693SOL     OW 2077   0.552   1.193   1.893  0.1295  0.1100 -0.2431
  693SOL    HW1 2078   0.572   1.092   1.890 -0.8624 -1.2694 -2.9722
  693SOL    HW2 2079   0.469   1.212   1.948  2.0527  1.6106 -0.7871
  694SOL     OW 2080   1.504   1.861   0.530  0.3862  0.2141  0.1132
  694SOL    HW1 2081   1.596   1.827   0.552 -2.2528 -0.8608 -1.2474
  694SOL    HW2 2082   1.451   1.781   0.504  0.1890 -0.4080  0.9332
  695SOL     OW 2083   0.213   1.018   0.978 -0.1263 -0.6740 -0.7733
  695SOL    HW1 2084   0.164   1.109   0.961 -1.6950 -0.4123 -1.1738
  695SOL    HW2 2085   0.166   0.950   0.924  1.1965 -0.7419 -2.3061
  696SOL     OW 2086   0.713   2.450   0.516  0.4155 -0.4064  0.6122
  696SOL    HW1 2087   0.659   2.371   0.539 -0.8062  1.7121 -0.4234
  696SOL    HW2 2088   0.813   2.433   0.540 -0.2760  1.4873  0.9527
  697SOL     OW 2089   1.327   0.634   1.493  0.0245  0.6515  0.2943
  697SOL    HW1 2090   1.362   0.733   1.480  0.7177  2.6386 -1.0474
  697SOL    HW2 2091   1.234   0.624   1.442 -0.5396 -0.8074 -0.3903
  698SOL     OW 2092   1.765   1.535   1.658  0.0615 -0.4278  0.2009
  698SOL    HW1 2093   1.741   1.625   1.618 -0.5830  2.4252 -1.8680
  698SOL    HW2 2094   1.863   1.519   1.661 -0.7625  1.0391 -2.7366
  699SOL     OW 2095   0.138   0.754   2.433 -0.0501  0.3485  0.0499
  699SOL    HW1 2096   0.060   0.782   2.369 -0.7009  0.4793 -1.3022
  699SOL    HW2 2097   0.200   0.688   2.386 -0.0682  0.3347  0.7858
  700SOL     OW 2098   1.570   2.290   0.457 -0.0292 -0.0090 -0.1462
  700SOL    HW1 2099   1.640   2.278   0.382 -2.0466 -0.1987 -1.0870
  700SOL    HW2 2100   1.512   2.372   0.437  1.6515  1.2533 -1.4040
  701SOL     OW 2101   0.051   1.563   2.374  0.3174 -0.6581  0.4357
  701SOL    HW1 2102   3.074   1.570   2.427  2.3244  1.4186  0.9051
  701SOL    HW2 2103   0.132   1.554   2.438  0.9184 -2.0253 -1.1978
  702SOL     OW 2104   0.580   0.211   2.999 -0.3529  0.1229  0.4061
  702SOL    HW1 2105   0.626   0.190   2.916 -3.5664  1.7919  2.9420
  702SOL    HW2 2106   0.477   0.196   2.994 -2.2579  1.0229  2.5356
  703SOL     OW 2107   1.434   0.516   3.024 -0.2545 -0.2453  0.5000
  703SOL    HW1 2108   1.532   0.513   3.032 -2.2285  0.0010 -2.1382
  703SOL    HW2 2109   1.407   0.470   2.939  4.3423  2.4479 -0.4684
  704SOL     OW 2110   2.852   1.617   0.879  0.0567 -0.1811 -0.0888
  704SOL    HW1 2111   2.875   1.613   0.975  0.5277  0.2680  0.4097
  704SOL    HW2 2112   2.868   1.710   0.844  0.0912  0.8739 -1.9619
  705SOL     OW 2113   2.611   1.997   2.188 -0.2806  0.0436  0.0379
  705SOL    HW1 2114   2.622   2.080   2.242 -0.0596 -0.8969 -0.7001
  705SOL    HW2 2115   2.676   1.924   2.223  3.0052 -1.5198 -2.3848
  706SOL     OW 2116   3.037   2.872   0.981  0.4460  0.6052  0.7200
  706SOL    HW1 2117   2.975   2.934   0.926 -1.7687  1.0223 -1.1644
  706SOL    HW2 2118   3.035   2.787   0.928  0.5883  2.1725 -0.6542
  707SOL     OW 2119   1.017   2.966   0.054 -0.2432  0.7282 -0.3856
  707SOL    HW1 2120   0.991   2.891   0.112  0.2582  1.0805 -2.5623
  707SOL    HW2 2121   1.049   3.045   0.109  0.8666  0.0255  0.8513
  708SOL     OW 2122   0.905   2.292   1.513 -0.5001  0.2306  0.1793
  708SOL    HW1 2123   0.995   2.304   1.561  2.7648 -3.6571  0.4065
  708SOL    HW2 2124   0.852   2.369   1.549  0.5489  1.0163 -1.9681
  709SOL     OW 2125   2.002   0.319   2.533  0.0133 -0.8766 -0.3972
  709SOL    HW1 2126   1.935   0.318   2.614 -0.7364  0.4667  1.8504
  709SOL    HW2 2127   1.985   0.408   2.478  0.5224  3.3283 -3.0851
  710SOL     OW 2128   1.310   2.865   2.559 -0.1898 -0.3871  0.1378
  710SOL    HW1 2129   1.355   2.948   2.602  1.7053  1.0084  1.8417
  710SOL    HW2 2130   1.217   2.856   2.596  1.3008 -2.0416 -1.2847
  711SOL     OW 2131   1.228   2.256   2.352 -0.2011 -0.4980  0.6135
  711SOL    HW1 2132   1.303   2.306   2.304 -0.6076  1.2601  2.2957
  711SOL    HW2 2133   1.152   2.317   2.375  2.5262  1.1704  1.9918
  712SOL     OW 2134   1.242   2.032   2.820  0.0460  0.0411 -0.2389
  712SOL    HW1 2135   1.171   2.028   2.744  0.0969 -2.4256 -3.8181
  712SOL    HW2 2136   1.276   1.935   2.831 -2.4496 -2.8557  2.1055
  713SOL     OW 2137   1.074   0.850   1.876  0.1304 -0.6932  0.5300
  713SOL    HW1 2138   1.093   0.924   1.814  1.3165 -0.2618  2.2378
  713SOL    HW2 2139   1.119   0.765   1.850 -0.1320  5.5210 -0.1347
  714SOL     OW 2140   1.518   1.857   0.942  0.1616 -0.2964 -0.2104
  714SOL    HW1 2141   1.607   1.871   0.895 -0.7512 -1.1774 -1.2219
  714SOL    HW2 2142   1.491   1.934   1.002 -0.3369  1.1232  1.0634
  715SOL     OW 2143   0.052   0.452   0.573  0.2995  0.0114  0.1521
  715SOL    HW1 2144   0.030   0.364   0.615  0.9230  1.5455 -1.4998
  715SOL    HW2 2145   3.097   0.456   0.495 -0.0029  1.6868 -1.2914
  716SOL     OW 2146   0.716   2.674   0.340  0.5506  0.6396 -0.6830
  716SOL    HW1 2147   0.814   2.695   0.330 -1.7144  0.1133 -1.2073
  716SOL    HW2 2148   0.705   2.595   0.404 -2.3920  0.4176  2.0903
  717SOL     OW 2149   3.001   0.388   0.344 -0.0688 -0.3540 -0.0041
  717SOL    HW1 2150   2.975   0.310   0.401  0.8602  3.1027  1.1029
  717SOL    HW2 2151   2.963   0.385   0.245 -0.0836 -0.3121  0.6084
  718SOL     OW 2152   1.888   2.201   1.046  0.8224 -0.3210 -0.3815
  718SOL    HW1 2153   1.986   2.227   1.029  2.6547  0.4674 -1.8241
  718SOL    HW2 2154   1.848   2.248   1.131 -0.6638 -0.1936  0.9777
  719SOL     OW 2155   2.987   2.511   1.064 -0.0363 -0.6445 -0.2683
  719SOL    HW1 2156   2.972   2.414   1.041  2.7860  1.9961 -1.1984
  719SOL    HW2 2157   3.003   2.567   0.979  2.1635  2.2682 -2.7081
  720SOL     OW 2158   1.008   1.101   1.105 -0.8639 -0.1467 -0.1722
  720SOL    HW1 2159   1.096   1.051   1.104  0.9865 -2.7971  0.0053
  720SOL    HW2 2160   1.014   1.197   1.080 -0.3343 -0.8090  2.1359
  721SOL     OW 2161   1.453   0.567   1.143  0.2102  0.2126  0.0852
  721SOL    HW1 2162   1.357   0.550   1.111  1.8801  1.1421  0.2240
  721SOL    HW2 2163   1.523   0.549   1.071  0.8490  1.6351  2.1975
  722SOL     OW 2164   1.285   1.115   1.601 -0.3019 -0.0680  0.7312
  722SOL    HW1 2165   1.328   1.032   1.558 -1.1731 -0.8685 -1.7432
  722SOL    HW2 2166   1.299   1.203   1.551 -0.9977 -0.0441  0.8697
  723SOL     OW 2167   0.996   2.908   1.506  0.1613 -0.2118  0.1300
  723SOL    HW1 2168   0.922   2.863   1.454 -0.5895  4.4616  0.4803
  723SOL    HW2 2169   1.089   2.867   1.492 -1.0733 -1.0313  1.1805
  724SOL     OW 2170   2.033   2.164   1.725 -0.1543 -0.2017 -0.0462
  724SOL    HW1 2171   2.106   2.106   1.766 -0.5603 -1.9834 -0.4105
  724SOL    HW2 2172   1.982   2.121   1.654 -0.2299  1.1056 -0.1081
  725SOL     OW 2173   0.963   2.819   1.175  0.4111  0.0592 -0.3597
  725SOL    HW1 2174   0.905   2.814   1.257 -3.5485 -2.6596 -0.2093
  725SOL    HW2 2175   1.024   2.737   1.175 -2.2717 -0.8749 -0.2686
  726SOL     OW 2176   1.548   0.231   0.331  0.0777  0.7804  0.1563
  726SOL    HW1 2177   1.622   0.168   0.363 -0.4538 -1.3333 -0.6641
  726SOL    HW2 2178   1.574   0.270   0.242  1.1368  1.4275  0.0586
  727SOL     OW 2179   1.321   2.092   0.682 -0.3625  0.2876 -0.3987
  727SOL    HW1 2180   1.403   2.139   0.724  0.3798  1.0207 -1.9495
  727SOL    HW2 2181   1.345   2.016   0.622 -2.7508 -0.6777 -0.3104
  728SOL     OW 2182   1.765   0.321   2.165  0.3494 -1.1820 -0.0240
  728SOL    HW1 2183   1.754   0.417   2.181  1.2976  0.0241 -1.6338
  728SOL    HW2 2184   1.839   0.284   2.221 -1.4815 -1.1808 -4.4698
  729SOL     OW 2185   2.368   1.527   1.277 -0.8149  0.4655 -0.0569
  729SOL    HW1 2186   2.288   1.585   1.257 -0.5147 -0.9769  1.3009
  729SOL    HW2 2187   2.430   1.518   1.194 -1.2560  1.3006 -0.5312
  730SOL     OW 2188   2.082   0.793   2.607 -0.1097  0.9890  0.2666
  730SOL    HW1 2189   2.129   0.831   2.689  2.0936 -0.7870 -0.7592
  730SOL    HW2 2190   1.987   0.838   2.611 -1.4045  1.2336  2.1371
  731SOL     OW 2191   0.514   0.237   1.646 -0.1920  0.7568 -0.6360
  731SOL    HW1 2192   0.473   0.241   1.556  0.4637  1.8851  0.1743
  731SOL    HW2 2193   0.448   0.191   1.714 -2.1233  2.1793 -1.2222
  732SOL     OW 2194   1.747   0.397   1.075 -0.1234 -0.7269  0.0463
  732SOL    HW1 2195   1.782   0.465   1.147  0.4730  1.2857  0.0891
  732SOL    HW2 2196   1.833   0.353   1.035  3.2292  2.5405 -1.4234
  733SOL     OW 2197   0.919   1.302   1.585 -0.2886  0.2605  0.6996
  733SOL    HW1 2198   0.854   1.352   1.645  0.6085  2.1054  1.2657
  733SOL    HW2 2199   0.921   1.203   1.607 -0.2179 -2.3393 -0.6531
  734SOL     OW 2200   2.437   1.531   0.380 -0.1832  0.1058  0.0117
  734SOL    HW1 2201   2.400   1.575   0.297 -1.5169  0.2731 -0.5431
  734SOL    HW2 2202   2.532   1.567   0.404  0.6811 -0.2323  0.8063
  735SOL     OW 2203   0.607   0.718   0.286  0.5507  0.2098  0.2790
  735SOL    HW1 2204   0.623   0.751   0.190  2.9633 -0.2386 -2.8857
  735SOL    HW2 2205   0.630   0.615   0.296  1.4590 -2.6025  0.9333
  736SOL     OW 2206   1.791   2.772   2.949  0.1083  0.0506 -0.2505
  736SOL    HW1 2207   1.875   2.721   2.978  1.5294 -0.4695 -1.4582
  736SOL    HW2 2208   1.715   2.710   2.935  1.0330  2.0006  0.3212
  737SOL     OW 2209   1.106   2.046   0.848 -0.4417 -0.0902 -0.0308
  737SOL    HW1 2210   1.119   1.948   0.881  2.3582 -1.4342 -0.0443
  737SOL    HW2 2211   1.192   2.055   0.790 -0.5908 -3.3198  2.4762
  738SOL     OW 2212   2.243   0.219   2.614  0.3119 -0.1672 -0.1348
  738SOL    HW1 2213   2.310   0.292   2.628 -3.6599 -2.1409 -2.4110
  738SOL    HW2 2214   2.152   0.255   2.586  0.1201 -0.1356 -2.5509
  739SOL     OW 2215   1.656   2.285   2.354  0.2444 -0.0018  0.7051
  739SOL    HW1 2216   1.657   2.186   2.331 -1.1167  0.2319  1.0360
  739SOL    HW2 2217   1.733   2.334   2.314  0.0459 -1.6952  0.8219
  740SOL     OW 2218   1.870   2.340   1.859 -0.3347  0.1837 -0.4410
  740SOL    HW1 2219   1.813   2.395   1.793  3.0319 -2.4817  0.0559
  740SOL    HW2 2220   1.920   2.260   1.819  0.5874 -0.2408 -2.2827
  741SOL     OW 2221   2.448   1.836   2.530 -0.1110 -0.7244  0.2604
  741SOL    HW1 2222   2.401   1.872   2.448  1.0406  1.8002 -1.4089
  741SOL    HW2 2223   2.392   1.840   2.611  2.8288 -0.2687 -0.1235
  742SOL     OW 2224   1.017   1.528   2.829  0.1256  0.1753  0.0511
  742SOL    HW1 2225   1.076   1.445   2.806  0.4983 -0.2410  0.0747
  742SOL    HW2 2226   0.952   1.535   2.746 -0.6658  2.0259  1.2149
  743SOL     OW 2227   1.554   1.085   2.633  0.4264  0.5836 -0.1870
  743SOL    HW1 2228   1.504   1.091   2.545 -0.8918  0.3137  3.6543
  743SOL    HW2 2229   1.514   1.012   2.695 -1.6003 -1.4061 -0.6934
  744SOL     OW 2230   2.201   2.931   1.271 -0.7451  0.0476  0.3914
  744SOL    HW1 2231   2.187   2.860   1.345  0.2068 -0.5906  1.8838
  744SOL    HW2 2232   2.119   2.932   1.213  3.0125 -0.3913 -0.6343
  745SOL     OW 2233   2.443   1.152   0.890  0.3352  0.0887  0.8399
  745SOL    HW1 2234   2.492   1.174   0.977  2.1880 -0.0296 -0.2907
  745SOL    HW2 2235   2.429   1.237   0.832 -2.0091 -0.8633  0.1484
  746SOL     OW 2236   2.421   1.857   1.166 -0.3055  0.3288 -0.7834
  746SOL    HW1 2237   2.475   1.770   1.152 -1.0885 -0.3946 -0.6044
  746SOL    HW2 2238   2.412   1.874   1.268 -0.4131  0.8295  1.4108
  747SOL     OW 2239   1.975   0.043   0.327  0.8059 -0.9233 -0.4842
  747SOL    HW1 2240   1.893   0.053   0.391 -1.0513 -1.7322  2.1616
  747SOL    HW2 2241   2.001   3.052   0.319  3.0112  0.7623 -0.8141
  748SOL     OW 2242   0.752   1.760   0.204 -0.1261  0.1300  0.3429
  748SOL    HW1 2243   0.754   1.723   0.300  0.4545  0.2370  3.7656
  748SOL    HW2 2244   0.813   1.710   0.140 -1.0847  2.8843 -0.8549
  749SOL     OW 2245   2.876   0.367   2.137  0.2512  0.7440 -0.1383
  749SOL    HW1 2246   2.841   0.430   2.207  2.4927 -0.8123 -0.3011
  749SOL    HW2 2247   2.943   0.301   2.174  1.5787  1.3522  0.7976
  750SOL     OW 2248   1.261   0.642   1.818  0.0950  0.1593 -0.5610
  750SOL    HW1 2249   1.312   0.596   1.892 -0.5459 -1.1134 -0.1373
  750SOL    HW2 2250   1.312   0.626   1.730  1.4477  0.6052 -0.2290
  751SOL     OW 2251   2.225   2.523   1.960  0.0591  0.2964 -0.6778
  751SOL    HW1 2252   2.277   2.448   1.927 -0.6355  0.9771  3.0585
  751SOL    HW2 2253   2.274   2.616   1.944  1.3368  0.8775  0.2924
  752SOL     OW 2254   1.916   1.379   1.269  0.5599 -0.3400  0.2490
  752SOL    HW1 2255   1.925   1.274   1.275  0.8371 -0.5253  1.4826
  752SOL    HW2 2256   1.986   1.416   1.207 -1.2796 -1.2853  2.2352
  753SOL     OW 2257   1.155   0.848   2.132 -0.3812 -0.2075  0.1439
  753SOL    HW1 2258   1.125   0.850   2.032 -0.1523 -0.3095 -1.7712
  753SOL    HW2 2259   1.246   0.798   2.141  2.2534  3.7362  3.9693
  754SOL     OW 2260   0.297   2.451   0.904 -0.5335  0.5657 -0.8087
  754SOL    HW1 2261   0.322   2.550   0.891  1.8730  0.0778 -0.4479
  754SOL    HW2 2262   0.228   2.439   0.983 -0.9221 -1.9203  0.8415
  755SOL     OW 2263   2.604   0.060   1.145 -0.0309  0.9208  0.7736
  755SOL    HW1 2264   2.676   0.025   1.210 -0.8564 -1.5424 -1.1407
  755SOL    HW2 2265   2.520   0.086   1.192  1.2009 -0.8775 -0.8899
  756SOL     OW 2266   2.034   2.006   2.122 -0.1024 -0.2383  0.0857
  756SOL    HW1 2267   2.089   2.068   2.174 -1.6833  0.4065 -0.6171
  756SOL    HW2 2268   2.051   2.016   2.022 -0.1488 -1.3972  2.2117
  757SOL     OW 2269   2.890   3.069   1.904 -0.4992 -0.4697  0.1483
  757SOL    HW1 2270   2.938   3.089   1.814  0.8590  0.9133 -1.0233
  757SOL    HW2 2271   2.946   3.097   1.987  1.5940 -1.4503  1.7183
  758SOL     OW 2272   0.511   2.671   1.246 -0.6493 -0.7412 -0.0263
  758SOL    HW1 2273   0.541   2.665   1.146  2.3318  0.8240  0.3007
  758SOL    HW2 2274   0.538   2.757   1.294  1.7583 -0.0794 -0.3353
  759SOL     OW 2275   2.012   1.095   0.965 -0.0877  0.2986 -0.1203
  759SOL    HW1 2276   1.932   1.115   0.904  0.5450 -0.3360  1.9306
  759SOL    HW2 2277   2.056   1.184   0.990  1.4479 -0.5618 -0.7580
  760SOL     OW 2278   1.380   0.393   1.623  0.4488 -0.3860 -0.3346
  760SOL    HW1 2279   1.308   0.357   1.690 -2.3582 -0.4880  1.1217
  760SOL    HW2 2280   1.351   0.484   1.586 -0.3378  0.1042 -0.2165
  761SOL     OW 2281   2.271   0.302   1.071 -0.1399 -0.0864  0.5431
  761SOL    HW1 2282   2.342   0.349   1.015  1.5262  3.5044 -2.1010
  761SOL    HW2 2283   2.213   0.254   1.001 -1.0214  2.7845 -1.4512
  762SOL     OW 2284   1.749   0.087   0.498  0.5797 -0.0610  0.1940
  762SOL    HW1 2285   1.741   0.122   0.595  2.1047 -1.3000  0.4354
  762SOL    HW2 2286   1.717   3.094   0.492 -1.1265 -1.7543  1.7035
  763SOL     OW 2287   0.873   0.423   1.361 -0.1685 -0.4343  0.2470
  763SOL    HW1 2288   0.853   0.414   1.459 -0.3848  1.8077 -1.9188
  763SOL    HW2 2289   0.794   0.463   1.312 -0.7584  1.2895 -1.3728
  764SOL     OW 2290   2.282   2.481   2.264  0.6453  0.3512  0.1800
  764SOL    HW1 2291   2.312   2.381   2.269 -1.8348  2.1001 -1.7322
  764SOL    HW2 2292   2.272   2.502   2.164  0.2527 -0.2213 -2.3445
  765SOL     OW 2293   3.030   1.288   2.439 -0.2645 -0.4709  0.0624
  765SOL    HW1 2294   3.008   1.230   2.515  0.1494  0.5001  1.6479
  765SOL    HW2 2295   2.996   1.385   2.452  0.6707 -0.5063 -0.4661
  766SOL     OW 2296   2.922   0.889   2.472  0.4107  0.4556  0.3414
  766SOL    HW1 2297   2.993   0.870   2.397  4.2400 -0.1194 -0.1523
  766SOL    HW2 2298   2.828   0.872   2.433 -1.7579  0.5043  0.1707
  767SOL     OW 2299   0.458   2.058   1.737  0.7332 -0.0496  0.1934
  767SOL    HW1 2300   0.483   2.032   1.642 -0.5508 -0.9753 -0.1346
  767SOL    HW2 2301   0.362   2.032   1.762  0.3539 -0.8190  1.1095
  768SOL     OW 2302   0.655   0.737   0.019 -0.2903 -0.6149  0.4605
  768SOL    HW1 2303   0.631   0.645   3.092 -0.4161  3.5123  1.1185
  768SOL    HW2 2304   0.758   0.744   0.032  0.8368 -0.6732 -0.5576
  769SOL     OW 2305   1.414   2.494   0.027  0.3708 -0.3889  0.2692
  769SOL    HW1 2306   1.404   2.558   0.103  1.9513  0.0904 -3.2421
  769SOL    HW2 2307   1.427   2.401   0.061 -0.8647  0.9018  0.9291
  770SOL     OW 2308   1.119   0.005   2.528  0.5958  0.4109 -0.5720
  770SOL    HW1 2309   1.199   0.020   2.466  4.2910 -1.2650 -0.6201
  770SOL    HW2 2310   1.047   3.079   2.471  2.1201 -1.0318  5.2192
  771SOL     OW 2311   0.776   2.860   0.719 -0.1214 -0.1240  0.1537
  771SOL    HW1 2312   0.723   2.791   0.668  3.1627  1.1377  0.2294
  771SOL    HW2 2313   0.741   2.852   0.813  3.9105  0.5989 -1.0108
  772SOL     OW 2314   2.576   1.155   0.053 -0.0337 -0.0184 -0.3815
  772SOL    HW1 2315   2.574   1.235   0.115 -0.1554 -3.1944 -0.9277
  772SOL    HW2 2316   2.667   1.108   0.050 -0.8666  0.7162  0.1723
  773SOL     OW 2317   2.044   0.714   1.856  0.4375  0.2037  0.4159
  773SOL    HW1 2318   2.097   0.650   1.801 -0.1074 -2.3907 -0.8682
  773SOL    HW2 2319   2.050   0.809   1.827 -0.8446 -2.5584  0.1063
  774SOL     OW 2320   0.669   0.300   0.617  0.0681 -0.2610 -0.2179
  774SOL    HW1 2321   0.603   0.364   0.652  2.3623 -2.9743 -0.4368
  774SOL    HW2 2322   0.634   0.244   0.538 -1.2203  3.3524  1.0696
  775SOL     OW 2323   1.728   0.209   0.742  0.3657  0.1927 -0.2271
  775SOL    HW1 2324   1.784   0.257   0.815 -0.3180  1.7900  0.1647
  775SOL    HW2 2325   1.641   0.262   0.720 -0.6678 -0.1080  0.1530
  776SOL     OW 2326   2.429   0.315   2.224  0.3058  0.0048  0.3641
  776SOL    HW1 2327   2.486   0.308   2.138  0.3825  0.1614  0.5545
  776SOL    HW2 2328   2.413   0.223   2.264 -2.0317 -0.8169 -0.4202
  777SOL     OW 2329   1.373   1.378   0.267  0.2137 -0.6591 -0.1668
  777SOL    HW1 2330   1.321   1.381   0.179 -0.0988 -3.0822  1.4040
  777SOL    HW2 2331   1.325   1.312   0.329 -2.0211 -0.4075  1.1629
  778SOL     OW 2332   0.253   2.546   0.201  0.9245 -0.2294  0.0228
  778SOL    HW1 2333   0.214   2.498   0.282 -1.1916  0.1248  1.0869
  778SOL    HW2 2334   0.250   2.650   0.219  0.2024  1.5870  0.5045
  779SOL     OW 2335   3.033   1.678   0.218 -0.0786  0.0657  0.0072
  779SOL    HW1 2336   2.984   1.614   0.152  2.8040 -1.6563 -3.1530
  779SOL    HW2 2337   0.014   1.638   0.257  1.6612 -2.4304 -1.2088
  780SOL     OW 2338   1.666   0.293   1.914 -0.2052  0.6242  0.1479
  780SOL    HW1 2339   1.712   0.314   2.003 -2.1863 -1.2702 -0.3264
  780SOL    HW2 2340   1.642   0.193   1.903 -2.6068 -2.2401 -2.7021
  781SOL     OW 2341   1.765   1.607   1.327 -0.0326  0.4329 -0.1817
  781SOL    HW1 2342   1.696   1.600   1.252 -0.6403 -1.1720 -0.8383
  781SOL    HW2 2343   1.832   1.528   1.316 -0.7778  1.5461  0.6389
  782SOL     OW 2344   1.986   2.479   2.051  0.5256  0.4762  0.4143
  782SOL    HW1 2345   1.952   2.418   1.985  1.0126  3.9077 -0.1712
  782SOL    HW2 2346   2.085   2.489   2.028 -0.2201  2.2223 -3.1181
  783SOL     OW 2347   1.442   0.468   1.946  0.0352  0.7236 -0.4685
  783SOL    HW1 2348   1.535   0.430   1.926  1.3716 -1.5138 -2.3450
  783SOL    HW2 2349   1.376   0.395   1.926 -1.5075  2.1712  0.6678
  784SOL     OW 2350   1.735   1.009   2.089 -0.2837  0.1491 -0.3033
  784SOL    HW1 2351   1.650   1.012   2.028  0.2807 -1.8325  0.4424
  784SOL    HW2 2352   1.815   1.041   2.040 -3.2711 -3.1033  2.1311
  785SOL     OW 2353   2.098   0.737   0.377  0.3687 -0.2886 -0.3678
  785SOL    HW1 2354   2.139   0.831   0.388  0.3486  2.6649 -3.9804
  785SOL    HW2 2355   1.997   0.748   0.400 -1.3270  0.0020  1.8909
  786SOL     OW 2356   2.961   1.264   0.796  0.9309 -0.1518  0.8584
  786SOL    HW1 2357   2.862   1.286   0.786 -0.0752  0.4279  1.1150
  786SOL    HW2 2358   2.991   1.213   0.711  1.1881 -3.2181 -1.5368
  787SOL     OW 2359   1.627   1.744   0.235  0.0121 -0.1064 -0.1977
  787SOL    HW1 2360   1.714   1.699   0.216 -1.2356 -0.9833  1.2228
  787SOL    HW2 2361   1.590   1.792   0.155  0.6028 -1.1540  0.4314
  788SOL     OW 2362   2.273   1.086   1.212  0.0959  0.1301  0.3038
  788SOL    HW1 2363   2.255   1.031   1.126 -1.8576  0.3834 -0.8494
  788SOL    HW2 2364   2.363   1.054   1.250 -0.1694 -0.9767 -0.2991
  789SOL     OW 2365   2.795   1.800   2.255 -0.1579  0.1399  0.3714
  789SOL    HW1 2366   2.736   1.760   2.329  0.4644  2.9311 -1.9846
  789SOL    HW2 2367   2.810   1.735   2.180  0.5991 -1.4274  1.0398
  790SOL     OW 2368   0.615   2.926   2.671  0.1338 -0.2002  0.2295
  790SOL    HW1 2369   0.680   2.854   2.658 -0.5172 -0.0380  0.8337
  790SOL    HW2 2370   0.559   2.945   2.591  1.1494 -1.5099  0.1675
  791SOL     OW 2371   0.447   2.622   2.723  0.3211 -0.5172  0.1878
  791SOL    HW1 2372   0.452   2.666   2.631  0.1491  1.7869  2.8912
  791SOL    HW2 2373   0.413   2.681   2.796 -0.5921 -1.8332  1.0983
  792SOL     OW 2374   1.289   0.301   2.378  0.8439 -0.1716 -0.3164
  792SOL    HW1 2375   1.337   0.379   2.423  0.5494 -1.0923 -1.0235
  792SOL    HW2 2376   1.328   0.205   2.403 -0.0850 -1.4299 -1.8578
  793SOL     OW 2377   2.614   0.085   2.320  0.5654  0.0100  0.9864
  793SOL    HW1 2378   2.514   0.070   2.327  1.2291  2.5393 -0.5218
  793SOL    HW2 2379   2.629   0.121   2.224 -1.0406  2.1000 -1.3745
  794SOL     OW 2380   0.610   0.404   1.992  0.0382 -0.0134  0.5250
  794SOL    HW1 2381   0.508   0.401   1.975  1.0168 -0.0132 -0.8544
  794SOL    HW2 2382   0.639   0.307   2.014 -0.8826  0.3510 -0.9541
  795SOL     OW 2383   2.696   1.256   0.692 -0.5097 -0.0318  0.4567
  795SOL    HW1 2384   2.695   1.263   0.590 -2.2161  0.9463 -0.1684
  795SOL    HW2 2385   2.670   1.165   0.724 -0.3121  1.6420 -0.4730
  796SOL     OW 2386   2.649   2.228   2.403 -0.0357 -0.0679 -0.5697
  796SOL    HW1 2387   2.740   2.232   2.354  0.6655 -1.8460  2.1239
  796SOL    HW2 2388   2.644   2.305   2.473 -1.0473 -3.6228 -1.9478
  797SOL     OW 2389   2.834   2.169   0.001 -0.1345 -0.2025  0.1292
  797SOL    HW1 2390   2.859   2.083   3.063  0.3380 -2.2206  0.7133
  797SOL    HW2 2391   2.779   2.155   0.083 -1.0033 -1.0299 -1.2775
  798SOL     OW 2392   0.411   0.703   1.872 -0.5278 -0.2564 -0.6177
  798SOL    HW1 2393   0.386   0.710   1.972  1.3601  0.1124 -0.5532
  798SOL    HW2 2394   0.341   0.713   1.799  1.5750 -1.0172  0.0136
  799SOL     OW 2395   2.692   0.820   2.376  0.0558 -0.0375 -0.7050
  799SOL    HW1 2396   2.608   0.770   2.401  2.6590  0.4743 -1.7920
  799SOL    HW2 2397   2.659   0.917   2.354 -2.8896  1.9509 -0.8523
  800SOL     OW 2398   2.807   2.395   0.796  0.0621 -0.3661 -0.2316
  800SOL    HW1 2399   2.843   2.482   0.757 -0.3003  0.3063 -1.1601
  800SOL    HW2 2400   2.709   2.401   0.821 -0.4663 -1.5372  0.9083
  801SOL     OW 2401   1.289   0.828   0.799 -0.7929  0.0494  0.7535
  801SOL    HW1 2402   1.216   0.777   0.848 -3.2225  2.9799 -1.6906
  801SOL    HW2 2403   1.316   0.919   0.834  1.7985 -0.6182 -0.8241
  802SOL     OW 2404   1.790   2.142   0.807  0.1548  0.0407 -0.3114
  802SOL    HW1 2405   1.798   2.157   0.911  1.3294  0.6276  0.4783
  802SOL    HW2 2406   1.787   2.042   0.782 -0.0776 -1.1029  1.2852
  803SOL     OW 2407   0.078   1.596   0.599  0.5454  0.3232 -0.0171
  803SOL    HW1 2408   0.113   1.597   0.501 -3.2462 -1.1522 -0.5619
  803SOL    HW2 2409   0.121   1.672   0.656  0.7246  2.1597  0.3477
  804SOL     OW 2410   1.361   2.451   0.406  0.3673 -0.6777  0.0234
  804SOL    HW1 2411   1.301   2.381   0.445  0.8461  1.7287  1.0933
  804SOL    HW2 2412   1.315   2.490   0.326 -0.7949  2.3139  1.7429
  805SOL     OW 2413   1.394   2.060   2.412 -0.1457 -0.1969  0.1678
  805SOL    HW1 2414   1.326   2.138   2.404  1.2895  0.2851  1.8080
  805SOL    HW2 2415   1.458   2.062   2.332  1.5986  1.1364 -3.8809
  806SOL     OW 2416   1.708   0.025   1.452 -0.0693  0.1759  0.0821
  806SOL    HW1 2417   1.796   0.009   1.496 -1.9970 -0.1494 -1.7398
  806SOL    HW2 2418   1.692   0.127   1.450 -1.0233 -0.9721  0.1263
  807SOL     OW 2419   2.283   3.107   0.084 -0.2633 -0.1957  0.4570
  807SOL    HW1 2420   2.254   3.026   0.033 -2.3377 -1.5334  2.1046
  807SOL    HW2 2421   2.282   0.080   0.026 -0.7533 -2.5788 -2.5399
  808SOL     OW 2422   0.615   1.782   2.986  0.0660 -0.8105 -0.3107
  808SOL    HW1 2423   0.541   1.774   2.914 -2.2029  3.7270 -0.3460
  808SOL    HW2 2424   0.568   1.768   3.075 -0.6133 -0.0904  1.5774
  809SOL     OW 2425   0.019   1.060   2.609  0.2391 -0.5318  0.1626
  809SOL    HW1 2426   0.096   0.992   2.622  0.2086  2.1268  2.0585
  809SOL    HW2 2427   3.047   1.017   2.554 -2.6564  0.0682  0.5180
  810SOL     OW 2428   3.064   0.582   2.745  0.0823 -0.2204 -0.1618
  810SOL    HW1 2429   0.011   0.634   2.811  0.4808 -1.7128 -2.4036
  810SOL    HW2 2430   0.022   0.535   2.685 -3.0055 -1.4535 -1.6047
  811SOL     OW 2431   2.020   2.621   1.737 -0.0239 -0.2607 -0.2845
  811SOL    HW1 2432   1.932   2.654   1.766 -0.5076 -0.3496 -4.3847
  811SOL    HW2 2433   2.026   2.525   1.747 -1.1733  0.2167 -1.5635
  812SOL     OW 2434   1.369   0.396   0.441  0.1387 -0.2101 -0.9520
  812SOL    HW1 2435   1.278   0.374   0.407  0.8334 -2.3022 -0.2060
  812SOL    HW2 2436   1.441   0.347   0.395 -0.9362  0.2153 -1.1826
  813SOL     OW 2437   1.897   0.488   1.965 -0.4295 -0.4205  0.6865
  813SOL    HW1 2438   1.938   0.564   1.920  0.4056 -0.0979  0.5839
  813SOL    HW2 2439   1.900   0.406   1.903 -1.1502  2.3048  0.3210
  814SOL     OW 2440   1.862   1.075   1.220  0.1458 -0.1373  0.3214
  814SOL    HW1 2441   1.934   1.062   1.292  1.8171  1.2481  0.2318
  814SOL    HW2 2442   1.902   1.069   1.125  2.7355  1.2685 -1.6978
  815SOL     OW 2443   0.487   1.058   0.743 -0.2632 -0.5388  0.6044
  815SOL    HW1 2444   0.539   0.972   0.758  0.7499  0.1572  2.2451
  815SOL    HW2 2445   0.405   1.042   0.682 -1.2711  0.2502 -2.9404
  816SOL     OW 2446   2.074   2.146   3.091  0.3439  0.2739 -0.1058
  816SOL    HW1 2447   2.070   2.094   3.005 -0.3025 -0.0240  1.7409
  816SOL    HW2 2448   2.159   2.134   0.036  0.5633 -0.0023 -1.4287
  817SOL     OW 2449   2.863   2.723   1.248 -0.5887  0.0011  0.2680
  817SOL    HW1 2450   2.918   2.655   1.195 -1.3652 -0.8210  0.0299
  817SOL    HW2 2451   2.901   2.816   1.231 -0.9759  1.5668 -2.4835
  818SOL     OW 2452   1.370   0.711   0.106 -0.3733 -0.4202  0.1515
  818SOL    HW1 2453   1.377   0.676   0.201  0.1927 -2.5896 -2.3552
  818SOL    HW2 2454   1.392   0.634   0.045  0.6881 -1.2263  2.2423
  819SOL     OW 2455   0.762   0.629   0.835 -1.0168  0.3561  0.5960
  819SOL    HW1 2456   0.753   0.668   0.926  2.8323  0.6522 -1.9286
  819SOL    HW2 2457   0.713   0.535   0.834 -0.4868 -0.3563 -2.2317
  820SOL     OW 2458   2.160   0.767   1.222 -0.2358  0.0649 -0.1454
  820SOL    HW1 2459   2.242   0.783   1.279  0.3645  0.6396 -0.0854
  820SOL    HW2 2460   2.079   0.755   1.286 -1.7275 -0.9638 -1.0543
  821SOL     OW 2461   3.017   0.238   0.760 -0.0980  0.2432 -0.0524
  821SOL    HW1 2462   2.946   0.308   0.767 -1.5195 -1.8916  0.3298
  821SOL    HW2 2463   3.006   0.177   0.838 -0.6503  0.7298 -0.5743
  822SOL     OW 2464   0.708   2.297   2.472 -0.8102  0.3404  0.1419
  822SOL    HW1 2465   0.749   2.386   2.451  1.1713 -0.7089  2.7816
  822SOL    HW2 2466   0.617   2.291   2.432 -0.0793 -1.0650 -0.6138
  823SOL     OW 2467   2.819   1.132   1.804 -0.5745 -0.0031 -0.0947
  823SOL    HW1 2468   2.885   1.098   1.733  1.0067  0.0036 -0.7470
  823SOL    HW2 2469   2.876   1.178   1.885  2.9484 -1.0247  2.5777
  824SOL     OW 2470   0.794   2.886   2.385 -0.6412 -0.2691  0.1345
  824SOL    HW1 2471   0.832   2.839   2.470  1.4524  1.8551  0.3717
  824SOL    HW2 2472   0.719   2.832   2.342 -0.3567 -0.3987 -0.5431
  825SOL     OW 2473   1.405   1.754   2.782 -0.3213 -0.2002  0.5532
  825SOL    HW1 2474   1.387   1.789   2.686 -0.8056  2.8587  1.1883
  825SOL    HW2 2475   1.504   1.761   2.805  0.1776 -1.9363 -1.3913
  826SOL     OW 2476   1.270   2.275   2.943  0.0325 -0.1207  0.4162
  826SOL    HW1 2477   1.320   2.265   3.035  3.3864 -1.4498  1.2151
  826SOL    HW2 2478   1.255   2.186   2.895 -0.4833  0.6765  0.3432
  827SOL     OW 2479   0.359   1.623   1.715  0.1147 -0.7340 -0.2171
  827SOL    HW1 2480   0.375   1.544   1.654  2.5147  0.3960 -0.2652
  827SOL    HW2 2481   0.406   1.600   1.803  1.0225 -0.8361  4.8772
  828SOL     OW 2482   0.158   1.733   1.301 -0.1107 -0.1427  0.1572
  828SOL    HW1 2483   0.230   1.669   1.337  2.7189  0.1698  1.6823
  828SOL    HW2 2484   0.214   1.817   1.282  0.7694 -1.8210  0.2703
  829SOL     OW 2485   2.941   2.588   0.097  0.4146 -0.0866  0.2971
  829SOL    HW1 2486   3.029   2.537   0.124  2.3993  1.0782 -0.7327
  829SOL    HW2 2487   2.881   2.527   0.041  0.5105 -0.4784 -1.1986
  830SOL     OW 2488   1.147   0.936   0.590  0.5099  0.3369  0.0315
  830SOL    HW1 2489   1.182   0.932   0.496 -0.7121  0.0045  0.9349
  830SOL    HW2 2490   1.217   0.894   0.652 -0.6110 -1.5390 -0.8789
  831SOL     OW 2491   2.764   2.439   3.043  0.2008  0.0183 -0.3625
  831SOL    HW1 2492   2.800   2.347   3.050  0.4333 -0.2968 -0.2609
  831SOL    HW2 2493   2.678   2.440   3.098  0.5936  1.1054 -0.5058
  832SOL     OW 2494   1.878   2.397   0.262  0.3542 -0.4343  0.1344
  832SOL    HW1 2495   1.808   2.331   0.226  0.4741 -3.1799  1.2046
  832SOL    HW2 2496   1.829   2.483   0.293 -1.0844  0.7259  0.0516
  833SOL     OW 2497   0.650   1.292   2.328  0.2843 -0.0935 -0.7144
  833SOL    HW1 2498   0.684   1.370   2.280 -2.0563  0.6069  0.9180
  833SOL    HW2 2499   0.553   1.301   2.353 -0.1291  0.2153 -0.7697
  834SOL     OW 2500   2.605   0.487   0.650 -0.0632  0.2425 -0.3548
  834SOL    HW1 2501   2.518   0.434   0.657  1.0424  0.6618  1.2396
  834SOL    HW2 2502   2.622   0.522   0.557  0.7614  1.6739 -1.9314
  835SOL     OW 2503   2.222   0.660   2.066 -0.6082  0.3015  0.0779
  835SOL    HW1 2504   2.281   0.724   2.117 -0.4292 -1.3136  1.4544
  835SOL    HW2 2505   2.140   0.711   2.032 -0.2986  1.2204  2.4321
  836SOL     OW 2506   0.691   2.156   0.603  0.0970  0.1099 -0.2198
  836SOL    HW1 2507   0.731   2.161   0.695  2.6737  1.9531  0.7536
  836SOL    HW2 2508   0.725   2.083   0.544  3.0536  0.7178  2.3442
  837SOL     OW 2509   2.199   1.423   1.850  0.6241  0.0497 -0.2374
  837SOL    HW1 2510   2.115   1.446   1.797  2.1882 -1.1195  1.0061
  837SOL    HW2 2511   2.270   1.489   1.815  0.5330 -0.3966 -0.7552
  838SOL     OW 2512   0.174   1.236   2.329  0.6968 -0.3989 -0.2952
  838SOL    HW1 2513   0.188   1.140   2.353 -1.1706  1.3069  0.9710
  838SOL    HW2 2514   0.079   1.267   2.351  0.0012  0.4230 -1.7935
  839SOL     OW 2515   0.318   2.760   2.934 -0.2488 -0.2542 -0.1316
  839SOL    HW1 2516   0.227   2.713   2.940  1.0600  0.3265 -0.3215
  839SOL    HW2 2517   0.305   2.860   2.931  1.0752 -0.4435 -3.6555
  840SOL     OW 2518   0.004   1.273   2.797  0.9711 -0.0179 -0.5975
  840SOL    HW1 2519   0.002   1.192   2.740 -2.9720  0.8657  4.3256
  840SOL    HW2 2520   3.015   1.301   2.827  2.8098 -0.4163  3.5662
  841SOL     OW 2521   0.362   2.172   2.742 -0.7835  0.0965 -0.0764
  841SOL    HW1 2522   0.319   2.263   2.716  1.2170  1.3235 -2.5076
  841SOL    HW2 2523   0.457   2.166   2.701  1.6694  1.9797 -3.4797
  842SOL     OW 2524   0.968   0.102   1.011  0.1244  0.2743 -0.4013
  842SOL    HW1 2525   0.898   0.132   1.080 -1.8223  2.8763  0.0548
  842SOL    HW2 2526   0.937   0.133   0.920 -3.4484 -0.2326  0.9775
  843SOL     OW 2527   3.075   1.470   2.109  0.6911 -0.2004 -0.1837
  843SOL    HW1 2528   0.046   1.477   2.042  0.0445  0.8498  0.3837
  843SOL    HW2 2529   3.102   1.491   2.204  0.3265  2.8656 -1.4461
  844SOL     OW 2530   1.608   2.025   2.254  0.4473 -0.1283 -0.5581
  844SOL    HW1 2531   1.631   2.054   2.158 -0.6448  1.8326 -0.5905
  844SOL    HW2 2532   1.666   1.947   2.278 -2.0397  1.4752 -0.5121
  845SOL     OW 2533   1.728   3.063   2.631  0.0292  0.2490 -0.1133
  845SOL    HW1 2534   1.634   3.058   2.672  1.0975  0.3025 -0.6112
  845SOL    HW2 2535   1.794   0.001   2.694 -0.7702 -2.6850  2.2018
  846SOL     OW 2536   2.445   1.568   3.089 -0.1091  0.1887  0.2228
  846SOL    HW1 2537   2.349   1.556   3.053 -1.0224  0.0483  1.6411
  846SOL    HW2 2538   2.509   1.527   3.026  0.7343 -0.8044  1.3338
  847SOL     OW 2539   2.342   0.058   2.815 -0.5411 -0.2353  0.8223
  847SOL    HW1 2540   2.294   0.106   2.735  0.9029 -1.0723 -0.5225
  847SOL    HW2 2541   2.441   0.080   2.817 -1.9367 -0.3322 -0.4419
  848SOL     OW 2542   2.153   0.537   0.200 -0.4995 -0.3831 -0.1718
  848SOL    HW1 2543   2.140   0.601   0.278  3.1921  1.0276 -0.0165
  848SOL    HW2 2544   2.223   0.469   0.232  0.1809 -1.5601 -0.6961
  849SOL     OW 2545   1.262   3.064   2.940 -0.0791  0.1475 -0.5748
  849SOL    HW1 2546   1.341   2.995   2.955 -1.0871  0.4210  1.4959
  849SOL    HW2 2547   1.175   3.036   2.985  0.2845 -0.0111  1.5929
  850SOL     OW 2548   3.018   0.685   0.343 -0.1783 -0.1108  0.0320
  850SOL    HW1 2549   3.013   0.587   0.323  1.4348  0.8599  2.6400
  850SOL    HW2 2550   2.957   0.710   0.417 -0.7906 -1.6180 -1.0697
  851SOL     OW 2551   0.369   1.402   1.537  0.4288 -0.0567 -0.1158
  851SOL    HW1 2552   0.454   1.343   1.541 -0.1775 -1.2828  1.0252
  851SOL    HW2 2553   0.316   1.389   1.450  0.4511  3.9211  0.8383
  852SOL     OW 2554   1.383   0.693   2.139 -0.2745  0.0361 -0.1110
  852SOL    HW1 2555   1.466   0.728   2.188  2.1131 -0.9150  0.5475
  852SOL    HW2 2556   1.397   0.605   2.088  1.7564  1.9872 -1.2974
  853SOL     OW 2557   2.203   1.462   3.002  0.5007  0.0304  0.3449
  853SOL    HW1 2558   2.219   1.362   3.015  0.3171 -2.0073 -1.2027
  853SOL    HW2 2559   2.118   1.479   2.947 -0.4116 -3.4908 -0.8685
  854SOL     OW 2560   1.282   1.094   1.857  0.4871 -0.3287 -0.3973
  854SOL    HW1 2561   1.286   1.094   1.754 -1.1922 -1.7097  0.8615
  854SOL    HW2 2562   1.205   1.150   1.897  0.0256  0.1081 -0.0229
  855SOL     OW 2563   0.110   2.308   1.753  0.2543  0.0774 -0.5181
  855SOL    HW1 2564   0.151   2.399   1.743  3.1135 -1.5981  0.0452
  855SOL    HW2 2565   0.090   2.273   1.659  2.9872 -1.0979 -1.0531
  856SOL     OW 2566   1.102   1.148   2.523 -0.2023  0.1386 -0.1618
  856SOL    HW1 2567   1.151   1.058   2.510  2.0704  0.2946  1.1386
  856SOL    HW2 2568   1.137   1.208   2.446 -1.5149  1.0910 -1.7200
  857SOL     OW 2569   0.946   0.972   2.679  0.2190  0.0548 -0.0613
  857SOL    HW1 2570   1.011   1.036   2.627  0.8745  0.2176 -1.3446
  857SOL    HW2 2571   0.893   0.912   2.613 -1.4379 -2.1848 -1.0051
  858SOL     OW 2572   0.359   0.364   1.880  0.3897  0.1518 -0.5957
  858SOL    HW1 2573   0.362   0.266   1.860 -3.6022  1.9334  1.9374
  858SOL    HW2 2574   0.363   0.425   1.802 -0.1087  0.5716  3.3368
  859SOL     OW 2575   2.346   0.384   0.668 -0.3692 -0.0147  0.7497
  859SOL    HW1 2576   2.307   0.434   0.591  2.3588 -0.5393  4.4080
  859SOL    HW2 2577   2.333   0.432   0.753  1.4825  0.1815 -2.5010
  860SOL     OW 2578   0.981   0.804   1.496  0.2189 -0.2731 -0.0101
  860SOL    HW1 2579   0.905   0.760   1.546 -0.3679  1.5664  0.3416
  860SOL    HW2 2580   1.050   0.730   1.473  1.5493 -4.2534  0.1029
  861SOL     OW 2581   1.768   0.810   1.305 -0.8881 -0.1449 -0.4378
  861SOL    HW1 2582   1.795   0.904   1.279  0.9535 -1.5772  1.9622
  861SOL    HW2 2583   1.744   0.807   1.406  0.7253  2.0871 -0.1398
  862SOL     OW 2584   0.763   0.069   2.367 -0.1839 -0.1616  0.0528
  862SOL    HW1 2585   0.769   3.074   2.380 -1.1837  1.8892  0.3998
  862SOL    HW2 2586   0.721   0.086   2.276 -1.4417  0.1160 -2.1354
  863SOL     OW 2587   2.793   0.335   1.453 -0.3432 -0.5886 -0.1072
  863SOL    HW1 2588   2.704   0.356   1.406 -0.5338  1.9205  0.9290
  863SOL    HW2 2589   2.875   0.348   1.391 -2.3271 -0.4565 -0.2843
  864SOL     OW 2590   2.715   2.993   2.485  0.4398 -0.1820 -0.3190
  864SOL    HW1 2591   2.785   2.925   2.452  0.2438  2.0136  2.4355
  864SOL    HW2 2592   2.711   3.078   2.430  0.6461 -3.2176  0.5529
  865SOL     OW 2593   1.466   1.042   2.354  0.2108 -0.1522  0.3671
  865SOL    HW1 2594   1.397   0.972   2.382  0.2608  3.1088  0.4219
  865SOL    HW2 2595   1.427   1.113   2.291 -1.3902  0.1308 -0.8030
  866SOL     OW 2596   2.498   2.444   0.960 -0.4887  0.5897  0.1879
  866SOL    HW1 2597   2.473   2.466   1.058 -0.6979 -0.6626  2.3244
  866SOL    HW2 2598   2.469   2.351   0.927  0.0211  2.1503  2.3229
  867SOL     OW 2599   2.595   2.714   1.198 -0.2990  0.2629 -0.6080
  867SOL    HW1 2600   2.555   2.795   1.249 -0.6616  0.8120  0.2557
  867SOL    HW2 2601   2.696   2.711   1.208  1.3005 -0.1473 -0.9245
  868SOL     OW 2602   2.816   1.288   1.446 -0.3903  0.2922  0.6569
  868SOL    HW1 2603   2.727   1.318   1.472  2.6048  1.7573 -0.8142
  868SOL    HW2 2604   2.803   1.202   1.390  1.0978  1.1574  3.6311
  869SOL     OW 2605   2.192   1.749   1.961  0.4720  0.0028 -0.7744
  869SOL    HW1 2606   2.271   1.783   2.012 -2.2269  0.9599  0.4097
  869SOL    HW2 2607   2.127   1.700   2.027 -2.2301 -0.2600  0.2620
  870SOL     OW 2608   1.394   1.074   0.873  0.9685  0.9212  0.7749
  870SOL    HW1 2609   1.449   1.053   0.955  0.9697  0.5439  2.1452
  870SOL    HW2 2610   1.445   1.115   0.796 -1.8122  0.6658  0.8651
  871SOL     OW 2611   2.377   1.605   1.752 -0.9238  0.2870 -0.4410
  871SOL    HW1 2612   2.451   1.619   1.817 -1.4659 -2.3187  0.1296
  871SOL    HW2 2613   2.426   1.604   1.661 -1.0808 -1.2233  0.1090
  872SOL     OW 2614   1.558   1.337   2.511  0.0787  0.9037  0.4651
  872SOL    HW1 2615   1.548   1.261   2.576 -0.6797  1.1863 -1.7495
  872SOL    HW2 2616   1.468   1.375   2.479 -1.6469 -0.6474 -1.8507
  873SOL     OW 2617   1.216   1.346   1.371  0.0781  0.0111  0.0588
  873SOL    HW1 2618   1.135   1.342   1.307  0.7428 -2.3900  0.2516
  873SOL    HW2 2619   1.203   1.422   1.437 -2.2163 -0.2932 -1.9056
  874SOL     OW 2620   1.473   1.258   1.261 -0.6104 -0.3384 -0.1752
  874SOL    HW1 2621   1.376   1.251   1.280  0.0178  0.3954 -2.5888
  874SOL    HW2 2622   1.494   1.352   1.224 -0.7986  1.0463 -0.9469
  875SOL     OW 2623   2.733   0.200   2.556  0.3640 -0.3173 -0.3338
  875SOL    HW1 2624   2.770   0.296   2.541 -0.8357  1.5784  0.3702
  875SOL    HW2 2625   2.704   0.148   2.472 -0.1978 -1.0382  0.0553
  876SOL     OW 2626   0.625   0.972   0.434  0.8765 -0.0784 -0.6381
  876SOL    HW1 2627   0.643   0.962   0.533  0.1020 -1.3165 -1.0112
  876SOL    HW2 2628   0.652   0.887   0.383 -2.8114 -0.7467  2.9689
  877SOL     OW 2629   2.024   2.966   0.694 -0.1235 -0.0578  0.5119
  877SOL    HW1 2630   2.049   2.953   0.591 -0.7549  1.1594 -3.8309
  877SOL    HW2 2631   2.022   2.877   0.744 -1.0823  1.6849  0.2724
  878SOL     OW 2632   2.690   2.079   0.216  0.1100  0.9863  0.4991
  878SOL    HW1 2633   2.723   1.984   0.221  1.4306  0.7629 -0.3361
  878SOL    HW2 2634   2.620   2.082   0.140 -2.3128  1.5708 -1.8699
  879SOL     OW 2635   2.961   2.375   1.873 -0.1070 -0.1787  0.2363
  879SOL    HW1 2636   2.928   2.303   1.938 -0.0022  1.1823 -0.9238
  879SOL    HW2 2637   3.044   2.348   1.821 -1.4480  0.9725  2.2073
  880SOL     OW 2638   0.395   1.638   0.793  0.5170  0.4350 -0.1607
  880SOL    HW1 2639   0.458   1.620   0.712 -2.2941  0.5599 -2.6634
  880SOL    HW2 2640   0.439   1.695   0.864  0.1331 -1.4033  0.2386
  881SOL     OW 2641   1.323   0.376   2.815 -0.0647  0.2111  0.1591
  881SOL    HW1 2642   1.333   0.293   2.757  1.8160 -0.7385 -1.0716
  881SOL    HW2 2643   1.238   0.364   2.874 -0.0865 -3.3039 -0.1677
  882SOL     OW 2644   2.522   0.971   0.680 -0.0805  0.3224 -0.2027
  882SOL    HW1 2645   2.476   1.015   0.760  0.8270 -0.8555 -1.2169
  882SOL    HW2 2646   2.528   0.870   0.690 -1.5252  0.7379  0.7001
  883SOL     OW 2647   1.750   0.634   2.619  0.3656 -0.0477  0.6165
  883SOL    HW1 2648   1.682   0.620   2.546 -1.3691  0.5005  0.4410
  883SOL    HW2 2649   1.785   0.733   2.619  0.9296  0.4992 -0.4373
  884SOL     OW 2650   0.078   0.136   1.848 -0.0539  0.4306  0.0254
  884SOL    HW1 2651   0.039   0.075   1.780 -1.1447  1.5008 -1.1259
  884SOL    HW2 2652   0.030   0.117   1.937 -2.2974  0.5913 -1.1471
  885SOL     OW 2653   2.024   0.863   2.137 -0.0209 -0.2571  0.1164
  885SOL    HW1 2654   1.978   0.924   2.073  0.7048  1.0055 -0.9490
  885SOL    HW2 2655   1.962   0.799   2.187 -1.7316 -2.2702  0.2147
  886SOL     OW 2656   1.695   0.473   3.028 -0.3007 -0.5522  0.0068
  886SOL    HW1 2657   1.680   0.396   3.095 -1.1037 -0.3057 -0.4498
  886SOL    HW2 2658   1.794   0.509   3.013 -0.0961  1.1250 -0.2801
  887SOL     OW 2659   1.191   2.567   1.613  0.4840 -0.0722 -0.6447
  887SOL    HW1 2660   1.263   2.631   1.596 -0.0198  2.3591  0.9651
  887SOL    HW2 2661   1.145   2.553   1.525 -2.6076  0.6287 -0.2696
  888SOL     OW 2662   2.378   0.827   1.399  0.1819 -0.4621  0.5143
  888SOL    HW1 2663   2.363   0.762   1.480  0.1864  1.1282  2.9676
  888SOL    HW2 2664   2.365   0.919   1.440  0.8541  1.0235  0.5367
  889SOL     OW 2665   1.769   3.027   1.028 -0.1649  0.1261 -0.2097
  889SOL    HW1 2666   1.746   3.028   0.930 -3.3452 -1.1473 -1.6964
  889SOL    HW2 2667   1.691   3.023   1.091  0.8183  0.2124  0.7112
  890SOL     OW 2668   1.150   2.558   0.667 -0.2202  0.3454 -0.1004
  890SOL    HW1 2669   1.222   2.499   0.710 -0.3195 -0.6057  0.0061
  890SOL    HW2 2670   1.117   2.624   0.737 -1.7857 -0.3582 -0.9889
  891SOL     OW 2671   2.973   1.457   0.023  0.5266 -0.3032  0.3387
  891SOL    HW1 2672   3.007   1.377   0.077 -1.0195 -2.3505 -2.6007
  891SOL    HW2 2673   2.939   1.428   3.041  1.0055 -0.0073 -2.2004
  892SOL     OW 2674   2.349   1.490   2.596 -0.4771 -0.5189 -0.2373
  892SOL    HW1 2675   2.392   1.470   2.508  0.7378  0.2427  0.0270
  892SOL    HW2 2676   2.249   1.503   2.592 -1.3543 -1.3638 -1.0283
  893SOL     OW 2677   2.399   2.539   1.214  0.5670  0.6545  0.2916
  893SOL    HW1 2678   2.318   2.557   1.155  0.2873 -0.6804  0.3120
  893SOL    HW2 2679   2.475   2.609   1.206  1.3458  0.3580  2.5845
  894SOL     OW 2680   0.190   0.617   0.740 -0.0304 -0.1586  0.1150
  894SOL    HW1 2681   0.284   0.575   0.734 -0.0852 -2.4869  0.1655
  894SOL    HW2 2682   0.117   0.568   0.682 -1.6722 -2.5434  2.8780
  895SOL     OW 2683   2.893   2.193   2.284  0.1235  0.0563 -0.4146
  895SOL    HW1 2684   2.960   2.269   2.292  1.9932 -2.2378 -0.3671
  895SOL    HW2 2685   2.936   2.105   2.319 -1.8233  0.6331 -0.9113
  896SOL     OW 2686   1.476   3.051   2.683 -0.3749 -0.7668  0.8699
  896SOL    HW1 2687   1.484   2.992   2.767  0.8126  0.7452 -1.7376
  896SOL    HW2 2688   1.418   0.026   2.705 -3.9885 -1.2202  2.5689
  897SOL     OW 2689   0.106   1.718   1.726  0.3138  0.5735 -0.7670
  897SOL    HW1 2690   0.060   1.728   1.635  1.0995  1.0052  3.2138
  897SOL    HW2 2691   0.207   1.693   1.721  3.1770  0.0365  0.4221
  898SOL     OW 2692   0.680   2.250   1.760 -0.4848 -0.1479 -0.1578
  898SOL    HW1 2693   0.599   2.187   1.752 -2.5278 -2.0560 -1.7108
  898SOL    HW2 2694   0.721   2.271   1.667  1.8084  1.9520  1.1381
  899SOL     OW 2695   1.582   0.025   1.914  0.0381  0.1849  0.0960
  899SOL    HW1 2696   1.671   0.012   1.872 -2.8201 -1.2264  1.2143
  899SOL    HW2 2697   1.506   0.017   1.850  2.4743  1.5382  1.4573
  900SOL     OW 2698   1.257   1.226   0.437  0.1895 -0.3056 -0.1352
  900SOL    HW1 2699   1.320   1.148   0.447  0.2985  2.4206 -0.8599
  900SOL    HW2 2700   1.168   1.201   0.480  1.3537  1.3447  1.4247
  901SOL     OW 2701   1.240   0.913   2.502 -0.0389 -0.2953  0.0186
  901SOL    HW1 2702   1.322   0.889   2.559 -0.7517  2.8399  0.3426
  901SOL    HW2 2703   1.197   0.832   2.464  1.0995 -0.1102 -0.0827
  902SOL     OW 2704   0.147   2.401   1.121  0.2705  0.0866 -0.1896
  902SOL    HW1 2705   0.046   2.424   1.136 -0.5264 -0.9186  1.0351
  902SOL    HW2 2706   0.198   2.466   1.178  2.6902 -0.2907  1.1847
  903SOL     OW 2707   2.639   1.454   2.315  0.0565 -0.0541 -0.0263
  903SOL    HW1 2708   2.625   1.377   2.376 -4.2444  1.6426 -1.0595
  903SOL    HW2 2709   2.646   1.539   2.365  0.3402 -2.4952 -1.5125
  904SOL     OW 2710   1.536   1.858   0.000 -0.0500 -0.8233 -0.2609
  904SOL    HW1 2711   1.441   1.892   0.002  1.6488  0.3263 -2.4467
  904SOL    HW2 2712   1.576   1.860   3.014  0.6321 -0.6931 -1.4077
  905SOL     OW 2713   1.946   2.939   1.999 -0.0905 -0.0853 -0.3581
  905SOL    HW1 2714   1.895   2.853   2.017 -0.7313  0.3499  2.3252
  905SOL    HW2 2715   1.961   2.987   2.088 -0.9163 -0.7339 -1.4377
  906SOL     OW 2716   1.614   2.807   0.193 -0.6117 -0.1280  0.3390
  906SOL    HW1 2717   1.652   2.861   0.114  0.3279  1.6922 -2.9200
  906SOL    HW2 2718   1.519   2.771   0.179  0.4594 -1.3820  2.6029
  907SOL     OW 2719   0.347   2.695   0.884 -0.1787 -0.5590 -0.3849
  907SOL    HW1 2720   0.359   2.759   0.963  1.0944 -0.5645  2.8920
  907SOL    HW2 2721   0.291   2.738   0.810 -1.0551 -0.3946  0.0842
  908SOL     OW 2722   0.671   2.662   1.848 -0.3943  0.1600  0.5435
  908SOL    HW1 2723   0.718   2.751   1.825 -1.7539 -1.3908 -0.2434
  908SOL    HW2 2724   0.668   2.640   1.945 -1.6815  1.5204 -1.6328
  909SOL     OW 2725   1.830   0.558   1.257  0.3167 -0.2351  0.6148
  909SOL    HW1 2726   1.787   0.650   1.250 -1.1062 -0.5002 -0.2838
  909SOL    HW2 2727   1.912   0.553   1.310 -2.0433  1.1890 -0.5166
  910SOL     OW 2728   0.716   0.456   0.335  0.1697 -0.3899  0.4988
  910SOL    HW1 2729   0.749   0.377   0.282  0.7353  0.5153 -1.7385
  910SOL    HW2 2730   0.799   0.514   0.359 -1.5996  0.1592 -1.4726
  911SOL     OW 2731   0.227   3.022   2.955 -0.2429 -1.0087 -0.2446
  911SOL    HW1 2732   0.301   3.072   2.907  1.1737  0.5278  1.4777
  911SOL    HW2 2733   0.239   3.043   3.052  0.5551  0.1372 -0.0968
  912SOL     OW 2734   3.022   2.040   2.625 -0.3479 -0.8574  0.2343
  912SOL    HW1 2735   3.087   2.115   2.596  0.3436  1.9430 -1.7220
  912SOL    HW2 2736   2.971   2.001   2.546 -1.6677  0.5004 -3.1790
  913SOL     OW 2737   2.500   2.729   0.185  0.3996 -0.4078 -0.1197
  913SOL    HW1 2738   2.440   2.802   0.225  0.9654 -2.3720  4.2557
  913SOL    HW2 2739   2.596   2.762   0.167  1.1004 -2.0931 -1.0335
  914SOL     OW 2740   1.454   1.556   1.870 -0.3084 -0.5667 -0.8287
  914SOL    HW1 2741   1.503   1.498   1.940  1.1676 -1.5820  1.8978
  914SOL    HW2 2742   1.441   1.658   1.893 -1.6141  1.7406 -1.6397
  915SOL     OW 2743   2.839   2.544   2.385  0.3851 -0.0439  0.0036
  915SOL    HW1 2744   2.935   2.516   2.390 -0.6022 -0.7395  0.6626
  915SOL    HW2 2745   2.790   2.514   2.467  2.9578 -1.0579 -1.3515
  916SOL     OW 2746   3.070   0.800   2.256  0.2317 -0.0374 -0.3521
  916SOL    HW1 2747   2.994   0.737   2.232  0.6948  0.2708 -0.3348
  916SOL    HW2 2748   0.024   0.819   2.177  2.1181 -0.1952  2.4174
  917SOL     OW 2749   1.833   0.093   0.097 -0.4121 -0.0616  0.2073
  917SOL    HW1 2750   1.899   0.093   0.175  1.4095  1.4025 -1.7283
  917SOL    HW2 2751   1.889   0.081   0.008  0.0750  0.0827 -3.7554
  918SOL     OW 2752   1.716   2.992   2.353 -0.0637 -0.3889 -0.5854
  918SOL    HW1 2753   1.734   3.022   2.447  1.1917 -2.4690 -0.1329
  918SOL    HW2 2754   1.663   3.057   2.293  1.0261  1.8830  0.5781
  919SOL     OW 2755   1.680   2.311   1.487  0.6456 -0.3164  0.1072
  919SOL    HW1 2756   1.682   2.372   1.571  2.5773 -2.5903 -0.9322
  919SOL    HW2 2757   1.619   2.229   1.503  0.4810 -0.7951 -2.0903
  920SOL     OW 2758   3.090   0.944   0.022  0.4382  0.0560  0.2185
  920SOL    HW1 2759   0.043   1.018   3.088  1.5031  1.4337  0.3785
  920SOL    HW2 2760   0.026   0.915   0.109 -0.4723 -0.1583 -2.2618
  921SOL     OW 2761   2.479   1.113   2.461 -0.6464  0.9332 -0.9588
  921SOL    HW1 2762   2.532   1.090   2.380 -4.9419 -1.0784  0.4626
  921SOL    HW2 2763   2.539   1.118   2.544  0.1907  2.4364  0.4808
  922SOL     OW 2764   1.044   1.760   2.472 -0.7142  0.2844  0.6055
  922SOL    HW1 2765   1.042   1.838   2.534 -1.5074 -0.5754 -1.7749
  922SOL    HW2 2766   0.954   1.721   2.459  1.0740 -0.2664 -1.6252
  923SOL     OW 2767   0.825   1.089   2.294 -0.1464 -0.4785  0.1009
  923SOL    HW1 2768   0.759   1.164   2.319 -2.5750 -1.3907  0.0307
  923SOL    HW2 2769   0.899   1.077   2.361 -0.1255  0.6358  1.5016
  924SOL     OW 2770   0.277   2.417   2.672 -0.0063  0.4156 -0.5855
  924SOL    HW1 2771   0.348   2.483   2.716  1.9533 -0.1238  0.5288
  924SOL    HW2 2772   0.271   2.444   2.573  0.2746 -0.2000  1.0381
  925SOL     OW 2773   1.783   1.364   0.999  0.2158 -0.2098  0.6654
  925SOL    HW1 2774   1.793   1.377   1.096  1.2325 -3.2903 -4.2401
  925SOL    HW2 2775   1.704   1.419   0.957 -2.8368  2.5904 -2.9357
  926SOL     OW 2776   1.748   0.385   2.742  0.3513  0.3349 -0.1003
  926SOL    HW1 2777   1.709   0.387   2.835  1.4908  1.2727 -2.0657
  926SOL    HW2 2778   1.746   0.480   2.705 -0.0716 -1.3084  0.9933
  927SOL     OW 2779   2.387   2.726   1.899  0.1757  0.1102 -0.1713
  927SOL    HW1 2780   2.437   2.750   1.984  0.0138 -0.6301  2.1551
  927SOL    HW2 2781   2.350   2.814   1.858 -0.9199  2.0280 -0.1097
  928SOL     OW 2782   0.725   1.045   2.798  0.6611 -0.8528  0.2207
  928SOL    HW1 2783   0.679   1.125   2.753 -1.1209 -0.1558 -2.3017
  928SOL    HW2 2784   0.798   1.008   2.735 -0.3887 -2.2269  0.4208
  929SOL     OW 2785   0.091   0.197   1.044 -0.1186 -0.1184 -0.3791
  929SOL    HW1 2786   0.147   0.204   0.956  1.6638  1.4414 -2.0146
  929SOL    HW2 2787   0.012   0.134   1.039 -0.8984  0.8718 -0.2877
  930SOL     OW 2788   2.546   0.413   1.870  0.6631 -0.2618 -0.3963
  930SOL    HW1 2789   2.469   0.371   1.815 -1.4711 -2.6087 -0.6692
  930SOL    HW2 2790   2.629   0.427   1.816 -5.2681  0.2195  0.4648
  931SOL     OW 2791   2.209   1.201   3.014  0.1651 -0.1653  0.2398
  931SOL    HW1 2792   2.115   1.159   3.012  0.9301 -1.8729  0.2394
  931SOL    HW2 2793   2.273   1.136   3.062  1.7993  3.5023 -3.1950
  932SOL     OW 2794   2.564   1.635   1.081  0.2129 -0.1685 -0.5572
  932SOL    HW1 2795   2.655   1.681   1.080  0.6377 -2.0520 -0.4766
  932SOL    HW2 2796   2.547   1.602   0.987  3.1431  1.5552 -2.1501
  933SOL     OW 2797   2.897   2.499   1.632  0.5932 -0.5150 -0.2463
  933SOL    HW1 2798   2.891   2.444   1.719 -2.1676 -0.5619  1.4165
  933SOL    HW2 2799   2.883   2.602   1.648 -1.8523  0.8909 -0.0344
  934SOL     OW 2800   0.409   3.062   1.343 -0.3681 -0.0654 -0.2486
  934SOL    HW1 2801   0.443   2.972   1.381  1.4861 -0.7087 -2.2930
  934SOL    HW2 2802   0.478   0.009   1.286  0.6637  1.7097 -1.3633
  935SOL     OW 2803   2.597   0.604   2.085 -0.6531  0.0217 -0.0411
  935SOL    HW1 2804   2.529   0.675   2.111 -1.9242  0.9912  1.0648
  935SOL    HW2 2805   2.559   0.531   2.021 -1.1499 -1.8162 -0.0641
  936SOL     OW 2806   2.633   0.864   1.939 -0.1486  0.5364  0.2249
  936SOL    HW1 2807   2.709   0.881   1.871 -0.7446 -1.7046  0.0547
  936SOL    HW2 2808   2.654   0.784   1.996  1.0180  3.2356 -1.2322
  937SOL     OW 2809   1.717   1.395   1.879 -0.0975 -0.4838  0.3244
  937SOL    HW1 2810   1.730   1.457   1.797  1.4295 -1.1681 -3.8627
  937SOL    HW2 2811   1.798   1.384   1.938 -2.0967 -0.3919  0.4765
  938SOL     OW 2812   0.559   2.387   3.078 -0.2244  0.6075 -0.1838
  938SOL    HW1 2813   0.530   2.485   3.076  0.5071 -1.3331  1.1347
  938SOL    HW2 2814   0.490   2.317   3.053 -1.5444  0.8439  2.4938
  939SOL     OW 2815   2.304   0.508   2.902 -1.2304  0.6763  0.0557
  939SOL    HW1 2816   2.267   0.593   2.945 -1.0942 -0.8761 -2.5398
  939SOL    HW2 2817   2.360   0.452   2.969 -1.5618 -0.4841  3.0500
  940SOL     OW 2818   1.299   2.399   0.795  0.0426  0.0713 -0.0816
  940SOL    HW1 2819   1.394   2.372   0.776  1.4038 -1.0359  0.3418
  940SOL    HW2 2820   1.251   2.336   0.856  0.2157 -1.4374  0.3021
  941SOL     OW 2821   1.158   2.044   1.746 -0.1689 -0.1331 -0.4357
  941SOL    HW1 2822   1.140   2.141   1.710  2.4593 -0.6852  1.2433
  941SOL    HW2 2823   1.091   1.979   1.702 -0.7909  0.3796  1.7551
  942SOL     OW 2824   2.806   1.902   3.014 -0.2849 -0.5075 -0.1785
  942SOL    HW1 2825   2.759   1.825   3.064  2.2560 -1.5374 -1.6739
  942SOL    HW2 2826   2.797   1.885   2.910  0.8805 -1.2441 -0.5898
  943SOL     OW 2827   2.142   2.869   1.823 -0.7309  0.0987  0.1635
  943SOL    HW1 2828   2.092   2.804   1.765 -0.8371 -0.4818  0.6845
  943SOL    HW2 2829   2.091   2.897   1.909 -0.4518  1.5782  2.1174
  944SOL     OW 2830   1.898   2.006   2.530 -0.1426 -0.2750 -0.5721
  944SOL    HW1 2831   1.825   1.939   2.546  0.8561 -1.7705 -1.5294
  944SOL    HW2 2832   1.897   2.084   2.595 -2.7122 -0.0100 -1.6099
  945SOL     OW 2833   2.573   2.074   1.048 -0.0525  0.0194  0.0729
  945SOL    HW1 2834   2.528   1.993   1.089 -0.7655  2.0905 -1.7237
  945SOL    HW2 2835   2.523   2.119   0.974 -0.6690 -0.4679 -0.3914
  946SOL     OW 2836   1.158   1.288   2.745 -0.2768 -0.7380 -0.6081
  946SOL    HW1 2837   1.129   1.251   2.656  0.4429  1.0974 -4.1239
  946SOL    HW2 2838   1.251   1.326   2.742 -1.6375  1.9444  0.2026
  947SOL     OW 2839   0.109   0.834   2.035 -0.3326 -0.3972 -0.0619
  947SOL    HW1 2840   0.109   0.924   1.979 -3.5283  1.3740 -1.9579
  947SOL    HW2 2841   0.197   0.797   2.077  0.2354 -0.9376  0.7722
  948SOL     OW 2842   3.085   1.122   0.618 -0.0899 -0.1993  0.1742
  948SOL    HW1 2843   0.059   1.180   0.609 -0.4311 -0.3377  2.7051
  948SOL    HW2 2844   0.010   1.036   0.662 -0.7256 -0.4516 -1.9109
  949SOL     OW 2845   0.627   0.454   2.663  0.1332 -0.0082  0.3201
  949SOL    HW1 2846   0.563   0.527   2.628 -1.1641  1.9188 -0.5143
  949SOL    HW2 2847   0.681   0.417   2.582  1.3348 -1.9823 -0.9014
  950SOL     OW 2848   0.375   0.618   1.489  0.2865  0.5315 -0.5851
  950SOL    HW1 2849   0.312   0.658   1.563 -0.9321  2.1895  4.8742
  950SOL    HW2 2850   0.392   0.693   1.417 -0.1999  1.8023 -2.2875
  951SOL     OW 2851   0.395   1.288   2.470 -0.0114 -0.1337  0.3281
  951SOL    HW1 2852   0.329   1.278   2.387  0.5966 -1.2920  1.0400
  951SOL    HW2 2853   0.379   1.219   2.543 -2.1891  1.8230  1.3942
  952SOL     OW 2854   1.789   2.363   1.250 -0.2081  0.0765 -0.2683
  952SOL    HW1 2855   1.735   2.355   1.333  1.0452  2.9952 -1.1459
  952SOL    HW2 2856   1.875   2.414   1.270 -1.6743  0.3378  2.3104
  953SOL     OW 2857   0.450   2.635   0.011 -0.2570  0.1319 -0.5724
  953SOL    HW1 2858   0.386   2.599   0.084 -1.4797 -1.6440 -2.5750
  953SOL    HW2 2859   0.392   2.688   3.051 -0.6510  0.1246  0.8782
  954SOL     OW 2860   2.880   1.071   0.998 -0.2424  0.1189 -0.3666
  954SOL    HW1 2861   2.933   1.031   1.073  1.2884  0.6683  0.5843
  954SOL    HW2 2862   2.936   1.141   0.950  0.7112 -1.0817  0.8414
  955SOL     OW 2863   1.567   1.332   2.995  0.4676  0.3090  0.1436
  955SOL    HW1 2864   1.588   1.245   2.944  1.8424  2.4156  0.0741
  955SOL    HW2 2865   1.578   1.322   3.099  0.1423  1.3201  2.5108
  956SOL     OW 2866   1.056   0.702   2.436  0.2438  0.4101  0.3560
  956SOL    HW1 2867   0.980   0.750   2.490  3.0302 -2.4611  2.5031
  956SOL    HW2 2868   1.054   0.600   2.451  0.1845 -2.1582  0.4304
  957SOL     OW 2869   0.795   0.338   1.670 -0.8658  0.5250 -0.0793
  957SOL    HW1 2870   0.696   0.344   1.670  1.5335 -3.7551 -1.8627
  957SOL    HW2 2871   0.845   0.383   1.752  1.3573  2.3089  2.2065
  958SOL     OW 2872   0.363   1.819   0.518 -0.3129 -0.0084 -0.6646
  958SOL    HW1 2873   0.279   1.803   0.581  0.1092  1.5395 -0.8077
  958SOL    HW2 2874   0.336   1.846   0.425 -0.1680  0.3172  1.0512
  959SOL     OW 2875   2.351   0.678   1.614 -0.0966  0.0727  0.6092
  959SOL    HW1 2876   2.456   0.685   1.619  1.4685 -0.0492  0.1560
  959SOL    HW2 2877   2.318   0.604   1.681  1.1574  0.9417  1.2457
  960SOL     OW 2878   0.256   1.534   2.541 -0.2066  1.0092 -0.4792
  960SOL    HW1 2879   0.312   1.446   2.547 -0.8065  0.4776  2.2627
  960SOL    HW2 2880   0.201   1.538   2.628  2.9671 -0.2561 -0.3660
  961SOL     OW 2881   0.662   1.767   0.801  0.0825  0.3697  0.1832
  961SOL    HW1 2882   0.601   1.777   0.720  2.4146  1.3510 -1.3215
  961SOL    HW2 2883   0.616   1.750   0.895 -1.8825 -1.3893  0.4732
  962SOL     OW 2884   0.652   1.566   1.251  0.5854 -0.2474 -0.1290
  962SOL    HW1 2885   0.726   1.630   1.287 -0.1904  0.5575  1.3620
  962SOL    HW2 2886   0.688   1.473   1.242  1.0678  1.7038  0.6143
  963SOL     OW 2887   1.679   2.396   2.619 -0.3812 -0.1969 -0.9142
  963SOL    HW1 2888   1.644   2.322   2.674 -0.0509  2.2779 -2.0978
  963SOL    HW2 2889   1.687   2.364   2.524 -0.0013  0.8592  2.3274
  964SOL     OW 2890   0.143   2.750   2.525 -0.2081  0.1500 -0.1666
  964SOL    HW1 2891   0.206   2.760   2.607  3.1363 -2.6642  1.7589
  964SOL    HW2 2892   0.081   2.834   2.509 -0.5878 -0.4461 -0.8140
  965SOL     OW 2893   2.812   2.249   2.742  0.1866 -0.5902 -0.4429
  965SOL    HW1 2894   2.844   2.153   2.726 -0.3140  2.6773  0.7984
  965SOL    HW2 2895   2.745   2.278   2.672 -2.0647  1.5170  2.6050
  966SOL     OW 2896   2.702   1.486   2.668 -0.2710 -0.5554 -0.4011
  966SOL    HW1 2897   2.715   1.504   2.768 -1.9612  3.4697  1.6595
  966SOL    HW2 2898   2.649   1.404   2.648  1.9044 -4.0162  0.7645
  967SOL     OW 2899   1.911   0.342   0.471 -0.0835  0.0315  0.0408
  967SOL    HW1 2900   1.875   0.254   0.507  2.4879 -0.0106  0.6310
  967SOL    HW2 2901   1.842   0.414   0.478  0.8217 -1.1271 -0.1413
  968SOL     OW 2902   2.412   0.106   0.710 -0.6219 -0.2501 -0.1615
  968SOL    HW1 2903   2.382   0.078   0.800  1.5042  1.9005 -2.0535
  968SOL    HW2 2904   2.378   0.196   0.689  0.6674  0.0848 -0.5501
  969SOL     OW 2905   0.591   0.937   2.202 -0.2880 -0.1674  0.2828
  969SOL    HW1 2906   0.567   0.932   2.101 -0.5528  0.2466  1.2428
  969SOL    HW2 2907   0.689   0.959   2.212  2.1750 -3.3373 -0.2541
  970SOL     OW 2908   1.954   1.578   2.885 -0.4734 -0.5371  0.3829
  970SOL    HW1 2909   1.871   1.583   2.948 -0.8108 -1.8821  3.4458
  970SOL    HW2 2910   1.933   1.525   2.805  1.9791  1.6884 -0.0129
  971SOL     OW 2911   2.371   0.261   1.751 -0.5459 -0.2098  0.5482
  971SOL    HW1 2912   2.296   0.236   1.814 -0.1505  1.4743  0.9943
  971SOL    HW2 2913   2.338   0.258   1.652  1.4506 -1.9445 -0.1243
  972SOL     OW 2914   3.020   0.455   0.978  0.4681  0.0500  0.2489
  972SOL    HW1 2915   2.941   0.423   0.919 -0.6505 -0.7828 -1.7687
  972SOL    HW2 2916   3.083   0.383   0.994 -1.6533  2.2250 -0.3633
  973SOL     OW 2917   3.046   0.112   2.548 -0.6042  1.2677 -0.1060
  973SOL    HW1 2918   0.030   0.124   2.589  1.8562  0.6361  0.8428
  973SOL    HW2 2919   2.983   0.135   2.627 -1.1565 -2.4394 -0.0773
  974SOL     OW 2920   2.975   1.057   1.602  0.2259 -0.2336 -0.0890
  974SOL    HW1 2921   3.036   1.137   1.588  0.7465  0.1915  0.0431
  974SOL    HW2 2922   2.947   1.019   1.514 -0.2655  0.8994  0.9887
  975SOL     OW 2923   1.388   0.047   2.419 -0.2034 -0.5604 -0.4879
  975SOL    HW1 2924   1.452   0.053   2.341 -2.5017 -1.2314  2.5405
  975SOL    HW2 2925   1.436   3.105   2.493 -0.0990  1.4235  0.4280
  976SOL     OW 2926   2.057   1.494   1.574 -0.0380  0.6742  0.5256
  976SOL    HW1 2927   2.072   1.530   1.481 -0.5034  0.1293 -2.0531
  976SOL    HW2 2928   2.038   1.568   1.639 -0.4921 -0.8795  0.1626
  977SOL     OW 2929   3.048   2.863   0.077 -0.0978  0.0481  0.1159
  977SOL    HW1 2930   3.082   2.794   0.012 -0.1747 -0.0397  1.9571
  977SOL    HW2 2931   2.947   2.852   0.077 -0.1565 -0.2675  1.8076
  978SOL     OW 2932   2.217   1.355   2.258  0.2448  0.4428  0.1065
  978SOL    HW1 2933   2.286   1.328   2.188  2.2033  1.9286 -1.4847
  978SOL    HW2 2934   2.205   1.284   2.330  1.3176 -1.3568  0.3232
  979SOL     OW 2935   0.885   0.820   2.210 -1.4653  0.1069  0.0538
  979SOL    HW1 2936   0.979   0.791   2.199 -0.7046  0.4251  0.2478
  979SOL    HW2 2937   0.882   0.923   2.213 -1.1815  2.7805  0.9439
  980SOL     OW 2938   1.686   1.782   2.586 -0.2041  0.2491  0.6910
  980SOL    HW1 2939   1.596   1.822   2.561  1.6925  1.4475 -0.8547
  980SOL    HW2 2940   1.708   1.719   2.508  0.5216 -2.2243  0.2970
  981SOL     OW 2941   1.732   0.762   1.823  0.2824 -0.5048 -0.2083
  981SOL    HW1 2942   1.790   0.715   1.889 -2.4426  0.8626 -0.9880
  981SOL    HW2 2943   1.650   0.805   1.868  0.0796  1.0321  1.0310
  982SOL     OW 2944   0.682   0.210   0.145  0.2764  0.1783 -0.3621
  982SOL    HW1 2945   0.611   0.231   0.218 -4.4488  2.9136  1.8458
  982SOL    HW2 2946   0.640   0.218   0.051  1.6073 -1.4281 -1.6162
  983SOL     OW 2947   2.169   0.684   3.089  0.3798 -0.3729 -0.3082
  983SOL    HW1 2948   2.162   0.604   0.050  1.3110 -1.9498  0.4825
  983SOL    HW2 2949   2.196   0.770   0.036 -1.2851  1.4101  2.7390
  984SOL     OW 2950   1.052   0.252   3.073 -0.0188 -0.1237 -0.4324
  984SOL    HW1 2951   1.151   0.241   3.097 -0.0807 -0.2524  1.3726
  984SOL    HW2 2952   1.001   0.264   0.052  1.9788  0.5694 -0.2777
  985SOL     OW 2953   1.395   2.414   1.758  0.6504 -0.3593 -0.7812
  985SOL    HW1 2954   1.350   2.495   1.808 -0.5038  2.0863  3.2565
  985SOL    HW2 2955   1.358   2.393   1.664  1.6479 -0.7748  1.0324
  986SOL     OW 2956   2.637   2.955   1.932  0.2170  0.2366  0.2139
  986SOL    HW1 2957   2.573   2.998   1.870  1.1630  0.5123  1.4511
  986SOL    HW2 2958   2.723   3.003   1.918 -1.7549  1.9016  1.1844
  987SOL     OW 2959   2.160   1.300   1.086 -0.3114 -0.0394  0.3607
  987SOL    HW1 2960   2.222   1.374   1.054 -0.4287  0.9821 -0.7163
  987SOL    HW2 2961   2.211   1.223   1.126 -1.6358  1.5214 -0.5024
  988SOL     OW 2962   2.366   1.100   1.602 -0.0869  0.0746 -0.1707
  988SOL    HW1 2963   2.350   1.064   1.695 -2.8587 -1.5849 -2.1538
  988SOL    HW2 2964   2.335   1.197   1.586 -1.7428  1.2080  2.6436
  989SOL     OW 2965   1.871   1.966   2.955  0.3914 -0.3540 -0.4520
  989SOL    HW1 2966   1.886   2.042   2.892 -1.9710  0.1402  0.3753
  989SOL    HW2 2967   1.942   1.900   2.950 -1.9135 -0.4947 -1.1023
  990SOL     OW 2968   1.640   0.761   2.218 -0.4555  0.4636 -0.0008
  990SOL    HW1 2969   1.726   0.708   2.243  0.3629 -0.8082 -0.7262
  990SOL    HW2 2970   1.667   0.843   2.165 -1.2768 -0.5402 -1.6016
  991SOL     OW 2971   1.023   1.154   0.650 -0.0526 -0.3616 -0.1076
  991SOL    HW1 2972   1.064   1.063   0.636 -0.9183 -0.8240 -1.5056
  991SOL    HW2 2973   1.062   1.201   0.733 -1.2251  0.9120  0.0899
  992SOL     OW 2974   0.167   1.043   1.274 -0.3892  0.0484 -0.0077
  992SOL    HW1 2975   0.246   1.100   1.257 -0.3586 -2.0120  1.4459
  992SOL    HW2 2976   0.163   0.954   1.224 -1.9450 -0.8466  2.0350
  993SOL     OW 2977   2.237   0.520   1.806  0.6370 -1.1308 -0.0647
  993SOL    HW1 2978   2.225   0.530   1.907  0.0989  1.2076 -1.2155
  993SOL    HW2 2979   2.237   0.423   1.773  0.5721 -1.8493 -0.6025
  994SOL     OW 2980   1.395   1.941   1.708 -0.4784  0.0421 -0.2544
  994SOL    HW1 2981   1.444   1.926   1.800 -1.3342 -1.8967 -0.2046
  994SOL    HW2 2982   1.302   1.974   1.727  1.5076  1.2870  0.6704
  995SOL     OW 2983   2.247   1.981   2.948 -0.1194 -0.1753 -0.6577
  995SOL    HW1 2984   2.344   1.976   2.980  1.8163 -0.6881 -1.2877
  995SOL    HW2 2985   2.200   1.892   2.968  2.4143  1.0415  0.1456
  996SOL     OW 2986   2.102   1.513   0.198  0.0831 -0.8912  0.0117
  996SOL    HW1 2987   2.179   1.580   0.189  0.4667 -0.7665 -0.9269
  996SOL    HW2 2988   2.105   1.471   0.288  0.1844 -0.3899  0.0005
  997SOL     OW 2989   1.859   0.614   2.197 -0.1626  0.0402 -0.5598
  997SOL    HW1 2990   1.865   0.552   2.113  1.7355 -0.3005 -1.5438
  997SOL    HW2 2991   1.940   0.603   2.258  3.3994  0.8920  0.6618
  998SOL     OW 2992   2.696   0.706   0.811  0.2512  0.3704  0.4897
  998SOL    HW1 2993   2.622   0.735   0.874  0.4383 -0.2586 -1.1831
  998SOL    HW2 2994   2.661   0.625   0.763  1.6113 -1.5003  0.7002
  999SOL     OW 2995   2.372   1.200   0.541  0.0536  0.2502 -0.1284
  999SOL    HW1 2996   2.436   1.125   0.570  0.0235 -1.5029 -2.1138
  999SOL    HW2 2997   2.390   1.281   0.603 -0.1114  1.3001  2.4570
 1000SOL     OW 2998   0.688   1.348   1.709  0.5047 -0.2378 -0.0300
 1000SOL    HW1 2999   0.659   1.301   1.795  0.6649  0.1228  2.3718
 1000SOL    HW2 3000   0.643   1.300   1.632 -0.2750 -2.5203  0.7128
   3.10761   3.10761   3.10761
