1000 SPC/Fw water molecules t=  38.00000 step= 38000
 3000
    1SOL     OW    1   2.086   2.590   0.565 -0.0270 -0.8900 -0.1118
    1SOL    HW1    2   2.137   2.581   0.473 -0.2250 -0.8740 -1.1353
    1SOL    HW2    3   1.998   2.542   0.567 -0.4181  1.2975  1.6833
    2SOL     OW    4   1.326   0.564   2.147 -0.2031  0.1368 -0.5692
    2SOL    HW1    5   1.381   0.498   2.202  3.5376 -0.7499  2.9838
    2SOL    HW2    6   1.256   0.608   2.211 -1.3560  1.5564  2.3726
    3SOL     OW    7   1.083   2.771   2.738 -0.5683 -0.1998 -0.2546
    3SOL    HW1    8   1.046   2.806   2.825  3.2897 -3.9493 -3.9411
    3SOL    HW2    9   1.020   2.701   2.697 -1.0450 -2.6579 -0.0387
    4SOL     OW   10   1.138   1.496   2.995  0.1703  0.0226 -0.2816
    4SOL    HW1   11   1.209   1.475   2.929  0.9059  1.6436  1.6661
    4SOL    HW2   12   1.151   1.589   3.033  1.1148  3.1991  1.9787
    5SOL     OW   13   0.677   1.203   2.111  0.4592  0.6971 -0.2387
    5SOL    HW1   14   0.749   1.188   2.043 -3.1245 -0.9772  3.4215
    5SOL    HW2   15   0.598   1.259   2.079 -3.1585 -0.0067  4.4421
    6SOL     OW   16   2.112   0.803   2.497 -0.4701  0.1466 -0.0404
    6SOL    HW1   17   2.110   0.709   2.534 -0.7906 -2.4208 -0.6378
    6SOL    HW2   18   2.205   0.816   2.461 -2.2093 -0.5823  1.0072
    7SOL     OW   19   0.502   0.848   1.537  0.2536  0.0321  0.0724
    7SOL    HW1   20   0.493   0.797   1.446 -0.9634  0.4724 -1.7103
    7SOL    HW2   21   0.534   0.782   1.608  3.7995  2.2179  0.8868
    8SOL     OW   22   2.076   2.813   1.965  0.0848 -0.4172  0.6613
    8SOL    HW1   23   1.983   2.775   1.967  4.3749  0.1197  0.3865
    8SOL    HW2   24   2.085   2.900   1.909 -1.1055 -1.1522 -1.5437
    9SOL     OW   25   0.053   3.049   0.767 -0.4220 -0.2331  0.4497
    9SOL    HW1   26   0.104   0.024   0.719 -2.4320 -1.7130  0.5547
    9SOL    HW2   27   3.067   3.084   0.817  0.5557  1.6109 -1.9587
   10SOL     OW   28   0.066   2.264   2.397 -0.1186  0.0946 -0.0938
   10SOL    HW1   29   0.166   2.285   2.401  0.9713 -1.5333  0.9606
   10SOL    HW2   30   0.048   2.169   2.432 -1.2145  2.0390  0.1291
   11SOL     OW   31   0.797   1.633   3.019 -0.2099  0.3277 -0.3521
   11SOL    HW1   32   0.804   1.536   3.065 -1.2041 -3.1013 -1.3708
   11SOL    HW2   33   0.876   1.692   3.049  2.0019 -2.9635 -1.7268
   12SOL     OW   34   2.182   2.747   1.174  0.1379 -0.6138  0.1328
   12SOL    HW1   35   2.280   2.723   1.156  2.6855 -1.8839 -0.8335
   12SOL    HW2   36   2.127   2.731   1.089  1.7972  0.7223  2.1768
   13SOL     OW   37   0.210   2.815   3.037  0.1761 -0.0412  0.3840
   13SOL    HW1   38   0.151   2.831   0.018 -0.5574 -0.4002  0.8684
   13SOL    HW2   39   0.307   2.837   3.062 -2.7538 -0.3263 -0.6458
   14SOL     OW   40   1.244   1.147   1.583  0.4529  0.4436 -0.4810
   14SOL    HW1   41   1.328   1.127   1.643  1.6943  2.2499 -2.4560
   14SOL    HW2   42   1.213   1.243   1.600 -0.3309  2.2493 -4.5394
   15SOL     OW   43   0.499   1.425   2.360  0.0897 -0.0932 -0.1605
   15SOL    HW1   44   0.491   1.510   2.308  1.1969  0.3465  0.1952
   15SOL    HW2   45   0.464   1.345   2.308 -0.0003 -2.0098  0.6897
   16SOL     OW   46   1.683   0.551   2.561 -0.5450  0.0786 -0.0524
   16SOL    HW1   47   1.592   0.503   2.570  0.2388  1.1194 -1.6676
   16SOL    HW2   48   1.673   0.650   2.554 -0.6197 -0.4867  0.0965
   17SOL     OW   49   3.081   2.675   2.299  0.2773  0.0903 -0.1742
   17SOL    HW1   50   3.047   2.770   2.322 -0.4633  0.1126 -1.0574
   17SOL    HW2   51   3.038   2.605   2.361  1.2803 -0.1830  0.7000
   18SOL     OW   52   1.345   1.145   0.398 -0.8269  0.2688 -0.1234
   18SOL    HW1   53   1.439   1.114   0.428 -3.1651  1.8910 -1.4312
   18SOL    HW2   54   1.272   1.125   0.459  1.5245 -0.2591 -1.9437
   19SOL     OW   55   0.053   1.388   2.244 -0.2747  0.2685 -0.0941
   19SOL    HW1   56   0.117   1.349   2.310 -1.5126  1.0264 -0.0226
   19SOL    HW2   57   0.049   1.335   2.157  0.9298  1.7670  1.6991
   20SOL     OW   58   2.143   2.268   2.520 -0.0739  0.1262 -0.2396
   20SOL    HW1   59   2.232   2.230   2.547  2.0019  1.3407 -1.0052
   20SOL    HW2   60   2.105   2.226   2.431 -3.1789 -0.9725 -3.3462
   21SOL     OW   61   1.763   1.971   0.829 -0.5299  0.0813 -0.3125
   21SOL    HW1   62   1.823   2.043   0.781  1.2783 -0.8519 -3.3878
   21SOL    HW2   63   1.720   2.004   0.917 -1.7034 -0.2426  2.2355
   22SOL     OW   64   2.308   2.070   1.304 -0.2367 -0.3509  0.0508
   22SOL    HW1   65   2.282   2.033   1.213 -1.8173 -0.8159  0.3827
   22SOL    HW2   66   2.303   2.174   1.312 -2.5798  0.5482  1.2495
   23SOL     OW   67   3.065   1.375   1.388  0.0026  0.1381 -0.1078
   23SOL    HW1   68   3.074   1.474   1.362 -0.0448  1.1727 -0.3179
   23SOL    HW2   69   2.970   1.345   1.360  1.2059 -0.3888  1.0504
   24SOL     OW   70   1.731   1.177   2.083  0.2345  0.5102 -0.0055
   24SOL    HW1   71   1.731   1.098   2.024 -1.5359  0.4704 -0.9584
   24SOL    HW2   72   1.727   1.261   2.030 -0.1229  1.8037  1.5674
   25SOL     OW   73   1.919   0.133   2.094  0.0538  0.0279 -0.1942
   25SOL    HW1   74   1.908   0.102   2.191 -1.9344  0.0512  2.7905
   25SOL    HW2   75   2.018   0.146   2.071 -0.6486 -2.3038  0.9936
   26SOL     OW   76   0.949   0.371   0.663 -0.8363  0.2187  0.8466
   26SOL    HW1   77   0.960   0.348   0.567 -0.5016  2.1182 -0.3619
   26SOL    HW2   78   1.001   0.454   0.682  2.2533 -4.4771  0.3759
   27SOL     OW   79   1.033   1.351   0.778  0.1020 -0.2591 -0.5354
   27SOL    HW1   80   1.010   1.387   0.683  0.6454  1.1067  1.0317
   27SOL    HW2   81   1.064   1.423   0.849 -0.0788  1.8371  1.0968
   28SOL     OW   82   2.528   2.280   1.123 -0.3410  0.4681  0.2834
   28SOL    HW1   83   2.451   2.296   1.190 -2.3859 -0.1198  0.5607
   28SOL    HW2   84   2.550   2.364   1.069  2.6302  0.5806 -0.7509
   29SOL     OW   85   2.226   3.034   2.095 -0.0857 -0.2317 -0.1031
   29SOL    HW1   86   2.164   2.964   2.130 -0.6966 -0.9139 -2.8534
   29SOL    HW2   87   2.263   2.996   2.003  0.9749  2.3958 -2.0826
   30SOL     OW   88   0.065   2.923   1.916  0.5777  0.2799  0.2599
   30SOL    HW1   89   3.094   2.909   1.845  4.0886  0.4710  0.1671
   30SOL    HW2   90   0.149   2.944   1.859 -1.7760  1.7541  2.4872
   31SOL     OW   91   3.008   1.765   2.175 -0.0321  0.1244 -0.9585
   31SOL    HW1   92   2.956   1.855   2.174  0.2812  1.8893  0.4020
   31SOL    HW2   93   3.018   1.722   2.079  0.6467  0.3778  0.6299
   32SOL     OW   94   1.611   2.489   2.189  0.7450 -0.5505  0.5919
   32SOL    HW1   95   1.564   2.524   2.106 -0.6596  0.2248  0.4468
   32SOL    HW2   96   1.567   2.517   2.277  0.4110 -1.6309  0.4535
   33SOL     OW   97   0.336   0.252   3.029 -0.6408  0.1774  0.1946
   33SOL    HW1   98   0.285   0.164   3.050  0.3629  1.2660 -0.0360
   33SOL    HW2   99   0.317   0.286   2.933 -2.0102  0.4154  0.3705
   34SOL     OW  100   2.637   0.046   0.351 -0.3503 -0.0872  0.1590
   34SOL    HW1  101   2.631   0.093   0.443  1.0316  0.5299  0.9819
   34SOL    HW2  102   2.672   0.110   0.280 -1.0286 -0.0126 -1.6667
   35SOL     OW  103   2.847   2.686   1.621 -0.4417  0.0229 -0.1004
   35SOL    HW1  104   2.819   2.752   1.547 -0.7169  0.9940  1.8756
   35SOL    HW2  105   2.791   2.698   1.706 -0.0178 -0.3467 -1.6249
   36SOL     OW  106   2.731   3.077   2.292  0.1927  0.5765 -0.0725
   36SOL    HW1  107   2.737   3.099   2.395 -1.7043 -0.5270  2.3447
   36SOL    HW2  108   2.754   0.065   2.241 -1.8739  2.1239  2.2276
   37SOL     OW  109   1.547   3.038   3.079  0.6386  0.0050  0.3710
   37SOL    HW1  110   1.535   3.096   0.063  1.0688  0.8726  1.8094
   37SOL    HW2  111   1.536   2.938   0.003  1.1872 -1.1407  0.2232
   38SOL     OW  112   0.267   0.456   0.095 -0.0132  0.2277  0.7610
   38SOL    HW1  113   0.339   0.501   0.148 -1.1685  2.5092  3.4197
   38SOL    HW2  114   0.304   0.385   0.032  1.9495 -0.9224 -2.3470
   39SOL     OW  115   1.300   1.789   2.172 -0.2207  0.0477 -0.2771
   39SOL    HW1  116   1.334   1.692   2.162 -1.6140  2.5653 -0.5817
   39SOL    HW2  117   1.327   1.835   2.258  0.2025  0.5444  2.5372
   40SOL     OW  118   0.170   0.509   2.524  0.1663 -0.0234 -0.3095
   40SOL    HW1  119   0.225   0.595   2.509  0.4426  3.1144 -0.9498
   40SOL    HW2  120   0.230   0.423   2.519 -0.6526 -0.4024  0.5066
   41SOL     OW  121   1.320   1.000   2.066 -0.5070 -0.3386  0.2888
   41SOL    HW1  122   1.366   1.018   1.977  0.1226 -1.3197 -1.7294
   41SOL    HW2  123   1.356   0.906   2.106  2.1364 -0.5028 -1.0198
   42SOL     OW  124   2.694   0.043   1.333 -0.4261  0.6178 -0.0224
   42SOL    HW1  125   2.642   0.036   1.421 -1.5937  0.8820 -0.4154
   42SOL    HW2  126   2.650   3.082   1.259 -1.3368 -2.2847 -1.1264
   43SOL     OW  127   1.412   1.092   1.780 -0.1343 -0.1739 -0.0221
   43SOL    HW1  128   1.413   1.187   1.825  0.6814  2.5516  1.7287
   43SOL    HW2  129   1.494   1.073   1.721 -1.0458 -0.2785 -0.0130
   44SOL     OW  130   0.138   0.076   0.056 -0.6512  0.1552 -0.1150
   44SOL    HW1  131   0.133   0.158   0.114 -1.3687  0.4005 -1.8810
   44SOL    HW2  132   0.134   3.084   0.105 -1.7062 -2.8815  1.2514
   45SOL     OW  133   0.342   1.880   1.422  0.4813 -0.4512 -0.5222
   45SOL    HW1  134   0.416   1.817   1.448 -1.0515 -0.0225 -0.1688
   45SOL    HW2  135   0.293   1.856   1.333 -1.1146 -0.0833 -0.6587
   46SOL     OW  136   2.464   2.859   1.701  0.3497 -0.4298 -0.4987
   46SOL    HW1  137   2.493   2.915   1.784 -1.9437 -1.4390  2.5669
   46SOL    HW2  138   2.452   2.759   1.729  0.9631 -0.2683  0.3013
   47SOL     OW  139   0.555   1.901   1.184  0.0100 -0.4908 -0.1458
   47SOL    HW1  140   0.552   1.832   1.259  2.0341  0.6632  0.1180
   47SOL    HW2  141   0.464   1.937   1.165  2.7272  0.4720 -1.7096
   48SOL     OW  142   0.582   2.768   2.874 -0.4752 -0.1479  0.1043
   48SOL    HW1  143   0.543   2.707   2.800 -1.1280 -1.3952 -1.6082
   48SOL    HW2  144   0.636   2.714   2.946  1.0876 -1.1472 -1.7750
   49SOL     OW  145   2.940   1.483   1.799  0.3947 -0.1863  0.4044
   49SOL    HW1  146   3.025   1.456   1.749 -1.8314  1.3022  0.4646
   49SOL    HW2  147   2.859   1.503   1.732 -1.8849  2.7855 -0.7198
   50SOL     OW  148   1.378   2.726   0.568 -0.0397 -0.1050  0.2813
   50SOL    HW1  149   1.405   2.687   0.656 -1.7271 -0.9266  2.5536
   50SOL    HW2  150   1.323   2.813   0.577  1.8900 -0.0800 -0.0878
   51SOL     OW  151   0.801   0.071   1.063  0.1617 -0.2825 -0.0172
   51SOL    HW1  152   0.700   0.062   1.067 -1.9100 -1.6332  1.5045
   51SOL    HW2  153   0.829   0.095   0.970 -0.6511 -0.1621  2.1247
   52SOL     OW  154   0.671   1.262   0.387  0.4411  0.1799  0.1706
   52SOL    HW1  155   0.612   1.178   0.409 -2.3046 -3.6357  1.5115
   52SOL    HW2  156   0.658   1.331   0.465 -1.3680  0.9588  0.8291
   53SOL     OW  157   1.343   2.709   2.656 -0.1900  0.4134  0.1755
   53SOL    HW1  158   1.419   2.748   2.715  1.6829  0.3065  1.4311
   53SOL    HW2  159   1.256   2.740   2.692  1.0293 -1.1782 -1.7497
   54SOL     OW  160   2.074   0.437   1.776  0.2508 -0.3254 -0.1496
   54SOL    HW1  161   2.054   0.482   1.687  1.0453 -2.4173  3.3574
   54SOL    HW2  162   2.175   0.449   1.804  0.3310  0.7453  0.4373
   55SOL     OW  163   2.838   2.504   0.302  0.3533  0.2652 -0.5348
   55SOL    HW1  164   2.775   2.553   0.241  1.0190  2.0712  0.3237
   55SOL    HW2  165   2.883   2.565   0.373  2.8813 -0.8445  1.5161
   56SOL     OW  166   1.000   2.796   1.628  0.2768  0.2876  0.0216
   56SOL    HW1  167   1.044   2.863   1.690 -1.2002 -0.3232 -0.5796
   56SOL    HW2  168   0.896   2.797   1.633 -0.2756 -1.2392  0.4985
   57SOL     OW  169   1.899   1.008   2.510  0.3341 -0.8767  0.2498
   57SOL    HW1  170   1.980   0.954   2.515 -1.4816  0.0022 -1.2960
   57SOL    HW2  171   1.903   1.053   2.419  1.1332 -1.8617  1.9936
   58SOL     OW  172   0.133   0.824   2.142  0.5279  0.0370  0.1049
   58SOL    HW1  173   0.070   0.746   2.135  0.4386  1.6821  2.6583
   58SOL    HW2  174   0.158   0.848   2.049 -1.5096  1.5156  0.0817
   59SOL     OW  175   0.866   2.499   1.819 -0.1804 -0.3916  0.2327
   59SOL    HW1  176   0.784   2.524   1.764 -1.2035 -0.1434 -3.5406
   59SOL    HW2  177   0.951   2.511   1.759 -1.2311  0.0007 -0.2535
   60SOL     OW  178   2.243   2.554   0.334 -0.6308 -0.5892 -0.2272
   60SOL    HW1  179   2.328   2.536   0.271  3.4716 -2.7450 -2.5804
   60SOL    HW2  180   2.162   2.575   0.275 -0.7479 -0.8791 -0.3873
   61SOL     OW  181   1.664   2.515   0.697  0.0103  0.3202  0.2517
   61SOL    HW1  182   1.664   2.426   0.746  1.4219 -0.5026 -0.5335
   61SOL    HW2  183   1.581   2.571   0.721  1.4324 -4.0234 -0.2446
   62SOL     OW  184   1.809   0.007   3.000  0.7330 -0.0020 -0.5847
   62SOL    HW1  185   1.722   3.085   3.051 -0.5940  1.6592  1.7817
   62SOL    HW2  186   1.804   0.104   2.968 -0.8678 -0.6018 -0.7370
   63SOL     OW  187   2.474   0.504   0.002  0.5979  0.1346  0.1563
   63SOL    HW1  188   2.428   0.585   3.056 -0.8670  1.7514 -1.1427
   63SOL    HW2  189   2.553   0.477   3.040 -1.6000 -1.2079 -2.1788
   64SOL     OW  190   1.455   0.932   2.841 -0.0752 -0.4240  0.2868
   64SOL    HW1  191   1.415   0.837   2.841  0.3034  1.6046  2.5476
   64SOL    HW2  192   1.558   0.926   2.839  0.3942 -2.5994  1.2514
   65SOL     OW  193   0.510   2.623   1.366 -0.4596 -0.0842 -0.5968
   65SOL    HW1  194   0.589   2.563   1.361 -0.0744  1.4744  0.7700
   65SOL    HW2  195   0.528   2.713   1.308 -0.5778  2.3805 -4.0267
   66SOL     OW  196   0.945   1.421   1.526  0.1415  0.1546  0.3167
   66SOL    HW1  197   0.904   1.327   1.526 -0.8601 -0.7455  0.0144
   66SOL    HW2  198   1.041   1.425   1.563 -0.8866  0.0842 -0.9549
   67SOL     OW  199   2.193   2.139   1.970 -0.0641 -0.1444 -0.1003
   67SOL    HW1  200   2.228   2.219   1.912 -0.9336  4.8432 -1.5699
   67SOL    HW2  201   2.159   2.062   1.919  0.2896 -0.0246  0.9478
   68SOL     OW  202   0.487   1.401   2.049 -0.5639 -0.6113  0.2082
   68SOL    HW1  203   0.461   1.484   2.106 -1.6965  2.1772  2.6000
   68SOL    HW2  204   0.554   1.418   1.971 -2.1352  0.7123 -0.9760
   69SOL     OW  205   2.930   2.713   0.071 -0.1587  0.4795 -0.5005
   69SOL    HW1  206   2.991   2.786   0.034  1.7636  1.3359 -1.6184
   69SOL    HW2  207   2.861   2.747   0.136 -2.4610  3.6390  3.0090
   70SOL     OW  208   2.330   0.880   2.358 -0.0923 -0.7369  0.5091
   70SOL    HW1  209   2.418   0.829   2.370 -0.4429 -0.1377  2.9968
   70SOL    HW2  210   2.340   0.982   2.361  0.1203 -1.8729  0.1783
   71SOL     OW  211   0.446   2.044   0.663 -0.0788  0.0123 -0.2303
   71SOL    HW1  212   0.448   1.952   0.706 -1.3408  0.4185 -0.5647
   71SOL    HW2  213   0.444   2.116   0.734 -1.3691  0.4990 -0.4871
   72SOL     OW  214   2.577   2.034   0.760 -0.5619  0.2260 -0.1896
   72SOL    HW1  215   2.499   2.087   0.716 -0.6941 -1.3304 -0.6669
   72SOL    HW2  216   2.634   2.102   0.809  1.2554  1.8805 -0.6200
   73SOL     OW  217   1.128   0.593   0.671 -0.1782 -0.6510 -0.0364
   73SOL    HW1  218   1.119   0.636   0.576 -1.6208 -1.0225 -2.6159
   73SOL    HW2  219   1.225   0.589   0.702 -2.4588  0.7423 -0.6614
   74SOL     OW  220   2.456   2.037   1.996 -0.0834  0.1754 -0.2167
   74SOL    HW1  221   2.462   1.950   1.943  1.6070 -1.6671 -3.4243
   74SOL    HW2  222   2.379   2.095   1.963  1.3883  1.1470 -1.7831
   75SOL     OW  223   1.600   1.627   1.717  0.1446  0.5081  0.8098
   75SOL    HW1  224   1.509   1.639   1.756  0.2873  0.5239 -1.1393
   75SOL    HW2  225   1.664   1.613   1.791 -0.5074  2.1828  1.7621
   76SOL     OW  226   1.194   1.786   0.935 -0.5559  0.4129  0.5135
   76SOL    HW1  227   1.293   1.778   0.906 -0.1489  0.5810  0.1682
   76SOL    HW2  228   1.170   1.692   0.972  0.7364 -1.6372 -0.2762
   77SOL     OW  229   2.789   1.295   1.929  0.0671 -0.0582 -0.1256
   77SOL    HW1  230   2.744   1.324   2.014 -0.8527  0.1304 -2.6566
   77SOL    HW2  231   2.857   1.366   1.899  1.5715 -2.9893  0.2381
   78SOL     OW  232   1.777   0.713   0.130 -0.0734  0.3598  0.5951
   78SOL    HW1  233   1.743   0.621   0.104 -2.2953 -0.9804 -0.5477
   78SOL    HW2  234   1.795   0.711   0.229  2.8694 -1.5317  3.5310
   79SOL     OW  235   1.408   1.525   2.170  0.2433  0.2867 -0.2064
   79SOL    HW1  236   1.485   1.587   2.148 -1.6860  0.8308  1.9979
   79SOL    HW2  237   1.436   1.428   2.178 -1.9480 -1.6754 -0.5108
   80SOL     OW  238   0.928   0.235   1.711 -0.2510 -0.2030 -0.5817
   80SOL    HW1  239   0.888   0.239   1.615 -3.1478 -1.3465  0.2097
   80SOL    HW2  240   1.026   0.262   1.705  0.8729  0.2387 -2.2558
   81SOL     OW  241   0.687   2.356   0.262 -0.7122  0.7341 -0.0317
   81SOL    HW1  242   0.608   2.406   0.224  0.2104  0.2000 -3.0035
   81SOL    HW2  243   0.742   2.295   0.195  0.6532 -1.1354 -0.3638
   82SOL     OW  244   1.197   0.294   1.753 -0.2139  0.3347  0.1851
   82SOL    HW1  245   1.261   0.356   1.694  3.7073 -2.3608 -0.2149
   82SOL    HW2  246   1.225   0.297   1.854 -0.7712  0.7907 -0.0322
   83SOL     OW  247   0.424   2.181   0.906  0.7584 -0.5381  0.4120
   83SOL    HW1  248   0.465   2.275   0.934  2.6053  5.2049  1.7401
   83SOL    HW2  249   0.393   2.119   0.983 -2.1715 -0.2337  0.2510
   84SOL     OW  250   2.867   1.633   0.624  0.4626  0.2471 -0.1220
   84SOL    HW1  251   2.916   1.555   0.590 -1.3962  1.3882 -0.2092
   84SOL    HW2  252   2.815   1.672   0.549 -0.6090 -1.8914  1.2621
   85SOL     OW  253   2.431   1.872   1.446  0.1018  0.0158  0.4561
   85SOL    HW1  254   2.374   1.937   1.392 -2.1879  1.7787 -1.5977
   85SOL    HW2  255   2.524   1.909   1.462 -0.2414 -0.2492 -1.4917
   86SOL     OW  256   1.715   2.440   1.304 -0.4785  0.3334 -0.2871
   86SOL    HW1  257   1.739   2.461   1.205 -0.2228 -0.1917 -1.5325
   86SOL    HW2  258   1.781   2.373   1.350  2.1270  1.0540 -0.1840
   87SOL     OW  259   2.206   1.490   0.443 -0.3025 -0.4996 -0.3480
   87SOL    HW1  260   2.127   1.553   0.439 -0.9718  0.1022 -1.4604
   87SOL    HW2  261   2.268   1.488   0.366  1.1493  0.0922  0.6030
   88SOL     OW  262   0.544   0.110   0.853  0.1170 -0.5578 -0.0506
   88SOL    HW1  263   0.528   0.048   0.777  1.1334 -0.0261 -0.0306
   88SOL    HW2  264   0.622   0.175   0.836 -0.0918  1.4968  0.8191
   89SOL     OW  265   0.799   3.092   1.771 -0.1992  0.1606  0.3273
   89SOL    HW1  266   0.857   0.074   1.754 -0.3446 -0.4550 -0.3596
   89SOL    HW2  267   0.700   0.023   1.771 -2.9427  1.7371 -0.6014
   90SOL     OW  268   3.032   2.011   0.276  0.2845 -0.1958  0.1265
   90SOL    HW1  269   3.019   2.106   0.242 -1.0510  0.6853 -0.4011
   90SOL    HW2  270   3.024   2.014   0.375 -1.2086  0.3731 -0.9282
   91SOL     OW  271   1.123   1.830   0.663  0.0507 -0.2852 -0.2884
   91SOL    HW1  272   1.023   1.860   0.663 -1.8708  0.6907 -0.5644
   91SOL    HW2  273   1.158   1.831   0.760 -0.7010  0.6584 -2.1481
   92SOL     OW  274   2.279   0.056   1.396  0.3468 -0.3583 -0.1020
   92SOL    HW1  275   2.364   0.105   1.426  0.9683  2.7318 -1.5116
   92SOL    HW2  276   2.256   3.079   1.458  0.9316  1.7841  3.1876
   93SOL     OW  277   0.391   1.089   2.918  0.5052 -0.3566 -0.0047
   93SOL    HW1  278   0.452   1.169   2.938  2.9548 -1.5986 -0.6816
   93SOL    HW2  279   0.387   1.071   2.818 -1.4313 -0.1996 -2.2111
   94SOL     OW  280   2.564   3.052   1.869  0.7981  0.2582  0.4896
   94SOL    HW1  281   2.546   0.030   1.928  0.4215  2.1237 -0.2518
   94SOL    HW2  282   2.658   3.026   1.881 -1.9414  0.3574  0.7807
   95SOL     OW  283   1.963   0.817   1.595 -0.0036  0.6439 -0.4359
   95SOL    HW1  284   1.878   0.854   1.555 -0.4289 -0.4117  0.9699
   95SOL    HW2  285   1.966   0.716   1.590  3.1303 -0.8241 -0.6104
   96SOL     OW  286   2.838   0.357   1.931  0.4903 -0.3493  0.2612
   96SOL    HW1  287   2.765   0.335   1.862  1.3978  0.3940 -0.4082
   96SOL    HW2  288   2.877   0.453   1.928  2.3586  3.8864 -1.3869
   97SOL     OW  289   2.140   0.283   1.303 -0.2616  0.1735  0.4066
   97SOL    HW1  290   2.059   0.263   1.253  2.2227 -0.6931 -0.4914
   97SOL    HW2  291   2.178   0.198   1.346  2.1943 -2.3698 -1.9145
   98SOL     OW  292   2.186   2.599   1.844  1.0616  0.2490 -0.0614
   98SOL    HW1  293   2.287   2.606   1.839  1.8303  0.8677  0.2809
   98SOL    HW2  294   2.147   2.682   1.893 -0.5067  3.8065 -0.9704
   99SOL     OW  295   0.294   0.751   1.145  0.0513  0.1306  0.0634
   99SOL    HW1  296   0.227   0.677   1.142  2.6494  0.6451 -1.6855
   99SOL    HW2  297   0.253   0.836   1.108  4.9791  1.6993 -0.3885
  100SOL     OW  298   2.471   1.793   1.897 -0.4547  0.5539 -0.2029
  100SOL    HW1  299   2.393   1.758   1.840 -0.6445  2.2991  1.6526
  100SOL    HW2  300   2.558   1.805   1.839 -3.1051 -1.7973  0.2707
  101SOL     OW  301   2.120   0.141   0.187 -0.1600 -0.0767 -0.0837
  101SOL    HW1  302   2.213   0.188   0.199  1.1758  0.7216 -2.5178
  101SOL    HW2  303   2.116   0.092   0.101 -0.7403 -0.5604  3.0622
  102SOL     OW  304   0.460   0.353   1.213  0.1193 -0.2791  0.2444
  102SOL    HW1  305   0.407   0.347   1.299 -0.6407  2.5650  0.2471
  102SOL    HW2  306   0.420   0.432   1.164  2.2375 -0.8959 -0.7246
  103SOL     OW  307   0.053   0.179   2.709 -0.0228  0.8440  0.2114
  103SOL    HW1  308   3.089   0.118   2.657 -3.0650  2.2415 -1.2496
  103SOL    HW2  309   0.151   0.145   2.703  1.1565  0.2411  2.5390
  104SOL     OW  310   0.438   2.160   1.356 -0.3084  0.1018 -0.0869
  104SOL    HW1  311   0.439   2.063   1.371 -2.2570 -1.8272  0.2171
  104SOL    HW2  312   0.343   2.202   1.360 -1.6059 -0.6136 -0.2732
  105SOL     OW  313   0.718   1.664   2.214  0.5483 -0.6033  0.4354
  105SOL    HW1  314   0.786   1.703   2.278 -2.0517  2.2306  0.1484
  105SOL    HW2  315   0.736   1.698   2.124  1.4489 -4.1883  0.9375
  106SOL     OW  316   2.128   0.394   0.711  0.1960 -0.2706  0.7305
  106SOL    HW1  317   2.080   0.389   0.802 -0.6155  0.7001  4.2060
  106SOL    HW2  318   2.085   0.326   0.644  0.6897 -0.3438 -2.9449
  107SOL     OW  319   0.564   1.262   1.258  0.5972 -0.4882  0.5523
  107SOL    HW1  320   0.517   1.230   1.173  0.0920 -1.0915  0.4362
  107SOL    HW2  321   0.657   1.226   1.247 -1.9876 -0.9702 -2.8593
  108SOL     OW  322   2.744   0.991   2.324 -0.2359 -0.1274  0.2618
  108SOL    HW1  323   2.843   0.990   2.313 -1.2122 -0.4634  0.5771
  108SOL    HW2  324   2.702   0.900   2.301  4.6218 -0.5989 -0.6137
  109SOL     OW  325   1.912   3.002   2.780  0.2763 -0.1675 -0.0465
  109SOL    HW1  326   1.947   3.078   2.714  1.6855 -2.6501 -1.0746
  109SOL    HW2  327   1.865   3.033   2.867  2.3525 -1.0417  1.2774
  110SOL     OW  328   0.207   1.976   2.997  0.5111  0.3897  0.2822
  110SOL    HW1  329   0.130   2.027   3.038 -0.6501  0.6120 -3.4180
  110SOL    HW2  330   0.250   1.924   3.070  0.2376 -1.4210 -1.0924
  111SOL     OW  331   2.571   0.757   2.398  0.6647 -0.2367 -0.0912
  111SOL    HW1  332   2.615   0.686   2.348  0.5570 -1.3677 -2.1255
  111SOL    HW2  333   2.586   0.741   2.495 -1.0373 -3.0198 -3.4238
  112SOL     OW  334   2.068   2.713   1.424  0.1309  0.1274  0.1016
  112SOL    HW1  335   1.979   2.760   1.419 -0.5444  0.4739 -1.1477
  112SOL    HW2  336   2.109   2.713   1.330 -1.7313  0.0263 -2.0210
  113SOL     OW  337   1.905   2.189   2.301  0.3335 -0.0815 -0.0856
  113SOL    HW1  338   1.926   2.093   2.286  0.2485  1.4672  3.8728
  113SOL    HW2  339   1.980   2.251   2.272  0.9274  0.8729 -0.2609
  114SOL     OW  340   0.496   0.295   0.493 -0.1689 -1.3132 -0.6224
  114SOL    HW1  341   0.425   0.229   0.466  0.7823  0.3077  0.6110
  114SOL    HW2  342   0.587   0.265   0.465 -1.1418  0.7998  1.0919
  115SOL     OW  343   2.751   1.539   3.099 -0.6149  0.5759 -0.4647
  115SOL    HW1  344   2.841   1.582   3.096  1.9952 -1.4870 -1.2846
  115SOL    HW2  345   2.759   1.445   0.048 -1.5107 -1.2223  1.1959
  116SOL     OW  346   0.032   0.730   1.426  0.4144  0.1696  0.1643
  116SOL    HW1  347   3.064   0.654   1.447 -1.3736 -1.7431  0.7916
  116SOL    HW2  348   3.081   0.816   1.425 -0.5142 -1.7968 -0.1085
  117SOL     OW  349   2.427   0.327   1.170  0.0888  0.1411  0.0027
  117SOL    HW1  350   2.464   0.354   1.259 -1.4322  0.4598  0.7648
  117SOL    HW2  351   2.335   0.280   1.175 -2.2298 -0.2844 -2.0332
  118SOL     OW  352   2.670   2.118   2.123  0.6311 -0.2126 -0.1694
  118SOL    HW1  353   2.700   2.211   2.092  0.4691 -1.0323 -2.1378
  118SOL    HW2  354   2.583   2.093   2.075 -0.1720  1.2121  1.1590
  119SOL     OW  355   0.746   1.832   0.940  0.5747 -0.5080 -0.5387
  119SOL    HW1  356   0.751   1.922   0.990  3.1494 -0.1228  1.6945
  119SOL    HW2  357   0.746   1.756   1.004  1.5697  1.1113  1.6882
  120SOL     OW  358   0.502   1.513   1.185  0.2703  0.1944  0.7159
  120SOL    HW1  359   0.421   1.531   1.120 -2.9722  2.1451  1.1463
  120SOL    HW2  360   0.501   1.422   1.229  0.8457 -0.4030  0.2822
  121SOL     OW  361   1.437   1.095   0.874  0.0033  0.9525 -0.0687
  121SOL    HW1  362   1.424   1.175   0.931 -0.5422 -2.1137 -2.6891
  121SOL    HW2  363   1.363   1.068   0.812  0.7886 -0.3455  0.8152
  122SOL     OW  364   2.130   2.435   2.764  0.2782  0.5625 -0.2162
  122SOL    HW1  365   2.035   2.462   2.745  0.0118  1.1916  0.6687
  122SOL    HW2  366   2.159   2.354   2.708  2.1936 -1.5681  0.2729
  123SOL     OW  367   2.970   0.030   0.453  0.4117  0.2793 -0.4650
  123SOL    HW1  368   2.925   0.071   0.536  1.0057  0.8920 -0.6513
  123SOL    HW2  369   3.021   0.107   0.412 -4.2560  1.1973  3.9904
  124SOL     OW  370   1.303   1.391   0.229 -0.3585 -0.3530  0.0011
  124SOL    HW1  371   1.340   1.349   0.138 -1.6220 -0.5068 -3.3364
  124SOL    HW2  372   1.324   1.324   0.304  1.2816  1.8949 -0.6497
  125SOL     OW  373   0.261   0.907   2.351 -0.0197  0.2388  0.7846
  125SOL    HW1  374   0.309   0.988   2.308  0.0853  1.3018 -0.5322
  125SOL    HW2  375   0.211   0.857   2.277 -1.4681 -0.3920 -0.3123
  126SOL     OW  376   3.087   2.474   0.084 -0.1555  0.0732  0.4998
  126SOL    HW1  377   0.078   2.506   0.116 -2.5574  0.8947  0.5156
  126SOL    HW2  378   3.023   2.553   0.068 -1.5206  0.2769 -0.9761
  127SOL     OW  379   2.744   1.714   0.393  0.6584  0.0652 -0.2197
  127SOL    HW1  380   2.843   1.721   0.361  1.5409  1.9769  0.6065
  127SOL    HW2  381   2.683   1.778   0.340  0.3892  2.4426  0.4208
  128SOL     OW  382   1.532   0.833   0.795  0.3837 -0.5412 -0.4476
  128SOL    HW1  383   1.522   0.930   0.803  3.1953 -1.6712 -3.0180
  128SOL    HW2  384   1.494   0.814   0.704 -0.3350  0.4840  2.2597
  129SOL     OW  385   2.710   1.942   1.125  0.3878 -0.3457 -0.0596
  129SOL    HW1  386   2.784   1.938   1.052 -0.7508 -1.6626  1.4557
  129SOL    HW2  387   2.715   2.039   1.175  1.2152  5.8813  0.8516
  130SOL     OW  388   1.933   1.039   0.490 -0.1034 -0.1909  0.3182
  130SOL    HW1  389   1.990   1.111   0.532  2.3996  0.7882  1.7373
  130SOL    HW2  390   1.855   1.068   0.432  1.7618  1.0548  0.2941
  131SOL     OW  391   3.001   1.199   2.475  0.0830  0.0631 -0.0370
  131SOL    HW1  392   2.934   1.246   2.530 -0.8886  1.0165 -2.7016
  131SOL    HW2  393   2.980   1.235   2.378 -1.0728  1.0834 -1.0304
  132SOL     OW  394   1.038   1.422   2.077  0.0665  0.7265  0.1025
  132SOL    HW1  395   0.964   1.412   2.146 -0.9455 -0.7108 -3.1249
  132SOL    HW2  396   1.102   1.339   2.080 -3.3469 -3.0284 -0.5662
  133SOL     OW  397   0.326   1.273   0.304  0.9021 -0.2641  0.5487
  133SOL    HW1  398   0.335   1.347   0.234 -0.6956  0.2832 -1.6451
  133SOL    HW2  399   0.398   1.204   0.295 -1.5749  1.9392 -0.8287
  134SOL     OW  400   2.889   1.042   0.213 -0.2724 -0.3813 -1.0577
  134SOL    HW1  401   2.908   0.976   0.140 -1.3175 -2.6232 -0.0537
  134SOL    HW2  402   2.842   1.130   0.188 -0.9715  1.3761 -0.5246
  135SOL     OW  403   1.599   0.705   2.914 -0.1140 -0.4471  0.7031
  135SOL    HW1  404   1.544   0.625   2.887 -2.3713 -0.4157 -0.4862
  135SOL    HW2  405   1.696   0.683   2.906 -0.8690  1.3422 -1.6195
  136SOL     OW  406   1.949   1.766   1.725  0.9509 -0.1693 -0.0126
  136SOL    HW1  407   1.950   1.737   1.628  1.0188 -1.3922  4.0701
  136SOL    HW2  408   1.977   1.686   1.783 -1.1522  0.3613 -2.6030
  137SOL     OW  409   2.322   2.483   0.921 -0.3205 -0.3080  0.2103
  137SOL    HW1  410   2.243   2.546   0.932  0.1685 -2.0159  1.8098
  137SOL    HW2  411   2.294   2.387   0.907  2.1109  1.2393 -1.3667
  138SOL     OW  412   2.356   0.633   1.568 -0.2555 -0.0674  0.0675
  138SOL    HW1  413   2.380   0.730   1.592  2.0888 -0.4317  0.1172
  138SOL    HW2  414   2.278   0.630   1.501 -3.4133  0.4194 -1.8662
  139SOL     OW  415   2.406   2.826   2.826 -0.0408 -0.1503 -0.0910
  139SOL    HW1  416   2.447   2.737   2.792 -2.1132 -0.7759 -0.8040
  139SOL    HW2  417   2.304   2.827   2.818 -1.0472  1.3279 -1.8980
  140SOL     OW  418   1.370   1.944   2.399  0.3260 -0.8214 -0.4860
  140SOL    HW1  419   1.465   1.908   2.391  0.3015  1.7188 -0.1264
  140SOL    HW2  420   1.310   1.885   2.455  2.9826  0.5709  2.6799
  141SOL     OW  421   0.883   1.131   2.481 -0.2055  0.2174 -0.4464
  141SOL    HW1  422   0.847   1.036   2.502  0.7653  0.3444  0.0956
  141SOL    HW2  423   0.840   1.194   2.554 -0.0014  0.9803 -0.0750
  142SOL     OW  424   2.706   2.655   2.261 -0.6513 -0.1910 -0.2799
  142SOL    HW1  425   2.769   2.728   2.221  0.9088  0.1392 -1.2097
  142SOL    HW2  426   2.617   2.653   2.212  1.4134 -3.3931  2.4496
  143SOL     OW  427   1.261   2.346   0.293 -0.4570  0.2411  0.7250
  143SOL    HW1  428   1.309   2.435   0.304  1.0196  1.2542 -1.6004
  143SOL    HW2  429   1.210   2.314   0.375  1.6974 -0.5461 -1.3558
  144SOL     OW  430   1.058   2.550   0.532 -0.0433 -0.2427 -0.1573
  144SOL    HW1  431   1.078   2.581   0.623 -0.9995 -1.2999 -0.6892
  144SOL    HW2  432   1.109   2.608   0.460  0.2524  1.6100  0.4912
  145SOL     OW  433   1.577   2.593   2.432 -0.0653  0.0024  0.2491
  145SOL    HW1  434   1.620   2.558   2.517 -0.8364 -1.5467 -1.0053
  145SOL    HW2  435   1.597   2.695   2.425  1.5856  2.0198 -1.5034
  146SOL     OW  436   2.081   0.023   3.032 -0.2700  0.0497  0.0965
  146SOL    HW1  437   2.089   0.103   2.968  2.2308 -0.8141 -2.1426
  146SOL    HW2  438   1.988   3.082   3.033 -1.1099 -1.0831 -0.1965
  147SOL     OW  439   2.991   1.651   1.311 -0.6519 -0.6639 -0.0054
  147SOL    HW1  440   2.967   1.623   1.213 -0.9369  1.1684 -0.2557
  147SOL    HW2  441   2.920   1.601   1.362 -0.9290  1.3009 -0.6554
  148SOL     OW  442   1.977   0.013   0.393  0.3372 -0.3097 -0.1164
  148SOL    HW1  443   2.013   3.017   0.410  0.6892 -0.3688 -0.4907
  148SOL    HW2  444   2.033   0.059   0.318 -0.2973  0.9362  0.4401
  149SOL     OW  445   0.572   1.785   3.005  0.8680  0.4214 -0.5405
  149SOL    HW1  446   0.646   1.716   3.005  0.6178  1.9713 -0.9829
  149SOL    HW2  447   0.548   1.813   2.908  2.8483  1.9545 -1.2316
  150SOL     OW  448   0.404   2.701   0.985  0.2673  0.1661  0.0703
  150SOL    HW1  449   0.357   2.721   1.072  2.2200 -1.7683 -0.0983
  150SOL    HW2  450   0.360   2.762   0.916  0.2677  1.1219  0.3075
  151SOL     OW  451   0.189   1.101   3.084 -0.2730  0.4249  0.0756
  151SOL    HW1  452   0.272   1.142   3.044  0.5315  1.0432  0.3526
  151SOL    HW2  453   0.144   1.050   3.008 -2.4329 -0.2354  0.4905
  152SOL     OW  454   2.918   1.957   0.922  1.0198 -0.1458 -0.0951
  152SOL    HW1  455   2.913   2.040   0.857 -0.0524  0.3302 -1.6287
  152SOL    HW2  456   2.962   1.874   0.879  2.9049 -0.3604 -3.4027
  153SOL     OW  457   1.734   2.307   0.848  0.0514  1.0084 -0.4677
  153SOL    HW1  458   1.789   2.274   0.768  0.9669 -0.7042  0.7624
  153SOL    HW2  459   1.720   2.227   0.913 -0.8817 -1.8081  0.0797
  154SOL     OW  460   0.563   2.865   1.273  0.3188 -0.4989 -0.2925
  154SOL    HW1  461   0.552   2.951   1.326  0.0268  0.9893  1.2346
  154SOL    HW2  462   0.658   2.869   1.237  1.2297  0.9799 -0.2914
  155SOL     OW  463   2.895   2.163   0.748 -0.1769  0.4224  0.2109
  155SOL    HW1  464   2.959   2.240   0.734 -0.1345 -1.6349 -2.3550
  155SOL    HW2  465   2.801   2.201   0.756  0.4241  1.4407 -0.4867
  156SOL     OW  466   2.706   2.112   0.350  0.2290  0.0322  0.1862
  156SOL    HW1  467   2.802   2.149   0.360 -3.1130 -0.9916  0.3477
  156SOL    HW2  468   2.698   2.023   0.299  1.8718 -2.1161 -0.4867
  157SOL     OW  469   0.341   2.300   1.769 -0.0403 -0.0077 -0.4199
  157SOL    HW1  470   0.308   2.204   1.788  0.2576 -0.6212  5.2552
  157SOL    HW2  471   0.433   2.312   1.813 -2.9587 -2.3906 -0.2952
  158SOL     OW  472   1.399   0.379   0.959 -0.4592  0.2719 -0.3765
  158SOL    HW1  473   1.299   0.360   0.971 -0.6037 -0.0790  1.2620
  158SOL    HW2  474   1.443   0.431   1.035  0.2741 -0.6040 -0.1165
  159SOL     OW  475   1.711   0.945   0.034  0.4009  0.1629 -0.3741
  159SOL    HW1  476   1.734   0.867   0.092 -0.3865  0.4915  0.4678
  159SOL    HW2  477   1.613   0.964   0.050 -2.9216 -0.8323  0.7711
  160SOL     OW  478   1.200   1.974   0.299 -0.2490  0.1299  0.0245
  160SOL    HW1  479   1.210   2.029   0.212 -0.0371 -0.0858  0.7616
  160SOL    HW2  480   1.106   1.961   0.330  2.3904  0.2014 -0.0348
  161SOL     OW  481   2.621   2.210   2.510 -0.0379 -0.3357 -0.2298
  161SOL    HW1  482   2.712   2.183   2.537 -0.3872  2.1707 -1.5702
  161SOL    HW2  483   2.635   2.303   2.471  0.4958 -1.9574  1.7134
  162SOL     OW  484   0.216   2.317   1.355 -0.4184 -0.4408  0.3785
  162SOL    HW1  485   0.113   2.310   1.366  1.9913 -0.2544 -1.7886
  162SOL    HW2  486   0.240   2.415   1.352 -2.9129 -0.1862  0.9886
  163SOL     OW  487   0.311   0.325   2.761 -0.3032 -0.3468  0.2785
  163SOL    HW1  488   0.313   0.286   2.667 -0.4195  0.9831 -0.1333
  163SOL    HW2  489   0.229   0.383   2.766 -0.1687 -3.2579 -1.0636
  164SOL     OW  490   0.208   2.663   2.697 -0.3425 -0.0713 -0.7615
  164SOL    HW1  491   0.188   2.760   2.709  0.3261 -1.6869  0.1188
  164SOL    HW2  492   0.192   2.620   2.790 -1.6861  0.6118 -1.2194
  165SOL     OW  493   2.768   1.049   1.462  0.0832 -0.3478 -0.0454
  165SOL    HW1  494   2.753   1.063   1.567 -0.8276  1.4285  2.9218
  165SOL    HW2  495   2.726   0.961   1.432 -0.4225 -1.7913  3.1911
  166SOL     OW  496   2.064   1.885   1.416  0.4637 -0.1900 -0.1535
  166SOL    HW1  497   2.142   1.854   1.360 -2.5055  0.5719  0.8178
  166SOL    HW2  498   1.999   1.808   1.429 -1.4349 -0.7180  0.3570
  167SOL     OW  499   0.501   0.491   2.437 -0.2692 -0.5693  0.3252
  167SOL    HW1  500   0.471   0.520   2.344 -0.0655  3.4694 -0.3713
  167SOL    HW2  501   0.484   0.566   2.508  1.8507 -0.9463 -0.9543
  168SOL     OW  502   2.176   0.203   2.040 -0.4789 -0.0373  0.0098
  168SOL    HW1  503   2.198   0.213   1.938 -0.0366 -0.5672 -0.7587
  168SOL    HW2  504   2.222   0.124   2.087  1.2105  0.2524  0.5570
  169SOL     OW  505   0.595   1.004   0.020  0.0848  0.7006  0.4529
  169SOL    HW1  506   0.518   1.036   3.059  0.7435 -0.2333 -2.1730
  169SOL    HW2  507   0.665   0.958   3.064 -0.7395  0.9307 -0.8441
  170SOL     OW  508   0.962   1.444   1.218 -0.0025 -0.5589 -0.7512
  170SOL    HW1  509   0.933   1.456   1.317 -0.3016  1.5633  1.9803
  170SOL    HW2  510   0.954   1.348   1.195 -0.7717 -0.3070 -0.8378
  171SOL     OW  511   1.045   2.518   1.630 -0.6788  0.0287  0.3333
  171SOL    HW1  512   1.046   2.616   1.614  0.0007 -1.7608  1.5115
  171SOL    HW2  513   1.027   2.463   1.546 -0.7693 -1.7737 -0.5672
  172SOL     OW  514   1.183   0.043   2.001 -0.1233 -0.2593 -0.3436
  172SOL    HW1  515   1.182   3.076   2.076 -0.4561 -0.0640  1.6655
  172SOL    HW2  516   1.230   0.129   2.023  0.4037 -2.7843 -1.1151
  173SOL     OW  517   1.238   2.454   0.955 -0.4953  0.4348  0.2302
  173SOL    HW1  518   1.141   2.466   0.928 -1.2365 -1.0944  0.2168
  173SOL    HW2  519   1.280   2.382   0.889  0.0988 -1.8168 -3.1469
  174SOL     OW  520   2.262   0.086   0.523  0.7459  0.5501  0.3914
  174SOL    HW1  521   2.168   0.109   0.558 -1.7060  1.1740 -0.1850
  174SOL    HW2  522   2.280   0.146   0.442  0.5856 -0.2164 -4.1093
  175SOL     OW  523   1.215   1.113   0.712 -0.2367  0.2501 -0.1001
  175SOL    HW1  524   1.169   1.193   0.749  0.5875 -2.8190  0.1746
  175SOL    HW2  525   1.153   1.057   0.652 -0.7752 -2.7420  1.4847
  176SOL     OW  526   0.890   1.691   0.452 -0.0958  0.6179 -0.3077
  176SOL    HW1  527   0.878   1.715   0.552  0.7775  2.0711  0.5061
  176SOL    HW2  528   0.963   1.622   0.434 -2.6430  2.9936  2.5633
  177SOL     OW  529   1.443   1.400   0.708  0.0073 -0.3359  0.2094
  177SOL    HW1  530   1.373   1.425   0.640 -0.2258  1.4686 -0.1874
  177SOL    HW2  531   1.516   1.335   0.680  1.2814  1.5677 -2.2893
  178SOL     OW  532   2.217   1.731   0.221 -0.2913  0.1958  0.3965
  178SOL    HW1  533   2.253   1.806   0.279  1.5910 -0.7839 -0.2216
  178SOL    HW2  534   2.292   1.661   0.211 -2.0084 -1.0179 -1.8825
  179SOL     OW  535   1.539   2.738   3.096  0.0090 -0.0731  0.3509
  179SOL    HW1  536   1.468   2.663   3.091  1.7594 -0.2603 -1.4940
  179SOL    HW2  537   1.589   2.719   0.081 -0.7014  0.8109 -2.6037
  180SOL     OW  538   2.038   1.307   1.580  0.1321 -0.1923 -0.2859
  180SOL    HW1  539   2.084   1.286   1.672  1.1803 -2.2618  0.4979
  180SOL    HW2  540   2.095   1.361   1.511 -0.3427 -1.1753  0.2663
  181SOL     OW  541   1.220   0.608   1.897 -0.0206 -0.0641 -0.1736
  181SOL    HW1  542   1.252   0.589   1.992  1.1230 -0.2515  0.7004
  181SOL    HW2  543   1.118   0.600   1.893  0.4520 -1.1721  2.1588
  182SOL     OW  544   0.165   1.232   2.420  0.3482  0.1148  0.5245
  182SOL    HW1  545   0.067   1.213   2.432 -0.2626  1.7402 -1.5920
  182SOL    HW2  546   0.216   1.158   2.371  2.4464  0.5206 -1.7337
  183SOL     OW  547   1.482   0.409   2.304  0.6641 -0.3852  0.3793
  183SOL    HW1  548   1.567   0.388   2.251  1.4238  0.1541 -0.9220
  183SOL    HW2  549   1.508   0.425   2.399 -0.5385  1.6114 -2.1787
  184SOL     OW  550   0.636   0.452   1.034  0.4707  0.4452  0.1004
  184SOL    HW1  551   0.678   0.542   1.064 -2.4046 -0.1800  2.5023
  184SOL    HW2  552   0.599   0.401   1.116 -0.5134 -0.1150 -1.1322
  185SOL     OW  553   2.242   1.482   0.754 -0.3618 -0.1206  0.3426
  185SOL    HW1  554   2.281   1.455   0.669 -4.4288 -2.2737 -1.3424
  185SOL    HW2  555   2.138   1.477   0.756 -2.6537  0.3916  1.5884
  186SOL     OW  556   0.258   2.087   0.311 -0.8592  0.4383  0.2472
  186SOL    HW1  557   0.300   2.004   0.350  0.2609 -0.1446 -0.9660
  186SOL    HW2  558   0.157   2.077   0.294 -0.2833  0.1762 -2.2570
  187SOL     OW  559   2.073   2.260   3.072 -0.3236  0.1694 -0.0218
  187SOL    HW1  560   2.077   2.160   3.045  0.8191 -0.5021  1.1529
  187SOL    HW2  561   2.151   2.318   3.035 -0.9713  1.1102 -1.1563
  188SOL     OW  562   1.272   2.000   1.322  0.3085 -0.0994 -0.2840
  188SOL    HW1  563   1.331   1.919   1.335  2.6882  0.4705 -0.6098
  188SOL    HW2  564   1.223   2.004   1.235 -2.6229  3.0074  1.0835
  189SOL     OW  565   2.050   1.529   2.587  0.4579 -0.5811  0.2594
  189SOL    HW1  566   1.981   1.468   2.538 -0.9218 -0.4410  0.4942
  189SOL    HW2  567   2.039   1.629   2.572  0.5824  1.0354 -0.2906
  190SOL     OW  568   0.859   2.533   2.274 -0.0236  0.1116 -0.1181
  190SOL    HW1  569   0.920   2.557   2.191  2.7036 -1.9052  0.0172
  190SOL    HW2  570   0.774   2.586   2.278 -1.3813  0.4749 -0.3827
  191SOL     OW  571   2.403   0.942   1.248 -0.4914 -0.5544 -0.0811
  191SOL    HW1  572   2.414   0.971   1.347  2.1180 -0.4692  1.0264
  191SOL    HW2  573   2.491   0.952   1.199 -0.3006 -1.0306  0.7202
  192SOL     OW  574   2.633   0.565   1.750 -0.8650 -0.0611  0.0679
  192SOL    HW1  575   2.537   0.559   1.731  0.6488  2.0315 -0.6629
  192SOL    HW2  576   2.642   0.571   1.851  1.1264 -0.5117  2.1005
  193SOL     OW  577   0.973   0.229   0.167 -0.2177 -0.5839  0.3722
  193SOL    HW1  578   1.041   0.170   0.125 -1.6449 -0.7775  1.8728
  193SOL    HW2  579   0.894   0.246   0.106 -1.3299  1.8423  0.3043
  194SOL     OW  580   0.985   2.408   1.376 -0.2804 -0.4096 -0.2833
  194SOL    HW1  581   0.992   2.304   1.382  0.7185  1.1896 -1.9533
  194SOL    HW2  582   1.064   2.447   1.327 -3.3124  1.0895 -0.9467
  195SOL     OW  583   2.568   1.236   0.309 -0.3869 -0.2962 -0.2812
  195SOL    HW1  584   2.559   1.173   0.388 -0.9858  4.1494  1.0063
  195SOL    HW2  585   2.543   1.326   0.352 -1.8320  1.2392 -1.0521
  196SOL     OW  586   0.559   2.294   1.545  0.5651  0.3999  0.1278
  196SOL    HW1  587   0.528   2.269   1.455  0.4295  1.0582  2.8212
  196SOL    HW2  588   0.492   2.265   1.612  0.2043 -0.8348  0.0293
  197SOL     OW  589   0.001   0.578   2.184  0.6486 -0.2032 -0.0129
  197SOL    HW1  590   0.085   0.525   2.191 -2.1215  1.7204 -0.6163
  197SOL    HW2  591   3.046   0.585   2.270 -1.0427 -0.9447 -0.4596
  198SOL     OW  592   1.750   1.220   0.309  0.0936  0.2400  0.0546
  198SOL    HW1  593   1.779   1.216   0.213 -1.1785 -1.4071 -2.2758
  198SOL    HW2  594   1.769   1.313   0.346 -1.1256  2.0433  0.6526
  199SOL     OW  595   2.434   0.334   1.527 -0.9680  0.1064 -0.4664
  199SOL    HW1  596   2.351   0.387   1.532  2.6616 -0.4729 -1.1860
  199SOL    HW2  597   2.505   0.382   1.475 -1.5541 -3.3382  0.8160
  200SOL     OW  598   2.155   0.195   2.835  0.2169 -0.1553  0.5659
  200SOL    HW1  599   2.247   0.153   2.808 -0.6617 -1.6642  3.7187
  200SOL    HW2  600   2.149   0.297   2.829  0.8475 -0.6572  0.2609
  201SOL     OW  601   2.720   0.163   1.005 -0.1558  0.1699 -0.2989
  201SOL    HW1  602   2.728   0.220   1.091  3.3120  1.5575 -1.2036
  201SOL    HW2  603   2.656   0.217   0.938  2.6531  1.4812  0.9299
  202SOL     OW  604   3.025   2.623   0.489  0.2679 -0.2458  0.5377
  202SOL    HW1  605   0.018   2.619   0.446 -3.3112  0.4848 -3.1959
  202SOL    HW2  606   3.027   2.705   0.550 -0.8511 -1.7331  0.5723
  203SOL     OW  607   1.371   1.789   0.256 -0.2335  0.5893  0.1082
  203SOL    HW1  608   1.299   1.856   0.281 -0.9404  1.7748  0.6739
  203SOL    HW2  609   1.431   1.767   0.337 -2.1653  0.8806 -0.9555
  204SOL     OW  610   0.454   1.979   2.174  0.8211  0.2028  0.9708
  204SOL    HW1  611   0.506   2.004   2.089 -1.9946  1.5305 -1.6444
  204SOL    HW2  612   0.366   1.939   2.146 -0.2231 -0.8732  0.1336
  205SOL     OW  613   0.894   0.639   0.809 -0.0824  0.6664  0.1188
  205SOL    HW1  614   0.898   0.573   0.885  0.5146 -0.3271 -1.4864
  205SOL    HW2  615   0.986   0.648   0.758  2.0742  3.0928 -0.4637
  206SOL     OW  616   0.453   0.567   2.773 -0.1800 -0.7451 -0.7909
  206SOL    HW1  617   0.399   0.655   2.798 -2.5456  2.0666  1.9235
  206SOL    HW2  618   0.388   0.490   2.751 -1.4014 -0.1689 -1.0539
  207SOL     OW  619   1.383   2.433   1.627  0.0644 -0.6655  0.3866
  207SOL    HW1  620   1.469   2.450   1.678  1.0613 -0.6102 -2.3470
  207SOL    HW2  621   1.298   2.459   1.682 -2.3802  2.1000  2.7839
  208SOL     OW  622   2.949   3.061   1.442 -0.1137  0.1482  0.0009
  208SOL    HW1  623   3.020   3.035   1.372  0.1767 -1.0092  1.1516
  208SOL    HW2  624   2.860   3.068   1.388 -0.1118 -1.9959 -1.3974
  209SOL     OW  625   1.633   1.196   0.675  0.5933 -0.5118  0.0346
  209SOL    HW1  626   1.617   1.121   0.745  0.3401 -1.0765 -0.1164
  209SOL    HW2  627   1.651   1.156   0.583  0.1562  0.5907 -0.2621
  210SOL     OW  628   2.686   0.875   0.361  0.6883 -0.2447 -0.2382
  210SOL    HW1  629   2.625   0.910   0.430  0.4084 -3.2118 -1.4631
  210SOL    HW2  630   2.772   0.927   0.357 -0.2325  0.7416 -0.1924
  211SOL     OW  631   1.276   0.050   0.318  0.4629 -0.1287 -0.0779
  211SOL    HW1  632   1.219   0.056   0.233  0.2391 -0.2287  1.1598
  211SOL    HW2  633   1.372   0.054   0.290 -1.1572 -0.3813  0.8334
  212SOL     OW  634   1.907   2.131   0.675 -0.3301  0.1002 -0.2986
  212SOL    HW1  635   2.008   2.147   0.684  2.4205  0.8006  1.3229
  212SOL    HW2  636   1.877   2.122   0.580  1.4325 -2.3216  2.1910
  213SOL     OW  637   2.388   0.119   2.688 -0.1507  0.5793  0.0155
  213SOL    HW1  638   2.471   0.059   2.684  2.7818  0.5840 -0.8726
  213SOL    HW2  639   2.410   0.218   2.687 -0.1457 -0.5203  1.3454
  214SOL     OW  640   0.972   2.057   2.301  0.3141 -0.1926  0.3772
  214SOL    HW1  641   1.043   2.071   2.235 -2.7839 -0.3099  0.1196
  214SOL    HW2  642   0.896   2.124   2.278 -0.6919  1.1074  1.2605
  215SOL     OW  643   0.253   1.395   0.947  0.2361  0.0883  0.7031
  215SOL    HW1  644   0.257   1.478   1.005  0.4952 -2.6594 -0.6154
  215SOL    HW2  645   0.307   1.320   0.995  0.5774 -0.6486 -0.6862
  216SOL     OW  646   0.202   2.179   2.692  0.2811  0.1557 -0.0211
  216SOL    HW1  647   0.225   2.229   2.608  2.9326 -1.3308  0.6179
  216SOL    HW2  648   0.157   2.244   2.760  1.2475  2.9367  4.3945
  217SOL     OW  649   2.839   1.236   1.281 -0.0668  0.2953  0.2184
  217SOL    HW1  650   2.879   1.178   1.202  0.5442 -2.3681  0.6683
  217SOL    HW2  651   2.807   1.174   1.355 -0.7888  1.9015 -0.9739
  218SOL     OW  652   0.833   2.230   1.933 -0.1989 -0.5767  0.0022
  218SOL    HW1  653   0.848   2.324   1.898  3.1122  0.7188 -0.5146
  218SOL    HW2  654   0.846   2.226   2.032 -2.0362  0.2398  0.2100
  219SOL     OW  655   1.957   1.658   0.306  0.2485 -0.3652  0.3203
  219SOL    HW1  656   2.043   1.687   0.256 -0.3452  1.8787  0.5247
  219SOL    HW2  657   1.926   1.729   0.372  0.4899  1.0608  1.0757
  220SOL     OW  658   2.041   0.850   0.325  0.0443  0.1671  0.1681
  220SOL    HW1  659   2.024   0.937   0.374  1.5851  0.9249 -0.1351
  220SOL    HW2  660   1.969   0.783   0.331  3.1081  1.8531 -2.6540
  221SOL     OW  661   3.001   0.570   0.120 -0.0388  0.2908 -0.5698
  221SOL    HW1  662   2.911   0.567   0.169  3.8030 -0.4289 -0.0192
  221SOL    HW2  663   3.077   0.560   0.187  1.6250 -1.1334 -0.3571
  222SOL     OW  664   1.506   1.663   0.478 -0.1274 -0.0868 -0.4327
  222SOL    HW1  665   1.411   1.635   0.508 -3.1663 -0.0802 -1.9653
  222SOL    HW2  666   1.545   1.735   0.544  1.8004  2.5414  3.7570
  223SOL     OW  667   1.032   0.051   2.927 -0.2042  0.1356  0.3419
  223SOL    HW1  668   1.005   0.113   2.847 -1.6587  3.3166 -1.1246
  223SOL    HW2  669   0.996   3.050   2.926 -2.6599 -2.4692  0.9970
  224SOL     OW  670   0.987   3.002   1.195  0.0954  0.3389 -0.0284
  224SOL    HW1  671   0.948   3.078   1.141 -0.7024 -2.7100  1.4254
  224SOL    HW2  672   1.016   3.037   1.285  1.4202 -1.2796  0.5050
  225SOL     OW  673   0.352   2.672   1.902 -0.2270 -0.2618 -0.1464
  225SOL    HW1  674   0.254   2.657   1.921 -0.5870  0.0266  0.2911
  225SOL    HW2  675   0.386   2.602   1.836 -0.9470  2.1399  0.6995
  226SOL     OW  676   1.558   1.567   0.216 -0.1754 -0.1802  0.0554
  226SOL    HW1  677   1.509   1.637   0.268 -1.0421  1.3925  0.8400
  226SOL    HW2  678   1.541   1.474   0.255 -2.0893 -1.2303  0.7698
  227SOL     OW  679   0.470   1.778   0.834  0.3933  0.0630  0.1992
  227SOL    HW1  680   0.564   1.799   0.868 -0.8474  0.4635  0.2056
  227SOL    HW2  681   0.458   1.710   0.761 -0.4244  1.7363  3.4728
  228SOL     OW  682   0.114   1.949   0.634 -0.0881  0.2198 -0.5148
  228SOL    HW1  683   0.015   1.978   0.615 -2.3878  1.9813 -1.1813
  228SOL    HW2  684   0.173   2.033   0.635  1.0347 -3.0834 -1.6646
  229SOL     OW  685   2.782   0.129   3.039  0.3471  0.0760 -0.2034
  229SOL    HW1  686   2.732   0.046   3.008 -0.8705  2.8744 -1.1778
  229SOL    HW2  687   2.880   0.124   3.008  0.1909  0.6105 -1.9747
  230SOL     OW  688   2.268   1.012   0.594 -0.0870 -0.1531 -0.5315
  230SOL    HW1  689   2.228   1.087   0.538 -3.1869  2.8053  0.4166
  230SOL    HW2  690   2.270   1.044   0.693 -1.0128  2.9818  0.2655
  231SOL     OW  691   1.401   1.323   3.073  0.2774  0.3602  0.4255
  231SOL    HW1  692   1.336   1.334   2.995 -1.8638  0.1996 -2.8910
  231SOL    HW2  693   1.469   1.393   3.078 -3.1921 -2.5674 -0.1088
  232SOL     OW  694   2.425   2.009   1.011 -0.3869  0.4101 -0.8484
  232SOL    HW1  695   2.468   1.942   0.947  1.8429 -0.1550 -0.1491
  232SOL    HW2  696   2.500   2.059   1.060 -2.4816  3.7646  1.4244
  233SOL     OW  697   0.296   2.876   1.197  0.6679 -0.0189 -0.1369
  233SOL    HW1  698   0.398   2.875   1.213 -4.0271 -0.0582  1.4546
  233SOL    HW2  699   0.268   2.976   1.185  1.0358 -0.4508  1.0003
  234SOL     OW  700   0.883   3.077   2.574  0.0865  0.4763 -0.8068
  234SOL    HW1  701   0.965   3.020   2.569  0.9920 -1.3964  0.7039
  234SOL    HW2  702   0.827   3.055   2.659 -3.2380 -1.9897  2.0938
  235SOL     OW  703   3.021   0.989   2.233  0.4223 -0.1628  0.1479
  235SOL    HW1  704   2.974   1.010   2.141 -0.7502 -0.5797 -0.2032
  235SOL    HW2  705   0.007   0.942   2.219  0.8388  0.9070 -1.0423
  236SOL     OW  706   1.381   2.819   1.658  0.0045 -0.4587  0.1973
  236SOL    HW1  707   1.397   2.920   1.666  1.4096  2.4127  0.3951
  236SOL    HW2  708   1.319   2.797   1.581 -0.3776  0.2181 -0.6726
  237SOL     OW  709   0.699   1.348   2.644  0.0784  0.4815 -0.2175
  237SOL    HW1  710   0.611   1.311   2.617  0.8279  0.2429  0.4664
  237SOL    HW2  711   0.735   1.415   2.575 -0.0248  0.5514 -3.4985
  238SOL     OW  712   1.169   0.474   2.468 -0.2445  1.5156 -0.1266
  238SOL    HW1  713   1.173   0.563   2.413 -0.1401 -1.1593  1.1148
  238SOL    HW2  714   1.113   0.486   2.554  0.5224  1.4637  0.2617
  239SOL     OW  715   0.246   2.165   2.064  0.0680 -0.3204  0.2743
  239SOL    HW1  716   0.256   2.082   2.009 -1.5408  1.0368 -0.4762
  239SOL    HW2  717   0.300   2.238   2.022 -2.7028 -0.7806  1.6996
  240SOL     OW  718   2.490   3.009   0.643 -0.2661  0.1778  0.2805
  240SOL    HW1  719   2.416   3.045   0.707  2.8699  2.1185  1.0175
  240SOL    HW2  720   2.449   2.955   0.569 -0.5579  0.0623  2.8561
  241SOL     OW  721   0.157   0.888   0.148  0.2514  0.1874  0.5971
  241SOL    HW1  722   0.169   0.822   0.069  1.5701 -0.4681 -1.2339
  241SOL    HW2  723   0.136   0.982   0.115 -1.5524 -0.9906 -0.2647
  242SOL     OW  724   1.614   2.493   1.730 -0.3139  0.5926 -0.5311
  242SOL    HW1  725   1.697   2.441   1.754 -1.3644  0.9293 -1.9662
  242SOL    HW2  726   1.635   2.576   1.682 -3.5824 -2.2366  1.1739
  243SOL     OW  727   0.569   2.334   1.880  0.0155  0.4109  0.7468
  243SOL    HW1  728   0.666   2.307   1.857  1.8063 -0.4181  0.1486
  243SOL    HW2  729   0.559   2.359   1.980  0.0632  0.4884 -0.1763
  244SOL     OW  730   2.424   0.386   2.155  0.0742  0.2191 -0.6647
  244SOL    HW1  731   2.327   0.344   2.156 -1.9261  1.3423 -0.5062
  244SOL    HW2  732   2.410   0.484   2.148  1.3392 -1.5671  1.5550
  245SOL     OW  733   1.477   3.053   1.101 -0.8071 -0.1052  0.4202
  245SOL    HW1  734   1.504   0.044   1.125 -1.1524 -3.9556  0.3704
  245SOL    HW2  735   1.464   3.041   0.999 -2.8918 -0.7560 -0.5283
  246SOL     OW  736   1.640   2.825   0.487 -0.2858  0.0529 -0.1611
  246SOL    HW1  737   1.717   2.759   0.474 -0.0602  1.4954  0.8079
  246SOL    HW2  738   1.554   2.775   0.508  0.9041  0.3758  0.2403
  247SOL     OW  739   1.640   0.516   1.829 -0.2528 -0.3174 -0.0377
  247SOL    HW1  740   1.652   0.435   1.774 -1.0211  1.9862  1.5400
  247SOL    HW2  741   1.727   0.537   1.881  1.5835  0.0980 -0.8869
  248SOL     OW  742   2.897   1.964   1.863  0.0134 -0.3823  0.5967
  248SOL    HW1  743   2.944   1.896   1.920 -0.5788  1.3440  0.7807
  248SOL    HW2  744   2.963   2.036   1.824 -0.9835  1.7070 -0.9230
  249SOL     OW  745   3.027   0.267   0.350  0.2405  0.2642 -0.1181
  249SOL    HW1  746   2.991   0.349   0.401 -0.3381  1.5852 -1.5897
  249SOL    HW2  747   0.021   0.281   0.311  1.6262 -0.4345  1.1880
  250SOL     OW  748   2.737   0.064   2.550 -0.0935  0.0402 -0.3794
  250SOL    HW1  749   2.681   0.005   2.616 -2.0310 -2.7550  2.7528
  250SOL    HW2  750   2.669   0.128   2.508  0.4187 -4.5716 -0.6213
  251SOL     OW  751   1.441   0.717   0.058  0.3020 -0.5194 -0.5426
  251SOL    HW1  752   1.428   0.618   0.084  0.6239 -4.5525  1.1084
  251SOL    HW2  753   1.508   0.729   3.081  0.4528  2.0096  2.8325
  252SOL     OW  754   1.243   2.454   2.115 -0.1775  0.0034 -0.3117
  252SOL    HW1  755   1.288   2.445   2.205 -0.9385  0.4287 -1.0341
  252SOL    HW2  756   1.303   2.519   2.065 -0.6301 -1.6287 -0.3978
  253SOL     OW  757   2.119   2.650   0.919 -0.3404 -0.2732 -0.3708
  253SOL    HW1  758   2.200   2.708   0.889 -1.2055  1.0156 -1.3418
  253SOL    HW2  759   2.030   2.671   0.866 -1.6734  0.9546  1.3847
  254SOL     OW  760   2.365   1.338   0.940 -0.8108  0.3411 -0.1237
  254SOL    HW1  761   2.321   1.392   0.868  1.4906  1.4002 -1.0700
  254SOL    HW2  762   2.320   1.335   1.031  0.0374  1.5986 -0.7922
  255SOL     OW  763   0.788   2.831   1.137 -0.1185  0.3847  0.0512
  255SOL    HW1  764   0.876   2.885   1.159 -1.3945  1.6102 -0.5644
  255SOL    HW2  765   0.800   2.728   1.133  0.9543 -0.0371  0.6249
  256SOL     OW  766   1.973   2.085   1.608 -0.7491  0.1108  0.2935
  256SOL    HW1  767   2.014   2.026   1.532  2.2989 -3.5962  1.3072
  256SOL    HW2  768   1.995   2.040   1.700  0.9811 -0.4587 -0.9689
  257SOL     OW  769   0.329   2.326   2.475 -0.1996 -0.1889  0.2248
  257SOL    HW1  770   0.391   2.265   2.414 -1.5199  1.2125 -1.1568
  257SOL    HW2  771   0.384   2.394   2.517 -0.8118 -1.7295 -0.3501
  258SOL     OW  772   0.760   2.903   0.868  0.0486 -0.1506 -0.3430
  258SOL    HW1  773   0.766   2.864   0.968  0.7908  0.4629  3.2897
  258SOL    HW2  774   0.728   3.004   0.867 -1.6687 -0.9178 -0.9110
  259SOL     OW  775   1.422   0.504   2.839 -0.1160 -0.0987  0.0653
  259SOL    HW1  776   1.371   0.417   2.828 -2.6362  0.1267 -0.4498
  259SOL    HW2  777   1.352   0.582   2.839  0.3246 -1.6311 -0.5320
  260SOL     OW  778   0.061   0.994   1.255 -0.5301  0.3337 -0.0865
  260SOL    HW1  779   0.097   1.052   1.334 -2.8712 -0.5411  0.1686
  260SOL    HW2  780   0.127   1.009   1.179  1.1027  1.4373 -0.3899
  261SOL     OW  781   0.679   0.156   2.286 -0.0436  0.2142  0.4653
  261SOL    HW1  782   0.739   0.213   2.228  0.9246  0.4994  2.1508
  261SOL    HW2  783   0.720   0.064   2.291 -2.5815  1.3749 -2.2655
  262SOL     OW  784   0.996   2.586   2.054 -0.4284 -0.2159  0.4879
  262SOL    HW1  785   0.948   2.543   1.973 -1.3803  0.7176  1.3860
  262SOL    HW2  786   1.086   2.540   2.064  0.7067 -2.2769 -1.9074
  263SOL     OW  787   0.605   2.130   2.991  0.1554 -0.5998  0.1679
  263SOL    HW1  788   0.693   2.152   3.035  1.6333  0.2473 -0.6978
  263SOL    HW2  789   0.547   2.072   3.051  3.1110  0.5913 -0.4834
  264SOL     OW  790   1.129   1.516   1.002  0.1857 -0.1889 -0.3398
  264SOL    HW1  791   1.223   1.486   1.016 -1.3579 -1.5908 -1.7461
  264SOL    HW2  792   1.071   1.478   1.075  0.5497  1.5446  1.1007
  265SOL     OW  793   1.098   2.285   0.505  0.0771  0.4369  0.0431
  265SOL    HW1  794   1.077   2.243   0.594  1.1259 -0.0383 -0.3901
  265SOL    HW2  795   1.073   2.385   0.506 -0.0045  1.4132 -2.7193
  266SOL     OW  796   2.606   0.923   1.055  0.0990 -0.1706  0.3702
  266SOL    HW1  797   2.541   0.860   1.005 -0.7643  1.7619 -2.0434
  266SOL    HW2  798   2.699   0.902   1.026 -0.0986  0.2231  1.2192
  267SOL     OW  799   2.944   1.241   2.927  0.1086  0.0751 -0.0197
  267SOL    HW1  800   2.974   1.270   3.022  1.5346 -3.2380 -0.6984
  267SOL    HW2  801   3.035   1.224   2.879 -0.5257  0.6530 -1.0842
  268SOL     OW  802   1.569   0.110   0.211 -0.3230 -0.0666 -0.9931
  268SOL    HW1  803   1.618   0.048   0.280 -0.1406  0.7287  1.4463
  268SOL    HW2  804   1.634   0.181   0.180  0.5960  0.0198  1.6811
  269SOL     OW  805   3.075   0.901   2.501 -0.7609 -0.4106  0.5013
  269SOL    HW1  806   3.041   0.981   2.454  0.9351 -1.7169  1.6391
  269SOL    HW2  807   0.070   0.885   2.468 -0.8358 -2.1450 -0.6897
  270SOL     OW  808   3.082   1.300   0.073  0.7198 -0.4450  0.5504
  270SOL    HW1  809   3.029   1.343   0.152 -0.6101 -1.1726  0.3632
  270SOL    HW2  810   0.058   1.238   0.105 -1.1204  1.2909 -3.3267
  271SOL     OW  811   2.777   1.515   2.523 -0.1096 -0.4155  0.7432
  271SOL    HW1  812   2.787   1.516   2.627  2.7162  0.9324 -3.1172
  271SOL    HW2  813   2.775   1.608   2.479  0.1794  2.5300 -1.2759
  272SOL     OW  814   2.453   2.601   1.865  0.3203 -0.1940 -0.5095
  272SOL    HW1  815   2.547   2.561   1.845 -0.5170  2.9609 -0.5337
  272SOL    HW2  816   2.445   2.636   1.961  1.1512 -1.6246  1.6401
  273SOL     OW  817   0.232   2.515   0.182  0.1023 -0.6604 -0.7743
  273SOL    HW1  818   0.232   2.546   0.279  1.7998  0.3749 -2.6208
  273SOL    HW2  819   0.326   2.491   0.155 -4.0039  1.7203 -1.3150
  274SOL     OW  820   0.982   2.442   0.869 -0.4541 -0.1376  0.4289
  274SOL    HW1  821   0.894   2.462   0.815  0.2749 -1.4266  1.6581
  274SOL    HW2  822   0.987   2.346   0.899 -2.1153 -1.2279 -4.0739
  275SOL     OW  823   2.075   1.739   3.088  0.3362 -0.1067  0.2889
  275SOL    HW1  824   2.123   1.753   0.077  1.5029 -0.9787 -1.5687
  275SOL    HW2  825   2.048   1.830   3.048 -0.0700  0.8700 -1.3933
  276SOL     OW  826   2.521   1.289   1.811 -0.3548  0.3438  0.2064
  276SOL    HW1  827   2.459   1.313   1.895  1.3181  0.2527  3.4471
  276SOL    HW2  828   2.621   1.305   1.833  1.3121 -0.1601 -1.6645
  277SOL     OW  829   2.549   0.342   0.913 -0.7063 -0.2735 -0.0256
  277SOL    HW1  830   2.480   0.363   0.842  0.1587  0.7414  0.6577
  277SOL    HW2  831   2.510   0.357   1.004 -0.9195  0.5242 -2.6959
  278SOL     OW  832   1.880   0.514   2.371 -0.5012 -0.2834 -0.5561
  278SOL    HW1  833   1.804   0.514   2.440  0.7040 -1.1897  1.2793
  278SOL    HW2  834   1.966   0.533   2.420  3.9380  0.1424 -1.3256
  279SOL     OW  835   1.082   2.762   1.095  0.3523  0.0241  0.4195
  279SOL    HW1  836   1.180   2.736   1.115  1.3841 -0.0944  0.8177
  279SOL    HW2  837   1.057   2.859   1.119 -1.7965 -1.5291 -0.6717
  280SOL     OW  838   1.187   0.890   0.392  0.2760 -0.2353 -0.7877
  280SOL    HW1  839   1.241   0.922   0.317 -1.4133  1.3540  4.1252
  280SOL    HW2  840   1.161   0.792   0.381 -2.2644 -1.3376 -1.6843
  281SOL     OW  841   2.368   1.504   0.226 -0.4378  0.4218  0.3562
  281SOL    HW1  842   2.454   1.496   0.283  1.5435  2.1488 -1.5335
  281SOL    HW2  843   2.377   1.443   0.143 -0.1780 -1.7764  3.0251
  282SOL     OW  844   2.775   1.303   0.159 -0.2912  0.5115 -0.4206
  282SOL    HW1  845   2.700   1.276   0.225 -1.5035 -1.4269  0.3102
  282SOL    HW2  846   2.850   1.361   0.204 -1.1125  3.9735  1.8895
  283SOL     OW  847   1.807   2.799   2.652  0.0855  0.0295 -0.2060
  283SOL    HW1  848   1.749   2.846   2.578 -1.4681 -0.4838  0.7138
  283SOL    HW2  849   1.863   2.876   2.703  3.3405  3.6813 -0.4512
  284SOL     OW  850   0.746   3.091   0.006 -0.3427  0.2351  0.5375
  284SOL    HW1  851   0.782   0.078   3.068 -1.4191 -0.5753  0.3976
  284SOL    HW2  852   0.825   3.043   0.051 -0.0392 -2.9375 -0.3289
  285SOL     OW  853   1.986   2.095   2.769 -0.2898  0.0811 -0.4852
  285SOL    HW1  854   2.076   2.079   2.723  1.2033  1.7375 -0.4930
  285SOL    HW2  855   1.913   2.087   2.700  3.0242  1.1577 -2.3047
  286SOL     OW  856   1.429   1.703   0.832  0.1004  0.2009 -0.0545
  286SOL    HW1  857   1.498   1.658   0.893  0.8168 -0.2355 -0.8382
  286SOL    HW2  858   1.466   1.708   0.736  2.0146 -0.9757 -0.2061
  287SOL     OW  859   1.658   0.013   1.387  0.3211 -0.4300  0.2225
  287SOL    HW1  860   1.697   3.093   1.480 -0.3056 -0.5130  1.1496
  287SOL    HW2  861   1.556   0.020   1.394 -2.4961 -0.7137  0.8939
  288SOL     OW  862   0.642   2.709   2.351 -0.2231 -0.1420  0.4733
  288SOL    HW1  863   0.625   2.795   2.411 -0.5688  0.6394  1.5115
  288SOL    HW2  864   0.555   2.683   2.301 -1.6149  0.6054 -0.3360
  289SOL     OW  865   0.201   1.464   0.690 -0.0468 -0.0696 -0.1505
  289SOL    HW1  866   0.168   1.379   0.639  0.4561  1.5252  0.4261
  289SOL    HW2  867   0.214   1.455   0.790 -1.6378 -2.6359 -1.9431
  290SOL     OW  868   1.090   1.808   1.589 -0.1655  0.6475 -0.6189
  290SOL    HW1  869   1.056   1.850   1.501 -0.5068 -0.2014 -1.8052
  290SOL    HW2  870   1.152   1.868   1.641 -0.0157  2.5467 -0.9989
  291SOL     OW  871   2.019   0.157   0.641  0.1123 -0.2669  0.0422
  291SOL    HW1  872   1.993   0.120   0.733  2.1258  1.6883  0.4914
  291SOL    HW2  873   1.991   0.086   0.567  2.2010 -1.6237 -0.5390
  292SOL     OW  874   0.285   0.412   1.442 -0.3369 -0.0361  0.1497
  292SOL    HW1  875   0.268   0.470   1.360  2.6941  0.3897  0.6609
  292SOL    HW2  876   0.230   0.448   1.520  0.2431  1.7857  0.4384
  293SOL     OW  877   2.332   1.783   0.714 -0.1878  0.3254 -0.0955
  293SOL    HW1  878   2.430   1.786   0.679  1.1110 -0.3164  1.3020
  293SOL    HW2  879   2.310   1.690   0.746  1.6562  1.5360 -0.9214
  294SOL     OW  880   0.409   0.155   2.256 -0.0099  0.0384 -0.4834
  294SOL    HW1  881   0.365   0.087   2.191 -0.8617 -0.7751 -0.4508
  294SOL    HW2  882   0.511   0.150   2.245 -2.6485 -0.9557 -0.9485
  295SOL     OW  883   0.939   1.256   0.434  0.5962 -0.2225 -0.2324
  295SOL    HW1  884   0.976   1.168   0.474  0.8377  0.4590 -0.6288
  295SOL    HW2  885   0.839   1.260   0.417 -1.8494 -0.6644 -1.0199
  296SOL     OW  886   2.169   1.948   1.067  0.3500 -0.2949  0.4009
  296SOL    HW1  887   2.147   1.850   1.069 -0.9003  0.8624  1.1964
  296SOL    HW2  888   2.255   1.967   1.018 -1.7030 -1.2891  1.1353
  297SOL     OW  889   1.854   0.399   2.764  0.1973 -0.3496  0.2297
  297SOL    HW1  890   1.938   0.451   2.753 -1.0632 -1.2110 -0.0407
  297SOL    HW2  891   1.794   0.408   2.684  0.6948  0.7913  0.5404
  298SOL     OW  892   1.553   3.065   2.669 -0.3033  0.1427 -0.1578
  298SOL    HW1  893   1.577   2.976   2.708 -1.8469  2.2052 -0.6198
  298SOL    HW2  894   1.530   0.032   2.745  3.0352 -0.0518 -0.7149
  299SOL     OW  895   0.951   0.190   2.155  0.8241 -0.3582  0.1584
  299SOL    HW1  896   0.991   0.238   2.235 -1.0775 -0.2964  1.4826
  299SOL    HW2  897   0.949   0.090   2.157 -1.0325  2.5663  0.5607
  300SOL     OW  898   2.512   0.073   1.550  0.1765 -0.2430 -0.5111
  300SOL    HW1  899   2.514   0.025   1.643  2.4248 -1.7754  0.8628
  300SOL    HW2  900   2.497   0.172   1.553  1.0389 -4.8487 -0.5139
  301SOL     OW  901   2.155   0.829   1.790  0.2060  0.0927  0.2057
  301SOL    HW1  902   2.251   0.831   1.754  0.6852  2.8611  0.3578
  301SOL    HW2  903   2.085   0.811   1.719 -0.7802 -1.1481  3.9593
  302SOL     OW  904   0.747   2.787   0.213 -0.3527 -0.3889  0.0348
  302SOL    HW1  905   0.697   2.863   0.253 -1.1577 -2.9806  1.0470
  302SOL    HW2  906   0.764   2.708   0.275  1.8052  1.2987 -0.3960
  303SOL     OW  907   1.732   1.817   1.918  0.6975  0.0944  0.2420
  303SOL    HW1  908   1.802   1.792   1.844 -2.4578  0.7757  0.3937
  303SOL    HW2  909   1.735   1.918   1.918 -1.4811 -1.4899  0.2193
  304SOL     OW  910   0.329   0.307   0.826  0.9587  0.0194  0.0114
  304SOL    HW1  911   0.398   0.228   0.831  1.8106 -1.5112 -0.4310
  304SOL    HW2  912   0.368   0.394   0.852 -1.0561 -1.0119 -0.8621
  305SOL     OW  913   0.785   0.876   0.572 -0.8185  0.2434 -0.2760
  305SOL    HW1  914   0.775   0.896   0.471 -0.1984  0.0701 -0.7569
  305SOL    HW2  915   0.762   0.781   0.590  1.5252  1.7945  0.9265
  306SOL     OW  916   0.489   1.335   3.035 -0.1803 -0.2585 -0.2720
  306SOL    HW1  917   0.586   1.303   3.038 -2.0335 -0.6277 -1.0671
  306SOL    HW2  918   0.471   1.396   0.021 -0.2029  0.8955  2.3906
  307SOL     OW  919   0.867   0.347   1.957 -0.1052 -0.4886 -0.0167
  307SOL    HW1  920   0.893   0.317   1.859 -1.3655  2.0954 -2.6152
  307SOL    HW2  921   0.913   0.289   2.027 -0.0347  0.3205 -1.3733
  308SOL     OW  922   0.757   0.247   0.828  0.2980 -0.8558  0.0804
  308SOL    HW1  923   0.740   0.316   0.904  3.3416  1.8406  3.4023
  308SOL    HW2  924   0.815   0.282   0.753 -3.8664 -0.8110  0.4822
  309SOL     OW  925   2.155   1.217   0.455  0.5745  0.7392  0.6544
  309SOL    HW1  926   2.182   1.314   0.462 -0.3818 -1.0963  0.3098
  309SOL    HW2  927   2.140   1.190   0.355 -1.0479 -0.8211 -0.8096
  310SOL     OW  928   0.941   1.321   3.063  0.0042  0.4711 -0.2993
  310SOL    HW1  929   1.033   1.368   3.046  1.0351  2.5571 -1.2939
  310SOL    HW2  930   0.923   1.330   0.062  1.9925 -1.3754 -3.3065
  311SOL     OW  931   1.904   2.500   2.226  0.1334 -0.0595 -0.2547
  311SOL    HW1  932   1.824   2.437   2.206  0.5607 -0.0331  0.6751
  311SOL    HW2  933   1.866   2.591   2.245 -0.6702 -1.2286  0.4761
  312SOL     OW  934   2.338   2.975   3.062 -0.2237  0.1768  0.4175
  312SOL    HW1  935   2.250   3.021   3.050  3.1843 -1.3258  1.6582
  312SOL    HW2  936   2.375   2.938   2.974  1.7129 -0.7095 -1.6445
  313SOL     OW  937   0.639   0.468   2.931 -0.1411 -0.3955 -0.3805
  313SOL    HW1  938   0.650   0.531   3.012 -0.6577 -1.6843 -0.0473
  313SOL    HW2  939   0.556   0.496   2.874 -1.2778 -2.3710 -0.5413
  314SOL     OW  940   2.569   1.333   2.797 -0.8087 -0.1152 -0.7763
  314SOL    HW1  941   2.563   1.295   2.895 -4.0073 -0.6702  0.8564
  314SOL    HW2  942   2.600   1.431   2.802 -0.6978  1.4184 -0.8893
  315SOL     OW  943   1.735   0.729   2.212  0.8563 -0.3428  0.4236
  315SOL    HW1  944   1.791   0.646   2.230 -2.0837 -0.0867 -0.2644
  315SOL    HW2  945   1.796   0.805   2.217 -1.6535 -3.7832  0.9041
  316SOL     OW  946   0.022   1.036   0.605  0.4391 -0.0009 -0.0017
  316SOL    HW1  947   0.021   0.990   0.515 -0.3072  0.1607 -1.1983
  316SOL    HW2  948   3.027   1.048   0.642 -0.4617  0.3332  0.4251
  317SOL     OW  949   0.594   2.992   0.304  0.1221  0.1058 -0.3679
  317SOL    HW1  950   0.551   3.065   0.246 -0.6680  1.2684  2.4063
  317SOL    HW2  951   0.650   3.039   0.374  0.8557  1.8155 -0.1127
  318SOL     OW  952   1.748   2.699   1.371 -0.0757 -0.1379  0.2713
  318SOL    HW1  953   1.692   2.720   1.457  0.0515  0.9756  1.4728
  318SOL    HW2  954   1.745   2.602   1.351 -2.7482  1.2648  0.4158
  319SOL     OW  955   1.067   1.502   0.379 -0.1985 -0.3232  0.4517
  319SOL    HW1  956   1.010   1.416   0.395 -0.9534 -1.2560  0.6133
  319SOL    HW2  957   1.143   1.484   0.317  1.8992 -0.8874 -0.2022
  320SOL     OW  958   0.724   2.080   1.077  0.1029 -0.0730  0.3961
  320SOL    HW1  959   0.661   2.016   1.131  1.1941 -0.6721  1.6888
  320SOL    HW2  960   0.686   2.175   1.077 -0.0259  2.1139 -0.0660
  321SOL     OW  961   2.457   2.606   2.143 -0.0685  0.5522 -0.1254
  321SOL    HW1  962   2.498   2.515   2.154 -1.5418  0.4080 -1.4939
  321SOL    HW2  963   2.359   2.602   2.165  2.3761 -0.0937  2.9495
  322SOL     OW  964   2.421   2.360   2.303 -1.1765  0.5526  0.2778
  322SOL    HW1  965   2.513   2.308   2.313  3.9257 -0.3402 -2.9382
  322SOL    HW2  966   2.417   2.437   2.371  0.7102 -1.0321 -0.8463
  323SOL     OW  967   2.446   0.811   0.865 -0.0463 -0.6055 -0.0650
  323SOL    HW1  968   2.354   0.841   0.838  0.9142 -1.0773 -0.8951
  323SOL    HW2  969   2.498   0.788   0.779  2.2682 -1.2797 -0.8263
  324SOL     OW  970   2.162   2.266   2.225 -0.3011  0.8850 -0.3654
  324SOL    HW1  971   2.242   2.322   2.251 -1.2739 -3.7939  1.6935
  324SOL    HW2  972   2.182   2.214   2.140  1.7769  0.9921 -1.0571
  325SOL     OW  973   1.441   0.454   2.577  0.0085  0.6669  0.6357
  325SOL    HW1  974   1.354   0.420   2.541  0.4869 -1.2067  2.3556
  325SOL    HW2  975   1.434   0.464   2.681  1.7758  1.3173  1.2711
  326SOL     OW  976   2.547   2.548   1.040 -0.9988 -0.6813  0.5826
  326SOL    HW1  977   2.591   2.614   0.973 -0.3254  1.8765 -1.5254
  326SOL    HW2  978   2.464   2.507   0.998 -0.7081 -2.1521 -1.1935
  327SOL     OW  979   2.479   2.968   0.223 -0.3045  0.2146 -0.5648
  327SOL    HW1  980   2.442   2.990   0.130  1.2211 -1.0443  2.0900
  327SOL    HW2  981   2.523   3.049   0.265 -2.2091  0.9062 -0.7435
  328SOL     OW  982   0.710   0.595   0.613 -0.1943 -0.6589 -0.6280
  328SOL    HW1  983   0.780   0.590   0.689  0.3353 -0.6586  1.3278
  328SOL    HW2  984   0.615   0.596   0.650  0.3994  0.9341 -0.9166
  329SOL     OW  985   1.921   0.638   1.239  0.2504 -0.2186  0.1631
  329SOL    HW1  986   1.865   0.716   1.205  0.4246  1.4983 -1.5924
  329SOL    HW2  987   2.005   0.637   1.183  1.6609 -0.9400  1.6125
  330SOL     OW  988   0.726   0.495   0.363 -0.3255 -0.0227  0.1642
  330SOL    HW1  989   0.801   0.549   0.320  0.8339  0.5594  1.6944
  330SOL    HW2  990   0.691   0.538   0.450 -0.5916 -1.8246  2.1927
  331SOL     OW  991   0.820   1.796   1.991  0.2212 -0.4371 -0.0031
  331SOL    HW1  992   0.902   1.765   2.042 -2.7137 -0.8264 -2.9662
  331SOL    HW2  993   0.853   1.826   1.898  1.2538  0.9237  0.5220
  332SOL     OW  994   1.975   2.482   1.956 -0.5293  0.2186 -0.0283
  332SOL    HW1  995   1.958   2.483   2.055 -0.3283  0.7424 -1.5048
  332SOL    HW2  996   2.073   2.500   1.931 -1.3122 -1.9582 -0.6377
  333SOL     OW  997   3.038   0.152   1.181 -0.3033  0.3948 -0.1994
  333SOL    HW1  998   2.958   0.192   1.228  0.3708  0.6579  0.0813
  333SOL    HW2  999   3.005   0.080   1.118 -0.4571  1.8530  0.8567
  334SOL     OW 1000   3.009   1.735   0.839 -0.2500 -0.7693  0.3054
  334SOL    HW1 1001   2.976   1.709   0.749  1.8588 -0.8185  1.3619
  334SOL    HW2 1002   0.012   1.724   0.840 -0.0392 -2.2362  1.2541
  335SOL     OW 1003   0.455   2.566   2.731  0.5076  0.3218 -0.1233
  335SOL    HW1 1004   0.456   2.493   2.804 -0.1810  1.9347 -2.7934
  335SOL    HW2 1005   0.359   2.597   2.700 -0.9248  1.6423 -2.3363
  336SOL     OW 1006   0.066   2.681   2.049  0.2957  0.4350 -0.6861
  336SOL    HW1 1007   0.035   2.672   2.149 -1.7501  1.1671 -0.7121
  336SOL    HW2 1008   0.056   2.773   2.015 -1.4194 -2.3839 -1.2638
  337SOL     OW 1009   1.229   2.031   1.733 -0.7962 -0.5794 -0.1450
  337SOL    HW1 1010   1.276   2.094   1.671 -1.2043 -0.2954  1.6977
  337SOL    HW2 1011   1.279   2.019   1.824  2.0246  1.4200  1.5812
  338SOL     OW 1012   1.280   0.067   2.629 -1.1690 -0.0161  0.1511
  338SOL    HW1 1013   1.217   0.007   2.575 -0.7857  1.5035  1.3834
  338SOL    HW2 1014   1.373   0.017   2.642  0.1463 -0.4721 -1.0778
  339SOL     OW 1015   0.335   0.729   2.522 -0.3548 -0.4417 -0.3644
  339SOL    HW1 1016   0.311   0.808   2.460 -0.4272  2.0225 -2.5076
  339SOL    HW2 1017   0.360   0.753   2.623  0.9431  0.0111  2.3264
  340SOL     OW 1018   2.206   0.546   1.341  0.2330  0.3903 -0.0102
  340SOL    HW1 1019   2.247   0.600   1.258  0.1530 -0.4065 -1.7193
  340SOL    HW2 1020   2.173   0.449   1.319 -2.4967 -1.2978  1.2805
  341SOL     OW 1021   2.144   1.335   1.311  0.4681  0.1495  0.0019
  341SOL    HW1 1022   2.230   1.372   1.353  0.3700 -0.6788 -1.2774
  341SOL    HW2 1023   2.167   1.242   1.271  0.2032 -0.4490  0.5228
  342SOL     OW 1024   2.124   2.840   2.804  0.0059  0.5479 -0.0017
  342SOL    HW1 1025   2.069   2.922   2.796 -0.7773 -2.9634  1.9529
  342SOL    HW2 1026   2.090   2.781   2.880 -0.5343 -3.2985 -0.4953
  343SOL     OW 1027   2.954   2.515   1.155  0.1611  0.0944  0.3668
  343SOL    HW1 1028   2.962   2.423   1.202  0.8467 -3.6487 -0.6021
  343SOL    HW2 1029   2.970   2.592   1.222 -1.2632 -1.1221  1.0963
  344SOL     OW 1030   2.319   3.087   1.152  0.1008 -0.3134  0.4962
  344SOL    HW1 1031   2.283   2.992   1.156  0.1953 -0.1674  1.2494
  344SOL    HW2 1032   2.310   0.031   1.242  1.2803 -1.1737 -2.0264
  345SOL     OW 1033   2.452   2.106   0.489  0.2403 -0.8070  0.8498
  345SOL    HW1 1034   2.530   2.133   0.428 -0.6575  0.2727 -1.9398
  345SOL    HW2 1035   2.389   2.184   0.503 -1.4378  2.6015  0.3313
  346SOL     OW 1036   1.584   2.079   1.658 -0.4211 -0.4211 -0.0938
  346SOL    HW1 1037   1.567   2.112   1.752  0.5050  1.5748  0.6340
  346SOL    HW2 1038   1.509   2.124   1.606 -0.5349  4.1874 -1.6839
  347SOL     OW 1039   1.288   1.626   1.421  0.2535 -0.2118 -0.1220
  347SOL    HW1 1040   1.327   1.707   1.370 -1.1808  0.0237  1.5954
  347SOL    HW2 1041   1.187   1.625   1.434 -1.4644 -0.7726 -0.0334
  348SOL     OW 1042   0.483   1.900   1.771 -0.1581  0.7741  0.2128
  348SOL    HW1 1043   0.550   1.917   1.846 -0.5514 -0.6086 -0.1717
  348SOL    HW2 1044   0.528   1.925   1.681  1.5979  2.8538  1.5414
  349SOL     OW 1045   1.565   1.380   1.601  0.2631  0.3082 -0.2066
  349SOL    HW1 1046   1.514   1.338   1.673 -3.8311  2.5670 -4.5131
  349SOL    HW2 1047   1.596   1.478   1.622 -0.9060 -0.2862 -0.9521
  350SOL     OW 1048   2.311   2.330   0.497 -0.9886  0.2340 -0.0754
  350SOL    HW1 1049   2.376   2.352   0.576  3.1984 -2.5697 -0.3431
  350SOL    HW2 1050   2.297   2.408   0.434  1.4115  1.1462 -2.9816
  351SOL     OW 1051   0.232   2.982   1.724  0.1263  0.4008 -0.1906
  351SOL    HW1 1052   0.273   2.905   1.669  0.3684 -2.2088  0.9575
  351SOL    HW2 1053   0.172   3.037   1.663 -0.7728  3.0754 -1.5107
  352SOL     OW 1054   0.700   1.043   0.790  0.3451  0.1664  0.0815
  352SOL    HW1 1055   0.768   1.114   0.811 -0.3309 -0.7525  1.8436
  352SOL    HW2 1056   0.730   0.983   0.716  0.4016 -0.9330  0.5064
  353SOL     OW 1057   1.118   1.794   2.770  0.2633  0.5467 -0.1702
  353SOL    HW1 1058   1.068   1.881   2.790  0.2058 -0.2297  0.5405
  353SOL    HW2 1059   1.054   1.712   2.771  1.6011 -0.3757 -1.5928
  354SOL     OW 1060   1.810   2.695   1.933 -0.0213  0.5651  0.0324
  354SOL    HW1 1061   1.763   2.706   2.020 -1.1022  0.6628 -2.6344
  354SOL    HW2 1062   1.857   2.602   1.928  2.0681  0.1605 -2.5288
  355SOL     OW 1063   2.177   1.149   0.181  0.3509  0.5916 -0.2053
  355SOL    HW1 1064   2.240   1.213   0.133  1.2728  1.9678  1.6596
  355SOL    HW2 1065   2.094   1.134   0.129  1.7097 -0.7995  0.9004
  356SOL     OW 1066   0.303   2.008   1.096 -0.3263  0.1709 -0.0559
  356SOL    HW1 1067   0.213   1.978   1.056  2.6715 -1.9638 -0.4330
  356SOL    HW2 1068   0.287   2.062   1.179 -0.8059 -1.8183 -0.8056
  357SOL     OW 1069   2.987   2.920   1.703  0.0958 -0.4861  0.9151
  357SOL    HW1 1070   2.972   2.824   1.674 -0.3526 -1.5343  2.8215
  357SOL    HW2 1071   2.985   2.984   1.626  0.8231 -1.8730 -2.2166
  358SOL     OW 1072   2.322   1.763   1.677  0.1567 -0.0315 -0.4772
  358SOL    HW1 1073   2.334   1.799   1.580  0.6957 -1.3843  2.2116
  358SOL    HW2 1074   2.333   1.660   1.675  0.0958  3.7915  1.4799
  359SOL     OW 1075   2.163   2.801   2.531  0.1154 -0.1759  0.2629
  359SOL    HW1 1076   2.159   2.822   2.631  1.3424  0.1947  0.1373
  359SOL    HW2 1077   2.130   2.705   2.513  0.2949 -0.1148 -1.0073
  360SOL     OW 1078   1.023   2.829   0.792  0.1229 -0.4044 -0.0961
  360SOL    HW1 1079   0.929   2.854   0.827 -0.0988  0.9061 -2.3864
  360SOL    HW2 1080   1.074   2.773   0.855  0.9323  0.8479 -1.6879
  361SOL     OW 1081   1.853   0.391   0.489  0.5225 -0.1795  0.3560
  361SOL    HW1 1082   1.903   0.311   0.457  2.5757  2.0511 -1.5016
  361SOL    HW2 1083   1.862   0.416   0.589  1.4260 -0.6881  1.2438
  362SOL     OW 1084   1.387   0.730   1.243  0.4067  0.0276  0.0811
  362SOL    HW1 1085   1.400   0.818   1.196 -0.0421  0.7120  3.6526
  362SOL    HW2 1086   1.334   0.750   1.328  0.5970 -0.1730  0.3803
  363SOL     OW 1087   1.848   1.542   2.217  0.0225 -0.0324 -0.3937
  363SOL    HW1 1088   1.887   1.482   2.288 -1.7266 -3.2785 -1.3149
  363SOL    HW2 1089   1.922   1.587   2.160 -1.4593  1.0399 -3.8210
  364SOL     OW 1090   0.494   0.716   1.317 -0.0361  0.0748 -0.0674
  364SOL    HW1 1091   0.420   0.743   1.250 -0.6618 -1.3159  0.8659
  364SOL    HW2 1092   0.574   0.675   1.271 -0.7038  1.0174  1.9123
  365SOL     OW 1093   0.584   0.262   2.533  0.2798 -0.2855  0.4108
  365SOL    HW1 1094   0.549   0.353   2.503 -1.2076  0.9243  1.1007
  365SOL    HW2 1095   0.595   0.198   2.449 -0.9866  1.2136  0.1985
  366SOL     OW 1096   2.236   1.952   2.691 -0.2369  0.1597  0.3945
  366SOL    HW1 1097   2.291   1.870   2.719  4.1207 -2.4282 -0.4260
  366SOL    HW2 1098   2.303   2.021   2.655  1.1189 -2.3121  0.9061
  367SOL     OW 1099   2.722   2.547   0.055 -0.1205 -0.0622  0.0807
  367SOL    HW1 1100   2.801   2.612   0.036  1.0846  1.9067 -0.2163
  367SOL    HW2 1101   2.667   2.538   3.070 -2.4631  1.6020  0.1258
  368SOL     OW 1102   2.916   1.561   1.040 -0.2240 -0.2442 -0.2167
  368SOL    HW1 1103   2.926   1.466   1.012  0.6748  1.7598 -0.4276
  368SOL    HW2 1104   2.952   1.627   0.968  1.6498  0.1825 -4.9279
  369SOL     OW 1105   0.620   2.931   2.485 -0.0400  0.3527 -0.6683
  369SOL    HW1 1106   0.640   2.955   2.583 -0.6926  1.0386  0.4357
  369SOL    HW2 1107   0.690   2.967   2.420  0.4818 -0.5824 -1.4270
  370SOL     OW 1108   2.858   0.212   0.625  0.0462  0.1854 -0.0471
  370SOL    HW1 1109   2.884   0.308   0.610  1.8802  0.9034  1.3144
  370SOL    HW2 1110   2.763   0.192   0.613  2.5896  1.9638  0.4098
  371SOL     OW 1111   1.373   2.169   1.541  0.1699 -0.5391  0.7004
  371SOL    HW1 1112   1.331   2.132   1.456  2.7571  1.4429 -0.4321
  371SOL    HW2 1113   1.386   2.270   1.539 -0.7662 -1.7074 -0.2757
  372SOL     OW 1114   2.935   0.606   2.432 -0.7290 -0.0943  0.2631
  372SOL    HW1 1115   2.970   0.547   2.510 -0.0177 -2.1889 -0.0428
  372SOL    HW2 1116   2.938   0.705   2.454  0.4048  0.1839  0.8366
  373SOL     OW 1117   0.217   2.204   0.715  0.5259 -0.1381 -0.1486
  373SOL    HW1 1118   0.276   2.215   0.796  1.4855 -0.1474  1.3677
  373SOL    HW2 1119   0.130   2.253   0.725 -1.1916 -0.2232 -0.4275
  374SOL     OW 1120   0.338   0.007   2.674  0.2730  0.3611  0.6006
  374SOL    HW1 1121   0.423   0.043   2.717  0.1326  1.4382 -0.5788
  374SOL    HW2 1122   0.359   3.063   2.584  0.8266 -0.5161 -0.1329
  375SOL     OW 1123   0.593   0.146   2.769 -0.4245  0.4977  0.4026
  375SOL    HW1 1124   0.554   0.220   2.825 -0.3543  1.6786 -0.7391
  375SOL    HW2 1125   0.604   0.178   2.671 -0.6588  2.0187 -1.1314
  376SOL     OW 1126   2.660   2.147   1.782  0.6408 -0.0121 -0.4092
  376SOL    HW1 1127   2.734   2.084   1.821  2.6675 -0.8263 -1.1013
  376SOL    HW2 1128   2.582   2.151   1.850  0.4519 -0.5965  1.6013
  377SOL     OW 1129   1.573   2.807   2.798 -0.4334  0.3658 -0.4095
  377SOL    HW1 1130   1.566   2.800   2.901 -0.5932  0.8120 -0.2994
  377SOL    HW2 1131   1.666   2.779   2.771  0.6511 -0.9055 -2.3489
  378SOL     OW 1132   3.025   0.423   2.617 -0.1465 -0.4751 -0.9256
  378SOL    HW1 1133   0.016   0.450   2.575 -1.6141 -0.9945  0.3840
  378SOL    HW2 1134   3.043   0.362   2.698  0.4116  0.8372  0.0886
  379SOL     OW 1135   0.500   1.058   0.272  0.0141  0.1903 -0.1699
  379SOL    HW1 1136   0.529   1.048   0.170  1.3487  2.1138 -2.1721
  379SOL    HW2 1137   0.446   0.976   0.309 -1.3759 -1.5893  0.5156
  380SOL     OW 1138   0.369   1.660   1.880  0.0214 -0.2078 -0.1243
  380SOL    HW1 1139   0.415   1.741   1.842  0.5325  0.6176  2.0691
  380SOL    HW2 1140   0.398   1.639   1.976 -2.4044  3.5019  0.0413
  381SOL     OW 1141   0.276   1.146   2.173  0.6023 -0.1673  0.2658
  381SOL    HW1 1142   0.328   1.087   2.112 -1.4232  2.2967  0.6132
  381SOL    HW2 1143   0.202   1.199   2.126 -1.6600  2.2398 -0.6221
  382SOL     OW 1144   2.330   1.870   0.426 -0.1565  0.0984 -0.1122
  382SOL    HW1 1145   2.372   1.964   0.442  0.6022  2.4458 -0.2872
  382SOL    HW2 1146   2.259   1.850   0.496 -0.8108 -2.4327  0.1655
  383SOL     OW 1147   0.337   1.824   0.063  0.1227 -0.5735  0.1777
  383SOL    HW1 1148   0.316   1.808   0.160 -0.0186 -2.2721 -3.4403
  383SOL    HW2 1149   0.417   1.767   0.030  2.3252 -0.3443  1.6170
  384SOL     OW 1150   0.654   2.221   2.515  0.0666  0.7536 -0.3223
  384SOL    HW1 1151   0.661   2.153   2.593  1.5207  0.7489 -1.4314
  384SOL    HW2 1152   0.669   2.320   2.551  1.6451 -1.0334 -1.2757
  385SOL     OW 1153   2.132   1.935   0.613 -0.1669  0.0401  0.3444
  385SOL    HW1 1154   2.198   1.871   0.657  0.7384 -0.1214 -0.7462
  385SOL    HW2 1155   2.156   2.032   0.637  1.7818  1.2158  1.6698
  386SOL     OW 1156   2.367   1.157   1.588  0.3520 -0.0503 -0.1259
  386SOL    HW1 1157   2.373   1.232   1.514 -1.2480  1.9956 -0.8295
  386SOL    HW2 1158   2.436   1.173   1.662  0.0659 -0.7421 -0.2794
  387SOL     OW 1159   2.680   1.427   2.152 -0.0417  0.3000  0.1108
  387SOL    HW1 1160   2.631   1.515   2.167  1.1326  0.4039  0.7081
  387SOL    HW2 1161   2.760   1.418   2.214  0.4775 -1.6455  0.1359
  388SOL     OW 1162   0.433   1.629   2.183 -0.3892 -0.0328 -0.1545
  388SOL    HW1 1163   0.530   1.659   2.197  0.9401 -2.3744 -1.0582
  388SOL    HW2 1164   0.372   1.711   2.200  0.9757  0.5111 -1.4483
  389SOL     OW 1165   0.892   1.085   1.989  0.1577 -0.4060  0.3381
  389SOL    HW1 1166   0.910   1.040   1.899  3.3179 -0.2420  0.1115
  389SOL    HW2 1167   0.976   1.086   2.054  0.2824 -0.6330  1.1726
  390SOL     OW 1168   2.313   0.018   0.842  0.1275  0.6471  0.1023
  390SOL    HW1 1169   2.332   0.115   0.828 -3.4696 -2.5078 -0.8964
  390SOL    HW2 1170   2.281   3.098   0.935  1.7538 -2.6047 -2.4967
  391SOL     OW 1171   1.920   1.470   1.272 -0.1041 -0.4012 -0.6217
  391SOL    HW1 1172   2.011   1.425   1.279 -0.2043  0.3470  1.1596
  391SOL    HW2 1173   1.851   1.405   1.307  6.3825  0.7185 -0.6365
  392SOL     OW 1174   2.708   2.825   0.232 -0.1554  0.0674  0.4521
  392SOL    HW1 1175   2.629   2.886   0.225  2.1894 -0.6103  1.6524
  392SOL    HW2 1176   2.733   2.819   0.332  0.6605 -2.2869 -0.0404
  393SOL     OW 1177   1.838   2.353   2.975  0.2015 -0.0464  0.0177
  393SOL    HW1 1178   1.857   2.412   2.894 -0.9479 -1.4875  1.3503
  393SOL    HW2 1179   1.923   2.340   3.024  2.2071  1.4537  0.1517
  394SOL     OW 1180   2.985   2.481   2.439  0.2939  0.2011 -0.0141
  394SOL    HW1 1181   2.995   2.535   2.526 -1.8706  2.4997 -0.8914
  394SOL    HW2 1182   3.041   2.395   2.430 -0.7576 -2.5853  2.5722
  395SOL     OW 1183   0.143   0.229   0.644  0.2369  0.1395  0.0049
  395SOL    HW1 1184   0.103   0.301   0.585 -1.5026  0.3859 -2.0123
  395SOL    HW2 1185   0.203   0.264   0.723  2.3517 -0.2589 -0.5923
  396SOL     OW 1186   1.830   0.662   0.388  0.4763 -0.4332  0.1516
  396SOL    HW1 1187   1.800   0.687   0.482  0.5845 -0.0344 -2.3797
  396SOL    HW2 1188   1.858   0.562   0.389 -0.8035  0.8926 -0.3708
  397SOL     OW 1189   0.466   0.563   2.176  0.2807 -0.0078  0.3498
  397SOL    HW1 1190   0.502   0.508   2.098  0.1742  1.6520 -1.1833
  397SOL    HW2 1191   0.366   0.554   2.185  1.6146  0.4365  0.8738
  398SOL     OW 1192   1.094   2.924   0.358 -0.7838 -0.5356  0.1808
  398SOL    HW1 1193   1.143   3.008   0.380  0.5270  2.6444 -2.0727
  398SOL    HW2 1194   1.042   2.893   0.439 -0.9042  1.3263  2.9071
  399SOL     OW 1195   2.362   0.523   1.817  0.0181 -0.0585  0.1113
  399SOL    HW1 1196   2.359   0.582   1.735 -1.1253  1.2405 -2.4150
  399SOL    HW2 1197   2.371   0.575   1.904  0.1565 -0.4233  2.3801
  400SOL     OW 1198   1.030   2.195   2.528  0.0880  0.0025  0.0802
  400SOL    HW1 1199   1.014   2.296   2.510  0.2976  1.9493 -0.5796
  400SOL    HW2 1200   0.985   2.132   2.455 -1.2193 -1.9769  0.1611
  401SOL     OW 1201   0.724   0.921   2.528  0.1712  0.4841  0.3904
  401SOL    HW1 1202   0.726   0.825   2.572  0.9817 -0.6837  1.8603
  401SOL    HW2 1203   0.725   0.908   2.422 -0.8170 -1.5643 -2.6745
  402SOL     OW 1204   0.246   2.571   0.466  0.1990 -0.0393  0.1782
  402SOL    HW1 1205   0.252   2.469   0.461 -1.1951 -1.6285 -0.9515
  402SOL    HW2 1206   0.223   2.602   0.557 -2.7212 -1.6972 -3.5501
  403SOL     OW 1207   0.056   1.231   2.025 -0.2097  0.5967  0.2210
  403SOL    HW1 1208   0.113   1.278   1.955  0.5244  0.1298 -1.1385
  403SOL    HW2 1209   3.083   1.172   1.980 -2.9487 -0.6367 -0.7936
  404SOL     OW 1210   2.716   2.430   2.395 -0.1907  0.3430  0.1571
  404SOL    HW1 1211   2.696   2.518   2.351 -2.9445 -0.7842  0.8270
  404SOL    HW2 1212   2.806   2.432   2.429 -1.6183  0.3741 -1.1178
  405SOL     OW 1213   0.176   0.352   1.928  0.9195 -0.4650  0.3264
  405SOL    HW1 1214   0.265   0.311   1.898 -1.0424  0.6776  2.0875
  405SOL    HW2 1215   0.093   0.301   1.890 -0.8442  0.3585 -1.8095
  406SOL     OW 1216   1.305   1.386   2.804 -0.3252 -0.0669  0.6665
  406SOL    HW1 1217   1.387   1.454   2.792  0.7929  2.0874  1.2085
  406SOL    HW2 1218   1.325   1.302   2.751 -1.0904  0.4396 -1.5065
  407SOL     OW 1219   1.693   0.871   2.595 -0.2537  0.4017 -0.4530
  407SOL    HW1 1220   1.703   0.879   2.696 -1.3394  0.1810  0.3389
  407SOL    HW2 1221   1.778   0.921   2.555  2.2729 -2.5390  1.1585
  408SOL     OW 1222   0.365   3.024   2.405  0.3533 -0.2901 -0.0086
  408SOL    HW1 1223   0.445   2.964   2.404  1.1550  0.7432 -0.0907
  408SOL    HW2 1224   0.373   3.083   2.321 -1.0252  1.7293  0.8490
  409SOL     OW 1225   0.008   1.983   1.136 -0.4126  0.2297  0.2898
  409SOL    HW1 1226   3.044   1.967   1.059 -0.7186 -0.4144 -0.5121
  409SOL    HW2 1227   3.068   2.059   1.196  1.2077  2.1978  3.3174
  410SOL     OW 1228   2.581   1.499   0.403 -0.8542  0.3881 -0.2034
  410SOL    HW1 1229   2.551   1.483   0.498  2.4897 -2.2989  1.5723
  410SOL    HW2 1230   2.653   1.571   0.403  0.1336 -3.1224 -0.0363
  411SOL     OW 1231   2.801   0.280   1.262 -0.1338 -0.3297 -0.4878
  411SOL    HW1 1232   2.770   0.191   1.301  2.4230  0.2539 -1.5310
  411SOL    HW2 1233   2.761   0.364   1.313 -0.3919  0.3104 -0.0731
  412SOL     OW 1234   2.002   0.555   1.550  0.0474  0.0185  0.7985
  412SOL    HW1 1235   1.916   0.508   1.528  1.0523  0.3805  0.7637
  412SOL    HW2 1236   2.051   0.559   1.461  0.3702 -1.2256  1.1440
  413SOL     OW 1237   0.605   0.439   1.927  0.6863  0.1712  0.2361
  413SOL    HW1 1238   0.542   0.356   1.924  1.7759 -2.8046  1.0935
  413SOL    HW2 1239   0.704   0.418   1.944  0.9986  0.6563 -0.8495
  414SOL     OW 1240   2.813   1.258   2.693 -0.3811 -0.4030 -0.0665
  414SOL    HW1 1241   2.870   1.258   2.776  0.0990  1.8042 -2.2104
  414SOL    HW2 1242   2.721   1.288   2.717  0.7046 -2.9985 -1.3852
  415SOL     OW 1243   0.699   2.645   3.080  0.0418 -0.5190 -0.4526
  415SOL    HW1 1244   0.787   2.622   3.036 -0.0989 -1.7234  0.9242
  415SOL    HW2 1245   0.714   2.700   0.064  0.9404 -1.0909 -2.7514
  416SOL     OW 1246   1.723   0.185   2.586  0.0361  0.3921 -0.2530
  416SOL    HW1 1247   1.676   0.101   2.613 -0.4987  0.5925 -1.3195
  416SOL    HW2 1248   1.822   0.187   2.616  5.5744 -0.0439 -1.8204
  417SOL     OW 1249   0.118   0.523   0.582 -0.1267 -0.3527 -0.1563
  417SOL    HW1 1250   0.208   0.559   0.543  1.4225  1.2545 -0.1385
  417SOL    HW2 1251   0.132   0.499   0.679 -2.4319 -0.2926  0.6353
  418SOL     OW 1252   2.587   0.162   0.608 -0.0521  0.2202  0.1265
  418SOL    HW1 1253   2.549   0.070   0.626  0.2866  4.5523  0.8905
  418SOL    HW2 1254   2.516   0.230   0.628 -0.5067 -2.1706 -1.4205
  419SOL     OW 1255   3.049   2.892   0.546  0.2680 -0.4000 -0.1913
  419SOL    HW1 1256   3.072   2.930   0.636  0.7718 -0.4199 -0.9497
  419SOL    HW2 1257   3.039   2.970   0.482 -1.0335  1.1920  0.5436
  420SOL     OW 1258   0.265   1.406   1.879  0.4188  0.1836  0.0970
  420SOL    HW1 1259   0.294   1.500   1.866 -0.5979 -1.2480  0.7941
  420SOL    HW2 1260   0.325   1.366   1.951  0.2267 -0.1289 -1.3291
  421SOL     OW 1261   1.831   2.483   1.058 -0.0621 -0.3456 -0.3870
  421SOL    HW1 1262   1.874   2.553   0.992 -0.0325  2.0906 -2.2582
  421SOL    HW2 1263   1.794   2.405   1.008  1.0559  1.1935  1.5624
  422SOL     OW 1264   0.555   0.324   1.596  0.3365  0.1240 -0.1164
  422SOL    HW1 1265   0.626   0.400   1.595 -1.5702  0.9409 -1.7410
  422SOL    HW2 1266   0.468   0.352   1.542 -5.3907  0.7225 -2.1696
  423SOL     OW 1267   0.653   1.433   1.834 -0.4790  0.3178  0.1845
  423SOL    HW1 1268   0.628   1.490   1.756 -2.2993 -1.1758  1.2417
  423SOL    HW2 1269   0.748   1.393   1.829  1.1468 -0.4109 -0.2520
  424SOL     OW 1270   1.860   2.227   0.399  0.3742  0.2914 -0.2488
  424SOL    HW1 1271   1.913   2.291   0.339  2.0545  1.1337 -1.7381
  424SOL    HW2 1272   1.772   2.196   0.356  0.9830 -2.2151  2.1784
  425SOL     OW 1273   2.838   2.992   1.907  0.2913 -0.9499 -0.1274
  425SOL    HW1 1274   2.891   3.050   1.973  2.1696  0.5637 -1.3134
  425SOL    HW2 1275   2.896   2.982   1.822  1.0879 -2.3192 -2.5707
  426SOL     OW 1276   2.975   2.613   2.675 -0.0356 -0.0333  0.0357
  426SOL    HW1 1277   3.070   2.641   2.687 -1.8606 -2.2837  0.6897
  426SOL    HW2 1278   2.960   2.522   2.719  0.4910 -2.0774  1.0319
  427SOL     OW 1279   1.341   0.470   0.103 -0.1884  0.0071 -0.2077
  427SOL    HW1 1280   1.301   0.439   0.194  0.5418 -0.7903  1.1738
  427SOL    HW2 1281   1.331   0.387   0.042  0.3519  0.8679  1.1999
  428SOL     OW 1282   2.730   0.796   1.343 -0.1497 -0.2857 -0.2663
  428SOL    HW1 1283   2.806   0.838   1.288  0.0590  1.9357  0.0159
  428SOL    HW2 1284   2.765   0.732   1.409 -1.3622  0.6288 -2.9430
  429SOL     OW 1285   1.925   3.040   1.051 -0.4191 -0.0373 -0.3750
  429SOL    HW1 1286   1.863   2.977   1.099  0.5491  1.0213  0.9565
  429SOL    HW2 1287   1.963   3.003   0.966 -0.9447  0.6271  0.5507
  430SOL     OW 1288   0.994   1.449   2.421  0.1862  0.5976  0.1389
  430SOL    HW1 1289   0.970   1.410   2.513 -0.3727  1.9260  0.3615
  430SOL    HW2 1290   0.906   1.448   2.367  1.8568  1.2638 -1.7610
  431SOL     OW 1291   2.608   1.726   1.254  0.1215 -0.2897  0.5487
  431SOL    HW1 1292   2.600   1.756   1.350 -4.1136  0.9644 -0.8419
  431SOL    HW2 1293   2.640   1.798   1.190 -2.0968  2.4562  0.3238
  432SOL     OW 1294   1.288   2.774   2.368 -0.3256  0.2863 -0.4436
  432SOL    HW1 1295   1.304   2.676   2.354 -0.3779  0.8944  0.3003
  432SOL    HW2 1296   1.359   2.808   2.432  0.8713  0.7004 -2.5298
  433SOL     OW 1297   1.708   0.410   2.149 -0.0720  0.3083 -0.0424
  433SOL    HW1 1298   1.785   0.417   2.219  2.1776  0.7362  1.3378
  433SOL    HW2 1299   1.731   0.471   2.069  1.2239 -0.7919 -2.7080
  434SOL     OW 1300   0.454   2.399   2.131 -0.3283  0.0385  0.8660
  434SOL    HW1 1301   0.424   2.492   2.171  1.4025  3.2554  1.5177
  434SOL    HW2 1302   0.455   2.324   2.204 -2.1103  0.7547  2.6543
  435SOL     OW 1303   0.294   0.119   0.446  0.2264 -0.3032 -0.1680
  435SOL    HW1 1304   0.305   0.020   0.433 -0.6414 -1.1828  0.0155
  435SOL    HW2 1305   0.243   0.134   0.536 -0.7245 -2.7443  2.9242
  436SOL     OW 1306   0.544   0.812   2.105  0.1104 -0.6013  0.1231
  436SOL    HW1 1307   0.605   0.807   2.022  0.6178  1.5280 -3.0563
  436SOL    HW2 1308   0.518   0.723   2.140 -0.8215  3.4337 -1.9986
  437SOL     OW 1309   0.667   2.481   2.560  0.3906 -0.2973 -0.1096
  437SOL    HW1 1310   0.676   2.549   2.486 -1.9926 -0.6481 -0.3170
  437SOL    HW2 1311   0.596   2.507   2.630  1.2652  3.2797 -0.6789
  438SOL     OW 1312   0.939   1.090   1.049  0.0323  0.5370  0.2514
  438SOL    HW1 1313   1.031   1.131   1.050  1.1850  1.0578  2.2985
  438SOL    HW2 1314   0.876   1.152   0.994  0.5486 -1.2620  1.3771
  439SOL     OW 1315   2.504   1.562   2.429 -0.3821 -0.1149  0.1383
  439SOL    HW1 1316   2.597   1.524   2.451  2.2423  3.3826  1.6713
  439SOL    HW2 1317   2.432   1.516   2.490  0.0202  0.4350 -0.6373
  440SOL     OW 1318   0.100   0.519   2.857  0.7266 -0.0661 -0.7770
  440SOL    HW1 1319   0.073   0.600   2.801  1.2754  0.4900 -1.2248
  440SOL    HW2 1320   0.014   0.476   2.896  0.3349 -0.0220  1.5747
  441SOL     OW 1321   0.986   2.142   1.435 -0.1215 -0.3429  0.5066
  441SOL    HW1 1322   0.981   2.056   1.376  1.4387  0.6024 -0.8022
  441SOL    HW2 1323   0.971   2.117   1.531  1.4519 -0.2819  0.5892
  442SOL     OW 1324   1.663   1.586   0.937 -1.0321  0.2883  0.5876
  442SOL    HW1 1325   1.652   1.516   1.011 -3.0435 -0.7844 -3.0939
  442SOL    HW2 1326   1.705   1.535   0.856 -4.4664 -1.4771 -0.8130
  443SOL     OW 1327   2.423   2.218   2.926 -0.1904  0.4019 -0.3595
  443SOL    HW1 1328   2.404   2.132   2.979 -0.6380 -0.5831  3.7382
  443SOL    HW2 1329   2.374   2.293   2.971 -0.1098 -1.2804  0.4245
  444SOL     OW 1330   1.917   1.556   2.961  0.0012 -0.1871 -0.4730
  444SOL    HW1 1331   1.904   1.608   2.878 -1.2281 -0.1973  0.0711
  444SOL    HW2 1332   1.981   1.604   3.022 -2.3980 -1.0953 -0.7752
  445SOL     OW 1333   0.007   2.446   1.925  0.0276  0.0308 -0.4451
  445SOL    HW1 1334   0.007   2.376   1.995  0.6740  1.9722  0.7925
  445SOL    HW2 1335   0.040   2.534   1.966  0.0472  0.4703 -0.2307
  446SOL     OW 1336   1.212   0.880   1.740  0.3300 -0.0903 -0.2674
  446SOL    HW1 1337   1.285   0.944   1.761 -1.2009 -1.8049 -0.8238
  446SOL    HW2 1338   1.229   0.790   1.785  0.6839 -1.7384 -0.5834
  447SOL     OW 1339   0.837   0.836   1.015 -0.0633  0.0912  0.3654
  447SOL    HW1 1340   0.860   0.768   0.942  1.1670 -0.8054 -0.9118
  447SOL    HW2 1341   0.898   0.922   1.005  3.0965  1.1050 -1.6057
  448SOL     OW 1342   1.132   1.172   2.415  0.2351  0.1583 -0.0873
  448SOL    HW1 1343   1.034   1.163   2.440  0.1385 -0.0344 -0.6182
  448SOL    HW2 1344   1.167   1.254   2.470 -1.5994  2.0178 -0.2861
  449SOL     OW 1345   3.073   2.019   2.430  0.3078  0.4056 -0.2279
  449SOL    HW1 1346   0.045   1.944   2.451  2.4916 -3.1127  1.7678
  449SOL    HW2 1347   3.036   2.000   2.339  0.2581 -1.9063  1.8254
  450SOL     OW 1348   2.078   1.656   2.103 -0.1278 -0.3943  0.0466
  450SOL    HW1 1349   2.135   1.619   2.182  1.4604 -0.9130  0.2987
  450SOL    HW2 1350   2.105   1.757   2.083  0.2040  2.8820 -0.7350
  451SOL     OW 1351   2.732   1.574   1.625  0.0480  0.2354 -0.4496
  451SOL    HW1 1352   2.725   1.673   1.651  0.7812 -0.6022  1.4333
  451SOL    HW2 1353   2.742   1.552   1.527 -0.8222 -0.9534 -0.9770
  452SOL     OW 1354   0.460   1.143   1.503  0.3961 -0.1397  0.1460
  452SOL    HW1 1355   0.452   1.044   1.475 -0.2157  0.9432  0.1736
  452SOL    HW2 1356   0.517   1.194   1.433  1.6493 -0.4156  1.0430
  453SOL     OW 1357   0.440   1.607   0.656 -0.1137  0.1186 -0.0586
  453SOL    HW1 1358   0.494   1.630   0.572  0.5533 -0.0185  1.3470
  453SOL    HW2 1359   0.358   1.546   0.633 -0.1742 -2.2431  1.1906
  454SOL     OW 1360   0.956   1.883   0.302  0.3202  0.5476  0.2997
  454SOL    HW1 1361   0.953   1.860   0.203  1.1613  0.1439  1.9435
  454SOL    HW2 1362   0.936   1.802   0.361  1.4506  1.3497 -0.6240
  455SOL     OW 1363   1.566   0.463   1.162 -0.6557 -0.0046  0.1174
  455SOL    HW1 1364   1.621   0.382   1.196  1.9393 -1.0002  0.6481
  455SOL    HW2 1365   1.591   0.542   1.223  1.3053  1.5403 -1.0829
  456SOL     OW 1366   1.834   2.686   0.856 -0.3800 -0.1712 -0.6206
  456SOL    HW1 1367   1.780   2.621   0.802  1.1184  0.0386  0.7723
  456SOL    HW2 1368   1.770   2.758   0.888  0.9398 -4.1945 -2.2756
  457SOL     OW 1369   2.097   0.526   2.577  0.0069  0.1474  0.1825
  457SOL    HW1 1370   2.126   0.508   2.675 -1.2459 -3.6853  1.0238
  457SOL    HW2 1371   2.137   0.460   2.511 -0.1899  0.0054  0.0949
  458SOL     OW 1372   2.632   0.743   2.660  0.7693 -0.3439 -0.0019
  458SOL    HW1 1373   2.655   0.838   2.656 -1.8514  1.3423  0.0367
  458SOL    HW2 1374   2.692   0.695   2.727 -1.7937  0.8385 -1.3486
  459SOL     OW 1375   2.434   1.632   2.116 -0.1623  0.0682 -0.1674
  459SOL    HW1 1376   2.424   1.680   2.025  0.9262 -1.6465  0.8242
  459SOL    HW2 1377   2.447   1.692   2.195  1.1295 -2.1266 -0.2365
  460SOL     OW 1378   0.664   0.673   0.030  0.0177  0.2018 -0.1901
  460SOL    HW1 1379   0.695   0.752   3.076  1.3051 -0.7560 -0.1948
  460SOL    HW2 1380   0.731   0.654   0.101  0.0328  0.6694 -3.2050
  461SOL     OW 1381   0.207   2.268   2.980  0.5716  1.0284  0.3480
  461SOL    HW1 1382   0.123   2.312   3.011  1.1759 -0.2562  0.1518
  461SOL    HW2 1383   0.203   2.173   3.012 -0.3090  1.4788 -0.3418
  462SOL     OW 1384   0.190   2.527   1.671  0.0450 -0.0167  0.0872
  462SOL    HW1 1385   0.091   2.513   1.678  1.9947  0.9549 -0.6095
  462SOL    HW2 1386   0.240   2.446   1.706 -2.4057  0.7418  0.2100
  463SOL     OW 1387   1.708   2.082   1.933  0.0142 -0.0502  0.6101
  463SOL    HW1 1388   1.747   2.170   1.906 -1.1626 -0.4017 -0.8696
  463SOL    HW2 1389   1.635   2.092   2.005  0.2032  3.0113 -0.9849
  464SOL     OW 1390   2.614   2.728   0.867  0.3305  0.2287 -0.0550
  464SOL    HW1 1391   2.664   2.815   0.851  0.1197 -0.8342 -1.9836
  464SOL    HW2 1392   2.611   2.671   0.780  0.2704  1.6643 -0.5983
  465SOL     OW 1393   0.283   0.143   1.463 -0.3884  0.0069  0.0703
  465SOL    HW1 1394   0.213   0.118   1.537  2.0068  2.3957  0.8260
  465SOL    HW2 1395   0.285   0.242   1.438  1.3203 -0.8003  0.9592
  466SOL     OW 1396   1.338   2.471   2.379 -0.0170  0.0912 -0.3701
  466SOL    HW1 1397   1.430   2.504   2.415  2.8787  2.5891 -0.0786
  466SOL    HW2 1398   1.314   2.377   2.405 -1.0434 -0.2817  0.2324
  467SOL     OW 1399   2.957   1.980   0.547 -0.3951 -0.1073 -0.1493
  467SOL    HW1 1400   2.930   2.058   0.608 -1.7439 -0.5932  2.5037
  467SOL    HW2 1401   2.897   1.903   0.560 -0.5887  0.6789  1.4840
  468SOL     OW 1402   2.123   1.995   2.988  0.2174 -0.1240  0.0971
  468SOL    HW1 1403   2.103   2.008   2.885 -4.3516  0.2768 -0.6813
  468SOL    HW2 1404   2.222   1.988   3.007 -2.2328 -0.2833  0.1574
  469SOL     OW 1405   1.407   2.296   0.777 -0.2181  0.2000  0.1320
  469SOL    HW1 1406   1.418   2.281   0.677 -0.1224 -1.0830  2.7361
  469SOL    HW2 1407   1.495   2.326   0.820  0.2040 -0.5857  2.5035
  470SOL     OW 1408   1.796   1.179   1.160  0.1104  0.3611 -0.2396
  470SOL    HW1 1409   1.767   1.085   1.132 -1.0101  2.2020  0.5020
  470SOL    HW2 1410   1.862   1.176   1.240  2.2749 -0.1972  2.6448
  471SOL     OW 1411   0.484   2.113   0.169  0.0873 -0.1034  0.1096
  471SOL    HW1 1412   0.384   2.089   0.192 -2.7340 -0.9203  0.9123
  471SOL    HW2 1413   0.497   2.213   0.186  0.6392 -1.2497 -0.6480
  472SOL     OW 1414   2.438   1.751   2.761 -0.0717 -0.2453  0.4873
  472SOL    HW1 1415   2.537   1.780   2.770  0.6691  0.9142  2.5985
  472SOL    HW2 1416   2.426   1.686   2.690  0.7885  0.7586 -0.5810
  473SOL     OW 1417   1.286   2.039   0.812 -0.1893 -0.6282  0.7810
  473SOL    HW1 1418   1.330   2.136   0.811  0.1935  1.1957  1.9454
  473SOL    HW2 1419   1.280   2.004   0.904  2.4921  0.2721 -2.1348
  474SOL     OW 1420   2.967   0.443   0.957  0.1750  0.4194  0.1358
  474SOL    HW1 1421   2.920   0.359   0.917 -0.6363  2.1900  1.7207
  474SOL    HW2 1422   2.905   0.521   0.951  0.7731  1.3814 -1.7931
  475SOL     OW 1423   2.235   2.912   1.559 -0.9095 -0.1814  0.1865
  475SOL    HW1 1424   2.321   2.897   1.610  1.2676  1.9749 -0.5887
  475SOL    HW2 1425   2.207   2.834   1.506  0.3071 -0.7853  2.1640
  476SOL     OW 1426   0.424   0.541   0.566 -0.6834 -0.2147 -0.3945
  476SOL    HW1 1427   0.459   0.457   0.531  0.4283  2.5074  0.5313
  476SOL    HW2 1428   0.427   0.541   0.668 -0.1285  1.8602 -1.0988
  477SOL     OW 1429   1.159   2.011   1.072  0.1504 -0.9294 -0.3474
  477SOL    HW1 1430   1.145   1.925   1.020  0.3855 -0.2138  1.8933
  477SOL    HW2 1431   1.105   2.094   1.040 -0.8367  0.6661 -0.3012
  478SOL     OW 1432   1.127   2.279   2.784  0.2275 -0.0618  0.0525
  478SOL    HW1 1433   1.097   2.241   2.694  1.2057 -0.5513 -0.4277
  478SOL    HW2 1434   1.171   2.369   2.772  2.8234  0.7651 -0.1573
  479SOL     OW 1435   2.915   1.052   1.985 -0.0092 -0.2433  0.1947
  479SOL    HW1 1436   2.871   1.143   1.977 -1.7647  1.0675 -0.0167
  479SOL    HW2 1437   2.891   0.987   1.908  2.7397  0.5326  0.5018
  480SOL     OW 1438   2.896   2.349   2.773  0.0773  0.2175 -0.2295
  480SOL    HW1 1439   2.818   2.415   2.767 -2.5887  0.1662 -0.4457
  480SOL    HW2 1440   2.908   2.318   2.870 -0.9161 -1.3003  1.3754
  481SOL     OW 1441   1.689   0.023   2.008  0.3162 -0.6507 -0.2353
  481SOL    HW1 1442   1.780   0.050   2.034 -1.1658 -1.9423 -0.8129
  481SOL    HW2 1443   1.618   0.097   2.020  1.2713  2.5283 -0.0985
  482SOL     OW 1444   1.645   2.179   2.895  0.0318  0.3153 -0.1536
  482SOL    HW1 1445   1.714   2.256   2.900  2.9841 -2.3508 -3.3186
  482SOL    HW2 1446   1.699   2.090   2.885 -0.8824 -0.0044  1.2400
  483SOL     OW 1447   0.911   2.547   2.684  0.4545  0.3863  0.9465
  483SOL    HW1 1448   0.813   2.540   2.666  2.7789  0.2752  0.8135
  483SOL    HW2 1449   0.962   2.518   2.602 -2.3849  0.0908  1.8484
  484SOL     OW 1450   0.106   2.834   1.424 -0.1274  0.2535  0.3173
  484SOL    HW1 1451   0.191   2.808   1.478 -0.0785  0.7334  1.8664
  484SOL    HW2 1452   0.126   2.866   1.331  0.7506 -0.3018  1.4353
  485SOL     OW 1453   2.283   0.764   0.447  0.3730 -0.2576 -0.0847
  485SOL    HW1 1454   2.202   0.761   0.383 -0.8472 -0.0957 -2.1130
  485SOL    HW2 1455   2.285   0.852   0.501  1.2444 -0.3185 -0.2614
  486SOL     OW 1456   2.409   2.850   2.487 -0.3427  0.1594 -0.0855
  486SOL    HW1 1457   2.398   2.921   2.418 -0.0404 -1.8942 -2.4402
  486SOL    HW2 1458   2.316   2.825   2.522  1.2382 -0.7664  1.7975
  487SOL     OW 1459   1.430   0.864   0.555  0.0463 -0.1105  0.1769
  487SOL    HW1 1460   1.488   0.946   0.536 -1.4527  1.2272  3.3979
  487SOL    HW2 1461   1.347   0.872   0.495 -0.4518  0.6531  0.7586
  488SOL     OW 1462   2.593   3.008   2.712 -0.4477 -0.3246 -0.4800
  488SOL    HW1 1463   2.540   2.919   2.724  0.6995 -1.2456  1.5313
  488SOL    HW2 1464   2.674   3.005   2.778  1.5633 -2.4662  2.7135
  489SOL     OW 1465   1.722   3.036   0.333  0.3697  0.5815  0.1498
  489SOL    HW1 1466   1.676   2.961   0.384 -0.8399  2.6956 -1.7387
  489SOL    HW2 1467   1.814   3.052   0.371 -1.3492  2.9278  1.7500
  490SOL     OW 1468   1.740   0.284   2.983  0.5327 -0.1687 -0.1915
  490SOL    HW1 1469   1.715   0.358   3.051 -0.8960 -1.2257 -0.2019
  490SOL    HW2 1470   1.775   0.318   2.891 -1.4736  0.8962  1.7664
  491SOL     OW 1471   0.520   0.096   1.123  0.7127  0.2514 -0.5392
  491SOL    HW1 1472   0.494   0.192   1.156 -1.2041 -0.4249 -1.4713
  491SOL    HW2 1473   0.504   0.091   1.022  2.6566 -2.1798 -0.4871
  492SOL     OW 1474   1.643   3.045   0.635  0.4594  0.0415  0.5934
  492SOL    HW1 1475   1.722   3.063   0.696 -1.4014  1.1178  0.7291
  492SOL    HW2 1476   1.645   2.953   0.588 -0.0498 -0.1992 -1.6381
  493SOL     OW 1477   1.058   2.213   3.033  0.3345  0.5554 -0.6886
  493SOL    HW1 1478   1.125   2.172   0.000  0.3339 -0.4016 -1.3790
  493SOL    HW2 1479   1.098   2.238   2.942  0.4807  0.0468  1.1680
  494SOL     OW 1480   0.629   0.969   1.153 -0.4858 -0.8114  0.4536
  494SOL    HW1 1481   0.562   0.896   1.173  0.6867 -0.4433 -1.3744
  494SOL    HW2 1482   0.708   0.924   1.122 -3.5782  3.1284  2.9943
  495SOL     OW 1483   2.804   0.628   1.544  0.5213 -0.0971  0.7631
  495SOL    HW1 1484   2.879   0.561   1.546 -1.8514  2.1962 -0.5786
  495SOL    HW2 1485   2.740   0.613   1.625  2.2571  1.0051 -0.4342
  496SOL     OW 1486   2.378   2.579   2.444 -0.1272  0.1220  0.1385
  496SOL    HW1 1487   2.411   2.673   2.446  0.4901 -1.3193 -1.0237
  496SOL    HW2 1488   2.276   2.576   2.426 -0.4139  0.6113 -0.6296
  497SOL     OW 1489   1.715   0.987   2.837  0.4349 -0.3272 -0.3013
  497SOL    HW1 1490   1.735   1.075   2.799 -0.3142 -3.1543  0.0748
  497SOL    HW2 1491   1.721   0.987   2.939  2.2924 -0.0081  0.1240
  498SOL     OW 1492   0.960   2.178   0.984 -0.5083  0.0663 -0.3371
  498SOL    HW1 1493   0.980   2.157   0.888 -2.3651 -1.4765  3.7436
  498SOL    HW2 1494   0.863   2.141   1.006 -3.6240  0.3011  2.4134
  499SOL     OW 1495   0.199   1.790   0.843 -0.6215 -0.0134  0.0820
  499SOL    HW1 1496   0.160   1.882   0.805 -2.6756 -2.9210 -1.4774
  499SOL    HW2 1497   0.299   1.774   0.819  1.9646 -1.9077 -1.6757
  500SOL     OW 1498   1.376   2.578   0.341 -0.0488 -0.5579 -0.4134
  500SOL    HW1 1499   1.282   2.610   0.317  0.1952  1.0825  0.6820
  500SOL    HW2 1500   1.407   2.629   0.425  0.9849  0.6655  1.7453
  501SOL     OW 1501   1.942   2.833   0.572 -0.2861 -0.4014  0.2723
  501SOL    HW1 1502   1.911   2.795   0.480 -1.5553  0.5116 -0.4891
  501SOL    HW2 1503   1.969   2.759   0.643 -1.4404  1.0072  2.1794
  502SOL     OW 1504   0.184   0.487   1.170 -0.0896 -0.0278  0.2240
  502SOL    HW1 1505   0.191   0.398   1.125  1.2887  3.7634  2.6555
  502SOL    HW2 1506   0.083   0.500   1.189 -1.6753 -0.8145  0.6001
  503SOL     OW 1507   2.115   3.022   1.786 -0.1764 -0.2075 -0.8772
  503SOL    HW1 1508   2.084   0.019   1.780 -1.0166  1.5436  0.1193
  503SOL    HW2 1509   2.151   2.982   1.697 -0.1762  1.3551  1.3450
  504SOL     OW 1510   2.019   1.087   1.864 -0.4885 -0.2973 -0.0724
  504SOL    HW1 1511   2.070   1.007   1.828 -1.8683 -0.0478 -0.7640
  504SOL    HW2 1512   1.926   1.088   1.828 -1.2616 -2.0152 -0.7582
  505SOL     OW 1513   1.603   2.893   2.425 -0.8121  0.1808 -0.1006
  505SOL    HW1 1514   1.565   2.967   2.483 -2.2819  1.4090 -0.2194
  505SOL    HW2 1515   1.596   2.920   2.327  2.1358 -0.4746 -1.7123
  506SOL     OW 1516   0.566   0.666   1.733  0.0794 -0.2207  0.2919
  506SOL    HW1 1517   0.578   0.570   1.770  1.4655 -3.0796  1.8990
  506SOL    HW2 1518   0.623   0.731   1.783 -0.7619  1.4280 -0.7817
  507SOL     OW 1519   1.695   0.421   0.120  0.5162  0.1170 -0.0790
  507SOL    HW1 1520   1.626   0.397   0.195  0.4022 -0.3944  0.1946
  507SOL    HW2 1521   1.792   0.398   0.141  0.6097 -0.9332 -1.4454
  508SOL     OW 1522   2.112   0.703   2.022  0.5533  0.0579  0.0209
  508SOL    HW1 1523   2.060   0.764   2.087 -0.2628 -2.4100  0.1092
  508SOL    HW2 1524   2.116   0.739   1.928  0.8428 -3.1447  1.1968
  509SOL     OW 1525   0.773   1.610   2.512 -0.1176  0.3805 -0.1405
  509SOL    HW1 1526   0.670   1.608   2.524 -0.3596 -2.0449  0.1480
  509SOL    HW2 1527   0.814   1.678   2.449 -0.2767  0.4090  0.8930
  510SOL     OW 1528   2.903   0.730   0.582  0.4485  0.4954 -0.1441
  510SOL    HW1 1529   2.914   0.789   0.497 -0.3485  0.3530 -2.0211
  510SOL    HW2 1530   2.978   0.745   0.643  0.1331 -0.3292 -0.2801
  511SOL     OW 1531   1.801   1.223   1.691  0.4532  0.2894  0.2906
  511SOL    HW1 1532   1.741   1.300   1.671  0.7547  2.6631  2.4987
  511SOL    HW2 1533   1.896   1.254   1.661 -2.6290 -0.7024  0.8395
  512SOL     OW 1534   0.552   1.701   0.416 -0.3528 -0.2157 -0.1557
  512SOL    HW1 1535   0.604   1.691   0.326  0.7752  0.1282  0.2219
  512SOL    HW2 1536   0.587   1.786   0.459 -1.1945 -3.1400  1.7102
  513SOL     OW 1537   0.521   2.464   0.939 -0.4412 -0.5930 -0.0704
  513SOL    HW1 1538   0.473   2.550   0.969 -0.0166  0.7284 -0.9437
  513SOL    HW2 1539   0.570   2.432   1.020 -2.0615 -0.9505 -1.0339
  514SOL     OW 1540   0.563   2.443   0.523  0.2884 -0.2270  0.4549
  514SOL    HW1 1541   0.477   2.397   0.501  1.9111  2.0138 -1.6217
  514SOL    HW2 1542   0.619   2.439   0.440 -3.2462  2.0289  1.2063
  515SOL     OW 1543   0.088   2.902   0.192  0.0838 -0.3856 -0.2290
  515SOL    HW1 1544   0.127   2.835   0.255  2.5610 -0.8561  0.6365
  515SOL    HW2 1545   3.094   2.926   0.220 -1.0363 -3.2303 -1.8628
  516SOL     OW 1546   1.922   0.192   1.137  0.0901 -0.1929  0.4043
  516SOL    HW1 1547   1.844   0.230   1.192 -3.1652 -0.6228  4.5948
  516SOL    HW2 1548   1.919   0.090   1.106 -1.3865 -0.2679 -1.4502
  517SOL     OW 1549   1.624   1.862   0.611 -0.1865  0.6824 -0.4737
  517SOL    HW1 1550   1.543   1.917   0.577 -0.3477  0.3226 -0.0224
  517SOL    HW2 1551   1.662   1.901   0.699 -2.9709 -0.5894 -3.7949
  518SOL     OW 1552   1.445   3.019   0.812 -0.0965 -0.1590 -0.6190
  518SOL    HW1 1553   1.368   2.972   0.768 -0.1424 -0.4665  4.0564
  518SOL    HW2 1554   1.504   3.059   0.739 -2.2047 -0.2483 -1.3161
  519SOL     OW 1555   2.985   2.281   0.280 -0.1373  0.6228  0.5234
  519SOL    HW1 1556   2.907   2.336   0.314  0.8494 -1.0461 -0.2388
  519SOL    HW2 1557   3.049   2.351   0.232  0.2653  2.6399 -0.1575
  520SOL     OW 1558   1.652   2.259   2.301 -0.1858 -0.3601  0.2873
  520SOL    HW1 1559   1.739   2.214   2.283 -1.2995 -0.1254  0.4072
  520SOL    HW2 1560   1.638   2.341   2.242  0.0442  2.0524  1.7019
  521SOL     OW 1561   1.170   2.946   2.190  0.1649  0.7426 -0.0347
  521SOL    HW1 1562   1.070   2.915   2.178 -4.1092  1.7268 -0.8036
  521SOL    HW2 1563   1.215   2.882   2.254 -1.3528  0.5145 -1.8422
  522SOL     OW 1564   0.362   2.666   2.210  0.0605 -0.2681  0.3490
  522SOL    HW1 1565   0.374   2.695   2.112 -0.3306  0.7171 -0.0132
  522SOL    HW2 1566   0.260   2.663   2.235 -0.9718 -0.7162 -0.4222
  523SOL     OW 1567   0.979   2.109   1.727  0.4537 -0.1855  0.1110
  523SOL    HW1 1568   0.952   2.148   1.818 -1.3827 -0.0203  3.7405
  523SOL    HW2 1569   1.082   2.094   1.726  1.0049  2.0751  0.5754
  524SOL     OW 1570   2.491   2.250   0.225  0.3896 -0.5265  0.0022
  524SOL    HW1 1571   2.592   2.238   0.244  2.7677 -2.4198  1.6455
  524SOL    HW2 1572   2.441   2.163   0.234  4.7789 -0.0622  2.1683
  525SOL     OW 1573   2.961   0.420   2.944 -0.2740 -0.5249  0.2433
  525SOL    HW1 1574   2.976   0.441   3.041 -0.8812  0.1065 -0.0441
  525SOL    HW2 1575   2.972   0.319   2.937  0.7291  0.9351  1.1237
  526SOL     OW 1576   0.226   2.847   0.808  0.1569  0.0177 -0.1643
  526SOL    HW1 1577   0.152   2.914   0.782  1.0952  0.2187  0.9542
  526SOL    HW2 1578   0.284   2.822   0.723 -0.2048 -3.3359 -0.7969
  527SOL     OW 1579   2.995   1.417   0.538  0.5258 -0.4204  0.2571
  527SOL    HW1 1580   3.084   1.369   0.518 -0.1607  1.6592  0.9029
  527SOL    HW2 1581   2.954   1.377   0.623 -1.6872 -1.9864 -1.5810
  528SOL     OW 1582   0.891   0.720   2.153 -0.3496  0.1639 -0.7559
  528SOL    HW1 1583   0.853   0.652   2.218 -2.1707 -0.2808  2.1633
  528SOL    HW2 1584   0.843   0.808   2.175  1.8145  2.5188 -0.5033
  529SOL     OW 1585   0.729   1.395   0.162  0.2088  0.4331  0.1227
  529SOL    HW1 1586   0.717   1.491   0.192  0.1522 -2.8095 -0.3811
  529SOL    HW2 1587   0.720   1.327   0.236  0.1653  2.3422 -1.4860
  530SOL     OW 1588   1.127   1.168   2.128 -0.0269  0.0933  0.6762
  530SOL    HW1 1589   1.199   1.102   2.102 -1.4117  0.4393 -1.6199
  530SOL    HW2 1590   1.119   1.169   2.229 -2.0348 -1.1567 -0.0834
  531SOL     OW 1591   1.117   2.453   0.041  0.6076  0.0281 -0.1781
  531SOL    HW1 1592   1.118   2.359   0.004  0.3929 -0.9308 -0.7291
  531SOL    HW2 1593   1.089   2.456   0.136 -2.3727  3.9185  1.1507
  532SOL     OW 1594   2.345   1.213   2.714 -0.0844  0.0262  0.1216
  532SOL    HW1 1595   2.431   1.265   2.747  0.3676 -1.1536  0.7719
  532SOL    HW2 1596   2.294   1.176   2.796 -1.2788 -4.0096  0.4361
  533SOL     OW 1597   3.037   0.210   1.818 -0.2281  0.4002 -0.3156
  533SOL    HW1 1598   3.030   0.136   1.888 -2.8816  2.3988 -1.8459
  533SOL    HW2 1599   2.957   0.279   1.814 -3.6162  5.5914 -3.6146
  534SOL     OW 1600   2.330   0.280   0.317 -0.0963  0.0646  0.3065
  534SOL    HW1 1601   2.421   0.322   0.317 -2.8968  1.8158 -0.7760
  534SOL    HW2 1602   2.263   0.355   0.318  1.3826  0.0085 -3.0851
  535SOL     OW 1603   0.517   0.095   0.130 -0.4520  0.0112 -0.3264
  535SOL    HW1 1604   0.602   0.098   0.072 -1.7613  0.9822 -0.3901
  535SOL    HW2 1605   0.446   0.150   0.086  0.0624 -2.0304 -0.6208
  536SOL     OW 1606   0.839   1.831   1.703 -0.1196 -0.0179  0.2639
  536SOL    HW1 1607   0.818   1.930   1.686  1.2142  1.4703 -0.2097
  536SOL    HW2 1608   0.930   1.805   1.669  1.2010 -1.3314 -0.4173
  537SOL     OW 1609   3.016   2.480   1.675 -0.1423  0.1215 -0.4211
  537SOL    HW1 1610   2.955   2.556   1.648  2.2374 -2.6597 -1.7326
  537SOL    HW2 1611   3.029   2.474   1.774 -1.0868 -0.6953  0.0568
  538SOL     OW 1612   0.321   2.309   0.479 -0.0274  0.4493 -0.1613
  538SOL    HW1 1613   0.301   2.269   0.573  1.8419  0.3611  0.5289
  538SOL    HW2 1614   0.291   2.236   0.411 -2.7853 -1.4292 -1.0860
  539SOL     OW 1615   2.371   1.147   2.442 -0.0912  0.5500  0.0528
  539SOL    HW1 1616   2.368   1.160   2.542 -0.7081 -1.1404 -1.1659
  539SOL    HW2 1617   2.462   1.167   2.401  0.6407  2.2645  0.2912
  540SOL     OW 1618   1.902   0.760   2.985  0.2131  0.2691 -0.5330
  540SOL    HW1 1619   1.854   0.817   2.917  0.2110  2.3240  1.6477
  540SOL    HW2 1620   1.835   0.739   3.062  1.4707  0.6149  0.5550
  541SOL     OW 1621   0.765   0.583   2.364 -0.3737 -0.0117 -0.4191
  541SOL    HW1 1622   0.690   0.522   2.341  0.8335 -2.1807  2.0801
  541SOL    HW2 1623   0.768   0.594   2.467 -1.4466 -2.2942  2.3091
  542SOL     OW 1624   1.476   2.581   1.974  0.0042  0.3039  0.3625
  542SOL    HW1 1625   1.447   2.678   1.955 -1.3977 -1.2640  1.5709
  542SOL    HW2 1626   1.515   2.537   1.889  1.4595 -0.1514  0.8298
  543SOL     OW 1627   0.834   2.562   0.380  0.0244  0.5673  0.1940
  543SOL    HW1 1628   0.792   2.477   0.343 -0.7875 -1.1703  0.0615
  543SOL    HW2 1629   0.908   2.547   0.448 -1.4034 -3.7156 -2.1923
  544SOL     OW 1630   2.808   1.761   2.398 -0.3021  0.7073  0.1537
  544SOL    HW1 1631   2.755   1.846   2.374  0.5593 -0.0925  0.5251
  544SOL    HW2 1632   2.893   1.745   2.342  2.0104  0.0120 -1.4656
  545SOL     OW 1633   1.367   1.661   1.857 -0.1855 -0.8002  0.1040
  545SOL    HW1 1634   1.373   1.766   1.858 -0.7849  1.1959  1.0289
  545SOL    HW2 1635   1.280   1.631   1.808 -1.7832 -0.7722 -2.0134
  546SOL     OW 1636   0.277   0.261   2.491  0.4516  0.3703 -0.6775
  546SOL    HW1 1637   0.344   0.259   2.414 -0.1468 -0.3823  1.7113
  546SOL    HW2 1638   0.237   0.166   2.503  1.5822 -0.1027  2.1089
  547SOL     OW 1639   1.045   0.147   0.796  0.0540  0.7986 -0.1580
  547SOL    HW1 1640   0.978   0.212   0.748 -0.8487  0.0802 -1.4111
  547SOL    HW2 1641   1.121   0.121   0.732 -0.2184  0.4120 -0.3521
  548SOL     OW 1642   1.489   2.071   3.069  0.2182  0.1321  0.0806
  548SOL    HW1 1643   1.533   2.034   0.050 -0.3232 -0.4599  0.8910
  548SOL    HW2 1644   1.548   2.120   3.002 -1.1118 -5.2138 -0.0641
  549SOL     OW 1645   2.405   1.017   0.188  0.5226 -0.7144 -0.1152
  549SOL    HW1 1646   2.307   1.048   0.197 -2.4401 -0.4408  0.4179
  549SOL    HW2 1647   2.471   1.090   0.220 -3.2500  4.1006 -0.4595
  550SOL     OW 1648   2.678   2.305   0.816  0.1873 -0.1464  0.2644
  550SOL    HW1 1649   2.586   2.341   0.788 -2.7136  0.9042 -1.0969
  550SOL    HW2 1650   2.740   2.374   0.862 -1.4935  0.0595  1.0716
  551SOL     OW 1651   0.856   0.508   1.360 -0.1431 -0.0549 -0.0083
  551SOL    HW1 1652   0.837   0.419   1.314  1.0550 -0.1259 -0.3466
  551SOL    HW2 1653   0.826   0.502   1.456  0.6827 -0.1489 -4.9607
  552SOL     OW 1654   0.001   1.640   2.774  0.0533 -0.3131  0.0813
  552SOL    HW1 1655   0.010   1.561   2.709  0.8294  1.6113 -3.2612
  552SOL    HW2 1656   0.091   1.652   2.826 -0.4951 -1.7915  0.6435
  553SOL     OW 1657   2.612   2.628   0.588 -0.3148 -0.3106  0.5513
  553SOL    HW1 1658   2.644   2.552   0.529 -2.8908  0.7370 -0.7406
  553SOL    HW2 1659   2.644   2.716   0.553 -1.6704  1.8203 -0.6270
  554SOL     OW 1660   1.945   1.107   1.383  0.1165  0.0132  0.2292
  554SOL    HW1 1661   2.029   1.075   1.341 -0.1688  1.1265 -1.2417
  554SOL    HW2 1662   1.963   1.164   1.467 -0.2358 -1.8307 -1.8672
  555SOL     OW 1663   1.123   2.185   2.071  0.2290 -0.2779  0.0605
  555SOL    HW1 1664   1.208   2.133   2.059 -1.6233 -0.4405  0.7686
  555SOL    HW2 1665   1.145   2.283   2.079  1.8177  0.3937 -0.0512
  556SOL     OW 1666   0.907   1.324   1.843 -0.4612 -0.1739 -0.1223
  556SOL    HW1 1667   0.954   1.401   1.885  1.1394 -0.0223 -1.1971
  556SOL    HW2 1668   0.919   1.244   1.901  0.5912  2.7997  0.0585
  557SOL     OW 1669   1.384   3.068   1.434 -0.5714 -0.2510 -0.5140
  557SOL    HW1 1670   1.336   2.978   1.414  0.2447 -1.9987  0.3530
  557SOL    HW2 1671   1.400   3.084   1.535 -0.2340 -1.2390  3.1292
  558SOL     OW 1672   0.809   3.032   2.331  0.0785 -0.2487  0.8136
  558SOL    HW1 1673   0.847   3.043   2.425  0.4734  0.2482  1.3365
  558SOL    HW2 1674   0.848   2.946   2.285  1.1153 -1.5686 -0.3835
  559SOL     OW 1675   1.839   2.679   0.356 -0.0516 -0.1186  0.1607
  559SOL    HW1 1676   1.758   2.666   0.293 -1.6555 -2.0502 -1.4975
  559SOL    HW2 1677   1.853   2.585   0.393  0.5278  0.4747  1.6013
  560SOL     OW 1678   1.612   2.184   0.270  0.1628 -0.1402  0.4945
  560SOL    HW1 1679   1.569   2.093   0.249  0.6637  0.8266  0.1309
  560SOL    HW2 1680   1.619   2.248   0.188  1.4820  0.8066 -0.2311
  561SOL     OW 1681   1.518   0.189   0.598  0.2268 -0.3175  0.4922
  561SOL    HW1 1682   1.572   0.103   0.588  0.9423  3.7930 -1.2299
  561SOL    HW2 1683   1.553   0.252   0.526 -2.4808  0.6337 -0.1614
  562SOL     OW 1684   0.407   1.047   1.970  0.7628 -0.0316 -0.1595
  562SOL    HW1 1685   0.438   1.106   1.895  0.4348 -1.3308  1.3170
  562SOL    HW2 1686   0.482   0.991   2.006 -0.4604 -0.6167 -0.4826
  563SOL     OW 1687   1.469   2.291   2.671  0.1090  0.5110  0.2390
  563SOL    HW1 1688   1.412   2.255   2.592 -1.9473 -2.0381  0.5655
  563SOL    HW2 1689   1.516   2.210   2.717 -1.6240  0.3275 -1.7114
  564SOL     OW 1690   2.861   0.871   0.949 -0.6226  0.0899 -0.2542
  564SOL    HW1 1691   2.892   0.823   1.033 -0.2095  0.6189  0.5489
  564SOL    HW2 1692   2.903   0.820   0.867  0.4822 -0.4234 -0.4395
  565SOL     OW 1693   0.907   1.062   0.054  0.0872 -0.4665  0.1173
  565SOL    HW1 1694   0.897   1.162   0.036 -2.4877  1.4982  0.3225
  565SOL    HW2 1695   1.003   1.037   0.028 -3.0527  2.2727 -1.0122
  566SOL     OW 1696   2.323   2.666   0.021 -0.4805  0.4880  0.5023
  566SOL    HW1 1697   2.359   2.628   0.109 -0.0354 -1.9828  0.9376
  566SOL    HW2 1698   2.325   2.765   0.015 -1.0759 -1.3635 -1.0290
  567SOL     OW 1699   1.364   1.161   1.323  0.3574  0.6346 -0.2435
  567SOL    HW1 1700   1.444   1.220   1.355 -0.1277 -0.9471  1.0545
  567SOL    HW2 1701   1.311   1.131   1.406  0.0782  2.6660 -0.3559
  568SOL     OW 1702   1.343   1.128   2.716  0.2476 -0.6075  0.6138
  568SOL    HW1 1703   1.391   1.051   2.756 -2.5102  1.0899 -0.8181
  568SOL    HW2 1704   1.387   1.156   2.630 -0.3334  0.0231  0.9943
  569SOL     OW 1705   1.886   1.867   0.491  0.3349 -0.0424 -0.4539
  569SOL    HW1 1706   1.968   1.906   0.540  1.5229 -0.8693 -1.2935
  569SOL    HW2 1707   1.798   1.864   0.548 -0.6772 -1.3218  0.0044
  570SOL     OW 1708   2.650   1.983   2.360  0.0579 -0.5917 -0.3700
  570SOL    HW1 1709   2.657   2.027   2.270  1.2132  0.9232  0.5834
  570SOL    HW2 1710   2.637   2.046   2.442  1.9500 -1.3039  0.2571
  571SOL     OW 1711   2.681   1.845   1.721  0.2819  0.1931  0.8936
  571SOL    HW1 1712   2.655   1.885   1.627  1.3371 -0.4945 -0.0077
  571SOL    HW2 1713   2.770   1.887   1.752 -1.6807 -0.8342 -0.2248
  572SOL     OW 1714   1.627   2.595   0.214  0.4762  0.1133 -0.4223
  572SOL    HW1 1715   1.530   2.585   0.254 -2.9169  2.2928 -0.0898
  572SOL    HW2 1716   1.641   2.519   0.147 -0.6864  2.1113 -0.6497
  573SOL     OW 1717   1.616   1.814   1.106 -0.5347  0.5125  0.4496
  573SOL    HW1 1718   1.710   1.850   1.101 -1.9529  0.2767 -1.3763
  573SOL    HW2 1719   1.622   1.717   1.077 -0.1702  0.6803 -0.8925
  574SOL     OW 1720   1.009   0.036   1.515 -0.0070 -0.1267 -0.1008
  574SOL    HW1 1721   1.078   0.097   1.474 -1.0978  2.0876 -1.0561
  574SOL    HW2 1722   1.029   0.007   1.616  2.1800 -1.5295  1.4470
  575SOL     OW 1723   0.726   0.670   1.180  0.5608  0.8830 -0.0524
  575SOL    HW1 1724   0.782   0.734   1.121  2.0949  0.9221  0.1729
  575SOL    HW2 1725   0.777   0.619   1.258  2.7802 -0.0415  1.8742
  576SOL     OW 1726   2.627   0.472   1.390  0.2977 -0.1215 -0.0053
  576SOL    HW1 1727   2.614   0.521   1.301 -0.2291  0.7557 -0.8333
  576SOL    HW2 1728   2.664   0.535   1.459 -1.2293 -0.8171 -0.4672
  577SOL     OW 1729   2.375   0.633   2.774  0.0555 -1.2026 -0.1695
  577SOL    HW1 1730   2.383   0.680   2.864 -0.2810 -1.5773  3.8430
  577SOL    HW2 1731   2.445   0.670   2.712  2.5693  1.5699 -2.3747
  578SOL     OW 1732   1.617   1.679   2.166 -0.2611  0.5927  0.1409
  578SOL    HW1 1733   1.696   1.617   2.180  0.4893  0.6870  1.5897
  578SOL    HW2 1734   1.647   1.748   2.096 -0.2212 -1.3886  2.1260
  579SOL     OW 1735   0.624   1.494   0.862 -0.0551 -0.1940 -0.0072
  579SOL    HW1 1736   0.553   1.548   0.808 -0.0376  2.5199 -0.1131
  579SOL    HW2 1737   0.669   1.557   0.931  3.2974 -0.1883  2.3568
  580SOL     OW 1738   1.380   2.529   3.065 -0.0058 -0.1149 -0.2070
  580SOL    HW1 1739   1.301   2.532   0.023  1.0012 -1.4276 -2.2483
  580SOL    HW2 1740   1.344   2.520   2.970 -3.3131  0.2832 -1.1382
  581SOL     OW 1741   0.919   0.601   1.911 -0.2222  0.0732  0.6320
  581SOL    HW1 1742   0.917   0.652   1.999  0.4172  0.5892  0.0862
  581SOL    HW2 1743   0.896   0.505   1.930 -1.6338  0.3474  2.2488
  582SOL     OW 1744   0.530   0.842   0.852  0.0594  0.2711 -0.2846
  582SOL    HW1 1745   0.485   0.848   0.763 -0.2654  0.2215  2.3190
  582SOL    HW2 1746   0.598   0.918   0.868  0.5590 -1.8511  1.3199
  583SOL     OW 1747   1.052   1.696   2.077 -0.3150 -0.2724  0.0341
  583SOL    HW1 1748   1.140   1.738   2.113  2.6905  2.8010  0.9301
  583SOL    HW2 1749   1.055   1.594   2.081 -0.9300  0.5980 -0.3251
  584SOL     OW 1750   2.328   2.924   0.432 -0.2025 -0.3089  0.0933
  584SOL    HW1 1751   2.385   2.921   0.350  0.0016 -2.1196  0.6232
  584SOL    HW2 1752   2.306   3.023   0.451 -0.4620  0.1622  0.3395
  585SOL     OW 1753   2.071   0.560   3.078 -0.8804  0.3892 -0.0891
  585SOL    HW1 1754   2.006   0.637   3.059  2.2098 -4.1539  2.9736
  585SOL    HW2 1755   2.157   0.591   0.022  2.6604 -0.0926  0.5516
  586SOL     OW 1756   0.312   1.772   0.320  0.3387  0.1569  0.1194
  586SOL    HW1 1757   0.237   1.753   0.388 -0.0400  0.3090  0.4309
  586SOL    HW2 1758   0.406   1.750   0.356 -1.3477 -1.4427 -0.1569
  587SOL     OW 1759   1.706   2.122   1.046  0.5204 -0.2227 -0.4875
  587SOL    HW1 1760   1.779   2.103   1.111 -0.7490  1.3230 -3.2563
  587SOL    HW2 1761   1.615   2.136   1.092 -0.8514  3.3356  0.9837
  588SOL     OW 1762   0.489   0.568   0.835 -0.7621  0.1987  0.0685
  588SOL    HW1 1763   0.560   0.518   0.892  0.3513  2.1913 -0.5741
  588SOL    HW2 1764   0.494   0.666   0.868  4.0597 -0.1010 -0.7727
  589SOL     OW 1765   1.156   0.287   0.987 -0.1460  0.2163  0.2907
  589SOL    HW1 1766   1.118   0.222   0.915  0.5438 -3.3039  0.8739
  589SOL    HW2 1767   1.133   0.261   1.080 -1.7729  0.0314  0.5464
  590SOL     OW 1768   1.573   0.796   0.307  0.6168  0.4636 -0.3566
  590SOL    HW1 1769   1.592   0.726   0.377 -1.2741  1.5907 -1.0704
  590SOL    HW2 1770   1.533   0.748   0.226 -0.0526  0.1709 -1.3797
  591SOL     OW 1771   2.367   2.308   1.852  0.5450  0.0900  0.6299
  591SOL    HW1 1772   2.397   2.403   1.832  0.9266  1.9321  1.3531
  591SOL    HW2 1773   2.350   2.269   1.761 -1.1110  0.9809  1.7278
  592SOL     OW 1774   1.455   1.805   1.316  0.4544  0.5083  0.2646
  592SOL    HW1 1775   1.523   1.800   1.391 -0.2323 -2.1629 -1.5842
  592SOL    HW2 1776   1.498   1.816   1.220  1.9278  0.2412 -1.1023
  593SOL     OW 1777   0.919   2.863   0.541 -0.6733 -0.2042 -0.0748
  593SOL    HW1 1778   0.957   2.811   0.621  0.0119  0.7651  0.0330
  593SOL    HW2 1779   0.841   2.812   0.494 -1.4634 -0.8987 -1.6287
  594SOL     OW 1780   0.187   0.906   1.890 -0.5384  0.0602 -0.0757
  594SOL    HW1 1781   0.197   0.856   1.801 -0.2067  0.0250 -1.0164
  594SOL    HW2 1782   0.269   0.963   1.902  0.9612  1.5380  0.9184
  595SOL     OW 1783   2.954   2.751   0.792  0.2926 -0.3742 -0.0334
  595SOL    HW1 1784   2.902   2.836   0.820  2.5053  0.2565  0.0625
  595SOL    HW2 1785   3.038   2.744   0.848 -0.2589 -1.9419 -2.7456
  596SOL     OW 1786   3.027   0.466   1.531  0.1208  0.2289 -0.6885
  596SOL    HW1 1787   0.016   0.491   1.586  0.9784 -2.7763  1.6197
  596SOL    HW2 1788   3.016   0.365   1.525 -1.9862 -2.7777  0.3418
  597SOL     OW 1789   1.960   1.452   0.844 -0.1139  0.9181 -0.2230
  597SOL    HW1 1790   1.937   1.539   0.896 -0.0507 -0.0740 -0.5106
  597SOL    HW2 1791   1.907   1.444   0.762  3.2037  1.2208  3.8084
  598SOL     OW 1792   0.741   2.928   1.970 -0.6234 -0.6840  0.2643
  598SOL    HW1 1793   0.766   2.982   1.887 -3.0786  1.9830 -0.1232
  598SOL    HW2 1794   0.640   2.910   1.954 -0.4958  0.1472  1.2268
  599SOL     OW 1795   2.581   1.756   0.026  0.7465  0.1871  0.7835
  599SOL    HW1 1796   2.620   1.663   0.029 -1.4527  1.1490 -1.9242
  599SOL    HW2 1797   2.500   1.757   3.064 -2.1181  0.7938 -1.3911
  600SOL     OW 1798   0.792   0.859   2.978  0.0681  0.0816 -0.0826
  600SOL    HW1 1799   0.757   0.915   2.900 -1.9728  0.4615 -0.4310
  600SOL    HW2 1800   0.867   0.906   3.025  0.6549  0.6353  1.8043
  601SOL     OW 1801   1.091   1.124   2.815 -0.7832  0.9653 -0.0854
  601SOL    HW1 1802   1.179   1.132   2.766  1.0592  0.6490  0.1119
  601SOL    HW2 1803   1.042   1.210   2.817 -1.1073  1.4045  0.0568
  602SOL     OW 1804   1.347   2.782   1.189 -0.3709 -0.6472 -0.4720
  602SOL    HW1 1805   1.413   2.710   1.216  2.1022  0.1365  0.9398
  602SOL    HW2 1806   1.391   2.875   1.172  1.0009  1.9366  0.8152
  603SOL     OW 1807   1.129   2.948   2.518 -0.3417  0.4751 -0.3972
  603SOL    HW1 1808   1.128   2.885   2.599  0.4829  2.4870  1.3607
  603SOL    HW2 1809   1.159   2.891   2.438  1.0943 -0.0263  1.1647
  604SOL     OW 1810   3.094   0.154   2.277 -0.3186  0.1428  0.2889
  604SOL    HW1 1811   3.093   0.088   2.350  0.6170  1.7794 -0.2123
  604SOL    HW2 1812   0.034   0.243   2.305 -0.1621 -2.0988 -0.5473
  605SOL     OW 1813   2.343   2.517   1.457  0.3122  0.1189  0.2825
  605SOL    HW1 1814   2.395   2.440   1.498  0.7447  0.9417 -1.4230
  605SOL    HW2 1815   2.254   2.544   1.493  0.6493 -2.0245 -1.8295
  606SOL     OW 1816   0.239   1.647   2.940 -0.2295  0.1013 -0.1790
  606SOL    HW1 1817   0.177   1.606   3.014 -0.8909 -0.9875 -1.1848
  606SOL    HW2 1818   0.281   1.728   2.978 -0.9373 -1.8039 -3.4622
  607SOL     OW 1819   1.113   0.639   0.399 -0.3734  0.1809  0.0730
  607SOL    HW1 1820   1.163   0.552   0.374  0.0739 -0.3599 -1.6364
  607SOL    HW2 1821   1.040   0.664   0.329 -2.3892 -0.4983 -0.1228
  608SOL     OW 1822   1.688   1.393   2.538  0.1408  0.2629 -0.5432
  608SOL    HW1 1823   1.595   1.350   2.528  0.4518 -2.1016  0.3928
  608SOL    HW2 1824   1.677   1.493   2.563 -2.5382  0.2408 -2.2652
  609SOL     OW 1825   2.712   0.566   0.902 -0.3127 -1.0326 -0.3708
  609SOL    HW1 1826   2.677   0.637   0.839  0.1513 -1.4147 -0.8480
  609SOL    HW2 1827   2.649   0.484   0.904  0.2950  2.8444 -0.5789
  610SOL     OW 1828   0.449   2.349   2.895 -0.0131  0.0404  0.1459
  610SOL    HW1 1829   0.516   2.276   2.916  1.2362 -1.5942 -0.6561
  610SOL    HW2 1830   0.352   2.317   2.924  0.0157 -0.2021  1.9870
  611SOL     OW 1831   1.773   1.513   0.420 -0.6772 -0.7262 -0.1868
  611SOL    HW1 1832   1.856   1.550   0.371  1.8086 -0.8105  0.4482
  611SOL    HW2 1833   1.701   1.581   0.409  3.5619  0.3868 -1.9218
  612SOL     OW 1834   1.052   2.452   2.442 -0.2006  0.0934  0.0088
  612SOL    HW1 1835   1.139   2.506   2.424 -4.0272  2.1642  2.0438
  612SOL    HW2 1836   0.981   2.466   2.373  0.2007 -1.6083  0.0102
  613SOL     OW 1837   1.222   1.746   0.012  0.0952  0.3608  0.1855
  613SOL    HW1 1838   1.270   1.765   0.104 -1.9547 -0.4435  3.5681
  613SOL    HW2 1839   1.277   1.780   3.027 -2.1593  1.6328  0.4556
  614SOL     OW 1840   2.671   2.434   1.870  0.3193  0.3261 -0.3303
  614SOL    HW1 1841   2.751   2.440   1.939  1.8828  0.3393 -0.1193
  614SOL    HW2 1842   2.660   2.338   1.843 -0.3826 -1.8134 -1.9624
  615SOL     OW 1843   2.321   1.310   0.018 -0.3519  0.2516  0.5943
  615SOL    HW1 1844   2.268   1.263   3.046  0.8151 -0.6583  0.6344
  615SOL    HW2 1845   2.423   1.308   3.095 -0.8409 -2.8256  0.1193
  616SOL     OW 1846   1.615   0.262   0.870  0.4328  0.1578 -0.3402
  616SOL    HW1 1847   1.530   0.293   0.921  1.3711  0.8328 -0.1300
  616SOL    HW2 1848   1.584   0.229   0.777 -2.1871  1.0241 -0.5214
  617SOL     OW 1849   0.700   0.999   2.794  0.2036 -0.1217  0.3038
  617SOL    HW1 1850   0.686   0.987   2.695 -0.4638  0.4318 -0.7399
  617SOL    HW2 1851   0.684   1.097   2.820  0.9913  1.7368  0.1814
  618SOL     OW 1852   0.740   0.801   1.895  0.1288 -0.2157  0.0089
  618SOL    HW1 1853   0.796   0.882   1.930  1.7758  1.8399  0.2593
  618SOL    HW2 1854   0.797   0.720   1.885 -2.5859 -0.0281 -1.4726
  619SOL     OW 1855   0.228   0.776   1.646 -0.7500  0.2515 -0.1063
  619SOL    HW1 1856   0.162   0.795   1.576  0.2323 -2.3226  3.4077
  619SOL    HW2 1857   0.323   0.770   1.605 -1.3544  1.9442  2.2455
  620SOL     OW 1858   1.901   1.140   0.081  0.2850  0.0291  0.3252
  620SOL    HW1 1859   1.840   1.057   0.074 -1.5756 -0.6040  0.8635
  620SOL    HW2 1860   1.915   1.179   3.089  1.2469 -3.7052  1.5182
  621SOL     OW 1861   2.597   3.034   1.088 -0.0666  0.3823 -0.5264
  621SOL    HW1 1862   2.621   0.005   1.016  0.1776  2.4456 -1.0053
  621SOL    HW2 1863   2.497   3.039   1.112  1.5065  0.1458 -0.6363
  622SOL     OW 1864   1.490   0.792   2.113 -0.0741  0.2253 -0.6012
  622SOL    HW1 1865   1.579   0.763   2.154 -1.1096 -0.9707  1.2056
  622SOL    HW2 1866   1.437   0.707   2.106  4.0031  0.4307  0.3254
  623SOL     OW 1867   1.013   0.440   2.709  0.3815  0.3820  0.1535
  623SOL    HW1 1868   0.965   0.347   2.724  1.4767 -0.0812  0.2793
  623SOL    HW2 1869   0.957   0.513   2.749 -1.0170 -0.9827  0.3216
  624SOL     OW 1870   1.610   0.349   0.374  0.2457  0.3241  0.0512
  624SOL    HW1 1871   1.580   0.434   0.419 -0.3797 -2.2062 -0.3219
  624SOL    HW2 1872   1.711   0.334   0.392  0.6281  1.0668 -1.0797
  625SOL     OW 1873   0.810   1.292   0.926 -0.1930 -0.4445  0.2122
  625SOL    HW1 1874   0.897   1.326   0.889  2.3816 -0.8217  0.1098
  625SOL    HW2 1875   0.736   1.360   0.911  0.9698 -2.1326  0.7451
  626SOL     OW 1876   1.438   1.044   0.020 -0.0084  0.2855  0.2486
  626SOL    HW1 1877   1.445   1.143   0.009  2.7384 -0.8022  0.9157
  626SOL    HW2 1878   1.424   0.998   3.030 -0.7927  0.1363 -0.2014
  627SOL     OW 1879   1.081   3.060   1.774 -0.8584  0.2628  0.4411
  627SOL    HW1 1880   1.125   3.093   1.857 -1.9823 -0.7166 -1.6980
  627SOL    HW2 1881   0.981   3.060   1.793  2.5147  0.3664  4.1418
  628SOL     OW 1882   2.554   0.176   2.037 -0.5789  0.0359  0.1624
  628SOL    HW1 1883   2.655   0.184   2.062  0.9079  3.3335  3.4884
  628SOL    HW2 1884   2.509   0.266   2.069  1.5130  2.2128  1.9291
  629SOL     OW 1885   0.740   1.262   2.902 -0.3087 -0.5320  0.0866
  629SOL    HW1 1886   0.821   1.292   2.956  1.6185  0.9228 -0.8838
  629SOL    HW2 1887   0.728   1.327   2.827  0.4996 -1.0032  0.4394
  630SOL     OW 1888   1.101   0.253   2.362  0.4458 -0.0336  0.4494
  630SOL    HW1 1889   1.120   0.342   2.411  0.2768 -2.5084 -0.3920
  630SOL    HW2 1890   1.158   0.174   2.390 -1.4071 -4.4619 -0.4987
  631SOL     OW 1891   2.845   1.064   0.689  0.0096  0.3280  0.1145
  631SOL    HW1 1892   2.845   1.160   0.724  2.2377 -0.3440  0.1496
  631SOL    HW2 1893   2.836   1.000   0.771  0.6069 -1.0338 -0.8921
  632SOL     OW 1894   2.464   1.124   0.793  0.1861  0.2762 -0.3203
  632SOL    HW1 1895   2.491   1.044   0.847 -2.4621  1.7289 -1.4776
  632SOL    HW2 1896   2.426   1.194   0.856 -2.8966  1.9697  0.1644
  633SOL     OW 1897   1.461   0.968   1.165 -0.1186  0.0790 -0.6578
  633SOL    HW1 1898   1.452   0.999   1.069  1.4514 -0.1317 -2.8724
  633SOL    HW2 1899   1.436   1.040   1.233  1.4535 -1.9117  0.0379
  634SOL     OW 1900   1.815   0.073   0.838 -0.3011  0.4374  0.5202
  634SOL    HW1 1901   1.747   0.143   0.864  0.2834  1.9018  0.1318
  634SOL    HW2 1902   1.852   0.032   0.926  0.0293 -2.0986  0.5656
  635SOL     OW 1903   1.769   0.504   1.412 -0.2338 -0.0490  0.0903
  635SOL    HW1 1904   1.826   0.552   1.339  0.7105  2.1815 -1.4117
  635SOL    HW2 1905   1.680   0.550   1.433  0.1634 -0.9016 -1.1907
  636SOL     OW 1906   1.017   1.007   0.567  0.0822  0.4725  0.4722
  636SOL    HW1 1907   1.074   0.949   0.503 -0.7672  0.3404  1.8483
  636SOL    HW2 1908   0.924   0.973   0.573  3.0448  0.5718  2.6562
  637SOL     OW 1909   1.598   2.385   0.058 -0.1202  0.6165  0.2147
  637SOL    HW1 1910   1.506   2.416   0.027  0.1696 -1.5333  0.1469
  637SOL    HW2 1911   1.659   2.360   3.079  0.6597 -0.7120 -3.3986
  638SOL     OW 1912   0.976   2.875   2.964  0.2193 -0.0088  0.3881
  638SOL    HW1 1913   0.983   2.907   3.062 -1.7081 -0.8723  0.4646
  638SOL    HW2 1914   0.961   2.773   2.965 -0.1691  0.0316 -0.4060
  639SOL     OW 1915   0.964   1.884   1.341 -0.8896 -0.1199  0.5047
  639SOL    HW1 1916   1.035   1.885   1.266  3.3680 -0.1184  0.5320
  639SOL    HW2 1917   0.873   1.859   1.293 -2.1405  1.7083  0.2802
  640SOL     OW 1918   0.346   2.944   0.403  0.1965 -0.1235  0.4728
  640SOL    HW1 1919   0.353   2.884   0.481 -1.8805  4.8864 -2.3733
  640SOL    HW2 1920   0.434   2.958   0.358  0.0103 -1.7232  0.7883
  641SOL     OW 1921   0.177   0.258   0.260  0.1577 -0.0619  0.3969
  641SOL    HW1 1922   0.235   0.217   0.334 -0.2116  0.0548  1.5786
  641SOL    HW2 1923   0.218   0.347   0.219  1.7526  1.3699  1.1447
  642SOL     OW 1924   0.290   1.626   1.070 -0.5053  0.4955  0.3482
  642SOL    HW1 1925   0.299   1.689   0.989 -3.2159  0.7746 -0.5115
  642SOL    HW2 1926   0.246   1.673   1.148  1.0709 -1.1706  3.2408
  643SOL     OW 1927   0.913   1.781   2.369 -0.2483 -0.5253 -0.4931
  643SOL    HW1 1928   1.000   1.739   2.399 -0.2863  0.4944 -0.5461
  643SOL    HW2 1929   0.936   1.873   2.330  0.2547  0.0553 -0.3412
  644SOL     OW 1930   1.851   2.470   0.522 -0.3723 -0.5164  0.2425
  644SOL    HW1 1931   1.865   2.363   0.523  0.7866 -0.7346 -1.3630
  644SOL    HW2 1932   1.777   2.486   0.591  0.0999 -1.7703 -3.1019
  645SOL     OW 1933   1.884   2.205   1.368 -0.2519  0.2603 -0.5667
  645SOL    HW1 1934   1.870   2.172   1.464  1.2593  0.1508 -0.9339
  645SOL    HW2 1935   1.863   2.125   1.304 -2.5962 -1.5979 -2.8184
  646SOL     OW 1936   1.116   2.654   0.271 -0.5892  0.5077  0.4150
  646SOL    HW1 1937   1.109   2.749   0.240  2.2987 -5.0778  0.2516
  646SOL    HW2 1938   1.019   2.619   0.263 -0.8865 -3.7868 -0.0083
  647SOL     OW 1939   0.458   2.925   1.939  0.1681  0.1340  0.0389
  647SOL    HW1 1940   0.440   2.825   1.926  3.5078  0.3924  1.0056
  647SOL    HW2 1941   0.452   2.969   1.849 -1.2665  1.6895  0.1411
  648SOL     OW 1942   2.578   1.090   0.545 -0.2311  0.2689  0.5736
  648SOL    HW1 1943   2.525   1.071   0.629  1.5770 -0.0554  0.8176
  648SOL    HW2 1944   2.675   1.100   0.573  0.4242 -1.0490 -3.1829
  649SOL     OW 1945   1.880   2.532   2.770 -0.0008  0.4642 -0.0793
  649SOL    HW1 1946   1.830   2.479   2.695 -3.5478 -2.9716 -3.1610
  649SOL    HW2 1947   1.863   2.628   2.744  0.0207 -1.4301  1.7467
  650SOL     OW 1948   2.314   1.374   2.014  0.1696  0.1013  0.5294
  650SOL    HW1 1949   2.362   1.457   2.043 -0.3631 -0.9267  0.8454
  650SOL    HW2 1950   2.286   1.317   2.092  0.0503  0.8582 -1.4604
  651SOL     OW 1951   1.500   1.592   2.817  0.0325 -0.0692 -0.2583
  651SOL    HW1 1952   1.532   1.523   2.883 -0.6808  1.8860  0.4775
  651SOL    HW2 1953   1.456   1.671   2.867 -0.6341 -0.9641 -1.2954
  652SOL     OW 1954   0.713   2.985   2.748  0.1257  0.0333  0.1043
  652SOL    HW1 1955   0.677   2.913   2.810  1.3712  2.5947 -1.4888
  652SOL    HW2 1956   0.665   3.074   2.767 -0.9140  3.8903  0.1509
  653SOL     OW 1957   2.251   2.216   0.936 -0.1791  0.5335 -0.2566
  653SOL    HW1 1958   2.317   2.140   0.945 -0.3558 -2.0941 -4.5358
  653SOL    HW2 1959   2.206   2.230   1.029 -1.3262  1.4137 -1.2588
  654SOL     OW 1960   2.845   2.873   2.170  0.2183  0.1595  0.1756
  654SOL    HW1 1961   2.792   2.944   2.219  0.7457  2.0585 -0.8205
  654SOL    HW2 1962   2.850   2.885   2.070  0.7552 -0.1739  2.1427
  655SOL     OW 1963   2.721   2.175   1.246  0.0567 -0.0889  0.1122
  655SOL    HW1 1964   2.646   2.228   1.200  0.0279  0.7230 -0.9875
  655SOL    HW2 1965   2.707   2.167   1.348 -0.2397 -0.0598  2.9212
  656SOL     OW 1966   2.904   1.830   2.637  0.4220 -0.2533 -0.1856
  656SOL    HW1 1967   2.862   1.810   2.547 -0.1020  1.1473 -0.9283
  656SOL    HW2 1968   2.974   1.762   2.661 -1.4554 -0.5772 -0.6680
  657SOL     OW 1969   3.086   0.917   0.362  0.0950  0.2412  0.2256
  657SOL    HW1 1970   3.010   0.977   0.326 -1.7438  1.1072 -3.8216
  657SOL    HW2 1971   0.025   0.865   0.284 -1.4324  0.4379 -0.0045
  658SOL     OW 1972   1.505   1.432   1.357  0.5444  0.1191 -0.5568
  658SOL    HW1 1973   1.529   1.401   1.450  0.0623  1.7954 -0.5716
  658SOL    HW2 1974   1.434   1.504   1.352  2.2997 -2.8804 -1.5277
  659SOL     OW 1975   0.801   0.274   1.226 -0.1523  0.2196  0.1149
  659SOL    HW1 1976   0.795   0.193   1.164 -0.2106  0.5970 -1.3945
  659SOL    HW2 1977   0.802   0.243   1.327  1.4821  0.4809  1.0273
  660SOL     OW 1978   2.036   1.236   1.011  0.4041  0.1823  0.1603
  660SOL    HW1 1979   2.025   1.316   0.951 -0.3772  0.4175 -0.8210
  660SOL    HW2 1980   1.946   1.217   1.048  2.0712  1.2035 -0.2806
  661SOL     OW 1981   0.365   1.525   0.121 -0.3252 -0.6623  0.1539
  661SOL    HW1 1982   0.388   1.575   0.209  0.3802 -0.8365 -0.1166
  661SOL    HW2 1983   0.269   1.533   0.083 -1.1276  2.2539  0.3166
  662SOL     OW 1984   2.746   0.678   2.020  0.5401 -0.3612  0.4614
  662SOL    HW1 1985   2.763   0.650   2.117  1.3637 -0.2582  1.9309
  662SOL    HW2 1986   2.827   0.658   1.962  0.8413 -1.0171 -1.2566
  663SOL     OW 1987   2.337   1.427   1.445 -0.3994 -0.4655  0.1027
  663SOL    HW1 1988   2.334   1.501   1.372 -0.3755 -0.4701  0.8555
  663SOL    HW2 1989   2.384   1.469   1.525  1.0109  3.0070  1.9113
  664SOL     OW 1990   0.507   0.009   1.382  0.0717 -0.2525 -0.1160
  664SOL    HW1 1991   0.418   0.045   1.423 -3.6172 -0.2644  2.5275
  664SOL    HW2 1992   0.529   0.040   1.287  1.8894  1.5227  0.0841
  665SOL     OW 1993   1.540   0.127   2.871 -0.0893  0.3484  0.0297
  665SOL    HW1 1994   1.607   0.194   2.894 -2.4362 -1.2768  0.7420
  665SOL    HW2 1995   1.532   0.054   2.943  0.7733 -1.0448 -0.8370
  666SOL     OW 1996   0.428   0.207   1.940  0.5861 -0.7983 -0.3919
  666SOL    HW1 1997   0.454   0.163   1.850  1.8997 -1.0710 -1.3136
  666SOL    HW2 1998   0.388   0.138   1.995 -0.1117  2.9256 -1.8372
  667SOL     OW 1999   1.731   1.437   1.963  0.6805  0.1219  0.2962
  667SOL    HW1 2000   1.799   1.461   1.892 -3.0659 -0.2908  1.2601
  667SOL    HW2 2001   1.762   1.470   2.056  0.4883 -0.2186 -0.0897
  668SOL     OW 2002   0.079   1.584   2.477  0.0140  0.2835  0.4046
  668SOL    HW1 2003   0.116   1.502   2.515  0.1812 -3.0285 -0.9236
  668SOL    HW2 2004   0.049   1.573   2.379  1.8769  1.0661 -1.6447
  669SOL     OW 2005   2.223   0.074   2.453  0.3329  0.6704  0.1257
  669SOL    HW1 2006   2.283   0.030   2.386 -0.3941 -1.7139  2.3139
  669SOL    HW2 2007   2.268   0.082   2.541 -0.9162 -1.0234 -2.1375
  670SOL     OW 2008   2.574   1.193   2.262 -0.3616  0.0995  0.2060
  670SOL    HW1 2009   2.645   1.122   2.296  1.4020 -2.2331 -1.4075
  670SOL    HW2 2010   2.626   1.274   2.224  3.0379  1.1820 -1.3763
  671SOL     OW 2011   2.582   1.891   0.263 -0.6586  0.2907 -0.2632
  671SOL    HW1 2012   2.568   1.840   0.177  0.4906  1.7625  2.6987
  671SOL    HW2 2013   2.502   1.896   0.332 -2.1778 -2.4320  0.3206
  672SOL     OW 2014   1.441   1.250   2.133  0.6089 -0.3683 -0.0487
  672SOL    HW1 2015   1.542   1.250   2.142 -0.4009  0.7750  0.3818
  672SOL    HW2 2016   1.408   1.154   2.128 -1.1739  0.3347 -1.9740
  673SOL     OW 2017   2.959   1.893   1.480 -0.2086 -0.0143 -0.2990
  673SOL    HW1 2018   2.986   1.816   1.411  0.4175 -2.9311 -0.3379
  673SOL    HW2 2019   3.039   1.919   1.541  0.0862 -0.1243 -1.5990
  674SOL     OW 2020   1.083   1.602   1.757 -0.0448 -0.4529 -0.4037
  674SOL    HW1 2021   1.064   1.640   1.852 -0.2392 -0.1411  0.6335
  674SOL    HW2 2022   1.089   1.665   1.679  3.3116 -0.8899  2.1310
  675SOL     OW 2023   3.053   0.738   0.798  0.4206 -0.3469  0.2346
  675SOL    HW1 2024   0.021   0.812   0.791 -1.1258 -2.6834 -1.9024
  675SOL    HW2 2025   3.095   0.646   0.797  1.1872  1.4276 -0.1104
  676SOL     OW 2026   3.033   1.317   0.935 -0.5310 -0.2352  0.1103
  676SOL    HW1 2027   0.034   1.325   0.916 -1.4647  0.7091 -0.8276
  676SOL    HW2 2028   3.014   1.227   0.974  0.3676  0.4183 -0.2166
  677SOL     OW 2029   1.623   1.840   2.406 -0.5467 -0.2314  0.0397
  677SOL    HW1 2030   1.622   1.779   2.324 -1.7880 -2.3065 -1.9498
  677SOL    HW2 2031   1.620   1.781   2.491 -0.2954  0.3589  0.8825
  678SOL     OW 2032   2.612   1.474   0.884 -0.5112 -0.1308 -0.3024
  678SOL    HW1 2033   2.621   1.572   0.901 -0.5013  0.7647 -1.3603
  678SOL    HW2 2034   2.555   1.431   0.954  2.4950 -0.8091 -2.7487
  679SOL     OW 2035   0.659   2.731   0.692 -0.0342  0.3429  0.0058
  679SOL    HW1 2036   0.677   2.630   0.718  1.0561 -4.0558  0.9232
  679SOL    HW2 2037   0.695   2.793   0.766 -0.6886  2.9030 -0.1945
  680SOL     OW 2038   0.145   1.780   1.245  0.2059  0.2579  0.2070
  680SOL    HW1 2039   0.096   1.859   1.213  0.9469 -0.0832 -0.2462
  680SOL    HW2 2040   0.077   1.717   1.282  0.8274 -0.2139  0.9622
  681SOL     OW 2041   0.943   0.471   0.995 -0.3027 -0.6173  0.0142
  681SOL    HW1 2042   0.899   0.398   1.056  1.3100  2.4817  2.5673
  681SOL    HW2 2043   1.038   0.444   0.963 -1.6513  1.5685  0.1640
  682SOL     OW 2044   1.626   2.735   1.619  0.5198 -0.3805  0.0605
  682SOL    HW1 2045   1.528   2.755   1.625  0.7117 -0.9307  1.1638
  682SOL    HW2 2046   1.680   2.794   1.682 -0.4237  3.4214  3.3717
  683SOL     OW 2047   2.477   1.519   1.687  0.1180 -0.0085 -0.3307
  683SOL    HW1 2048   2.478   1.434   1.739  0.5620  1.0211 -0.1992
  683SOL    HW2 2049   2.571   1.542   1.654  1.7802 -0.4484 -1.4272
  684SOL     OW 2050   0.163   1.672   1.714  0.5517  0.2053  0.0500
  684SOL    HW1 2051   0.163   1.584   1.659  0.3698 -0.6713  0.3381
  684SOL    HW2 2052   0.236   1.665   1.780 -0.4667  0.7783 -0.3488
  685SOL     OW 2053   1.950   1.963   0.240  0.2941  0.2365  0.0000
  685SOL    HW1 2054   1.930   2.063   0.231  0.3643 -0.1947 -1.5107
  685SOL    HW2 2055   1.943   1.934   0.340 -0.0764 -0.2741  1.5039
  686SOL     OW 2056   2.968   0.819   1.202  0.0474  0.2357 -0.2074
  686SOL    HW1 2057   3.057   0.875   1.218  2.8834 -0.1501 -1.3564
  686SOL    HW2 2058   2.984   0.723   1.217 -2.0201  0.0829  1.1506
  687SOL     OW 2059   1.850   0.066   2.347 -0.3011  0.1723 -0.1079
  687SOL    HW1 2060   1.861   0.115   2.436 -2.9709  0.1927  0.3295
  687SOL    HW2 2061   1.749   0.062   2.325 -1.8888  0.8705  1.5052
  688SOL     OW 2062   1.294   2.200   2.440  0.0140 -0.4436 -0.0047
  688SOL    HW1 2063   1.342   2.109   2.436  1.4552  0.5856 -1.5410
  688SOL    HW2 2064   1.198   2.187   2.478  0.8168  0.5490  1.1424
  689SOL     OW 2065   2.117   1.317   1.836 -0.0415  0.1311  0.1734
  689SOL    HW1 2066   2.189   1.343   1.903  2.2121  0.6752  1.4707
  689SOL    HW2 2067   2.067   1.230   1.853 -0.8861 -2.0720  0.0429
  690SOL     OW 2068   1.892   1.688   1.462  0.5330  0.1401  0.1013
  690SOL    HW1 2069   1.796   1.716   1.484 -0.8958 -1.4527 -0.4967
  690SOL    HW2 2070   1.892   1.611   1.396 -1.8410 -1.8443 -1.3527
  691SOL     OW 2071   0.134   1.704   0.527 -0.0263 -0.1934  0.1208
  691SOL    HW1 2072   0.142   1.792   0.580 -1.4105  0.2152  0.1918
  691SOL    HW2 2073   0.167   1.627   0.590  0.7942  0.2322  0.6341
  692SOL     OW 2074   2.662   2.760   2.524  0.0904  0.0023  0.1717
  692SOL    HW1 2075   2.573   2.815   2.505 -0.0567  1.7358  0.5606
  692SOL    HW2 2076   2.706   2.727   2.435  0.3126  2.3585 -0.8786
  693SOL     OW 2077   2.894   1.404   2.297 -0.1003 -0.8626 -0.5730
  693SOL    HW1 2078   2.882   1.449   2.393  1.1607  3.0882  3.3390
  693SOL    HW2 2079   2.982   1.432   2.253  1.0914 -0.8493 -1.1416
  694SOL     OW 2080   2.303   0.242   1.786 -0.3882 -0.3113  0.0876
  694SOL    HW1 2081   2.320   0.337   1.826  1.6544  1.2602 -0.2291
  694SOL    HW2 2082   2.341   0.238   1.691  0.5781  0.5842 -0.8774
  695SOL     OW 2083   1.154   0.703   2.317 -0.3774  0.1835 -0.2321
  695SOL    HW1 2084   1.087   0.718   2.245 -1.0476 -0.4778  1.3408
  695SOL    HW2 2085   1.193   0.793   2.347 -0.5861  1.9838  1.3176
  696SOL     OW 2086   1.780   0.028   1.657  0.4450  0.1562 -0.0948
  696SOL    HW1 2087   1.868   0.061   1.695  0.1987 -0.9316 -0.6090
  696SOL    HW2 2088   1.746   3.049   1.714 -1.7637 -0.8662 -0.2713
  697SOL     OW 2089   1.543   0.253   2.002 -0.3389  0.0778  0.0112
  697SOL    HW1 2090   1.612   0.307   2.053 -1.3548 -0.9376 -0.3759
  697SOL    HW2 2091   1.554   0.257   1.902 -1.2910  0.9423 -1.1452
  698SOL     OW 2092   2.039   1.799   2.561  0.9579  0.2029 -0.8878
  698SOL    HW1 2093   2.113   1.855   2.603  0.6994  0.0465 -0.7411
  698SOL    HW2 2094   2.002   1.835   2.474  2.7060 -0.0396  1.3354
  699SOL     OW 2095   2.234   0.786   0.157 -0.0545 -0.0861  0.5611
  699SOL    HW1 2096   2.153   0.821   0.207 -0.5817  0.5210 -0.7504
  699SOL    HW2 2097   2.314   0.842   0.182 -1.5597 -1.5195 -0.3690
  700SOL     OW 2098   1.245   0.131   0.578 -0.0192  0.1613  0.2616
  700SOL    HW1 2099   1.339   0.147   0.616  0.8426 -0.0718 -1.2531
  700SOL    HW2 2100   1.248   0.101   0.483 -0.4866 -1.0799 -2.2263
  701SOL     OW 2101   0.183   0.906   0.775 -0.2597 -0.4949  0.2887
  701SOL    HW1 2102   0.266   0.880   0.723  1.3791  0.4595  3.4384
  701SOL    HW2 2103   0.122   0.949   0.709  1.4042 -1.2176  0.5468
  702SOL     OW 2104   1.980   0.183   1.807 -0.3808  0.4847 -0.2678
  702SOL    HW1 2105   1.920   0.189   1.890  0.9485  0.9764 -0.3230
  702SOL    HW2 2106   2.016   0.274   1.784 -0.3827 -0.6757  0.6235
  703SOL     OW 2107   2.984   1.100   1.083 -0.7596  0.2252 -0.0112
  703SOL    HW1 2108   2.927   1.018   1.064 -0.3091 -0.0647  1.3595
  703SOL    HW2 2109   3.053   1.074   1.153  1.9205  0.1159 -3.6265
  704SOL     OW 2110   0.745   2.495   1.306  0.3293  0.1130 -0.6034
  704SOL    HW1 2111   0.790   2.549   1.229  0.0243  1.1306 -1.1775
  704SOL    HW2 2112   0.824   2.450   1.351  0.8767  1.1850 -1.6272
  705SOL     OW 2113   0.181   1.401   2.632  0.0921 -0.3863  0.4437
  705SOL    HW1 2114   0.222   1.332   2.565  3.3047 -1.6725 -1.7074
  705SOL    HW2 2115   0.254   1.443   2.694  0.9849  1.0221  0.9147
  706SOL     OW 2116   2.934   3.021   0.189  0.1565 -0.0349  0.1028
  706SOL    HW1 2117   2.844   2.975   0.183  1.2531 -0.2089  0.1435
  706SOL    HW2 2118   2.943   3.070   0.275 -1.1899 -1.2775 -1.7376
  707SOL     OW 2119   1.592   2.914   2.148  0.4162 -0.6616  0.2004
  707SOL    HW1 2120   1.639   2.993   2.100  1.3035  0.5517  0.5746
  707SOL    HW2 2121   1.501   2.895   2.100 -2.1369 -1.8345  1.9646
  708SOL     OW 2122   0.347   2.758   1.579  0.5306 -0.2413  0.0121
  708SOL    HW1 2123   0.427   2.725   1.521 -1.2575 -0.8753  1.2486
  708SOL    HW2 2124   0.292   2.675   1.606 -0.2166  0.1941  2.7383
  709SOL     OW 2125   2.991   0.600   1.916 -0.2609 -0.1324 -0.0905
  709SOL    HW1 2126   3.000   0.696   1.877 -0.3400  3.0083  0.0397
  709SOL    HW2 2127   3.050   0.586   1.997 -0.4610 -0.4334 -2.8268
  710SOL     OW 2128   0.224   1.009   1.039 -0.8704 -0.2071  0.1795
  710SOL    HW1 2129   0.299   1.080   1.032  1.5441  1.9844 -1.2917
  710SOL    HW2 2130   0.202   0.967   0.948 -0.0353 -1.1692 -1.7446
  711SOL     OW 2131   2.808   2.832   1.142 -0.1205  0.1394 -0.0263
  711SOL    HW1 2132   2.799   2.735   1.102 -0.5917 -3.0925  0.4184
  711SOL    HW2 2133   2.719   2.877   1.142  2.1249  1.4556 -1.0237
  712SOL     OW 2134   0.112   2.940   2.500  0.6289  0.5390  0.8235
  712SOL    HW1 2135   0.115   2.943   2.601 -0.6351 -0.1237  0.8334
  712SOL    HW2 2136   0.208   2.936   2.466 -0.5191 -3.5233  0.4362
  713SOL     OW 2137   2.406   0.387   0.699  0.0846 -0.6635  0.3357
  713SOL    HW1 2138   2.307   0.373   0.696  1.2438 -1.0648 -0.8985
  713SOL    HW2 2139   2.436   0.458   0.632 -0.1423 -1.4534 -0.1579
  714SOL     OW 2140   1.786   1.962   2.907 -0.7739 -0.2894 -0.0215
  714SOL    HW1 2141   1.771   1.912   3.000  0.0541 -0.7730  2.5300
  714SOL    HW2 2142   1.868   2.022   2.906  1.0751 -1.1023 -0.1116
  715SOL     OW 2143   0.109   0.509   0.855  0.5530 -0.1065 -0.2929
  715SOL    HW1 2144   0.168   0.526   0.933 -1.7565 -1.2766 -0.8404
  715SOL    HW2 2145   0.020   0.472   0.892  1.3416  0.8505  0.0480
  716SOL     OW 2146   0.843   0.574   1.627 -0.3033  0.2383  0.6028
  716SOL    HW1 2147   0.876   0.560   1.719 -0.8765 -0.9466 -0.6240
  716SOL    HW2 2148   0.825   0.675   1.611  1.1308 -2.7923 -0.3254
  717SOL     OW 2149   0.894   0.203   2.745 -0.2887 -0.8416  0.3336
  717SOL    HW1 2150   0.913   0.153   2.665 -1.0016  1.3300 -1.2728
  717SOL    HW2 2151   0.800   0.239   2.738  0.1536  0.5624 -0.9411
  718SOL     OW 2152   1.278   0.407   0.358 -0.3188  0.9405  0.1805
  718SOL    HW1 2153   1.335   0.464   0.412 -1.4547  0.1273 -1.4172
  718SOL    HW2 2154   1.289   0.309   0.377  1.5772  1.2696  0.1781
  719SOL     OW 2155   2.874   2.150   2.579 -0.3560  0.4630  0.2163
  719SOL    HW1 2156   2.902   2.206   2.660 -2.7122  1.7740  3.2922
  719SOL    HW2 2157   2.955   2.101   2.539 -1.6042 -1.6615 -1.1330
  720SOL     OW 2158   1.145   0.544   1.373  0.0122 -0.0899 -0.1673
  720SOL    HW1 2159   1.176   0.609   1.442 -0.0950  0.8078 -2.8290
  720SOL    HW2 2160   1.041   0.546   1.370 -1.5846  1.2497  0.0184
  721SOL     OW 2161   3.069   2.950   1.174 -0.3348 -0.1603  0.2804
  721SOL    HW1 2162   0.020   2.897   1.105 -0.1155  1.0877 -0.3775
  721SOL    HW2 2163   2.973   2.915   1.175  2.1750 -1.6606  1.0845
  722SOL     OW 2164   1.024   1.393   2.693  0.2958  0.1888  0.5508
  722SOL    HW1 2165   0.966   1.472   2.719  0.2441 -0.5470  0.3290
  722SOL    HW2 2166   1.121   1.408   2.711 -1.2185 -0.6782 -0.0943
  723SOL     OW 2167   2.328   0.698   1.147 -0.1436  0.0615 -0.2884
  723SOL    HW1 2168   2.413   0.643   1.131  1.8077 -0.0278 -1.3941
  723SOL    HW2 2169   2.351   0.789   1.169 -1.8934 -1.5606 -0.3854
  724SOL     OW 2170   0.815   2.178   0.049  0.2600 -0.1098 -0.4040
  724SOL    HW1 2171   0.790   2.096   0.103  0.6961  0.0052 -0.3736
  724SOL    HW2 2172   0.911   2.180   0.012  1.3432  0.4711  0.6098
  725SOL     OW 2173   0.271   1.266   1.640 -0.5889  0.3738 -0.3386
  725SOL    HW1 2174   0.295   1.315   1.730 -1.4958  1.4223  2.3749
  725SOL    HW2 2175   0.355   1.231   1.592  0.8099  0.5898  0.1259
  726SOL     OW 2176   2.562   0.920   3.061  0.5912 -0.1437  0.2747
  726SOL    HW1 2177   2.661   0.948   3.064  2.0256  1.9431  0.0094
  726SOL    HW2 2178   2.507   0.956   0.037  3.8282 -0.8263  1.0045
  727SOL     OW 2179   1.819   1.212   2.699 -0.2272  0.4983  0.4137
  727SOL    HW1 2180   1.764   1.280   2.643  0.8005  2.5246  2.5151
  727SOL    HW2 2181   1.852   1.135   2.643 -0.0251  2.0516 -1.3623
  728SOL     OW 2182   1.435   2.562   1.391  0.2237  0.3595  0.7031
  728SOL    HW1 2183   1.406   2.523   1.481  0.5256 -2.8320 -0.6288
  728SOL    HW2 2184   1.535   2.555   1.374 -0.4161 -1.5217  2.2737
  729SOL     OW 2185   1.986   0.865   2.219 -0.1907  0.2123 -0.0363
  729SOL    HW1 2186   2.030   0.841   2.307  2.0745 -2.0305  0.7982
  729SOL    HW2 2187   1.961   0.965   2.217  1.1140 -0.1179 -0.4979
  730SOL     OW 2188   1.122   0.709   1.059  0.2781 -0.0579  0.2091
  730SOL    HW1 2189   1.206   0.700   1.120 -0.9818 -1.2781  1.3132
  730SOL    HW2 2190   1.057   0.636   1.089  0.5270  3.5021 -0.3667
  731SOL     OW 2191   0.817   0.244   3.032 -0.0452  0.4548  0.4850
  731SOL    HW1 2192   0.884   0.216   2.961  0.8066 -0.5026  2.0626
  731SOL    HW2 2193   0.761   0.321   3.003  1.5524 -0.4242 -0.7895
  732SOL     OW 2194   0.487   0.572   0.203  0.3245 -0.7238 -0.1232
  732SOL    HW1 2195   0.549   0.504   0.245  1.0185  0.5934 -0.0527
  732SOL    HW2 2196   0.548   0.609   0.128 -0.3548 -0.5124 -0.4524
  733SOL     OW 2197   1.640   1.657   2.611  0.0228  0.2647  0.0631
  733SOL    HW1 2198   1.573   1.640   2.689 -0.2651  2.2167 -2.4111
  733SOL    HW2 2199   1.736   1.676   2.647  1.3836 -1.9480 -1.0812
  734SOL     OW 2200   0.253   1.926   2.723  0.9880  0.6228 -0.0989
  734SOL    HW1 2201   0.241   1.914   2.823 -1.2313 -1.3183 -0.4190
  734SOL    HW2 2202   0.243   2.025   2.689  1.3870  1.0775 -1.3610
  735SOL     OW 2203   2.108   0.649   0.999  0.0802 -0.1705  0.0662
  735SOL    HW1 2204   2.131   0.642   0.898  0.6448  2.1047 -1.0174
  735SOL    HW2 2205   2.191   0.690   1.044 -0.2047  1.1982 -2.7795
  736SOL     OW 2206   1.853   1.741   2.750 -0.0148 -0.4543  0.0160
  736SOL    HW1 2207   1.826   1.823   2.802 -3.1986 -1.4694 -0.0026
  736SOL    HW2 2208   1.936   1.759   2.687  0.9272  2.0423 -0.6597
  737SOL     OW 2209   2.945   0.464   0.549 -0.6601  0.1772  0.1660
  737SOL    HW1 2210   2.895   0.547   0.556  1.2363 -0.1460  1.6842
  737SOL    HW2 2211   3.040   0.476   0.578  0.5024 -0.6270  1.8582
  738SOL     OW 2212   0.728   2.074   1.648 -0.1412  0.0316 -0.4476
  738SOL    HW1 2213   0.821   2.109   1.679 -0.6916  0.2973 -0.1410
  738SOL    HW2 2214   0.672   2.138   1.591  0.7877 -1.6918 -0.8617
  739SOL     OW 2215   1.384   2.833   1.967 -0.1131 -0.2288 -0.5757
  739SOL    HW1 2216   1.383   2.847   1.872 -1.2200 -2.6059  1.2443
  739SOL    HW2 2217   1.305   2.880   2.007  0.8190  1.1607 -1.5329
  740SOL     OW 2218   2.071   2.336   1.597  0.0020  0.2656  0.5120
  740SOL    HW1 2219   2.027   2.244   1.606  1.4169 -0.7077 -0.0355
  740SOL    HW2 2220   2.005   2.414   1.588 -1.2175 -0.4998 -0.5034
  741SOL     OW 2221   2.208   0.519   0.259  0.0453 -0.1136  0.0570
  741SOL    HW1 2222   2.111   0.505   0.230  0.3731  1.0204  0.4801
  741SOL    HW2 2223   2.233   0.616   0.234 -0.2667 -1.2876 -2.1550
  742SOL     OW 2224   0.937   2.608   2.964  0.2251  0.0791 -0.1862
  742SOL    HW1 2225   0.916   2.568   2.872 -0.2557 -1.5712  0.6380
  742SOL    HW2 2226   1.002   2.547   3.020  1.9645 -0.9569  1.4111
  743SOL     OW 2227   2.441   1.010   2.086  0.2017  0.3074 -0.2611
  743SOL    HW1 2228   2.476   1.073   2.162  0.9121  0.4186  1.9070
  743SOL    HW2 2229   2.339   1.002   2.084 -0.0289 -1.5268 -4.0531
  744SOL     OW 2230   2.634   0.732   0.637 -0.0016  0.2358  0.2774
  744SOL    HW1 2231   2.580   0.683   0.570  1.4725  1.3850  1.7803
  744SOL    HW2 2232   2.737   0.723   0.622  0.1868  0.7770 -1.8042
  745SOL     OW 2233   2.710   1.057   1.720  0.7033 -0.6220 -0.0754
  745SOL    HW1 2234   2.662   0.986   1.773 -1.0386 -0.7583 -4.8293
  745SOL    HW2 2235   2.724   1.140   1.782  2.3235  1.5180  0.1716
  746SOL     OW 2236   1.260   1.610   0.542  0.2873  0.0061 -0.1866
  746SOL    HW1 2237   1.205   1.677   0.595  3.5637  1.5183 -1.3206
  746SOL    HW2 2238   1.206   1.579   0.465  1.1391  0.9652 -0.1157
  747SOL     OW 2239   1.230   1.420   1.628 -0.1485 -0.9623 -0.5773
  747SOL    HW1 2240   1.176   1.457   1.702  1.7631 -1.7119 -1.3139
  747SOL    HW2 2241   1.278   1.491   1.575  0.2262 -2.2560  1.5822
  748SOL     OW 2242   0.130   2.579   2.938 -0.0509  0.2224 -0.2387
  748SOL    HW1 2243   0.175   2.658   2.983  3.3053  1.2103  1.2154
  748SOL    HW2 2244   0.074   2.525   3.002 -2.7350  1.7633  4.1795
  749SOL     OW 2245   0.341   1.069   2.635 -0.4880 -0.4110 -0.7202
  749SOL    HW1 2246   0.252   1.043   2.595  0.4271 -0.8971 -1.7407
  749SOL    HW2 2247   0.414   1.086   2.564 -1.5549 -2.4531  0.7789
  750SOL     OW 2248   1.674   0.959   1.903  0.2936  0.2547  0.3628
  750SOL    HW1 2249   1.677   0.949   1.804 -0.3766 -1.7716  0.6191
  750SOL    HW2 2250   1.596   0.901   1.937 -0.7112 -2.2896  0.8458
  751SOL     OW 2251   2.776   0.594   0.259 -0.6489  0.7126 -0.3720
  751SOL    HW1 2252   2.699   0.528   0.242 -3.9324 -0.3996 -0.6366
  751SOL    HW2 2253   2.737   0.685   0.289  1.1245  1.0378 -0.1439
  752SOL     OW 2254   2.948   2.714   1.335 -0.0783 -0.0646  0.9756
  752SOL    HW1 2255   3.029   2.773   1.361 -0.7856 -2.7196 -0.6887
  752SOL    HW2 2256   2.883   2.771   1.283  0.9812 -0.2702 -0.4792
  753SOL     OW 2257   0.606   2.304   1.157 -0.4367 -0.0669 -0.6575
  753SOL    HW1 2258   0.673   2.364   1.208 -0.2949  0.2196  0.7389
  753SOL    HW2 2259   0.539   2.256   1.218  1.2925  0.2007 -1.0290
  754SOL     OW 2260   0.280   3.059   2.120 -0.6193 -0.5436  0.5344
  754SOL    HW1 2261   0.179   3.047   2.119  3.0610  0.6347  0.4290
  754SOL    HW2 2262   0.335   3.007   2.051 -1.6522 -0.2088  0.2395
  755SOL     OW 2263   2.476   0.549   0.476  0.4084 -0.2673  0.0607
  755SOL    HW1 2264   2.516   0.471   0.424  2.6098 -2.4196 -2.7013
  755SOL    HW2 2265   2.404   0.599   0.419  1.2626  1.1509  0.2459
  756SOL     OW 2266   2.278   2.445   2.992 -0.3028 -0.4483 -0.0192
  756SOL    HW1 2267   2.312   2.532   3.038 -0.2323  1.9879  1.0157
  756SOL    HW2 2268   2.230   2.455   2.897  1.9692 -1.6220 -2.1583
  757SOL     OW 2269   2.177   0.670   0.718 -0.2151 -0.1820 -0.1063
  757SOL    HW1 2270   2.228   0.690   0.630 -0.4427  1.9285 -2.1228
  757SOL    HW2 2271   2.167   0.572   0.727  0.5898  3.6137  1.1101
  758SOL     OW 2272   2.408   0.894   1.670  0.0963  0.0686 -0.4972
  758SOL    HW1 2273   2.380   0.987   1.635  1.6121  1.4037  0.4167
  758SOL    HW2 2274   2.484   0.908   1.738 -0.1936  0.8850 -1.4146
  759SOL     OW 2275   2.608   0.617   1.164 -0.0794  0.1174  0.3543
  759SOL    HW1 2276   2.634   0.709   1.201 -0.8004  0.1116  0.6678
  759SOL    HW2 2277   2.647   0.607   1.068  1.7832 -1.2571 -2.9351
  760SOL     OW 2278   2.763   1.487   1.360 -0.6296 -0.1530  0.2943
  760SOL    HW1 2279   2.776   1.395   1.319 -2.2118  0.4244  0.3832
  760SOL    HW2 2280   2.688   1.543   1.313  0.2599  0.2936  2.0674
  761SOL     OW 2281   0.898   0.683   0.215  0.0819  0.0185 -0.1210
  761SOL    HW1 2282   0.846   0.769   0.238 -0.0190  2.6065  0.7893
  761SOL    HW2 2283   0.965   0.694   0.143 -3.3501 -2.4389  1.6368
  762SOL     OW 2284   0.847   1.906   0.707 -0.8705  0.4528  0.2500
  762SOL    HW1 2285   0.773   1.913   0.631 -3.1021  1.8218 -0.5649
  762SOL    HW2 2286   0.808   1.891   0.800 -0.7828  0.2041 -0.3234
  763SOL     OW 2287   1.240   0.793   1.456 -0.0803  0.3875 -0.7349
  763SOL    HW1 2288   1.209   0.828   1.547  0.6929  2.1262  2.9032
  763SOL    HW2 2289   1.190   0.847   1.386  0.7286  0.1916 -0.6644
  764SOL     OW 2290   0.528   1.838   2.744 -0.2751 -0.2437  0.3198
  764SOL    HW1 2291   0.545   1.765   2.674 -0.1813 -1.4939 -2.5600
  764SOL    HW2 2292   0.446   1.887   2.721 -0.3008 -1.5875  0.6509
  765SOL     OW 2293   0.726   2.748   1.571 -0.1883 -0.6610 -0.0370
  765SOL    HW1 2294   0.674   2.671   1.613  3.1698  3.5011 -1.7451
  765SOL    HW2 2295   0.725   2.737   1.473  0.8120 -1.2243  1.3386
  766SOL     OW 2296   2.452   1.799   2.322 -0.4152 -0.1389 -0.3830
  766SOL    HW1 2297   2.527   1.868   2.341  1.5467  1.7851 -0.8086
  766SOL    HW2 2298   2.467   1.710   2.366 -0.4361  3.3292 -2.9703
  767SOL     OW 2299   1.439   1.287   2.506  0.2315 -0.0001  0.1877
  767SOL    HW1 2300   1.434   1.209   2.437 -3.3502  2.1318  0.6417
  767SOL    HW2 2301   1.374   1.363   2.482  1.0857 -3.2052 -0.1379
  768SOL     OW 2302   1.585   1.929   0.183  0.5389  0.6913  0.7595
  768SOL    HW1 2303   1.502   1.873   0.197 -0.2707 -1.4838  2.2193
  768SOL    HW2 2304   1.655   1.875   0.129  0.4714  0.1597 -0.0427
  769SOL     OW 2305   0.460   1.143   1.021  0.1568  0.0033  0.3312
  769SOL    HW1 2306   0.492   1.146   0.922  0.8866 -1.6331 -0.0073
  769SOL    HW2 2307   0.512   1.071   1.071 -1.4066  0.4912  0.2101
  770SOL     OW 2308   1.521   0.971   2.423 -0.2073 -0.2943 -0.0887
  770SOL    HW1 2309   1.595   0.922   2.475  0.0627  1.0893  1.0472
  770SOL    HW2 2310   1.520   0.940   2.327 -0.8988  0.1875  3.1204
  771SOL     OW 2311   3.025   0.034   2.523  0.9070 -0.6883  0.6729
  771SOL    HW1 2312   2.928   0.023   2.548  1.6183  0.9322 -1.4588
  771SOL    HW2 2313   3.065   3.042   2.499  0.3656  0.2178 -1.7441
  772SOL     OW 2314   1.970   1.920   2.294  0.2821 -0.2075 -0.3567
  772SOL    HW1 2315   1.923   1.837   2.254 -1.5767  2.2674 -1.4038
  772SOL    HW2 2316   2.067   1.930   2.263  5.6327 -0.9821  0.9968
  773SOL     OW 2317   0.559   1.694   1.392 -0.0869 -0.3741  0.0598
  773SOL    HW1 2318   0.624   1.661   1.467 -0.4576 -2.3951  2.5920
  773SOL    HW2 2319   0.511   1.614   1.352  1.7492 -2.4801  0.5965
  774SOL     OW 2320   1.262   0.717   2.857  0.4583  0.6928  0.4425
  774SOL    HW1 2321   1.194   0.772   2.803  0.4352 -1.9198 -0.7361
  774SOL    HW2 2322   1.241   0.711   2.958  0.2384 -1.7128 -0.0981
  775SOL     OW 2323   2.007   2.622   0.163  0.1692 -0.4758  0.0194
  775SOL    HW1 2324   1.956   2.684   0.230  0.5976  0.5753 -1.9571
  775SOL    HW2 2325   1.995   2.659   0.068 -0.2105  0.1924  0.2013
  776SOL     OW 2326   0.175   0.490   1.666 -0.1902  0.3698 -0.6230
  776SOL    HW1 2327   0.158   0.456   1.760 -1.7661  0.4173  1.0904
  776SOL    HW2 2328   0.197   0.589   1.674  0.4949 -0.1615  1.7927
  777SOL     OW 2329   2.213   1.901   2.155  0.2162  0.2739  0.4845
  777SOL    HW1 2330   2.285   1.889   2.225 -1.7839 -0.7253 -1.9249
  777SOL    HW2 2331   2.236   1.981   2.098 -1.4446 -1.3179 -1.1515
  778SOL     OW 2332   1.936   1.141   2.267 -0.2242 -0.3821 -0.3716
  778SOL    HW1 2333   1.872   1.155   2.186  0.8008  1.5142 -1.6935
  778SOL    HW2 2334   2.025   1.189   2.245  2.1730 -0.2438 -2.8136
  779SOL     OW 2335   2.976   0.813   3.086  0.0184  0.4105  0.1576
  779SOL    HW1 2336   2.997   0.720   0.027 -0.0781 -0.2293  1.8899
  779SOL    HW2 2337   3.062   0.861   3.051  1.2960  2.8563  0.5939
  780SOL     OW 2338   2.557   0.232   2.408  0.3575 -0.7227  0.1030
  780SOL    HW1 2339   2.513   0.287   2.483 -1.6194 -1.7609 -1.0640
  780SOL    HW2 2340   2.502   0.242   2.321 -0.0156 -0.2168  3.8175
  781SOL     OW 2341   0.126   1.911   1.611  0.4237 -0.4102  0.1969
  781SOL    HW1 2342   0.195   1.905   1.535  3.4395  0.1506 -0.1960
  781SOL    HW2 2343   0.118   1.821   1.657  2.3355  0.4455 -2.3550
  782SOL     OW 2344   2.707   2.092   2.920 -0.3256 -0.4997  0.0211
  782SOL    HW1 2345   2.769   2.169   2.913  0.1089  0.7882 -2.4178
  782SOL    HW2 2346   2.610   2.115   2.941  3.1363  1.1206 -0.1856
  783SOL     OW 2347   0.836   1.193   1.298 -0.0672 -0.5124  0.1361
  783SOL    HW1 2348   0.835   1.154   1.391 -0.6681  1.6243 -1.2943
  783SOL    HW2 2349   0.837   1.123   1.226  0.5198  0.6090  0.9608
  784SOL     OW 2350   2.372   0.738   3.013 -0.2383 -0.1828 -0.6590
  784SOL    HW1 2351   2.449   0.804   3.007 -0.1668  0.0570 -1.3633
  784SOL    HW2 2352   2.313   0.759   3.091 -1.8838 -0.9827  1.1530
  785SOL     OW 2353   2.284   2.752   0.649 -0.2314 -0.0406 -0.4414
  785SOL    HW1 2354   2.223   2.673   0.639  4.8700  2.0319 -0.3749
  785SOL    HW2 2355   2.281   2.795   0.556  1.7449 -0.6865  0.9072
  786SOL     OW 2356   0.500   2.203   2.308  0.1457 -0.2322 -0.1983
  786SOL    HW1 2357   0.579   2.203   2.372 -0.6738  1.6694  0.3865
  786SOL    HW2 2358   0.481   2.105   2.281  2.6011  3.4191  2.3060
  787SOL     OW 2359   1.328   0.368   1.274  0.4474 -0.1635  0.4328
  787SOL    HW1 2360   1.259   0.442   1.285  3.5925  1.8601 -2.3407
  787SOL    HW2 2361   1.411   0.417   1.244  0.7264  1.2819 -0.4408
  788SOL     OW 2362   0.377   0.812   0.317  0.4119 -0.5864  0.2751
  788SOL    HW1 2363   0.421   0.729   0.277 -0.3392 -1.9120 -0.4470
  788SOL    HW2 2364   0.306   0.856   0.257  0.6281  2.5999 -2.3559
  789SOL     OW 2365   2.980   2.260   1.269 -0.5513  0.0269  0.1961
  789SOL    HW1 2366   3.001   2.262   1.369 -1.6070 -0.1293  1.7792
  789SOL    HW2 2367   2.894   2.211   1.262  0.3770  1.1048  1.7871
  790SOL     OW 2368   1.432   0.654   1.709 -0.1158  0.0237  0.3912
  790SOL    HW1 2369   1.509   0.613   1.761  1.3672 -0.3993 -3.0612
  790SOL    HW2 2370   1.344   0.647   1.758  2.4781  1.2487 -0.3263
  791SOL     OW 2371   1.437   0.581   0.483  0.6655 -0.4014 -0.2376
  791SOL    HW1 2372   1.463   0.566   0.580 -0.5524  0.2552 -2.4649
  791SOL    HW2 2373   1.396   0.669   0.461  2.9740 -0.7797 -3.7215
  792SOL     OW 2374   1.715   2.920   1.801  0.1152  0.3185  0.3867
  792SOL    HW1 2375   1.689   2.979   1.883  0.4794 -0.1370 -3.4143
  792SOL    HW2 2376   1.747   2.831   1.838  0.7504  0.6181  1.7987
  793SOL     OW 2377   0.546   3.022   0.657 -0.2159 -0.4376 -0.1723
  793SOL    HW1 2378   0.624   3.051   0.599  0.0233 -1.4956 -1.1976
  793SOL    HW2 2379   0.499   2.937   0.622 -1.7357 -2.7981 -1.2590
  794SOL     OW 2380   0.743   0.941   2.246  1.2188 -0.0611  0.0863
  794SOL    HW1 2381   0.733   1.035   2.205  0.8463 -1.5704 -0.2676
  794SOL    HW2 2382   0.668   0.876   2.221  2.0863  1.4493  2.9109
  795SOL     OW 2383   0.216   1.817   2.217  0.0266 -0.1309  0.2633
  795SOL    HW1 2384   0.134   1.769   2.178  1.4902  0.8306  1.5376
  795SOL    HW2 2385   0.209   1.831   2.317  2.5519  1.7665 -0.3696
  796SOL     OW 2386   2.198   1.268   2.256  0.2100  0.3708 -0.0247
  796SOL    HW1 2387   2.202   1.371   2.259 -0.8185 -0.4741 -1.6990
  796SOL    HW2 2388   2.252   1.225   2.336 -1.7127 -1.5850  2.3926
  797SOL     OW 2389   2.897   2.877   2.648 -0.5321 -0.1052 -0.1259
  797SOL    HW1 2390   2.950   2.790   2.648  0.0758  2.7401  1.8387
  797SOL    HW2 2391   2.799   2.860   2.618 -3.9743 -0.5155 -1.2527
  798SOL     OW 2392   2.931   2.024   2.176 -0.2749 -0.0035 -0.0973
  798SOL    HW1 2393   2.841   2.051   2.139 -1.1668 -0.1615  0.6495
  798SOL    HW2 2394   2.989   2.104   2.173 -0.3864 -3.3035  0.4390
  799SOL     OW 2395   3.054   2.050   2.799 -0.4092 -0.2852  0.1946
  799SOL    HW1 2396   0.049   2.062   2.773 -1.4253  0.1899 -0.7548
  799SOL    HW2 2397   3.015   1.965   2.754 -0.5396 -0.8041 -5.5876
  800SOL     OW 2398   1.357   1.963   0.546  0.1618 -1.1783 -0.6153
  800SOL    HW1 2399   1.319   1.995   0.456  0.1443  2.7485  0.4018
  800SOL    HW2 2400   1.277   1.957   0.618 -0.5721 -0.1539  0.1768
  801SOL     OW 2401   1.971   0.899   0.714 -0.4269 -0.4563  0.5458
  801SOL    HW1 2402   1.957   0.946   0.620 -0.1955 -0.7246  1.8790
  801SOL    HW2 2403   2.020   0.812   0.697  1.0218 -0.3987  1.1576
  802SOL     OW 2404   2.949   1.477   0.270 -0.1567  0.3457  0.0421
  802SOL    HW1 2405   2.939   1.461   0.370 -2.1906 -1.1397  2.1194
  802SOL    HW2 2406   2.975   1.571   0.254 -1.1910 -2.3069 -3.0874
  803SOL     OW 2407   1.347   1.827   2.891 -0.4093 -0.2351  0.2185
  803SOL    HW1 2408   1.373   1.915   2.941 -2.0625  0.1611  2.0142
  803SOL    HW2 2409   1.256   1.834   2.842 -2.1571 -1.1465  2.3177
  804SOL     OW 2410   1.776   1.815   0.064 -0.5696 -0.3016  0.4609
  804SOL    HW1 2411   1.835   1.864   0.127  0.1208 -2.8239 -0.8685
  804SOL    HW2 2412   1.799   1.716   0.071  2.1903  0.7734 -0.3361
  805SOL     OW 2413   2.348   1.764   3.001  0.5964  0.0832  0.0291
  805SOL    HW1 2414   2.385   1.753   2.906 -0.1057  3.4863 -0.8488
  805SOL    HW2 2415   2.253   1.734   3.013 -2.2558 -2.3297  2.5967
  806SOL     OW 2416   0.755   0.001   0.495  1.3086 -0.5940  0.4636
  806SOL    HW1 2417   0.807   0.089   0.483  0.2333 -0.0087 -0.9368
  806SOL    HW2 2418   0.826   3.027   0.509 -0.5220 -1.7668 -2.0221
  807SOL     OW 2419   1.904   1.291   2.937  0.4397 -0.2355  0.0825
  807SOL    HW1 2420   1.914   1.392   2.940 -1.6602 -1.9632 -2.6046
  807SOL    HW2 2421   1.868   1.266   2.845  1.1560 -1.0590 -2.0189
  808SOL     OW 2422   3.012   1.750   0.291 -0.4911 -0.0144 -0.0736
  808SOL    HW1 2423   0.003   1.715   0.320 -1.4173  0.7358 -0.9322
  808SOL    HW2 2424   3.014   1.853   0.283  0.5589 -0.6952 -1.2479
  809SOL     OW 2425   2.797   1.025   3.020 -0.2757  0.4895  0.1198
  809SOL    HW1 2426   2.859   0.945   3.022  0.5376 -2.0975 -0.3996
  809SOL    HW2 2427   2.838   1.111   2.980 -0.9087  1.9629  0.7936
  810SOL     OW 2428   0.759   0.927   0.267 -0.1913 -0.3170  0.3660
  810SOL    HW1 2429   0.818   0.967   0.193  0.5738 -1.3397 -0.9500
  810SOL    HW2 2430   0.664   0.969   0.265  0.5578 -0.6693 -3.5296
  811SOL     OW 2431   1.218   2.480   1.238 -0.2125 -0.0190 -0.3118
  811SOL    HW1 2432   1.227   2.469   1.137 -0.6362  0.3674  0.2595
  811SOL    HW2 2433   1.305   2.513   1.279  3.6345  0.8442 -1.0789
  812SOL     OW 2434   0.623   2.517   1.677 -0.0954 -0.4551 -0.1651
  812SOL    HW1 2435   0.636   2.434   1.617 -0.1794  1.4227  0.9391
  812SOL    HW2 2436   0.533   2.507   1.730  0.9335  0.7628  0.3998
  813SOL     OW 2437   1.291   0.301   2.037 -0.3330 -0.3239 -0.0441
  813SOL    HW1 2438   1.389   0.280   2.012 -0.7685  2.2504 -2.2206
  813SOL    HW2 2439   1.284   0.386   2.091 -2.1431 -1.7407 -2.6294
  814SOL     OW 2440   1.312   2.485   2.808  0.1037  0.0636 -0.6078
  814SOL    HW1 2441   1.312   2.565   2.745  2.8726 -1.5053  0.6057
  814SOL    HW2 2442   1.385   2.421   2.775  0.9080  0.3600  0.8263
  815SOL     OW 2443   0.552   0.088   1.729  0.2627  0.0617  0.1589
  815SOL    HW1 2444   0.540   0.011   1.662 -2.1124 -0.7581 -1.6983
  815SOL    HW2 2445   0.561   0.178   1.686 -0.3599 -0.5479  3.1355
  816SOL     OW 2446   2.158   0.465   2.825  0.1485 -0.3508  0.0452
  816SOL    HW1 2447   2.240   0.522   2.822 -1.0802 -0.8822 -1.2544
  816SOL    HW2 2448   2.112   0.494   2.912  3.0878  0.8585 -0.3338
  817SOL     OW 2449   2.193   0.336   2.432  0.0646  0.0533 -0.9536
  817SOL    HW1 2450   2.131   0.353   2.354 -1.6408 -2.4613  2.0509
  817SOL    HW2 2451   2.197   0.236   2.446  1.3506  2.8343 -3.7769
  818SOL     OW 2452   1.969   0.384   0.169  0.1532 -0.6330 -0.2669
  818SOL    HW1 2453   2.022   0.297   0.178  0.8891 -0.7342  2.4039
  818SOL    HW2 2454   2.000   0.443   0.090  2.8188 -0.3162  2.6929
  819SOL     OW 2455   2.400   2.003   3.091  0.0221 -0.5963  0.2990
  819SOL    HW1 2456   2.396   1.903   3.072 -1.1939  2.3131  1.6979
  819SOL    HW2 2457   2.366   2.022   0.087  0.8195 -2.4668  1.1932
  820SOL     OW 2458   3.067   2.099   3.072  0.3949  0.1245 -0.0538
  820SOL    HW1 2459   3.037   2.101   2.973 -0.7725 -0.8652 -0.9867
  820SOL    HW2 2460   2.990   2.071   0.032  0.5820  1.6634  1.4960
  821SOL     OW 2461   0.159   2.420   1.028 -0.5813  0.3145 -0.2821
  821SOL    HW1 2462   0.082   2.371   1.072  1.3952 -0.0828  0.2208
  821SOL    HW2 2463   0.229   2.451   1.093 -1.5710  0.1591  0.2362
  822SOL     OW 2464   2.607   2.469   2.884  0.1974 -0.4951 -0.0447
  822SOL    HW1 2465   2.588   2.534   2.807  0.6340  0.5287  0.7708
  822SOL    HW2 2466   2.541   2.399   2.901 -1.7325 -0.8519 -1.2905
  823SOL     OW 2467   1.577   0.089   2.341  0.0605 -0.3661 -0.1052
  823SOL    HW1 2468   1.592   0.121   2.436  3.0104 -0.4069 -1.5349
  823SOL    HW2 2469   1.505   0.142   2.288 -0.3628 -1.0299  0.1462
  824SOL     OW 2470   2.700   1.936   1.475 -0.3177  0.1308 -0.4364
  824SOL    HW1 2471   2.688   2.035   1.488  0.9721  2.0441 -0.8027
  824SOL    HW2 2472   2.800   1.921   1.459 -0.9177  2.7444 -0.8801
  825SOL     OW 2473   2.697   1.834   2.815 -0.4735  0.4130 -0.0771
  825SOL    HW1 2474   2.687   1.923   2.866  0.3201  0.8171  0.2954
  825SOL    HW2 2475   2.774   1.843   2.746  1.2447  1.4372 -1.0504
  826SOL     OW 2476   2.240   1.535   2.298  0.3787  0.4725 -0.0445
  826SOL    HW1 2477   2.256   1.549   2.399  0.4433 -0.8338 -2.0562
  826SOL    HW2 2478   2.308   1.579   2.245 -1.2867 -1.6927  1.9694
  827SOL     OW 2479   2.304   2.345   1.257  0.4940 -0.3653  0.4014
  827SOL    HW1 2480   2.203   2.341   1.237 -1.3516  3.7884  0.3258
  827SOL    HW2 2481   2.311   2.412   1.333 -0.0951 -2.7090 -0.4059
  828SOL     OW 2482   2.646   2.838   1.483 -0.0713 -0.0746 -0.5458
  828SOL    HW1 2483   2.599   2.771   1.418 -1.2312 -1.2639 -0.0239
  828SOL    HW2 2484   2.582   2.866   1.553  2.0645 -1.3188 -0.2169
  829SOL     OW 2485   1.722   2.412   2.593 -0.2133  0.0708 -0.1882
  829SOL    HW1 2486   1.632   2.378   2.632  0.4845  0.1102  1.4468
  829SOL    HW2 2487   1.768   2.346   2.532  0.9951 -0.1985  0.9969
  830SOL     OW 2488   1.385   0.576   0.765  0.0966 -0.1659  0.3772
  830SOL    HW1 2489   1.409   0.660   0.821 -0.4389 -0.1270 -0.6554
  830SOL    HW2 2490   1.392   0.488   0.816 -0.1814  1.1055 -0.2340
  831SOL     OW 2491   2.591   1.222   3.041 -0.2450 -0.4520  0.0492
  831SOL    HW1 2492   2.676   1.242   3.098  2.2852  0.0227  0.9922
  831SOL    HW2 2493   2.580   1.122   3.032 -1.1474  1.8931  0.0343
  832SOL     OW 2494   1.362   1.978   1.980  0.4235 -0.7143  0.5153
  832SOL    HW1 2495   1.329   1.902   2.045 -0.8510 -3.3409 -0.0631
  832SOL    HW2 2496   1.418   2.037   2.042 -2.2476 -5.1656  1.9924
  833SOL     OW 2497   3.026   0.046   2.026  0.0465  0.0776  0.2355
  833SOL    HW1 2498   3.072   3.055   2.014  0.4084  3.7500  0.4274
  833SOL    HW2 2499   3.043   0.089   2.119 -0.7201 -1.1554 -2.5162
  834SOL     OW 2500   0.949   0.970   1.745 -0.1045  0.0169  0.0276
  834SOL    HW1 2501   1.047   0.953   1.754 -1.2121  3.5350  0.0052
  834SOL    HW2 2502   0.900   0.902   1.689  0.0377 -0.4702  3.0509
  835SOL     OW 2503   3.060   0.752   2.741  0.2738  0.0033  0.8251
  835SOL    HW1 2504   3.054   0.802   2.651 -2.0007 -0.2494 -0.1587
  835SOL    HW2 2505   2.970   0.720   2.773 -1.3738  0.1963  1.9564
  836SOL     OW 2506   1.038   2.125   0.751  0.1113 -0.1595 -0.6919
  836SOL    HW1 2507   0.973   2.046   0.744  1.0419 -2.3597  0.8049
  836SOL    HW2 2508   1.135   2.101   0.758  0.6519  0.8341 -0.9373
  837SOL     OW 2509   1.629   1.409   1.133  0.4294  0.5916  0.2305
  837SOL    HW1 2510   1.590   1.440   1.221  1.5974  1.4115  2.0056
  837SOL    HW2 2511   1.694   1.327   1.144  2.6342  0.0557  0.3837
  838SOL     OW 2512   1.234   1.756   2.525  0.4552 -0.2631  0.6571
  838SOL    HW1 2513   1.251   1.659   2.497  0.1105  0.2421 -1.1734
  838SOL    HW2 2514   1.191   1.762   2.621 -4.2421 -0.7737  4.4207
  839SOL     OW 2515   0.707   2.055   2.753 -0.5864 -0.2099  0.0675
  839SOL    HW1 2516   0.674   1.961   2.730  1.2395  0.1534 -2.4993
  839SOL    HW2 2517   0.663   2.096   2.837  3.2387  1.2900 -0.9733
  840SOL     OW 2518   0.510   2.452   0.060  0.0903 -0.0252  0.7802
  840SOL    HW1 2519   0.497   2.404   3.069  0.8294  3.3451  0.7205
  840SOL    HW2 2520   0.580   2.531   0.046  0.6197  0.6762  2.7359
  841SOL     OW 2521   2.019   2.360   0.227 -0.2603 -0.2541  0.0919
  841SOL    HW1 2522   2.067   2.310   0.152 -1.9456 -0.4939  1.2983
  841SOL    HW2 2523   2.005   2.457   0.204  1.4303  1.4771  0.6707
  842SOL     OW 2524   0.897   0.670   2.805 -0.9784  0.1542  0.4234
  842SOL    HW1 2525   0.841   0.714   2.878  0.9009 -0.6020 -0.0380
  842SOL    HW2 2526   0.950   0.737   2.752 -1.8676  2.6042 -0.8510
  843SOL     OW 2527   1.213   2.953   0.642  0.0548  0.6534 -0.8590
  843SOL    HW1 2528   1.205   3.053   0.626  0.0793 -0.8146  1.1884
  843SOL    HW2 2529   1.143   2.911   0.706 -2.2493 -0.5118 -2.9462
  844SOL     OW 2530   2.425   3.067   2.293 -0.1372 -0.4692 -0.2513
  844SOL    HW1 2531   2.527   3.073   2.288 -0.4386 -5.2682  0.0625
  844SOL    HW2 2532   2.389   3.032   2.202 -2.9224  0.6341  0.0100
  845SOL     OW 2533   2.521   2.664   1.309  0.0391  0.3155 -0.3321
  845SOL    HW1 2534   2.438   2.633   1.357 -1.3026 -1.6301 -1.9890
  845SOL    HW2 2535   2.537   2.606   1.229 -0.9180  1.7699  0.8278
  846SOL     OW 2536   0.165   1.838   2.491  0.6908 -0.2403  0.3518
  846SOL    HW1 2537   0.132   1.744   2.504 -1.7589 -2.0289 -1.9315
  846SOL    HW2 2538   0.214   1.872   2.569  1.3776 -0.3335 -2.3801
  847SOL     OW 2539   1.531   0.637   1.444  0.4206 -0.0265  0.1258
  847SOL    HW1 2540   1.472   0.680   1.376  0.9204  0.9081 -3.3489
  847SOL    HW2 2541   1.513   0.670   1.541  3.2450 -0.4078  2.3399
  848SOL     OW 2542   2.763   0.249   0.180 -0.0774  0.2520 -0.0089
  848SOL    HW1 2543   2.760   0.203   0.088  0.9521 -1.4735 -0.3840
  848SOL    HW2 2544   2.860   0.240   0.220  2.6758 -3.5492 -1.6277
  849SOL     OW 2545   0.454   2.896   3.068 -0.8741  0.0308  0.4547
  849SOL    HW1 2546   0.508   2.857   2.989 -1.3247  1.7813 -0.2781
  849SOL    HW2 2547   0.514   2.951   0.027 -0.7568 -0.2188 -1.2521
  850SOL     OW 2548   0.886   2.572   1.105 -0.2498  0.2341  0.0726
  850SOL    HW1 2549   0.896   2.495   1.040 -0.3601 -2.6893  1.0454
  850SOL    HW2 2550   0.961   2.639   1.092 -0.8145 -1.0655  1.0660
  851SOL     OW 2551   2.824   0.211   2.174 -0.0091 -0.1847 -0.7050
  851SOL    HW1 2552   2.888   0.168   2.242 -0.1588 -4.3716  0.3852
  851SOL    HW2 2553   2.867   0.283   2.111  1.0827 -0.0573  1.1063
  852SOL     OW 2554   1.910   1.390   2.411 -0.0155 -0.0258 -0.3622
  852SOL    HW1 2555   1.823   1.389   2.464 -0.9255  4.4365 -0.5786
  852SOL    HW2 2556   1.939   1.292   2.401  2.4440 -0.7724  1.4941
  853SOL     OW 2557   2.760   2.821   0.504 -0.1126 -0.1986 -0.3605
  853SOL    HW1 2558   2.860   2.814   0.523 -1.3240 -2.7001  0.8844
  853SOL    HW2 2559   2.714   2.893   0.563  1.0022 -1.3289  0.3020
  854SOL     OW 2560   2.163   1.085   1.224  0.1102  0.2226  0.4975
  854SOL    HW1 2561   2.239   1.016   1.224  1.3031  1.4951 -2.3374
  854SOL    HW2 2562   2.139   1.105   1.132  0.7971 -1.4190  1.0093
  855SOL     OW 2563   1.509   2.195   0.545  0.1278  0.0045 -0.4563
  855SOL    HW1 2564   1.550   2.222   0.454  1.1614 -1.0187  0.5455
  855SOL    HW2 2565   1.458   2.105   0.544 -0.9178  1.3084 -0.0735
  856SOL     OW 2566   3.044   0.160   2.952  0.3431 -0.3837 -0.1612
  856SOL    HW1 2567   3.087   0.141   2.856  1.2007  1.2142 -1.9695
  856SOL    HW2 2568   0.006   0.121   3.025  1.8426  0.7675 -2.0473
  857SOL     OW 2569   1.366   3.083   1.705 -0.0412 -0.0587  0.6741
  857SOL    HW1 2570   1.409   0.073   1.722  0.1358  0.6593  1.5579
  857SOL    HW2 2571   1.271   3.092   1.736  1.6269  1.5803 -1.0390
  858SOL     OW 2572   2.323   2.242   1.574 -0.1257 -0.4083  0.0441
  858SOL    HW1 2573   2.322   2.168   1.500 -1.8323 -1.2501 -0.8184
  858SOL    HW2 2574   2.230   2.281   1.589  0.1871 -2.1957 -0.9486
  859SOL     OW 2575   1.473   2.184   1.172 -0.3952 -0.2252  0.4031
  859SOL    HW1 2576   1.427   2.253   1.230  0.9822  1.3178  0.0258
  859SOL    HW2 2577   1.448   2.090   1.206  2.1178 -0.9028  1.1837
  860SOL     OW 2578   2.467   2.520   0.199  0.1542 -0.2321  0.5469
  860SOL    HW1 2579   2.555   2.559   0.160  0.1269  0.5120 -0.3680
  860SOL    HW2 2580   2.474   2.422   0.199 -1.2949  0.9114 -3.9001
  861SOL     OW 2581   1.602   2.829   0.945  0.1930 -0.2384  0.0230
  861SOL    HW1 2582   1.565   2.906   0.888  0.8176  0.4711  0.5895
  861SOL    HW2 2583   1.661   2.857   1.024  2.3475  0.3198 -0.2882
  862SOL     OW 2584   2.052   2.918   2.308 -0.0670 -0.6943  0.0052
  862SOL    HW1 2585   2.096   2.887   2.395  0.7245  1.2515 -2.2557
  862SOL    HW2 2586   2.044   3.022   2.315  0.6147  3.9716  1.3539
  863SOL     OW 2587   0.403   0.821   0.616 -0.5187  0.4979  0.3958
  863SOL    HW1 2588   0.423   0.723   0.591  1.7273  0.8973  0.2357
  863SOL    HW2 2589   0.375   0.873   0.531 -0.4255 -0.3691  1.9383
  864SOL     OW 2590   2.827   2.408   2.095 -0.3282  0.2945 -0.2617
  864SOL    HW1 2591   2.929   2.382   2.083  2.1881 -0.9401  2.0524
  864SOL    HW2 2592   2.799   2.432   2.189  1.1382 -0.4032  0.0691
  865SOL     OW 2593   0.395   1.467   2.811 -0.4684  0.3857 -0.4985
  865SOL    HW1 2594   0.329   1.533   2.858  0.1441  1.6868 -2.4942
  865SOL    HW2 2595   0.436   1.404   2.879  1.1758 -1.5748 -1.8677
  866SOL     OW 2596   2.811   0.673   2.865 -0.2237 -0.1532 -0.6059
  866SOL    HW1 2597   2.842   0.578   2.887  0.2766 -0.9790  0.2792
  866SOL    HW2 2598   2.765   0.711   2.946  0.3007 -0.8644 -1.6494
  867SOL     OW 2599   0.172   2.917   2.762  0.2182  0.1436 -0.6217
  867SOL    HW1 2600   0.184   2.885   2.859  1.1224 -0.5262 -0.4285
  867SOL    HW2 2601   0.241   2.992   2.745 -0.7641  0.6822  0.6111
  868SOL     OW 2602   1.448   2.651   0.805  0.0922  0.1821 -0.0588
  868SOL    HW1 2603   1.488   2.711   0.881 -1.9249  2.6306  0.1592
  868SOL    HW2 2604   1.394   2.575   0.851 -2.5846 -0.3631  1.6996
  869SOL     OW 2605   1.411   1.349   0.989 -0.0225 -0.8641 -0.2352
  869SOL    HW1 2606   1.421   1.374   0.887  1.5319 -1.3865 -1.7353
  869SOL    HW2 2607   1.495   1.371   1.041  3.0040  0.9226 -1.4801
  870SOL     OW 2608   1.918   1.985   1.196  0.0836 -0.2907  0.5078
  870SOL    HW1 2609   1.993   1.994   1.129  1.2058  2.1429  1.3334
  870SOL    HW2 2610   1.960   1.942   1.277 -1.1701 -0.9519  1.4746
  871SOL     OW 2611   0.742   1.602   1.597  0.8810 -0.6551  0.1283
  871SOL    HW1 2612   0.772   1.676   1.663  0.5000  1.1723  1.3963
  871SOL    HW2 2613   0.823   1.551   1.565 -0.8511  1.0490  1.7969
  872SOL     OW 2614   1.200   1.191   1.102  0.3712  0.2025  0.8991
  872SOL    HW1 2615   1.235   1.192   1.196 -0.0305 -0.3594 -1.1824
  872SOL    HW2 2616   1.254   1.252   1.041 -0.0146 -0.7164 -1.7718
  873SOL     OW 2617   1.240   0.936   2.427  0.8480  0.0884  0.4146
  873SOL    HW1 2618   1.201   1.028   2.413 -1.2803 -0.3196 -0.2953
  873SOL    HW2 2619   1.336   0.947   2.458 -2.9583 -0.0646  0.4721
  874SOL     OW 2620   0.094   1.152   1.482  0.0833  0.7184 -0.1834
  874SOL    HW1 2621   0.040   1.232   1.438 -2.2268  1.2544  0.4650
  874SOL    HW2 2622   0.157   1.180   1.552 -1.1950 -2.8426 -0.6568
  875SOL     OW 2623   2.713   2.956   0.770 -0.0771  0.2307 -0.2779
  875SOL    HW1 2624   2.778   3.030   0.796  4.3942  2.0205  0.5502
  875SOL    HW2 2625   2.624   2.984   0.732  0.9156 -0.2534  0.1766
  876SOL     OW 2626   1.246   0.301   2.792  0.3303  0.5281  0.1026
  876SOL    HW1 2627   1.280   0.213   2.737  0.9497  0.9628 -1.1160
  876SOL    HW2 2628   1.168   0.349   2.751  3.0947  1.6624  2.4075
  877SOL     OW 2629   0.189   0.037   1.220  0.5066  0.3452  0.5525
  877SOL    HW1 2630   0.227   0.061   1.313  1.1268  3.2128  1.3851
  877SOL    HW2 2631   0.085   0.013   1.222 -1.7761 -2.1654  0.4748
  878SOL     OW 2632   2.061   2.660   3.000  0.0850  0.4348 -0.5446
  878SOL    HW1 2633   2.021   2.595   2.933  0.8783  2.2381  3.6644
  878SOL    HW2 2634   2.151   2.626   3.040  3.0180 -0.1522  1.0959
  879SOL     OW 2635   2.100   1.939   1.835  0.5667  0.0363  0.0083
  879SOL    HW1 2636   2.183   1.887   1.797  0.3737 -1.9962  0.5329
  879SOL    HW2 2637   2.015   1.884   1.819  2.5861 -1.7292 -3.0167
  880SOL     OW 2638   0.786   0.827   1.570 -0.0391  0.4152  0.1287
  880SOL    HW1 2639   0.840   0.876   1.498  0.5957  1.6421 -0.7453
  880SOL    HW2 2640   0.692   0.862   1.575 -0.4431  2.0938  0.6885
  881SOL     OW 2641   0.973   1.813   3.092  0.3024  0.3522 -0.3316
  881SOL    HW1 2642   0.954   1.870   3.005 -0.3270  2.0287 -3.4372
  881SOL    HW2 2643   1.073   1.799   0.004  0.6600  1.3033 -0.0786
  882SOL     OW 2644   1.804   0.451   0.764  0.5435  0.1999 -0.0828
  882SOL    HW1 2645   1.722   0.392   0.790  0.5866  0.0108  1.1306
  882SOL    HW2 2646   1.881   0.426   0.825 -0.6708  0.3174  0.4416
  883SOL     OW 2647   1.882   0.544   1.952 -0.5013  0.9020 -0.1566
  883SOL    HW1 2648   1.933   0.629   1.973  0.2602 -1.4799 -1.8274
  883SOL    HW2 2649   1.941   0.497   1.882 -3.3236  2.1816  2.1987
  884SOL     OW 2650   2.563   0.400   0.255 -0.0455 -0.1545  0.0648
  884SOL    HW1 2651   2.648   0.343   0.233  1.1951 -1.3861  0.0567
  884SOL    HW2 2652   2.515   0.427   0.169  2.6400  1.2383  0.7074
  885SOL     OW 2653   0.656   1.957   0.529  0.3586 -0.0421 -0.4903
  885SOL    HW1 2654   0.720   2.021   0.485 -1.1529 -2.6346  1.1081
  885SOL    HW2 2655   0.569   2.016   0.559 -0.1606  2.5617  1.1662
  886SOL     OW 2656   1.636   1.493   3.050  0.5989 -0.7012  0.4456
  886SOL    HW1 2657   1.620   1.559   0.026  0.5036 -3.3318 -4.1165
  886SOL    HW2 2658   1.736   1.490   3.020  0.6513  2.3850 -0.8858
  887SOL     OW 2659   1.429   0.378   1.540 -0.0707  0.4487 -0.0577
  887SOL    HW1 2660   1.373   0.365   1.455 -1.2282  0.3080  1.1495
  887SOL    HW2 2661   1.460   0.475   1.536  0.1538 -4.2446  0.9825
  888SOL     OW 2662   3.021   0.963   1.544  0.2604  0.5323  0.0430
  888SOL    HW1 2663   3.091   1.034   1.521  0.1562 -0.2154  0.2036
  888SOL    HW2 2664   2.922   0.990   1.516 -0.5076 -1.1399  1.2405
  889SOL     OW 2665   2.817   2.507   0.923  0.0821 -0.4978 -0.6950
  889SOL    HW1 2666   2.833   2.589   0.872 -0.3598  0.4089  0.5666
  889SOL    HW2 2667   2.872   2.506   1.009  1.4168  1.7383  1.7444
  890SOL     OW 2668   0.016   2.275   2.128 -0.6586 -0.2746 -0.1641
  890SOL    HW1 2669   0.004   2.300   2.226  2.9804  0.5668 -0.0976
  890SOL    HW2 2670   0.108   2.226   2.116  5.4535  0.0614  0.5934
  891SOL     OW 2671   0.722   1.684   0.222  0.3390 -0.4663  0.5235
  891SOL    HW1 2672   0.715   1.780   0.181 -0.5839  2.3238  1.0441
  891SOL    HW2 2673   0.799   1.672   0.289  1.7887 -0.2819 -1.7567
  892SOL     OW 2674   3.008   2.258   1.519 -0.0387  0.4032 -0.2343
  892SOL    HW1 2675   2.992   2.188   1.594  2.1901  0.0666 -0.2981
  892SOL    HW2 2676   2.985   2.353   1.550  0.9470  1.4349 -2.2619
  893SOL     OW 2677   0.047   0.076   1.600 -0.1783 -0.1369 -0.0842
  893SOL    HW1 2678   0.010   0.114   1.687  0.2514 -1.0220 -2.3831
  893SOL    HW2 2679   3.070   0.042   1.541  1.4081  1.7121 -2.8653
  894SOL     OW 2680   2.651   1.757   0.805 -0.3127  0.0121  0.3008
  894SOL    HW1 2681   2.742   1.732   0.770 -1.2894 -1.2213  0.5657
  894SOL    HW2 2682   2.631   1.856   0.790 -0.0272 -1.9158 -0.9906
  895SOL     OW 2683   1.946   2.585   1.628  0.2683 -0.6735 -0.0337
  895SOL    HW1 2684   1.989   2.594   1.716  0.7885 -1.7691 -1.7010
  895SOL    HW2 2685   1.992   2.648   1.561  1.6859 -0.5215 -2.1219
  896SOL     OW 2686   0.571   2.959   1.611  0.1014  0.3493  0.2013
  896SOL    HW1 2687   0.552   2.988   1.520 -1.7964 -3.8152  1.9785
  896SOL    HW2 2688   0.625   2.872   1.608  0.9180  0.2123 -0.5304
  897SOL     OW 2689   0.915   1.134   1.543  0.1092 -0.0440 -0.1254
  897SOL    HW1 2690   0.902   1.093   1.633  0.9484  0.4085 -1.4692
  897SOL    HW2 2691   1.010   1.135   1.513 -2.4999 -0.3197  0.2737
  898SOL     OW 2692   1.216   2.847   1.448 -0.6156 -0.5844  0.1966
  898SOL    HW1 2693   1.122   2.831   1.488 -2.3318 -2.7485  1.6644
  898SOL    HW2 2694   1.242   2.781   1.374 -2.7836  2.6078 -1.4985
  899SOL     OW 2695   1.348   0.254   3.026  0.4263 -0.0536 -0.7981
  899SOL    HW1 2696   1.429   0.204   3.005 -1.3633  1.7261  2.1230
  899SOL    HW2 2697   1.295   0.279   2.942 -2.1429 -0.2322  0.6830
  900SOL     OW 2698   0.940   2.841   2.131 -0.7783  0.3170  0.0641
  900SOL    HW1 2699   0.969   2.751   2.088  1.1172 -0.6108 -0.0750
  900SOL    HW2 2700   0.873   2.890   2.069 -0.1805  0.5312 -3.6314
  901SOL     OW 2701   0.846   2.095   0.432 -0.7201 -0.2204  0.1183
  901SOL    HW1 2702   0.927   2.142   0.467 -0.1295  1.3162  0.6724
  901SOL    HW2 2703   0.866   2.009   0.373  1.3787 -0.8702  0.3935
  902SOL     OW 2704   1.707   0.860   1.136 -0.1297  0.2549 -0.4798
  902SOL    HW1 2705   1.605   0.855   1.122 -2.1095 -1.8981 -1.3985
  902SOL    HW2 2706   1.762   0.832   1.057  0.2421  0.7181  0.4207
  903SOL     OW 2707   2.694   1.005   2.608 -0.2982 -0.0964 -0.1701
  903SOL    HW1 2708   2.732   1.086   2.653  0.2713  1.0767  0.6928
  903SOL    HW2 2709   2.682   1.018   2.510  1.7949 -1.4963  4.4510
  904SOL     OW 2710   1.157   1.008   3.054 -0.5317  0.3190 -0.3809
  904SOL    HW1 2711   1.238   1.054   3.093 -0.2496 -0.1311 -0.2835
  904SOL    HW2 2712   1.147   1.029   2.959  1.7568 -1.9347  3.7064
  905SOL     OW 2713   1.726   2.891   1.168 -0.1366 -0.2443 -0.1796
  905SOL    HW1 2714   1.651   2.942   1.211  4.6464  1.2814 -1.1876
  905SOL    HW2 2715   1.755   2.810   1.219 -3.0080 -0.6647 -1.2023
  906SOL     OW 2716   2.318   2.831   0.885 -0.2370 -0.1207 -0.2260
  906SOL    HW1 2717   2.419   2.821   0.904  0.3857  0.6513 -0.6603
  906SOL    HW2 2718   2.302   2.797   0.786 -0.1569 -0.8579 -1.6922
  907SOL     OW 2719   1.603   1.047   0.422  0.3372  0.2845  0.3624
  907SOL    HW1 2720   1.605   0.951   0.378  1.6845 -2.2001 -1.6118
  907SOL    HW2 2721   1.655   1.122   0.370  2.9803  2.3508  0.6709
  908SOL     OW 2722   1.712   0.266   1.278 -0.0005 -0.1181  0.0799
  908SOL    HW1 2723   1.700   0.169   1.304 -0.4813  2.4518  0.9130
  908SOL    HW2 2724   1.746   0.322   1.360  0.1621  2.3517 -0.6882
  909SOL     OW 2725   1.997   0.386   0.957 -0.0702 -0.5677 -0.1460
  909SOL    HW1 2726   1.989   0.315   1.031  1.5877  1.6711 -1.1146
  909SOL    HW2 2727   2.015   0.479   1.000 -1.6591  0.0323  1.5967
  910SOL     OW 2728   2.384   0.650   2.054  0.4609  0.4555 -0.7179
  910SOL    HW1 2729   2.453   0.724   2.058 -0.8863 -1.8898 -0.0023
  910SOL    HW2 2730   2.297   0.683   2.085 -0.3197  2.8841 -0.8761
  911SOL     OW 2731   2.493   0.367   2.643  0.2258 -0.4288  0.5693
  911SOL    HW1 2732   2.431   0.442   2.678 -1.4715 -0.9076  1.8029
  911SOL    HW2 2733   2.588   0.399   2.659  0.2577  1.5215 -0.8183
  912SOL     OW 2734   0.546   1.182   1.782 -0.3045  0.2374  0.0114
  912SOL    HW1 2735   0.601   1.271   1.783  0.9466 -1.9845 -1.8744
  912SOL    HW2 2736   0.526   1.153   1.686 -0.9860 -0.1076 -0.0883
  913SOL     OW 2737   2.675   2.218   1.511 -0.8535 -0.5526  0.0223
  913SOL    HW1 2738   2.654   2.214   1.613 -0.6109  1.1434  0.5936
  913SOL    HW2 2739   2.679   2.316   1.484 -2.3728  0.5714  0.3804
  914SOL     OW 2740   1.750   0.901   1.430  0.2466 -0.4785  0.7549
  914SOL    HW1 2741   1.809   0.983   1.413  0.5259  4.7945 -2.1886
  914SOL    HW2 2742   1.729   0.856   1.337 -1.1986  1.6893 -1.7759
  915SOL     OW 2743   2.834   1.347   0.765 -0.2706 -0.4656  0.5320
  915SOL    HW1 2744   2.763   1.418   0.784  0.5583  3.2646 -1.7621
  915SOL    HW2 2745   2.911   1.339   0.835  0.9822 -2.0510  2.4727
  916SOL     OW 2746   2.042   2.360   1.225 -0.4306  0.1118  0.3932
  916SOL    HW1 2747   1.971   2.420   1.183 -2.8629 -1.7919  1.1410
  916SOL    HW2 2748   2.003   2.310   1.300  1.5947  2.8384 -0.3076
  917SOL     OW 2749   1.829   2.777   2.210  0.1940 -0.3276 -0.2257
  917SOL    HW1 2750   1.746   2.835   2.198 -3.2395  1.0865 -1.2622
  917SOL    HW2 2751   1.913   2.841   2.221  1.2278  0.4970 -0.5743
  918SOL     OW 2752   2.089   2.555   2.477 -0.7769  0.3727 -0.2645
  918SOL    HW1 2753   2.009   2.548   2.420 -0.3928 -0.5032  1.6500
  918SOL    HW2 2754   2.118   2.465   2.518 -2.5543  0.5576  1.3416
  919SOL     OW 2755   0.794   0.173   1.470  0.4731 -0.1638  0.0941
  919SOL    HW1 2756   0.705   0.130   1.494  0.5588 -1.7520 -0.4881
  919SOL    HW2 2757   0.870   0.110   1.485 -0.9219  1.9285 -0.9687
  920SOL     OW 2758   2.671   0.545   2.264  0.3620  0.2999 -0.6213
  920SOL    HW1 2759   2.620   0.483   2.202  0.6459  0.8184  2.0927
  920SOL    HW2 2760   2.733   0.490   2.328  1.5330 -1.8964  2.1375
  921SOL     OW 2761   3.022   0.852   1.809  0.1964 -0.0654  0.3338
  921SOL    HW1 2762   0.020   0.869   1.845  2.1343  0.4732 -0.9812
  921SOL    HW2 2763   3.016   0.883   1.712  0.9216  0.2396 -0.8386
  922SOL     OW 2764   2.462   2.434   0.693  0.4262 -0.1329  0.5479
  922SOL    HW1 2765   2.487   2.517   0.640 -2.0911 -0.4631  3.0786
  922SOL    HW2 2766   2.420   2.468   0.782  0.1528  2.6533 -1.7005
  923SOL     OW 2767   0.708   2.464   0.750 -0.5147 -0.0309 -0.2372
  923SOL    HW1 2768   0.664   2.466   0.661  0.7376  1.3506  0.2658
  923SOL    HW2 2769   0.639   2.453   0.826 -1.3492 -0.1369 -0.3738
  924SOL     OW 2770   1.099   0.869   2.706 -0.0305  0.4717 -0.1506
  924SOL    HW1 2771   1.079   0.964   2.729 -0.5929 -3.8038 -0.7924
  924SOL    HW2 2772   1.155   0.857   2.620  0.8612 -1.6401 -1.2790
  925SOL     OW 2773   2.504   1.382   0.627 -0.3177  0.2630 -0.4436
  925SOL    HW1 2774   2.513   1.411   0.723  0.4286  0.2766  1.1880
  925SOL    HW2 2775   2.512   1.277   0.626  1.0103 -5.1117 -1.2490
  926SOL     OW 2776   0.183   0.261   1.041  0.2086 -0.0877 -0.3353
  926SOL    HW1 2777   0.200   0.271   0.945 -0.3670 -2.9622  1.2671
  926SOL    HW2 2778   0.194   0.171   1.082  2.0241 -1.4434 -3.5430
  927SOL     OW 2779   0.505   1.589   2.595 -0.5984  0.0378  0.7550
  927SOL    HW1 2780   0.478   1.550   2.685  1.1950  0.7750  2.1109
  927SOL    HW2 2781   0.474   1.532   2.517 -1.3090  2.3368 -0.9381
  928SOL     OW 2782   0.227   0.433   2.184 -0.2786 -0.4225  0.3507
  928SOL    HW1 2783   0.269   0.348   2.219 -0.8635  1.4084  3.2628
  928SOL    HW2 2784   0.196   0.431   2.086 -3.0466  1.0982  0.6452
  929SOL     OW 2785   2.715   2.475   1.430  0.2582 -0.1138  0.0422
  929SOL    HW1 2786   2.797   2.526   1.466  0.2016  0.3807 -1.7721
  929SOL    HW2 2787   2.649   2.538   1.391  0.8003  1.0166  0.0302
  930SOL     OW 2788   2.100   0.427   2.166 -0.6256 -0.1116 -0.0301
  930SOL    HW1 2789   2.031   0.491   2.120 -0.9086  2.1943  0.2869
  930SOL    HW2 2790   2.121   0.343   2.116 -0.7099  3.0692  0.1877
  931SOL     OW 2791   2.155   1.196   2.941  0.4563 -0.4073 -0.0619
  931SOL    HW1 2792   2.064   1.243   2.935 -2.0212 -1.5389 -1.4778
  931SOL    HW2 2793   2.143   1.094   2.945  0.8145 -1.1150  0.9125
  932SOL     OW 2794   1.734   1.462   0.704  0.1339 -0.2472  0.1055
  932SOL    HW1 2795   1.662   1.389   0.719 -0.6762 -3.0635 -0.8844
  932SOL    HW2 2796   1.725   1.495   0.606 -0.2319 -0.5145  2.8748
  933SOL     OW 2797   2.083   1.669   1.127 -0.3771  0.7798  0.0315
  933SOL    HW1 2798   2.043   1.690   1.034 -2.1186 -0.0822  3.7842
  933SOL    HW2 2799   2.020   1.611   1.182  2.2176  0.5207 -2.7100
  934SOL     OW 2800   2.127   0.940   2.951 -0.6219  0.0491 -0.1943
  934SOL    HW1 2801   2.168   0.893   2.873 -1.0129 -0.3171  0.7094
  934SOL    HW2 2802   2.051   0.884   2.982 -0.3681  0.2231 -2.9996
  935SOL     OW 2803   0.140   1.275   0.509  0.3311 -0.6993  0.5009
  935SOL    HW1 2804   0.208   1.270   0.435  0.3304  1.1037 -0.4366
  935SOL    HW2 2805   0.120   1.188   0.553  1.6081 -0.9819 -0.9226
  936SOL     OW 2806   0.050   2.741   0.986  0.1805 -0.2235  0.2015
  936SOL    HW1 2807   0.123   2.774   0.923 -2.8609  1.2574  3.8823
  936SOL    HW2 2808   0.059   2.643   1.017  0.0401 -1.1241 -0.4529
  937SOL     OW 2809   3.070   2.157   1.799 -0.1891 -0.4373  0.1762
  937SOL    HW1 2810   3.061   2.261   1.813  1.3613  2.5669  3.6839
  937SOL    HW2 2811   0.068   2.131   1.806 -3.4032 -0.4479 -0.3217
  938SOL     OW 2812   2.859   2.317   3.058 -0.1732 -0.0429 -0.6341
  938SOL    HW1 2813   2.923   2.263   0.020  1.4509 -0.1283  1.2255
  938SOL    HW2 2814   2.829   2.400   0.010  0.0528  1.1588 -0.6223
  939SOL     OW 2815   1.135   0.903   1.246  0.5094  0.0827 -0.1256
  939SOL    HW1 2816   1.173   0.983   1.199  1.8555 -1.8816 -1.5485
  939SOL    HW2 2817   1.068   0.859   1.184 -0.9601 -0.1629 -0.7514
  940SOL     OW 2818   2.784   0.342   2.648 -0.0750 -0.6265 -0.0119
  940SOL    HW1 2819   2.784   0.243   2.632 -1.3843  1.2701 -0.3250
  940SOL    HW2 2820   2.883   0.373   2.638  2.0398  2.0337  0.5399
  941SOL     OW 2821   2.519   2.612   2.683  0.0941  0.5281 -0.4539
  941SOL    HW1 2822   2.597   2.645   2.631 -3.2112  0.6781  1.2700
  941SOL    HW2 2823   2.478   2.544   2.623  2.7185  0.5561  0.0596
  942SOL     OW 2824   1.194   0.144   1.360 -0.2718  0.2273  0.1237
  942SOL    HW1 2825   1.271   0.078   1.379 -1.1636  0.9603  0.7802
  942SOL    HW2 2826   1.237   0.239   1.331  0.4379  3.6692 -0.7199
  943SOL     OW 2827   0.786   1.411   2.253 -0.1014  0.7125 -0.4760
  943SOL    HW1 2828   0.720   1.345   2.211 -0.2890  1.9503 -2.9798
  943SOL    HW2 2829   0.755   1.507   2.239  0.6805 -2.7369 -0.2082
  944SOL     OW 2830   2.159   1.035   0.863  0.4632 -0.1162  0.5668
  944SOL    HW1 2831   2.085   1.001   0.803 -0.1214  0.9327  1.4732
  944SOL    HW2 2832   2.135   1.125   0.898  0.6157 -2.4977 -0.8024
  945SOL     OW 2833   3.001   2.911   2.900 -0.7838  0.9723 -0.0807
  945SOL    HW1 2834   2.983   2.911   2.802  2.2631 -2.5775  1.0240
  945SOL    HW2 2835   3.098   2.939   2.920  2.6363 -0.4528 -1.2044
  946SOL     OW 2836   0.036   1.416   1.629 -0.0844  0.1982  0.0904
  946SOL    HW1 2837   0.015   1.392   1.532 -1.5739  0.3041  2.4105
  946SOL    HW2 2838   0.125   1.366   1.653 -0.2138 -4.2836  0.5726
  947SOL     OW 2839   0.942   2.931   0.120 -0.1066  0.4554 -0.2732
  947SOL    HW1 2840   1.014   2.941   0.192 -1.0517  3.2432 -3.4099
  947SOL    HW2 2841   0.862   2.870   0.140  1.6079 -1.7116 -2.5968
  948SOL     OW 2842   2.328   1.632   1.265 -0.2479 -0.4770  0.4165
  948SOL    HW1 2843   2.408   1.678   1.217 -0.4392  1.2047 -0.9449
  948SOL    HW2 2844   2.241   1.651   1.207 -0.0220 -1.4263 -0.1473
  949SOL     OW 2845   0.301   0.802   2.796  0.0538  0.1065 -0.1731
  949SOL    HW1 2846   0.237   0.818   2.872 -1.7837  0.0224  2.4955
  949SOL    HW2 2847   0.354   0.883   2.782  0.7585 -0.6356 -2.8188
  950SOL     OW 2848   0.267   2.580   1.290 -0.3852 -0.8002 -0.0251
  950SOL    HW1 2849   0.207   2.666   1.297  0.1929  4.0887  1.5655
  950SOL    HW2 2850   0.357   2.596   1.338 -0.8758  1.5808  2.9893
  951SOL     OW 2851   0.913   1.631   2.776  0.2775 -0.0183 -0.4686
  951SOL    HW1 2852   0.860   1.646   2.861  3.0519  3.0209 -0.8225
  951SOL    HW2 2853   0.858   1.644   2.689  1.9658  1.3864 -2.0627
  952SOL     OW 2854   0.633   1.291   0.652  0.3765 -0.1063 -0.1018
  952SOL    HW1 2855   0.631   1.201   0.711 -0.6621 -2.6658  2.5864
  952SOL    HW2 2856   0.621   1.376   0.708  2.3081 -0.7969  1.6978
  953SOL     OW 2857   2.388   2.179   2.652  0.3497  0.3373 -0.0758
  953SOL    HW1 2858   2.470   2.175   2.596  1.2987  2.7320 -0.4540
  953SOL    HW2 2859   2.405   2.195   2.753 -0.6276 -2.3650  0.5672
  954SOL     OW 2860   1.711   0.681   0.642  0.5172  0.0371  0.1481
  954SOL    HW1 2861   1.652   0.733   0.703 -2.6556 -0.6781 -0.8408
  954SOL    HW2 2862   1.723   0.589   0.686  2.1905 -3.5110 -3.0691
  955SOL     OW 2863   0.655   1.924   0.127  0.2065  0.2325 -0.4563
  955SOL    HW1 2864   0.592   2.002   0.152 -1.5809  0.0030  0.7739
  955SOL    HW2 2865   0.628   1.884   0.034  0.4033 -0.2804  2.7185
  956SOL     OW 2866   2.626   0.275   1.771 -0.4163  0.0038  0.0869
  956SOL    HW1 2867   2.562   0.332   1.719  1.4350  3.6229  0.0902
  956SOL    HW2 2868   2.571   0.214   1.834 -1.2186 -1.3742  1.3151
  957SOL     OW 2869   1.828   2.321   1.805 -0.1640 -0.0263 -0.3573
  957SOL    HW1 2870   1.896   2.376   1.860 -0.5013 -0.1538  2.0745
  957SOL    HW2 2871   1.877   2.255   1.746 -0.7804  0.9021 -1.7608
  958SOL     OW 2872   1.603   1.024   1.613  0.4257  0.6028  0.5672
  958SOL    HW1 2873   1.682   1.086   1.635  0.6814  1.8418 -0.3386
  958SOL    HW2 2874   1.625   0.962   1.531  0.3635  1.3583 -6.3290
  959SOL     OW 2875   1.494   2.085   2.173  0.2359 -0.0788 -0.4312
  959SOL    HW1 2876   1.455   2.030   2.247  0.6754  1.2955 -0.9405
  959SOL    HW2 2877   1.565   2.157   2.199 -2.4981 -0.1662 -0.1484
  960SOL     OW 2878   0.704   0.658   2.629 -0.0010  0.0585 -0.2235
  960SOL    HW1 2879   0.621   0.615   2.672 -2.2926  0.6520 -0.3719
  960SOL    HW2 2880   0.787   0.665   2.690  3.8571 -0.4371 -2.5227
  961SOL     OW 2881   0.061   0.969   2.881 -0.2755  0.1496  0.3411
  961SOL    HW1 2882   0.021   0.894   2.832 -2.5121  2.3078 -0.0452
  961SOL    HW2 2883   0.067   1.050   2.819 -2.2496  0.3513 -0.6444
  962SOL     OW 2884   0.959   1.999   2.887  0.3232  0.4741 -0.1008
  962SOL    HW1 2885   0.881   2.027   2.830  0.3360  0.4758  4.0666
  962SOL    HW2 2886   0.993   2.085   2.935  1.0749  1.2347 -0.1136
  963SOL     OW 2887   2.793   1.915   0.009 -0.2036 -0.5571 -0.4904
  963SOL    HW1 2888   2.708   1.863   0.020  0.6188  3.8051  0.9369
  963SOL    HW2 2889   2.776   1.997   3.044 -0.8663 -0.9804 -2.3277
  964SOL     OW 2890   0.802   2.252   2.195 -0.1433  0.6081  0.2253
  964SOL    HW1 2891   0.705   2.232   2.211  1.2887  1.4619  0.7214
  964SOL    HW2 2892   0.828   2.343   2.232 -2.5847 -2.9982 -1.0796
  965SOL     OW 2893   1.647   1.812   1.539  0.0133  0.4004 -0.5710
  965SOL    HW1 2894   1.625   1.908   1.566  0.1189  0.8784 -0.7003
  965SOL    HW2 2895   1.631   1.748   1.623  0.8339  0.1243  0.7542
  966SOL     OW 2896   2.968   1.703   3.032  0.6154  0.0430 -0.2921
  966SOL    HW1 2897   2.933   1.793   3.061  2.3793 -1.9481  1.3369
  966SOL    HW2 2898   2.970   1.681   2.933 -0.8376 -0.8785  1.7762
  967SOL     OW 2899   2.194   2.623   2.187  0.3163  0.2293 -0.4479
  967SOL    HW1 2900   2.116   2.569   2.229 -3.6443  0.0165 -0.3173
  967SOL    HW2 2901   2.156   2.714   2.156  2.3857 -0.6211 -0.3969
  968SOL     OW 2902   1.134   0.723   0.078 -0.0638  0.0123  0.3657
  968SOL    HW1 2903   1.151   0.812   0.026 -1.4459  1.7914 -0.5010
  968SOL    HW2 2904   1.224   0.671   0.079 -0.3209 -1.2872 -0.8798
  969SOL     OW 2905   0.536   1.121   2.452 -0.0188 -0.4090  0.6244
  969SOL    HW1 2906   0.580   1.169   2.374  0.3395 -0.0167 -2.0898
  969SOL    HW2 2907   0.584   1.039   2.469 -0.7639  3.4995 -2.2265
  970SOL     OW 2908   2.053   2.950   0.822  0.0107  0.3498 -0.1817
  970SOL    HW1 2909   2.013   2.925   0.731 -0.9180  0.8266  0.3812
  970SOL    HW2 2910   2.156   2.945   0.820  1.7010  1.5615  0.5867
  971SOL     OW 2911   2.181   2.188   0.682  0.0471  0.3956 -0.4334
  971SOL    HW1 2912   2.201   2.202   0.781  0.4727  0.3838  0.3943
  971SOL    HW2 2913   2.232   2.251   0.619  1.3087 -0.0004 -1.3258
  972SOL     OW 2914   0.036   1.188   2.713 -0.0521  0.0902 -0.5920
  972SOL    HW1 2915   3.082   1.134   2.644 -1.9006 -1.0605  1.1268
  972SOL    HW2 2916   0.074   1.275   2.681  1.3213 -2.2108  3.3029
  973SOL     OW 2917   0.857   0.252   0.405  0.0322  0.1147 -0.4837
  973SOL    HW1 2918   0.914   0.234   0.323 -0.6926  0.4336  2.7530
  973SOL    HW2 2919   0.795   0.331   0.390 -1.7510 -0.3652 -0.1625
  974SOL     OW 2920   2.590   0.896   1.891  0.4401  0.1866  0.0103
  974SOL    HW1 2921   2.642   0.812   1.927  0.6483  1.9926 -0.5601
  974SOL    HW2 2922   2.548   0.942   1.966  0.2934 -3.7200 -2.2093
  975SOL     OW 2923   2.891   0.051   0.843  0.4951 -0.1135  0.0390
  975SOL    HW1 2924   2.839   0.086   0.925  1.0192  2.7915  0.2260
  975SOL    HW2 2925   2.886   0.116   0.763  0.2275 -0.1199 -1.6675
  976SOL     OW 2926   0.749   1.627   1.124  0.8883 -0.2853 -0.1952
  976SOL    HW1 2927   0.660   1.598   1.163  1.7193  0.0392 -0.0910
  976SOL    HW2 2928   0.825   1.565   1.157 -0.9578 -0.8338 -0.4258
  977SOL     OW 2929   1.276   2.153   0.101  0.2834 -0.0505 -0.0355
  977SOL    HW1 2930   1.361   2.142   0.049 -0.1199  2.5279 -1.7427
  977SOL    HW2 2931   1.283   2.221   0.177  0.4271  0.5732 -0.2141
  978SOL     OW 2932   0.183   0.679   3.044  0.2442  0.0059  0.6628
  978SOL    HW1 2933   0.149   0.625   2.962 -0.8734  1.1767 -0.2725
  978SOL    HW2 2934   0.208   0.606   0.008 -1.1274  0.5983 -3.1223
  979SOL     OW 2935   1.906   1.741   0.919  0.7647  0.2830 -0.5088
  979SOL    HW1 2936   1.821   1.688   0.937 -3.8467 -0.3283 -0.2082
  979SOL    HW2 2937   1.886   1.835   0.886 -0.6593 -1.6704 -0.6642
  980SOL     OW 2938   0.640   2.004   1.979 -0.1788  0.4574 -0.3030
  980SOL    HW1 2939   0.689   1.913   1.999 -2.5884 -0.1923  0.5237
  980SOL    HW2 2940   0.708   2.075   1.954  3.0732  2.2314  0.1857
  981SOL     OW 2941   2.308   1.462   2.587 -0.0257  0.3955 -0.0905
  981SOL    HW1 2942   2.310   1.365   2.620 -2.9978 -0.6729 -1.5557
  981SOL    HW2 2943   2.210   1.491   2.595 -4.8192  2.2239  1.2570
  982SOL     OW 2944   0.256   2.031   1.823 -0.2468  0.5573  0.2492
  982SOL    HW1 2945   0.193   2.012   1.744 -1.5482 -1.3757 -3.6686
  982SOL    HW2 2946   0.339   1.973   1.827  0.2510  0.3921 -1.3681
  983SOL     OW 2947   1.566   0.210   1.721 -0.1788  0.6944 -0.0426
  983SOL    HW1 2948   1.523   0.271   1.650  5.1686 -1.2032 -1.9189
  983SOL    HW2 2949   1.633   0.144   1.680 -1.1705  0.1904  0.7160
  984SOL     OW 2950   2.734   2.962   2.949  0.5758  0.6446 -0.4532
  984SOL    HW1 2951   2.838   2.941   2.954  1.9011  0.5894 -0.8791
  984SOL    HW2 2952   2.680   2.903   3.009 -0.1743 -1.4139  0.0488
  985SOL     OW 2953   1.425   1.371   1.880 -0.1012 -0.0973 -0.1416
  985SOL    HW1 2954   1.393   1.467   1.878  2.8075 -1.9370 -0.1182
  985SOL    HW2 2955   1.439   1.331   1.975  1.8755  0.4404  0.9996
  986SOL     OW 2956   1.992   0.102   2.615 -0.1126  0.1838  0.2831
  986SOL    HW1 2957   2.046   0.068   2.537 -1.2713  0.9107 -0.3529
  986SOL    HW2 2958   2.053   0.158   2.681  1.0569  2.5486  2.0187
  987SOL     OW 2959   2.737   1.566   2.812 -0.2933 -0.2681  0.0933
  987SOL    HW1 2960   2.755   1.519   2.900 -0.4875 -0.2542 -1.3127
  987SOL    HW2 2961   2.728   1.666   2.822 -2.0075 -1.8118 -1.8448
  988SOL     OW 2962   2.999   0.524   1.246 -0.6800  0.1649  0.1448
  988SOL    HW1 2963   2.945   0.480   1.168  1.4863  0.3608 -4.8166
  988SOL    HW2 2964   3.021   0.456   1.317 -2.4965  1.6891 -2.3151
  989SOL     OW 2965   1.885   0.806   0.947  0.2011  0.0967 -0.3253
  989SOL    HW1 2966   1.953   0.734   0.948  1.2580  0.8639  0.7212
  989SOL    HW2 2967   1.905   0.864   0.863  0.2978 -0.0736 -0.6134
  990SOL     OW 2968   2.660   0.392   2.925  0.1360 -0.8494 -0.1391
  990SOL    HW1 2969   2.700   0.378   2.834 -0.0994 -3.2555  0.7294
  990SOL    HW2 2970   2.687   0.315   2.985  2.6494 -0.5107 -0.9336
  991SOL     OW 2971   0.079   1.571   0.051 -0.0054  0.0578 -0.2264
  991SOL    HW1 2972   0.046   1.474   0.052 -0.0234  0.3978 -3.2903
  991SOL    HW2 2973   0.017   1.640   0.009  0.0761  0.0515  0.4660
  992SOL     OW 2974   1.989   1.551   1.877 -0.0410  1.0937 -0.0513
  992SOL    HW1 2975   2.023   1.588   1.968  0.6122  0.8612  0.6994
  992SOL    HW2 2976   2.026   1.457   1.859  1.5208 -0.4313 -0.0414
  993SOL     OW 2977   0.224   2.517   0.769 -0.2002  0.2568  0.1417
  993SOL    HW1 2978   0.194   2.505   0.865 -2.5311  0.7437  0.0248
  993SOL    HW2 2979   0.323   2.544   0.772  1.2617 -1.0664 -3.2072
  994SOL     OW 2980   3.030   1.706   1.922 -0.1943  0.0079 -0.5109
  994SOL    HW1 2981   2.984   1.622   1.891 -1.8716 -2.5748 -0.6497
  994SOL    HW2 2982   0.016   1.721   1.865 -2.6120  2.8179 -0.4428
  995SOL     OW 2983   1.810   2.098   2.548 -0.3797  0.2100 -0.0733
  995SOL    HW1 2984   1.844   2.141   2.459  0.6049  0.7642 -2.8235
  995SOL    HW2 2985   1.749   2.025   2.520  0.0391  1.6355  1.5240
  996SOL     OW 2986   2.263   2.072   0.217  0.1801 -0.6605  0.0577
  996SOL    HW1 2987   2.180   2.093   0.166 -0.3642  0.6379 -1.1350
  996SOL    HW2 2988   2.253   2.036   0.310  1.6487  0.0213  0.7169
  997SOL     OW 2989   1.255   1.470   2.397 -0.0375  0.0182  0.0972
  997SOL    HW1 2990   1.153   1.461   2.378 -1.0354  1.1465  0.7319
  997SOL    HW2 2991   1.305   1.484   2.310  1.4534  1.1086  3.3147
  998SOL     OW 2992   3.091   2.365   0.736  0.7122  0.0569 -0.0813
  998SOL    HW1 2993   3.037   2.420   0.803 -1.7953  1.2591  1.2438
  998SOL    HW2 2994   0.052   2.427   0.679  1.5696 -0.1767  2.0032
  999SOL     OW 2995   0.419   2.767   0.590  0.1145 -0.1166 -0.0703
  999SOL    HW1 2996   0.516   2.749   0.617 -0.3736  1.0275  0.5540
  999SOL    HW2 2997   0.391   2.698   0.520 -0.9361 -0.8869  1.9216
 1000SOL     OW 2998   1.175   0.085   0.047 -0.8651  0.1226  0.0258
 1000SOL    HW1 2999   1.109   0.061   3.071  0.0537  0.6426 -0.5150
 1000SOL    HW2 3000   1.245   0.150   0.016  0.3752 -1.2755  2.1060
   3.09900   3.09900   3.09900
