1000 SPC/Fw water molecules t= 160.00000 step= 160000
 3000
    1SOL     OW    1   2.541   2.758   0.639 -0.3363  0.1996 -0.2361
    1SOL    HW1    2   2.598   2.692   0.693 -0.9055 -0.1455 -1.2484
    1SOL    HW2    3   2.443   2.770   0.672 -3.2793 -1.1820  1.6923
    2SOL     OW    4   1.440   1.902   2.395 -0.2156  0.6132 -0.3557
    2SOL    HW1    5   1.431   1.879   2.296  1.0442 -0.6500  0.4760
    2SOL    HW2    6   1.513   1.849   2.440  0.0484  1.1425  1.4842
    3SOL     OW    7   1.767   2.374   1.978 -0.1100  0.5159 -0.6452
    3SOL    HW1    8   1.777   2.282   1.932 -1.5230 -0.6770  1.4014
    3SOL    HW2    9   1.851   2.398   2.029  1.9423  3.6736  0.8273
    4SOL     OW   10   1.993   2.358   2.152  0.3585  0.1582 -0.4390
    4SOL    HW1   11   2.075   2.297   2.145  0.2682  1.6671 -0.7072
    4SOL    HW2   12   1.975   2.403   2.240 -0.4409 -1.1918 -1.1116
    5SOL     OW   13   0.861   0.759   1.760 -0.5989 -0.3960  0.2347
    5SOL    HW1   14   0.879   0.824   1.832  1.8663 -1.5967 -1.4996
    5SOL    HW2   15   0.946   0.725   1.714  0.2708 -0.9619  3.0762
    6SOL     OW   16   2.441   0.912   2.858  0.1298 -0.3780  0.3697
    6SOL    HW1   17   2.386   0.839   2.899  3.3606  2.0396  1.2580
    6SOL    HW2   18   2.526   0.872   2.818  0.8003 -0.9187 -0.3569
    7SOL     OW   19   0.854   0.533   1.181 -0.1635  0.3557 -0.0086
    7SOL    HW1   20   0.863   0.436   1.154 -0.9122  2.9192  0.3329
    7SOL    HW2   21   0.754   0.565   1.171  0.0366  0.4393 -1.6872
    8SOL     OW   22   1.264   2.522   1.411 -0.8077  0.4659 -0.3602
    8SOL    HW1   23   1.293   2.428   1.435  0.1357 -3.0123  0.5593
    8SOL    HW2   24   1.249   2.578   1.498  1.5959 -2.4692 -0.6391
    9SOL     OW   25   0.760   0.990   0.269  0.0190  0.3211  0.0135
    9SOL    HW1   26   0.747   1.007   0.170  0.6227 -2.4315 -0.7488
    9SOL    HW2   27   0.859   0.988   0.300  0.5838 -3.3981  0.7714
   10SOL     OW   28   0.398   2.902   2.968  0.2490  0.4088 -0.4333
   10SOL    HW1   29   0.312   2.846   2.980  2.2820 -0.9397 -0.3375
   10SOL    HW2   30   0.486   2.846   2.955 -0.6893  0.3812  0.5276
   11SOL     OW   31   0.172   1.369   2.878  0.1645 -0.3863 -0.0992
   11SOL    HW1   32   0.113   1.435   2.825 -0.2714 -0.0248 -1.4154
   11SOL    HW2   33   0.205   1.414   2.967 -0.1412  0.2741  3.8257
   12SOL     OW   34   0.763   0.100   1.337  0.4768  0.3444 -0.1640
   12SOL    HW1   35   0.712   0.023   1.295 -0.3172  0.2716  0.0911
   12SOL    HW2   36   0.722   0.193   1.319 -0.2973 -0.8752  2.0493
   13SOL     OW   37   0.590   2.729   0.615 -0.8345  0.5966 -0.5131
   13SOL    HW1   38   0.624   2.639   0.645  0.7399 -1.2385  0.2988
   13SOL    HW2   39   0.652   2.775   0.548 -2.9043  0.2223  2.8390
   14SOL     OW   40   1.484   1.896   0.848 -0.3770  0.0924 -0.4726
   14SOL    HW1   41   1.495   1.997   0.858 -2.6534  2.7595 -0.2875
   14SOL    HW2   42   1.478   1.844   0.935  2.3878  0.5938  1.7210
   15SOL     OW   43   2.609   0.836   2.300 -0.2914 -0.7781 -0.1007
   15SOL    HW1   44   2.575   0.792   2.387  0.9787  0.2448  0.2632
   15SOL    HW2   45   2.529   0.883   2.250  0.3651  1.4952 -1.0451
   16SOL     OW   46   1.287   3.063   2.848  0.2015  0.3736 -0.1845
   16SOL    HW1   47   1.346   3.008   2.912  2.1475 -1.0220 -0.2577
   16SOL    HW2   48   1.327   0.049   2.840 -1.1853  0.3725  1.0879
   17SOL     OW   49   0.626   2.518   1.733 -0.6836  0.6792 -0.3012
   17SOL    HW1   50   0.608   2.536   1.833  1.7028  0.5817  0.2401
   17SOL    HW2   51   0.678   2.598   1.696 -0.1004  1.8297  0.6775
   18SOL     OW   52   1.345   0.692   0.187  0.1934 -0.9966 -0.1639
   18SOL    HW1   53   1.344   0.797   0.169  2.9550  4.0770 -0.2873
   18SOL    HW2   54   1.398   0.643   0.115  2.2328 -0.4732 -1.9019
   19SOL     OW   55   2.145   1.919   2.961 -0.1983  0.0905 -0.9445
   19SOL    HW1   56   2.102   2.005   2.999  0.6895  0.0015  1.5494
   19SOL    HW2   57   2.205   1.932   2.884 -2.0573 -2.7151  1.9739
   20SOL     OW   58   2.098   1.846   2.017  0.1130 -0.4202 -0.3075
   20SOL    HW1   59   2.188   1.805   2.047  1.1718  1.4314  3.9182
   20SOL    HW2   60   2.021   1.783   2.017 -1.3277  2.8364  2.7830
   21SOL     OW   61   0.389   1.664   3.006  0.4355  0.4149  0.3711
   21SOL    HW1   62   0.471   1.706   3.053 -1.8402 -0.1607  0.8967
   21SOL    HW2   63   0.417   1.613   2.924 -1.3968 -1.2019  0.2609
   22SOL     OW   64   2.463   0.062   1.407 -0.0737 -0.3250  0.4337
   22SOL    HW1   65   2.532   3.096   1.420 -2.6181  0.1691  0.8886
   22SOL    HW2   66   2.378   0.024   1.369  2.3992 -2.2669 -1.3195
   23SOL     OW   67   3.065   1.128   1.730  0.1788  0.4201  0.2654
   23SOL    HW1   68   3.018   1.049   1.687  0.6429 -1.4771 -1.7786
   23SOL    HW2   69   0.055   1.129   1.704 -0.4625  0.4918  0.4339
   24SOL     OW   70   2.576   1.723   1.345 -0.0029  0.4225 -0.0413
   24SOL    HW1   71   2.567   1.666   1.262 -0.7945 -0.5268 -0.0857
   24SOL    HW2   72   2.620   1.673   1.422  1.7891 -1.1984  1.1831
   25SOL     OW   73   2.014   3.050   2.628  0.1726 -0.0371 -0.0838
   25SOL    HW1   74   2.036   3.005   2.541 -1.8317  0.9390  1.1605
   25SOL    HW2   75   1.939   3.005   2.679 -2.6059 -0.8608  1.6446
   26SOL     OW   76   1.417   2.876   0.426 -0.9150 -0.2641  0.3841
   26SOL    HW1   77   1.372   2.870   0.515  1.3459 -0.7144 -1.7671
   26SOL    HW2   78   1.510   2.920   0.428 -2.0159 -1.0360  0.4706
   27SOL     OW   79   0.816   1.991   3.048 -0.1297  0.1098  0.3510
   27SOL    HW1   80   0.827   1.948   0.034  0.5810 -1.4010  3.4750
   27SOL    HW2   81   0.741   1.944   2.995 -2.6591  1.4517 -0.0865
   28SOL     OW   82   2.884   1.573   1.109 -0.0303  0.2816 -0.5884
   28SOL    HW1   83   2.799   1.603   1.062 -0.0677 -2.0205  1.2589
   28SOL    HW2   84   2.922   1.488   1.070 -0.0326  1.2694  2.2771
   29SOL     OW   85   2.556   2.187   2.208 -0.2939  0.0950 -0.0343
   29SOL    HW1   86   2.476   2.230   2.161  2.5872 -1.2735  2.1193
   29SOL    HW2   87   2.645   2.237   2.201  0.5037  0.4810  2.3063
   30SOL     OW   88   1.111   2.757   1.056 -0.0746 -0.5234 -0.1263
   30SOL    HW1   89   1.213   2.739   1.041  3.0373  1.5707  1.3257
   30SOL    HW2   90   1.071   2.801   0.971  2.1144 -0.5313  1.1640
   31SOL     OW   91   2.982   2.222   1.899 -0.2542 -0.4635  0.6551
   31SOL    HW1   92   3.011   2.248   1.803  0.9843 -0.1245 -2.1287
   31SOL    HW2   93   3.055   2.257   1.968  1.3190 -1.7593  1.1086
   32SOL     OW   94   1.286   1.060   1.961 -0.0634 -0.3439 -0.2049
   32SOL    HW1   95   1.352   1.068   1.886 -2.2650 -1.3442 -0.5634
   32SOL    HW2   96   1.326   1.092   2.047  1.5636 -1.8307 -2.5265
   33SOL     OW   97   0.657   2.976   2.443 -0.0573  0.6207 -0.2684
   33SOL    HW1   98   0.737   2.947   2.385 -2.2260  0.6780  0.6200
   33SOL    HW2   99   0.681   2.978   2.542  1.2024 -0.3822  1.9319
   34SOL     OW  100   1.879   0.030   1.284  0.5517  0.1512  0.1963
   34SOL    HW1  101   1.854   0.122   1.245 -0.0988  0.9968  1.2732
   34SOL    HW2  102   1.907   0.039   1.381 -0.6098 -0.9353 -2.2459
   35SOL     OW  103   1.957   0.680   1.294 -0.1250  0.1694  0.1465
   35SOL    HW1  104   1.917   0.696   1.202 -1.9261 -0.0867  0.7385
   35SOL    HW2  105   2.020   0.758   1.317 -0.5767 -1.5365 -2.1074
   36SOL     OW  106   2.062   2.711   2.212  0.5189  0.2425  0.4960
   36SOL    HW1  107   2.117   2.652   2.275  0.5315  0.7976  0.4296
   36SOL    HW2  108   2.099   2.713   2.121 -1.8744 -1.6015  0.9220
   37SOL     OW  109   1.112   2.401   2.246 -0.1454  0.3583 -0.3305
   37SOL    HW1  110   1.173   2.447   2.318  0.1941 -0.6731 -0.8364
   37SOL    HW2  111   1.039   2.344   2.286 -0.0070 -1.4217 -1.7774
   38SOL     OW  112   2.354   0.368   0.220 -0.4475  0.1835  0.0247
   38SOL    HW1  113   2.340   0.268   0.239 -2.1052 -1.2957 -0.9983
   38SOL    HW2  114   2.381   0.387   0.121 -1.5053 -0.2902 -0.7641
   39SOL     OW  115   1.989   1.801   2.360  0.3933  0.1257  0.0235
   39SOL    HW1  116   2.011   1.902   2.363 -1.4338  1.4881  1.0332
   39SOL    HW2  117   1.917   1.790   2.282 -1.6529  0.1649 -0.4768
   40SOL     OW  118   0.304   0.028   2.844 -0.0763 -0.7624 -0.3497
   40SOL    HW1  119   0.212   0.054   2.887 -1.0193  1.4924 -1.1212
   40SOL    HW2  120   0.347   3.059   2.894  1.1202 -0.0311  1.5268
   41SOL     OW  121   1.515   0.630   1.545 -0.0648 -0.1908 -0.0709
   41SOL    HW1  122   1.465   0.545   1.555 -0.8044 -0.4884 -0.7926
   41SOL    HW2  123   1.610   0.612   1.507  0.3451 -1.4494 -3.9300
   42SOL     OW  124   0.544   0.208   1.744  0.4061  0.3926  0.5511
   42SOL    HW1  125   0.559   0.303   1.714 -0.3700  0.1159 -0.9253
   42SOL    HW2  126   0.635   0.155   1.759 -0.1776 -2.8499  0.4302
   43SOL     OW  127   1.631   0.163   2.005 -0.6234 -0.2967 -0.1933
   43SOL    HW1  128   1.585   0.168   2.098 -1.9941 -0.8391  0.4927
   43SOL    HW2  129   1.731   0.175   2.016 -1.4876 -0.6577  1.2448
   44SOL     OW  130   0.254   2.668   2.681 -0.0219 -0.2039  0.1292
   44SOL    HW1  131   0.300   2.763   2.671  2.8216  2.9399  0.8656
   44SOL    HW2  132   0.154   2.676   2.684  0.6931 -0.4937 -0.4268
   45SOL     OW  133   0.219   2.508   1.515  0.2176 -0.1252  0.1919
   45SOL    HW1  134   0.173   2.502   1.607 -1.2706  0.1180  2.1077
   45SOL    HW2  135   0.307   2.453   1.520  0.2355 -1.3413  0.7969
   46SOL     OW  136   2.077   2.103   2.429 -0.1963  0.3187  0.0077
   46SOL    HW1  137   2.118   2.161   2.499 -1.1765 -2.3487  1.3493
   46SOL    HW2  138   1.985   2.070   2.459  4.4620  0.8646 -1.8992
   47SOL     OW  139   1.646   1.970   1.760  0.7247  0.0055 -0.1940
   47SOL    HW1  140   1.709   2.026   1.816 -0.6815 -0.6232  0.2301
   47SOL    HW2  141   1.690   1.875   1.755 -0.2079  0.1899 -1.9867
   48SOL     OW  142   0.432   1.719   0.317  0.0370 -0.1505 -0.0100
   48SOL    HW1  143   0.485   1.710   0.401  2.0130  0.4607 -2.4077
   48SOL    HW2  144   0.335   1.690   0.327 -0.2331 -0.1198 -1.9638
   49SOL     OW  145   2.625   0.457   2.454  0.4342  0.0454  0.1175
   49SOL    HW1  146   2.613   0.550   2.507 -1.1226  1.3637  4.8169
   49SOL    HW2  147   2.542   0.436   2.398  1.8538 -2.1384 -0.1177
   50SOL     OW  148   1.895   0.739   1.020 -0.1709  0.0764  0.5212
   50SOL    HW1  149   1.931   0.836   1.023 -0.0023  1.9365  1.6732
   50SOL    HW2  150   1.798   0.735   0.989 -1.8472  2.5421  0.8838
   51SOL     OW  151   1.248   0.652   1.010  0.1103  0.4565 -0.6080
   51SOL    HW1  152   1.177   0.697   1.070 -1.7398 -0.0983  0.1301
   51SOL    HW2  153   1.318   0.718   0.973  0.9479  1.9854 -1.2071
   52SOL     OW  154   1.483   1.219   0.019  0.2584  0.2847 -0.1638
   52SOL    HW1  155   1.479   1.119   0.017 -2.7437  0.2714 -1.4848
   52SOL    HW2  156   1.391   1.259   3.107 -2.4560 -3.2342  1.5928
   53SOL     OW  157   1.230   1.984   2.759  0.1133  0.3727  0.4146
   53SOL    HW1  158   1.167   1.931   2.817  0.1710 -0.1332 -2.0595
   53SOL    HW2  159   1.232   2.080   2.783  2.1763 -0.7452 -1.4118
   54SOL     OW  160   1.776   0.607   1.493  0.3380 -0.2601 -0.1539
   54SOL    HW1  161   1.839   0.611   1.417  2.1015 -0.7341  1.6847
   54SOL    HW2  162   1.824   0.559   1.569  0.0003 -0.7683  0.8918
   55SOL     OW  163   1.919   2.936   0.746 -0.2941 -0.1233 -0.3405
   55SOL    HW1  164   1.967   2.923   0.659 -1.9175 -1.7777  3.5530
   55SOL    HW2  165   1.822   2.957   0.738  2.0457 -1.6622  0.0563
   56SOL     OW  166   0.730   2.656   1.364  0.0722  0.0637  0.0405
   56SOL    HW1  167   0.826   2.640   1.338  2.2562  0.3924  2.8993
   56SOL    HW2  168   0.724   2.710   1.446 -0.5295  0.0009 -0.7512
   57SOL     OW  169   1.955   1.456   0.150  0.5150 -0.0493  0.5094
   57SOL    HW1  170   1.880   1.389   0.127 -0.8815  0.4260  0.2524
   57SOL    HW2  171   2.042   1.406   0.147 -1.6034  2.7277 -2.8345
   58SOL     OW  172   0.366   1.146   2.129  0.0284 -0.2417 -0.8561
   58SOL    HW1  173   0.437   1.180   2.188 -2.4332  1.4035 -1.0606
   58SOL    HW2  174   0.280   1.111   2.176  1.6549 -0.9170  2.0580
   59SOL     OW  175   0.728   2.406   2.454  0.9048  1.1281  0.0539
   59SOL    HW1  176   0.796   2.455   2.514  0.8438  1.0669  1.9102
   59SOL    HW2  177   0.719   2.449   2.362  2.2852  0.4747 -0.5278
   60SOL     OW  178   2.688   2.645   1.158 -0.5404  0.4100 -0.1567
   60SOL    HW1  179   2.595   2.656   1.191  4.4800 -1.3424 -1.5363
   60SOL    HW2  180   2.763   2.670   1.223  2.0441  1.2662  3.7903
   61SOL     OW  181   1.255   2.158   0.672  0.1153 -0.1251 -0.0655
   61SOL    HW1  182   1.255   2.066   0.715  0.3647  2.0385  0.9914
   61SOL    HW2  183   1.348   2.178   0.643 -2.9201 -0.4901  1.3793
   62SOL     OW  184   2.083   2.727   2.750 -0.5352 -0.2277  0.4238
   62SOL    HW1  185   2.114   2.639   2.791 -0.6875 -0.6624 -2.4362
   62SOL    HW2  186   2.078   2.794   2.827  0.2816  1.1203 -1.5132
   63SOL     OW  187   1.830   0.370   0.051 -0.0124  0.0385 -0.0155
   63SOL    HW1  188   1.928   0.382   0.094  4.0977 -1.0394  0.3009
   63SOL    HW2  189   1.782   0.455   0.044  0.8333 -4.3396 -2.5276
   64SOL     OW  190   0.963   1.039   2.969 -0.0858  0.0436 -0.0499
   64SOL    HW1  191   0.955   1.055   2.869  0.0138 -1.4085  1.0158
   64SOL    HW2  192   0.900   1.096   3.020  1.9292 -2.2076 -1.6959
   65SOL     OW  193   1.402   2.429   0.544  0.1796  0.0816  0.5880
   65SOL    HW1  194   1.394   2.431   0.438 -2.1797  1.0984 -4.8614
   65SOL    HW2  195   1.418   2.331   0.580  1.2730 -1.3979  1.3208
   66SOL     OW  196   0.554   1.427   1.902  0.0299 -0.4150  0.0284
   66SOL    HW1  197   0.597   1.394   1.988  1.0198  0.9936  2.3962
   66SOL    HW2  198   0.452   1.428   1.908 -0.4659  1.7449 -2.2042
   67SOL     OW  199   2.464   3.076   2.369 -0.1208  0.0520 -0.1172
   67SOL    HW1  200   2.389   3.085   2.304 -0.7001  2.3578  1.9482
   67SOL    HW2  201   2.521   0.050   2.386  0.8166 -0.8603 -0.5698
   68SOL     OW  202   0.846   1.233   1.309  0.3736 -0.1708  0.2488
   68SOL    HW1  203   0.838   1.136   1.321  3.2826 -0.1078 -0.9543
   68SOL    HW2  204   0.835   1.254   1.211  1.7378 -1.3424  0.0355
   69SOL     OW  205   1.783   2.739   0.321 -0.0620  0.1606  0.1602
   69SOL    HW1  206   1.739   2.826   0.354  0.0371  0.8362 -1.0840
   69SOL    HW2  207   1.823   2.691   0.403  0.6495  0.2705  3.7392
   70SOL     OW  208   2.785   1.020   2.366  0.2553  0.2148  0.5173
   70SOL    HW1  209   2.875   0.976   2.364  2.3317  0.0122 -0.1332
   70SOL    HW2  210   2.709   0.952   2.350 -0.6181 -1.8592  1.4337
   71SOL     OW  211   3.034   1.540   3.101  0.5215  0.3909 -0.2060
   71SOL    HW1  212   2.996   1.478   3.031  0.4700  4.0356 -0.2346
   71SOL    HW2  213   0.030   1.534   0.013 -0.5885 -0.2121  2.8243
   72SOL     OW  214   3.009   2.203   0.474  0.3612 -0.0755  0.3499
   72SOL    HW1  215   2.947   2.147   0.415  1.0322 -1.4585 -2.0309
   72SOL    HW2  216   3.075   2.148   0.524 -2.3785  2.1175 -2.8868
   73SOL     OW  217   0.850   1.371   0.530 -0.1594 -0.4693 -0.1782
   73SOL    HW1  218   0.829   1.333   0.619 -0.8359 -0.8115 -0.9383
   73SOL    HW2  219   0.862   1.476   0.535  1.1963  1.1848  0.0749
   74SOL     OW  220   0.429   1.927   2.118 -0.2022  0.1245  0.0254
   74SOL    HW1  221   0.334   1.918   2.153  4.1799 -0.5044 -0.0417
   74SOL    HW2  222   0.495   1.929   2.190  0.6313 -3.2643 -1.5111
   75SOL     OW  223   1.682   1.491   1.727  0.2305  0.2601 -0.3553
   75SOL    HW1  224   1.662   1.502   1.631  1.4700  0.6354 -2.3645
   75SOL    HW2  225   1.741   1.565   1.763  1.7344  2.8845  0.2184
   76SOL     OW  226   2.049   2.752   1.402 -0.5886 -0.0324  0.2188
   76SOL    HW1  227   2.080   2.656   1.385 -0.6131 -0.5319  1.0993
   76SOL    HW2  228   2.115   2.804   1.457 -2.4445 -2.7146 -1.4933
   77SOL     OW  229   2.830   0.980   1.251 -1.0755  0.4046 -0.7031
   77SOL    HW1  230   2.895   0.939   1.320  3.5551  0.7391 -0.5391
   77SOL    HW2  231   2.864   0.965   1.156  2.1276  0.3071 -1.0028
   78SOL     OW  232   1.364   1.077   0.449 -0.0890  0.6189  0.0620
   78SOL    HW1  233   1.372   1.178   0.451  0.4494 -2.8788 -1.2823
   78SOL    HW2  234   1.452   1.027   0.450 -1.2809 -0.1670 -1.4857
   79SOL     OW  235   2.832   1.313   1.732 -0.2941  0.1418  0.7533
   79SOL    HW1  236   2.906   1.241   1.736 -0.5206 -1.0056  0.8680
   79SOL    HW2  237   2.816   1.340   1.637  2.2316  0.4826 -0.4007
   80SOL     OW  238   1.122   0.726   1.572  0.3012  0.2447 -0.2034
   80SOL    HW1  239   1.141   0.700   1.666 -0.9369  0.8454 -1.5400
   80SOL    HW2  240   1.175   0.666   1.509  1.1269  2.4839 -0.0085
   81SOL     OW  241   0.984   2.850   0.832  0.1962  0.2823  0.1417
   81SOL    HW1  242   1.052   2.872   0.761 -2.5430  0.3466 -1.8805
   81SOL    HW2  243   0.909   2.913   0.827  1.8900 -1.4030 -0.3925
   82SOL     OW  244   1.422   0.104   1.583 -0.0571  0.3556 -0.5000
   82SOL    HW1  245   1.472   0.127   1.498 -1.0644 -1.9394  1.6897
   82SOL    HW2  246   1.348   0.037   1.565 -0.6081  0.0081 -1.5483
   83SOL     OW  247   1.154   1.970   0.891 -0.2039  0.6386  0.4501
   83SOL    HW1  248   1.205   2.049   0.929  0.3426 -1.1861  0.0787
   83SOL    HW2  249   1.158   1.898   0.967 -0.6318 -1.1042 -1.8314
   84SOL     OW  250   0.479   1.556   2.763  0.1196  0.5107 -0.1362
   84SOL    HW1  251   0.412   1.544   2.690  0.9221 -0.8979  3.0105
   84SOL    HW2  252   0.553   1.610   2.727 -0.1282 -2.4366  1.0294
   85SOL     OW  253   0.152   2.373   1.285 -0.0965  0.2051  0.1318
   85SOL    HW1  254   0.061   2.327   1.295  0.6575 -0.6593  1.1637
   85SOL    HW2  255   0.172   2.425   1.374  1.2922  3.0116  2.6029
   86SOL     OW  256   2.355   2.278   1.440  0.7140 -0.1221 -0.0174
   86SOL    HW1  257   2.404   2.316   1.361 -0.5779  0.5316  1.1006
   86SOL    HW2  258   2.383   2.323   1.525 -1.6158  0.8805  2.2253
   87SOL     OW  259   0.118   2.042   0.574  0.0106  0.1763  0.2816
   87SOL    HW1  260   0.153   1.953   0.614 -0.7909 -0.4111  2.6687
   87SOL    HW2  261   0.180   2.070   0.495  3.2066  0.9257  0.4635
   88SOL     OW  262   0.889   1.452   1.575 -0.2624 -0.6620 -0.7278
   88SOL    HW1  263   0.867   1.355   1.590  0.3146  0.9896 -0.5911
   88SOL    HW2  264   0.978   1.451   1.523  0.8499  3.1828 -0.9859
   89SOL     OW  265   1.148   3.029   1.928  0.0801 -0.0024 -0.2529
   89SOL    HW1  266   1.098   3.026   2.018 -0.6548  0.5159 -1.1229
   89SOL    HW2  267   1.100   2.985   1.849 -0.4689  0.6991  1.2882
   90SOL     OW  268   2.939   1.792   1.254  0.3015  0.0714  0.3441
   90SOL    HW1  269   2.910   1.800   1.350 -1.5344 -1.1818  0.5385
   90SOL    HW2  270   2.913   1.699   1.212  0.4838 -1.1823 -0.5128
   91SOL     OW  271   1.480   1.771   1.107  0.2103 -0.3319  0.5205
   91SOL    HW1  272   1.391   1.775   1.153  0.0531  0.9695 -0.3844
   91SOL    HW2  273   1.554   1.776   1.174 -1.4796 -0.7626 -1.2731
   92SOL     OW  274   2.395   2.493   1.635 -0.5422  0.0381 -0.1799
   92SOL    HW1  275   2.350   2.506   1.727 -2.2100  3.5131  0.4836
   92SOL    HW2  276   2.476   2.431   1.635  0.0424 -1.2668  0.5689
   93SOL     OW  277   2.866   1.538   2.749  0.3961 -0.4286  0.6886
   93SOL    HW1  278   2.781   1.508   2.703  2.1692  2.2209 -1.8124
   93SOL    HW2  279   2.915   1.466   2.805 -0.0734  0.8351  0.3174
   94SOL     OW  280   2.843   2.960   2.175 -0.2328  0.2959  0.0099
   94SOL    HW1  281   2.854   3.055   2.206  0.8463 -0.3970  0.8781
   94SOL    HW2  282   2.841   2.953   2.072 -2.9137  1.8465 -1.1718
   95SOL     OW  283   1.592   0.362   1.828  0.5285 -0.4448 -0.1549
   95SOL    HW1  284   1.609   0.292   1.897  0.8651 -0.3773 -3.1253
   95SOL    HW2  285   1.587   0.455   1.868 -1.7970 -0.3859 -0.9278
   96SOL     OW  286   3.072   0.383   1.589 -0.1181 -0.4254  0.7322
   96SOL    HW1  287   2.990   0.403   1.528 -1.1344  1.0191 -2.7321
   96SOL    HW2  288   3.100   0.468   1.635  0.4531  1.8256  0.7086
   97SOL     OW  289   2.072   0.434   1.372  0.2182  0.1479 -0.0486
   97SOL    HW1  290   2.040   0.517   1.322  1.1507  0.0876  0.4273
   97SOL    HW2  291   2.169   0.445   1.406  0.2013 -1.5908  1.4204
   98SOL     OW  292   1.607   2.660   1.535  0.2427 -0.2456 -0.1004
   98SOL    HW1  293   1.688   2.702   1.484  3.9671 -1.7296 -1.0604
   98SOL    HW2  294   1.630   2.590   1.604  0.6639  0.3592 -1.2317
   99SOL     OW  295   2.974   0.195   1.747 -0.4769 -0.4127 -0.0753
   99SOL    HW1  296   3.018   0.261   1.676  0.9068  2.3818 -1.8677
   99SOL    HW2  297   3.049   0.128   1.764 -0.8435  1.8577 -1.3501
  100SOL     OW  298   2.781   1.164   2.138  0.2445  0.0746 -0.2946
  100SOL    HW1  299   2.784   1.265   2.159  0.0284  1.2524 -1.4834
  100SOL    HW2  300   2.794   1.113   2.225  0.0275 -0.2000  0.0887
  101SOL     OW  301   1.393   0.677   0.682  0.6553 -0.1108  0.1017
  101SOL    HW1  302   1.477   0.636   0.723  0.0567 -1.3757  0.0999
  101SOL    HW2  303   1.366   0.757   0.739 -0.6036  0.3700 -0.4351
  102SOL     OW  304   0.491   0.762   1.375 -0.4007 -0.3664  0.5165
  102SOL    HW1  305   0.463   0.859   1.357 -0.4516 -0.4271  0.1094
  102SOL    HW2  306   0.530   0.749   1.466 -1.6721 -3.5807  0.0032
  103SOL     OW  307   2.337   0.747   3.057 -0.5556 -0.6225 -0.2309
  103SOL    HW1  308   2.280   0.770   0.029 -0.4534 -0.1164 -0.6201
  103SOL    HW2  309   2.437   0.757   3.077 -0.0305  0.2434 -0.6493
  104SOL     OW  310   0.069   0.159   2.082  0.2658  0.7809  0.5640
  104SOL    HW1  311   0.080   0.127   1.987 -0.6114 -1.8047 -1.6715
  104SOL    HW2  312   3.082   0.200   2.089  2.3393  0.2785  3.1032
  105SOL     OW  313   1.935   0.766   1.748 -0.0688 -0.5323  0.4987
  105SOL    HW1  314   1.873   0.847   1.745 -2.1504  0.4205  0.5065
  105SOL    HW2  315   2.030   0.795   1.764 -1.6800 -0.0103 -2.1343
  106SOL     OW  316   1.689   0.073   0.946 -0.2154 -0.0943 -0.6570
  106SOL    HW1  317   1.725   0.016   1.021 -3.5068 -0.8213  0.4375
  106SOL    HW2  318   1.677   0.021   0.860  0.6098 -0.4726  0.1578
  107SOL     OW  319   0.261   1.014   0.793 -0.5790  0.1667 -0.0559
  107SOL    HW1  320   0.274   0.996   0.691  0.1662 -4.2614  0.9189
  107SOL    HW2  321   0.244   1.113   0.808  1.1074  0.9171  0.9734
  108SOL     OW  322   2.951   0.305   2.124 -0.0672  0.0572 -0.1437
  108SOL    HW1  323   2.897   0.366   2.062 -2.7537  2.6492  0.8580
  108SOL    HW2  324   2.886   0.248   2.189 -1.4354 -0.5575  1.5123
  109SOL     OW  325   2.316   0.456   0.619 -0.0432 -0.0945  0.7090
  109SOL    HW1  326   2.294   0.497   0.527 -0.6763 -0.2356  0.8467
  109SOL    HW2  327   2.403   0.399   0.612  0.4975 -1.7196  0.2286
  110SOL     OW  328   0.404   2.480   2.838 -0.2093 -0.1462 -0.6211
  110SOL    HW1  329   0.376   2.560   2.786  0.6126  0.0452  1.8753
  110SOL    HW2  330   0.416   2.398   2.778 -0.8101  1.9608  1.9611
  111SOL     OW  331   1.745   3.001   2.139  0.5661 -0.3105 -0.1206
  111SOL    HW1  332   1.792   3.085   2.110  0.0754  0.0141  1.0192
  111SOL    HW2  333   1.723   2.941   2.059 -1.4372 -1.0963  0.3743
  112SOL     OW  334   2.016   2.632   3.091  0.3008  0.9202  0.1584
  112SOL    HW1  335   1.944   2.700   3.098 -1.1791 -0.2095  2.2529
  112SOL    HW2  336   2.112   2.663   3.103  1.2797 -1.4017 -2.2125
  113SOL     OW  337   2.497   2.059   1.733  1.2601  0.4846  0.2828
  113SOL    HW1  338   2.585   2.009   1.714  2.4556 -0.9217 -0.9341
  113SOL    HW2  339   2.505   2.161   1.727 -2.3897 -1.2462 -0.9716
  114SOL     OW  340   2.831   0.957   0.948  0.4505 -0.2180  0.6629
  114SOL    HW1  341   2.733   0.944   0.928 -1.4522  1.3297 -1.9985
  114SOL    HW2  342   2.886   0.875   0.948 -0.4377  2.1006  1.7951
  115SOL     OW  343   2.994   1.821   0.077 -0.0409  0.1891  0.0398
  115SOL    HW1  344   3.063   1.862   0.138 -0.6649  0.2593  2.7550
  115SOL    HW2  345   3.014   1.722   0.057  0.9296 -0.0077  2.6237
  116SOL     OW  346   3.106   1.379   2.259  0.0732 -0.2385 -0.5187
  116SOL    HW1  347   3.028   1.330   2.217  0.0740  0.8672 -0.9128
  116SOL    HW2  348   0.070   1.402   2.186 -0.5872  0.0676  0.3128
  117SOL     OW  349   2.684   3.032   0.882 -0.5143  0.2864 -0.1604
  117SOL    HW1  350   2.583   3.033   0.873 -0.7120 -0.4082  0.6755
  117SOL    HW2  351   2.733   3.080   0.809  0.9367 -0.3689 -2.3460
  118SOL     OW  352   0.418   2.116   1.607  0.0032  0.0146  0.4209
  118SOL    HW1  353   0.427   2.107   1.708  0.9658 -1.4943  0.8914
  118SOL    HW2  354   0.435   2.217   1.579  1.3137  1.8115 -0.2053
  119SOL     OW  355   1.729   2.135   0.451  0.2915 -0.0996 -0.0324
  119SOL    HW1  356   1.710   2.039   0.417  0.5948  1.0496  0.4874
  119SOL    HW2  357   1.828   2.154   0.446 -1.6633 -0.0314 -0.8073
  120SOL     OW  358   3.047   2.017   2.385  0.0558  0.1078 -0.3433
  120SOL    HW1  359   0.030   2.033   2.429  0.7832 -1.2434  1.2129
  120SOL    HW2  360   3.010   2.103   2.344  1.0615  1.7314 -1.2934
  121SOL     OW  361   2.212   2.047   1.406 -0.8349 -0.0955  0.4435
  121SOL    HW1  362   2.112   2.054   1.385 -1.8938 -0.6663 -0.6735
  121SOL    HW2  363   2.253   2.140   1.416 -0.6181 -2.1294  0.1361
  122SOL     OW  364   2.142   1.341   2.334  0.1907  0.0155 -0.0869
  122SOL    HW1  365   2.222   1.384   2.293  1.9570 -0.8506 -1.0761
  122SOL    HW2  366   2.156   1.327   2.436 -1.0282 -1.3733  0.7077
  123SOL     OW  367   0.107   2.884   0.620 -0.3534  0.2397 -0.5118
  123SOL    HW1  368   0.041   2.939   0.562 -1.1481 -0.6682 -0.2353
  123SOL    HW2  369   0.058   2.834   0.694  1.6283  1.2104  0.1557
  124SOL     OW  370   1.822   0.748   2.525  0.0744 -0.1749  0.1210
  124SOL    HW1  371   1.908   0.810   2.528 -0.9171  0.7344  0.4049
  124SOL    HW2  372   1.737   0.792   2.562 -1.6244 -1.8072  0.6763
  125SOL     OW  373   0.642   1.358   2.886 -0.0158 -0.0471  0.7874
  125SOL    HW1  374   0.592   1.440   2.861  0.6672 -3.1910  2.3417
  125SOL    HW2  375   0.685   1.361   2.979 -0.8987  0.4211  0.4155
  126SOL     OW  376   2.769   1.944   0.064  0.2815  0.3137  0.1305
  126SOL    HW1  377   2.791   2.033   0.024 -1.1641  1.7154  0.8060
  126SOL    HW2  378   2.853   1.883   0.067  0.9674 -0.2667 -2.2473
  127SOL     OW  379   0.509   1.738   1.129  0.3201 -0.4040  0.5831
  127SOL    HW1  380   0.481   1.828   1.160  1.3790  0.6654 -1.3189
  127SOL    HW2  381   0.444   1.663   1.162 -1.5283 -0.2915 -0.0249
  128SOL     OW  382   0.920   0.469   0.180 -0.2087 -0.2712 -0.0103
  128SOL    HW1  383   0.872   0.531   0.118 -0.7857 -3.9468  2.7075
  128SOL    HW2  384   1.016   0.491   0.184  0.1920 -0.4432  0.2109
  129SOL     OW  385   2.290   1.415   0.873 -0.5069  0.2591  0.2816
  129SOL    HW1  386   2.270   1.478   0.798  0.8448 -3.2435  4.1418
  129SOL    HW2  387   2.391   1.399   0.879 -1.9848  0.3662  0.3326
  130SOL     OW  388   2.336   1.749   0.843 -0.7783  0.4814  0.1753
  130SOL    HW1  389   2.408   1.801   0.892  0.1751 -0.0844 -0.9739
  130SOL    HW2  390   2.249   1.761   0.891  1.7499  1.2186 -2.2787
  131SOL     OW  391   2.856   1.012   2.855  0.0294 -0.4180 -0.4240
  131SOL    HW1  392   2.800   1.048   2.930  0.8400 -0.2948 -0.9727
  131SOL    HW2  393   2.949   1.042   2.866 -1.5460 -0.2694  0.7336
  132SOL     OW  394   2.558   1.631   1.914  0.0912  0.5212 -0.4399
  132SOL    HW1  395   2.527   1.724   1.942 -0.6739 -0.3859  2.8582
  132SOL    HW2  396   2.660   1.616   1.916  0.7163  0.4078 -3.2485
  133SOL     OW  397   2.883   0.795   0.173  0.5110 -0.4266 -0.4551
  133SOL    HW1  398   2.948   0.734   0.226 -0.8176  0.4714 -1.1582
  133SOL    HW2  399   2.937   0.858   0.114  0.5976 -1.1795  2.5240
  134SOL     OW  400   0.183   1.120   0.090 -0.1105 -0.4751  0.6543
  134SOL    HW1  401   0.175   1.216   0.111 -0.3736 -1.0398  0.3153
  134SOL    HW2  402   0.259   1.101   0.028 -2.5192  0.1371 -0.4292
  135SOL     OW  403   2.252   1.756   0.599 -0.4885  0.3329  0.1222
  135SOL    HW1  404   2.287   1.765   0.695 -0.8843 -1.4762 -0.9975
  135SOL    HW2  405   2.184   1.680   0.588  0.9246  0.6888  0.7970
  136SOL     OW  406   2.067   1.504   1.324  0.0765  0.4338  0.0386
  136SOL    HW1  407   2.051   1.430   1.391 -0.1763  1.8451 -0.7546
  136SOL    HW2  408   2.108   1.470   1.236 -1.4302  1.0783 -0.1240
  137SOL     OW  409   2.662   1.647   0.752 -0.1651 -0.0219  0.1420
  137SOL    HW1  410   2.667   1.746   0.778  2.0939 -2.4988  1.2259
  137SOL    HW2  411   2.611   1.637   0.662 -0.4134  0.3599 -1.5892
  138SOL     OW  412   1.006   0.349   1.450  0.5567 -0.5099  0.3235
  138SOL    HW1  413   1.095   0.400   1.442  0.9104  2.0321  0.6986
  138SOL    HW2  414   1.010   0.272   1.379  1.4440  0.3087 -0.2318
  139SOL     OW  415   2.152   3.087   0.203 -0.2381  0.1756  0.2482
  139SOL    HW1  416   2.166   0.031   0.117 -1.3951 -1.3890 -1.2608
  139SOL    HW2  417   2.170   0.035   0.285  0.2340  0.5877 -0.4989
  140SOL     OW  418   1.499   2.064   2.678  0.9737  0.9503  0.1210
  140SOL    HW1  419   1.412   2.026   2.721 -0.5574 -0.3012  1.3971
  140SOL    HW2  420   1.481   2.117   2.593 -1.2715 -0.5878  1.5502
  141SOL     OW  421   0.903   1.182   1.670 -0.1609 -0.1398  0.6212
  141SOL    HW1  422   0.958   1.207   1.751 -1.8694 -0.9381 -1.9638
  141SOL    HW2  423   0.934   1.094   1.633 -0.2561 -0.7623  0.6029
  142SOL     OW  424   2.603   0.194   0.119 -0.1716 -0.0005  0.5934
  142SOL    HW1  425   2.557   0.144   0.195  0.0151  0.4779 -1.4674
  142SOL    HW2  426   2.686   0.136   0.095  2.3077 -0.5128  3.1922
  143SOL     OW  427   0.750   2.427   3.051 -0.7183 -0.3803 -0.0471
  143SOL    HW1  428   0.769   2.432   0.045  0.9703  0.1574  0.9786
  143SOL    HW2  429   0.803   2.504   3.002  3.9163  2.0094 -4.2256
  144SOL     OW  430   1.067   2.706   2.469  0.1222  0.5128 -0.0602
  144SOL    HW1  431   1.012   2.633   2.513 -0.5895 -1.4696  0.7542
  144SOL    HW2  432   1.118   2.764   2.533 -0.3621 -1.5934 -1.4857
  145SOL     OW  433   2.434   1.498   0.118  0.1005  0.0749 -0.2097
  145SOL    HW1  434   2.533   1.507   0.129  0.6029 -0.9942  0.4519
  145SOL    HW2  435   2.384   1.581   0.153 -1.8274  0.8931 -1.2468
  146SOL     OW  436   2.676   2.868   0.060 -0.2750 -0.5633  0.4877
  146SOL    HW1  437   2.638   2.895   0.151  0.8727 -3.0232  2.1140
  146SOL    HW2  438   2.776   2.867   0.062  0.7318  0.5793 -2.4705
  147SOL     OW  439   2.473   2.375   1.210  1.0339  0.2938  0.1011
  147SOL    HW1  440   2.475   2.474   1.195  0.0574  0.3937 -1.0954
  147SOL    HW2  441   2.400   2.333   1.144 -0.7955 -2.1307  0.1231
  148SOL     OW  442   1.677   0.145   0.059  0.1711 -0.0494  0.4859
  148SOL    HW1  443   1.741   0.227   0.062  1.3429  1.3665  0.2634
  148SOL    HW2  444   1.582   0.180   0.059 -0.1405  1.8330  0.3974
  149SOL     OW  445   1.173   1.355   2.857  0.3894  0.0550  0.3314
  149SOL    HW1  446   1.217   1.268   2.832  1.2747 -0.8464  1.8366
  149SOL    HW2  447   1.170   1.419   2.774  1.5348 -0.5029  1.1931
  150SOL     OW  448   0.741   2.479   0.669  0.1630 -0.0658 -0.6979
  150SOL    HW1  449   0.788   2.412   0.731 -0.9421 -0.2702  1.6948
  150SOL    HW2  450   0.703   2.435   0.579  0.3063  1.0334 -1.4811
  151SOL     OW  451   0.592   1.924   2.906 -0.3891  0.3733  0.8069
  151SOL    HW1  452   0.516   1.942   2.834 -1.8340 -0.5072 -3.8074
  151SOL    HW2  453   0.641   1.838   2.885  0.7657 -0.7118 -1.1734
  152SOL     OW  454   2.916   1.047   0.490 -0.3084 -0.4119  0.7928
  152SOL    HW1  455   2.970   0.978   0.543 -1.7119  2.8584 -1.4634
  152SOL    HW2  456   2.816   1.039   0.503 -0.2754  0.9425 -1.4656
  153SOL     OW  457   2.452   2.429   0.188  0.0692 -0.1934  0.0611
  153SOL    HW1  458   2.461   2.495   0.269  1.2981  1.1325  0.7728
  153SOL    HW2  459   2.529   2.432   0.126  0.3470  1.6278  4.0927
  154SOL     OW  460   0.697   2.949   1.204  0.4075 -0.4061 -0.0405
  154SOL    HW1  461   0.622   2.956   1.274 -0.9864 -0.5132  2.3373
  154SOL    HW2  462   0.655   2.953   1.110 -0.5260 -0.0220 -4.0424
  155SOL     OW  463   0.434   1.999   1.242 -0.1338  0.5438 -0.1304
  155SOL    HW1  464   0.410   2.082   1.182  1.2686  1.2828 -0.2418
  155SOL    HW2  465   0.385   2.002   1.332  1.3555  1.1843  0.4720
  156SOL     OW  466   2.471   2.491   2.906  0.4653 -0.4435  0.4188
  156SOL    HW1  467   2.502   2.435   2.986 -0.7985  3.3212  2.1037
  156SOL    HW2  468   2.483   2.590   2.931  0.1043 -0.4924  0.6027
  157SOL     OW  469   1.127   2.353   1.229  0.2564  0.7704  0.4446
  157SOL    HW1  470   1.050   2.332   1.295  0.6558  0.8054 -1.5121
  157SOL    HW2  471   1.179   2.418   1.281 -1.0068 -3.1888 -3.2980
  158SOL     OW  472   1.685   0.749   2.917  0.1432  0.0204  0.6155
  158SOL    HW1  473   1.719   0.716   2.830 -1.5031 -2.4497  1.1409
  158SOL    HW2  474   1.600   0.804   2.902  0.4551  1.0794  0.4676
  159SOL     OW  475   1.033   0.517   2.438  0.4306  0.4381 -0.2007
  159SOL    HW1  476   0.992   0.525   2.347 -1.5791  0.3169  0.8937
  159SOL    HW2  477   1.070   0.424   2.451 -0.1733  2.4818 -3.5482
  160SOL     OW  478   1.171   1.813   0.531  0.3256 -0.2606 -0.2738
  160SOL    HW1  479   1.102   1.885   0.541 -1.3437  0.9311  2.1181
  160SOL    HW2  480   1.184   1.796   0.432  0.5563 -4.5334  0.0744
  161SOL     OW  481   0.041   2.176   3.085  0.6712 -0.2916 -0.1337
  161SOL    HW1  482   0.111   2.109   0.008 -2.1228  1.5175  0.8882
  161SOL    HW2  483   0.009   2.228   0.060  0.2873 -0.2214  1.1281
  162SOL     OW  484   0.617   2.639   1.078  0.2835  0.2461 -0.1121
  162SOL    HW1  485   0.680   2.661   1.000  0.9662 -2.7125 -2.3298
  162SOL    HW2  486   0.642   2.688   1.164 -0.1715 -0.9291 -1.3860
  163SOL     OW  487   2.615   0.986   3.065  0.3109 -0.0078  0.6504
  163SOL    HW1  488   2.542   0.991   2.993 -0.7300  1.8350  4.0241
  163SOL    HW2  489   2.649   0.888   3.089  0.2979 -1.4622 -0.4692
  164SOL     OW  490   0.170   2.732   2.967  0.0596 -0.1411 -0.4371
  164SOL    HW1  491   0.179   2.660   3.041  0.1998 -0.8147 -1.5877
  164SOL    HW2  492   0.200   2.706   2.877 -2.8717  1.9947  0.7728
  165SOL     OW  493   2.329   0.508   1.425 -0.3575  0.4981 -0.4318
  165SOL    HW1  494   2.337   0.546   1.520  0.7361  1.8075  0.5645
  165SOL    HW2  495   2.323   0.587   1.357  1.0538  0.4757  0.5326
  166SOL     OW  496   1.957   0.270   0.949 -0.3136  0.1756 -0.1520
  166SOL    HW1  497   1.962   0.363   0.914  0.6320 -2.8231 -0.2326
  166SOL    HW2  498   1.933   0.204   0.871 -0.0140 -1.8666 -1.8543
  167SOL     OW  499   0.680   0.576   1.876  0.3331 -0.2404 -0.2077
  167SOL    HW1  500   0.759   0.640   1.860  2.3053  1.8761  1.8822
  167SOL    HW2  501   0.620   0.604   1.955 -1.9775  0.6065 -1.1633
  168SOL     OW  502   2.769   0.347   1.873 -0.3240  0.4920 -0.5800
  168SOL    HW1  503   2.710   0.271   1.905  0.6264  0.1619  2.1520
  168SOL    HW2  504   2.846   0.309   1.819  0.2920 -0.6004 -2.7076
  169SOL     OW  505   0.199   1.230   0.441 -0.0325  0.9104  0.3816
  169SOL    HW1  506   0.209   1.127   0.431  0.8904 -4.3699 -0.3733
  169SOL    HW2  507   0.111   1.252   0.490  0.0797 -1.9473 -0.8008
  170SOL     OW  508   0.251   1.114   1.678 -0.5426 -0.4504 -0.2246
  170SOL    HW1  509   0.310   1.154   1.608 -1.2686 -0.7260 -0.2553
  170SOL    HW2  510   0.266   1.010   1.690  0.3527  2.0905 -0.2741
  171SOL     OW  511   1.186   1.846   1.759 -0.1886  0.1115  0.3532
  171SOL    HW1  512   1.136   1.893   1.832  4.3857  1.1407  1.2581
  171SOL    HW2  513   1.114   1.807   1.699  0.6478 -3.0384  0.9957
  172SOL     OW  514   0.459   2.369   1.522 -0.1687  0.2661 -0.0567
  172SOL    HW1  515   0.510   2.417   1.596  0.3729  0.8509  2.5725
  172SOL    HW2  516   0.513   2.359   1.433  0.7756  1.9474  1.1551
  173SOL     OW  517   1.171   2.834   0.634  0.4117  0.1116  0.4839
  173SOL    HW1  518   1.106   2.816   0.563  2.5699 -0.2665  1.4670
  173SOL    HW2  519   1.233   2.751   0.643  2.0861 -1.2615 -3.2156
  174SOL     OW  520   0.805   2.704   0.149 -0.6578 -0.0668  0.2733
  174SOL    HW1  521   0.769   2.797   0.172 -1.1359  1.1069  0.5311
  174SOL    HW2  522   0.825   2.693   0.050 -0.9294 -0.5130  3.0625
  175SOL     OW  523   1.238   0.945   3.002  0.0794  0.7001 -0.1354
  175SOL    HW1  524   1.261   0.975   3.098  0.3608 -2.3026  0.9297
  175SOL    HW2  525   1.150   0.993   2.979 -0.3468  1.7548 -0.7995
  176SOL     OW  526   1.585   0.696   0.293 -0.5623  0.1668 -0.5054
  176SOL    HW1  527   1.489   0.687   0.264  0.8545 -0.3152  0.3125
  176SOL    HW2  528   1.585   0.742   0.387  0.4754 -0.9523  3.2800
  177SOL     OW  529   1.359   1.146   0.844  0.0718  0.3704 -0.3851
  177SOL    HW1  530   1.268   1.173   0.811 -1.0229 -1.2539  0.0339
  177SOL    HW2  531   1.438   1.162   0.772  2.8073  2.2250 -0.4370
  178SOL     OW  532   2.745   1.793   2.655 -0.8005 -0.4275 -0.1631
  178SOL    HW1  533   2.796   1.709   2.683  1.6922 -2.0223 -0.0239
  178SOL    HW2  534   2.759   1.821   2.562 -1.1301  2.5485  0.1605
  179SOL     OW  535   0.685   3.038   2.699  0.4171 -0.0495  0.5595
  179SOL    HW1  536   0.629   0.014   2.670  1.4659  0.5762  0.1722
  179SOL    HW2  537   0.716   3.050   2.797 -0.0452 -1.4081  1.9724
  180SOL     OW  538   1.807   1.508   1.236  0.6209 -0.3324  0.3047
  180SOL    HW1  539   1.907   1.534   1.261 -1.2724 -1.1964 -2.4188
  180SOL    HW2  540   1.791   1.496   1.138 -0.8551  0.0200  0.2718
  181SOL     OW  541   0.980   1.222   2.282 -0.3615 -0.3616  0.1103
  181SOL    HW1  542   0.943   1.132   2.259 -0.5772 -0.9774 -2.7832
  181SOL    HW2  543   1.073   1.210   2.323  1.7798 -0.1912  0.0680
  182SOL     OW  544   2.708   0.795   2.804  0.0598  0.1735 -0.3008
  182SOL    HW1  545   2.756   0.882   2.815 -3.0270 -1.4880 -2.8152
  182SOL    HW2  546   2.687   0.764   2.903  0.2083 -0.8322  1.0925
  183SOL     OW  547   1.698   0.031   2.546 -0.0637  0.4162  0.2567
  183SOL    HW1  548   1.757   3.066   2.589 -0.6170  0.0967 -0.8135
  183SOL    HW2  549   1.644   3.106   2.463  0.8508  0.4095  0.9353
  184SOL     OW  550   0.618   0.448   1.642 -0.0966 -0.1370  0.5105
  184SOL    HW1  551   0.636   0.509   1.718 -3.7730 -0.9467  0.1862
  184SOL    HW2  552   0.684   0.459   1.564  0.0825  0.7947  1.0373
  185SOL     OW  553   2.551   1.381   0.825  0.2646  0.0216 -0.4100
  185SOL    HW1  554   2.583   1.476   0.806  1.3919  1.4276  0.5047
  185SOL    HW2  555   2.624   1.316   0.851 -2.9797  1.2793 -1.9082
  186SOL     OW  556   0.196   2.157   2.840 -0.9139 -0.0132 -0.4357
  186SOL    HW1  557   0.145   2.172   2.933 -1.4548 -0.4423  1.7052
  186SOL    HW2  558   0.143   2.084   2.788  0.9749  0.0527 -1.8337
  187SOL     OW  559   2.726   1.439   0.116 -0.0244  0.2750  0.2652
  187SOL    HW1  560   2.768   1.519   0.067  2.6931 -2.3355 -4.3271
  187SOL    HW2  561   2.738   1.352   0.065  0.0563  0.9743 -2.2504
  188SOL     OW  562   0.650   2.078   0.456  0.4548  0.0388  0.1243
  188SOL    HW1  563   0.719   2.012   0.494  0.8021 -1.3957 -1.8846
  188SOL    HW2  564   0.574   2.030   0.406 -1.2353 -0.7868  0.6303
  189SOL     OW  565   2.543   1.047   0.294  0.3755 -0.2030 -0.0486
  189SOL    HW1  566   2.581   0.958   0.330  0.7720  0.5519  1.3421
  189SOL    HW2  567   2.585   1.130   0.339 -1.5848 -1.4619 -1.5944
  190SOL     OW  568   1.188   1.680   2.056  0.0967  0.3693 -0.1744
  190SOL    HW1  569   1.136   1.763   2.062  2.6334  2.2837 -0.2735
  190SOL    HW2  570   1.136   1.609   2.006  0.7872 -0.1828 -1.0447
  191SOL     OW  571   2.846   0.455   1.445 -0.2537  0.0254 -0.4660
  191SOL    HW1  572   2.799   0.492   1.363 -1.4544 -0.5725 -1.1772
  191SOL    HW2  573   2.820   0.510   1.524  2.2377 -1.6921 -1.0522
  192SOL     OW  574   2.179   0.405   1.795 -0.1857  0.4325 -0.7635
  192SOL    HW1  575   2.160   0.307   1.783 -1.2380  0.0767 -0.6533
  192SOL    HW2  576   2.168   0.439   1.891 -0.7595 -2.5719  2.0442
  193SOL     OW  577   0.575   0.529   0.437 -0.4710 -0.4706 -0.1130
  193SOL    HW1  578   0.567   0.508   0.540  0.0966 -0.5213  0.7340
  193SOL    HW2  579   0.623   0.621   0.421 -0.8811 -0.0097  1.3194
  194SOL     OW  580   1.628   2.501   1.741  0.0499  0.0181 -0.3829
  194SOL    HW1  581   1.710   2.491   1.798 -0.2013  0.8510  1.2949
  194SOL    HW2  582   1.590   2.408   1.720 -0.3499 -0.3708  0.2874
  195SOL     OW  583   2.339   0.614   0.827 -0.0661 -0.3855  0.4280
  195SOL    HW1  584   2.330   0.543   0.755  0.6164 -0.3349  1.3787
  195SOL    HW2  585   2.373   0.699   0.782  0.2253 -2.7276  0.3958
  196SOL     OW  586   1.813   2.133   2.147  0.7448  0.0157 -0.1106
  196SOL    HW1  587   1.812   2.086   2.241  0.9438  0.3850  3.2913
  196SOL    HW2  588   1.881   2.210   2.148  0.1874  0.7154 -1.3384
  197SOL     OW  589   0.335   0.122   0.050 -0.1974  0.1757  0.5288
  197SOL    HW1  590   0.374   0.033   0.077  2.6120  0.5516 -1.1047
  197SOL    HW2  591   0.252   0.124   3.097  0.2496 -0.0605  1.5529
  198SOL     OW  592   1.125   1.219   0.725 -0.2814  0.2140 -0.9093
  198SOL    HW1  593   1.139   1.318   0.711  0.4446  1.5070  0.3197
  198SOL    HW2  594   1.047   1.179   0.678  1.8187 -1.0525  2.6440
  199SOL     OW  595   2.463   0.795   1.823  0.3836 -0.0911  0.0407
  199SOL    HW1  596   2.522   0.719   1.859 -0.0115 -0.0923 -0.4753
  199SOL    HW2  597   2.517   0.880   1.805  0.0708  0.4505 -0.2026
  200SOL     OW  598   2.690   2.634   2.255  0.0834 -0.4326  0.1377
  200SOL    HW1  599   2.656   2.732   2.236 -1.4226  4.0693 -1.1741
  200SOL    HW2  600   2.703   2.610   2.357  0.7939 -0.3709 -0.2524
  201SOL     OW  601   2.879   0.213   1.286  0.6409 -0.6881  0.4831
  201SOL    HW1  602   2.823   0.284   1.327  2.5867 -1.0775  1.3869
  201SOL    HW2  603   2.820   0.144   1.241 -0.1149  0.1199 -2.0315
  202SOL     OW  604   1.942   0.560   0.627  0.3124  0.2900 -0.2126
  202SOL    HW1  605   1.862   0.623   0.634  0.2519 -1.2751 -1.8186
  202SOL    HW2  606   1.980   0.542   0.722  1.7390  2.3483 -0.2029
  203SOL     OW  607   1.736   1.802   2.241 -0.6324 -0.2169  0.3145
  203SOL    HW1  608   1.666   1.870   2.218  1.1106  1.1822  1.7035
  203SOL    HW2  609   1.727   1.765   2.331 -0.3620 -1.3316 -0.7754
  204SOL     OW  610   0.881   1.636   2.443 -0.4466 -0.1204  0.2431
  204SOL    HW1  611   0.934   1.563   2.491 -3.4899  2.9955 -0.8890
  204SOL    HW2  612   0.938   1.700   2.383  2.9652  1.1647 -2.2015
  205SOL     OW  613   0.774   1.822   1.417  0.3042  0.4164 -0.1723
  205SOL    HW1  614   0.783   1.738   1.359  1.0595  1.0644 -2.0249
  205SOL    HW2  615   0.681   1.828   1.460  2.9154 -0.1330  1.1729
  206SOL     OW  616   2.884   0.423   3.062 -0.1692  0.1373  1.0852
  206SOL    HW1  617   2.912   0.509   3.020  1.6913 -1.3712  1.3863
  206SOL    HW2  618   2.802   0.437   0.014  4.1287  2.0649  0.2571
  207SOL     OW  619   1.624   2.575   2.111 -0.0368  0.4001  0.7257
  207SOL    HW1  620   1.690   2.645   2.074 -0.9159  1.0522 -2.0645
  207SOL    HW2  621   1.647   2.479   2.083 -1.6753 -4.1739  0.3292
  208SOL     OW  622   0.674   2.394   1.324 -0.4611 -0.5334  0.0438
  208SOL    HW1  623   0.673   2.496   1.338 -0.8828  2.5726  0.3803
  208SOL    HW2  624   0.616   2.369   1.241  0.2143 -2.6395  0.7461
  209SOL     OW  625   1.376   1.130   2.201  0.1058  0.4667  0.4597
  209SOL    HW1  626   1.428   1.214   2.172  0.1047 -0.5409  2.4967
  209SOL    HW2  627   1.314   1.148   2.280  0.5623 -1.7493 -4.7239
  210SOL     OW  628   1.764   0.888   1.402 -0.1936  0.3625  0.2656
  210SOL    HW1  629   1.727   0.906   1.307 -1.2837  1.2608 -1.3927
  210SOL    HW2  630   1.762   0.792   1.431 -1.7697 -1.1322 -1.7354
  211SOL     OW  631   0.776   2.912   0.451 -0.1993 -0.1320  0.0648
  211SOL    HW1  632   0.738   2.926   0.359 -1.1673  0.0852  2.8819
  211SOL    HW2  633   0.800   3.003   0.493 -0.3987  0.4161 -1.0734
  212SOL     OW  634   1.828   1.685   0.089 -0.1002 -0.4844 -0.1149
  212SOL    HW1  635   1.795   1.724   0.002 -1.5940  0.7115 -2.2814
  212SOL    HW2  636   1.895   1.607   0.085 -0.3205  0.8133 -0.9206
  213SOL     OW  637   1.358   0.229   2.520 -0.6555 -0.3841  0.0733
  213SOL    HW1  638   1.416   0.309   2.515 -1.5677 -3.6647  1.7888
  213SOL    HW2  639   1.396   0.149   2.576  0.3850 -1.7209  1.0278
  214SOL     OW  640   1.472   1.667   2.049 -0.1842  0.0659 -0.1397
  214SOL    HW1  641   1.497   1.760   2.097 -3.3129  3.4199  0.4586
  214SOL    HW2  642   1.372   1.653   2.036 -4.5769 -1.9366  2.1931
  215SOL     OW  643   0.817   1.773   0.240  0.4182 -0.4841 -0.5390
  215SOL    HW1  644   0.850   1.871   0.230  2.1581 -0.4277  0.1171
  215SOL    HW2  645   0.765   1.765   0.330 -2.4855  1.5049  0.4056
  216SOL     OW  646   0.355   2.846   2.264  0.4471  0.1797 -0.6428
  216SOL    HW1  647   0.423   2.916   2.245 -0.0632 -0.8324 -0.5201
  216SOL    HW2  648   0.289   2.873   2.330  0.7208 -0.8968 -0.5847
  217SOL     OW  649   2.223   1.131   0.907 -0.1561  0.8842 -0.3440
  217SOL    HW1  650   2.242   1.227   0.884 -0.5127 -3.1763 -1.9479
  217SOL    HW2  651   2.187   1.081   0.830  2.5030  1.7977  2.4412
  218SOL     OW  652   1.839   1.744   1.736 -0.1475  0.3688 -0.2419
  218SOL    HW1  653   1.872   1.756   1.833  1.0266 -3.0912 -0.1559
  218SOL    HW2  654   1.903   1.785   1.665 -1.5817  0.0589  1.3355
  219SOL     OW  655   1.889   1.385   2.896  0.2895  0.1567  0.3379
  219SOL    HW1  656   1.898   1.411   2.795 -1.5844 -0.4299 -0.8074
  219SOL    HW2  657   1.789   1.365   2.919 -1.0115  1.6095  2.3699
  220SOL     OW  658   1.518   1.471   1.100  0.3831 -0.4832 -0.1942
  220SOL    HW1  659   1.501   1.571   1.113 -2.2013  0.0358  1.6866
  220SOL    HW2  660   1.616   1.453   1.068  0.7317 -2.2754 -0.7568
  221SOL     OW  661   0.755   0.607   0.019  0.0341  0.8111 -0.4788
  221SOL    HW1  662   0.818   0.663   3.071 -0.5953  0.2056  0.4701
  221SOL    HW2  663   0.670   0.578   3.078  1.6556 -0.2436  0.5290
  222SOL     OW  664   0.750   1.442   0.851  0.3189  0.1388 -0.0660
  222SOL    HW1  665   0.739   1.350   0.813  0.8915 -0.6827 -2.0838
  222SOL    HW2  666   0.655   1.485   0.856 -0.0096  0.8020  2.1432
  223SOL     OW  667   0.883   2.791   2.728 -0.0943 -0.4313 -0.2405
  223SOL    HW1  668   0.964   2.856   2.717  2.6547  1.7627 -0.4545
  223SOL    HW2  669   0.799   2.838   2.700 -1.6144  1.1049  1.5447
  224SOL     OW  670   2.534   0.320   1.360 -0.1815 -0.3563 -0.2352
  224SOL    HW1  671   2.456   0.365   1.313  0.0825 -1.5546 -1.5621
  224SOL    HW2  672   2.505   0.224   1.374 -1.3125 -0.5766  0.0058
  225SOL     OW  673   0.795   0.485   1.448 -0.1376  0.1444  0.1820
  225SOL    HW1  674   0.809   0.539   1.363  0.2561  1.1067  0.3079
  225SOL    HW2  675   0.873   0.419   1.458 -0.8008  0.5694  0.4983
  226SOL     OW  676   1.519   1.597   2.854 -0.0916 -0.0563  0.1621
  226SOL    HW1  677   1.474   1.643   2.769 -2.0627 -0.8031 -2.3260
  226SOL    HW2  678   1.452   1.589   2.934 -0.2410 -0.0846  1.5584
  227SOL     OW  679   1.205   1.715   1.275  0.4948 -0.3713 -0.3179
  227SOL    HW1  680   1.224   1.632   1.328  1.5516  0.5357  0.0912
  227SOL    HW2  681   1.169   1.790   1.332 -0.6820 -1.2030 -2.0649
  228SOL     OW  682   0.448   1.625   0.641  0.2706  0.5556 -0.8776
  228SOL    HW1  683   0.435   1.523   0.624  1.6328 -1.1477 -1.1072
  228SOL    HW2  684   0.479   1.633   0.736 -0.5013 -0.3280 -0.5945
  229SOL     OW  685   1.045   0.252   3.104 -0.0122 -0.0070  0.5215
  229SOL    HW1  686   1.040   0.330   3.034 -2.7983  0.0689 -1.6685
  229SOL    HW2  687   0.990   0.267   0.082  0.3972  1.4310  2.7815
  230SOL     OW  688   1.085   0.649   2.152  0.4133  0.1839 -0.2077
  230SOL    HW1  689   0.986   0.617   2.162 -0.9881 -1.2705  0.7053
  230SOL    HW2  690   1.143   0.593   2.215  0.2373 -2.4130 -0.8745
  231SOL     OW  691   0.979   1.852   2.301 -0.4582 -0.0352 -0.3569
  231SOL    HW1  692   1.016   1.931   2.348  0.6897  0.3164 -1.2269
  231SOL    HW2  693   0.933   1.874   2.215 -0.4668  0.4772  0.7413
  232SOL     OW  694   2.498   1.915   0.969 -0.0371 -0.4345 -0.1810
  232SOL    HW1  695   2.598   1.929   0.950  0.9456 -1.1753 -1.1549
  232SOL    HW2  696   2.481   1.918   1.070  2.4987 -1.0787 -0.8163
  233SOL     OW  697   2.125   2.817   0.258 -0.0993  0.1955  0.0048
  233SOL    HW1  698   2.143   2.917   0.251  0.2396 -1.4590 -0.6076
  233SOL    HW2  699   2.162   2.768   0.177 -1.1532  1.4627 -1.2452
  234SOL     OW  700   0.944   0.192   2.746 -0.1141 -0.1313 -0.3408
  234SOL    HW1  701   0.937   0.142   2.660 -0.5372 -0.9527  1.3168
  234SOL    HW2  702   0.893   0.143   2.820 -1.2320  0.1128  1.3364
  235SOL     OW  703   2.366   2.951   2.979 -0.1826 -0.1808 -0.2118
  235SOL    HW1  704   2.448   3.012   2.986  0.0093  1.3618 -0.0639
  235SOL    HW2  705   2.392   2.858   2.953  0.7946  3.5956  1.7567
  236SOL     OW  706   2.232   2.454   2.292  0.6656  0.7352  0.2174
  236SOL    HW1  707   2.296   2.509   2.353  0.6051 -0.8074  0.1925
  236SOL    HW2  708   2.139   2.444   2.340 -2.5712  0.6664  3.5240
  237SOL     OW  709   0.876   1.466   2.229  0.0965  0.7458  0.1826
  237SOL    HW1  710   0.848   1.525   2.308  0.3169 -1.5109  4.5442
  237SOL    HW2  711   0.936   1.384   2.257  0.4077 -2.4662  0.9894
  238SOL     OW  712   1.942   0.206   2.488 -0.1822 -0.1788  0.5149
  238SOL    HW1  713   1.888   0.128   2.530  0.8197  2.5185 -0.6384
  238SOL    HW2  714   1.993   0.258   2.558 -0.8468 -0.2434 -2.8548
  239SOL     OW  715   3.076   1.745   1.581  0.5179 -0.3836  0.0708
  239SOL    HW1  716   0.071   1.747   1.590  0.2008  1.2199  1.8159
  239SOL    HW2  717   3.033   1.743   1.673 -0.6278 -1.2975  1.9654
  240SOL     OW  718   2.867   2.612   0.720  0.2166 -0.3831  0.0057
  240SOL    HW1  719   2.941   2.544   0.701 -1.2508  1.0558 -1.1470
  240SOL    HW2  720   2.821   2.641   0.631  0.1138 -1.3054  1.8288
  241SOL     OW  721   2.117   1.522   0.566  0.5991  0.2571 -0.2489
  241SOL    HW1  722   2.149   1.550   0.472  0.0776 -1.2703 -0.0933
  241SOL    HW2  723   2.097   1.425   0.574  2.5884  3.9449 -1.7396
  242SOL     OW  724   1.369   1.729   2.643 -0.1924  0.7031  0.3014
  242SOL    HW1  725   1.295   1.662   2.638 -1.9229  3.7141 -1.0130
  242SOL    HW2  726   1.343   1.816   2.688  1.5000 -0.1179  1.2232
  243SOL     OW  727   0.563   2.546   2.004 -0.6203  0.2969 -0.4395
  243SOL    HW1  728   0.496   2.560   2.083 -1.9453  0.0901  1.4845
  243SOL    HW2  729   0.628   2.628   2.000 -3.1584  1.1549 -0.0416
  244SOL     OW  730   2.192   0.046   2.816  0.3350  0.3699 -0.3011
  244SOL    HW1  731   2.125   0.022   2.743  0.3231 -0.2440 -0.1262
  244SOL    HW2  732   2.262   3.078   2.823 -1.1471  0.9824 -1.7464
  245SOL     OW  733   1.479   2.756   0.845 -0.5364  0.2318  0.2425
  245SOL    HW1  734   1.460   2.790   0.943  0.2963 -0.6216  0.8149
  245SOL    HW2  735   1.392   2.721   0.804  0.4800  0.5791  0.7225
  246SOL     OW  736   1.564   2.664   0.126 -0.1852 -0.7950  0.1128
  246SOL    HW1  737   1.629   2.680   0.205  3.2078  0.8047  1.5783
  246SOL    HW2  738   1.616   2.652   0.033 -0.0341 -0.9236 -1.2974
  247SOL     OW  739   0.837   0.543   2.211  0.3775  0.3950 -0.2389
  247SOL    HW1  740   0.766   0.591   2.152  0.8375 -0.4479  0.1556
  247SOL    HW2  741   0.819   0.440   2.212  0.8702  0.4663 -0.6855
  248SOL     OW  742   0.709   1.671   2.149  0.0068  0.1196 -0.4381
  248SOL    HW1  743   0.774   1.593   2.157  0.3811 -1.3784 -3.2913
  248SOL    HW2  744   0.734   1.719   2.062  3.1710 -0.0579  0.0072
  249SOL     OW  745   2.277   0.579   0.353 -0.5139  0.2394  0.0272
  249SOL    HW1  746   2.323   0.493   0.330 -1.6774  2.8900  2.4391
  249SOL    HW2  747   2.180   0.571   0.337  0.7908 -0.6692 -3.6943
  250SOL     OW  748   0.793   3.029   0.821  0.6192 -0.0025 -0.2118
  250SOL    HW1  749   0.749   3.051   0.905  0.3384  0.1082 -1.3492
  250SOL    HW2  750   0.806   3.106   0.758  1.6493 -0.1944 -1.7008
  251SOL     OW  751   1.616   0.272   2.698  0.3261  0.1801 -0.2931
  251SOL    HW1  752   1.683   0.351   2.688  1.0864  1.9556 -1.9990
  251SOL    HW2  753   1.644   0.188   2.643 -0.2270 -1.7110  1.1923
  252SOL     OW  754   1.862   1.718   2.008  0.6136  0.2865  0.3935
  252SOL    HW1  755   1.873   1.624   2.035 -0.0810  1.3786 -1.5151
  252SOL    HW2  756   1.788   1.764   2.060 -2.7879  0.2419 -0.7198
  253SOL     OW  757   2.601   2.304   1.652 -0.1959 -0.2341  0.4404
  253SOL    HW1  758   2.652   2.350   1.726 -3.8651  0.7968 -0.9469
  253SOL    HW2  759   2.660   2.244   1.600 -0.6368  0.7568 -0.6983
  254SOL     OW  760   0.160   1.360   1.278 -0.2246  0.3486 -0.3081
  254SOL    HW1  761   0.091   1.297   1.235  0.9684 -3.2863  3.6559
  254SOL    HW2  762   0.136   1.379   1.375 -2.1053  1.4291  0.4276
  255SOL     OW  763   0.782   0.931   1.310 -0.2495  0.7304 -0.3228
  255SOL    HW1  764   0.810   0.840   1.284 -2.3855  1.0621  0.5230
  255SOL    HW2  765   0.681   0.947   1.304 -0.1053  1.9383 -0.8767
  256SOL     OW  766   1.980   2.569   1.695 -0.2938  0.1969  0.1216
  256SOL    HW1  767   1.950   2.654   1.748  0.5047  1.1335 -0.2208
  256SOL    HW2  768   2.030   2.512   1.757  0.0601  0.7963  1.8190
  257SOL     OW  769   0.592   2.739   2.915  0.0184  0.2455 -0.0120
  257SOL    HW1  770   0.694   2.727   2.937 -2.7335  0.1988  0.7805
  257SOL    HW2  771   0.547   2.647   2.917  2.7526 -1.7640 -1.1655
  258SOL     OW  772   0.809   2.440   0.223  0.0480  0.2207 -0.2944
  258SOL    HW1  773   0.742   2.400   0.287  0.8017 -0.1531  0.4173
  258SOL    HW2  774   0.800   2.538   0.228 -0.5822 -1.4173 -0.8310
  259SOL     OW  775   0.994   0.230   2.089  0.1179  0.1947  0.5414
  259SOL    HW1  776   1.087   0.270   2.071 -3.8171  0.0231 -0.3041
  259SOL    HW2  777   0.925   0.282   2.031 -1.8103  2.3044 -0.2437
  260SOL     OW  778   1.622   0.624   1.069 -0.0691 -0.2458  0.0041
  260SOL    HW1  779   1.682   0.549   1.100  1.7241  0.2875  2.6129
  260SOL    HW2  780   1.571   0.657   1.150  1.0695 -0.8895 -0.7008
  261SOL     OW  781   0.605   0.546   2.630  0.1393 -0.2587 -0.0949
  261SOL    HW1  782   0.544   0.490   2.684 -1.4556  1.8598 -0.4069
  261SOL    HW2  783   0.698   0.517   2.640 -4.0489  0.7995  0.8623
  262SOL     OW  784   0.082   2.361   1.996  0.6389 -0.1991  0.4474
  262SOL    HW1  785   0.067   2.440   2.056  0.2001 -1.6523  2.8213
  262SOL    HW2  786   0.107   2.281   2.051 -2.5841 -0.4839 -1.9598
  263SOL     OW  787   2.968   1.623   2.218  0.0288 -0.2477 -0.4790
  263SOL    HW1  788   3.019   1.688   2.155 -0.9274  0.9076 -1.0217
  263SOL    HW2  789   3.030   1.558   2.266  0.6505 -1.8393 -1.2053
  264SOL     OW  790   0.476   0.849   0.890 -0.2694  0.0743 -0.2702
  264SOL    HW1  791   0.412   0.905   0.834  1.5843 -0.3705 -4.0822
  264SOL    HW2  792   0.436   0.797   0.970 -0.3127 -2.0633  4.4875
  265SOL     OW  793   1.243   2.442   0.942  0.1407  0.2394 -0.3845
  265SOL    HW1  794   1.139   2.455   0.956 -1.8306  1.2708  2.2191
  265SOL    HW2  795   1.263   2.344   0.962  1.0887 -1.4568 -0.0397
  266SOL     OW  796   1.611   0.956   1.189 -0.4464 -0.0365 -0.1930
  266SOL    HW1  797   1.546   0.883   1.208  0.9270  0.1347 -0.5129
  266SOL    HW2  798   1.561   1.045   1.177  1.9036  0.6129  2.7660
  267SOL     OW  799   2.794   1.188   0.014  0.2149  0.4173  0.1619
  267SOL    HW1  800   2.851   1.155   0.088 -0.6983  0.1255 -0.8855
  267SOL    HW2  801   2.703   1.134   0.010 -1.6399 -0.9892 -0.4231
  268SOL     OW  802   1.562   0.389   0.336  0.1408 -0.1213 -0.3494
  268SOL    HW1  803   1.640   0.394   0.404  1.9673 -1.5376 -0.6515
  268SOL    HW2  804   1.557   0.482   0.289  0.4463  0.3107 -0.0283
  269SOL     OW  805   2.052   0.741   2.810  0.0972 -0.5335 -0.0685
  269SOL    HW1  806   2.089   0.712   2.900 -1.3195 -2.6733  0.6646
  269SOL    HW2  807   1.987   0.820   2.822 -2.1048  1.1187  0.8072
  270SOL     OW  808   3.079   0.962   0.060  0.3443  0.6414 -0.5658
  270SOL    HW1  809   0.044   1.031   0.048 -0.7029 -0.9044  1.3151
  270SOL    HW2  810   0.016   0.868   0.063  0.0383 -0.8356 -1.5316
  271SOL     OW  811   2.695   0.834   0.363 -0.2791  0.0268  0.2098
  271SOL    HW1  812   2.754   0.801   0.437 -1.6990  0.9410 -1.3537
  271SOL    HW2  813   2.748   0.851   0.276  1.6406  1.6052 -0.1175
  272SOL     OW  814   2.970   2.638   0.114  0.2821  0.1427 -0.5332
  272SOL    HW1  815   2.932   2.610   0.020 -0.3770  1.7492  0.0987
  272SOL    HW2  816   2.943   2.573   0.184 -2.5960  1.0494 -2.2619
  273SOL     OW  817   2.606   2.874   0.333  0.0629 -0.0233 -0.2050
  273SOL    HW1  818   2.592   2.946   0.405  0.8682  2.6611 -2.3552
  273SOL    HW2  819   2.536   2.798   0.336 -0.2181 -0.9008 -0.8646
  274SOL     OW  820   0.542   2.366   1.081 -0.1879 -0.1319 -0.0059
  274SOL    HW1  821   0.549   2.470   1.072  0.7315  2.0797 -1.9477
  274SOL    HW2  822   0.573   2.322   0.993 -0.2768  1.5232 -1.3834
  275SOL     OW  823   2.878   1.595   0.365 -0.0631 -0.3055 -0.4858
  275SOL    HW1  824   2.925   1.511   0.327  3.4411 -2.0668  0.2684
  275SOL    HW2  825   2.794   1.618   0.315  3.8110 -0.3348  1.1284
  276SOL     OW  826   3.017   1.118   2.011 -0.8747 -0.7280  0.4500
  276SOL    HW1  827   2.918   1.134   2.030 -0.6333  1.0556 -3.9616
  276SOL    HW2  828   3.027   1.111   1.906  1.4166 -0.7683 -1.6878
  277SOL     OW  829   2.224   0.002   1.279  0.1223  0.0029  0.4196
  277SOL    HW1  830   2.194   3.018   1.235 -1.0826 -1.1924 -0.0154
  277SOL    HW2  831   2.169   0.073   1.233  2.2507 -0.7354 -1.6362
  278SOL     OW  832   1.356   2.397   2.116 -0.6204 -0.2350 -0.6393
  278SOL    HW1  833   1.372   2.488   2.078  3.4309 -4.2303 -2.5555
  278SOL    HW2  834   1.287   2.401   2.182  3.9831  1.5377 -0.6809
  279SOL     OW  835   1.674   1.850   0.385  0.2297 -0.2232 -0.5913
  279SOL    HW1  836   1.739   1.770   0.376  2.3891  0.3094 -0.4847
  279SOL    HW2  837   1.585   1.839   0.333  1.1175  0.8467  0.8053
  280SOL     OW  838   0.327   1.534   1.189  0.5679  0.0500 -0.1254
  280SOL    HW1  839   0.255   1.609   1.172 -0.4160  1.6878 -0.8567
  280SOL    HW2  840   0.283   1.459   1.242 -0.9368 -1.6178 -1.6946
  281SOL     OW  841   3.043   0.924   2.373  0.1805 -0.2448 -0.0666
  281SOL    HW1  842   3.043   0.837   2.323 -1.6033 -1.0158  1.2432
  281SOL    HW2  843   3.099   0.909   2.458  0.2370 -2.2953  1.0620
  282SOL     OW  844   0.704   1.201   0.714  0.3101 -0.2197  0.1628
  282SOL    HW1  845   0.637   1.187   0.638  1.7405  1.1561  2.5702
  282SOL    HW2  846   0.778   1.132   0.717  0.4348 -0.8395  1.0330
  283SOL     OW  847   1.988   2.257   0.250  0.0836 -0.0894 -0.1670
  283SOL    HW1  848   1.946   2.346   0.277 -2.8701  0.1577 -0.4870
  283SOL    HW2  849   1.999   2.202   0.335 -1.5878  0.1816 -1.5523
  284SOL     OW  850   1.081   0.080   0.345  0.3806  0.0063  0.2809
  284SOL    HW1  851   1.081   3.103   0.287  0.6517  1.0795  0.5534
  284SOL    HW2  852   1.007   0.146   0.323  0.9185 -0.4494  1.2178
  285SOL     OW  853   2.258   1.139   2.878  0.0887 -0.0452 -0.3219
  285SOL    HW1  854   2.323   1.062   2.852  2.5893 -3.0460 -3.0128
  285SOL    HW2  855   2.311   1.217   2.918  0.0079 -1.3377  0.0061
  286SOL     OW  856   2.034   2.238   1.129  0.1655 -0.0354  0.1626
  286SOL    HW1  857   1.996   2.335   1.142 -2.9036 -0.6900 -0.5484
  286SOL    HW2  858   2.004   2.188   1.213  1.0934  1.9956 -2.0462
  287SOL     OW  859   1.199   0.522   0.567 -0.3166  0.4303  0.7589
  287SOL    HW1  860   1.240   0.461   0.493  1.1901  0.2922 -2.4620
  287SOL    HW2  861   1.273   0.583   0.604 -0.6834  4.4922  0.8121
  288SOL     OW  862   1.156   2.229   2.867  0.2335  0.2004 -0.0017
  288SOL    HW1  863   1.055   2.218   2.880 -3.1469  0.0744 -1.1229
  288SOL    HW2  864   1.206   2.269   2.949  1.9492 -0.1319 -0.0358
  289SOL     OW  865   3.046   1.468   1.481 -0.2154  0.1708  0.8323
  289SOL    HW1  866   3.037   1.565   1.499  1.2243 -0.2464  0.4628
  289SOL    HW2  867   0.021   1.434   1.530  0.5805 -0.0756  0.8398
  290SOL     OW  868   1.589   2.162   0.901  0.1655  0.0349  0.0784
  290SOL    HW1  869   1.565   2.155   0.997  1.1665 -1.5856 -1.0286
  290SOL    HW2  870   1.689   2.138   0.887 -0.4646 -0.5593 -0.0287
  291SOL     OW  871   1.685   3.081   2.967 -0.2275  0.0596 -0.9561
  291SOL    HW1  872   1.693   0.062   3.014 -0.4083 -2.3512 -1.1905
  291SOL    HW2  873   1.744   3.013   3.014 -0.9252  2.7701 -0.9574
  292SOL     OW  874   0.855   0.341   1.882 -0.1741  0.0814  0.3736
  292SOL    HW1  875   0.913   0.299   1.808 -0.6582 -1.7148  0.7204
  292SOL    HW2  876   0.791   0.410   1.842  2.4024 -1.3859 -0.5105
  293SOL     OW  877   2.407   2.583   0.845 -0.0575  0.0953 -0.0826
  293SOL    HW1  878   2.384   2.536   0.758 -0.2732  0.6921 -1.3131
  293SOL    HW2  879   2.493   2.546   0.880 -0.4574  0.8410 -3.7364
  294SOL     OW  880   0.455   0.877   2.361  0.6078 -0.2510  0.0645
  294SOL    HW1  881   0.359   0.849   2.383  0.9079 -1.0058 -0.9131
  294SOL    HW2  882   0.480   0.844   2.267  0.9879  0.2819  0.6696
  295SOL     OW  883   1.760   1.429   0.986 -0.2410  0.2689 -0.5339
  295SOL    HW1  884   1.810   1.341   1.002  4.2411 -3.3390  0.1184
  295SOL    HW2  885   1.797   1.478   0.908 -3.8246 -1.8135  2.0347
  296SOL     OW  886   2.649   1.797   0.266 -1.1795  0.3527 -0.3345
  296SOL    HW1  887   2.550   1.814   0.258  1.8891  1.1030  0.0390
  296SOL    HW2  888   2.702   1.869   0.210 -0.7863 -2.9015 -0.5266
  297SOL     OW  889   1.869   0.093   0.257 -0.0327  0.2012 -0.5624
  297SOL    HW1  890   1.794   0.103   0.189 -2.4360  2.2102 -2.2576
  297SOL    HW2  891   1.956   0.064   0.214  1.1014 -1.1387  0.5045
  298SOL     OW  892   0.909   2.541   2.618  0.1069 -0.3933  0.4137
  298SOL    HW1  893   0.992   2.492   2.652 -2.4277 -0.5564 -1.3877
  298SOL    HW2  894   0.887   2.632   2.657 -1.1710 -2.6883 -0.2155
  299SOL     OW  895   1.233   2.152   2.027  0.3267  0.4014 -0.9717
  299SOL    HW1  896   1.288   2.117   1.947 -2.2639 -1.4172  1.4912
  299SOL    HW2  897   1.269   2.239   2.063 -0.3303 -0.0774  0.6541
  300SOL     OW  898   2.541   0.070   2.975 -0.3906  0.5155  0.0480
  300SOL    HW1  899   2.565   0.104   3.071 -2.1545  3.3324  0.6428
  300SOL    HW2  900   2.463   0.123   2.937  3.1788  0.4991 -0.4298
  301SOL     OW  901   1.058   1.214   1.890 -0.9555 -0.0232  0.0475
  301SOL    HW1  902   1.057   1.316   1.897  0.8502  0.9968 -0.6620
  301SOL    HW2  903   1.149   1.175   1.921  1.2329 -0.8504 -1.1418
  302SOL     OW  904   2.755   2.446   0.453  0.3118  0.8530 -0.1972
  302SOL    HW1  905   2.777   2.366   0.513 -2.9999 -0.3406  0.5416
  302SOL    HW2  906   2.833   2.509   0.447 -1.1063 -2.1484  0.4180
  303SOL     OW  907   2.574   2.516   2.012 -0.4649  0.1228  0.0284
  303SOL    HW1  908   2.637   2.440   1.980  2.0716 -0.3686  1.3748
  303SOL    HW2  909   2.600   2.551   2.102 -0.0366 -2.3487 -3.6813
  304SOL     OW  910   0.073   0.824   1.834  0.4979 -0.4063 -0.1898
  304SOL    HW1  911   0.060   0.725   1.822 -0.1820  0.7204  0.3733
  304SOL    HW2  912   0.008   0.877   1.780  0.5015  2.5256 -0.3203
  305SOL     OW  913   0.640   1.491   1.498 -0.1827  0.7115  0.1581
  305SOL    HW1  914   0.737   1.494   1.529 -0.5842 -1.2003 -1.2118
  305SOL    HW2  915   0.625   1.465   1.398 -0.8497 -0.1500 -0.0144
  306SOL     OW  916   0.208   1.448   2.089  0.2077 -0.5060 -0.6969
  306SOL    HW1  917   0.199   1.375   2.022  0.0932  0.1719  0.1198
  306SOL    HW2  918   0.304   1.463   2.123 -1.2414 -0.9979 -0.5573
  307SOL     OW  919   0.886   1.002   1.948 -0.6640  0.2730  0.2782
  307SOL    HW1  920   0.908   1.096   1.923  0.5119  0.4819  1.7031
  307SOL    HW2  921   0.973   0.943   1.950  0.4933  1.5521 -1.5277
  308SOL     OW  922   0.052   1.117   1.126  0.5163 -0.9486 -0.1543
  308SOL    HW1  923   0.058   1.041   1.057  0.4042 -0.5322 -0.4265
  308SOL    HW2  924   0.057   1.068   1.212 -0.7165  0.3790  1.0213
  309SOL     OW  925   2.599   1.148   1.119  0.5840 -0.4435  0.0449
  309SOL    HW1  926   2.697   1.167   1.131 -0.4035 -1.8611 -0.9837
  309SOL    HW2  927   2.577   1.090   1.041  1.0265  2.3159  0.5449
  310SOL     OW  928   2.774   2.279   2.617  0.1392 -0.2900 -0.3273
  310SOL    HW1  929   2.795   2.184   2.655 -0.2167  0.0475  0.0837
  310SOL    HW2  930   2.678   2.294   2.610  3.5798 -3.5291 -0.8236
  311SOL     OW  931   2.696   2.791   2.749 -0.2150 -0.5531  0.2946
  311SOL    HW1  932   2.791   2.826   2.747 -0.5975  2.0468  0.4746
  311SOL    HW2  933   2.646   2.827   2.671  0.5358  1.3519  0.7476
  312SOL     OW  934   2.375   1.833   0.244  0.5694  0.5516  0.1708
  312SOL    HW1  935   2.350   1.930   0.258 -1.4299 -1.3693 -0.4629
  312SOL    HW2  936   2.339   1.800   0.155 -0.2599  1.1790  0.2040
  313SOL     OW  937   2.601   3.039   0.571 -0.1054 -0.7784 -0.7217
  313SOL    HW1  938   2.562   2.957   0.619 -1.5109  0.4651 -0.3065
  313SOL    HW2  939   2.694   3.059   0.608 -2.2628 -0.6555  0.0483
  314SOL     OW  940   1.694   1.307   0.160  0.2465  0.3250 -0.4825
  314SOL    HW1  941   1.619   1.276   0.097 -1.6010  0.3086 -0.1967
  314SOL    HW2  942   1.646   1.338   0.250 -0.4416 -0.2317  1.2085
  315SOL     OW  943   1.370   2.890   1.952  0.0301 -0.1663 -0.6946
  315SOL    HW1  944   1.281   2.937   1.964  0.5852  1.4467  0.3646
  315SOL    HW2  945   1.433   2.948   1.899 -0.8779  0.2751 -0.1764
  316SOL     OW  946   2.675   0.729   3.068 -0.7020 -0.1730  0.3669
  316SOL    HW1  947   2.763   0.731   0.011  2.1325  1.2480  1.3884
  316SOL    HW2  948   2.615   0.666   0.009  2.7498 -0.5053  0.4254
  317SOL     OW  949   0.422   2.990   0.133  0.4594 -0.1778 -0.2068
  317SOL    HW1  950   0.345   2.948   0.180  2.1685  1.3862 -4.8047
  317SOL    HW2  951   0.421   2.968   0.034 -0.3076  0.6959  2.4445
  318SOL     OW  952   2.290   2.792   0.708 -0.6746 -0.6373 -0.0178
  318SOL    HW1  953   2.286   2.738   0.795  0.3786 -3.1958 -1.9853
  318SOL    HW2  954   2.209   2.766   0.651  2.0053  3.1964  2.5787
  319SOL     OW  955   1.050   1.861   2.919 -0.5716  0.5363  0.2247
  319SOL    HW1  956   0.985   1.919   2.973  0.0655  1.7056  3.5845
  319SOL    HW2  957   1.017   1.768   2.916  0.5558 -0.7706 -1.6789
  320SOL     OW  958   0.467   2.106   1.911  0.4247 -0.6698 -0.4936
  320SOL    HW1  959   0.409   2.186   1.935  1.3907  0.7067  1.7427
  320SOL    HW2  960   0.471   2.043   1.990 -1.0144  2.5810 -0.4077
  321SOL     OW  961   1.254   0.075   2.277  0.2581  0.8021  0.4316
  321SOL    HW1  962   1.250   0.173   2.247  1.2409  0.1951 -2.7237
  321SOL    HW2  963   1.346   0.051   2.310  0.1522 -0.7326 -1.4290
  322SOL     OW  964   2.770   1.440   2.176 -0.2151  0.0204  0.3757
  322SOL    HW1  965   2.846   1.507   2.179 -2.9369 -1.1312 -1.1350
  322SOL    HW2  966   2.690   1.477   2.225  0.8217 -0.6415 -0.8050
  323SOL     OW  967   2.331   1.161   1.158 -0.2805  0.3513 -0.1937
  323SOL    HW1  968   2.330   1.158   1.059 -2.2486  3.4303  0.0885
  323SOL    HW2  969   2.427   1.155   1.190 -3.9171  2.4238  1.6198
  324SOL     OW  970   2.789   0.148   2.240  0.0214  0.2796  0.3005
  324SOL    HW1  971   2.739   0.146   2.336 -2.8192  1.0093  2.1938
  324SOL    HW2  972   2.719   0.156   2.168 -0.8965  0.3456 -3.2765
  325SOL     OW  973   1.082   0.680   2.651 -0.4214 -0.4499 -0.2022
  325SOL    HW1  974   1.070   0.631   2.559  1.1202  0.8419 -2.6994
  325SOL    HW2  975   0.992   0.712   2.683  2.8636 -2.9475 -0.9543
  326SOL     OW  976   1.699   2.838   1.935 -0.2148  0.2006 -0.2280
  326SOL    HW1  977   1.640   2.879   1.863 -1.1826 -1.4698 -2.0616
  326SOL    HW2  978   1.789   2.812   1.894 -0.5307 -3.0054 -0.6090
  327SOL     OW  979   2.086   0.384   0.133  0.0907 -0.0579 -0.1569
  327SOL    HW1  980   2.042   0.450   0.197  0.1320  2.1011  1.2390
  327SOL    HW2  981   2.188   0.397   0.145  2.5553 -1.5751 -0.0131
  328SOL     OW  982   0.258   1.537   2.585  0.6011 -0.4618  0.6527
  328SOL    HW1  983   0.265   1.459   2.520 -0.6075  0.2949  1.0612
  328SOL    HW2  984   0.165   1.548   2.625 -1.2370  1.2380 -0.8242
  329SOL     OW  985   2.119   0.132   1.847 -0.2051 -0.7199 -0.4890
  329SOL    HW1  986   2.115   0.065   1.774 -2.4156 -0.6290 -0.4109
  329SOL    HW2  987   2.210   0.138   1.895  0.7222  1.7860 -1.8857
  330SOL     OW  988   0.125   1.287   0.789  0.1138  0.1735  0.4529
  330SOL    HW1  989   0.116   1.385   0.830  0.0580  1.2767 -0.6379
  330SOL    HW2  990   0.059   1.266   0.716  2.1844 -1.1223 -0.3352
  331SOL     OW  991   0.338   1.785   2.533 -0.4153 -0.0860  0.2580
  331SOL    HW1  992   0.303   1.692   2.558  2.7555  0.5705 -1.1569
  331SOL    HW2  993   0.411   1.772   2.464  2.2600  1.2124  0.2429
  332SOL     OW  994   0.003   3.104   1.547 -0.3605 -0.1149  0.1841
  332SOL    HW1  995   0.008   3.005   1.531  2.0037 -0.3927 -0.0120
  332SOL    HW2  996   0.029   0.058   1.471  2.0775 -0.2055  2.6948
  333SOL     OW  997   2.285   0.144   0.885  0.2065  0.1263 -0.4360
  333SOL    HW1  998   2.183   0.142   0.893 -1.7717  0.8181  0.7460
  333SOL    HW2  999   2.327   0.205   0.954  2.2360  1.2296  0.7639
  334SOL     OW 1000   0.524   1.911   0.782 -0.4002 -0.5438 -0.3394
  334SOL    HW1 1001   0.616   1.910   0.825 -1.4327 -0.4886 -1.0787
  334SOL    HW2 1002   0.533   1.873   0.687  2.5173 -3.3956 -0.3741
  335SOL     OW 1003   0.147   2.576   0.081 -0.3739  0.2795 -0.6729
  335SOL    HW1 1004   0.049   2.594   0.077  1.5953  0.7075 -0.1974
  335SOL    HW2 1005   0.161   2.479   0.088 -2.0596  0.5281 -1.4941
  336SOL     OW 1006   0.169   0.019   2.291  0.7523  0.0486  0.3598
  336SOL    HW1 1007   0.127   3.033   2.303  1.1068  1.6271 -0.8264
  336SOL    HW2 1008   0.131   0.071   2.209 -0.4485 -0.3263 -2.8158
  337SOL     OW 1009   2.488   2.359   2.663 -0.1032  0.2380 -0.0453
  337SOL    HW1 1010   2.441   2.411   2.596 -0.5054  1.4331  1.8922
  337SOL    HW2 1011   2.493   2.411   2.749  0.1014 -1.7333 -0.8849
  338SOL     OW 1012   0.923   0.801   0.903  0.4064 -0.0737 -0.2057
  338SOL    HW1 1013   0.939   0.758   0.815 -0.9192  0.5118  1.5006
  338SOL    HW2 1014   0.838   0.774   0.952  2.2864  1.1686 -0.4158
  339SOL     OW 1015   0.238   0.920   2.019 -0.4265  0.0601 -0.0694
  339SOL    HW1 1016   0.196   0.997   2.068 -1.3167  0.3985  0.6622
  339SOL    HW2 1017   0.166   0.886   1.959 -3.0701 -1.5212 -0.4830
  340SOL     OW 1018   1.687   2.987   0.438 -0.0319  0.2069  0.7041
  340SOL    HW1 1019   1.712   3.002   0.531 -0.2161  0.0590 -0.7415
  340SOL    HW2 1020   1.660   3.072   0.388  0.4260 -1.0438  1.1825
  341SOL     OW 1021   2.068   0.966   1.080  0.3349  0.0568  0.3594
  341SOL    HW1 1022   2.149   1.024   1.049  2.3411  0.9564  0.4304
  341SOL    HW2 1023   2.081   0.942   1.177 -1.0646  1.4995  0.2601
  342SOL     OW 1024   2.257   2.732   0.026 -0.3876 -0.6417  0.0158
  342SOL    HW1 1025   2.271   2.828   3.103 -1.4590 -1.8107  2.0991
  342SOL    HW2 1026   2.348   2.691   0.043 -2.4762 -0.0294 -2.2821
  343SOL     OW 1027   1.391   2.023   1.815  0.3761 -0.0561  0.7492
  343SOL    HW1 1028   1.488   2.004   1.787  0.8117 -0.5233 -1.6036
  343SOL    HW2 1029   1.328   1.948   1.789 -1.3496  1.4039 -1.4738
  344SOL     OW 1030   2.417   2.660   1.173  0.1766 -0.3348  0.0360
  344SOL    HW1 1031   2.333   2.617   1.131 -0.1731 -4.6671 -3.4980
  344SOL    HW2 1032   2.380   2.738   1.223 -0.6880 -1.1348 -0.4786
  345SOL     OW 1033   2.666   2.427   0.018 -0.1348  0.6715  0.0591
  345SOL    HW1 1034   2.679   2.355   3.046  4.1679  1.0224 -1.7190
  345SOL    HW2 1035   2.742   2.428   0.083 -1.1935 -1.9205  0.0086
  346SOL     OW 1036   2.911   1.461   0.606  0.0581  0.7949  0.1583
  346SOL    HW1 1037   2.899   1.526   0.530  0.4051  1.9411  1.0487
  346SOL    HW2 1038   2.841   1.482   0.676  2.0840 -0.1788 -2.8553
  347SOL     OW 1039   1.849   2.119   1.886  0.1114 -0.4725  0.8855
  347SOL    HW1 1040   1.847   2.103   1.981 -0.6540  1.2106 -1.2770
  347SOL    HW2 1041   1.938   2.087   1.844  0.7630 -0.1172  1.3491
  348SOL     OW 1042   0.724   1.693   2.873  0.4724 -0.2786  0.5400
  348SOL    HW1 1043   0.698   1.678   2.776  4.5474 -0.7463 -0.6191
  348SOL    HW2 1044   0.795   1.625   2.903 -0.8701 -1.4001  1.0716
  349SOL     OW 1045   2.454   1.202   1.555  0.1114 -0.3999 -0.5976
  349SOL    HW1 1046   2.481   1.293   1.521  0.5518  0.8430 -0.5109
  349SOL    HW2 1047   2.531   1.138   1.538 -1.2060  2.6320 -0.5929
  350SOL     OW 1048   2.951   2.543   1.231 -0.2004 -0.1951  0.0430
  350SOL    HW1 1049   2.997   2.529   1.321 -1.1334  0.7832 -2.4722
  350SOL    HW2 1050   2.884   2.474   1.220  2.1778  1.2042  2.1714
  351SOL     OW 1051   0.525   0.287   2.194 -0.0865  0.8340 -0.3649
  351SOL    HW1 1052   0.496   0.358   2.262  0.3134 -0.0966  0.5064
  351SOL    HW2 1053   0.623   0.269   2.216  0.9577 -2.0671  1.7844
  352SOL     OW 1054   0.510   1.593   0.911 -0.2833 -0.2780 -0.7228
  352SOL    HW1 1055   0.508   1.656   0.995 -0.6891 -0.4307  2.8059
  352SOL    HW2 1056   0.471   1.501   0.929  1.8649  1.8568  0.0652
  353SOL     OW 1057   1.307   1.664   2.326  0.2919  0.2668  0.0734
  353SOL    HW1 1058   1.303   1.759   2.355  2.6746 -2.0039  0.1972
  353SOL    HW2 1059   1.258   1.651   2.238  1.4169 -3.4553 -3.1383
  354SOL     OW 1060   1.084   0.229   0.952 -0.4866  0.3418 -0.3262
  354SOL    HW1 1061   1.148   0.159   0.982 -0.6838  0.7971 -2.6902
  354SOL    HW2 1062   1.135   0.306   0.907  1.2100 -2.0526 -0.6109
  355SOL     OW 1063   2.477   0.871   0.723  0.1796 -0.1827 -0.3547
  355SOL    HW1 1064   2.545   0.929   0.679 -1.6864 -0.7067  2.2233
  355SOL    HW2 1065   2.427   0.828   0.648  0.7423 -0.7389  2.6483
  356SOL     OW 1066   2.458   1.789   2.374 -0.4361 -0.3577 -0.3815
  356SOL    HW1 1067   2.380   1.743   2.427 -1.7701 -1.4054 -0.0697
  356SOL    HW2 1068   2.454   1.890   2.390 -0.5764  0.5267 -0.6684
  357SOL     OW 1069   0.466   2.779   1.655  0.1419 -0.0259  0.1355
  357SOL    HW1 1070   0.408   2.845   1.594 -4.0061  2.2985 -3.9417
  357SOL    HW2 1071   0.570   2.792   1.653  1.1467  0.4067  0.7022
  358SOL     OW 1072   2.550   0.884   1.300 -0.0960 -0.0028 -0.1078
  358SOL    HW1 1073   2.621   0.937   1.252 -2.4975 -1.5759  0.9251
  358SOL    HW2 1074   2.584   0.862   1.396  0.3898  1.2235  2.3793
  359SOL     OW 1075   2.289   2.798   2.599  0.2246  0.0681 -0.3310
  359SOL    HW1 1076   2.234   2.852   2.533  2.7012  0.7986  2.1635
  359SOL    HW2 1077   2.226   2.758   2.665  1.5945 -0.3015 -0.5425
  360SOL     OW 1078   1.212   0.435   0.828 -0.2490 -0.1888 -0.1554
  360SOL    HW1 1079   1.218   0.514   0.894  0.4138  0.3702  3.0446
  360SOL    HW2 1080   1.195   0.460   0.730  2.0914  1.1254 -2.4523
  361SOL     OW 1081   2.119   0.224   1.175 -0.3103 -0.1087  0.5379
  361SOL    HW1 1082   2.107   0.284   1.253 -2.1980 -1.5238 -3.1548
  361SOL    HW2 1083   2.074   0.259   1.088  2.8127  0.6870  1.8907
  362SOL     OW 1084   1.296   1.384   0.468 -0.0977  0.2750  0.4183
  362SOL    HW1 1085   1.265   1.431   0.551 -0.5356  3.2871 -0.2829
  362SOL    HW2 1086   1.391   1.399   0.442  0.1466 -1.7589 -0.5685
  363SOL     OW 1087   2.219   1.697   2.479  1.0818  0.1473  0.0572
  363SOL    HW1 1088   2.173   1.658   2.562 -1.7561  1.5610 -0.4263
  363SOL    HW2 1089   2.150   1.731   2.410 -1.6098 -1.0601 -3.3339
  364SOL     OW 1090   0.588   0.352   1.340  0.7619  0.1462  0.0707
  364SOL    HW1 1091   0.650   0.373   1.418  2.4211 -0.9784  1.3993
  364SOL    HW2 1092   0.494   0.340   1.371  3.7962  0.8332 -0.4306
  365SOL     OW 1093   0.252   2.805   0.254 -0.0266  0.0761 -0.1933
  365SOL    HW1 1094   0.228   2.734   0.181  0.4609 -0.7447 -1.6459
  365SOL    HW2 1095   0.287   2.761   0.341  0.6908  1.7265  2.9984
  366SOL     OW 1096   2.590   1.780   3.020 -0.1464 -0.0329  0.1317
  366SOL    HW1 1097   2.659   1.834   3.069 -0.4417 -2.5122  0.1462
  366SOL    HW2 1098   2.527   1.732   3.083 -1.5275 -1.5864  1.7047
  367SOL     OW 1099   2.693   2.582   2.556 -0.1619 -0.2755 -0.2794
  367SOL    HW1 1100   2.708   2.652   2.628 -1.3928  0.7460 -1.4298
  367SOL    HW2 1101   2.735   2.493   2.580 -0.7102  0.5785  0.0476
  368SOL     OW 1102   0.186   1.785   1.054 -0.2011  0.4571 -0.1716
  368SOL    HW1 1103   0.105   1.842   1.088 -1.5025  1.9332  2.2100
  368SOL    HW2 1104   0.234   1.831   0.976 -2.8623 -0.8137 -0.7053
  369SOL     OW 1105   0.891   2.673   2.996  0.2149  0.1208  0.5215
  369SOL    HW1 1106   0.896   2.694   2.898  0.5451 -2.1097  0.7652
  369SOL    HW2 1107   0.983   2.688   3.033  0.3713  2.3970 -1.0318
  370SOL     OW 1108   0.219   0.765   0.614  0.2464 -0.2414  0.0368
  370SOL    HW1 1109   0.305   0.818   0.625 -0.2217 -2.5553 -1.3660
  370SOL    HW2 1110   0.217   0.707   0.528 -1.1223  0.4320  0.1360
  371SOL     OW 1111   2.066   2.740   0.902 -0.2117  0.0158  0.5365
  371SOL    HW1 1112   2.062   2.836   0.859  0.1682  1.8876  0.7473
  371SOL    HW2 1113   2.004   2.674   0.852  1.4661 -0.3322 -2.7982
  372SOL     OW 1114   0.108   0.945   2.691 -0.3189  0.0515  0.3428
  372SOL    HW1 1115   0.185   0.994   2.648 -1.1210 -0.1463  1.9323
  372SOL    HW2 1116   0.140   0.851   2.713  1.0933 -2.8459 -1.0796
  373SOL     OW 1117   2.977   1.889   0.706 -0.3169 -0.0115  0.0110
  373SOL    HW1 1118   3.044   1.912   0.778  0.8504 -1.0492 -1.2742
  373SOL    HW2 1119   2.981   1.946   0.619  1.6125 -1.3217  0.0255
  374SOL     OW 1120   0.063   2.538   0.411 -0.3579 -0.0959 -0.4713
  374SOL    HW1 1121   0.029   2.497   0.499 -0.6408 -1.7028  1.0682
  374SOL    HW2 1122   0.067   2.638   0.414  3.6685 -0.0137  2.7307
  375SOL     OW 1123   0.332   0.572   0.088 -0.2000  0.0350  0.1282
  375SOL    HW1 1124   0.407   0.602   0.151  0.3296  1.7707  2.3127
  375SOL    HW2 1125   0.304   0.480   0.120 -1.6139 -0.0998  1.2571
  376SOL     OW 1126   0.509   2.252   2.185  0.2210 -0.0985 -0.7266
  376SOL    HW1 1127   0.444   2.281   2.112  0.2543 -1.3785 -3.5861
  376SOL    HW2 1128   0.575   2.331   2.211  0.8599  4.2404 -0.7750
  377SOL     OW 1129   1.298   2.417   2.464 -0.1179 -0.1234  0.0012
  377SOL    HW1 1130   1.371   2.455   2.525 -1.5280 -2.3714 -1.4239
  377SOL    HW2 1131   1.312   2.320   2.440 -3.4492  3.2659 -2.4689
  378SOL     OW 1132   1.147   0.956   0.591  0.6330 -0.2665 -0.7825
  378SOL    HW1 1133   1.199   1.044   0.573 -1.5091  1.7249 -1.1420
  378SOL    HW2 1134   1.184   0.878   0.535 -0.7462 -0.3730  1.3986
  379SOL     OW 1135   0.660   1.755   0.538  0.3182 -0.7673  0.5922
  379SOL    HW1 1136   0.586   1.697   0.577  0.6767  1.3705 -1.0226
  379SOL    HW2 1137   0.755   1.726   0.549  0.1008  0.7737  1.8818
  380SOL     OW 1138   0.254   1.992   1.447 -0.0307  0.0257 -0.3809
  380SOL    HW1 1139   0.162   2.026   1.424  1.5921 -1.5637 -2.5841
  380SOL    HW2 1140   0.310   2.053   1.505  3.2644 -0.8474  0.0403
  381SOL     OW 1141   0.448   1.205   1.473 -0.0045 -0.0543 -0.3637
  381SOL    HW1 1142   0.423   1.301   1.449  1.3457  1.6247 -1.0839
  381SOL    HW2 1143   0.522   1.203   1.539 -2.8440 -1.7409 -3.7406
  382SOL     OW 1144   2.451   2.236   0.574  0.1830 -0.0879 -0.7449
  382SOL    HW1 1145   2.385   2.312   0.562  2.3312 -0.5716  0.7953
  382SOL    HW2 1146   2.506   2.215   0.490  2.3537 -0.3457 -0.2845
  383SOL     OW 1147   2.665   1.933   2.155 -0.3774  0.1159  0.2555
  383SOL    HW1 1148   2.658   2.029   2.185  2.5507  0.3843 -2.9771
  383SOL    HW2 1149   2.709   1.879   2.227 -0.9503  2.1999 -2.4109
  384SOL     OW 1150   0.117   2.147   2.136  0.1098 -0.0886 -0.1467
  384SOL    HW1 1151   0.167   2.187   2.216  1.7152 -2.5125  0.3179
  384SOL    HW2 1152   0.104   2.045   2.138  0.9315  3.1693 -0.4927
  385SOL     OW 1153   3.026   2.250   0.819 -0.2285  0.5873  0.0468
  385SOL    HW1 1154   3.054   2.154   0.817  3.5013 -1.0121 -0.7529
  385SOL    HW2 1155   2.940   2.270   0.865 -1.5799  0.0509 -1.2087
  386SOL     OW 1156   1.742   0.736   0.698  0.5267  0.0845  0.5625
  386SOL    HW1 1157   1.748   0.824   0.751 -0.1689  2.6242  0.1895
  386SOL    HW2 1158   1.689   0.664   0.750 -0.5607 -0.3703 -2.2405
  387SOL     OW 1159   0.487   0.859   2.086 -0.4691  0.9749  0.7793
  387SOL    HW1 1160   0.393   0.865   2.055  2.1334 -0.5749 -1.6878
  387SOL    HW2 1161   0.535   0.934   2.044 -1.0643 -2.4409  1.0301
  388SOL     OW 1162   2.283   1.070   2.425  0.2647  0.6582  0.3281
  388SOL    HW1 1163   2.208   1.137   2.449 -0.3918  2.6353  3.0525
  388SOL    HW2 1164   2.365   1.125   2.404 -0.7575 -2.5626 -0.2278
  389SOL     OW 1165   1.899   1.442   1.905  0.3150  0.1388 -0.1748
  389SOL    HW1 1166   1.805   1.424   1.865 -0.2630  0.3696  1.8167
  389SOL    HW2 1167   1.975   1.465   1.836 -0.4460  0.7514 -1.3111
  390SOL     OW 1168   1.824   2.867   0.022  0.2655  0.0916  0.3246
  390SOL    HW1 1169   1.799   2.859   0.121 -0.0972 -1.9251 -0.5742
  390SOL    HW2 1170   1.762   2.797   3.083  2.0540 -1.0912  0.8415
  391SOL     OW 1171   2.141   2.511   1.355 -0.5081  0.4108  0.0741
  391SOL    HW1 1172   2.155   2.500   1.255  0.2699 -0.1514  1.0753
  391SOL    HW2 1173   2.209   2.453   1.405  0.3127  1.6687  0.7850
  392SOL     OW 1174   0.030   2.574   1.035  0.4395  0.4896  0.0782
  392SOL    HW1 1175   3.060   2.561   1.100 -2.8738 -0.7106  0.8653
  392SOL    HW2 1176   0.064   2.487   1.001 -1.0300  2.8461 -3.9890
  393SOL     OW 1177   2.238   1.722   0.020  0.1775 -0.2308  0.6155
  393SOL    HW1 1178   2.206   1.635   3.094  0.5440 -1.0375 -0.0079
  393SOL    HW2 1179   2.196   1.805   3.077  1.8913  2.3192 -2.4108
  394SOL     OW 1180   2.943   0.175   2.971 -0.3347  0.0673 -0.3441
  394SOL    HW1 1181   2.918   0.273   2.997  2.0729 -0.7518 -0.4689
  394SOL    HW2 1182   2.929   0.155   2.873  0.0204 -0.9112 -1.8460
  395SOL     OW 1183   1.214   1.100   1.073  0.2916 -0.8372 -0.8141
  395SOL    HW1 1184   1.289   1.098   1.008  1.3710  1.2099  1.8215
  395SOL    HW2 1185   1.125   1.115   1.032 -1.6069 -0.1972 -0.7810
  396SOL     OW 1186   1.454   0.535   3.101  0.4400 -1.4419 -1.0658
  396SOL    HW1 1187   1.521   0.464   3.071 -2.2054  2.4297  0.5656
  396SOL    HW2 1188   1.398   0.555   3.015  0.3919 -1.4006 -1.0753
  397SOL     OW 1189   2.974   0.370   2.598 -0.3865 -0.8341  0.1007
  397SOL    HW1 1190   2.921   0.399   2.515 -0.8195  0.9869 -1.2525
  397SOL    HW2 1191   2.927   0.295   2.650 -0.5696  1.0878  1.9974
  398SOL     OW 1192   0.734   0.097   0.091 -0.1434  0.5119 -0.4247
  398SOL    HW1 1193   0.785   0.133   0.170  1.7634 -0.2045 -1.8478
  398SOL    HW2 1194   0.674   0.165   0.046 -0.2443 -1.2961  1.8177
  399SOL     OW 1195   2.416   2.887   1.967 -0.2977 -0.8049  0.4657
  399SOL    HW1 1196   2.467   2.895   1.880 -2.1179  1.7326  0.0858
  399SOL    HW2 1197   2.481   2.893   2.047  2.0679  1.0939 -1.2747
  400SOL     OW 1198   0.547   1.645   2.380  0.0510  0.5254  0.3917
  400SOL    HW1 1199   0.603   1.657   2.464  1.5408 -1.8829  0.2971
  400SOL    HW2 1200   0.609   1.657   2.297  0.1947 -2.3208  0.9353
  401SOL     OW 1201   0.849   0.426   2.610  0.3860  0.5136 -0.5084
  401SOL    HW1 1202   0.898   0.366   2.670  0.9504 -0.5638 -0.8065
  401SOL    HW2 1203   0.916   0.463   2.546  0.1410 -0.2395 -0.0368
  402SOL     OW 1204   3.034   2.030   1.459 -0.1613 -0.0657  0.4391
  402SOL    HW1 1205   3.027   2.089   1.539  0.1032  0.2001 -0.2462
  402SOL    HW2 1206   2.957   1.966   1.448  0.3605  1.8590  0.7676
  403SOL     OW 1207   0.621   1.194   1.691  0.2526 -0.1621 -0.3212
  403SOL    HW1 1208   0.715   1.183   1.657  0.9579  1.0660  0.4669
  403SOL    HW2 1209   0.613   1.259   1.764 -2.8672 -0.2033 -2.7443
  404SOL     OW 1210   2.845   2.369   1.480 -0.5440 -0.3060  0.0316
  404SOL    HW1 1211   2.826   2.441   1.548  0.7753 -0.5075 -1.9241
  404SOL    HW2 1212   2.774   2.374   1.405 -0.8520  0.2086 -0.3067
  405SOL     OW 1213   0.291   0.562   1.813 -0.9200 -0.2530  0.3915
  405SOL    HW1 1214   0.346   0.621   1.749  1.2299 -0.1811  0.7770
  405SOL    HW2 1215   0.344   0.484   1.854  1.6549  1.1970  0.7307
  406SOL     OW 1216   1.743   2.327   0.006  0.2734 -0.8587  0.6357
  406SOL    HW1 1217   1.779   2.394   0.070 -2.1895 -1.9286  0.2185
  406SOL    HW2 1218   1.802   2.325   3.031  0.0639  0.4890  1.3515
  407SOL     OW 1219   1.768   0.995   1.824 -0.7196 -0.2539 -0.4264
  407SOL    HW1 1220   1.686   0.939   1.832  2.6747  1.0863 -1.6457
  407SOL    HW2 1221   1.771   1.077   1.888 -0.7274  0.2031  1.2662
  408SOL     OW 1222   0.695   0.220   2.502 -0.2003  0.6115 -0.5484
  408SOL    HW1 1223   0.602   0.207   2.538  0.7788  0.0448 -0.7048
  408SOL    HW2 1224   0.746   0.293   2.549  1.4786 -0.0302  0.6146
  409SOL     OW 1225   3.046   2.421   0.618 -0.6197  0.1836  0.0691
  409SOL    HW1 1226   3.024   2.355   0.542 -1.5135 -0.7589 -0.3403
  409SOL    HW2 1227   3.056   2.368   0.703 -1.4527 -0.8675  1.2584
  410SOL     OW 1228   2.521   1.643   0.527 -0.1931 -0.1766  0.1654
  410SOL    HW1 1229   2.437   1.702   0.531 -2.1491  1.0786 -0.2416
  410SOL    HW2 1230   2.583   1.674   0.453  0.6245 -0.0368  1.2466
  411SOL     OW 1231   0.066   0.586   0.819  0.3823 -0.3454 -0.0936
  411SOL    HW1 1232   0.126   0.652   0.769 -0.6554  2.0207  3.9956
  411SOL    HW2 1233   0.057   0.498   0.771 -1.1937  3.2092  2.8789
  412SOL     OW 1234   1.417   0.863   0.872 -0.0026 -0.1846 -0.3001
  412SOL    HW1 1235   1.514   0.874   0.904 -0.9400  0.1469 -0.2964
  412SOL    HW2 1236   1.378   0.954   0.854 -0.6075 -0.2902 -0.4108
  413SOL     OW 1237   0.907   0.246   1.142 -0.1682 -0.7743 -0.9514
  413SOL    HW1 1238   0.938   0.194   1.227 -3.2587 -1.3999 -0.7057
  413SOL    HW2 1239   0.978   0.230   1.071  1.4203  1.2945  1.5787
  414SOL     OW 1240   0.165   1.811   2.889  0.4979 -0.1279  0.8728
  414SOL    HW1 1241   0.144   1.875   2.965 -0.6753  2.3207 -0.9305
  414SOL    HW2 1242   0.250   1.762   2.910 -1.5862 -1.2608 -2.0163
  415SOL     OW 1243   0.490   2.350   3.063  0.3840 -0.0191  0.0059
  415SOL    HW1 1244   0.586   2.369   3.069 -3.5779  0.5971 -1.2941
  415SOL    HW2 1245   0.448   2.398   2.981 -0.7348 -0.7743 -2.6760
  416SOL     OW 1246   1.564   0.867   0.533 -0.5800  0.1729 -0.0243
  416SOL    HW1 1247   1.476   0.818   0.552  0.5901 -1.6632 -2.5999
  416SOL    HW2 1248   1.640   0.824   0.584  0.4187 -1.0151  0.9427
  417SOL     OW 1249   0.230   0.952   0.331  0.1562 -0.7790  0.4404
  417SOL    HW1 1250   0.242   1.024   0.257 -1.1918  1.8234 -0.1350
  417SOL    HW2 1251   0.194   0.870   0.289 -0.7622 -0.8130  2.2768
  418SOL     OW 1252   2.657   1.466   2.562  0.1740  0.2377  0.6408
  418SOL    HW1 1253   2.629   1.496   2.469 -0.3101 -1.6222  0.1379
  418SOL    HW2 1254   2.694   1.372   2.558 -1.6793 -0.1705  0.7079
  419SOL     OW 1255   0.164   0.380   2.888  0.1166  0.1909  0.3760
  419SOL    HW1 1256   0.128   0.401   2.980 -1.0834 -1.2661  1.4547
  419SOL    HW2 1257   0.118   0.300   2.839  0.8018 -4.0397  0.0060
  420SOL     OW 1258   0.398   1.333   0.930 -0.1909 -0.4649  0.5213
  420SOL    HW1 1259   0.450   1.248   0.941 -1.4515  0.3470  2.1023
  420SOL    HW2 1260   0.317   1.337   0.989 -0.0257 -1.4115  3.4209
  421SOL     OW 1261   0.559   2.202   0.859  0.4596 -0.0894 -0.0995
  421SOL    HW1 1262   0.656   2.226   0.861  3.2505  1.0856  0.9086
  421SOL    HW2 1263   0.549   2.112   0.816  1.4644  0.8403 -0.1866
  422SOL     OW 1264   3.033   0.833   1.388 -0.4994 -0.0758  0.6721
  422SOL    HW1 1265   0.003   0.894   1.377 -0.9959 -1.1085 -0.0838
  422SOL    HW2 1266   3.033   0.757   1.320  1.2279  1.3613  2.5386
  423SOL     OW 1267   1.607   1.494   1.433 -0.2488  0.5313  0.1775
  423SOL    HW1 1268   1.688   1.497   1.373 -2.4755  0.0650  1.9730
  423SOL    HW2 1269   1.563   1.398   1.431 -3.6856 -3.7088  1.1005
  424SOL     OW 1270   1.867   1.100   0.137 -0.0033 -0.1609 -0.1615
  424SOL    HW1 1271   1.812   1.181   0.153  0.6809  0.2844  0.1339
  424SOL    HW2 1272   1.944   1.126   0.081 -1.1227 -5.1772  2.7067
  425SOL     OW 1273   0.022   0.534   1.826 -0.2148 -0.4353  0.3839
  425SOL    HW1 1274   3.104   0.463   1.894 -1.3377 -0.3450 -2.7637
  425SOL    HW2 1275   0.120   0.550   1.819 -1.5125 -0.1493 -0.6081
  426SOL     OW 1276   2.522   2.934   2.587 -0.3581 -0.5523 -0.4239
  426SOL    HW1 1277   2.443   2.873   2.590 -0.6993  3.1384 -1.1201
  426SOL    HW2 1278   2.496   3.008   2.519 -1.3033  0.1554 -1.4900
  427SOL     OW 1279   0.874   0.799   2.438  0.7763 -0.3801 -0.6867
  427SOL    HW1 1280   0.862   0.712   2.397  2.5633  3.8965 -1.5889
  427SOL    HW2 1281   0.886   0.871   2.362  2.0709  1.2951 -2.6524
  428SOL     OW 1282   2.168   1.037   2.200 -0.3721 -0.3848  0.2815
  428SOL    HW1 1283   2.065   1.026   2.200 -0.0681 -1.6690  1.3967
  428SOL    HW2 1284   2.209   1.038   2.289  1.0625  0.5287 -1.9986
  429SOL     OW 1285   2.855   3.102   0.674  0.1943  0.1957  0.6132
  429SOL    HW1 1286   2.903   0.083   0.697 -3.3149  0.1208 -2.2046
  429SOL    HW2 1287   2.913   3.052   0.610  0.8067 -0.5401 -1.1350
  430SOL     OW 1288   1.916   1.386   2.183 -0.4654  0.4876  0.0981
  430SOL    HW1 1289   1.996   1.380   2.246 -4.2833 -0.5747 -1.7871
  430SOL    HW2 1290   1.944   1.398   2.083  3.6061 -1.5257 -4.9756
  431SOL     OW 1291   3.082   1.968   1.141 -0.3349  0.8723  0.0165
  431SOL    HW1 1292   3.072   2.053   1.194 -0.8950 -2.2774 -1.6296
  431SOL    HW2 1293   3.045   1.897   1.204  0.9819 -1.9771  2.0473
  432SOL     OW 1294   1.507   3.043   2.317 -0.0470  0.1753  0.5846
  432SOL    HW1 1295   1.481   2.949   2.340  4.0224  2.0895  0.5049
  432SOL    HW2 1296   1.565   3.034   2.235  0.6421  1.7109  0.6705
  433SOL     OW 1297   1.546   3.053   1.825 -0.1391 -0.3904 -0.3166
  433SOL    HW1 1298   1.512   3.086   1.740 -1.3366 -0.9307  0.9211
  433SOL    HW2 1299   1.591   0.018   1.883  0.7804  0.9132 -0.4908
  434SOL     OW 1300   0.402   2.596   2.209 -0.1910  0.5994  0.4445
  434SOL    HW1 1301   0.370   2.693   2.225 -0.6001  1.3711  1.3920
  434SOL    HW2 1302   0.360   2.545   2.287  0.8864  1.1114  0.5397
  435SOL     OW 1303   0.456   1.991   0.269 -0.0677  0.2976 -0.0646
  435SOL    HW1 1304   0.451   2.022   0.173  1.0063 -1.5025  1.2695
  435SOL    HW2 1305   0.457   1.889   0.280 -4.0572 -1.7356  2.6052
  436SOL     OW 1306   0.607   1.009   1.890  0.0286  0.4790 -0.8610
  436SOL    HW1 1307   0.709   0.996   1.905  3.6994  1.8003  1.0808
  436SOL    HW2 1308   0.582   1.064   1.807 -1.4811 -1.4213 -0.5933
  437SOL     OW 1309   0.522   3.060   2.238  0.4476  0.1376  0.0996
  437SOL    HW1 1310   0.481   0.045   2.217 -0.2036 -0.2028  0.2646
  437SOL    HW2 1311   0.572   3.065   2.331 -0.2192  0.0088  2.0679
  438SOL     OW 1312   0.551   1.869   1.558 -0.2769 -0.4619 -0.7807
  438SOL    HW1 1313   0.487   1.949   1.573  2.0238  0.7906 -0.0244
  438SOL    HW2 1314   0.542   1.792   1.626  0.6205 -0.8262 -0.2019
  439SOL     OW 1315   1.900   0.938   2.901  0.2863 -0.3607  0.1171
  439SOL    HW1 1316   1.936   1.014   2.961  0.8252  1.4269  1.9150
  439SOL    HW2 1317   1.817   0.898   2.949  0.2528 -1.7624  1.9619
  440SOL     OW 1318   0.601   0.250   0.390  0.0526 -0.1094  0.4421
  440SOL    HW1 1319   0.589   0.354   0.405  1.0495  1.8197  2.2698
  440SOL    HW2 1320   0.508   0.218   0.361  0.7466  0.1903  1.7885
  441SOL     OW 1321   1.069   2.119   1.556 -0.4029  0.0038 -0.4345
  441SOL    HW1 1322   1.029   2.171   1.634 -0.0716 -1.1368 -0.8331
  441SOL    HW2 1323   1.037   2.154   1.469 -0.8418 -0.5302  3.6314
  442SOL     OW 1324   2.939   1.875   0.408  0.1250  0.5199 -0.3476
  442SOL    HW1 1325   2.919   1.775   0.404  0.0614 -1.5207 -0.0223
  442SOL    HW2 1326   2.853   1.930   0.406 -2.2779  3.2966 -0.8171
  443SOL     OW 1327   2.860   2.018   2.746  1.3089 -0.2740  0.0809
  443SOL    HW1 1328   2.805   1.930   2.725  1.5034 -0.0957 -0.5865
  443SOL    HW2 1329   2.957   2.002   2.728  0.5365  0.4554 -0.2129
  444SOL     OW 1330   1.276   0.951   0.178 -0.0276  0.1011  0.2916
  444SOL    HW1 1331   1.297   1.023   0.247 -0.3355  0.5431  2.2010
  444SOL    HW2 1332   1.175   0.923   0.185 -0.9587 -0.9799 -2.3900
  445SOL     OW 1333   2.672   2.718   1.818  0.2601 -0.2438  0.0552
  445SOL    HW1 1334   2.723   2.798   1.849 -3.9812 -1.8672  0.0714
  445SOL    HW2 1335   2.624   2.680   1.898  1.2015  1.1445 -0.7646
  446SOL     OW 1336   3.075   1.246   0.585 -0.1927 -0.0774 -0.1809
  446SOL    HW1 1337   3.019   1.173   0.543  0.3828  2.0918  2.6888
  446SOL    HW2 1338   3.015   1.328   0.598  0.0479  0.3294  0.1684
  447SOL     OW 1339   0.974   1.716   1.098 -0.3878 -0.6368  0.4102
  447SOL    HW1 1340   1.058   1.700   1.155  1.4937  2.2765 -0.3643
  447SOL    HW2 1341   0.890   1.708   1.154  1.9209 -0.1093  0.1758
  448SOL     OW 1342   1.508   1.877   1.529  0.2099  0.4458 -0.0807
  448SOL    HW1 1343   1.567   1.927   1.597  0.2694  0.8938  0.9739
  448SOL    HW2 1344   1.458   1.806   1.581 -2.2892  0.1225  1.1956
  449SOL     OW 1345   3.016   2.406   2.474  0.2501 -0.3382 -0.4112
  449SOL    HW1 1346   2.936   2.345   2.480  2.9118 -0.4654  1.4611
  449SOL    HW2 1347   3.095   2.379   2.537 -0.3253  0.8116  2.9937
  450SOL     OW 1348   0.053   1.756   2.010 -0.3621  0.1061 -0.4853
  450SOL    HW1 1349   3.072   1.758   1.964 -0.3434  1.7430  1.3381
  450SOL    HW2 1350   0.141   1.767   1.953  2.6124 -1.6097 -1.9273
  451SOL     OW 1351   2.297   0.757   1.317  0.1431 -0.3961  0.0651
  451SOL    HW1 1352   2.229   0.809   1.377 -0.5777 -0.5380 -1.2843
  451SOL    HW2 1353   2.386   0.811   1.320  1.1715 -0.7368  0.6299
  452SOL     OW 1354   0.779   1.274   1.039  0.2843 -0.3102  0.0441
  452SOL    HW1 1355   0.851   1.207   0.999 -0.6239  3.3400 -1.9326
  452SOL    HW2 1356   0.768   1.355   0.976 -0.7243  2.4869  3.0620
  453SOL     OW 1357   1.525   2.214   0.624  0.1457  0.6210  0.0027
  453SOL    HW1 1358   1.569   2.224   0.712 -2.8154 -2.1414 -3.5736
  453SOL    HW2 1359   1.588   2.162   0.563 -1.9167 -0.7242 -2.1482
  454SOL     OW 1360   0.576   1.687   0.092  0.1275  0.2584  0.1619
  454SOL    HW1 1361   0.664   1.722   0.115 -3.1142 -0.1307  3.6441
  454SOL    HW2 1362   0.508   1.691   0.166 -0.4715  1.0338 -1.2126
  455SOL     OW 1363   1.007   0.977   0.338  0.2207 -0.1871  0.0838
  455SOL    HW1 1364   1.057   0.909   0.392  0.8146 -0.7411  0.0006
  455SOL    HW2 1365   1.038   1.067   0.381 -1.5306  0.4138 -0.5690
  456SOL     OW 1366   2.192   2.539   1.081  0.8012  0.0623  0.1284
  456SOL    HW1 1367   2.150   2.595   1.009  0.0578 -0.7855 -0.0113
  456SOL    HW2 1368   2.233   2.458   1.038  0.0843  1.0431  2.2746
  457SOL     OW 1369   1.431   2.983   3.068  0.2274 -0.2474  0.4666
  457SOL    HW1 1370   1.518   3.024   3.059 -3.3786 -1.8772 -0.2203
  457SOL    HW2 1371   1.400   2.991   0.053  2.3472  0.2906 -2.5437
  458SOL     OW 1372   2.356   0.810   0.489  0.0717 -0.1979  0.3355
  458SOL    HW1 1373   2.265   0.785   0.525  2.5599  1.9836 -0.6597
  458SOL    HW2 1374   2.357   0.900   0.442  0.0130 -1.1765 -0.0931
  459SOL     OW 1375   2.424   0.398   2.655  0.6700  0.5961 -0.5377
  459SOL    HW1 1376   2.342   0.435   2.600 -2.2953  1.7574 -3.9254
  459SOL    HW2 1377   2.509   0.439   2.620 -0.7214 -3.5262 -1.9890
  460SOL     OW 1378   2.545   0.665   2.592 -0.2223 -0.3467 -0.1440
  460SOL    HW1 1379   2.593   0.703   2.674  1.6592 -1.4095  1.3264
  460SOL    HW2 1380   2.467   0.725   2.558  0.0881 -0.8047  1.3756
  461SOL     OW 1381   0.190   2.354   0.939  0.5122 -0.6063 -0.3512
  461SOL    HW1 1382   0.241   2.324   1.024 -0.3715 -0.6775 -1.0297
  461SOL    HW2 1383   0.120   2.287   0.907 -1.3838  1.9280  0.0383
  462SOL     OW 1384   3.024   2.693   1.689  0.1775  0.2627  0.0439
  462SOL    HW1 1385   3.028   2.757   1.767 -3.9626 -0.4005 -1.3917
  462SOL    HW2 1386   3.049   2.741   1.604 -3.2288  2.2828 -1.5691
  463SOL     OW 1387   2.285   1.908   2.661 -0.3086  0.0987 -0.2423
  463SOL    HW1 1388   2.369   1.878   2.708 -0.7370  1.2620  0.0585
  463SOL    HW2 1389   2.247   1.842   2.594 -1.1651 -3.0378 -0.7642
  464SOL     OW 1390   0.766   2.811   1.595  1.0569 -0.3637 -0.4118
  464SOL    HW1 1391   0.840   2.757   1.637 -1.0574  0.1457  1.0839
  464SOL    HW2 1392   0.808   2.896   1.562  0.3168 -4.4282  0.1095
  465SOL     OW 1393   0.838   3.076   1.544  0.2457  0.4744 -0.2467
  465SOL    HW1 1394   0.818   0.035   1.469 -0.6241  0.5278 -0.7778
  465SOL    HW2 1395   0.805   0.006   1.638  0.0299  1.2510 -1.0039
  466SOL     OW 1396   1.428   2.653   1.854 -0.4062  0.0554  0.3444
  466SOL    HW1 1397   1.504   2.597   1.819  1.5108 -0.9309  0.6692
  466SOL    HW2 1398   1.457   2.744   1.884  0.8783  0.4151  0.3508
  467SOL     OW 1399   0.738   2.016   1.235  0.6488 -0.2931 -0.5928
  467SOL    HW1 1400   0.761   1.950   1.311 -0.0795 -1.8782 -1.2178
  467SOL    HW2 1401   0.637   2.036   1.229  0.6626  0.3222 -0.0219
  468SOL     OW 1402   2.843   1.820   2.373  0.1937  0.1750  0.0921
  468SOL    HW1 1403   2.912   1.897   2.383  1.7881 -0.0252 -1.4717
  468SOL    HW2 1404   2.883   1.729   2.357 -2.7199  0.9511  0.6112
  469SOL     OW 1405   0.921   1.873   0.780 -0.0948  0.1082  0.6163
  469SOL    HW1 1406   1.019   1.883   0.803  2.6877 -0.2531  0.9748
  469SOL    HW2 1407   0.866   1.879   0.859  1.8821 -1.5072 -3.1905
  470SOL     OW 1408   2.297   1.300   1.759 -0.3062  0.3428  0.1813
  470SOL    HW1 1409   2.227   1.361   1.715  0.4933 -0.2840 -2.0300
  470SOL    HW2 1410   2.344   1.240   1.693  1.3208 -0.5739  1.2168
  471SOL     OW 1411   0.348   2.335   0.206 -0.8455  0.2715 -0.6535
  471SOL    HW1 1412   0.393   2.368   0.292  0.5016 -1.5943 -0.9069
  471SOL    HW2 1413   0.384   2.366   0.118  0.1634 -0.1933  1.2598
  472SOL     OW 1414   2.806   1.955   1.899  0.2404  0.4815 -0.0347
  472SOL    HW1 1415   2.738   1.946   1.976 -0.3213 -0.4583  0.5654
  472SOL    HW2 1416   2.881   2.020   1.903  0.1782 -1.8882  1.3768
  473SOL     OW 1417   1.115   2.977   0.168  0.8517 -0.2444  0.0161
  473SOL    HW1 1418   1.190   2.911   0.174 -1.6854  1.5198  1.2853
  473SOL    HW2 1419   1.076   2.981   0.072 -0.7721 -0.6043 -3.6548
  474SOL     OW 1420   2.669   2.558   0.907  0.4293  0.3865  0.7873
  474SOL    HW1 1421   2.657   2.609   0.996 -0.4297 -0.6850 -1.1229
  474SOL    HW2 1422   2.753   2.583   0.865 -0.0931 -2.8435  0.9341
  475SOL     OW 1423   2.083   3.014   1.708  0.1922 -0.3905 -0.2734
  475SOL    HW1 1424   2.158   2.980   1.653 -2.4890  0.2439  0.9503
  475SOL    HW2 1425   2.018   3.063   1.649  2.3904 -0.5110  2.4146
  476SOL     OW 1426   0.910   1.012   0.677 -0.1448 -0.3959  0.1323
  476SOL    HW1 1427   1.001   0.974   0.654  0.4851  0.1213  0.1611
  476SOL    HW2 1428   0.843   0.939   0.684  1.4865  3.2947  0.7517
  477SOL     OW 1429   0.300   2.009   0.874  0.1888  0.7158  0.1703
  477SOL    HW1 1430   0.314   2.108   0.895  0.7263 -1.9268 -0.5020
  477SOL    HW2 1431   0.387   1.957   0.856  0.7735  0.3791 -0.2357
  478SOL     OW 1432   0.063   2.600   2.184 -0.0347 -0.6880 -0.2709
  478SOL    HW1 1433   3.073   2.576   2.184  4.2273  2.3936 -0.4455
  478SOL    HW2 1434   0.074   2.694   2.139  1.5132  3.1023 -1.2097
  479SOL     OW 1435   0.332   0.607   1.528 -0.0213  0.9113 -0.1251
  479SOL    HW1 1436   0.368   0.665   1.448  0.2527  0.7472 -2.1948
  479SOL    HW2 1437   0.335   0.508   1.510 -2.2274  0.6936  0.4421
  480SOL     OW 1438   2.875   2.566   2.979  0.1761  0.8196  0.6417
  480SOL    HW1 1439   2.921   2.522   2.897 -1.9056  0.2941  0.0470
  480SOL    HW2 1440   2.779   2.532   2.990  1.4819 -2.0390  1.3922
  481SOL     OW 1441   2.102   2.037   1.830 -0.2041 -0.1000 -0.0762
  481SOL    HW1 1442   2.119   1.977   1.909 -1.7540  0.7068  1.2696
  481SOL    HW2 1443   2.172   2.024   1.753 -0.3653  1.8432 -0.5693
  482SOL     OW 1444   1.559   2.398   2.923  0.4004 -0.0748 -0.4314
  482SOL    HW1 1445   1.464   2.382   2.952 -1.2498 -0.6948 -0.8335
  482SOL    HW2 1446   1.622   2.362   2.994  0.9637  1.6169 -2.6992
  483SOL     OW 1447   0.610   2.032   2.303  0.5612 -0.1136  0.4793
  483SOL    HW1 1448   0.700   2.023   2.267 -2.2160  0.3241 -0.2680
  483SOL    HW2 1449   0.561   2.106   2.256  1.5109 -0.5298  0.9733
  484SOL     OW 1450   3.025   0.371   1.122 -0.4378 -0.2200  0.2723
  484SOL    HW1 1451   3.011   0.356   1.026  0.0527 -1.5481  2.6593
  484SOL    HW2 1452   2.977   0.304   1.179 -1.9457  2.6702 -1.2291
  485SOL     OW 1453   2.076   1.049   0.701 -0.2394 -0.0688 -0.4676
  485SOL    HW1 1454   2.117   1.108   0.631  1.3197 -0.2372  1.6905
  485SOL    HW2 1455   1.980   1.076   0.719 -1.0282  2.2328 -0.1475
  486SOL     OW 1456   1.516   0.249   2.250  0.0159 -0.3938 -0.2506
  486SOL    HW1 1457   1.577   0.318   2.291  2.7763  0.3820 -1.5784
  486SOL    HW2 1458   1.526   0.165   2.307  0.7454 -0.2309 -0.0694
  487SOL     OW 1459   0.804   1.606   1.267  0.3081  0.4663 -0.0108
  487SOL    HW1 1460   0.721   1.541   1.254 -4.4257 -0.9838 -1.6586
  487SOL    HW2 1461   0.892   1.549   1.278  0.9722  0.7633 -1.5831
  488SOL     OW 1462   2.363   1.399   2.958  0.3914  0.9213 -0.3016
  488SOL    HW1 1463   2.392   1.456   2.879 -1.9044 -0.5837  2.7384
  488SOL    HW2 1464   2.410   1.425   3.045  2.3536  0.6816  1.3542
  489SOL     OW 1465   2.163   0.082   0.478  0.0019 -0.1900 -0.2247
  489SOL    HW1 1466   2.238   0.113   0.542 -0.9219  0.1623 -0.0393
  489SOL    HW2 1467   2.105   0.161   0.447 -1.5429 -3.5168 -1.1392
  490SOL     OW 1468   1.437   2.450   0.237  0.5001  0.4238 -0.0236
  490SOL    HW1 1469   1.490   2.365   0.221 -1.7160 -0.0524  0.0505
  490SOL    HW2 1470   1.475   2.530   0.193 -4.0382 -0.2608  2.5097
  491SOL     OW 1471   0.953   1.115   0.935  0.4880 -0.0629  0.3631
  491SOL    HW1 1472   0.932   1.018   0.926  0.1323  3.1689 -2.6969
  491SOL    HW2 1473   1.016   1.129   0.857  0.1314 -0.4362  1.2670
  492SOL     OW 1474   1.388   0.205   2.832  0.2045 -0.1285 -0.3338
  492SOL    HW1 1475   1.466   0.255   2.793 -1.7561  0.5021 -1.6197
  492SOL    HW2 1476   1.300   0.253   2.813  1.2470  0.0346  5.5958
  493SOL     OW 1477   1.856   1.994   0.157 -0.6954  0.2696  0.3951
  493SOL    HW1 1478   1.890   2.084   0.123 -1.1229 -1.6424 -1.6608
  493SOL    HW2 1479   1.926   1.941   0.211  0.9977  0.1789  0.1810
  494SOL     OW 1480   0.509   1.216   0.462  0.2293  0.5517  0.2693
  494SOL    HW1 1481   0.449   1.280   0.515 -0.5043  1.3448  0.5350
  494SOL    HW2 1482   0.530   1.248   0.372  0.8159 -2.6081  2.0306
  495SOL     OW 1483   3.074   2.760   0.818 -0.0487  0.1043  0.7079
  495SOL    HW1 1484   0.003   2.704   0.897 -1.2791 -0.7770  0.0750
  495SOL    HW2 1485   2.995   2.713   0.773  1.0979  0.4085  2.1328
  496SOL     OW 1486   2.526   0.150   1.668  0.9663  0.1647  0.0762
  496SOL    HW1 1487   2.507   0.114   1.574 -0.1717  1.1774  0.9805
  496SOL    HW2 1488   2.546   0.250   1.664 -1.0292 -2.9032 -1.6820
  497SOL     OW 1489   1.879   1.399   2.626  0.1399  0.3012  1.6163
  497SOL    HW1 1490   1.882   1.498   2.613 -0.9627 -1.1829 -3.2038
  497SOL    HW2 1491   1.823   1.358   2.551  0.6958 -0.8657 -0.7719
  498SOL     OW 1492   0.715   1.882   0.989 -0.1161  0.0849 -0.1780
  498SOL    HW1 1493   0.736   1.960   1.050  0.3903  0.0354  1.1108
  498SOL    HW2 1494   0.669   1.802   1.036 -1.8471 -0.3008  0.3812
  499SOL     OW 1495   0.906   2.216   1.338  0.4209 -0.1300 -0.3717
  499SOL    HW1 1496   0.885   2.142   1.273 -0.5968  1.1658 -1.8945
  499SOL    HW2 1497   0.828   2.282   1.342 -0.3524  2.2197  0.4516
  500SOL     OW 1498   0.919   2.016   0.241 -0.2489 -0.3936  0.4300
  500SOL    HW1 1499   0.963   2.023   0.326 -1.0082 -0.3169 -2.1712
  500SOL    HW2 1500   0.913   2.107   0.197  0.9296 -0.4785  1.2372
  501SOL     OW 1501   2.717   3.013   1.378 -0.2213  0.3600  0.3820
  501SOL    HW1 1502   2.773   2.941   1.332  0.2794 -1.1640  0.6315
  501SOL    HW2 1503   2.750   3.032   1.470  0.1701  0.6627 -2.5062
  502SOL     OW 1504   0.271   0.864   1.630  0.1644 -0.0131  0.0669
  502SOL    HW1 1505   0.217   0.836   1.708  3.8049  0.7237 -3.2760
  502SOL    HW2 1506   0.317   0.786   1.584  2.2527  0.6402 -0.6610
  503SOL     OW 1507   2.165   0.860   1.857 -0.4656  0.0160 -0.5985
  503SOL    HW1 1508   2.268   0.863   1.830  1.9544 -0.8849 -0.2720
  503SOL    HW2 1509   2.139   0.947   1.902  1.7111 -0.2138  0.2822
  504SOL     OW 1510   1.113   0.843   1.967  0.4755 -0.6442 -0.0538
  504SOL    HW1 1511   1.118   0.786   2.048 -1.1998  1.1100  0.4547
  504SOL    HW2 1512   1.189   0.907   1.965  2.0501 -2.9855  0.2636
  505SOL     OW 1513   0.913   0.047   2.519  0.1905 -0.3979 -0.2338
  505SOL    HW1 1514   0.916   3.095   2.438 -1.1631  0.1497 -1.1996
  505SOL    HW2 1515   0.813   0.061   2.541 -1.5026  0.2893  3.3959
  506SOL     OW 1516   0.098   0.336   0.699 -0.2386 -0.2470  0.2122
  506SOL    HW1 1517   0.013   0.322   0.751 -0.0614  0.2973 -4.0570
  506SOL    HW2 1518   0.165   0.257   0.719  1.9304 -1.9902  1.2251
  507SOL     OW 1519   1.409   0.220   0.017  0.3364 -1.2760  0.4177
  507SOL    HW1 1520   1.417   0.208   3.023 -0.3961 -1.7616  1.8470
  507SOL    HW2 1521   1.336   0.284   0.039  4.2374  0.6553 -1.2364
  508SOL     OW 1522   1.739   0.366   2.357 -0.2621  0.1780  0.4002
  508SOL    HW1 1523   1.763   0.457   2.320  1.1644 -0.5447 -1.0085
  508SOL    HW2 1524   1.804   0.332   2.427 -1.2784 -0.7199 -0.7654
  509SOL     OW 1525   0.681   1.317   2.113 -0.2747 -0.2404 -0.2727
  509SOL    HW1 1526   0.772   1.354   2.140  2.2202 -0.6130  1.3975
  509SOL    HW2 1527   0.671   1.215   2.141 -0.7522 -0.4511  0.9217
  510SOL     OW 1528   3.060   0.893   0.698  0.1173  0.5310 -0.6604
  510SOL    HW1 1529   3.041   0.887   0.802 -2.2557 -1.0730  0.7213
  510SOL    HW2 1530   0.050   0.874   0.675  1.5919  0.3926 -1.9084
  511SOL     OW 1531   2.087   2.049   0.785  0.3069  0.3976  1.2058
  511SOL    HW1 1532   2.155   2.023   0.716 -0.5280  0.1781  1.1224
  511SOL    HW2 1533   2.120   2.016   0.875 -1.5185  0.0536 -1.5210
  512SOL     OW 1534   0.375   1.368   0.632  0.1040 -0.1415  0.4086
  512SOL    HW1 1535   0.363   1.346   0.730 -1.2984 -0.4549 -1.5500
  512SOL    HW2 1536   0.286   1.354   0.583 -2.0040  0.9979  0.8360
  513SOL     OW 1537   0.242   2.128   0.344 -0.0112 -0.0019 -0.0932
  513SOL    HW1 1538   0.319   2.059   0.332  1.8688 -2.4600 -1.4753
  513SOL    HW2 1539   0.264   2.214   0.295  2.3729 -0.6523  0.7802
  514SOL     OW 1540   2.428   2.053   2.416  0.0032  0.1027  0.0400
  514SOL    HW1 1541   2.356   2.086   2.480 -2.0534 -1.2428 -1.5817
  514SOL    HW2 1542   2.462   2.125   2.355 -0.5474 -1.6136  0.1690
  515SOL     OW 1543   2.281   1.069   0.297 -0.1727 -0.1653 -0.1418
  515SOL    HW1 1544   2.259   0.988   0.238  0.0695  1.1348  0.5411
  515SOL    HW2 1545   2.382   1.083   0.299 -0.4854 -0.3328 -0.4584
  516SOL     OW 1546   1.937   0.224   0.477 -0.4995 -0.4674  0.0742
  516SOL    HW1 1547   1.855   0.265   0.516  0.9919 -0.4608 -1.9454
  516SOL    HW2 1548   1.907   0.170   0.393 -2.2549 -2.0855  0.1243
  517SOL     OW 1549   1.187   2.110   0.200 -0.3151 -0.4027 -0.5833
  517SOL    HW1 1550   1.140   2.192   0.238  1.0461  0.7491 -2.1178
  517SOL    HW2 1551   1.131   2.026   0.203 -0.3310  0.0170  0.0462
  518SOL     OW 1552   1.141   0.635   1.813 -0.7197  0.0889  0.2519
  518SOL    HW1 1553   1.125   0.717   1.873  1.3014  1.8794  0.7927
  518SOL    HW2 1554   1.196   0.561   1.854 -0.7577  0.5074  1.0130
  519SOL     OW 1555   3.011   1.413   0.247 -0.0833  0.4711 -0.6581
  519SOL    HW1 1556   3.023   1.419   0.144  2.1196  2.1498 -0.7937
  519SOL    HW2 1557   2.994   1.316   0.278  3.4156 -0.4793 -0.7896
  520SOL     OW 1558   2.275   1.959   1.635 -0.1182 -0.6528  0.2819
  520SOL    HW1 1559   2.263   1.990   1.536  1.5014 -1.9365  1.6123
  520SOL    HW2 1560   2.353   2.011   1.682  3.6807  2.7036  1.5457
  521SOL     OW 1561   0.868   2.871   2.262 -0.1996  0.5191  0.3600
  521SOL    HW1 1562   0.925   2.951   2.235 -0.5649  0.8826  1.5617
  521SOL    HW2 1563   0.927   2.787   2.274  1.1502 -2.4898  1.4606
  522SOL     OW 1564   2.030   0.179   2.245  0.6588 -0.2211  0.2347
  522SOL    HW1 1565   1.993   0.172   2.341 -1.2896 -2.7432 -0.0899
  522SOL    HW2 1566   2.071   0.271   2.232 -4.5536 -1.8894  0.3689
  523SOL     OW 1567   1.851   1.896   1.096  0.0836 -0.1535 -0.0695
  523SOL    HW1 1568   1.803   1.950   1.023 -0.5613 -1.4219 -1.8976
  523SOL    HW2 1569   1.776   1.852   1.152 -1.2522 -2.6340 -0.3612
  524SOL     OW 1570   1.196   2.452   0.143 -0.6798  0.2057 -0.3455
  524SOL    HW1 1571   1.122   2.416   0.204 -0.5248 -0.7776  2.1386
  524SOL    HW2 1572   1.281   2.467   0.203 -0.2702 -1.4603  1.9954
  525SOL     OW 1573   0.060   0.416   0.023  0.0664  0.2830  0.4517
  525SOL    HW1 1574   3.066   0.404   0.009  0.3222 -0.9555  0.4808
  525SOL    HW2 1575   0.084   0.359   0.107  1.0259 -3.2971  1.5515
  526SOL     OW 1576   1.015   2.778   0.430  0.3469  0.2037  0.9391
  526SOL    HW1 1577   0.924   2.815   0.452 -0.4016  2.4514  0.1764
  526SOL    HW2 1578   1.014   2.761   0.328 -0.3813 -0.9426  1.5378
  527SOL     OW 1579   2.746   2.073   0.463 -1.0602  0.3851 -0.4211
  527SOL    HW1 1580   2.754   2.129   0.546 -0.0989 -0.1714  2.2108
  527SOL    HW2 1581   2.682   2.113   0.400  1.2712 -0.3521  0.9306
  528SOL     OW 1582   3.026   0.681   2.266 -0.0129 -0.1837 -0.1989
  528SOL    HW1 1583   3.000   0.600   2.324  1.4040 -4.5300  1.5940
  528SOL    HW2 1584   0.012   0.667   2.226  0.8397 -1.9794  0.5810
  529SOL     OW 1585   1.202   1.499   2.628 -0.5895 -0.4270 -0.1193
  529SOL    HW1 1586   1.286   1.453   2.588 -0.7121 -0.3201 -0.6520
  529SOL    HW2 1587   1.119   1.463   2.583  1.2250 -0.4847  1.2559
  530SOL     OW 1588   1.680   1.061   2.508 -0.2912  0.5144  0.7335
  530SOL    HW1 1589   1.663   1.017   2.415 -0.0487 -0.4712 -0.7069
  530SOL    HW2 1590   1.716   1.158   2.496 -1.4982  1.9647 -0.4707
  531SOL     OW 1591   0.636   1.982   2.566  0.3658 -0.2084 -0.1822
  531SOL    HW1 1592   0.612   1.996   2.469  2.0544 -1.6778  0.1829
  531SOL    HW2 1593   0.555   1.995   2.629  2.1139  0.5253  1.2477
  532SOL     OW 1594   2.193   1.220   0.524  0.2471  0.7950 -0.2789
  532SOL    HW1 1595   2.201   1.182   0.427 -0.0834 -1.2457 -2.9355
  532SOL    HW2 1596   2.288   1.253   0.551 -0.3355  1.1861 -1.1810
  533SOL     OW 1597   0.103   0.038   1.793  0.2321  0.2491  0.0926
  533SOL    HW1 1598   0.203   0.022   1.807  0.3182 -1.3565  1.9335
  533SOL    HW2 1599   0.075   0.009   1.701 -1.0257 -0.9041 -0.6772
  534SOL     OW 1600   0.587   0.250   3.040  0.1398 -0.5425  0.3892
  534SOL    HW1 1601   0.564   0.316   2.970 -2.1060 -0.9391  2.4762
  534SOL    HW2 1602   0.502   0.209   3.080  0.0758  1.2731  0.3668
  535SOL     OW 1603   0.122   0.075   0.383  0.2576  0.6497  0.1685
  535SOL    HW1 1604   0.083   0.169   0.393 -0.9711 -1.1996  1.5033
  535SOL    HW2 1605   0.204   0.072   0.440  0.1755 -0.1257 -1.0853
  536SOL     OW 1606   0.374   1.473   1.492 -0.1820  0.4662  0.9075
  536SOL    HW1 1607   0.338   1.568   1.485  0.3819 -2.7133 -1.2756
  536SOL    HW2 1608   0.475   1.486   1.493  0.5814 -2.8763  3.1745
  537SOL     OW 1609   1.242   2.543   1.703  0.3535  0.0287 -0.4164
  537SOL    HW1 1610   1.299   2.611   1.754 -0.2940  2.1070 -0.9277
  537SOL    HW2 1611   1.274   2.453   1.720 -2.5717  0.0101 -0.8461
  538SOL     OW 1612   0.082   1.924   0.250 -0.3938  0.3601  0.1861
  538SOL    HW1 1613   0.128   2.006   0.285  2.2254 -0.6089 -1.9764
  538SOL    HW2 1614   0.006   1.895   0.314  3.4039  0.6920  0.9486
  539SOL     OW 1615   2.699   1.154   2.577  0.1690 -0.0814 -0.4104
  539SOL    HW1 1616   2.740   1.127   2.663 -1.6104 -1.9032 -0.0266
  539SOL    HW2 1617   2.722   1.096   2.498 -3.4651 -0.5414  0.1543
  540SOL     OW 1618   1.843   0.757   2.034  0.2790  0.1012 -0.2787
  540SOL    HW1 1619   1.880   0.764   1.937  2.0992  0.2247  1.7085
  540SOL    HW2 1620   1.878   0.832   2.095  0.9663 -1.9881  0.8543
  541SOL     OW 1621   0.592   0.610   2.133  0.1801  0.5994  0.6430
  541SOL    HW1 1622   0.552   0.589   2.222 -1.2390  0.5073  1.5539
  541SOL    HW2 1623   0.542   0.693   2.101  2.8515 -0.3488 -0.5976
  542SOL     OW 1624   2.124   0.145   3.107  0.2913 -0.5982  0.0307
  542SOL    HW1 1625   2.091   0.236   0.035  0.7664 -2.0451  1.5860
  542SOL    HW2 1626   2.157   0.152   3.006  0.4964 -0.5856 -1.3342
  543SOL     OW 1627   1.371   0.013   0.195  0.3738  0.1987  0.1117
  543SOL    HW1 1628   1.370   0.092   0.130  1.0831 -1.8562  1.6389
  543SOL    HW2 1629   1.277   3.087   0.215  1.5191  2.6016 -0.2545
  544SOL     OW 1630   2.827   1.516   1.922 -0.1619  0.1117  0.5923
  544SOL    HW1 1631   2.804   1.488   2.018  2.2095 -0.3881  0.8645
  544SOL    HW2 1632   2.826   1.432   1.862 -3.2014 -0.1827  3.4499
  545SOL     OW 1633   1.908   2.424   1.492  0.0926  0.0475 -0.3285
  545SOL    HW1 1634   1.995   2.424   1.444 -2.4398  0.7737  1.9285
  545SOL    HW2 1635   1.924   2.473   1.583  0.5216 -1.7550 -2.5692
  546SOL     OW 1636   3.077   3.082   2.583  0.2171 -0.0768  0.3544
  546SOL    HW1 1637   0.010   3.017   2.516 -1.1986  0.1312  0.6793
  546SOL    HW2 1638   0.037   0.050   2.603 -0.4761 -3.6544  0.7353
  547SOL     OW 1639   1.682   0.948   0.930  0.3031 -0.1269  0.0398
  547SOL    HW1 1640   1.738   1.011   0.872  2.7403 -3.1708 -1.7736
  547SOL    HW2 1641   1.686   0.979   1.028  1.0696  1.3803 -0.4773
  548SOL     OW 1642   1.789   2.032   2.402  0.5502  0.0202 -0.0971
  548SOL    HW1 1643   1.782   1.973   2.483 -0.8346  0.1402 -2.5176
  548SOL    HW2 1644   1.736   2.117   2.419 -1.2046  2.0478 -1.3014
  549SOL     OW 1645   2.008   0.541   0.342 -0.6233 -0.2113  0.5029
  549SOL    HW1 1646   1.955   0.625   0.319  0.2610  1.6419 -0.6706
  549SOL    HW2 1647   1.983   0.522   0.437 -0.0530 -0.7064 -2.3057
  550SOL     OW 1648   2.718   1.931   0.789  0.2449  0.1785  0.3424
  550SOL    HW1 1649   2.818   1.903   0.760  2.8538 -0.4437  0.2164
  550SOL    HW2 1650   2.697   2.029   0.754  1.1565  2.0511  0.3380
  551SOL     OW 1651   1.136   2.729   2.229  0.1376 -0.0186  0.6764
  551SOL    HW1 1652   1.237   2.719   2.209 -2.5446 -1.8771  1.3003
  551SOL    HW2 1653   1.112   2.721   2.328 -2.1195  0.8283  0.0543
  552SOL     OW 1654   2.975   2.407   2.781  0.2415  0.0775 -0.0210
  552SOL    HW1 1655   2.895   2.343   2.763  1.5355 -2.8186 -0.0386
  552SOL    HW2 1656   3.063   2.365   2.750  0.1191  0.1641  0.1014
  553SOL     OW 1657   0.234   0.129   0.805 -0.0515 -0.0578  0.4530
  553SOL    HW1 1658   0.258   0.078   0.720 -1.1091 -0.6819 -1.0788
  553SOL    HW2 1659   0.284   0.091   0.885  0.6785  1.6797 -0.2441
  554SOL     OW 1660   2.305   2.479   1.918  0.0592 -0.5931 -0.3781
  554SOL    HW1 1661   2.235   2.399   1.924 -0.3582 -1.1635  1.9974
  554SOL    HW2 1662   2.395   2.465   1.963 -1.7890 -1.9535 -1.7862
  555SOL     OW 1663   1.518   2.197   2.200 -0.1557  0.1789  0.3625
  555SOL    HW1 1664   1.467   2.277   2.162  0.4092 -1.4605  0.9105
  555SOL    HW2 1665   1.615   2.213   2.173  3.6092 -0.5386 -1.5039
  556SOL     OW 1666   1.316   1.499   1.409  0.0645  0.0277  0.3051
  556SOL    HW1 1667   1.293   1.443   1.325 -0.0208 -2.0442 -0.9395
  556SOL    HW2 1668   1.414   1.507   1.427  0.4269 -0.9060  0.3710
  557SOL     OW 1669   1.980   2.442   2.420  0.2341 -0.0420  0.2225
  557SOL    HW1 1670   2.004   2.398   2.508  1.6967  1.0135 -0.8579
  557SOL    HW2 1671   1.928   2.528   2.441  1.9968 -1.1411 -0.6539
  558SOL     OW 1672   0.179   2.827   2.035 -0.2912  0.3469  0.0396
  558SOL    HW1 1673   0.224   2.769   1.960 -0.3136 -3.9587 -2.5541
  558SOL    HW2 1674   0.241   2.847   2.116  0.3154 -0.0340 -1.0186
  559SOL     OW 1675   2.408   3.008   0.837  0.2336 -0.0742 -0.2702
  559SOL    HW1 1676   2.352   2.950   0.772  1.3000  0.1721 -0.8960
  559SOL    HW2 1677   2.366   3.099   0.851  2.9173 -0.4473 -0.0896
  560SOL     OW 1678   1.905   2.562   0.539 -0.0924 -0.2021  0.2045
  560SOL    HW1 1679   1.839   2.577   0.608  0.3268 -1.3423  0.5617
  560SOL    HW2 1680   1.966   2.487   0.572 -1.2425 -1.9374  0.4721
  561SOL     OW 1681   1.017   0.143   0.684 -0.3723 -0.0959  0.2874
  561SOL    HW1 1682   1.093   0.085   0.648 -0.1453 -1.7818  0.6836
  561SOL    HW2 1683   1.036   0.180   0.777  2.8885 -1.1431  3.9781
  562SOL     OW 1684   0.539   0.828   2.635  0.3249 -0.0918 -0.6325
  562SOL    HW1 1685   0.573   0.729   2.627  0.8565 -0.7637 -2.5522
  562SOL    HW2 1686   0.475   0.849   2.558  1.3405  2.0240 -0.3925
  563SOL     OW 1687   1.614   1.745   2.518 -0.0334  0.5861  0.2193
  563SOL    HW1 1688   1.530   1.742   2.575  0.6879  1.8959 -1.5986
  563SOL    HW2 1689   1.691   1.785   2.569 -1.1644  0.4371  1.3107
  564SOL     OW 1690   2.574   0.707   1.108  0.2116 -0.1160  0.1300
  564SOL    HW1 1691   2.544   0.771   1.186 -1.1467  0.3388  0.8954
  564SOL    HW2 1692   2.622   0.627   1.145  0.2054 -0.4293 -0.5524
  565SOL     OW 1693   1.031   0.480   2.969 -0.1351  0.0283  0.4848
  565SOL    HW1 1694   1.109   0.543   2.959 -0.5250 -0.1216 -2.4862
  565SOL    HW2 1695   0.942   0.519   2.946 -0.6173 -3.3089 -0.0637
  566SOL     OW 1696   2.072   0.362   2.674  0.9193  0.1919  0.5268
  566SOL    HW1 1697   2.140   0.388   2.601 -1.4807 -1.3921 -0.3735
  566SOL    HW2 1698   2.108   0.364   2.768  1.1245 -0.1796 -1.9331
  567SOL     OW 1699   2.214   1.603   0.308 -0.3252 -0.4291 -0.1313
  567SOL    HW1 1700   2.264   1.665   0.247 -1.3598 -0.4476  1.5031
  567SOL    HW2 1701   2.218   1.508   0.275  3.8561 -3.8332  0.5501
  568SOL     OW 1702   1.718   1.725   2.969 -1.0118  0.4940 -0.2359
  568SOL    HW1 1703   1.646   1.672   2.917 -1.3365 -1.2581  1.0634
  568SOL    HW2 1704   1.683   1.815   2.999  0.8036  0.2981  0.1789
  569SOL     OW 1705   2.017   1.160   3.029 -0.2731 -0.7239  0.6677
  569SOL    HW1 1706   1.969   1.249   3.004 -1.0233  3.0202 -0.0927
  569SOL    HW2 1707   2.098   1.147   2.969 -1.0126 -1.5184  1.0713
  570SOL     OW 1708   0.370   2.366   1.963 -0.2295 -0.2290  0.6043
  570SOL    HW1 1709   0.437   2.444   1.953  1.1781  0.2150 -0.1344
  570SOL    HW2 1710   0.273   2.396   1.986  0.9036  0.0228  1.9532
  571SOL     OW 1711   0.300   1.275   1.905 -0.0190  0.7261 -0.4201
  571SOL    HW1 1712   0.277   1.215   1.826 -2.6371  1.2745  0.4072
  571SOL    HW2 1713   0.344   1.216   1.980  0.5865  0.9764  0.4820
  572SOL     OW 1714   0.921   1.652   0.571 -0.0785  0.1836 -0.0277
  572SOL    HW1 1715   0.932   1.686   0.665  0.8984  1.0000  0.2603
  572SOL    HW2 1716   0.989   1.696   0.509 -3.1762 -2.4562 -0.2427
  573SOL     OW 1717   1.647   1.972   3.073 -0.4718  0.3349 -0.1006
  573SOL    HW1 1718   1.550   1.989   3.105 -0.3288  0.7963 -2.4587
  573SOL    HW2 1719   1.714   1.994   0.038 -0.6739  1.5140 -0.5189
  574SOL     OW 1720   0.973   2.957   1.200 -0.4020  0.1946  0.3470
  574SOL    HW1 1721   0.873   2.959   1.192 -2.0003 -1.2919  0.3247
  574SOL    HW2 1722   1.005   2.895   1.128  2.8067 -1.0015  1.1393
  575SOL     OW 1723   0.412   1.016   1.270 -0.1151  0.2403 -0.0214
  575SOL    HW1 1724   0.435   1.075   1.350 -2.0940  1.4261 -2.6800
  575SOL    HW2 1725   0.464   1.054   1.185  0.3642  1.7516 -2.5528
  576SOL     OW 1726   2.715   0.046   1.139 -0.3524 -0.1455 -0.2871
  576SOL    HW1 1727   2.682   3.085   1.205  0.8064 -1.5746  3.2582
  576SOL    HW2 1728   2.720   0.010   1.043  3.4321  3.1233  2.5998
  577SOL     OW 1729   0.855   0.988   2.217  0.1519 -0.2836 -0.0196
  577SOL    HW1 1730   0.865   0.992   2.113  0.1263  2.5907 -0.3383
  577SOL    HW2 1731   0.767   1.013   2.256 -1.7928 -2.3230  0.4568
  578SOL     OW 1732   2.020   0.933   2.459  0.5756  0.0012 -0.1668
  578SOL    HW1 1733   1.960   1.012   2.427 -1.4343  1.0529 -2.0943
  578SOL    HW2 1734   2.083   0.959   2.533 -1.2152 -2.3840 -0.0480
  579SOL     OW 1735   2.093   2.323   1.846  0.0168 -0.0337  0.1180
  579SOL    HW1 1736   2.048   2.333   1.935 -1.1519 -0.7470 -0.5326
  579SOL    HW2 1737   2.083   2.232   1.801 -0.1595  0.5430 -2.4870
  580SOL     OW 1738   1.526   1.495   2.372  0.2555  0.3788  0.0610
  580SOL    HW1 1739   1.583   1.564   2.424 -2.0551  0.4762  2.5469
  580SOL    HW2 1740   1.453   1.539   2.318  1.7144  0.0549  0.5631
  581SOL     OW 1741   1.199   1.179   2.437  0.3085  0.0707 -0.0847
  581SOL    HW1 1742   1.183   1.094   2.491  0.9833 -1.0605 -1.7016
  581SOL    HW2 1743   1.265   1.237   2.483 -1.3066 -0.1796 -1.9581
  582SOL     OW 1744   1.080   1.489   1.892 -0.6635 -0.2285  0.1441
  582SOL    HW1 1745   0.982   1.502   1.875  0.4208  1.3654 -0.5519
  582SOL    HW2 1746   1.136   1.498   1.806  1.6272 -1.6000 -3.1581
  583SOL     OW 1747   1.441   1.090   1.724  0.1089 -0.4744  0.0099
  583SOL    HW1 1748   1.391   1.062   1.641 -0.7401 -0.7692  1.4602
  583SOL    HW2 1749   1.452   1.190   1.732 -0.0519  0.2688 -1.6416
  584SOL     OW 1750   2.144   2.677   0.517  0.0655  0.1719  0.5692
  584SOL    HW1 1751   2.053   2.636   0.535  1.0157 -1.0356 -1.3559
  584SOL    HW2 1752   2.151   2.705   0.417  1.8662 -1.6659 -0.4158
  585SOL     OW 1753   1.790   2.933   2.749 -0.0132 -0.8323  0.7107
  585SOL    HW1 1754   1.733   2.855   2.729 -1.0010  1.5665  0.5393
  585SOL    HW2 1755   1.741   2.997   2.811 -0.2896 -1.7047 -3.0077
  586SOL     OW 1756   2.782   2.062   1.169 -0.8284  0.5458 -0.0801
  586SOL    HW1 1757   2.847   1.985   1.137  2.2320 -1.9154 -1.7214
  586SOL    HW2 1758   2.685   2.030   1.170  1.8985 -1.5321 -0.0466
  587SOL     OW 1759   1.287   1.828   3.095  0.0866 -0.6145 -0.0875
  587SOL    HW1 1760   1.336   1.738   3.098  2.3966  2.3576  3.9187
  587SOL    HW2 1761   1.215   1.834   3.023 -0.2758 -2.0339 -0.4094
  588SOL     OW 1762   0.271   0.292   1.013  0.1040  0.7697  0.2211
  588SOL    HW1 1763   0.367   0.312   1.013 -1.9038 -1.7970  1.7996
  588SOL    HW2 1764   0.238   0.265   0.923  2.4087  0.4784 -1.0720
  589SOL     OW 1765   1.219   3.099   0.569 -0.4033  0.0813  0.6431
  589SOL    HW1 1766   1.188   0.030   0.477 -1.9058  3.4841 -1.1186
  589SOL    HW2 1767   1.190   3.002   0.574  1.3503 -1.7564  2.7038
  590SOL     OW 1768   1.230   0.664   2.936 -0.0947  0.3221 -0.8816
  590SOL    HW1 1769   1.185   0.656   2.842 -1.3912  0.0671 -0.2277
  590SOL    HW2 1770   1.231   0.754   2.972  0.7730 -3.8205 -0.1733
  591SOL     OW 1771   2.786   2.335   2.057  0.3758 -0.3804 -0.3796
  591SOL    HW1 1772   2.836   2.410   2.102  0.6172 -0.3799 -1.8171
  591SOL    HW2 1773   2.837   2.301   1.977  2.4769 -1.0872 -1.7560
  592SOL     OW 1774   2.532   1.344   1.884 -0.3282 -0.5061  0.5530
  592SOL    HW1 1775   2.440   1.335   1.841  0.8581  0.4385  0.1621
  592SOL    HW2 1776   2.554   1.439   1.909  1.2674 -0.7828 -0.8102
  593SOL     OW 1777   1.290   1.047   1.502 -0.5000  0.4377 -0.5284
  593SOL    HW1 1778   1.300   0.991   1.416  0.2147  2.3964  0.7377
  593SOL    HW2 1779   1.195   1.079   1.521  0.1246  1.3498  0.4438
  594SOL     OW 1780   2.445   1.554   2.745  0.5563 -0.5539 -0.7184
  594SOL    HW1 1781   2.462   1.651   2.751 -2.5269 -2.9728 -2.2458
  594SOL    HW2 1782   2.508   1.505   2.682  3.6215 -0.0401  1.1832
  595SOL     OW 1783   3.097   0.310   0.436  0.6632  0.6043 -0.2209
  595SOL    HW1 1784   0.038   0.336   0.525  3.3356  1.7438  2.0691
  595SOL    HW2 1785   3.004   0.268   0.459  1.7226  0.7023  0.5357
  596SOL     OW 1786   3.000   1.326   0.999 -0.1430  0.2258  0.4635
  596SOL    HW1 1787   3.037   1.240   1.040 -0.7035  2.4551  0.3221
  596SOL    HW2 1788   3.074   1.381   0.956 -0.7783  0.9206 -0.7541
  597SOL     OW 1789   1.368   1.735   0.687  0.0234 -0.7031  0.1951
  597SOL    HW1 1790   1.412   1.789   0.763 -2.3601 -0.8394  3.7709
  597SOL    HW2 1791   1.309   1.794   0.623 -1.7172  1.8159 -3.4031
  598SOL     OW 1792   0.283   2.688   1.827  0.0296 -0.0802 -0.6159
  598SOL    HW1 1793   0.217   2.627   1.783  0.2733 -0.8341  1.8522
  598SOL    HW2 1794   0.353   2.721   1.762 -1.0370  0.4488  0.1747
  599SOL     OW 1795   0.029   1.583   2.780 -0.1633 -0.0744 -0.4081
  599SOL    HW1 1796   3.034   1.584   2.766 -2.0550 -2.4961 -0.3083
  599SOL    HW2 1797   0.057   1.661   2.841  1.6973 -0.5237 -0.5003
  600SOL     OW 1798   0.367   1.048   3.018 -0.4214  0.2865  0.1747
  600SOL    HW1 1799   0.350   0.968   2.959  0.7190  0.4734 -2.2025
  600SOL    HW2 1800   0.398   1.122   2.952 -0.5858 -0.6290 -1.2014
  601SOL     OW 1801   0.689   0.764   1.034  0.1406  0.7984 -0.2324
  601SOL    HW1 1802   0.630   0.778   0.953  1.0211 -1.0446 -1.0047
  601SOL    HW2 1803   0.638   0.701   1.097 -2.1843  0.2677 -1.9626
  602SOL     OW 1804   1.001   2.520   0.552 -0.2894 -0.2865 -0.1748
  602SOL    HW1 1805   1.032   2.613   0.532 -1.2332 -0.3516 -2.4502
  602SOL    HW2 1806   0.904   2.510   0.582 -1.6998 -1.6355  0.7006
  603SOL     OW 1807   1.621   2.237   2.465 -0.1980  0.1050 -0.1614
  603SOL    HW1 1808   1.595   2.318   2.520 -0.8281  0.3736 -0.0780
  603SOL    HW2 1809   1.554   2.217   2.391 -0.8355  1.1134 -0.2039
  604SOL     OW 1810   0.425   0.383   2.801 -0.5120  0.5054 -0.2873
  604SOL    HW1 1811   0.331   0.383   2.841 -0.0085  2.9173 -3.9801
  604SOL    HW2 1812   0.445   0.291   2.766  2.2407 -0.3878 -2.8040
  605SOL     OW 1813   2.664   0.963   1.734  0.1894 -1.2236 -0.0688
  605SOL    HW1 1814   2.650   1.031   1.810 -0.3911  1.5767 -1.4815
  605SOL    HW2 1815   2.687   1.012   1.646 -1.1464 -1.6677  0.0829
  606SOL     OW 1816   0.691   1.713   2.606 -0.2394  0.2411  0.3778
  606SOL    HW1 1817   0.675   1.814   2.613 -2.5293 -0.8064  1.0258
  606SOL    HW2 1818   0.774   1.696   2.547  0.4432  2.7389  2.7305
  607SOL     OW 1819   0.775   0.082   0.553 -0.4147 -0.1981  0.1579
  607SOL    HW1 1820   0.713   0.152   0.512  1.2776 -2.7264  1.4019
  607SOL    HW2 1821   0.863   0.120   0.589 -0.2466 -0.2409 -2.3033
  608SOL     OW 1822   2.680   1.635   1.585  0.6440 -0.4767  0.5478
  608SOL    HW1 1823   2.598   1.654   1.639  0.2900 -0.2848 -1.0173
  608SOL    HW2 1824   2.716   1.540   1.602  2.4594 -0.2266  0.6110
  609SOL     OW 1825   2.713   0.347   0.789  0.1913 -0.5138  0.0616
  609SOL    HW1 1826   2.672   0.326   0.882  0.0090 -1.7255 -1.1815
  609SOL    HW2 1827   2.694   0.443   0.762  2.3139  1.2429  1.7510
  610SOL     OW 1828   0.224   2.740   1.377  0.0168 -0.9410 -0.0955
  610SOL    HW1 1829   0.237   2.647   1.420  0.9427 -1.9417  1.3127
  610SOL    HW2 1830   0.258   2.741   1.279 -2.5620  1.2073  1.4429
  611SOL     OW 1831   1.576   1.627   0.184  0.2777 -0.7359 -0.2493
  611SOL    HW1 1832   1.675   1.640   0.151  0.8397  0.0165  0.2088
  611SOL    HW2 1833   1.533   1.720   0.193  1.4823  0.2808 -2.9861
  612SOL     OW 1834   0.715   2.786   2.046 -0.2789  0.3088  0.3805
  612SOL    HW1 1835   0.730   2.809   2.142 -0.5174 -2.5794  0.2525
  612SOL    HW2 1836   0.662   2.863   2.004 -1.7831  3.2773 -0.4666
  613SOL     OW 1837   0.390   2.694   0.901 -0.4501  0.0024 -0.3040
  613SOL    HW1 1838   0.396   2.615   0.835 -0.3592  1.7428 -1.4556
  613SOL    HW2 1839   0.449   2.670   0.980 -0.2787 -0.4725 -0.2405
  614SOL     OW 1840   2.243   0.003   2.218 -0.7535 -0.1126  0.1184
  614SOL    HW1 1841   2.156   0.054   2.234 -2.2026  2.9071 -2.0381
  614SOL    HW2 1842   2.257   3.086   2.119  0.6013 -0.9645 -3.2890
  615SOL     OW 1843   1.526   1.424   0.351 -0.1774 -0.2527  0.0416
  615SOL    HW1 1844   1.538   1.488   0.272  2.2360 -2.3028 -0.1382
  615SOL    HW2 1845   1.572   1.465   0.435 -1.0686 -1.4898  1.5822
  616SOL     OW 1846   1.879   1.578   0.416  0.0666 -0.4865 -0.4053
  616SOL    HW1 1847   1.918   1.657   0.366 -1.5691 -0.8905 -2.3162
  616SOL    HW2 1848   1.898   1.493   0.360 -0.7804  0.0350 -1.3181
  617SOL     OW 1849   1.187   0.938   2.571  0.0049 -0.2734 -0.0371
  617SOL    HW1 1850   1.155   0.849   2.612  0.2596  0.9309 -1.1440
  617SOL    HW2 1851   1.230   0.920   2.479  3.1896  0.7218 -1.7865
  618SOL     OW 1852   0.613   3.029   1.963 -0.8500 -0.5885  0.3477
  618SOL    HW1 1853   0.526   3.037   1.912  1.0616 -2.3758  0.1264
  618SOL    HW2 1854   0.598   3.034   2.066  2.0553  0.5344 -2.0098
  619SOL     OW 1855   2.784   1.375   1.488  0.3764  0.0388 -0.3186
  619SOL    HW1 1856   2.883   1.397   1.477  0.3284 -0.9334  0.8686
  619SOL    HW2 1857   2.729   1.383   1.398  0.0916  1.8346 -0.1842
  620SOL     OW 1858   2.368   0.255   2.860  0.2459 -0.0302 -0.3172
  620SOL    HW1 1859   2.381   0.317   2.779  0.5342  0.4673  1.7848
  620SOL    HW2 1860   2.298   0.181   2.842  0.0218  0.1836 -0.8522
  621SOL     OW 1861   2.275   2.176   2.610  0.3719 -0.7337  0.0666
  621SOL    HW1 1862   2.356   2.233   2.641 -0.9659  0.1263  1.0053
  621SOL    HW2 1863   2.292   2.077   2.633  1.1806  1.7889 -1.9246
  622SOL     OW 1864   0.817   0.782   2.695 -0.9632  0.4167 -0.1011
  622SOL    HW1 1865   0.718   0.777   2.716 -0.7260  0.5769  2.6008
  622SOL    HW2 1866   0.835   0.793   2.593 -0.2206  1.8808 -1.9145
  623SOL     OW 1867   0.616   1.103   2.310  0.1207  0.0646  0.1236
  623SOL    HW1 1868   0.621   1.142   2.401 -1.5170 -0.0067 -1.8582
  623SOL    HW2 1869   0.565   1.015   2.314  0.1104  0.6242 -2.4890
  624SOL     OW 1870   2.735   0.465   0.366  0.1690  0.0410  0.3427
  624SOL    HW1 1871   2.717   0.456   0.265 -1.5066 -1.1079 -1.8972
  624SOL    HW2 1872   2.804   0.535   0.376  1.7202 -2.7272 -2.0548
  625SOL     OW 1873   0.980   2.451   1.006  0.3528  0.4593  0.1267
  625SOL    HW1 1874   0.933   2.537   0.981 -0.8509 -3.2680 -0.9760
  625SOL    HW2 1875   1.015   2.452   1.103  0.1820 -1.4429 -0.4981
  626SOL     OW 1876   2.108   0.677   2.559 -0.0909  0.0276 -0.0138
  626SOL    HW1 1877   2.082   0.692   2.656  1.3936 -1.4640  1.0035
  626SOL    HW2 1878   2.071   0.748   2.497  2.7133 -2.9098  1.4256
  627SOL     OW 1879   1.432   2.745   2.934 -0.5174  0.0459  0.0210
  627SOL    HW1 1880   1.439   2.835   2.988  0.0401  1.4265 -0.2629
  627SOL    HW2 1881   1.336   2.724   2.920 -0.8702  0.4639  2.3707
  628SOL     OW 1882   2.584   2.902   2.200 -0.1461 -0.4990  0.0340
  628SOL    HW1 1883   2.675   2.945   2.176  0.4372  1.7053  2.1381
  628SOL    HW2 1884   2.537   2.949   2.279  0.4021 -2.6773  1.0457
  629SOL     OW 1885   1.011   3.089   2.204  0.0157  0.4520 -0.2044
  629SOL    HW1 1886   1.103   3.090   2.238  0.1227 -1.8744  1.6408
  629SOL    HW2 1887   0.988   0.070   2.162 -0.3568 -1.6126  1.3406
  630SOL     OW 1888   0.778   0.268   2.248  0.1293  0.4028  0.0761
  630SOL    HW1 1889   0.788   0.261   2.347  0.6510 -0.1986 -4.5950
  630SOL    HW2 1890   0.849   0.218   2.193  0.2398 -1.4497 -0.3413
  631SOL     OW 1891   1.802   1.137   0.771 -0.0677 -0.0389 -0.3456
  631SOL    HW1 1892   1.720   1.190   0.743 -0.3067  0.4846 -1.0331
  631SOL    HW2 1893   1.853   1.172   0.855  1.4718 -0.4977  2.0807
  632SOL     OW 1894   2.561   0.428   1.615  0.1381 -0.3221  0.2727
  632SOL    HW1 1895   2.483   0.491   1.629  1.5679  1.0071  0.7683
  632SOL    HW2 1896   2.555   0.386   1.521 -1.2277  1.0158 -1.4729
  633SOL     OW 1897   1.184   1.791   0.252  0.3433 -0.1956 -0.1560
  633SOL    HW1 1898   1.214   1.806   0.159  0.0818 -3.0267  1.3365
  633SOL    HW2 1899   1.120   1.710   0.246  0.3077 -0.2433 -1.0928
  634SOL     OW 1900   2.748   0.044   1.772  0.5195 -0.3840  0.6489
  634SOL    HW1 1901   2.661   0.071   1.727  0.9938 -0.7769 -2.6885
  634SOL    HW2 1902   2.828   0.105   1.752 -0.1541  2.3481 -0.6596
  635SOL     OW 1903   1.587   0.545   0.807  0.0590  0.4338 -0.7818
  635SOL    HW1 1904   1.604   0.556   0.909 -1.5913 -2.0269 -1.8220
  635SOL    HW2 1905   1.570   0.443   0.793  0.8695 -1.4056 -0.7870
  636SOL     OW 1906   0.779   1.171   0.011  0.0602 -0.2553  0.1511
  636SOL    HW1 1907   0.695   1.115   0.007 -0.6352  1.2814  1.5555
  636SOL    HW2 1908   0.758   1.269   3.105 -0.5225 -2.5262 -1.7596
  637SOL     OW 1909   2.899   2.103   3.011 -0.4249 -0.4082  0.3961
  637SOL    HW1 1910   2.927   2.063   2.919 -0.0788 -0.9394  0.3058
  637SOL    HW2 1911   2.983   2.144   3.050  1.4740  0.0732 -2.7359
  638SOL     OW 1912   1.533   2.463   2.622 -0.3269  0.0715 -0.5901
  638SOL    HW1 1913   1.532   2.565   2.611 -1.2967 -0.8942 -0.7158
  638SOL    HW2 1914   1.529   2.447   2.726  0.1731  0.5861  0.4836
  639SOL     OW 1915   1.712   1.859   0.660  0.4227  0.4521  0.1713
  639SOL    HW1 1916   1.620   1.832   0.708 -2.2769 -2.0768 -0.0867
  639SOL    HW2 1917   1.694   1.881   0.563 -3.0752 -0.6181 -0.7773
  640SOL     OW 1918   2.027   2.954   0.487  0.6291 -0.0111 -0.5985
  640SOL    HW1 1919   2.037   2.912   0.401 -1.9757 -0.3639  3.1011
  640SOL    HW2 1920   2.081   3.039   0.491 -0.4793 -2.0918  0.1517
  641SOL     OW 1921   2.654   0.479   0.106  0.0365 -0.2557  0.0277
  641SOL    HW1 1922   2.592   0.549   0.152 -0.1981  0.9379  0.8835
  641SOL    HW2 1923   2.606   0.389   0.099 -1.3750 -0.1323 -1.0391
  642SOL     OW 1924   0.585   0.593   1.192  0.0347  0.6584 -0.2689
  642SOL    HW1 1925   0.535   0.661   1.252  1.9185  2.0569 -1.7669
  642SOL    HW2 1926   0.571   0.497   1.228  0.1760 -1.7157  2.4920
  643SOL     OW 1927   0.457   1.439   2.238  0.1946 -0.0956 -0.0112
  643SOL    HW1 1928   0.540   1.400   2.193 -1.6230 -0.9893 -1.7134
  643SOL    HW2 1929   0.477   1.491   2.321 -2.4443 -0.2083  1.3465
  644SOL     OW 1930   2.051   2.351   0.669  0.1863  0.1868  0.4522
  644SOL    HW1 1931   2.057   2.250   0.655 -0.6936 -0.2509 -0.7366
  644SOL    HW2 1932   2.047   2.367   0.772  2.5916 -0.7317  4.4323
  645SOL     OW 1933   2.283   2.288   1.030 -0.3003 -0.5779 -0.0035
  645SOL    HW1 1934   2.304   2.219   0.962 -0.3552 -0.2546  1.1997
  645SOL    HW2 1935   2.197   2.269   1.078  5.0487  0.1711 -0.5830
  646SOL     OW 1936   0.899   2.208   2.938  0.1307 -0.1620 -0.2229
  646SOL    HW1 1937   0.874   2.119   2.979  0.3738 -0.9794 -0.0017
  646SOL    HW2 1938   0.848   2.278   2.987  1.9517 -0.7198  1.5999
  647SOL     OW 1939   0.964   2.665   1.742  0.0479  0.4741  0.5908
  647SOL    HW1 1940   1.050   2.628   1.708 -0.3081  0.1341  2.3989
  647SOL    HW2 1941   0.970   2.678   1.843 -0.7945  1.2333  0.3078
  648SOL     OW 1942   1.454   0.184   1.120  0.6692  0.2747  0.2826
  648SOL    HW1 1943   1.461   0.161   1.221  1.0076 -1.3311 -2.2191
  648SOL    HW2 1944   1.553   0.202   1.088  0.2928  0.4558  1.7364
  649SOL     OW 1945   1.420   2.082   0.050 -0.0585  0.3461 -0.3987
  649SOL    HW1 1946   1.330   2.071   0.095 -0.0813 -0.4010 -0.0378
  649SOL    HW2 1947   1.480   2.142   0.102  0.1936  1.1195 -0.7354
  650SOL     OW 1948   2.388   1.475   1.457 -0.5195 -0.0644 -0.2742
  650SOL    HW1 1949   2.381   1.539   1.536  1.1936  0.2699 -0.5416
  650SOL    HW2 1950   2.355   1.515   1.367 -2.1485  1.0705 -1.6964
  651SOL     OW 1951   1.704   2.679   2.994  0.4006 -0.0379  0.0421
  651SOL    HW1 1952   1.621   2.682   2.938 -1.6662 -1.5423 -0.0619
  651SOL    HW2 1953   1.770   2.616   2.952 -1.3133 -1.0631 -0.4480
  652SOL     OW 1954   0.207   1.967   0.010  0.4398  0.1360 -0.0267
  652SOL    HW1 1955   0.182   1.943   0.104  0.0269 -2.1291  1.3621
  652SOL    HW2 1956   0.301   2.013   0.011  0.3037 -0.0022 -2.6371
  653SOL     OW 1957   2.899   2.912   0.995 -0.0016  0.3939 -0.1083
  653SOL    HW1 1958   2.977   2.877   0.935  2.2055  0.0441 -1.5560
  653SOL    HW2 1959   2.808   2.909   0.945 -0.4374 -0.6811 -2.5730
  654SOL     OW 1960   2.821   2.926   1.910  0.0666 -0.4117 -0.4620
  654SOL    HW1 1961   2.919   2.903   1.901 -2.1849 -0.9891  1.8393
  654SOL    HW2 1962   2.796   3.007   1.851 -0.9248 -2.0648  4.6560
  655SOL     OW 1963   0.020   2.009   0.892  0.1329  0.0300  0.1546
  655SOL    HW1 1964   3.092   1.998   0.988 -3.5555 -0.6462 -1.1171
  655SOL    HW2 1965   0.124   2.004   0.896 -1.0148 -1.9844  3.6340
  656SOL     OW 1966   0.014   2.890   2.311 -0.2355 -0.2800  0.1415
  656SOL    HW1 1967   3.042   2.910   2.255  2.0526 -2.1240 -0.9638
  656SOL    HW2 1968   3.098   2.819   2.379  0.0881 -1.9574  1.0620
  657SOL     OW 1969   2.942   1.340   2.936  0.1449  0.5362  0.7037
  657SOL    HW1 1970   3.008   1.283   2.893 -1.2097 -0.4675 -0.2916
  657SOL    HW2 1971   2.888   1.293   3.006  0.5837  3.4317 -3.2552
  658SOL     OW 1972   2.602   1.619   1.030  0.3069  0.0055 -0.0752
  658SOL    HW1 1973   2.508   1.635   1.058  0.2314 -1.9280 -0.4733
  658SOL    HW2 1974   2.606   1.627   0.927 -1.4043 -1.2532 -0.3363
  659SOL     OW 1975   1.598   0.272   0.773 -0.0406 -0.3538  0.0140
  659SOL    HW1 1976   1.646   0.229   0.853 -0.0146 -0.8010 -1.2579
  659SOL    HW2 1977   1.544   0.204   0.717 -4.0239  1.0830 -1.1546
  660SOL     OW 1978   1.618   1.329   2.908 -0.2084  0.0887 -0.5594
  660SOL    HW1 1979   1.576   1.288   2.992 -0.1864  0.3248 -3.0026
  660SOL    HW2 1980   1.593   1.426   2.889  0.9588 -0.0213  0.9348
  661SOL     OW 1981   0.327   2.222   1.134 -0.3576  0.2553 -0.3118
  661SOL    HW1 1982   0.411   2.281   1.139  1.1658 -0.9414  1.7908
  661SOL    HW2 1983   0.262   2.265   1.200 -0.1722 -1.0057 -1.8379
  662SOL     OW 1984   2.943   0.653   2.927 -0.2958  0.4276 -0.4082
  662SOL    HW1 1985   2.870   0.708   2.883  2.4773  0.9380  1.7584
  662SOL    HW2 1986   3.020   0.638   2.864 -1.1726 -2.8995  1.1384
  663SOL     OW 1987   2.075   1.805   0.956  0.4472 -0.3789 -0.3868
  663SOL    HW1 1988   2.022   1.754   0.887 -0.4270  1.5017  0.7699
  663SOL    HW2 1989   2.020   1.839   1.035 -0.9628 -0.9225 -0.3859
  664SOL     OW 1990   1.032   1.423   1.337  0.4987 -0.2379 -0.2169
  664SOL    HW1 1991   0.966   1.344   1.339 -2.4511 -0.0902  3.4854
  664SOL    HW2 1992   1.120   1.397   1.295  0.3054  1.8995  1.5680
  665SOL     OW 1993   1.564   2.759   2.441 -0.0540  0.6263  0.1484
  665SOL    HW1 1994   1.492   2.744   2.369  1.2191 -2.0930  1.8874
  665SOL    HW2 1995   1.654   2.733   2.400  3.2223 -1.1572  1.5923
  666SOL     OW 1996   2.939   2.901   2.724 -0.7269 -0.0891 -0.5424
  666SOL    HW1 1997   2.965   2.893   2.824 -0.0653 -1.5457  1.2995
  666SOL    HW2 1998   2.992   2.974   2.676  0.9234 -0.2425  1.3456
  667SOL     OW 1999   2.314   1.475   2.147 -0.5292  0.3984  0.4551
  667SOL    HW1 2000   2.300   1.421   2.067  0.5664  1.5333  3.2664
  667SOL    HW2 2001   2.306   1.575   2.126 -1.2241 -0.8433 -2.5155
  668SOL     OW 2002   0.318   1.140   2.586 -0.0711 -0.6427 -0.3310
  668SOL    HW1 2003   0.338   1.174   2.680 -0.2519 -1.7903 -2.1682
  668SOL    HW2 2004   0.276   1.209   2.527  2.0560 -0.2006  2.5001
  669SOL     OW 2005   2.037   2.315   2.689 -0.2998  0.6629 -0.5924
  669SOL    HW1 2006   2.130   2.276   2.668 -1.4972  0.2060 -0.0552
  669SOL    HW2 2007   2.032   2.394   2.756 -2.1358 -0.9298  0.2707
  670SOL     OW 2008   2.138   1.124   1.926 -0.3187 -0.1745 -0.5002
  670SOL    HW1 2009   2.175   1.116   2.015 -1.4277  1.2118 -1.1010
  670SOL    HW2 2010   2.196   1.190   1.876  1.6458  0.9040 -1.0309
  671SOL     OW 2011   2.641   1.293   0.382 -0.2654 -0.5946  0.0493
  671SOL    HW1 2012   2.656   1.350   0.297  0.4704 -1.5757  0.4869
  671SOL    HW2 2013   2.579   1.347   0.443  1.1270 -0.1260  2.1974
  672SOL     OW 2014   2.401   0.909   2.142 -0.6830  0.5522 -0.4652
  672SOL    HW1 2015   2.313   0.963   2.143  2.0845 -1.7404 -0.5112
  672SOL    HW2 2016   2.469   0.946   2.075 -0.7934 -1.2870  0.1316
  673SOL     OW 2017   2.622   0.779   1.538 -0.2531  0.6284  0.0143
  673SOL    HW1 2018   2.606   0.833   1.623 -2.3607  0.5229 -0.3135
  673SOL    HW2 2019   2.682   0.700   1.564  0.3938 -0.8724  0.7838
  674SOL     OW 2020   1.938   2.040   1.363  0.0042  0.1008  0.1561
  674SOL    HW1 2021   1.899   1.971   1.302 -2.2442  0.5010  0.7565
  674SOL    HW2 2022   1.870   2.112   1.389  1.3400 -3.7906 -1.0148
  675SOL     OW 2023   0.761   0.597   0.732 -0.5067  0.7546  0.0013
  675SOL    HW1 2024   0.701   0.543   0.784  1.9733  1.1419 -1.1442
  675SOL    HW2 2025   0.807   0.542   0.662 -1.2970  0.7685  1.7715
  676SOL     OW 2026   1.540   1.209   1.163 -0.5407 -0.7886  0.3902
  676SOL    HW1 2027   1.514   1.279   1.100 -0.5294 -4.0216 -0.3713
  676SOL    HW2 2028   1.542   1.242   1.261  0.6811  0.0157 -0.1076
  677SOL     OW 2029   2.571   1.549   2.326  0.0508  0.3842  0.1200
  677SOL    HW1 2030   2.482   1.525   2.271  0.6246 -1.0393 -0.4517
  677SOL    HW2 2031   2.556   1.634   2.382  0.6651 -1.4813  0.7986
  678SOL     OW 2032   3.099   1.649   0.672  0.4494  0.0197 -0.2862
  678SOL    HW1 2033   3.048   1.572   0.625 -1.6232 -0.8885  0.0022
  678SOL    HW2 2034   3.043   1.737   0.667 -1.0335  1.4520  1.3806
  679SOL     OW 2035   2.539   2.613   0.406 -0.0278  0.3186  0.0559
  679SOL    HW1 2036   2.529   2.663   0.494  2.3097 -0.0543 -5.1944
  679SOL    HW2 2037   2.623   2.550   0.414  1.2486  2.3178 -0.0923
  680SOL     OW 2038   2.757   2.062   1.654  0.0056  0.2237  0.0955
  680SOL    HW1 2039   2.775   1.990   1.582  0.8667 -0.2237 -2.0675
  680SOL    HW2 2040   2.801   2.030   1.742 -1.2785  1.6300 -1.1298
  681SOL     OW 2041   0.596   1.428   1.247 -0.4463  0.0218 -0.5763
  681SOL    HW1 2042   0.637   1.355   1.192  0.5919  0.8036  0.1767
  681SOL    HW2 2043   0.506   1.447   1.213  3.9584  2.1480 -1.6546
  682SOL     OW 2044   1.643   2.571   0.686  0.1097  0.5996 -0.1014
  682SOL    HW1 2045   1.601   2.638   0.753  0.5430  3.1201 -0.7822
  682SOL    HW2 2046   1.569   2.519   0.634 -1.0992  0.5526  0.3476
  683SOL     OW 2047   2.425   1.362   0.581 -0.4890  0.6306 -0.2800
  683SOL    HW1 2048   2.471   1.350   0.674  1.1141  0.5125 -0.3109
  683SOL    HW2 2049   2.445   1.454   0.555  2.5927 -0.3517 -2.5524
  684SOL     OW 2050   0.713   2.226   1.838  0.4443 -0.1794  0.3924
  684SOL    HW1 2051   0.716   2.314   1.784 -0.8945  0.1143  0.1941
  684SOL    HW2 2052   0.633   2.213   1.897  1.4557  0.3320  3.1287
  685SOL     OW 2053   2.115   1.486   2.999  0.2497  0.2938 -0.4205
  685SOL    HW1 2054   2.194   1.427   2.977 -1.5636  1.9680  1.8061
  685SOL    HW2 2055   2.034   1.462   2.941  0.2847  0.9701  1.6730
  686SOL     OW 2056   0.397   0.419   0.688 -0.6267  0.9706  0.2991
  686SOL    HW1 2057   0.294   0.434   0.695 -0.7998  0.8286  1.1392
  686SOL    HW2 2058   0.447   0.416   0.775 -0.4941 -2.3321 -1.9219
  687SOL     OW 2059   1.144   2.439   2.677  0.2604  0.4335  0.7203
  687SOL    HW1 2060   1.170   2.367   2.742 -1.1395  0.2305 -0.5811
  687SOL    HW2 2061   1.197   2.415   2.590 -0.0800 -2.0225 -0.3349
  688SOL     OW 2062   2.423   1.682   1.674  0.3707  0.2953  0.1239
  688SOL    HW1 2063   2.439   1.653   1.770 -0.3598 -0.0300 -1.1018
  688SOL    HW2 2064   2.382   1.776   1.671  2.0413  1.6497 -1.7592
  689SOL     OW 2065   2.422   0.627   2.137  0.4453 -0.4090 -0.1468
  689SOL    HW1 2066   2.500   0.621   2.066 -1.4221  2.6058 -2.8068
  689SOL    HW2 2067   2.413   0.724   2.166 -2.7340 -0.3100  0.6922
  690SOL     OW 2068   2.042   0.921   1.353 -0.2308 -0.4717 -0.2264
  690SOL    HW1 2069   1.950   0.913   1.400  1.8342  0.6469 -0.4995
  690SOL    HW2 2070   2.100   1.002   1.386  3.4897  2.8145  1.6567
  691SOL     OW 2071   1.075   1.903   1.398 -0.4496  0.0981  0.5020
  691SOL    HW1 2072   0.980   1.857   1.416 -4.4472 -0.7791  0.0133
  691SOL    HW2 2073   1.084   1.984   1.459 -0.4931 -0.7346  0.0466
  692SOL     OW 2074   1.804   0.296   1.376  0.2619 -0.2156 -0.3645
  692SOL    HW1 2075   1.779   0.306   1.478 -1.7175 -1.7939 -0.0194
  692SOL    HW2 2076   1.882   0.359   1.370  1.1769 -0.1123  1.0134
  693SOL     OW 2077   0.574   1.100   2.591  0.2950  0.0223  0.0162
  693SOL    HW1 2078   0.585   1.005   2.623  1.3410  0.6573 -1.9198
  693SOL    HW2 2079   0.476   1.114   2.565  2.8105  1.0350 -2.5597
  694SOL     OW 2080   1.777   2.747   1.332 -0.5025 -0.1311  0.0180
  694SOL    HW1 2081   1.751   2.721   1.234 -1.9010  1.3216  2.1756
  694SOL    HW2 2082   1.875   2.755   1.346  1.5610 -3.2023 -0.1854
  695SOL     OW 2083   1.503   1.351   2.077  0.3582 -0.0340  0.1008
  695SOL    HW1 2084   1.497   1.344   1.978  0.2591  1.7554  1.0699
  695SOL    HW2 2085   1.508   1.452   2.101 -1.4161  1.5960 -0.1841
  696SOL     OW 2086   1.722   0.331   1.120 -0.2689  0.1583 -0.8966
  696SOL    HW1 2087   1.795   0.284   1.071  0.9972  0.8861  0.4391
  696SOL    HW2 2088   1.751   0.327   1.221 -0.6422  0.2658  1.3209
  697SOL     OW 2089   1.234   0.036   1.104 -0.0957 -0.4045 -0.1502
  697SOL    HW1 2090   1.170   0.062   1.183  2.8711 -1.2365 -1.8432
  697SOL    HW2 2091   1.322   0.096   1.100  3.7688  0.2085  1.0269
  698SOL     OW 2092   1.762   1.202   1.990 -0.3270 -0.1799  0.0992
  698SOL    HW1 2093   1.819   1.282   1.966  2.0777 -4.1051  0.5054
  698SOL    HW2 2094   1.666   1.235   2.009 -1.1271  2.8886  1.7948
  699SOL     OW 2095   1.517   1.243   1.437 -0.8636 -0.0719 -0.1168
  699SOL    HW1 2096   1.423   1.208   1.449 -0.9019 -3.4753  0.6235
  699SOL    HW2 2097   1.578   1.198   1.504 -2.9445  0.5517 -1.3714
  700SOL     OW 2098   1.558   0.105   0.359 -0.7379  0.5238 -0.5868
  700SOL    HW1 2099   1.580   0.195   0.314  0.6306 -1.1535 -2.1011
  700SOL    HW2 2100   1.490   0.061   0.295 -0.6565 -1.0867  1.3005
  701SOL     OW 2101   0.394   0.001   1.804  0.2073 -0.2575 -0.0395
  701SOL    HW1 2102   0.435   0.090   1.783  2.0458 -0.6432 -1.4113
  701SOL    HW2 2103   0.398   3.044   1.719  0.5955 -1.4182 -3.5934
  702SOL     OW 2104   1.338   2.794   0.190  0.3815  0.1756 -0.0038
  702SOL    HW1 2105   1.370   2.818   0.284 -0.3824 -0.5252 -4.1129
  702SOL    HW2 2106   1.408   2.737   0.138  1.2254 -2.5810 -3.6057
  703SOL     OW 2107   2.550   0.209   2.078  0.0194 -0.2561 -0.1816
  703SOL    HW1 2108   2.518   0.283   2.143 -1.7746  2.2272 -1.4589
  703SOL    HW2 2109   2.468   0.169   2.031  0.0152  0.4125 -2.7664
  704SOL     OW 2110   1.250   2.186   1.063  0.1440 -0.0801 -0.4601
  704SOL    HW1 2111   1.334   2.150   1.098 -4.4399 -0.7339  2.0787
  704SOL    HW2 2112   1.199   2.239   1.131 -0.1677 -1.6252 -1.0215
  705SOL     OW 2113   0.109   1.073   2.196 -0.0707 -0.2426 -0.3427
  705SOL    HW1 2114   0.071   1.018   2.268  0.2236 -1.6415 -3.2764
  705SOL    HW2 2115   0.032   1.095   2.132  0.0938 -0.4868  3.6336
  706SOL     OW 2116   1.465   0.091   0.609  0.6055 -0.3187 -0.4501
  706SOL    HW1 2117   1.375   0.049   0.591  0.6396 -1.8084 -1.8411
  706SOL    HW2 2118   1.517   0.106   0.521 -0.0955  0.2796  4.3541
  707SOL     OW 2119   1.323   2.158   2.457 -0.4436  0.9243  0.5975
  707SOL    HW1 2120   1.237   2.132   2.509  0.5254 -2.4250 -0.7742
  707SOL    HW2 2121   1.365   2.074   2.420 -0.6363 -0.3098 -1.9534
  708SOL     OW 2122   3.016   2.228   1.280  0.5407 -0.2946 -0.0999
  708SOL    HW1 2123   2.927   2.276   1.295 -1.1592 -1.4603 -0.4758
  708SOL    HW2 2124   3.023   2.156   1.356  1.3228  2.7045 -0.6930
  709SOL     OW 2125   1.933   0.486   1.715  0.3512  0.2530 -0.4892
  709SOL    HW1 2126   2.028   0.441   1.730  1.2827 -2.3987  2.9202
  709SOL    HW2 2127   1.927   0.576   1.759 -0.4308 -0.9253 -2.0471
  710SOL     OW 2128   0.022   0.209   1.386 -0.0814 -0.4156  0.4376
  710SOL    HW1 2129   3.043   0.194   1.332 -1.6408 -2.4809  0.9789
  710SOL    HW2 2130   0.004   0.284   1.457  0.2283  0.5602 -1.7216
  711SOL     OW 2131   0.420   2.452   0.769 -0.1926 -0.0506  0.5902
  711SOL    HW1 2132   0.488   2.377   0.790  0.4751 -4.2217 -0.4547
  711SOL    HW2 2133   0.327   2.432   0.808 -2.1497  2.1887  2.3981
  712SOL     OW 2134   0.180   1.997   2.497  0.0465  0.2615  0.0620
  712SOL    HW1 2135   0.221   2.056   2.423  0.0280  1.7437 -2.5136
  712SOL    HW2 2136   0.225   1.908   2.504 -2.5116 -0.2616 -2.7695
  713SOL     OW 2137   1.726   0.616   0.072  0.2250 -0.5844 -0.6626
  713SOL    HW1 2138   1.660   0.667   0.137 -1.9339  1.9721 -0.5716
  713SOL    HW2 2139   1.714   0.640   3.079  0.7071  0.7156  1.0516
  714SOL     OW 2140   1.455   1.860   0.207 -0.2090 -0.3498  0.4417
  714SOL    HW1 2141   1.437   1.926   0.127  0.5684  0.2049  0.2524
  714SOL    HW2 2142   1.363   1.831   0.244  1.2503 -1.2899 -1.1550
  715SOL     OW 2143   2.395   0.139   0.613 -0.3530  0.0368 -0.4241
  715SOL    HW1 2144   2.455   0.056   0.637 -0.1220 -3.2115  2.1436
  715SOL    HW2 2145   2.372   0.188   0.698 -0.4729 -2.3801  0.3761
  716SOL     OW 2146   0.503   0.508   2.352  0.4466 -0.2167  0.3975
  716SOL    HW1 2147   0.564   0.531   2.428 -0.6937 -1.3491  2.1960
  716SOL    HW2 2148   0.406   0.505   2.376 -0.8974  0.6070 -1.5556
  717SOL     OW 2149   0.103   0.196   2.645 -0.8263 -0.4859 -0.2070
  717SOL    HW1 2150   0.201   0.197   2.611  2.8829  1.2245 -2.4495
  717SOL    HW2 2151   0.046   0.276   2.616  1.6828 -2.0299 -0.5690
  718SOL     OW 2152   1.208   0.766   0.424 -0.3705  0.0344  0.2529
  718SOL    HW1 2153   1.258   0.786   0.337 -1.6468  2.2316 -1.9222
  718SOL    HW2 2154   1.186   0.666   0.422  1.4554 -1.2937  0.0910
  719SOL     OW 2155   2.709   2.257   2.923  0.4767 -0.7527 -0.0950
  719SOL    HW1 2156   2.634   2.220   2.866  1.0325  0.6444  0.5588
  719SOL    HW2 2157   2.778   2.195   2.960 -2.4291  1.2924 -0.7633
  720SOL     OW 2158   1.254   0.892   1.236 -0.1351  0.0887 -0.5725
  720SOL    HW1 2159   1.231   0.975   1.181  0.1747 -0.2527 -0.3580
  720SOL    HW2 2160   1.171   0.828   1.233  1.5397  2.3459  0.8367
  721SOL     OW 2161   2.884   0.740   0.569  0.0431 -0.3956  0.9410
  721SOL    HW1 2162   2.829   0.684   0.635 -0.1565  0.0638 -0.5969
  721SOL    HW2 2163   2.944   0.803   0.619 -0.2393  0.0881 -2.2432
  722SOL     OW 2164   1.056   2.091   2.548 -0.7592 -0.1106 -0.0868
  722SOL    HW1 2165   1.108   2.029   2.613 -0.4108 -0.4699 -0.7214
  722SOL    HW2 2166   0.964   2.125   2.585 -1.4921  0.1073 -1.6091
  723SOL     OW 2167   0.659   0.785   0.418 -0.4448  0.1476 -0.2896
  723SOL    HW1 2168   0.636   0.804   0.514  1.3473  0.1628 -2.3928
  723SOL    HW2 2169   0.700   0.869   0.375 -1.0334  0.0849  1.4244
  724SOL     OW 2170   0.942   1.775   1.630  0.0942  0.4447  0.5211
  724SOL    HW1 2171   0.893   1.716   1.565  0.2172 -1.0096  1.1871
  724SOL    HW2 2172   0.882   1.849   1.663 -0.4465 -0.4045  1.7958
  725SOL     OW 2173   0.142   0.995   1.344 -0.6138  0.2105  0.6103
  725SOL    HW1 2174   0.224   1.007   1.283  0.9997 -1.2947 -1.3851
  725SOL    HW2 2175   0.160   1.029   1.438  0.3502 -0.5086 -2.9592
  726SOL     OW 2176   1.738   0.391   0.549  0.0205  0.2407 -0.0323
  726SOL    HW1 2177   1.687   0.365   0.634  1.8457  0.5638 -0.5839
  726SOL    HW2 2178   1.824   0.444   0.569 -0.4138  1.7298  0.8687
  727SOL     OW 2179   1.600   0.982   2.257  0.2943 -0.0228 -0.2772
  727SOL    HW1 2180   1.524   1.048   2.246 -0.5012  0.5276 -1.7107
  727SOL    HW2 2181   1.592   0.899   2.197  2.2783  1.3691  2.3596
  728SOL     OW 2182   1.862   2.456   1.179 -0.7723 -0.4212 -0.3041
  728SOL    HW1 2183   1.846   2.451   1.281 -1.3046  0.6196 -1.0012
  728SOL    HW2 2184   1.814   2.536   1.140  0.4177 -2.3024  1.8296
  729SOL     OW 2185   1.228   0.495   1.439 -0.5451  0.2143  0.3832
  729SOL    HW1 2186   1.267   0.492   1.344  2.9679  2.6142  1.1957
  729SOL    HW2 2187   1.290   0.440   1.497  2.1363  0.0645 -1.9849
  730SOL     OW 2188   0.757   1.982   1.728 -0.1608 -0.7103 -0.3454
  730SOL    HW1 2189   0.688   1.960   1.658 -0.4793  0.1137  4.1039
  730SOL    HW2 2190   0.742   2.075   1.763  3.4075 -0.8644 -2.7495
  731SOL     OW 2191   0.279   0.321   0.210  0.3796 -0.5792 -0.1056
  731SOL    HW1 2192   0.284   0.280   0.304  2.1756 -4.9626 -1.6414
  731SOL    HW2 2193   0.296   0.252   0.139 -0.6586 -1.1940 -0.4375
  732SOL     OW 2194   0.495   0.573   2.974  0.0892  0.5973 -0.2282
  732SOL    HW1 2195   0.477   0.489   2.917  0.7534  0.5772  0.7996
  732SOL    HW2 2196   0.433   0.575   3.056  0.1899 -1.6855  0.4224
  733SOL     OW 2197   1.358   2.011   1.346  0.5708  0.3100  0.1846
  733SOL    HW1 2198   1.264   1.963   1.342 -0.0332 -0.7002  1.7419
  733SOL    HW2 2199   1.405   1.975   1.427 -0.6015  1.0132 -0.6690
  734SOL     OW 2200   3.094   2.686   2.633  0.2157  0.5866  0.0005
  734SOL    HW1 2201   3.036   2.605   2.633 -2.6229  2.0073  0.8456
  734SOL    HW2 2202   3.039   2.771   2.664 -2.1153  3.9472  2.6935
  735SOL     OW 2203   0.796   2.653   0.878 -0.3589  0.6570  0.2192
  735SOL    HW1 2204   0.867   2.723   0.850 -0.7379  0.9474 -0.4613
  735SOL    HW2 2205   0.794   2.574   0.814 -2.8272 -0.6155  0.8021
  736SOL     OW 2206   1.537   0.795   2.592  0.1581 -0.1785  0.4281
  736SOL    HW1 2207   1.488   0.829   2.508 -2.1564  0.6571  1.2396
  736SOL    HW2 2208   1.492   0.830   2.681 -1.7233 -0.6163 -3.5041
  737SOL     OW 2209   2.976   0.604   0.350  0.1351 -0.5905 -0.7315
  737SOL    HW1 2210   3.029   0.513   0.354 -1.0806  1.2933 -0.2225
  737SOL    HW2 2211   2.957   0.653   0.440 -1.4858  1.0256  2.5441
  738SOL     OW 2212   3.046   2.278   1.641 -0.1310 -0.1891 -0.7122
  738SOL    HW1 2213   2.971   2.302   1.575  0.6879 -2.1290  1.0710
  738SOL    HW2 2214   0.000   2.360   1.665  0.4073  2.4590  1.8416
  739SOL     OW 2215   1.629   2.996   0.721 -0.0637 -0.0133 -0.1957
  739SOL    HW1 2216   1.584   2.910   0.753  0.0486  4.0697 -1.1849
  739SOL    HW2 2217   1.561   3.063   0.688 -2.6227  1.0577 -2.4322
  740SOL     OW 2218   1.637   2.999   1.287  0.6115  0.7208  0.1231
  740SOL    HW1 2219   1.733   3.029   1.279  0.0158 -1.0315 -1.6159
  740SOL    HW2 2220   1.626   2.897   1.266  0.4508 -1.3971 -1.5453
  741SOL     OW 2221   2.032   0.535   0.875  0.0096  0.1838  0.5874
  741SOL    HW1 2222   1.994   0.590   0.951  0.7531 -2.6119 -1.7223
  741SOL    HW2 2223   2.123   0.568   0.852  0.1209 -0.9830  1.4132
  742SOL     OW 2224   1.480   1.925   2.139  0.1818  0.1235  0.4288
  742SOL    HW1 2225   1.479   2.017   2.185  1.0969 -0.9719  1.2685
  742SOL    HW2 2226   1.445   1.938   2.045 -0.4636  0.0524 -1.6679
  743SOL     OW 2227   2.350   0.574   1.676 -0.0444 -0.2107 -0.3408
  743SOL    HW1 2228   2.290   0.513   1.732  1.5234  1.2675 -1.7791
  743SOL    HW2 2229   2.354   0.664   1.719 -1.7273 -1.2740  0.3167
  744SOL     OW 2230   2.234   0.582   1.104 -0.1300 -0.1482 -0.0288
  744SOL    HW1 2231   2.269   0.592   1.007 -1.7575 -1.9786 -1.7322
  744SOL    HW2 2232   2.251   0.664   1.166 -1.7632  0.4082 -1.8237
  745SOL     OW 2233   2.023   1.844   1.555 -0.0210  0.5477 -0.1457
  745SOL    HW1 2234   1.986   1.925   1.507 -0.8822  1.7931 -1.1550
  745SOL    HW2 2235   2.117   1.869   1.588  1.2705  1.7793 -0.5189
  746SOL     OW 2236   0.998   1.555   0.867 -0.1890  0.1563  0.4047
  746SOL    HW1 2237   0.912   1.519   0.837  2.1694  0.9812  1.8802
  746SOL    HW2 2238   0.991   1.615   0.951  2.1261 -0.5058 -2.8348
  747SOL     OW 2239   1.926   1.203   0.994  0.4924 -0.5828 -0.3625
  747SOL    HW1 2240   1.942   1.107   1.028  3.1820  1.7770 -0.9112
  747SOL    HW2 2241   1.989   1.274   1.035 -0.0754 -1.1181 -1.1266
  748SOL     OW 2242   0.098   3.014   0.166 -0.3322 -0.2565  0.1314
  748SOL    HW1 2243   0.109   3.085   0.238  2.1934  1.2132 -0.1266
  748SOL    HW2 2244   0.153   2.937   0.194 -0.4305  2.1970 -2.6880
  749SOL     OW 2245   0.243   0.424   2.385  0.1770  0.4341  0.0420
  749SOL    HW1 2246   0.198   0.401   2.297  1.6003 -1.6846  1.7773
  749SOL    HW2 2247   0.188   0.487   2.440  1.9009  1.2386 -2.2228
  750SOL     OW 2248   1.884   0.046   1.557  0.9266 -0.3666 -0.4370
  750SOL    HW1 2249   1.852   0.138   1.591 -1.2492  0.4519 -0.0048
  750SOL    HW2 2250   1.811   3.082   1.564  1.7798  0.1865 -0.6260
  751SOL     OW 2251   2.857   0.274   0.538  0.5265  0.1248  0.0401
  751SOL    HW1 2252   2.801   0.320   0.465 -1.6508  0.3811 -0.5549
  751SOL    HW2 2253   2.805   0.266   0.623  0.6942 -1.4632  2.3751
  752SOL     OW 2254   0.302   3.039   1.133  0.4121  0.6606  1.0909
  752SOL    HW1 2255   0.273   2.938   1.117 -0.8868 -0.4597 -0.5298
  752SOL    HW2 2256   0.214   3.092   1.154 -2.3432  2.1153 -0.2961
  753SOL     OW 2257   0.993   0.221   1.704  0.0285 -0.1299  0.2891
  753SOL    HW1 2258   1.072   0.161   1.723 -0.0532 -2.6457  0.9180
  753SOL    HW2 2259   0.998   0.288   1.622  2.2926 -0.8696 -1.2341
  754SOL     OW 2260   0.961   2.662   2.029 -0.1402 -0.3210  0.9949
  754SOL    HW1 2261   1.030   2.675   2.105 -0.4549  1.2508 -0.2094
  754SOL    HW2 2262   0.871   2.716   2.027 -3.0305  0.7736  1.3071
  755SOL     OW 2263   2.665   1.084   0.628  0.0176 -0.7718  0.2389
  755SOL    HW1 2264   2.719   1.142   0.693 -1.4096  0.9613 -3.1636
  755SOL    HW2 2265   2.609   1.139   0.563 -1.4409  0.3187 -0.1324
  756SOL     OW 2266   1.811   1.905   2.635 -0.0839 -0.2934  0.3346
  756SOL    HW1 2267   1.776   1.979   2.695  2.6835 -0.8405 -3.4175
  756SOL    HW2 2268   1.872   1.842   2.683 -1.5533 -0.2088 -1.5195
  757SOL     OW 2269   1.937   0.109   0.739 -0.4574  0.0562  0.1179
  757SOL    HW1 2270   1.942   0.010   0.745 -1.0424 -0.0223 -1.0585
  757SOL    HW2 2271   1.943   0.140   0.641  1.0878 -0.2107  0.1464
  758SOL     OW 2272   1.283   2.600   0.723  0.2492 -0.2226  0.1883
  758SOL    HW1 2273   1.247   2.540   0.796 -0.4169 -0.8511 -1.4206
  758SOL    HW2 2274   1.323   2.541   0.649 -1.0069  1.2502  1.0076
  759SOL     OW 2275   2.688   0.484   1.207 -0.6304 -0.6355 -0.1734
  759SOL    HW1 2276   2.685   0.431   1.115 -1.1842  1.1765  0.1043
  759SOL    HW2 2277   2.624   0.434   1.267 -2.2038 -1.3845 -0.6698
  760SOL     OW 2278   2.200   1.126   1.406 -0.4030  0.0089  0.1276
  760SOL    HW1 2279   2.241   1.129   1.316 -3.8414  1.9193  1.0767
  760SOL    HW2 2280   2.262   1.140   1.481 -2.2036 -0.3515 -0.2870
  761SOL     OW 2281   0.671   0.849   0.694  0.3034 -0.4189 -0.6671
  761SOL    HW1 2282   0.609   0.863   0.772 -0.6883  0.2612  0.9712
  761SOL    HW2 2283   0.736   0.771   0.711  1.0700  0.3161  0.9780
  762SOL     OW 2284   2.198   1.748   1.282  0.0830  0.0728 -0.7571
  762SOL    HW1 2285   2.127   1.679   1.313 -0.0445 -0.1627 -1.1114
  762SOL    HW2 2286   2.198   1.832   1.340  2.3843 -0.7042 -0.2872
  763SOL     OW 2287   1.269   1.481   1.692 -0.2606  0.2980 -0.1632
  763SOL    HW1 2288   1.266   1.484   1.590 -1.9536  1.1920  0.0336
  763SOL    HW2 2289   1.320   1.561   1.734 -0.9507  0.7937  0.1423
  764SOL     OW 2290   0.152   1.887   2.219 -0.3295  0.7213 -0.6237
  764SOL    HW1 2291   0.119   1.833   2.140  0.6858  1.1676 -1.1502
  764SOL    HW2 2292   0.088   1.895   2.298  0.2932 -1.4268 -0.4440
  765SOL     OW 2293   1.543   2.376   1.310  0.2773  0.2054  0.4083
  765SOL    HW1 2294   1.476   2.325   1.366 -2.7126  0.3474  0.7139
  765SOL    HW2 2295   1.548   2.471   1.343  0.8986  1.1821 -1.0088
  766SOL     OW 2296   0.221   2.516   2.439  0.1118 -0.0513  0.5293
  766SOL    HW1 2297   0.242   2.577   2.518 -0.6848  1.2198  0.3262
  766SOL    HW2 2298   0.146   2.551   2.383  4.2909  1.9991  1.2414
  767SOL     OW 2299   1.314   0.855   2.348  0.4498 -0.0920  0.1825
  767SOL    HW1 2300   1.304   0.755   2.331 -0.6384 -2.2595 -1.7077
  767SOL    HW2 2301   1.384   0.898   2.291  1.6998  0.6677 -2.4746
  768SOL     OW 2302   1.317   2.337   3.037  0.0595 -0.0225  0.4180
  768SOL    HW1 2303   1.273   2.400   3.106 -2.8609 -0.1819  0.1978
  768SOL    HW2 2304   1.355   2.258   3.084  0.8691  0.9776 -0.5381
  769SOL     OW 2305   3.099   2.830   1.458  0.7352  0.2559 -0.3351
  769SOL    HW1 2306   3.038   2.843   1.376  0.7676 -0.7701  2.2298
  769SOL    HW2 2307   0.087   2.798   1.432  1.5291  0.1087 -1.4472
  770SOL     OW 2308   1.172   0.341   2.775  0.6110  0.4706 -0.2378
  770SOL    HW1 2309   1.088   0.294   2.743 -1.8281  0.9550 -0.5389
  770SOL    HW2 2310   1.144   0.401   2.847  0.8759  0.3495  1.2821
  771SOL     OW 2311   0.323   0.190   2.464  0.0323  0.1530 -0.3600
  771SOL    HW1 2312   0.276   0.118   2.403 -0.1900 -1.9669 -0.2799
  771SOL    HW2 2313   0.310   0.288   2.435 -2.4524 -1.6611 -2.0249
  772SOL     OW 2314   2.383   0.063   1.899 -0.1187  0.0377  0.1078
  772SOL    HW1 2315   2.437   0.090   1.814 -3.3939  0.0630 -1.1702
  772SOL    HW2 2316   2.375   3.067   1.915  0.3744 -0.4943  2.3801
  773SOL     OW 2317   0.986   2.247   1.785  0.1304  0.1499  1.2633
  773SOL    HW1 2318   1.016   2.267   1.879 -0.2695 -1.2978 -0.8803
  773SOL    HW2 2319   0.885   2.260   1.772 -2.7928  2.3403 -0.4908
  774SOL     OW 2320   1.184   0.381   1.901  0.0107  0.1466 -0.3844
  774SOL    HW1 2321   1.095   0.390   1.856 -0.4758 -2.1819  1.8039
  774SOL    HW2 2322   1.229   0.294   1.872 -1.5346  3.7459  1.9590
  775SOL     OW 2323   2.063   2.900   2.953  0.7142 -0.2621 -0.3327
  775SOL    HW1 2324   1.984   2.911   3.015  2.8488  0.1654  1.2013
  775SOL    HW2 2325   2.099   2.992   2.921  2.1039  1.1417 -0.5555
  776SOL     OW 2326   2.088   0.448   2.237 -0.0026  0.0254  0.0412
  776SOL    HW1 2327   1.995   0.473   2.275 -4.0528 -0.5248 -2.4683
  776SOL    HW2 2328   2.102   0.498   2.148  1.9585 -1.2231 -2.7691
  777SOL     OW 2329   2.473   1.228   2.373  0.6131  0.2038  0.5692
  777SOL    HW1 2330   2.549   1.249   2.435  0.9745  1.1776 -1.4289
  777SOL    HW2 2331   2.488   1.268   2.281 -0.0276 -1.1988  0.0414
  778SOL     OW 2332   1.864   0.608   2.260 -0.1167 -0.6573 -0.2926
  778SOL    HW1 2333   1.854   0.655   2.168 -0.8530  3.3873  1.3521
  778SOL    HW2 2334   1.845   0.670   2.340 -0.8351  1.7599 -1.2814
  779SOL     OW 2335   0.098   0.061   3.019 -0.5002 -0.5095 -0.0519
  779SOL    HW1 2336   0.087   3.103   3.094  0.9340 -0.7994 -1.7694
  779SOL    HW2 2337   0.008   0.089   2.983  3.3214  1.5509  0.2922
  780SOL     OW 2338   2.366   0.460   3.072  0.3584  0.0540  0.4419
  780SOL    HW1 2339   2.399   0.394   3.001 -2.0481  0.8377  0.0069
  780SOL    HW2 2340   2.314   0.538   3.032 -2.3393  0.5346  0.5540
  781SOL     OW 2341   0.340   2.982   1.511 -0.1479  0.5511 -0.5763
  781SOL    HW1 2342   0.394   3.047   1.461 -3.4478 -3.4819 -1.0974
  781SOL    HW2 2343   0.279   2.927   1.449  0.3725  0.0828  0.1481
  782SOL     OW 2344   1.861   2.512   0.189  0.4463  0.0950 -0.0971
  782SOL    HW1 2345   1.829   2.588   0.249 -1.5423  0.9775 -0.2224
  782SOL    HW2 2346   1.937   2.543   0.133 -3.0737 -0.0227 -0.4002
  783SOL     OW 2347   0.817   1.498   1.842  0.0276 -0.4873  0.6469
  783SOL    HW1 2348   0.831   1.487   1.743 -1.1432 -0.7614  1.6274
  783SOL    HW2 2349   0.720   1.467   1.866 -3.5864  1.6393  3.2029
  784SOL     OW 2350   1.493   0.763   2.118 -0.4828  0.3427  0.3383
  784SOL    HW1 2351   1.539   0.732   2.032 -1.2499 -1.1889 -2.8899
  784SOL    HW2 2352   1.451   0.678   2.158 -1.3891  0.2819  1.3938
  785SOL     OW 2353   2.609   0.262   1.042 -0.7454  0.4856 -0.1964
  785SOL    HW1 2354   2.511   0.276   1.072 -1.9099 -1.1289  0.9239
  785SOL    HW2 2355   2.640   0.180   1.095  0.4541  2.1742  0.6797
  786SOL     OW 2356   1.461   2.740   1.316  0.4718  0.6374  0.1824
  786SOL    HW1 2357   1.482   2.724   1.414  0.4508  0.1911 -0.2027
  786SOL    HW2 2358   1.425   2.659   1.273 -2.1668  1.1857  2.1703
  787SOL     OW 2359   1.560   0.149   1.366  0.1427 -0.0903  0.3920
  787SOL    HW1 2360   1.618   0.084   1.321 -1.0380  2.5654  1.8755
  787SOL    HW2 2361   1.617   0.216   1.416  2.0527 -0.3972 -0.0826
  788SOL     OW 2362   2.941   1.130   0.228  0.5447 -0.2667  0.3096
  788SOL    HW1 2363   3.001   1.067   0.173  0.2476 -0.8330  1.7487
  788SOL    HW2 2364   2.929   1.092   0.323 -4.4635 -0.0985 -1.2180
  789SOL     OW 2365   0.301   1.783   1.897 -0.0028 -0.2331 -0.2114
  789SOL    HW1 2366   0.367   1.850   1.940  1.2795 -1.9952  0.5623
  789SOL    HW2 2367   0.316   1.692   1.946 -0.5190 -1.8379  2.1038
  790SOL     OW 2368   0.063   0.555   2.534  0.3481  0.4464 -0.1657
  790SOL    HW1 2369   0.093   0.591   2.631  3.3555 -1.6884 -0.6131
  790SOL    HW2 2370   0.002   0.475   2.548  2.7400  0.0062  1.2674
  791SOL     OW 2371   2.114   0.785   0.592 -0.4764  0.3622 -0.1388
  791SOL    HW1 2372   2.067   0.705   0.637 -0.4591 -0.0274 -0.3447
  791SOL    HW2 2373   2.081   0.874   0.634 -1.2671 -0.9616  3.3885
  792SOL     OW 2374   1.213   2.872   1.413 -0.1383  0.6165 -0.2442
  792SOL    HW1 2375   1.147   2.883   1.338  0.8529 -0.0728  0.0894
  792SOL    HW2 2376   1.304   2.854   1.368 -0.1345  1.0892 -0.9268
  793SOL     OW 2377   0.561   3.094   0.983  1.0298 -0.7091  0.0112
  793SOL    HW1 2378   0.492   3.100   1.056  2.1551 -0.4516 -1.2208
  793SOL    HW2 2379   0.525   3.037   0.904  0.0637 -3.2525 -0.8478
  794SOL     OW 2380   0.204   0.761   2.439 -0.0647  0.3130 -0.2414
  794SOL    HW1 2381   0.139   0.699   2.481  2.2836  1.3565 -0.3080
  794SOL    HW2 2382   0.205   0.736   2.338  0.6737  1.6525  0.1237
  795SOL     OW 2383   0.499   2.292   2.636 -0.1282  0.6035  0.1455
  795SOL    HW1 2384   0.477   2.191   2.644 -0.2560 -1.8179 -2.4835
  795SOL    HW2 2385   0.582   2.303   2.577 -0.3101 -0.8002  0.7145
  796SOL     OW 2386   2.222   0.450   2.465 -0.1803  0.3759  0.0497
  796SOL    HW1 2387   2.192   0.539   2.496 -1.3214 -1.7898 -0.2865
  796SOL    HW2 2388   2.176   0.422   2.374 -0.4792 -3.1644 -0.2924
  797SOL     OW 2389   2.402   2.587   2.458  0.3980  0.2640  0.3748
  797SOL    HW1 2390   2.501   2.600   2.472 -1.9130 -1.2517 -0.5955
  797SOL    HW2 2391   2.347   2.656   2.511  0.1890 -0.6593  1.7790
  798SOL     OW 2392   0.176   0.411   2.086 -0.2824  0.0817 -0.0193
  798SOL    HW1 2393   0.263   0.402   2.038 -2.1206 -0.4469  0.7093
  798SOL    HW2 2394   0.133   0.319   2.094  0.3142 -1.9316 -0.2319
  799SOL     OW 2395   0.739   2.478   2.193  0.1296 -0.5365  0.0395
  799SOL    HW1 2396   0.821   2.441   2.148 -0.4137  0.6506  0.9993
  799SOL    HW2 2397   0.671   2.503   2.117 -0.9604  1.3102 -4.8083
  800SOL     OW 2398   0.014   2.336   0.227  0.6647  0.1208 -0.1410
  800SOL    HW1 2399   0.040   2.258   0.287 -0.0568 -1.3701  0.4756
  800SOL    HW2 2400   0.043   2.428   0.268  0.4423 -0.9011 -0.8554
  801SOL     OW 2401   1.908   1.678   0.766  0.0775 -0.1725 -0.6448
  801SOL    HW1 2402   1.935   1.625   0.685 -1.7572 -4.0025  0.3365
  801SOL    HW2 2403   1.845   1.752   0.746  3.2310 -3.1653 -0.1565
  802SOL     OW 2404   0.333   0.231   0.462  0.1000  0.6839 -0.1524
  802SOL    HW1 2405   0.347   0.298   0.537 -1.8106  1.2091  2.0056
  802SOL    HW2 2406   0.367   0.137   0.484  2.7702 -1.1746 -0.0682
  803SOL     OW 2407   1.473   1.345   1.805  0.2973  0.3304  0.1609
  803SOL    HW1 2408   1.553   1.409   1.780 -0.3146  2.3071  0.9378
  803SOL    HW2 2409   1.383   1.388   1.782  1.7569 -0.6567 -0.4210
  804SOL     OW 2410   1.812   2.033   0.852 -0.2948 -0.0347 -0.8163
  804SOL    HW1 2411   1.907   2.062   0.836 -0.5208 -0.1958  3.0939
  804SOL    HW2 2412   1.779   1.956   0.795 -3.9983  0.6932 -1.1615
  805SOL     OW 2413   0.024   1.989   2.721  0.0219 -0.0984 -0.2417
  805SOL    HW1 2414   0.061   1.906   2.767 -0.3167 -0.5541  1.4535
  805SOL    HW2 2415   0.067   2.006   2.629  0.8443 -1.1227 -1.0430
  806SOL     OW 2416   0.661   2.345   0.434 -0.2440  0.5115  0.1718
  806SOL    HW1 2417   0.657   2.241   0.430 -0.6640  0.0553 -0.4273
  806SOL    HW2 2418   0.568   2.375   0.461 -0.1840 -0.5995 -2.7255
  807SOL     OW 2419   2.104   1.579   2.704 -0.6289 -0.3173  0.6675
  807SOL    HW1 2420   2.196   1.578   2.747 -1.0861 -0.4224 -0.0587
  807SOL    HW2 2421   2.046   1.656   2.740  0.8878 -0.0619 -1.3026
  808SOL     OW 2422   1.516   2.145   1.153 -0.1620  0.0359  0.3717
  808SOL    HW1 2423   1.495   2.073   1.221 -0.5920  0.5594 -1.8910
  808SOL    HW2 2424   1.511   2.233   1.201  0.2564 -0.1204  2.1893
  809SOL     OW 2425   0.225   0.540   0.403 -0.2310 -0.5522  0.1611
  809SOL    HW1 2426   0.326   0.538   0.430  1.5575  0.6028  2.4692
  809SOL    HW2 2427   0.207   0.466   0.336 -0.4006 -0.7889 -0.3989
  810SOL     OW 2428   1.397   1.579   3.080 -0.2011 -0.1078 -0.0819
  810SOL    HW1 2429   1.334   1.499   3.085  0.5264 -2.1665 -2.3266
  810SOL    HW2 2430   1.467   1.583   0.045 -1.1308  1.2260  0.9994
  811SOL     OW 2431   1.908   2.531   0.866  0.1324 -0.3240  0.4074
  811SOL    HW1 2432   1.912   2.501   0.963  3.6329 -1.0124  1.8186
  811SOL    HW2 2433   1.814   2.524   0.833  2.4806  1.4739  1.6336
  812SOL     OW 2434   1.393   2.908   1.066  0.2172 -1.0105  0.1689
  812SOL    HW1 2435   1.474   2.920   1.127 -0.8858 -0.0268  0.3938
  812SOL    HW2 2436   1.334   2.993   1.068 -0.4173 -1.0969 -1.3571
  813SOL     OW 2437   0.762   0.079   1.795  0.0892  0.3543 -0.0117
  813SOL    HW1 2438   0.826   0.145   1.840  1.5728 -2.5456 -1.3901
  813SOL    HW2 2439   0.725   0.014   1.865  0.3793 -2.0275 -1.8587
  814SOL     OW 2440   0.946   2.390   2.034 -0.2786  0.1364 -0.0702
  814SOL    HW1 2441   1.012   2.389   2.114  0.6664  1.0057 -0.6518
  814SOL    HW2 2442   0.943   2.485   1.997  4.0231 -1.3978  0.8650
  815SOL     OW 2443   0.480   0.141   2.673 -0.5179  0.5063  0.3631
  815SOL    HW1 2444   0.429   0.098   2.754  0.2935  0.1609  3.5210
  815SOL    HW2 2445   0.421   0.159   2.591 -1.2846  1.3176 -1.3837
  816SOL     OW 2446   2.203   0.813   0.197  0.4969 -0.4938 -0.5788
  816SOL    HW1 2447   2.227   0.758   0.279 -1.2383 -2.8605  0.8490
  816SOL    HW2 2448   2.103   0.821   0.189  2.0422  0.0744  0.4080
  817SOL     OW 2449   2.928   2.508   2.210 -0.7561  0.0356  0.2302
  817SOL    HW1 2450   2.852   2.574   2.221 -0.3334  0.7398  1.1963
  817SOL    HW2 2451   2.955   2.474   2.304  0.5650 -0.3447 -3.1457
  818SOL     OW 2452   1.061   1.250   0.415  0.1379 -0.1707 -0.1701
  818SOL    HW1 2453   1.144   1.307   0.439  1.1452 -1.8721  1.5964
  818SOL    HW2 2454   0.974   1.289   0.459 -2.6466  0.2894 -0.7308
  819SOL     OW 2455   1.538   1.151   2.731 -0.1768  0.5763 -0.4445
  819SOL    HW1 2456   1.588   1.095   2.658 -2.0190 -1.2724 -1.6107
  819SOL    HW2 2457   1.594   1.216   2.784 -1.6743  1.4386  2.0510
  820SOL     OW 2458   0.714   1.433   0.052 -0.0789 -0.2479  0.6992
  820SOL    HW1 2459   0.678   1.530   0.054 -2.7949 -0.7750 -1.9688
  820SOL    HW2 2460   0.692   1.399   0.145 -0.7102 -0.7738 -1.8325
  821SOL     OW 2461   0.477   2.935   0.753  0.6021  0.4117 -0.4680
  821SOL    HW1 2462   0.567   2.913   0.706  3.7067 -0.5986 -1.4023
  821SOL    HW2 2463   0.442   2.851   0.797  1.3543 -1.1235 -0.0128
  822SOL     OW 2464   2.173   2.505   2.883 -0.3577  0.1325  0.0138
  822SOL    HW1 2465   2.253   2.468   2.937  2.5703  0.0813 -2.6190
  822SOL    HW2 2466   2.109   2.558   2.946 -0.2558 -1.1789  0.0730
  823SOL     OW 2467   1.077   0.259   2.445  0.1251 -0.3777 -0.4310
  823SOL    HW1 2468   1.175   0.237   2.467 -0.9152 -1.8838 -1.0417
  823SOL    HW2 2469   1.024   0.172   2.439 -1.2967  1.2365 -2.1706
  824SOL     OW 2470   2.811   2.554   1.650  0.6449 -0.3651  0.0356
  824SOL    HW1 2471   2.900   2.609   1.658 -1.2216  0.5929 -1.4970
  824SOL    HW2 2472   2.746   2.606   1.707  3.3174 -0.3589 -0.3777
  825SOL     OW 2473   0.109   2.344   2.650 -0.6969  0.3784 -0.4208
  825SOL    HW1 2474   0.168   2.421   2.610  4.2915  1.1619  0.6358
  825SOL    HW2 2475   0.171   2.281   2.701  0.4677  0.0662 -1.5405
  826SOL     OW 2476   1.636   0.379   2.957 -0.4508 -0.0403 -0.2732
  826SOL    HW1 2477   1.716   0.353   3.013  1.5289 -0.3417 -1.0396
  826SOL    HW2 2478   1.616   0.321   2.878  1.4725  0.3217  2.6574
  827SOL     OW 2479   2.959   1.741   1.830  0.0382  0.1372 -0.5494
  827SOL    HW1 2480   2.882   1.811   1.839 -1.1095  0.6985 -1.1289
  827SOL    HW2 2481   2.931   1.645   1.842  0.6013 -0.3880 -0.7823
  828SOL     OW 2482   0.117   0.117   1.161  0.0705 -0.1598  0.3124
  828SOL    HW1 2483   0.169   0.199   1.130  2.4960  0.6545 -0.8962
  828SOL    HW2 2484   0.074   0.145   1.247 -2.7906 -2.8782 -1.3945
  829SOL     OW 2485   0.918   2.238   2.341  0.2602  0.8507  0.6425
  829SOL    HW1 2486   0.957   2.182   2.416 -1.1218  2.3185 -0.3496
  829SOL    HW2 2487   0.839   2.289   2.382  0.5535 -1.7981  0.0011
  830SOL     OW 2488   0.594   0.841   1.627 -0.7637  0.1857  0.2312
  830SOL    HW1 2489   0.690   0.811   1.659  0.3679  0.0652 -1.7799
  830SOL    HW2 2490   0.552   0.882   1.707 -3.8597 -2.2397 -2.1823
  831SOL     OW 2491   2.505   1.813   2.774  0.0549  0.0549  0.3976
  831SOL    HW1 2492   2.591   1.815   2.718  0.8579  1.4149  2.1281
  831SOL    HW2 2493   2.534   1.809   2.873 -1.7503  0.3946  1.0647
  832SOL     OW 2494   1.815   2.497   2.810 -0.1838 -0.1159 -0.0329
  832SOL    HW1 2495   1.724   2.448   2.793 -0.7150 -0.2638 -0.1620
  832SOL    HW2 2496   1.865   2.535   2.729  2.3881 -2.2921  1.5624
  833SOL     OW 2497   0.423   0.358   1.953  0.5418 -0.0611 -0.0787
  833SOL    HW1 2498   0.473   0.303   1.882  0.7852 -0.7700  2.6152
  833SOL    HW2 2499   0.458   0.331   2.044 -0.1035 -0.4125 -2.9544
  834SOL     OW 2500   0.197   0.546   1.180  0.3980  0.3797 -0.2410
  834SOL    HW1 2501   0.182   0.468   1.120  0.6089  2.9093  1.2314
  834SOL    HW2 2502   0.110   0.594   1.193  0.5016 -0.0098  3.0235
  835SOL     OW 2503   2.572   0.601   0.532 -0.1053 -0.6054 -0.1026
  835SOL    HW1 2504   2.485   0.640   0.488 -2.9041  4.2015 -0.7310
  835SOL    HW2 2505   2.632   0.559   0.460 -0.7743 -0.8948  1.2923
  836SOL     OW 2506   1.011   2.262   0.608 -0.1036 -0.6260 -0.0670
  836SOL    HW1 2507   1.103   2.233   0.638 -0.1596  0.3401  0.4384
  836SOL    HW2 2508   1.018   2.361   0.586  0.6155  2.4120 -1.3238
  837SOL     OW 2509   2.011   1.794   0.265  0.3018  0.5689  0.6128
  837SOL    HW1 2510   1.950   1.764   0.190 -0.7373  1.8359 -0.5908
  837SOL    HW2 2511   2.082   1.728   0.289 -1.0567  0.6654 -2.5970
  838SOL     OW 2512   1.870   0.984   2.174 -0.2012 -0.2729  0.4489
  838SOL    HW1 2513   1.885   1.059   2.104  0.0609  1.6747 -2.7232
  838SOL    HW2 2514   1.768   0.987   2.203 -4.7638  2.4444 -0.7938
  839SOL     OW 2515   0.964   1.392   2.538  0.1684 -0.0545 -0.4664
  839SOL    HW1 2516   0.862   1.383   2.563 -0.4945 -0.2531  0.5130
  839SOL    HW2 2517   0.982   1.323   2.471  2.7270  1.3691  0.1987
  840SOL     OW 2518   1.005   1.315   0.156  0.1660  0.0855  0.7935
  840SOL    HW1 2519   1.048   1.275   0.238 -1.8685  0.5837 -3.0474
  840SOL    HW2 2520   0.971   1.241   0.095 -0.8715  0.2670  0.3765
  841SOL     OW 2521   1.601   2.235   0.195 -0.3974 -0.2922  0.0599
  841SOL    HW1 2522   1.663   2.198   0.262 -1.3821  1.9999 -2.7868
  841SOL    HW2 2523   1.652   2.257   0.112 -0.6948 -0.8832 -0.8909
  842SOL     OW 2524   0.094   0.707   0.068  0.3055 -0.1965  0.0763
  842SOL    HW1 2525   0.049   0.620   0.056 -2.3282  1.8060  1.3224
  842SOL    HW2 2526   0.194   0.681   0.066 -1.5600  0.4091  1.0873
  843SOL     OW 2527   0.687   0.220   0.994 -0.1588 -0.4013 -0.1970
  843SOL    HW1 2528   0.627   0.137   0.985 -0.5397 -0.9566 -1.3904
  843SOL    HW2 2529   0.771   0.200   1.047 -2.3685  2.5611 -1.7415
  844SOL     OW 2530   1.851   2.830   2.320  0.2976  0.2119  0.4957
  844SOL    HW1 2531   1.921   2.776   2.266 -3.7964  0.9650  1.8689
  844SOL    HW2 2532   1.805   2.890   2.259 -0.6270 -0.6348  1.2855
  845SOL     OW 2533   0.088   2.483   1.751  0.1585 -0.0025  0.3262
  845SOL    HW1 2534   0.013   2.554   1.754 -3.2257  2.1297  1.3055
  845SOL    HW2 2535   0.101   2.448   1.847  0.5865 -0.3465  1.9215
  846SOL     OW 2536   1.736   1.332   2.403  0.3396 -0.1731  0.0630
  846SOL    HW1 2537   1.638   1.369   2.383 -2.0565 -0.2164  1.2221
  846SOL    HW2 2538   1.801   1.363   2.329  0.6059  2.4533 -1.2751
  847SOL     OW 2539   0.175   0.682   2.164 -0.2961 -0.1912  0.3599
  847SOL    HW1 2540   0.214   0.595   2.118  0.3489  0.6015 -1.0719
  847SOL    HW2 2541   0.206   0.764   2.100 -0.4691  4.4101 -1.3851
  848SOL     OW 2542   2.556   2.732   2.976 -0.2041  0.5695 -0.1709
  848SOL    HW1 2543   2.593   2.794   3.046  2.5660  0.3469 -0.5472
  848SOL    HW2 2544   2.598   2.759   2.885 -3.0774  0.8196 -1.8085
  849SOL     OW 2545   0.327   2.724   0.529  0.3223  1.0427  0.4387
  849SOL    HW1 2546   0.416   2.720   0.583  4.1530 -0.4462 -0.1652
  849SOL    HW2 2547   0.251   2.770   0.581 -0.3404 -0.8375 -0.1998
  850SOL     OW 2548   0.837   2.291   0.838 -0.3409 -0.6860  0.3692
  850SOL    HW1 2549   0.897   2.247   0.769 -0.4018  1.1352 -3.1759
  850SOL    HW2 2550   0.893   2.342   0.897 -3.5590 -3.4865 -2.7520
  851SOL     OW 2551   1.813   0.462   2.663  0.7178  0.0166  0.1099
  851SOL    HW1 2552   1.815   0.562   2.629 -0.7556  0.0778  0.6311
  851SOL    HW2 2553   1.909   0.431   2.689 -1.9556 -0.5183  0.4410
  852SOL     OW 2554   1.596   2.742   2.711 -0.0826  0.2735 -0.1105
  852SOL    HW1 2555   1.570   2.754   2.614  2.1582 -0.1457  1.2402
  852SOL    HW2 2556   1.527   2.782   2.777 -1.3893  0.2011 -2.4870
  853SOL     OW 2557   2.839   2.724   0.470  0.8240 -0.1832  0.0586
  853SOL    HW1 2558   2.918   2.793   0.473  1.5423 -0.6270 -1.4816
  853SOL    HW2 2559   2.757   2.770   0.432 -0.5884 -0.4910  0.9283
  854SOL     OW 2560   1.518   0.493   2.486 -0.6828 -0.1829  0.4970
  854SOL    HW1 2561   1.612   0.450   2.474  0.4835 -3.8167 -2.7788
  854SOL    HW2 2562   1.519   0.577   2.539 -1.7070  2.3786 -1.1157
  855SOL     OW 2563   0.410   2.456   0.455  0.3920 -0.4768 -0.1457
  855SOL    HW1 2564   0.370   2.383   0.524 -1.5382 -1.6013  1.4832
  855SOL    HW2 2565   0.353   2.542   0.461  1.2712  0.2140  0.7181
  856SOL     OW 2566   0.275   2.955   2.615 -0.1872 -0.1981  0.5983
  856SOL    HW1 2567   0.364   2.993   2.588  0.9341 -0.6320 -1.2823
  856SOL    HW2 2568   0.241   3.008   2.696 -1.9330 -0.4848  1.4975
  857SOL     OW 2569   1.107   3.051   1.570 -0.0888  0.2253  0.1631
  857SOL    HW1 2570   1.144   2.961   1.532  0.7496  0.5142  0.2827
  857SOL    HW2 2571   1.007   3.052   1.560  0.3191  0.1855 -1.0244
  858SOL     OW 2572   2.848   1.844   1.528  0.3927  0.3023  0.0616
  858SOL    HW1 2573   2.935   1.805   1.560 -3.7464 -0.3389  0.4907
  858SOL    HW2 2574   2.771   1.784   1.555 -4.7374  0.2231  2.4030
  859SOL     OW 2575   2.140   2.088   2.157  0.2368  0.3422  0.1430
  859SOL    HW1 2576   2.118   2.090   2.257  1.0299 -0.2948  3.0122
  859SOL    HW2 2577   2.110   1.999   2.109  3.5154 -3.3481 -2.0651
  860SOL     OW 2578   1.295   0.329   0.403  0.5814  0.1784  0.1840
  860SOL    HW1 2579   1.390   0.348   0.373  1.0598  1.4429  1.5938
  860SOL    HW2 2580   1.289   0.266   0.485 -0.4952  0.0823  0.2466
  861SOL     OW 2581   2.920   0.689   0.949 -0.2389  0.0623  0.3421
  861SOL    HW1 2582   2.831   0.650   0.917 -0.6854 -1.3105  0.5383
  861SOL    HW2 2583   3.000   0.653   0.893 -1.3192 -1.6048  0.1307
  862SOL     OW 2584   1.379   0.574   2.269 -0.3280 -0.0688 -0.1834
  862SOL    HW1 2585   1.433   0.543   2.352 -0.0590 -1.3967 -0.9647
  862SOL    HW2 2586   1.335   0.488   2.226  0.8990 -0.2477  2.4515
  863SOL     OW 2587   0.595   0.451   0.915  0.5961  0.7158  0.7909
  863SOL    HW1 2588   0.637   0.357   0.934 -3.2533  0.3398 -1.2638
  863SOL    HW2 2589   0.595   0.505   1.001  3.5406  0.1953  1.6859
  864SOL     OW 2590   3.084   2.886   1.900 -0.1666  0.0032 -0.0717
  864SOL    HW1 2591   0.050   2.873   1.967 -0.4252  0.7882  0.3237
  864SOL    HW2 2592   3.097   2.971   1.842  0.5170 -2.0322 -1.2934
  865SOL     OW 2593   0.695   1.328   2.632 -0.0419 -0.0085  0.7280
  865SOL    HW1 2594   0.707   1.337   2.731 -0.8491 -0.4847 -1.2439
  865SOL    HW2 2595   0.647   1.238   2.623 -1.9665 -0.0788  1.6974
  866SOL     OW 2596   2.936   2.906   0.188 -0.0330 -0.0916 -0.1000
  866SOL    HW1 2597   3.031   2.940   0.194 -1.6853 -1.4079 -1.3163
  866SOL    HW2 2598   2.938   2.809   0.154  1.1190  2.3111 -1.6465
  867SOL     OW 2599   3.020   2.814   2.976  0.7084  0.2934 -0.8913
  867SOL    HW1 2600   2.947   2.744   2.974 -0.5787 -2.1785  0.7186
  867SOL    HW2 2601   0.001   2.769   2.957 -1.1143 -1.6495 -1.1748
  868SOL     OW 2602   1.468   0.917   2.843 -0.3061 -0.3197 -0.2283
  868SOL    HW1 2603   1.498   1.004   2.802  1.4206 -6.7915  0.4929
  868SOL    HW2 2604   1.388   0.920   2.903  1.1756 -3.0021 -0.2977
  869SOL     OW 2605   0.216   1.793   0.630  0.1215 -0.4599  0.3526
  869SOL    HW1 2606   0.304   1.747   0.655  0.0420  1.3808  1.4151
  869SOL    HW2 2607   0.146   1.722   0.634  0.7701  3.6251  0.7860
  870SOL     OW 2608   2.277   2.021   0.512  0.6757 -0.2728  0.4698
  870SOL    HW1 2609   2.278   1.921   0.524  1.0315  1.3784  0.6604
  870SOL    HW2 2610   2.352   2.068   0.558 -0.2386 -1.2958 -3.3539
  871SOL     OW 2611   0.553   1.093   1.053  0.5386  0.0265  0.1266
  871SOL    HW1 2612   0.561   1.011   0.992  0.5882  0.3612 -4.1681
  871SOL    HW2 2613   0.637   1.153   1.039  0.4964 -1.7143 -1.2887
  872SOL     OW 2614   1.410   1.716   1.743 -0.4682 -0.1899 -0.3245
  872SOL    HW1 2615   1.317   1.759   1.748 -3.1872 -0.1524  0.6908
  872SOL    HW2 2616   1.446   1.709   1.836 -1.9931  2.6440 -3.4400
  873SOL     OW 2617   0.850   2.044   2.147 -0.1434 -0.1007  0.4894
  873SOL    HW1 2618   0.889   2.118   2.208  1.1297 -2.1809  0.8719
  873SOL    HW2 2619   0.801   2.087   2.069 -0.5775  1.5355  2.2208
  874SOL     OW 2620   1.028   2.618   1.272 -0.6000  0.5437  0.3577
  874SOL    HW1 2621   1.116   2.599   1.319 -3.7941  1.2945 -0.8725
  874SOL    HW2 2622   1.041   2.670   1.186  0.3214 -1.8062  2.0313
  875SOL     OW 2623   2.989   0.305   0.860 -0.0366  0.2209 -0.5104
  875SOL    HW1 2624   3.008   0.212   0.903 -0.3927 -0.8000  1.3264
  875SOL    HW2 2625   2.895   0.333   0.837 -0.6567 -3.1659  2.2384
  876SOL     OW 2626   0.560   0.731   0.172 -0.3007  0.6469 -0.1729
  876SOL    HW1 2627   0.601   0.749   0.269  1.5875 -0.2251  2.2231
  876SOL    HW2 2628   0.629   0.682   0.120 -3.4096  1.4360  0.9681
  877SOL     OW 2629   3.050   0.633   1.189 -0.7460 -0.5645 -0.2100
  877SOL    HW1 2630   3.003   0.668   1.103 -2.3738 -3.2203 -0.0668
  877SOL    HW2 2631   3.061   0.533   1.175 -1.9634  1.0322 -1.1367
  878SOL     OW 2632   2.704   2.219   0.682  0.5083  0.1241  0.1790
  878SOL    HW1 2633   2.611   2.257   0.659  1.9010 -0.2036  0.9903
  878SOL    HW2 2634   2.737   2.266   0.766  1.2752  1.0481 -2.9484
  879SOL     OW 2635   2.601   1.366   1.296  0.1428  0.7342 -0.1115
  879SOL    HW1 2636   2.533   1.417   1.349  0.3112  0.2092 -0.5249
  879SOL    HW2 2637   2.583   1.372   1.198 -1.0210 -0.6492  3.2559
  880SOL     OW 2638   1.688   2.698   1.061 -0.4719 -0.6505  0.4993
  880SOL    HW1 2639   1.726   2.716   0.966  1.7736  0.8235 -3.2069
  880SOL    HW2 2640   1.600   2.646   1.052  1.6496  0.7505 -0.8298
  881SOL     OW 2641   0.998   2.287   0.314  0.4556  0.1460  0.2007
  881SOL    HW1 2642   1.021   2.302   0.410 -1.1933  0.3549 -0.1525
  881SOL    HW2 2643   0.923   2.350   0.279  0.8221  3.9750 -1.0129
  882SOL     OW 2644   1.472   0.737   1.273 -0.1908 -0.6823  0.0521
  882SOL    HW1 2645   1.388   0.782   1.234  0.5372  2.6555 -0.0594
  882SOL    HW2 2646   1.454   0.696   1.363  0.3532  1.3248  1.2743
  883SOL     OW 2647   1.281   0.342   2.161  0.4080 -0.5197 -0.0386
  883SOL    HW1 2648   1.249   0.367   2.066 -1.7657  0.1928  0.6034
  883SOL    HW2 2649   1.380   0.319   2.165 -0.8201 -0.4317  0.1572
  884SOL     OW 2650   2.511   0.689   0.215 -0.1208  0.4047 -0.2460
  884SOL    HW1 2651   2.417   0.679   0.250 -1.0337  2.1817  1.3596
  884SOL    HW2 2652   2.574   0.741   0.279 -0.8538 -0.0868 -0.1241
  885SOL     OW 2653   1.238   1.347   0.002  0.2871 -0.2829 -0.1890
  885SOL    HW1 2654   1.204   1.351   3.015  0.4202  2.0961 -1.4548
  885SOL    HW2 2655   1.164   1.363   0.072 -2.2133 -1.3569 -3.3211
  886SOL     OW 2656   1.394   1.332   2.536 -0.2818 -0.2498  0.3932
  886SOL    HW1 2657   1.445   1.391   2.471  0.2137  0.4513 -3.0646
  886SOL    HW2 2658   1.450   1.320   2.620 -0.6111  2.4724 -1.3900
  887SOL     OW 2659   1.412   0.368   1.620  0.2225  0.2921 -0.0041
  887SOL    HW1 2660   1.414   0.264   1.610 -0.8461  0.6826  0.7796
  887SOL    HW2 2661   1.476   0.393   1.692  1.2233 -0.3073 -0.1636
  888SOL     OW 2662   2.611   0.593   1.916 -0.0391  0.1228  0.2757
  888SOL    HW1 2663   2.640   0.503   1.884 -0.2025  2.4610  2.1959
  888SOL    HW2 2664   2.672   0.634   1.983 -2.8773 -2.6540 -2.9330
  889SOL     OW 2665   0.221   2.766   1.095  0.8608 -0.3674  0.3431
  889SOL    HW1 2666   0.141   2.701   1.100 -1.0424  0.1075  0.9391
  889SOL    HW2 2667   0.279   2.742   1.017 -1.8253 -2.0575 -1.0401
  890SOL     OW 2668   2.862   2.395   0.202  0.3403  0.2063  0.1177
  890SOL    HW1 2669   2.810   2.385   0.290  0.0337 -0.4337  0.7064
  890SOL    HW2 2670   2.958   2.370   0.212  0.3846 -0.6800 -1.0829
  891SOL     OW 2671   0.980   1.585   2.957 -0.4448  0.7091  0.1972
  891SOL    HW1 2672   1.025   1.501   2.918 -0.8669  0.0622  1.2512
  891SOL    HW2 2673   0.984   1.581   3.061  0.2859 -0.6953  1.3796
  892SOL     OW 2674   3.038   0.057   0.958  0.1922  0.6915 -0.0913
  892SOL    HW1 2675   0.014   0.065   1.019 -0.5751  3.1473  0.3699
  892SOL    HW2 2676   2.995   3.074   0.967 -1.0708  0.2804  0.0906
  893SOL     OW 2677   1.081   0.071   1.323  0.2523 -0.1971 -0.2391
  893SOL    HW1 2678   1.103   0.034   1.415 -1.1704  0.1221  0.4347
  893SOL    HW2 2679   1.043   3.107   1.264  3.2036  0.9290  0.1259
  894SOL     OW 2680   2.674   0.621   0.805 -0.8311 -0.2369  0.3217
  894SOL    HW1 2681   2.612   0.651   0.881 -2.0780  1.1968  1.7455
  894SOL    HW2 2682   2.630   0.642   0.715  1.7217 -2.2674  0.4580
  895SOL     OW 2683   2.320   2.267   2.100  0.2014 -0.4396  0.3510
  895SOL    HW1 2684   2.255   2.190   2.122 -0.9044 -2.4683  1.4749
  895SOL    HW2 2685   2.298   2.350   2.153  1.3649  0.9132 -0.1081
  896SOL     OW 2686   1.256   0.148   1.792 -0.2097  0.3523  0.3606
  896SOL    HW1 2687   1.334   0.135   1.722 -1.0098 -0.3920  0.1493
  896SOL    HW2 2688   1.235   0.059   1.838 -1.1551  1.2430  2.3314
  897SOL     OW 2689   0.787   1.782   1.907  0.1482 -0.3745  0.2288
  897SOL    HW1 2690   0.784   1.862   1.842 -2.5140  3.7345  0.4047
  897SOL    HW2 2691   0.789   1.696   1.853 -1.5229  0.0756 -1.5430
  898SOL     OW 2692   1.970   2.797   1.846  0.1318  0.2250  0.6055
  898SOL    HW1 2693   2.004   2.875   1.790  0.0244  1.7137 -1.8865
  898SOL    HW2 2694   2.040   2.756   1.905  0.3142  0.8994 -1.4524
  899SOL     OW 2695   1.028   0.734   1.150 -0.0085 -0.3889 -0.1928
  899SOL    HW1 2696   0.976   0.651   1.179 -0.0439  2.4713 -2.0982
  899SOL    HW2 2697   0.988   0.770   1.064 -0.1679 -4.4670 -0.0446
  900SOL     OW 2698   1.922   2.221   2.909 -0.0536  0.0545 -0.2758
  900SOL    HW1 2699   1.845   2.165   2.875  0.5620 -1.5542 -2.1203
  900SOL    HW2 2700   1.982   2.235   2.826 -0.1309 -2.7612  0.6643
  901SOL     OW 2701   0.841   2.156   2.662 -0.3375 -0.0850 -0.1138
  901SOL    HW1 2702   0.833   2.200   2.756  2.1516 -0.3544  1.7186
  901SOL    HW2 2703   0.769   2.093   2.639  0.9008  1.7163 -1.6144
  902SOL     OW 2704   2.204   1.352   0.190  0.3507 -0.3481  0.0986
  902SOL    HW1 2705   2.294   1.374   0.146  0.7169 -3.8280 -1.9810
  902SOL    HW2 2706   2.205   1.251   0.205  0.0491 -1.2303 -2.2901
  903SOL     OW 2707   1.940   0.815   0.180 -0.1874  0.3997  0.0902
  903SOL    HW1 2708   1.910   0.911   0.168  0.5161 -0.6331  0.2158
  903SOL    HW2 2709   1.883   0.745   0.131  0.0593 -3.7933  0.5025
  904SOL     OW 2710   0.606   0.976   0.012 -0.0070 -0.0536 -0.2765
  904SOL    HW1 2711   0.515   1.006   3.084  1.4553  0.1132  0.4479
  904SOL    HW2 2712   0.603   0.887   0.056 -0.7963  3.9951 -2.4948
  905SOL     OW 2713   2.354   0.321   1.103  0.1097 -0.0643  0.5784
  905SOL    HW1 2714   2.297   0.256   1.155  0.0910  1.5479  1.3152
  905SOL    HW2 2715   2.304   0.414   1.102 -1.8537  3.3681 -1.2743
  906SOL     OW 2716   2.731   2.322   1.220 -0.0619 -0.2952 -0.1993
  906SOL    HW1 2717   2.754   2.223   1.207  0.1853  0.8422 -0.3203
  906SOL    HW2 2718   2.631   2.336   1.224  1.9364  1.8108  0.4845
  907SOL     OW 2719   1.176   0.465   0.204 -0.8527 -0.1349  0.4543
  907SOL    HW1 2720   1.242   0.513   0.151 -0.3382  0.8593 -0.0737
  907SOL    HW2 2721   1.213   0.395   0.269 -1.1366 -1.0132  0.4560
  908SOL     OW 2722   2.254   2.891   1.536  0.4705 -0.0293  0.1911
  908SOL    HW1 2723   2.325   2.853   1.597  1.1273  2.0841 -0.1829
  908SOL    HW2 2724   2.293   2.961   1.471  1.4327 -1.4585 -0.4845
  909SOL     OW 2725   2.969   0.874   1.645  0.6137  0.0028 -0.0766
  909SOL    HW1 2726   3.005   0.846   1.556 -0.2582  1.0047 -1.0239
  909SOL    HW2 2727   2.872   0.850   1.654 -0.0909  0.4426 -2.0010
  910SOL     OW 2728   1.408   2.751   2.174 -0.2546 -0.1502  0.3845
  910SOL    HW1 2729   1.475   2.673   2.165  0.7282  3.1365 -0.6267
  910SOL    HW2 2730   1.392   2.796   2.086 -1.6996 -1.8372 -0.2364
  911SOL     OW 2731   2.434   0.378   2.255 -0.4497 -0.3954 -0.4621
  911SOL    HW1 2732   2.443   0.473   2.222 -0.2598 -3.6771  0.0386
  911SOL    HW2 2733   2.347   0.373   2.305  1.9262  1.2063 -1.9014
  912SOL     OW 2734   2.712   1.098   1.496 -0.0045  0.3040  0.3194
  912SOL    HW1 2735   2.738   1.190   1.513 -0.3305 -3.4071  1.2918
  912SOL    HW2 2736   2.725   1.069   1.400 -2.5848  2.8242  1.0993
  913SOL     OW 2737   2.528   1.971   1.236  0.2151  0.4886 -0.0644
  913SOL    HW1 2738   2.551   1.881   1.285 -0.8835 -1.4645  0.4110
  913SOL    HW2 2739   2.459   2.019   1.288 -2.9808 -0.2880  0.2431
  914SOL     OW 2740   2.000   1.293   1.491  0.2360  0.2311 -0.5994
  914SOL    HW1 2741   2.054   1.208   1.478 -3.0943  3.5367  1.7663
  914SOL    HW2 2742   1.902   1.266   1.506  1.5198  0.9021  1.5385
  915SOL     OW 2743   0.984   0.970   1.517  0.5764  0.2980  0.4005
  915SOL    HW1 2744   1.033   0.885   1.543  0.6978  1.2005 -0.5606
  915SOL    HW2 2745   0.928   0.954   1.432  0.2467 -1.1152  1.5088
  916SOL     OW 2746   2.451   2.754   1.650  0.2015  0.1219  0.4140
  916SOL    HW1 2747   2.421   2.664   1.611 -0.0350  0.4760 -1.5492
  916SOL    HW2 2748   2.516   2.739   1.726  0.2028  1.4833 -2.6048
  917SOL     OW 2749   2.559   2.199   0.307 -0.2416  0.4380 -0.7815
  917SOL    HW1 2750   2.475   2.141   0.292 -1.0746 -0.7841 -0.0227
  917SOL    HW2 2751   2.551   2.293   0.270  0.4027  3.1103 -1.0551
  918SOL     OW 2752   1.898   2.676   2.567 -0.2118  0.0506  0.5833
  918SOL    HW1 2753   1.876   2.752   2.504  0.8760 -0.1205 -3.9056
  918SOL    HW2 2754   1.961   2.710   2.636 -2.1807 -2.2534  0.5787
  919SOL     OW 2755   1.328   2.273   1.469  0.3535 -0.1140 -0.1297
  919SOL    HW1 2756   1.316   2.261   1.571  0.9276  2.3693  0.9093
  919SOL    HW2 2757   1.320   2.182   1.427  1.9483  2.5494  0.2300
  920SOL     OW 2758   2.630   0.038   2.687 -0.1414  0.1666 -0.1938
  920SOL    HW1 2759   2.583   3.058   2.657  1.2734 -1.7926 -1.1405
  920SOL    HW2 2760   2.604   0.061   2.785 -0.1412 -0.3382 -0.0029
  921SOL     OW 2761   2.843   0.595   1.702 -0.4526  0.2188 -0.0236
  921SOL    HW1 2762   2.935   0.582   1.737 -3.4313  0.0461 -1.1979
  921SOL    HW2 2763   2.781   0.533   1.752 -0.0005  1.5630 -0.9644
  922SOL     OW 2764   2.013   2.111   0.488 -0.2930 -0.5841 -0.0473
  922SOL    HW1 2765   2.110   2.078   0.477  1.3180 -2.5590 -1.7666
  922SOL    HW2 2766   1.965   2.056   0.560 -1.4565  2.8109  1.9935
  923SOL     OW 2767   0.452   2.073   3.086  0.5868  0.8363  0.4509
  923SOL    HW1 2768   0.499   2.016   3.016 -3.0095 -1.3436 -1.0296
  923SOL    HW2 2769   0.475   2.172   3.084  0.7430  0.9976  1.6965
  924SOL     OW 2770   0.852   0.234   0.299  0.4114  0.5185 -0.4778
  924SOL    HW1 2771   0.757   0.227   0.334  2.7530  0.7034 -1.0362
  924SOL    HW2 2772   0.862   0.321   0.249  2.3511  1.5552  1.0393
  925SOL     OW 2773   2.541   0.925   0.963  0.2769 -0.0377  0.2917
  925SOL    HW1 2774   2.543   0.839   1.021  0.0677 -0.0720 -1.4154
  925SOL    HW2 2775   2.480   0.911   0.881  0.2214 -0.6351  0.2446
  926SOL     OW 2776   0.094   0.898   0.975  0.4837  0.1594 -0.2395
  926SOL    HW1 2777   0.114   0.802   1.009  2.3948 -2.8477  3.0141
  926SOL    HW2 2778   0.164   0.930   0.906 -0.1348  1.1195 -1.1888
  927SOL     OW 2779   3.102   1.143   2.856  0.6079  0.0384 -0.5134
  927SOL    HW1 2780   0.020   1.056   2.808 -1.0070 -2.2913  0.2834
  927SOL    HW2 2781   0.078   1.200   2.873  3.1649  2.7196  2.2027
  928SOL     OW 2782   2.888   0.468   2.353  0.3713 -0.2818  0.0996
  928SOL    HW1 2783   2.891   0.403   2.273  0.1234 -3.5117 -0.4552
  928SOL    HW2 2784   2.784   0.485   2.365 -1.8042  1.2334  1.1133
  929SOL     OW 2785   2.915   2.816   1.252  0.0573 -0.1358  0.0643
  929SOL    HW1 2786   2.920   2.864   1.159 -0.6361 -1.2225  0.4457
  929SOL    HW2 2787   2.938   2.719   1.227  1.4024 -2.1617 -1.1636
  930SOL     OW 2788   2.088   1.480   1.669  0.4363 -0.2017 -0.0286
  930SOL    HW1 2789   2.083   1.579   1.641  2.0935  0.0611 -1.3683
  930SOL    HW2 2790   2.048   1.415   1.598 -4.1118 -1.9318 -0.2369
  931SOL     OW 2791   1.583   1.545   0.599  0.1407  0.1723  0.5061
  931SOL    HW1 2792   1.664   1.605   0.612  0.6774  1.7038 -0.8080
  931SOL    HW2 2793   1.493   1.598   0.612 -1.2350  0.2255 -0.9860
  932SOL     OW 2794   2.794   1.224   0.852  0.0955 -0.5092  0.1582
  932SOL    HW1 2795   2.797   1.125   0.881 -0.5276 -3.6904  2.9835
  932SOL    HW2 2796   2.876   1.268   0.895 -0.0251 -1.4811  2.3333
  933SOL     OW 2797   2.363   1.586   1.162 -0.0495  0.0664  0.4325
  933SOL    HW1 2798   2.310   1.526   1.103  1.6660  3.7403 -2.6735
  933SOL    HW2 2799   2.302   1.655   1.208 -1.0855 -1.6686 -1.4482
  934SOL     OW 2800   1.669   3.005   1.555 -0.0170 -0.4457 -0.3870
  934SOL    HW1 2801   1.627   2.920   1.587 -0.0621 -2.2344 -1.6967
  934SOL    HW2 2802   1.648   3.024   1.459  0.2493  1.9351  2.6207
  935SOL     OW 2803   0.106   1.530   0.906 -0.3920 -0.5493  0.3633
  935SOL    HW1 2804   0.065   1.566   0.821  1.5005 -1.2784  0.4866
  935SOL    HW2 2805   0.132   1.609   0.964 -2.7395 -0.5762 -0.3645
  936SOL     OW 2806   0.381   0.967   0.542 -0.1252  0.5979  0.2896
  936SOL    HW1 2807   0.323   0.954   0.454 -1.0675 -1.4730 -2.6382
  936SOL    HW2 2808   0.455   1.030   0.520 -1.4969 -0.5627 -1.3357
  937SOL     OW 2809   2.156   2.868   1.186 -0.5282  0.0794 -0.5794
  937SOL    HW1 2810   2.111   2.825   1.268  1.2695 -1.3247 -0.5700
  937SOL    HW2 2811   2.111   2.848   1.098 -1.1025 -0.2540  0.0383
  938SOL     OW 2812   2.793   2.320   0.939  0.1540 -0.1458  0.1332
  938SOL    HW1 2813   2.804   2.323   1.043 -1.2838  0.7722  2.6045
  938SOL    HW2 2814   2.721   2.393   0.920  0.6579  3.3630 -1.1314
  939SOL     OW 2815   0.953   2.008   0.526 -0.3239 -0.2578 -0.4652
  939SOL    HW1 2816   0.922   1.964   0.612 -0.9427 -2.4117 -1.3450
  939SOL    HW2 2817   0.969   2.110   0.542  0.9647 -0.3068  0.1550
  940SOL     OW 2818   2.825   0.042   0.080 -0.1244 -0.2880  0.1370
  940SOL    HW1 2819   2.861   0.068   3.095 -2.0313 -0.2150  0.5263
  940SOL    HW2 2820   2.865   3.061   0.118 -0.0829 -1.6516  0.8690
  941SOL     OW 2821   1.070   3.080   3.016  0.3840 -0.0657  0.7829
  941SOL    HW1 2822   1.137   3.062   2.944 -1.5771  1.1493  0.2534
  941SOL    HW2 2823   1.084   0.066   3.056  2.8777 -1.6624 -0.9808
  942SOL     OW 2824   1.248   1.341   1.202  0.3472 -0.4982 -0.1437
  942SOL    HW1 2825   1.315   1.393   1.142  2.9686  1.0919 -0.4385
  942SOL    HW2 2826   1.232   1.251   1.155 -0.3825  1.1767  2.8613
  943SOL     OW 2827   1.703   1.109   1.565  0.3302  0.2879  0.6084
  943SOL    HW1 2828   1.707   1.077   1.661  0.8750 -0.3860 -2.0450
  943SOL    HW2 2829   1.721   1.028   1.502 -0.6303 -2.8849 -4.8504
  944SOL     OW 2830   1.632   0.612   1.918  0.1074  0.0656  0.3542
  944SOL    HW1 2831   1.588   0.674   1.850  0.2299  2.2339 -1.3421
  944SOL    HW2 2832   1.703   0.662   1.973 -0.2203 -1.9580  1.4831
  945SOL     OW 2833   2.998   3.010   0.460 -0.3103 -1.1887  0.3228
  945SOL    HW1 2834   3.052   3.081   0.410  0.7074  2.6194 -0.4005
  945SOL    HW2 2835   2.926   2.988   0.389  2.0251  0.1927 -0.9462
  946SOL     OW 2836   0.318   0.358   1.418 -0.8205 -0.3128 -0.3347
  946SOL    HW1 2837   0.277   0.421   1.348  0.4299 -0.4661  2.3898
  946SOL    HW2 2838   0.242   0.313   1.465  1.0744 -1.0144  0.6007
  947SOL     OW 2839   0.682   2.945   0.195  0.0684  0.1245 -0.0305
  947SOL    HW1 2840   0.581   2.931   0.175  0.8179  1.6231 -0.5055
  947SOL    HW2 2841   0.714   3.022   0.131 -3.4220  0.0928  0.6892
  948SOL     OW 2842   2.566   1.093   1.979  0.2482 -0.6108 -0.2851
  948SOL    HW1 2843   2.547   1.188   1.955 -2.5545 -1.6106 -0.0365
  948SOL    HW2 2844   2.644   1.093   2.042 -3.0833  0.0378  1.2033
  949SOL     OW 2845   0.397   0.809   2.859 -0.4299  0.2805 -0.1374
  949SOL    HW1 2846   0.438   0.727   2.899 -1.6487  0.0014  0.0346
  949SOL    HW2 2847   0.460   0.837   2.788  0.9192 -2.3507  0.9212
  950SOL     OW 2848   0.925   0.423   0.586  0.5740 -0.0548 -0.3682
  950SOL    HW1 2849   0.937   0.323   0.585  2.2327 -2.0416 -1.7544
  950SOL    HW2 2850   1.009   0.473   0.568  0.5396 -0.3629 -1.4277
  951SOL     OW 2851   1.062   1.937   2.002 -0.0426 -0.1031 -0.3337
  951SOL    HW1 2852   1.120   2.021   2.014 -0.1502  0.8285 -0.9828
  951SOL    HW2 2853   0.973   1.958   2.040  3.4316  2.4109  0.6409
  952SOL     OW 2854   0.980   1.572   0.138 -0.1631 -0.1544  0.6590
  952SOL    HW1 2855   0.979   1.477   0.173  1.5094 -0.5686 -0.9814
  952SOL    HW2 2856   0.912   1.632   0.191 -2.7814 -1.8568  1.1588
  953SOL     OW 2857   2.127   2.935   2.401 -0.0885  0.2304  0.3462
  953SOL    HW1 2858   2.064   2.881   2.344 -0.3943 -0.8744  0.4073
  953SOL    HW2 2859   2.178   2.992   2.333 -0.1957 -1.0732 -1.3629
  954SOL     OW 2860   1.571   1.250   0.654 -0.2786 -0.1128  0.0149
  954SOL    HW1 2861   1.602   1.206   0.566 -1.7630  0.8487 -0.4976
  954SOL    HW2 2862   1.601   1.343   0.658  1.5587 -3.8332  2.7300
  955SOL     OW 2863   0.248   2.258   2.331 -0.3906 -0.7234 -0.2303
  955SOL    HW1 2864   0.348   2.247   2.327 -2.5741  3.0685  0.0747
  955SOL    HW2 2865   0.229   2.334   2.395 -0.1221 -2.5348 -1.5037
  956SOL     OW 2866   1.767   0.297   1.643  0.0187  0.1786  0.8236
  956SOL    HW1 2867   1.833   0.372   1.666  1.8922  0.9260  3.8851
  956SOL    HW2 2868   1.686   0.312   1.704  0.7925  1.5691 -0.0762
  957SOL     OW 2869   1.713   2.061   2.833 -0.2433  0.0636 -0.0593
  957SOL    HW1 2870   1.637   2.081   2.769  3.0161 -1.1036 -3.7388
  957SOL    HW2 2871   1.673   2.040   2.924 -3.9153  1.3518  1.5585
  958SOL     OW 2872   1.299   2.289   1.735 -0.2447 -0.0145 -0.1583
  958SOL    HW1 2873   1.208   2.280   1.768  1.8901 -0.7454 -3.2951
  958SOL    HW2 2874   1.355   2.208   1.752  2.5053  0.2634  0.6864
  959SOL     OW 2875   2.069   2.150   0.001 -0.0409  0.4934 -1.0776
  959SOL    HW1 2876   2.038   2.181   0.086 -0.8529 -3.5072  0.1420
  959SOL    HW2 2877   2.006   2.190   3.037 -0.1291 -0.8681  2.3947
  960SOL     OW 2878   2.871   0.143   2.693 -0.1430 -0.5008  0.0462
  960SOL    HW1 2879   2.927   0.069   2.645  1.1461 -2.8120 -0.5455
  960SOL    HW2 2880   2.777   0.110   2.705 -0.2367 -0.8271  0.3255
  961SOL     OW 2881   0.914   0.766   2.958  0.1315 -0.0907 -0.4463
  961SOL    HW1 2882   0.947   0.858   2.986 -0.3905  0.4732  2.1642
  961SOL    HW2 2883   0.888   0.767   2.862  1.0605 -0.4249  2.5629
  962SOL     OW 2884   1.259   1.137   2.759 -0.2231  0.0199  0.0554
  962SOL    HW1 2885   1.246   1.057   2.698  1.0981  3.6584  0.6359
  962SOL    HW2 2886   1.358   1.157   2.764  0.3711 -0.7223  1.6944
  963SOL     OW 2887   2.299   2.165   0.220 -0.2749  0.2270 -0.2223
  963SOL    HW1 2888   2.203   2.157   0.185 -2.7886 -1.8885  0.1321
  963SOL    HW2 2889   2.334   2.259   0.215  1.4358 -0.4404 -0.0688
  964SOL     OW 2890   1.452   2.532   1.097  0.2521  0.0311 -0.4444
  964SOL    HW1 2891   1.376   2.489   1.046  2.1187  0.0474 -0.7498
  964SOL    HW2 2892   1.509   2.456   1.139  3.7241 -1.3247  0.7947
  965SOL     OW 2893   1.201   1.499   0.706  0.1556 -0.2341  0.0437
  965SOL    HW1 2894   1.254   1.584   0.705 -0.0577 -1.2558  3.2023
  965SOL    HW2 2895   1.125   1.511   0.770  4.4061 -0.9195  0.0888
  966SOL     OW 2896   0.189   1.501   0.027  0.5833 -0.0094 -0.0525
  966SOL    HW1 2897   0.243   1.581   3.105 -1.8051  0.3745 -2.6471
  966SOL    HW2 2898   0.207   1.483   0.123  0.4337 -1.8331 -2.1498
  967SOL     OW 2899   1.903   0.122   2.025  0.4255  0.1228  0.0526
  967SOL    HW1 2900   1.944   0.146   2.111  0.5938 -0.5994 -0.0889
  967SOL    HW2 2901   1.965   0.115   1.944 -0.7070 -0.9080 -0.9409
  968SOL     OW 2902   1.672   1.082   0.433 -0.3686  0.1288 -0.5829
  968SOL    HW1 2903   1.715   1.055   0.345 -2.1942 -1.3469  3.4666
  968SOL    HW2 2904   1.641   1.002   0.488  3.6670  0.1752  0.1255
  969SOL     OW 2905   0.218   1.327   2.412 -0.6128 -0.0273  0.0366
  969SOL    HW1 2906   0.127   1.344   2.373  1.9834  0.9210  0.9257
  969SOL    HW2 2907   0.288   1.369   2.350 -0.3229  2.9711 -1.5475
  970SOL     OW 2908   2.170   1.368   1.107 -0.5637 -0.1558  0.0645
  970SOL    HW1 2909   2.216   1.284   1.146 -1.7840 -0.7268  0.6575
  970SOL    HW2 2910   2.203   1.369   1.010 -0.2087 -1.7522 -1.6662
  971SOL     OW 2911   0.486   0.013   1.322 -0.7727  0.1456  0.5659
  971SOL    HW1 2912   0.508   0.109   1.318 -0.6470  0.5096 -1.1950
  971SOL    HW2 2913   0.408   3.106   1.261  1.3596  0.9351 -0.1617
  972SOL     OW 2914   0.173   0.656   2.776  0.0150  0.0694 -0.1566
  972SOL    HW1 2915   0.164   0.568   2.823 -0.5755 -1.4751 -0.7010
  972SOL    HW2 2916   0.243   0.714   2.819  1.8024 -1.0631 -0.6405
  973SOL     OW 2917   0.344   0.764   1.118 -0.5121  0.2764  0.0268
  973SOL    HW1 2918   0.352   0.846   1.178 -1.0037 -2.0165  1.3412
  973SOL    HW2 2919   0.289   0.688   1.157  0.5674 -0.0209 -1.8766
  974SOL     OW 2920   2.177   0.586   2.025 -0.1519  0.4313  0.3270
  974SOL    HW1 2921   2.142   0.673   1.986  0.4863 -0.8302  0.8130
  974SOL    HW2 2922   2.268   0.593   2.067 -0.8559  1.2683 -2.3539
  975SOL     OW 2923   2.439   0.118   0.317  0.0472 -0.3809 -0.6654
  975SOL    HW1 2924   2.393   0.035   0.348 -3.3652  0.2921  0.3178
  975SOL    HW2 2925   2.469   0.162   0.406  0.3475 -3.1302 -0.1794
  976SOL     OW 2926   0.156   1.421   1.624 -0.6911  0.0447  0.1439
  976SOL    HW1 2927   0.251   1.426   1.581  0.4729  1.2245  0.8405
  976SOL    HW2 2928   0.165   1.380   1.717  0.1527 -2.0663  2.4492
  977SOL     OW 2929   1.133   2.673   3.093 -0.0033  0.2350  0.0579
  977SOL    HW1 2930   1.204   2.738   0.022 -0.4455 -0.9600 -1.7510
  977SOL    HW2 2931   1.143   2.582   0.030 -0.6439  0.6663 -1.1791
  978SOL     OW 2932   0.721   1.320   0.292 -0.5845 -0.2015 -0.7418
  978SOL    HW1 2933   0.739   1.336   0.394  1.4754  2.1756 -0.7892
  978SOL    HW2 2934   0.803   1.275   0.247  0.5047 -1.7396  1.1443
  979SOL     OW 2935   1.668   1.808   1.297 -0.4194  0.1467  0.5405
  979SOL    HW1 2936   1.613   1.852   1.372 -0.3414  2.0616  2.1377
  979SOL    HW2 2937   1.711   1.721   1.326 -0.3306  0.2454 -0.0044
  980SOL     OW 2938   0.546   1.644   1.702 -0.4997  0.5742  0.0404
  980SOL    HW1 2939   0.527   1.579   1.780 -0.0954 -0.2055 -1.5797
  980SOL    HW2 2940   0.595   1.598   1.628  1.0025 -0.2481  0.7446
  981SOL     OW 2941   0.195   1.457   0.300 -0.9567  0.1512 -0.4107
  981SOL    HW1 2942   0.244   1.374   0.339  0.5596 -0.0980  1.1357
  981SOL    HW2 2943   0.097   1.451   0.305  3.3677 -0.5681  1.9645
  982SOL     OW 2944   2.197   2.721   1.966  0.3290  0.3700 -0.3241
  982SOL    HW1 2945   2.223   2.630   1.932 -1.1933  0.1977  2.2948
  982SOL    HW2 2946   2.279   2.775   1.993  0.3576 -0.2476  1.7238
  983SOL     OW 2947   1.312   0.431   1.197 -0.0979 -0.2247 -0.8880
  983SOL    HW1 2948   1.294   0.493   1.121  0.6918 -0.3992 -2.7748
  983SOL    HW2 2949   1.363   0.348   1.171 -2.5185  0.4867 -1.3517
  984SOL     OW 2950   1.080   2.951   2.665  0.0541 -0.3207  0.1664
  984SOL    HW1 2951   1.165   2.981   2.712  2.2609  0.9324  0.9376
  984SOL    HW2 2952   1.031   3.035   2.635 -1.7308 -0.6207  0.0371
  985SOL     OW 2953   1.740   2.229   1.381 -0.6527 -0.8600  0.3720
  985SOL    HW1 2954   1.697   2.278   1.303  0.5830  1.3614 -0.8968
  985SOL    HW2 2955   1.783   2.292   1.448 -1.9941 -3.0067  1.3619
  986SOL     OW 2956   2.642   0.172   2.459 -0.2113 -0.0937 -0.1677
  986SOL    HW1 2957   2.622   0.134   2.553  0.4581 -0.1736  2.3005
  986SOL    HW2 2958   2.640   0.273   2.462  1.9343 -1.3754  0.4427
  987SOL     OW 2959   2.757   0.679   2.127  0.2861 -0.7163  0.8577
  987SOL    HW1 2960   2.855   0.671   2.165  3.3793 -1.1052  3.0658
  987SOL    HW2 2961   2.697   0.738   2.186  3.3056  0.3985  1.6942
  988SOL     OW 2962   2.370   0.811   2.458 -0.7602 -0.4718 -0.1816
  988SOL    HW1 2963   2.283   0.762   2.470  2.5174 -1.5810  0.2213
  988SOL    HW2 2964   2.355   0.913   2.442  1.4911 -1.3188 -0.8683
  989SOL     OW 2965   2.315   1.752   2.133 -0.6880  0.8322 -0.1792
  989SOL    HW1 2966   2.350   1.786   2.226 -1.9002  2.0089  2.0671
  989SOL    HW2 2967   2.375   1.787   2.057 -1.8696  0.9027  3.1692
  990SOL     OW 2968   0.399   1.246   2.817  0.3563  0.0180  0.0550
  990SOL    HW1 2969   0.321   1.318   2.812 -1.9085  2.4445  1.0631
  990SOL    HW2 2970   0.497   1.280   2.815  2.5199 -0.3562 -0.9437
  991SOL     OW 2971   0.414   2.008   2.707  0.5642  0.4715 -0.9556
  991SOL    HW1 2972   0.368   1.930   2.656  0.1886 -0.6619  2.6593
  991SOL    HW2 2973   0.356   2.066   2.767 -0.8665  1.2958 -0.6887
  992SOL     OW 2974   2.483   1.900   1.958  0.3663  0.4358 -0.4783
  992SOL    HW1 2975   2.484   1.973   1.882  2.6135  1.3962 -2.5868
  992SOL    HW2 2976   2.543   1.924   2.036  0.0668 -3.2098 -0.7461
  993SOL     OW 2977   0.302   3.079   0.600 -0.4754 -0.2298 -0.2069
  993SOL    HW1 2978   0.387   3.042   0.639 -1.4583  1.3449  0.4216
  993SOL    HW2 2979   0.233   3.006   0.613 -0.2805  2.0190  0.6782
  994SOL     OW 2980   0.239   1.741   1.577 -0.8668  0.3743  0.0633
  994SOL    HW1 2981   0.262   1.832   1.531  2.0611 -2.3977  1.0031
  994SOL    HW2 2982   0.265   1.743   1.674 -0.2225  0.7676 -0.7415
  995SOL     OW 2983   1.943   1.782   2.824  0.4474  0.1837  0.2615
  995SOL    HW1 2984   1.858   1.773   2.882  2.2381  0.1309 -0.9322
  995SOL    HW2 2985   2.006   1.845   2.872 -0.0763 -0.5572 -1.8055
  996SOL     OW 2986   2.119   1.256   2.591 -0.1123  0.3219 -0.0552
  996SOL    HW1 2987   2.149   1.234   2.684 -0.7209 -0.4474 -1.7272
  996SOL    HW2 2988   2.024   1.302   2.596  0.9627  3.0169  0.8510
  997SOL     OW 2989   1.548   0.815   1.748 -0.2690  1.1886 -0.2120
  997SOL    HW1 2990   1.469   0.877   1.741 -0.1600 -0.6008  0.6796
  997SOL    HW2 2991   1.557   0.758   1.663 -1.1020 -3.0788 -0.7926
  998SOL     OW 2992   2.377   2.113   0.837 -0.1162  0.2438 -0.1322
  998SOL    HW1 2993   2.396   2.150   0.744  0.0356 -1.0804  0.3633
  998SOL    HW2 2994   2.442   2.042   0.872 -3.2095 -2.0516  1.7553
  999SOL     OW 2995   2.284   2.462   0.604  0.3111 -0.2831 -0.1706
  999SOL    HW1 2996   2.202   2.407   0.625  1.5525 -2.9947 -0.2915
  999SOL    HW2 2997   2.257   2.552   0.561  1.4883  1.6997 -1.5601
 1000SOL     OW 2998   0.811   3.101   2.936  0.5203  0.1975  0.2004
 1000SOL    HW1 2999   0.906   3.079   2.972  3.9200  1.2765 -0.1863
 1000SOL    HW2 3000   0.766   0.056   3.010 -3.9088 -1.4298  0.7336
   3.10718   3.10718   3.10718
