1000 SPC/Fw water molecules t= 246.00000 step= 246000
 3000
    1SOL     OW    1   2.695   2.433   1.203 -0.3035 -0.3618  0.1692
    1SOL    HW1    2   2.737   2.381   1.280  0.8058  0.4063 -0.3809
    1SOL    HW2    3   2.626   2.380   1.149 -0.9482  1.3636  1.1117
    2SOL     OW    4   1.686   1.803   1.279 -0.9007  0.3541 -0.0756
    2SOL    HW1    5   1.598   1.835   1.320  0.5650  1.3583 -1.5659
    2SOL    HW2    6   1.772   1.843   1.319  2.1805 -0.5276 -1.4045
    3SOL     OW    7   1.459   2.645   3.058 -0.4011  0.5924  0.4903
    3SOL    HW1    8   1.464   2.733   0.017 -2.2407 -2.3710  0.4179
    3SOL    HW2    9   1.533   2.641   2.987 -0.3528 -0.5747  0.0257
    4SOL     OW   10   1.803   1.856   1.957  0.0466 -0.2086 -0.4192
    4SOL    HW1   11   1.891   1.807   1.986  0.4241 -2.1567  2.0179
    4SOL    HW2   12   1.804   1.899   1.856  0.8367  0.2262 -3.8057
    5SOL     OW   13   1.318   1.059   1.327  0.0284  0.1067  0.3746
    5SOL    HW1   14   1.404   1.008   1.335  0.8032 -1.0294  0.4883
    5SOL    HW2   15   1.297   1.067   1.231  2.6120 -1.1975 -0.2495
    6SOL     OW   16   2.447   3.061   0.012 -0.0487 -0.2617 -0.3008
    6SOL    HW1   17   2.471   0.020   3.025  0.3379 -0.0736  0.7027
    6SOL    HW2   18   2.430   2.964   3.077 -0.8467 -1.3737  0.7486
    7SOL     OW   19   2.766   1.599   1.608 -0.6027 -0.1256  0.5181
    7SOL    HW1   20   2.781   1.548   1.690 -2.1426 -0.1417 -2.3832
    7SOL    HW2   21   2.761   1.538   1.527 -2.8055 -0.1171  0.7388
    8SOL     OW   22   1.169   0.303   1.019 -0.4259  0.0515  0.5013
    8SOL    HW1   23   1.118   0.222   1.060 -1.0603 -1.3826  0.4187
    8SOL    HW2   24   1.226   0.287   0.937 -0.9722 -1.0999  1.6229
    9SOL     OW   25   1.736   0.426   2.535 -0.0638 -0.2846 -0.6771
    9SOL    HW1   26   1.753   0.526   2.516  1.0155  1.8999 -1.6608
    9SOL    HW2   27   1.812   0.370   2.480  0.7074 -1.4589 -2.0941
   10SOL     OW   28   0.482   2.091   0.366 -0.2452 -0.0710  0.5202
   10SOL    HW1   29   0.410   2.027   0.401 -2.2863  0.7482 -2.0280
   10SOL    HW2   30   0.564   2.103   0.429  2.9397 -0.8423 -0.0146
   11SOL     OW   31   1.011   1.080   0.497 -0.8193  0.3961  0.4901
   11SOL    HW1   32   0.976   1.174   0.486  1.8085  1.7844  1.1236
   11SOL    HW2   33   1.108   1.077   0.471 -0.8314  0.3595  2.2728
   12SOL     OW   34   0.112   0.032   1.662  0.4801 -0.4602 -0.3551
   12SOL    HW1   35   0.059   0.122   1.674 -0.9480  0.6536 -0.1673
   12SOL    HW2   36   0.181   0.033   1.594 -1.7236 -3.8045  1.6180
   13SOL     OW   37   1.523   0.162   0.480 -0.1847 -0.1783 -0.6377
   13SOL    HW1   38   1.430   0.197   0.499 -0.5142  1.7516 -2.7307
   13SOL    HW2   39   1.581   0.171   0.565 -0.8199  2.5636  2.1290
   14SOL     OW   40   1.075   2.315   1.434 -0.7144  0.0952 -0.6655
   14SOL    HW1   41   1.124   2.349   1.519  1.5568 -2.8334 -2.5119
   14SOL    HW2   42   1.103   2.368   1.347  0.6534  0.2653  0.2853
   15SOL     OW   43   2.597   1.173   1.725  0.0322 -0.1237 -0.1906
   15SOL    HW1   44   2.591   1.198   1.629  1.2350 -0.8477 -2.8093
   15SOL    HW2   45   2.546   1.243   1.785  0.6396  1.3919  0.8081
   16SOL     OW   46   2.108   2.792   0.337 -0.0206  0.4470 -0.5142
   16SOL    HW1   47   2.180   2.861   0.361  0.8885  2.6931  1.6703
   16SOL    HW2   48   2.027   2.836   0.300  1.1419  1.9563 -1.3890
   17SOL     OW   49   0.944   0.074   1.373  0.1849 -0.1956 -0.3659
   17SOL    HW1   50   0.904   0.154   1.324  1.5899  2.2897 -0.1165
   17SOL    HW2   51   0.879   0.013   1.420  2.0695  0.0863  1.9785
   18SOL     OW   52   1.552   0.685   2.795 -0.2333 -0.0928 -0.0798
   18SOL    HW1   53   1.574   0.637   2.885  0.1609  0.0744 -1.0037
   18SOL    HW2   54   1.634   0.730   2.763 -1.8445  0.0956  0.8304
   19SOL     OW   55   1.871   2.079   0.146 -0.4813  0.4392  0.0405
   19SOL    HW1   56   1.967   2.040   0.145  3.2428 -2.4995 -0.1211
   19SOL    HW2   57   1.858   2.133   0.063  0.5673 -1.3624  0.0428
   20SOL     OW   58   2.163   2.119   1.778 -0.3151  0.1471  0.1308
   20SOL    HW1   59   2.191   2.042   1.833 -0.7534  2.0200 -0.4469
   20SOL    HW2   60   2.088   2.170   1.817  3.3461 -0.3501  1.0725
   21SOL     OW   61   0.767   1.588   3.005 -0.3220  0.3906  0.3951
   21SOL    HW1   62   0.854   1.574   2.951  0.7596  0.9574 -2.3235
   21SOL    HW2   63   0.779   1.660   3.073 -0.3301 -2.4255 -1.2811
   22SOL     OW   64   1.844   2.860   1.362  0.5383 -0.0236 -0.9717
   22SOL    HW1   65   1.807   2.888   1.268  1.4729 -2.2189  1.4318
   22SOL    HW2   66   1.772   2.829   1.423  2.0736  0.5626 -2.7174
   23SOL     OW   67   0.039   0.511   1.582  0.0742  0.3305  0.2948
   23SOL    HW1   68   0.126   0.489   1.532 -1.3482  2.4490  0.0787
   23SOL    HW2   69   3.090   0.593   1.535  1.9775  0.7177 -1.0675
   24SOL     OW   70   2.148   2.574   0.821 -0.4397  0.6671  0.2871
   24SOL    HW1   71   2.213   2.621   0.882  1.3542 -0.0770 -1.1707
   24SOL    HW2   72   2.122   2.477   0.853  1.5956 -2.5415 -0.0138
   25SOL     OW   73   1.232   2.798   2.755  0.3852  0.3768 -0.3821
   25SOL    HW1   74   1.311   2.757   2.715 -0.4639 -0.1527  2.6641
   25SOL    HW2   75   1.183   2.861   2.689 -0.1515  1.7186 -0.5516
   26SOL     OW   76   1.928   2.642   3.002  0.3847  0.4846  0.6212
   26SOL    HW1   77   1.932   2.726   2.947 -1.5522 -1.4445  4.1713
   26SOL    HW2   78   1.854   2.634   3.071 -5.3011 -0.8361 -0.5119
   27SOL     OW   79   0.050   1.822   2.654 -0.2289 -0.3910  0.3626
   27SOL    HW1   80   0.000   1.912   2.642 -0.0439 -0.9868 -0.9088
   27SOL    HW2   81   3.084   1.738   2.650  0.4855 -1.3991  0.4801
   28SOL     OW   82   2.884   0.913   1.473 -0.2289 -0.2051 -0.5445
   28SOL    HW1   83   2.787   0.903   1.450 -4.1917  0.1492  0.1987
   28SOL    HW2   84   2.898   0.992   1.533 -1.4515 -0.2543 -1.1763
   29SOL     OW   85   2.441   2.497   1.513  0.1158 -0.1546  0.7069
   29SOL    HW1   86   2.369   2.558   1.474  1.3361 -2.1314  1.2222
   29SOL    HW2   87   2.537   2.530   1.491 -0.2388  0.3605  0.4549
   30SOL     OW   88   1.490   0.588   0.058  0.3016 -1.4319 -0.0878
   30SOL    HW1   89   1.478   0.494   0.011  1.0337 -1.6190  0.3624
   30SOL    HW2   90   1.564   0.582   0.129  0.1283 -1.0350  1.2732
   31SOL     OW   91   2.582   2.826   1.632  0.7792 -0.1681 -0.6502
   31SOL    HW1   92   2.629   2.912   1.606 -0.7702 -0.5862  1.7890
   31SOL    HW2   93   2.576   2.764   1.549  2.0411 -1.8209 -1.6777
   32SOL     OW   94   0.844   1.602   1.523  0.1548 -0.8341  0.1033
   32SOL    HW1   95   0.795   1.684   1.488  1.2669 -1.1031 -0.6960
   32SOL    HW2   96   0.827   1.521   1.465  2.3651  0.2036 -0.1459
   33SOL     OW   97   0.495   2.771   2.172  0.2295 -0.2488  0.0469
   33SOL    HW1   98   0.508   2.717   2.088  2.4242  0.1988 -0.7193
   33SOL    HW2   99   0.560   2.737   2.240  0.4011 -0.6018  0.6109
   34SOL     OW  100   1.480   3.056   0.747 -0.7439  0.2734  0.1925
   34SOL    HW1  101   1.573   3.049   0.791 -0.2217  0.7357  1.1712
   34SOL    HW2  102   1.485   3.015   0.655  0.9551  0.6655  1.9526
   35SOL     OW  103   2.024   3.029   0.807 -0.1428 -0.2392  0.4733
   35SOL    HW1  104   1.984   3.046   0.713 -2.2644  0.2735 -0.4009
   35SOL    HW2  105   2.047   0.019   0.857 -0.0317 -1.9136  0.2420
   36SOL     OW  106   1.865   2.638   2.391 -0.5060 -0.0176 -0.8932
   36SOL    HW1  107   1.774   2.612   2.360  1.3703  0.7253  0.4695
   36SOL    HW2  108   1.912   2.551   2.420  0.9039  1.9970  0.2352
   37SOL     OW  109   0.592   3.027   2.421 -0.2306  0.1855 -0.3613
   37SOL    HW1  110   0.635   2.987   2.337  0.9040 -3.1595  1.2736
   37SOL    HW2  111   0.576   2.945   2.482 -1.7171  1.4816  1.1006
   38SOL     OW  112   0.193   2.641   2.492  0.1411 -0.0164 -0.1086
   38SOL    HW1  113   0.278   2.583   2.494 -0.3278 -1.2924 -0.0121
   38SOL    HW2  114   0.172   2.673   2.397  3.7817 -0.0572  3.0763
   39SOL     OW  115   2.579   1.251   2.152 -0.1215  0.4316 -0.2370
   39SOL    HW1  116   2.534   1.290   2.070  0.6906 -1.9615  2.2017
   39SOL    HW2  117   2.510   1.209   2.210  1.2271  1.6041 -1.3875
   40SOL     OW  118   0.653   2.874   3.064 -0.2967  0.1454 -0.2509
   40SOL    HW1  119   0.739   2.914   0.014 -0.1649  1.0259  2.2284
   40SOL    HW2  120   0.603   2.821   0.044 -0.3383  0.8356 -0.6950
   41SOL     OW  121   2.145   1.136   1.214 -0.0114  0.4672  0.3416
   41SOL    HW1  122   2.190   1.044   1.216 -0.9738  1.2533 -0.3785
   41SOL    HW2  123   2.133   1.162   1.118 -0.7272 -1.5269  1.0085
   42SOL     OW  124   0.497   0.437   1.076  0.4296 -0.1003  0.2534
   42SOL    HW1  125   0.576   0.492   1.042  1.4077 -0.3728 -0.1827
   42SOL    HW2  126   0.481   0.453   1.173  0.4439  1.4312 -0.2346
   43SOL     OW  127   2.256   1.238   2.566 -0.1128 -0.7275 -0.1954
   43SOL    HW1  128   2.277   1.138   2.555  3.9303 -1.1244 -0.0158
   43SOL    HW2  129   2.287   1.288   2.482 -0.9071 -0.9300 -0.9280
   44SOL     OW  130   2.919   2.859   0.664 -0.1908 -0.1544  0.3235
   44SOL    HW1  131   2.888   2.956   0.644 -0.6203  3.2255  0.2557
   44SOL    HW2  132   3.011   2.855   0.707  3.1011 -0.2630  1.4045
   45SOL     OW  133   0.025   2.681   1.110  0.2367  0.9830 -0.0861
   45SOL    HW1  134   0.046   2.778   1.072  1.5591  2.4693 -1.0118
   45SOL    HW2  135   3.018   2.659   1.112 -2.0945 -0.5725 -1.9828
   46SOL     OW  136   2.214   2.531   2.517 -0.6377  0.3345  0.1545
   46SOL    HW1  137   2.128   2.481   2.514 -0.0517  0.1706 -1.0369
   46SOL    HW2  138   2.223   2.617   2.464  0.0662  1.2289 -0.9223
   47SOL     OW  139   1.947   1.975   1.085 -0.4884  0.0627 -0.1513
   47SOL    HW1  140   2.021   1.970   1.017  2.1533 -1.1599 -2.2518
   47SOL    HW2  141   1.911   1.881   1.098 -0.1490  1.5546  0.4187
   48SOL     OW  142   0.600   1.619   0.248 -0.0029  0.7717 -0.1887
   48SOL    HW1  143   0.664   1.675   0.191  0.1634  0.6492  0.9419
   48SOL    HW2  144   0.603   1.520   0.223  2.6685  1.4842 -0.1051
   49SOL     OW  145   3.041   0.112   2.600 -0.0909 -0.1216  0.2660
   49SOL    HW1  146   3.037   0.064   2.688  0.7228 -0.2670 -1.6180
   49SOL    HW2  147   2.965   0.081   2.536 -4.6061 -0.6227 -0.9810
   50SOL     OW  148   2.133   0.697   0.383  0.3774  0.1232  0.1481
   50SOL    HW1  149   2.072   0.773   0.367  0.5389 -2.7857  1.4706
   50SOL    HW2  150   2.100   0.645   0.472 -1.4279 -0.3365  3.6806
   51SOL     OW  151   2.465   0.810   1.104 -0.3522  0.1384 -0.0936
   51SOL    HW1  152   2.546   0.815   1.170  2.4788  3.0523  1.4414
   51SOL    HW2  153   2.465   0.888   1.034  1.1441  0.8280  0.9264
   52SOL     OW  154   1.627   1.356   2.386  0.1486 -0.0593 -0.1769
   52SOL    HW1  155   1.656   1.357   2.290  0.4176  2.0482  2.8288
   52SOL    HW2  156   1.692   1.304   2.442 -1.3092  2.9350 -1.0366
   53SOL     OW  157   0.644   1.766   2.053  0.0271  0.1290  0.2349
   53SOL    HW1  158   0.726   1.783   2.001 -0.8440 -0.8109 -2.2734
   53SOL    HW2  159   0.661   1.774   2.153 -2.7282 -0.7469 -0.8757
   54SOL     OW  160   2.147   0.439   1.033 -0.2035  0.0094 -0.4992
   54SOL    HW1  161   2.218   0.502   0.997 -0.0720  2.6436  1.6449
   54SOL    HW2  162   2.129   0.466   1.134 -0.0343  3.6041  1.5449
   55SOL     OW  163   2.528   2.332   1.003  0.1845  0.3824  0.5813
   55SOL    HW1  164   2.500   2.234   0.983  1.4925  0.4464 -3.3858
   55SOL    HW2  165   2.559   2.383   0.923 -0.8208 -0.5388  2.4799
   56SOL     OW  166   1.073   3.066   1.788  0.2011 -0.1658  0.1904
   56SOL    HW1  167   1.100   0.029   1.871  0.1579 -1.4036 -1.6873
   56SOL    HW2  168   1.123   0.015   1.710  2.5691 -1.0457 -0.7616
   57SOL     OW  169   1.440   1.402   0.126  0.2730  0.1832  0.2199
   57SOL    HW1  170   1.412   1.440   0.215  0.1569  2.0915 -1.9989
   57SOL    HW2  171   1.514   1.451   0.083 -0.3720  0.3295  1.6293
   58SOL     OW  172   3.023   0.787   2.523  0.0206 -0.6757  0.1071
   58SOL    HW1  173   0.020   0.809   2.553 -2.4565 -0.3316 -0.6900
   58SOL    HW2  174   3.021   0.718   2.446  0.2978  0.9307 -2.4138
   59SOL     OW  175   0.757   2.735   2.821  0.2294  0.0574  0.7472
   59SOL    HW1  176   0.755   2.779   2.914 -0.7448  2.8784  0.2389
   59SOL    HW2  177   0.827   2.664   2.826 -2.4072  0.6448  0.5869
   60SOL     OW  178   2.528   2.411   0.548  0.3709  0.3607  0.1987
   60SOL    HW1  179   2.560   2.412   0.647  2.0692  1.3039  2.3246
   60SOL    HW2  180   2.606   2.369   0.492  2.0304 -0.4476  0.7165
   61SOL     OW  181   1.203   1.859   0.622 -0.1399  0.4003 -0.4578
   61SOL    HW1  182   1.223   1.832   0.720  3.7223 -3.4143  1.0005
   61SOL    HW2  183   1.106   1.894   0.614 -1.6281  1.6851 -1.5037
   62SOL     OW  184   2.158   1.998   2.614 -0.2568 -1.0106  0.5460
   62SOL    HW1  185   2.168   2.007   2.713 -0.3149  0.1960 -1.3052
   62SOL    HW2  186   2.186   1.902   2.588  0.5890 -0.5169 -0.9337
   63SOL     OW  187   2.193   2.683   3.032  0.0871  0.1825 -1.0165
   63SOL    HW1  188   2.096   2.652   3.013  2.3334  1.2215 -0.5641
   63SOL    HW2  189   2.235   2.729   2.950  0.3182 -2.9765 -1.7715
   64SOL     OW  190   1.586   1.060   2.531  0.1905 -0.2547  0.7056
   64SOL    HW1  191   1.555   1.082   2.439 -0.1439  0.1767  0.9037
   64SOL    HW2  192   1.666   1.004   2.530 -1.8839 -0.7403 -2.2745
   65SOL     OW  193   1.228   2.590   2.918  0.1990  0.2092 -0.0280
   65SOL    HW1  194   1.230   2.675   2.860 -0.6057  1.0707  0.5693
   65SOL    HW2  195   1.284   2.611   3.004  0.0154 -1.1235  4.0543
   66SOL     OW  196   0.360   1.188   1.803 -0.2117  0.7008 -0.2642
   66SOL    HW1  197   0.339   1.173   1.900  0.2596  0.5032  1.1425
   66SOL    HW2  198   0.296   1.124   1.751 -4.5429 -1.8445 -1.6339
   67SOL     OW  199   2.755   2.802   2.773  0.0382  0.3053  0.4879
   67SOL    HW1  200   2.697   2.719   2.756  0.9028  1.4536 -0.5502
   67SOL    HW2  201   2.826   2.820   2.702  0.8218  0.5077 -0.0684
   68SOL     OW  202   0.813   2.466   1.544  0.6788  0.5272  0.1680
   68SOL    HW1  203   0.908   2.433   1.555 -0.4790  0.6315 -0.5299
   68SOL    HW2  204   0.814   2.559   1.508  3.0842 -0.0745 -2.6101
   69SOL     OW  205   0.653   2.126   0.576 -0.6205  0.2503 -0.1784
   69SOL    HW1  206   0.724   2.096   0.646 -2.7495  0.4005 -1.9599
   69SOL    HW2  207   0.605   2.208   0.609  1.6502 -1.1209  1.7940
   70SOL     OW  208   2.596   0.891   2.472 -0.2245  0.3445 -0.0496
   70SOL    HW1  209   2.689   0.934   2.460 -1.0799 -0.6371 -0.8515
   70SOL    HW2  210   2.594   0.833   2.558 -1.6289 -1.0358  2.8553
   71SOL     OW  211   0.782   1.075   2.408 -0.0699  0.2930 -0.0405
   71SOL    HW1  212   0.724   1.024   2.340  1.4893 -0.7257 -0.9209
   71SOL    HW2  213   0.731   1.163   2.423 -2.1803  1.0068 -0.8619
   72SOL     OW  214   0.248   2.105   0.654 -0.0049 -0.3128  0.0212
   72SOL    HW1  215   0.221   2.061   0.567 -1.8124  4.2019  0.8802
   72SOL    HW2  216   0.239   2.042   0.735 -0.2579 -0.5926  1.3845
   73SOL     OW  217   1.001   1.500   0.198 -0.7391  0.1005 -0.5269
   73SOL    HW1  218   0.923   1.571   0.197 -2.6994  2.5325  1.8632
   73SOL    HW2  219   1.060   1.520   0.278 -1.0016  0.9631  1.9665
   74SOL     OW  220   2.640   2.969   0.183  0.0125  0.1354  0.3382
   74SOL    HW1  221   2.643   2.868   0.163  1.9293  0.7213 -0.1227
   74SOL    HW2  222   2.571   3.006   0.115 -0.5519  1.3589 -0.8017
   75SOL     OW  223   2.445   1.649   2.167 -0.1650  0.7088  0.5081
   75SOL    HW1  224   2.375   1.601   2.112  0.6638  1.6718 -0.0310
   75SOL    HW2  225   2.418   1.745   2.187  0.9381 -1.1832  3.0195
   76SOL     OW  226   2.018   2.644   1.647  0.3320 -0.6831 -0.1278
   76SOL    HW1  227   1.928   2.658   1.697 -0.3612 -0.1443  1.5318
   76SOL    HW2  228   1.990   2.647   1.551  0.1527  0.5510  2.3990
   77SOL     OW  229   2.385   0.589   1.303 -0.1655  0.3183  0.4604
   77SOL    HW1  230   2.422   0.666   1.251 -0.9325 -0.0930  1.8235
   77SOL    HW2  231   2.428   0.586   1.394  0.8759 -0.0079 -1.8454
   78SOL     OW  232   1.957   1.030   2.806 -0.5667  0.4921  0.0735
   78SOL    HW1  233   2.038   1.067   2.847 -4.5729  2.0228 -0.3167
   78SOL    HW2  234   1.907   0.976   2.869  2.2108 -0.8110 -3.5038
   79SOL     OW  235   0.252   1.579   2.014 -0.2643 -0.0255 -0.3929
   79SOL    HW1  236   0.245   1.678   2.025 -1.9897 -1.3719 -0.1108
   79SOL    HW2  237   0.232   1.559   1.916 -1.2292  1.3590 -0.2101
   80SOL     OW  238   1.898   1.119   1.352 -0.3688  0.1426 -0.3466
   80SOL    HW1  239   1.995   1.105   1.365 -2.4564 -0.1943  0.5595
   80SOL    HW2  240   1.883   1.178   1.269  2.3090  0.1381 -1.2151
   81SOL     OW  241   1.344   0.400   1.286 -0.1228  0.4569  0.1932
   81SOL    HW1  242   1.350   0.297   1.305  1.1664 -1.5045 -0.5145
   81SOL    HW2  243   1.302   0.411   1.191 -0.5157  1.2693 -2.3320
   82SOL     OW  244   1.451   2.386   1.702 -0.4092  0.7918  0.3365
   82SOL    HW1  245   1.448   2.354   1.602  0.8623 -0.1156 -3.3434
   82SOL    HW2  246   1.512   2.330   1.767  1.9428 -2.6992  5.0627
   83SOL     OW  247   0.602   2.922   0.856 -0.0564  0.1130  0.6211
   83SOL    HW1  248   0.677   2.861   0.890  4.0082 -2.4850  3.5843
   83SOL    HW2  249   0.563   2.975   0.936 -1.4575 -1.4499  1.3847
   84SOL     OW  250   0.131   0.924   2.873  0.2686  0.3304 -0.3653
   84SOL    HW1  251   0.215   0.919   2.813 -3.9781 -1.0437 -2.9718
   84SOL    HW2  252   0.094   1.018   2.883  1.1221 -1.6484 -0.6401
   85SOL     OW  253   2.743   2.374   1.761  0.2642 -0.1457 -0.2711
   85SOL    HW1  254   2.812   2.439   1.720 -0.0563  0.0636  1.0622
   85SOL    HW2  255   2.651   2.418   1.761  1.5684  2.0053  1.6876
   86SOL     OW  256   2.914   2.520   1.609  0.2194  1.3153 -0.7495
   86SOL    HW1  257   2.930   2.617   1.615 -2.1471 -2.7011 -1.4317
   86SOL    HW2  258   2.988   2.465   1.559 -1.4385 -2.2147 -1.3509
   87SOL     OW  259   0.582   2.713   0.177 -0.2541 -0.1090 -0.3045
   87SOL    HW1  260   0.575   2.612   0.150  3.5955 -1.5733 -2.8335
   87SOL    HW2  261   0.678   2.729   0.203 -0.5553 -0.0857 -0.0938
   88SOL     OW  262   0.191   1.922   1.307 -0.0373 -0.3727  0.0624
   88SOL    HW1  263   0.286   1.890   1.309 -0.1143  2.3688  2.0109
   88SOL    HW2  264   0.140   1.859   1.250  3.7875 -0.1717  1.8988
   89SOL     OW  265   1.071   0.709   1.873  0.0726  0.2286  0.1039
   89SOL    HW1  266   1.032   0.677   1.958  1.2273  0.2970  0.8412
   89SOL    HW2  267   1.163   0.665   1.861  0.1986  0.1345 -0.7167
   90SOL     OW  268   2.698   1.603   2.055 -0.3885  0.3663  0.7613
   90SOL    HW1  269   2.755   1.671   2.111  2.1174  2.0044  1.4025
   90SOL    HW2  270   2.601   1.614   2.085  0.6384  2.0863 -2.1949
   91SOL     OW  271   1.406   1.886   0.865  0.0064 -0.5815 -0.2796
   91SOL    HW1  272   1.320   1.835   0.893 -1.0623 -0.3082  2.1235
   91SOL    HW2  273   1.429   1.948   0.941  2.6076 -3.7706 -1.2419
   92SOL     OW  274   2.181   0.867   1.194 -0.6129  0.4566 -0.0626
   92SOL    HW1  275   2.136   0.822   1.274 -2.5770  4.7719 -0.8040
   92SOL    HW2  276   2.275   0.833   1.178 -1.2874  1.3932  0.8390
   93SOL     OW  277   2.176   1.401   0.290 -0.0655 -0.1415 -0.2953
   93SOL    HW1  278   2.190   1.316   0.242  3.6626  3.0148  0.5524
   93SOL    HW2  279   2.258   1.429   0.344  3.0259 -0.1728 -1.4531
   94SOL     OW  280   2.176   2.193   2.428  0.4149  0.0034  0.1771
   94SOL    HW1  281   2.166   2.101   2.473  0.7293 -0.0539  2.2848
   94SOL    HW2  282   2.204   2.183   2.329  1.3786 -2.4322 -0.4901
   95SOL     OW  283   1.898   0.573   0.964  0.2696  0.8765 -0.0531
   95SOL    HW1  284   1.918   0.676   0.977  1.5235  2.7386 -0.7902
   95SOL    HW2  285   1.976   0.512   0.991 -1.2073 -3.9405  0.6686
   96SOL     OW  286   2.766   2.986   1.490 -0.6554  0.1053  0.2247
   96SOL    HW1  287   2.723   2.980   1.394 -1.1283  1.1655  1.7726
   96SOL    HW2  288   2.820   3.071   1.492 -0.2791  0.5017  2.4673
   97SOL     OW  289   2.163   0.075   1.158 -0.4520  0.6051 -0.3002
   97SOL    HW1  290   2.103   0.106   1.079 -0.9643  1.0967  0.9093
   97SOL    HW2  291   2.247   0.133   1.154 -0.5264 -0.1577 -0.8027
   98SOL     OW  292   1.408   2.341   1.449  0.7940 -0.2826 -0.0191
   98SOL    HW1  293   1.437   2.439   1.428  2.5031  2.9864 -0.0291
   98SOL    HW2  294   1.332   2.313   1.388 -1.1473 -0.3824  1.0278
   99SOL     OW  295   2.484   2.741   1.888  0.5712  0.5821  0.2377
   99SOL    HW1  296   2.468   2.817   1.958  1.1346  1.2369  0.4490
   99SOL    HW2  297   2.537   2.775   1.810 -2.5476 -0.8075  0.9285
  100SOL     OW  298   0.345   0.939   2.691  0.3120  0.4188  0.0981
  100SOL    HW1  299   0.413   0.999   2.732 -2.4802 -1.4003  1.0651
  100SOL    HW2  300   0.388   0.846   2.671  0.7081  0.3425 -1.6973
  101SOL     OW  301   1.770   0.740   0.049 -0.2644  0.2964 -0.1553
  101SOL    HW1  302   1.733   0.733   0.146  1.1134  1.2105  0.0850
  101SOL    HW2  303   1.871   0.729   0.054  1.5413 -1.8614 -0.0559
  102SOL     OW  304   0.277   0.299   1.564 -0.3176  0.1664 -0.4311
  102SOL    HW1  305   0.278   0.321   1.667  0.3706 -0.9163  0.0986
  102SOL    HW2  306   0.313   0.203   1.538 -0.7379 -4.6615 -0.4461
  103SOL     OW  307   3.082   0.911   2.147  0.0028  0.5797  0.1383
  103SOL    HW1  308   3.012   0.977   2.171  0.6912 -1.9206 -0.0401
  103SOL    HW2  309   3.047   0.842   2.081 -0.7192  0.7722 -2.0236
  104SOL     OW  310   0.367   0.323   2.608 -0.4944 -0.3970 -0.2228
  104SOL    HW1  311   0.466   0.343   2.594 -1.7371 -0.3472  0.9934
  104SOL    HW2  312   0.322   0.404   2.640  3.2495 -1.7224 -0.3614
  105SOL     OW  313   1.958   1.920   1.490  0.0358  0.3286  0.1340
  105SOL    HW1  314   2.041   1.865   1.488  0.1181  0.8974 -1.5754
  105SOL    HW2  315   1.966   2.009   1.446 -0.3239 -0.6040 -1.1964
  106SOL     OW  316   1.957   0.250   0.620  0.3866 -0.1729  0.0496
  106SOL    HW1  317   1.974   0.205   0.532 -3.8661 -2.9535  0.8216
  106SOL    HW2  318   2.040   0.251   0.678  0.2660  2.5347  1.6342
  107SOL     OW  319   0.124   1.758   1.651  0.0110  0.2440 -0.4634
  107SOL    HW1  320   0.150   1.848   1.677 -0.2544  0.2399  3.0051
  107SOL    HW2  321   0.074   1.743   1.564  1.8267 -0.6944 -2.4086
  108SOL     OW  322   2.947   2.657   1.961  0.8378  0.0885 -0.9081
  108SOL    HW1  323   3.007   2.730   1.994  2.0153  0.3162 -3.2331
  108SOL    HW2  324   3.000   2.594   1.904 -1.3711 -0.3680  1.7513
  109SOL     OW  325   1.708   0.173   0.677 -0.4306 -0.3678  0.2418
  109SOL    HW1  326   1.799   0.207   0.645  2.8340  1.3573 -0.1494
  109SOL    HW2  327   1.719   0.108   0.750 -0.2845  0.0063 -0.4328
  110SOL     OW  328   0.316   2.043   2.338  0.3478 -0.1363 -0.0702
  110SOL    HW1  329   0.290   2.100   2.420  1.3467  2.1874  0.7073
  110SOL    HW2  330   0.319   1.947   2.364  3.5803 -1.9972 -0.9635
  111SOL     OW  331   1.533   2.468   2.097  0.3840 -0.6859 -0.5774
  111SOL    HW1  332   1.572   2.378   2.112  0.6225  0.2147 -0.0244
  111SOL    HW2  333   1.443   2.462   2.050  0.5321 -1.6427  2.1221
  112SOL     OW  334   1.618   2.833   2.801 -0.1848 -0.1488  0.7788
  112SOL    HW1  335   1.707   2.879   2.822 -0.1650  2.3990 -1.0392
  112SOL    HW2  336   1.621   2.733   2.806  0.1740  1.2635  1.0755
  113SOL     OW  337   1.752   2.509   1.489  0.0938 -0.0727 -0.0311
  113SOL    HW1  338   1.766   2.424   1.435  0.4620 -3.3123 -3.8263
  113SOL    HW2  339   1.746   2.487   1.590  1.6969  0.4995  3.0629
  114SOL     OW  340   2.914   0.911   0.806 -0.3862  0.1604 -0.7037
  114SOL    HW1  341   2.904   1.009   0.790 -0.6221 -1.3143 -2.3229
  114SOL    HW2  342   3.013   0.894   0.817  0.4583 -0.9731 -0.6549
  115SOL     OW  343   0.538   1.094   2.814  0.2821  0.4839  0.6753
  115SOL    HW1  344   0.525   1.120   2.910  1.5850 -2.6832 -1.9601
  115SOL    HW2  345   0.619   1.030   2.801 -0.1790 -0.0228 -0.8841
  116SOL     OW  346   0.009   1.254   2.239  0.3440  0.2379  0.1466
  116SOL    HW1  347   0.001   1.222   2.142 -2.3766  0.4623 -0.0082
  116SOL    HW2  348   0.077   1.325   2.257 -2.3661  1.9583  0.8606
  117SOL     OW  349   2.679   0.049   0.634 -0.2252 -0.3210 -0.3929
  117SOL    HW1  350   2.774   0.060   0.604 -0.9623  0.4335  1.9464
  117SOL    HW2  351   2.639   3.063   0.588 -0.7526  1.3165  3.3598
  118SOL     OW  352   1.145   1.977   1.614  0.4860 -0.1191  0.1263
  118SOL    HW1  353   1.124   1.879   1.592  1.6310 -1.1947 -1.9114
  118SOL    HW2  354   1.229   2.015   1.568 -0.5483  1.0371 -2.7268
  119SOL     OW  355   0.673   2.173   2.736 -0.3791 -0.4057 -0.1256
  119SOL    HW1  356   0.761   2.137   2.773 -0.2522 -2.2530 -0.1870
  119SOL    HW2  357   0.594   2.165   2.803 -1.8515 -0.5663  1.6139
  120SOL     OW  358   0.769   0.950   2.839 -0.3548  0.6265  0.2386
  120SOL    HW1  359   0.784   0.890   2.760 -0.1588  2.8133  2.3630
  120SOL    HW2  360   0.858   0.994   2.871  0.3687 -1.7256 -3.0139
  121SOL     OW  361   1.658   2.590   1.170  0.5227 -0.1168 -0.2331
  121SOL    HW1  362   1.749   2.634   1.176 -0.3930 -0.0031  2.1731
  121SOL    HW2  363   1.656   2.485   1.160 -2.0769  0.7089  1.4480
  122SOL     OW  364   2.155   2.434   1.740 -0.1359 -0.2077  0.0924
  122SOL    HW1  365   2.095   2.515   1.724  0.5237 -0.9167 -0.3370
  122SOL    HW2  366   2.135   2.357   1.677  1.5722  1.2658  2.1426
  123SOL     OW  367   0.087   2.830   0.750  0.3933  0.1046 -0.6965
  123SOL    HW1  368   0.144   2.909   0.720  1.4082 -2.7370 -0.8510
  123SOL    HW2  369   0.125   2.749   0.708  2.8593  1.2179 -1.5306
  124SOL     OW  370   2.185   1.412   2.748 -0.3718  0.5254 -0.1243
  124SOL    HW1  371   2.201   1.338   2.679  0.6993  0.4190  1.5373
  124SOL    HW2  372   2.266   1.443   2.807 -3.0628 -0.1952  1.7284
  125SOL     OW  373   0.638   1.005   0.404 -0.2451 -0.5196  0.5352
  125SOL    HW1  374   0.688   0.993   0.491  1.2770 -0.0371  1.5401
  125SOL    HW2  375   0.577   1.085   0.410 -0.6065 -1.3184 -0.8446
  126SOL     OW  376   2.726   1.719   0.990 -0.3228 -0.1729 -0.0195
  126SOL    HW1  377   2.758   1.804   1.037 -1.1428 -2.9875  0.2147
  126SOL    HW2  378   2.787   1.693   0.914 -1.1137 -0.4791 -0.6726
  127SOL     OW  379   3.090   2.127   1.890  0.6144  0.4449 -0.1471
  127SOL    HW1  380   0.056   2.105   1.809 -1.9930 -1.1260 -0.0689
  127SOL    HW2  381   0.047   2.108   1.972 -0.4516  0.1727 -0.4383
  128SOL     OW  382   1.016   1.052   0.081 -0.1036  0.6828 -0.2461
  128SOL    HW1  383   1.092   0.990   0.116  2.3005  2.0881  2.4656
  128SOL    HW2  384   0.931   1.009   0.117 -1.2746 -2.6054  2.1239
  129SOL     OW  385   2.564   1.011   0.930 -0.4705 -0.0762  0.2081
  129SOL    HW1  386   2.628   1.087   0.938  0.5335 -1.5980 -0.5081
  129SOL    HW2  387   2.520   1.002   0.837  0.4289  0.2088 -0.5619
  130SOL     OW  388   2.439   0.983   1.442 -0.0500  0.1997  0.2023
  130SOL    HW1  389   2.514   0.925   1.483 -2.0995 -1.0274  1.5490
  130SOL    HW2  390   2.459   1.036   1.359 -1.5209 -0.3678  0.4863
  131SOL     OW  391   2.862   2.739   3.000  0.4480  0.2819  0.3204
  131SOL    HW1  392   2.820   2.787   2.916 -0.2993 -0.2454 -2.5761
  131SOL    HW2  393   2.797   2.672   3.044 -0.3003 -1.9627  1.1545
  132SOL     OW  394   2.860   2.130   1.717 -0.0057 -0.1280 -0.0573
  132SOL    HW1  395   2.801   2.211   1.739  0.5711 -0.6346 -1.0983
  132SOL    HW2  396   2.916   2.102   1.799 -0.8626 -1.2194 -0.1390
  133SOL     OW  397   1.089   0.578   1.086 -0.1956  0.2315 -0.0652
  133SOL    HW1  398   1.111   0.480   1.057 -0.4359 -1.4849  1.0723
  133SOL    HW2  399   1.005   0.579   1.146 -3.8206 -0.2800  1.0622
  134SOL     OW  400   3.017   1.396   0.393 -0.1517 -0.0753 -0.1885
  134SOL    HW1  401   2.937   1.410   0.328 -1.7397 -0.0491 -1.1049
  134SOL    HW2  402   0.016   1.404   0.349  1.5635 -2.2371  3.0517
  135SOL     OW  403   2.278   1.070   1.674 -0.1941 -0.3609 -0.4705
  135SOL    HW1  404   2.354   1.060   1.606 -2.6863 -1.1187  0.7479
  135SOL    HW2  405   2.240   1.160   1.676 -0.0640 -0.9604 -1.7494
  136SOL     OW  406   0.205   0.993   0.416 -0.0696 -0.1117  0.5343
  136SOL    HW1  407   0.119   1.034   0.451 -2.2825  1.1496  0.2328
  136SOL    HW2  408   0.228   1.038   0.327  0.5758  2.2932  0.4989
  137SOL     OW  409   2.593   1.263   1.482  0.4144 -0.5214  0.6118
  137SOL    HW1  410   2.579   1.188   1.412  0.1971  2.4546 -2.3432
  137SOL    HW2  411   2.667   1.326   1.458 -1.2160  2.1346 -0.6849
  138SOL     OW  412   1.869   1.028   1.602 -0.7369 -0.6367  0.0362
  138SOL    HW1  413   1.902   0.934   1.584 -3.2678 -1.3054 -3.2603
  138SOL    HW2  414   1.873   1.082   1.516  0.2390  0.1048 -0.8286
  139SOL     OW  415   1.992   3.081   0.012  0.3075 -0.5905  0.0924
  139SOL    HW1  416   2.049   3.018   0.065 -0.1900  0.1319 -0.7887
  139SOL    HW2  417   1.975   0.080   0.051 -0.2410 -0.8088 -2.5056
  140SOL     OW  418   1.394   2.014   1.819  0.2534 -0.0766 -0.8814
  140SOL    HW1  419   1.314   2.033   1.880  1.5011  2.4196 -1.9663
  140SOL    HW2  420   1.409   1.914   1.814 -1.0031  3.4614 -0.5728
  141SOL     OW  421   1.760   2.059   0.726 -0.1700 -0.2092 -0.1205
  141SOL    HW1  422   1.816   1.975   0.747  1.0549  0.4527 -2.5642
  141SOL    HW2  423   1.802   2.125   0.660 -1.6526 -0.6246  1.2953
  142SOL     OW  424   0.400   0.912   0.073 -0.2374  0.3935  0.0305
  142SOL    HW1  425   0.481   0.865   0.026  3.0432 -1.7103  0.1384
  142SOL    HW2  426   0.316   0.874   0.041  2.2510 -0.3633  0.8184
  143SOL     OW  427   0.178   2.162   2.808 -0.3977  0.2629  0.2443
  143SOL    HW1  428   0.091   2.210   2.791 -0.6499  0.4583  0.2388
  143SOL    HW2  429   0.163   2.074   2.851  0.4007  2.1850 -0.6930
  144SOL     OW  430   1.293   3.076   1.434 -0.4816  0.1910  0.2728
  144SOL    HW1  431   1.231   0.043   1.485 -1.2360 -0.5954 -1.7435
  144SOL    HW2  432   1.325   0.025   1.348 -1.3965 -0.8048  0.0189
  145SOL     OW  433   2.355   1.254   0.604 -0.2525  0.0611  0.2345
  145SOL    HW1  434   2.409   1.300   0.527  2.3092  1.7295 -0.0666
  145SOL    HW2  435   2.359   1.306   0.687 -0.0269 -0.9448 -0.8486
  146SOL     OW  436   2.447   2.288   0.067 -0.5419 -0.2247  0.2332
  146SOL    HW1  437   2.531   2.306   0.007  1.7433 -1.2270 -1.3813
  146SOL    HW2  438   2.374   2.351   0.051  2.3411 -1.7700  0.6450
  147SOL     OW  439   2.086   3.028   1.363 -0.3905 -0.2829  0.2403
  147SOL    HW1  440   2.108   3.069   1.272 -0.6964 -0.2646  1.2731
  147SOL    HW2  441   2.008   2.962   1.361 -2.8122 -0.3067 -1.4095
  148SOL     OW  442   1.353   2.865   2.211  0.7201 -0.3036 -0.7844
  148SOL    HW1  443   1.265   2.818   2.213 -1.8097  0.2545  0.8546
  148SOL    HW2  444   1.345   2.966   2.209  0.9850  0.9849  0.6227
  149SOL     OW  445   1.477   0.341   2.350  0.2284 -0.8737  0.3772
  149SOL    HW1  446   1.562   0.291   2.352 -3.3890  1.5510 -3.1266
  149SOL    HW2  447   1.421   0.321   2.430 -0.5092 -0.2651  0.0524
  150SOL     OW  448   0.661   2.602   0.537 -0.0108 -0.8041  0.0652
  150SOL    HW1  449   0.585   2.668   0.544  0.3483  2.5323  0.5078
  150SOL    HW2  450   0.692   2.612   0.441 -0.7871 -0.5739  0.8314
  151SOL     OW  451   0.148   1.530   0.245  0.4664  0.3096  0.0084
  151SOL    HW1  452   0.063   1.587   0.253  0.7213 -0.0947  2.2431
  151SOL    HW2  453   0.192   1.539   0.152  0.9145  2.3050  0.3122
  152SOL     OW  454   2.942   0.058   0.572  0.3560 -0.1683 -0.1811
  152SOL    HW1  455   2.981   0.143   0.617  0.0900 -0.5191 -0.1071
  152SOL    HW2  456   2.997   0.037   0.491 -1.3314 -2.4172  0.3266
  153SOL     OW  457   2.291   3.058   0.807 -0.2740  0.1479  0.2988
  153SOL    HW1  458   2.190   3.052   0.815  1.2592  0.9605  1.9903
  153SOL    HW2  459   2.324   2.996   0.731 -0.3597 -1.8838  1.0099
  154SOL     OW  460   1.142   0.417   1.647  0.0839  0.3877 -0.1077
  154SOL    HW1  461   1.139   0.430   1.751  0.4039 -1.5823  3.3626
  154SOL    HW2  462   1.224   0.466   1.606 -0.4174  1.1641 -0.3200
  155SOL     OW  463   2.687   1.232   1.012 -0.1179  0.1109 -0.4030
  155SOL    HW1  464   2.787   1.230   0.996  1.3025 -3.3285 -0.3194
  155SOL    HW2  465   2.656   1.305   1.065  1.3907 -0.2010  0.5790
  156SOL     OW  466   2.584   2.017   3.057  0.2224 -0.1324 -0.1639
  156SOL    HW1  467   2.505   1.957   3.024 -2.0266 -1.0772 -1.1634
  156SOL    HW2  468   2.546   2.105   3.094 -1.4138  2.2421  1.7945
  157SOL     OW  469   1.252   0.092   0.253 -0.2623  0.0869 -0.2076
  157SOL    HW1  470   1.247   3.093   0.212 -0.5386  0.9905 -0.4977
  157SOL    HW2  471   1.318   0.091   0.329  0.3035 -2.3363  1.9356
  158SOL     OW  472   2.363   0.396   2.500 -0.1365  0.0351  0.2721
  158SOL    HW1  473   2.452   0.445   2.489  2.6718  0.3249  1.8081
  158SOL    HW2  474   2.373   0.297   2.471  0.8503  0.9650 -1.2935
  159SOL     OW  475   0.445   2.981   0.281 -0.3142  0.0360 -0.2778
  159SOL    HW1  476   0.506   2.899   0.264 -1.0559 -0.6463 -1.4135
  159SOL    HW2  477   0.348   2.952   0.262  2.1972 -0.3510 -0.4399
  160SOL     OW  478   1.076   1.973   0.021  0.5267 -0.0406 -0.1240
  160SOL    HW1  479   1.002   2.046   0.034 -0.8538  2.1549  0.3900
  160SOL    HW2  480   1.055   1.913   3.035  0.9928  2.1303 -2.1022
  161SOL     OW  481   2.785   1.896   2.426 -0.3625 -0.3902  0.0962
  161SOL    HW1  482   2.776   1.802   2.463 -0.7686 -0.1548  1.2249
  161SOL    HW2  483   2.703   1.947   2.451  3.9536  1.3031  2.6813
  162SOL     OW  484   0.134   2.485   1.288 -0.1030  0.2210  0.7624
  162SOL    HW1  485   0.183   2.534   1.361 -1.0257 -1.4933 -0.7015
  162SOL    HW2  486   0.086   2.551   1.224  1.2907  1.3166  2.8460
  163SOL     OW  487   2.324   0.378   2.780  0.1830  1.1122  0.3117
  163SOL    HW1  488   2.233   0.369   2.824  0.2129  1.7275 -0.3408
  163SOL    HW2  489   2.315   0.380   2.676  0.3339 -1.0571 -3.9755
  164SOL     OW  490   2.871   1.683   0.730  0.2212  0.2322  0.0416
  164SOL    HW1  491   2.783   1.645   0.697 -0.8497 -1.2486 -0.9862
  164SOL    HW2  492   2.945   1.650   0.661 -0.5199  0.7689  0.8561
  165SOL     OW  493   2.882   0.031   1.872 -0.4943  0.2661 -0.8875
  165SOL    HW1  494   2.951   3.054   1.838  2.8478  0.2431  0.6220
  165SOL    HW2  495   2.926   0.082   1.951 -0.4536  3.1739 -1.7314
  166SOL     OW  496   2.182   0.838   0.747 -0.3411  0.4206 -0.1248
  166SOL    HW1  497   2.109   0.877   0.804  0.5653 -2.5910  0.5401
  166SOL    HW2  498   2.148   0.747   0.708 -1.1362  0.2760 -1.5841
  167SOL     OW  499   0.390   0.297   0.357 -0.1613  0.5215 -0.0016
  167SOL    HW1  500   0.356   0.393   0.350  0.9215  0.8336  2.8577
  167SOL    HW2  501   0.423   0.274   0.453  1.0828  1.7406  3.0912
  168SOL     OW  502   1.988   2.865   2.296  0.9261  0.0763  0.6180
  168SOL    HW1  503   1.929   2.800   2.348 -0.6239  0.4591 -1.5676
  168SOL    HW2  504   1.953   2.963   2.294 -0.0254  0.4861 -0.1412
  169SOL     OW  505   1.047   0.904   0.755 -0.4990 -0.4556 -0.6468
  169SOL    HW1  506   1.003   0.917   0.662  2.6764 -1.4676  0.4684
  169SOL    HW2  507   1.022   0.984   0.821  2.0393 -1.7611  2.3610
  170SOL     OW  508   0.059   0.418   1.246 -0.0048  0.0539 -0.0846
  170SOL    HW1  509   0.139   0.468   1.279 -3.2188 -2.8456 -0.2374
  170SOL    HW2  510   3.070   0.453   1.284  4.1069 -0.4061  1.5679
  171SOL     OW  511   1.026   2.803   1.775 -0.2065 -0.5943  0.3081
  171SOL    HW1  512   1.042   2.775   1.678  1.2645 -0.3719 -1.1428
  171SOL    HW2  513   1.022   2.904   1.785 -1.2739 -1.4227 -0.0347
  172SOL     OW  514   0.361   2.256   1.609  0.3805 -0.6787  0.2613
  172SOL    HW1  515   0.306   2.221   1.535  3.3080 -0.2813  0.8781
  172SOL    HW2  516   0.459   2.266   1.582  1.4256  0.8970  1.5219
  173SOL     OW  517   1.304   0.822   2.756  0.3275 -0.1090 -0.2054
  173SOL    HW1  518   1.301   0.810   2.656 -1.7491  1.7400  0.4284
  173SOL    HW2  519   1.390   0.774   2.788  2.0138  2.9781 -1.2283
  174SOL     OW  520   1.957   3.067   2.683 -0.2723  0.3316 -0.2189
  174SOL    HW1  521   1.861   3.075   2.658 -0.9607 -0.2243 -1.6296
  174SOL    HW2  522   2.011   0.055   2.667  1.3117 -0.5284 -0.6143
  175SOL     OW  523   1.787   2.769   0.124  0.1371  0.4800 -0.5250
  175SOL    HW1  524   1.802   2.673   0.156  1.5296  1.6471 -0.3000
  175SOL    HW2  525   1.690   2.784   0.124  1.3556 -2.2509 -0.7879
  176SOL     OW  526   1.742   0.274   2.769  0.0959  0.2142  0.3320
  176SOL    HW1  527   1.830   0.304   2.802 -1.3435 -0.0496 -0.9222
  176SOL    HW2  528   1.712   0.346   2.703  1.2156  1.2433 -1.6363
  177SOL     OW  529   1.057   1.552   0.503  0.1831 -0.0981 -0.2181
  177SOL    HW1  530   1.133   1.533   0.569 -1.0522 -1.1062  0.5992
  177SOL    HW2  531   0.998   1.624   0.542  2.9678 -2.0545  0.0276
  178SOL     OW  532   2.898   2.334   2.413  0.0761 -0.2595 -0.2377
  178SOL    HW1  533   2.907   2.405   2.337  0.5085 -0.9272 -0.7970
  178SOL    HW2  534   2.982   2.275   2.414  1.1782  2.0855 -0.1988
  179SOL     OW  535   0.439   2.525   2.457  0.1163 -0.1785 -0.1140
  179SOL    HW1  536   0.489   2.592   2.399  0.5679  2.9190 -2.6770
  179SOL    HW2  537   0.474   2.503   2.552  0.6446  0.7525 -2.3278
  180SOL     OW  538   1.680   1.829   0.985 -0.2031 -0.1946 -0.4219
  180SOL    HW1  539   1.684   1.804   1.086  2.6483 -1.2876  4.0580
  180SOL    HW2  540   1.614   1.900   0.963  2.3034 -4.8353 -0.5614
  181SOL     OW  541   1.895   1.130   2.370 -0.1685  0.3648  0.5290
  181SOL    HW1  542   1.941   1.194   2.306 -0.7414  0.8664 -2.6782
  181SOL    HW2  543   1.920   1.135   2.468  1.1206  0.8663  0.0305
  182SOL     OW  544   2.747   2.792   2.352  0.1183  0.4379 -0.1422
  182SOL    HW1  545   2.723   2.741   2.265  1.2231  1.9060  0.6765
  182SOL    HW2  546   2.843   2.829   2.351  1.8508  0.3798 -1.0128
  183SOL     OW  547   1.487   0.651   2.318 -0.5930  0.1350 -0.4266
  183SOL    HW1  548   1.498   0.553   2.335 -1.0793 -1.0927 -1.0806
  183SOL    HW2  549   1.575   0.702   2.315  1.7069  0.2735  0.5570
  184SOL     OW  550   0.753   0.663   1.638  0.3895 -0.6505  0.1172
  184SOL    HW1  551   0.717   0.649   1.731  0.6616  0.1814 -0.1861
  184SOL    HW2  552   0.824   0.735   1.632 -1.4660 -1.7329 -1.0020
  185SOL     OW  553   1.954   1.158   0.723  0.1776 -0.1144  1.0921
  185SOL    HW1  554   1.863   1.187   0.693  1.0771 -0.8490 -2.3922
  185SOL    HW2  555   2.015   1.124   0.647  0.6492  0.8631 -2.2545
  186SOL     OW  556   0.106   1.906   2.924  0.4212  0.2736 -0.1836
  186SOL    HW1  557   0.203   1.889   2.928 -3.0110 -1.4641 -0.4655
  186SOL    HW2  558   0.070   1.874   2.832  1.3980  0.9031 -0.0712
  187SOL     OW  559   2.450   1.385   0.402 -0.6779  0.4179  0.8714
  187SOL    HW1  560   2.477   1.482   0.380 -0.2075  3.0772  0.7190
  187SOL    HW2  561   2.533   1.325   0.386  1.0591 -0.6129  1.9301
  188SOL     OW  562   0.387   1.675   0.962 -0.3017 -0.0335 -0.1873
  188SOL    HW1  563   0.446   1.590   0.943 -2.5691 -0.4007 -2.1411
  188SOL    HW2  564   0.359   1.705   0.870 -0.9384 -0.6573 -1.4685
  189SOL     OW  565   2.473   0.543   0.095 -0.0766 -0.4053 -0.2752
  189SOL    HW1  566   2.393   0.499   0.141  1.4921 -1.8713 -1.1058
  189SOL    HW2  567   2.543   0.473   0.073 -1.1834 -0.7293  0.7077
  190SOL     OW  568   1.196   1.517   2.104  0.4968 -0.5630 -0.1908
  190SOL    HW1  569   1.218   1.606   2.145 -1.6100  2.2363  1.0961
  190SOL    HW2  570   1.123   1.461   2.154 -0.4958 -0.1174  0.0940
  191SOL     OW  571   2.925   0.124   1.440  0.1398  0.1535  0.8245
  191SOL    HW1  572   2.831   0.167   1.441  2.1789 -0.2336 -0.0806
  191SOL    HW2  573   2.988   0.151   1.513  1.1592 -1.7245 -1.4570
  192SOL     OW  574   2.024   1.534   1.501  0.2308  0.0674 -0.7612
  192SOL    HW1  575   2.061   1.491   1.414 -0.1125 -0.1222 -3.8931
  192SOL    HW2  576   1.924   1.546   1.489  2.1867  1.2611  0.3542
  193SOL     OW  577   1.144   0.632   0.586 -0.4466 -0.3409  0.0622
  193SOL    HW1  578   1.050   0.674   0.564  0.7315  0.9323  2.9246
  193SOL    HW2  579   1.161   0.632   0.685 -0.0806  1.1871 -1.7287
  194SOL     OW  580   1.069   2.774   1.145  0.0560  0.1799  0.0606
  194SOL    HW1  581   1.075   2.843   1.070  1.2808  1.4166 -2.0004
  194SOL    HW2  582   0.976   2.766   1.181 -1.6312  1.7153 -2.4632
  195SOL     OW  583   2.289   0.381   0.207 -0.4520 -1.2134  0.0839
  195SOL    HW1  584   2.312   0.284   0.188  0.3237 -2.8625 -2.3605
  195SOL    HW2  585   2.302   0.396   0.309  0.4028  0.6155  0.5875
  196SOL     OW  586   0.606   2.287   1.493  0.2004 -0.5909 -0.1575
  196SOL    HW1  587   0.639   2.199   1.529 -1.8000 -1.2033  0.1106
  196SOL    HW2  588   0.684   2.346   1.482 -1.1840 -2.1859  0.9298
  197SOL     OW  589   0.512   2.374   0.634  0.4219 -0.4020  0.4995
  197SOL    HW1  590   0.563   2.422   0.561 -1.2117  0.1269 -0.1335
  197SOL    HW2  591   0.412   2.391   0.619  2.4354 -0.8441 -2.2289
  198SOL     OW  592   0.767   0.938   0.647  0.1347 -0.1356  0.2724
  198SOL    HW1  593   0.726   0.927   0.738 -1.0158 -0.0356 -0.7664
  198SOL    HW2  594   0.811   1.030   0.646 -0.3195  0.6297  0.5569
  199SOL     OW  595   0.028   3.061   1.305  0.4728 -0.0544 -0.1478
  199SOL    HW1  596   3.048   0.011   1.362 -0.2664  1.2860  0.8444
  199SOL    HW2  597   0.025   2.964   1.316 -0.5349  3.6454  0.2432
  200SOL     OW  598   2.283   1.698   2.767 -0.8297  0.0986  0.3871
  200SOL    HW1  599   2.357   1.627   2.751  4.2941 -1.7952  1.0818
  200SOL    HW2  600   2.253   1.728   2.673  1.6269  1.9094  0.8372
  201SOL     OW  601   2.792   2.290   1.408 -0.2514  0.3166 -0.5900
  201SOL    HW1  602   2.854   2.322   1.480 -1.5408 -2.1796  0.3128
  201SOL    HW2  603   2.741   2.205   1.430  3.9896 -0.1099  0.2216
  202SOL     OW  604   2.733   0.376   0.270  0.4251  0.2977 -0.3556
  202SOL    HW1  605   2.710   0.375   0.170  0.4344 -3.7022  0.2607
  202SOL    HW2  606   2.790   0.291   0.285  0.6977  0.3949  0.6258
  203SOL     OW  607   1.185   2.144   2.246  0.9519 -0.4401  0.2961
  203SOL    HW1  608   1.087   2.171   2.266  0.1023 -2.0029  0.5091
  203SOL    HW2  609   1.241   2.127   2.330  0.3697  1.3868 -0.1731
  204SOL     OW  610   1.109   1.675   1.585  0.1953  0.5467  0.5640
  204SOL    HW1  611   1.011   1.655   1.564  3.2515 -1.4576 -0.1877
  204SOL    HW2  612   1.114   1.698   1.683 -0.3427  1.2665 -1.0209
  205SOL     OW  613   0.959   2.081   1.806 -0.0458  0.2843  0.3368
  205SOL    HW1  614   1.033   2.081   1.733  1.3262 -0.6890 -1.1492
  205SOL    HW2  615   0.906   1.988   1.815 -4.3094 -1.6063 -1.9006
  206SOL     OW  616   0.224   0.527   2.694 -0.2905  1.0339 -0.0697
  206SOL    HW1  617   0.292   0.601   2.670 -1.3832  0.3243 -1.4879
  206SOL    HW2  618   0.145   0.566   2.742  1.4712 -3.4489  2.0753
  207SOL     OW  619   1.668   2.874   2.037 -0.3383  0.2235  0.0319
  207SOL    HW1  620   1.603   2.858   1.955 -2.0061 -1.4590 -3.9551
  207SOL    HW2  621   1.606   2.880   2.117 -0.3297  0.5097 -2.1945
  208SOL     OW  622   0.790   2.482   2.014 -0.1318  0.7916  0.9268
  208SOL    HW1  623   0.721   2.466   2.080  2.0412 -1.9373 -1.3198
  208SOL    HW2  624   0.788   2.575   1.980 -0.4499  0.2582  1.3520
  209SOL     OW  625   1.753   0.938   2.965  0.0430 -0.0961  0.6700
  209SOL    HW1  626   1.751   0.864   3.036 -2.1395  1.5100  0.7121
  209SOL    HW2  627   1.702   1.019   2.995 -2.1495 -0.0613 -0.9907
  210SOL     OW  628   3.080   0.433   0.963  0.3036 -0.0107 -0.1506
  210SOL    HW1  629   3.006   0.387   0.907  1.4574 -1.9461  0.2657
  210SOL    HW2  630   3.082   0.396   1.061  0.6332 -1.7236  2.0351
  211SOL     OW  631   0.793   0.822   1.340 -0.1282 -0.6124 -0.0660
  211SOL    HW1  632   0.767   0.721   1.351 -0.0625 -2.2955  1.1320
  211SOL    HW2  633   0.888   0.837   1.373 -0.4624 -0.2156  0.0241
  212SOL     OW  634   1.117   2.250   1.012  0.3958 -0.4289  0.4219
  212SOL    HW1  635   1.096   2.154   1.044 -0.3226  1.3002  2.2275
  212SOL    HW2  636   1.034   2.290   0.966 -1.9751 -0.7697  1.6392
  213SOL     OW  637   2.061   0.194   1.731 -0.0196 -0.2354 -0.1086
  213SOL    HW1  638   1.964   0.214   1.753  1.9786 -3.7754  1.2866
  213SOL    HW2  639   2.095   0.112   1.779 -1.6656  3.1123  0.9883
  214SOL     OW  640   1.545   2.330   2.522  0.1350 -0.1349  0.0583
  214SOL    HW1  641   1.502   2.252   2.472 -0.2022 -0.8672 -0.4764
  214SOL    HW2  642   1.613   2.291   2.587  0.6542 -2.5298 -1.4836
  215SOL     OW  643   3.002   1.759   1.469 -0.0388 -0.2094  0.5692
  215SOL    HW1  644   3.004   1.864   1.483 -1.1584  0.7118  3.6171
  215SOL    HW2  645   2.946   1.717   1.541 -1.6092  0.8566 -4.3059
  216SOL     OW  646   0.603   0.191   2.111  0.7690 -0.4453  0.4248
  216SOL    HW1  647   0.600   0.152   2.013  0.5508 -0.2269 -2.6433
  216SOL    HW2  648   0.535   0.138   2.165  0.0428  0.4770 -3.6097
  217SOL     OW  649   2.766   0.167   2.900  0.4901 -0.8044 -0.2291
  217SOL    HW1  650   2.800   0.245   2.844  1.0236 -1.1370 -1.5186
  217SOL    HW2  651   2.840   0.094   2.895  1.1154 -0.2419 -2.7163
  218SOL     OW  652   1.561   1.960   2.229 -0.8476  0.1905 -0.0486
  218SOL    HW1  653   1.635   1.909   2.285  2.4899  0.8670  0.7408
  218SOL    HW2  654   1.553   1.909   2.142 -0.1064 -0.1910  0.3098
  219SOL     OW  655   1.750   0.967   0.301  0.9630  0.2446  0.2590
  219SOL    HW1  656   1.712   1.047   0.249 -0.5659 -1.0003  2.5782
  219SOL    HW2  657   1.679   0.922   0.357  0.1547  1.5142 -0.2494
  220SOL     OW  658   1.388   2.257   0.996  0.1544  0.1528  0.0426
  220SOL    HW1  659   1.288   2.248   1.016  0.0706 -0.9342 -1.4394
  220SOL    HW2  660   1.396   2.269   0.893 -0.0127 -0.8753 -0.6647
  221SOL     OW  661   0.202   0.746   3.091  0.5320 -0.1996 -0.3164
  221SOL    HW1  662   0.136   0.676   0.032  0.4976 -1.5572  0.5138
  221SOL    HW2  663   0.153   0.796   3.017  1.3509 -0.2986 -0.6838
  222SOL     OW  664   1.138   2.673   1.554 -0.6634 -0.3782  0.1314
  222SOL    HW1  665   1.174   2.591   1.601 -0.2484  0.8246 -2.0910
  222SOL    HW2  666   1.200   2.709   1.485 -0.5063 -2.2618  1.2208
  223SOL     OW  667   1.469   0.490   2.602 -0.0309 -0.5967 -0.0846
  223SOL    HW1  668   1.569   0.470   2.587 -2.1212 -2.7328  2.2428
  223SOL    HW2  669   1.462   0.561   2.679 -0.7647  0.8774  2.0471
  224SOL     OW  670   2.866   0.842   1.080  0.4641 -0.0214  0.6889
  224SOL    HW1  671   2.950   0.788   1.072 -2.5689 -2.1991 -2.0999
  224SOL    HW2  672   2.868   0.909   1.004  2.4948 -1.4625  3.2963
  225SOL     OW  673   0.908   1.257   1.605  0.4918 -0.1569 -0.4556
  225SOL    HW1  674   0.968   1.212   1.540 -1.3043 -0.0867  2.0910
  225SOL    HW2  675   0.809   1.223   1.611 -3.1451 -1.9084 -0.6491
  226SOL     OW  676   1.538   2.897   0.102  0.4477 -0.3085 -0.4071
  226SOL    HW1  677   1.542   2.962   0.027  0.3376  0.1271  0.3820
  226SOL    HW2  678   1.528   2.951   0.191  2.0976  1.8979  3.3494
  227SOL     OW  679   0.549   1.432   1.241 -0.3223  0.1124  0.2432
  227SOL    HW1  680   0.454   1.448   1.204  3.5579  1.4099 -0.6955
  227SOL    HW2  681   0.602   1.518   1.243  0.2676 -0.3499 -1.5744
  228SOL     OW  682   0.268   2.629   1.484  0.0602 -0.6339  0.1114
  228SOL    HW1  683   0.344   2.699   1.473 -1.5373  1.7758  0.0909
  228SOL    HW2  684   0.263   2.586   1.576 -0.3891 -2.0573 -0.3069
  229SOL     OW  685   2.268   1.180   0.122  0.1198  0.1531 -0.3686
  229SOL    HW1  686   2.185   1.115   0.117 -0.3274 -0.3718 -2.8448
  229SOL    HW2  687   2.354   1.134   0.161  1.3368 -2.0986  1.1682
  230SOL     OW  688   0.813   1.189   2.000  0.2206  0.3525 -0.1388
  230SOL    HW1  689   0.798   1.119   1.926 -0.3159 -3.1345 -2.1645
  230SOL    HW2  690   0.891   1.162   2.062  0.0491  0.3571 -0.2769
  231SOL     OW  691   1.382   2.086   1.553 -0.2000  0.6403 -0.0140
  231SOL    HW1  692   1.431   2.173   1.525  0.1925  1.4816  2.6351
  231SOL    HW2  693   1.406   2.052   1.647 -0.1444 -0.0687  0.0411
  232SOL     OW  694   1.992   2.449   0.591  0.6999  0.6355 -0.2044
  232SOL    HW1  695   1.935   2.526   0.608 -1.7825 -2.5208  0.1130
  232SOL    HW2  696   2.055   2.468   0.516  0.8067  2.0508  1.1647
  233SOL     OW  697   0.892   2.449   3.083 -0.6415 -0.0900 -0.0385
  233SOL    HW1  698   0.938   2.527   0.034  0.7824  0.8714 -2.6785
  233SOL    HW2  699   0.911   2.464   2.982 -0.4137  1.2505 -1.7274
  234SOL     OW  700   1.224   0.247   2.472 -0.6146 -0.2483  0.0760
  234SOL    HW1  701   1.248   0.325   2.533 -0.7528  0.7645 -0.7619
  234SOL    HW2  702   1.150   0.183   2.503  1.7873 -0.9344  1.7015
  235SOL     OW  703   2.840   2.233   0.112  0.1516 -0.6589 -0.0345
  235SOL    HW1  704   2.905   2.297   0.152 -0.0963 -0.3321  0.1001
  235SOL    HW2  705   2.872   2.136   0.115 -0.3090 -1.5077  0.9568
  236SOL     OW  706   1.979   2.383   2.455 -0.0354 -0.1277 -0.5737
  236SOL    HW1  707   1.938   2.387   2.549 -3.9461  0.3002  4.6179
  236SOL    HW2  708   2.059   2.319   2.456  0.1367 -0.6472 -1.4113
  237SOL     OW  709   2.137   1.402   1.290  0.8570 -0.4193  0.0007
  237SOL    HW1  710   2.222   1.451   1.321 -1.7397  3.6637 -2.7226
  237SOL    HW2  711   2.159   1.318   1.244  2.9213  3.2117 -0.9578
  238SOL     OW  712   2.141   0.143   2.247 -0.1518  0.2798 -0.7474
  238SOL    HW1  713   2.134   0.236   2.206 -2.1094  2.9701 -0.4395
  238SOL    HW2  714   2.044   0.104   2.250  0.0185 -0.1398  1.4662
  239SOL     OW  715   0.475   1.659   1.693 -0.0886 -0.3071 -0.2005
  239SOL    HW1  716   0.412   1.597   1.745 -0.9916  0.8344 -0.5533
  239SOL    HW2  717   0.576   1.645   1.721  1.7871 -0.7471 -0.4232
  240SOL     OW  718   3.051   2.131   0.639  0.0521  0.2153  0.0901
  240SOL    HW1  719   3.022   2.201   0.712  0.7878  2.3757 -0.8518
  240SOL    HW2  720   0.054   2.112   0.661  1.9287 -0.5420 -1.5014
  241SOL     OW  721   1.253   2.142   0.458  0.4056  0.5875  0.0588
  241SOL    HW1  722   1.267   2.079   0.535 -1.0809 -2.7256 -0.2420
  241SOL    HW2  723   1.327   2.143   0.394 -2.5975  2.8038  3.8825
  242SOL     OW  724   1.539   1.244   0.438  0.3670 -0.2743 -0.3775
  242SOL    HW1  725   1.586   1.232   0.346 -0.4829 -4.1327 -1.2504
  242SOL    HW2  726   1.464   1.177   0.435  1.5080  1.4149 -0.3879
  243SOL     OW  727   0.869   0.072   2.081  0.6240  0.5099 -0.4941
  243SOL    HW1  728   0.966   0.058   2.087  0.4825 -2.2583 -1.1713
  243SOL    HW2  729   0.851   0.172   2.072 -0.7698  5.7035  0.0027
  244SOL     OW  730   1.884   2.923   2.883 -0.3347 -0.2837 -0.0564
  244SOL    HW1  731   1.906   2.974   2.799  0.4070 -0.3645  4.7703
  244SOL    HW2  732   1.918   2.968   2.970  1.1936  0.3169  2.7104
  245SOL     OW  733   1.504   3.046   2.924  0.2105 -0.1493 -0.4464
  245SOL    HW1  734   1.582   0.019   2.923 -0.9137 -0.5170  0.3367
  245SOL    HW2  735   1.525   2.962   2.863 -0.0959  0.0084 -1.6900
  246SOL     OW  736   1.037   0.766   2.427 -0.1283  0.7316 -0.0786
  246SOL    HW1  737   1.053   0.665   2.430  1.7156  1.3210  2.0041
  246SOL    HW2  738   0.954   0.796   2.482 -3.6059 -1.4849  1.1405
  247SOL     OW  739   0.244   0.384   1.855 -0.1051  0.1218 -0.2362
  247SOL    HW1  740   0.325   0.433   1.895 -0.8884 -0.4005 -1.6122
  247SOL    HW2  741   0.168   0.451   1.855  2.2637  0.7023 -0.6058
  248SOL     OW  742   0.804   0.871   2.045  0.0592  0.3358 -0.1121
  248SOL    HW1  743   0.896   0.835   2.083 -1.4596 -1.0763  1.5606
  248SOL    HW2  744   0.803   0.939   1.968  0.7551  1.9159 -3.2051
  249SOL     OW  745   2.069   0.685   0.120 -0.4569  0.1121 -0.2269
  249SOL    HW1  746   2.043   0.586   0.114 -0.1938  0.3964  1.2927
  249SOL    HW2  747   2.120   0.717   0.203  1.6112  0.1345 -0.0593
  250SOL     OW  748   0.618   0.173   0.554 -0.3962 -0.0149  0.1632
  250SOL    HW1  749   0.683   0.114   0.605  0.0726  2.3645 -1.1429
  250SOL    HW2  750   0.583   0.252   0.605 -1.5175 -0.6811  0.8393
  251SOL     OW  751   1.039   0.424   2.323 -0.0050  0.1451  0.1321
  251SOL    HW1  752   1.094   0.359   2.374 -1.2342  2.7561 -0.8681
  251SOL    HW2  753   1.095   0.426   2.236  0.8777  1.0645  1.0387
  252SOL     OW  754   1.428   1.695   1.801  0.3423  0.4273  0.1499
  252SOL    HW1  755   1.500   1.694   1.729 -1.9330  0.7802  1.0111
  252SOL    HW2  756   1.416   1.597   1.835 -1.0241 -1.5990  0.4982
  253SOL     OW  757   1.769   2.619   2.078  0.1125 -0.9422 -0.0204
  253SOL    HW1  758   1.743   2.718   2.058  0.2944 -0.0523 -1.3265
  253SOL    HW2  759   1.688   2.568   2.108  1.0298 -0.0625 -0.1943
  254SOL     OW  760   0.753   2.050   2.169  0.1766 -0.3855 -0.0424
  254SOL    HW1  761   0.848   2.082   2.184  0.0383  0.5639  0.1077
  254SOL    HW2  762   0.739   1.956   2.205  0.9055  0.4367 -0.3071
  255SOL     OW  763   1.334   0.478   0.462  0.2615 -0.0038  0.1218
  255SOL    HW1  764   1.265   0.528   0.513 -1.0004 -0.1538  2.0117
  255SOL    HW2  765   1.321   0.492   0.361 -0.2689 -1.8460  0.7061
  256SOL     OW  766   1.761   1.942   1.691 -0.3672 -0.1004 -0.5214
  256SOL    HW1  767   1.828   1.919   1.617  2.4159  0.1463 -0.6388
  256SOL    HW2  768   1.714   2.028   1.669  0.4954 -0.7218  1.8214
  257SOL     OW  769   0.233   2.267   2.529 -0.4067 -0.0087 -0.1038
  257SOL    HW1  770   0.285   2.352   2.520 -0.6013 -3.2797 -3.2917
  257SOL    HW2  771   0.217   2.241   2.626  1.5267  1.3718 -2.4571
  258SOL     OW  772   0.794   0.350   2.146  0.3299 -0.5973 -0.1288
  258SOL    HW1  773   0.832   0.363   2.244  1.9356 -0.0058 -1.2039
  258SOL    HW2  774   0.727   0.275   2.140  0.8862  1.1698  0.5068
  259SOL     OW  775   1.266   0.907   2.318  0.2994  0.6290  0.6241
  259SOL    HW1  776   1.191   0.844   2.358 -2.2663 -4.1395  3.1147
  259SOL    HW2  777   1.325   0.851   2.256 -0.6746 -2.8130 -0.0821
  260SOL     OW  778   1.653   0.828   0.691  0.1699 -0.0221 -0.2787
  260SOL    HW1  779   1.591   0.768   0.749 -1.5442 -2.3275  0.7233
  260SOL    HW2  780   1.743   0.785   0.675 -1.4603  1.0215 -1.6703
  261SOL     OW  781   0.559   3.071   2.868 -0.0722 -0.2141 -0.4832
  261SOL    HW1  782   0.589   2.989   2.921 -1.1502 -1.7559 -2.0547
  261SOL    HW2  783   0.497   3.045   2.788 -0.0528  1.5495 -1.0427
  262SOL     OW  784   2.530   2.975   2.777  0.3793 -0.1378 -0.2132
  262SOL    HW1  785   2.625   2.943   2.793 -0.9937 -2.5714  2.1189
  262SOL    HW2  786   2.513   3.069   2.800  0.9880 -1.2004 -2.4290
  263SOL     OW  787   0.086   2.088   0.242  0.2623  0.3019 -0.2046
  263SOL    HW1  788   3.088   2.111   0.285 -0.1488  0.5568  0.6820
  263SOL    HW2  789   0.124   2.177   0.200 -2.8872 -2.0584 -1.5952
  264SOL     OW  790   0.625   1.128   1.566  0.8960  0.0893 -0.5467
  264SOL    HW1  791   0.546   1.073   1.534  1.2421 -0.2396  1.3955
  264SOL    HW2  792   0.596   1.212   1.611 -0.0488  0.7289 -0.3886
  265SOL     OW  793   0.453   1.212   0.417  0.7157  0.2534  0.3324
  265SOL    HW1  794   0.355   1.207   0.396  1.1204 -2.3096  0.6317
  265SOL    HW2  795   0.487   1.275   0.349 -1.2505 -2.9419 -0.7734
  266SOL     OW  796   1.871   1.420   0.527  0.3995 -0.2754  0.0339
  266SOL    HW1  797   1.918   1.386   0.440  0.7582 -0.7245 -2.6889
  266SOL    HW2  798   1.809   1.346   0.566 -0.8767 -0.9455  0.3842
  267SOL     OW  799   0.069   0.541   0.082  0.4373 -0.0414  0.3928
  267SOL    HW1  800   0.113   0.447   0.080  1.0209  1.4805 -1.9190
  267SOL    HW2  801   3.069   0.540   0.050 -0.6838  1.6966 -2.0218
  268SOL     OW  802   0.382   2.969   2.668 -0.3543 -0.3472  0.4656
  268SOL    HW1  803   0.295   2.923   2.702  3.0934  1.3888  0.3970
  268SOL    HW2  804   0.360   3.032   2.587 -1.4748 -1.1528 -1.6233
  269SOL     OW  805   2.108   0.207   2.613  0.4579  0.1360 -0.5680
  269SOL    HW1  806   2.116   0.211   2.712  0.1553  1.7535  1.3129
  269SOL    HW2  807   2.195   0.178   2.574 -1.1317 -1.4296 -0.0969
  270SOL     OW  808   0.843   0.863   2.584 -0.3462 -0.2226 -0.2731
  270SOL    HW1  809   0.779   0.921   2.532  1.5687 -0.2105 -0.1313
  270SOL    HW2  810   0.912   0.920   2.632 -0.7886  0.0848 -0.4036
  271SOL     OW  811   2.550   1.066   0.145 -0.0142  0.2428  0.1409
  271SOL    HW1  812   2.511   0.973   0.137  2.2608  3.5010  2.3959
  271SOL    HW2  813   2.638   1.073   0.096 -0.7560 -0.8686  0.2786
  272SOL     OW  814   2.702   1.693   2.584 -0.3878 -0.3847 -0.0683
  272SOL    HW1  815   2.619   1.643   2.549  0.4996  0.2711  0.0412
  272SOL    HW2  816   2.700   1.694   2.683  1.2338  0.4907 -2.6469
  273SOL     OW  817   2.529   0.554   2.905 -0.3190 -0.1034  0.0676
  273SOL    HW1  818   2.460   0.492   2.865 -0.6882  1.1326  1.7816
  273SOL    HW2  819   2.513   0.558   3.005  0.1593 -0.8038  0.0348
  274SOL     OW  820   0.136   2.928   1.020  0.3029 -0.0956  0.5265
  274SOL    HW1  821   0.161   3.026   1.013  0.0708  0.2763 -2.4223
  274SOL    HW2  822   0.135   2.885   0.925 -3.2073 -0.6875 -0.3039
  275SOL     OW  823   1.833   1.561   0.836 -0.5398  0.6027  0.2953
  275SOL    HW1  824   1.751   1.583   0.777 -2.8356  0.7234  0.4805
  275SOL    HW2  825   1.918   1.572   0.786 -2.1433 -0.9516  0.7522
  276SOL     OW  826   0.198   1.304   2.645 -0.1307  0.2843 -0.0493
  276SOL    HW1  827   0.295   1.301   2.612 -2.4014  1.5759 -0.0430
  276SOL    HW2  828   0.143   1.253   2.574 -0.8159 -1.7358 -2.7380
  277SOL     OW  829   1.802   2.678   1.822 -0.1829  0.0504 -0.2237
  277SOL    HW1  830   1.707   2.679   1.792  0.8805 -2.5462  1.8063
  277SOL    HW2  831   1.798   2.668   1.922  1.4498  0.5312  1.6355
  278SOL     OW  832   1.599   0.354   2.023  0.1644 -0.0283 -0.1649
  278SOL    HW1  833   1.517   0.309   1.979 -0.6412 -0.9095 -1.8858
  278SOL    HW2  834   1.591   0.458   2.018 -0.0199  3.4728  0.0777
  279SOL     OW  835   1.993   1.682   0.281  0.4135  0.2347 -0.3922
  279SOL    HW1  836   2.038   1.594   0.305  0.4309  2.4677 -2.2622
  279SOL    HW2  837   1.959   1.718   0.373  2.3712 -3.8361  1.4831
  280SOL     OW  838   0.532   1.456   0.908  0.1839 -0.0517 -0.4858
  280SOL    HW1  839   0.523   1.414   0.816  0.2787  2.0328 -2.2758
  280SOL    HW2  840   0.498   1.399   0.984  2.1042 -1.7819 -2.2843
  281SOL     OW  841   0.243   0.098   2.513  0.0150  0.2890  0.2171
  281SOL    HW1  842   0.295   0.177   2.552 -1.9351 -1.8144 -0.4677
  281SOL    HW2  843   0.144   0.110   2.526  4.8237 -0.4726 -0.4473
  282SOL     OW  844   0.346   0.773   1.081 -0.0374  0.4846  0.6664
  282SOL    HW1  845   0.356   0.718   0.994 -0.4739 -2.2997 -1.1528
  282SOL    HW2  846   0.273   0.741   1.142 -1.4771 -0.5946  0.0814
  283SOL     OW  847   1.775   2.252   0.327  0.3252 -0.2086  0.3572
  283SOL    HW1  848   1.794   2.181   0.256 -0.9085 -0.6009  0.3035
  283SOL    HW2  849   1.683   2.292   0.314  0.2095  2.9990  0.0495
  284SOL     OW  850   1.470   1.653   0.748  0.5411  0.3574  0.4242
  284SOL    HW1  851   1.470   1.755   0.764  4.5537  1.0319  0.9716
  284SOL    HW2  852   1.554   1.616   0.702  0.6849  1.6060 -1.7385
  285SOL     OW  853   2.946   3.090   2.837 -0.5699  0.1101  0.2060
  285SOL    HW1  854   2.976   3.085   2.931  0.0581 -1.1243 -0.2583
  285SOL    HW2  855   2.951   2.999   2.795 -2.7650  1.1644 -0.9525
  286SOL     OW  856   1.507   3.013   1.595 -0.1195  0.2083  0.5243
  286SOL    HW1  857   1.552   2.923   1.580 -0.2132 -0.0816 -0.1408
  286SOL    HW2  858   1.434   3.035   1.521 -0.0832  0.1865 -2.9812
  287SOL     OW  859   0.708   0.989   1.138  0.3320 -0.2552 -0.6858
  287SOL    HW1  860   0.756   0.932   1.204 -2.8296  3.2636 -1.1434
  287SOL    HW2  861   0.677   1.072   1.191 -0.2424  0.4498 -1.9028
  288SOL     OW  862   1.722   0.125   2.989 -0.0991  0.2584 -0.0904
  288SOL    HW1  863   1.711   0.172   2.898  0.8488 -2.7822 -2.4429
  288SOL    HW2  864   1.804   0.152   3.042 -2.4368 -1.6077  0.3813
  289SOL     OW  865   0.202   1.564   2.769  0.3023 -0.2932 -0.4553
  289SOL    HW1  866   0.151   1.631   2.712 -3.6842  3.9845 -2.8033
  289SOL    HW2  867   0.185   1.473   2.727 -0.0947 -0.9819  0.3954
  290SOL     OW  868   1.330   2.560   0.882 -0.5208 -0.4997  0.4821
  290SOL    HW1  869   1.240   2.559   0.936 -0.8693  2.6687  0.2191
  290SOL    HW2  870   1.340   2.469   0.840  1.3839  0.6762 -0.5280
  291SOL     OW  871   2.179   2.005   2.886  0.3576 -0.2908 -0.1612
  291SOL    HW1  872   2.090   1.959   2.902  1.6854  0.8204  2.2174
  291SOL    HW2  873   2.248   1.968   2.946  1.4541 -0.2318 -1.5364
  292SOL     OW  874   1.426   0.828   1.900 -0.3789  0.3333  0.0995
  292SOL    HW1  875   1.356   0.803   1.831  0.0411 -0.6115 -0.5923
  292SOL    HW2  876   1.415   0.924   1.930 -1.5541  0.0668 -2.6750
  293SOL     OW  877   1.944   2.780   0.877  0.0503  0.2848 -0.3946
  293SOL    HW1  878   1.989   2.867   0.855 -2.6422 -0.5192  1.5883
  293SOL    HW2  879   1.997   2.702   0.834  1.1998 -0.8699 -2.1719
  294SOL     OW  880   0.250   0.394   2.364 -0.0907 -0.0521  0.1799
  294SOL    HW1  881   0.314   0.366   2.436 -0.9957  0.1023 -1.3080
  294SOL    HW2  882   0.315   0.429   2.290  1.5357  0.0253 -0.4555
  295SOL     OW  883   1.305   1.805   0.386 -0.1656 -0.2210  0.1700
  295SOL    HW1  884   1.273   1.835   0.477  1.6825  1.4768 -2.0655
  295SOL    HW2  885   1.355   1.721   0.385 -2.2041  2.4894  2.4649
  296SOL     OW  886   2.078   1.878   0.072 -0.2505 -0.2972  0.4574
  296SOL    HW1  887   2.063   1.850   3.069 -1.9249  0.9529 -0.4757
  296SOL    HW2  888   2.037   1.811   0.136 -1.3978 -0.6163  1.3192
  297SOL     OW  889   2.179   0.824   3.008 -0.1080  0.1727  0.1951
  297SOL    HW1  890   2.172   0.770   2.926  0.9791  2.5156  2.5325
  297SOL    HW2  891   2.129   0.773   3.077  0.1939  2.3727 -0.0870
  298SOL     OW  892   0.813   2.518   2.512 -0.2024 -0.1742 -0.0800
  298SOL    HW1  893   0.855   2.548   2.426  3.1997 -1.3019  1.5186
  298SOL    HW2  894   0.788   2.420   2.512  1.5501  0.1428 -0.8217
  299SOL     OW  895   1.151   2.993   2.610  0.1896  0.3890  0.5005
  299SOL    HW1  896   1.246   3.031   2.618 -0.1551  0.2667  0.8288
  299SOL    HW2  897   1.080   3.064   2.597 -0.6159  1.4578  0.5153
  300SOL     OW  898   2.499   0.144   2.889  0.4803 -0.0123  0.1046
  300SOL    HW1  899   2.597   0.169   2.891 -3.6777 -0.5719 -1.0385
  300SOL    HW2  900   2.443   0.218   2.848  0.1639  3.5880 -0.6704
  301SOL     OW  901   1.360   1.477   1.343  0.3300  0.0475 -0.1977
  301SOL    HW1  902   1.335   1.394   1.397 -0.3448  2.6185 -0.2532
  301SOL    HW2  903   1.448   1.461   1.297  1.6987  0.9402 -1.4554
  302SOL     OW  904   2.733   2.302   0.406  0.2659  0.3639  0.2295
  302SOL    HW1  905   2.807   2.250   0.451 -1.4926  0.1540  1.3766
  302SOL    HW2  906   2.743   2.299   0.307 -2.4544 -0.6103  2.1595
  303SOL     OW  907   2.917   2.476   2.173 -0.0107  0.4883  0.6832
  303SOL    HW1  908   2.882   2.555   2.115 -1.0626  0.5277  1.4214
  303SOL    HW2  909   2.909   2.388   2.120 -1.6221  0.8237  0.5700
  304SOL     OW  910   0.031   0.581   1.846 -0.2426 -0.0768 -0.2224
  304SOL    HW1  911   3.093   0.555   1.754 -1.2805  0.6465  3.6579
  304SOL    HW2  912   3.053   0.580   1.913  1.5248 -0.6454 -0.6763
  305SOL     OW  913   0.404   1.912   1.974  0.4411  0.1759  0.3253
  305SOL    HW1  914   0.488   1.857   1.991 -0.0078 -0.7185  1.2909
  305SOL    HW2  915   0.411   2.014   1.960  1.1535  1.0397  2.0031
  306SOL     OW  916   2.749   0.751   1.970 -0.4242  0.3936  0.1476
  306SOL    HW1  917   2.716   0.806   2.050  1.3331  0.2563  0.6517
  306SOL    HW2  918   2.672   0.738   1.904  0.1873  0.0651  1.0270
  307SOL     OW  919   1.786   1.282   1.691  0.1949  0.6946 -0.0844
  307SOL    HW1  920   1.720   1.294   1.612  2.6596 -1.7610  0.8627
  307SOL    HW2  921   1.828   1.189   1.691 -0.7941 -0.8197  1.3718
  308SOL     OW  922   2.660   1.490   1.120  0.2961 -0.3299 -0.3829
  308SOL    HW1  923   2.567   1.512   1.159  1.0554  0.8141  2.2611
  308SOL    HW2  924   2.694   1.572   1.073  0.3470  1.7550  1.0136
  309SOL     OW  925   2.384   1.734   1.539  0.3570 -0.5533  0.6327
  309SOL    HW1  926   2.480   1.767   1.555  1.2958  0.0502 -1.6770
  309SOL    HW2  927   2.378   1.631   1.555  0.0546  0.8231  3.3294
  310SOL     OW  928   2.797   1.403   2.527  0.4875 -0.0015 -0.0840
  310SOL    HW1  929   2.793   1.379   2.428 -0.8087  0.9726 -0.7298
  310SOL    HW2  930   2.736   1.481   2.546  0.7641 -0.9147 -1.8311
  311SOL     OW  931   2.791   1.936   2.889  0.0698 -0.6528 -0.5510
  311SOL    HW1  932   2.720   1.965   2.957  0.9604  0.1314  0.3319
  311SOL    HW2  933   2.799   1.834   2.895 -0.7561  1.2280  0.7931
  312SOL     OW  934   2.398   1.552   1.201  0.0210  0.3067  0.5162
  312SOL    HW1  935   2.364   1.644   1.216  0.5886 -4.9750 -1.5757
  312SOL    HW2  936   2.333   1.501   1.140  0.4838 -1.1561 -0.6688
  313SOL     OW  937   2.310   2.687   1.033  0.1763  0.1062  0.4993
  313SOL    HW1  938   2.305   2.772   1.094  1.0290  0.1222 -0.5012
  313SOL    HW2  939   2.316   2.607   1.090  1.6006 -1.8582  1.4973
  314SOL     OW  940   0.960   1.808   0.317 -0.3348  0.5803  0.2068
  314SOL    HW1  941   1.046   1.756   0.323 -2.0947 -0.2979  2.8909
  314SOL    HW2  942   0.893   1.772   0.384  2.6525 -0.4810 -2.2015
  315SOL     OW  943   0.690   2.719   2.338 -0.1313  0.2698  0.6123
  315SOL    HW1  944   0.726   2.802   2.296  1.4745 -5.9010  0.0357
  315SOL    HW2  945   0.670   2.740   2.437 -0.9643 -0.6668 -0.3186
  316SOL     OW  946   0.119   0.737   0.609  0.3029  0.2890  0.2250
  316SOL    HW1  947   0.104   0.802   0.534  1.0799 -1.2162  0.5024
  316SOL    HW2  948   0.047   0.669   0.598  0.1542 -0.8354  0.1294
  317SOL     OW  949   0.971   0.426   0.424  0.4100 -0.3305  0.3159
  317SOL    HW1  950   0.874   0.452   0.406 -0.8876 -3.5291  0.4776
  317SOL    HW2  951   1.029   0.508   0.449  2.5291 -1.7567 -0.2242
  318SOL     OW  952   3.021   2.427   0.197  0.2375 -0.0709 -0.8441
  318SOL    HW1  953   3.017   2.522   0.167  3.0342 -3.5318  0.6845
  318SOL    HW2  954   3.058   2.426   0.291  0.0791  2.0505 -0.7536
  319SOL     OW  955   0.403   1.244   2.278  0.1716  0.1718 -0.0814
  319SOL    HW1  956   0.412   1.242   2.380 -1.6380 -1.2622  1.4498
  319SOL    HW2  957   0.488   1.226   2.227  0.5869  0.7714 -1.7042
  320SOL     OW  958   0.805   2.760   1.933  0.1246  0.3011  0.0934
  320SOL    HW1  959   0.882   2.785   1.877 -1.9829 -0.7015 -0.2899
  320SOL    HW2  960   0.718   2.788   1.884 -1.0267  0.1234 -2.7420
  321SOL     OW  961   1.000   2.625   0.135  0.1185  0.7915  0.0266
  321SOL    HW1  962   1.093   2.632   0.178  1.6462 -0.2238  1.5588
  321SOL    HW2  963   0.932   2.697   0.159 -0.1992  0.4756 -1.5951
  322SOL     OW  964   2.702   1.078   1.962  0.6049 -0.0113  0.9631
  322SOL    HW1  965   2.639   1.098   2.032  2.9195  0.5284 -0.6885
  322SOL    HW2  966   2.682   1.137   1.880  0.1034  1.3776  1.4116
  323SOL     OW  967   2.359   0.828   0.461 -0.4269  0.1105 -0.0305
  323SOL    HW1  968   2.261   0.792   0.445 -0.8514  0.8334 -1.7198
  323SOL    HW2  969   2.408   0.837   0.371  0.7776  0.5703 -0.0501
  324SOL     OW  970   0.255   2.562   0.111  0.3050 -0.1920 -0.1396
  324SOL    HW1  971   0.295   2.561   0.019 -3.5779  0.7084  2.0744
  324SOL    HW2  972   0.235   2.467   0.139  1.1844  0.7400 -1.5412
  325SOL     OW  973   1.934   0.284   2.435  0.5018 -0.6639  0.6187
  325SOL    HW1  974   1.980   0.239   2.513 -0.5933  0.2661 -1.1154
  325SOL    HW2  975   1.969   0.254   2.342 -0.8584 -0.1529 -1.8725
  326SOL     OW  976   2.284   2.707   1.426  0.6429 -0.2455 -0.1562
  326SOL    HW1  977   2.230   2.726   1.515  0.9349  1.5748  0.7949
  326SOL    HW2  978   2.273   2.778   1.356  0.6895 -1.9030 -3.2934
  327SOL     OW  979   1.957   0.518   2.843  0.1820  0.2007  0.2040
  327SOL    HW1  980   1.872   0.541   2.895 -0.3291  0.3472  2.4404
  327SOL    HW2  981   1.987   0.588   2.772  2.6043  1.8387  0.1058
  328SOL     OW  982   2.863   1.081   2.234 -0.1914 -0.4295 -0.0640
  328SOL    HW1  983   2.859   1.164   2.174 -0.9089  1.9259 -2.8333
  328SOL    HW2  984   2.873   1.106   2.333 -0.8104  0.2978 -2.1922
  329SOL     OW  985   1.797   0.314   1.780 -0.0283  0.1836 -0.3548
  329SOL    HW1  986   1.740   0.259   1.716 -0.8292 -0.3824 -0.5926
  329SOL    HW2  987   1.762   0.308   1.875  0.4718 -0.9077 -0.5676
  330SOL     OW  988   2.631   1.830   1.619 -0.5265  0.0984 -0.1503
  330SOL    HW1  989   2.657   1.904   1.555 -1.8955  0.3817  1.5334
  330SOL    HW2  990   2.676   1.737   1.607 -2.4421  0.7410  2.9039
  331SOL     OW  991   0.587   1.340   1.784  0.1320  0.2728 -0.0493
  331SOL    HW1  992   0.506   1.279   1.792  1.6217 -0.4458 -1.5983
  331SOL    HW2  993   0.592   1.404   1.864 -1.0151 -0.0642  0.1053
  332SOL     OW  994   0.632   0.180   1.212 -0.0034 -0.4582  0.3909
  332SOL    HW1  995   0.593   0.243   1.140 -1.9099  1.3141 -0.7407
  332SOL    HW2  996   0.707   0.227   1.261  2.8841  1.4486 -1.8623
  333SOL     OW  997   2.244   2.786   1.709 -0.0729 -0.5216 -0.1607
  333SOL    HW1  998   2.293   2.753   1.793 -0.2158  0.9895 -0.7866
  333SOL    HW2  999   2.150   2.744   1.698  2.3172 -0.9534 -1.0708
  334SOL     OW 1000   0.911   1.348   1.287  0.4752  0.1334  0.0463
  334SOL    HW1 1001   0.831   1.287   1.300  2.1185  1.3857  2.6760
  334SOL    HW2 1002   0.898   1.403   1.205  0.7658  1.4747 -1.3933
  335SOL     OW 1003   0.371   2.552   2.936 -0.0531 -0.3319  0.2819
  335SOL    HW1 1004   0.435   2.539   2.856 -2.0012 -1.6833  0.8989
  335SOL    HW2 1005   0.282   2.589   2.897 -2.3810  0.6322 -1.2095
  336SOL     OW 1006   3.052   2.948   1.799  0.3008  0.4335 -0.6760
  336SOL    HW1 1007   0.032   3.007   1.753  0.3070  0.6787 -1.0932
  336SOL    HW2 1008   3.002   2.895   1.728  1.5854  1.3358  2.1458
  337SOL     OW 1009   2.537   2.015   0.526 -0.1083  0.2588 -0.4257
  337SOL    HW1 1010   2.508   2.084   0.598 -0.9312  2.0683 -1.3364
  337SOL    HW2 1011   2.498   2.041   0.435  0.3215 -1.5208 -0.9633
  338SOL     OW 1012   0.861   2.014   1.505  0.2892  0.0502 -0.1295
  338SOL    HW1 1013   0.954   2.013   1.555 -0.1035  3.6190 -1.0263
  338SOL    HW2 1014   0.866   2.081   1.426  2.4816  2.0686 -1.9900
  339SOL     OW 1015   3.078   0.586   2.355 -0.5164  0.1701 -0.1045
  339SOL    HW1 1016   3.049   0.560   2.261 -1.9416 -1.8102 -1.2576
  339SOL    HW2 1017   0.022   0.504   2.405 -2.2073  1.9371  1.4128
  340SOL     OW 1018   1.494   2.726   1.004 -0.1967 -0.5477 -0.3910
  340SOL    HW1 1019   1.429   2.657   0.975  2.7313  1.8991  1.9535
  340SOL    HW2 1020   1.558   2.679   1.069  0.5211  0.0394  2.7525
  341SOL     OW 1021   1.639   1.469   1.181  0.1789 -0.0892  0.3266
  341SOL    HW1 1022   1.568   1.502   1.115  1.9384  2.3585 -1.8492
  341SOL    HW2 1023   1.729   1.506   1.144  3.3233  0.9040 -0.8147
  342SOL     OW 1024   0.216   1.290   0.876  0.0036  0.4556  0.2844
  342SOL    HW1 1025   0.182   1.372   0.830 -0.5017 -1.3299  2.9505
  342SOL    HW2 1026   0.250   1.218   0.812 -1.3271 -0.6426  0.1671
  343SOL     OW 1027   1.768   0.241   1.361 -0.1093  0.0653 -0.1237
  343SOL    HW1 1028   1.702   0.317   1.348  3.6725  0.0314  2.4662
  343SOL    HW2 1029   1.866   0.275   1.372  1.2503  1.9475 -0.0060
  344SOL     OW 1030   2.005   2.419   1.197 -0.1687  0.2847  0.0808
  344SOL    HW1 1031   2.086   2.408   1.257 -0.6396  0.8058 -1.8075
  344SOL    HW2 1032   1.976   2.513   1.175 -2.2111  0.4207 -1.2687
  345SOL     OW 1033   2.766   2.371   2.708  0.0401 -0.0988 -0.0319
  345SOL    HW1 1034   2.802   2.449   2.658  2.6709 -2.1717 -0.9228
  345SOL    HW2 1035   2.707   2.313   2.648  0.0097  0.0479  0.6038
  346SOL     OW 1036   0.099   1.494   0.764  0.2500 -0.3195 -0.4165
  346SOL    HW1 1037   0.089   1.557   0.839 -2.4048 -1.1508 -2.3992
  346SOL    HW2 1038   0.038   1.528   0.688 -1.2819  0.9295 -1.0444
  347SOL     OW 1039   1.694   2.665   0.825  0.5817  0.2755  0.2980
  347SOL    HW1 1040   1.622   2.711   0.880  1.1562  0.0469  1.7779
  347SOL    HW2 1041   1.784   2.705   0.845 -1.3694  0.2910 -1.3049
  348SOL     OW 1042   1.357   1.396   2.369 -0.1917  0.2975 -0.4609
  348SOL    HW1 1043   1.303   1.310   2.348 -2.7257 -0.5962  0.0192
  348SOL    HW2 1044   1.460   1.383   2.368  0.5539 -0.9819 -3.0476
  349SOL     OW 1045   2.322   1.126   2.198  0.2530  1.1232 -0.0478
  349SOL    HW1 1046   2.297   1.121   2.099 -2.1552  0.9567  0.1346
  349SOL    HW2 1047   2.275   1.046   2.249 -0.3712  0.3869  1.1841
  350SOL     OW 1048   0.072   2.122   1.449 -0.7645 -0.5301 -0.3764
  350SOL    HW1 1049   3.068   2.090   1.447  0.7232 -1.8290  1.8133
  350SOL    HW2 1050   0.129   2.066   1.382  0.5338  2.4813 -0.9963
  351SOL     OW 1051   0.626   0.380   2.615  0.1903 -0.2855 -0.7974
  351SOL    HW1 1052   0.654   0.299   2.671  2.1996  0.2775  0.4009
  351SOL    HW2 1053   0.703   0.439   2.574  0.8914  1.0956 -0.1437
  352SOL     OW 1054   0.867   2.731   1.467 -0.4424 -0.3334 -0.6805
  352SOL    HW1 1055   0.968   2.717   1.495  0.6750 -3.6792 -1.1423
  352SOL    HW2 1056   0.827   2.825   1.491  2.2955  0.6279  0.4448
  353SOL     OW 1057   0.997   1.130   2.178  0.4587  0.1510  0.0115
  353SOL    HW1 1058   1.102   1.134   2.170  2.9518  0.5389  2.1452
  353SOL    HW2 1059   0.973   1.064   2.249  1.8093 -1.9195  0.2815
  354SOL     OW 1060   1.718   1.242   0.653  0.1911 -0.2834 -0.7108
  354SOL    HW1 1061   1.665   1.258   0.742  0.7057  0.1906  0.5967
  354SOL    HW2 1062   1.653   1.228   0.577 -2.7482 -0.3837  0.5024
  355SOL     OW 1063   2.374   0.409   0.480  0.1789 -0.4649 -0.0673
  355SOL    HW1 1064   2.386   0.506   0.508 -2.1495  0.4609 -0.9646
  355SOL    HW2 1065   2.457   0.348   0.487  0.2861 -0.9264 -1.7270
  356SOL     OW 1066   2.832   1.018   2.516 -0.2332 -0.3324 -0.2850
  356SOL    HW1 1067   2.847   1.086   2.588  0.2424 -0.7938 -1.8512
  356SOL    HW2 1068   2.883   0.927   2.529 -0.7730 -0.0969 -0.7392
  357SOL     OW 1069   0.594   2.903   1.732 -0.3003  0.0920 -0.6200
  357SOL    HW1 1070   0.618   3.002   1.733 -2.0739  1.0946  2.9777
  357SOL    HW2 1071   0.520   2.886   1.802 -3.9578  2.1186 -0.0870
  358SOL     OW 1072   2.932   1.209   2.668 -0.5257 -0.1318 -1.0693
  358SOL    HW1 1073   2.878   1.287   2.628  0.9259 -1.2747  2.1940
  358SOL    HW2 1074   3.013   1.180   2.607 -0.6578 -0.2726  0.6641
  359SOL     OW 1075   2.533   2.637   2.795  0.3848 -0.1012 -0.1422
  359SOL    HW1 1076   2.451   2.696   2.807  1.6179  0.5635 -0.3535
  359SOL    HW2 1077   2.514   2.555   2.738  2.5897  0.7124  1.8424
  360SOL     OW 1078   1.889   1.250   1.102 -0.1769  0.3674 -0.0386
  360SOL    HW1 1079   1.803   1.206   1.057 -4.1723  0.9258 -4.9521
  360SOL    HW2 1080   1.972   1.231   1.045  2.7076  0.6793  0.3298
  361SOL     OW 1081   1.937   2.679   1.174  0.3078 -0.4662 -0.1344
  361SOL    HW1 1082   1.939   2.751   1.245  1.0991  0.1818  2.6499
  361SOL    HW2 1083   1.946   2.719   1.082  0.9900  1.6800  2.5133
  362SOL     OW 1084   1.459   1.551   0.991 -0.2664  0.1940 -0.4285
  362SOL    HW1 1085   1.369   1.578   1.027  1.5344 -1.3972  1.4568
  362SOL    HW2 1086   1.468   1.569   0.894  0.9828 -1.7842  1.0162
  363SOL     OW 1087   3.002   2.045   2.622 -0.5210 -0.1975 -0.3803
  363SOL    HW1 1088   2.904   2.037   2.604  2.4486  0.0087 -0.1938
  363SOL    HW2 1089   3.021   2.139   2.664  0.2114  0.4553  1.6013
  364SOL     OW 1090   1.777   0.724   1.499  0.6467 -0.0458 -0.5283
  364SOL    HW1 1091   1.674   0.719   1.515 -0.7920 -3.4146  0.1956
  364SOL    HW2 1092   1.803   0.676   1.417 -1.8692 -1.6600  3.1192
  365SOL     OW 1093   2.841   2.624   1.046  0.0969 -0.3965  0.1168
  365SOL    HW1 1094   2.789   2.701   1.003  0.7827 -1.5316 -1.6429
  365SOL    HW2 1095   2.778   2.559   1.090  1.7820  0.2639  0.6794
  366SOL     OW 1096   2.811   1.412   0.203 -0.1308  0.1344 -0.4422
  366SOL    HW1 1097   2.810   1.445   0.106 -1.5993 -2.7437 -0.7174
  366SOL    HW2 1098   2.743   1.337   0.223 -0.9064 -1.1666 -0.1272
  367SOL     OW 1099   2.716   2.072   2.676  0.0507 -0.0681  0.5915
  367SOL    HW1 1100   2.617   2.100   2.669  0.0304  0.2748 -2.8914
  367SOL    HW2 1101   2.743   2.014   2.752 -1.0540  0.9118 -0.1285
  368SOL     OW 1102   2.640   2.052   1.449 -0.0874  0.3899  0.2418
  368SOL    HW1 1103   2.603   2.100   1.535 -2.3753  0.6781  0.1300
  368SOL    HW2 1104   2.566   2.053   1.380  1.7466 -0.3106  0.5125
  369SOL     OW 1105   0.672   0.383   0.277 -0.3346  0.4809  0.1437
  369SOL    HW1 1106   0.667   0.300   0.222  1.7078  2.5027  2.1842
  369SOL    HW2 1107   0.586   0.394   0.324  3.9453 -0.2214 -2.2635
  370SOL     OW 1108   0.815   0.523   1.157 -0.1526 -0.1490  0.4439
  370SOL    HW1 1109   0.738   0.590   1.166 -0.2288 -3.4153  3.6600
  370SOL    HW2 1110   0.813   0.481   1.067  1.2516 -0.6494  3.8706
  371SOL     OW 1111   2.475   1.656   0.331 -0.4428 -0.0124  0.0247
  371SOL    HW1 1112   2.572   1.696   0.328  2.4118  0.2287  0.9825
  371SOL    HW2 1113   2.413   1.725   0.301  2.5404 -2.2693  2.2076
  372SOL     OW 1114   0.161   0.924   2.517 -0.0090  0.1401  0.1811
  372SOL    HW1 1115   0.232   0.900   2.586 -0.1440  1.8006 -0.4985
  372SOL    HW2 1116   0.183   0.890   2.423 -0.4005 -0.5631 -1.6366
  373SOL     OW 1117   2.719   1.017   0.552  0.2201 -0.7305 -0.1969
  373SOL    HW1 1118   2.634   0.987   0.599  1.1210  2.6090  1.0557
  373SOL    HW2 1119   2.741   0.951   0.477  1.7090 -3.9238 -1.1150
  374SOL     OW 1120   0.439   2.203   0.064  0.1306  0.0092 -0.6568
  374SOL    HW1 1121   0.469   2.166   0.154  1.5929 -0.6065  1.1265
  374SOL    HW2 1122   0.462   2.304   0.058  2.1850 -0.0902  2.1346
  375SOL     OW 1123   1.045   0.550   3.039 -0.2077 -0.0473 -0.4051
  375SOL    HW1 1124   1.067   0.629   2.974  1.8869 -1.1316 -1.1876
  375SOL    HW2 1125   0.948   0.549   3.064  4.6599 -0.9483  2.2086
  376SOL     OW 1126   0.027   2.856   2.042 -0.0369 -0.3609 -0.0041
  376SOL    HW1 1127   0.014   2.894   1.946  0.1102  1.7014 -1.6356
  376SOL    HW2 1128   0.029   2.929   2.113 -0.3933  1.2233 -0.2483
  377SOL     OW 1129   0.251   1.790   2.469  0.1585 -0.3771  0.0158
  377SOL    HW1 1130   0.258   1.701   2.426  0.9001 -0.6997  0.0867
  377SOL    HW2 1131   0.188   1.793   2.546  0.0226  1.5616 -0.6682
  378SOL     OW 1132   1.555   0.817   0.443 -0.4439  0.1169  0.2388
  378SOL    HW1 1133   1.454   0.799   0.446 -0.1413 -0.0943 -0.5057
  378SOL    HW2 1134   1.593   0.825   0.539  2.8614 -2.4582  1.0809
  379SOL     OW 1135   1.168   1.428   3.092 -0.4988 -0.2871 -0.3485
  379SOL    HW1 1136   1.101   1.439   0.072  1.7442  2.8994 -0.4783
  379SOL    HW2 1137   1.265   1.410   0.029  2.4176  0.0150 -0.4181
  380SOL     OW 1138   2.306   2.190   2.203 -0.1798 -0.6408 -0.3286
  380SOL    HW1 1139   2.405   2.190   2.218  0.1046 -0.0938  1.3322
  380SOL    HW2 1140   2.276   2.270   2.151  0.1556 -1.2017 -0.2654
  381SOL     OW 1141   0.247   0.753   1.876  0.0415 -0.4949 -0.1097
  381SOL    HW1 1142   0.249   0.844   1.835 -0.5026 -0.1695  3.0939
  381SOL    HW2 1143   0.162   0.702   1.849  0.2741  1.1912 -0.0481
  382SOL     OW 1144   2.592   2.575   3.055 -0.3034 -0.7251 -0.5493
  382SOL    HW1 1145   2.582   2.610   2.963 -1.7261  1.9394  0.7464
  382SOL    HW2 1146   2.614   2.477   3.057  0.9923  0.2541  0.4948
  383SOL     OW 1147   2.177   1.538   2.167 -0.3113  0.6708 -0.1593
  383SOL    HW1 1148   2.123   1.457   2.133  3.4853 -2.0148 -0.1697
  383SOL    HW2 1149   2.145   1.620   2.116 -1.1983 -0.1609 -0.6174
  384SOL     OW 1150   0.571   2.176   2.316  0.4639 -0.0798 -0.1878
  384SOL    HW1 1151   0.636   2.121   2.259 -0.2233 -0.4623  1.7809
  384SOL    HW2 1152   0.474   2.135   2.321 -0.7457 -2.6475  0.5615
  385SOL     OW 1153   2.638   2.471   0.806 -0.2577 -0.5107 -0.5624
  385SOL    HW1 1154   2.743   2.465   0.800  1.7997 -2.6854  0.0980
  385SOL    HW2 1155   2.604   2.565   0.827 -4.2821 -0.7675  1.0300
  386SOL     OW 1156   1.720   0.527   2.969 -0.4544 -1.1409  0.1511
  386SOL    HW1 1157   1.647   0.459   2.989 -1.0734 -0.3816 -0.7859
  386SOL    HW2 1158   1.738   0.585   3.052 -0.4497 -3.0737 -1.4649
  387SOL     OW 1159   0.403   0.987   1.458  0.1291 -0.3881 -0.5290
  387SOL    HW1 1160   0.310   1.024   1.480 -0.8333  0.3344  0.5819
  387SOL    HW2 1161   0.410   0.955   1.362 -1.0276 -0.3054  0.8532
  388SOL     OW 1162   3.033   0.690   1.419  0.4256  0.1936  0.0757
  388SOL    HW1 1163   2.977   0.625   1.361  1.7578  2.8287  1.1898
  388SOL    HW2 1164   2.978   0.767   1.459 -0.1570  0.2676  1.8235
  389SOL     OW 1165   1.859   1.232   2.630  0.0212  0.6243  0.3090
  389SOL    HW1 1166   1.794   1.283   2.685 -0.6361  1.6177  0.1639
  389SOL    HW2 1167   1.899   1.159   2.692 -2.7400  2.7474 -0.5014
  390SOL     OW 1168   1.890   2.209   0.561 -0.2281 -0.3139 -0.2798
  390SOL    HW1 1169   1.909   2.308   0.581 -0.0305  0.8352  0.0638
  390SOL    HW2 1170   1.839   2.207   0.471 -0.8094 -1.3702 -1.0203
  391SOL     OW 1171   1.095   2.528   0.989  0.5264  0.0610  0.1226
  391SOL    HW1 1172   1.011   2.472   0.984 -1.1040  1.0337  0.3295
  391SOL    HW2 1173   1.077   2.618   1.039 -0.2669  3.0572 -1.2853
  392SOL     OW 1174   2.624   2.903   1.275  0.7657  0.6052 -0.2410
  392SOL    HW1 1175   2.667   2.823   1.329  1.5493 -4.7465  0.7749
  392SOL    HW2 1176   2.529   2.874   1.241  1.2800 -1.2312  0.8184
  393SOL     OW 1177   1.753   2.203   2.655 -0.4442  0.2579  0.2248
  393SOL    HW1 1178   1.809   2.277   2.693 -2.0256 -0.7164 -2.5764
  393SOL    HW2 1179   1.801   2.139   2.589  0.7564  2.6406  0.2545
  394SOL     OW 1180   0.558   2.509   2.725  0.0326  0.6819  0.3338
  394SOL    HW1 1181   0.608   2.594   2.700 -1.5210 -2.8380 -1.1560
  394SOL    HW2 1182   0.633   2.439   2.739  1.4783 -1.3260 -1.4029
  395SOL     OW 1183   0.420   1.036   1.142 -0.1448 -0.1294  0.3994
  395SOL    HW1 1184   0.380   0.948   1.103 -0.8702  0.5698 -2.6303
  395SOL    HW2 1185   0.522   1.036   1.142 -0.9604  0.9430  1.5172
  396SOL     OW 1186   1.970   1.487   2.587 -0.0857  0.3681  0.7686
  396SOL    HW1 1187   2.034   1.484   2.664  0.2113 -3.7398  0.9167
  396SOL    HW2 1188   1.914   1.403   2.580 -3.0089 -1.5766  2.1743
  397SOL     OW 1189   2.808   0.320   2.485  0.6454 -0.0979  0.7589
  397SOL    HW1 1190   2.780   0.224   2.500 -2.8349 -0.2918  4.1314
  397SOL    HW2 1191   2.898   0.336   2.535  3.1519 -1.0457  0.3970
  398SOL     OW 1192   1.587   0.476   0.586 -0.3155 -0.0617  0.6487
  398SOL    HW1 1193   1.569   0.381   0.618  2.9863  1.5966 -0.8503
  398SOL    HW2 1194   1.504   0.514   0.551 -1.5323  2.3110  0.5626
  399SOL     OW 1195   2.250   3.023   1.571  0.1673 -0.0992 -0.0620
  399SOL    HW1 1196   2.184   3.023   1.492  2.5108  0.7019  1.4522
  399SOL    HW2 1197   2.274   2.928   1.608  1.2273 -0.7738  4.5258
  400SOL     OW 1198   0.021   2.456   1.849  0.1885 -0.2435  0.2976
  400SOL    HW1 1199   3.059   2.418   1.773 -0.7144  1.8450 -1.3622
  400SOL    HW2 1200   0.115   2.461   1.804 -1.1284  0.3711 -1.2308
  401SOL     OW 1201   0.677   0.140   0.149  0.0677  0.0029 -0.2595
  401SOL    HW1 1202   0.634   0.102   0.235 -0.5757 -1.3603  0.8488
  401SOL    HW2 1203   0.622   0.107   0.071  0.1974  0.0527  0.0937
  402SOL     OW 1204   0.553   2.552   1.639  0.2752 -0.6790  0.2403
  402SOL    HW1 1205   0.636   2.500   1.635 -3.1430  1.6816  2.0863
  402SOL    HW2 1206   0.569   2.638   1.577 -1.0429  1.3052 -3.0956
  403SOL     OW 1207   0.152   0.992   1.764  0.0500 -0.3403  0.0527
  403SOL    HW1 1208   0.065   0.977   1.814  2.1141  0.1658 -1.1414
  403SOL    HW2 1209   0.141   1.016   1.665 -1.4070  2.2426 -1.9773
  404SOL     OW 1210   2.869   2.268   2.019 -0.1578  0.1877  0.6072
  404SOL    HW1 1211   2.931   2.192   1.984 -0.1444 -3.5708 -1.4360
  404SOL    HW2 1212   2.837   2.326   1.937  1.6207  0.9012 -1.3221
  405SOL     OW 1213   2.584   0.209   2.083  0.7063 -0.5278 -0.0442
  405SOL    HW1 1214   2.491   0.178   2.057 -1.3282  1.8129 -0.2436
  405SOL    HW2 1215   2.619   0.156   2.161 -0.7581 -0.0287 -3.0978
  406SOL     OW 1216   1.650   2.588   0.347  0.1875  0.4211  0.0267
  406SOL    HW1 1217   1.681   2.518   0.280 -0.8137 -0.1756  1.1582
  406SOL    HW2 1218   1.551   2.567   0.367  0.6891 -1.0680 -0.6314
  407SOL     OW 1219   1.692   1.610   0.594  0.6544  0.4221 -0.7308
  407SOL    HW1 1220   1.763   1.553   0.550  0.9004 -0.0215  0.7798
  407SOL    HW2 1221   1.639   1.660   0.518 -1.3141  0.8022 -1.0334
  408SOL     OW 1222   0.449   0.562   1.948 -0.4207 -0.2783  0.2006
  408SOL    HW1 1223   0.436   0.546   2.048  1.2289 -1.7273 -0.0465
  408SOL    HW2 1224   0.387   0.629   1.911 -0.8864 -1.5689  2.3351
  409SOL     OW 1225   2.863   1.563   3.068  0.3861 -0.4604 -0.1553
  409SOL    HW1 1226   2.802   1.605   2.993 -3.9553  0.2348 -1.2300
  409SOL    HW2 1227   2.949   1.612   3.072 -2.0414  0.1605  0.1932
  410SOL     OW 1228   2.293   1.786   1.289 -0.1311 -0.2505 -0.7786
  410SOL    HW1 1229   2.329   1.776   1.382 -0.8208  1.8669 -1.2360
  410SOL    HW2 1230   2.190   1.784   1.283 -0.5672  1.9896  1.2035
  411SOL     OW 1231   3.014   0.560   0.514  0.0075  0.4682 -0.0257
  411SOL    HW1 1232   3.073   0.591   0.436 -1.0181  1.0890 -0.4379
  411SOL    HW2 1233   2.914   0.551   0.484  0.2660  2.4611 -0.2471
  412SOL     OW 1234   1.893   0.219   0.115  0.4063  0.0074  0.1095
  412SOL    HW1 1235   1.821   0.220   0.186  0.3087 -1.5297  2.5286
  412SOL    HW2 1236   1.960   0.287   0.151  0.5055 -0.2176 -1.2945
  413SOL     OW 1237   1.350   0.523   1.531  0.1585  0.7258  0.0894
  413SOL    HW1 1238   1.402   0.605   1.554 -0.3589 -4.2498 -0.4721
  413SOL    HW2 1239   1.379   0.494   1.434  0.4688  0.3653 -1.5041
  414SOL     OW 1240   0.276   1.123   0.189 -0.5443 -0.0594 -0.5138
  414SOL    HW1 1241   0.348   1.061   0.159 -0.9964  3.1623 -0.5230
  414SOL    HW2 1242   0.221   1.157   0.113  1.8177 -0.7188 -1.5569
  415SOL     OW 1243   3.062   1.616   0.556 -0.1871 -0.2751  0.0538
  415SOL    HW1 1244   3.073   1.696   0.495  0.5348  1.0595  1.5977
  415SOL    HW2 1245   3.050   1.532   0.504  1.4909  2.5650  1.2650
  416SOL     OW 1246   2.013   0.952   0.369 -0.4119  0.3715 -0.1045
  416SOL    HW1 1247   2.063   1.005   0.441  2.2276 -1.1539 -0.1262
  416SOL    HW2 1248   1.918   0.977   0.355  0.5279 -1.5093 -0.7764
  417SOL     OW 1249   2.814   0.070   0.221  0.0593 -0.5724  0.7106
  417SOL    HW1 1250   2.871   0.065   0.133  0.3890 -3.0974 -2.3182
  417SOL    HW2 1251   2.748   3.085   0.232  2.9783  1.3198 -0.7639
  418SOL     OW 1252   2.479   0.823   0.228  0.1806 -0.3614  0.1400
  418SOL    HW1 1253   2.471   0.735   0.180  2.1589 -1.2424  0.5530
  418SOL    HW2 1254   2.576   0.832   0.257  4.0208 -1.0390  1.9008
  419SOL     OW 1255   0.786   0.526   0.074  0.0350  0.5574  0.1868
  419SOL    HW1 1256   0.745   0.485   3.083 -1.6603  0.9332 -1.8364
  419SOL    HW2 1257   0.736   0.486   0.156  0.1574  2.4177  1.9202
  420SOL     OW 1258   0.387   1.082   0.794 -0.0745 -0.1885 -0.0822
  420SOL    HW1 1259   0.377   1.012   0.724  1.0218 -0.5738  0.6226
  420SOL    HW2 1260   0.435   1.161   0.753  1.6895  0.9954  0.2921
  421SOL     OW 1261   0.239   1.932   0.442  0.7482 -0.2699  0.7756
  421SOL    HW1 1262   0.262   1.835   0.422  2.1497 -3.2434 -1.5052
  421SOL    HW2 1263   0.181   1.973   0.367 -0.0390  0.7039 -2.3047
  422SOL     OW 1264   2.669   0.212   1.445 -0.3188 -0.3479  0.1931
  422SOL    HW1 1265   2.580   0.200   1.493 -1.4003 -0.0063 -1.5039
  422SOL    HW2 1266   2.664   0.175   1.354  2.1534 -1.1080  3.4108
  423SOL     OW 1267   1.879   1.798   0.493  0.4282  0.3953  0.0733
  423SOL    HW1 1268   1.886   1.796   0.596  1.1526  1.9259  0.3388
  423SOL    HW2 1269   1.783   1.794   0.470  2.1565  0.5038 -3.8238
  424SOL     OW 1270   1.676   1.614   0.048  0.0551 -0.3909  0.3076
  424SOL    HW1 1271   1.673   1.696   0.111  0.4204  1.9202  1.2966
  424SOL    HW2 1272   1.771   1.582   0.028 -0.4303  0.8249 -2.9783
  425SOL     OW 1273   0.302   2.965   2.206 -0.0429 -0.0078  0.2716
  425SOL    HW1 1274   0.344   3.053   2.232  1.9524 -0.6376 -0.9663
  425SOL    HW2 1275   0.375   2.898   2.183 -0.1252 -0.8798  0.8502
  426SOL     OW 1276   2.309   2.779   2.790  0.1948 -0.1534  0.1420
  426SOL    HW1 1277   2.388   2.842   2.770  0.0994  1.5029  0.6833
  426SOL    HW2 1278   2.240   2.782   2.717 -0.9742 -0.2307 -1.0692
  427SOL     OW 1279   0.635   1.306   2.153 -0.1302  0.0535  0.0569
  427SOL    HW1 1280   0.721   1.274   2.107 -0.5022  1.6233  0.4471
  427SOL    HW2 1281   0.613   1.394   2.107  3.1030 -2.5516 -1.9588
  428SOL     OW 1282   2.335   1.369   2.333 -0.0163  0.0751  0.3014
  428SOL    HW1 1283   2.319   1.282   2.279 -1.0265 -1.4960 -1.1672
  428SOL    HW2 1284   2.283   1.446   2.287  0.8161  2.0311  0.0709
  429SOL     OW 1285   2.574   0.233   0.457 -0.0142  0.2018 -0.0841
  429SOL    HW1 1286   2.650   0.274   0.403  2.0059  0.8900  2.6165
  429SOL    HW2 1287   2.613   0.195   0.545  0.6296 -0.1079  1.5364
  430SOL     OW 1288   1.733   1.757   2.334  0.0146  0.1266 -0.2977
  430SOL    HW1 1289   1.661   1.695   2.290 -2.9735  0.1055  0.2563
  430SOL    HW2 1290   1.827   1.720   2.330  1.3701 -1.2700 -1.9268
  431SOL     OW 1291   2.887   1.813   1.776  0.5592  0.1445 -0.1952
  431SOL    HW1 1292   2.796   1.774   1.741  0.3442 -2.6142  0.2284
  431SOL    HW2 1293   2.924   1.889   1.716  0.6977  0.1614 -0.5305
  432SOL     OW 1294   0.993   2.765   2.146  0.3218  0.0525 -0.1539
  432SOL    HW1 1295   1.059   2.689   2.140 -0.6248  1.4232  1.4342
  432SOL    HW2 1296   0.927   2.766   2.073  0.6589  1.9107  1.4372
  433SOL     OW 1297   1.276   2.908   0.868 -0.1057 -0.0687  0.2106
  433SOL    HW1 1298   1.345   2.985   0.859 -0.9379  3.4299 -0.6665
  433SOL    HW2 1299   1.320   2.817   0.890  0.0001 -3.3155  0.7537
  434SOL     OW 1300   0.208   2.145   2.089  0.3853  0.1289 -0.4989
  434SOL    HW1 1301   0.265   2.162   2.007 -0.1149 -1.5264  0.4451
  434SOL    HW2 1302   0.260   2.107   2.170 -2.9878 -0.4991  2.5161
  435SOL     OW 1303   0.518   1.285   0.679 -0.5620 -0.5412 -0.1517
  435SOL    HW1 1304   0.618   1.273   0.673  0.2159 -0.1378 -2.2097
  435SOL    HW2 1305   0.467   1.267   0.592  1.7090 -0.9776  0.0074
  436SOL     OW 1306   0.285   1.473   1.746  0.3386 -0.7655  0.0811
  436SOL    HW1 1307   0.259   1.473   1.649  1.4018 -1.9501  0.4285
  436SOL    HW2 1308   0.310   1.382   1.777  0.1859  2.0678 -2.6214
  437SOL     OW 1309   1.192   0.541   0.229  0.5351  0.0408 -0.4706
  437SOL    HW1 1310   1.097   0.522   0.259  1.0780 -2.0005  0.2111
  437SOL    HW2 1311   1.193   0.607   0.151  2.3478 -0.8887 -0.9216
  438SOL     OW 1312   0.700   1.820   1.416 -0.2357 -0.3274  0.5264
  438SOL    HW1 1313   0.619   1.879   1.388  3.5487  1.6366 -0.0177
  438SOL    HW2 1314   0.761   1.892   1.460 -2.1124  0.3521  0.5236
  439SOL     OW 1315   1.472   1.934   2.611  0.3999  1.0252  0.3464
  439SOL    HW1 1316   1.450   1.835   2.613 -0.2415  0.1946 -1.5378
  439SOL    HW2 1317   1.555   1.952   2.661 -2.3137  1.1857 -0.0962
  440SOL     OW 1318   1.613   0.440   1.260 -0.3427 -0.4614 -0.0571
  440SOL    HW1 1319   1.527   0.395   1.292  0.9752 -2.3050 -2.9740
  440SOL    HW2 1320   1.610   0.458   1.158 -0.6032 -0.1177 -1.7890
  441SOL     OW 1321   0.777   2.981   1.496  0.1813 -0.4075  0.3149
  441SOL    HW1 1322   0.687   2.999   1.456  2.7941  0.4397  0.0743
  441SOL    HW2 1323   0.781   3.008   1.595 -0.6634 -0.2292  0.8313
  442SOL     OW 1324   2.405   2.165   0.736  0.3835 -0.3396 -0.1620
  442SOL    HW1 1325   2.442   2.143   0.827  1.0814 -0.4881  2.0944
  442SOL    HW2 1326   2.304   2.168   0.745 -1.7706  0.8663  2.4662
  443SOL     OW 1327   2.788   0.404   2.207 -0.1487 -0.0438 -0.3915
  443SOL    HW1 1328   2.705   0.461   2.190  0.9588 -2.7761  1.3028
  443SOL    HW2 1329   2.800   0.373   2.304  0.4393  2.4075 -1.6177
  444SOL     OW 1330   1.646   1.087   2.246 -0.0338  0.2749  0.3541
  444SOL    HW1 1331   1.735   1.099   2.294 -2.0025  0.0579  1.0696
  444SOL    HW2 1332   1.645   1.013   2.173 -3.1732 -0.1787 -1.8196
  445SOL     OW 1333   2.531   2.100   1.702 -0.8143  0.1029 -0.0152
  445SOL    HW1 1334   2.561   2.082   1.796  0.2592 -0.2353 -0.0709
  445SOL    HW2 1335   2.430   2.102   1.695  0.9426  2.2054 -2.2176
  446SOL     OW 1336   0.411   0.925   0.570 -0.5860 -0.0947  0.3898
  446SOL    HW1 1337   0.481   0.873   0.519  0.5019  1.7158  0.1629
  446SOL    HW2 1338   0.340   0.961   0.507  5.3984 -0.2099  2.6849
  447SOL     OW 1339   0.776   1.912   0.986 -0.5320 -0.5419  0.5053
  447SOL    HW1 1340   0.695   1.962   1.019  0.9324  0.8211 -1.6994
  447SOL    HW2 1341   0.751   1.833   0.928  2.4604 -1.6561  1.9301
  448SOL     OW 1342   1.357   1.261   1.528  0.8277  0.3737  0.2786
  448SOL    HW1 1343   1.307   1.329   1.587 -0.0056 -0.4330  1.6071
  448SOL    HW2 1344   1.338   1.165   1.558  0.1227 -1.3952  1.1041
  449SOL     OW 1345   0.373   1.835   2.981 -0.3798 -0.3326 -0.4839
  449SOL    HW1 1346   0.417   1.746   2.947  1.2713 -1.5471 -1.4058
  449SOL    HW2 1347   0.395   1.851   3.082 -4.8937  1.3714  2.1592
  450SOL     OW 1348   2.352   2.261   1.914 -0.3009  0.2692  0.2762
  450SOL    HW1 1349   2.269   2.272   1.858  1.0226  3.0088  0.4700
  450SOL    HW2 1350   2.431   2.311   1.873  1.0047 -0.6168 -1.9690
  451SOL     OW 1351   2.373   0.344   1.782 -0.4640 -0.8387  0.8612
  451SOL    HW1 1352   2.386   0.245   1.751  1.1538 -0.5713  2.5849
  451SOL    HW2 1353   2.302   0.390   1.728  3.2709 -2.1093  0.2045
  452SOL     OW 1354   0.795   2.731   1.199 -0.8158  0.2430  0.4685
  452SOL    HW1 1355   0.700   2.770   1.191 -1.6230  0.5746  2.1196
  452SOL    HW2 1356   0.818   2.734   1.299  0.7733  1.4394  0.7185
  453SOL     OW 1357   0.941   1.060   1.004 -0.1129  0.4978 -0.0662
  453SOL    HW1 1358   0.924   1.155   0.968 -1.1399  1.7082 -0.7445
  453SOL    HW2 1359   0.847   1.023   1.034 -1.0467  1.9299 -1.4918
  454SOL     OW 1360   2.883   1.157   0.716  0.8035 -0.0088  0.0475
  454SOL    HW1 1361   2.802   1.115   0.663  4.5283 -1.2184 -1.4781
  454SOL    HW2 1362   2.866   1.249   0.746  0.5533 -3.2611  0.4321
  455SOL     OW 1363   0.184   0.155   0.139 -0.0342 -0.1425 -0.1881
  455SOL    HW1 1364   0.212   0.231   0.082  1.8492 -1.0356  0.9930
  455SOL    HW2 1365   0.230   0.160   0.231 -0.2811  0.7912 -0.3221
  456SOL     OW 1366   2.279   2.333   0.501 -0.2461 -0.3010  0.7789
  456SOL    HW1 1367   2.218   2.295   0.575 -1.0547 -0.9076 -0.6470
  456SOL    HW2 1368   2.367   2.367   0.535 -0.6387  2.0869  2.5920
  457SOL     OW 1369   1.235   3.039   2.939 -0.2759  0.0329  0.2517
  457SOL    HW1 1370   1.340   3.045   2.933  3.9721  0.2254 -0.1902
  457SOL    HW2 1371   1.204   2.969   2.868 -2.8754  1.4871 -1.4241
  458SOL     OW 1372   2.930   2.679   0.294 -0.5263 -0.2867  0.1257
  458SOL    HW1 1373   2.831   2.694   0.271  0.7136  0.5216  1.0427
  458SOL    HW2 1374   2.992   2.705   0.212  1.4314  1.8183 -0.9810
  459SOL     OW 1375   2.585   0.422   1.935  0.9138 -1.0032  0.2781
  459SOL    HW1 1376   2.590   0.344   1.998  0.0458  0.4344 -0.8884
  459SOL    HW2 1377   2.522   0.399   1.853  0.0428  2.0617  1.3294
  460SOL     OW 1378   0.045   0.698   0.305  0.4271  0.0896 -1.0065
  460SOL    HW1 1379   0.022   0.797   0.292  1.3205 -0.7949  2.6477
  460SOL    HW2 1380   0.054   0.645   0.222  0.6353 -0.1321  1.4088
  461SOL     OW 1381   0.404   1.700   1.240 -0.7758 -0.7369  0.5279
  461SOL    HW1 1382   0.397   1.709   1.138 -1.2162  2.1563 -0.9501
  461SOL    HW2 1383   0.445   1.783   1.283 -1.0410 -0.3151  4.4140
  462SOL     OW 1384   2.747   2.841   0.909 -0.3379  0.0366 -0.4757
  462SOL    HW1 1385   2.811   2.831   0.832  0.9289  0.7278  4.6431
  462SOL    HW2 1386   2.733   2.939   0.941 -1.2118  1.1149  1.0372
  463SOL     OW 1387   2.782   1.136   0.043 -0.0126  0.2305  0.2146
  463SOL    HW1 1388   2.802   1.143   3.039  2.6339 -1.8318  0.7098
  463SOL    HW2 1389   2.860   1.180   0.089 -0.0405  0.1451 -0.1070
  464SOL     OW 1390   0.424   2.433   1.340 -0.2028 -0.1276  0.1082
  464SOL    HW1 1391   0.500   2.393   1.391 -2.8105  0.2558 -0.6958
  464SOL    HW2 1392   0.380   2.511   1.379  3.1645 -0.6650 -1.6676
  465SOL     OW 1393   0.753   0.458   0.904  0.0219 -0.1787  0.4662
  465SOL    HW1 1394   0.811   0.409   0.836 -2.2810  1.3807  0.8061
  465SOL    HW2 1395   0.696   0.525   0.854 -0.3312 -2.3577 -2.6349
  466SOL     OW 1396   1.522   2.802   2.432  0.0233 -0.1773 -0.2117
  466SOL    HW1 1397   1.436   2.824   2.379 -0.9661  0.5334 -2.8523
  466SOL    HW2 1398   1.578   2.719   2.399 -0.0587  2.0596 -0.8331
  467SOL     OW 1399   1.129   0.363   1.919  0.1183 -0.1402 -0.0950
  467SOL    HW1 1400   1.163   0.326   2.006  2.8010  1.0643  0.8297
  467SOL    HW2 1401   1.033   0.399   1.917 -0.5617  1.2590 -1.5743
  468SOL     OW 1402   0.382   0.872   2.109 -0.5147  0.0412  0.2671
  468SOL    HW1 1403   0.356   0.803   2.035 -0.0292 -2.6051 -2.5514
  468SOL    HW2 1404   0.327   0.858   2.198  0.4705 -1.4490  2.4178
  469SOL     OW 1405   0.563   1.814   0.653 -0.3797 -0.2013 -0.2364
  469SOL    HW1 1406   0.557   1.914   0.644  1.1797 -0.9427  3.1436
  469SOL    HW2 1407   0.475   1.772   0.673 -0.0889 -1.9632 -0.3592
  470SOL     OW 1408   2.232   1.945   2.047 -0.3422 -0.0164 -0.2935
  470SOL    HW1 1409   2.332   1.963   2.023  0.4779  0.7940 -2.3951
  470SOL    HW2 1410   2.194   2.031   2.092 -1.6052 -0.4408  1.5985
  471SOL     OW 1411   1.209   0.458   2.643  0.5060  0.0239 -0.1793
  471SOL    HW1 1412   1.206   0.440   2.742  1.2381 -0.0615 -3.8426
  471SOL    HW2 1413   1.309   0.466   2.615  1.8800 -1.1300  0.3279
  472SOL     OW 1414   0.470   2.637   1.880  0.2254 -0.2729  0.3290
  472SOL    HW1 1415   0.447   2.575   1.959 -2.3844  1.6276  0.1341
  472SOL    HW2 1416   0.508   2.597   1.793 -1.1578 -0.6628 -0.7617
  473SOL     OW 1417   0.768   0.164   2.444  0.0423  0.2092 -0.1593
  473SOL    HW1 1418   0.699   0.235   2.469 -4.0153 -3.0316  2.9697
  473SOL    HW2 1419   0.726   0.071   2.463  0.4969 -2.2501 -0.0486
  474SOL     OW 1420   1.778   0.144   1.078  0.3307  0.0850 -0.1878
  474SOL    HW1 1421   1.687   0.167   1.041  0.9221  0.3837  0.4136
  474SOL    HW2 1422   1.789   0.167   1.180 -1.2139  1.0928  1.0754
  475SOL     OW 1423   1.889   0.603   1.285  0.5324 -0.4061 -0.7520
  475SOL    HW1 1424   1.983   0.561   1.289 -2.8919 -1.4595 -1.6452
  475SOL    HW2 1425   1.826   0.556   1.216 -2.4547 -1.1173 -0.3444
  476SOL     OW 1426   0.618   0.924   0.890 -0.3443  0.1542  0.2657
  476SOL    HW1 1427   0.552   0.992   0.856 -0.0876  2.0627 -1.6215
  476SOL    HW2 1428   0.639   0.932   0.992  1.1610  0.4219  0.4638
  477SOL     OW 1429   0.913   2.345   0.825 -0.6979 -0.2101 -0.2981
  477SOL    HW1 1430   0.985   2.351   0.754 -1.0835  0.7248 -0.0599
  477SOL    HW2 1431   0.868   2.434   0.841  1.6659 -2.2079 -2.8915
  478SOL     OW 1432   0.119   2.680   2.246 -0.3902 -0.3864  0.5854
  478SOL    HW1 1433   0.105   2.745   2.167 -2.1157  0.1857 -0.6102
  478SOL    HW2 1434   0.106   2.580   2.213 -1.0501  1.3824  0.3453
  479SOL     OW 1435   2.755   0.543   1.086  0.4691 -0.4259  0.2915
  479SOL    HW1 1436   2.796   0.580   1.003 -0.3382  1.7988  2.2019
  479SOL    HW2 1437   2.654   0.520   1.077 -1.2679  0.4049  0.6281
  480SOL     OW 1438   0.276   2.336   0.510  0.0484  0.1280 -0.2470
  480SOL    HW1 1439   0.304   2.307   0.417  1.6327 -1.2998 -1.0427
  480SOL    HW2 1440   0.246   2.259   0.566 -0.8745  1.2818 -2.7669
  481SOL     OW 1441   2.107   2.241   1.557  0.0481  0.5671 -0.3407
  481SOL    HW1 1442   2.068   2.174   1.487  0.0807 -1.7747 -0.9201
  481SOL    HW2 1443   2.126   2.187   1.644  2.3446 -1.7424 -1.4742
  482SOL     OW 1444   1.399   2.614   2.630 -0.0605 -0.6237  0.0934
  482SOL    HW1 1445   1.467   2.659   2.566 -1.2600  0.5663  1.9058
  482SOL    HW2 1446   1.450   2.585   2.715  0.7091 -1.7368  1.3753
  483SOL     OW 1447   0.842   1.818   1.788 -0.2119  0.2679  0.0347
  483SOL    HW1 1448   0.934   1.778   1.812  2.7368 -1.9462  1.2602
  483SOL    HW2 1449   0.776   1.740   1.770 -1.3400 -0.6223 -0.2758
  484SOL     OW 1450   0.843   0.319   1.316 -0.3003 -0.2150  0.1709
  484SOL    HW1 1451   0.844   0.347   1.416 -0.8950 -1.0895  1.4700
  484SOL    HW2 1452   0.838   0.403   1.253 -0.4960  0.3980  1.6049
  485SOL     OW 1453   2.034   1.049   0.113 -0.3744  0.4321 -0.6401
  485SOL    HW1 1454   1.952   1.015   0.057 -3.1762 -0.6353 -2.7326
  485SOL    HW2 1455   2.014   1.018   0.206 -1.7769 -0.2960 -2.5502
  486SOL     OW 1456   2.074   0.228   1.409  0.4418  0.1633 -0.2098
  486SOL    HW1 1457   2.091   0.207   1.506  0.8629  0.7381  0.1810
  486SOL    HW2 1458   2.079   0.141   1.352  1.4891 -1.5741 -1.0745
  487SOL     OW 1459   0.468   1.963   1.370  0.4358  0.5932  0.1469
  487SOL    HW1 1460   0.429   2.046   1.321  1.0908 -0.5627  1.8612
  487SOL    HW2 1461   0.431   1.959   1.466 -0.7726  0.9455  2.1554
  488SOL     OW 1462   2.036   2.311   2.937 -0.3689  0.2034  0.0373
  488SOL    HW1 1463   2.089   2.232   2.899  1.5081 -2.4618 -1.7740
  488SOL    HW2 1464   2.089   2.354   3.014 -0.2360 -0.6391  1.6756
  489SOL     OW 1465   1.846   2.999   0.566  0.2295 -0.1862 -0.0680
  489SOL    HW1 1466   1.813   2.902   0.575 -2.3766 -0.3564 -0.2824
  489SOL    HW2 1467   1.886   3.011   0.472 -0.2923 -0.8824  1.1412
  490SOL     OW 1468   0.903   2.106   2.873  0.1939 -0.1857 -0.1980
  490SOL    HW1 1469   1.000   2.083   2.847  1.3278 -0.6681 -0.2200
  490SOL    HW2 1470   0.899   2.137   2.972  0.3109  3.6596  2.0121
  491SOL     OW 1471   0.412   1.957   1.633  0.4477 -0.1595  0.5435
  491SOL    HW1 1472   0.418   1.860   1.656 -3.0497  0.3658 -0.8081
  491SOL    HW2 1473   0.495   2.009   1.669  2.6320 -3.4679  0.2758
  492SOL     OW 1474   1.025   1.291   1.859  0.1813  0.3280 -0.0235
  492SOL    HW1 1475   0.980   1.268   1.770 -0.6996 -1.3333  1.2528
  492SOL    HW2 1476   0.957   1.285   1.934 -1.3965  0.7461  0.2293
  493SOL     OW 1477   2.490   1.797   0.907  0.3969 -0.1675 -0.4556
  493SOL    HW1 1478   2.496   1.818   0.807  0.3115 -1.7793 -2.6040
  493SOL    HW2 1479   2.580   1.774   0.942 -1.2914  2.3170 -4.6122
  494SOL     OW 1480   3.051   1.781   1.187 -0.0008 -0.2442 -0.3431
  494SOL    HW1 1481   2.971   1.821   1.138 -0.1132  0.9824  1.1673
  494SOL    HW2 1482   3.039   1.787   1.287 -0.3447 -0.7079 -1.8523
  495SOL     OW 1483   2.319   2.624   0.620 -0.6233  0.9273 -0.4917
  495SOL    HW1 1484   2.412   2.606   0.669  0.7894 -0.8567 -0.6042
  495SOL    HW2 1485   2.246   2.614   0.685  0.6259 -1.6828  0.5005
  496SOL     OW 1486   2.416   0.200   1.185 -0.5832  0.7851 -0.3951
  496SOL    HW1 1487   2.493   0.131   1.193 -0.2028  1.9877  0.3029
  496SOL    HW2 1488   2.395   0.231   1.283 -0.7622  2.2290  1.2232
  497SOL     OW 1489   2.480   1.287   2.840 -0.2220 -0.7771 -0.0060
  497SOL    HW1 1490   2.428   1.234   2.771  0.5876 -0.3531  0.6797
  497SOL    HW2 1491   2.571   1.245   2.860 -0.4823  0.7707  0.3326
  498SOL     OW 1492   2.909   2.014   1.487  0.2025 -0.4143 -0.0245
  498SOL    HW1 1493   2.892   2.064   1.578  2.1856  1.3059  1.7361
  498SOL    HW2 1494   2.829   1.978   1.438  3.8089  0.8855 -0.1737
  499SOL     OW 1495   0.935   2.190   2.367 -0.1917 -0.8247 -0.1425
  499SOL    HW1 1496   0.965   2.284   2.357 -0.9988 -3.7724 -0.1625
  499SOL    HW2 1497   0.851   2.193   2.428 -1.6337  1.9940  3.2603
  500SOL     OW 1498   1.251   1.497   0.657 -0.3626 -0.3160 -0.2626
  500SOL    HW1 1499   1.328   1.554   0.695  1.1786 -0.2580  2.4597
  500SOL    HW2 1500   1.205   1.448   0.735 -0.0320  1.4298  0.0138
  501SOL     OW 1501   1.626   0.172   1.586  0.8158 -0.0793  0.3640
  501SOL    HW1 1502   1.669   0.171   1.492  2.9362 -0.6541 -1.5989
  501SOL    HW2 1503   1.599   0.079   1.622 -0.8303 -3.6376  0.5882
  502SOL     OW 1504   2.753   0.423   1.574 -0.2599 -0.1246 -0.4252
  502SOL    HW1 1505   2.782   0.425   1.674  0.0376  0.4688  3.9076
  502SOL    HW2 1506   2.703   0.342   1.543 -0.3233  0.8149 -2.8180
  503SOL     OW 1507   2.796   1.381   2.251  0.1782 -0.3813  0.0235
  503SOL    HW1 1508   2.781   1.474   2.218  0.9061 -0.2888 -1.0871
  503SOL    HW2 1509   2.721   1.317   2.224  0.8349  0.4018 -0.0889
  504SOL     OW 1510   1.624   1.301   1.489  0.0223 -0.1302  0.0332
  504SOL    HW1 1511   1.633   1.231   1.414 -0.6515 -1.0582  0.8309
  504SOL    HW2 1512   1.525   1.298   1.521  0.0188  0.8989  2.2460
  505SOL     OW 1513   0.545   0.004   1.399 -0.2381 -0.1105  0.4429
  505SOL    HW1 1514   0.537   0.046   1.494 -3.4093  2.9546 -0.5017
  505SOL    HW2 1515   0.563   0.074   1.327 -0.5714  0.2692  0.2913
  506SOL     OW 1516   0.271   0.360   3.078 -0.2564  0.1801  0.3201
  506SOL    HW1 1517   0.329   0.443   0.011  1.2471  1.5473  0.4683
  506SOL    HW2 1518   0.297   0.326   2.987 -0.7131 -1.6985  0.3780
  507SOL     OW 1519   0.093   2.560   2.867  0.1066 -0.3318 -0.0924
  507SOL    HW1 1520   0.050   2.571   2.777  1.5519  0.0439  0.2383
  507SOL    HW2 1521   0.041   2.490   2.921 -2.6886  1.5087  0.7946
  508SOL     OW 1522   1.271   0.310   2.145 -0.2551 -0.0555 -0.5940
  508SOL    HW1 1523   1.336   0.251   2.089  0.2664 -0.9411 -0.1019
  508SOL    HW2 1524   1.326   0.358   2.217  1.5873 -1.4540  2.2783
  509SOL     OW 1525   1.422   2.026   1.107 -0.1519  0.2384 -0.5707
  509SOL    HW1 1526   1.441   2.010   1.203 -1.7672  0.1328 -1.0223
  509SOL    HW2 1527   1.395   2.123   1.080 -0.2323  4.7086  0.6847
  510SOL     OW 1528   2.591   0.889   1.658 -0.4640  0.3191 -0.7215
  510SOL    HW1 1529   2.563   0.819   1.729  0.1860 -1.5353  3.0593
  510SOL    HW2 1530   2.583   0.979   1.709 -2.2160 -0.6747 -0.1436
  511SOL     OW 1531   1.046   1.769   1.135 -0.5417 -0.2688 -0.1652
  511SOL    HW1 1532   1.030   1.866   1.113  0.6258  1.1055  3.9108
  511SOL    HW2 1533   1.111   1.763   1.213  1.4451  0.8295  0.0458
  512SOL     OW 1534   3.039   1.688   0.273 -0.1053  0.0133  0.2474
  512SOL    HW1 1535   2.950   1.640   0.290  1.0649  0.0692 -0.9082
  512SOL    HW2 1536   3.041   1.734   0.184 -0.1751 -0.3226 -1.8318
  513SOL     OW 1537   0.155   1.235   3.064  0.1620  0.1693  0.6643
  513SOL    HW1 1538   0.178   1.333   3.061 -1.9352 -1.0205 -0.0197
  513SOL    HW2 1539   0.124   1.215   2.970  2.7204  1.0231  0.3030
  514SOL     OW 1540   1.876   2.245   2.224 -0.1517 -0.2382 -0.1325
  514SOL    HW1 1541   1.888   2.278   2.317  0.3409  0.6942 -2.7362
  514SOL    HW2 1542   1.926   2.154   2.221  2.6045 -0.7921  0.9968
  515SOL     OW 1543   2.464   0.990   0.674 -0.2032  0.1122 -0.1858
  515SOL    HW1 1544   2.398   0.929   0.631  0.3177  1.8252 -0.2542
  515SOL    HW2 1545   2.436   1.085   0.644  0.1031  1.3502  0.8770
  516SOL     OW 1546   2.662   2.686   0.213  0.5128  0.2408  0.6096
  516SOL    HW1 1547   2.628   2.630   0.135 -0.0701  3.2892  0.5228
  516SOL    HW2 1548   2.596   2.682   0.293 -0.3545 -0.4344 -0.6232
  517SOL     OW 1549   0.725   1.603   2.642  0.1608  0.3468 -0.2471
  517SOL    HW1 1550   0.751   1.702   2.665  3.5056 -0.5480 -0.9963
  517SOL    HW2 1551   0.624   1.587   2.633 -1.0594 -0.7125 -1.2067
  518SOL     OW 1552   0.138   0.168   1.972  0.0188  0.0538  0.0234
  518SOL    HW1 1553   0.068   0.114   1.929  1.9016  1.5454  0.1395
  518SOL    HW2 1554   0.175   0.240   1.907  1.0187  0.7633 -0.2048
  519SOL     OW 1555   1.357   1.149   0.194 -0.0299  0.2026 -0.0973
  519SOL    HW1 1556   1.344   1.093   0.109  3.0445 -2.0830 -2.5063
  519SOL    HW2 1557   1.367   1.250   0.178  2.4759 -0.2083 -0.2031
  520SOL     OW 1558   2.590   2.628   2.155  0.2203 -0.1826 -0.5335
  520SOL    HW1 1559   2.591   2.662   2.062 -0.2379  1.8400 -1.3375
  520SOL    HW2 1560   2.502   2.583   2.161  0.2971 -0.3621 -2.3720
  521SOL     OW 1561   0.178   1.833   2.095 -0.1522  0.3811  0.2286
  521SOL    HW1 1562   0.122   1.882   2.157 -1.3768  0.7781 -3.3649
  521SOL    HW2 1563   0.266   1.878   2.064  0.8946  2.2127  0.1867
  522SOL     OW 1564   1.447   2.980   1.850 -0.0319 -0.0208 -0.4408
  522SOL    HW1 1565   1.385   2.899   1.852 -0.6295  0.2464  2.1750
  522SOL    HW2 1566   1.457   3.007   1.753 -1.2773  0.1787  0.8342
  523SOL     OW 1567   2.061   2.117   1.305  0.5812  0.1410  0.4316
  523SOL    HW1 1568   2.027   2.053   1.231  0.6760 -2.0787 -0.5323
  523SOL    HW2 1569   2.039   2.210   1.273  0.0614  1.8067 -0.5523
  524SOL     OW 1570   0.835   2.080   0.768 -0.2246 -0.1852  0.0504
  524SOL    HW1 1571   0.885   2.166   0.788  0.3851 -1.0762  1.3612
  524SOL    HW2 1572   0.792   2.040   0.854 -1.7631 -2.4105  3.0298
  525SOL     OW 1573   2.772   0.584   0.440 -0.1043 -0.5342  0.0763
  525SOL    HW1 1574   2.715   0.561   0.523  2.3122  0.2459 -0.4354
  525SOL    HW2 1575   2.768   0.505   0.375 -0.4586  2.4567 -1.4778
  526SOL     OW 1576   1.017   0.164   0.385 -0.2397  0.2905  0.3854
  526SOL    HW1 1577   0.997   0.261   0.368 -0.4558 -2.3390 -0.5941
  526SOL    HW2 1578   1.105   0.149   0.338 -2.3962  0.3608 -0.0593
  527SOL     OW 1579   1.905   1.519   1.090  0.2000 -0.0349  0.1194
  527SOL    HW1 1580   1.904   1.422   1.111 -0.3747  1.1059 -2.0288
  527SOL    HW2 1581   1.868   1.533   0.999  0.4121  0.2014  2.7121
  528SOL     OW 1582   2.603   2.457   2.404 -0.2771 -0.5858 -0.2020
  528SOL    HW1 1583   2.597   2.524   2.328 -2.0238  0.9236 -0.2318
  528SOL    HW2 1584   2.602   2.365   2.363  0.2051  0.9134  1.5029
  529SOL     OW 1585   0.991   1.200   2.506  0.1570 -0.2676 -0.2365
  529SOL    HW1 1586   0.912   1.141   2.477  0.5202 -0.5727 -1.6432
  529SOL    HW2 1587   0.971   1.298   2.513 -0.1199 -2.5139  0.0053
  530SOL     OW 1588   1.778   0.821   2.701  0.1752  1.3770 -0.4107
  530SOL    HW1 1589   1.872   0.780   2.686  0.8111  0.8264 -1.4375
  530SOL    HW2 1590   1.785   0.884   2.776  0.6659 -1.7103 -1.2692
  531SOL     OW 1591   0.492   0.789   0.292  0.1015  0.1826 -0.1137
  531SOL    HW1 1592   0.566   0.848   0.332 -1.5265  0.8922 -1.3730
  531SOL    HW2 1593   0.451   0.837   0.213  0.7509  0.4182  0.3991
  532SOL     OW 1594   1.607   1.303   0.897 -0.2193  0.1011 -0.3101
  532SOL    HW1 1595   1.543   1.234   0.944 -1.8926 -1.0286  1.0459
  532SOL    HW2 1596   1.586   1.395   0.926 -1.9500  0.3194 -1.7871
  533SOL     OW 1597   0.455   0.433   2.198  0.4079  0.3306 -0.1401
  533SOL    HW1 1598   0.503   0.358   2.146 -0.8178 -1.4938  1.0010
  533SOL    HW2 1599   0.505   0.481   2.274 -1.0271  0.9946  0.8517
  534SOL     OW 1600   0.724   0.169   2.746 -0.2643  0.4293 -0.0971
  534SOL    HW1 1601   0.814   0.183   2.791  1.7799 -1.1958  0.4464
  534SOL    HW2 1602   0.670   0.094   2.788  0.5714 -1.6785 -0.3983
  535SOL     OW 1603   0.601   0.459   2.985 -0.1805  0.4486  0.2094
  535SOL    HW1 1604   0.527   0.509   3.034  3.2283 -1.6540  1.0949
  535SOL    HW2 1605   0.562   0.374   2.942 -0.4376  0.7071  0.4476
  536SOL     OW 1606   0.613   0.872   2.250  0.1846  0.3227  0.0977
  536SOL    HW1 1607   0.526   0.870   2.196 -1.7406 -1.7931  0.4809
  536SOL    HW2 1608   0.690   0.862   2.186 -0.7524 -1.0288 -1.6416
  537SOL     OW 1609   1.359   0.139   1.225  0.3451  0.1681  0.1615
  537SOL    HW1 1610   1.267   0.118   1.176  0.5918  0.3014 -0.7540
  537SOL    HW2 1611   1.426   0.176   1.163  1.1271  1.5326  3.1050
  538SOL     OW 1612   0.705   1.987   3.089 -0.2030  0.6589  0.0844
  538SOL    HW1 1613   0.784   2.054   0.006  0.5204  2.1598  1.4892
  538SOL    HW2 1614   0.629   2.018   3.024 -1.5647  0.9365  3.0353
  539SOL     OW 1615   2.508   1.352   1.894 -0.0903 -0.4921  0.1347
  539SOL    HW1 1616   2.593   1.403   1.889 -4.0584  2.1691 -1.4985
  539SOL    HW2 1617   2.431   1.419   1.903 -0.7624 -0.0485  1.2430
  540SOL     OW 1618   1.658   1.694   1.668  0.1361 -0.2991 -0.3457
  540SOL    HW1 1619   1.699   1.638   1.593 -0.2738 -1.8584  0.8040
  540SOL    HW2 1620   1.689   1.793   1.661  0.2721 -2.3642  1.1090
  541SOL     OW 1621   0.741   1.547   1.766  0.1164 -0.1569 -0.7282
  541SOL    HW1 1622   0.690   1.457   1.761 -3.8333 -1.5628 -3.1698
  541SOL    HW2 1623   0.790   1.557   1.676  2.4821 -0.3308  1.1601
  542SOL     OW 1624   1.891   0.858   2.298 -0.9065 -0.3146  0.2643
  542SOL    HW1 1625   1.905   0.956   2.318 -0.8688 -0.1399  0.4658
  542SOL    HW2 1626   1.907   0.837   2.201  1.6792  1.5683 -0.5235
  543SOL     OW 1627   0.894   0.713   0.532  0.8453  0.0634  0.1059
  543SOL    HW1 1628   0.861   0.799   0.579 -0.2473  1.1353  1.9601
  543SOL    HW2 1629   0.869   0.715   0.435  1.5399  1.3089 -0.9218
  544SOL     OW 1630   2.329   1.889   2.311 -0.2855  0.3698 -0.4683
  544SOL    HW1 1631   2.294   1.929   2.221 -2.6260  0.3975 -1.5706
  544SOL    HW2 1632   2.394   1.955   2.352  0.0398  1.6849  1.2477
  545SOL     OW 1633   1.705   2.201   1.586  0.5071 -0.5379 -0.0291
  545SOL    HW1 1634   1.719   2.230   1.491  1.5609 -2.8611  0.7998
  545SOL    HW2 1635   1.703   2.278   1.655  0.1071  3.2711 -0.0835
  546SOL     OW 1636   0.460   0.251   2.886 -0.2248  0.2335  0.4371
  546SOL    HW1 1637   0.444   0.266   2.789 -0.0897  1.3608  0.2297
  546SOL    HW2 1638   0.483   0.151   2.903  0.7304  1.6798  1.7836
  547SOL     OW 1639   2.356   0.992   2.919  0.1014 -0.1774  0.0904
  547SOL    HW1 1640   2.324   1.085   2.931 -1.6855 -0.7476  0.1112
  547SOL    HW2 1641   2.292   0.932   2.971  1.8111  1.4969  0.3199
  548SOL     OW 1642   1.966   1.987   2.198  0.3544  0.7077 -0.7554
  548SOL    HW1 1643   1.927   1.921   2.130 -1.8302 -1.3593  0.8056
  548SOL    HW2 1644   1.928   1.971   2.290  0.9821 -2.7175  1.1562
  549SOL     OW 1645   2.194   0.311   0.721 -0.6113  0.0256 -0.2988
  549SOL    HW1 1646   2.252   0.305   0.807 -1.0899 -0.3416  0.6028
  549SOL    HW2 1647   2.253   0.318   0.641 -1.4811 -2.7735  1.1705
  550SOL     OW 1648   2.170   1.807   0.510  0.6652 -0.6859 -0.0776
  550SOL    HW1 1649   2.200   1.802   0.415 -1.9171 -1.9459  3.7253
  550SOL    HW2 1650   2.113   1.890   0.525 -1.5127  2.8121  2.5738
  551SOL     OW 1651   1.488   0.362   1.721 -0.0036  0.5140 -0.5470
  551SOL    HW1 1652   1.525   0.284   1.664 -0.1939  0.1335 -0.0218
  551SOL    HW2 1653   1.412   0.402   1.669 -2.4543 -0.1620  1.1344
  552SOL     OW 1654   0.037   2.246   2.339  0.5105  0.0011  0.0151
  552SOL    HW1 1655   0.078   2.285   2.253 -1.2238 -0.8457  0.0032
  552SOL    HW2 1656   0.102   2.258   2.420 -0.8566  1.5041  0.3385
  553SOL     OW 1657   0.848   2.834   0.240 -0.1084  0.3902  0.0103
  553SOL    HW1 1658   0.859   2.935   0.235  0.5120  2.9786 -0.3049
  553SOL    HW2 1659   0.857   2.802   0.337  1.6169 -0.6915 -1.7563
  554SOL     OW 1660   1.779   2.412   1.774  0.2279 -0.2017 -0.2500
  554SOL    HW1 1661   1.848   2.356   1.823 -1.8707 -2.0948 -0.1412
  554SOL    HW2 1662   1.787   2.508   1.805  1.8607 -0.5008  0.7123
  555SOL     OW 1663   1.204   2.029   2.011 -0.1418 -0.6180  0.1367
  555SOL    HW1 1664   1.193   2.090   2.090 -2.3808  1.6011  1.9146
  555SOL    HW2 1665   1.112   2.030   1.970  0.3672  0.6608 -0.6170
  556SOL     OW 1666   1.173   1.779   0.903  0.1810  0.2221  0.0125
  556SOL    HW1 1667   1.089   1.759   0.848 -2.2525 -3.7505  0.7654
  556SOL    HW2 1668   1.143   1.777   0.997  0.3769 -3.0120 -1.9410
  557SOL     OW 1669   1.539   2.234   1.895  0.0139  0.0999  0.7107
  557SOL    HW1 1670   1.561   2.224   1.993  1.0987  2.1198  1.6928
  557SOL    HW2 1671   1.486   2.152   1.850  0.0521 -1.4332 -3.9706
  558SOL     OW 1672   0.531   0.138   1.640  0.2402  0.0366 -0.2887
  558SOL    HW1 1673   0.491   0.098   1.723  0.9619  0.9573 -3.2447
  558SOL    HW2 1674   0.621   0.190   1.652  0.3511  1.9622  1.1067
  559SOL     OW 1675   2.338   2.905   1.234  0.1859 -0.0009 -0.3745
  559SOL    HW1 1676   2.372   2.952   1.153  0.0252 -0.3157  3.4230
  559SOL    HW2 1677   2.283   2.972   1.294 -0.9334  0.9886  2.0244
  560SOL     OW 1678   0.809   2.252   0.361  0.3642  0.4775  0.0220
  560SOL    HW1 1679   0.891   2.194   0.350  1.2386  0.9467 -0.6582
  560SOL    HW2 1680   0.760   2.219   0.441  3.3154 -1.2550  2.1607
  561SOL     OW 1681   0.907   0.681   0.245  0.2881  0.2346  0.0859
  561SOL    HW1 1682   0.862   0.620   0.176 -0.8981  1.9831 -3.0322
  561SOL    HW2 1683   0.864   0.772   0.236  2.1075  0.0648 -0.2237
  562SOL     OW 1684   0.825   0.522   2.474  0.3712 -0.1699  0.0839
  562SOL    HW1 1685   0.874   0.571   2.547  0.7234  0.3790  2.8930
  562SOL    HW2 1686   0.902   0.488   2.413 -1.2373 -1.3544 -0.3013
  563SOL     OW 1687   1.534   2.288   2.879  0.3492 -0.6313  0.3423
  563SOL    HW1 1688   1.443   2.242   2.865 -1.4476  0.0115 -1.8987
  563SOL    HW2 1689   1.612   2.227   2.849  1.1992 -2.0579  0.5577
  564SOL     OW 1690   3.069   1.126   0.481  0.1521 -0.3464  0.2789
  564SOL    HW1 1691   3.063   1.229   0.473 -0.9915  2.5706 -1.2105
  564SOL    HW2 1692   3.034   1.090   0.572  0.7780 -2.0110 -0.6973
  565SOL     OW 1693   1.704   0.025   2.662 -0.0079 -0.4438  0.2228
  565SOL    HW1 1694   1.606   0.001   2.651 -1.2440 -2.6150 -2.9604
  565SOL    HW2 1695   1.723   0.119   2.693  1.3172 -1.8756 -0.6992
  566SOL     OW 1696   1.902   0.031   2.238 -0.1812 -0.6772 -0.5785
  566SOL    HW1 1697   1.840   0.002   2.314  1.6568 -0.0797 -0.9859
  566SOL    HW2 1698   1.861   0.011   2.148  2.0691  0.5877 -1.0666
  567SOL     OW 1699   2.520   1.384   0.803  0.1666 -0.4093 -0.2203
  567SOL    HW1 1700   2.438   1.439   0.837 -0.3284  1.6011  3.1721
  567SOL    HW2 1701   2.563   1.328   0.876  0.6492 -0.7258  0.7736
  568SOL     OW 1702   1.596   1.808   0.440 -0.0366 -0.3919 -0.1850
  568SOL    HW1 1703   1.612   1.843   0.343 -0.0949 -0.7069 -1.1197
  568SOL    HW2 1704   1.544   1.881   0.485  1.2641 -0.9179 -2.0253
  569SOL     OW 1705   2.027   1.784   2.862  0.4769 -0.0882  0.3176
  569SOL    HW1 1706   2.113   1.743   2.835 -1.8731  2.0236 -0.1911
  569SOL    HW2 1707   1.948   1.734   2.823 -0.5154  1.0703 -3.4434
  570SOL     OW 1708   2.945   2.791   1.576  0.5465 -0.5599  0.2206
  570SOL    HW1 1709   2.859   2.848   1.567  0.1658  3.0468  1.9777
  570SOL    HW2 1710   3.001   2.795   1.494 -0.3927 -1.2872 -2.7576
  571SOL     OW 1711   0.077   0.237   2.225  0.1184 -0.3431  0.2080
  571SOL    HW1 1712   0.116   0.226   2.131 -1.7487  0.5692 -0.6958
  571SOL    HW2 1713   0.142   0.292   2.279 -1.6081 -0.2396  0.2638
  572SOL     OW 1714   0.931   1.309   0.918 -0.2236 -0.1176 -0.3135
  572SOL    HW1 1715   0.898   1.380   0.981  0.3454 -0.5582 -1.5333
  572SOL    HW2 1716   1.025   1.335   0.898 -5.5547 -0.2845 -0.5219
  573SOL     OW 1717   0.995   0.211   2.832  0.5007 -0.2315 -0.3945
  573SOL    HW1 1718   1.002   0.179   2.932  0.7809 -2.5135  1.8254
  573SOL    HW2 1719   1.041   0.300   2.815 -1.8819 -0.6517  0.5475
  574SOL     OW 1720   0.761   0.043   0.737 -0.5649 -0.0063  0.8983
  574SOL    HW1 1721   0.841   0.059   0.798  2.1767  0.0145 -0.6915
  574SOL    HW2 1722   0.714   3.052   0.770  1.3760 -1.6147 -0.6567
  575SOL     OW 1723   2.890   1.139   1.647 -0.0973  0.3071 -0.0570
  575SOL    HW1 1724   2.792   1.152   1.649  0.7840  1.1624  0.8057
  575SOL    HW2 1725   2.928   1.213   1.705 -1.5860  0.0173 -3.1142
  576SOL     OW 1726   2.172   0.449   1.649 -0.0797  0.5146  0.7762
  576SOL    HW1 1727   2.128   0.370   1.697  0.9216 -0.9448 -1.8648
  576SOL    HW2 1728   2.100   0.522   1.633 -0.9631  1.2997 -2.6103
  577SOL     OW 1729   0.040   1.174   1.997 -0.5278  0.2176 -0.1756
  577SOL    HW1 1730   3.075   1.088   1.982 -0.7684 -0.2928  2.9171
  577SOL    HW2 1731   0.141   1.155   2.008 -0.4993  0.6911 -0.3791
  578SOL     OW 1732   1.720   2.997   2.428 -0.6360  0.5674 -0.0842
  578SOL    HW1 1733   1.649   2.924   2.444  1.6548 -1.5144 -0.5398
  578SOL    HW2 1734   1.737   3.051   2.514  1.3839  0.3814  1.7512
  579SOL     OW 1735   1.957   2.235   1.908  0.0980  0.5890 -0.5005
  579SOL    HW1 1736   2.010   2.311   1.953 -0.5403  0.9698  0.5185
  579SOL    HW2 1737   1.921   2.170   1.978  1.2400  0.1161  1.3174
  580SOL     OW 1738   1.796   1.508   2.077 -0.3630  0.2909 -0.1191
  580SOL    HW1 1739   1.706   1.531   2.116  4.1716 -0.5964 -0.6087
  580SOL    HW2 1740   1.798   1.539   1.981  0.2621 -1.1143  1.3650
  581SOL     OW 1741   1.402   1.088   2.728  0.2602 -0.2737  0.2314
  581SOL    HW1 1742   1.473   1.067   2.658  2.1994  0.9883 -1.3662
  581SOL    HW2 1743   1.351   1.004   2.754 -0.5796  1.2157  2.4045
  582SOL     OW 1744   0.406   2.191   1.906 -0.6336  0.1169  0.8368
  582SOL    HW1 1745   0.508   2.209   1.912  1.3179 -1.1510  0.0537
  582SOL    HW2 1746   0.374   2.218   1.816 -0.5350 -1.7979  1.2081
  583SOL     OW 1747   1.597   1.194   1.188  0.4079  0.3208  0.4394
  583SOL    HW1 1748   1.538   1.161   1.112 -0.8602 -1.1922 -3.7250
  583SOL    HW2 1749   1.622   1.291   1.170  1.2478 -0.5251 -2.0369
  584SOL     OW 1750   1.113   2.343   0.605 -0.3121  0.1727 -0.2650
  584SOL    HW1 1751   1.153   2.276   0.538 -0.8169  1.4890  0.6021
  584SOL    HW2 1752   1.105   2.435   0.564 -1.9076 -1.4433  2.0389
  585SOL     OW 1753   2.674   2.311   3.006 -0.0502  0.1063  0.0666
  585SOL    HW1 1754   2.745   2.275   3.073  1.7167  0.6090  2.6993
  585SOL    HW2 1755   2.718   2.329   2.915 -1.5974 -0.8600  1.1404
  586SOL     OW 1756   2.631   1.563   0.612 -0.0919 -0.2491  0.1139
  586SOL    HW1 1757   2.610   1.488   0.679 -0.7640  3.2022 -2.2798
  586SOL    HW2 1758   2.558   1.638   0.619 -0.6702  0.1286  0.1519
  587SOL     OW 1759   1.004   1.503   2.888  1.0834 -0.5191  0.0934
  587SOL    HW1 1760   0.995   1.411   2.843  0.1267 -2.1073  1.8782
  587SOL    HW2 1761   1.076   1.496   2.954  0.9144  1.1957  0.5971
  588SOL     OW 1762   0.452   0.351   0.659  0.5287  0.0885 -0.1736
  588SOL    HW1 1763   0.354   0.319   0.666 -0.4897  2.1069  1.2939
  588SOL    HW2 1764   0.458   0.455   0.672 -0.1397  1.0850  1.7319
  589SOL     OW 1765   1.238   0.233   0.531  0.1850 -0.1269  0.0288
  589SOL    HW1 1766   1.148   0.208   0.487 -0.4901 -0.1971  0.0908
  589SOL    HW2 1767   1.265   0.334   0.528 -0.9950  1.2289  1.9625
  590SOL     OW 1768   2.160   2.513   0.318 -0.3286  0.1458 -0.1356
  590SOL    HW1 1769   2.227   2.471   0.383 -0.4476 -1.3513 -0.3698
  590SOL    HW2 1770   2.154   2.613   0.333 -1.6680 -4.9502  0.2074
  591SOL     OW 1771   0.367   2.887   1.893 -0.1118  0.2654 -0.4452
  591SOL    HW1 1772   0.269   2.907   1.919 -0.7832  2.5582  0.8364
  591SOL    HW2 1773   0.400   2.792   1.917  0.3349  2.1573 -1.0046
  592SOL     OW 1774   3.065   1.529   2.344 -0.0042 -0.5182 -0.2645
  592SOL    HW1 1775   3.010   1.446   2.331 -1.4634  2.3903 -2.0501
  592SOL    HW2 1776   3.064   1.586   2.256  5.3660  0.4974 -2.3483
  593SOL     OW 1777   2.000   1.702   1.244  0.2161  0.2625  0.3854
  593SOL    HW1 1778   1.986   1.670   1.334  0.0536 -0.7583 -0.3041
  593SOL    HW2 1779   1.962   1.632   1.177  0.3134 -0.2939 -0.4039
  594SOL     OW 1780   0.463   1.251   3.054 -0.0606  0.2109 -0.9824
  594SOL    HW1 1781   0.455   1.338   3.003  0.6356  3.2206  2.4798
  594SOL    HW2 1782   0.377   1.207   3.065  1.0540  1.6453 -0.4822
  595SOL     OW 1783   1.433   1.114   0.966  0.1859  0.6872  0.1486
  595SOL    HW1 1784   1.343   1.100   1.011  1.6773 -1.4649 -1.0291
  595SOL    HW2 1785   1.423   1.107   0.865  0.4666 -0.3371  4.1109
  596SOL     OW 1786   2.954   1.240   0.994  0.0257  0.3642 -0.4455
  596SOL    HW1 1787   3.039   1.190   0.962  0.0605 -2.1593  0.1922
  596SOL    HW2 1788   2.980   1.324   1.047  0.4172  0.8591  0.5491
  597SOL     OW 1789   1.053   2.331   1.899  0.3674  0.0570 -0.8257
  597SOL    HW1 1790   0.985   2.393   1.942  0.2698  1.4162 -0.1752
  597SOL    HW2 1791   1.006   2.255   1.860 -0.9095  4.0219  1.6879
  598SOL     OW 1792   2.159   2.618   1.965 -0.7361  0.0919  0.3404
  598SOL    HW1 1793   2.119   2.559   2.036  2.0658  3.0370 -1.9935
  598SOL    HW2 1794   2.204   2.569   1.884 -1.0672 -2.8400  1.4311
  599SOL     OW 1795   0.868   1.279   0.161 -0.4251 -0.1930  0.4862
  599SOL    HW1 1796   0.921   1.370   0.162  1.4295  3.5781 -0.5660
  599SOL    HW2 1797   0.924   1.200   0.121 -0.3426 -2.3542  0.2626
  600SOL     OW 1798   1.314   0.802   0.101 -0.2531  0.2245 -0.1212
  600SOL    HW1 1799   1.306   0.869   0.028  0.1851  0.7975  1.8185
  600SOL    HW2 1800   1.398   0.747   0.090 -2.3351  0.5704  1.5009
  601SOL     OW 1801   0.888   0.429   1.568 -0.0325 -0.5005  0.1831
  601SOL    HW1 1802   0.986   0.425   1.597  1.5933  2.8165 -0.2945
  601SOL    HW2 1803   0.843   0.514   1.601  0.8251  0.6816 -0.8530
  602SOL     OW 1804   0.435   2.226   0.839  0.5930  0.2178  0.2180
  602SOL    HW1 1805   0.345   2.186   0.807  2.2204 -0.3559 -0.0712
  602SOL    HW2 1806   0.474   2.285   0.765 -1.7197 -1.6205  0.3563
  603SOL     OW 1807   0.996   2.447   2.273 -0.2572 -0.3497 -0.6651
  603SOL    HW1 1808   0.987   2.465   2.175 -0.5453 -1.6700  0.9060
  603SOL    HW2 1809   1.077   2.493   2.309  0.7808  0.1326 -1.0115
  604SOL     OW 1810   2.991   2.097   3.008  0.2475  0.0641  0.5580
  604SOL    HW1 1811   3.079   2.055   2.992 -0.4196  0.6560 -2.1458
  604SOL    HW2 1812   2.916   2.046   2.955 -1.9337  0.2111 -1.5569
  605SOL     OW 1813   2.086   1.578   1.777 -0.0429 -0.0673  0.7719
  605SOL    HW1 1814   1.992   1.561   1.818 -0.8930 -0.5800 -0.9004
  605SOL    HW2 1815   2.077   1.576   1.678 -1.9301  0.7420  1.6185
  606SOL     OW 1816   1.102   1.245   2.754 -0.2192  0.1553 -0.2985
  606SOL    HW1 1817   1.052   1.208   2.670  0.0787 -0.8878  0.6956
  606SOL    HW2 1818   1.191   1.280   2.728 -2.0347 -1.5162 -1.5417
  607SOL     OW 1819   1.198   1.048   1.089 -0.5047 -0.0388  0.6445
  607SOL    HW1 1820   1.217   0.950   1.107 -3.0424 -0.8384  0.0720
  607SOL    HW2 1821   1.098   1.051   1.061  0.6440  1.6494 -1.4250
  608SOL     OW 1822   2.728   1.945   1.963  0.0955  0.6142 -0.6772
  608SOL    HW1 1823   2.781   1.896   1.893 -2.7759 -0.7185  1.8583
  608SOL    HW2 1824   2.760   1.916   2.059 -1.3314  0.2521 -0.2325
  609SOL     OW 1825   2.400   0.118   0.275  0.2098 -0.7868 -0.2541
  609SOL    HW1 1826   2.436   0.069   0.193  0.0443 -0.8519  0.3540
  609SOL    HW2 1827   2.474   0.138   0.341  0.1292 -1.1220 -0.0401
  610SOL     OW 1828   0.015   2.388   1.500  0.2057  0.5858 -0.7146
  610SOL    HW1 1829   0.059   2.400   1.409 -3.5468  1.0370 -0.2117
  610SOL    HW2 1830   0.045   2.299   1.540 -1.4559  3.4080 -0.7985
  611SOL     OW 1831   1.529   2.248   0.533  0.4564  0.1532  0.1002
  611SOL    HW1 1832   1.565   2.215   0.440  1.9078  0.8792  0.5282
  611SOL    HW2 1833   1.498   2.171   0.592  1.0349  4.6247  0.5638
  612SOL     OW 1834   0.816   0.010   1.736 -0.1626  0.5265  0.5971
  612SOL    HW1 1835   0.908   3.083   1.775 -2.3999  1.0702 -0.8867
  612SOL    HW2 1836   0.804   0.114   1.748  0.7347  1.5761  2.3998
  613SOL     OW 1837   3.042   1.900   0.795 -0.5058 -0.5373  0.3927
  613SOL    HW1 1838   2.980   1.821   0.768  0.3854 -0.4830 -0.3379
  613SOL    HW2 1839   3.043   1.971   0.719 -0.7086 -1.5528 -1.1322
  614SOL     OW 1840   1.999   0.507   1.993 -0.2306 -0.2395  0.0750
  614SOL    HW1 1841   2.039   0.599   1.981  0.3060 -0.4062 -1.7536
  614SOL    HW2 1842   1.954   0.470   1.911 -0.6017  1.2250  2.3655
  615SOL     OW 1843   1.200   1.449   1.121 -0.6448  0.0373 -0.0066
  615SOL    HW1 1844   1.100   1.445   1.144 -0.6173  1.1093  1.1026
  615SOL    HW2 1845   1.253   1.427   1.205 -0.4123 -1.4669 -1.5729
  616SOL     OW 1846   1.645   1.915   0.203  0.7556  0.4861 -0.4223
  616SOL    HW1 1847   1.612   1.907   0.106 -1.2299  0.1045  1.3302
  616SOL    HW2 1848   1.726   1.975   0.217  0.0966 -1.1431  0.3343
  617SOL     OW 1849   1.985   0.106   0.394 -0.3658  0.5097  0.2191
  617SOL    HW1 1850   2.063   0.041   0.410  1.3782  1.0160  0.0199
  617SOL    HW2 1851   1.914   0.063   0.337 -0.0536  3.1025 -0.8573
  618SOL     OW 1852   0.583   0.629   2.391 -0.2077  0.2821  0.1454
  618SOL    HW1 1853   0.591   0.727   2.367 -1.6005 -1.3562 -0.3633
  618SOL    HW2 1854   0.674   0.588   2.401  2.6766  0.8883 -0.8349
  619SOL     OW 1855   2.773   1.438   1.372 -0.1077 -0.0660 -0.1096
  619SOL    HW1 1856   2.877   1.427   1.372  1.2427  1.0345  2.2281
  619SOL    HW2 1857   2.730   1.415   1.283 -2.5998  0.4099  1.3716
  620SOL     OW 1858   2.128   2.830   2.609 -0.5193 -0.0610 -0.5009
  620SOL    HW1 1859   2.091   2.926   2.603  1.4144 -1.1021 -1.2224
  620SOL    HW2 1860   2.175   2.797   2.523 -1.3365 -0.0255  0.7052
  621SOL     OW 1861   2.507   1.613   0.036 -0.2037  0.1658 -0.4840
  621SOL    HW1 1862   2.449   1.541   0.001  2.5350  0.6331  1.2499
  621SOL    HW2 1863   2.504   1.622   0.139  0.4667 -0.2977  1.8167
  622SOL     OW 1864   1.841   0.001   1.963  0.5613 -0.4656  0.1144
  622SOL    HW1 1865   1.776   3.014   1.948 -4.8453 -1.0528 -2.9026
  622SOL    HW2 1866   1.908   0.007   1.887 -0.8528  1.8685  0.2204
  623SOL     OW 1867   0.975   2.021   1.156  0.0568 -0.2422  0.5875
  623SOL    HW1 1868   0.927   2.094   1.206  0.9984 -1.9055  0.2018
  623SOL    HW2 1869   0.910   1.969   1.097  0.7437  2.2320 -0.1003
  624SOL     OW 1870   0.139   3.012   0.017 -0.4073  0.6594  0.2250
  624SOL    HW1 1871   0.185   2.943   0.080 -4.4792 -2.2858  3.1105
  624SOL    HW2 1872   0.162   0.010   0.043 -1.0513 -1.2698 -0.2500
  625SOL     OW 1873   0.952   1.735   0.764 -0.1482 -0.2188 -0.2365
  625SOL    HW1 1874   0.859   1.708   0.802 -0.4213  1.0134  1.0669
  625SOL    HW2 1875   0.951   1.790   0.679 -2.0852  1.5017 -0.8531
  626SOL     OW 1876   2.948   2.997   0.007  0.1218  0.3973  0.2846
  626SOL    HW1 1877   3.043   2.988   0.028  0.3226 -0.7805 -1.9163
  626SOL    HW2 1878   2.908   2.902   3.077  1.3482 -6.2874  1.8438
  627SOL     OW 1879   1.375   1.695   2.662 -0.1867 -0.4698  0.5305
  627SOL    HW1 1880   1.464   1.663   2.620  2.5745 -1.1803 -2.2717
  627SOL    HW2 1881   1.299   1.652   2.612  3.2046  0.9926  0.0842
  628SOL     OW 1882   0.190   2.779   2.730 -0.6829 -0.0577 -0.7049
  628SOL    HW1 1883   0.219   2.733   2.646 -1.5889 -1.0007  1.4469
  628SOL    HW2 1884   0.146   2.714   2.796  0.7879 -1.3237 -1.0724
  629SOL     OW 1885   0.600   2.818   2.600  0.3443 -0.2188 -0.1590
  629SOL    HW1 1886   0.658   2.801   2.683  1.0051 -1.6544  2.2794
  629SOL    HW2 1887   0.515   2.867   2.629  0.6305 -0.9563  0.0040
  630SOL     OW 1888   1.481   1.351   2.104 -0.0338 -0.3178 -0.5641
  630SOL    HW1 1889   1.408   1.299   2.156 -0.6316 -0.2690  2.0911
  630SOL    HW2 1890   1.442   1.388   2.015 -0.8403  1.6209 -1.6786
  631SOL     OW 1891   2.153   1.082   0.563 -0.6288  0.2448 -0.1473
  631SOL    HW1 1892   2.221   1.159   0.567  1.1685  3.0253 -0.7423
  631SOL    HW2 1893   2.179   1.002   0.622 -0.2130 -1.0705 -1.0846
  632SOL     OW 1894   2.845   0.419   1.821 -0.3363 -0.0849  0.5261
  632SOL    HW1 1895   2.918   0.483   1.861 -0.6192  0.8737  0.0392
  632SOL    HW2 1896   2.771   0.405   1.886  1.6862  0.3462 -0.9608
  633SOL     OW 1897   0.783   1.763   0.111 -0.4480 -0.7077  0.0005
  633SOL    HW1 1898   0.734   1.835   0.059 -0.3111 -1.3908 -1.9012
  633SOL    HW2 1899   0.842   1.800   0.188  2.3689  2.2343  0.4543
  634SOL     OW 1900   1.929   2.678   2.662 -0.6772 -0.5670 -0.6524
  634SOL    HW1 1901   2.015   2.730   2.684 -0.2330  2.0873 -0.0706
  634SOL    HW2 1902   1.883   2.713   2.579  0.2497  0.5516  2.0088
  635SOL     OW 1903   2.011   0.424   0.232  0.8139 -0.1657 -0.3094
  635SOL    HW1 1904   2.110   0.420   0.254  4.7346  1.6273 -0.5910
  635SOL    HW2 1905   1.955   0.445   0.319  0.9816  1.6540  0.8343
  636SOL     OW 1906   0.795   1.248   0.678 -0.7411 -0.3424  0.1019
  636SOL    HW1 1907   0.836   1.265   0.587 -0.4041  1.9378 -1.9772
  636SOL    HW2 1908   0.835   1.300   0.758 -0.3272 -1.0537  2.9484
  637SOL     OW 1909   2.953   2.111   0.392 -0.2214  0.7814  0.5235
  637SOL    HW1 1910   2.880   2.043   0.416  2.0035  1.1582 -1.1922
  637SOL    HW2 1911   3.010   2.118   0.475  3.2536  0.6303 -2.9262
  638SOL     OW 1912   0.969   2.527   2.830  0.1091 -0.2410 -0.0009
  638SOL    HW1 1913   1.051   2.569   2.870 -0.2183 -0.6617 -1.7846
  638SOL    HW2 1914   0.977   2.508   2.732 -0.6580 -0.7435  3.1719
  639SOL     OW 1915   1.317   1.987   0.159 -0.1624  0.2031 -0.5943
  639SOL    HW1 1916   1.236   1.995   0.099  1.3177  1.9420 -1.1991
  639SOL    HW2 1917   1.303   1.903   0.217 -0.3742 -1.7189  2.8130
  640SOL     OW 1918   1.743   3.044   0.806  0.7407 -0.1400  0.0426
  640SOL    HW1 1919   1.782   2.969   0.868  0.5547  0.8246  2.0039
  640SOL    HW2 1920   1.784   3.035   0.710 -1.6379  0.7648  1.7247
  641SOL     OW 1921   0.033   2.846   0.390 -0.0913 -0.6623 -0.2566
  641SOL    HW1 1922   0.010   2.946   0.385 -1.1128  1.5372 -0.9472
  641SOL    HW2 1923   3.055   2.786   0.358 -0.3585 -2.2777  2.1333
  642SOL     OW 1924   1.124   0.138   1.576 -0.3249 -0.2341 -0.1732
  642SOL    HW1 1925   1.066   0.115   1.496  1.0606 -2.0446  0.2808
  642SOL    HW2 1926   1.122   0.240   1.594  1.7192  2.5980 -1.5807
  643SOL     OW 1927   0.539   1.522   2.007  0.5302 -0.0726  0.7303
  643SOL    HW1 1928   0.438   1.520   2.000  1.0615 -1.0400  1.0335
  643SOL    HW2 1929   0.575   1.610   2.034 -0.5623  2.2041  1.3212
  644SOL     OW 1930   0.780   2.511   0.276  0.2080 -0.1836 -0.2950
  644SOL    HW1 1931   0.791   2.419   0.322 -3.6231 -0.5312  2.4914
  644SOL    HW2 1932   0.848   2.535   0.210 -1.9370 -0.5359  0.3058
  645SOL     OW 1933   1.467   2.205   0.260  0.0402 -0.3892  0.1400
  645SOL    HW1 1934   1.456   2.279   0.190  0.1152 -1.9702  2.3504
  645SOL    HW2 1935   1.455   2.112   0.217  0.3840 -1.3669  0.9030
  646SOL     OW 1936   0.228   1.524   3.064  0.3743 -0.0639 -0.6341
  646SOL    HW1 1937   0.161   1.564   2.994 -0.3782  0.4615 -0.5994
  646SOL    HW2 1938   0.319   1.518   3.012  1.6651 -0.2667 -2.2873
  647SOL     OW 1939   0.523   3.090   1.041 -0.0254  0.2053  0.4565
  647SOL    HW1 1940   0.579   0.037   1.116 -0.3974 -2.2847  1.8376
  647SOL    HW2 1941   0.503   0.063   0.970 -1.5797  0.6467 -0.0997
  648SOL     OW 1942   1.797   0.590   1.783 -0.4571 -0.2865  0.3391
  648SOL    HW1 1943   1.770   0.496   1.754  0.6877  0.9907  1.6963
  648SOL    HW2 1944   1.874   0.627   1.729  1.8900 -0.1254  1.6006
  649SOL     OW 1945   1.294   1.880   2.857  0.1817  0.0426 -0.3658
  649SOL    HW1 1946   1.328   1.838   2.768  0.8534  0.8948 -1.4944
  649SOL    HW2 1947   1.206   1.841   2.883 -0.4527 -0.0605 -0.2689
  650SOL     OW 1948   2.830   1.798   2.172  0.1757  0.7727 -0.5102
  650SOL    HW1 1949   2.834   1.868   2.249 -1.7887  2.6029 -0.6403
  650SOL    HW2 1950   2.923   1.762   2.138  1.8834 -0.0766  0.3928
  651SOL     OW 1951   1.085   0.124   3.074 -0.4416  0.0809  0.1431
  651SOL    HW1 1952   1.117   0.072   2.989  2.7205 -0.3736 -0.8484
  651SOL    HW2 1953   1.156   0.193   3.094 -1.6724  1.2225  0.2120
  652SOL     OW 1954   2.822   1.957   0.135 -0.3069 -0.6785  0.7175
  652SOL    HW1 1955   2.818   1.923   0.226  1.6811 -0.0796 -0.3900
  652SOL    HW2 1956   2.737   1.996   0.103  0.5409  0.1564 -0.8901
  653SOL     OW 1957   0.189   0.083   0.948  0.1040  0.3580  0.3794
  653SOL    HW1 1958   0.119   0.140   0.998 -1.8379  0.0026  0.6763
  653SOL    HW2 1959   0.289   0.099   0.971  2.3078 -1.7266 -0.2116
  654SOL     OW 1960   2.335   0.147   2.440  0.1087  0.2451  0.2033
  654SOL    HW1 1961   2.280   0.120   2.361  2.2021 -0.8316 -0.5165
  654SOL    HW2 1962   2.365   0.059   2.483  2.5276  2.3491  3.5221
  655SOL     OW 1963   0.380   2.576   1.111  0.4454  0.1887  0.6425
  655SOL    HW1 1964   0.299   2.563   1.047 -0.3808 -0.8853 -1.6098
  655SOL    HW2 1965   0.380   2.511   1.187  0.6423  0.2950  2.9589
  656SOL     OW 1966   3.037   2.865   2.386 -0.5580 -0.0223 -0.0752
  656SOL    HW1 1967   3.093   2.949   2.367  2.1052  1.3880  1.6939
  656SOL    HW2 1968   3.073   2.793   2.328  1.0429  0.1053 -1.1924
  657SOL     OW 1969   2.594   0.507   2.439 -0.3415  0.1575  0.1622
  657SOL    HW1 1970   2.589   0.530   2.338  0.3746 -1.1219 -2.0093
  657SOL    HW2 1971   2.678   0.461   2.469  0.7143  0.9720  0.3120
  658SOL     OW 1972   2.124   1.939   0.853  0.3551  0.1799  0.4356
  658SOL    HW1 1973   2.215   1.894   0.864 -0.0849  2.3811  0.9788
  658SOL    HW2 1974   2.133   2.024   0.797  0.1235  0.0485 -1.7254
  659SOL     OW 1975   2.432   2.782   0.037 -0.4064  0.1679  0.3842
  659SOL    HW1 1976   2.338   2.742   0.017  1.9797  2.4578  1.0612
  659SOL    HW2 1977   2.505   2.711   0.022  0.3202  0.4154  0.6062
  660SOL     OW 1978   1.639   1.336   2.772  0.2786  0.0027 -0.1610
  660SOL    HW1 1979   1.607   1.434   2.786 -0.7890 -0.7203  0.0658
  660SOL    HW2 1980   1.562   1.280   2.731 -2.4054  1.0370 -1.5851
  661SOL     OW 1981   2.352   2.435   1.189  0.2964 -0.3311 -0.1614
  661SOL    HW1 1982   2.397   2.390   1.108  2.4203 -1.5481 -2.7961
  661SOL    HW2 1983   2.365   2.378   1.276 -1.8606 -1.4438  2.0126
  662SOL     OW 1984   0.808   0.932   0.197  0.3603 -0.0293 -0.3804
  662SOL    HW1 1985   0.740   0.921   0.120 -1.4397  1.5474  1.3385
  662SOL    HW2 1986   0.763   0.970   0.280  1.1947  0.9760 -1.0356
  663SOL     OW 1987   1.862   2.483   0.186  0.3995  0.4236 -0.5241
  663SOL    HW1 1988   1.877   2.394   0.235 -0.3435 -1.4697  0.6022
  663SOL    HW2 1989   1.952   2.535   0.185  3.7002  0.3308  0.4414
  664SOL     OW 1990   0.657   2.084   1.698 -0.3497 -0.4330 -0.3078
  664SOL    HW1 1991   0.739   2.039   1.661 -1.4713  2.6494 -0.3090
  664SOL    HW2 1992   0.677   2.164   1.761 -0.6474  1.8097  0.9529
  665SOL     OW 1993   1.623   2.232   2.172  0.3972 -0.2276 -0.2151
  665SOL    HW1 1994   1.721   2.256   2.174 -0.4681 -1.1404  1.0342
  665SOL    HW2 1995   1.617   2.135   2.204  2.0357 -0.6175  0.1123
  666SOL     OW 1996   0.203   2.302   0.128 -0.6351  0.0710  0.3295
  666SOL    HW1 1997   0.291   2.255   0.104  0.9509 -2.0689  3.2518
  666SOL    HW2 1998   0.148   2.309   0.037  0.4993 -0.7592 -3.4734
  667SOL     OW 1999   2.347   1.565   1.885  0.1835  0.2157  0.1796
  667SOL    HW1 2000   2.395   1.649   1.845  0.6695  0.3657  1.7491
  667SOL    HW2 2001   2.255   1.560   1.838 -1.6967 -1.2104 -2.6999
  668SOL     OW 2002   0.449   0.700   2.646 -0.0828 -0.1820  0.7259
  668SOL    HW1 2003   0.478   0.684   2.553  1.9674  0.1407  2.7569
  668SOL    HW2 2004   0.530   0.671   2.701 -1.7855 -0.7113  1.7960
  669SOL     OW 2005   1.536   2.382   0.063 -0.3079 -0.0153  0.0507
  669SOL    HW1 2006   1.492   2.473   0.037 -2.0218 -0.1217  1.8426
  669SOL    HW2 2007   1.575   2.344   3.073 -0.4950  0.6231  0.3079
  670SOL     OW 2008   2.399   1.843   2.972 -0.5186 -0.4670  0.3149
  670SOL    HW1 2009   2.355   1.797   2.892 -1.5880  1.4083  1.4990
  670SOL    HW2 2010   2.425   1.769   3.035 -4.2852 -1.7546 -1.3593
  671SOL     OW 2011   0.328   1.271   1.130  0.3974 -0.1075 -0.4952
  671SOL    HW1 2012   0.287   1.285   1.034 -1.4698 -0.9104 -2.2507
  671SOL    HW2 2013   0.366   1.178   1.139 -1.1662  0.9972 -0.9965
  672SOL     OW 2014   2.664   0.876   2.213 -0.1984  0.4983  0.6676
  672SOL    HW1 2015   2.728   0.956   2.216 -0.2906  0.9925 -0.2692
  672SOL    HW2 2016   2.619   0.864   2.302  0.4787  0.5550 -0.7408
  673SOL     OW 2017   2.338   2.480   2.174  0.4343 -0.4847 -0.6488
  673SOL    HW1 2018   2.320   2.448   2.269 -1.0516 -1.3655  0.4306
  673SOL    HW2 2019   2.256   2.525   2.141 -0.2689  0.1242  2.4952
  674SOL     OW 2020   1.198   2.589   2.130 -0.2198 -0.1108 -0.2619
  674SOL    HW1 2021   1.232   2.529   2.051 -2.7509  1.7730  1.2216
  674SOL    HW2 2022   1.213   2.555   2.223 -1.8758 -2.7301 -1.0345
  675SOL     OW 2023   0.570   0.641   1.239 -0.1631  0.2862 -0.5508
  675SOL    HW1 2024   0.513   0.698   1.183  0.4573 -0.4438 -0.8057
  675SOL    HW2 2025   0.543   0.645   1.338 -1.8518 -0.4078 -0.6929
  676SOL     OW 2026   1.802   1.031   0.930 -0.1810 -0.6721 -0.1324
  676SOL    HW1 2027   1.730   0.967   0.895 -0.6461 -1.0685  3.6734
  676SOL    HW2 2028   1.862   1.069   0.853 -0.5302  0.0972 -0.7359
  677SOL     OW 2029   3.035   1.566   2.616 -0.0073 -0.1006  0.1502
  677SOL    HW1 2030   3.038   1.574   2.512  0.1409 -1.1827  2.2992
  677SOL    HW2 2031   2.960   1.503   2.643  1.3559  2.5174 -0.2189
  678SOL     OW 2032   2.450   2.060   1.010 -0.6584  0.5918 -0.7620
  678SOL    HW1 2033   2.484   1.968   0.990  0.1635  2.7133  1.2812
  678SOL    HW2 2034   2.465   2.078   1.109 -0.3568  0.1086 -1.9271
  679SOL     OW 2035   1.756   2.723   0.555 -0.6255 -0.0410 -0.6560
  679SOL    HW1 2036   1.756   2.674   0.469  2.8413  0.6962  1.2039
  679SOL    HW2 2037   1.732   2.660   0.631 -0.5709 -0.3799 -0.6967
  680SOL     OW 2038   0.412   2.482   2.087  0.0834 -0.3209 -0.1974
  680SOL    HW1 2039   0.481   2.435   2.147 -1.1630 -0.3949  1.1644
  680SOL    HW2 2040   0.320   2.456   2.116  1.1234 -0.1700 -0.3708
  681SOL     OW 2041   2.757   1.451   1.835 -0.4727 -0.2228  1.0842
  681SOL    HW1 2042   2.844   1.400   1.853  1.2559 -0.4622  0.0963
  681SOL    HW2 2043   2.742   1.522   1.906  0.6374 -1.2614 -2.7613
  682SOL     OW 2044   0.704   1.651   1.200  0.2736  0.4636  0.5760
  682SOL    HW1 2045   0.727   1.720   1.276 -0.2586  0.8065  0.8988
  682SOL    HW2 2046   0.656   1.686   1.117 -1.9321 -0.0702  1.6588
  683SOL     OW 2047   2.177   1.465   0.995 -0.6468  0.2476  0.2179
  683SOL    HW1 2048   2.221   1.504   0.910  3.5989 -2.2261  0.3488
  683SOL    HW2 2049   2.091   1.505   1.021  2.2674 -0.2143 -1.2425
  684SOL     OW 2050   2.666   1.661   2.873  0.6127  0.1043 -0.2275
  684SOL    HW1 2051   2.594   1.622   2.813  1.5242 -0.2502 -0.6737
  684SOL    HW2 2052   2.629   1.683   2.965  1.2993 -2.2612  1.2192
  685SOL     OW 2053   1.615   1.174   2.997 -0.0758 -0.3871  0.0402
  685SOL    HW1 2054   1.662   1.231   2.922  0.2068  2.8074 -3.3390
  685SOL    HW2 2055   1.517   1.158   2.980  0.1091  2.4052  3.6332
  686SOL     OW 2056   0.304   0.547   1.451  0.4035  0.4242 -0.1024
  686SOL    HW1 2057   0.385   0.605   1.485 -0.7340  0.3570  2.8684
  686SOL    HW2 2058   0.308   0.451   1.488 -0.9279 -0.5013  1.6409
  687SOL     OW 2059   1.158   2.124   2.725  0.1189  0.5827  0.3246
  687SOL    HW1 2060   1.245   2.073   2.709 -0.4796  1.8391 -2.6324
  687SOL    HW2 2061   1.174   2.224   2.702  0.8568 -3.4765  0.2449
  688SOL     OW 2062   0.376   1.553   1.446  0.2164  0.3290 -0.3645
  688SOL    HW1 2063   0.412   1.599   1.528 -0.9433  0.7906 -3.2096
  688SOL    HW2 2064   0.384   1.618   1.364  0.1151  0.7694 -0.3868
  689SOL     OW 2065   1.392   1.101   1.824  0.1082 -0.0495 -0.2095
  689SOL    HW1 2066   1.339   1.188   1.845  2.5398  0.0843  1.7116
  689SOL    HW2 2067   1.488   1.104   1.862 -1.2840  0.4112 -0.6514
  690SOL     OW 2068   2.667   0.826   1.269  0.3709  0.2848  0.5850
  690SOL    HW1 2069   2.672   0.745   1.330  0.2513  2.2113  0.7816
  690SOL    HW2 2070   2.744   0.824   1.200  1.2371 -0.7530 -0.6366
  691SOL     OW 2071   0.701   2.235   1.935 -0.6012 -0.0090  0.5189
  691SOL    HW1 2072   0.716   2.157   1.997 -1.3610  1.2895 -1.4559
  691SOL    HW2 2073   0.750   2.317   1.965  1.0132  1.0069 -0.3541
  692SOL     OW 2074   2.033   0.179   0.954 -0.1117 -0.2011  0.0522
  692SOL    HW1 2075   2.066   0.276   0.953  2.9090 -1.0221  0.4651
  692SOL    HW2 2076   1.930   0.176   0.975 -2.6587 -1.4586  1.6241
  693SOL     OW 2077   0.301   1.119   2.061 -0.4922 -0.0997  0.1229
  693SOL    HW1 2078   0.315   1.166   2.152  2.5620 -0.2149 -1.5214
  693SOL    HW2 2079   0.324   1.021   2.068 -2.3794  0.8988  0.2642
  694SOL     OW 2080   2.136   0.468   1.294  0.1672 -0.8879 -0.2847
  694SOL    HW1 2081   2.114   0.375   1.328 -0.9170  0.8316 -2.2250
  694SOL    HW2 2082   2.231   0.497   1.291 -1.6992  0.0941  1.7962
  695SOL     OW 2083   1.196   1.416   1.671  0.4152  0.3252 -0.0337
  695SOL    HW1 2084   1.178   1.501   1.624 -0.0051 -2.0289 -2.1642
  695SOL    HW2 2085   1.120   1.394   1.739  0.1918  1.0772  1.9485
  696SOL     OW 2086   1.238   2.673   0.225  0.3986 -0.1296  1.0053
  696SOL    HW1 2087   1.268   2.762   0.181 -0.1678 -1.4463 -1.0184
  696SOL    HW2 2088   1.314   2.629   0.271  0.4896 -0.5253  1.5914
  697SOL     OW 2089   0.925   0.311   0.698  0.1432 -0.7615  0.8632
  697SOL    HW1 2090   0.869   0.283   0.617 -0.2595 -2.8776  1.1412
  697SOL    HW2 2091   1.004   0.365   0.667 -3.3605 -2.7674  1.5925
  698SOL     OW 2092   1.186   1.595   2.443  0.1583  0.1849  0.1724
  698SOL    HW1 2093   1.253   1.517   2.418  1.4216 -0.4925 -1.7369
  698SOL    HW2 2094   1.215   1.674   2.389 -1.2261  1.0194  0.9440
  699SOL     OW 2095   1.599   0.987   1.336  0.0614 -0.5206 -0.0182
  699SOL    HW1 2096   1.617   1.054   1.261  1.0428  1.1339 -1.3396
  699SOL    HW2 2097   1.671   0.995   1.405  1.8972 -1.5506 -1.2496
  700SOL     OW 2098   0.886   2.793   0.514  0.3977 -0.1655  0.4152
  700SOL    HW1 2099   0.830   2.753   0.587  0.3693 -2.3393  2.0368
  700SOL    HW2 2100   0.899   2.897   0.520  0.3431  0.8980 -1.3463
  701SOL     OW 2101   2.406   2.993   2.541  0.0070 -0.4799  0.8481
  701SOL    HW1 2102   2.456   2.961   2.623  0.0439  0.2593 -0.5636
  701SOL    HW2 2103   2.443   2.945   2.457 -0.0155  1.4103  1.9904
  702SOL     OW 2104   1.221   0.383   2.897 -0.5179  0.1855  0.1234
  702SOL    HW1 2105   1.279   0.311   2.946  2.1254 -1.9005  1.7814
  702SOL    HW2 2106   1.157   0.423   2.965  2.4214 -0.0244 -0.5589
  703SOL     OW 2107   2.468   2.859   2.315 -0.8112  0.0762  0.0599
  703SOL    HW1 2108   2.451   2.866   2.213 -2.6908  0.7894 -2.3639
  703SOL    HW2 2109   2.542   2.789   2.330  0.1908  1.5341 -1.4710
  704SOL     OW 2110   0.211   1.957   0.879  0.1903 -0.6383  0.5315
  704SOL    HW1 2111   0.231   1.960   0.979  0.5870 -1.3596 -1.0306
  704SOL    HW2 2112   0.112   1.927   0.863  0.4212 -0.6011  2.6374
  705SOL     OW 2113   2.716   0.022   2.241  0.2329 -0.0877  0.3091
  705SOL    HW1 2114   2.813   0.044   2.224 -1.4098 -1.6852  0.0461
  705SOL    HW2 2115   2.686   3.032   2.188 -1.5021 -0.6033 -2.9770
  706SOL     OW 2116   1.807   3.007   0.275  0.7208  0.1259  0.2662
  706SOL    HW1 2117   1.822   2.922   0.219 -0.2413  0.2902  1.6703
  706SOL    HW2 2118   1.707   3.029   0.276 -2.4841 -0.1572  3.5307
  707SOL     OW 2119   0.981   1.802   2.127 -0.0561  0.5979  0.2106
  707SOL    HW1 2120   0.985   1.802   2.228 -2.7231  1.8644  0.1744
  707SOL    HW2 2121   0.932   1.724   2.095  1.7230 -0.4184  1.1837
  708SOL     OW 2122   0.258   2.484   1.729 -1.0619  0.2148  0.3110
  708SOL    HW1 2123   0.278   2.394   1.681 -0.7293  0.4150 -1.3313
  708SOL    HW2 2124   0.335   2.522   1.788 -0.5110  1.6551  1.2662
  709SOL     OW 2125   2.153   3.069   1.845  0.1652  0.1514 -0.2834
  709SOL    HW1 2126   2.128   3.008   1.924  0.0426 -0.4915 -1.2035
  709SOL    HW2 2127   2.198   3.017   1.775 -2.4835  1.9145  1.4186
  710SOL     OW 2128   2.178   0.919   2.298 -0.1404 -0.5428  0.8378
  710SOL    HW1 2129   2.081   0.896   2.294  0.9577 -1.5645 -0.7101
  710SOL    HW2 2130   2.210   0.927   2.394  0.0512 -0.9303  3.0752
  711SOL     OW 2131   0.900   2.170   0.061  0.7581  0.3249  0.0525
  711SOL    HW1 2132   0.882   2.163   0.162 -0.4299 -1.1886 -1.6630
  711SOL    HW2 2133   0.925   2.267   0.044 -2.0295  2.1722  2.1062
  712SOL     OW 2134   0.634   2.429   2.224  0.1637  0.4410 -0.0456
  712SOL    HW1 2135   0.639   2.347   2.277  0.6236  2.3753 -0.4102
  712SOL    HW2 2136   0.692   2.495   2.274 -2.0137  0.0845 -1.9074
  713SOL     OW 2137   1.664   1.214   0.193  0.1663  0.2602 -0.3531
  713SOL    HW1 2138   1.617   1.232   0.106 -0.1556 -0.4382 -2.7335
  713SOL    HW2 2139   1.747   1.269   0.199 -1.1771 -0.8927 -0.8061
  714SOL     OW 2140   0.666   1.189   1.278  0.0517 -0.2886 -0.1971
  714SOL    HW1 2141   0.641   1.171   1.377 -1.8507 -2.4924  2.8375
  714SOL    HW2 2142   0.613   1.269   1.243  0.5263 -0.1650  1.0627
  715SOL     OW 2143   2.083   0.275   2.889  0.0123  0.4261 -0.2729
  715SOL    HW1 2144   2.037   0.364   2.901  0.2370 -0.9443  0.4798
  715SOL    HW2 2145   2.110   0.234   2.981  1.1434  1.7081  2.0138
  716SOL     OW 2146   2.744   2.873   2.029  0.0412  0.1849  0.1758
  716SOL    HW1 2147   2.745   2.950   1.961 -0.6966  1.9699  2.6281
  716SOL    HW2 2148   2.790   2.788   1.989  2.0567 -1.7773 -1.9662
  717SOL     OW 2149   0.075   0.845   0.849 -0.9407 -1.3514 -0.0763
  717SOL    HW1 2150   0.108   0.826   0.754 -1.4857  2.1925 -0.9447
  717SOL    HW2 2151   0.071   0.760   0.909  0.2744  2.5811 -0.8173
  718SOL     OW 2152   0.668   1.330   2.426 -0.2856  0.1105  0.1383
  718SOL    HW1 2153   0.649   1.423   2.460  1.0941 -1.8254  1.4519
  718SOL    HW2 2154   0.635   1.323   2.326 -1.1472  0.3153 -1.1104
  719SOL     OW 2155   2.352   1.395   3.040 -0.1894  0.3421 -0.4239
  719SOL    HW1 2156   2.315   1.327   0.015 -0.4018  0.4636  0.5869
  719SOL    HW2 2157   2.420   1.344   2.979 -1.4213 -0.1197 -2.1877
  720SOL     OW 2158   1.195   0.691   0.853 -0.0511  1.0746 -0.2343
  720SOL    HW1 2159   1.148   0.653   0.939 -2.4910 -2.5096  2.9085
  720SOL    HW2 2160   1.152   0.772   0.819  0.7145  0.6500 -1.0955
  721SOL     OW 2161   2.708   0.369   0.012  0.0869 -0.4602 -0.4163
  721SOL    HW1 2162   2.736   0.279   3.064  0.8260  0.6905 -0.4107
  721SOL    HW2 2163   2.727   0.450   3.043 -0.2956  1.5324  0.7423
  722SOL     OW 2164   2.030   0.711   2.662 -0.4106 -0.3986 -0.1748
  722SOL    HW1 2165   2.122   0.749   2.689  0.5403 -0.1488 -0.5599
  722SOL    HW2 2166   2.050   0.652   2.580 -2.5129 -1.1404 -1.5932
  723SOL     OW 2167   2.754   0.826   0.326 -0.0901 -0.1827 -0.1377
  723SOL    HW1 2168   2.747   0.730   0.361 -0.3360 -1.6693 -0.0267
  723SOL    HW2 2169   2.851   0.862   0.321  3.2347  2.6222 -1.0657
  724SOL     OW 2170   0.879   1.579   2.002  0.7058  0.4389 -0.6351
  724SOL    HW1 2171   0.945   1.518   2.045  1.0535  1.0206  2.0253
  724SOL    HW2 2172   0.833   1.536   1.918 -1.6724  0.5615 -2.5329
  725SOL     OW 2173   1.960   0.863   2.041 -0.4362 -0.4072 -0.2107
  725SOL    HW1 2174   2.061   0.851   2.039 -1.2005 -1.0858 -2.4549
  725SOL    HW2 2175   1.937   0.959   2.009 -1.3358  0.5168 -0.5091
  726SOL     OW 2176   1.497   2.868   0.547 -0.2852 -0.1416 -0.7935
  726SOL    HW1 2177   1.590   2.824   0.537  0.5350  0.9351 -2.9898
  726SOL    HW2 2178   1.424   2.801   0.568  2.2470  2.2946 -1.3696
  727SOL     OW 2179   1.557   1.591   2.198  0.2085 -0.1422  0.0244
  727SOL    HW1 2180   1.508   1.509   2.180  2.1979  0.8922 -0.3459
  727SOL    HW2 2181   1.553   1.665   2.122  0.8547  2.6441 -2.1884
  728SOL     OW 2182   1.632   2.750   1.546 -0.7085 -0.0318  0.2387
  728SOL    HW1 2183   1.586   2.725   1.637 -1.6716  1.1857  2.1926
  728SOL    HW2 2184   1.668   2.664   1.496  0.5997 -0.5576 -0.1973
  729SOL     OW 2185   2.105   1.204   0.940  0.1477  0.2002  1.0769
  729SOL    HW1 2186   2.154   1.294   0.946  2.4839 -1.9218  0.3051
  729SOL    HW2 2187   2.049   1.205   0.854 -0.9611  0.8599 -0.7846
  730SOL     OW 2188   0.460   1.233   2.561  0.3109 -0.5156  0.0919
  730SOL    HW1 2189   0.544   1.272   2.514  1.0125  2.0380 -2.0613
  730SOL    HW2 2190   0.484   1.164   2.632  0.3479  1.7216 -1.4167
  731SOL     OW 2191   0.235   0.183   0.676  0.3843 -0.1791  0.4467
  731SOL    HW1 2192   0.244   0.095   0.622 -0.9059  0.5502 -1.4712
  731SOL    HW2 2193   0.228   0.169   0.775  1.2018  0.6209 -2.8530
  732SOL     OW 2194   1.288   0.814   0.396  0.4610 -0.0405  0.3574
  732SOL    HW1 2195   1.291   0.809   0.293 -0.6663  0.0638 -4.2744
  732SOL    HW2 2196   1.227   0.742   0.438 -0.7301  2.5579  1.5333
  733SOL     OW 2197   0.686   1.687   0.847 -0.1113  0.5395 -0.1441
  733SOL    HW1 2198   0.666   1.585   0.859 -2.8496 -1.5205 -1.8261
  733SOL    HW2 2199   0.620   1.719   0.778  1.6640  2.1559  0.9351
  734SOL     OW 2200   3.091   2.348   3.023 -0.0836 -0.2663  0.2321
  734SOL    HW1 2201   3.034   2.266   3.002  0.4348  2.5343  1.2654
  734SOL    HW2 2202   3.061   2.382   0.017 -0.0919  0.7914  3.1716
  735SOL     OW 2203   1.248   0.790   1.156 -0.2237  0.2285  0.3877
  735SOL    HW1 2204   1.186   0.713   1.128  0.6193  2.5398  1.5598
  735SOL    HW2 2205   1.344   0.755   1.165  0.8626 -0.6141 -0.6419
  736SOL     OW 2206   2.200   2.423   0.049 -0.1431  0.2275  0.4074
  736SOL    HW1 2207   2.182   2.514   0.003  0.7198  0.9415  0.4133
  736SOL    HW2 2208   2.189   2.437   0.147  2.2577  2.0174  2.7983
  737SOL     OW 2209   2.659   0.458   0.694  0.4858  0.5117 -0.2970
  737SOL    HW1 2210   2.618   0.455   0.785  3.0346  1.6423  3.1317
  737SOL    HW2 2211   2.597   0.500   0.627  1.2703 -1.1088  0.7006
  738SOL     OW 2212   2.356   0.234   0.927 -0.6750 -0.9033  0.0889
  738SOL    HW1 2213   2.380   0.231   1.029  2.4395 -0.0271 -1.8068
  738SOL    HW2 2214   2.326   0.150   0.892 -2.8445  3.1785  2.6702
  739SOL     OW 2215   1.383   2.494   0.403  0.2774  0.0530 -0.3950
  739SOL    HW1 2216   1.391   2.392   0.420 -0.3465  0.6056 -1.1877
  739SOL    HW2 2217   1.369   2.545   0.488 -1.4229 -2.8977  1.2933
  740SOL     OW 2218   1.631   0.488   0.980 -0.1190 -0.0227  0.1741
  740SOL    HW1 2219   1.577   0.562   0.931 -1.9483  0.4904 -0.9253
  740SOL    HW2 2220   1.730   0.504   0.957 -2.0433  2.0460 -0.9470
  741SOL     OW 2221   2.665   0.767   0.769  0.2142 -0.3009  0.1862
  741SOL    HW1 2222   2.763   0.800   0.758  1.6954  2.1576  0.8643
  741SOL    HW2 2223   2.628   0.803   0.857  1.7012 -0.2749  1.5352
  742SOL     OW 2224   0.927   1.455   2.506  0.3593  0.4370  0.7319
  742SOL    HW1 2225   1.017   1.505   2.518  2.2727  2.1480  0.0342
  742SOL    HW2 2226   0.849   1.499   2.555  2.4658  2.3883  0.0027
  743SOL     OW 2227   1.578   0.624   1.964 -0.0895  0.5563 -0.2372
  743SOL    HW1 2228   1.667   0.614   1.916  2.5020 -3.4042 -0.1410
  743SOL    HW2 2229   1.519   0.696   1.922 -0.0175 -1.6666 -1.6648
  744SOL     OW 2230   2.206   0.854   1.514  0.8987  0.1022  0.0964
  744SOL    HW1 2231   2.289   0.888   1.466 -0.7033  1.6295  0.0855
  744SOL    HW2 2232   2.173   0.924   1.582 -1.5477  1.4234 -0.3029
  745SOL     OW 2233   1.741   1.556   1.447  0.4803 -0.7813 -0.2404
  745SOL    HW1 2234   1.718   1.597   1.359 -0.5586  0.3280  2.2866
  745SOL    HW2 2235   1.669   1.483   1.465  1.6140 -1.9238 -4.2518
  746SOL     OW 2236   1.888   1.838   0.749 -0.6033  0.1589  0.4747
  746SOL    HW1 2237   1.809   1.807   0.807  0.7264 -0.6821 -0.8761
  746SOL    HW2 2238   1.970   1.867   0.802 -0.5088 -0.8792  1.1694
  747SOL     OW 2239   2.316   1.568   0.790  0.1764 -0.2052 -0.1327
  747SOL    HW1 2240   2.369   1.650   0.790 -1.7126  0.0088 -1.4979
  747SOL    HW2 2241   2.226   1.582   0.746 -0.0624 -1.6358 -0.0600
  748SOL     OW 2242   0.566   2.056   1.041  0.3129  0.0222 -0.0533
  748SOL    HW1 2243   0.542   2.117   0.960  1.4793  0.9068  1.7992
  748SOL    HW2 2244   0.501   2.063   1.120  1.1808  2.9299 -0.5905
  749SOL     OW 2245   2.370   2.911   2.062  0.1780 -0.1186 -0.1662
  749SOL    HW1 2246   2.272   2.882   2.053  1.4496 -2.2875 -0.5670
  749SOL    HW2 2247   2.384   3.009   2.041 -0.4771  3.9271  0.0615
  750SOL     OW 2248   2.320   0.634   0.945  0.1532  0.4796 -1.3169
  750SOL    HW1 2249   2.276   0.680   0.867  1.1009 -1.6743  3.3632
  750SOL    HW2 2250   2.373   0.701   1.007  1.7872 -1.1993  2.0410
  751SOL     OW 2251   2.586   2.950   0.456  0.1322  0.0924  0.3638
  751SOL    HW1 2252   2.582   2.847   0.461  1.7752 -2.8343  1.8922
  751SOL    HW2 2253   2.602   2.983   0.362 -0.3740 -2.8759  2.8700
  752SOL     OW 2254   0.232   2.961   0.564  0.1921  0.5032 -0.0420
  752SOL    HW1 2255   0.196   2.900   0.496  3.1133  4.4072 -0.0122
  752SOL    HW2 2256   0.329   2.990   0.547  0.3269  1.3561 -0.0844
  753SOL     OW 2257   1.680   0.890   2.065  0.2594  0.5859  0.0066
  753SOL    HW1 2258   1.767   0.888   2.023 -1.2642 -0.4909  1.9900
  753SOL    HW2 2259   1.617   0.816   2.044  1.9777 -1.4364  3.7251
  754SOL     OW 2260   1.312   2.414   1.950 -0.2131 -0.2049  0.3796
  754SOL    HW1 2261   1.228   2.358   1.932 -0.8007  0.0114  0.8829
  754SOL    HW2 2262   1.390   2.373   1.900 -0.4287 -1.7546  0.2931
  755SOL     OW 2263   2.527   0.653   0.577 -0.3889  0.5737  0.4286
  755SOL    HW1 2264   2.578   0.690   0.657  1.0149  0.2093 -0.5529
  755SOL    HW2 2265   2.466   0.726   0.549  1.5287 -1.3888  1.3057
  756SOL     OW 2266   1.015   1.811   2.918  0.6703 -0.1132  0.4826
  756SOL    HW1 2267   1.007   1.712   2.924  0.1478  1.6256  0.3391
  756SOL    HW2 2268   0.932   1.838   2.859 -0.0263  0.8116 -0.5088
  757SOL     OW 2269   0.916   3.051   0.523  0.2256  0.5529 -0.2943
  757SOL    HW1 2270   0.952   0.028   0.465 -1.6643  0.5015  0.5187
  757SOL    HW2 2271   0.860   3.088   0.605  0.7983  1.4983  1.7698
  758SOL     OW 2272   1.115   0.044   1.144  0.4526 -0.4322 -0.2782
  758SOL    HW1 2273   1.081   3.080   1.068  1.1102 -0.7749 -0.5231
  758SOL    HW2 2274   1.056   0.040   1.227 -3.0365 -1.8605 -0.4654
  759SOL     OW 2275   0.368   0.616   0.709 -0.0262  0.2999 -0.3373
  759SOL    HW1 2276   0.313   0.673   0.639  0.3617  2.2320  0.4659
  759SOL    HW2 2277   0.315   0.594   0.793  0.5726 -4.7470 -2.3150
  760SOL     OW 2278   2.572   1.111   1.240  0.3885 -0.1549 -0.3290
  760SOL    HW1 2279   2.644   1.043   1.256  0.6696 -1.5163  2.9867
  760SOL    HW2 2280   2.581   1.141   1.143  1.0696 -2.1075 -1.7404
  761SOL     OW 2281   1.813   0.609   0.685  0.1500 -0.1721  0.0704
  761SOL    HW1 2282   1.734   0.565   0.644  0.0733  0.1177  2.3837
  761SOL    HW2 2283   1.823   0.588   0.783 -2.0460 -0.4567 -3.6628
  762SOL     OW 2284   2.131   2.185   0.723  0.4267  0.3474  0.0960
  762SOL    HW1 2285   2.055   2.205   0.663  3.5669  1.0584  1.5430
  762SOL    HW2 2286   2.122   2.238   0.810 -0.6317  1.3569  0.2870
  763SOL     OW 2287   1.342   1.435   1.893 -0.3512  0.0183 -0.6863
  763SOL    HW1 2288   1.279   1.451   1.973  0.7168  0.9400 -0.4242
  763SOL    HW2 2289   1.289   1.429   1.806  0.1048  1.3727 -0.6350
  764SOL     OW 2290   2.534   2.068   2.384 -0.5394 -0.2922  0.1407
  764SOL    HW1 2291   2.520   2.119   2.471  0.7992 -0.2532 -0.2847
  764SOL    HW2 2292   2.616   2.096   2.331  0.6293 -1.1699 -2.3795
  765SOL     OW 2293   0.804   2.457   1.175  0.0104  0.0198  0.0238
  765SOL    HW1 2294   0.725   2.417   1.124  1.9970 -0.4015  1.3846
  765SOL    HW2 2295   0.781   2.552   1.207 -0.5431 -0.3895  0.5446
  766SOL     OW 2296   0.223   1.556   2.288  0.4653  0.6151 -0.2717
  766SOL    HW1 2297   0.125   1.546   2.317 -0.8455  0.2907  1.4951
  766SOL    HW2 2298   0.221   1.562   2.184  0.0786 -0.0315 -1.8893
  767SOL     OW 2299   2.280   0.801   2.726  0.0838 -0.1217  0.2530
  767SOL    HW1 2300   2.361   0.744   2.697 -0.4549  1.3223  0.8392
  767SOL    HW2 2301   2.303   0.869   2.797 -1.2709 -0.9957  1.4144
  768SOL     OW 2302   1.010   0.122   2.574  0.1796 -0.3124  0.2898
  768SOL    HW1 2303   0.989   0.158   2.666  1.1755 -2.6569 -1.8652
  768SOL    HW2 2304   0.936   0.151   2.509 -0.6551 -0.5833 -0.7459
  769SOL     OW 2305   0.168   2.507   0.913 -0.0588 -0.2463 -0.0384
  769SOL    HW1 2306   0.152   2.515   0.809 -1.7022  0.8174 -0.4018
  769SOL    HW2 2307   0.104   2.570   0.967 -0.1458  2.9396 -2.5480
  770SOL     OW 2308   0.887   3.063   0.115 -0.1469 -0.1368 -0.2851
  770SOL    HW1 2309   0.964   3.086   0.052  0.5636  1.1656 -0.3077
  770SOL    HW2 2310   0.815   0.041   0.122  2.2412  1.2388  0.1071
  771SOL     OW 2311   0.979   1.993   2.570 -0.2228  0.8711 -0.3435
  771SOL    HW1 2312   1.036   2.054   2.634  0.1279  1.5940  1.1725
  771SOL    HW2 2313   0.976   2.047   2.480  0.3440 -0.7728  0.5565
  772SOL     OW 2314   2.329   0.104   2.057 -0.1706 -0.4397  0.1061
  772SOL    HW1 2315   2.278   0.127   1.976  2.1945  3.4285 -0.6225
  772SOL    HW2 2316   2.268   0.111   2.137  0.1064  1.5547 -0.1679
  773SOL     OW 2317   1.443   0.130   1.997 -0.2459 -0.0148 -0.2121
  773SOL    HW1 2318   1.533   0.107   2.038 -1.0166  1.0737 -1.1892
  773SOL    HW2 2319   1.420   0.064   1.918 -1.1259  0.6110 -3.0052
  774SOL     OW 2320   1.302   0.909   1.630  0.1062  0.0497 -0.3518
  774SOL    HW1 2321   1.332   0.989   1.687  0.6902  1.6828  0.0378
  774SOL    HW2 2322   1.226   0.918   1.561  1.5219  1.7615 -2.7957
  775SOL     OW 2323   2.205   3.047   0.389 -0.3943 -0.1443  0.1870
  775SOL    HW1 2324   2.233   3.004   0.481 -0.2303 -0.4034  3.0310
  775SOL    HW2 2325   2.267   0.023   0.353 -2.7458  0.4889 -3.6802
  776SOL     OW 2326   2.125   1.265   1.904  0.1615  0.1393 -0.2478
  776SOL    HW1 2327   2.169   1.331   1.843 -0.8098 -0.7135 -1.9752
  776SOL    HW2 2328   2.179   1.177   1.916 -0.7680  0.0464 -0.1421
  777SOL     OW 2329   0.026   1.152   2.495 -0.3210 -0.1866 -0.2803
  777SOL    HW1 2330   0.089   1.073   2.492  0.7534  0.3315  1.5941
  777SOL    HW2 2331   0.004   1.187   2.402 -1.0936  0.5137 -1.8757
  778SOL     OW 2332   2.327   0.978   2.539 -0.0971 -0.1121  0.0605
  778SOL    HW1 2333   2.303   0.914   2.615 -0.7282  1.6191  0.1809
  778SOL    HW2 2334   2.417   0.955   2.494 -0.7000 -0.8701 -0.7329
  779SOL     OW 2335   3.056   0.381   2.619  0.2005 -0.1932 -0.0970
  779SOL    HW1 2336   0.052   0.420   2.651  2.3695 -1.0277 -0.4586
  779SOL    HW2 2337   3.047   0.277   2.623  0.5605 -1.5945 -0.6083
  780SOL     OW 2338   2.218   2.751   2.373  0.7240 -0.1377 -0.0888
  780SOL    HW1 2339   2.133   2.797   2.332 -1.7445  1.5853 -2.7283
  780SOL    HW2 2340   2.301   2.807   2.358 -1.7061 -3.2856  1.5169
  781SOL     OW 2341   2.986   0.955   1.867 -0.8979  0.7335 -0.2959
  781SOL    HW1 2342   2.905   0.919   1.911 -0.2661 -0.3752  0.1830
  781SOL    HW2 2343   2.961   1.016   1.795  0.9312  0.0182  1.5518
  782SOL     OW 2344   1.796   2.314   3.085  0.2598 -0.4113 -0.0785
  782SOL    HW1 2345   1.788   2.388   0.055 -0.5937 -2.7171 -0.9014
  782SOL    HW2 2346   1.862   2.338   3.013 -1.4871 -1.6716  1.0683
  783SOL     OW 2347   0.370   2.182   1.249 -0.1398  0.2914  0.2508
  783SOL    HW1 2348   0.282   2.189   1.194 -2.8288  1.7591  0.8213
  783SOL    HW2 2349   0.398   2.277   1.275  0.8986  3.3666 -3.5665
  784SOL     OW 2350   2.599   0.606   2.180  0.1733  0.0886 -0.2093
  784SOL    HW1 2351   2.507   0.583   2.143 -0.9781  0.9300 -1.4551
  784SOL    HW2 2352   2.624   0.703   2.172 -0.2943  0.4921  0.5581
  785SOL     OW 2353   0.012   0.182   1.136  0.0618  0.1914 -0.1773
  785SOL    HW1 2354   0.023   0.267   1.189 -1.2617 -0.9649  0.4156
  785SOL    HW2 2355   0.025   0.100   1.193  1.4793  1.8774 -0.5162
  786SOL     OW 2356   1.333   2.655   0.617 -0.5200 -0.2172 -0.0579
  786SOL    HW1 2357   1.357   2.629   0.714 -0.2678  1.9069 -1.5530
  786SOL    HW2 2358   1.244   2.696   0.601 -0.4096 -1.2239  1.0319
  787SOL     OW 2359   1.386   0.215   0.799  0.3245  0.4315  0.1719
  787SOL    HW1 2360   1.332   0.239   0.716  2.0578 -1.4924  3.5941
  787SOL    HW2 2361   1.424   0.119   0.782 -1.1265 -0.5276  0.0982
  788SOL     OW 2362   3.071   1.445   1.127  0.3261  0.1294 -0.2193
  788SOL    HW1 2363   0.046   1.514   1.108 -2.6774 -1.4316  1.9958
  788SOL    HW2 2364   3.063   1.414   1.227 -2.0543  1.8021  1.5282
  789SOL     OW 2365   2.939   0.567   2.046 -0.5714  0.1118 -0.0964
  789SOL    HW1 2366   2.872   0.651   2.040 -2.3332  0.1957 -0.1147
  789SOL    HW2 2367   2.905   0.502   2.120  2.4330 -0.6682 -0.7472
  790SOL     OW 2368   1.065   0.786   2.878  0.3656 -0.1776 -0.0346
  790SOL    HW1 2369   1.143   0.797   2.811  0.6551  1.1541 -3.2082
  790SOL    HW2 2370   1.019   0.877   2.893  0.1772  2.6522  1.7148
  791SOL     OW 2371   3.076   2.688   0.085  0.3762  0.0894 -0.0841
  791SOL    HW1 2372   0.080   2.690   0.078 -1.6299  1.0255  1.1099
  791SOL    HW2 2373   3.028   2.692   3.089 -1.5288 -0.2821 -1.6500
  792SOL     OW 2374   1.310   0.548   1.855 -0.0688 -0.1851 -0.4401
  792SOL    HW1 2375   1.245   0.476   1.880  3.9622  0.7650 -0.6522
  792SOL    HW2 2376   1.405   0.522   1.847 -0.6233  3.0449 -2.1692
  793SOL     OW 2377   2.897   0.468   1.311 -0.2817 -0.3252 -0.3903
  793SOL    HW1 2378   2.833   0.454   1.394 -0.3793  0.5134 -0.3424
  793SOL    HW2 2379   2.844   0.488   1.229 -0.3568 -0.8638 -0.4814
  794SOL     OW 2380   2.921   0.170   2.117  0.2003  0.0632 -0.5166
  794SOL    HW1 2381   2.855   0.242   2.142  3.0842 -0.4358 -0.1006
  794SOL    HW2 2382   3.011   0.186   2.162  1.1553  1.2202 -1.5860
  795SOL     OW 2383   0.428   1.864   0.139 -0.2364 -0.4482  0.8455
  795SOL    HW1 2384   0.386   1.941   0.190 -1.0713  1.8013  2.2637
  795SOL    HW2 2385   0.513   1.835   0.184 -0.1449  1.1932 -0.1221
  796SOL     OW 2386   2.753   0.771   0.001 -0.0040 -0.0985  0.5074
  796SOL    HW1 2387   2.754   0.827   0.086 -2.4240 -2.1822 -0.5929
  796SOL    HW2 2388   2.716   0.825   3.020 -2.0007 -1.1008 -0.2996
  797SOL     OW 2389   2.466   2.184   2.622  0.1461  0.1435 -0.3173
  797SOL    HW1 2390   2.389   2.129   2.654  1.4504  3.0385 -0.2538
  797SOL    HW2 2391   2.442   2.283   2.606 -0.0068  1.4393  2.5899
  798SOL     OW 2392   2.861   0.165   1.011  0.4203 -0.0216  0.1795
  798SOL    HW1 2393   2.951   0.175   1.056 -1.3254 -0.9468 -0.4411
  798SOL    HW2 2394   2.862   0.224   0.928 -2.8638 -1.1900  2.1729
  799SOL     OW 2395   0.260   0.049   1.434  0.0444 -0.3302 -0.0969
  799SOL    HW1 2396   0.169   0.028   1.387  0.9701 -2.4322 -0.0983
  799SOL    HW2 2397   0.339   0.010   1.387 -1.4383  0.6735  2.6444
  800SOL     OW 2398   0.360   1.647   0.387  0.1190 -0.5568 -0.5734
  800SOL    HW1 2399   0.291   1.591   0.339 -0.1262 -0.4064  1.6508
  800SOL    HW2 2400   0.453   1.633   0.351 -0.7408 -1.9674  2.5412
  801SOL     OW 2401   1.511   2.002   0.654 -0.1585  0.5529 -0.1081
  801SOL    HW1 2402   1.447   1.956   0.714  0.9626 -0.2923 -2.3134
  801SOL    HW2 2403   1.600   2.032   0.699  1.1890  1.0498  1.3502
  802SOL     OW 2404   1.299   1.133   3.018  0.3634  0.0287  0.3732
  802SOL    HW1 2405   1.259   1.064   2.952 -0.8249 -2.7028 -0.0484
  802SOL    HW2 2406   1.271   1.228   2.986 -0.4992 -1.1089 -0.3679
  803SOL     OW 2407   1.117   1.755   1.865 -0.4602  0.2753 -0.0362
  803SOL    HW1 2408   1.221   1.751   1.867  1.0643 -0.2632 -0.0279
  803SOL    HW2 2409   1.085   1.762   1.961 -3.6030 -0.4404 -3.2927
  804SOL     OW 2410   1.626   2.311   1.126 -0.6733  0.2424 -0.1724
  804SOL    HW1 2411   1.687   2.255   1.069  0.2959  0.6893  2.4781
  804SOL    HW2 2412   1.525   2.289   1.102  1.2721 -0.4345 -1.8197
  805SOL     OW 2413   0.145   2.421   2.093 -0.1429  0.3695 -0.5235
  805SOL    HW1 2414   0.088   2.453   2.014 -0.3927  0.2006 -2.7523
  805SOL    HW2 2415   0.188   2.328   2.075 -0.9749 -1.9678  0.8975
  806SOL     OW 2416   0.477   3.032   0.519  0.0356  0.5446 -0.2163
  806SOL    HW1 2417   0.502   0.037   0.539  0.0344 -0.0439 -1.9535
  806SOL    HW2 2418   0.477   3.012   0.412 -1.7844  0.7892 -3.3953
  807SOL     OW 2419   2.623   0.912   2.877  0.1872  0.1862 -0.4324
  807SOL    HW1 2420   2.527   0.936   2.892 -0.1873  2.5558  0.2761
  807SOL    HW2 2421   2.635   0.854   2.791  0.0260 -2.3116  2.3703
  808SOL     OW 2422   1.343   2.315   0.745 -0.1956 -0.3098 -0.1667
  808SOL    HW1 2423   1.253   2.318   0.698 -0.6047 -0.0408 -1.3766
  808SOL    HW2 2424   1.414   2.315   0.671 -2.0341  0.4662  0.2123
  809SOL     OW 2425   3.070   0.008   0.318  0.1333  0.0986 -0.5887
  809SOL    HW1 2426   2.975   0.035   0.290  1.6396 -0.4658  0.1694
  809SOL    HW2 2427   0.042   0.004   0.238  2.0395 -0.8042 -1.7845
  810SOL     OW 2428   1.184   1.351   0.863 -0.2666 -0.2365  0.0057
  810SOL    HW1 2429   1.206   1.382   0.957  1.4884 -1.6655 -0.4743
  810SOL    HW2 2430   1.235   1.264   0.843  0.5798 -0.6802  1.8890
  811SOL     OW 2431   1.248   2.828   1.350 -0.2356 -0.2329 -0.1370
  811SOL    HW1 2432   1.258   2.924   1.387  0.6889  0.4354  0.1944
  811SOL    HW2 2433   1.219   2.826   1.254 -1.6157 -1.9051 -1.1351
  812SOL     OW 2434   1.308   0.302   0.095  0.4120  0.2433 -0.3600
  812SOL    HW1 2435   1.270   0.221   0.148 -3.9362 -1.8165  0.4431
  812SOL    HW2 2436   1.292   0.389   0.146  0.9534 -0.1504  0.0286
  813SOL     OW 2437   1.144   0.059   2.062  0.8321 -0.1782  0.3991
  813SOL    HW1 2438   1.241   0.076   2.089  0.4089 -0.8845  0.1065
  813SOL    HW2 2439   1.106   0.001   2.133 -0.0290  4.1406 -1.5159
  814SOL     OW 2440   0.550   2.828   1.167 -0.1016  0.7006  0.1110
  814SOL    HW1 2441   0.513   2.913   1.118 -1.0225  3.3954  1.7444
  814SOL    HW2 2442   0.487   2.749   1.162  0.4154 -1.6666 -2.7413
  815SOL     OW 2443   0.125   2.563   0.634 -0.4148  0.0433  0.6340
  815SOL    HW1 2444   0.043   2.604   0.585 -0.2428 -0.4427 -2.4670
  815SOL    HW2 2445   0.178   2.515   0.557  2.1072 -1.0969 -2.4468
  816SOL     OW 2446   2.487   1.542   2.732  0.8121  0.2177 -0.1265
  816SOL    HW1 2447   2.499   1.448   2.779 -0.1008 -1.6419  2.1258
  816SOL    HW2 2448   2.473   1.535   2.632 -0.9673 -0.7228  1.6279
  817SOL     OW 2449   1.619   2.540   2.825 -0.3002 -0.4376 -0.1526
  817SOL    HW1 2450   1.586   2.448   2.860  0.4535 -1.9756  3.1065
  817SOL    HW2 2451   1.717   2.549   2.797 -1.3383 -0.4397 -1.5343
  818SOL     OW 2452   1.279   1.091   0.457 -0.3606  0.1594  0.3203
  818SOL    HW1 2453   1.290   1.140   0.367 -0.4443  0.3677 -1.2630
  818SOL    HW2 2454   1.298   0.989   0.448 -2.0475 -0.4376 -0.2895
  819SOL     OW 2455   1.493   1.948   3.020  0.0984  0.1945  0.0565
  819SOL    HW1 2456   1.441   1.964   0.014  0.5419 -0.7185  0.6527
  819SOL    HW2 2457   1.420   1.907   2.960  1.5042 -1.9363  1.7736
  820SOL     OW 2458   0.643   0.831   3.053  0.7497 -0.4080  0.5480
  820SOL    HW1 2459   0.685   0.868   2.966  2.3494 -0.8226 -1.7552
  820SOL    HW2 2460   0.672   0.732   3.071  1.0663 -2.0196  0.4790
  821SOL     OW 2461   0.457   0.223   0.911  0.1773 -0.2100 -0.0626
  821SOL    HW1 2462   0.478   0.249   0.818 -0.5135  0.0395  1.8409
  821SOL    HW2 2463   0.479   0.301   0.973  1.7116 -1.0480 -0.0815
  822SOL     OW 2464   1.591   2.552   2.360  0.6649  0.1627  0.4775
  822SOL    HW1 2465   1.576   2.480   2.428  1.7906  2.3911 -2.4890
  822SOL    HW2 2466   1.553   2.531   2.264 -0.4761  1.0656 -3.9961
  823SOL     OW 2467   1.028   0.794   2.169 -0.0027 -0.2387  0.3289
  823SOL    HW1 2468   1.128   0.792   2.142 -2.0961 -0.1229  2.8923
  823SOL    HW2 2469   1.015   0.784   2.272 -1.5877 -1.3798 -2.1760
  824SOL     OW 2470   2.375   0.250   1.448 -0.3023  0.2721  0.3145
  824SOL    HW1 2471   2.297   0.304   1.469  0.0238 -1.0181 -1.2204
  824SOL    HW2 2472   2.385   0.171   1.512 -0.2927 -0.4465 -1.7937
  825SOL     OW 2473   0.599   1.344   0.200 -0.2477 -0.4337 -0.1301
  825SOL    HW1 2474   0.689   1.298   0.186  0.2374  0.6664  1.3664
  825SOL    HW2 2475   0.533   1.323   0.128 -1.6792  0.9820 -0.1408
  826SOL     OW 2476   2.115   0.513   2.491  0.0281 -0.9837 -0.6236
  826SOL    HW1 2477   2.058   0.427   2.510  0.9282 -2.4663 -0.7347
  826SOL    HW2 2478   2.215   0.491   2.493 -0.4988 -1.2406  0.8936
  827SOL     OW 2479   0.733   2.270   2.517 -0.4253  0.5295  0.1219
  827SOL    HW1 2480   0.660   2.258   2.446  1.3559  1.6647 -0.4792
  827SOL    HW2 2481   0.704   2.219   2.604 -1.3669  0.5590 -2.3563
  828SOL     OW 2482   2.650   0.081   1.199  0.0743 -0.3699  0.2185
  828SOL    HW1 2483   2.725   0.104   1.127  2.4627  1.1060 -2.2374
  828SOL    HW2 2484   2.636   3.078   1.202  0.6970  1.3113 -2.9767
  829SOL     OW 2485   1.213   1.706   1.350 -0.4340 -0.0220 -0.0959
  829SOL    HW1 2486   1.277   1.632   1.341 -2.5309  1.5223  2.2326
  829SOL    HW2 2487   1.156   1.707   1.437 -2.0824 -0.1726  2.1296
  830SOL     OW 2488   0.779   1.007   1.784  0.4916 -0.1888  0.3340
  830SOL    HW1 2489   0.851   0.950   1.738 -1.0896  0.4127  1.3647
  830SOL    HW2 2490   0.717   1.036   1.707 -3.2668  0.0760  0.8497
  831SOL     OW 2491   3.022   1.787   0.029 -0.1299  0.0697 -0.7173
  831SOL    HW1 2492   2.964   1.870   0.048  2.7005 -0.2629  1.0805
  831SOL    HW2 2493   3.091   1.817   3.054 -0.3722  5.1389 -0.5264
  832SOL     OW 2494   1.198   2.941   0.107 -0.1171  0.4220 -0.6950
  832SOL    HW1 2495   1.097   2.928   0.116 -0.3546 -0.7293 -0.0552
  832SOL    HW2 2496   1.227   2.967   0.013 -0.7418 -0.7188 -1.9433
  833SOL     OW 2497   3.049   0.247   1.671  0.1125  0.4714  0.4257
  833SOL    HW1 2498   2.980   0.288   1.730 -0.8676 -0.3042 -2.0998
  833SOL    HW2 2499   3.093   0.323   1.618 -0.5934 -0.5072  1.6740
  834SOL     OW 2500   0.092   1.068   1.018  0.5219  0.4772 -0.2728
  834SOL    HW1 2501   0.156   1.143   0.999 -2.7882 -2.2948 -2.0480
  834SOL    HW2 2502   0.120   0.991   0.962 -3.3837  3.7599  1.8937
  835SOL     OW 2503   2.464   2.984   0.996  0.3849  0.3054  0.1220
  835SOL    HW1 2504   2.389   3.009   0.931  1.0003  2.0579  1.4355
  835SOL    HW2 2505   2.541   3.035   0.959  0.7494 -0.2151  1.4640
  836SOL     OW 2506   0.823   1.853   2.724  0.0939  0.2459  0.5927
  836SOL    HW1 2507   0.894   1.900   2.665 -1.2859 -0.0418 -0.2998
  836SOL    HW2 2508   0.737   1.911   2.719 -0.8086 -1.4299 -0.8829
  837SOL     OW 2509   1.747   2.079   2.955  0.0527  0.0049  0.2207
  837SOL    HW1 2510   1.663   2.026   2.972 -0.2184  3.0336 -1.6857
  837SOL    HW2 2511   1.749   2.165   3.008  2.3697 -0.8764 -4.5220
  838SOL     OW 2512   0.191   0.799   2.300  0.0634 -0.4511  0.0387
  838SOL    HW1 2513   0.172   0.710   2.339  3.3233  1.4210  0.1885
  838SOL    HW2 2514   0.114   0.834   2.239  1.3242  4.0476  1.0576
  839SOL     OW 2515   1.004   1.042   2.912  0.1764 -0.0342 -0.3758
  839SOL    HW1 2516   1.057   1.118   2.864 -2.8675 -1.2125 -3.0342
  839SOL    HW2 2517   1.033   1.037   3.009  0.6408  2.1889  2.0937
  840SOL     OW 2518   1.667   0.607   0.272  0.2112  0.5140  0.2452
  840SOL    HW1 2519   1.739   0.546   0.317 -3.7590 -1.0358  2.5362
  840SOL    HW2 2520   1.651   0.691   0.330  0.2614  1.5569 -1.3371
  841SOL     OW 2521   0.711   2.558   0.812  0.4780  0.0273 -0.1574
  841SOL    HW1 2522   0.652   2.498   0.869  0.4218  1.9589  0.3129
  841SOL    HW2 2523   0.679   2.562   0.717  1.9323  1.3385  0.4108
  842SOL     OW 2524   0.330   0.577   0.327 -0.0358 -0.3850 -0.4224
  842SOL    HW1 2525   0.230   0.602   0.328 -0.4280  1.8838  1.8334
  842SOL    HW2 2526   0.383   0.664   0.320 -0.6829  0.7294 -0.8636
  843SOL     OW 2527   0.514   0.723   1.515 -0.3427 -0.3698  0.1595
  843SOL    HW1 2528   0.590   0.724   1.589  0.2290  0.4431  0.2478
  843SOL    HW2 2529   0.476   0.819   1.498  1.0594  0.8977 -1.2595
  844SOL     OW 2530   1.912   2.409   2.724 -0.0599  0.3383  0.1289
  844SOL    HW1 2531   1.941   2.509   2.721  0.4768  4.6976  0.5787
  844SOL    HW2 2532   1.961   2.362   2.799 -1.8158 -1.0568  0.0723
  845SOL     OW 2533   2.425   0.109   1.657  0.4968 -0.0886  0.1219
  845SOL    HW1 2534   2.497   0.082   1.726 -1.0952  0.2785  0.6122
  845SOL    HW2 2535   2.355   0.029   1.661 -2.9368 -1.5995 -0.0845
  846SOL     OW 2536   2.193   1.757   2.517  0.1228  0.1824 -0.4188
  846SOL    HW1 2537   2.104   1.729   2.473  1.2674  1.2347  0.9455
  846SOL    HW2 2538   2.253   1.791   2.441  2.7383  0.5883 -2.1027
  847SOL     OW 2539   2.086   2.874   2.027 -0.3319  0.5240 -0.1240
  847SOL    HW1 2540   2.021   2.861   2.104  2.1191 -1.0754 -0.0768
  847SOL    HW2 2541   2.098   2.785   1.981  1.0426  2.1716  0.5253
  848SOL     OW 2542   0.225   2.822   0.210  0.0567  0.1966  0.0539
  848SOL    HW1 2543   0.255   2.726   0.184 -1.2277 -0.1943 -1.5309
  848SOL    HW2 2544   0.148   2.818   0.285 -0.6484  1.8776  2.8479
  849SOL     OW 2545   0.513   2.777   1.487 -0.1438  0.3026  0.3654
  849SOL    HW1 2546   0.521   2.838   1.404 -2.2891  3.9984 -3.2133
  849SOL    HW2 2547   0.549   2.824   1.570  3.1722 -1.0056  0.8012
  850SOL     OW 2548   0.122   1.656   0.974 -0.0648  0.2542  0.0656
  850SOL    HW1 2549   0.060   1.715   1.031 -1.1705 -0.8804 -1.9051
  850SOL    HW2 2550   0.222   1.660   0.992 -1.4387 -1.2651 -1.1947
  851SOL     OW 2551   2.955   0.604   2.996  0.1331 -0.1931  0.1691
  851SOL    HW1 2552   3.008   0.653   2.924 -0.1590 -2.6928 -0.3312
  851SOL    HW2 2553   2.875   0.664   3.030 -0.3357  1.3958 -3.8274
  852SOL     OW 2554   1.895   2.020   2.502 -0.1874 -0.0366  0.1572
  852SOL    HW1 2555   1.831   1.952   2.545  3.2053 -2.7472 -0.2171
  852SOL    HW2 2556   1.995   2.015   2.528 -0.6768 -0.0423 -0.9318
  853SOL     OW 2557   0.762   1.682   0.455 -0.6261  0.2109  0.4122
  853SOL    HW1 2558   0.714   1.733   0.527  0.6646 -3.7544 -0.3101
  853SOL    HW2 2559   0.702   1.620   0.394 -4.1405 -0.9925 -3.2554
  854SOL     OW 2560   1.633   1.200   1.911  0.1409  0.4344 -0.1874
  854SOL    HW1 2561   1.634   1.260   1.990  0.4402 -4.6841 -2.0709
  854SOL    HW2 2562   1.681   1.226   1.826 -1.8320 -1.1902  1.2566
  855SOL     OW 2563   0.451   2.158   2.895 -0.0732  0.0772  0.1478
  855SOL    HW1 2564   0.446   2.153   3.000  1.0694 -0.0721  2.8030
  855SOL    HW2 2565   0.357   2.163   2.854  0.2073  1.4925 -0.0326
  856SOL     OW 2566   0.439   0.067   1.893  0.0873  0.7561  0.1449
  856SOL    HW1 2567   0.413   3.065   1.900 -0.3617  0.8927  0.1662
  856SOL    HW2 2568   0.362   0.127   1.925 -0.5556 -0.8161  0.0021
  857SOL     OW 2569   0.758   0.270   1.735  0.0655  0.3013  0.0955
  857SOL    HW1 2570   0.774   0.299   1.834 -1.2857 -1.8952 -2.3599
  857SOL    HW2 2571   0.810   0.336   1.673  2.9951  1.9400  0.0470
  858SOL     OW 2572   3.037   1.987   2.220 -0.0691 -0.4090  0.5448
  858SOL    HW1 2573   3.030   1.954   2.316  0.0228 -0.4368 -1.0123
  858SOL    HW2 2574   3.075   2.085   2.227  2.1390  1.4085 -0.3476
  859SOL     OW 2575   2.075   2.328   0.948 -0.4020  0.4700  0.0704
  859SOL    HW1 2576   2.072   2.371   1.040  1.5622 -0.7513  3.9144
  859SOL    HW2 2577   1.985   2.278   0.928 -0.4766 -2.3273  1.9768
  860SOL     OW 2578   2.081   0.608   0.654  0.0943 -0.3166  0.4455
  860SOL    HW1 2579   2.116   0.523   0.694 -0.0685 -0.2261  0.7850
  860SOL    HW2 2580   1.980   0.601   0.662 -0.3421 -0.9766  0.2381
  861SOL     OW 2581   0.255   0.532   0.931 -0.8209 -0.0659 -0.4084
  861SOL    HW1 2582   0.320   0.471   0.983  2.8161  1.3390  3.2929
  861SOL    HW2 2583   0.162   0.494   0.929  0.2292 -1.7142 -1.4525
  862SOL     OW 2584   2.365   0.654   1.611 -0.5305 -0.4029  0.1071
  862SOL    HW1 2585   2.309   0.574   1.605 -0.3063 -0.3655  0.3125
  862SOL    HW2 2586   2.314   0.739   1.592  0.3062 -0.5806 -1.2067
  863SOL     OW 2587   0.202   1.329   1.389 -0.4294  0.5327 -0.1599
  863SOL    HW1 2588   0.241   1.298   1.296 -0.8753 -0.0626 -5.0721
  863SOL    HW2 2589   0.259   1.399   1.433  0.7765  1.5514 -0.5413
  864SOL     OW 2590   2.621   0.052   1.823 -0.3175  0.0003  0.3678
  864SOL    HW1 2591   2.604   0.061   1.922 -2.2201 -2.1265  0.5921
  864SOL    HW2 2592   2.720   0.049   1.812  0.1344  0.2068  1.8539
  865SOL     OW 2593   1.647   0.157   2.224  0.0476  0.0219  0.0015
  865SOL    HW1 2594   1.625   0.232   2.164 -0.6143 -1.5457 -0.1707
  865SOL    HW2 2595   1.745   0.135   2.236 -2.0869  2.0424  0.2012
  866SOL     OW 2596   2.329   2.896   0.603 -0.0898  0.1615  0.2725
  866SOL    HW1 2597   2.305   2.796   0.625 -0.7861 -3.0678  1.5687
  866SOL    HW2 2598   2.408   2.897   0.543 -2.2023 -0.4783  0.3160
  867SOL     OW 2599   2.486   2.709   0.812  0.2350 -0.4193  0.1890
  867SOL    HW1 2600   2.538   2.795   0.799  1.6239 -1.3399  0.7685
  867SOL    HW2 2601   2.428   2.715   0.896  0.1263 -0.3622 -3.4701
  868SOL     OW 2602   1.536   1.598   2.856 -0.3031  0.1702  0.3762
  868SOL    HW1 2603   1.453   1.633   2.815  0.2396 -1.3766  0.8069
  868SOL    HW2 2604   1.535   1.608   2.957 -0.2607 -0.6638 -0.6394
  869SOL     OW 2605   2.404   1.792   0.624  0.0908 -0.2339 -0.0439
  869SOL    HW1 2606   2.313   1.779   0.577 -1.6833  0.1206  2.1440
  869SOL    HW2 2607   2.464   1.852   0.568  1.6329  2.2028  2.3992
  870SOL     OW 2608   2.772   1.905   0.412  0.2161 -0.1901  0.3759
  870SOL    HW1 2609   2.784   1.802   0.415 -0.2133 -1.2654  2.6996
  870SOL    HW2 2610   2.681   1.932   0.457  0.2877 -0.7464  2.2324
  871SOL     OW 2611   0.141   1.088   1.495 -0.2032  0.1264 -0.2575
  871SOL    HW1 2612   0.162   1.183   1.460  1.5372 -1.1615 -1.6910
  871SOL    HW2 2613   0.086   1.046   1.421  0.6875  1.1230  1.5151
  872SOL     OW 2614   0.466   1.535   2.397 -0.3711 -0.5015  0.3033
  872SOL    HW1 2615   0.377   1.544   2.349  0.5246  0.5404 -0.7676
  872SOL    HW2 2616   0.531   1.602   2.358  0.3973  2.2542  0.5801
  873SOL     OW 2617   0.056   2.777   1.394 -0.1107 -0.1632  0.8265
  873SOL    HW1 2618   0.140   2.730   1.430 -1.5163  1.8786  0.9841
  873SOL    HW2 2619   0.049   2.763   1.292 -0.6463 -1.1448 -5.1206
  874SOL     OW 2620   1.283   0.672   2.130  0.2043 -0.3103 -0.1559
  874SOL    HW1 2621   1.314   0.637   2.037  2.6513 -3.6870 -2.7298
  874SOL    HW2 2622   1.350   0.651   2.207  1.4145 -0.0145  2.3050
  875SOL     OW 2623   2.671   0.018   0.897 -0.4651  0.0906  0.0007
  875SOL    HW1 2624   2.749   0.071   0.939 -1.6181  0.6779 -0.5613
  875SOL    HW2 2625   2.662   0.046   0.798 -0.2765  1.8781 -1.4609
  876SOL     OW 2626   0.905   1.332   0.441  0.0975 -0.1386 -0.0791
  876SOL    HW1 2627   0.869   1.335   0.344 -0.5205  0.0820  0.0513
  876SOL    HW2 2628   0.958   1.418   0.466 -0.0241 -2.7214 -2.5386
  877SOL     OW 2629   1.063   0.882   1.424 -0.5581  0.2089  0.1165
  877SOL    HW1 2630   1.058   0.984   1.413  1.1630 -2.8144  0.4099
  877SOL    HW2 2631   1.096   0.838   1.338 -3.6815 -2.8453 -1.2524
  878SOL     OW 2632   2.415   2.139   0.297 -0.3520  0.5035  0.3550
  878SOL    HW1 2633   2.371   2.201   0.363  1.6859 -2.8372 -0.1480
  878SOL    HW2 2634   2.435   2.191   0.212  0.3953  0.0882  0.4418
  879SOL     OW 2635   2.476   2.032   1.993  0.3203  1.0913 -0.0401
  879SOL    HW1 2636   2.576   2.026   1.981 -1.8940 -1.1475 -1.0578
  879SOL    HW2 2637   2.446   2.133   1.989  1.7427  3.1840 -2.0079
  880SOL     OW 2638   0.875   2.209   1.310 -0.3000  0.3707 -0.4962
  880SOL    HW1 2639   0.947   2.248   1.372  0.0825  0.8631 -3.5244
  880SOL    HW2 2640   0.841   2.278   1.243  2.3660 -0.0000  0.6673
  881SOL     OW 2641   0.959   1.938   0.564  0.0203 -0.2692 -0.2786
  881SOL    HW1 2642   0.904   2.000   0.626  0.0141 -2.4528  0.9755
  881SOL    HW2 2643   0.938   1.966   0.467 -0.2193  1.0520  3.1046
  882SOL     OW 2644   1.901   1.376   0.235 -0.1257  0.0325 -0.2238
  882SOL    HW1 2645   1.896   1.459   0.180 -2.2104 -2.3948  0.4229
  882SOL    HW2 2646   2.000   1.353   0.247 -1.2709  0.2992 -0.7949
  883SOL     OW 2647   1.524   0.738   1.180 -0.2750 -0.3229  0.1529
  883SOL    HW1 2648   1.544   0.827   1.229  0.3143 -0.8631  1.3635
  883SOL    HW2 2649   1.564   0.666   1.236  0.7075  1.7799 -2.2174
  884SOL     OW 2650   2.970   2.623   0.551 -0.7119  0.2830 -0.2149
  884SOL    HW1 2651   2.953   2.608   0.453 -0.8631  1.9994 -1.8645
  884SOL    HW2 2652   2.943   2.717   0.582 -0.4925 -0.8644 -0.5894
  885SOL     OW 2653   1.000   1.384   2.243  0.5751 -0.2984 -0.2551
  885SOL    HW1 2654   0.952   1.403   2.333 -2.0830  1.4389  2.1800
  885SOL    HW2 2655   0.987   1.282   2.226  2.1894  0.7315  1.0914
  886SOL     OW 2656   0.954   1.755   2.394  0.9704  0.8544  0.5682
  886SOL    HW1 2657   0.982   1.817   2.467  1.3815  0.4175 -0.1092
  886SOL    HW2 2658   1.007   1.668   2.398  0.7454 -1.2639  0.8580
  887SOL     OW 2659   1.490   0.689   0.900 -0.0327 -0.3692 -0.3904
  887SOL    HW1 2660   1.511   0.731   0.993  1.3050 -3.5708 -0.0350
  887SOL    HW2 2661   1.387   0.697   0.878  1.7256  3.8231 -1.4740
  888SOL     OW 2662   2.223   0.775   2.047 -0.3415 -0.3141  0.2974
  888SOL    HW1 2663   2.260   0.679   2.043 -1.8487  0.1765 -1.2733
  888SOL    HW2 2664   2.238   0.804   2.144  0.0288 -0.1346  1.6055
  889SOL     OW 2665   2.875   1.954   1.025 -0.0606  0.8828 -0.1232
  889SOL    HW1 2666   2.940   1.971   0.949 -1.4347  0.6233  1.4443
  889SOL    HW2 2667   2.869   2.033   1.084 -1.6643  0.1337  0.2874
  890SOL     OW 2668   1.010   2.085   0.319 -0.4399  0.1773 -0.1369
  890SOL    HW1 2669   1.097   2.108   0.368  2.9224 -0.1858  3.1065
  890SOL    HW2 2670   1.035   2.026   0.239  2.1309 -1.7883  0.7603
  891SOL     OW 2671   2.893   0.393   2.841  0.2440  0.1628  1.1228
  891SOL    HW1 2672   2.913   0.470   2.900 -2.2761 -0.5926 -1.6433
  891SOL    HW2 2673   2.955   0.393   2.761  2.5962 -1.9218 -0.1285
  892SOL     OW 2674   2.965   2.174   1.165 -0.7405 -0.0063  0.3426
  892SOL    HW1 2675   3.067   2.180   1.139  2.7996 -1.7138 -2.3471
  892SOL    HW2 2676   2.947   2.212   1.258 -2.1683 -2.7544 -0.1790
  893SOL     OW 2677   1.546   0.231   1.005  0.6268 -0.0691 -0.2359
  893SOL    HW1 2678   1.495   0.206   0.919 -0.6090  0.0252 -0.2549
  893SOL    HW2 2679   1.574   0.331   0.997 -0.6469 -3.0019 -3.5410
  894SOL     OW 2680   2.885   0.333   0.804  0.4597  0.0608  0.1681
  894SOL    HW1 2681   2.941   0.311   0.719  0.2108  0.5564 -1.9104
  894SOL    HW2 2682   2.793   0.385   0.782 -4.7743  0.8561  1.7743
  895SOL     OW 2683   1.805   1.620   2.805 -0.4226  0.0623 -0.5268
  895SOL    HW1 2684   1.827   1.540   2.747  0.7264 -0.5262  0.7011
  895SOL    HW2 2685   1.712   1.619   2.839 -0.3772 -0.0197 -2.0826
  896SOL     OW 2686   2.010   0.668   1.631  0.3020 -0.5867 -0.2162
  896SOL    HW1 2687   2.096   0.708   1.591  0.5345 -1.4912 -0.0032
  896SOL    HW2 2688   1.928   0.691   1.569 -2.9763  1.1275 -0.2196
  897SOL     OW 2689   3.024   1.303   1.394  0.0719 -0.0026  0.3939
  897SOL    HW1 2690   2.992   1.205   1.408  1.0724 -2.6381  0.3894
  897SOL    HW2 2691   0.032   1.318   1.401  2.5455  0.2557  1.5765
  898SOL     OW 2692   2.000   2.460   2.113  0.0858 -0.5726  0.2152
  898SOL    HW1 2693   1.921   2.526   2.113 -1.1840 -1.2047 -3.9823
  898SOL    HW2 2694   1.970   2.376   2.160  0.0286 -0.5067  2.8164
  899SOL     OW 2695   0.905   1.531   1.076 -0.1813  0.7464 -0.1169
  899SOL    HW1 2696   0.978   1.608   1.071  0.6793  2.6244 -1.9654
  899SOL    HW2 2697   0.819   1.572   1.109 -0.1770  2.5993  0.4375
  900SOL     OW 2698   1.305   2.440   2.337  0.4401 -0.1476 -0.1055
  900SOL    HW1 2699   1.279   2.347   2.320  0.2885  1.4929  3.2760
  900SOL    HW2 2700   1.345   2.454   2.435 -0.8731  1.0761 -1.7227
  901SOL     OW 2701   0.704   1.823   2.305 -0.2113  0.1802 -0.0328
  901SOL    HW1 2702   0.634   1.821   2.379  3.0181  1.9514 -2.9293
  901SOL    HW2 2703   0.796   1.794   2.342 -3.9727  3.1619  3.3833
  902SOL     OW 2704   2.151   1.202   2.933  0.2271  0.1391 -0.1154
  902SOL    HW1 2705   2.122   1.197   3.030 -1.8580  0.6276 -0.3975
  902SOL    HW2 2706   2.146   1.295   2.896  0.2738  1.6703  1.6091
  903SOL     OW 2707   1.939   1.527   3.073 -0.1949 -0.0021  0.0261
  903SOL    HW1 2708   2.025   1.503   0.022 -2.3363 -2.0267 -2.6457
  903SOL    HW2 2709   1.941   1.554   2.971 -2.9796  0.2619 -3.2343
  904SOL     OW 2710   1.370   1.136   2.269  0.1195 -0.4082 -0.0334
  904SOL    HW1 2711   1.472   1.125   2.251 -1.2601 -0.9507 -0.1170
  904SOL    HW2 2712   1.323   1.043   2.284 -3.4052 -0.8322 -0.8104
  905SOL     OW 2713   2.526   0.449   0.921 -0.1694 -0.6119 -0.2032
  905SOL    HW1 2714   2.489   0.356   0.917  0.9002 -0.5364 -0.5308
  905SOL    HW2 2715   2.457   0.519   0.915 -0.3297 -3.0336  3.0996
  906SOL     OW 2716   0.332   1.627   0.667 -0.1135  0.5341  0.2880
  906SOL    HW1 2717   0.241   1.587   0.696  1.7919 -1.6623  4.0092
  906SOL    HW2 2718   0.344   1.620   0.564  1.6351 -0.0383 -0.8666
  907SOL     OW 2719   1.511   3.027   0.336 -0.0120  0.2533 -0.3337
  907SOL    HW1 2720   1.485   2.965   0.416  0.9279 -0.4150  3.4207
  907SOL    HW2 2721   1.519   0.023   0.382  0.0017 -0.9750  0.0482
  908SOL     OW 2722   1.531   2.658   1.757  0.4026  0.3326  0.3101
  908SOL    HW1 2723   1.509   2.559   1.750  0.5739  2.4110  3.8127
  908SOL    HW2 2724   1.451   2.705   1.799  1.2122 -0.6005  0.4163
  909SOL     OW 2725   2.542   0.674   1.806  0.0062 -0.1269 -0.4774
  909SOL    HW1 2726   2.563   0.589   1.857 -0.7250 -0.1715 -3.1449
  909SOL    HW2 2727   2.464   0.655   1.745  0.5566 -1.3539  0.3287
  910SOL     OW 2728   1.450   3.071   2.546 -0.8855  0.2117 -0.2957
  910SOL    HW1 2729   1.407   3.094   2.456 -2.1642 -1.1287  0.0079
  910SOL    HW2 2730   1.467   2.972   2.546 -1.1933 -2.1433  0.8224
  911SOL     OW 2731   2.507   1.544   2.443  0.0948  0.1189 -0.4097
  911SOL    HW1 2732   2.508   1.618   2.369  3.0224 -1.6685 -4.0423
  911SOL    HW2 2733   2.437   1.473   2.414 -1.3971 -1.6596  0.3674
  912SOL     OW 2734   2.342   2.261   1.415 -0.1396  0.3755 -0.1383
  912SOL    HW1 2735   2.393   2.341   1.456  1.5326  2.6740  0.6713
  912SOL    HW2 2736   2.257   2.246   1.472  3.3215  0.1161 -3.1342
  913SOL     OW 2737   2.482   2.474   1.769  0.2482 -0.3899 -0.4338
  913SOL    HW1 2738   2.464   2.568   1.809  0.8166  0.5134 -0.6748
  913SOL    HW2 2739   2.447   2.469   1.671 -0.6271 -1.4383 -1.8758
  914SOL     OW 2740   2.447   2.066   1.277 -0.2992  0.2543  0.4223
  914SOL    HW1 2741   2.404   2.137   1.337 -0.9200  2.3069 -0.7162
  914SOL    HW2 2742   2.377   1.993   1.256  0.6876 -0.6703  0.3578
  915SOL     OW 2743   1.200   2.430   1.659  0.3574  0.2465  0.1302
  915SOL    HW1 2744   1.145   2.411   1.746 -0.5978  0.4112 -0.5792
  915SOL    HW2 2745   1.296   2.416   1.682  0.7419 -1.3272 -0.3663
  916SOL     OW 2746   0.163   2.284   1.114  0.4817 -0.0728  0.3534
  916SOL    HW1 2747   0.178   2.339   1.033 -1.4157 -0.1107  2.2977
  916SOL    HW2 2748   0.143   2.354   1.185  0.9255  2.4643 -1.0724
  917SOL     OW 2749   2.752   1.149   2.870 -0.3322 -0.2551  0.7104
  917SOL    HW1 2750   2.712   1.056   2.880 -1.2170 -1.0116  2.1157
  917SOL    HW2 2751   2.821   1.161   2.792  0.2350 -1.1592  0.3112
  918SOL     OW 2752   1.762   1.883   2.690 -0.1843  0.1002  0.2480
  918SOL    HW1 2753   1.786   1.956   2.761 -1.2500  0.0830  0.2701
  918SOL    HW2 2754   1.770   1.787   2.727 -2.0279 -2.1793  0.4759
  919SOL     OW 2755   1.778   2.295   1.341  0.7768 -0.4833  0.0114
  919SOL    HW1 2756   1.696   2.287   1.273  0.2800 -0.7771 -2.0876
  919SOL    HW2 2757   1.864   2.318   1.287  1.3478  3.9608 -1.0051
  920SOL     OW 2758   0.976   0.588   2.690  0.2372 -0.2484 -0.0522
  920SOL    HW1 2759   1.059   0.531   2.667  1.0625 -1.8565 -0.1554
  920SOL    HW2 2760   0.999   0.655   2.762  0.9412  3.0708 -1.6852
  921SOL     OW 2761   2.987   2.882   2.659 -0.1050  0.1754  0.0355
  921SOL    HW1 2762   3.007   2.877   2.560 -0.2757  3.1377  0.8879
  921SOL    HW2 2763   3.063   2.835   2.708  0.8575  1.2715  0.9875
  922SOL     OW 2764   2.492   1.791   1.840  0.0196 -0.4220  0.2176
  922SOL    HW1 2765   2.550   1.813   1.759  4.5167  2.5746  0.6800
  922SOL    HW2 2766   2.497   1.862   1.914  0.1149 -1.9406  0.1525
  923SOL     OW 2767   0.551   1.928   2.753  0.0320 -0.6372  0.4740
  923SOL    HW1 2768   0.485   1.859   2.789 -0.7878  0.4355  1.1864
  923SOL    HW2 2769   0.525   2.020   2.781  0.7847 -0.3894  0.3660
  924SOL     OW 2770   1.746   0.704   2.454 -0.1183 -0.5559  0.6879
  924SOL    HW1 2771   1.738   0.747   2.548  0.9144  1.1202 -0.5158
  924SOL    HW2 2772   1.818   0.763   2.404  1.6736  1.0131 -0.1835
  925SOL     OW 2773   3.004   0.934   0.311 -0.3639 -0.5615  0.0516
  925SOL    HW1 2774   3.054   0.966   0.228  2.5548  1.7210  0.5586
  925SOL    HW2 2775   3.009   1.009   0.383 -3.4384  0.9923 -3.7485
  926SOL     OW 2776   3.041   0.291   0.606 -0.0988  0.2086 -0.1512
  926SOL    HW1 2777   0.035   0.261   0.631 -3.5083  2.6013 -3.4484
  926SOL    HW2 2778   3.034   0.383   0.566  0.3112 -2.1752  1.5934
  927SOL     OW 2779   1.274   1.070   0.730 -0.3991 -0.0323  0.1880
  927SOL    HW1 2780   1.281   1.117   0.639  3.1446 -1.9352  0.2911
  927SOL    HW2 2781   1.232   0.976   0.723 -0.8343 -0.7046  1.8736
  928SOL     OW 2782   0.054   3.054   2.261 -0.5273 -0.4585  0.3629
  928SOL    HW1 2783   0.152   3.022   2.244  4.2012 -0.1668 -0.8512
  928SOL    HW2 2784   0.040   0.056   2.231  1.6720  2.4306  2.9196
  929SOL     OW 2785   2.631   0.650   1.465  0.5648  0.5151 -0.5875
  929SOL    HW1 2786   2.601   0.711   1.544 -1.3604  2.4968  0.5607
  929SOL    HW2 2787   2.664   0.562   1.503  1.8535 -0.3356  0.9342
  930SOL     OW 2788   1.813   2.188   0.974 -0.8682 -0.2828  0.4840
  930SOL    HW1 2789   1.764   2.155   0.890 -0.4033  3.1116 -0.4114
  930SOL    HW2 2790   1.857   2.116   1.024 -1.2624 -0.4250 -3.2980
  931SOL     OW 2791   1.954   0.827   1.012 -0.4305  0.4203  0.5437
  931SOL    HW1 2792   1.919   0.921   0.994 -0.3050  0.2659 -0.2623
  931SOL    HW2 2793   2.032   0.833   1.078 -1.0764  1.8538  0.2342
  932SOL     OW 2794   0.181   0.702   1.296  0.4389  0.0177  0.4028
  932SOL    HW1 2795   0.086   0.702   1.335 -2.6022 -0.7817  0.9103
  932SOL    HW2 2796   0.243   0.647   1.355 -0.4949 -0.9552  2.0020
  933SOL     OW 2797   2.077   1.743   1.992  0.1839  0.2208  0.1623
  933SOL    HW1 2798   2.103   1.690   1.910 -2.2858  0.8022 -0.1352
  933SOL    HW2 2799   2.141   1.821   1.997 -0.5402 -1.4065 -0.6977
  934SOL     OW 2800   1.705   2.952   1.140 -0.6836 -0.2579 -0.0371
  934SOL    HW1 2801   1.708   3.051   1.104 -2.2847  1.0585  0.6145
  934SOL    HW2 2802   1.615   2.912   1.134 -0.6974 -0.5411 -1.8840
  935SOL     OW 2803   3.064   1.014   1.281  0.0387 -0.9593  0.1522
  935SOL    HW1 2804   2.994   0.940   1.278 -1.9258  0.7352 -1.2014
  935SOL    HW2 2805   3.072   1.053   1.185 -0.3638 -2.1952 -0.7957
  936SOL     OW 2806   0.001   0.682   1.062 -0.2090  0.0038  0.9006
  936SOL    HW1 2807   0.077   0.695   1.131  2.2300 -0.5772  2.1288
  936SOL    HW2 2808   3.079   0.582   1.034  2.0533 -2.7737  2.0751
  937SOL     OW 2809   1.001   2.983   0.942 -0.1572 -0.1992 -0.4980
  937SOL    HW1 2810   0.936   2.908   0.926 -0.3427  0.7476 -0.5758
  937SOL    HW2 2811   1.087   2.966   0.890 -0.6173  3.1520  1.0185
  938SOL     OW 2812   3.001   2.250   0.884 -0.1060  0.4394  0.1624
  938SOL    HW1 2813   2.976   2.242   0.981 -3.2820 -0.5224 -0.2502
  938SOL    HW2 2814   2.993   2.345   0.856  0.8081 -1.0251 -1.3929
  939SOL     OW 2815   0.453   1.554   2.661 -0.7344  0.4409 -0.3588
  939SOL    HW1 2816   0.357   1.547   2.702 -2.1142  1.4660  0.5342
  939SOL    HW2 2817   0.452   1.546   2.563  0.5597 -0.9116 -0.3487
  940SOL     OW 2818   2.791   2.587   2.544  0.2163 -0.0058  0.5536
  940SOL    HW1 2819   2.727   2.521   2.503  2.0922  0.4240 -2.0456
  940SOL    HW2 2820   2.787   2.671   2.485  2.3454  0.2570 -2.3344
  941SOL     OW 2821   1.553   0.334   3.077 -0.2444  0.2741 -0.9596
  941SOL    HW1 2822   1.602   0.246   3.056 -1.2109 -2.4732  1.3812
  941SOL    HW2 2823   1.473   0.319   0.043 -1.1464 -0.1282 -2.2796
  942SOL     OW 2824   1.438   1.873   1.363 -0.2806  0.2316 -0.4819
  942SOL    HW1 2825   1.353   1.818   1.350 -1.9120  3.2464  0.6959
  942SOL    HW2 2826   1.437   1.943   1.437  1.3816 -0.4455  0.6094
  943SOL     OW 2827   2.205   1.327   1.620 -0.2633  0.2001 -0.1253
  943SOL    HW1 2828   2.122   1.391   1.630  1.2678  0.9423 -0.3420
  943SOL    HW2 2829   2.258   1.357   1.536  0.7850 -0.3261 -1.6537
  944SOL     OW 2830   1.885   1.125   1.973 -0.5402 -0.2581  0.0634
  944SOL    HW1 2831   1.955   1.188   1.928 -2.2042  2.6549  0.7469
  944SOL    HW2 2832   1.793   1.144   1.930  0.0423  0.7771  1.2746
  945SOL     OW 2833   2.702   2.623   1.404 -0.0579 -0.2381 -0.3301
  945SOL    HW1 2834   2.695   2.558   1.325 -0.9399  0.9115 -2.1535
  945SOL    HW2 2835   2.770   2.591   1.469 -0.0943  1.4337  2.9333
  946SOL     OW 2836   0.958   0.853   1.678  0.0689  0.1271  0.1957
  946SOL    HW1 2837   1.013   0.812   1.757 -2.1337 -0.3621  0.8942
  946SOL    HW2 2838   1.007   0.859   1.586  2.0038 -0.7186 -2.6334
  947SOL     OW 2839   0.587   2.409   1.007 -0.3818 -0.1214  0.1269
  947SOL    HW1 2840   0.521   2.482   1.037  0.5919  1.4088  0.8501
  947SOL    HW2 2841   0.540   2.329   0.968  1.6360 -1.4681  0.5454
  948SOL     OW 2842   2.999   1.324   1.815 -0.0535  0.3204  0.0810
  948SOL    HW1 2843   3.046   1.280   1.890 -0.0278  2.0356 -1.0864
  948SOL    HW2 2844   3.050   1.406   1.783  0.2156 -2.4304 -0.3895
  949SOL     OW 2845   0.890   0.458   1.936 -0.3177  0.2873  0.1838
  949SOL    HW1 2846   0.861   0.419   2.030 -1.3209 -0.5284 -2.1101
  949SOL    HW2 2847   0.822   0.530   1.907 -0.7460 -0.1001  0.5115
  950SOL     OW 2848   0.604   0.654   0.813 -0.0756 -0.2797 -0.4809
  950SOL    HW1 2849   0.597   0.747   0.846  0.9593 -3.3784  0.1978
  950SOL    HW2 2850   0.521   0.629   0.757 -0.9507  1.5095 -1.6998
  951SOL     OW 2851   1.298   1.797   2.265  0.1478  0.1787 -0.1132
  951SOL    HW1 2852   1.260   1.862   2.201  2.6270  1.1241 -0.1605
  951SOL    HW2 2853   1.399   1.809   2.273 -1.6729 -1.4613 -0.6177
  952SOL     OW 2854   1.324   1.338   2.648  0.7023  0.0415  0.0887
  952SOL    HW1 2855   1.309   1.375   2.553 -1.3231  0.7025  1.6399
  952SOL    HW2 2856   1.361   1.241   2.653  0.1137  1.2047 -0.9145
  953SOL     OW 2857   1.065   3.001   2.260 -0.3501 -0.8960 -0.4828
  953SOL    HW1 2858   1.029   2.915   2.223  1.3617  3.2744 -1.1679
  953SOL    HW2 2859   0.999   3.045   2.319  3.9000  1.0058  0.7011
  954SOL     OW 2860   2.066   1.571   0.660  0.3542 -0.2021 -0.0760
  954SOL    HW1 2861   2.079   1.664   0.622 -0.2373  1.2935 -0.5783
  954SOL    HW2 2862   2.004   1.509   0.609  2.6264 -0.4793  2.7356
  955SOL     OW 2863   3.048   2.299   2.711  0.5034 -0.2622  0.1820
  955SOL    HW1 2864   3.080   2.377   2.657 -1.2618 -2.7511 -0.0812
  955SOL    HW2 2865   2.945   2.297   2.723  0.6688 -0.5088 -0.2035
  956SOL     OW 2866   1.071   1.153   1.407  0.1865  0.5778 -0.0723
  956SOL    HW1 2867   1.169   1.149   1.380  1.6849  1.5646 -1.3798
  956SOL    HW2 2868   1.018   1.223   1.356  3.0502 -0.4696  1.7506
  957SOL     OW 2869   2.002   1.635   2.363 -0.1028 -0.1023 -0.0892
  957SOL    HW1 2870   2.045   1.587   2.288 -1.3272 -0.0273 -0.1069
  957SOL    HW2 2871   1.992   1.578   2.443 -1.5565 -1.8440 -0.5279
  958SOL     OW 2872   1.429   2.602   1.337 -0.2266 -0.0505  0.7533
  958SOL    HW1 2873   1.513   2.597   1.279 -0.8405 -3.1925  1.6277
  958SOL    HW2 2874   1.381   2.693   1.345 -0.5912 -0.9398  0.3185
  959SOL     OW 2875   1.554   1.797   2.011 -0.2991 -0.0556  0.2784
  959SOL    HW1 2876   1.651   1.830   1.995 -0.1634 -2.0759  1.3033
  959SOL    HW2 2877   1.513   1.756   1.924  0.2872  0.0501  0.4713
  960SOL     OW 2878   0.012   0.682   2.775 -0.1492  0.3962 -0.0635
  960SOL    HW1 2879   0.062   0.767   2.802 -2.4180 -0.4883  2.1294
  960SOL    HW2 2880   3.057   0.711   2.690 -0.5767  0.4908  0.1545
  961SOL     OW 2881   0.691   0.644   1.921 -0.2766  0.0509  0.7512
  961SOL    HW1 2882   0.701   0.734   1.967 -2.5150  0.4485 -0.1460
  961SOL    HW2 2883   0.593   0.617   1.928 -1.7510 -1.6719 -1.9402
  962SOL     OW 2884   1.394   1.510   0.380 -0.1363  0.3281 -0.2646
  962SOL    HW1 2885   1.320   1.509   0.450 -1.1553  1.7795 -0.8348
  962SOL    HW2 2886   1.475   1.449   0.405 -0.2202  0.0161  1.3285
  963SOL     OW 2887   1.235   2.375   2.678  0.2517 -0.1175 -0.0863
  963SOL    HW1 2888   1.312   2.435   2.648 -0.4314 -0.1225  0.3741
  963SOL    HW2 2889   1.176   2.435   2.735 -1.1749  0.2671 -3.2943
  964SOL     OW 2890   1.052   2.578   0.491 -0.9707  0.3946  0.0556
  964SOL    HW1 2891   1.121   2.593   0.414 -2.4432 -1.0646 -2.4623
  964SOL    HW2 2892   0.985   2.653   0.493  1.2241 -0.7329  1.4721
  965SOL     OW 2893   0.830   2.762   0.936  0.0643 -0.3678 -0.3775
  965SOL    HW1 2894   0.795   2.750   1.032 -1.5006 -0.2765  0.0327
  965SOL    HW2 2895   0.805   2.679   0.884  2.2375  2.0912 -0.2051
  966SOL     OW 2896   0.052   1.187   2.839 -0.0663  0.8548 -0.1283
  966SOL    HW1 2897   0.114   1.228   2.769 -1.1685 -2.2187 -1.8390
  966SOL    HW2 2898   3.050   1.185   2.806 -4.6189 -0.1427  1.7007
  967SOL     OW 2899   1.285   2.762   1.854  0.2025 -0.0506  0.1497
  967SOL    HW1 2900   1.198   2.779   1.806 -0.6987  1.4777 -0.7416
  967SOL    HW2 2901   1.274   2.710   1.940 -4.3296  0.2961 -1.2975
  968SOL     OW 2902   1.822   0.433   0.439  0.0671 -0.0108 -0.7258
  968SOL    HW1 2903   1.885   0.403   0.516  0.5581 -0.7991 -1.6251
  968SOL    HW2 2904   1.723   0.436   0.468 -0.7077  0.7581 -0.3700
  969SOL     OW 2905   3.066   1.664   2.097 -0.1195 -0.3778  0.1781
  969SOL    HW1 2906   3.051   1.614   2.009  0.2775 -1.8647 -2.6207
  969SOL    HW2 2907   0.046   1.732   2.082  3.2929  2.5758 -0.3110
  970SOL     OW 2908   2.383   1.452   1.440 -0.1403 -0.2068 -0.4237
  970SOL    HW1 2909   2.389   1.484   1.344 -1.8946  0.7658  0.4150
  970SOL    HW2 2910   2.439   1.364   1.456  0.0790 -2.8497  1.2210
  971SOL     OW 2911   1.504   0.762   1.577 -0.0418 -0.1375 -0.0183
  971SOL    HW1 2912   1.569   0.811   1.631 -0.8089 -0.6283 -0.5795
  971SOL    HW2 2913   1.412   0.802   1.592 -0.0045 -2.4333  1.7828
  972SOL     OW 2914   0.435   0.091   2.301 -0.0424  0.0808  0.0326
  972SOL    HW1 2915   0.511   0.034   2.334 -0.1694 -1.3542 -1.3525
  972SOL    HW2 2916   0.367   0.102   2.376 -1.3812 -1.0192 -0.3048
  973SOL     OW 2917   2.641   1.204   0.346  0.2348 -0.2933 -0.6101
  973SOL    HW1 2918   2.608   1.156   0.264  1.4815  0.7165  1.5147
  973SOL    HW2 2919   2.664   1.133   0.413 -1.5521 -0.1451 -0.7500
  974SOL     OW 2920   1.983   1.330   2.146 -0.4386 -0.6364  0.1467
  974SOL    HW1 2921   1.983   1.246   2.088  0.6731 -1.1346  2.1084
  974SOL    HW2 2922   1.915   1.399   2.112 -2.3561  0.6686  0.2422
  975SOL     OW 2923   2.943   2.490   0.801 -0.3272  0.2207 -0.1766
  975SOL    HW1 2924   2.982   2.542   0.722 -3.0175  0.0942  0.2608
  975SOL    HW2 2925   2.919   2.552   0.879 -1.1844  0.6080 -0.0715
  976SOL     OW 2926   3.060   1.608   1.829 -0.0768  0.2296 -0.3098
  976SOL    HW1 2927   0.042   1.633   1.764 -0.1427  1.2514  0.4679
  976SOL    HW2 2928   2.983   1.666   1.805  3.1234 -2.0977  0.8446
  977SOL     OW 2929   0.592   2.456   0.034  0.0948 -0.1976 -0.0212
  977SOL    HW1 2930   0.537   2.465   3.041 -0.9386  3.8385 -2.5767
  977SOL    HW2 2931   0.693   2.439   0.020 -2.0470 -0.3091  0.2190
  978SOL     OW 2932   0.501   1.858   2.503 -0.2475  0.2575 -0.0852
  978SOL    HW1 2933   0.404   1.829   2.506 -2.2416  0.6849  0.5136
  978SOL    HW2 2934   0.526   1.898   2.598  3.0106  2.9978  4.6263
  979SOL     OW 2935   1.220   2.415   1.233 -0.2222  0.2167  0.4246
  979SOL    HW1 2936   1.279   2.497   1.252 -0.0020  2.8055 -1.7329
  979SOL    HW2 2937   1.177   2.413   1.138 -0.3121  0.0564  2.9807
  980SOL     OW 2938   0.499   1.534   2.937 -0.2683 -0.0527 -1.0144
  980SOL    HW1 2939   0.504   1.563   2.839  3.0113  2.7830 -1.4812
  980SOL    HW2 2940   0.596   1.544   2.969  1.5361 -0.7870  2.5639
  981SOL     OW 2941   2.790   0.043   2.508 -0.5205 -0.6583  0.1955
  981SOL    HW1 2942   2.742   0.028   2.419  1.9218 -0.2781  1.8601
  981SOL    HW2 2943   2.783   3.057   2.565 -1.6160 -2.0966  2.9146
  982SOL     OW 2944   3.076   2.572   2.627 -0.4417 -0.4556 -0.4317
  982SOL    HW1 2945   0.059   2.608   2.570 -0.2975  1.2139  0.2106
  982SOL    HW2 2946   2.986   2.588   2.581  2.4651  1.2980 -2.3577
  983SOL     OW 2947   2.280   1.014   1.932 -0.2619 -0.4563 -0.0752
  983SOL    HW1 2948   2.289   1.028   1.831 -1.0548  2.0919  2.2523
  983SOL    HW2 2949   2.263   0.916   1.957 -0.3524 -1.7896 -1.0249
  984SOL     OW 2950   1.371   0.057   2.295  0.0188 -1.0359 -0.0918
  984SOL    HW1 2951   1.456   0.098   2.251  0.7296 -2.2057 -0.0178
  984SOL    HW2 2952   1.316   0.129   2.339  2.0540 -0.7463 -1.5181
  985SOL     OW 2953   1.405   2.109   2.407  0.5584 -0.4189  0.0653
  985SOL    HW1 2954   1.433   2.059   2.318  0.1146 -1.5661 -3.3605
  985SOL    HW2 2955   1.436   2.045   2.482  1.5337  0.0160 -0.7693
  986SOL     OW 2956   2.129   0.403   2.203  0.2805  0.2879  0.5489
  986SOL    HW1 2957   2.126   0.471   2.279 -1.0466  0.2672 -1.3286
  986SOL    HW2 2958   2.061   0.428   2.136  1.2416  0.5180  4.1644
  987SOL     OW 2959   2.316   0.534   2.025  0.1011  0.1247 -0.9107
  987SOL    HW1 2960   2.250   0.480   2.078 -1.8940  0.5552 -1.1522
  987SOL    HW2 2961   2.354   0.474   1.949 -1.8347  0.6147  0.8592
  988SOL     OW 2962   2.590   0.711   2.688  0.8346  0.0609  0.4763
  988SOL    HW1 2963   2.586   0.663   2.782  0.9780 -1.9854  3.1392
  988SOL    HW2 2964   2.592   0.638   2.615 -0.0944 -2.7048 -0.1122
  989SOL     OW 2965   2.453   2.448   2.614  0.2754 -0.7940 -0.4181
  989SOL    HW1 2966   2.358   2.474   2.599 -0.1671 -0.8815  2.3792
  989SOL    HW2 2967   2.514   2.451   2.532 -4.3685  0.2187  2.9584
  990SOL     OW 2968   0.408   0.582   0.040  0.2917 -0.8232  0.0520
  990SOL    HW1 2969   0.425   0.579   0.139 -0.0251  1.1512  0.1665
  990SOL    HW2 2970   0.321   0.638   0.017 -0.7222  3.2668 -1.3839
  991SOL     OW 2971   0.700   0.625   2.759 -0.1937  0.2645  0.4429
  991SOL    HW1 2972   0.661   0.547   2.808 -0.5231 -0.1338 -1.1895
  991SOL    HW2 2973   0.800   0.612   2.736  2.9581 -1.2213 -0.7720
  992SOL     OW 2974   2.723   2.175   2.241  0.0651 -0.4304  0.2023
  992SOL    HW1 2975   2.779   2.198   2.320  1.0981  0.0314 -0.1321
  992SOL    HW2 2976   2.776   2.186   2.154  0.8144 -2.7661 -0.4463
  993SOL     OW 2977   0.486   2.773   0.647  0.0748 -0.1567 -0.0438
  993SOL    HW1 2978   0.447   2.851   0.600 -0.9621 -1.0651  2.9175
  993SOL    HW2 2979   0.523   2.798   0.738  0.1809 -1.9410 -1.0156
  994SOL     OW 2980   0.164   2.049   1.677 -0.3405 -0.3347  0.1681
  994SOL    HW1 2981   0.263   2.030   1.674 -4.8482 -1.3401  2.4510
  994SOL    HW2 2982   0.126   2.091   1.591 -0.4344 -1.0640 -1.6467
  995SOL     OW 2983   2.317   1.890   0.272  0.8427  0.1913 -0.6115
  995SOL    HW1 2984   2.346   1.988   0.276 -1.5089  0.4077  0.4288
  995SOL    HW2 2985   2.259   1.874   0.192  0.3671  0.9912 -0.5715
  996SOL     OW 2986   1.603   1.616   2.531 -0.0269 -0.9071  0.4915
  996SOL    HW1 2987   1.631   1.526   2.494 -1.0388  0.5896 -0.2499
  996SOL    HW2 2988   1.668   1.690   2.507 -0.6020 -0.1694 -0.9510
  997SOL     OW 2989   1.814   1.520   1.815  0.1802 -0.5851  0.0558
  997SOL    HW1 2990   1.760   1.579   1.757  2.6880 -0.0608  0.9189
  997SOL    HW2 2991   1.830   1.430   1.769  0.5472 -0.3834 -0.2219
  998SOL     OW 2992   2.759   1.631   0.358  0.6164  0.5100  0.0193
  998SOL    HW1 2993   2.710   1.598   0.442 -1.1143 -0.9017  0.1652
  998SOL    HW2 2994   2.764   1.553   0.291 -1.7243  0.4270  1.4706
  999SOL     OW 2995   2.520   2.684   0.443 -0.6270  0.2390  0.1565
  999SOL    HW1 2996   2.427   2.652   0.453  0.5865  1.6138 -3.1593
  999SOL    HW2 2997   2.578   2.614   0.485 -1.8433 -1.1200  1.2520
 1000SOL     OW 2998   0.735   2.951   2.199 -0.2188  0.4893 -0.0865
 1000SOL    HW1 2999   0.765   3.044   2.178  0.3040 -0.6251 -1.8093
 1000SOL    HW2 3000   0.758   2.899   2.120 -0.5860 -0.8938  0.9680
   3.09493   3.09493   3.09493
