1000 SPC/Fw water molecules t=   3.00000 step= 3000
 3000
    1SOL     OW    1   1.333   2.742   0.182 -0.4431  0.3947 -0.2449
    1SOL    HW1    2   1.331   2.834   0.136  0.3229 -3.1774  1.6877
    1SOL    HW2    3   1.289   2.736   0.274 -0.5648 -3.2828 -2.1704
    2SOL     OW    4   1.526   0.797   1.472  0.0646 -0.5905  0.0529
    2SOL    HW1    5   1.600   0.791   1.399  2.2500  0.6248 -0.9224
    2SOL    HW2    6   1.498   0.898   1.481 -1.8446  1.9375  1.6018
    3SOL     OW    7   0.725   0.138   2.591  0.6553 -0.1021  0.8651
    3SOL    HW1    8   0.726   0.238   2.572  0.0898 -0.5400 -1.8261
    3SOL    HW2    9   0.648   0.117   2.658  0.5982 -0.0316  0.8356
    4SOL     OW   10   1.356   1.548   3.011 -0.2153  0.5983  0.7258
    4SOL    HW1   11   1.430   1.617   2.995  0.7526 -1.3456 -2.4183
    4SOL    HW2   12   1.325   1.541   0.016  2.5795 -0.0313  0.9408
    5SOL     OW   13   0.838   1.086   2.131  0.2157 -0.0422  0.2757
    5SOL    HW1   14   0.905   1.039   2.190  0.6866  2.3904  0.4799
    5SOL    HW2   15   0.842   1.190   2.142  0.9310  1.6443  1.4889
    6SOL     OW   16   2.430   1.020   2.132 -0.1293  0.4192  0.0589
    6SOL    HW1   17   2.495   0.942   2.156 -1.6947  1.3221  2.3770
    6SOL    HW2   18   2.354   0.991   2.069  1.6251  0.5801  2.7230
    7SOL     OW   19   0.023   0.934   1.279 -0.3070 -0.2333 -0.1927
    7SOL    HW1   20   3.060   1.017   1.270  1.7997  0.7797  0.8425
    7SOL    HW2   21   0.070   0.917   1.192 -3.1592  1.0186  1.6377
    8SOL     OW   22   2.284   2.582   2.030  0.3810 -0.0135 -0.5987
    8SOL    HW1   23   2.269   2.609   1.932 -2.2698 -1.6679 -0.2379
    8SOL    HW2   24   2.323   2.659   2.081 -0.9694 -2.8649 -1.2833
    9SOL     OW   25   0.027   2.595   0.356  0.5009 -0.1495 -0.2899
    9SOL    HW1   26   3.054   2.533   0.413 -0.2291 -0.0952  1.6166
    9SOL    HW2   27   0.123   2.566   0.363  0.5956  1.2777 -1.6008
   10SOL     OW   28   0.020   2.406   2.560  0.1436 -0.6404  0.4148
   10SOL    HW1   29   0.087   2.443   2.489  2.5610 -2.5676 -0.9847
   10SOL    HW2   30   0.026   2.310   2.590 -1.8281  2.0445 -1.7227
   11SOL     OW   31   0.239   1.753   0.080 -0.6202  0.3381  0.4546
   11SOL    HW1   32   0.234   1.661   0.036 -1.1443  0.7042  2.4702
   11SOL    HW2   33   0.333   1.759   0.120  0.7341 -2.0963 -1.0195
   12SOL     OW   34   2.298   3.028   0.494 -0.3213  0.1040  0.0582
   12SOL    HW1   35   2.351   0.024   0.490  3.5578 -0.9220 -2.1096
   12SOL    HW2   36   2.346   2.956   0.434  0.2297 -0.4962 -4.4820
   13SOL     OW   37   0.257   0.388   2.702  0.1093  0.3416 -0.2129
   13SOL    HW1   38   0.194   0.307   2.689 -3.2837 -5.1716 -3.5469
   13SOL    HW2   39   0.212   0.473   2.745 -1.2285  0.2205  0.5881
   14SOL     OW   40   1.317   0.696   1.267  0.5518  0.2936 -0.4484
   14SOL    HW1   41   1.387   0.697   1.341  0.7597 -0.6013 -0.5843
   14SOL    HW2   42   1.337   0.761   1.191  2.1995 -2.3958 -1.2408
   15SOL     OW   43   0.649   1.450   2.233 -0.5528  0.2963  0.1982
   15SOL    HW1   44   0.572   1.445   2.165  2.1159  0.0631 -1.8129
   15SOL    HW2   45   0.735   1.404   2.199 -0.6771 -1.9269  0.0866
   16SOL     OW   46   1.833   1.149   2.583 -0.4020 -0.0843  0.2116
   16SOL    HW1   47   1.741   1.109   2.583 -0.0463 -1.2831 -0.2587
   16SOL    HW2   48   1.832   1.224   2.511 -0.2636  1.1365  3.4403
   17SOL     OW   49   0.122   2.290   2.135  0.4885 -0.2141 -0.2733
   17SOL    HW1   50   0.123   2.390   2.139 -0.7285 -0.6867  3.1381
   17SOL    HW2   51   0.143   2.258   2.036  1.5000 -3.9280 -0.4050
   18SOL     OW   52   1.445   1.209   0.776  0.5800 -0.1197 -0.9166
   18SOL    HW1   53   1.486   1.123   0.731 -0.2292  2.0966 -0.1530
   18SOL    HW2   54   1.343   1.216   0.755 -0.5470  0.2106  0.4113
   19SOL     OW   55   0.096   1.262   1.933  0.2414 -0.3155  0.2189
   19SOL    HW1   56   0.155   1.330   1.884  1.5285  1.6194 -0.5057
   19SOL    HW2   57   0.136   1.173   1.912 -0.4560  2.9848 -2.1981
   20SOL     OW   58   1.723   2.089   2.900  0.7604  0.1983  0.3518
   20SOL    HW1   59   1.731   2.193   2.913 -0.7960 -2.4398 -0.7328
   20SOL    HW2   60   1.773   2.040   2.977  0.1298 -0.5435  1.2306
   21SOL     OW   61   1.585   1.573   1.131  0.1177  0.4714 -0.2212
   21SOL    HW1   62   1.596   1.619   1.223  0.1819 -1.0150  0.1342
   21SOL    HW2   63   1.609   1.477   1.137 -0.4797  0.3219  1.0045
   22SOL     OW   64   1.963   2.167   1.444 -0.1426 -0.0235  0.5643
   22SOL    HW1   65   1.879   2.187   1.497  3.7990 -1.2048  0.5353
   22SOL    HW2   66   1.957   2.203   1.348  1.9187 -1.7446  1.3691
   23SOL     OW   67   2.690   1.063   1.364  0.5392 -0.4485  0.3806
   23SOL    HW1   68   2.698   0.965   1.398 -2.5696  1.9893 -2.9639
   23SOL    HW2   69   2.669   1.068   1.264 -3.0055  0.7745  0.5866
   24SOL     OW   70   1.930   1.340   1.661 -0.3101 -0.1801 -0.5457
   24SOL    HW1   71   1.852   1.374   1.722 -1.0353  0.9741  0.3425
   24SOL    HW2   72   2.004   1.307   1.722 -1.2510  2.0064  0.3626
   25SOL     OW   73   1.723   0.003   2.409  0.0535 -0.8283 -0.0287
   25SOL    HW1   74   1.772   0.093   2.417  0.8154 -0.3864 -2.1993
   25SOL    HW2   75   1.626   0.022   2.393 -0.3245  2.1399 -0.2058
   26SOL     OW   76   0.564   2.792   0.738  0.1009  0.3848 -0.6537
   26SOL    HW1   77   0.618   2.862   0.791  0.5531  1.2360  0.2050
   26SOL    HW2   78   0.621   2.758   0.657  1.5886 -0.2532 -1.6914
   27SOL     OW   79   1.173   1.203   0.736  0.2079 -0.1286  0.0765
   27SOL    HW1   80   1.152   1.107   0.755  0.5746  0.5420 -0.8346
   27SOL    HW2   81   1.106   1.264   0.787  0.4390  0.8882  0.9677
   28SOL     OW   82   1.932   2.267   1.193  0.1503 -0.0154 -0.0034
   28SOL    HW1   83   2.000   2.323   1.148 -1.2297  0.3625  1.8280
   28SOL    HW2   84   1.841   2.303   1.169  1.6002 -3.7060 -1.1183
   29SOL     OW   85   2.109   2.775   2.363 -0.3985 -0.5176 -0.1514
   29SOL    HW1   86   2.119   2.672   2.376  2.0227 -1.0664 -1.4524
   29SOL    HW2   87   2.077   2.824   2.445  0.5455 -0.7293 -1.9692
   30SOL     OW   88   0.050   2.721   1.885 -0.0056 -0.1177 -0.4849
   30SOL    HW1   89   3.090   2.647   1.935 -0.1405  0.3556  1.5914
   30SOL    HW2   90   0.091   2.788   1.948 -0.3144 -2.0971  0.8957
   31SOL     OW   91   2.918   1.828   2.409  0.0795  0.7675 -0.4309
   31SOL    HW1   92   2.901   1.925   2.445  1.2279  1.3650  2.8127
   31SOL    HW2   93   3.000   1.827   2.349  0.0769  4.3440  2.5292
   32SOL     OW   94   0.971   2.458   2.166  0.3154  0.4108  0.3875
   32SOL    HW1   95   0.916   2.449   2.253 -1.8530  0.6386  0.5743
   32SOL    HW2   96   1.063   2.424   2.179 -3.4943  1.1358 -0.4578
   33SOL     OW   97   0.191   0.394   3.088  0.4004  0.3581 -0.2176
   33SOL    HW1   98   0.180   0.496   3.066 -1.8885  4.0166 -0.9369
   33SOL    HW2   99   0.285   0.366   3.058 -1.6133 -1.0453 -1.1600
   34SOL     OW  100   2.884   0.235   3.042 -0.6053 -0.2229 -0.3499
   34SOL    HW1  101   2.902   0.138   3.078  1.1620 -2.8467 -1.6560
   34SOL    HW2  102   2.792   0.256   3.010  0.0053  2.9677 -1.2699
   35SOL     OW  103   2.916   2.803   1.732 -0.9337 -0.3564 -0.0924
   35SOL    HW1  104   3.001   2.790   1.791  1.0481 -2.5325 -0.1582
   35SOL    HW2  105   2.922   2.896   1.697 -0.8163 -1.7589  0.2431
   36SOL     OW  106   2.292   0.062   2.670  0.0949  0.0934 -0.5269
   36SOL    HW1  107   2.204   0.079   2.624  3.8653 -0.1203  0.2050
   36SOL    HW2  108   2.293   3.060   2.713  0.8698 -1.1206 -2.8972
   37SOL     OW  109   1.672   2.811   0.078  0.8489  0.8159  0.1036
   37SOL    HW1  110   1.605   2.736   0.044 -1.6730 -0.6402 -0.2686
   37SOL    HW2  111   1.667   2.814   0.182 -1.3430 -0.8180  2.2109
   38SOL     OW  112   0.454   0.134   0.579  0.2215 -0.0017  0.0099
   38SOL    HW1  113   0.387   0.194   0.541 -0.7021  0.5816 -1.4141
   38SOL    HW2  114   0.529   0.122   0.509  0.3072 -0.0457 -1.4331
   39SOL     OW  115   1.029   1.854   2.071 -0.1199 -0.9743 -0.1517
   39SOL    HW1  116   1.023   1.837   2.172 -3.4587  1.3736  1.2259
   39SOL    HW2  117   1.121   1.889   2.054 -1.4663 -0.3247  0.8000
   40SOL     OW  118   3.080   0.850   0.042 -0.0801  0.0495  0.1213
   40SOL    HW1  119   2.987   0.891   0.041 -1.3875 -0.2981 -1.3382
   40SOL    HW2  120   0.054   0.928   0.024  2.4324  0.6365 -3.0008
   41SOL     OW  121   1.619   0.152   2.128  0.5162  0.3014  0.5926
   41SOL    HW1  122   1.555   0.184   2.056 -3.0229  0.2933 -1.8789
   41SOL    HW2  123   1.612   0.050   2.135  1.3946 -1.0768  0.4695
   42SOL     OW  124   2.492   0.100   1.121  0.2636  0.0231 -0.6436
   42SOL    HW1  125   2.544   0.145   1.042  1.8065  0.2048 -0.7515
   42SOL    HW2  126   2.505   3.090   1.119  0.5810 -0.0935 -0.1210
   43SOL     OW  127   1.597   0.414   1.283  0.0272  0.5804  0.0526
   43SOL    HW1  128   1.591   0.378   1.377  2.3726  0.5368 -1.4697
   43SOL    HW2  129   1.525   0.367   1.236 -0.8029  1.7779 -0.8129
   44SOL     OW  130   0.353   0.835   3.016 -0.0915 -0.4258  0.0642
   44SOL    HW1  131   0.455   0.845   3.023  0.4331 -0.6692  1.8233
   44SOL    HW2  132   0.319   0.879   0.010 -2.1234  0.2521  0.0172
   45SOL     OW  133   0.601   1.458   1.758  0.5558  0.7305  0.7566
   45SOL    HW1  134   0.639   1.440   1.665 -1.9651  0.1788  0.9240
   45SOL    HW2  135   0.599   1.371   1.809 -1.7917  0.8176 -0.7780
   46SOL     OW  136   2.150   2.329   1.602 -0.2295  0.1701 -0.0748
   46SOL    HW1  137   2.078   2.289   1.545  0.5731 -0.0772 -1.2093
   46SOL    HW2  138   2.222   2.261   1.624  0.2756  0.9524  0.4207
   47SOL     OW  139   0.355   1.880   1.489  0.4219  0.1130  0.1490
   47SOL    HW1  140   0.388   1.946   1.419  2.8313 -2.5696 -1.2699
   47SOL    HW2  141   0.326   1.928   1.577 -1.8061 -1.3067  2.4413
   48SOL     OW  142   0.910   2.730   2.781  0.2894  0.0918  0.0891
   48SOL    HW1  143   0.951   2.698   2.692  0.0028  0.4286  0.9830
   48SOL    HW2  144   0.808   2.744   2.772 -2.0231  0.0920 -2.0704
   49SOL     OW  145   2.749   1.600   1.895 -0.0408  0.7440 -0.7169
   49SOL    HW1  146   2.796   1.635   1.814 -0.3609 -1.6180  0.8348
   49SOL    HW2  147   2.709   1.509   1.885  0.8724 -0.7103  2.7112
   50SOL     OW  148   0.875   2.941   0.525  0.1769 -0.2202  0.9268
   50SOL    HW1  149   0.966   2.952   0.561 -3.9893 -0.3927 -2.1225
   50SOL    HW2  150   0.877   2.943   0.421 -0.2162 -0.5811 -0.2614
   51SOL     OW  151   1.405   0.286   1.103  0.3215 -0.3316  0.6322
   51SOL    HW1  152   1.479   0.225   1.070  2.1652  1.0055  1.9491
   51SOL    HW2  153   1.329   0.239   1.146  0.1601  1.1435  0.0503
   52SOL     OW  154   0.108   0.817   0.577 -0.2527 -0.3082  0.0127
   52SOL    HW1  155   0.118   0.783   0.484 -1.7157 -1.0614  3.5440
   52SOL    HW2  156   0.155   0.907   0.591  0.1043  0.4505 -0.5828
   53SOL     OW  157   1.203   0.079   2.811 -0.3291 -0.4329 -0.2481
   53SOL    HW1  158   1.290   0.026   2.806  1.1606  0.3681 -1.3597
   53SOL    HW2  159   1.136   0.039   2.877 -1.8653  0.8289 -0.8021
   54SOL     OW  160   2.244   0.494   2.211 -0.3354 -0.0970 -0.7748
   54SOL    HW1  161   2.208   0.445   2.297  1.3773 -0.3872 -1.1847
   54SOL    HW2  162   2.185   0.477   2.129 -1.3570  1.2113 -0.4369
   55SOL     OW  163   2.616   3.027   0.283 -0.2263 -0.3968 -0.3263
   55SOL    HW1  164   2.648   3.017   0.380 -1.0666 -0.1355 -0.7360
   55SOL    HW2  165   2.669   2.958   0.232 -0.8043 -3.3856 -0.5107
   56SOL     OW  166   0.962   0.394   2.184 -0.1732 -0.6159 -0.3881
   56SOL    HW1  167   0.902   0.327   2.136  2.8085  0.0115 -1.7953
   56SOL    HW2  168   0.998   0.344   2.267 -4.2763  2.0565  3.2661
   57SOL     OW  169   1.854   0.983   2.219 -0.0033  0.5058 -0.5707
   57SOL    HW1  170   1.818   1.082   2.214 -3.7853  4.0193  0.9516
   57SOL    HW2  171   1.948   0.988   2.184 -0.3204  0.1815  1.5087
   58SOL     OW  172   0.205   1.018   1.815  0.0828 -0.2294 -0.5573
   58SOL    HW1  173   0.291   0.988   1.769 -0.0815  0.4283 -0.1932
   58SOL    HW2  174   0.162   0.947   1.869  1.8387  0.5683  0.4784
   59SOL     OW  175   0.728   2.679   2.014 -0.3501 -0.1586 -0.2650
   59SOL    HW1  176   0.676   2.759   1.979  1.7398 -4.0021  2.5474
   59SOL    HW2  177   0.818   2.703   2.050 -2.2386 -0.8281  0.7049
   60SOL     OW  178   2.106   2.702   0.217 -0.0757 -0.4248  0.5080
   60SOL    HW1  179   2.071   2.731   0.307  0.6924 -1.4138  0.0539
   60SOL    HW2  180   2.193   2.649   0.232 -0.8717 -0.4290  0.1948
   61SOL     OW  181   1.465   2.298   0.387 -0.1724 -0.0756 -0.5411
   61SOL    HW1  182   1.498   2.310   0.486 -0.2579  0.4732  3.2366
   61SOL    HW2  183   1.444   2.196   0.370 -0.5643 -1.9142 -1.6006
   62SOL     OW  184   2.134   2.579   2.977  0.0340  0.3924 -0.0785
   62SOL    HW1  185   2.144   2.485   3.012  0.4395  1.6739 -0.4552
   62SOL    HW2  186   2.060   2.617   3.032  0.7024 -1.4081  0.3264
   63SOL     OW  187   2.549   0.886   0.642 -0.0008 -0.2483 -0.0831
   63SOL    HW1  188   2.519   0.964   0.579 -0.8346  0.9055 -1.3841
   63SOL    HW2  189   2.598   0.820   0.582 -2.0695  0.0487  3.5058
   64SOL     OW  190   1.711   1.089   3.058 -0.3111  0.0884  0.2916
   64SOL    HW1  191   1.703   1.184   0.003 -0.5252  0.2189  1.2337
   64SOL    HW2  192   1.624   1.036   3.065  1.5888 -0.0975 -1.0868
   65SOL     OW  193   0.398   2.292   1.571  0.6438  0.2487  0.1003
   65SOL    HW1  194   0.346   2.341   1.496  1.9310 -0.1101 -1.0687
   65SOL    HW2  195   0.377   2.327   1.666  1.4026 -2.7616  1.7886
   66SOL     OW  196   1.038   1.137   1.349 -0.2326 -0.3553 -0.3141
   66SOL    HW1  197   1.014   1.044   1.331  0.7442  1.0306 -0.9036
   66SOL    HW2  198   1.011   1.201   1.275 -3.0937 -0.2170 -1.3290
   67SOL     OW  199   2.304   1.817   1.916  0.1487 -0.6279  0.3353
   67SOL    HW1  200   2.381   1.785   1.862 -2.9075  2.2231 -0.0775
   67SOL    HW2  201   2.303   1.770   2.005  1.1817  0.3435 -2.2140
   68SOL     OW  202   1.099   1.646   1.721  0.3461  1.2162  0.3262
   68SOL    HW1  203   1.102   1.599   1.633  2.1487  1.5687 -0.9657
   68SOL    HW2  204   1.041   1.602   1.791 -0.6150  0.6298 -2.4723
   69SOL     OW  205   2.868   0.448   0.161 -0.5226 -0.9943  0.0049
   69SOL    HW1  206   2.824   0.430   0.254 -1.0158 -1.8620 -0.5158
   69SOL    HW2  207   2.890   0.352   0.130 -0.1878 -0.0564  0.3834
   70SOL     OW  208   2.207   1.144   2.245 -0.0609 -0.8248 -0.5054
   70SOL    HW1  209   2.298   1.102   2.213  1.3049  0.4914  2.7740
   70SOL    HW2  210   2.199   1.129   2.346  1.3070 -0.0838 -0.2033
   71SOL     OW  211   0.893   2.128   0.703 -0.0719 -0.2186 -0.0258
   71SOL    HW1  212   0.905   2.142   0.602 -0.0322  1.1007 -1.3317
   71SOL    HW2  213   0.982   2.120   0.748 -1.2853  0.5862  0.4819
   72SOL     OW  214   2.356   1.803   0.579  0.5124 -0.3691  0.2200
   72SOL    HW1  215   2.403   1.884   0.623  0.4774  0.2457  0.3537
   72SOL    HW2  216   2.340   1.723   0.638 -0.7358  2.9706  1.0104
   73SOL     OW  217   1.121   0.838   0.647  0.5114 -0.1735 -0.1363
   73SOL    HW1  218   1.042   0.882   0.692  0.1540  1.6470  0.4746
   73SOL    HW2  219   1.097   0.790   0.559  1.1052 -0.6133  1.0249
   74SOL     OW  220   2.656   2.080   2.163 -0.2568 -0.5563 -0.2591
   74SOL    HW1  221   2.684   1.989   2.198 -1.7701  0.0095 -3.8724
   74SOL    HW2  222   2.659   2.081   2.064  0.1956 -1.2510  2.0030
   75SOL     OW  223   1.533   1.727   1.995  0.0954 -0.1677  0.3496
   75SOL    HW1  224   1.465   1.690   1.934 -0.1401  0.5140 -0.2643
   75SOL    HW2  225   1.537   1.674   2.078 -1.2069  1.1294 -0.4229
   76SOL     OW  226   1.202   1.632   1.106 -0.3989 -0.5779  0.1993
   76SOL    HW1  227   1.146   1.649   1.026  0.6600  0.2457 -0.9197
   76SOL    HW2  228   1.266   1.708   1.124 -1.2385  1.1754 -0.4042
   77SOL     OW  229   2.447   0.904   1.676 -0.0318  0.3879  0.2848
   77SOL    HW1  230   2.350   0.874   1.691 -1.3738  0.9732 -1.9120
   77SOL    HW2  231   2.506   0.830   1.712 -2.4776 -0.0829 -2.1580
   78SOL     OW  232   1.770   0.708   0.348  0.5634  0.2212 -0.2373
   78SOL    HW1  233   1.810   0.782   0.292  1.3320 -2.3786 -0.3013
   78SOL    HW2  234   1.678   0.688   0.312 -0.8820  1.1633 -0.0972
   79SOL     OW  235   0.916   1.617   1.972  0.4904  0.2427 -0.3621
   79SOL    HW1  236   0.964   1.694   2.015  0.7331 -1.1941 -1.3362
   79SOL    HW2  237   0.817   1.636   1.973  0.3689  2.9119  0.7103
   80SOL     OW  238   1.023   0.291   1.401 -0.2139 -0.3848 -0.5431
   80SOL    HW1  239   1.054   0.383   1.388 -0.7238 -2.9874 -2.6293
   80SOL    HW2  240   1.042   0.257   1.494 -1.4935 -2.9127 -1.0289
   81SOL     OW  241   0.306   2.488   0.366 -0.3178 -0.8815 -0.0890
   81SOL    HW1  242   0.379   2.538   0.311  1.2176  1.8878 -1.3816
   81SOL    HW2  243   0.325   2.472   0.463 -2.2025 -0.8514  0.5428
   82SOL     OW  244   1.151   0.188   1.617 -0.0220 -0.1719  0.3737
   82SOL    HW1  245   1.159   0.203   1.718  0.5453  2.9517  2.1403
   82SOL    HW2  246   1.231   0.228   1.569  0.1824 -0.4591  0.6731
   83SOL     OW  247   0.491   2.361   1.005 -0.0247  0.1456  0.3855
   83SOL    HW1  248   0.507   2.455   0.972  0.0739 -0.5313 -1.9250
   83SOL    HW2  249   0.435   2.305   0.943 -0.0345 -0.9397  0.4548
   84SOL     OW  250   2.545   1.281   0.940  0.4341  0.1783  0.3118
   84SOL    HW1  251   2.563   1.201   1.003  1.2424  0.0744 -2.1296
   84SOL    HW2  252   2.628   1.314   0.898 -0.1417  0.0912 -1.9540
   85SOL     OW  253   2.251   1.927   1.274  0.0793  0.3847 -0.1700
   85SOL    HW1  254   2.193   1.916   1.357 -1.3373 -1.0888  0.8286
   85SOL    HW2  255   2.286   1.839   1.240 -0.3742  5.7207  0.2268
   86SOL     OW  256   1.264   2.145   2.145 -0.1641  0.2245  0.1626
   86SOL    HW1  257   1.224   2.143   2.051 -0.0335  0.6190 -3.1066
   86SOL    HW2  258   1.363   2.132   2.139  0.1269  2.3603  1.6750
   87SOL     OW  259   2.280   1.278   0.832 -0.7392  0.2693  0.3201
   87SOL    HW1  260   2.262   1.323   0.744 -3.6386 -1.2338 -0.7012
   87SOL    HW2  261   2.379   1.282   0.851 -0.2169  0.6255  2.1934
   88SOL     OW  262   0.379   3.027   1.052  0.6147  0.1015 -0.1023
   88SOL    HW1  263   0.351   3.056   0.960 -0.4783  1.6433 -1.5671
   88SOL    HW2  264   0.422   0.009   1.109  0.3007  2.6350  4.2984
   89SOL     OW  265   0.616   1.063   1.545 -0.1713  0.0584 -0.1157
   89SOL    HW1  266   0.714   1.046   1.565  0.4697 -0.9000 -2.7804
   89SOL    HW2  267   0.588   1.015   1.458 -1.5100 -0.4483  0.0168
   90SOL     OW  268   2.653   1.855   0.302 -0.0967 -0.2791  0.0539
   90SOL    HW1  269   2.638   1.935   0.362  3.1345  1.3036  0.4306
   90SOL    HW2  270   2.738   1.798   0.327  0.2895 -0.5965  1.6035
   91SOL     OW  271   0.790   1.981   1.020  0.1946  0.6545  0.2072
   91SOL    HW1  272   0.828   2.075   1.021  0.4218 -2.2592  0.2189
   91SOL    HW2  273   0.757   1.946   1.108  1.9418 -0.8010 -1.4197
   92SOL     OW  274   2.102   2.986   1.917  0.5190 -0.1563  0.5124
   92SOL    HW1  275   2.192   3.030   1.936 -2.8709  2.8694 -2.6533
   92SOL    HW2  276   2.060   2.941   2.002 -0.4566 -0.9857  2.4866
   93SOL     OW  277   0.477   1.967   2.915  0.3599 -0.6797  0.0799
   93SOL    HW1  278   0.556   1.903   2.933 -2.0971  2.0273 -2.7183
   93SOL    HW2  279   0.394   1.913   2.893  0.8666  1.0256  1.3719
   94SOL     OW  280   2.361   3.038   2.068 -0.2442  0.4326 -0.2561
   94SOL    HW1  281   2.332   0.030   2.120  0.5226  0.3765  1.0134
   94SOL    HW2  282   2.450   3.061   2.021  4.1840  0.9613 -0.3162
   95SOL     OW  283   1.853   3.070   1.834 -0.0677 -0.5884 -0.1655
   95SOL    HW1  284   1.953   3.061   1.850 -1.4746  0.8127 -0.1164
   95SOL    HW2  285   1.822   2.975   1.816  0.5604 -2.7031  0.4723
   96SOL     OW  286   0.595   0.637   2.198 -0.4012  0.3319 -0.2316
   96SOL    HW1  287   0.526   0.574   2.240  2.4298 -1.0582  2.2900
   96SOL    HW2  288   0.556   0.724   2.176  3.3565 -0.8703 -0.1735
   97SOL     OW  289   2.037   2.936   1.443 -0.3288 -1.4376 -0.1079
   97SOL    HW1  290   2.023   3.036   1.432  1.4124 -2.8644 -0.3551
   97SOL    HW2  291   1.978   2.881   1.375  1.8250 -0.9524 -1.0135
   98SOL     OW  292   1.750   2.219   1.649  0.7053 -0.2028  0.2061
   98SOL    HW1  293   1.805   2.268   1.712 -2.4551 -0.2745 -0.4573
   98SOL    HW2  294   1.711   2.129   1.677 -1.2619 -0.7747  2.3664
   99SOL     OW  295   0.252   0.632   1.116  0.1100  0.1120 -0.6264
   99SOL    HW1  296   0.227   0.732   1.112 -0.3869  3.4956  1.9456
   99SOL    HW2  297   0.330   0.607   1.055 -0.8595  0.8576  1.3456
  100SOL     OW  298   2.964   1.990   1.930  0.3968 -0.4081 -0.2378
  100SOL    HW1  299   2.930   1.906   1.983  1.6619 -0.1796 -1.5234
  100SOL    HW2  300   3.036   2.040   1.982 -1.5809 -2.6379  0.9967
  101SOL     OW  301   1.390   0.351   3.038  0.2604 -0.6948  0.4230
  101SOL    HW1  302   1.391   0.387   2.944  1.2086 -0.6941  2.9178
  101SOL    HW2  303   1.384   0.418   0.019 -0.9588 -2.3577 -2.0722
  102SOL     OW  304   2.765   0.084   1.200  0.1237 -0.3537 -0.3133
  102SOL    HW1  305   2.836   0.143   1.168 -1.4970 -1.2802  0.1323
  102SOL    HW2  306   2.693   0.131   1.261 -1.8622  1.2427  3.9437
  103SOL     OW  307   0.166   2.840   2.373  0.3722 -0.4938  0.9243
  103SOL    HW1  308   0.245   2.903   2.381 -1.4327 -2.0537  1.0118
  103SOL    HW2  309   0.082   2.887   2.336  1.4176 -1.8491 -0.9300
  104SOL     OW  310   0.398   2.403   1.245 -0.5460  0.0471  1.0344
  104SOL    HW1  311   0.416   2.493   1.288  1.5385  0.7179 -1.0314
  104SOL    HW2  312   0.420   2.394   1.142 -0.2676  1.1886 -2.3436
  105SOL     OW  313   0.476   1.835   2.058  0.8272  0.0588  0.5221
  105SOL    HW1  314   0.375   1.831   2.040 -0.7243 -1.0724 -0.1443
  105SOL    HW2  315   0.500   1.880   2.141 -1.8718 -2.6337 -1.3231
  106SOL     OW  316   2.518   2.761   0.562 -0.3460  0.2331 -0.0939
  106SOL    HW1  317   2.535   2.714   0.652  0.5833 -0.2798 -0.0475
  106SOL    HW2  318   2.563   2.854   0.561  1.9821 -1.0620  1.2306
  107SOL     OW  319   0.628   1.121   0.976 -0.3766 -0.2815 -0.0521
  107SOL    HW1  320   0.590   1.206   1.010  1.1677  0.9950  0.6309
  107SOL    HW2  321   0.708   1.086   1.028  2.4553 -0.2787  1.2205
  108SOL     OW  322   2.948   1.210   2.026 -0.0094 -0.3812 -0.5901
  108SOL    HW1  323   2.860   1.257   2.003  1.1012 -1.7816 -0.3928
  108SOL    HW2  324   3.031   1.263   1.994  1.1447 -0.1682 -1.9369
  109SOL     OW  325   1.909   2.684   0.033  0.2898 -0.1990 -0.1132
  109SOL    HW1  326   1.964   2.707   0.118 -2.0041  2.6117  0.8852
  109SOL    HW2  327   1.822   2.737   0.036 -0.1959  1.4667 -2.3063
  110SOL     OW  328   0.284   2.114   0.046  0.2464 -0.5466 -0.0137
  110SOL    HW1  329   0.352   2.056   3.090 -0.3394 -0.0077  2.7682
  110SOL    HW2  330   0.196   2.071   0.027  1.8415 -1.0027  0.7941
  111SOL     OW  331   2.856   0.882   2.630 -0.5895  0.1778 -0.3587
  111SOL    HW1  332   2.779   0.830   2.674  1.1444 -0.6667 -0.9755
  111SOL    HW2  333   2.821   0.961   2.572  0.6963  1.7199  1.7767
  112SOL     OW  334   2.261   2.628   1.754 -0.3002  0.2029 -0.1586
  112SOL    HW1  335   2.192   2.696   1.726  0.0861 -1.1731  1.6910
  112SOL    HW2  336   2.224   2.532   1.747  2.2424 -2.2317 -0.5559
  113SOL     OW  337   2.295   1.795   2.684  0.3579  0.1479 -0.1026
  113SOL    HW1  338   2.323   1.699   2.660 -0.6353 -0.3442 -0.6747
  113SOL    HW2  339   2.192   1.808   2.687  0.5203 -1.6048  0.8631
  114SOL     OW  340   0.723   0.060   0.448 -0.2921  0.3934 -0.0359
  114SOL    HW1  341   0.752   3.072   0.507 -2.2264  0.9774  2.1465
  114SOL    HW2  342   0.758   0.149   0.482 -0.7072 -1.8536 -0.4378
  115SOL     OW  343   0.018   1.700   2.876  0.5890 -0.1015 -0.1890
  115SOL    HW1  344   3.014   1.743   2.882 -0.6251  2.5793  0.9597
  115SOL    HW2  345   0.081   1.757   2.933 -0.1163  1.0893  1.4187
  116SOL     OW  346   2.954   1.312   1.710  0.0242 -0.1202  0.0069
  116SOL    HW1  347   3.000   1.224   1.684  0.5655  1.0316 -0.4667
  116SOL    HW2  348   3.010   1.395   1.701  1.7928  0.4363  1.4909
  117SOL     OW  349   1.994   0.138   1.488 -0.1299 -0.2436  0.6627
  117SOL    HW1  350   1.912   0.119   1.546 -0.9156 -0.1064  0.1144
  117SOL    HW2  351   1.970   0.189   1.398 -3.3880  0.8957 -2.6934
  118SOL     OW  352   2.835   2.239   2.243  0.1727  0.0970  0.5598
  118SOL    HW1  353   2.759   2.183   2.203 -0.9857  0.0902  0.4315
  118SOL    HW2  354   2.852   2.327   2.198 -0.3314  0.8097 -1.3960
  119SOL     OW  355   0.340   1.664   1.675  0.4833 -0.3711  0.1470
  119SOL    HW1  356   0.324   1.737   1.604 -1.7258 -1.8517  0.4209
  119SOL    HW2  357   0.432   1.654   1.704 -2.0570  4.0963  3.3248
  120SOL     OW  358   0.307   1.382   1.814 -0.5335 -0.0919  1.1083
  120SOL    HW1  359   0.328   1.300   1.763 -2.3936 -2.8483  0.2063
  120SOL    HW2  360   0.326   1.463   1.756  1.7632 -0.9456  1.3787
  121SOL     OW  361   1.546   0.972   0.670 -0.2022  0.0451  0.4240
  121SOL    HW1  362   1.482   0.889   0.680 -1.8549 -0.9657  0.0335
  121SOL    HW2  363   1.641   0.945   0.645  2.7137 -1.9791  1.3634
  122SOL     OW  364   2.374   2.290   2.782 -0.0365 -0.0221  0.0853
  122SOL    HW1  365   2.353   2.331   2.691  0.1032 -0.2878 -0.3149
  122SOL    HW2  366   2.323   2.204   2.795 -0.1968 -2.0266  3.2411
  123SOL     OW  367   3.069   0.304   0.408  0.3259  0.5099  0.1291
  123SOL    HW1  368   3.039   0.377   0.473  1.1454  0.9408 -0.5143
  123SOL    HW2  369   2.993   0.233   0.400 -4.3693 -3.4487 -0.8734
  124SOL     OW  370   1.713   1.347   0.049 -0.0604  0.2981 -0.2221
  124SOL    HW1  371   1.708   1.438   3.086 -0.8402  0.2879 -1.6956
  124SOL    HW2  372   1.800   1.344   0.102 -0.9524  2.4137  2.9305
  125SOL     OW  373   0.003   0.827   2.196  0.2516  0.0929  0.2485
  125SOL    HW1  374   0.054   0.851   2.279 -2.4113  1.2112 -0.6858
  125SOL    HW2  375   0.060   0.821   2.114 -0.8330  0.2631 -0.2148
  126SOL     OW  376   2.812   2.881   0.140  0.3689 -0.4446 -0.1675
  126SOL    HW1  377   2.755   2.888   0.053  0.1993 -1.3262  0.3983
  126SOL    HW2  378   2.854   2.788   0.149 -0.2630  0.5022 -1.1044
  127SOL     OW  379   2.636   1.739   0.063  0.0165 -0.5581 -0.0985
  127SOL    HW1  380   2.630   1.791   0.155 -1.3235  3.0638 -0.0752
  127SOL    HW2  381   2.565   1.778   0.000  0.1081  1.9206  3.2363
  128SOL     OW  382   0.951   1.023   0.744  0.3235  0.1463  0.1916
  128SOL    HW1  383   0.884   1.056   0.673  0.4296  1.1372 -1.8352
  128SOL    HW2  384   0.921   1.053   0.833 -0.1444 -1.5545 -2.8698
  129SOL     OW  385   2.151   2.083   1.068 -0.7867  0.4210  0.2064
  129SOL    HW1  386   2.218   2.043   1.137 -1.5970 -1.1933 -0.2779
  129SOL    HW2  387   2.077   2.129   1.119  0.0586  1.9969 -0.2889
  130SOL     OW  388   2.068   0.839   0.105  0.1748  0.0185 -0.1373
  130SOL    HW1  389   2.096   0.828   0.008 -0.8116  2.0059 -0.2537
  130SOL    HW2  390   1.971   0.811   0.116  3.4408 -0.0359  2.4589
  131SOL     OW  391   0.048   1.565   2.623  0.1354  0.1637 -0.0965
  131SOL    HW1  392   3.039   1.584   2.601 -2.6385  1.3017  1.7893
  131SOL    HW2  393   0.066   1.621   2.707 -2.3496  3.0860 -1.0299
  132SOL     OW  394   1.188   1.197   1.794 -0.3607 -0.3256  0.3401
  132SOL    HW1  395   1.164   1.123   1.728 -1.6697 -1.6576 -2.5673
  132SOL    HW2  396   1.107   1.254   1.821  2.1655  2.1846  0.1635
  133SOL     OW  397   0.296   1.094   0.910 -0.1657  0.1614 -0.2856
  133SOL    HW1  398   0.395   1.100   0.929  3.4315 -2.5325 -1.9280
  133SOL    HW2  399   0.241   1.170   0.958 -1.1512  0.5825  2.4526
  134SOL     OW  400   2.999   1.449   0.084 -0.4942  0.0964 -0.0445
  134SOL    HW1  401   3.076   1.490   0.139  1.0814  2.7995  1.3096
  134SOL    HW2  402   3.035   1.438   3.082 -0.6545 -0.9898 -0.1025
  135SOL     OW  403   1.792   0.841   0.080  0.5863 -0.4718 -0.1437
  135SOL    HW1  404   1.777   0.930   0.036  0.9398 -0.6669  0.4341
  135SOL    HW2  405   1.735   0.764   0.041  0.5971  1.1176  1.0434
  136SOL     OW  406   2.033   1.923   1.458 -0.1089  0.0773 -0.0231
  136SOL    HW1  407   2.086   1.896   1.537 -2.3042 -0.4931 -0.9685
  136SOL    HW2  408   2.008   2.023   1.458  1.9380  1.2654  1.1498
  137SOL     OW  409   2.252   2.407   0.681 -0.7120 -0.6678 -0.7058
  137SOL    HW1  410   2.212   2.491   0.727 -2.6069  1.0237  1.7917
  137SOL    HW2  411   2.302   2.426   0.596 -0.0032 -0.7178 -0.0786
  138SOL     OW  412   2.356   0.288   1.825 -0.1620 -0.7193  0.7643
  138SOL    HW1  413   2.289   0.237   1.882  1.0848  2.3672  0.6165
  138SOL    HW2  414   2.349   0.268   1.724 -1.2962 -1.1439 -0.0322
  139SOL     OW  415   2.800   2.543   2.894  0.2044  0.7176  0.1792
  139SOL    HW1  416   2.766   2.448   2.872  0.5221 -1.7706 -0.8144
  139SOL    HW2  417   2.791   2.601   2.809 -0.0347 -0.3937 -2.8972
  140SOL     OW  418   1.576   1.850   2.712  0.0186 -0.1006 -1.1139
  140SOL    HW1  419   1.635   1.930   2.740  1.4313 -0.9273 -3.1065
  140SOL    HW2  420   1.611   1.792   2.631 -2.5779  0.9174 -0.5073
  141SOL     OW  421   1.229   1.368   2.547  0.3323  0.2106  0.0506
  141SOL    HW1  422   1.176   1.345   2.625  1.9998  4.0399 -0.9796
  141SOL    HW2  423   1.324   1.367   2.576 -2.6685 -0.0663 -0.3781
  142SOL     OW  424   2.045   2.455   2.134 -0.4268 -0.0703  0.5190
  142SOL    HW1  425   2.040   2.360   2.097 -0.3117  0.1993 -0.2570
  142SOL    HW2  426   2.133   2.500   2.106  2.2367  2.8792 -2.3793
  143SOL     OW  427   0.889   2.404   0.497 -0.3037  0.3920 -0.2144
  143SOL    HW1  428   0.979   2.430   0.533 -0.8896 -1.8032 -0.4823
  143SOL    HW2  429   0.896   2.307   0.464 -2.1638  0.8863  0.3777
  144SOL     OW  430   0.712   2.726   0.539 -0.3899 -0.2889  0.0042
  144SOL    HW1  431   0.774   2.807   0.544 -2.5831  1.8917  1.7629
  144SOL    HW2  432   0.684   2.714   0.443  0.4384 -1.7723 -2.2126
  145SOL     OW  433   1.709   2.337   3.024 -0.7986  0.2365  0.2573
  145SOL    HW1  434   1.670   2.426   3.003  0.3239 -0.5658  1.2414
  145SOL    HW2  435   1.655   2.297   0.010 -1.2401  1.0018  0.3934
  146SOL     OW  436   1.881   2.457   0.208 -0.1211  0.1488  0.4389
  146SOL    HW1  437   1.854   2.521   0.134  1.5757 -0.2518  2.5028
  146SOL    HW2  438   1.968   2.414   0.182 -2.4500  2.2750 -1.3880
  147SOL     OW  439   0.181   1.783   1.985  0.3350  0.4780  0.4220
  147SOL    HW1  440   0.213   1.697   2.035  1.2273 -1.5884 -1.6345
  147SOL    HW2  441   0.146   1.764   1.890 -0.3333  0.3288  1.1280
  148SOL     OW  442   1.342   2.980   0.070  0.1019  0.0637  0.2722
  148SOL    HW1  443   1.418   3.050   0.067 -0.0624  0.4241  1.8089
  148SOL    HW2  444   1.261   3.020   0.121  0.3229  1.2644 -0.8071
  149SOL     OW  445   0.512   2.082   0.187 -0.6204 -0.1900  0.4330
  149SOL    HW1  446   0.575   2.077   0.105 -4.4373  0.4653 -1.4363
  149SOL    HW2  447   0.422   2.119   0.161  0.2523  0.2378 -0.9379
  150SOL     OW  448   0.384   2.672   1.310  0.4253  0.0655  0.4481
  150SOL    HW1  449   0.419   2.741   1.382 -0.2433  2.5008  3.4105
  150SOL    HW2  450   0.371   2.720   1.217  0.4142 -0.0585 -0.8368
  151SOL     OW  451   0.304   1.533   3.005  0.0941 -0.5301  0.6432
  151SOL    HW1  452   0.335   1.505   2.912 -1.5328  3.5136  0.6310
  151SOL    HW2  453   0.368   1.505   3.083  0.0166 -1.2128  1.6319
  152SOL     OW  454   2.912   2.116   0.961 -0.1067 -0.7788 -0.3540
  152SOL    HW1  455   2.863   2.030   0.955  0.0737  1.8117  2.1336
  152SOL    HW2  456   2.849   2.194   0.936 -0.3414 -1.9851  2.8434
  153SOL     OW  457   1.531   2.224   0.686 -0.8069 -0.0153 -0.0098
  153SOL    HW1  458   1.585   2.153   0.637  0.2561  0.9896  2.8629
  153SOL    HW2  459   1.469   2.181   0.754  0.3548 -0.6115  3.0315
  154SOL     OW  460   0.797   2.969   1.458 -0.3411  0.1260 -0.2785
  154SOL    HW1  461   0.795   2.869   1.439 -2.3044 -1.7931  0.8450
  154SOL    HW2  462   0.711   2.996   1.509 -2.7302  1.4674 -0.6869
  155SOL     OW  463   2.628   2.119   0.511 -0.2058  0.5378 -0.0104
  155SOL    HW1  464   2.693   2.191   0.483 -1.2735 -0.9915  0.4496
  155SOL    HW2  465   2.540   2.134   0.463  0.8122 -1.1802 -0.9121
  156SOL     OW  466   2.332   2.089   0.127 -0.0038  0.0342 -0.1484
  156SOL    HW1  467   2.402   2.118   0.059 -1.0111  0.3408 -1.2454
  156SOL    HW2  468   2.364   2.108   0.223  3.1674 -0.1061  1.3892
  157SOL     OW  469   0.619   0.062   2.057  0.1002 -0.3623 -0.9546
  157SOL    HW1  470   0.582   0.159   2.044 -1.1708 -2.2627  0.6026
  157SOL    HW2  471   0.580   0.022   2.145 -2.4344 -3.3439  0.7549
  158SOL     OW  472   0.987   0.512   1.103 -1.1264  0.1104  0.4717
  158SOL    HW1  473   1.083   0.501   1.079  0.3814 -0.0643 -3.1003
  158SOL    HW2  474   0.984   0.530   1.205  0.5382  0.8919  0.2059
  159SOL     OW  475   1.901   1.097   2.860  0.6825 -0.2068  0.0980
  159SOL    HW1  476   1.875   1.120   2.763  1.9399 -0.2772 -2.2651
  159SOL    HW2  477   1.818   1.075   2.914  2.0294 -0.0023 -2.1641
  160SOL     OW  478   1.139   1.847   0.574 -0.1089  0.1080 -0.2006
  160SOL    HW1  479   1.049   1.811   0.599 -2.7997  2.3026  1.3358
  160SOL    HW2  480   1.169   1.816   0.480  1.1609  1.2299 -3.4504
  161SOL     OW  481   2.660   2.096   2.598  0.5878  0.0991 -0.5255
  161SOL    HW1  482   2.755   2.091   2.562  1.7927  1.8476 -0.1578
  161SOL    HW2  483   2.596   2.046   2.531 -0.1903  0.8274 -1.3858
  162SOL     OW  484   0.011   2.306   1.187  0.5404 -0.0778  0.2802
  162SOL    HW1  485   3.089   2.367   1.272 -0.2178 -0.4147  0.6808
  162SOL    HW2  486   0.088   2.242   1.209  1.8600 -0.2164 -2.5601
  163SOL     OW  487   0.581   0.934   2.639  0.2732 -0.3139  0.1254
  163SOL    HW1  488   0.596   1.003   2.713  0.3430  2.5212  2.7476
  163SOL    HW2  489   0.617   0.847   2.666  0.9903  1.2753 -2.4184
  164SOL     OW  490   0.347   2.647   2.802  0.3323 -0.0728 -0.3922
  164SOL    HW1  491   0.304   2.608   2.888 -1.8482 -0.2431  0.1472
  164SOL    HW2  492   0.285   2.719   2.766 -0.1123 -2.4263  0.9301
  165SOL     OW  493   2.406   0.934   1.403  0.0317 -0.1814  0.1258
  165SOL    HW1  494   2.438   0.943   1.504 -0.2345  3.0881 -0.4541
  165SOL    HW2  495   2.472   0.973   1.339 -1.3569  0.1411  0.5625
  166SOL     OW  496   1.979   1.694   1.330 -0.2594 -0.1485 -0.2310
  166SOL    HW1  497   1.982   1.787   1.375 -1.0974 -0.0876  0.9678
  166SOL    HW2  498   2.023   1.622   1.389 -1.4845 -0.7055 -2.4538
  167SOL     OW  499   0.157   0.659   3.040 -0.3142  0.0287  0.4151
  167SOL    HW1  500   0.083   0.715   3.084  1.1477 -0.1007 -1.6977
  167SOL    HW2  501   0.247   0.713   3.024  0.5987  0.3001 -0.9939
  168SOL     OW  502   1.945   0.300   2.706 -0.7042 -0.0218 -0.1414
  168SOL    HW1  503   1.948   0.392   2.665  2.6517 -1.0230 -0.0882
  168SOL    HW2  504   1.902   0.299   2.796  3.2525 -1.7265 -3.2106
  169SOL     OW  505   0.476   1.234   3.048  0.1151 -0.4016 -0.0706
  169SOL    HW1  506   0.478   1.327   3.082 -1.6230  0.6590 -0.8319
  169SOL    HW2  507   0.388   1.183   3.065 -0.2797 -3.8121  2.3852
  170SOL     OW  508   1.168   1.013   1.587  0.7760  0.3466  0.1884
  170SOL    HW1  509   1.209   0.918   1.577  0.7693 -2.3374  2.0236
  170SOL    HW2  510   1.198   1.072   1.505  1.9340  2.7054  0.0181
  171SOL     OW  511   1.658   2.621   1.087 -0.0044 -0.4121  0.0146
  171SOL    HW1  512   1.681   2.574   1.173 -1.1080  3.0622 -1.0235
  171SOL    HW2  513   1.608   2.552   1.029  1.4615 -0.9361  1.9456
  172SOL     OW  514   1.100   0.007   1.985  0.4769  0.3305  0.8970
  172SOL    HW1  515   1.004   0.012   1.958  3.2753  0.8038  1.0326
  172SOL    HW2  516   1.142   3.013   1.952  1.3981  1.7267  0.9892
  173SOL     OW  517   0.894   2.520   0.984  0.3506 -0.2198 -0.0563
  173SOL    HW1  518   0.867   2.553   0.890  0.2095 -0.5274  0.2559
  173SOL    HW2  519   0.827   2.554   1.055 -0.1258  0.9205  1.6772
  174SOL     OW  520   2.223   0.135   0.206 -0.0549 -0.3058  0.2621
  174SOL    HW1  521   2.136   0.080   0.215  0.6827 -0.0665 -2.5588
  174SOL    HW2  522   2.261   0.118   0.117 -2.7267  1.2781  2.6823
  175SOL     OW  523   0.947   1.358   0.847  0.1296  0.0293 -0.0177
  175SOL    HW1  524   0.973   1.455   0.863  0.2480 -1.3638  1.2883
  175SOL    HW2  525   0.851   1.343   0.813  1.1602 -1.2753  0.6391
  176SOL     OW  526   1.031   1.883   0.968 -0.1262 -0.5339 -0.3954
  176SOL    HW1  527   1.084   1.949   1.024  0.2036  2.3333  1.6476
  176SOL    HW2  528   0.932   1.893   0.993 -0.3165 -0.7486  0.3564
  177SOL     OW  529   1.402   0.876   1.052  0.2506 -0.3358  0.4477
  177SOL    HW1  530   1.468   0.812   1.003  1.6284 -0.4095 -1.3379
  177SOL    HW2  531   1.455   0.948   1.105  1.1037 -0.1530 -1.0507
  178SOL     OW  532   2.227   1.445   0.585 -0.4227 -0.2934 -0.7392
  178SOL    HW1  533   2.213   1.532   0.637  0.6477 -2.6620  0.7000
  178SOL    HW2  534   2.148   1.389   0.571  2.6418 -0.8125  0.2475
  179SOL     OW  535   1.031   2.825   3.078  0.3259  0.3112  0.3904
  179SOL    HW1  536   1.023   2.777   0.075 -1.3207  2.3795  0.5854
  179SOL    HW2  537   1.053   2.764   3.000  1.4303 -2.0330 -1.9123
  180SOL     OW  538   1.760   1.281   1.428  0.5182  0.3547 -0.2623
  180SOL    HW1  539   1.670   1.333   1.437 -1.2826 -0.4423  1.1313
  180SOL    HW2  540   1.829   1.310   1.498 -0.4768 -0.8541  2.2312
  181SOL     OW  541   0.894   0.951   1.618 -0.1641  0.0513 -0.2865
  181SOL    HW1  542   0.985   0.985   1.580  2.8761  1.1255 -1.9983
  181SOL    HW2  543   0.902   0.944   1.720  1.8886 -1.5197  1.0153
  182SOL     OW  544   2.872   1.004   3.074  0.4915  0.1065  0.4302
  182SOL    HW1  545   2.891   0.997   2.975 -1.5993 -1.1729  2.1921
  182SOL    HW2  546   2.874   1.104   0.014 -1.8893 -1.0961 -0.7816
  183SOL     OW  547   1.855   0.187   2.011 -0.1047  0.1696 -0.1112
  183SOL    HW1  548   1.854   0.113   1.941  1.5192 -0.7910 -0.2574
  183SOL    HW2  549   1.761   0.190   2.061 -0.8618 -1.3150  0.7435
  184SOL     OW  550   0.945   0.757   0.996  0.1564  0.0645 -0.1250
  184SOL    HW1  551   0.865   0.731   0.944  0.6874  2.3515 -1.8347
  184SOL    HW2  552   0.979   0.668   1.034  1.3204 -1.7712  0.1768
  185SOL     OW  553   2.187   1.056   0.444 -0.1930  0.8954  0.3468
  185SOL    HW1  554   2.185   1.060   0.540 -2.6279 -2.8270 -3.3317
  185SOL    HW2  555   2.261   1.111   0.399 -1.3210  1.3078  1.6174
  186SOL     OW  556   0.236   2.018   0.562  0.5731  0.2868  0.1058
  186SOL    HW1  557   0.325   2.036   0.612  2.3964  0.4574  0.4487
  186SOL    HW2  558   0.231   2.079   0.480  3.9095  1.4721 -2.1241
  187SOL     OW  559   2.024   1.805   2.644  0.0117 -0.4178  0.1506
  187SOL    HW1  560   1.952   1.880   2.668 -0.2463 -1.6340  1.1921
  187SOL    HW2  561   2.008   1.771   2.550  0.9314  1.8515 -1.5260
  188SOL     OW  562   1.384   2.634   1.509  0.4273  0.0265 -0.3261
  188SOL    HW1  563   1.305   2.683   1.461 -3.5207  1.3382  1.9619
  188SOL    HW2  564   1.353   2.538   1.539  0.8320 -1.9408  0.0484
  189SOL     OW  565   2.831   1.365   2.588 -0.1040  0.2317  0.4607
  189SOL    HW1  566   2.827   1.467   2.608  0.4669  2.2219 -2.0929
  189SOL    HW2  567   2.913   1.334   2.633 -1.8021  3.4219  1.5667
  190SOL     OW  568   0.971   2.735   2.109  0.5156  0.4028 -0.3406
  190SOL    HW1  569   0.991   2.633   2.104 -1.3085  2.2515  1.0125
  190SOL    HW2  570   1.060   2.770   2.074 -0.6033 -0.2477 -2.5815
  191SOL     OW  571   2.344   1.003   1.051 -0.1536  0.6302  0.3622
  191SOL    HW1  572   2.336   0.953   0.960  2.4313 -0.0094 -0.6090
  191SOL    HW2  573   2.253   1.043   1.074  0.7950  1.9514 -0.7978
  192SOL     OW  574   2.149   0.360   1.094  0.5800  0.0187 -0.3751
  192SOL    HW1  575   2.123   0.383   1.190 -0.6062 -1.7343  1.8263
  192SOL    HW2  576   2.059   0.356   1.037  2.2040 -0.7287  0.0579
  193SOL     OW  577   0.983   0.114   0.300  0.3676  0.4897 -0.1453
  193SOL    HW1  578   1.017   0.160   0.220 -0.5279  0.7891  2.6239
  193SOL    HW2  579   0.945   0.174   0.370 -0.3894  1.2963  0.8599
  194SOL     OW  580   1.699   2.297   0.989 -0.1489  0.3377  0.4361
  194SOL    HW1  581   1.621   2.333   0.931 -2.4586 -0.2355  0.6329
  194SOL    HW2  582   1.675   2.216   1.043  0.4981  1.6188 -0.7276
  195SOL     OW  583   2.306   0.875   0.791 -0.3757  0.0429 -0.2799
  195SOL    HW1  584   2.402   0.855   0.766 -1.2903  0.2566 -1.0895
  195SOL    HW2  585   2.252   0.946   0.744 -2.3814 -1.9735 -1.5776
  196SOL     OW  586   0.700   2.561   1.777  0.1608  0.2709  0.1340
  196SOL    HW1  587   0.690   2.622   1.856  4.4667 -2.0860 -1.0932
  196SOL    HW2  588   0.748   2.476   1.809  2.5107 -1.6466 -1.7288
  197SOL     OW  589   2.683   0.267   2.370  0.4330  0.1592  0.3368
  197SOL    HW1  590   2.638   0.357   2.369  1.1971 -1.5213 -1.5712
  197SOL    HW2  591   2.624   0.190   2.411  0.3771 -1.8206 -0.7816
  198SOL     OW  592   1.974   1.562   0.306  0.3054 -0.2014  0.8244
  198SOL    HW1  593   2.069   1.571   0.266  1.1163 -0.8233 -1.1215
  198SOL    HW2  594   1.905   1.616   0.246 -0.4673  1.1892 -0.4601
  199SOL     OW  595   2.368   0.564   1.806  0.2450 -0.1309  0.2822
  199SOL    HW1  596   2.352   0.606   1.900 -1.2543  2.3409  0.0591
  199SOL    HW2  597   2.366   0.461   1.807 -1.1133  0.8846  1.1235
  200SOL     OW  598   1.816   2.928   2.835 -0.1032  0.1224  0.8802
  200SOL    HW1  599   1.795   3.023   2.876 -0.3690  2.9745  1.9834
  200SOL    HW2  600   1.787   2.852   2.892  1.2466 -0.7628 -4.0180
  201SOL     OW  601   2.603   0.193   1.383 -0.7278  0.6928  0.2112
  201SOL    HW1  602   2.548   0.119   1.425  2.2038  1.7454  1.8506
  201SOL    HW2  603   2.551   0.230   1.302 -0.8310 -0.8462  1.8701
  202SOL     OW  604   2.650   2.993   0.568 -0.4754  0.6106 -0.3508
  202SOL    HW1  605   2.639   3.022   0.663  2.2323 -0.0735  0.2959
  202SOL    HW2  606   2.752   2.975   0.563 -2.8876 -1.6509  0.8333
  203SOL     OW  607   1.657   1.656   0.597  0.0981 -0.0059  0.1103
  203SOL    HW1  608   1.617   1.581   0.651 -1.2030  0.8430 -2.6592
  203SOL    HW2  609   1.745   1.687   0.645  1.0273 -3.0376 -1.1022
  204SOL     OW  610   0.062   1.860   2.262  0.9118 -0.1898  0.7242
  204SOL    HW1  611   0.028   1.957   2.248  0.5094 -0.7516  0.5388
  204SOL    HW2  612   0.078   1.817   2.172  0.9645  0.1887 -3.3440
  205SOL     OW  613   0.429   0.533   0.891 -0.2028  0.2870 -0.1619
  205SOL    HW1  614   0.497   0.464   0.865  1.8468  2.2762  0.3534
  205SOL    HW2  615   0.414   0.604   0.820 -0.3174 -1.4835  0.1697
  206SOL     OW  616   0.340   1.026   2.596 -0.2437 -0.0042 -0.2015
  206SOL    HW1  617   0.377   1.116   2.559  2.6489  2.8563 -0.9483
  206SOL    HW2  618   0.418   0.965   2.611 -0.8927  1.9846 -3.7511
  207SOL     OW  619   1.133   2.435   1.828  0.1488  0.4479  0.3180
  207SOL    HW1  620   1.134   2.331   1.827 -1.6207 -0.9811 -0.0000
  207SOL    HW2  621   1.068   2.477   1.763 -0.4686 -1.3185  2.0416
  208SOL     OW  622   2.226   0.087   1.115  0.1409 -0.9472  0.1601
  208SOL    HW1  623   2.328   0.090   1.107 -1.4207 -0.0852 -0.4855
  208SOL    HW2  624   2.180   0.180   1.124 -2.1639 -0.5811 -1.5467
  209SOL     OW  625   1.854   1.064   0.787  0.1642 -0.0769  0.3657
  209SOL    HW1  626   1.821   1.023   0.878 -0.0672 -1.1950  4.0172
  209SOL    HW2  627   1.840   1.003   0.704  0.5452 -1.6109 -0.3140
  210SOL     OW  628   2.132   1.093   0.720 -0.5030 -0.2688  0.0006
  210SOL    HW1  629   2.035   1.096   0.751  0.5786 -0.6262  1.4638
  210SOL    HW2  630   2.189   1.165   0.773  0.1867  0.1141  0.5681
  211SOL     OW  631   1.022   3.080   2.991  0.0621  0.2661 -0.0988
  211SOL    HW1  632   0.931   3.080   2.946  1.4028 -0.5356  0.2029
  211SOL    HW2  633   1.043   2.984   3.026 -0.4188  3.2397 -0.8956
  212SOL     OW  634   1.859   1.776   0.728  0.2703  0.5104  0.4627
  212SOL    HW1  635   1.854   1.868   0.766  1.4442 -0.1374  0.0214
  212SOL    HW2  636   1.931   1.765   0.659 -2.3454  1.2219  0.3383
  213SOL     OW  637   2.363   2.920   0.234  0.3363  0.2458 -0.0267
  213SOL    HW1  638   2.446   2.978   0.218  1.4986  0.9939 -0.0948
  213SOL    HW2  639   2.280   2.952   0.181  3.0211 -0.0503  0.7449
  214SOL     OW  640   1.222   2.387   2.287  0.2342 -0.4525 -0.0115
  214SOL    HW1  641   1.299   2.449   2.261  0.6737  0.6583 -0.2896
  214SOL    HW2  642   1.242   2.293   2.254 -1.3839 -1.2361  1.4708
  215SOL     OW  643   0.211   1.315   1.015 -0.0977  0.1154  0.4075
  215SOL    HW1  644   0.124   1.313   1.065  0.6515  0.2103 -0.9818
  215SOL    HW2  645   0.223   1.404   0.968 -0.8242  2.1942 -0.5380
  216SOL     OW  646   0.315   3.054   2.413 -0.0285 -0.4221  0.3800
  216SOL    HW1  647   0.323   3.026   2.516  0.0477  1.9668 -0.0622
  216SOL    HW2  648   0.266   0.050   2.397  0.5523 -0.9831  1.7150
  217SOL     OW  649   2.878   1.464   1.448  0.3552  0.2433 -0.2431
  217SOL    HW1  650   2.963   1.516   1.432 -1.3393 -0.5514 -0.0537
  217SOL    HW2  651   2.891   1.385   1.516 -0.7845  0.2001  0.1652
  218SOL     OW  652   0.589   2.092   1.606 -0.0979 -0.1933  0.2788
  218SOL    HW1  653   0.518   2.170   1.581 -2.3854  1.0931 -0.6572
  218SOL    HW2  654   0.584   2.080   1.708 -0.5005  2.1166  2.4822
  219SOL     OW  655   2.145   1.906   0.067 -0.4045  0.1756 -0.0554
  219SOL    HW1  656   2.223   1.964   0.087  0.2127 -2.7561 -1.2104
  219SOL    HW2  657   2.185   1.831   0.004  1.7262  0.4305 -0.1369
  220SOL     OW  658   1.834   0.095   2.954  0.1531 -0.3713  0.4813
  220SOL    HW1  659   1.925   0.139   2.961 -1.1669  3.2048 -1.8940
  220SOL    HW2  660   1.804   0.061   3.045  0.7535  1.6402 -0.6112
  221SOL     OW  661   2.722   1.044   0.310  0.3107 -0.0135 -0.4624
  221SOL    HW1  662   2.693   0.949   0.281 -0.3232  1.6643 -0.4711
  221SOL    HW2  663   2.736   1.110   0.236 -0.8923 -0.5442  2.1687
  222SOL     OW  664   1.553   1.445   0.740 -0.1745  0.7211 -0.3074
  222SOL    HW1  665   1.521   1.348   0.751  2.0673  1.8410 -1.3876
  222SOL    HW2  666   1.629   1.467   0.806 -0.8111  0.9786  1.5647
  223SOL     OW  667   0.879   0.286   2.877  0.5532  0.2597 -0.1620
  223SOL    HW1  668   0.973   0.276   2.835 -0.3155 -2.8961 -1.0592
  223SOL    HW2  669   0.868   0.362   2.943 -1.3467 -1.1776 -2.7818
  224SOL     OW  670   1.077   2.825   1.104 -0.3874  0.2270  0.0184
  224SOL    HW1  671   0.998   2.881   1.129  2.7253  0.3518 -3.1017
  224SOL    HW2  672   1.110   2.770   1.182 -0.6445  2.2035 -1.0381
  225SOL     OW  673   0.867   0.118   2.200  0.6365 -0.2378  0.5284
  225SOL    HW1  674   0.766   0.106   2.175 -0.5876 -1.9886  1.0221
  225SOL    HW2  675   0.914   0.037   2.224 -0.1382  1.7417 -0.6632
  226SOL     OW  676   1.319   1.640   0.771 -0.1570  0.4158 -0.6939
  226SOL    HW1  677   1.380   1.721   0.763 -0.5144  0.7880 -0.4591
  226SOL    HW2  678   1.375   1.558   0.787 -1.1089 -0.8625  1.4220
  227SOL     OW  679   0.245   2.216   1.310 -0.0274 -0.1417 -0.2925
  227SOL    HW1  680   0.303   2.303   1.297  1.7913  0.3210  0.0165
  227SOL    HW2  681   0.308   2.137   1.296 -1.1306 -0.5822 -0.1605
  228SOL     OW  682   3.034   2.031   0.450  0.3757  0.6286  0.2583
  228SOL    HW1  683   3.033   2.103   0.377  0.6133 -1.8637  0.9409
  228SOL    HW2  684   0.021   2.042   0.517  0.1243 -1.3251  0.7160
  229SOL     OW  685   2.674   0.263   2.811 -0.3760 -0.6113  0.3436
  229SOL    HW1  686   2.642   0.336   2.746 -0.7418  2.2762  1.0880
  229SOL    HW2  687   2.616   0.182   2.804 -1.3243 -3.4572  0.4108
  230SOL     OW  688   2.532   0.755   0.378  0.0667 -0.0378  0.2587
  230SOL    HW1  689   2.591   0.743   0.292 -0.7116 -0.0098 -0.4060
  230SOL    HW2  690   2.432   0.777   0.362  0.4059  1.7506  0.4646
  231SOL     OW  691   1.826   1.770   0.170 -0.3843 -0.3828 -0.4400
  231SOL    HW1  692   1.803   1.706   0.092 -3.3956  2.6540 -2.7356
  231SOL    HW2  693   1.861   1.855   0.132 -0.2685 -0.0538  1.9128
  232SOL     OW  694   1.837   1.872   1.096  0.1999 -0.1046  0.4784
  232SOL    HW1  695   1.872   1.809   1.169 -1.0205  2.2246 -3.1640
  232SOL    HW2  696   1.899   1.869   1.020 -0.5715  0.6215  2.6216
  233SOL     OW  697   0.557   2.862   1.866  0.4014 -0.1973  0.0148
  233SOL    HW1  698   0.583   2.957   1.836 -2.1796 -0.1003 -0.0406
  233SOL    HW2  699   0.501   2.812   1.799 -3.1425 -0.2674  2.1036
  234SOL     OW  700   0.724   0.407   2.648  0.0021 -0.1194  0.1287
  234SOL    HW1  701   0.777   0.478   2.598  0.2054  0.7809  1.0437
  234SOL    HW2  702   0.773   0.375   2.733 -2.2343 -0.6917 -1.6397
  235SOL     OW  703   2.586   1.105   1.761 -0.0989  0.4491 -0.1310
  235SOL    HW1  704   2.661   1.069   1.822  0.6704  0.7527 -2.1687
  235SOL    HW2  705   2.520   1.030   1.738  1.0571  1.1361 -0.0129
  236SOL     OW  706   1.592   2.771   1.380 -0.3126 -0.6955 -0.8412
  236SOL    HW1  707   1.540   2.823   1.309 -1.5067 -0.5694 -1.1067
  236SOL    HW2  708   1.525   2.708   1.417 -0.0014  0.2130 -0.5802
  237SOL     OW  709   0.400   1.617   2.619 -0.1412  0.0647  0.5878
  237SOL    HW1  710   0.486   1.579   2.583 -0.8296  1.7778  3.1269
  237SOL    HW2  711   0.356   1.683   2.553 -1.6964 -2.0162 -0.8070
  238SOL     OW  712   0.966   0.922   2.287 -0.2186  0.2970  0.3671
  238SOL    HW1  713   0.936   0.827   2.257 -0.6735 -6.2150  0.8428
  238SOL    HW2  714   1.062   0.941   2.256 -0.3322  2.0682  0.3875
  239SOL     OW  715   0.831   1.758   2.531  0.2222 -0.7378 -0.1429
  239SOL    HW1  716   0.795   1.811   2.610 -0.3757  2.2910  1.8589
  239SOL    HW2  717   0.871   1.820   2.458  0.4819  2.1270  0.2697
  240SOL     OW  718   2.355   2.666   0.342 -0.3413 -0.2869 -0.0385
  240SOL    HW1  719   2.358   2.744   0.276 -1.0157 -0.1781  3.1291
  240SOL    HW2  720   2.400   2.699   0.432 -0.6754  2.1724 -0.5105
  241SOL     OW  721   0.332   1.140   0.304 -0.5052 -0.6496 -0.0862
  241SOL    HW1  722   0.400   1.083   0.352  0.9352  1.8275 -2.9369
  241SOL    HW2  723   0.361   1.234   0.328  2.8684 -6.0641  0.3749
  242SOL     OW  724   1.560   2.606   1.726  0.2487 -0.3567 -0.1421
  242SOL    HW1  725   1.512   2.624   1.632 -1.6893 -0.0245 -3.7317
  242SOL    HW2  726   1.659   2.582   1.724  1.5648  1.0132 -2.4445
  243SOL     OW  727   0.949   2.615   1.705  0.1116  0.6348  0.0394
  243SOL    HW1  728   0.967   2.712   1.722  0.0406 -2.5402 -0.0503
  243SOL    HW2  729   0.859   2.588   1.747 -0.0606  1.2144  1.6636
  244SOL     OW  730   2.259   0.590   2.522  0.0438  0.5257 -0.4825
  244SOL    HW1  731   2.245   0.689   2.500  0.3074 -1.2648  1.3320
  244SOL    HW2  732   2.286   0.580   2.620  0.6274  0.6804  0.8964
  245SOL     OW  733   1.349   2.268   1.273  0.6103  0.1036  0.3409
  245SOL    HW1  734   1.422   2.285   1.343  0.9115  0.7667  1.2689
  245SOL    HW2  735   1.366   2.184   1.213 -0.7016 -1.3798  0.6139
  246SOL     OW  736   1.527   0.126   0.053  0.5744 -0.6030 -0.8059
  246SOL    HW1  737   1.515   0.164   0.147 -1.5614 -1.1922 -0.7835
  246SOL    HW2  738   1.501   0.195   3.076  4.0422 -0.7996 -0.2775
  247SOL     OW  739   1.788   0.405   1.831 -0.0889  0.2176 -0.2974
  247SOL    HW1  740   1.866   0.450   1.783 -1.0058  0.2924  1.3289
  247SOL    HW2  741   1.822   0.316   1.871  2.3138 -1.2215 -0.0540
  248SOL     OW  742   0.041   2.162   1.493  0.4156 -0.0212 -0.8992
  248SOL    HW1  743   0.129   2.178   1.437 -0.1752 -0.6752 -4.8883
  248SOL    HW2  744   3.072   2.112   1.428  0.5317 -0.7631 -1.6683
  249SOL     OW  745   0.516   0.301   0.276 -0.3002  0.5558 -0.0244
  249SOL    HW1  746   0.428   0.314   0.335 -1.9899  0.6115  0.6237
  249SOL    HW2  747   0.523   0.199   0.254  0.5519 -1.7676 -2.0334
  250SOL     OW  748   2.297   0.184   2.196  0.2434  0.2571  0.1931
  250SOL    HW1  749   2.251   0.213   2.282 -0.7722 -0.4515  2.3227
  250SOL    HW2  750   2.387   0.232   2.180  0.1783 -1.7094 -0.1485
  251SOL     OW  751   1.391   0.713   3.042 -0.1223 -0.8013 -0.5182
  251SOL    HW1  752   1.381   0.648   0.026  0.5227 -1.5032 -0.6395
  251SOL    HW2  753   1.314   0.705   2.978 -0.4132 -0.1841  3.4352
  252SOL     OW  754   1.518   2.422   2.242  0.0819  0.2259  0.1126
  252SOL    HW1  755   1.561   2.507   2.275  0.1764 -1.1902  0.9227
  252SOL    HW2  756   1.562   2.385   2.158  1.5317  0.3486  1.1863
  253SOL     OW  757   2.775   2.712   0.446  0.4392 -0.7441  0.9001
  253SOL    HW1  758   2.677   2.725   0.468  3.2314 -2.1638 -2.2812
  253SOL    HW2  759   2.831   2.768   0.510 -1.2295  2.6516  2.1470
  254SOL     OW  760   2.157   1.055   1.427  0.3044  0.1274  0.4546
  254SOL    HW1  761   2.164   1.158   1.406  2.1354  3.1216  0.5866
  254SOL    HW2  762   2.244   1.012   1.401  0.0409 -0.0140 -0.0842
  255SOL     OW  763   0.837   2.700   1.362  0.0461 -0.0340 -0.2943
  255SOL    HW1  764   0.788   2.691   1.269  0.8255  2.7512 -1.4029
  255SOL    HW2  765   0.794   2.634   1.429 -0.9607  0.0290  3.4951
  256SOL     OW  766   2.251   1.802   1.652 -0.0614 -0.3722  0.4751
  256SOL    HW1  767   2.261   1.704   1.629 -0.9656 -1.6857  0.3207
  256SOL    HW2  768   2.248   1.808   1.757  0.5497 -1.1115  3.7693
  257SOL     OW  769   0.449   2.417   2.665  0.2296 -0.2135  0.1354
  257SOL    HW1  770   0.478   2.347   2.735 -2.1405 -0.6216 -2.9221
  257SOL    HW2  771   0.450   2.509   2.711  1.2486  1.5995 -1.0311
  258SOL     OW  772   0.500   2.615   0.954  0.1427 -0.4960 -0.1348
  258SOL    HW1  773   0.424   2.666   0.998  0.9027 -1.3054 -1.5269
  258SOL    HW2  774   0.526   2.662   0.870 -0.1068  0.5033  4.0088
  259SOL     OW  775   1.420   0.762   2.617 -0.2236 -0.1538 -0.3555
  259SOL    HW1  776   1.507   0.768   2.667 -1.4080 -0.2609  0.1030
  259SOL    HW2  777   1.349   0.826   2.648  0.2072  1.7925 -3.2716
  260SOL     OW  778   0.263   0.245   1.226  0.0194  0.2934 -0.0666
  260SOL    HW1  779   0.352   0.189   1.235  2.9273 -1.5103  3.3674
  260SOL    HW2  780   0.243   0.278   1.132  1.0431 -0.3831 -0.8212
  261SOL     OW  781   1.089   0.228   2.378 -0.0832  0.0625 -0.2418
  261SOL    HW1  782   1.025   0.191   2.454 -1.9257 -0.8636  0.9296
  261SOL    HW2  783   1.174   0.274   2.419  2.8243 -0.3830  3.6000
  262SOL     OW  784   1.217   2.855   1.904 -0.1036 -0.1280  0.2216
  262SOL    HW1  785   1.262   2.788   1.967  0.2025 -3.0256 -0.2694
  262SOL    HW2  786   1.162   2.803   1.834  0.7592 -1.8150  0.3846
  263SOL     OW  787   0.723   2.087   0.019 -0.0589  0.0521  0.0622
  263SOL    HW1  788   0.774   2.174   0.050 -0.0418 -0.0994  2.1077
  263SOL    HW2  789   0.765   2.036   3.030 -0.9836  2.6399 -0.0545
  264SOL     OW  790   1.443   1.801   1.061 -0.2235 -0.0632 -0.2850
  264SOL    HW1  791   1.478   1.716   1.105 -0.5799 -1.9989 -0.0406
  264SOL    HW2  792   1.485   1.797   0.966  1.8472 -0.4167 -0.5155
  265SOL     OW  793   0.935   2.158   0.428 -0.1829 -0.8487  0.3277
  265SOL    HW1  794   1.004   2.104   0.380 -0.1315  0.4813 -1.0637
  265SOL    HW2  795   0.837   2.129   0.424  0.3552  2.2393  0.2080
  266SOL     OW  796   2.720   0.837   1.044  0.3783 -0.3150  0.0143
  266SOL    HW1  797   2.651   0.763   1.020 -1.7408  1.8814 -0.8964
  266SOL    HW2  798   2.794   0.792   1.093  2.7420 -0.7581 -1.7843
  267SOL     OW  799   0.093   1.565   0.269 -0.9369  0.3405  0.7435
  267SOL    HW1  800   0.144   1.508   0.337 -0.2895 -0.7258  0.9106
  267SOL    HW2  801   0.122   1.663   0.282 -1.0090  0.5531 -0.2078
  268SOL     OW  802   1.394   0.527   0.161 -0.3519 -0.0842 -0.2648
  268SOL    HW1  803   1.292   0.505   0.162  0.0240 -0.2047  1.4021
  268SOL    HW2  804   1.423   0.604   0.227 -1.4486 -3.0721 -0.9890
  269SOL     OW  805   2.632   0.843   2.182  0.5588 -0.4321  0.1828
  269SOL    HW1  806   2.611   0.780   2.258  4.4199  2.3095 -2.1684
  269SOL    HW2  807   2.710   0.809   2.124  0.5057  2.9550 -2.2097
  270SOL     OW  808   2.730   1.106   0.704  0.2848  0.0829 -0.0263
  270SOL    HW1  809   2.711   1.205   0.711  4.5235 -1.3322  1.5197
  270SOL    HW2  810   2.649   1.055   0.664 -0.8012 -1.1591  0.6117
  271SOL     OW  811   0.124   1.246   2.248 -0.3317  0.2312  0.2439
  271SOL    HW1  812   0.072   1.237   2.163 -0.2353  0.4821  1.3862
  271SOL    HW2  813   0.226   1.230   2.229 -0.8030 -2.3903  0.5801
  272SOL     OW  814   2.573   2.304   1.869 -0.3924 -0.0771  0.2396
  272SOL    HW1  815   2.493   2.330   1.925  2.7570 -1.3985 -4.3559
  272SOL    HW2  816   2.604   2.208   1.884  0.2118  1.3293  0.1912
  273SOL     OW  817   0.235   2.533   3.021  0.6711  0.5803 -0.0031
  273SOL    HW1  818   0.312   2.475   3.052 -2.9240  1.0859 -1.5857
  273SOL    HW2  819   0.164   2.475   2.968 -1.7672 -0.6463  3.0356
  274SOL     OW  820   0.844   2.243   0.961  0.0798  0.0263 -0.0947
  274SOL    HW1  821   0.854   2.347   0.977  1.4132  1.4801 -0.0337
  274SOL    HW2  822   0.842   2.226   0.863 -1.9597  0.9889  1.2518
  275SOL     OW  823   1.346   2.014   2.648  0.4540 -0.1434 -0.0821
  275SOL    HW1  824   1.321   2.111   2.668 -1.2222  2.1564 -0.0299
  275SOL    HW2  825   1.445   1.995   2.656 -1.9407  0.4782 -2.0463
  276SOL     OW  826   2.846   1.774   2.080  0.3929 -0.1678 -0.7111
  276SOL    HW1  827   2.796   1.701   2.019  1.2631 -0.7979 -2.7503
  276SOL    HW2  828   2.792   1.802   2.162 -0.2495 -2.1238  1.2768
  277SOL     OW  829   2.195   0.182   0.761 -0.0834  0.6240 -0.1750
  277SOL    HW1  830   2.211   0.245   0.686  1.2389 -0.7156  2.7221
  277SOL    HW2  831   2.100   0.178   0.787  1.0650  0.4272  0.1188
  278SOL     OW  832   1.334   0.314   2.499  0.1316  0.0005 -0.3854
  278SOL    HW1  833   1.339   0.411   2.479 -0.9056 -0.9064 -0.2666
  278SOL    HW2  834   1.371   0.281   2.588  0.2638 -0.8783 -0.5332
  279SOL     OW  835   1.289   2.673   0.993 -0.4164  0.5801 -0.0811
  279SOL    HW1  836   1.287   2.625   1.085 -0.3748  0.6047 -1.2456
  279SOL    HW2  837   1.223   2.752   0.990 -0.9045 -0.9815 -0.2154
  280SOL     OW  838   1.115   1.143   0.487 -0.2671 -0.0377  0.1794
  280SOL    HW1  839   1.161   1.061   0.455 -1.4735  0.7180 -0.1500
  280SOL    HW2  840   1.138   1.158   0.584  0.3317 -1.9733  0.6933
  281SOL     OW  841   2.051   1.791   0.521 -0.4298  0.1545 -0.0492
  281SOL    HW1  842   2.153   1.814   0.527  2.9385 -1.1736  0.4632
  281SOL    HW2  843   2.041   1.696   0.490 -1.4435 -1.0414  1.0085
  282SOL     OW  844   2.775   1.448   0.570  0.1470 -0.1091 -0.4193
  282SOL    HW1  845   2.676   1.462   0.557 -0.4526  1.4919  0.2954
  282SOL    HW2  846   2.833   1.487   0.490  1.6107  0.6204 -1.6325
  283SOL     OW  847   1.545   2.618   3.048 -0.1656  0.5147  0.3203
  283SOL    HW1  848   1.469   2.558   3.076  1.9834  0.7372 -1.3200
  283SOL    HW2  849   1.527   2.652   2.953  1.6183 -0.2444  0.9062
  284SOL     OW  850   0.449   0.423   2.540 -0.4581  0.0828  0.3588
  284SOL    HW1  851   0.534   0.394   2.587  1.2876 -1.2488  2.4539
  284SOL    HW2  852   0.366   0.421   2.606 -0.4583  0.4154  2.6854
  285SOL     OW  853   1.760   1.611   3.042  0.1616 -0.0422  0.3872
  285SOL    HW1  854   1.673   1.656   3.012  0.4675 -0.6494  1.8546
  285SOL    HW2  855   1.836   1.636   2.978  1.0599  1.5220  3.7446
  286SOL     OW  856   1.212   1.910   1.688 -0.2715  0.4134  0.0326
  286SOL    HW1  857   1.161   1.837   1.738 -2.0812 -1.8042  0.3342
  286SOL    HW2  858   1.191   1.908   1.591 -4.3260  0.1104 -0.0717
  287SOL     OW  859   1.863   2.779   1.277 -0.6866  0.3869  0.5627
  287SOL    HW1  860   1.772   2.759   1.310  0.7089  0.5986  0.3492
  287SOL    HW2  861   1.862   2.797   1.177  0.1262  2.5265 -0.2546
  288SOL     OW  862   0.588   2.462   2.105 -0.0457 -0.1220 -0.2814
  288SOL    HW1  863   0.520   2.484   2.174 -1.8415  1.3941 -0.1433
  288SOL    HW2  864   0.641   2.551   2.093  0.5785  0.1072  1.0981
  289SOL     OW  865   3.049   1.840   0.751 -0.6646 -0.0692  0.2167
  289SOL    HW1  866   2.969   1.888   0.720  3.4340 -2.8426  2.2682
  289SOL    HW2  867   3.030   1.813   0.845  0.5214 -2.1420 -3.1281
  290SOL     OW  868   0.869   2.138   1.820 -0.0188 -0.6164  0.1587
  290SOL    HW1  869   0.849   2.045   1.853  1.0586  1.3150  0.5576
  290SOL    HW2  870   0.807   2.206   1.870 -0.7934 -2.0454 -1.0911
  291SOL     OW  871   1.909   0.195   0.239  0.5990  0.2481  0.1568
  291SOL    HW1  872   1.867   0.268   0.179  2.2869  2.3304 -0.4268
  291SOL    HW2  873   1.870   0.103   0.215 -2.3281 -2.4769 -0.5291
  292SOL     OW  874   0.640   0.264   1.550  0.0980 -0.3864 -0.1944
  292SOL    HW1  875   0.546   0.238   1.577  0.0021  0.2712  1.5632
  292SOL    HW2  876   0.705   0.239   1.622  0.4271  0.1357 -1.7360
  293SOL     OW  877   2.202   1.416   1.080 -0.7780 -0.0867  0.1353
  293SOL    HW1  878   2.299   1.451   1.092  2.5569  1.8386 -0.9208
  293SOL    HW2  879   2.202   1.353   1.000 -0.6356 -0.4542 -0.0741
  294SOL     OW  880   0.409   0.441   2.282 -0.1982 -0.3244 -0.0761
  294SOL    HW1  881   0.311   0.424   2.252 -2.1777  0.2197 -0.6178
  294SOL    HW2  882   0.417   0.432   2.382  0.8930  2.4955 -3.9591
  295SOL     OW  883   1.059   1.518   0.455 -0.6626  0.0759 -0.1300
  295SOL    HW1  884   1.160   1.531   0.446  0.5676 -1.1475  0.1384
  295SOL    HW2  885   1.014   1.442   0.404 -0.2966  0.4306  1.7815
  296SOL     OW  886   2.097   1.095   1.124 -0.4434 -0.3357  0.0909
  296SOL    HW1  887   2.042   1.146   1.050 -0.6634  1.0641 -3.4987
  296SOL    HW2  888   2.119   1.160   1.202 -0.7137 -1.5877 -1.1256
  297SOL     OW  889   1.865   0.842   2.475  0.3120  0.2086  0.1946
  297SOL    HW1  890   1.879   0.942   2.495  2.0714 -1.0832  0.5231
  297SOL    HW2  891   1.874   0.822   2.372 -0.4754  0.6446 -3.3443
  298SOL     OW  892   0.979   0.543   2.683  0.6235  0.0009 -0.1898
  298SOL    HW1  893   1.055   0.474   2.709  1.9075  0.0164  1.7901
  298SOL    HW2  894   0.999   0.590   2.594 -0.8446  0.8762  3.0690
  299SOL     OW  895   1.428   0.269   1.982 -0.0443  0.6425 -0.0328
  299SOL    HW1  896   1.347   0.208   1.962  1.4017 -1.5351  0.3108
  299SOL    HW2  897   1.407   0.348   2.042 -0.7251 -0.9601 -0.8147
  300SOL     OW  898   2.543   3.066   1.887 -0.0708  0.4914 -0.1818
  300SOL    HW1  899   2.520   2.996   1.813 -0.5447 -5.1212 -0.8181
  300SOL    HW2  900   2.583   0.054   1.839 -1.1932 -1.2581  1.0287
  301SOL     OW  901   1.842   0.768   1.570  0.0356  0.0034 -0.3701
  301SOL    HW1  902   1.741   0.764   1.549  0.4521  0.9082 -0.1660
  301SOL    HW2  903   1.856   0.813   1.662  0.0580 -1.7966  1.1920
  302SOL     OW  904   0.675   2.735   2.521  0.1405  0.3218  0.0034
  302SOL    HW1  905   0.660   2.637   2.503 -0.9828 -1.3895 -0.4534
  302SOL    HW2  906   0.755   2.770   2.470  1.5415 -2.9032 -0.3482
  303SOL     OW  907   1.651   1.944   1.637 -0.2514  0.9443  0.0722
  303SOL    HW1  908   1.682   1.964   1.539 -0.1849  1.5839 -5.0469
  303SOL    HW2  909   1.571   1.881   1.635 -1.6948 -2.9642 -0.9069
  304SOL     OW  910   0.278   2.834   0.749 -0.4888  0.0793  0.2362
  304SOL    HW1  911   0.379   2.840   0.744 -0.2654  1.9207  0.1436
  304SOL    HW2  912   0.244   2.753   0.798  0.3941  2.0389  0.8677
  305SOL     OW  913   1.481   0.697   0.342  0.4719  0.2208 -0.3018
  305SOL    HW1  914   1.469   0.795   0.343 -3.7149 -3.9212  1.2662
  305SOL    HW2  915   1.474   0.659   0.435 -1.1207 -1.6115 -1.9076
  306SOL     OW  916   0.466   1.479   0.116 -0.3460  0.4139  0.6230
  306SOL    HW1  917   0.569   1.484   0.129 -0.4101  1.7185 -1.6773
  306SOL    HW2  918   0.419   1.470   0.206 -0.0239  0.2726 -0.4886
  307SOL     OW  919   0.403   0.887   1.638  0.6694 -0.4130 -0.9755
  307SOL    HW1  920   0.455   0.956   1.585  0.8706 -1.8298  0.2163
  307SOL    HW2  921   0.375   0.812   1.577  1.3323  2.0727  2.1006
  308SOL     OW  922   0.670   0.106   1.108 -0.0964  0.5042  0.0075
  308SOL    HW1  923   0.674   0.122   1.005  0.3665  1.2352 -1.0787
  308SOL    HW2  924   0.727   0.180   1.153  2.6528  0.3935 -0.5242
  309SOL     OW  925   2.072   0.858   2.922 -0.2073 -0.0666 -0.0273
  309SOL    HW1  926   2.145   0.929   2.948 -2.2417  1.6789  0.7662
  309SOL    HW2  927   1.991   0.904   2.884  1.7248 -0.0349 -2.7140
  310SOL     OW  928   1.208   1.122   0.020  0.9155 -0.1062 -0.4916
  310SOL    HW1  929   1.165   1.189   3.047 -0.8097  1.9807  0.2749
  310SOL    HW2  930   1.222   1.162   0.113 -2.9611 -1.2646 -2.1210
  311SOL     OW  931   1.738   2.377   2.653 -0.6289  0.3576  0.3733
  311SOL    HW1  932   1.714   2.314   2.575 -1.8174 -0.5205  1.1242
  311SOL    HW2  933   1.771   2.470   2.628 -0.3791 -2.8067  1.9090
  312SOL     OW  934   2.105   3.018   2.905 -0.5125 -0.1674 -0.2321
  312SOL    HW1  935   2.058   0.016   2.902  1.7500  2.4291 -1.6553
  312SOL    HW2  936   2.087   2.978   2.996  0.3323  1.6034 -0.2225
  313SOL     OW  937   0.426   0.721   0.713  0.2772 -0.4037  1.0898
  313SOL    HW1  938   0.411   0.749   0.613  0.0601  0.9854 -2.3118
  313SOL    HW2  939   0.494   0.782   0.750 -2.1471  0.6117  0.6639
  314SOL     OW  940   2.519   1.347   3.015  0.1156 -0.1360  0.2120
  314SOL    HW1  941   2.470   1.302   2.935 -1.5609  0.5302  0.1475
  314SOL    HW2  942   2.612   1.387   2.987  4.2137  1.1283 -1.4696
  315SOL     OW  943   1.922   0.871   1.828 -0.3048  0.2581 -0.2471
  315SOL    HW1  944   1.951   0.799   1.894  1.0257  2.8749  1.1215
  315SOL    HW2  945   1.885   0.958   1.872 -2.2793  0.3680  2.1461
  316SOL     OW  946   3.081   0.803   0.828 -0.2635 -0.2166 -0.2327
  316SOL    HW1  947   3.006   0.872   0.844  0.7546  1.9979 -1.7346
  316SOL    HW2  948   0.028   0.807   0.732  1.0628  0.6701 -2.6144
  317SOL     OW  949   0.750   0.278   0.048 -0.5595  0.6776  0.2792
  317SOL    HW1  950   0.697   0.251   0.128  1.1637 -0.0826 -2.8738
  317SOL    HW2  951   0.775   0.201   3.079 -1.2916  2.2398 -1.0622
  318SOL     OW  952   2.694   2.845   1.293  0.5504  0.3798 -0.0073
  318SOL    HW1  953   2.796   2.854   1.305 -1.4962  0.5757  3.0545
  318SOL    HW2  954   2.656   2.801   1.376  2.7060 -1.3650  0.2434
  319SOL     OW  955   1.315   1.605   0.451  0.0776 -0.3541  0.4634
  319SOL    HW1  956   1.325   1.685   0.390 -0.4727 -0.3470 -0.9515
  319SOL    HW2  957   1.351   1.619   0.544 -3.0985 -0.4423  0.3714
  320SOL     OW  958   0.704   2.264   1.165 -0.5893  0.6749 -0.7805
  320SOL    HW1  959   0.610   2.281   1.132  2.2604 -0.5201 -0.6292
  320SOL    HW2  960   0.776   2.263   1.088  0.6502  0.6492  1.0825
  321SOL     OW  961   2.062   2.435   2.548 -0.2745 -0.7425 -0.3884
  321SOL    HW1  962   2.052   2.516   2.609 -0.5255 -0.9748 -0.5417
  321SOL    HW2  963   1.989   2.441   2.477  0.1186  0.2478  1.1484
  322SOL     OW  964   2.971   2.634   2.504 -0.0981  0.0071  0.2522
  322SOL    HW1  965   3.030   2.550   2.509 -0.4341 -0.6006 -2.9784
  322SOL    HW2  966   2.930   2.662   2.591  2.3161  0.5724 -2.9530
  323SOL     OW  967   2.814   0.493   0.933  0.2193 -0.3656 -0.2484
  323SOL    HW1  968   2.916   0.480   0.937 -1.6531 -1.6760 -0.0288
  323SOL    HW2  969   2.777   0.528   0.842 -1.0529 -0.2243  0.0646
  324SOL     OW  970   2.434   1.890   2.481  0.7243  0.2602  0.6407
  324SOL    HW1  971   2.455   1.800   2.434 -0.0057  0.6670 -0.0591
  324SOL    HW2  972   2.374   1.870   2.564  0.0023  1.5032 -0.2861
  325SOL     OW  973   1.727   0.621   2.293  0.1091  0.1939  0.1632
  325SOL    HW1  974   1.687   0.713   2.305 -1.3161 -1.2563  3.0013
  325SOL    HW2  975   1.735   0.595   2.195 -2.1156 -0.1039 -0.3304
  326SOL     OW  976   2.720   2.383   0.460  0.1571 -0.4315 -0.3038
  326SOL    HW1  977   2.661   2.393   0.542 -0.5486 -1.7397 -1.3881
  326SOL    HW2  978   2.814   2.406   0.489 -3.3964 -1.1587  0.5050
  327SOL     OW  979   2.552   0.014   2.888  0.1932  0.4473 -0.6021
  327SOL    HW1  980   2.479   0.044   2.956  0.8226  0.1359  2.0340
  327SOL    HW2  981   2.612   3.028   2.919  1.6279  1.4531 -0.6497
  328SOL     OW  982   0.913   0.474   0.755  0.4192  0.0862  0.0782
  328SOL    HW1  983   0.907   0.531   0.674  0.7582 -1.0117 -1.1124
  328SOL    HW2  984   1.006   0.478   0.801  2.8084  1.1438  3.8148
  329SOL     OW  985   1.997   0.778   1.343  0.2961 -0.6836 -0.0284
  329SOL    HW1  986   1.938   0.754   1.421  2.6473 -1.0465 -1.0227
  329SOL    HW2  987   2.066   0.851   1.376  2.5834  1.7302  2.1013
  330SOL     OW  988   1.216   0.281   0.630 -0.1365 -0.9402  0.1251
  330SOL    HW1  989   1.155   0.338   0.690 -1.0145 -0.9194  1.0670
  330SOL    HW2  990   1.306   0.332   0.620  1.0352  1.2566 -1.1350
  331SOL     OW  991   0.505   2.036   1.866  0.1471  0.3627 -0.7630
  331SOL    HW1  992   0.517   1.943   1.909 -1.5874 -1.5945  0.8183
  331SOL    HW2  993   0.480   2.098   1.941 -0.4189 -2.0864  0.1753
  332SOL     OW  994   2.331   2.121   1.637 -0.7840 -0.5497 -0.0731
  332SOL    HW1  995   2.303   2.119   1.731  0.9398 -0.4026 -2.3527
  332SOL    HW2  996   2.391   2.042   1.612 -0.1517 -0.9317  1.4788
  333SOL     OW  997   2.784   2.987   0.992 -0.1308  0.0827 -0.1482
  333SOL    HW1  998   2.781   3.040   1.080  1.5500  1.7310  3.3614
  333SOL    HW2  999   2.721   3.034   0.923 -1.8866 -0.0826 -0.9987
  334SOL     OW 1000   2.848   1.516   1.041 -0.0801 -0.0147 -0.3307
  334SOL    HW1 1001   2.944   1.553   1.047  0.0183  0.4545 -0.4324
  334SOL    HW2 1002   2.835   1.464   0.955 -2.5675  0.6012 -0.2970
  335SOL     OW 1003   0.451   2.911   2.635 -0.0268 -0.2163  0.2321
  335SOL    HW1 1004   0.377   2.848   2.672  0.6535 -1.0811  2.1626
  335SOL    HW2 1005   0.515   2.853   2.579  0.4988 -0.2247  0.6568
  336SOL     OW 1006   0.193   2.742   1.652  0.0378 -0.2369 -0.2957
  336SOL    HW1 1007   0.178   2.842   1.634 -1.9369  0.8617  1.9494
  336SOL    HW2 1008   0.129   2.705   1.721  2.0341  0.5532  1.1087
  337SOL     OW 1009   0.930   1.937   2.354 -0.4799  0.1499 -0.2718
  337SOL    HW1 1010   1.024   1.971   2.383  1.1957 -1.0472  2.1666
  337SOL    HW2 1011   0.874   2.011   2.305  1.8830 -1.6479 -2.0071
  338SOL     OW 1012   1.046   3.012   2.341 -0.3027 -0.2480  0.6508
  338SOL    HW1 1013   1.132   2.965   2.322 -0.7254  2.9550 -0.8088
  338SOL    HW2 1014   1.064   0.013   2.378  0.1407 -3.0311 -0.5948
  339SOL     OW 1015   3.078   1.422   2.926  0.1916  0.1643  0.4878
  339SOL    HW1 1016   3.052   1.389   2.834 -0.1704  0.4285  3.2830
  339SOL    HW2 1017   0.012   1.519   2.924 -0.8941 -4.2958 -0.3601
  340SOL     OW 1018   2.029   0.507   1.336  0.0661 -0.2153 -0.1444
  340SOL    HW1 1019   2.014   0.598   1.296  0.5402 -0.1569  1.1926
  340SOL    HW2 1020   2.099   0.502   1.410 -3.0863 -1.1949  0.8131
  341SOL     OW 1021   1.922   1.256   0.965  0.4303  0.3642  0.3246
  341SOL    HW1 1022   1.958   1.348   0.933  0.8372  0.1277  1.4724
  341SOL    HW2 1023   1.918   1.188   0.895 -1.4080 -0.4364  0.2207
  342SOL     OW 1024   2.131   2.171   2.568  0.0544 -0.2359 -0.0852
  342SOL    HW1 1025   2.189   2.153   2.487 -1.5304  1.5095  0.6295
  342SOL    HW2 1026   2.101   2.269   2.582 -0.2402  3.0169 -0.1543
  343SOL     OW 1027   2.955   2.557   1.065  0.1327  0.9799 -0.0226
  343SOL    HW1 1028   3.007   2.485   1.014  2.0196  2.0088  1.1682
  343SOL    HW2 1029   2.906   2.517   1.149 -0.3095  2.6038  0.1320
  344SOL     OW 1030   2.541   2.647   0.801 -0.1073 -0.2604  0.3867
  344SOL    HW1 1031   2.469   2.707   0.850 -0.8192  0.3432  1.9917
  344SOL    HW2 1032   2.624   2.645   0.854 -3.3688  0.0159 -1.3377
  345SOL     OW 1033   2.406   2.177   0.385  0.2254  0.0042  0.2228
  345SOL    HW1 1034   2.306   2.178   0.406 -0.1047  2.4351  1.6157
  345SOL    HW2 1035   2.439   2.274   0.373 -0.3245  1.2489 -2.4003
  346SOL     OW 1036   1.143   2.157   1.823  0.0766  0.1973 -0.1732
  346SOL    HW1 1037   1.039   2.143   1.830  0.1415 -2.9097  2.8694
  346SOL    HW2 1038   1.190   2.106   1.752  0.8483 -0.1251 -0.4566
  347SOL     OW 1039   1.504   1.966   2.358  0.3155 -0.3829 -0.2078
  347SOL    HW1 1040   1.433   2.008   2.416 -2.3900 -0.3175 -1.3011
  347SOL    HW2 1041   1.510   2.015   2.270 -2.7529 -0.2472 -0.7376
  348SOL     OW 1042   0.429   2.027   1.276 -0.3461  0.2230 -0.3044
  348SOL    HW1 1043   0.386   2.015   1.184  1.6881  3.4717 -2.7638
  348SOL    HW2 1044   0.530   2.038   1.259  0.3705  1.7698  1.3794
  349SOL     OW 1045   1.551   1.437   1.482 -0.1483  0.7344  0.6798
  349SOL    HW1 1046   1.594   1.511   1.536  2.0941 -0.5715 -0.2953
  349SOL    HW2 1047   1.457   1.465   1.449 -1.7372 -0.2369  1.8899
  350SOL     OW 1048   2.298   2.200   0.851 -0.3597  0.4565 -0.2203
  350SOL    HW1 1049   2.217   2.173   0.908 -2.1548  1.1045 -1.1269
  350SOL    HW2 1050   2.268   2.271   0.787  0.6398  0.5845  4.5499
  351SOL     OW 1051   0.496   0.057   1.757 -0.2509  0.0770 -0.1024
  351SOL    HW1 1052   0.519   0.104   1.844 -0.3889 -1.8202 -1.3163
  351SOL    HW2 1053   0.402   0.086   1.731 -0.1767 -0.5716  3.1898
  352SOL     OW 1054   0.688   1.237   0.253  0.2464 -0.0740 -0.0197
  352SOL    HW1 1055   0.592   1.245   0.286  1.4495 -0.0519  1.3091
  352SOL    HW2 1056   0.698   1.168   0.176 -0.7880 -1.2071 -2.5885
  353SOL     OW 1057   0.659   1.538   2.936 -0.0346  0.1116 -0.3399
  353SOL    HW1 1058   0.738   1.564   2.872 -1.5417 -0.0928 -0.6681
  353SOL    HW2 1059   0.591   1.492   2.880  1.6040  0.4216  1.0436
  354SOL     OW 1060   1.862   2.359   1.834 -0.0848  0.3985  0.5566
  354SOL    HW1 1061   1.900   2.440   1.777  0.2678  1.3476 -2.3880
  354SOL    HW2 1062   1.931   2.322   1.905 -0.5699 -2.1853  1.5413
  355SOL     OW 1063   2.053   0.594   2.894  0.1517 -0.3033  0.1586
  355SOL    HW1 1064   2.123   0.555   2.838 -1.6751 -0.9975  1.5112
  355SOL    HW2 1065   2.057   0.693   2.888 -0.6452 -0.1970 -0.0950
  356SOL     OW 1066   0.696   2.057   1.343 -0.1333  0.3801  0.1384
  356SOL    HW1 1067   0.715   2.138   1.284 -0.0403 -0.7637 -0.6538
  356SOL    HW2 1068   0.683   2.089   1.439  1.5613 -2.1819  1.2916
  357SOL     OW 1069   0.242   0.172   1.702 -0.1024  0.2921 -0.0291
  357SOL    HW1 1070   0.155   0.144   1.754 -1.3267 -0.7353  2.8607
  357SOL    HW2 1071   0.281   0.262   1.728  1.8266  1.6327  1.2544
  358SOL     OW 1072   2.554   1.944   1.547 -0.5543  0.0409  0.4288
  358SOL    HW1 1073   2.525   1.859   1.496  0.1446  0.4105 -1.2886
  358SOL    HW2 1074   2.629   1.990   1.493  2.2925 -1.1264  0.2770
  359SOL     OW 1075   2.091   1.886   2.198 -0.1831  0.2018  0.1461
  359SOL    HW1 1076   2.015   1.932   2.151  1.2821  0.5393 -1.8876
  359SOL    HW2 1077   2.139   1.958   2.247  1.0860 -3.7274  0.1860
  360SOL     OW 1078   1.403   2.646   0.743 -0.3689  0.3054 -0.1439
  360SOL    HW1 1079   1.378   2.664   0.840  0.7274 -1.1142  0.8866
  360SOL    HW2 1080   1.427   2.735   0.701  2.3817 -2.6193 -2.4187
  361SOL     OW 1081   2.048   2.969   0.099  0.1870  0.6529 -0.1525
  361SOL    HW1 1082   1.952   2.995   0.119  0.6009  1.8829  3.5866
  361SOL    HW2 1083   2.081   2.878   0.136  1.8106 -0.0295  0.2793
  362SOL     OW 1084   1.712   0.799   1.292 -0.3992  0.2292 -0.7694
  362SOL    HW1 1085   1.779   0.881   1.294 -1.6653  3.0566 -0.7341
  362SOL    HW2 1086   1.736   0.716   1.236 -0.8099 -0.9365 -0.8914
  363SOL     OW 1087   1.718   1.488   2.070  0.1613  0.2766 -0.7887
  363SOL    HW1 1088   1.667   1.412   2.124 -1.2692 -2.1930  3.3689
  363SOL    HW2 1089   1.804   1.505   2.122  1.4656 -2.0662  0.9175
  364SOL     OW 1090   0.677   0.530   1.498  0.2443  0.4207 -0.5435
  364SOL    HW1 1091   0.663   0.430   1.504 -1.9520  1.0338 -1.9001
  364SOL    HW2 1092   0.632   0.560   1.411 -1.9724  0.9251  2.0226
  365SOL     OW 1093   0.806   0.732   2.824 -0.3208  0.2072 -0.1152
  365SOL    HW1 1094   0.854   0.645   2.789  0.0322 -2.7107  2.0020
  365SOL    HW2 1095   0.851   0.824   2.805  0.3349  2.1325 -0.3268
  366SOL     OW 1096   2.158   1.217   2.746 -0.3866 -0.5329  0.3502
  366SOL    HW1 1097   2.132   1.155   2.821  1.3246  0.6453 -2.8607
  366SOL    HW2 1098   2.107   1.305   2.743 -0.1314  0.6292  0.1178
  367SOL     OW 1099   2.938   2.695   2.244 -0.5108 -0.1038  0.1037
  367SOL    HW1 1100   2.955   2.697   2.347  0.6314  0.5915  0.4042
  367SOL    HW2 1101   2.937   2.786   2.204 -1.6538 -1.3998 -1.9979
  368SOL     OW 1102   2.954   1.150   1.344 -0.3540 -0.4009 -0.7078
  368SOL    HW1 1103   3.008   1.164   1.429  0.2822  1.1544  0.5893
  368SOL    HW2 1104   2.849   1.155   1.367 -2.5347  1.3562 -0.9565
  369SOL     OW 1105   0.406   2.857   2.117  0.0332  0.8126 -0.2429
  369SOL    HW1 1106   0.447   2.858   2.025 -2.3827 -0.1446  1.3048
  369SOL    HW2 1107   0.458   2.914   2.187 -0.5526  1.9422 -1.1746
  370SOL     OW 1108   2.797   0.312   0.635  0.5619  0.1092 -0.3769
  370SOL    HW1 1109   2.771   0.326   0.540  1.8678 -1.9244  3.8442
  370SOL    HW2 1110   2.858   0.394   0.655 -1.9595 -0.3577  0.6173
  371SOL     OW 1111   0.913   2.187   1.554 -0.4615  0.4370  0.5659
  371SOL    HW1 1112   1.012   2.169   1.543  1.5252  0.6406  0.5804
  371SOL    HW2 1113   0.889   2.168   1.647  0.1003 -0.5673 -2.9294
  372SOL     OW 1114   2.165   0.340   2.405  0.1266 -0.4084 -0.2790
  372SOL    HW1 1115   2.186   0.391   2.493  1.4621 -1.6643  0.2873
  372SOL    HW2 1116   2.071   0.303   2.397  1.0455 -0.8971 -1.0004
  373SOL     OW 1117   0.033   2.123   0.802 -0.1868  0.1726 -0.1144
  373SOL    HW1 1118   3.043   2.124   0.865  0.3025  0.7576 -0.5725
  373SOL    HW2 1119   0.067   2.025   0.791 -0.7797 -3.0599  1.1109
  374SOL     OW 1120   2.921   0.290   2.208 -0.6904 -0.3395 -0.0138
  374SOL    HW1 1121   2.854   0.244   2.269 -0.2373 -1.2238  0.0443
  374SOL    HW2 1122   3.009   0.320   2.256  4.1187  1.3065  2.0022
  375SOL     OW 1123   0.606   0.540   2.908  0.0035 -0.0752  0.1706
  375SOL    HW1 1124   0.614   0.631   2.861  1.3711  2.7350 -1.8357
  375SOL    HW2 1125   0.685   0.533   2.964  1.0586 -0.5196 -0.5160
  376SOL     OW 1126   3.024   2.310   1.697  0.3189 -0.3060  0.0973
  376SOL    HW1 1127   3.072   2.255   1.621  3.4587 -0.8643  0.6657
  376SOL    HW2 1128   2.923   2.309   1.677 -2.9979 -0.0615 -3.0615
  377SOL     OW 1129   1.169   0.360   2.754 -0.3255  0.6097 -0.3211
  377SOL    HW1 1130   1.176   0.260   2.748  0.7075 -0.4252 -2.1285
  377SOL    HW2 1131   1.255   0.407   2.774 -0.4971  0.4443 -1.2964
  378SOL     OW 1132   3.015   0.966   2.817  0.0503 -0.5295  0.2374
  378SOL    HW1 1133   0.021   0.943   2.807 -1.0647 -4.0195  1.4520
  378SOL    HW2 1134   2.959   0.923   2.740  1.3006 -0.0170 -1.2673
  379SOL     OW 1135   1.188   0.920   2.747  0.0761 -0.1231  0.4116
  379SOL    HW1 1136   1.089   0.948   2.751  0.4936 -0.1956 -0.4317
  379SOL    HW2 1137   1.249   0.993   2.782 -1.1536 -1.3492 -0.5106
  380SOL     OW 1138   0.106   1.826   1.700  0.1567  0.1634  0.0431
  380SOL    HW1 1139   0.187   1.890   1.697 -1.0561 -2.8532  1.7739
  380SOL    HW2 1140   0.019   1.874   1.676 -1.2140 -2.0593 -0.1311
  381SOL     OW 1141   3.047   1.268   2.696 -0.3950  0.1220  0.4837
  381SOL    HW1 1142   0.033   1.281   2.626 -0.7429 -1.5127  0.5550
  381SOL    HW2 1143   3.053   1.189   2.753 -0.6872  0.6035 -0.1949
  382SOL     OW 1144   1.946   2.299   0.592  0.3769  0.0316 -0.2708
  382SOL    HW1 1145   1.849   2.262   0.593 -0.4728 -1.9196 -2.0059
  382SOL    HW2 1146   1.995   2.287   0.679  0.7602 -1.3566 -1.2195
  383SOL     OW 1147   0.701   1.573   0.198 -0.0926  0.5083  0.3155
  383SOL    HW1 1148   0.786   1.530   0.157  0.2250  1.4337  0.7077
  383SOL    HW2 1149   0.700   1.559   0.297  1.4740  2.5876 -1.0014
  384SOL     OW 1150   0.819   2.398   2.407 -0.3792  0.3367  0.0355
  384SOL    HW1 1151   0.721   2.419   2.432 -1.3153  1.3171  1.7348
  384SOL    HW2 1152   0.841   2.321   2.472 -2.0574  0.5154 -0.7817
  385SOL     OW 1153   2.464   2.014   0.709 -0.1066 -0.1671  0.0727
  385SOL    HW1 1154   2.402   2.064   0.776 -2.8977  0.2780  0.6832
  385SOL    HW2 1155   2.519   2.072   0.645 -0.3163  0.9433 -4.2322
  386SOL     OW 1156   2.252   0.639   1.070  0.6256  0.4513  0.7691
  386SOL    HW1 1157   2.226   0.542   1.075 -2.3498  0.0157  3.0443
  386SOL    HW2 1158   2.167   0.691   1.045  0.5893  1.1525 -1.4412
  387SOL     OW 1159   0.423   0.829   1.936 -0.0896  0.1762 -0.1776
  387SOL    HW1 1160   0.492   0.887   1.982  1.2378  2.5473 -0.2183
  387SOL    HW2 1161   0.471   0.792   1.852 -0.5600  0.5703  1.9079
  388SOL     OW 1162   0.875   1.572   2.332 -0.3024 -0.6122  0.4045
  388SOL    HW1 1163   0.848   1.646   2.400 -3.6004  0.6253 -0.3796
  388SOL    HW2 1164   0.797   1.567   2.267 -0.6969 -1.4678  1.7687
  389SOL     OW 1165   0.899   1.263   1.815  0.4402 -0.1470  0.3763
  389SOL    HW1 1166   0.888   1.167   1.859 -2.9785 -3.5195  2.7079
  389SOL    HW2 1167   0.881   1.259   1.712 -0.2409  1.0491 -0.1845
  390SOL     OW 1168   3.050   3.003   1.012 -0.0555 -0.6918 -0.4664
  390SOL    HW1 1169   2.948   3.000   0.995 -1.9486  0.1479  0.9052
  390SOL    HW2 1170   0.003   3.069   0.945 -0.0181  0.6372 -1.3516
  391SOL     OW 1171   1.485   1.229   1.046  0.7123 -0.6410  0.2257
  391SOL    HW1 1172   1.477   1.209   0.943  0.2115  3.3023  0.8735
  391SOL    HW2 1173   1.580   1.260   1.076  0.1482 -1.1380  1.1289
  392SOL     OW 1174   2.950   0.014   0.100 -1.0269 -0.0070 -0.1998
  392SOL    HW1 1175   3.048   0.003   0.066  1.2731 -0.3297 -2.4836
  392SOL    HW2 1176   2.912   3.009   0.108  2.4933 -1.9183 -1.3087
  393SOL     OW 1177   1.454   2.172   2.910 -0.1977  0.4170 -0.5146
  393SOL    HW1 1178   1.547   2.133   2.927 -0.6514  1.6041  0.6293
  393SOL    HW2 1179   1.386   2.139   2.979  0.3620  0.0346 -3.1108
  394SOL     OW 1180   0.048   2.442   2.833 -0.3455 -0.0966 -0.1984
  394SOL    HW1 1181   0.036   2.432   2.727 -2.0539  1.3608 -3.8980
  394SOL    HW2 1182   3.075   2.379   2.882 -0.6671 -4.8172 -0.1452
  395SOL     OW 1183   0.074   0.128   0.877 -0.5573  0.7107 -0.2230
  395SOL    HW1 1184   0.105   0.223   0.892 -0.3471 -0.7253  0.9877
  395SOL    HW2 1185   0.157   0.079   0.837 -0.0784 -1.9945  0.1677
  396SOL     OW 1186   2.371   0.400   0.589 -0.0926 -0.1727  0.3942
  396SOL    HW1 1187   2.298   0.457   0.538  0.8516 -1.5203  0.7852
  396SOL    HW2 1188   2.460   0.441   0.564 -3.2950  0.6560 -2.1033
  397SOL     OW 1189   0.101   0.662   2.491  0.3647  0.0418  0.3056
  397SOL    HW1 1190   0.094   0.631   2.587  0.3406  0.7036 -1.8240
  397SOL    HW2 1191   0.053   0.754   2.465 -3.7874  5.6813 -0.1898
  398SOL     OW 1192   0.764   0.050   2.911 -0.1413 -0.0259  0.0419
  398SOL    HW1 1193   0.688   0.026   2.852  1.9130 -0.1321  2.2129
  398SOL    HW2 1194   0.785   0.149   2.900 -0.8767  0.8967 -1.7140
  399SOL     OW 1195   2.149   0.217   1.983 -0.1946 -0.0413 -0.1998
  399SOL    HW1 1196   2.207   0.214   2.072 -1.4283  1.5920  2.2813
  399SOL    HW2 1197   2.047   0.205   2.001 -0.5291 -0.3738 -0.6210
  400SOL     OW 1198   1.004   2.204   2.848  0.7788 -0.2603 -0.0312
  400SOL    HW1 1199   1.090   2.243   2.795 -0.2280 -0.3512 -2.6709
  400SOL    HW2 1200   0.960   2.276   2.908 -1.9715  2.5972 -0.3701
  401SOL     OW 1201   0.408   1.256   2.465 -0.0417  0.0321  0.8076
  401SOL    HW1 1202   0.419   1.235   2.366 -0.2905 -0.3648  1.9227
  401SOL    HW2 1203   0.311   1.279   2.494 -2.6106 -3.6082  2.0589
  402SOL     OW 1204   0.125   0.045   0.370 -0.0086 -0.6783  0.3782
  402SOL    HW1 1205   0.098   3.055   0.416  0.9785  3.7506 -1.1715
  402SOL    HW2 1206   0.049   0.106   0.347  1.5146  2.4805  0.0192
  403SOL     OW 1207   0.414   1.201   1.638  0.4040  0.0243  0.2750
  403SOL    HW1 1208   0.500   1.156   1.605 -2.6967  1.6659  0.0751
  403SOL    HW2 1209   0.352   1.219   1.560  3.1244 -0.0443  1.8013
  404SOL     OW 1210   2.332   2.414   2.522 -0.6873 -0.1157  0.4882
  404SOL    HW1 1211   2.238   2.426   2.492  2.5932 -0.3084 -1.0077
  404SOL    HW2 1212   2.391   2.407   2.439 -1.5368  1.0540  0.3823
  405SOL     OW 1213   0.166   0.552   1.903  0.5145  0.5455 -0.2998
  405SOL    HW1 1214   0.113   0.464   1.901  0.4182 -0.9475 -1.5792
  405SOL    HW2 1215   0.253   0.546   1.852  0.7720  0.2564  0.5157
  406SOL     OW 1216   1.151   1.578   2.816  0.0065  0.2828 -0.1097
  406SOL    HW1 1217   1.199   1.610   2.729  2.7133 -2.1169  0.3565
  406SOL    HW2 1218   1.227   1.564   2.882 -0.6484  0.0538  0.3301
  407SOL     OW 1219   1.946   0.584   2.562 -0.4200 -0.8402 -0.0719
  407SOL    HW1 1220   1.895   0.670   2.552  2.3126  1.1737  0.4784
  407SOL    HW2 1221   2.044   0.597   2.540  2.1429 -3.1572 -1.2951
  408SOL     OW 1222   0.409   2.607   2.256  0.2345  0.0174  0.5396
  408SOL    HW1 1223   0.316   2.591   2.296  0.3553  1.8347  1.4711
  408SOL    HW2 1224   0.398   2.696   2.207 -0.8038  0.8599  0.5464
  409SOL     OW 1225   3.066   2.448   1.405  0.1603 -0.7538 -0.0360
  409SOL    HW1 1226   0.069   2.465   1.448  0.0746  0.1379 -0.5876
  409SOL    HW2 1227   2.991   2.508   1.444 -0.7308  1.3740  0.8990
  410SOL     OW 1228   2.898   1.760   0.340 -0.1202  0.4059 -0.4053
  410SOL    HW1 1229   2.937   1.798   0.423 -0.9358  1.3802 -1.6668
  410SOL    HW2 1230   2.922   1.658   0.339 -0.4422 -1.0972 -1.2219
  411SOL     OW 1231   2.426   0.011   1.480  0.0025 -0.2475  0.3427
  411SOL    HW1 1232   2.363   3.050   1.415 -2.2404 -0.6367  0.4041
  411SOL    HW2 1233   2.440   3.047   1.568  2.9843  0.8837  0.0822
  412SOL     OW 1234   2.299   0.236   1.556  0.7223 -0.5113  0.1906
  412SOL    HW1 1235   2.349   0.148   1.535  0.9599  0.0822 -0.5120
  412SOL    HW2 1236   2.198   0.216   1.557  0.2855  0.3656 -3.2798
  413SOL     OW 1237   0.010   0.420   2.371  0.4379  0.2711 -0.1104
  413SOL    HW1 1238   0.058   0.508   2.399  3.6766  0.0041  1.1120
  413SOL    HW2 1239   0.070   0.339   2.368 -0.6219  1.0376  2.3197
  414SOL     OW 1240   2.579   1.341   0.187 -0.4614 -0.0535 -0.0726
  414SOL    HW1 1241   2.563   1.308   0.093 -2.0237 -0.8164  2.3271
  414SOL    HW2 1242   2.531   1.428   0.210 -0.3895 -0.8128 -1.1681
  415SOL     OW 1243   0.838   2.502   0.251 -0.0147  0.5565  0.0649
  415SOL    HW1 1244   0.919   2.552   0.227 -1.1634 -3.0671 -1.2671
  415SOL    HW2 1245   0.852   2.468   0.349 -0.3463  2.1238 -0.3065
  416SOL     OW 1246   1.453   2.787   2.599 -0.2151 -0.0590  0.2395
  416SOL    HW1 1247   1.421   2.765   2.693 -0.5294  0.8278  1.3436
  416SOL    HW2 1248   1.549   2.821   2.601  4.2501 -1.0005 -0.7649
  417SOL     OW 1249   0.367   1.032   1.276  0.6165 -0.4055 -0.5104
  417SOL    HW1 1250   0.421   1.107   1.235  0.6283  0.5478 -0.0715
  417SOL    HW2 1251   0.431   0.956   1.306  0.3689 -0.3690 -0.6713
  418SOL     OW 1252   2.604   0.021   0.828  0.2813 -0.1499  0.3536
  418SOL    HW1 1253   2.501   0.021   0.814 -3.7208  1.1452 -0.1292
  418SOL    HW2 1254   2.636   0.113   0.860  0.8564 -0.3769 -2.3379
  419SOL     OW 1255   0.306   0.079   0.173  0.2300  0.1841 -0.1347
  419SOL    HW1 1256   0.257   0.074   0.265  0.7828 -1.0884  1.4138
  419SOL    HW2 1257   0.404   0.056   0.180  1.7766  1.5008  0.9224
  420SOL     OW 1258   0.224   1.187   1.454 -0.2166  0.3247 -0.4866
  420SOL    HW1 1259   0.274   1.122   1.387 -0.2296 -3.5800  1.6033
  420SOL    HW2 1260   0.141   1.139   1.496  0.5273 -2.5625 -0.3644
  421SOL     OW 1261   1.719   2.692   0.616  0.1029  0.0120 -0.1804
  421SOL    HW1 1262   1.787   2.643   0.557  1.1572  2.3233 -2.1031
  421SOL    HW2 1263   1.668   2.617   0.662  3.1107 -2.8969 -1.1240
  422SOL     OW 1264   0.259   0.410   1.464  0.4673 -0.0451  0.1234
  422SOL    HW1 1265   0.259   0.355   1.376 -1.0384 -5.9413 -1.1030
  422SOL    HW2 1266   0.165   0.458   1.479 -2.2326 -0.4622 -2.7025
  423SOL     OW 1267   0.873   1.350   2.080 -0.2766  0.0253  0.3860
  423SOL    HW1 1268   0.844   1.306   1.994  2.4754 -1.1591  2.6132
  423SOL    HW2 1269   0.941   1.424   2.068 -1.7616  0.7381  0.2139
  424SOL     OW 1270   1.740   2.075   0.597  0.1439 -0.6357  0.1991
  424SOL    HW1 1271   1.758   2.020   0.509 -2.0359  0.3157 -1.5884
  424SOL    HW2 1272   1.799   2.043   0.669 -2.2020 -1.0442 -1.4743
  425SOL     OW 1273   2.875   2.924   2.092  0.0837  0.5954  0.2189
  425SOL    HW1 1274   2.799   2.860   2.111 -1.4992 -1.9803 -3.0544
  425SOL    HW2 1275   2.860   2.978   2.010 -1.6226  0.6909  1.8352
  426SOL     OW 1276   0.198   2.829   2.655 -0.7761 -0.3207  0.6247
  426SOL    HW1 1277   0.137   2.891   2.695 -0.5122 -4.5510  1.1218
  426SOL    HW2 1278   0.180   2.823   2.554 -0.2130  1.8395 -4.0461
  427SOL     OW 1279   0.886   2.960   0.237 -0.2008  0.9247  0.3198
  427SOL    HW1 1280   0.942   3.043   0.250  0.5550 -2.4710 -0.5732
  427SOL    HW2 1281   0.817   2.962   0.165  3.4189 -0.5138  3.8577
  428SOL     OW 1282   2.805   0.536   1.628  0.3381  0.0139 -0.4984
  428SOL    HW1 1283   2.838   0.443   1.604  1.8533 -1.1753  1.8830
  428SOL    HW2 1284   2.730   0.554   1.566  2.3438  0.1928  1.7618
  429SOL     OW 1285   2.045   3.022   0.518 -0.2544 -0.6697 -0.4452
  429SOL    HW1 1286   2.004   2.942   0.471 -1.0453  0.0080  1.8065
  429SOL    HW2 1287   2.146   3.020   0.511  0.0022 -0.2537  1.2974
  430SOL     OW 1288   0.870   1.594   2.754  0.5588 -0.4670  0.3384
  430SOL    HW1 1289   0.972   1.597   2.771 -0.8743 -1.7672  0.8385
  430SOL    HW2 1290   0.846   1.657   2.680 -1.0033  0.0845 -0.6373
  431SOL     OW 1291   2.835   2.219   1.224  0.3634 -0.0273 -0.1432
  431SOL    HW1 1292   2.931   2.245   1.194  0.9236  1.3993  0.6026
  431SOL    HW2 1293   2.786   2.161   1.159 -1.5870  0.4492 -2.2646
  432SOL     OW 1294   1.512   2.399   2.813  0.1810 -0.1628 -0.0122
  432SOL    HW1 1295   1.596   2.412   2.756 -3.8629 -0.9437  2.9563
  432SOL    HW2 1296   1.514   2.302   2.851 -0.3479  0.0963 -3.2585
  433SOL     OW 1297   1.308   0.588   2.410 -0.2612  0.2404 -0.1987
  433SOL    HW1 1298   1.211   0.597   2.428  0.4408  1.6530  0.2304
  433SOL    HW2 1299   1.353   0.642   2.490  0.1574  2.1810  1.0612
  434SOL     OW 1300   1.282   2.684   2.120 -0.2712 -0.5055 -0.3075
  434SOL    HW1 1301   1.299   2.693   2.219  1.9493  0.1863 -2.5662
  434SOL    HW2 1302   1.339   2.612   2.073  0.3752 -0.1276  2.4130
  435SOL     OW 1303   0.363   0.081   3.004  0.0931 -0.2554 -0.2142
  435SOL    HW1 1304   0.339   0.065   0.009  3.6468  1.5909  0.0746
  435SOL    HW2 1305   0.346   0.183   2.977  1.9378  2.4034  0.9623
  436SOL     OW 1306   0.580   1.468   2.485  0.3138 -0.1610 -0.3698
  436SOL    HW1 1307   0.526   1.380   2.491 -0.0086 -1.1524  0.1356
  436SOL    HW2 1308   0.624   1.480   2.387  0.7802  0.6551 -0.3033
  437SOL     OW 1309   1.228   2.461   2.546 -0.2605 -0.5394  0.5081
  437SOL    HW1 1310   1.238   2.433   2.446 -2.7666 -0.3421 -1.5763
  437SOL    HW2 1311   1.135   2.512   2.550  0.5007  4.0230 -0.9998
  438SOL     OW 1312   0.605   0.930   0.791  0.4098  0.1847 -0.1468
  438SOL    HW1 1313   0.619   0.996   0.869  1.0088 -1.4827  1.6647
  438SOL    HW2 1314   0.690   0.889   0.757 -2.4821  1.9744  0.1746
  439SOL     OW 1315   3.050   1.518   2.134  0.4716  0.0269  0.4483
  439SOL    HW1 1316   3.002   1.475   2.211 -3.4096 -1.9295  0.0046
  439SOL    HW2 1317   2.981   1.557   2.070 -0.1229 -0.1736 -0.7042
  440SOL     OW 1318   2.929   0.629   2.714  0.1371 -0.1230  0.1936
  440SOL    HW1 1319   2.887   0.573   2.639 -1.7307 -3.6470 -0.2912
  440SOL    HW2 1320   2.952   0.726   2.690  0.1755  0.7475  1.5233
  441SOL     OW 1321   0.629   1.695   1.430 -0.6698 -0.1145 -0.6645
  441SOL    HW1 1322   0.534   1.735   1.450  0.6885 -0.6727 -0.3224
  441SOL    HW2 1323   0.701   1.753   1.475  1.0265  0.2491  0.3409
  442SOL     OW 1324   1.971   1.486   0.822 -0.3168  0.1283  0.2274
  442SOL    HW1 1325   1.949   1.471   0.723  4.7912  0.0596  1.1065
  442SOL    HW2 1326   1.893   1.529   0.871  2.5093  1.2732  0.6259
  443SOL     OW 1327   2.466   1.844   2.953  0.0620 -0.2420 -0.3843
  443SOL    HW1 1328   2.401   1.815   2.882  0.8611 -0.4560  0.7058
  443SOL    HW2 1329   2.532   1.914   2.916  0.9816 -0.0365 -2.9867
  444SOL     OW 1330   1.756   1.341   2.817 -0.0014 -0.5019 -0.2252
  444SOL    HW1 1331   1.782   1.398   2.736 -2.4340  0.8749 -2.3405
  444SOL    HW2 1332   1.816   1.264   2.825  0.8372  0.0473  0.9583
  445SOL     OW 1333   0.464   2.203   2.078  0.3501  0.4919  0.1137
  445SOL    HW1 1334   0.507   2.296   2.084  1.6256 -0.0578  0.7692
  445SOL    HW2 1335   0.414   2.180   2.166 -3.2871  2.4680  0.6054
  446SOL     OW 1336   0.924   0.998   1.901  0.6447 -0.2925  0.4930
  446SOL    HW1 1337   1.002   0.933   1.917 -1.7859 -0.0438  2.5053
  446SOL    HW2 1338   0.886   1.029   1.992  1.8855  0.0777 -1.4683
  447SOL     OW 1339   1.148   0.671   0.413  0.1677 -0.5631  0.3901
  447SOL    HW1 1340   1.160   0.759   0.362  0.1470 -1.6096  1.1115
  447SOL    HW2 1341   1.226   0.647   0.467 -4.2366  0.5330 -2.3779
  448SOL     OW 1342   1.352   1.075   1.992 -0.2438  0.1218  0.2593
  448SOL    HW1 1343   1.285   1.129   1.932 -2.5005  2.3385 -1.3242
  448SOL    HW2 1344   1.409   1.010   1.937 -0.6468 -1.0932  1.5199
  449SOL     OW 1345   0.213   1.727   2.444  0.3345 -0.0165  0.5340
  449SOL    HW1 1346   0.143   1.678   2.499 -2.2042  2.2498  1.0193
  449SOL    HW2 1347   0.166   1.780   2.369 -1.6124  1.4226 -1.3827
  450SOL     OW 1348   2.125   1.310   1.838 -0.1900 -0.0855  0.1331
  450SOL    HW1 1349   2.132   1.409   1.853  1.1410 -2.2851 -1.6958
  450SOL    HW2 1350   2.215   1.263   1.846  1.5550 -0.3075  3.2432
  451SOL     OW 1351   2.417   1.401   1.437  0.3638  0.3680  0.4281
  451SOL    HW1 1352   2.503   1.355   1.474  1.3001  1.2228  0.8874
  451SOL    HW2 1353   2.400   1.388   1.338  1.5764 -1.1016  1.7270
  452SOL     OW 1354   0.827   0.842   1.372  0.5124 -0.0964  0.4251
  452SOL    HW1 1355   0.833   0.882   1.467 -1.6110 -1.1662 -0.9818
  452SOL    HW2 1356   0.920   0.838   1.333 -3.2345 -1.4559  0.4302
  453SOL     OW 1357   0.271   2.016   1.048  0.4368  0.3608 -0.0290
  453SOL    HW1 1358   0.173   2.035   1.066  2.2112 -1.6664 -1.2017
  453SOL    HW2 1359   0.314   2.084   0.981  3.7399  0.5467 -3.3440
  454SOL     OW 1360   1.220   1.246   0.260 -0.1222  0.1516  0.4854
  454SOL    HW1 1361   1.321   1.268   0.249 -0.6639  0.4646  2.0630
  454SOL    HW2 1362   1.203   1.225   0.359  2.7885 -2.3079  0.5113
  455SOL     OW 1363   1.951   0.463   0.919 -0.0838 -0.1209  0.2781
  455SOL    HW1 1364   1.933   0.390   0.844 -0.0115  0.3838 -2.1376
  455SOL    HW2 1365   1.980   0.548   0.878 -0.1053  0.5194 -0.8462
  456SOL     OW 1366   1.640   2.831   0.352 -0.4085 -0.7256 -0.1884
  456SOL    HW1 1367   1.590   2.746   0.349 -0.8421  0.6890 -0.6667
  456SOL    HW2 1368   1.588   2.903   0.404  0.7231  3.6041 -0.5557
  457SOL     OW 1369   2.035   1.133   2.020 -0.7903 -0.1740  0.0326
  457SOL    HW1 1370   2.055   1.206   1.951  1.0823 -1.5384 -0.9133
  457SOL    HW2 1371   2.106   1.136   2.095 -0.3422  1.3601  0.4667
  458SOL     OW 1372   2.483   0.457   2.369 -0.3677 -0.2432 -1.1214
  458SOL    HW1 1373   2.400   0.513   2.395  1.0908 -1.0997  0.3324
  458SOL    HW2 1374   2.483   0.443   2.268  0.5649  1.9520  3.3079
  459SOL     OW 1375   2.456   1.379   2.376 -0.3749  0.5401 -1.1234
  459SOL    HW1 1376   2.489   1.353   2.286 -1.4047  3.0180  4.6501
  459SOL    HW2 1377   2.520   1.346   2.449 -0.0092 -1.0715  1.8648
  460SOL     OW 1378   0.872   0.995   2.774 -0.1167  0.0697  0.4069
  460SOL    HW1 1379   0.866   1.039   2.681  0.6084  1.1701 -1.5509
  460SOL    HW2 1380   0.801   1.026   2.843 -0.1828 -1.0674  0.5582
  461SOL     OW 1381   0.224   2.205   0.353  0.2693  0.0722  0.0269
  461SOL    HW1 1382   0.254   2.299   0.338 -0.4263 -3.0096 -1.1705
  461SOL    HW2 1383   0.143   2.183   0.294  1.7732 -1.8798 -1.7207
  462SOL     OW 1384   1.304   2.891   2.364 -0.4070 -0.4649  0.1331
  462SOL    HW1 1385   1.316   2.819   2.436 -2.8191 -0.3451  0.9285
  462SOL    HW2 1386   1.373   2.965   2.369 -0.0921  1.7030 -0.8233
  463SOL     OW 1387   2.051   2.237   2.011 -0.2032  0.3216 -0.1587
  463SOL    HW1 1388   1.992   2.159   2.037 -1.6145  1.7922  1.3996
  463SOL    HW2 1389   2.125   2.200   1.952  0.1333  2.0283 -1.7155
  464SOL     OW 1390   2.565   2.420   0.676 -0.0904  0.1275 -0.4021
  464SOL    HW1 1391   2.479   2.382   0.703  1.3288  2.5656 -1.0762
  464SOL    HW2 1392   2.573   2.522   0.691 -0.4239  0.9601  2.0681
  465SOL     OW 1393   3.078   0.157   1.494 -0.1071  0.2754 -0.4382
  465SOL    HW1 1394   3.082   0.084   1.416 -1.3344  0.9125 -0.8777
  465SOL    HW2 1395   0.071   0.209   1.506 -0.4907 -1.4276 -0.1686
  466SOL     OW 1396   1.334   2.591   2.752  0.2619  0.8512 -0.5516
  466SOL    HW1 1397   1.402   2.515   2.771  0.7079  3.8041  1.6467
  466SOL    HW2 1398   1.308   2.580   2.652 -0.4947 -0.8177 -2.8259
  467SOL     OW 1399   3.068   2.164   0.216  0.5065  0.6188  0.0662
  467SOL    HW1 1400   3.038   2.070   0.183  0.6855 -2.6925 -0.9923
  467SOL    HW2 1401   3.002   2.238   0.197 -1.8013  1.6074 -2.1778
  468SOL     OW 1402   2.233   2.075   2.861 -0.6185 -0.0439 -0.2118
  468SOL    HW1 1403   2.190   2.071   2.770 -1.0781 -2.4173 -3.5400
  468SOL    HW2 1404   2.239   1.985   2.905  2.0490 -0.0325  0.8993
  469SOL     OW 1405   0.702   1.914   0.760 -0.4989  0.0578 -0.0691
  469SOL    HW1 1406   0.716   1.931   0.857 -0.2311 -0.8664 -0.8141
  469SOL    HW2 1407   0.783   1.958   0.713 -0.6929  1.4519  3.0700
  470SOL     OW 1408   1.905   0.741   0.794  0.5364 -0.1184  0.0859
  470SOL    HW1 1409   1.992   0.712   0.754 -0.7590 -0.2366 -0.7895
  470SOL    HW2 1410   1.926   0.788   0.880  1.7570 -2.2756 -4.0552
  471SOL     OW 1411   0.338   1.797   0.477  0.0890 -0.0656 -0.2989
  471SOL    HW1 1412   0.373   1.782   0.385 -2.6174 -1.6017  3.5709
  471SOL    HW2 1413   0.308   1.896   0.485 -0.2689 -0.8027  1.6742
  472SOL     OW 1414   2.673   1.979   2.853 -0.0675  0.1809 -0.3237
  472SOL    HW1 1415   2.695   2.045   2.926 -0.1103  0.6966 -0.9129
  472SOL    HW2 1416   2.674   2.028   2.759 -0.3135  2.9825  0.6447
  473SOL     OW 1417   1.502   1.861   0.793  0.2914  0.1620 -0.0140
  473SOL    HW1 1418   1.424   1.924   0.768 -1.9634  3.1771 -0.4061
  473SOL    HW2 1419   1.565   1.862   0.711  2.1064  2.2937  0.9645
  474SOL     OW 1420   2.759   0.448   1.217  0.0728 -0.1625 -0.4402
  474SOL    HW1 1421   2.770   0.462   1.119  1.5010 -0.3198  1.7146
  474SOL    HW2 1422   2.816   0.371   1.249 -1.9147 -1.6421 -0.9519
  475SOL     OW 1423   2.883   0.028   1.894  0.4644 -0.5951 -0.3065
  475SOL    HW1 1424   2.864   0.033   1.792  1.0160  0.3895  0.7933
  475SOL    HW2 1425   2.844   0.099   1.950  1.8383  0.7412  2.0161
  476SOL     OW 1426   0.646   0.135   0.786  0.0880 -0.0778  0.2426
  476SOL    HW1 1427   0.659   0.235   0.797 -0.9976 -1.8273 -0.5508
  476SOL    HW2 1428   0.570   0.116   0.715 -1.0454 -2.7701  1.0802
  477SOL     OW 1429   1.260   2.523   1.210  0.0463  0.0870  0.3781
  477SOL    HW1 1430   1.217   2.586   1.277  0.2405  0.2547  1.8180
  477SOL    HW2 1431   1.290   2.438   1.259  0.5608 -1.6302  1.9443
  478SOL     OW 1432   1.260   2.528   0.025  0.0789  0.0679 -0.2306
  478SOL    HW1 1433   1.194   2.574   3.052 -1.6360 -1.1826 -2.2007
  478SOL    HW2 1434   1.304   2.599   0.083  1.4076 -0.5157 -0.0396
  479SOL     OW 1435   2.385   1.197   1.912  0.5163  0.0063 -0.5661
  479SOL    HW1 1436   2.405   1.144   1.995  1.8875 -1.6080  2.4161
  479SOL    HW2 1437   2.455   1.171   1.843 -2.2373  1.2040  1.3391
  480SOL     OW 1438   2.641   2.297   2.867 -0.0190 -0.0955 -0.5313
  480SOL    HW1 1439   2.716   2.263   2.804  5.0159  0.5223 -1.7189
  480SOL    HW2 1440   2.553   2.287   2.824  1.4687 -1.1487  0.4480
  481SOL     OW 1441   1.648   2.897   1.603 -0.4001 -0.6943 -0.5513
  481SOL    HW1 1442   1.704   2.832   1.656 -1.6680  0.2872  1.7103
  481SOL    HW2 1443   1.619   2.872   1.510 -2.3843  3.9345 -1.9453
  482SOL     OW 1444   1.675   2.247   2.421  0.1392  0.1947 -0.0963
  482SOL    HW1 1445   1.753   2.281   2.363 -0.8906  1.4846 -0.7030
  482SOL    HW2 1446   1.594   2.301   2.394 -0.5855 -4.2804 -0.5452
  483SOL     OW 1447   1.131   2.637   2.908 -0.6057  0.6212  0.5797
  483SOL    HW1 1448   1.034   2.635   2.874  1.3181  0.2238 -0.4709
  483SOL    HW2 1449   1.197   2.584   2.849 -2.2182  1.2803  1.3432
  484SOL     OW 1450   2.442   2.900   1.673 -0.1757  0.1374  0.5481
  484SOL    HW1 1451   2.354   2.849   1.661  0.4056 -0.8721 -1.7823
  484SOL    HW2 1452   2.516   2.837   1.642 -0.5832 -2.2253  0.4555
  485SOL     OW 1453   2.212   0.582   0.466  0.3850  0.1903  0.5258
  485SOL    HW1 1454   2.224   0.661   0.406 -0.4163  1.2602  1.6844
  485SOL    HW2 1455   2.114   0.555   0.473 -1.3034 -1.2353 -0.2280
  486SOL     OW 1456   2.512   2.658   2.573 -0.0520 -0.1876 -0.6326
  486SOL    HW1 1457   2.489   2.743   2.620 -0.5038  0.8184  0.1116
  486SOL    HW2 1458   2.433   2.596   2.575 -0.8337 -2.4643  2.9382
  487SOL     OW 1459   1.364   0.784   0.740  0.4518  0.3700  0.4459
  487SOL    HW1 1460   1.277   0.817   0.696  0.0486 -0.7830  1.1693
  487SOL    HW2 1461   1.377   0.826   0.833  1.8203 -2.1571 -0.7780
  488SOL     OW 1462   2.716   3.008   2.429 -0.0558 -0.0126 -0.0558
  488SOL    HW1 1463   2.708   2.923   2.378  2.3679  1.9527  1.4917
  488SOL    HW2 1464   2.629   3.056   2.437  2.5361  3.8188  1.6504
  489SOL     OW 1465   1.184   2.658   0.431  0.6578  0.0724 -0.1247
  489SOL    HW1 1466   1.190   2.756   0.471 -0.0439  2.4526 -0.5295
  489SOL    HW2 1467   1.178   2.591   0.502 -0.6138 -0.4488 -0.3346
  490SOL     OW 1468   1.650   0.647   3.041 -0.5900  0.3188 -0.1449
  490SOL    HW1 1469   1.691   0.638   2.946  1.7624 -0.9133  0.2167
  490SOL    HW2 1470   1.546   0.659   3.036  1.5372 -3.5497 -0.5892
  491SOL     OW 1471   0.866   2.996   1.194  0.7049 -0.2966 -0.1528
  491SOL    HW1 1472   0.790   3.033   1.134 -1.8289 -0.0560 -1.3735
  491SOL    HW2 1473   0.833   2.995   1.294  0.5498 -1.0995 -0.4760
  492SOL     OW 1474   1.526   2.585   0.293 -0.2394  0.5588 -0.9083
  492SOL    HW1 1475   1.505   2.488   0.310  2.5353  3.3340  0.7767
  492SOL    HW2 1476   1.447   2.626   0.241 -0.0354  0.5401 -0.3848
  493SOL     OW 1477   0.916   1.962   2.945  0.1983 -0.0976 -0.8258
  493SOL    HW1 1478   0.986   1.887   2.940 -1.3907 -0.8051 -2.0618
  493SOL    HW2 1479   0.942   2.033   2.879 -0.8473  0.7505 -0.6560
  494SOL     OW 1480   0.905   0.588   0.488  0.8429  0.0249  0.3272
  494SOL    HW1 1481   0.824   0.554   0.431 -1.4925  2.2163  0.8284
  494SOL    HW2 1482   0.988   0.599   0.423  0.2663  1.6265  0.1404
  495SOL     OW 1483   2.667   0.193   1.772  0.1293 -0.1781 -0.2073
  495SOL    HW1 1484   2.712   0.222   1.683  2.2227  2.9189 -0.9684
  495SOL    HW2 1485   2.687   0.255   1.847  0.1195 -0.9186 -1.0038
  496SOL     OW 1486   2.264   2.074   2.354 -0.0433 -0.3002  0.6672
  496SOL    HW1 1487   2.324   2.119   2.285 -1.2066 -2.7580 -1.2033
  496SOL    HW2 1488   2.319   2.002   2.398 -2.0334  0.6507  0.9193
  497SOL     OW 1489   1.505   1.355   2.602 -0.4998  0.1253 -0.0549
  497SOL    HW1 1490   1.528   1.258   2.609  0.7537  0.1118  2.0277
  497SOL    HW2 1491   1.522   1.397   2.691  1.1007 -1.6349  0.2212
  498SOL     OW 1492   0.688   2.585   1.152  0.4298 -0.5049  0.3596
  498SOL    HW1 1493   0.618   2.591   1.075 -1.9132  0.5429 -1.6275
  498SOL    HW2 1494   0.666   2.506   1.210  0.1709 -0.0168 -0.1683
  499SOL     OW 1495   0.021   2.020   1.160 -0.0412  0.1605 -0.4371
  499SOL    HW1 1496   3.035   2.064   1.106 -3.3823 -1.5523 -3.2492
  499SOL    HW2 1497   3.070   1.947   1.213  2.9850  0.1882 -1.5688
  500SOL     OW 1498   0.629   2.638   2.760 -0.3883 -0.1654  0.4916
  500SOL    HW1 1499   0.534   2.657   2.795  2.0506 -4.1653 -0.4452
  500SOL    HW2 1500   0.639   2.677   2.667 -1.9803 -1.9877 -1.5037
  501SOL     OW 1501   1.761   3.091   0.109  0.0682 -0.2627  0.1791
  501SOL    HW1 1502   1.732   2.992   0.106 -1.9181  3.2765  2.5988
  501SOL    HW2 1503   1.675   0.057   0.096 -0.6679 -0.7411  1.5370
  502SOL     OW 1504   2.938   0.062   0.731 -0.3819 -0.5796 -0.7012
  502SOL    HW1 1505   2.869   0.139   0.707 -1.0818  3.0492 -2.6818
  502SOL    HW2 1506   3.020   0.106   0.781 -0.8630 -0.6910  4.5366
  503SOL     OW 1507   1.989   2.888   2.144 -0.4688  0.0689  0.1666
  503SOL    HW1 1508   2.043   2.842   2.216 -3.5000  2.1034 -0.0421
  503SOL    HW2 1509   1.894   2.903   2.166  1.8050  1.8661  1.2425
  504SOL     OW 1510   2.411   1.495   1.891 -0.4737  0.5336  0.3305
  504SOL    HW1 1511   2.495   1.541   1.933  1.9544 -0.0828 -0.0193
  504SOL    HW2 1512   2.408   1.396   1.922  0.7164 -0.8016  0.5148
  505SOL     OW 1513   1.713   2.863   2.215  0.1609 -0.3115 -0.2019
  505SOL    HW1 1514   1.728   2.938   2.284 -1.8399  1.3075 -0.7755
  505SOL    HW2 1515   1.638   2.892   2.149 -0.4629  1.3715  2.1339
  506SOL     OW 1516   0.159   0.807   1.972  0.3268  0.0139 -0.0863
  506SOL    HW1 1517   0.149   0.708   1.960  0.7160 -1.2459  0.6807
  506SOL    HW2 1518   0.259   0.824   1.967 -0.0277 -1.5214 -1.7576
  507SOL     OW 1519   1.947   0.500   0.441  0.1509 -0.1230  0.3690
  507SOL    HW1 1520   1.876   0.568   0.417  3.3883 -0.9257 -0.3313
  507SOL    HW2 1521   1.912   0.407   0.432 -2.8420 -1.3973 -2.6677
  508SOL     OW 1522   2.114   0.486   1.961 -0.2444 -0.1672 -0.2863
  508SOL    HW1 1523   2.079   0.509   1.871  0.8524 -1.5819  3.9180
  508SOL    HW2 1524   2.135   0.385   1.969  1.8192 -2.7332  0.7122
  509SOL     OW 1525   0.635   1.780   3.033  0.2051  0.0511  0.7908
  509SOL    HW1 1526   0.678   1.780   0.034  0.3517 -0.0368 -1.2649
  509SOL    HW2 1527   0.646   1.684   2.999  1.3353  1.7111 -0.8209
  510SOL     OW 1528   0.146   0.885   1.024 -0.1504 -0.3196 -0.0757
  510SOL    HW1 1529   0.080   0.844   0.948 -2.0461 -0.9190  1.7053
  510SOL    HW2 1530   0.212   0.944   0.977 -0.9626  0.2455  2.7133
  511SOL     OW 1531   1.525   1.063   1.246  0.2285  0.2678 -0.2586
  511SOL    HW1 1532   1.623   1.060   1.276  1.9683 -1.6718  0.9850
  511SOL    HW2 1533   1.508   1.127   1.174  0.6332  0.6243  3.1433
  512SOL     OW 1534   0.317   2.179   0.847  0.1038 -0.3361  0.2029
  512SOL    HW1 1535   0.230   2.189   0.805  2.7706 -1.1575  3.3068
  512SOL    HW2 1536   0.379   2.124   0.786  2.1010 -2.8284 -2.0083
  513SOL     OW 1537   0.151   2.592   0.802 -0.2193  0.5604 -0.0873
  513SOL    HW1 1538   0.119   2.494   0.824 -1.2486  2.9122 -0.8288
  513SOL    HW2 1539   0.097   2.654   0.863  2.3397  0.0824  0.3207
  514SOL     OW 1540   0.495   2.072   0.652  0.5534  0.3476  0.5495
  514SOL    HW1 1541   0.550   2.125   0.577  3.7697  2.8597 -2.8462
  514SOL    HW2 1542   0.557   2.013   0.704  1.1459 -2.3529  2.5836
  515SOL     OW 1543   0.037   0.231   2.937 -0.3490  0.1390  0.0196
  515SOL    HW1 1544   3.037   0.222   2.980 -1.4200 -1.0144  0.5803
  515SOL    HW2 1545   0.094   0.297   2.987  0.5492  0.4557  0.4927
  516SOL     OW 1546   2.261   2.987   1.313  0.0654  0.6667 -0.4540
  516SOL    HW1 1547   2.177   2.961   1.371  0.2556 -0.9255  2.1884
  516SOL    HW2 1548   2.236   3.065   1.255  1.2622 -1.1747  3.6600
  517SOL     OW 1549   1.744   1.593   0.911 -0.0698  0.0830  0.1657
  517SOL    HW1 1550   1.769   1.687   0.877 -1.0604  2.1292 -1.2921
  517SOL    HW2 1551   1.693   1.608   0.996  0.2322  0.1137 -2.1591
  518SOL     OW 1552   1.747   2.818   0.867 -0.0501 -0.0249 -0.2332
  518SOL    HW1 1553   1.715   2.750   0.941 -0.8653 -3.5582  2.1446
  518SOL    HW2 1554   1.731   2.788   0.771  2.5805 -0.0266  1.8902
  519SOL     OW 1555   2.876   2.635   0.205  0.5503 -0.0793  0.1759
  519SOL    HW1 1556   2.973   2.621   0.232 -0.5679  2.0702 -0.1822
  519SOL    HW2 1557   2.828   2.637   0.293  1.6098  1.1190 -1.5684
  520SOL     OW 1558   2.255   1.666   2.134  0.0650 -0.1838 -0.0390
  520SOL    HW1 1559   2.196   1.753   2.159 -2.5349  1.6157  2.0030
  520SOL    HW2 1560   2.222   1.577   2.173  0.0297 -1.5480 -1.4615
  521SOL     OW 1561   1.490   2.955   1.802  0.6212  0.2887 -0.0706
  521SOL    HW1 1562   1.549   2.920   1.724  1.8404 -0.2666  0.1232
  521SOL    HW2 1563   1.393   2.946   1.786  1.2675  0.9024 -0.8292
  522SOL     OW 1564   0.325   2.395   1.817 -0.0494  0.2759 -0.0481
  522SOL    HW1 1565   0.249   2.331   1.837  3.8827  2.2826  0.2278
  522SOL    HW2 1566   0.310   2.480   1.870  0.0543 -1.2045 -0.0229
  523SOL     OW 1567   0.798   2.342   1.977  0.5155  0.2051 -0.4494
  523SOL    HW1 1568   0.703   2.362   1.995 -0.0213 -0.9312  0.7839
  523SOL    HW2 1569   0.865   2.390   2.042 -0.1001 -0.7100 -0.4430
  524SOL     OW 1570   2.142   2.197   0.419  0.3347 -0.6800 -0.0672
  524SOL    HW1 1571   2.091   2.109   0.400  1.5020  0.0766 -0.5084
  524SOL    HW2 1572   2.088   2.248   0.491  1.6629 -0.1654 -0.4263
  525SOL     OW 1573   2.659   0.703   2.419 -0.2554 -0.5213  0.2668
  525SOL    HW1 1574   2.750   0.663   2.428  0.7891  0.4621 -0.8388
  525SOL    HW2 1575   2.622   0.744   2.501 -0.0732 -0.0383 -0.7551
  526SOL     OW 1576   0.314   2.451   0.646  0.1040 -0.2069 -0.1993
  526SOL    HW1 1577   0.413   2.462   0.669 -0.5156  2.3549  0.3101
  526SOL    HW2 1578   0.253   2.517   0.696  0.3223  2.2201 -3.6881
  527SOL     OW 1579   2.877   0.957   0.861 -0.7062  0.3052  0.5271
  527SOL    HW1 1580   2.820   1.007   0.793 -2.2785 -0.0069  0.9770
  527SOL    HW2 1581   2.821   0.915   0.930 -0.2479  0.5295 -2.8388
  528SOL     OW 1582   0.941   1.347   2.455  0.5815  0.2515 -0.2635
  528SOL    HW1 1583   1.043   1.351   2.455  1.0129 -1.2595 -1.6370
  528SOL    HW2 1584   0.900   1.430   2.410  0.9536  1.4032 -0.3871
  529SOL     OW 1585   0.935   1.321   0.302 -0.6034  0.2004  0.0376
  529SOL    HW1 1586   1.009   1.249   0.300  0.3854 -0.7472  0.9046
  529SOL    HW2 1587   0.843   1.280   0.300  2.0348  0.7275  1.4172
  530SOL     OW 1588   1.430   0.569   1.577  0.3121  0.9530 -0.0669
  530SOL    HW1 1589   1.491   0.645   1.549 -3.4623 -0.6611  2.0823
  530SOL    HW2 1590   1.474   0.495   1.628 -1.2903  0.9151  0.3060
  531SOL     OW 1591   1.185   2.054   0.283  0.2310 -0.5108 -0.1909
  531SOL    HW1 1592   1.172   2.137   0.219  0.9595  1.6957  0.2913
  531SOL    HW2 1593   1.282   2.049   0.316  1.8538  0.8323 -0.1777
  532SOL     OW 1594   2.714   1.009   2.396  0.2773  0.0174 -0.0659
  532SOL    HW1 1595   2.677   0.948   2.330  1.5315  5.2873  4.4222
  532SOL    HW2 1596   2.813   1.018   2.379  0.1267  2.7933  2.1770
  533SOL     OW 1597   0.012   0.319   1.883  0.1117  0.7225 -0.1366
  533SOL    HW1 1598   3.018   0.343   1.936  1.5117  1.3601  0.1082
  533SOL    HW2 1599   0.032   0.220   1.866 -0.5575 -1.3101 -2.0251
  534SOL     OW 1600   2.315   0.268   2.859  0.6451 -0.5208 -0.5180
  534SOL    HW1 1601   2.403   0.268   2.901 -0.7829  2.1176 -0.5281
  534SOL    HW2 1602   2.303   0.180   2.803  0.4049 -0.1837  1.4122
  535SOL     OW 1603   0.462   0.491   0.090 -0.1506  0.1595 -0.0040
  535SOL    HW1 1604   0.468   0.408   0.148 -0.2746  0.7470 -3.0466
  535SOL    HW2 1605   0.460   0.470   3.082  1.2999 -0.4620 -0.4857
  536SOL     OW 1606   1.085   2.103   1.136  0.0883  0.2869  0.0963
  536SOL    HW1 1607   1.027   2.103   1.225  1.4052 -0.9700  1.2907
  536SOL    HW2 1608   1.100   2.206   1.105  2.5985  1.5512 -1.9432
  537SOL     OW 1609   2.877   2.591   1.543 -0.2642  0.1537 -0.1025
  537SOL    HW1 1610   2.917   2.655   1.608 -0.7161  0.2943  0.1659
  537SOL    HW2 1611   2.848   2.501   1.590 -2.5572 -1.6652  2.3956
  538SOL     OW 1612   0.569   2.489   0.557 -0.4141 -0.3501 -0.0486
  538SOL    HW1 1613   0.621   2.408   0.517  2.5470 -2.1087  1.8775
  538SOL    HW2 1614   0.622   2.576   0.551 -0.5786  3.3125 -1.8526
  539SOL     OW 1615   1.798   1.323   2.385 -0.5438 -0.0890 -0.3832
  539SOL    HW1 1616   1.759   1.272   2.311  2.7097  2.3216  0.3853
  539SOL    HW2 1617   1.852   1.402   2.348  3.4773  2.3462 -1.5676
  540SOL     OW 1618   1.760   0.572   2.818  0.4601 -0.3263  0.3206
  540SOL    HW1 1619   1.738   0.481   2.779  1.8455 -1.2888  1.2625
  540SOL    HW2 1620   1.860   0.587   2.831 -1.0910  2.4697  1.4355
  541SOL     OW 1621   0.883   1.088   2.505  0.0226 -0.3061  0.2116
  541SOL    HW1 1622   0.905   1.020   2.431  1.5887  1.7840 -1.1490
  541SOL    HW2 1623   0.892   1.183   2.473  0.6329  2.1254 -0.7916
  542SOL     OW 1624   1.389   2.497   1.924  0.3753  0.4789  0.0566
  542SOL    HW1 1625   1.287   2.486   1.892 -5.4423 -0.4517  0.0667
  542SOL    HW2 1626   1.450   2.538   1.856  0.1493  1.9573  0.4677
  543SOL     OW 1627   0.584   2.755   3.052 -0.2087  0.5240 -0.2022
  543SOL    HW1 1628   0.634   2.694   2.987  1.1987 -2.0992 -1.7482
  543SOL    HW2 1629   0.495   2.789   3.012 -2.8273 -0.2751 -3.5837
  544SOL     OW 1630   3.054   2.089   2.170  0.5135 -0.0553 -0.0908
  544SOL    HW1 1631   2.965   2.122   2.204  1.4108 -1.7482  0.7427
  544SOL    HW2 1632   0.025   2.169   2.175 -2.3791 -0.0954  1.4463
  545SOL     OW 1633   1.443   1.758   1.657 -0.0379  0.7407  0.1970
  545SOL    HW1 1634   1.424   1.708   1.575  0.6779 -1.5251  0.6107
  545SOL    HW2 1635   1.359   1.809   1.693  1.9800 -0.2720  1.6722
  546SOL     OW 1636   2.866   0.484   2.498  0.2636  0.6899  0.5625
  546SOL    HW1 1637   2.798   0.409   2.484  0.3156 -1.1694 -1.1296
  546SOL    HW2 1638   2.957   0.465   2.453  1.5799 -0.1189 -2.7537
  547SOL     OW 1639   1.709   3.081   0.860  0.4227  0.2594 -0.4982
  547SOL    HW1 1640   1.665   0.038   0.941  0.6974 -1.3774  0.7848
  547SOL    HW2 1641   1.718   2.985   0.885 -0.9746  2.7948 -1.1395
  548SOL     OW 1642   1.297   2.038   3.090  0.0040  0.7172  0.0714
  548SOL    HW1 1643   1.241   1.970   3.037 -1.6443 -0.0226 -0.4952
  548SOL    HW2 1644   1.229   2.103   0.039 -3.0217 -0.7457  0.8498
  549SOL     OW 1645   2.051   0.468   0.041 -0.1305 -0.0241 -0.2236
  549SOL    HW1 1646   2.126   0.465   0.111  1.6260  0.0149 -0.3724
  549SOL    HW2 1647   2.077   0.532   3.059 -1.8250 -2.8876  0.4358
  550SOL     OW 1648   2.563   1.813   0.874 -0.1112 -0.4336  0.7998
  550SOL    HW1 1649   2.509   1.861   0.797 -0.9840 -0.6846 -1.4546
  550SOL    HW2 1650   2.633   1.754   0.824 -0.5702 -0.1002  0.4445
  551SOL     OW 1651   1.119   0.099   1.207 -0.7899  0.6029 -0.0508
  551SOL    HW1 1652   1.085   0.184   1.256 -0.7886 -0.8161  0.5170
  551SOL    HW2 1653   1.036   0.046   1.177 -2.2618 -2.4061 -0.5881
  552SOL     OW 1654   0.297   1.765   2.838 -0.2331  0.6288  0.3949
  552SOL    HW1 1655   0.332   1.723   2.753  0.7588 -1.6160 -0.0491
  552SOL    HW2 1656   0.331   1.717   2.924  1.5652 -0.3232  0.3135
  553SOL     OW 1657   2.417   2.475   0.097 -0.2979 -0.8730 -0.0463
  553SOL    HW1 1658   2.353   2.397   0.079 -1.1618 -2.4210  1.4474
  553SOL    HW2 1659   2.461   2.455   0.185  1.4672 -0.9481  2.1987
  554SOL     OW 1660   2.050   1.494   1.487  0.3190  0.3299 -0.3996
  554SOL    HW1 1661   2.142   1.528   1.508  0.4683 -0.8063  0.8041
  554SOL    HW2 1662   2.003   1.456   1.569  1.8591 -1.3469 -2.2409
  555SOL     OW 1663   0.574   2.488   2.430  0.2491 -0.1237  0.3157
  555SOL    HW1 1664   0.520   2.455   2.511 -0.9572 -0.1221  0.8836
  555SOL    HW2 1665   0.513   2.548   2.371  0.0489  1.3151 -3.7492
  556SOL     OW 1666   1.300   1.180   1.403 -0.3065  0.4309  0.4579
  556SOL    HW1 1667   1.363   1.142   1.334 -0.4376 -2.0680 -4.0907
  556SOL    HW2 1668   1.201   1.179   1.366 -0.1194  2.2918  1.4934
  557SOL     OW 1669   1.448   2.932   1.161  0.3038  0.2727 -0.2872
  557SOL    HW1 1670   1.412   2.868   1.092 -0.6937 -0.5274  0.4295
  557SOL    HW2 1671   1.373   2.961   1.229 -0.4422 -0.7054 -0.5362
  558SOL     OW 1672   0.560   0.888   2.356  0.5039  0.0081 -0.1550
  558SOL    HW1 1673   0.480   0.829   2.379  1.7221  3.0405  3.0190
  558SOL    HW2 1674   0.611   0.895   2.443 -1.8295 -1.5223  0.7411
  559SOL     OW 1675   1.019   2.708   0.234 -0.7209  0.5844  0.5689
  559SOL    HW1 1676   0.968   2.795   0.247  0.1967 -0.4213 -0.6886
  559SOL    HW2 1677   1.080   2.689   0.316  2.2436  0.0904 -0.9143
  560SOL     OW 1678   1.680   1.919   0.353  0.1462  0.1209 -0.4411
  560SOL    HW1 1679   1.743   1.842   0.325  3.4868 -1.3302  0.6188
  560SOL    HW2 1680   1.633   1.947   0.271  1.5478 -1.9022  2.9831
  561SOL     OW 1681   1.184   2.925   0.517  0.1598  0.2957 -0.0579
  561SOL    HW1 1682   1.203   3.017   0.476  0.5450  0.0260 -0.7737
  561SOL    HW2 1683   1.197   2.939   0.619  2.9490 -0.3456 -2.5105
  562SOL     OW 1684   0.594   1.007   2.095  0.1844  0.1961  0.4196
  562SOL    HW1 1685   0.692   1.027   2.096 -0.4903 -0.7378 -2.4895
  562SOL    HW2 1686   0.574   0.961   2.187  1.4365 -0.8892 -0.8986
  563SOL     OW 1687   1.176   2.025   2.405  0.5577 -0.2308 -0.4314
  563SOL    HW1 1688   1.210   2.068   2.324  1.7636  0.8177  1.3544
  563SOL    HW2 1689   1.215   2.075   2.487 -0.3603 -0.0409  0.8843
  564SOL     OW 1690   2.354   0.685   1.323 -0.1362  0.5900  0.6947
  564SOL    HW1 1691   2.344   0.674   1.219  0.5036 -0.4439 -0.9185
  564SOL    HW2 1692   2.383   0.780   1.353 -1.6749  1.4164 -0.4549
  565SOL     OW 1693   1.504   0.967   0.275 -0.4427  0.2092 -0.1306
  565SOL    HW1 1694   1.512   0.967   0.172  0.3104  0.4808  2.1273
  565SOL    HW2 1695   1.588   1.005   0.318 -0.2154 -3.3143  0.3275
  566SOL     OW 1696   2.320   2.782   2.968 -0.3243  0.1639 -0.5836
  566SOL    HW1 1697   2.409   2.741   2.986 -1.5510 -1.8086  1.7463
  566SOL    HW2 1698   2.251   2.708   2.981  0.4018  1.0341  0.4449
  567SOL     OW 1699   1.757   0.992   1.021 -0.5003  0.3718  0.3386
  567SOL    HW1 1700   1.792   0.985   1.117  0.6917 -0.2126  0.8283
  567SOL    HW2 1701   1.696   0.913   0.994 -0.1498 -0.3553 -0.1673
  568SOL     OW 1702   1.092   1.216   2.715 -0.0955  0.0963 -0.1334
  568SOL    HW1 1703   1.074   1.238   2.817 -0.3650 -0.2044  4.6806
  568SOL    HW2 1704   1.019   1.166   2.665  0.0313  2.9332 -0.8147
  569SOL     OW 1705   2.196   1.640   0.775  0.7489  0.7094 -0.1579
  569SOL    HW1 1706   2.135   1.571   0.816 -0.2118 -1.2186 -0.9083
  569SOL    HW2 1707   2.172   1.736   0.799 -0.7621  2.0754  1.7149
  570SOL     OW 1708   2.673   2.524   2.382 -0.2004 -0.1430 -0.3159
  570SOL    HW1 1709   2.603   2.587   2.427 -1.3893 -1.4744 -0.9087
  570SOL    HW2 1710   2.769   2.543   2.407 -2.8030 -0.9769  0.7518
  571SOL     OW 1711   2.944   1.929   1.669 -0.0033 -0.0915 -0.9251
  571SOL    HW1 1712   2.919   1.989   1.589  0.1013  0.0979  0.1698
  571SOL    HW2 1713   2.972   1.987   1.749  2.4127 -0.8280 -0.9703
  572SOL     OW 1714   1.248   2.250   2.714  0.3919  0.2570 -0.7799
  572SOL    HW1 1715   1.256   2.329   2.646  0.1490  0.6212 -3.6458
  572SOL    HW2 1716   1.314   2.248   2.793 -1.0299 -0.6273 -0.2869
  573SOL     OW 1717   1.540   2.332   1.483 -0.4093  0.2821  0.4566
  573SOL    HW1 1718   1.451   2.348   1.529  2.5843  0.4229  0.9161
  573SOL    HW2 1719   1.618   2.298   1.548  1.4463 -2.2487 -0.4883
  574SOL     OW 1720   1.170   2.740   1.349 -0.1808 -0.0311 -0.3946
  574SOL    HW1 1721   1.189   2.838   1.337 -0.0093  0.0050 -1.0112
  574SOL    HW2 1722   1.071   2.724   1.382 -0.8942 -2.0666 -0.1971
  575SOL     OW 1723   0.674   0.402   0.866  0.4129 -0.0539 -0.8283
  575SOL    HW1 1724   0.759   0.434   0.816  4.2433 -0.2443  0.9859
  575SOL    HW2 1725   0.675   0.407   0.968  1.1147 -1.1828  0.2118
  576SOL     OW 1726   2.225   0.532   1.512  0.0526 -0.5816  0.4285
  576SOL    HW1 1727   2.276   0.589   1.436  0.9843 -1.5845 -0.8630
  576SOL    HW2 1728   2.269   0.442   1.538  0.6037 -3.9151 -0.6163
  577SOL     OW 1729   2.086   0.206   2.989  0.2413 -0.5205  0.2896
  577SOL    HW1 1730   2.158   0.228   2.920 -0.1825 -2.4330 -2.2150
  577SOL    HW2 1731   2.084   0.282   3.062 -4.6765  1.6115  2.6196
  578SOL     OW 1732   1.683   1.942   1.909  0.7774 -0.0937  0.4036
  578SOL    HW1 1733   1.632   1.859   1.940 -0.0629  2.3102  0.7335
  578SOL    HW2 1734   1.672   1.946   1.810 -1.0286  1.4083 -0.1197
  579SOL     OW 1735   0.598   1.715   0.969 -0.0856  0.3890  0.2022
  579SOL    HW1 1736   0.583   1.730   0.868  1.3253  0.2179 -1.9835
  579SOL    HW2 1737   0.607   1.617   0.989  1.0238  1.2689 -0.0090
  580SOL     OW 1738   1.363   2.825   2.910  0.3109 -0.7118  0.4394
  580SOL    HW1 1739   1.294   2.753   2.890 -2.7032 -3.3216  0.1688
  580SOL    HW2 1740   1.363   2.857   3.005  1.2453  0.5330  2.7219
  581SOL     OW 1741   1.125   0.777   1.891  0.0311 -0.0897 -0.2436
  581SOL    HW1 1742   1.119   0.688   1.940 -2.3771 -2.3100 -1.7705
  581SOL    HW2 1743   1.210   0.778   1.826  2.8685  0.9603 -2.8941
  582SOL     OW 1744   0.209   0.351   0.971 -0.7352 -0.0007  0.4219
  582SOL    HW1 1745   0.152   0.434   0.981  2.7531 -1.2802  0.3715
  582SOL    HW2 1746   0.293   0.377   0.919 -2.2206  1.1654  3.5980
  583SOL     OW 1747   0.832   1.891   1.897 -0.3106  0.8716 -0.0295
  583SOL    HW1 1748   0.755   1.824   1.898  0.1316  0.6133 -0.9940
  583SOL    HW2 1749   0.908   1.861   1.957  0.3795 -0.0657  0.4843
  584SOL     OW 1750   2.468   2.437   0.376 -0.2869  0.3029  0.2465
  584SOL    HW1 1751   2.562   2.433   0.420  0.3167 -0.0637  1.9231
  584SOL    HW2 1752   2.434   2.533   0.364  1.7544 -3.4998  1.3938
  585SOL     OW 1753   2.322   0.523   2.785 -0.0114  0.7553  0.7870
  585SOL    HW1 1754   2.393   0.554   2.845 -3.4913  2.6229 -0.3905
  585SOL    HW2 1755   2.297   0.423   2.803  1.8629 -0.5398  0.9203
  586SOL     OW 1756   0.425   1.372   0.381  0.2022  0.7994  0.1668
  586SOL    HW1 1757   0.509   1.394   0.432 -1.0448 -2.8906 -0.1588
  586SOL    HW2 1758   0.339   1.398   0.425 -0.4848 -0.0573  3.1997
  587SOL     OW 1759   1.654   2.075   1.120 -0.0326 -0.4334 -0.2351
  587SOL    HW1 1760   1.727   2.012   1.088  0.5834 -2.4130  0.3053
  587SOL    HW2 1761   1.563   2.048   1.089  1.4373 -0.5183 -0.4206
  588SOL     OW 1762   0.522   0.602   1.251  0.7138 -0.1322  0.2430
  588SOL    HW1 1763   0.578   0.564   1.178 -1.5654 -1.3502  1.0352
  588SOL    HW2 1764   0.424   0.597   1.231  2.2009  0.4672  1.4814
  589SOL     OW 1765   2.018   2.832   0.810 -0.3107  0.0351 -0.2265
  589SOL    HW1 1766   2.014   2.862   0.713  0.1406 -0.1253 -1.6506
  589SOL    HW2 1767   1.928   2.810   0.851  1.4127 -0.5541  0.6928
  590SOL     OW 1768   1.731   1.116   0.355 -0.2059  0.4031  0.1569
  590SOL    HW1 1769   1.812   1.120   0.295  0.2919 -1.7586  1.1142
  590SOL    HW2 1770   1.720   1.209   0.400  2.3184  0.1717 -1.9176
  591SOL     OW 1771   2.254   2.108   1.898 -0.0502  0.3743  0.4020
  591SOL    HW1 1772   2.248   2.008   1.913 -0.5207 -2.3092  1.0304
  591SOL    HW2 1773   2.317   2.154   1.961 -2.8957 -0.8119  0.3145
  592SOL     OW 1774   1.371   2.034   1.127 -0.6374 -0.4529  0.1344
  592SOL    HW1 1775   1.405   1.940   1.098 -0.0550 -0.2946 -0.5401
  592SOL    HW2 1776   1.278   2.029   1.175 -2.5942  2.7299  3.5484
  593SOL     OW 1777   0.715   2.985   0.870  0.4248 -0.1014  0.6027
  593SOL    HW1 1778   0.815   2.960   0.871 -0.3426  1.5679  1.3688
  593SOL    HW2 1779   0.689   3.084   0.848  1.9554  1.8534 -0.3657
  594SOL     OW 1780   2.967   1.075   2.265  0.0289  0.1394  0.3320
  594SOL    HW1 1781   2.962   1.134   2.183 -1.5176 -1.0733  2.3572
  594SOL    HW2 1782   3.002   0.983   2.246 -2.2431  0.1849  0.6955
  595SOL     OW 1783   2.925   2.965   0.530 -0.1945 -0.2672  0.1510
  595SOL    HW1 1784   3.013   2.928   0.498  1.3727 -0.5554 -0.1974
  595SOL    HW2 1785   2.942   3.029   0.613  1.7839  0.8088  2.9121
  596SOL     OW 1786   3.090   0.459   1.510  0.0006 -0.2288 -0.1479
  596SOL    HW1 1787   3.062   0.552   1.543  2.1059 -1.8980 -0.8219
  596SOL    HW2 1788   3.052   0.384   1.560  2.6775  0.9936  0.0330
  597SOL     OW 1789   2.523   1.104   0.469 -0.3501 -0.2147  0.1570
  597SOL    HW1 1790   2.599   1.077   0.406  1.1704 -1.8164  0.6938
  597SOL    HW2 1791   2.460   1.171   0.420 -0.9654  1.6666  0.3818
  598SOL     OW 1792   0.536   0.312   2.067  0.0299  0.2827  0.4853
  598SOL    HW1 1793   0.566   0.400   2.021  0.8540 -0.7797  2.7030
  598SOL    HW2 1794   0.490   0.337   2.155 -0.3921  2.8169  2.4555
  599SOL     OW 1795   2.429   1.701   0.332  0.0389 -0.5949 -0.3678
  599SOL    HW1 1796   2.384   1.751   0.408  1.4231  0.7088  2.0357
  599SOL    HW2 1797   2.495   1.766   0.296 -0.2228 -1.2432 -1.0431
  600SOL     OW 1798   0.992   0.957   0.095 -0.0676 -0.1893  0.4978
  600SOL    HW1 1799   1.076   1.008   0.059  0.3682  0.7868 -0.2228
  600SOL    HW2 1800   0.922   1.024   0.109  0.6241 -0.6856 -0.1557
  601SOL     OW 1801   1.464   0.979   0.003 -0.0134  0.2431 -0.1942
  601SOL    HW1 1802   1.381   1.033   0.015  2.4415  1.4595  0.4123
  601SOL    HW2 1803   1.441   0.887   3.067  0.3453  0.4960 -0.5238
  602SOL     OW 1804   1.062   3.038   1.530 -0.1274  0.4105  0.2778
  602SOL    HW1 1805   1.105   0.035   1.563 -2.7124  1.4857  3.1838
  602SOL    HW2 1806   0.963   3.047   1.501 -0.9936 -0.5004 -0.6190
  603SOL     OW 1807   0.925   2.769   2.362 -0.6823  0.3216  0.1388
  603SOL    HW1 1808   0.960   2.862   2.370 -0.3150 -0.5046  0.7993
  603SOL    HW2 1809   0.938   2.739   2.264 -0.9130 -0.7718  1.0203
  604SOL     OW 1810   0.065   0.049   1.864 -0.8119 -0.0995 -0.1707
  604SOL    HW1 1811   0.108   3.070   1.928 -0.1945 -2.3311  2.5247
  604SOL    HW2 1812   3.055   0.028   1.853 -1.5305  1.4689 -0.8804
  605SOL     OW 1813   2.648   2.748   1.571  0.4858  0.0486  0.6077
  605SOL    HW1 1814   2.626   2.672   1.637  0.5157  0.5109 -1.6136
  605SOL    HW2 1815   2.745   2.777   1.586  3.1106  0.7699 -0.1441
  606SOL     OW 1816   3.088   2.165   2.710 -0.3973  0.7507 -0.4374
  606SOL    HW1 1817   3.074   2.184   2.812 -0.8983  1.9566  1.0492
  606SOL    HW2 1818   0.049   2.076   2.699 -0.8122 -0.1957 -0.8411
  607SOL     OW 1819   0.847   0.294   0.497 -0.3520 -0.3369  0.1265
  607SOL    HW1 1820   0.796   0.364   0.439 -2.2151  1.5468  2.4135
  607SOL    HW2 1821   0.882   0.337   0.582  1.8011  2.4319 -0.8809
  608SOL     OW 1822   1.659   1.730   2.478  0.1539 -0.5691  0.1124
  608SOL    HW1 1823   1.579   1.670   2.453 -2.5309 -1.3451 -0.7547
  608SOL    HW2 1824   1.644   1.824   2.447 -0.9455  1.6874  0.4331
  609SOL     OW 1825   2.999   0.250   1.153 -0.1428  0.0563 -0.6543
  609SOL    HW1 1826   3.037   0.344   1.187 -0.1941  4.5011  0.2236
  609SOL    HW2 1827   3.047   0.217   1.069 -0.7971 -1.4749 -0.4713
  610SOL     OW 1828   0.862   2.330   0.038  0.0399 -0.4785 -0.0673
  610SOL    HW1 1829   0.814   2.380   3.054  1.0938  0.4428  1.1430
  610SOL    HW2 1830   0.842   2.378   0.127  0.8632  1.6185 -1.2604
  611SOL     OW 1831   1.901   1.459   0.558  0.1651  0.3440  0.0549
  611SOL    HW1 1832   1.907   1.513   0.475 -1.5437 -1.2755  1.0924
  611SOL    HW2 1833   1.808   1.412   0.550 -4.3912  0.5784 -0.8316
  612SOL     OW 1834   0.985   2.586   2.546 -0.0703  0.2382  0.2145
  612SOL    HW1 1835   0.982   2.680   2.505  0.4911 -0.7173  1.5562
  612SOL    HW2 1836   0.924   2.516   2.495 -1.4234  0.2990 -0.0980
  613SOL     OW 1837   1.133   1.790   0.305  0.0782  0.1759 -0.5232
  613SOL    HW1 1838   1.159   1.891   0.308  4.3976  0.9275  0.6411
  613SOL    HW2 1839   1.034   1.781   0.279  2.0396 -0.1710  2.1192
  614SOL     OW 1840   2.762   2.334   1.664  0.1960  0.4910  0.2456
  614SOL    HW1 1841   2.696   2.325   1.587 -2.3363  1.0634  0.9670
  614SOL    HW2 1842   2.717   2.309   1.751 -2.4895 -1.8824 -1.0611
  615SOL     OW 1843   2.291   1.361   0.082  0.1244 -0.1495  0.3253
  615SOL    HW1 1844   2.376   1.371   0.023  1.6452  0.4453 -2.0759
  615SOL    HW2 1845   2.224   1.292   0.044  0.3362 -0.5308  0.0544
  616SOL     OW 1846   1.624   0.122   0.639 -0.0215  0.7966 -0.0567
  616SOL    HW1 1847   1.653   0.072   0.723  1.3588  0.2359 -1.9235
  616SOL    HW2 1848   1.707   0.127   0.581  1.1505 -1.3785  0.2777
  617SOL     OW 1849   0.443   1.437   2.799 -0.2901 -0.6996  0.0491
  617SOL    HW1 1850   0.438   1.511   2.724 -0.7220  1.6611 -0.9761
  617SOL    HW2 1851   0.398   1.350   2.775  1.8892  0.9672  1.8244
  618SOL     OW 1852   0.551   0.646   1.707  0.5314 -0.2813  0.1119
  618SOL    HW1 1853   0.480   0.695   1.653  1.7665  1.6819  0.5450
  618SOL    HW2 1854   0.614   0.606   1.636 -2.4337  1.0852  0.3774
  619SOL     OW 1855   2.814   1.014   1.883  0.2650  0.2120 -0.4344
  619SOL    HW1 1856   2.871   1.076   1.944 -0.8633 -0.6338  0.3599
  619SOL    HW2 1857   2.804   0.922   1.926 -2.2673  1.2386 -0.0379
  620SOL     OW 1858   2.096   1.228   3.062  0.0785  0.6354  0.3725
  620SOL    HW1 1859   2.021   1.192   3.004  0.1922  0.7769 -1.4972
  620SOL    HW2 1860   2.051   1.275   0.053  2.3181  0.6851 -1.0544
  621SOL     OW 1861   2.465   2.926   1.156 -0.1711  1.2191  0.0571
  621SOL    HW1 1862   2.546   2.882   1.209 -1.9184  2.0211  0.1419
  621SOL    HW2 1863   2.383   2.938   1.217 -1.2686  1.8835  1.4027
  622SOL     OW 1864   1.719   0.573   2.019 -0.0811 -0.1915  0.5423
  622SOL    HW1 1865   1.733   0.502   1.943 -1.4125  0.2474 -0.5300
  622SOL    HW2 1866   1.623   0.616   2.010 -4.2715  2.3883 -0.2370
  623SOL     OW 1867   1.446   1.037   2.356 -0.2471 -0.2996  0.1817
  623SOL    HW1 1868   1.434   1.126   2.303 -0.9892 -0.8650  4.2355
  623SOL    HW2 1869   1.489   1.053   2.445  1.9394 -2.0167  0.7959
  624SOL     OW 1870   1.846   0.114   0.486 -0.0668 -0.4022  0.2739
  624SOL    HW1 1871   1.876   0.158   0.399  1.4910  0.2558  1.0239
  624SOL    HW2 1872   1.918   0.048   0.521  2.1030 -1.3761  0.6427
  625SOL     OW 1873   0.634   1.487   0.485 -0.5729 -0.2090  0.0845
  625SOL    HW1 1874   0.732   1.464   0.488 -0.3110 -2.0846 -1.0450
  625SOL    HW2 1875   0.626   1.581   0.535  0.0298  0.5219 -2.4527
  626SOL     OW 1876   1.687   1.200   2.167  0.0640 -0.3237 -0.2737
  626SOL    HW1 1877   1.691   1.148   2.080 -0.5167 -0.1859  0.4226
  626SOL    HW2 1878   1.595   1.237   2.182  1.6218 -0.2923 -1.0556
  627SOL     OW 1879   0.908   0.462   1.856 -0.5735  0.0801  0.1198
  627SOL    HW1 1880   0.985   0.497   1.909 -1.0811 -2.5259  3.5403
  627SOL    HW2 1881   0.825   0.503   1.886  3.4631  2.2886 -0.0186
  628SOL     OW 1882   2.108   0.826   2.212  0.4768  0.0076 -0.0359
  628SOL    HW1 1883   2.045   0.768   2.162  1.9742  0.8367  1.6141
  628SOL    HW2 1884   2.172   0.859   2.137 -0.2975  2.2101  1.1197
  629SOL     OW 1885   0.835   1.359   3.057  0.2011  0.0785  0.6486
  629SOL    HW1 1886   0.759   1.421   3.018  0.2928  0.5246 -3.0107
  629SOL    HW2 1887   0.804   1.272   0.013 -0.3460 -2.3366 -1.8520
  630SOL     OW 1888   1.358   0.510   2.131 -0.3131 -0.7595 -0.1550
  630SOL    HW1 1889   1.392   0.593   2.082 -0.1437  2.5041 -0.0575
  630SOL    HW2 1890   1.344   0.523   2.229  0.1100 -1.1806  1.0141
  631SOL     OW 1891   2.506   0.643   0.954  0.1641 -0.1301  0.3312
  631SOL    HW1 1892   2.501   0.551   0.926  0.2559  0.7190  1.9819
  631SOL    HW2 1893   2.411   0.671   0.979  2.5407  0.4707 -0.2499
  632SOL     OW 1894   2.757   1.687   0.747  0.2668 -0.1316 -0.1638
  632SOL    HW1 1895   2.776   1.602   0.695 -0.4801  0.6670 -1.4411
  632SOL    HW2 1896   2.787   1.775   0.705 -0.1001  0.7728  0.7364
  633SOL     OW 1897   0.670   1.278   0.751  0.0504  0.0773 -0.1821
  633SOL    HW1 1898   0.686   1.207   0.821 -0.6754 -3.3628  0.9361
  633SOL    HW2 1899   0.671   1.237   0.663  0.1991  0.6543 -0.6897
  634SOL     OW 1900   1.486   3.071   0.444 -0.3889 -0.5333 -0.1700
  634SOL    HW1 1901   1.407   0.047   0.426 -1.7082  0.8723 -1.0251
  634SOL    HW2 1902   1.545   0.012   0.519  0.2148  2.7062 -1.9535
  635SOL     OW 1903   2.006   0.532   1.721  0.6315  0.6436  0.0101
  635SOL    HW1 1904   2.081   0.512   1.652  4.7807 -3.1264  0.8815
  635SOL    HW2 1905   1.971   0.627   1.713  0.7176 -2.0446 -0.8520
  636SOL     OW 1906   1.364   0.565   0.579 -0.7545  0.1564 -0.0780
  636SOL    HW1 1907   1.376   0.640   0.646  1.7015 -0.8734 -0.1260
  636SOL    HW2 1908   1.430   0.485   0.593 -0.0317 -1.5281 -0.3724
  637SOL     OW 1909   1.990   1.680   2.882 -0.3532  0.1968 -0.2942
  637SOL    HW1 1910   2.007   1.725   2.793  0.7682  0.7940  0.1839
  637SOL    HW2 1911   2.076   1.680   2.928 -0.2212 -0.9300 -5.7517
  638SOL     OW 1912   0.987   0.117   2.590  0.4152  0.1694  0.2610
  638SOL    HW1 1913   1.033   0.054   2.660 -0.2866 -0.0980 -0.0556
  638SOL    HW2 1914   0.886   0.100   2.598 -0.3564  0.3579  0.3756
  639SOL     OW 1915   1.181   1.908   1.431 -0.0799 -0.6048 -0.2744
  639SOL    HW1 1916   1.091   1.876   1.401  1.5199 -0.8724 -2.0686
  639SOL    HW2 1917   1.252   1.840   1.400 -0.7643  1.5862 -4.4058
  640SOL     OW 1918   0.540   0.030   2.784 -0.0653  0.3175 -0.1498
  640SOL    HW1 1919   0.488   0.042   2.873 -1.0175  1.4953  0.5332
  640SOL    HW2 1920   0.511   3.040   2.722  3.6157 -0.7737 -1.3988
  641SOL     OW 1921   0.469   0.880   0.298  0.0890 -0.2909  0.6656
  641SOL    HW1 1922   0.381   0.828   0.281  0.3193  0.9699 -0.3627
  641SOL    HW2 1923   0.495   0.903   0.393  1.2690 -1.0391  0.7057
  642SOL     OW 1924   0.251   1.736   1.057 -0.0662  0.2329  0.2687
  642SOL    HW1 1925   0.278   1.830   1.032  0.0705  0.3154  0.0889
  642SOL    HW2 1926   0.247   1.675   0.974  0.1938 -2.7727 -2.5748
  643SOL     OW 1927   0.737   1.892   2.735  0.3129 -0.6089  0.0613
  643SOL    HW1 1928   0.670   1.970   2.725 -2.9204  1.5441  0.2894
  643SOL    HW2 1929   0.774   1.885   2.830 -0.8708 -2.3870  0.7723
  644SOL     OW 1930   1.614   2.215   0.169 -0.1327 -0.5424 -0.6550
  644SOL    HW1 1931   1.710   2.218   0.210  0.0405 -1.0022 -2.0020
  644SOL    HW2 1932   1.549   2.277   0.218  0.0574 -0.0028  0.7536
  645SOL     OW 1933   1.184   2.180   1.465 -0.1195 -0.3140 -0.4722
  645SOL    HW1 1934   1.177   2.079   1.446 -1.3486  0.2716 -2.0535
  645SOL    HW2 1935   1.214   2.232   1.384  0.1006  0.3330 -2.8326
  646SOL     OW 1936   0.581   2.610   0.220 -0.2855 -0.2875 -0.4524
  646SOL    HW1 1937   0.673   2.568   0.235 -0.6500 -1.4048 -0.2439
  646SOL    HW2 1938   0.586   2.672   0.139 -0.0914 -1.0041  2.2093
  647SOL     OW 1939   0.181   2.975   2.033  0.4710 -0.3680  0.5753
  647SOL    HW1 1940   0.120   2.989   2.111 -0.4554  0.2994  2.2670
  647SOL    HW2 1941   0.268   2.940   2.065 -3.4422  5.2997 -0.4736
  648SOL     OW 1942   2.577   1.057   1.114  0.8888 -0.4125  0.5803
  648SOL    HW1 1943   2.630   0.979   1.083 -2.2429 -0.5738 -0.4905
  648SOL    HW2 1944   2.477   1.044   1.093  0.0178 -0.9522 -1.3986
  649SOL     OW 1945   2.069   2.665   2.692  0.8153 -0.3452 -0.3864
  649SOL    HW1 1946   2.072   2.640   2.793  0.0118 -1.1880  0.8652
  649SOL    HW2 1947   2.051   2.762   2.665 -0.1632  1.2007 -0.9192
  650SOL     OW 1948   2.696   2.049   1.904 -0.3659  0.2871  0.0040
  650SOL    HW1 1949   2.645   1.966   1.875 -1.4383  1.7027 -0.2115
  650SOL    HW2 1950   2.799   2.035   1.905  2.7853 -1.6488 -1.0505
  651SOL     OW 1951   1.199   1.853   2.892 -0.0956  0.0115  0.2095
  651SOL    HW1 1952   1.252   1.903   2.816  0.3550  1.3676 -1.2450
  651SOL    HW2 1953   1.195   1.752   2.865  2.3673 -1.9761 -1.2913
  652SOL     OW 1954   0.560   3.013   2.298 -0.4272  0.1497  0.1646
  652SOL    HW1 1955   0.477   3.019   2.360  0.4513 -2.6711 -1.7922
  652SOL    HW2 1956   0.645   2.995   2.352 -0.8609  2.1315  2.4495
  653SOL     OW 1957   2.156   1.886   0.893 -0.1435 -0.2463 -0.3669
  653SOL    HW1 1958   2.121   1.806   0.941  0.9366  2.2928 -1.7497
  653SOL    HW2 1959   2.162   1.971   0.952  4.2136  0.4337  1.0727
  654SOL     OW 1960   2.363   2.796   2.185  0.7602 -0.0591  0.7600
  654SOL    HW1 1961   2.277   2.797   2.237  0.3429  1.7507 -2.9293
  654SOL    HW2 1962   2.375   2.888   2.138 -0.9804  1.7360  1.0614
  655SOL     OW 1963   2.498   2.252   1.033 -0.4807  0.2084  0.2992
  655SOL    HW1 1964   2.457   2.305   1.114 -2.5031  1.8053  1.2917
  655SOL    HW2 1965   2.422   2.239   0.961 -0.6769 -1.5433 -1.0794
  656SOL     OW 1966   2.807   1.736   2.883 -0.3320  0.1891 -0.3446
  656SOL    HW1 1967   2.747   1.818   2.863  1.4644  2.0868 -0.7724
  656SOL    HW2 1968   2.752   1.659   2.921  0.3921  1.8107  0.7562
  657SOL     OW 1969   0.047   1.208   0.622  0.0909  0.4421 -0.4571
  657SOL    HW1 1970   3.066   1.152   0.579 -2.7619  0.5487 -0.5148
  657SOL    HW2 1971   0.029   1.223   0.722 -0.3093  0.8080  0.3896
  658SOL     OW 1972   0.967   1.562   1.245 -0.3907  0.1597 -0.0953
  658SOL    HW1 1973   1.042   1.615   1.202  0.7817  0.2181  3.2362
  658SOL    HW2 1974   0.880   1.610   1.227  0.6942  0.0663 -0.2419
  659SOL     OW 1975   1.255   3.006   1.335  0.0951 -0.3431 -0.1077
  659SOL    HW1 1976   1.200   3.066   1.271 -6.4949 -0.3303 -0.5144
  659SOL    HW2 1977   1.222   3.015   1.430  0.4487  0.7962 -1.4514
  660SOL     OW 1978   2.431   0.384   0.877 -0.7434 -0.6035  0.0584
  660SOL    HW1 1979   2.417   0.401   0.775 -0.9156  4.0823 -2.0087
  660SOL    HW2 1980   2.375   0.311   0.918 -0.6494  0.0593  0.6337
  661SOL     OW 1981   0.487   1.786   0.206 -0.5771 -0.2305 -1.2346
  661SOL    HW1 1982   0.558   1.713   0.184  2.8451 -3.2693 -1.6170
  661SOL    HW2 1983   0.527   1.877   0.212 -2.4012 -1.4122 -0.3789
  662SOL     OW 1984   2.241   0.908   1.981 -0.2683  0.4295  0.8624
  662SOL    HW1 1985   2.291   0.817   1.978  2.2631 -0.2096  0.1823
  662SOL    HW2 1986   2.207   0.931   1.890  0.8671 -0.1499  0.2321
  663SOL     OW 1987   1.721   1.310   1.149  0.3330  0.4528  0.2951
  663SOL    HW1 1988   1.786   1.294   1.078 -3.2748 -1.8006  0.3449
  663SOL    HW2 1989   1.758   1.286   1.242 -2.2806 -1.2335 -0.3319
  664SOL     OW 1990   0.484   0.063   1.291 -0.6309 -0.3047 -0.3586
  664SOL    HW1 1991   0.562   0.080   1.229  0.1480 -0.0317  0.1246
  664SOL    HW2 1992   0.499   3.082   1.362  0.0582  1.2794 -0.5034
  665SOL     OW 1993   1.416   0.503   2.806  0.0791 -0.5699  0.1117
  665SOL    HW1 1994   1.502   0.484   2.754  3.7959 -0.1034  0.9802
  665SOL    HW2 1995   1.405   0.602   2.814  0.6809  1.9669  0.4042
  666SOL     OW 1996   0.887   0.641   2.257  0.2932  0.0576  0.1230
  666SOL    HW1 1997   0.915   0.546   2.221 -0.9440 -3.3962 -1.3865
  666SOL    HW2 1998   0.784   0.646   2.247 -4.6806  0.5445 -2.9862
  667SOL     OW 1999   1.299   1.461   1.374 -0.0983  0.1417 -0.1520
  667SOL    HW1 2000   1.218   1.472   1.437  3.2553 -0.3308  0.8887
  667SOL    HW2 2001   1.275   1.399   1.298 -0.3781 -3.5631 -1.5262
  668SOL     OW 2002   0.393   1.215   2.196 -0.0523 -0.1040 -0.7037
  668SOL    HW1 2003   0.451   1.133   2.162  2.8517 -1.0849 -4.2113
  668SOL    HW2 2004   0.426   1.290   2.136  1.4295  1.9658  0.4337
  669SOL     OW 2005   2.574   2.635   3.029 -0.4135  0.8139  0.2750
  669SOL    HW1 2006   2.656   2.588   2.986  1.3562 -1.1911  0.0402
  669SOL    HW2 2007   2.525   2.573   0.002  0.0145  1.5725 -0.6322
  670SOL     OW 2008   2.725   1.328   1.859 -0.2673 -0.1205 -0.6716
  670SOL    HW1 2009   2.808   1.336   1.798 -1.9638 -0.3480  0.4718
  670SOL    HW2 2010   2.665   1.256   1.821 -3.4871  0.7394  0.3169
  671SOL     OW 2011   2.823   1.927   0.597  0.3852  0.1995  0.1239
  671SOL    HW1 2012   2.738   1.977   0.580 -1.1967  0.9951 -2.4772
  671SOL    HW2 2013   2.903   1.983   0.555  0.8959  0.3345 -3.3303
  672SOL     OW 2014   1.563   0.980   1.856  0.0626  0.4712  0.0789
  672SOL    HW1 2015   1.642   1.028   1.895  0.3839 -2.0663 -0.0148
  672SOL    HW2 2016   1.554   1.013   1.758  1.4455  0.1322 -1.7778
  673SOL     OW 2017   2.843   2.031   1.416 -0.1484 -0.8675  0.1924
  673SOL    HW1 2018   2.834   2.112   1.363 -1.0115 -0.4462  1.3560
  673SOL    HW2 2019   2.898   1.961   1.372  0.8950  2.9357  0.8646
  674SOL     OW 2020   0.751   1.856   1.625 -0.2029 -0.1206  0.1017
  674SOL    HW1 2021   0.792   1.858   1.719 -3.0809  1.4356 -1.3454
  674SOL    HW2 2022   0.695   1.940   1.609  0.5247  2.3163 -1.8980
  675SOL     OW 2023   2.912   0.752   1.214 -0.1463 -0.0866 -0.1793
  675SOL    HW1 2024   2.991   0.818   1.226  1.5696 -0.6258 -1.7613
  675SOL    HW2 2025   2.953   0.664   1.233 -0.9881  2.6503 -0.5456
  676SOL     OW 2026   2.903   0.911   1.637 -0.1560 -0.4909  0.6534
  676SOL    HW1 2027   2.859   0.948   1.725 -0.3704 -0.0013 -0.8940
  676SOL    HW2 2028   2.833   0.871   1.575  2.0584 -2.8084 -0.4010
  677SOL     OW 2029   2.090   1.103   2.497  0.3451  0.1990  0.5533
  677SOL    HW1 2030   1.994   1.133   2.505 -0.7045 -0.4453 -1.0082
  677SOL    HW2 2031   2.141   1.116   2.582 -1.7773 -1.2997 -4.0213
  678SOL     OW 2032   2.455   1.460   1.113  0.1471 -0.0737  0.7051
  678SOL    HW1 2033   2.487   1.400   1.035  1.6978 -1.1931 -2.5017
  678SOL    HW2 2034   2.543   1.488   1.163  0.7667  0.2136 -1.5087
  679SOL     OW 2035   0.207   2.762   0.092  0.0401 -0.0201 -0.4851
  679SOL    HW1 2036   0.248   2.675   0.058 -1.0943  2.0743  3.4319
  679SOL    HW2 2037   0.106   2.745   0.106  1.6776  2.1032 -0.1441
  680SOL     OW 2038   0.017   1.576   1.033  0.4046 -0.1089 -0.2890
  680SOL    HW1 2039   0.064   1.515   0.968 -0.3296  0.3652  0.7552
  680SOL    HW2 2040   0.069   1.666   1.056 -0.4268  2.9525 -0.1853
  681SOL     OW 2041   1.166   0.014   0.767 -0.2866  0.0746 -0.1237
  681SOL    HW1 2042   1.175   0.117   0.753 -0.3224  2.2458  2.0230
  681SOL    HW2 2043   1.252   3.068   0.809 -1.1017 -1.5043  0.6088
  682SOL     OW 2044   1.967   2.524   1.651 -0.7341  0.2516 -0.4503
  682SOL    HW1 2045   2.045   2.458   1.642 -4.6942  0.0620 -0.0738
  682SOL    HW2 2046   1.931   2.545   1.563  0.1189 -3.5743  3.7944
  683SOL     OW 2047   2.543   1.772   1.774 -0.1233 -0.7849  0.0816
  683SOL    HW1 2048   2.536   1.828   1.691  1.1012 -1.1992  1.7857
  683SOL    HW2 2049   2.623   1.707   1.770 -2.3262  0.9057  1.6218
  684SOL     OW 2050   3.086   1.573   1.704  0.5125  0.4022  0.5747
  684SOL    HW1 2051   2.990   1.614   1.699 -1.4139  0.3542 -0.4335
  684SOL    HW2 2052   0.062   1.650   1.710 -3.5651 -1.1336 -0.2698
  685SOL     OW 2053   1.457   1.368   0.181 -0.2841  0.1423  0.5058
  685SOL    HW1 2054   1.482   1.454   0.227  0.4796 -3.7358  0.0122
  685SOL    HW2 2055   1.533   1.336   0.126 -1.3765  1.0386  3.8929
  686SOL     OW 2056   2.921   0.584   1.862 -0.2161 -0.8694 -0.5491
  686SOL    HW1 2057   3.021   0.587   1.872 -0.8538 -0.0465 -2.0736
  686SOL    HW2 2058   2.886   0.578   1.767 -0.2770  1.3629  1.1146
  687SOL     OW 2059   1.440   0.210   2.746 -0.1110  0.4113 -0.0692
  687SOL    HW1 2060   1.459   0.110   2.742  0.7884 -1.4962 -2.5853
  687SOL    HW2 2061   1.403   0.231   2.836 -0.8916 -2.3127  0.0469
  688SOL     OW 2062   1.223   1.755   2.567 -0.6482 -0.4484  0.2889
  688SOL    HW1 2063   1.181   1.757   2.468 -3.0037 -2.1639 -4.8163
  688SOL    HW2 2064   1.245   1.849   2.595  0.1731  0.6569  2.5655
  689SOL     OW 2065   2.284   1.529   1.636  0.0992  0.1869 -0.1532
  689SOL    HW1 2066   2.337   1.517   1.723 -0.2977  1.2952 -1.5755
  689SOL    HW2 2067   2.327   1.478   1.559 -0.7004  0.5464  1.2556
  690SOL     OW 2068   2.394   2.175   1.352  0.1479 -0.6514 -0.4046
  690SOL    HW1 2069   2.360   2.170   1.446  1.2616 -1.0046 -4.1110
  690SOL    HW2 2070   2.367   2.090   1.301  0.3984  0.0893 -1.7111
  691SOL     OW 2071   0.137   1.654   0.636 -0.5321 -0.0771 -0.1726
  691SOL    HW1 2072   0.206   1.700   0.574  2.4795 -1.5026  2.4849
  691SOL    HW2 2073   0.069   1.720   0.671 -0.3605  1.2223 -1.0828
  692SOL     OW 2074   2.817   2.988   2.794 -0.8266 -0.2449  0.4002
  692SOL    HW1 2075   2.915   2.982   2.778  0.1222 -0.5463 -0.1488
  692SOL    HW2 2076   2.772   3.073   2.761  0.6728 -2.4598 -0.4947
  693SOL     OW 2077   0.462   1.437   2.039  0.2768 -0.0942  0.1881
  693SOL    HW1 2078   0.437   1.399   1.947  0.5158  0.3021 -0.3100
  693SOL    HW2 2079   0.384   1.498   2.073  1.3436  1.4945 -2.7962
  694SOL     OW 2080   2.519   0.336   2.071 -0.1148  0.3103  0.3350
  694SOL    HW1 2081   2.618   0.341   2.050 -0.0668  2.7078  1.6170
  694SOL    HW2 2082   2.467   0.292   1.995 -4.5133 -1.7940 -0.6835
  695SOL     OW 2083   1.503   0.734   1.992 -0.2683  0.2631  0.4008
  695SOL    HW1 2084   1.553   0.769   2.073 -0.7432 -0.6862 -0.4983
  695SOL    HW2 2085   1.537   0.783   1.911 -2.2448 -0.7632  0.6968
  696SOL     OW 2086   2.138   2.850   1.678 -0.0760  0.4945  0.4240
  696SOL    HW1 2087   2.117   2.908   1.761 -1.0226  1.3364  1.2584
  696SOL    HW2 2088   2.098   2.892   1.591  0.4264 -0.8923 -1.4046
  697SOL     OW 2089   1.119   0.526   2.023 -0.2646  0.2540 -0.5698
  697SOL    HW1 2090   1.062   0.487   2.097  2.6384  0.0083 -2.1503
  697SOL    HW2 2091   1.215   0.538   2.061  2.3771  0.5876 -1.3454
  698SOL     OW 2092   2.310   1.530   2.654  0.0649  0.5025  0.2289
  698SOL    HW1 2093   2.369   1.451   2.675  1.7526  1.7752  1.0547
  698SOL    HW2 2094   2.221   1.506   2.609 -1.9476  1.1185 -2.1715
  699SOL     OW 2095   2.240   0.810   0.321  0.6004  0.5301  0.1221
  699SOL    HW1 2096   2.178   0.799   0.243 -2.8952  0.7629  0.6273
  699SOL    HW2 2097   2.217   0.895   0.379 -3.1087 -2.5250  0.9042
  700SOL     OW 2098   1.398   2.987   0.859  0.4124 -0.0558 -0.1459
  700SOL    HW1 2099   1.446   2.966   0.772 -0.7735  0.0874 -0.3350
  700SOL    HW2 2100   1.464   3.034   0.924  0.7648 -0.4342  0.9213
  701SOL     OW 2101   3.024   0.510   0.556  0.3911  0.0225  0.1204
  701SOL    HW1 2102   2.972   0.588   0.529  0.3522 -3.1680  3.0296
  701SOL    HW2 2103   0.022   0.531   0.599  0.8346 -1.1542  0.0917
  702SOL     OW 2104   1.710   2.466   1.304  0.0134 -0.6327 -0.3725
  702SOL    HW1 2105   1.646   2.406   1.351  1.3135  1.9461  0.7475
  702SOL    HW2 2106   1.803   2.468   1.351  0.7934  1.5543 -0.9643
  703SOL     OW 2107   0.002   0.514   1.228 -0.2518 -0.3326  0.1249
  703SOL    HW1 2108   3.071   0.490   1.325  1.5985  0.1389 -1.6195
  703SOL    HW2 2109   0.084   0.580   1.222  1.0445  3.3191  0.2775
  704SOL     OW 2110   0.979   2.890   1.728  0.1834  0.3164  0.1652
  704SOL    HW1 2111   1.024   2.937   1.646  3.3615  1.3378 -2.8332
  704SOL    HW2 2112   0.902   2.951   1.761 -0.4217 -0.1756 -1.3891
  705SOL     OW 2113   0.076   1.946   3.069  0.3569 -0.0128  0.6693
  705SOL    HW1 2114   0.144   1.891   0.034  2.5654 -2.2117 -1.0721
  705SOL    HW2 2115   3.075   1.937   0.019  0.7290  0.0710  0.2532
  706SOL     OW 2116   0.102   0.491   0.261  0.3600  0.5804  0.0833
  706SOL    HW1 2117   0.125   0.454   0.166  0.6570 -1.6508 -0.0042
  706SOL    HW2 2118   0.063   0.418   0.324  0.0247 -0.2733  0.9543
  707SOL     OW 2119   1.828   2.674   2.013  0.0305  0.7575 -0.3242
  707SOL    HW1 2120   1.897   2.602   2.037  3.9622 -3.5849 -3.4661
  707SOL    HW2 2121   1.774   2.714   2.091  3.2148 -0.1800 -0.0455
  708SOL     OW 2122   0.536   3.010   1.521  0.0107 -0.0926  0.0482
  708SOL    HW1 2123   0.506   2.916   1.548  0.2266  2.5853 -0.2739
  708SOL    HW2 2124   0.539   3.069   1.609 -0.9286 -0.5710  4.1762
  709SOL     OW 2125   0.316   0.686   1.502  0.2986 -0.6561  0.0570
  709SOL    HW1 2126   0.217   0.723   1.489 -3.5431  0.1883  0.4137
  709SOL    HW2 2127   0.329   0.589   1.473 -0.2241 -0.9684  1.2988
  710SOL     OW 2128   0.197   0.566   0.534  0.3072 -0.4940  0.2503
  710SOL    HW1 2129   0.202   0.591   0.437 -0.2240 -1.8445 -1.7675
  710SOL    HW2 2130   0.177   0.641   0.597  0.2418 -1.4008 -1.4627
  711SOL     OW 2131   2.397   2.315   2.072 -0.0575 -0.3790  0.2445
  711SOL    HW1 2132   2.435   2.311   2.169  0.6302  1.7510  2.3712
  711SOL    HW2 2133   2.336   2.399   2.063 -4.3044  4.0154 -1.6463
  712SOL     OW 2134   0.158   2.562   2.343  0.2088  0.0230  0.5440
  712SOL    HW1 2135   0.153   2.660   2.378  0.2700  2.7355  0.0714
  712SOL    HW2 2136   0.101   2.561   2.263  1.4837  0.4154  2.7515
  713SOL     OW 2137   2.451   0.158   0.547  0.1113  0.3606 -0.8976
  713SOL    HW1 2138   2.429   0.250   0.576 -2.3797 -1.6032  0.6451
  713SOL    HW2 2139   2.552   0.135   0.533  0.9695 -0.3158  0.9735
  714SOL     OW 2140   1.781   1.532   2.598  0.0528  0.1450 -0.0783
  714SOL    HW1 2141   1.734   1.618   2.568 -1.7867  1.1660 -0.2362
  714SOL    HW2 2142   1.768   1.460   2.529  1.2237 -1.9654  0.4755
  715SOL     OW 2143   0.001   0.551   0.946 -0.2262  0.4360 -0.2011
  715SOL    HW1 2144   0.032   0.565   1.042 -1.9730  1.5524 -3.2702
  715SOL    HW2 2145   3.059   0.639   0.909 -2.2605 -1.2530 -1.4961
  716SOL     OW 2146   0.961   0.576   1.604  0.0895 -0.0614 -0.1127
  716SOL    HW1 2147   0.866   0.581   1.577  4.7839 -0.5993  2.0736
  716SOL    HW2 2148   0.965   0.550   1.702 -2.0472  3.0791 -0.4584
  717SOL     OW 2149   1.219   0.961   2.227 -0.1421  0.2932  0.2451
  717SOL    HW1 2150   1.282   0.997   2.302  0.0202  0.0782  0.8333
  717SOL    HW2 2151   1.267   0.979   2.136 -1.4460 -0.2159 -0.1433
  718SOL     OW 2152   1.228   0.104   0.425 -0.5900 -0.3197  0.4756
  718SOL    HW1 2153   1.217   0.171   0.505  1.7153  3.4466  0.8032
  718SOL    HW2 2154   1.142   0.098   0.373 -2.0108  1.8526  0.3431
  719SOL     OW 2155   3.039   2.694   2.898  0.2999  1.1355  0.3636
  719SOL    HW1 2156   2.946   2.660   2.908 -0.2408 -0.7506 -0.7369
  719SOL    HW2 2157   3.089   2.611   2.872 -2.0212 -2.7373  0.1010
  720SOL     OW 2158   1.534   0.377   1.745 -0.5738  0.2398 -0.1812
  720SOL    HW1 2159   1.466   0.343   1.810  1.6227  0.0438 -0.3436
  720SOL    HW2 2160   1.629   0.392   1.785  1.7189 -0.3709 -1.7664
  721SOL     OW 2161   0.027   2.752   0.968  0.0259 -0.2481  0.2359
  721SOL    HW1 2162   3.088   2.851   0.985 -2.4200  2.3316 -1.3340
  721SOL    HW2 2163   3.065   2.682   1.019  0.1018  0.1590 -0.0167
  722SOL     OW 2164   0.593   1.173   2.813 -0.4871  0.1855  0.6438
  722SOL    HW1 2165   0.663   1.244   2.789  0.8847 -2.0406  1.2509
  722SOL    HW2 2166   0.549   1.190   2.904 -0.7173 -0.2241 -0.4396
  723SOL     OW 2167   2.153   1.295   1.321  0.4969 -0.2222 -0.1823
  723SOL    HW1 2168   2.169   1.335   1.228 -0.2169  0.1194  1.0384
  723SOL    HW2 2169   2.108   1.362   1.380 -1.6839  3.9515 -1.1305
  724SOL     OW 2170   0.809   1.859   0.415  0.1826  0.0183 -0.4364
  724SOL    HW1 2171   0.828   1.776   0.472 -0.2286 -1.1696  1.4171
  724SOL    HW2 2172   0.833   1.838   0.312  3.1506 -3.1142 -1.0250
  725SOL     OW 2173   0.032   0.766   1.487 -0.1156  0.2333  0.4193
  725SOL    HW1 2174   0.034   0.840   1.417  0.5934  1.5675 -1.3609
  725SOL    HW2 2175   3.085   0.792   1.574  2.2229  0.2251 -2.3710
  726SOL     OW 2176   2.338   0.933   2.959 -0.1685 -0.2760 -0.6181
  726SOL    HW1 2177   2.384   1.016   3.004  0.3577  0.3382  0.3121
  726SOL    HW2 2178   2.406   0.856   2.955  0.4120 -1.0145 -1.2376
  727SOL     OW 2179   2.180   0.869   2.462  0.1512  0.0238 -0.0297
  727SOL    HW1 2180   2.149   0.967   2.469  2.8108  1.1234  0.1651
  727SOL    HW2 2181   2.161   0.844   2.366  0.0027 -2.7734 -1.1594
  728SOL     OW 2182   1.715   2.005   1.372  0.0333  0.6497 -0.1226
  728SOL    HW1 2183   1.811   2.020   1.346 -2.2572 -0.1904  1.1519
  728SOL    HW2 2184   1.651   2.057   1.308  1.7241  4.5756 -3.4241
  729SOL     OW 2185   1.786   1.113   1.909  0.4993 -0.5222  0.4215
  729SOL    HW1 2186   1.760   1.189   1.846 -0.6657 -1.8732  0.6307
  729SOL    HW2 2187   1.869   1.133   1.963  1.1831 -0.8762  1.7398
  730SOL     OW 2188   1.638   0.753   0.961 -0.0925 -0.1554 -0.0744
  730SOL    HW1 2189   1.682   0.699   1.035 -1.5992  1.0617  1.5623
  730SOL    HW2 2190   1.636   0.707   0.866  1.9831  1.5746  1.1397
  731SOL     OW 2191   0.645   0.849   3.018 -0.4298  0.0538  0.1139
  731SOL    HW1 2192   0.712   0.806   2.949 -2.1358  1.2098  1.1908
  731SOL    HW2 2193   0.634   0.785   0.009  1.4704 -3.7876  1.7248
  732SOL     OW 2194   0.505   1.035   0.536  0.3836  0.2146  0.3639
  732SOL    HW1 2195   0.560   1.013   0.618  1.1415 -1.1477 -1.5079
  732SOL    HW2 2196   0.410   1.056   0.568 -0.1057 -1.7641  0.7379
  733SOL     OW 2197   1.314   1.495   2.149 -0.0837 -0.5198  0.1406
  733SOL    HW1 2198   1.237   1.533   2.201 -0.2086  0.7614 -1.3169
  733SOL    HW2 2199   1.314   1.538   2.054 -0.7266  0.4432 -2.1151
  734SOL     OW 2200   0.438   2.390   0.044 -0.0444  0.3056  0.3597
  734SOL    HW1 2201   0.461   2.475   0.097  0.3252  0.9679 -0.9295
  734SOL    HW2 2202   0.430   2.310   0.106  2.7036 -2.2286 -0.3001
  735SOL     OW 2203   2.668   0.260   0.946 -0.2062 -0.2221  0.6377
  735SOL    HW1 2204   2.587   0.317   0.923  0.5453 -0.7212  0.7975
  735SOL    HW2 2205   2.756   0.307   0.931 -1.4091  2.8088 -2.8656
  736SOL     OW 2206   1.935   1.508   2.254 -0.6956  0.0491  0.1861
  736SOL    HW1 2207   2.026   1.464   2.249 -1.1386 -1.2723 -3.4858
  736SOL    HW2 2208   1.935   1.604   2.288 -0.6529  1.4776  1.3684
  737SOL     OW 2209   0.172   0.747   0.303  0.7879 -0.4346  0.5291
  737SOL    HW1 2210   0.141   0.827   0.248  0.2929 -0.5196 -1.0035
  737SOL    HW2 2211   0.139   0.657   0.272  1.2613 -1.7929  1.5022
  738SOL     OW 2212   0.923   1.879   1.343 -0.2493 -0.7715 -0.4683
  738SOL    HW1 2213   0.876   1.835   1.267 -0.9512 -0.0024  1.8365
  738SOL    HW2 2214   0.878   1.962   1.380  1.7840 -1.6621 -0.0656
  739SOL     OW 2215   1.647   2.622   2.344  0.4588 -0.2851 -0.2551
  739SOL    HW1 2216   1.695   2.641   2.431 -1.6135  2.8706 -3.5195
  739SOL    HW2 2217   1.646   2.708   2.288  0.7678  1.5877  0.7924
  740SOL     OW 2218   2.398   2.408   1.213 -0.0504  0.2741 -0.1448
  740SOL    HW1 2219   2.410   2.360   1.301  0.9924  0.4227 -4.1539
  740SOL    HW2 2220   2.472   2.476   1.194  1.4324 -0.0446  1.2431
  741SOL     OW 2221   2.419   0.552   0.044 -0.3191 -0.3054  0.1738
  741SOL    HW1 2222   2.462   0.458   0.027  0.1636 -3.3698  0.7319
  741SOL    HW2 2223   2.342   0.539   0.111  1.6541 -0.4490 -1.1067
  742SOL     OW 2224   1.143   2.264   0.066 -0.2526  0.0974 -0.0338
  742SOL    HW1 2225   1.053   2.313   0.075 -0.3186  3.1712  0.0075
  742SOL    HW2 2226   1.207   2.334   0.031 -1.3329 -2.7945  2.2969
  743SOL     OW 2227   2.609   1.346   2.162 -0.3601 -0.1574 -0.0202
  743SOL    HW1 2228   2.702   1.372   2.204  2.1101 -0.4916 -1.9658
  743SOL    HW2 2229   2.601   1.301   2.069  0.1173 -3.1843 -1.3723
  744SOL     OW 2230   2.912   0.095   0.352 -0.0319 -0.0685  0.5759
  744SOL    HW1 2231   2.896   0.007   0.401  1.2336 -1.9133  1.6155
  744SOL    HW2 2232   2.916   0.079   0.255  0.4650 -1.8841 -2.3265
  745SOL     OW 2233   2.539   1.699   1.426 -0.8032 -0.1290  0.2858
  745SOL    HW1 2234   2.542   1.599   1.449  0.4253 -2.2760 -0.8037
  745SOL    HW2 2235   2.509   1.714   1.329  2.3064  1.2933 -0.4546
  746SOL     OW 2236   0.936   1.684   0.610 -0.3768 -0.2968 -0.1365
  746SOL    HW1 2237   0.964   1.658   0.702  3.9464  0.9866  0.4667
  746SOL    HW2 2238   0.978   1.623   0.541 -1.3613 -0.8482  2.1053
  747SOL     OW 2239   1.066   1.480   1.488 -0.0607 -0.1052 -0.2426
  747SOL    HW1 2240   1.044   1.528   1.401  0.2199  0.6965  0.9855
  747SOL    HW2 2241   0.984   1.436   1.527 -0.0434  3.1894 -1.4200
  748SOL     OW 2242   0.341   2.889   2.956 -0.2640 -0.3391 -0.1734
  748SOL    HW1 2243   0.272   2.849   3.024 -1.7656 -0.6528  0.1220
  748SOL    HW2 2244   0.331   2.987   2.939 -2.1650  1.0390 -1.4469
  749SOL     OW 2245   0.186   0.958   2.819 -0.4572 -0.6402 -0.0765
  749SOL    HW1 2246   0.259   0.912   2.869 -2.4894 -0.9301  3.3167
  749SOL    HW2 2247   0.202   0.976   2.720 -0.5012 -0.8520 -1.2859
  750SOL     OW 2248   1.520   1.083   1.594 -0.1826 -0.0740 -0.5270
  750SOL    HW1 2249   1.439   1.133   1.559  0.9892 -0.6651  1.8657
  750SOL    HW2 2250   1.608   1.126   1.575 -0.7141 -0.9249 -2.8677
  751SOL     OW 2251   2.897   0.750   0.498  0.0802 -0.1673 -0.3130
  751SOL    HW1 2252   2.898   0.738   0.397 -0.9490  0.6438 -0.6378
  751SOL    HW2 2253   2.938   0.838   0.524 -1.2445 -0.7946  1.9875
  752SOL     OW 2254   2.761   2.717   0.920  0.0629 -0.1811  0.1004
  752SOL    HW1 2255   2.761   2.807   0.967 -0.2248  1.8450  0.6465
  752SOL    HW2 2256   2.837   2.660   0.956  1.2299  1.8225 -0.0223
  753SOL     OW 2257   0.740   2.356   1.428 -0.2478  0.0267 -0.4947
  753SOL    HW1 2258   0.788   2.287   1.486 -0.7620 -0.3847 -1.4989
  753SOL    HW2 2259   0.730   2.324   1.332 -1.8001  0.9145  0.2340
  754SOL     OW 2260   0.006   2.530   2.120  0.0225  0.1190  0.2347
  754SOL    HW1 2261   3.024   2.598   2.158 -1.4886 -0.1584  0.4002
  754SOL    HW2 2262   3.066   2.486   2.032  2.1771 -0.1104 -1.3893
  755SOL     OW 2263   2.532   0.741   2.983  0.5468  0.0258  0.2410
  755SOL    HW1 2264   2.619   0.689   2.986  2.1122  1.1647  0.1217
  755SOL    HW2 2265   2.467   0.708   3.061  0.8199 -0.1310 -0.4284
  756SOL     OW 2266   1.848   2.168   0.263  0.5363 -0.5981  0.0665
  756SOL    HW1 2267   1.885   2.261   0.252 -1.6164 -0.4081 -1.5590
  756SOL    HW2 2268   1.921   2.094   0.275 -0.4689 -1.4401  0.7380
  757SOL     OW 2269   2.591   0.543   0.510  0.3692  0.5335 -0.3860
  757SOL    HW1 2270   2.550   0.612   0.443 -1.5901  1.7062 -1.4800
  757SOL    HW2 2271   2.652   0.581   0.581 -0.1073 -0.7320 -0.9787
  758SOL     OW 2272   2.156   0.959   1.707 -0.4186  0.4710  0.3567
  758SOL    HW1 2273   2.065   0.918   1.727  2.4975  1.5286  0.3304
  758SOL    HW2 2274   2.161   1.005   1.612 -0.6498 -0.5955 -4.5789
  759SOL     OW 2275   2.609   0.556   1.402 -0.1666 -0.4486 -0.6031
  759SOL    HW1 2276   2.511   0.563   1.372 -3.1546  1.9913  0.3194
  759SOL    HW2 2277   2.677   0.521   1.331  1.8629 -1.5804  1.2260
  760SOL     OW 2278   0.376   1.424   1.370  0.7602 -0.2571 -0.5996
  760SOL    HW1 2279   0.346   1.521   1.359 -2.4384 -3.5766  2.6217
  760SOL    HW2 2280   0.303   1.365   1.411 -0.2505  1.2196  0.6412
  761SOL     OW 2281   0.907   0.708   0.126 -0.0803  0.1855 -0.1180
  761SOL    HW1 2282   0.812   0.727   0.149  2.5944 -1.6974 -0.2696
  761SOL    HW2 2283   0.948   0.797   0.100  0.2758  0.1667 -2.1188
  762SOL     OW 2284   0.756   1.736   1.209 -0.2736 -0.5759  0.2316
  762SOL    HW1 2285   0.707   1.738   1.119 -0.7982  0.9687 -0.9014
  762SOL    HW2 2286   0.703   1.693   1.284 -2.1765 -0.2805 -1.0863
  763SOL     OW 2287   1.213   0.732   1.577 -0.1465  0.2839  0.0781
  763SOL    HW1 2288   1.283   0.661   1.587 -0.2535 -0.7656  0.4372
  763SOL    HW2 2289   1.128   0.706   1.627  1.6321  1.2051  3.3281
  764SOL     OW 2290   0.013   2.953   2.830  0.3154  0.1522  0.2687
  764SOL    HW1 2291   0.048   3.000   2.914  0.4266 -1.6359 -0.9350
  764SOL    HW2 2292   3.079   2.856   2.849 -1.1750 -1.0897 -0.5986
  765SOL     OW 2293   0.859   0.031   1.878  0.1566 -0.1356 -0.0446
  765SOL    HW1 2294   0.782   0.054   1.938  0.2131 -0.8445  1.8680
  765SOL    HW2 2295   0.866   0.105   1.808 -0.8200  0.8719 -1.8299
  766SOL     OW 2296   2.683   1.846   2.289  0.3227 -0.2343  0.6049
  766SOL    HW1 2297   2.604   1.778   2.300 -1.8048 -1.9239  0.9773
  766SOL    HW2 2298   2.767   1.818   2.342 -1.3376  1.5407 -0.4274
  767SOL     OW 2299   1.430   1.261   2.169 -0.9822 -0.2315  0.0891
  767SOL    HW1 2300   1.376   1.347   2.154  2.2690 -0.0212 -0.7913
  767SOL    HW2 2301   1.403   1.188   2.107  0.7020  1.4515  3.6386
  768SOL     OW 2302   1.586   1.595   0.329 -0.1239  0.0036  0.2954
  768SOL    HW1 2303   1.606   1.634   0.425 -1.8142 -0.8759  1.6904
  768SOL    HW2 2304   1.634   1.642   0.253 -1.0496  0.7799 -2.2531
  769SOL     OW 2305   0.231   1.541   0.866 -0.1347  0.3299 -0.4266
  769SOL    HW1 2306   0.184   1.571   0.779 -0.5541  1.7291  0.3374
  769SOL    HW2 2307   0.332   1.523   0.846 -3.1775  1.4774 -0.1518
  770SOL     OW 2308   1.628   0.853   2.193  0.1338  0.2925  0.3264
  770SOL    HW1 2309   1.720   0.890   2.196  1.8589 -0.3124  1.9548
  770SOL    HW2 2310   1.564   0.904   2.248 -0.6426  0.1150 -4.0978
  771SOL     OW 2311   2.494   0.109   2.487 -0.4712  0.1643 -0.8486
  771SOL    HW1 2312   2.440   0.123   2.400 -0.9803  0.6237 -2.7559
  771SOL    HW2 2313   2.434   0.115   2.569  0.6561  1.0367 -2.0834
  772SOL     OW 2314   2.480   1.647   2.304 -0.3170  1.0769 -0.0840
  772SOL    HW1 2315   2.389   1.662   2.254 -1.1126  0.9882  1.0367
  772SOL    HW2 2316   2.498   1.548   2.310 -1.4817  2.0326  0.0076
  773SOL     OW 2317   0.869   1.297   1.547 -0.3064 -0.0665  0.1322
  773SOL    HW1 2318   0.902   1.220   1.487  2.0976 -1.3158  1.6144
  773SOL    HW2 2319   0.780   1.337   1.508  0.2399  0.1731 -2.3216
  774SOL     OW 2320   1.156   0.686   2.849  0.3144  0.6904  0.5710
  774SOL    HW1 2321   1.176   0.779   2.804  0.9599  0.7617 -0.1618
  774SOL    HW2 2322   1.086   0.632   2.793 -1.6496 -0.5792  0.4534
  775SOL     OW 2323   1.554   1.961   0.065 -0.2963  0.3222  0.0399
  775SOL    HW1 2324   1.601   2.041   0.105  0.5514 -0.4516 -2.4333
  775SOL    HW2 2325   1.455   1.986   0.042 -2.6114 -0.1841 -1.6416
  776SOL     OW 2326   0.016   1.089   1.610 -0.4839 -0.8866  0.1021
  776SOL    HW1 2327   0.084   1.059   1.677 -3.9793 -2.0242 -2.8836
  776SOL    HW2 2328   3.022   1.035   1.609  1.1052  0.7939 -1.8778
  777SOL     OW 2329   2.500   2.304   2.320  0.7997 -0.0174 -0.0771
  777SOL    HW1 2330   2.558   2.386   2.330  1.4914 -0.6887 -0.2184
  777SOL    HW2 2331   2.553   2.220   2.344 -0.2985 -0.9143 -0.2215
  778SOL     OW 2332   1.695   1.367   1.812 -0.1500  0.2998 -0.3202
  778SOL    HW1 2333   1.591   1.351   1.807 -2.9558  2.0493  0.6152
  778SOL    HW2 2334   1.719   1.432   1.885  0.4115  1.5437 -0.4088
  779SOL     OW 2335   2.926   1.048   0.507 -0.4246  0.5076 -0.7790
  779SOL    HW1 2336   2.867   1.068   0.587  1.3774 -0.1879 -0.7957
  779SOL    HW2 2337   2.880   1.080   0.422  2.2233  1.4477  2.8834
  780SOL     OW 2338   2.057   2.944   2.650 -0.5275 -0.1002  0.4690
  780SOL    HW1 2339   2.031   3.035   2.613 -2.7593  0.2543  0.0106
  780SOL    HW2 2340   2.077   2.952   2.748 -0.5461 -0.8560 -2.9025
  781SOL     OW 2341   2.687   1.496   1.246 -0.0042 -0.1268  0.0141
  781SOL    HW1 2342   2.740   1.491   1.160 -0.6163 -0.2111  3.9166
  781SOL    HW2 2343   2.746   1.491   1.333 -0.0827  1.5560  1.2783
  782SOL     OW 2344   2.762   2.196   3.069  0.2723  0.1914 -0.4040
  782SOL    HW1 2345   2.770   2.232   0.071  1.0149  0.7862  1.8711
  782SOL    HW2 2346   2.716   2.262   3.008  0.4419  2.0083 -0.8322
  783SOL     OW 2347   0.482   1.470   0.778 -0.2882  0.0925  0.4237
  783SOL    HW1 2348   0.560   1.403   0.795  0.2383 -0.1906 -2.1197
  783SOL    HW2 2349   0.515   1.541   0.712  1.4122  0.9510 -1.7907
  784SOL     OW 2350   2.334   1.238   0.334 -0.4088 -0.1576  0.6842
  784SOL    HW1 2351   2.337   1.235   0.232 -0.1290  1.1164 -3.1137
  784SOL    HW2 2352   2.327   1.332   0.369  1.5759 -1.3547 -0.3922
  785SOL     OW 2353   1.909   2.794   0.381  0.1848 -0.3805 -0.0655
  785SOL    HW1 2354   1.808   2.814   0.386  1.0409  0.6053 -0.8169
  785SOL    HW2 2355   1.922   2.694   0.407  2.8010 -0.4535 -1.0157
  786SOL     OW 2356   0.569   2.087   2.635  0.3464  0.6647 -0.3954
  786SOL    HW1 2357   0.506   2.029   2.583 -0.9438  0.5266  2.3804
  786SOL    HW2 2358   0.523   2.130   2.712  1.5930  1.3575 -0.1790
  787SOL     OW 2359   1.736   0.592   1.137 -1.1267  0.0399  0.1028
  787SOL    HW1 2360   1.688   0.537   1.208  1.8298  2.2581  0.6682
  787SOL    HW2 2361   1.798   0.527   1.082 -0.8299  0.5765 -0.0625
  788SOL     OW 2362   0.710   1.099   0.023  0.4543 -0.0085 -0.1370
  788SOL    HW1 2363   0.700   1.002   3.087 -1.0266 -0.0652  0.5294
  788SOL    HW2 2364   0.621   1.150   3.090 -2.3345  3.6795  0.3636
  789SOL     OW 2365   2.743   1.799   1.211  0.0497 -0.2020 -0.2266
  789SOL    HW1 2366   2.671   1.736   1.253 -2.1521 -0.8056 -0.4016
  789SOL    HW2 2367   2.695   1.875   1.163 -2.0618  0.8474 -0.0557
  790SOL     OW 2368   1.253   0.115   2.184 -0.1601 -0.5350 -0.4324
  790SOL    HW1 2369   1.188   0.185   2.222  1.4646 -2.6175 -0.4351
  790SOL    HW2 2370   1.204   0.053   2.119  1.6774  1.0395 -1.6661
  791SOL     OW 2371   1.130   0.493   0.124 -0.6412  0.2022 -0.4456
  791SOL    HW1 2372   1.091   0.400   0.106  2.5098  0.6584 -0.4411
  791SOL    HW2 2373   1.056   0.565   0.134 -2.7111  2.2090  0.1836
  792SOL     OW 2374   1.335   0.337   1.473  0.0235  0.2890  0.3879
  792SOL    HW1 2375   1.422   0.278   1.475  2.4755 -2.1603  1.5360
  792SOL    HW2 2376   1.346   0.434   1.493 -0.0151 -1.7769  1.3430
  793SOL     OW 2377   0.977   2.894   0.852 -0.0332  0.0361 -0.2417
  793SOL    HW1 2378   1.030   2.978   0.831  3.2903 -2.5540  0.5146
  793SOL    HW2 2379   1.006   2.847   0.938 -0.2805  0.3238 -0.6140
  794SOL     OW 2380   0.566   1.216   1.881 -0.5550 -0.3641 -1.1870
  794SOL    HW1 2381   0.559   1.145   1.955  0.8624 -1.8165 -0.7493
  794SOL    HW2 2382   0.526   1.182   1.795  1.3948 -0.7110 -0.2355
  795SOL     OW 2383   0.230   1.581   2.153  0.6989  0.4326  0.0889
  795SOL    HW1 2384   0.140   1.543   2.132  2.2973  3.0031  1.8007
  795SOL    HW2 2385   0.243   1.597   2.255 -0.9361  2.0834  0.6915
  796SOL     OW 2386   1.835   1.637   1.860  0.3227 -0.6332  0.2429
  796SOL    HW1 2387   1.934   1.626   1.883  0.0528  0.9151 -2.1473
  796SOL    HW2 2388   1.774   1.620   1.940 -2.7289 -1.7550  0.2402
  797SOL     OW 2389   0.145   0.169   2.417 -0.5475 -0.4832 -0.6445
  797SOL    HW1 2390   0.059   0.136   2.385  0.8453  0.4396 -0.9863
  797SOL    HW2 2391   0.163   0.137   2.512  0.4228  0.2975  1.1583
  798SOL     OW 2392   0.126   2.232   1.879  0.0147  0.1331 -0.5457
  798SOL    HW1 2393   0.036   2.265   1.848  1.9259 -0.4603  0.2488
  798SOL    HW2 2394   0.161   2.167   1.815  0.0935 -0.3372  0.7017
  799SOL     OW 2395   2.827   2.351   0.193  0.0406 -0.4046 -0.7825
  799SOL    HW1 2396   2.854   2.433   0.142 -0.6822  0.0723  1.4861
  799SOL    HW2 2397   2.777   2.368   0.276  3.3238  2.4897 -1.6876
  800SOL     OW 2398   1.052   1.630   0.852 -0.0049  0.0959 -0.5003
  800SOL    HW1 2399   1.034   1.729   0.880 -3.3630 -1.2768  0.7143
  800SOL    HW2 2400   1.142   1.623   0.800  0.6342 -1.9787  0.9870
  801SOL     OW 2401   2.721   0.652   0.732  0.0510  0.1649  0.0099
  801SOL    HW1 2402   2.786   0.703   0.677 -0.5767 -1.3630  2.5134
  801SOL    HW2 2403   2.664   0.715   0.791 -1.5203 -0.0336 -1.8137
  802SOL     OW 2404   2.507   1.469   0.498 -0.3436  0.3118 -0.6267
  802SOL    HW1 2405   2.523   1.559   0.442  1.3619  2.3480 -0.7334
  802SOL    HW2 2406   2.413   1.470   0.537 -2.5667 -0.6295  0.6838
  803SOL     OW 2407   1.552   1.748   2.988 -0.3697  0.4034  0.3127
  803SOL    HW1 2408   1.552   1.778   2.888  0.5492  1.7109  1.4339
  803SOL    HW2 2409   1.563   1.827   3.053  1.7394  1.1887  0.9822
  804SOL     OW 2410   2.042   1.970   0.310  0.4022  0.1260  0.2230
  804SOL    HW1 2411   2.034   1.904   0.386 -1.1590 -0.3362 -0.1752
  804SOL    HW2 2412   2.094   1.940   0.226 -0.2194  1.5469  0.6510
  805SOL     OW 2413   2.858   1.651   2.626 -0.1006  0.3390 -0.5168
  805SOL    HW1 2414   2.854   1.685   2.720  0.7658 -0.4242 -1.1644
  805SOL    HW2 2415   2.867   1.722   2.554 -1.5536  1.3370 -0.1601
  806SOL     OW 2416   0.289   0.315   0.467  0.1069 -0.0905 -0.4239
  806SOL    HW1 2417   0.254   0.410   0.494 -1.0514  0.1713 -0.9207
  806SOL    HW2 2418   0.215   0.261   0.429  3.7831  0.5250 -2.8237
  807SOL     OW 2419   2.424   1.267   2.773 -0.6680 -0.4380  0.1706
  807SOL    HW1 2420   2.328   1.240   2.762  1.3356  0.2443  2.1652
  807SOL    HW2 2421   2.490   1.208   2.721 -0.4341 -1.3614 -2.3283
  808SOL     OW 2422   0.183   1.415   0.496 -0.5435 -0.6192  0.1759
  808SOL    HW1 2423   0.132   1.339   0.535  3.9735  2.1624  0.6297
  808SOL    HW2 2424   0.184   1.492   0.559  2.0508 -1.1263  3.4334
  809SOL     OW 2425   2.593   0.763   2.692  0.2840 -0.2734 -0.3995
  809SOL    HW1 2426   2.574   0.770   2.794 -2.4088  0.1071 -0.3825
  809SOL    HW2 2427   2.527   0.820   2.635 -1.7506  1.4919 -1.4057
  810SOL     OW 2428   1.208   0.936   0.331 -0.9771 -0.6408 -0.7681
  810SOL    HW1 2429   1.309   0.928   0.320  1.4694 -1.3246  0.3513
  810SOL    HW2 2430   1.162   0.965   0.250 -2.2960  1.1659  2.1155
  811SOL     OW 2431   1.602   2.469   0.799 -0.0758 -0.3718  0.0981
  811SOL    HW1 2432   1.529   2.542   0.788  0.7788 -0.0043 -1.1571
  811SOL    HW2 2433   1.572   2.376   0.764 -0.1171 -1.3590 -1.1747
  812SOL     OW 2434   0.599   2.572   1.525 -0.0857 -0.3217 -0.5558
  812SOL    HW1 2435   0.644   2.488   1.485 -1.8279  0.7592 -0.6955
  812SOL    HW2 2436   0.631   2.571   1.620  0.1269 -0.4294 -1.5416
  813SOL     OW 2437   1.144   0.255   1.885  0.0166  0.7199 -0.8091
  813SOL    HW1 2438   1.128   0.161   1.920 -2.9633 -0.4509  0.0708
  813SOL    HW2 2439   1.140   0.325   1.956  0.0509  0.1006 -3.1536
  814SOL     OW 2440   1.466   3.031   2.771 -0.5356  0.2545  0.3993
  814SOL    HW1 2441   1.451   2.975   2.854 -1.0475 -0.8013  1.2032
  814SOL    HW2 2442   1.483   2.974   2.684  1.0630  1.0632 -5.8334
  815SOL     OW 2443   0.664   0.548   1.942  0.6707  0.0943 -0.6108
  815SOL    HW1 2444   0.611   0.580   1.863 -0.7412  1.4973 -0.9713
  815SOL    HW2 2445   0.637   0.591   2.030  0.5439 -0.3588  0.9604
  816SOL     OW 2446   2.532   0.302   0.020 -0.5648  0.2422  0.0979
  816SOL    HW1 2447   2.539   0.259   0.113 -1.1892  4.7167  0.4310
  816SOL    HW2 2448   2.623   0.322   3.062 -1.1119  2.4579  2.8035
  817SOL     OW 2449   1.652   0.382   2.678  0.5800 -0.8378 -0.0860
  817SOL    HW1 2450   1.669   0.383   2.578  0.5762  3.1199  2.4614
  817SOL    HW2 2451   1.594   0.301   2.705  1.4640  0.6998 -0.9253
  818SOL     OW 2452   2.243   0.427   0.218  0.1231 -0.0380 -0.1299
  818SOL    HW1 2453   2.266   0.328   0.220  0.0308  0.3277 -1.2999
  818SOL    HW2 2454   2.214   0.458   0.310 -0.7154  0.7660 -1.7470
  819SOL     OW 2455   2.220   1.605   0.193  0.5765 -0.1276  0.0869
  819SOL    HW1 2456   2.287   1.667   0.235  1.7394 -0.0330 -2.5285
  819SOL    HW2 2457   2.260   1.516   0.170 -3.2282  1.5083 -0.1418
  820SOL     OW 2458   2.946   1.927   0.117 -0.5877  0.1741  0.2734
  820SOL    HW1 2459   2.882   1.926   0.036 -1.6653  1.6113 -0.7570
  820SOL    HW2 2460   2.923   1.847   0.178 -1.5746 -2.1653  2.5608
  821SOL     OW 2461   0.217   2.534   1.486  0.0068 -0.0600  0.0203
  821SOL    HW1 2462   0.218   2.606   1.559 -1.6124  2.9045 -0.1277
  821SOL    HW2 2463   0.272   2.565   1.406 -2.2268 -1.6551 -1.4317
  822SOL     OW 2464   2.753   2.712   2.692  0.1651 -0.3131  0.2577
  822SOL    HW1 2465   2.737   2.810   2.698  0.2016 -0.5411 -0.5630
  822SOL    HW2 2466   2.665   2.670   2.654 -3.4763  0.9996  1.2005
  823SOL     OW 2467   1.452   0.065   2.374  0.2051  0.4716  0.1058
  823SOL    HW1 2468   1.382   0.072   2.299 -1.4948  0.5837  1.5385
  823SOL    HW2 2469   1.452   0.141   2.442 -3.4093  2.9892  2.4504
  824SOL     OW 2470   2.441   1.729   1.135  0.3357  0.3336  0.4701
  824SOL    HW1 2471   2.460   1.761   1.044  1.1009 -2.1309  1.0159
  824SOL    HW2 2472   2.425   1.625   1.127  0.9124 -1.9504 -0.8224
  825SOL     OW 2473   2.912   2.091   2.508  0.0920 -0.6916 -0.1471
  825SOL    HW1 2474   2.886   2.153   2.430  1.6252  1.3092 -2.5101
  825SOL    HW2 2475   2.982   2.128   2.574 -0.0451  1.7484 -0.6167
  826SOL     OW 2476   2.829   1.338   2.316 -0.0180  0.2006  0.5981
  826SOL    HW1 2477   2.823   1.361   2.417 -0.2333  0.2031  1.1780
  826SOL    HW2 2478   2.885   1.252   2.304  1.0175 -5.5475 -1.2014
  827SOL     OW 2479   2.525   2.569   1.753  0.2612 -0.0229 -0.2101
  827SOL    HW1 2480   2.545   2.473   1.785 -1.1245 -3.4416  5.2167
  827SOL    HW2 2481   2.427   2.603   1.754 -0.7337 -2.4026 -1.0209
  828SOL     OW 2482   2.962   3.033   1.600 -0.0673 -0.2004  0.0289
  828SOL    HW1 2483   3.014   0.030   1.590  1.1322  0.4760  2.6840
  828SOL    HW2 2484   2.946   2.990   1.508  1.2185  2.7135  1.1969
  829SOL     OW 2485   1.793   1.988   2.379 -0.0507 -0.1040 -0.0539
  829SOL    HW1 2486   1.702   2.036   2.380  5.0033  1.1194  2.8384
  829SOL    HW2 2487   1.848   2.031   2.453  0.1352  1.1532 -1.1291
  830SOL     OW 2488   1.679   0.603   0.739  0.3871  0.3388 -0.0261
  830SOL    HW1 2489   1.703   0.512   0.700  1.2833  1.9995  1.0132
  830SOL    HW2 2490   1.755   0.671   0.739  0.2568  1.8276 -1.0174
  831SOL     OW 2491   2.801   1.355   0.823  0.8027 -0.2654  0.0399
  831SOL    HW1 2492   2.882   1.295   0.824  0.7329  0.5506  0.6700
  831SOL    HW2 2493   2.792   1.408   0.737 -2.2662  0.2626  6.3433
  832SOL     OW 2494   1.617   2.355   1.996 -0.0970 -0.3331  0.2720
  832SOL    HW1 2495   1.536   2.393   1.952  0.6380  1.1166 -1.9850
  832SOL    HW2 2496   1.695   2.364   1.932 -1.8292 -0.1828  1.0590
  833SOL     OW 2497   3.070   2.975   2.266 -0.1673 -0.1776 -0.0445
  833SOL    HW1 2498   3.006   2.971   2.187  0.6540 -0.1693  0.8376
  833SOL    HW2 2499   3.034   3.030   2.345 -0.6833  2.2498  2.0294
  834SOL     OW 2500   1.051   0.851   1.225 -0.8366  0.3535  0.4632
  834SOL    HW1 2501   1.116   0.924   1.187 -1.4963  0.7017 -0.9848
  834SOL    HW2 2502   1.001   0.816   1.140 -0.2929 -0.1017 -1.5075
  835SOL     OW 2503   0.094   0.580   2.784 -0.1469  0.1454  0.2013
  835SOL    HW1 2504   3.085   0.571   2.768 -1.5102 -2.1999 -1.7789
  835SOL    HW2 2505   0.116   0.615   2.879 -1.2809 -0.0667 -0.8705
  836SOL     OW 2506   1.111   2.370   1.040  0.0911 -0.1474 -0.5499
  836SOL    HW1 2507   1.033   2.437   1.027 -0.9847  2.2884 -2.6188
  836SOL    HW2 2508   1.182   2.414   1.100 -0.9375 -1.5303 -1.1925
  837SOL     OW 2509   2.033   0.831   1.066  0.0433 -0.4635 -0.0442
  837SOL    HW1 2510   2.064   0.927   1.074  2.7577  1.5379  0.8254
  837SOL    HW2 2511   2.006   0.803   1.156  0.9978 -0.3008  1.7415
  838SOL     OW 2512   1.408   1.630   2.696  0.3954  0.0099  0.1457
  838SOL    HW1 2513   1.481   1.706   2.714  1.4325  2.8910 -0.5354
  838SOL    HW2 2514   1.344   1.658   2.624 -1.0408 -0.4840  0.9222
  839SOL     OW 2515   0.498   2.238   2.895  0.1938  0.3053  0.0517
  839SOL    HW1 2516   0.489   2.139   2.914 -0.9955  0.1651 -1.3071
  839SOL    HW2 2517   0.485   2.294   2.981  1.8761 -1.5955  3.4512
  840SOL     OW 2518   0.728   2.420   2.904 -0.0050 -0.2299  0.2118
  840SOL    HW1 2519   0.670   2.337   2.890 -1.3541 -2.6150 -0.3375
  840SOL    HW2 2520   0.702   2.501   2.848  3.5519 -0.1918 -0.6197
  841SOL     OW 2521   1.880   2.006   0.025 -0.2059 -0.3138 -0.0914
  841SOL    HW1 2522   1.979   1.985   0.047  1.8338 -0.9636  1.2629
  841SOL    HW2 2523   1.853   2.081   0.086  1.1321  0.5886 -0.7171
  842SOL     OW 2524   1.573   1.044   2.644  0.3164  0.0904 -0.0171
  842SOL    HW1 2525   1.610   0.959   2.677  0.0025  0.0811  0.0170
  842SOL    HW2 2526   1.489   1.060   2.694  2.3376 -1.0248 -3.9974
  843SOL     OW 2527   1.520   2.874   0.636  0.0800 -0.3360 -0.2695
  843SOL    HW1 2528   1.600   2.816   0.617  1.1411  1.2747  5.2986
  843SOL    HW2 2529   1.501   2.929   0.553  0.6067 -1.0990  0.7176
  844SOL     OW 2530   2.421   2.875   2.742  0.1868  0.0122  0.3751
  844SOL    HW1 2531   2.381   2.846   2.834 -1.7508  1.8760  1.4087
  844SOL    HW2 2532   2.471   2.961   2.757  0.6803  0.3826 -0.0468
  845SOL     OW 2533   2.942   3.004   1.320 -0.4254 -1.0860 -0.4807
  845SOL    HW1 2534   3.021   3.025   1.256  0.2314  2.8789 -1.4521
  845SOL    HW2 2535   2.859   3.044   1.275 -3.6463  0.2041 -1.0331
  846SOL     OW 2536   0.299   2.157   2.295 -0.0886  0.0368  0.1044
  846SOL    HW1 2537   0.218   2.193   2.243  0.0033 -0.5863  1.0263
  846SOL    HW2 2538   0.290   2.176   2.394  2.0884 -0.2365 -2.5607
  847SOL     OW 2539   1.594   0.257   1.507  0.2758 -0.2885 -0.2661
  847SOL    HW1 2540   1.581   0.295   1.602  3.9490 -1.6028 -1.7761
  847SOL    HW2 2541   1.637   0.165   1.516  0.8809 -3.5205 -1.8625
  848SOL     OW 2542   2.941   0.694   0.219  0.2903  0.0954 -0.3650
  848SOL    HW1 2543   3.020   0.730   0.165 -1.9560  1.4501 -1.1644
  848SOL    HW2 2544   2.933   0.593   0.199 -0.6947 -0.2849  1.1315
  849SOL     OW 2545   0.625   0.689   0.156 -0.2232 -0.3719 -0.2902
  849SOL    HW1 2546   0.586   0.760   0.217  0.5587  0.4276 -0.0251
  849SOL    HW2 2547   0.557   0.614   0.138 -1.2702 -0.3158 -0.6589
  850SOL     OW 2548   0.298   2.777   1.066  0.0786  0.1177  0.7011
  850SOL    HW1 2549   0.201   2.756   1.044 -0.4233 -1.3122 -1.2278
  850SOL    HW2 2550   0.322   2.873   1.077  0.9863 -3.0762  0.8539
  851SOL     OW 2551   1.900   0.210   2.336 -0.0507 -0.3516 -0.6427
  851SOL    HW1 2552   1.819   0.267   2.367  2.7882  1.9575 -0.8848
  851SOL    HW2 2553   1.880   0.159   2.253 -0.9994 -1.1290  2.8300
  852SOL     OW 2554   1.460   1.541   2.393  0.9315  0.7117  0.1912
  852SOL    HW1 2555   1.457   1.462   2.459 -1.8621 -1.4317  2.5715
  852SOL    HW2 2556   1.406   1.521   2.307  2.0763  0.9215 -0.1719
  853SOL     OW 2557   0.071   2.851   0.477 -0.3615 -0.1997  0.2392
  853SOL    HW1 2558   0.065   2.768   0.420 -0.1483 -0.3787  1.0418
  853SOL    HW2 2559   0.094   2.825   0.577  3.3005 -0.8352  2.2702
  854SOL     OW 2560   2.312   3.034   0.780  0.3530  0.1855 -0.2579
  854SOL    HW1 2561   2.253   0.027   0.801 -0.2986  3.5373  2.4024
  854SOL    HW2 2562   2.334   3.026   0.683 -1.5800  0.4319  1.4413
  855SOL     OW 2563   1.297   2.013   0.700 -0.1983  0.2343  0.5053
  855SOL    HW1 2564   1.228   1.952   0.655 -0.0424  0.2539 -0.1833
  855SOL    HW2 2565   1.253   2.099   0.726  3.4073 -1.5055 -1.7818
  856SOL     OW 2566   2.727   0.340   0.364 -0.0162  0.7675  0.1095
  856SOL    HW1 2567   2.680   0.265   0.303 -3.2446 -3.8950 -0.9015
  856SOL    HW2 2568   2.656   0.397   0.408 -2.3631 -0.4156  0.6725
  857SOL     OW 2569   1.826   2.785   1.781 -0.1616  0.0055 -0.2638
  857SOL    HW1 2570   1.830   2.746   1.877  2.0790 -0.9969  2.0788
  857SOL    HW2 2571   1.891   2.722   1.723  1.0113 -3.2773 -3.1309
  858SOL     OW 2572   2.627   2.243   1.437  0.1068  1.1926 -0.0952
  858SOL    HW1 2573   2.692   2.219   1.364 -1.0874  1.1971  2.3807
  858SOL    HW2 2574   2.535   2.230   1.409  1.7275 -0.1324  0.7329
  859SOL     OW 2575   1.130   2.529   0.681 -0.7834 -0.5959 -0.2224
  859SOL    HW1 2576   1.045   2.587   0.704 -2.5222  2.3581  1.4486
  859SOL    HW2 2577   1.220   2.557   0.721  0.3356 -0.7421  1.6513
  860SOL     OW 2578   2.110   2.338   0.178  0.3119 -0.4420 -0.0252
  860SOL    HW1 2579   2.146   2.303   0.271 -1.9348  0.7281  2.0350
  860SOL    HW2 2580   2.158   2.305   0.094  0.2655 -0.9526  0.2756
  861SOL     OW 2581   2.138   2.414   1.083  0.4795 -0.2030  0.3953
  861SOL    HW1 2582   2.151   2.492   1.019 -0.3897 -1.9855  3.1848
  861SOL    HW2 2583   2.207   2.409   1.155 -2.2600 -1.9770 -1.9288
  862SOL     OW 2584   1.715   2.901   2.587 -0.1859 -0.1533 -0.2990
  862SOL    HW1 2585   1.746   2.967   2.512 -1.6362  3.0164 -0.7127
  862SOL    HW2 2586   1.763   2.924   2.673 -1.7516 -1.1452  0.1229
  863SOL     OW 2587   0.585   0.049   0.210  0.2259  0.5659 -1.0381
  863SOL    HW1 2588   0.637   0.034   0.301  1.1201 -1.5575  0.3827
  863SOL    HW2 2589   0.626   3.073   0.150  0.1673  1.4962 -1.1239
  864SOL     OW 2590   2.772   2.619   1.863  0.0326  0.2930 -0.7299
  864SOL    HW1 2591   2.815   2.700   1.818  0.3747 -1.3556 -1.8141
  864SOL    HW2 2592   2.672   2.618   1.834 -1.1831  1.0660 -3.7728
  865SOL     OW 2593   3.023   2.230   2.971  0.0920 -0.5722  0.2758
  865SOL    HW1 2594   0.008   2.186   3.022 -1.0869  0.4446 -1.4835
  865SOL    HW2 2595   2.930   2.211   3.012 -2.2840 -0.5815  0.1960
  866SOL     OW 2596   2.594   0.450   2.651  0.3605 -0.2481 -0.3855
  866SOL    HW1 2597   2.607   0.544   2.685 -0.2816 -0.5259 -0.0304
  866SOL    HW2 2598   2.539   0.450   2.559 -0.4180 -0.7786  1.1143
  867SOL     OW 2599   2.973   0.037   2.482  0.3650  0.7579 -0.7838
  867SOL    HW1 2600   2.887   3.073   2.461 -1.6510  0.9912  1.7879
  867SOL    HW2 2601   2.945   0.118   2.544  2.3824 -0.3823 -0.1779
  868SOL     OW 2602   0.909   2.675   0.704  0.3925  0.1127  0.5822
  868SOL    HW1 2603   0.911   2.762   0.763  3.1496  0.7347  0.1678
  868SOL    HW2 2604   0.833   2.678   0.636 -1.5890 -0.1223 -1.0424
  869SOL     OW 2605   1.246   1.349   1.131 -0.4528  0.0805  0.2847
  869SOL    HW1 2606   1.226   1.450   1.101  0.4457  2.2391  0.1331
  869SOL    HW2 2607   1.337   1.314   1.095 -0.5530 -0.4535  0.8913
  870SOL     OW 2608   1.638   1.732   1.352  0.1505  0.2528  0.0140
  870SOL    HW1 2609   1.671   1.674   1.429  0.8137 -2.8434 -0.5899
  870SOL    HW2 2610   1.695   1.819   1.345 -0.8100  0.3237  1.4261
  871SOL     OW 2611   0.919   1.296   1.134  0.6435 -0.3115  0.0861
  871SOL    HW1 2612   0.946   1.319   1.037  3.6207 -0.4286 -1.7381
  871SOL    HW2 2613   0.917   1.378   1.193 -0.8512  0.8190 -3.2419
  872SOL     OW 2614   1.167   0.495   0.812  0.0164 -0.6424  0.2294
  872SOL    HW1 2615   1.193   0.579   0.758 -1.3440 -0.2470  3.0855
  872SOL    HW2 2616   1.203   0.499   0.902  0.8370  2.3475  0.0965
  873SOL     OW 2617   1.691   0.785   2.687 -0.4793  0.3980  0.0098
  873SOL    HW1 2618   1.731   0.705   2.741 -0.8114  0.2571  0.7659
  873SOL    HW2 2619   1.720   0.774   2.587  0.5244 -0.4037  0.3378
  874SOL     OW 2620   0.455   1.289   1.136 -0.0469 -0.3330 -0.2878
  874SOL    HW1 2621   0.445   1.341   1.225 -3.3009  0.6050  3.0715
  874SOL    HW2 2622   0.365   1.293   1.085 -0.1260  0.8170  2.0908
  875SOL     OW 2623   2.678   2.875   3.001 -0.1665 -0.6603 -0.0453
  875SOL    HW1 2624   2.658   2.776   2.997  1.3395 -0.9100 -2.0518
  875SOL    HW2 2625   2.731   2.909   2.919  0.0513 -1.1920  0.6858
  876SOL     OW 2626   0.844   0.503   3.046  0.1765 -0.5988 -0.3329
  876SOL    HW1 2627   0.810   0.426   0.012 -0.4914  0.5975 -0.7613
  876SOL    HW2 2628   0.883   0.578   0.010  0.1985  0.7398  0.9799
  877SOL     OW 2629   0.186   3.006   1.571  0.4952 -0.0918  0.1431
  877SOL    HW1 2630   0.195   3.080   1.640 -1.1901 -0.0669 -0.9177
  877SOL    HW2 2631   0.182   3.044   1.479  3.4248 -3.0745  0.6166
  878SOL     OW 2632   1.865   2.063   2.658 -0.3249  0.5737 -0.3707
  878SOL    HW1 2633   1.821   2.097   2.745  1.6075 -0.4062 -1.5946
  878SOL    HW2 2634   1.949   2.117   2.638 -0.3494  0.9941  1.1533
  879SOL     OW 2635   2.136   1.565   1.869  0.3317  0.1060  0.5542
  879SOL    HW1 2636   2.212   1.560   1.938 -0.9332  1.1168 -0.0698
  879SOL    HW2 2637   2.168   1.600   1.778  1.2546  0.3371 -1.2314
  880SOL     OW 2638   0.863   1.021   1.030 -0.6563  0.1058  0.1438
  880SOL    HW1 2639   0.915   1.085   1.096  1.3010  2.1489  2.2876
  880SOL    HW2 2640   0.923   0.939   1.012 -1.8142 -2.3761  0.2983
  881SOL     OW 2641   1.213   1.570   0.148  0.0730  0.2137 -0.0045
  881SOL    HW1 2642   1.212   1.652   0.213  0.8306  1.2201  2.4852
  881SOL    HW2 2643   1.209   1.479   0.197  0.5528 -0.3186 -1.0208
  882SOL     OW 2644   1.858   0.047   1.148  0.7719 -0.6905  0.4156
  882SOL    HW1 2645   1.878   0.131   1.209 -0.7757 -0.2942  0.3142
  882SOL    HW2 2646   1.941   3.087   1.126 -0.6485 -0.6372 -3.3680
  883SOL     OW 2647   1.954   0.695   2.022  0.1712 -0.0851 -0.5250
  883SOL    HW1 2648   1.869   0.640   2.036  1.6903  0.3014  2.8094
  883SOL    HW2 2649   2.033   0.631   2.002  0.7605 -1.3146  1.6023
  884SOL     OW 2650   2.771   0.600   2.955 -0.8158 -0.0049 -0.6208
  884SOL    HW1 2651   2.835   0.581   2.877  0.6134  0.0238  0.1359
  884SOL    HW2 2652   2.790   0.536   3.035 -0.6931 -1.2613  0.5932
  885SOL     OW 2653   1.175   2.255   0.776  0.4079  0.2763 -0.2743
  885SOL    HW1 2654   1.178   2.348   0.732 -1.0893  1.2305 -2.0621
  885SOL    HW2 2655   1.134   2.259   0.866 -0.2177 -1.2863 -2.4606
  886SOL     OW 2656   1.348   1.149   2.792  0.6309  0.0512 -0.5632
  886SOL    HW1 2657   1.403   1.217   2.847  0.4577  0.6856 -0.2347
  886SOL    HW2 2658   1.262   1.191   2.762  1.4853 -1.1279 -0.3428
  887SOL     OW 2659   1.758   0.053   1.599 -0.5201  0.4184 -0.2470
  887SOL    HW1 2660   1.809   0.064   1.684  1.7008  0.3853  0.2443
  887SOL    HW2 2661   1.706   3.057   1.610  3.1563  0.7686 -0.8693
  888SOL     OW 2662   2.838   1.689   1.655  0.0575 -0.1472 -0.0966
  888SOL    HW1 2663   2.862   1.785   1.656 -1.6589 -1.3079 -1.0491
  888SOL    HW2 2664   2.818   1.652   1.566  0.8670 -0.5230  1.2855
  889SOL     OW 2665   2.934   2.715   0.703 -0.0642  0.2372 -0.3207
  889SOL    HW1 2666   2.840   2.719   0.746  1.8952 -0.7919  0.5220
  889SOL    HW2 2667   2.994   2.780   0.758 -0.2656 -0.2081  3.1875
  890SOL     OW 2668   0.555   1.985   2.295  0.0818 -0.4394 -1.0413
  890SOL    HW1 2669   0.642   2.043   2.295  1.3147  0.4415 -2.2544
  890SOL    HW2 2670   0.471   2.041   2.317  2.8154 -0.9247 -0.5902
  891SOL     OW 2671   0.561   1.708   0.632 -0.0468  0.4479  0.0247
  891SOL    HW1 2672   0.603   1.792   0.672 -2.2141 -1.7018  0.5425
  891SOL    HW2 2673   0.482   1.740   0.576 -1.7993  1.3315  2.3741
  892SOL     OW 2674   2.809   2.486   1.282 -0.5224 -0.0360  0.2020
  892SOL    HW1 2675   2.829   2.528   1.373  0.0526  0.3436 -0.0456
  892SOL    HW2 2676   2.796   2.384   1.285 -0.5641  1.2905  1.2548
  893SOL     OW 2677   0.397   0.429   1.735  0.1915  0.7950  0.2260
  893SOL    HW1 2678   0.363   0.418   1.637 -0.9970  0.6923  1.3880
  893SOL    HW2 2679   0.442   0.519   1.748 -1.3573 -0.2350 -1.6307
  894SOL     OW 2680   2.892   1.817   0.960  0.1320  0.0083 -0.1784
  894SOL    HW1 2681   2.838   1.748   0.910 -1.9636  0.9655  1.2795
  894SOL    HW2 2682   2.862   1.815   1.058 -0.6942 -1.0817  1.1607
  895SOL     OW 2683   1.299   2.392   1.606  0.3895  0.5556 -0.1154
  895SOL    HW1 2684   1.246   2.425   1.684 -0.2334 -1.0814  2.0616
  895SOL    HW2 2685   1.260   2.307   1.568 -0.4386 -0.9716 -1.7019
  896SOL     OW 2686   0.786   0.255   1.301 -0.1247 -0.0340 -0.3107
  896SOL    HW1 2687   0.719   0.228   1.368  0.8390  2.5610 -0.4004
  896SOL    HW2 2688   0.867   0.277   1.352 -0.9836 -2.5486 -3.5838
  897SOL     OW 2689   1.191   1.040   1.096  0.4352  0.1372  0.1014
  897SOL    HW1 2690   1.227   1.131   1.123 -1.1580 -0.5851 -0.8076
  897SOL    HW2 2691   1.267   0.976   1.072  0.1406 -0.5913 -1.1702
  898SOL     OW 2692   0.853   0.234   1.707 -0.1739  0.4928  0.0169
  898SOL    HW1 2693   0.859   0.319   1.758 -2.5216  0.4834 -0.0637
  898SOL    HW2 2694   0.940   0.226   1.650  0.5425 -2.4862 -0.5377
  899SOL     OW 2695   1.575   0.318   0.269 -0.1022  0.1151  0.2468
  899SOL    HW1 2696   1.668   0.340   0.233 -1.3122 -0.6049  0.2586
  899SOL    HW2 2697   1.517   0.398   0.255 -1.7757 -2.1347  2.0032
  900SOL     OW 2698   1.035   0.670   2.464  0.3636 -0.2844 -0.1023
  900SOL    HW1 2699   1.063   0.767   2.450  1.2800  0.3985  0.7508
  900SOL    HW2 2700   0.973   0.642   2.392 -0.7873  3.6379 -1.4258
  901SOL     OW 2701   0.657   2.093   0.412 -0.5515 -0.0183 -0.0726
  901SOL    HW1 2702   0.696   1.998   0.411  1.5300 -2.0552 -1.3180
  901SOL    HW2 2703   0.603   2.114   0.328  0.1380  1.0255  0.3524
  902SOL     OW 2704   1.910   0.209   0.763  0.8210 -0.0766 -0.8072
  902SOL    HW1 2705   1.884   0.201   0.666 -1.8180  1.3318  3.2812
  902SOL    HW2 2706   1.874   0.128   0.822  2.1883 -3.6531  1.6714
  903SOL     OW 2707   0.150   1.329   2.517  0.3348 -0.5166  0.6683
  903SOL    HW1 2708   0.132   1.431   2.541  0.3479  2.2254 -0.5424
  903SOL    HW2 2709   0.119   1.317   2.419 -1.8940  0.4863  1.3529
  904SOL     OW 2710   1.654   1.345   0.456  0.2326  0.1763  0.1393
  904SOL    HW1 2711   1.619   1.435   0.416  1.0789  0.0663  0.2471
  904SOL    HW2 2712   1.599   1.308   0.532  0.5876  0.1965 -2.3462
  905SOL     OW 2713   1.963   2.560   1.393  0.1482  0.4268 -0.3583
  905SOL    HW1 2714   1.935   2.634   1.328  1.4892  1.9146 -5.8342
  905SOL    HW2 2715   2.045   2.510   1.353  0.5940 -1.7542 -2.8317
  906SOL     OW 2716   2.185   2.613   0.865 -0.6992  0.2197 -0.5375
  906SOL    HW1 2717   2.116   2.673   0.824  0.9503 -1.5311  0.6961
  906SOL    HW2 2718   2.263   2.680   0.896  1.5216 -0.1248  2.1926
  907SOL     OW 2719   1.995   1.069   0.249  0.3695  0.2981  0.2682
  907SOL    HW1 2720   2.015   0.986   0.192  1.5945 -0.5614 -1.8393
  907SOL    HW2 2721   2.068   1.068   0.322  0.8650 -0.2478 -3.1647
  908SOL     OW 2722   1.902   0.282   1.284  0.0666 -0.0933  0.0107
  908SOL    HW1 2723   1.949   0.374   1.305  0.4414  1.3692  1.9855
  908SOL    HW2 2724   1.801   0.298   1.284  0.4673 -2.2241  0.2584
  909SOL     OW 2725   2.359   2.806   0.927 -0.2670 -0.3320 -0.4990
  909SOL    HW1 2726   2.347   2.886   0.868  0.5753 -0.2284 -2.3572
  909SOL    HW2 2727   2.406   2.835   1.013  1.5647 -0.2553 -0.3093
  910SOL     OW 2728   2.387   0.704   2.065  0.0423 -0.3002  0.9136
  910SOL    HW1 2729   2.351   0.653   2.145 -3.1250  1.3806  0.0540
  910SOL    HW2 2730   2.485   0.728   2.081 -0.1159 -1.2394 -1.8957
  911SOL     OW 2731   2.019   0.083   2.560  0.2687 -0.3235  0.5850
  911SOL    HW1 2732   1.964   0.141   2.628 -0.6745 -0.0291  2.0692
  911SOL    HW2 2733   2.001   0.117   2.467 -0.6447 -0.5139  0.3738
  912SOL     OW 2734   0.562   0.863   1.340  0.1300  0.5018 -0.1417
  912SOL    HW1 2735   0.663   0.853   1.326 -1.4063 -2.8040  2.0346
  912SOL    HW2 2736   0.517   0.770   1.327 -1.9378  2.8099  0.1543
  913SOL     OW 2737   2.602   2.568   1.153 -0.4265 -0.0638  0.4016
  913SOL    HW1 2738   2.615   2.667   1.125  2.7311  4.3876 -1.5351
  913SOL    HW2 2739   2.687   2.530   1.202  2.5454  0.0119  2.3165
  914SOL     OW 2740   1.270   0.507   1.085 -0.2113  0.3537 -0.1571
  914SOL    HW1 2741   1.300   0.579   1.148  0.0570  0.5763  0.2402
  914SOL    HW2 2742   1.333   0.422   1.095  1.8163  1.4971 -3.2902
  915SOL     OW 2743   0.267   1.662   1.318 -0.0134  0.7411 -0.1271
  915SOL    HW1 2744   0.258   1.695   1.220  1.4492 -1.2388  1.1086
  915SOL    HW2 2745   0.296   1.737   1.381  1.8142  1.1675 -0.3703
  916SOL     OW 2746   1.945   2.282   0.881  0.1759 -0.3086 -0.3362
  916SOL    HW1 2747   2.008   2.349   0.930 -1.1455 -1.2288 -2.4050
  916SOL    HW2 2748   1.854   2.281   0.931 -1.3994  2.6761  0.4583
  917SOL     OW 2749   1.879   2.420   2.341 -0.0672  0.2503  0.0745
  917SOL    HW1 2750   1.938   2.433   2.259  0.9997  2.1811 -0.2179
  917SOL    HW2 2751   1.799   2.482   2.334 -0.6072 -1.8431  0.3689
  918SOL     OW 2752   1.944   1.752   2.379  0.1378 -0.1995 -0.8866
  918SOL    HW1 2753   2.003   1.811   2.320 -1.6036 -1.2106  1.5040
  918SOL    HW2 2754   1.849   1.789   2.387  0.9658  0.2015 -0.7515
  919SOL     OW 2755   0.721   0.451   1.141 -0.0757  0.1880  0.2834
  919SOL    HW1 2756   0.732   0.380   1.214 -0.2055 -0.7156 -0.9816
  919SOL    HW2 2757   0.815   0.490   1.125  3.2469 -0.3413  0.9682
  920SOL     OW 2758   2.861   0.749   2.083 -0.1159  0.7085  0.0387
  920SOL    HW1 2759   2.888   0.697   1.999 -3.1562  3.9760  0.9665
  920SOL    HW2 2760   2.939   0.780   2.139 -1.7689 -2.5834 -1.2968
  921SOL     OW 2761   2.623   1.265   1.527  0.3525 -0.3674 -0.0237
  921SOL    HW1 2762   2.653   1.196   1.459  0.8250  0.4486  1.7805
  921SOL    HW2 2763   2.588   1.223   1.615 -0.1081  0.6952  1.2104
  922SOL     OW 2764   2.725   2.291   0.889 -0.0901  0.4639 -0.6300
  922SOL    HW1 2765   2.647   2.292   0.959 -0.5380  1.5370 -0.0344
  922SOL    HW2 2766   2.693   2.326   0.801 -1.1664 -3.7102 -1.3124
  923SOL     OW 2767   0.090   2.305   0.609 -0.0530 -0.4502  0.0181
  923SOL    HW1 2768   0.088   2.220   0.660 -2.3695  0.2218 -2.1228
  923SOL    HW2 2769   0.184   2.346   0.604 -3.2638  1.4163 -0.7363
  924SOL     OW 2770   1.094   1.319   2.972 -0.0008 -0.3801 -0.0652
  924SOL    HW1 2771   1.142   1.408   2.978 -1.7213  1.0187  2.5389
  924SOL    HW2 2772   0.989   1.330   2.982 -1.6727  2.4391  0.0004
  925SOL     OW 2773   3.031   1.185   0.877  0.2259  0.4300  0.1019
  925SOL    HW1 2774   3.060   1.223   0.969  0.1674  0.9378  1.0609
  925SOL    HW2 2775   2.997   1.089   0.879  2.0117 -0.4090 -0.0234
  926SOL     OW 2776   0.165   3.076   1.318  0.2557 -0.3809 -0.1337
  926SOL    HW1 2777   0.182   0.072   1.266  1.5445  1.6312  2.3417
  926SOL    HW2 2778   0.196   2.996   1.263  1.9421 -1.8399 -1.1573
  927SOL     OW 2779   0.386   1.934   2.508 -0.1539  0.4904  0.2925
  927SOL    HW1 2780   0.314   1.864   2.489 -0.1237 -0.1887  0.9680
  927SOL    HW2 2781   0.458   1.920   2.433  2.4910  3.2230  0.8437
  928SOL     OW 2782   0.382   0.685   2.458 -0.2257  0.1872  0.1990
  928SOL    HW1 2783   0.436   0.610   2.496 -1.9782  0.6100  1.7216
  928SOL    HW2 2784   0.286   0.673   2.483  1.4364  0.0634 -0.2417
  929SOL     OW 2785   2.641   2.023   1.057  0.0502 -0.7180 -0.3820
  929SOL    HW1 2786   2.590   2.114   1.057 -2.2085  2.4972 -0.6725
  929SOL    HW2 2787   2.597   1.951   1.002 -0.5417  1.2248  1.8223
  930SOL     OW 2788   1.699   0.375   2.415 -0.3679  0.2074 -0.2374
  930SOL    HW1 2789   1.635   0.350   2.342  2.1471  0.1508 -3.5904
  930SOL    HW2 2790   1.735   0.469   2.398  1.6112  1.6946  2.2374
  931SOL     OW 2791   2.411   0.934   2.601 -0.2251  0.5175 -0.0993
  931SOL    HW1 2792   2.335   0.902   2.547  0.3882 -0.1148 -3.1839
  931SOL    HW2 2793   2.415   1.036   2.610  0.2005 -1.8498 -0.8402
  932SOL     OW 2794   1.793   0.937   0.551  0.0100  0.6971 -0.2445
  932SOL    HW1 2795   1.779   1.005   0.477 -2.9435  2.4370  1.8001
  932SOL    HW2 2796   1.774   0.842   0.516  1.8722 -0.1053  1.4675
  933SOL     OW 2797   2.150   0.665   0.722 -0.1068 -0.5132 -0.0577
  933SOL    HW1 2798   2.187   0.635   0.634 -1.4136  0.4214  0.8653
  933SOL    HW2 2799   2.214   0.730   0.765  0.3959 -1.7967  1.1109
  934SOL     OW 2800   2.607   1.165   2.617  0.7201 -0.2713  0.2154
  934SOL    HW1 2801   2.674   1.238   2.621 -1.2556 -3.5954 -2.1733
  934SOL    HW2 2802   2.647   1.097   2.554  0.7351 -1.2652 -0.7320
  935SOL     OW 2803   3.072   1.309   1.147 -0.0324  0.7824 -0.1566
  935SOL    HW1 2804   3.045   1.409   1.152  0.3116  0.9706  1.2326
  935SOL    HW2 2805   3.036   1.255   1.223 -2.6853  1.1430 -1.6382
  936SOL     OW 2806   0.114   3.032   0.040  0.6797 -0.5624 -0.4332
  936SOL    HW1 2807   0.136   2.936   0.047  0.5232  2.9864  1.9273
  936SOL    HW2 2808   0.181   0.004   0.085 -0.2392 -1.2445  0.1063
  937SOL     OW 2809   2.994   2.473   1.890  0.2357 -0.6012 -0.6312
  937SOL    HW1 2810   2.907   2.525   1.883 -0.8557  3.1391 -0.0279
  937SOL    HW2 2811   3.013   2.419   1.811  0.0924  2.2636  2.0283
  938SOL     OW 2812   2.247   2.299   3.028  0.8126  0.0676  0.0272
  938SOL    HW1 2813   2.320   2.344   2.970 -0.0350 -1.0021 -1.2162
  938SOL    HW2 2814   2.207   2.217   2.978 -0.9504 -0.3681 -1.5425
  939SOL     OW 2815   1.077   0.554   1.371 -1.0838  0.4099  0.1246
  939SOL    HW1 2816   1.155   0.617   1.344 -1.8325 -0.2952 -0.1101
  939SOL    HW2 2817   1.044   0.577   1.467  0.1556 -1.7083 -0.7370
  940SOL     OW 2818   2.356   3.069   3.075 -0.1605 -0.2036 -0.6185
  940SOL    HW1 2819   2.267   0.006   3.033 -0.2355 -0.7471  0.9899
  940SOL    HW2 2820   2.371   2.967   3.064  1.5816  0.0444  0.7642
  941SOL     OW 2821   2.643   2.791   2.227 -0.0280  0.0455 -0.2465
  941SOL    HW1 2822   2.544   2.799   2.211 -2.4936 -0.1643 -1.9843
  941SOL    HW2 2823   2.678   2.697   2.205 -0.3656 -1.5788  1.8655
  942SOL     OW 2824   1.583   0.063   1.090  0.0599  0.2000  0.4571
  942SOL    HW1 2825   1.531   3.081   1.140 -1.9307  0.2659  1.1124
  942SOL    HW2 2826   1.682   0.060   1.118  0.3187  1.1789 -1.9330
  943SOL     OW 2827   1.138   1.586   2.332 -0.2180  0.1980  0.3277
  943SOL    HW1 2828   1.183   1.544   2.408 -1.3094 -3.0866  0.6971
  943SOL    HW2 2829   1.039   1.561   2.334 -2.2676 -1.5253  1.1571
  944SOL     OW 2830   2.749   0.796   1.429 -0.2807 -0.0979  0.4229
  944SOL    HW1 2831   2.809   0.775   1.351  0.2353  2.0133  1.5513
  944SOL    HW2 2832   2.695   0.708   1.449 -2.3275  1.2308 -0.7283
  945SOL     OW 2833   2.909   0.210   2.708 -0.6985  0.3114  0.3617
  945SOL    HW1 2834   2.820   0.240   2.741  1.8929 -0.0426 -3.0858
  945SOL    HW2 2835   2.984   0.249   2.762  1.2819 -1.5915  1.2063
  946SOL     OW 2836   0.029   1.582   1.443 -0.3377 -0.4380 -0.1876
  946SOL    HW1 2837   0.121   1.602   1.403 -0.1909 -2.9378  1.6289
  946SOL    HW2 2838   0.037   1.566   1.543 -3.0924  1.8363 -0.2549
  947SOL     OW 2839   0.435   0.342   2.929  0.3401 -0.0835  0.1761
  947SOL    HW1 2840   0.504   0.417   2.935  2.2454 -0.7929  1.9015
  947SOL    HW2 2841   0.416   0.330   2.828  0.3871  2.6396  1.7582
  948SOL     OW 2842   2.071   1.677   1.055 -0.7881 -0.2946  0.3892
  948SOL    HW1 2843   2.045   1.712   1.145  1.1954 -1.4229 -1.5285
  948SOL    HW2 2844   2.104   1.585   1.059 -1.3297  2.8536 -1.7142
  949SOL     OW 2845   0.122   1.175   2.993  1.0153 -0.6259 -0.1528
  949SOL    HW1 2846   0.066   1.264   2.971 -1.2944  1.3118  2.4294
  949SOL    HW2 2847   0.116   1.102   2.918  0.6494  1.2499 -0.1529
  950SOL     OW 2848   0.455   2.767   1.618  0.0516  0.9511  0.4272
  950SOL    HW1 2849   0.352   2.760   1.618 -0.3764 -0.5829 -0.7064
  950SOL    HW2 2850   0.498   2.679   1.599 -1.0599  2.2592  0.8460
  951SOL     OW 2851   0.829   2.205   2.594  0.1559 -0.2317  0.2226
  951SOL    HW1 2852   0.742   2.160   2.612  1.4140  1.8407  0.5430
  951SOL    HW2 2853   0.892   2.208   2.672 -0.8853  0.5516 -3.1151
  952SOL     OW 2854   0.815   1.101   0.515  0.3859 -0.5064 -0.3750
  952SOL    HW1 2855   0.757   1.138   0.435  0.3195  3.0151 -2.7444
  952SOL    HW2 2856   0.914   1.120   0.492  1.9340  1.9083  1.1011
  953SOL     OW 2857   2.216   1.662   3.021 -0.0523  0.1546 -0.2653
  953SOL    HW1 2858   2.296   1.615   2.988 -2.0790 -0.5022  0.0238
  953SOL    HW2 2859   2.196   1.637   0.029  1.7134 -3.0512  4.2657
  954SOL     OW 2860   1.515   0.344   0.552 -0.2833  0.9111 -0.0994
  954SOL    HW1 2861   1.512   0.333   0.452  1.3002 -2.6967  1.9795
  954SOL    HW2 2862   1.565   0.262   0.594  0.5425 -3.6483 -0.9838
  955SOL     OW 2863   0.947   1.572   0.048  0.0155 -0.3035 -0.1182
  955SOL    HW1 2864   0.929   1.492   3.083 -1.6055  1.8112  0.1397
  955SOL    HW2 2865   1.044   1.574   0.083  1.1537  1.1399 -2.1637
  956SOL     OW 2866   2.791   0.344   1.988  0.0566 -0.0631  0.2250
  956SOL    HW1 2867   2.798   0.448   1.972 -0.6045 -1.7810  0.9272
  956SOL    HW2 2868   2.836   0.309   2.070 -0.0145  0.0151  1.6594
  957SOL     OW 2869   1.883   2.030   2.085  0.2088  0.0285  0.4469
  957SOL    HW1 2870   1.829   1.992   2.009  0.5980 -1.1861  1.1945
  957SOL    HW2 2871   1.827   2.042   2.172 -2.5870 -1.5150  3.7324
  958SOL     OW 2872   1.859   1.046   1.301  0.6011 -0.8445  0.2604
  958SOL    HW1 2873   1.823   1.121   1.360 -2.2833 -1.6996  1.5890
  958SOL    HW2 2874   1.958   1.065   1.278  3.4286 -1.2662 -2.5424
  959SOL     OW 2875   1.513   2.111   2.082  0.1394 -0.3039  0.2670
  959SOL    HW1 2876   1.564   2.030   2.053 -2.7096 -0.7234 -1.7283
  959SOL    HW2 2877   1.544   2.193   2.039  1.0391 -0.3379  2.9768
  960SOL     OW 2878   0.788   1.334   2.724  0.2919 -0.1377 -0.1544
  960SOL    HW1 2879   0.839   1.417   2.746 -0.1496 -3.3335 -1.2890
  960SOL    HW2 2880   0.795   1.319   2.623  0.2670 -1.8711  0.6202
  961SOL     OW 2881   2.840   1.244   0.126  0.1270 -0.4916  0.2548
  961SOL    HW1 2882   2.923   1.298   0.114 -0.3993  0.8679  0.3428
  961SOL    HW2 2883   2.762   1.307   0.135 -2.5476  0.7534  0.9501
  962SOL     OW 2884   0.892   1.823   0.139  0.2708 -0.9033  0.4900
  962SOL    HW1 2885   0.896   1.723   0.112 -4.0002 -2.7018  0.5786
  962SOL    HW2 2886   0.903   1.889   0.065  0.3883  1.0764  0.3578
  963SOL     OW 2887   2.733   1.520   3.017  0.8384  0.4378 -0.0758
  963SOL    HW1 2888   2.820   1.498   3.062 -0.7242  3.3836  1.9019
  963SOL    HW2 2889   2.688   1.587   3.081 -1.6856  1.8134  1.3340
  964SOL     OW 2890   0.774   2.135   2.228  0.3410  0.2378 -0.3601
  964SOL    HW1 2891   0.777   2.228   2.260  1.1724  1.3129 -0.6457
  964SOL    HW2 2892   0.758   2.133   2.128 -0.1029  0.2413 -1.4148
  965SOL     OW 2893   1.364   1.728   1.385  0.4628 -0.3094 -0.3994
  965SOL    HW1 2894   1.462   1.729   1.371 -4.2804  1.1254  0.4631
  965SOL    HW2 2895   1.319   1.639   1.365  1.3914 -2.2330 -1.8024
  966SOL     OW 2896   2.939   1.500   0.358 -0.3775  0.3756  0.2117
  966SOL    HW1 2897   3.039   1.484   0.345  1.0019 -1.3750 -1.1853
  966SOL    HW2 2898   2.885   1.429   0.315  1.3727 -0.2268  0.5774
  967SOL     OW 2899   1.786   2.658   2.581  0.3338 -0.3310 -0.1880
  967SOL    HW1 2900   1.741   2.752   2.591 -2.7340  1.5518  0.5219
  967SOL    HW2 2901   1.883   2.664   2.611  1.1754 -0.8734 -0.6665
  968SOL     OW 2902   1.504   1.323   2.918 -0.1286 -0.0299  0.2304
  968SOL    HW1 2903   1.458   1.383   2.987  0.6421 -1.2810  0.1318
  968SOL    HW2 2904   1.605   1.345   2.900 -0.1486  1.4361  1.7357
  969SOL     OW 2905   0.111   0.979   2.416 -0.4010  0.5702  0.4550
  969SOL    HW1 2906   0.082   1.069   2.381  0.5888  0.1521 -0.5177
  969SOL    HW2 2907   0.194   0.991   2.478 -1.0794 -1.7772 -0.2909
  970SOL     OW 2908   2.527   0.186   0.257 -0.2556  0.6361 -0.5282
  970SOL    HW1 2909   2.443   0.192   0.316 -0.6312  1.0005  0.2014
  970SOL    HW2 2910   2.562   0.093   0.242  3.1779 -0.8878  2.0920
  971SOL     OW 2911   1.914   2.027   0.825 -0.7113  0.1960  0.1196
  971SOL    HW1 2912   1.925   2.126   0.854  2.2333  2.4939 -1.1232
  971SOL    HW2 2913   2.012   1.998   0.822  0.0691  2.1659  0.5794
  972SOL     OW 2914   0.194   1.963   2.702 -0.0167 -0.3504  0.8977
  972SOL    HW1 2915   0.266   1.965   2.627 -2.2627  0.3624  0.6210
  972SOL    HW2 2916   0.207   1.879   2.755 -1.3178  2.3742 -1.1596
  973SOL     OW 2917   0.710   0.466   0.341 -0.3102 -0.2082  0.3614
  973SOL    HW1 2918   0.712   0.534   0.264 -0.6407  2.6432 -4.2845
  973SOL    HW2 2919   0.633   0.398   0.332 -1.7213 -0.3402  2.8211
  974SOL     OW 2920   2.597   0.690   1.778  0.4592 -0.0716  0.0822
  974SOL    HW1 2921   2.677   0.633   1.748  4.6928 -0.8060  0.3961
  974SOL    HW2 2922   2.509   0.643   1.789  2.3984  3.2541 -0.3409
  975SOL     OW 2923   0.299   3.089   0.772 -0.4908 -0.2020 -0.0263
  975SOL    HW1 2924   0.290   2.992   0.753 -2.2197  1.1114  0.4046
  975SOL    HW2 2925   0.356   0.046   0.702  0.5648  0.2756 -0.9364
  976SOL     OW 2926   0.639   1.418   1.477 -0.5685  0.1468 -0.0924
  976SOL    HW1 2927   0.552   1.397   1.433  0.2606 -1.9698 -1.2887
  976SOL    HW2 2928   0.646   1.520   1.478 -3.5295  2.8428 -0.3636
  977SOL     OW 2929   1.406   2.012   0.419 -0.2376 -0.0848 -0.0726
  977SOL    HW1 2930   1.495   1.975   0.436 -0.9140  0.1583 -0.9132
  977SOL    HW2 2931   1.349   1.997   0.505 -1.3647 -3.0601  0.6184
  978SOL     OW 2932   0.220   1.028   0.099  0.0634 -0.3364 -0.2104
  978SOL    HW1 2933   0.191   1.108   0.040  1.6199  0.5963  1.7501
  978SOL    HW2 2934   0.246   1.057   0.192 -1.3145  0.0307  0.7093
  979SOL     OW 2935   1.945   1.317   0.170 -0.2385  0.2368 -0.0952
  979SOL    HW1 2936   1.976   1.371   0.250 -2.8898 -0.5803  0.1082
  979SOL    HW2 2937   1.954   1.219   0.188  0.7928  1.8210 -2.2044
  980SOL     OW 2938   0.657   1.670   1.916  0.2312  0.1783 -0.1615
  980SOL    HW1 2939   0.624   1.599   1.849  0.5377 -0.7167 -0.9096
  980SOL    HW2 2940   0.577   1.706   1.971 -0.4392 -1.2033 -1.0059
  981SOL     OW 2941   2.198   1.432   2.273 -0.3223 -0.2248  0.3070
  981SOL    HW1 2942   2.272   1.452   2.345  0.0072  0.1535  2.1297
  981SOL    HW2 2943   2.211   1.339   2.233  0.8205 -0.0976  0.7693
  982SOL     OW 2944   0.286   2.045   1.721 -0.5053 -0.3824 -0.0485
  982SOL    HW1 2945   0.286   2.127   1.655  1.2639  2.4004 -1.3222
  982SOL    HW2 2946   0.379   2.039   1.766  0.6432 -0.2850  1.4559
  983SOL     OW 2947   1.507   2.991   2.067 -0.1210 -0.2070 -0.1286
  983SOL    HW1 2948   1.504   2.967   1.970  1.3636  3.3637  0.7507
  983SOL    HW2 2949   1.410   2.999   2.105  0.6887  0.6517  1.9273
  984SOL     OW 2950   0.121   0.131   2.678  0.7021 -0.1774  0.5514
  984SOL    HW1 2951   0.122   0.153   2.777  1.2313 -0.9181  0.5232
  984SOL    HW2 2952   0.049   0.064   2.659 -0.9760  1.0189  0.1584
  985SOL     OW 2953   1.416   1.339   1.745  0.2377 -0.4961 -0.5827
  985SOL    HW1 2954   1.434   1.311   1.650 -0.2246  0.7687  1.6682
  985SOL    HW2 2955   1.337   1.282   1.777 -0.7611 -0.2803 -1.5486
  986SOL     OW 2956   1.806   0.387   0.060  0.3044 -0.2922  0.0658
  986SOL    HW1 2957   1.897   0.432   0.046 -0.2642 -1.4130  0.0291
  986SOL    HW2 2958   1.728   0.447   0.030 -0.0533  0.0703 -1.0946
  987SOL     OW 2959   0.256   2.232   2.569  0.3402 -0.1675 -0.0160
  987SOL    HW1 2960   0.321   2.303   2.596  0.1703 -1.1484  1.5006
  987SOL    HW2 2961   0.190   2.212   2.638  0.6881 -2.7275 -0.4957
  988SOL     OW 2962   2.823   0.266   1.520  0.2830  0.0237 -0.1960
  988SOL    HW1 2963   2.894   0.207   1.488 -2.3571  1.6959  0.7166
  988SOL    HW2 2964   2.741   0.256   1.458  2.4515  1.6332  1.4547
  989SOL     OW 2965   2.060   2.959   1.064 -0.1007 -0.6422  0.9722
  989SOL    HW1 2966   2.066   2.899   0.978 -1.8293  1.8414 -1.7325
  989SOL    HW2 2967   2.127   3.034   1.061  0.5662 -1.8401  1.7687
  990SOL     OW 2968   2.699   0.789   0.170 -0.0195 -0.4283 -0.3435
  990SOL    HW1 2969   2.674   0.820   0.075  1.4181 -0.2153 -0.0599
  990SOL    HW2 2970   2.794   0.762   0.179 -1.7782 -1.7051 -2.8542
  991SOL     OW 2971   0.256   1.065   0.654  0.4646 -0.1881 -0.3260
  991SOL    HW1 2972   0.175   1.125   0.634  0.4898 -0.0640 -0.2477
  991SOL    HW2 2973   0.276   1.075   0.753  0.4273 -0.4351 -1.2912
  992SOL     OW 2974   1.702   1.641   1.607 -0.1161  0.2394 -0.3570
  992SOL    HW1 2975   1.619   1.674   1.657  0.9679 -0.4845 -0.7798
  992SOL    HW2 2976   1.769   1.618   1.678  0.1508  1.4872 -0.6104
  993SOL     OW 2977   0.062   2.361   0.921 -0.0128  0.6506 -0.3612
  993SOL    HW1 2978   0.040   2.337   1.017 -0.4390  2.1724  0.4890
  993SOL    HW2 2979   0.034   2.283   0.858 -1.4200 -2.5123 -0.0392
  994SOL     OW 2980   3.000   1.829   1.320 -0.5751 -0.2290  0.4029
  994SOL    HW1 2981   2.901   1.793   1.292 -1.6368 -1.5200  1.6644
  994SOL    HW2 2982   3.064   1.757   1.354 -0.3835 -3.0186  0.1654
  995SOL     OW 2983   2.012   1.454   2.711  0.2981 -0.0115  0.6711
  995SOL    HW1 2984   1.932   1.477   2.650 -0.8053  2.7498 -4.3329
  995SOL    HW2 2985   2.000   1.517   2.787  0.5495 -1.3318 -2.0725
  996SOL     OW 2986   1.886   2.529   0.462 -0.2952 -0.0362  0.1453
  996SOL    HW1 2987   1.852   2.496   0.371  1.3205  3.2050  0.8289
  996SOL    HW2 2988   1.925   2.452   0.515  0.3818  1.2134  0.4331
  997SOL     OW 2989   1.337   1.558   1.889 -0.1867 -0.4250 -0.1745
  997SOL    HW1 2990   1.279   1.613   1.831  0.2907 -0.7701  1.7564
  997SOL    HW2 2991   1.369   1.471   1.844 -3.3596  1.6040 -0.2423
  998SOL     OW 2992   2.978   2.458   0.527  0.2128  0.0537 -0.1467
  998SOL    HW1 2993   3.058   2.399   0.553 -1.7658 -4.7335 -0.9262
  998SOL    HW2 2994   2.967   2.534   0.587 -0.7566 -0.9846 -2.5137
  999SOL     OW 2995   0.718   2.984   0.027 -0.1953  0.1759  0.3633
  999SOL    HW1 2996   0.684   2.902   3.070  1.8923  4.1221 -1.3680
  999SOL    HW2 2997   0.736   3.060   3.050 -2.0242  4.1736 -0.2680
 1000SOL     OW 2998   1.132   0.182   0.072  0.1522 -0.2655  0.0207
 1000SOL    HW1 2999   1.224   0.195   0.033  0.9052 -1.6106  0.0460
 1000SOL    HW2 3000   1.066   0.148   0.002  1.7666 -1.0020  0.2391
   3.09146   3.09146   3.09146
