1000 SPC/Fw water molecules t= 283.00000 step= 283000
 3000
    1SOL     OW    1   2.737   2.918   0.891 -0.3289 -0.7024 -0.3560
    1SOL    HW1    2   2.743   3.017   0.871 -0.6498 -1.6484 -1.2826
    1SOL    HW2    3   2.826   2.878   0.918  0.3151 -1.0504 -2.1435
    2SOL     OW    4   2.365   1.965   1.015  0.9265 -0.2355  0.0827
    2SOL    HW1    5   2.423   1.929   0.944 -0.2123 -0.9503  4.1599
    2SOL    HW2    6   2.357   1.910   1.106  0.8746 -1.5508  0.9127
    3SOL     OW    7   1.008   2.766   2.855  0.0760  0.6406 -0.0529
    3SOL    HW1    8   0.908   2.774   2.828 -1.7715  0.1949 -1.3631
    3SOL    HW2    9   1.052   2.675   2.836  0.2985 -0.8725  1.0754
    4SOL     OW   10   1.900   2.230   1.308  0.6310 -0.2288 -0.0454
    4SOL    HW1   11   1.869   2.253   1.405 -0.9022  1.5364  0.9134
    4SOL    HW2   12   2.001   2.248   1.301 -2.3376 -1.4249 -0.0905
    5SOL     OW   13   1.321   0.932   1.465  0.1782  0.0115 -0.9298
    5SOL    HW1   14   1.286   0.910   1.376 -0.1438 -1.9963  3.9337
    5SOL    HW2   15   1.388   1.007   1.460  0.9511 -1.0523 -0.8560
    6SOL     OW   16   2.381   3.020   0.309  0.4457 -0.0011 -0.5526
    6SOL    HW1   17   2.330   2.978   0.231  4.3187  0.0096 -1.5955
    6SOL    HW2   18   2.328   3.102   0.345  0.6026  1.4499  0.4374
    7SOL     OW   19   2.759   1.148   1.243  0.1421 -0.0010 -0.1197
    7SOL    HW1   20   2.844   1.186   1.288  0.3737  0.1542  1.4427
    7SOL    HW2   21   2.708   1.219   1.199 -1.2689  0.5622 -1.9693
    8SOL     OW   22   1.257   2.683   1.302 -0.0979  0.6781 -0.3563
    8SOL    HW1   23   1.249   2.762   1.240 -0.6371  1.0871 -1.1280
    8SOL    HW2   24   1.185   2.611   1.284  0.4520  0.4233 -1.2486
    9SOL     OW   25   1.575   0.040   2.107  0.1254 -0.0944  0.3485
    9SOL    HW1   26   1.640   0.106   2.068 -1.6758  1.1496 -0.9450
    9SOL    HW2   27   1.523   3.104   2.025 -1.1029 -1.8002 -1.5233
   10SOL     OW   28   0.672   2.200   0.793  0.2626 -0.1909 -0.1802
   10SOL    HW1   29   0.646   2.288   0.839 -1.0180  3.3178  0.7229
   10SOL    HW2   30   0.772   2.184   0.797 -1.0805  1.2226 -0.1003
   11SOL     OW   31   1.711   1.552   0.848 -0.6074  0.3487 -0.0634
   11SOL    HW1   32   1.797   1.506   0.881 -0.5654  0.2056  1.7575
   11SOL    HW2   33   1.634   1.540   0.918 -0.3735 -2.7527 -0.3407
   12SOL     OW   34   2.786   2.793   1.956 -0.2232  0.7049  0.3848
   12SOL    HW1   35   2.769   2.844   2.042 -2.7060 -3.7994 -0.5662
   12SOL    HW2   36   2.864   2.729   1.968 -0.8234 -0.8497  0.4068
   13SOL     OW   37   2.237   0.238   0.235  0.4128  0.7007 -0.3827
   13SOL    HW1   38   2.185   0.318   0.255 -0.0562  0.7786  2.7597
   13SOL    HW2   39   2.211   0.166   0.304  1.5003 -1.2372  0.9479
   14SOL     OW   40   1.684   2.471   0.826 -0.2579 -0.1480  0.5523
   14SOL    HW1   41   1.716   2.379   0.815 -3.0768  1.5256  2.1446
   14SOL    HW2   42   1.586   2.460   0.853  0.9220 -0.0984  2.3558
   15SOL     OW   43   2.987   1.792   1.522 -0.2996 -0.2925 -0.5417
   15SOL    HW1   44   2.916   1.765   1.592  1.3356 -3.6095  1.0392
   15SOL    HW2   45   3.078   1.811   1.566  0.0278 -0.1377  1.1362
   16SOL     OW   46   2.119   2.407   0.530  0.6992 -0.0106 -0.0704
   16SOL    HW1   47   2.113   2.460   0.623  0.3195  4.5603 -0.1533
   16SOL    HW2   48   2.161   2.319   0.552  0.8295  1.2453 -1.1745
   17SOL     OW   49   0.744   3.059   1.479  0.2223 -0.5343 -0.5322
   17SOL    HW1   50   0.747   3.039   1.578 -1.6722 -0.1796 -2.7704
   17SOL    HW2   51   0.804   0.034   1.445  1.2261  0.6368 -1.4584
   18SOL     OW   52   1.247   1.040   0.089  0.2526  0.2425 -0.7380
   18SOL    HW1   53   1.297   1.124   0.086  0.7551 -1.0032 -2.2240
   18SOL    HW2   54   1.207   1.016   3.101 -0.6294  0.0052 -0.4523
   19SOL     OW   55   1.903   2.029   0.347  0.7684 -0.1148  0.3104
   19SOL    HW1   56   1.883   1.948   0.408 -1.2126  0.5475 -1.9073
   19SOL    HW2   57   1.913   2.005   0.247 -0.0953 -0.6443 -0.8094
   20SOL     OW   58   2.399   1.971   1.900  0.2437 -0.7556 -0.0671
   20SOL    HW1   59   2.432   2.043   1.832  1.9011  2.2075 -0.5622
   20SOL    HW2   60   2.368   1.889   1.851  1.0733 -1.0500  0.6760
   21SOL     OW   61   0.815   1.218   0.624  0.1298 -0.1622 -0.3363
   21SOL    HW1   62   0.760   1.142   0.665 -1.6024 -1.9812  3.8361
   21SOL    HW2   63   0.758   1.296   0.610  0.0448 -0.9737  0.6475
   22SOL     OW   64   2.201   2.813   1.503 -0.8951  0.1835 -0.2614
   22SOL    HW1   65   2.107   2.800   1.543  0.0223  2.3648 -0.7739
   22SOL    HW2   66   2.240   2.900   1.542 -0.1135 -0.7648  0.9138
   23SOL     OW   67   2.920   0.685   1.997 -0.5762  0.0835 -0.3468
   23SOL    HW1   68   2.851   0.646   2.063 -1.1104  0.2355  0.1554
   23SOL    HW2   69   2.992   0.738   2.057 -0.1341  0.3997  3.6341
   24SOL     OW   70   2.337   2.618   0.549 -0.6982 -0.0586  0.5581
   24SOL    HW1   71   2.426   2.570   0.530  1.8927 -1.5127 -0.2218
   24SOL    HW2   72   2.261   2.559   0.532  5.0698  3.5519  0.1004
   25SOL     OW   73   1.205   0.029   2.403  0.4626  0.5483  0.5005
   25SOL    HW1   74   1.309   0.013   2.400 -0.4923 -1.4830 -0.6747
   25SOL    HW2   75   1.186   0.111   2.456  1.5888 -0.4073 -0.9987
   26SOL     OW   76   1.229   2.320   0.239  0.3597 -0.0011  0.3634
   26SOL    HW1   77   1.276   2.348   0.322 -0.2946 -1.7706 -1.3334
   26SOL    HW2   78   1.286   2.338   0.154  1.6622  1.4361 -2.8018
   27SOL     OW   79   2.471   1.768   0.240  0.3909 -0.3867 -0.0528
   27SOL    HW1   80   2.384   1.815   0.251  1.4326  2.3948  2.9985
   27SOL    HW2   81   2.530   1.827   0.187 -2.1020 -4.7511 -0.0203
   28SOL     OW   82   0.006   1.123   1.792  0.9583  0.1892  0.4152
   28SOL    HW1   83   3.032   1.184   1.755 -4.6744  1.3608 -1.4679
   28SOL    HW2   84   0.010   1.029   1.753 -2.8232 -0.1574  0.3009
   29SOL     OW   85   2.390   2.394   1.221  0.5018  0.3765 -0.0861
   29SOL    HW1   86   2.354   2.484   1.256 -1.4592 -0.7193  3.4329
   29SOL    HW2   87   2.490   2.382   1.228 -2.2510  1.5431 -0.1650
   30SOL     OW   88   1.865   0.597   0.575 -0.2254 -0.0778 -0.4231
   30SOL    HW1   89   1.848   0.531   0.500 -0.2190  1.7087  1.8423
   30SOL    HW2   90   1.776   0.630   0.610 -0.2650 -1.6937  0.2525
   31SOL     OW   91   2.268   2.632   1.706 -0.0316 -0.2700 -0.4076
   31SOL    HW1   92   2.247   2.706   1.639  0.8279 -0.7836 -0.0911
   31SOL    HW2   93   2.210   2.550   1.680 -0.0195 -1.1527 -0.8990
   32SOL     OW   94   0.869   1.931   1.284 -0.6999 -0.0470  0.1701
   32SOL    HW1   95   0.934   1.960   1.208  0.9600  0.4437  0.7250
   32SOL    HW2   96   0.855   2.007   1.353  0.5489 -1.4730 -0.3051
   33SOL     OW   97   0.401   0.018   2.587  0.1883  0.2174  0.2266
   33SOL    HW1   98   0.443   0.038   2.680  1.0068 -1.5053  1.4924
   33SOL    HW2   99   0.336   0.092   2.553 -2.7010  1.6960 -0.3535
   34SOL     OW  100   1.529   2.859   0.454 -0.0161  0.3673 -0.6457
   34SOL    HW1  101   1.564   2.955   0.455  1.2319  0.4190 -1.0111
   34SOL    HW2  102   1.479   2.836   0.540 -2.5496  0.4213 -0.0585
   35SOL     OW  103   2.078   2.778   1.229  0.0887 -0.3542 -0.0577
   35SOL    HW1  104   2.166   2.780   1.173  1.7095  0.2572 -0.2073
   35SOL    HW2  105   2.093   2.753   1.325 -0.4550 -0.3160  0.6691
   36SOL     OW  106   1.848   2.470   2.251  0.0577  0.2095 -0.5301
   36SOL    HW1  107   1.841   2.374   2.292  0.4630  1.2958  1.4312
   36SOL    HW2  108   1.921   2.527   2.299 -0.9438 -3.1892  1.0789
   37SOL     OW  109   0.942   0.001   2.051 -0.3241  0.1213 -0.1635
   37SOL    HW1  110   0.939   0.039   1.955 -1.8193  1.5935  2.3431
   37SOL    HW2  111   1.038   3.091   2.084 -2.0159  0.3516  0.7055
   38SOL     OW  112   0.123   2.695   2.717 -0.5585  0.4358  0.3078
   38SOL    HW1  113   0.184   2.768   2.676  1.3617 -1.7983 -0.1775
   38SOL    HW2  114   0.182   2.639   2.782  1.7655 -1.3984 -0.3040
   39SOL     OW  115   2.209   0.917   1.653 -0.7226 -0.3728 -0.3206
   39SOL    HW1  116   2.276   0.990   1.634 -1.4912 -0.8810 -3.0020
   39SOL    HW2  117   2.117   0.952   1.652  1.6921 -2.5118  0.3688
   40SOL     OW  118   1.127   3.074   0.155  0.5897 -0.2489  0.2857
   40SOL    HW1  119   1.045   3.014   0.138 -1.4432 -1.9717  0.6148
   40SOL    HW2  120   1.106   0.069   0.136 -1.0869 -0.1066 -0.0725
   41SOL     OW  121   2.030   1.153   1.081 -0.3397 -0.0001  0.0461
   41SOL    HW1  122   2.081   1.173   1.169  1.3552  1.1212  2.0803
   41SOL    HW2  123   2.095   1.139   1.006 -1.1485  1.9032 -1.5006
   42SOL     OW  124   0.665   0.420   1.033 -0.3577 -0.1440 -0.2223
   42SOL    HW1  125   0.748   0.364   1.033 -2.0376  4.0765 -0.4183
   42SOL    HW2  126   0.586   0.355   1.038 -0.1076 -0.8537  2.0772
   43SOL     OW  127   2.404   1.496   2.764  0.0450  0.0597  0.1468
   43SOL    HW1  128   2.421   1.480   2.863 -1.2368 -0.7610 -1.8916
   43SOL    HW2  129   2.365   1.414   2.721  1.1109  2.9595 -0.6694
   44SOL     OW  130   2.716   0.133   1.578 -0.2654 -0.2450  0.0216
   44SOL    HW1  131   2.764   0.050   1.539  1.3452 -1.9776 -0.6993
   44SOL    HW2  132   2.703   0.111   1.677 -1.6515 -0.3456  0.1931
   45SOL     OW  133   0.462   2.748   1.447  0.5820  0.6470  0.2506
   45SOL    HW1  134   0.468   2.774   1.544  0.6445 -1.6261  0.0415
   45SOL    HW2  135   0.406   2.817   1.399  1.7649 -0.2085  2.9774
   46SOL     OW  136   1.765   3.091   2.422  0.3599  0.1801  0.0330
   46SOL    HW1  137   1.777   3.022   2.347  0.7628 -4.2028 -0.8125
   46SOL    HW2  138   1.848   0.046   2.426 -2.7257 -0.9290 -1.0795
   47SOL     OW  139   1.676   1.803   0.743 -0.2299  0.0657  0.1517
   47SOL    HW1  140   1.643   1.867   0.818  0.4643  0.3245 -0.0317
   47SOL    HW2  141   1.712   1.718   0.789  0.8230  0.3630 -0.2280
   48SOL     OW  142   0.865   2.088   0.508 -0.6091  0.0716 -0.2234
   48SOL    HW1  143   0.812   2.168   0.481  0.9447 -1.2353 -1.8846
   48SOL    HW2  144   0.800   2.015   0.542 -1.9721 -0.2456 -0.3849
   49SOL     OW  145   2.431   0.247   2.575 -0.4059  0.1657 -0.4773
   49SOL    HW1  146   2.406   0.316   2.647 -0.8119 -1.2503 -0.7757
   49SOL    HW2  147   2.422   0.144   2.604  1.8134 -3.2539  1.7530
   50SOL     OW  148   2.042   0.458   0.293  0.2683  0.1283  0.0229
   50SOL    HW1  149   2.018   0.558   0.296 -2.7496 -0.2757  0.3171
   50SOL    HW2  150   1.973   0.405   0.245  2.6131  0.6124  1.1406
   51SOL     OW  151   1.989   0.937   0.647 -0.5019 -0.0109  0.6592
   51SOL    HW1  152   2.056   0.863   0.636  1.5800  0.8770  2.3639
   51SOL    HW2  153   1.944   0.939   0.741  0.5877 -0.0343  1.9310
   52SOL     OW  154   1.267   1.364   1.606  0.8264 -0.0457 -0.3275
   52SOL    HW1  155   1.353   1.320   1.632 -1.8439  0.0864 -3.1913
   52SOL    HW2  156   1.188   1.296   1.609 -1.0455 -0.0610 -2.3960
   53SOL     OW  157   0.907   1.746   2.337  0.0481 -0.7053  0.0391
   53SOL    HW1  158   0.864   1.700   2.255  0.0132 -0.6128 -1.9476
   53SOL    HW2  159   0.882   1.844   2.336  0.2240  0.5624 -2.0769
   54SOL     OW  160   2.465   0.106   1.443  0.4011  0.0516  0.1294
   54SOL    HW1  161   2.557   0.145   1.462  0.2669 -0.1470 -0.6372
   54SOL    HW2  162   2.412   0.171   1.392  1.7009 -0.8185  0.3279
   55SOL     OW  163   2.647   1.897   0.887  0.0726 -0.7367  0.0386
   55SOL    HW1  164   2.663   1.981   0.828 -2.8243  0.5115  2.2325
   55SOL    HW2  165   2.733   1.873   0.928 -1.1885 -1.1535 -2.8472
   56SOL     OW  166   1.267   0.202   2.003  0.0917  0.5991 -0.8387
   56SOL    HW1  167   1.228   0.122   2.056 -1.1599  2.7777  0.3624
   56SOL    HW2  168   1.245   0.195   1.906  2.7414  1.0881  0.0585
   57SOL     OW  169   1.457   1.579   0.115 -0.0135 -0.2400  0.1065
   57SOL    HW1  170   1.518   1.544   0.190  1.0348 -0.9620 -1.7230
   57SOL    HW2  171   1.521   1.600   0.034  2.2655 -0.2842 -1.2611
   58SOL     OW  172   0.261   1.133   1.919 -0.0072 -0.3800  0.4583
   58SOL    HW1  173   0.163   1.109   1.889  1.4850  0.0929 -1.7793
   58SOL    HW2  174   0.269   1.210   1.982 -1.2370 -0.7788 -0.5759
   59SOL     OW  175   1.320   0.134   2.817  0.7876 -0.5085  0.4962
   59SOL    HW1  176   1.383   0.073   2.866 -0.3538  0.7213 -1.7993
   59SOL    HW2  177   1.235   0.086   2.785  0.5344 -2.1601 -0.0231
   60SOL     OW  178   2.915   2.114   0.407  0.2563  0.2910  0.3833
   60SOL    HW1  179   2.873   2.096   0.317  0.7582 -0.7008 -0.8140
   60SOL    HW2  180   2.912   2.212   0.428  0.5051  0.1905  2.1565
   61SOL     OW  181   0.994   2.442   0.242  0.1231 -0.3157 -0.7135
   61SOL    HW1  182   1.018   2.513   0.308 -1.6343  1.4823 -2.6145
   61SOL    HW2  183   1.078   2.388   0.224  0.8343  4.6203 -1.5560
   62SOL     OW  184   2.063   2.126   2.519  0.1809  0.2543  0.3677
   62SOL    HW1  185   2.053   2.024   2.538 -2.5508 -1.4224 -0.4158
   62SOL    HW2  186   1.997   2.163   2.453 -1.3965  0.0983 -1.5524
   63SOL     OW  187   2.272   2.175   0.603 -0.6038 -0.0436  0.1748
   63SOL    HW1  188   2.251   2.173   0.702 -0.1599  0.7730  0.8762
   63SOL    HW2  189   2.241   2.086   0.554 -1.3151 -3.1258  0.6958
   64SOL     OW  190   1.862   1.304   2.820 -0.8281 -0.0248  0.5209
   64SOL    HW1  191   1.788   1.341   2.875  0.5894 -0.4495  1.6263
   64SOL    HW2  192   1.908   1.227   2.864  1.4925 -0.7451 -1.2832
   65SOL     OW  193   1.262   2.041   2.879 -0.7175  0.2645 -0.1364
   65SOL    HW1  194   1.293   2.051   2.974 -2.9312 -0.0620 -1.0079
   65SOL    HW2  195   1.312   1.965   2.833  0.2338  1.1745  2.0799
   66SOL     OW  196   0.052   1.151   2.236  0.2356 -0.0103  0.2530
   66SOL    HW1  197   0.066   1.232   2.296  2.6867 -1.0210 -2.0358
   66SOL    HW2  198   0.073   1.166   2.135  0.3645  1.1416 -3.3571
   67SOL     OW  199   2.659   2.728   0.094 -0.7062  0.3879  0.1685
   67SOL    HW1  200   2.565   2.750   0.062 -1.8504  0.6028 -1.7745
   67SOL    HW2  201   2.703   2.809   0.136 -2.3310  1.1234  0.4257
   68SOL     OW  202   0.982   2.490   1.370  0.3007  0.2039  0.1282
   68SOL    HW1  203   1.034   2.415   1.412  1.7501 -1.2295 -2.8921
   68SOL    HW2  204   1.022   2.516   1.278 -0.9830 -1.2871  1.4586
   69SOL     OW  205   0.820   2.488   0.625 -0.6441  0.3764 -0.1626
   69SOL    HW1  206   0.835   2.585   0.607  0.9276 -0.7940 -3.1843
   69SOL    HW2  207   0.762   2.463   0.705  2.6650  1.5405 -0.0860
   70SOL     OW  208   2.648   0.525   2.648 -0.4365  0.2636 -0.1550
   70SOL    HW1  209   2.583   0.485   2.710  0.3311  0.9136 -1.1672
   70SOL    HW2  210   2.711   0.587   2.698  0.0003 -3.1710 -0.7035
   71SOL     OW  211   0.715   1.286   2.487  0.2068 -0.0015 -0.0032
   71SOL    HW1  212   0.732   1.382   2.513  0.0800 -0.1255  2.4151
   71SOL    HW2  213   0.643   1.252   2.548  4.5416  0.0626  2.6620
   72SOL     OW  214   0.082   2.097   0.285 -0.1763 -0.0052  0.1393
   72SOL    HW1  215   0.097   2.172   0.224 -2.5913 -1.0747  0.1695
   72SOL    HW2  216   3.100   2.109   0.336  1.8851  0.8159 -1.2330
   73SOL     OW  217   0.979   1.367   0.380  0.2737 -0.1855 -0.1382
   73SOL    HW1  218   0.926   1.357   0.295 -0.0645 -0.0924  0.0822
   73SOL    HW2  219   0.923   1.346   0.463  0.1067  0.4502  2.6926
   74SOL     OW  220   2.192   2.909   0.055 -0.2174  0.0616  0.7261
   74SOL    HW1  221   2.100   2.905   0.100 -2.6088  3.3519 -0.8588
   74SOL    HW2  222   2.228   2.818   0.024  1.2643 -1.8740  1.1773
   75SOL     OW  223   2.358   1.820   1.250 -0.2419 -0.5516 -0.2376
   75SOL    HW1  224   2.380   1.855   1.347 -0.2061 -0.5490  0.4259
   75SOL    HW2  225   2.335   1.724   1.251  1.5850  1.2668 -0.8944
   76SOL     OW  226   1.943   2.543   1.443 -0.2689  0.0258 -0.2946
   76SOL    HW1  227   1.849   2.512   1.483 -1.9094  0.2596  0.7299
   76SOL    HW2  228   2.004   2.566   1.520  0.2910  1.0195 -1.4037
   77SOL     OW  229   2.369   0.235   1.898 -0.1537 -0.0464  0.0718
   77SOL    HW1  230   2.320   0.300   1.964  1.0995  2.3142 -0.5728
   77SOL    HW2  231   2.375   0.141   1.937  0.4223  1.7462 -0.9267
   78SOL     OW  232   1.516   0.826   3.036  0.2591 -0.3069  0.0896
   78SOL    HW1  233   1.543   0.741   3.091  2.6379 -2.2162 -0.6427
   78SOL    HW2  234   1.532   0.806   2.934 -1.9750 -3.3597  0.0916
   79SOL     OW  235   2.688   1.688   2.012  0.2219 -0.6976 -0.4093
   79SOL    HW1  236   2.650   1.783   2.029 -2.4320  1.0897  0.2843
   79SOL    HW2  237   2.643   1.629   2.080  1.6973  0.0412  0.7710
   80SOL     OW  238   1.989   1.438   1.699 -0.5372 -0.1643 -0.1690
   80SOL    HW1  239   2.068   1.455   1.638  1.2333 -0.7140  0.5710
   80SOL    HW2  240   1.907   1.451   1.644 -0.8124  1.5860  0.8789
   81SOL     OW  241   1.318   0.684   1.578  0.5280  0.9179 -0.0843
   81SOL    HW1  242   1.330   0.651   1.673 -0.4200 -0.1425  2.1758
   81SOL    HW2  243   1.331   0.785   1.567 -0.1591 -0.2925  0.6066
   82SOL     OW  244   1.323   2.682   1.587  0.2217  0.1109  0.5259
   82SOL    HW1  245   1.415   2.697   1.627 -1.1538  0.9987 -0.0800
   82SOL    HW2  246   1.320   2.706   1.488  1.3826  2.4444 -0.1957
   83SOL     OW  247   0.388   0.132   0.590  0.2098 -0.3565 -0.0918
   83SOL    HW1  248   0.405   0.048   0.535 -0.8668  1.2213  0.4641
   83SOL    HW2  249   0.316   0.193   0.551 -0.6109 -0.4141 -0.6835
   84SOL     OW  250   0.367   1.016   3.026  0.4028 -0.0508 -0.1087
   84SOL    HW1  251   0.336   0.984   2.934  0.8047  3.1085  1.5097
   84SOL    HW2  252   0.405   1.112   3.019 -2.4638 -1.5291  2.2752
   85SOL     OW  253   2.745   2.061   1.756 -0.2129  0.2760 -0.2380
   85SOL    HW1  254   2.702   1.975   1.781 -5.1359  0.1643 -1.3180
   85SOL    HW2  255   2.728   2.132   1.823  1.0482 -2.1105  0.1622
   86SOL     OW  256   2.943   2.534   1.631  0.2144 -0.1572 -0.0798
   86SOL    HW1  257   2.926   2.460   1.701  1.0331  0.8815 -0.3718
   86SOL    HW2  258   3.031   2.583   1.641  0.5168  0.3988  0.9933
   87SOL     OW  259   0.555   0.302   2.538  0.1130 -0.0311 -0.4932
   87SOL    HW1  260   0.627   0.245   2.490 -1.1881 -1.4200 -3.3452
   87SOL    HW2  261   0.527   0.265   2.629 -3.3823  1.2311  0.1190
   88SOL     OW  262   0.586   2.305   1.294 -0.3411 -0.3017 -0.0816
   88SOL    HW1  263   0.679   2.263   1.285  0.6208  0.3264  0.8980
   88SOL    HW2  264   0.531   2.238   1.344  3.0258  0.4129 -1.7277
   89SOL     OW  265   0.895   0.785   1.636 -0.0409 -0.7204 -0.4246
   89SOL    HW1  266   0.926   0.704   1.580 -2.5528 -1.8849 -0.2109
   89SOL    HW2  267   0.885   0.765   1.736 -0.7246 -2.3311 -0.6661
   90SOL     OW  268   2.991   1.550   1.392  0.3723 -0.5081 -0.4258
   90SOL    HW1  269   3.010   1.650   1.411 -2.9200 -0.6485 -2.1169
   90SOL    HW2  270   3.072   1.508   1.347  0.5634 -2.6428  0.2174
   91SOL     OW  271   1.234   1.203   0.638 -0.1622  0.5037  0.2156
   91SOL    HW1  272   1.160   1.245   0.691  2.0842 -2.1473 -1.2054
   91SOL    HW2  273   1.236   1.104   0.667 -0.7621  0.6261  0.9057
   92SOL     OW  274   2.556   0.540   1.004  0.1288 -0.3019 -0.1721
   92SOL    HW1  275   2.501   0.603   1.065 -2.1772 -0.4259 -0.7180
   92SOL    HW2  276   2.502   0.513   0.922  1.6204 -0.3199  2.9266
   93SOL     OW  277   1.823   0.821   2.905  0.0252  0.1600 -0.5026
   93SOL    HW1  278   1.730   0.809   2.942 -0.7972 -1.2420 -1.0284
   93SOL    HW2  279   1.821   0.818   2.804 -1.0154 -0.6883  0.7276
   94SOL     OW  280   2.539   1.734   2.375 -0.4297 -0.2003 -0.4598
   94SOL    HW1  281   2.488   1.702   2.290  1.1698  0.5701 -0.3014
   94SOL    HW2  282   2.617   1.675   2.404  1.0108 -0.6657 -2.1391
   95SOL     OW  283   1.995   0.474   1.151 -0.1466  0.2747  0.3820
   95SOL    HW1  284   1.931   0.467   1.071 -2.1632 -0.0569  0.9653
   95SOL    HW2  285   2.067   0.545   1.137 -0.8228  2.9029  1.4632
   96SOL     OW  286   2.489   0.041   2.214 -0.0807  0.3970 -0.4924
   96SOL    HW1  287   2.463   0.018   2.116 -2.0885  1.5776 -0.1785
   96SOL    HW2  288   2.538   0.129   2.209 -0.4743 -3.6834  1.5154
   97SOL     OW  289   2.304   0.351   1.303  0.3406  0.6696 -0.7480
   97SOL    HW1  290   2.316   0.446   1.331  0.8750 -0.7968 -2.9407
   97SOL    HW2  291   2.219   0.309   1.335  0.3390  1.1318  3.2061
   98SOL     OW  292   1.702   2.451   1.585 -0.1543 -0.4015 -0.5497
   98SOL    HW1  293   1.643   2.436   1.670 -0.8912 -2.1773  0.1652
   98SOL    HW2  294   1.671   2.392   1.509  0.0493 -0.0302  1.9524
   99SOL     OW  295   2.566   2.289   1.596 -0.2417  0.1003  0.4368
   99SOL    HW1  296   2.570   2.391   1.612 -1.9676  0.6858 -1.7087
   99SOL    HW2  297   2.486   2.253   1.646  0.8975 -0.1804  0.6036
  100SOL     OW  298   0.640   0.865   2.756 -0.4642 -0.0112  0.1425
  100SOL    HW1  299   0.557   0.821   2.728 -1.9785  1.7470  1.1885
  100SOL    HW2  300   0.623   0.926   2.838  0.3781 -2.5840  2.1099
  101SOL     OW  301   1.902   0.396   2.875 -0.3683  0.7425  0.7164
  101SOL    HW1  302   1.931   0.325   2.944 -1.1491 -2.4099  3.5680
  101SOL    HW2  303   1.916   0.493   2.911  0.9825 -1.3249  2.1954
  102SOL     OW  304   0.168   0.765   1.748  0.8557 -0.0319  0.5447
  102SOL    HW1  305   0.069   0.748   1.767 -1.1607 -0.4452 -1.0105
  102SOL    HW2  306   0.193   0.739   1.650 -0.0606  2.8168 -0.8080
  103SOL     OW  307   2.854   0.642   2.780 -0.2824  0.5702  0.9338
  103SOL    HW1  308   2.886   0.737   2.763  0.7794 -0.0759  0.4431
  103SOL    HW2  309   2.930   0.594   2.823  0.1426  0.4027  1.1414
  104SOL     OW  310   0.555   0.581   2.609 -0.3626 -0.4600  0.2580
  104SOL    HW1  311   0.599   0.629   2.529 -1.0729 -0.3847 -2.9818
  104SOL    HW2  312   0.546   0.482   2.590  1.3865 -0.1209  1.3880
  105SOL     OW  313   2.376   1.716   1.771  0.3371 -0.1355 -0.0889
  105SOL    HW1  314   2.279   1.726   1.754  0.2373 -1.2124 -0.7562
  105SOL    HW2  315   2.408   1.631   1.824  1.4042  0.5974  1.3626
  106SOL     OW  316   2.125   0.679   0.599 -0.5292  0.6364  0.3605
  106SOL    HW1  317   2.183   0.634   0.525  0.9967 -0.2430  1.5788
  106SOL    HW2  318   2.027   0.658   0.578 -0.5299  1.2569  1.7976
  107SOL     OW  319   0.313   1.575   0.777  0.0509  0.3760 -0.3923
  107SOL    HW1  320   0.308   1.605   0.875  0.6937 -4.1042 -1.3831
  107SOL    HW2  321   0.390   1.618   0.734 -0.0519 -1.1514  0.5507
  108SOL     OW  322   2.764   2.695   1.519 -0.5895  0.0820 -0.8739
  108SOL    HW1  323   2.822   2.625   1.568 -0.3967 -0.1619  0.6771
  108SOL    HW2  324   2.770   2.683   1.419  0.2370 -1.3989  2.9538
  109SOL     OW  325   2.032   0.112   0.781  0.5819 -0.1576 -0.2609
  109SOL    HW1  326   2.058   0.207   0.787 -4.3713 -0.9255 -0.3418
  109SOL    HW2  327   2.090   0.053   0.840 -1.3472  1.2585 -1.1360
  110SOL     OW  328   0.491   2.100   2.525  0.0010 -0.4958 -0.3351
  110SOL    HW1  329   0.504   2.055   2.434  0.2798 -0.3644 -2.0782
  110SOL    HW2  330   0.573   2.088   2.584  0.8951 -2.1592 -0.0119
  111SOL     OW  331   1.557   2.711   1.930 -0.2808  0.0144  0.1187
  111SOL    HW1  332   1.598   2.619   1.920  0.6349 -1.5693 -0.9931
  111SOL    HW2  333   1.562   2.757   1.841  0.4282 -0.3780  0.5936
  112SOL     OW  334   2.066   2.452   2.994 -0.1923 -0.4686  0.2990
  112SOL    HW1  335   1.979   2.504   3.009  2.6241 -0.4107 -1.0154
  112SOL    HW2  336   2.082   2.421   2.898 -1.0603 -0.3011 -1.6182
  113SOL     OW  337   1.561   2.276   1.439  0.1458 -0.0863 -0.2867
  113SOL    HW1  338   1.530   2.295   1.341 -0.5387  2.2301 -1.8761
  113SOL    HW2  339   1.619   2.191   1.451  0.9501  0.5260  1.5249
  114SOL     OW  340   2.841   0.897   0.827 -0.5354  0.1628  0.0433
  114SOL    HW1  341   2.857   0.881   0.927  0.6981 -0.6045  0.2775
  114SOL    HW2  342   2.857   0.814   0.773  0.8930  0.3213  2.0616
  115SOL     OW  343   0.597   0.906   3.035  0.4568  0.1380  0.2619
  115SOL    HW1  344   0.497   0.930   3.036  1.1521 -1.0049 -0.1931
  115SOL    HW2  345   0.621   0.853   0.014 -2.2381 -0.3498 -1.7236
  116SOL     OW  346   2.632   1.468   2.193 -0.3811 -0.0720  0.6303
  116SOL    HW1  347   2.718   1.420   2.171  0.0940  0.2061 -3.2412
  116SOL    HW2  348   2.560   1.403   2.231 -0.7991 -0.7152 -0.0056
  117SOL     OW  349   0.349   2.701   0.538  0.3967 -0.0163  0.7340
  117SOL    HW1  350   0.347   2.602   0.554 -2.1970  1.7405  0.7171
  117SOL    HW2  351   0.349   2.727   0.441  0.0449 -1.1792 -0.5206
  118SOL     OW  352   0.799   1.987   2.320 -0.1311 -0.7620  0.0512
  118SOL    HW1  353   0.825   2.015   2.414 -0.2395  0.2244  0.0431
  118SOL    HW2  354   0.714   2.033   2.288  0.2980 -1.5920 -0.3434
  119SOL     OW  355   0.113   2.282   2.679 -0.8362 -0.1014 -0.3326
  119SOL    HW1  356   0.031   2.237   2.713  0.1096  0.0829 -0.4942
  119SOL    HW2  357   0.181   2.286   2.751 -1.6399 -3.4580 -4.1825
  120SOL     OW  358   0.970   0.796   3.014 -0.7166  0.1912 -0.2125
  120SOL    HW1  359   1.038   0.874   3.004 -2.0086  1.8633  1.2910
  120SOL    HW2  360   0.976   0.760   0.003  0.6719  0.9379 -0.0882
  121SOL     OW  361   1.234   2.892   1.130  0.0258  0.2561 -0.2728
  121SOL    HW1  362   1.204   2.899   1.033 -0.1282  0.4335 -0.9025
  121SOL    HW2  363   1.324   2.939   1.146  3.0518 -0.9893  0.6793
  122SOL     OW  364   2.550   2.555   1.625  0.0189  0.0473  0.2473
  122SOL    HW1  365   2.457   2.596   1.623 -1.3785  0.2193 -0.6729
  122SOL    HW2  366   2.618   2.602   1.571  0.0390  1.5629  0.5382
  123SOL     OW  367   0.649   2.468   0.861 -0.3784 -0.1717 -0.1693
  123SOL    HW1  368   0.608   2.547   0.812  1.5747  1.0727 -0.3313
  123SOL    HW2  369   0.586   2.424   0.932  0.0942 -0.3959 -0.0531
  124SOL     OW  370   2.235   0.832   3.020  0.2805 -0.2584 -0.1005
  124SOL    HW1  371   2.198   0.829   2.924 -1.0423 -0.7827 -2.4696
  124SOL    HW2  372   2.226   0.746   3.071  0.8941 -0.2283 -0.8726
  125SOL     OW  373   0.526   0.897   0.426  0.1118 -0.0246  0.0808
  125SOL    HW1  374   0.457   0.832   0.466 -1.4956  2.0813  1.4109
  125SOL    HW2  375   0.583   0.925   0.504 -0.5638  1.1847 -0.4122
  126SOL     OW  376   3.002   1.327   0.596 -0.3611 -0.2384 -0.3804
  126SOL    HW1  377   3.081   1.377   0.640 -0.8727 -1.8748  0.1913
  126SOL    HW2  378   2.966   1.258   0.663 -0.7739  0.6893  2.0769
  127SOL     OW  379   0.599   1.815   1.979  0.4713  0.4917 -0.0664
  127SOL    HW1  380   0.661   1.772   2.044 -1.3759  3.5106 -0.3403
  127SOL    HW2  381   0.512   1.767   1.971 -0.0219 -0.7639 -1.5626
  128SOL     OW  382   0.736   1.121   2.991 -0.1984  0.2427 -0.0141
  128SOL    HW1  383   0.800   1.116   2.910 -3.1633  3.4147  0.2625
  128SOL    HW2  384   0.704   1.026   3.023 -0.6265 -1.9341  1.9061
  129SOL     OW  385   2.578   1.457   0.801  0.4975 -0.2162 -1.1234
  129SOL    HW1  386   2.623   1.378   0.845  1.9831  0.4471  0.2999
  129SOL    HW2  387   2.646   1.500   0.731 -2.6630 -2.3393 -0.7505
  130SOL     OW  388   2.362   1.134   1.558 -0.1580  0.2228 -0.1649
  130SOL    HW1  389   2.442   1.119   1.497 -0.3865 -2.2062 -0.6915
  130SOL    HW2  390   2.375   1.216   1.618 -2.8633  1.1928 -1.8869
  131SOL     OW  391   2.813   3.037   2.826  0.0838 -0.3006 -0.3686
  131SOL    HW1  392   2.779   3.071   2.918  4.1686  0.6958  1.7012
  131SOL    HW2  393   2.903   2.993   2.836 -1.0374  2.1675  0.5059
  132SOL     OW  394   0.113   1.709   1.260 -0.4406 -0.5012  0.0422
  132SOL    HW1  395   0.185   1.696   1.192  0.1194  1.8459 -0.1069
  132SOL    HW2  396   0.036   1.758   1.222  1.8376 -1.4229  2.5749
  133SOL     OW  397   0.872   0.464   1.345 -0.1466 -0.7886  0.0102
  133SOL    HW1  398   0.948   0.492   1.415  0.8923 -0.5952  0.1247
  133SOL    HW2  399   0.781   0.510   1.357 -1.9178  2.0699  0.5844
  134SOL     OW  400   0.195   1.943   0.084  0.1776 -0.4333  0.2593
  134SOL    HW1  401   0.107   1.945   0.028  0.7159 -0.1353  0.7017
  134SOL    HW2  402   0.171   1.988   0.174 -1.3169 -0.7662 -2.1673
  135SOL     OW  403   1.850   0.756   1.395 -0.0951  0.3412  0.0243
  135SOL    HW1  404   1.770   0.795   1.443 -0.1228  0.6953 -0.3994
  135SOL    HW2  405   1.864   0.655   1.413 -1.4092 -2.1090  1.9217
  136SOL     OW  406   0.167   1.013   0.476 -0.5011 -0.2718  0.2247
  136SOL    HW1  407   0.198   1.104   0.510 -0.0907  0.7470  2.0336
  136SOL    HW2  408   0.074   1.020   0.429 -0.2178  0.2776  0.5309
  137SOL     OW  409   2.892   1.154   0.790 -0.1353  0.1233 -0.3041
  137SOL    HW1  410   2.888   1.051   0.788  0.5589 -2.1545  0.1905
  137SOL    HW2  411   2.921   1.199   0.875 -2.8104 -0.7751  0.3606
  138SOL     OW  412   1.862   1.038   0.876  0.0295 -0.3382  0.1785
  138SOL    HW1  413   1.802   0.966   0.916 -0.1313  3.0507 -0.9716
  138SOL    HW2  414   1.926   1.076   0.943 -0.2958  1.1059  1.7228
  139SOL     OW  415   1.656   2.757   0.112  0.0823  0.1441  0.0762
  139SOL    HW1  416   1.724   2.814   0.164 -1.9576 -0.3326  1.4579
  139SOL    HW2  417   1.587   2.713   0.168  0.0924  1.1196 -1.7920
  140SOL     OW  418   1.446   1.573   1.586  0.1105 -0.2802  0.0496
  140SOL    HW1  419   1.537   1.547   1.628  1.7250 -3.4103  0.8423
  140SOL    HW2  420   1.381   1.494   1.593  0.8372  0.5908  0.2526
  141SOL     OW  421   1.611   2.150   0.453 -0.4445  0.1291  0.3481
  141SOL    HW1  422   1.712   2.140   0.440  1.3774  0.8910 -0.3679
  141SOL    HW2  423   1.567   2.085   0.387 -0.9659 -3.3420 -2.6891
  142SOL     OW  424   0.851   0.537   3.069  0.0701  0.2046  0.1248
  142SOL    HW1  425   0.855   0.508   0.065  1.1272  0.9269 -0.3663
  142SOL    HW2  426   0.850   0.638   3.058 -0.1849 -0.1055  1.9193
  143SOL     OW  427   0.275   2.232   2.883 -0.2708  0.0287  0.3381
  143SOL    HW1  428   0.279   2.136   2.853  0.8449 -1.7923  1.6023
  143SOL    HW2  429   0.331   2.252   2.965  2.8773 -0.9252 -0.6959
  144SOL     OW  430   1.484   3.030   1.129 -0.3537 -0.2306  0.4468
  144SOL    HW1  431   1.463   0.017   1.172  1.3839 -0.7561  3.4660
  144SOL    HW2  432   1.577   3.030   1.085  0.6542 -0.2511  2.8657
  145SOL     OW  433   2.067   1.247   0.232  0.0237 -0.8866 -0.5330
  145SOL    HW1  434   2.060   1.215   0.329 -0.6167  0.3900  0.5812
  145SOL    HW2  435   1.984   1.284   0.188  1.8333 -0.3697 -0.7818
  146SOL     OW  436   0.036   2.336   0.699 -0.2622 -0.6620  0.0511
  146SOL    HW1  437   3.084   2.346   0.610 -2.5665 -1.4706  0.0712
  146SOL    HW2  438   3.086   2.310   0.781  2.8354  3.7636 -1.8356
  147SOL     OW  439   2.342   3.030   1.605  0.1224 -0.5503  0.3809
  147SOL    HW1  440   2.404   2.995   1.679  2.3635 -0.7964  1.5753
  147SOL    HW2  441   2.389   3.094   1.539  0.5653 -1.9366 -1.2347
  148SOL     OW  442   1.439   3.016   1.913  0.4255 -0.0041 -0.0445
  148SOL    HW1  443   1.438   3.008   1.809  1.1767 -0.0801 -3.3556
  148SOL    HW2  444   1.400   2.939   1.959  1.8504  1.7040 -1.1705
  149SOL     OW  445   1.883   0.636   2.287 -0.2021  0.1462  0.3498
  149SOL    HW1  446   1.969   0.587   2.301  0.7742 -0.0627  2.2615
  149SOL    HW2  447   1.895   0.734   2.258 -2.4963  0.8299  0.0297
  150SOL     OW  448   0.220   3.032   0.302  0.0374 -0.2553 -0.0258
  150SOL    HW1  449   0.303   3.026   0.359 -0.3082 -0.2275 -1.9862
  150SOL    HW2  450   0.252   3.052   0.203 -0.6295  1.6250 -1.2642
  151SOL     OW  451   0.332   2.263   0.042  0.2279 -0.5613  0.5548
  151SOL    HW1  452   0.360   2.325   0.116 -0.9735  2.3152  1.3536
  151SOL    HW2  453   0.233   2.263   0.028  0.9497  2.4395  0.0168
  152SOL     OW  454   3.001   3.066   0.674  0.0144 -0.1063 -0.2575
  152SOL    HW1  455   3.098   3.051   0.704  1.0427  2.7731  0.0732
  152SOL    HW2  456   2.937   0.002   0.744  1.0780  1.8276 -0.9824
  153SOL     OW  457   2.426   0.044   0.955 -0.2041  0.0472 -0.3152
  153SOL    HW1  458   2.347   3.089   0.925  0.1374  1.0199  2.2553
  153SOL    HW2  459   2.489   0.073   0.878  0.5478 -0.3071 -0.7842
  154SOL     OW  460   0.811   0.468   1.962 -0.2280 -0.0949  0.2531
  154SOL    HW1  461   0.865   0.442   2.043 -0.7011  2.0205  0.7557
  154SOL    HW2  462   0.820   0.569   1.945  1.8278 -2.1758 -0.7687
  155SOL     OW  463   3.101   1.066   1.118 -0.0140  0.4577 -0.0899
  155SOL    HW1  464   3.094   1.152   1.065 -0.4188 -2.9019  2.1579
  155SOL    HW2  465   3.008   1.042   1.149 -0.0810  1.3538 -2.1772
  156SOL     OW  466   2.912   2.203   0.009  0.4851 -0.0810 -0.3853
  156SOL    HW1  467   2.895   2.116   0.057  1.4786  1.8191 -1.9081
  156SOL    HW2  468   2.847   2.226   3.036  0.5535  0.5982  0.2214
  157SOL     OW  469   0.899   0.784   0.178 -0.3165 -0.3409 -0.4722
  157SOL    HW1  470   0.961   0.729   0.242 -0.6865 -2.4494 -0.2398
  157SOL    HW2  471   0.928   0.885   0.174  0.3311  2.6393  0.0829
  158SOL     OW  472   2.394   3.103   2.678  0.0082 -0.0694  0.0433
  158SOL    HW1  473   2.440   3.073   2.762  0.4251 -0.8204 -2.3261
  158SOL    HW2  474   2.294   3.068   2.683  1.5503 -0.1868 -0.0654
  159SOL     OW  475   0.812   0.037   0.382 -0.0951  0.2362  0.0949
  159SOL    HW1  476   0.806   0.004   0.481 -2.0211 -1.8262  0.0158
  159SOL    HW2  477   0.863   0.125   0.363  2.0284 -0.3694  0.3587
  160SOL     OW  478   1.348   1.822   2.699 -0.5852 -0.1885 -0.1556
  160SOL    HW1  479   1.365   1.841   2.602  0.3711  1.2150 -0.7822
  160SOL    HW2  480   1.254   1.781   2.713 -2.4860 -1.5116 -1.2404
  161SOL     OW  481   2.924   1.216   2.427  0.2894  0.0366  0.0335
  161SOL    HW1  482   2.827   1.194   2.429  3.2374 -0.1510  4.1116
  161SOL    HW2  483   2.949   1.272   2.508 -1.1018 -1.9941  1.2698
  162SOL     OW  484   0.603   2.481   1.499  0.5904  0.2119  0.1118
  162SOL    HW1  485   0.588   2.394   1.442 -0.3441 -2.8962 -0.4845
  162SOL    HW2  486   0.543   2.560   1.472  0.1287  1.6074 -2.2672
  163SOL     OW  487   2.422   0.366   2.344 -0.3321  0.8063 -0.4790
  163SOL    HW1  488   2.416   0.465   2.350 -0.6221 -1.6956 -1.1763
  163SOL    HW2  489   2.434   0.326   2.439  0.1273  2.8379 -0.1787
  164SOL     OW  490   2.491   1.308   0.537  0.3779  0.4575  0.2397
  164SOL    HW1  491   2.456   1.386   0.483  0.1482  0.2359  0.7680
  164SOL    HW2  492   2.593   1.300   0.518  0.1186 -1.2339 -0.0701
  165SOL     OW  493   0.158   0.119   1.600 -0.3377  0.1172 -0.0375
  165SOL    HW1  494   0.101   0.072   1.670 -0.3457 -0.4697 -1.4357
  165SOL    HW2  495   0.257   0.094   1.595 -2.8780  0.9344  2.6015
  166SOL     OW  496   2.096   1.175   0.500  0.3668  0.3320 -0.5141
  166SOL    HW1  497   2.022   1.124   0.552  0.4276  2.1708  0.8768
  166SOL    HW2  498   2.191   1.137   0.519 -1.8315 -0.9818 -0.2419
  167SOL     OW  499   0.330   0.573   0.440 -0.8082 -0.4936  0.2383
  167SOL    HW1  500   0.284   0.616   0.360  1.4659  0.3172  1.8564
  167SOL    HW2  501   0.364   0.636   0.518  0.2171  1.3233 -0.8459
  168SOL     OW  502   1.759   2.737   2.324 -0.2361 -0.1537  0.7980
  168SOL    HW1  503   1.848   2.687   2.316  0.6684 -2.7967  1.3436
  168SOL    HW2  504   1.736   2.788   2.242  1.3059 -2.8521  2.7630
  169SOL     OW  505   0.587   1.330   1.014 -0.0701 -0.1181  0.2513
  169SOL    HW1  506   0.538   1.267   0.954  1.6864  0.1757 -0.3425
  169SOL    HW2  507   0.595   1.296   1.110 -0.4733  0.3872 -0.0568
  170SOL     OW  508   0.004   0.558   1.390 -0.0640 -0.2466  0.0794
  170SOL    HW1  509   0.056   0.478   1.351  2.4861 -3.9797  1.7178
  170SOL    HW2  510   3.048   0.536   1.467 -1.1097  1.4293  1.0851
  171SOL     OW  511   1.223   2.513   2.632 -0.0643 -0.3412 -0.1410
  171SOL    HW1  512   1.262   2.419   2.626  0.9419 -0.4634 -1.0747
  171SOL    HW2  513   1.149   2.526   2.559 -1.2236 -0.9018 -0.0790
  172SOL     OW  514   0.071   2.825   1.238  1.0141  0.5267  0.1380
  172SOL    HW1  515   0.155   2.777   1.216 -3.8095  0.9733 -0.2968
  172SOL    HW2  516   0.072   2.927   1.227  0.7824 -1.5210 -3.5073
  173SOL     OW  517   1.552   0.776   2.754  0.4684 -0.2339 -0.3453
  173SOL    HW1  518   1.539   0.675   2.768  2.6807  1.6477  2.2854
  173SOL    HW2  519   1.573   0.799   2.659 -1.3399  2.0930  2.9364
  174SOL     OW  520   1.892   0.017   2.831  0.0535  0.4992  0.2845
  174SOL    HW1  521   1.827   0.054   2.761 -2.2885  1.4956  0.4009
  174SOL    HW2  522   1.832   3.071   2.896 -1.3355 -1.9370  2.3857
  175SOL     OW  523   1.972   2.275   0.324 -0.2237  0.0152  0.2468
  175SOL    HW1  524   1.934   2.183   0.333  1.2940 -0.6247 -0.6734
  175SOL    HW2  525   2.017   2.303   0.409  2.6452  1.2723 -1.5892
  176SOL     OW  526   2.007   0.186   3.016  0.7252 -0.0254  0.0269
  176SOL    HW1  527   2.089   0.133   3.045  3.8536 -3.6962 -1.8706
  176SOL    HW2  528   1.961   0.137   2.936 -1.6046 -1.4431 -0.3598
  177SOL     OW  529   1.079   1.802   0.594  0.3956 -0.1681 -1.2622
  177SOL    HW1  530   0.997   1.763   0.549 -1.0277  4.2204 -0.6428
  177SOL    HW2  531   1.138   1.856   0.530  1.8259  1.2682 -1.1849
  178SOL     OW  532   2.705   2.296   2.966 -0.4165 -0.0061 -0.2588
  178SOL    HW1  533   2.652   2.316   2.882 -0.3901  0.8290 -0.0834
  178SOL    HW2  534   2.671   2.363   3.037 -0.9867 -1.2257  1.3675
  179SOL     OW  535   0.325   2.850   2.860 -0.4132  0.5273  0.4379
  179SOL    HW1  536   0.391   2.833   2.790 -0.2567  0.4785  0.8289
  179SOL    HW2  537   0.279   2.939   2.847  0.6810  0.4963 -0.1607
  180SOL     OW  538   1.504   1.053   0.949 -0.3289 -0.2663 -0.1089
  180SOL    HW1  539   1.416   1.104   0.967  0.6465 -1.0747 -0.5014
  180SOL    HW2  540   1.542   1.083   0.858  1.8314 -0.0456  2.9056
  181SOL     OW  541   1.913   0.893   2.194 -0.2400 -0.5143 -0.2365
  181SOL    HW1  542   1.824   0.936   2.184  1.0550  0.7244 -0.5247
  181SOL    HW2  543   1.952   0.881   2.100  0.5531  3.7764  0.6442
  182SOL     OW  544   2.934   2.965   2.426  0.3345  0.3252  0.1597
  182SOL    HW1  545   2.856   2.906   2.451 -0.1167  3.0502  3.1203
  182SOL    HW2  546   3.024   2.919   2.421 -0.2940  0.5800 -0.4350
  183SOL     OW  547   1.324   0.920   2.224  0.0872  0.5020 -0.5566
  183SOL    HW1  548   1.413   0.876   2.239 -1.0830  0.1282 -0.3011
  183SOL    HW2  549   1.263   0.860   2.172 -0.6790  0.1663  0.1068
  184SOL     OW  550   0.553   1.152   1.543 -0.0375 -0.0666  0.2933
  184SOL    HW1  551   0.555   1.221   1.467 -2.4757  0.8465  0.3569
  184SOL    HW2  552   0.452   1.128   1.555 -1.9644 -0.8083 -2.3321
  185SOL     OW  553   2.003   0.742   0.304  0.4846  0.1528 -0.0725
  185SOL    HW1  554   1.937   0.796   0.355 -1.0753  2.5838  1.6772
  185SOL    HW2  555   2.094   0.785   0.298 -0.7928  1.5133 -2.4304
  186SOL     OW  556   0.713   2.674   0.038 -0.4066 -0.0552 -0.3433
  186SOL    HW1  557   0.614   2.696   0.047 -0.2217  0.8988 -2.1466
  186SOL    HW2  558   0.748   2.683   3.049 -0.1818 -0.1441  2.2364
  187SOL     OW  559   2.433   0.995   0.016  0.0485  0.1698 -0.0280
  187SOL    HW1  560   2.358   0.954   3.058  0.0794 -1.4483 -0.8504
  187SOL    HW2  561   2.478   1.074   3.065  0.9245 -0.0421  0.7869
  188SOL     OW  562   3.103   1.609   1.002  0.6180 -0.2203 -0.1152
  188SOL    HW1  563   0.098   1.636   0.988  1.1676  1.6237  2.9909
  188SOL    HW2  564   3.055   1.686   1.044 -0.5636  1.7896  1.4420
  189SOL     OW  565   2.747   0.268   0.244 -0.4383  0.2292 -0.4771
  189SOL    HW1  566   2.824   0.223   0.197 -1.4580  0.9970  4.2199
  189SOL    HW2  567   2.657   0.232   0.211 -1.9166 -0.5192  1.6640
  190SOL     OW  568   1.215   1.574   1.897  0.0509  0.1364  0.1866
  190SOL    HW1  569   1.156   1.558   1.980 -1.6459 -0.3471 -0.4330
  190SOL    HW2  570   1.286   1.499   1.888  3.0401  1.0234  2.6133
  191SOL     OW  571   2.972   0.423   1.637 -0.3538 -0.1432  0.1958
  191SOL    HW1  572   2.922   0.377   1.558  0.0247 -1.6183  1.6864
  191SOL    HW2  573   2.927   0.408   1.730  1.1900  1.5945 -0.3231
  192SOL     OW  574   1.858   1.516   1.190  0.1577 -0.2289  0.5367
  192SOL    HW1  575   1.848   1.618   1.184  1.4037  0.0353  1.7154
  192SOL    HW2  576   1.890   1.478   1.101 -0.2761  0.1499  0.2339
  193SOL     OW  577   1.249   0.528   0.943  0.0457  0.4196  0.8623
  193SOL    HW1  578   1.174   0.508   1.008 -0.6452  1.6447 -1.9505
  193SOL    HW2  579   1.234   0.484   0.851 -1.3430  0.3499 -0.3145
  194SOL     OW  580   1.283   2.429   1.728  0.1152  0.0674 -0.2027
  194SOL    HW1  581   1.287   2.512   1.667  1.5093  0.4931  0.1960
  194SOL    HW2  582   1.228   2.451   1.809 -0.1584 -1.5888 -1.7434
  195SOL     OW  583   2.386   0.436   2.762  0.1296  0.5717 -0.5378
  195SOL    HW1  584   2.338   0.526   2.737  0.1802 -1.1727 -1.6807
  195SOL    HW2  585   2.386   0.419   2.866  3.6925 -0.2426  1.7079
  196SOL     OW  586   1.107   2.479   1.938 -0.2069 -0.3576  0.2714
  196SOL    HW1  587   1.059   2.571   1.941 -1.8171 -0.6865  1.6461
  196SOL    HW2  588   1.128   2.452   2.035  0.0335 -0.2509 -0.1313
  197SOL     OW  589   0.876   2.885   0.994  0.1041  0.1822 -0.0997
  197SOL    HW1  590   0.874   2.895   1.095  0.5019  1.8958 -0.0219
  197SOL    HW2  591   0.966   2.906   0.958 -3.0101 -1.4648  1.2097
  198SOL     OW  592   1.004   0.889   0.719 -0.9205 -0.1686 -0.3241
  198SOL    HW1  593   0.949   0.862   0.801  2.3431 -0.6968 -2.0193
  198SOL    HW2  594   0.946   0.906   0.638 -0.4043 -0.7024 -1.8941
  199SOL     OW  595   0.051   2.856   1.927 -0.3343 -0.1388  0.0061
  199SOL    HW1  596   3.098   2.857   1.845 -0.1257  1.4891 -0.9337
  199SOL    HW2  597   0.084   2.762   1.945 -1.9768 -2.0473 -1.1035
  200SOL     OW  598   2.006   1.947   2.225 -0.2604 -0.0383 -0.0134
  200SOL    HW1  599   1.983   1.867   2.277 -2.7816 -2.9288 -1.0605
  200SOL    HW2  600   2.102   1.939   2.188 -0.5357 -1.2588  0.2936
  201SOL     OW  601   0.224   2.163   1.586  0.7729 -1.0532  0.6930
  201SOL    HW1  602   0.144   2.181   1.525  1.1233 -2.9997 -2.3487
  201SOL    HW2  603   0.253   2.252   1.632 -1.1005  5.5989  1.1114
  202SOL     OW  604   2.635   0.167   0.509 -0.3428  0.3608 -0.4206
  202SOL    HW1  605   2.695   0.236   0.467  0.4981  0.7328  0.4854
  202SOL    HW2  606   2.672   0.074   0.503 -2.0605  0.0135  0.1737
  203SOL     OW  607   1.204   2.365   2.186  0.0861 -0.4544  0.0561
  203SOL    HW1  608   1.254   2.292   2.137  0.3383  1.4153 -0.5904
  203SOL    HW2  609   1.266   2.444   2.199  1.6738 -0.5108  0.0102
  204SOL     OW  610   1.158   2.088   1.832  0.0381  0.5709 -0.5225
  204SOL    HW1  611   1.208   2.143   1.904 -0.9174  2.0304 -0.1383
  204SOL    HW2  612   1.214   2.087   1.751 -1.3541  0.2013  1.4564
  205SOL     OW  613   1.334   1.770   1.732  0.2764  0.9578  0.5517
  205SOL    HW1  614   1.377   1.699   1.669  0.3818 -2.0196 -2.0747
  205SOL    HW2  615   1.273   1.718   1.797 -0.8266  1.4746 -0.3022
  206SOL     OW  616   0.334   0.728   2.623 -0.3503  0.5652 -0.2085
  206SOL    HW1  617   0.413   0.664   2.627 -0.9026  0.5415  1.9218
  206SOL    HW2  618   0.312   0.764   2.530  0.1144  1.4843  0.2486
  207SOL     OW  619   0.941   0.098   1.813  0.4986  0.4822 -0.0300
  207SOL    HW1  620   0.893   0.177   1.771 -0.4179  1.0347 -0.8828
  207SOL    HW2  621   1.036   0.108   1.789 -0.8073 -0.7678 -0.7383
  208SOL     OW  622   0.651   2.674   1.716  0.2397  0.5001  0.5249
  208SOL    HW1  623   0.734   2.727   1.728  2.0956 -1.8100 -2.9524
  208SOL    HW2  624   0.662   2.609   1.643 -1.8514  0.8784  3.6813
  209SOL     OW  625   1.257   0.727   3.101  0.5372  0.5504  0.4284
  209SOL    HW1  626   1.350   0.764   3.077 -1.7394  0.1548  3.3503
  209SOL    HW2  627   1.210   0.674   3.028  0.0352  0.4888 -0.2551
  210SOL     OW  628   0.081   0.419   0.700 -0.1218 -0.5045  0.4174
  210SOL    HW1  629   3.087   0.445   0.690  0.8368  0.6632 -1.7575
  210SOL    HW2  630   0.120   0.379   0.612 -2.2104 -0.7264  1.8702
  211SOL     OW  631   0.595   0.504   1.332  0.7888 -0.1928 -0.3954
  211SOL    HW1  632   0.598   0.428   1.267  1.1406  1.5255  0.3345
  211SOL    HW2  633   0.502   0.509   1.381 -3.6946 -1.0131  2.0088
  212SOL     OW  634   1.262   1.620   1.196  0.4926 -0.3116  0.4440
  212SOL    HW1  635   1.205   1.542   1.227  0.6963  0.0476  2.5923
  212SOL    HW2  636   1.287   1.675   1.277 -0.3122  1.3289  0.1598
  213SOL     OW  637   1.872   0.040   1.751  0.9028 -0.3869 -0.4814
  213SOL    HW1  638   1.968   0.068   1.730  1.1327 -0.5070 -1.8371
  213SOL    HW2  639   1.873   3.047   1.781 -2.9791  0.6323  2.6989
  214SOL     OW  640   0.842   2.329   2.474  0.3111  0.7095 -0.1779
  214SOL    HW1  641   0.932   2.371   2.454  1.3480 -1.9934  5.4172
  214SOL    HW2  642   0.793   2.324   2.385  1.2046  0.0708  0.7077
  215SOL     OW  643   2.621   1.629   1.157  0.0005  0.3424 -0.8482
  215SOL    HW1  644   2.652   1.726   1.187 -0.7662  5.0763  2.0635
  215SOL    HW2  645   2.545   1.629   1.086 -1.1278  0.9660  0.8822
  216SOL     OW  646   0.357   0.856   1.931 -0.0081  0.1127  0.3123
  216SOL    HW1  647   0.319   0.790   1.866  1.7720  0.6156 -0.1118
  216SOL    HW2  648   0.327   0.952   1.911  0.6667  1.8432  0.0760
  217SOL     OW  649   2.968   0.211   0.072  0.2864 -0.3210  0.1129
  217SOL    HW1  650   2.987   0.307   0.040  2.8774 -0.3734  1.3540
  217SOL    HW2  651   3.034   0.176   0.145  1.2506  1.0592 -0.5236
  218SOL     OW  652   1.554   1.880   1.245  0.5356  0.1092 -0.3115
  218SOL    HW1  653   1.490   1.841   1.315  1.3671 -1.5009 -2.6722
  218SOL    HW2  654   1.634   1.818   1.239  0.0764  0.3730  1.5036
  219SOL     OW  655   1.581   0.286   0.026 -0.0348  0.3182  0.0223
  219SOL    HW1  656   1.497   0.246   3.083 -0.6374 -2.3380  1.4942
  219SOL    HW2  657   1.591   0.253   0.123 -0.0579  3.3599  1.2023
  220SOL     OW  658   1.629   1.997   0.926  0.7826  0.4137  0.1523
  220SOL    HW1  659   1.683   2.056   0.992  1.5994  3.9495 -0.0857
  220SOL    HW2  660   1.530   2.011   0.950 -1.7368  2.2608  1.0029
  221SOL     OW  661   0.038   0.515   0.256  0.3783 -0.4139 -0.0815
  221SOL    HW1  662   0.118   0.571   0.219 -1.8396 -0.4667 -1.1801
  221SOL    HW2  663   3.083   0.473   0.186  2.1507 -1.4363 -0.3686
  222SOL     OW  664   0.907   2.712   1.509  0.1269  0.0589 -0.2786
  222SOL    HW1  665   0.850   2.761   1.436  1.4674  1.4727 -1.5741
  222SOL    HW2  666   0.948   2.627   1.471  0.0943  1.2369 -1.0535
  223SOL     OW  667   1.192   0.564   2.907 -0.0792  0.9338  0.3482
  223SOL    HW1  668   1.254   0.524   2.837 -0.4015  0.5664  1.9788
  223SOL    HW2  669   1.108   0.505   2.912  0.0966 -0.4594  0.1905
  224SOL     OW  670   2.679   0.374   1.199 -0.1934  0.4406  0.4626
  224SOL    HW1  671   2.661   0.434   1.280  0.8182 -0.6973  1.5374
  224SOL    HW2  672   2.624   0.416   1.121 -0.4876 -1.2436 -0.8520
  225SOL     OW  673   0.725   1.222   1.729 -0.0116  0.1546  0.0310
  225SOL    HW1  674   0.784   1.277   1.669  1.1610 -0.2537  0.1934
  225SOL    HW2  675   0.655   1.174   1.674  0.5888  1.9630  1.6624
  226SOL     OW  676   1.102   3.089   0.620 -0.1748 -0.4166 -0.6823
  226SOL    HW1  677   1.000   3.078   0.614 -3.8273  0.3291 -2.1486
  226SOL    HW2  678   1.150   3.053   0.531  0.4255  0.7320 -3.6233
  227SOL     OW  679   1.039   1.833   1.923  0.4902  0.1990 -0.2137
  227SOL    HW1  680   1.113   1.783   1.965 -1.0810 -2.5215 -0.7894
  227SOL    HW2  681   1.072   1.921   1.889 -0.1489 -0.1211  1.1524
  228SOL     OW  682   0.506   3.085   1.879  0.0045 -0.3186 -0.6597
  228SOL    HW1  683   0.456   0.053   1.824 -3.2132  2.0147  0.9103
  228SOL    HW2  684   0.444   3.007   1.901  2.2121  2.3513  2.3337
  229SOL     OW  685   2.679   0.736   0.313  0.0335 -0.0719  0.3813
  229SOL    HW1  686   2.658   0.776   0.219 -0.6640  1.0055 -2.3905
  229SOL    HW2  687   2.779   0.751   0.332  2.6441  3.5125  2.0264
  230SOL     OW  688   3.103   1.690   1.876 -0.4956 -0.1900  0.7290
  230SOL    HW1  689   0.035   1.771   1.826 -3.4400 -0.6765  3.1023
  230SOL    HW2  690   0.066   1.616   1.877 -0.8024  1.5717 -1.0267
  231SOL     OW  691   0.999   2.982   1.277  0.0846 -0.2688  0.2021
  231SOL    HW1  692   0.912   2.930   1.296 -0.6240  1.3607  0.8269
  231SOL    HW2  693   1.069   2.920   1.237 -0.8892 -1.1353 -0.9158
  232SOL     OW  694   2.281   2.543   0.202 -0.2262  0.2393 -0.3305
  232SOL    HW1  695   2.261   2.586   0.117  1.5195  1.1650  0.9311
  232SOL    HW2  696   2.206   2.481   0.237  1.6042 -1.4277 -0.6873
  233SOL     OW  697   1.206   2.885   3.033  0.3822  0.2209 -0.6804
  233SOL    HW1  698   1.192   2.979   3.068  0.4417 -1.0626 -0.6900
  233SOL    HW2  699   1.137   2.858   2.959  0.8594 -1.9160  1.0166
  234SOL     OW  700   0.622   1.022   2.311 -0.0488 -0.1545  0.7038
  234SOL    HW1  701   0.611   1.004   2.208  0.2823 -0.9896 -0.5158
  234SOL    HW2  702   0.710   1.072   2.312 -1.6754  1.0122  1.1295
  235SOL     OW  703   0.059   2.286   0.043 -0.3964  0.1703  0.2670
  235SOL    HW1  704   0.051   2.389   0.048 -2.4374  3.1109  0.1335
  235SOL    HW2  705   3.075   2.245   0.008 -3.5021 -1.4496  2.8497
  236SOL     OW  706   1.972   2.563   2.593  0.3631  0.3590 -0.2403
  236SOL    HW1  707   2.024   2.501   2.660  3.1155  1.3658  1.2800
  236SOL    HW2  708   1.883   2.521   2.556 -3.9683 -2.3491 -0.0821
  237SOL     OW  709   2.212   1.110   1.303 -0.4725 -0.1105 -0.4911
  237SOL    HW1  710   2.248   1.014   1.301  0.4400  0.8337  3.1063
  237SOL    HW2  711   2.243   1.159   1.387  2.1998  0.9148 -3.3119
  238SOL     OW  712   1.469   0.019   2.373 -0.1435  0.3427  0.3587
  238SOL    HW1  713   1.556   3.095   2.424  1.8661 -2.3756 -1.8821
  238SOL    HW2  714   1.493   0.038   2.274 -0.3272  0.1405 -0.1881
  239SOL     OW  715   1.011   2.038   2.160  0.0048 -0.1181 -0.3883
  239SOL    HW1  716   0.935   2.037   2.228 -0.8738 -0.8042  1.6296
  239SOL    HW2  717   0.979   2.064   2.068  0.6037 -2.4358  3.3732
  240SOL     OW  718   2.938   2.840   0.537 -0.0154 -0.0558  0.4302
  240SOL    HW1  719   3.023   2.820   0.483  0.4251  0.2438 -2.8376
  240SOL    HW2  720   2.954   2.923   0.601  0.8749 -0.9357 -2.9202
  241SOL     OW  721   1.398   2.110   0.000  0.6178 -0.3302 -0.7416
  241SOL    HW1  722   1.392   2.212   0.021 -3.3615 -0.3102  1.4502
  241SOL    HW2  723   1.493   2.071   3.104 -1.4074  2.7129 -2.5527
  242SOL     OW  724   2.099   1.027   0.060 -0.2276  0.3959 -0.9258
  242SOL    HW1  725   2.100   1.075   0.149 -0.0209  1.1681  1.0583
  242SOL    HW2  726   2.167   0.951   0.055 -0.4158 -0.1404  0.9877
  243SOL     OW  727   0.563   0.377   1.975 -0.4447 -0.3569  0.3664
  243SOL    HW1  728   0.515   0.425   1.897 -3.4886  0.4095 -1.2270
  243SOL    HW2  729   0.663   0.390   1.963  2.1132  0.1482 -0.2668
  244SOL     OW  730   1.584   2.506   2.945  0.1080  0.0874  0.4968
  244SOL    HW1  731   1.527   2.572   2.888  3.6571  1.9616 -1.4474
  244SOL    HW2  732   1.660   2.558   2.986 -0.9417 -0.7926  0.1095
  245SOL     OW  733   1.733   3.005   3.009  0.7294  0.5025  0.4186
  245SOL    HW1  734   1.640   3.043   2.984  1.7759  1.5148 -1.0879
  245SOL    HW2  735   1.725   2.954   3.094  0.8664 -1.7813 -0.8671
  246SOL     OW  736   1.389   1.153   2.576 -0.2847  0.0975  0.5534
  246SOL    HW1  737   1.479   1.194   2.549 -4.4275 -0.2557  0.6635
  246SOL    HW2  738   1.317   1.222   2.555 -1.0272 -1.3518 -0.5610
  247SOL     OW  739   3.064   0.487   2.397  0.0586  0.0635  0.4393
  247SOL    HW1  740   3.099   0.580   2.385 -1.3905 -3.1629 -1.2666
  247SOL    HW2  741   3.084   0.433   2.316  0.2194  2.3969 -0.8587
  248SOL     OW  742   0.108   1.427   1.878 -0.4708 -0.0465  0.1361
  248SOL    HW1  743   0.113   1.373   1.794 -1.8079 -0.8696 -0.9132
  248SOL    HW2  744   0.189   1.417   1.937 -0.6434  0.5207 -1.7315
  249SOL     OW  745   2.740   0.497   0.108 -0.3552  0.2207 -0.3234
  249SOL    HW1  746   2.748   0.415   0.163 -0.5184  2.6167 -1.5061
  249SOL    HW2  747   2.720   0.584   0.152  2.2176 -0.2638 -0.5766
  250SOL     OW  748   2.964   0.177   0.509  0.1944 -0.3776 -0.1634
  250SOL    HW1  749   2.893   0.230   0.565 -0.4451  0.2963 -1.3195
  250SOL    HW2  750   2.967   0.078   0.532 -1.9354  0.0886 -0.7533
  251SOL     OW  751   0.786   1.339   2.164  0.3077  0.0468  0.1381
  251SOL    HW1  752   0.838   1.286   2.233  0.7732 -0.8885 -0.8370
  251SOL    HW2  753   0.749   1.279   2.085 -3.6305 -0.3359 -2.9759
  252SOL     OW  754   1.648   1.805   1.593 -0.0025  0.0314  0.3045
  252SOL    HW1  755   1.650   1.901   1.567 -0.2844 -4.1323 -0.7701
  252SOL    HW2  756   1.690   1.748   1.514 -0.7230 -0.0223 -0.8325
  253SOL     OW  757   1.777   2.170   1.879 -0.0527 -0.1547  0.3594
  253SOL    HW1  758   1.795   2.100   1.950  0.1093  0.4313 -1.0741
  253SOL    HW2  759   1.731   2.253   1.919  0.9546  1.9611  1.7247
  254SOL     OW  760   0.700   2.268   2.240  0.2541 -0.2043  0.1524
  254SOL    HW1  761   0.643   2.184   2.209 -2.9090 -0.8949 -1.4642
  254SOL    HW2  762   0.697   2.340   2.161  0.8418 -1.8163 -2.4773
  255SOL     OW  763   1.401   0.515   0.480  0.6842  0.3845 -0.0444
  255SOL    HW1  764   1.356   0.536   0.392  0.9224 -1.4036  1.0068
  255SOL    HW2  765   1.354   0.461   0.549  2.1588  0.1663 -0.9519
  256SOL     OW  766   1.786   2.158   1.087  0.2629 -0.2643  0.1953
  256SOL    HW1  767   1.838   2.183   1.178  3.2859  1.8808  3.5858
  256SOL    HW2  768   1.844   2.167   1.006  1.1752 -1.7676 -0.7327
  257SOL     OW  769   0.344   2.315   2.560  0.4089 -0.4030 -0.0658
  257SOL    HW1  770   0.380   2.221   2.552  2.0608  1.2245 -0.5089
  257SOL    HW2  771   0.248   2.313   2.606 -1.5514  0.9943  0.0991
  258SOL     OW  772   0.364   1.210   2.481  0.3633 -0.4520  0.1237
  258SOL    HW1  773   0.422   1.202   2.563 -0.7688  2.1719  0.2965
  258SOL    HW2  774   0.297   1.283   2.489 -2.4476  1.5553 -2.8137
  259SOL     OW  775   1.227   0.984   2.462  0.2447  0.8418 -0.0961
  259SOL    HW1  776   1.297   1.046   2.505 -1.0566  0.6717  0.3856
  259SOL    HW2  777   1.262   0.949   2.373  0.7497 -0.1028 -1.8098
  260SOL     OW  778   2.262   0.615   0.809  0.3539  0.1411  0.4091
  260SOL    HW1  779   2.227   0.657   0.895  0.1141  2.0765  1.1298
  260SOL    HW2  780   2.209   0.640   0.727  1.7856  0.8739  2.4884
  261SOL     OW  781   0.828   0.436   0.209 -0.3510 -0.2063 -0.2720
  261SOL    HW1  782   0.733   0.448   0.237  4.5293 -0.8526 -0.0011
  261SOL    HW2  783   0.883   0.385   0.278  0.9255  2.8890  1.0419
  262SOL     OW  784   1.968   2.844   2.580  0.0664 -0.4670  0.0146
  262SOL    HW1  785   1.969   2.738   2.589  0.0149 -0.7478  2.4938
  262SOL    HW2  786   1.976   2.865   2.479 -1.2830  0.2404 -1.3099
  263SOL     OW  787   0.785   1.674   2.838  0.2971 -0.0357 -0.3636
  263SOL    HW1  788   0.876   1.692   2.802 -0.0484  0.4951  0.2545
  263SOL    HW2  789   0.719   1.640   2.767  0.2550  0.3245  0.4193
  264SOL     OW  790   0.414   1.593   1.740 -0.1710 -0.2200  0.6172
  264SOL    HW1  791   0.514   1.565   1.734  2.0280 -1.3325 -2.2849
  264SOL    HW2  792   0.397   1.671   1.805  0.3635 -0.5744  0.9020
  265SOL     OW  793   0.867   0.967   0.496  0.1620  0.2895  0.4359
  265SOL    HW1  794   0.849   1.059   0.533 -1.5328  0.2835 -0.8671
  265SOL    HW2  795   0.906   0.984   0.402 -1.0334  3.6043 -0.1696
  266SOL     OW  796   1.747   1.767   0.126  0.2079 -0.2085  0.2298
  266SOL    HW1  797   1.826   1.703   0.136 -1.8162 -1.5257 -0.3423
  266SOL    HW2  798   1.692   1.774   0.211 -0.3291  1.3533 -1.7780
  267SOL     OW  799   2.596   0.348   3.023  0.8921  0.2226  0.9898
  267SOL    HW1  800   2.652   0.396   3.093  0.0834  0.7719  1.4733
  267SOL    HW2  801   2.652   0.317   2.944  1.8080  1.7998  1.1155
  268SOL     OW  802   0.605   0.557   2.908  0.2925  0.6536 -0.1142
  268SOL    HW1  803   0.643   0.570   2.815 -0.4473  0.4305 -1.4812
  268SOL    HW2  804   0.676   0.528   2.974 -0.4120 -1.9195  0.0860
  269SOL     OW  805   1.717   0.540   2.468  0.2538  0.1217  0.4649
  269SOL    HW1  806   1.616   0.530   2.437 -0.7069  0.1358 -0.8155
  269SOL    HW2  807   1.774   0.573   2.392  0.0319  0.8967  4.7847
  270SOL     OW  808   0.998   0.989   2.578  0.4545  0.0902 -0.4395
  270SOL    HW1  809   1.085   0.998   2.526 -2.7342 -1.7625  1.4940
  270SOL    HW2  810   0.997   0.894   2.619 -1.7449 -1.4992  1.9175
  271SOL     OW  811   2.767   1.067   0.036  0.4305  0.3412 -0.0710
  271SOL    HW1  812   2.739   1.028   0.125 -0.9302 -1.8333  0.4989
  271SOL    HW2  813   2.692   1.099   3.080  2.4443  0.8124 -0.8882
  272SOL     OW  814   2.453   1.754   2.759 -0.0920 -0.0853 -0.2985
  272SOL    HW1  815   2.427   1.810   2.680  0.1758 -1.2197  0.7012
  272SOL    HW2  816   2.436   1.657   2.744  1.9281  3.1730 -0.7302
  273SOL     OW  817   0.256   0.237   2.477  0.1092  0.5764  0.3649
  273SOL    HW1  818   0.185   0.183   2.433  1.1227  1.2942  2.5338
  273SOL    HW2  819   0.296   0.305   2.412 -1.1124 -0.4605 -1.4147
  274SOL     OW  820   2.886   3.053   1.498 -0.0663 -0.5605  0.1736
  274SOL    HW1  821   2.850   3.018   1.410 -0.5860 -1.2812  0.0064
  274SOL    HW2  822   2.962   0.015   1.475  0.6960 -0.1535 -1.6529
  275SOL     OW  823   2.052   1.451   0.516 -0.2221  0.2254  0.1573
  275SOL    HW1  824   2.083   1.351   0.509 -0.0860 -0.9405 -0.2133
  275SOL    HW2  825   1.952   1.445   0.541 -0.0542 -1.9903  0.3595
  276SOL     OW  826   0.251   1.384   2.777 -0.2766  0.4276 -0.3588
  276SOL    HW1  827   0.174   1.314   2.782  3.1290 -1.6768 -0.7018
  276SOL    HW2  828   0.272   1.401   2.676 -0.4250 -0.9923  0.9648
  277SOL     OW  829   1.888   2.613   2.029  0.1837 -0.6230  0.1999
  277SOL    HW1  830   1.963   2.679   2.054 -0.2200  1.3026 -0.4785
  277SOL    HW2  831   1.862   2.552   2.106  1.6023  0.8741 -0.2852
  278SOL     OW  832   2.074   0.284   1.505 -0.2086  0.3845  0.2779
  278SOL    HW1  833   2.098   0.250   1.599  0.4004 -0.4956 -1.0894
  278SOL    HW2  834   2.085   0.210   1.436 -1.4545  0.3065  0.7270
  279SOL     OW  835   1.453   1.200   2.990  0.4286 -0.4726  0.1442
  279SOL    HW1  836   1.399   1.148   2.924 -0.8052 -2.0384 -1.9547
  279SOL    HW2  837   1.496   1.140   3.057  1.0541 -0.4217  1.6419
  280SOL     OW  838   0.575   1.774   1.105  0.0267 -0.0655  0.0367
  280SOL    HW1  839   0.591   1.857   1.049  1.2743  2.0283 -0.4912
  280SOL    HW2  840   0.623   1.698   1.060 -1.0741 -0.7542 -1.3020
  281SOL     OW  841   0.275   0.080   2.155 -0.1710  0.4660 -0.4632
  281SOL    HW1  842   0.368   0.120   2.144 -2.6606 -0.3535 -1.2326
  281SOL    HW2  843   0.213   0.096   2.076 -3.0297 -0.3261  0.0864
  282SOL     OW  844   0.057   1.032   1.506  0.1005  0.3640  0.7009
  282SOL    HW1  845   3.082   1.088   1.464 -3.0468  2.4466 -1.1872
  282SOL    HW2  846   0.117   0.999   1.427  0.7199  0.3255  0.3755
  283SOL     OW  847   1.524   2.250   2.525  0.3542  0.2429  0.4367
  283SOL    HW1  848   1.588   2.182   2.557  4.7339 -0.9379 -0.1595
  283SOL    HW2  849   1.449   2.267   2.593  0.8520  0.8932 -0.8872
  284SOL     OW  850   1.837   0.985   0.168  0.2682  0.3153  0.1588
  284SOL    HW1  851   1.829   0.977   0.268  0.3418  1.2414 -0.9653
  284SOL    HW2  852   1.923   0.946   0.127  2.8065 -0.2768 -1.1460
  285SOL     OW  853   3.047   2.863   2.865 -0.2943 -0.3076 -0.4471
  285SOL    HW1  854   0.010   2.828   2.797  0.2043 -1.2299  0.8545
  285SOL    HW2  855   3.074   2.841   2.964 -0.8315  1.5352  3.4677
  286SOL     OW  856   2.081   2.512   1.187  0.4160 -0.0876 -0.2124
  286SOL    HW1  857   2.051   2.476   1.274  3.9922  0.2881 -2.0667
  286SOL    HW2  858   2.060   2.610   1.185  2.5588 -1.3376 -2.0535
  287SOL     OW  859   0.634   0.776   1.283  0.5381 -0.2301 -0.0287
  287SOL    HW1  860   0.631   0.676   1.296  2.0117  1.0887  0.5415
  287SOL    HW2  861   0.659   0.828   1.370 -5.0244  0.9376 -1.6473
  288SOL     OW  862   1.360   2.767   0.119 -0.6773 -0.0463  1.0300
  288SOL    HW1  863   1.454   2.768   0.075  0.5102  1.0024  0.2741
  288SOL    HW2  864   1.291   2.797   0.049 -0.7087 -1.6074 -0.1872
  289SOL     OW  865   3.039   1.903   3.013  0.2746 -0.0141 -0.4892
  289SOL    HW1  866   3.064   1.951   2.930 -0.7538 -1.0181  1.2487
  289SOL    HW2  867   2.945   1.934   3.037 -1.9126 -0.1587  1.6269
  290SOL     OW  868   1.125   2.635   0.778 -0.0167  0.2601 -0.3777
  290SOL    HW1  869   1.038   2.628   0.834  0.3722  0.7268  0.5961
  290SOL    HW2  870   1.160   2.549   0.736 -2.1019  3.2722  0.5573
  291SOL     OW  871   2.237   1.931   0.221  0.4986 -0.1881 -0.0415
  291SOL    HW1  872   2.290   2.022   0.218 -0.4990  2.9597  0.5007
  291SOL    HW2  873   2.141   1.936   0.187  0.1514  0.0505 -0.2138
  292SOL     OW  874   0.775   1.130   1.969 -0.3035 -0.4520  0.3423
  292SOL    HW1  875   0.872   1.092   1.979  2.3512  2.3022  0.4412
  292SOL    HW2  876   0.755   1.172   1.877 -2.0801  0.1466  1.3002
  293SOL     OW  877   2.205   2.680   0.985 -0.4652  0.4872 -0.1696
  293SOL    HW1  878   2.302   2.660   0.972  0.1111  2.3198 -1.3361
  293SOL    HW2  879   2.156   2.609   1.036  1.1794  0.3208  0.1620
  294SOL     OW  880   0.058   0.755   2.333 -0.3840  0.1752 -0.3082
  294SOL    HW1  881   0.100   0.811   2.411  2.5144  0.3024  0.2016
  294SOL    HW2  882   0.132   0.708   2.284  0.7580  1.3488  1.5139
  295SOL     OW  883   0.833   1.769   0.432 -0.2046  0.1219 -0.1527
  295SOL    HW1  884   0.761   1.817   0.487 -0.9645 -1.3357 -0.2760
  295SOL    HW2  885   0.872   1.817   0.351  1.3508 -0.1609 -1.6241
  296SOL     OW  886   2.046   1.868   2.584 -0.2392 -0.7095 -0.8132
  296SOL    HW1  887   2.126   1.824   2.537  1.2287  2.5095 -1.0088
  296SOL    HW2  888   2.038   1.830   2.681  1.8377 -0.4540  0.5157
  297SOL     OW  889   3.005   0.430   2.850  0.1044 -0.9183 -0.5047
  297SOL    HW1  890   3.049   0.426   2.754  2.1757 -0.2388  0.2105
  297SOL    HW2  891   2.930   0.363   2.866  0.0370  1.4510  0.9813
  298SOL     OW  892   0.700   2.019   3.006 -0.2352  0.0696  1.0343
  298SOL    HW1  893   0.725   1.924   3.034  0.9101  0.1720 -1.5822
  298SOL    HW2  894   0.653   2.075   3.082 -4.5245  0.3896  1.5118
  299SOL     OW  895   1.280   2.898   2.647  0.4048  0.1696 -0.2272
  299SOL    HW1  896   1.237   2.911   2.558 -0.4358  2.2670  1.8656
  299SOL    HW2  897   1.320   2.810   2.661 -0.4678  0.1907  1.1162
  300SOL     OW  898   2.772   0.432   0.473  0.5985  0.6616 -0.2203
  300SOL    HW1  899   2.681   0.476   0.507  0.8463  2.7459  2.4303
  300SOL    HW2  900   2.766   0.410   0.374  2.7038  0.3091 -1.0153
  301SOL     OW  901   1.074   0.992   1.735  0.5761 -0.7744 -0.3268
  301SOL    HW1  902   1.037   0.912   1.686 -0.5348 -1.2979  1.6105
  301SOL    HW2  903   1.066   1.076   1.678 -1.0483 -0.6704  0.0889
  302SOL     OW  904   0.053   2.504   2.526 -0.0499 -0.6166  0.2629
  302SOL    HW1  905   0.075   2.421   2.581  1.3506 -3.6607 -1.0187
  302SOL    HW2  906   0.069   2.595   2.572 -0.6682  1.4786  0.5737
  303SOL     OW  907   0.093   0.062   2.341  0.0240  0.6368  0.1789
  303SOL    HW1  908   0.165   0.076   2.278 -0.4492 -0.2411  2.0579
  303SOL    HW2  909   0.008   0.072   2.297  1.6492  2.7176  2.7652
  304SOL     OW  910   2.858   0.314   1.419 -0.8065 -0.3152  0.1612
  304SOL    HW1  911   2.794   0.246   1.466 -3.2926 -0.2910  2.1850
  304SOL    HW2  912   2.827   0.351   1.324 -0.2108  0.0226 -4.2467
  305SOL     OW  913   0.425   2.951   2.188  0.0294  0.5318 -0.1162
  305SOL    HW1  914   0.519   2.962   2.155 -0.6953  1.0782  1.9425
  305SOL    HW2  915   0.371   3.036   2.201  2.6392  1.2537 -0.6290
  306SOL     OW  916   2.572   1.034   1.415  0.5528 -0.1476 -0.8898
  306SOL    HW1  917   2.621   0.983   1.487 -2.0792  1.4819  1.9220
  306SOL    HW2  918   2.636   1.071   1.347 -0.9241 -0.9166  0.9279
  307SOL     OW  919   1.538   0.710   1.130  0.4150  0.0608 -0.6754
  307SOL    HW1  920   1.484   0.656   1.194 -4.2054 -1.1203 -4.0825
  307SOL    HW2  921   1.472   0.777   1.084 -2.1890  2.1963  0.3216
  308SOL     OW  922   0.009   2.138   1.341  0.0037 -0.0771  0.0283
  308SOL    HW1  923   3.080   2.230   1.376 -2.6248  1.0942  2.2990
  308SOL    HW2  924   0.090   2.155   1.278  3.3116  1.3448 -3.1803
  309SOL     OW  925   2.387   1.891   1.519 -0.1742 -0.1040  0.0819
  309SOL    HW1  926   2.417   1.981   1.478  1.5857  0.4661  0.4951
  309SOL    HW2  927   2.465   1.842   1.565 -2.2889 -1.7331 -0.1477
  310SOL     OW  928   2.761   1.624   0.250 -0.0937  0.0164 -0.4762
  310SOL    HW1  929   2.675   1.574   0.219 -1.3383 -0.6873 -0.8275
  310SOL    HW2  930   2.741   1.712   0.299  2.1877 -0.4312  0.7179
  311SOL     OW  931   2.421   2.029   2.986  0.0556 -0.0399  0.6337
  311SOL    HW1  932   2.458   2.076   2.899  2.6955  1.2334 -2.8286
  311SOL    HW2  933   2.363   1.944   2.967 -2.2381 -1.1070  0.9508
  312SOL     OW  934   2.480   1.680   0.929  0.1614 -0.4652  0.3789
  312SOL    HW1  935   2.531   1.761   0.898  1.0145  0.3199 -1.0693
  312SOL    HW2  936   2.510   1.601   0.876  2.2005  0.1840  1.6205
  313SOL     OW  937   2.659   2.380   1.218  0.1831 -0.2759 -0.3787
  313SOL    HW1  938   2.687   2.308   1.282 -2.4674  1.3518 -2.8800
  313SOL    HW2  939   2.682   2.472   1.257 -0.5126 -1.1216  0.2961
  314SOL     OW  940   1.099   2.158   0.634  0.1688  0.2430 -0.5703
  314SOL    HW1  941   1.065   2.180   0.725 -0.5163 -2.0449  0.3243
  314SOL    HW2  942   1.027   2.118   0.574  0.8469  0.2585  0.7017
  315SOL     OW  943   0.519   2.779   2.668 -0.0626 -0.0128  0.2017
  315SOL    HW1  944   0.534   2.833   2.579 -1.1150 -0.4467  1.1547
  315SOL    HW2  945   0.509   2.678   2.649 -0.5317 -0.0169  0.3950
  316SOL     OW  946   0.089   0.877   0.696 -0.0819  0.2348 -0.0117
  316SOL    HW1  947   0.131   0.921   0.614 -0.6386  2.5563 -2.3777
  316SOL    HW2  948   3.098   0.844   0.682 -0.7235  0.1197  1.7478
  317SOL     OW  949   1.855   0.519   0.903 -0.0147 -0.4221 -0.0485
  317SOL    HW1  950   1.847   0.619   0.884  0.1784  1.5174  2.2296
  317SOL    HW2  951   1.941   0.475   0.871 -2.2486  2.6307  2.3939
  318SOL     OW  952   0.111   2.476   0.330 -0.9223  0.1239  0.0225
  318SOL    HW1  953   0.063   2.505   0.245  0.3927 -0.5686  0.2826
  318SOL    HW2  954   0.040   2.460   0.402  1.4805  1.9313  0.1526
  319SOL     OW  955   0.594   1.518   3.008 -0.0643  0.3316 -0.0697
  319SOL    HW1  956   0.670   1.556   2.958 -4.5038 -0.4460  3.1942
  319SOL    HW2  957   0.550   1.585   3.069  1.1962  1.6169 -1.9577
  320SOL     OW  958   0.790   2.847   2.407 -0.1631 -0.3579  0.3292
  320SOL    HW1  959   0.858   2.889   2.473 -0.0472  0.3484  1.2664
  320SOL    HW2  960   0.700   2.872   2.435  4.6854 -0.7274 -1.6508
  321SOL     OW  961   1.464   2.939   2.885 -0.3114 -0.3997 -0.2490
  321SOL    HW1  962   1.402   2.882   2.943  0.1754 -0.3173  1.8200
  321SOL    HW2  963   1.439   2.941   2.782  1.6220 -1.4835 -0.6337
  322SOL     OW  964   2.421   1.473   1.925  0.4795 -0.0303 -0.1288
  322SOL    HW1  965   2.432   1.535   2.005 -0.3910  0.8629 -1.3465
  322SOL    HW2  966   2.452   1.379   1.950 -2.7281 -0.5015 -2.8203
  323SOL     OW  967   2.551   0.592   0.522  0.0697 -0.0813  0.2560
  323SOL    HW1  968   2.452   0.570   0.510  1.2742  0.7566 -0.7402
  323SOL    HW2  969   2.582   0.654   0.446  1.7983  0.0244  0.3906
  324SOL     OW  970   0.187   3.069   2.834 -0.3264 -0.1840  0.1379
  324SOL    HW1  971   0.133   0.020   2.903 -0.2646  1.0983 -0.6553
  324SOL    HW2  972   0.127   3.053   2.750  0.2084 -0.9143 -0.2972
  325SOL     OW  973   1.495   0.348   1.981 -0.2658 -0.3178  0.5126
  325SOL    HW1  974   1.577   0.287   1.995  2.1645 -0.4594 -1.4501
  325SOL    HW2  975   1.412   0.291   1.980  0.3581  1.0017 -0.1581
  326SOL     OW  976   2.537   2.775   1.170 -0.3895 -0.0046 -0.5697
  326SOL    HW1  977   2.528   2.879   1.181 -0.5716 -1.2619 -0.0615
  326SOL    HW2  978   2.521   2.751   1.070  1.8908  0.1676  1.5898
  327SOL     OW  979   1.519   0.496   2.855  0.3215 -0.2140 -0.1287
  327SOL    HW1  980   1.560   0.518   2.947 -1.3553  0.9869  1.1485
  327SOL    HW2  981   1.580   0.434   2.799 -0.8602 -2.5074 -2.1751
  328SOL     OW  982   2.629   1.225   2.459  0.0116 -0.7848  0.3131
  328SOL    HW1  983   2.576   1.240   2.375  0.2437 -1.7033 -1.9404
  328SOL    HW2  984   2.626   1.310   2.521 -1.5478  0.2225  0.5185
  329SOL     OW  985   1.860   2.579   1.755 -0.1539  0.2017  0.1255
  329SOL    HW1  986   1.848   2.592   1.856 -1.2067  0.8874 -0.3146
  329SOL    HW2  987   1.796   2.507   1.717 -1.1090 -0.1006  0.3992
  330SOL     OW  988   2.598   1.769   1.620  0.2718  0.3952  0.5739
  330SOL    HW1  989   2.525   1.756   1.689  1.8621  2.0068 -1.8078
  330SOL    HW2  990   2.692   1.758   1.656 -0.2997  1.2740 -0.7906
  331SOL     OW  991   0.209   1.681   1.498 -0.2781 -0.2347 -0.3676
  331SOL    HW1  992   0.180   1.681   1.401  3.4534 -1.2973 -1.8370
  331SOL    HW2  993   0.214   1.585   1.527  0.4835  0.1935  1.1398
  332SOL     OW  994   0.604   0.178   1.178  0.1591  0.2868 -0.0090
  332SOL    HW1  995   0.708   0.169   1.155  1.4442  0.1614 -0.9863
  332SOL    HW2  996   0.552   0.088   1.163 -2.3218 -1.3321 -1.6599
  333SOL     OW  997   2.034   2.638   2.345  0.1671  0.0085 -0.0808
  333SOL    HW1  998   2.059   2.610   2.440  1.5256 -0.5505  0.2193
  333SOL    HW2  999   2.071   2.733   2.335  0.4665 -1.3766  3.8873
  334SOL     OW 1000   1.031   1.069   1.302 -0.6802 -0.0107  0.3302
  334SOL    HW1 1001   1.043   1.168   1.287 -0.9631 -1.4592 -0.4615
  334SOL    HW2 1002   1.115   1.023   1.262  0.5900 -0.6655  2.4373
  335SOL     OW 1003   0.724   2.678   2.848 -0.1549  0.3798  0.7591
  335SOL    HW1 1004   0.643   2.714   2.799  0.7637 -2.5731 -0.1426
  335SOL    HW2 1005   0.753   2.592   2.799  0.4157 -0.3206  1.6077
  336SOL     OW 1006   2.517   2.628   2.116 -0.0814 -0.2019 -0.2357
  336SOL    HW1 1007   2.563   2.713   2.092 -1.7075 -1.1005  0.8435
  336SOL    HW2 1008   2.524   2.563   2.035 -1.0371  0.3914 -0.7907
  337SOL     OW 1009   2.417   1.540   0.409 -0.1048 -0.1034 -0.2176
  337SOL    HW1 1010   2.479   1.576   0.337 -0.1014  0.1582  2.3237
  337SOL    HW2 1011   2.426   1.608   0.485 -1.1110 -1.5748 -0.8327
  338SOL     OW 1012   1.040   1.746   1.453 -0.6187  0.1237 -0.0156
  338SOL    HW1 1013   1.086   1.829   1.490 -3.3163  0.0404  1.9130
  338SOL    HW2 1014   1.002   1.759   1.359 -0.8411  0.4665 -1.2001
  339SOL     OW 1015   3.018   0.929   2.179  0.9033  1.0286 -0.6666
  339SOL    HW1 1016   3.046   0.856   2.246 -1.9031 -0.6627  2.5108
  339SOL    HW2 1017   3.057   1.021   2.205 -2.1867  0.4348 -1.1747
  340SOL     OW 1018   1.562   2.731   1.346  0.3881  0.2312 -0.3988
  340SOL    HW1 1019   1.627   2.689   1.282 -1.0588  0.3302  0.3074
  340SOL    HW2 1020   1.468   2.686   1.335 -0.3588 -1.2142  2.3883
  341SOL     OW 1021   1.932   1.414   0.939  0.3641  0.3729 -0.0682
  341SOL    HW1 1022   1.935   1.314   0.944  1.3470  0.2847  0.0541
  341SOL    HW2 1023   2.016   1.455   0.974 -0.4628  0.2890 -0.8963
  342SOL     OW 1024   0.202   1.322   0.879 -0.2668 -0.0693  0.0407
  342SOL    HW1 1025   0.281   1.268   0.852 -2.6494 -0.2501 -2.0677
  342SOL    HW2 1026   0.198   1.410   0.824 -1.8363 -0.3721 -0.0736
  343SOL     OW 1027   2.224   0.586   1.404 -0.0394 -0.2081  0.1904
  343SOL    HW1 1028   2.136   0.542   1.437 -0.7682  0.4040  2.8786
  343SOL    HW2 1029   2.209   0.683   1.372 -0.7723  1.0628 -1.9271
  344SOL     OW 1030   2.026   2.825   0.820  0.1011 -0.1363  0.3419
  344SOL    HW1 1031   2.093   2.790   0.889  1.0758 -0.6127  1.2647
  344SOL    HW2 1032   1.927   2.807   0.853 -2.7771  2.4018  3.3975
  345SOL     OW 1033   2.833   2.673   2.855  0.6353 -0.0177 -0.1410
  345SOL    HW1 1034   2.763   2.719   2.793 -0.4369  0.1480  0.2245
  345SOL    HW2 1035   2.912   2.735   2.868 -1.0982  0.5986 -4.0160
  346SOL     OW 1036   2.974   0.747   0.319 -0.0796 -0.3703  0.0233
  346SOL    HW1 1037   2.959   0.751   0.217 -0.1375 -2.0020 -0.8138
  346SOL    HW2 1038   3.050   0.684   0.348  1.0054 -3.4413  2.5866
  347SOL     OW 1039   1.757   2.650   1.177  0.4351 -0.3803 -0.5410
  347SOL    HW1 1040   1.840   2.700   1.209 -1.3130  0.8824 -0.7089
  347SOL    HW2 1041   1.746   2.658   1.075 -1.7673  2.5431 -2.9090
  348SOL     OW 1042   1.545   1.538   2.109  0.0080  0.6699  0.6582
  348SOL    HW1 1043   1.481   1.462   2.079 -0.3136 -0.3701  0.5454
  348SOL    HW2 1044   1.502   1.630   2.077 -0.3108  0.3433 -1.9827
  349SOL     OW 1045   2.468   1.275   2.238 -0.1715  0.4159 -0.5144
  349SOL    HW1 1046   2.380   1.230   2.264  2.1795  0.3391  0.3981
  349SOL    HW2 1047   2.496   1.250   2.147 -1.1260 -0.1469  1.2081
  350SOL     OW 1048   0.285   1.961   1.105 -0.5816 -0.1616 -0.4969
  350SOL    HW1 1049   0.323   1.944   1.200 -1.1859  0.5219  1.0726
  350SOL    HW2 1050   0.216   2.035   1.107  0.1666 -2.7529  1.8651
  351SOL     OW 1051   0.920   0.450   2.202 -0.5457 -0.5661  0.3403
  351SOL    HW1 1052   1.019   0.427   2.211  2.7060 -3.5419 -0.1536
  351SOL    HW2 1053   0.895   0.535   2.254  0.9318  0.5094  1.1088
  352SOL     OW 1054   0.894   2.804   1.759  0.4674  0.3752  0.4059
  352SOL    HW1 1055   0.849   2.898   1.755 -0.8243 -0.9898 -1.5720
  352SOL    HW2 1056   0.909   2.768   1.662  0.3316 -2.0572  0.6271
  353SOL     OW 1057   1.125   1.674   2.519 -0.0072 -0.2027 -0.2907
  353SOL    HW1 1058   1.138   1.578   2.492  1.9394  1.9816  0.9626
  353SOL    HW2 1059   1.046   1.714   2.468 -2.2440  0.9810  0.9545
  354SOL     OW 1060   1.784   1.427   0.624 -0.0304 -0.0967  0.1094
  354SOL    HW1 1061   1.758   1.498   0.692 -2.1479  0.3533  0.7489
  354SOL    HW2 1062   1.766   1.336   0.667  1.6735  0.3704 -1.6321
  355SOL     OW 1063   2.381   0.208   0.590 -0.0395 -0.4293  0.1399
  355SOL    HW1 1064   2.390   0.271   0.674  0.9644  4.3273  0.5265
  355SOL    HW2 1065   2.471   0.192   0.546  0.2392 -2.1384  0.7390
  356SOL     OW 1066   0.096   1.152   2.772  0.2782 -0.6474 -0.2500
  356SOL    HW1 1067   0.040   1.113   2.848 -2.1746 -1.0420  1.2746
  356SOL    HW2 1068   0.045   1.167   2.682 -1.7521  0.9812 -1.7238
  357SOL     OW 1069   3.024   2.898   1.673 -0.1612 -0.5553  0.0566
  357SOL    HW1 1070   2.954   2.942   1.615 -0.9649  0.1894  0.1599
  357SOL    HW2 1071   3.086   2.844   1.615 -0.6209  1.1953  0.1755
  358SOL     OW 1072   2.991   1.345   2.660  0.2968  0.4338 -0.1444
  358SOL    HW1 1073   3.026   1.440   2.655  1.2869 -2.4680 -1.8059
  358SOL    HW2 1074   2.945   1.325   2.751  1.6258 -0.9110 -2.4682
  359SOL     OW 1075   2.533   2.480   2.512 -0.2749 -0.0418 -0.4328
  359SOL    HW1 1076   2.461   2.551   2.518 -0.6085 -3.3744  1.3402
  359SOL    HW2 1077   2.604   2.504   2.441 -0.2804 -1.4046 -3.0108
  360SOL     OW 1078   1.305   1.206   1.023  0.2313  0.2064 -0.0189
  360SOL    HW1 1079   1.229   1.215   0.951 -2.6571  0.9645 -0.7864
  360SOL    HW2 1080   1.324   1.300   1.059  0.2821  2.1542  0.1769
  361SOL     OW 1081   2.316   2.366   0.966  0.3060 -0.2766  0.2899
  361SOL    HW1 1082   2.350   2.370   1.060  1.1959  1.7153 -1.4270
  361SOL    HW2 1083   2.220   2.399   0.962 -0.8257 -0.9103 -0.3769
  362SOL     OW 1084   1.680   1.083   1.148  0.4094  0.0111 -0.0845
  362SOL    HW1 1085   1.779   1.079   1.122  4.3974 -2.3465 -0.8021
  362SOL    HW2 1086   1.618   1.064   1.065 -4.0946  1.0100 -0.2997
  363SOL     OW 1087   2.721   1.853   0.418 -0.5009 -0.1286  0.1090
  363SOL    HW1 1088   2.762   1.938   0.385 -0.6670  0.7744 -0.6326
  363SOL    HW2 1089   2.635   1.879   0.469  0.2214 -4.2827 -0.6250
  364SOL     OW 1090   2.158   0.128   1.726  0.4124 -0.3472 -0.3633
  364SOL    HW1 1091   2.203   0.047   1.688  0.0798  0.5542 -2.1973
  364SOL    HW2 1092   2.223   0.168   1.793 -0.6015 -0.3304  0.7770
  365SOL     OW 1093   0.237   2.526   0.913  0.1952 -0.2686 -0.4107
  365SOL    HW1 1094   0.277   2.497   0.825  3.3504  2.4650  2.0274
  365SOL    HW2 1095   0.138   2.536   0.906  0.8892 -0.9445 -0.8485
  366SOL     OW 1096   3.097   1.058   0.149  0.1304 -0.0141  0.3337
  366SOL    HW1 1097   0.069   1.124   0.133 -0.3287 -1.4389  0.8281
  366SOL    HW2 1098   3.066   1.075   0.243 -0.7687  0.1704 -1.4305
  367SOL     OW 1099   2.281   2.439   2.771  0.0209  0.0912  0.1940
  367SOL    HW1 1100   2.220   2.359   2.757 -0.7935  2.8468 -1.5810
  367SOL    HW2 1101   2.380   2.423   2.773 -1.6890  0.3054 -2.2982
  368SOL     OW 1102   3.035   1.851   1.108 -0.5153 -0.0902  0.5542
  368SOL    HW1 1103   2.974   1.902   1.176 -2.2010  0.6813  2.5248
  368SOL    HW2 1104   3.054   1.901   1.019  0.9603  0.6602 -1.1488
  369SOL     OW 1105   0.858   0.655   0.557 -0.6909  0.6683 -0.3566
  369SOL    HW1 1106   0.782   0.598   0.594  0.8568  0.6595 -0.0552
  369SOL    HW2 1107   0.827   0.746   0.534  0.9618  0.2311  0.7928
  370SOL     OW 1108   0.716   0.174   0.811 -0.2201 -0.7625  0.3308
  370SOL    HW1 1109   0.616   0.195   0.831 -0.9734  0.8641 -0.5821
  370SOL    HW2 1110   0.732   0.182   0.711 -0.6966 -0.4249  1.6453
  371SOL     OW 1111   2.159   1.440   3.090 -0.4036 -0.5997  0.3966
  371SOL    HW1 1112   2.143   1.448   0.087  0.2829  0.9772  0.7627
  371SOL    HW2 1113   2.091   1.490   3.034  2.3227 -1.5886  1.5658
  372SOL     OW 1114   0.307   0.987   2.744 -0.1895 -0.1485 -0.0898
  372SOL    HW1 1115   0.212   1.030   2.750  0.3128  0.2705 -2.3240
  372SOL    HW2 1116   0.301   0.901   2.680 -3.8692  2.7027 -2.4792
  373SOL     OW 1117   2.843   0.786   3.081 -0.4276  0.4525 -0.4640
  373SOL    HW1 1118   2.866   0.883   3.074  2.1032 -0.8723 -0.0112
  373SOL    HW2 1119   2.911   0.733   3.026 -1.1367 -0.3076 -3.6186
  374SOL     OW 1120   0.921   2.172   3.073 -0.3782 -0.7636  0.2802
  374SOL    HW1 1121   0.870   2.120   3.002  0.6117 -1.4346 -0.7202
  374SOL    HW2 1122   0.867   2.259   3.097 -2.1279  3.0424  3.9782
  375SOL     OW 1123   1.245   0.320   0.231 -0.5817  0.4135  0.0021
  375SOL    HW1 1124   1.286   0.412   0.219 -0.3306  2.1461 -0.4249
  375SOL    HW2 1125   1.297   0.261   0.298  1.2929  1.4300  0.7638
  376SOL     OW 1126   0.121   2.605   1.971  0.2465 -0.8419  0.4331
  376SOL    HW1 1127   0.124   2.568   2.068 -0.3458  0.0604  0.5114
  376SOL    HW2 1128   0.027   2.596   1.931 -0.5481  2.2824  0.5777
  377SOL     OW 1129   2.766   2.013   2.900 -0.0973 -0.3094 -0.0105
  377SOL    HW1 1130   2.691   2.075   2.924  2.1071 -2.1877  0.1382
  377SOL    HW2 1131   2.739   1.914   2.921 -0.9958 -2.2923 -1.5898
  378SOL     OW 1132   1.590   0.990   0.522  0.5129  0.1141 -0.2091
  378SOL    HW1 1133   1.549   1.048   0.449  2.9818  0.5417  2.6285
  378SOL    HW2 1134   1.520   0.923   0.550  1.3915 -1.8871  0.5085
  379SOL     OW 1135   1.158   1.544   0.472 -0.4307 -0.0418 -0.1391
  379SOL    HW1 1136   1.079   1.483   0.441 -0.0832 -1.9970  3.8112
  379SOL    HW2 1137   1.143   1.567   0.572 -3.1954 -1.9011 -0.5955
  380SOL     OW 1138   2.076   2.402   1.722  0.3575  0.2918 -0.4341
  380SOL    HW1 1139   2.045   2.307   1.703  1.6990 -0.1096 -0.0303
  380SOL    HW2 1140   2.006   2.476   1.738  1.0128 -0.9914 -0.0725
  381SOL     OW 1141   2.803   1.054   2.066 -0.1903  0.2921  0.3518
  381SOL    HW1 1142   2.893   1.004   2.075 -2.1113 -0.8682  1.1735
  381SOL    HW2 1143   2.750   1.030   1.983 -2.9582  1.4805  0.3683
  382SOL     OW 1144   2.872   2.403   0.223  0.2210 -0.2348 -0.1894
  382SOL    HW1 1145   2.898   2.346   0.143 -2.0159  2.5772 -0.4460
  382SOL    HW2 1146   2.835   2.492   0.191  0.9553  0.5381 -0.1369
  383SOL     OW 1147   1.664   1.329   2.234 -0.1381 -0.0260 -0.3396
  383SOL    HW1 1148   1.751   1.343   2.188 -1.8480  0.2388  2.1607
  383SOL    HW2 1149   1.607   1.397   2.185 -0.0224 -0.1252  1.8163
  384SOL     OW 1150   0.877   2.065   2.558  0.9152  0.1927 -0.4409
  384SOL    HW1 1151   0.867   2.163   2.544 -1.6879 -1.8536  0.4263
  384SOL    HW2 1152   0.937   2.041   2.636  0.1072  0.1486 -0.9340
  385SOL     OW 1153   2.531   2.240   0.611  0.1977 -0.6491  0.2577
  385SOL    HW1 1154   2.559   2.314   0.546 -1.8986 -0.6463 -3.0002
  385SOL    HW2 1155   2.432   2.230   0.613  3.1213  2.6064  0.1229
  386SOL     OW 1156   1.620   1.437   0.311 -0.1140 -0.2211 -0.7556
  386SOL    HW1 1157   1.598   1.497   0.387 -1.0463  2.1936  0.7441
  386SOL    HW2 1158   1.606   1.339   0.343  0.4647  1.2024 -0.9236
  387SOL     OW 1159   2.843   0.753   1.303  0.8939  0.2096 -0.3637
  387SOL    HW1 1160   2.897   0.777   1.388  0.9872  2.6134 -0.8650
  387SOL    HW2 1161   2.908   0.711   1.241  0.1776  0.3224  1.3455
  388SOL     OW 1162   3.004   0.652   1.106  0.4459  0.2190 -0.3325
  388SOL    HW1 1163   3.053   0.711   1.039 -3.2500 -0.7398 -0.2093
  388SOL    HW2 1164   3.069   0.594   1.161  1.2241 -1.9095  2.0529
  389SOL     OW 1165   1.896   1.201   2.574 -0.1665 -0.2498  0.1693
  389SOL    HW1 1166   1.889   1.239   2.667 -1.7529 -0.2468 -1.8837
  389SOL    HW2 1167   1.916   1.273   2.500  1.0065  1.1928 -3.4735
  390SOL     OW 1168   1.417   2.384   0.435  0.5510 -0.6040  0.1853
  390SOL    HW1 1169   1.491   2.462   0.419  1.8743  3.9966 -2.5033
  390SOL    HW2 1170   1.458   2.290   0.444 -2.5406 -1.1920 -1.0393
  391SOL     OW 1171   1.238   2.167   1.180 -0.6578  0.0599 -0.3076
  391SOL    HW1 1172   1.278   2.079   1.156 -0.2033  1.0324 -1.1986
  391SOL    HW2 1173   1.290   2.246   1.146 -0.5207 -0.1241  1.5797
  392SOL     OW 1174   2.413   2.843   1.836 -0.1474 -1.2176 -0.0884
  392SOL    HW1 1175   2.359   2.775   1.790  2.7978  0.0927  0.1896
  392SOL    HW2 1176   2.507   2.835   1.805 -0.5634 -1.3065 -0.0676
  393SOL     OW 1177   1.725   2.440   2.537  0.6341  0.5637  0.2374
  393SOL    HW1 1178   1.682   2.526   2.555  1.2659 -4.2797 -0.9938
  393SOL    HW2 1179   1.653   2.368   2.517 -1.0300 -1.5200  1.2728
  394SOL     OW 1180   0.252   2.881   2.554 -0.6005 -0.1352  0.2167
  394SOL    HW1 1181   0.189   2.957   2.577 -3.4293  1.2508  1.6357
  394SOL    HW2 1182   0.352   2.900   2.528  0.1594  0.7250  0.2941
  395SOL     OW 1183   0.310   1.347   1.139  0.0676  0.3562  0.3955
  395SOL    HW1 1184   0.263   1.345   1.050  2.0682  0.6794  1.5245
  395SOL    HW2 1185   0.406   1.388   1.132 -2.0921 -0.7760 -0.2244
  396SOL     OW 1186   2.127   0.948   2.725 -0.0057 -0.1754  0.0823
  396SOL    HW1 1187   2.072   1.015   2.771  2.4518 -2.3320 -2.2624
  396SOL    HW2 1188   2.108   0.967   2.628  0.3234  0.5538  1.1403
  397SOL     OW 1189   0.077   0.406   2.625  0.6195  0.3767  0.4905
  397SOL    HW1 1190   0.147   0.343   2.591  1.3655 -0.7418 -2.4773
  397SOL    HW2 1191   0.017   0.441   2.549  0.1187 -0.9726 -0.0169
  398SOL     OW 1192   1.865   2.917   0.206 -0.3107  0.5525  0.4581
  398SOL    HW1 1193   1.856   3.013   0.243  0.3666 -0.7689  0.5652
  398SOL    HW2 1194   1.946   2.866   0.234 -1.8160  0.6607 -0.2571
  399SOL     OW 1195   2.276   2.372   1.918  0.0812 -0.1842 -0.4425
  399SOL    HW1 1196   2.258   2.390   2.010 -1.4835 -2.3682 -2.5610
  399SOL    HW2 1197   2.189   2.377   1.868  0.0833  0.7526  1.5707
  400SOL     OW 1198   2.977   1.984   2.218 -0.1445  0.7898  0.0386
  400SOL    HW1 1199   2.985   1.894   2.176 -1.0858 -0.5772  1.8637
  400SOL    HW2 1200   2.896   1.978   2.286 -0.8761 -0.1477  2.3637
  401SOL     OW 1201   0.448   0.710   0.622 -0.5830  0.3502  0.3611
  401SOL    HW1 1202   0.506   0.630   0.652 -1.1433 -0.4984 -1.0372
  401SOL    HW2 1203   0.430   0.771   0.701  0.2055  0.0778  1.3399
  402SOL     OW 1204   0.716   3.042   2.172  0.1801  0.6587  0.3249
  402SOL    HW1 1205   0.769   2.988   2.248  0.4247 -0.8586  1.0298
  402SOL    HW2 1206   0.770   3.050   2.084 -0.3748 -2.7338 -0.8924
  403SOL     OW 1207   2.928   1.447   1.944 -0.2174 -0.3760 -0.3877
  403SOL    HW1 1208   3.025   1.453   1.922 -2.1864 -0.6687  0.9873
  403SOL    HW2 1209   2.911   1.443   2.040  0.4137  1.1906  0.0128
  404SOL     OW 1210   2.880   1.919   2.624 -0.5223  0.3819 -0.1625
  404SOL    HW1 1211   2.826   1.892   2.705  1.5361 -1.6324 -1.4015
  404SOL    HW2 1212   2.895   2.020   2.626  0.1321 -0.8604 -2.4672
  405SOL     OW 1213   2.080   0.185   2.476 -0.2120  0.0553 -0.1479
  405SOL    HW1 1214   2.094   0.129   2.556 -2.3557  0.6583 -0.6038
  405SOL    HW2 1215   2.163   0.190   2.421 -2.2950  0.7385 -0.7816
  406SOL     OW 1216   1.468   1.978   0.297  0.2294 -0.0282  0.0518
  406SOL    HW1 1217   1.482   1.982   0.194  1.8323 -1.6476  0.7926
  406SOL    HW2 1218   1.368   1.973   0.319 -0.9570  1.5282 -1.9830
  407SOL     OW 1219   1.838   1.380   0.133  0.0734  0.1971 -0.1913
  407SOL    HW1 1220   1.782   1.384   0.052  3.3229 -1.0991  1.5891
  407SOL    HW2 1221   1.785   1.400   0.218 -1.7892  1.9249  0.2889
  408SOL     OW 1222   0.280   1.165   1.626  0.2048 -0.3012 -0.4503
  408SOL    HW1 1223   0.231   1.108   1.556  0.2386  0.3159 -0.6467
  408SOL    HW2 1224   0.264   1.125   1.719  1.6633  0.2913  0.3372
  409SOL     OW 1225   2.860   1.275   2.906  0.1737  0.1934 -0.0947
  409SOL    HW1 1226   2.774   1.219   2.925 -1.9129 -0.4395  2.0113
  409SOL    HW2 1227   2.939   1.240   2.965  5.4508  0.5186  1.6082
  410SOL     OW 1228   2.476   1.699   0.621  0.2519 -0.1392  0.5326
  410SOL    HW1 1229   2.579   1.676   0.625  1.6705  0.6616 -2.0234
  410SOL    HW2 1230   2.462   1.798   0.605 -0.3229 -2.6185 -2.1986
  411SOL     OW 1231   0.198   0.334   0.469  0.3703 -0.6420  0.0207
  411SOL    HW1 1232   0.249   0.420   0.448  0.4827  0.2785 -0.5582
  411SOL    HW2 1233   0.119   0.325   0.402  0.2903  0.7687 -2.0968
  412SOL     OW 1234   1.866   0.064   0.303  0.1206 -1.0262  0.3253
  412SOL    HW1 1235   1.895   0.093   0.397 -1.7648  2.2128 -1.3178
  412SOL    HW2 1236   1.859   0.144   0.245  0.3910 -3.1603  3.5277
  413SOL     OW 1237   1.225   0.229   1.734  1.0297 -0.2792  0.0170
  413SOL    HW1 1238   1.287   0.296   1.693 -0.6965  0.4812  0.0982
  413SOL    HW2 1239   1.236   0.145   1.680 -1.9915  1.3747 -0.3115
  414SOL     OW 1240   0.339   1.097   0.274 -0.1667 -0.8966 -0.1327
  414SOL    HW1 1241   0.297   1.076   0.361 -0.7988 -0.5123 -3.2763
  414SOL    HW2 1242   0.406   1.026   0.254 -0.4694  0.5650 -0.7123
  415SOL     OW 1243   2.786   1.414   0.464 -0.1623 -0.2205  0.0310
  415SOL    HW1 1244   2.865   1.386   0.519 -3.1476 -1.1452 -3.5631
  415SOL    HW2 1245   2.806   1.407   0.366  1.4884 -1.0418  3.2941
  416SOL     OW 1246   2.373   0.649   0.203  0.0426  0.0189 -0.0021
  416SOL    HW1 1247   2.290   0.616   0.157 -1.0241 -3.3491  4.0834
  416SOL    HW2 1248   2.455   0.665   0.142  1.0414 -0.7257 -1.8546
  417SOL     OW 1249   2.561   2.500   0.181  0.1088 -0.1753  0.0181
  417SOL    HW1 1250   2.462   2.506   0.212  0.5667 -3.0152 -0.7971
  417SOL    HW2 1251   2.590   2.577   0.122 -0.4276 -0.3451  2.0396
  418SOL     OW 1252   2.997   0.460   0.032  0.2973 -0.1595  0.1155
  418SOL    HW1 1253   2.896   0.482   0.021 -2.1895 -0.8815 -2.1810
  418SOL    HW2 1254   3.049   0.528   3.083  0.7000  0.8547 -0.2189
  419SOL     OW 1255   0.835   0.827   0.911  0.8478 -0.0925 -0.1423
  419SOL    HW1 1256   0.855   0.862   1.007 -0.4938 -1.1070 -2.1031
  419SOL    HW2 1257   0.766   0.748   0.916 -3.3634 -0.1510  0.7480
  420SOL     OW 1258   0.373   0.901   0.818  0.2824  0.1921  0.1405
  420SOL    HW1 1259   0.278   0.894   0.776 -0.7735  0.6763 -0.4491
  420SOL    HW2 1260   0.375   0.844   0.902  1.0316 -1.5222 -1.8739
  421SOL     OW 1261   0.518   1.997   0.383  0.3667 -0.0440  0.2367
  421SOL    HW1 1262   0.546   1.963   0.288  0.7163  1.3504 -2.2070
  421SOL    HW2 1263   0.523   2.102   0.384  2.6779  3.3817 -1.0326
  422SOL     OW 1264   2.820   0.398   1.844  0.1099  0.4812  0.0663
  422SOL    HW1 1265   2.831   0.399   1.947  1.6842  0.8579  0.7499
  422SOL    HW2 1266   2.730   0.373   1.809 -3.4746 -0.6463  0.4739
  423SOL     OW 1267   1.972   2.006   0.089  0.2406  0.2113 -0.6809
  423SOL    HW1 1268   1.938   1.969   0.002  1.9970  0.7879  0.9479
  423SOL    HW2 1269   2.012   2.100   0.077 -0.8257  1.2244  1.0922
  424SOL     OW 1270   1.759   1.816   2.496  0.0269  0.2104 -0.2733
  424SOL    HW1 1271   1.735   1.736   2.434  1.0964 -1.1151 -3.1919
  424SOL    HW2 1272   1.860   1.821   2.509  0.1324 -1.3595  0.5816
  425SOL     OW 1273   3.035   2.991   2.136 -0.4121  0.1492 -0.3172
  425SOL    HW1 1274   3.068   2.939   2.215 -0.0899 -1.5640  0.9103
  425SOL    HW2 1275   3.080   2.961   2.050 -0.4287 -0.0575  2.6581
  426SOL     OW 1276   2.115   2.786   0.311 -0.4783  0.2596 -0.0123
  426SOL    HW1 1277   2.054   2.705   0.303  2.7141 -0.6682  0.7356
  426SOL    HW2 1278   2.209   2.764   0.297  0.0381 -0.6071 -0.6828
  427SOL     OW 1279   0.228   1.435   2.505 -0.4440  0.4046  0.0349
  427SOL    HW1 1280   0.294   1.493   2.451  1.4181  1.3422  0.4384
  427SOL    HW2 1281   0.137   1.476   2.525  0.0303 -2.4313  1.1007
  428SOL     OW 1282   2.273   1.278   2.652 -0.4480  0.0605  0.2936
  428SOL    HW1 1283   2.285   1.194   2.597 -0.6688  1.8773  2.6215
  428SOL    HW2 1284   2.237   1.245   2.742 -1.2632  0.1260 -1.1437
  429SOL     OW 1285   2.466   2.877   0.742 -0.5200  0.0860 -0.5118
  429SOL    HW1 1286   2.544   2.909   0.801 -0.9973  1.5574  0.3526
  429SOL    HW2 1287   2.481   2.892   0.646 -0.5917 -1.1581  1.6213
  430SOL     OW 1288   1.571   1.938   2.252 -0.6200  0.0259 -0.4771
  430SOL    HW1 1289   1.504   1.901   2.189  4.2703  1.9142 -1.5880
  430SOL    HW2 1290   1.548   1.898   2.348 -3.1808 -1.4994  0.1593
  431SOL     OW 1291   3.008   2.080   1.690 -1.1374 -0.1352  0.2159
  431SOL    HW1 1292   2.911   2.080   1.682 -0.0249  3.3188  0.2544
  431SOL    HW2 1293   3.052   2.007   1.639 -0.6099  1.8760  0.8416
  432SOL     OW 1294   1.203   2.128   2.396  0.1637 -0.7786  0.4860
  432SOL    HW1 1295   1.189   2.069   2.313  0.7534  2.4561 -0.0131
  432SOL    HW2 1296   1.155   2.221   2.379  2.6340 -2.3264  0.8030
  433SOL     OW 1297   1.135   2.922   0.865  0.1394 -0.6223 -0.1550
  433SOL    HW1 1298   1.131   2.836   0.814  0.1197  2.1465  3.3104
  433SOL    HW2 1299   1.159   2.998   0.800  0.3536  0.8447  1.4646
  434SOL     OW 1300   0.363   1.946   2.315  0.1103 -0.2345  0.7241
  434SOL    HW1 1301   0.346   1.913   2.410 -0.2008  1.3087  0.5265
  434SOL    HW2 1302   0.315   2.037   2.299 -0.9771  0.6846  0.2151
  435SOL     OW 1303   0.133   1.489   0.585 -0.7046 -0.4094  0.0479
  435SOL    HW1 1304   0.104   1.542   0.502 -3.3955 -1.1031  1.8976
  435SOL    HW2 1305   0.185   1.546   0.658 -0.6407 -1.1681  1.5973
  436SOL     OW 1306   0.663   1.998   1.811  0.7523  0.9439  0.0637
  436SOL    HW1 1307   0.658   1.901   1.852  0.2568 -3.4929 -0.3425
  436SOL    HW2 1308   0.742   2.045   1.858 -1.0580  2.8416  1.8342
  437SOL     OW 1309   1.053   0.679   0.375  0.2908 -0.7870 -0.6857
  437SOL    HW1 1310   0.991   0.648   0.448 -0.8184 -0.9088 -0.9069
  437SOL    HW2 1311   1.100   0.764   0.400  0.1722 -5.2852  1.5845
  438SOL     OW 1312   0.556   1.967   0.878  0.0427 -0.8984 -0.0743
  438SOL    HW1 1313   0.470   1.990   0.928 -1.7417 -2.3459  0.1333
  438SOL    HW2 1314   0.613   2.055   0.856  1.2779  0.6741  1.1519
  439SOL     OW 1315   1.000   2.726   1.991  0.5899  0.0547 -0.4743
  439SOL    HW1 1316   0.942   2.705   2.075  0.5111  0.7133  2.3059
  439SOL    HW2 1317   0.939   2.761   1.914  0.5271 -1.2631 -2.9268
  440SOL     OW 1318   1.709   0.052   1.555  1.1150 -0.4996 -0.1283
  440SOL    HW1 1319   1.788   0.048   1.615 -0.5259  2.0661 -0.5751
  440SOL    HW2 1320   1.714   0.141   1.504 -2.6668  2.7131 -1.1656
  441SOL     OW 1321   0.454   3.104   1.542 -0.3111  0.1833  0.3314
  441SOL    HW1 1322   0.417   3.023   1.593  0.4484 -0.1593 -2.1603
  441SOL    HW2 1323   0.560   0.005   1.535  0.3398  1.1626 -0.7538
  442SOL     OW 1324   2.224   1.915   0.490 -0.2695  0.4069  0.3135
  442SOL    HW1 1325   2.156   1.844   0.520  2.8569  0.7793  1.0676
  442SOL    HW2 1326   2.222   1.911   0.388 -2.0073  2.0891 -0.8942
  443SOL     OW 1327   2.695   0.225   2.498  0.1420  0.1923 -0.2125
  443SOL    HW1 1328   2.594   0.223   2.517 -1.1841 -0.5388 -0.4570
  443SOL    HW2 1329   2.720   0.318   2.460 -2.7287 -0.5149  1.1271
  444SOL     OW 1330   2.072   1.169   1.942  0.5465 -0.2580 -0.0470
  444SOL    HW1 1331   2.151   1.098   1.945  1.9289 -0.9368  1.5139
  444SOL    HW2 1332   2.100   1.264   1.914 -0.5436  0.1333  0.6857
  445SOL     OW 1333   2.775   2.200   1.424 -0.0119 -0.1083  0.2754
  445SOL    HW1 1334   2.813   2.111   1.447 -0.8913  1.6882  2.5737
  445SOL    HW2 1335   2.710   2.233   1.493 -0.0057  1.3840 -0.9663
  446SOL     OW 1336   2.730   1.030   0.576  0.6352 -0.7185  0.1879
  446SOL    HW1 1337   2.695   1.067   0.663 -0.5014 -2.5947  2.7369
  446SOL    HW2 1338   2.724   0.932   0.570  1.4528 -0.5177 -1.7871
  447SOL     OW 1339   1.093   1.777   0.901 -0.6078  0.0436  0.4578
  447SOL    HW1 1340   1.190   1.751   0.907 -2.8076 -1.6495 -1.6041
  447SOL    HW2 1341   1.074   1.793   0.802  1.3402 -4.1576  3.0661
  448SOL     OW 1342   1.370   1.359   1.981  0.3551 -0.5651 -0.0945
  448SOL    HW1 1343   1.404   1.318   1.894  1.1588  0.1452 -0.9972
  448SOL    HW2 1344   1.309   1.296   2.031 -2.2035  1.1933 -0.4094
  449SOL     OW 1345   0.452   1.339   0.401  0.6183  0.0716  0.1749
  449SOL    HW1 1346   0.410   1.412   0.342 -1.4811  1.2683 -1.1332
  449SOL    HW2 1347   0.449   1.251   0.353  0.9410 -1.5224  3.4486
  450SOL     OW 1348   2.564   2.464   1.893  0.2644  0.2881 -0.3828
  450SOL    HW1 1349   2.552   2.488   1.797  0.3053  1.3718  1.8703
  450SOL    HW2 1350   2.467   2.456   1.917  2.6113 -2.5910 -0.3786
  451SOL     OW 1351   1.982   0.270   2.180 -0.0348 -0.5379 -0.6660
  451SOL    HW1 1352   2.004   0.312   2.268 -0.4450 -0.6824 -0.4100
  451SOL    HW2 1353   1.941   0.329   2.109  1.7748 -0.0974 -1.3026
  452SOL     OW 1354   1.092   0.107   1.359  0.5791 -0.2985  0.0057
  452SOL    HW1 1355   1.060   0.025   1.311  1.8596  1.2960 -0.4348
  452SOL    HW2 1356   1.008   0.152   1.405 -1.9574 -1.3104  3.0266
  453SOL     OW 1357   0.987   1.525   0.981  0.1614  0.4830  0.6740
  453SOL    HW1 1358   1.019   1.618   0.969 -1.5404 -0.5069 -1.5286
  453SOL    HW2 1359   0.886   1.523   0.968 -0.5574 -1.2131  1.5021
  454SOL     OW 1360   0.417   1.168   0.808 -0.2317  0.0713 -0.0724
  454SOL    HW1 1361   0.398   1.070   0.823  0.5340  0.2921 -2.2700
  454SOL    HW2 1362   0.394   1.199   0.711  0.6178  1.6956 -3.2483
  455SOL     OW 1363   3.002   2.895   0.202 -0.5109 -0.0371 -0.3673
  455SOL    HW1 1364   3.035   2.832   0.280 -0.6489 -0.5768  1.6529
  455SOL    HW2 1365   3.075   2.896   0.129  1.2355  1.1538  2.5609
  456SOL     OW 1366   2.228   2.129   0.851  0.2649 -0.4704 -0.5071
  456SOL    HW1 1367   2.269   2.213   0.896  0.9919 -2.1164 -2.8391
  456SOL    HW2 1368   2.261   2.053   0.910  1.4845 -1.5841 -1.6008
  457SOL     OW 1369   1.616   0.193   0.265 -0.0364  0.0358 -0.0157
  457SOL    HW1 1370   1.679   0.117   0.297  1.1264  0.1474 -0.3993
  457SOL    HW2 1371   1.531   0.191   0.322 -1.2409  1.3538 -0.0049
  458SOL     OW 1372   2.708   2.997   0.500  0.7475  0.0785 -0.1735
  458SOL    HW1 1373   2.791   2.941   0.513 -0.9066  3.1343 -2.5442
  458SOL    HW2 1374   2.628   2.936   0.479 -1.9871 -0.2092 -0.4205
  459SOL     OW 1375   2.021   0.405   2.629 -0.5710 -0.0856 -0.0310
  459SOL    HW1 1376   1.973   0.392   2.719 -0.7109 -0.4361  1.5066
  459SOL    HW2 1377   2.036   0.317   2.581  0.6470 -1.0793  1.8853
  460SOL     OW 1378   2.708   3.093   3.076  0.0227  0.1380  0.2854
  460SOL    HW1 1379   2.727   0.089   3.077  0.5860  1.6191  0.5181
  460SOL    HW2 1380   2.731   3.066   0.069  0.9755  2.5751 -0.5854
  461SOL     OW 1381   0.811   1.423   1.260 -0.2275 -0.1331 -0.5432
  461SOL    HW1 1382   0.816   1.523   1.278 -0.7649  4.0115 -0.5104
  461SOL    HW2 1383   0.902   1.383   1.234 -2.6230 -1.2677  1.3952
  462SOL     OW 1384   2.664   2.861   1.737 -1.0885  0.0592  0.2160
  462SOL    HW1 1385   2.723   2.821   1.815  1.7865 -0.9819  0.2051
  462SOL    HW2 1386   2.702   2.827   1.652 -3.2015  3.2661  3.1890
  463SOL     OW 1387   2.579   1.161   2.970 -0.3286  0.4462 -0.0076
  463SOL    HW1 1388   2.520   1.241   2.956  2.2165 -3.9412  2.6198
  463SOL    HW2 1389   2.572   1.092   2.894 -2.1202  1.2366  2.3621
  464SOL     OW 1390   0.189   2.494   1.331  0.5161  0.6851  0.3978
  464SOL    HW1 1391   0.261   2.557   1.299 -0.4997 -1.6966  1.3545
  464SOL    HW2 1392   0.124   2.466   1.255  0.2148 -1.0255  0.6238
  465SOL     OW 1393   0.254   1.241   0.570 -0.0582  0.0549 -0.2327
  465SOL    HW1 1394   0.329   1.296   0.531 -1.8044  0.1395 -1.3091
  465SOL    HW2 1395   0.175   1.300   0.588  0.5133 -2.6330 -2.8151
  466SOL     OW 1396   1.201   0.415   2.215 -0.0607 -0.0242  0.0469
  466SOL    HW1 1397   1.227   0.380   2.309 -1.4253 -1.5238  3.0653
  466SOL    HW2 1398   1.241   0.357   2.143 -0.0978  0.9806  2.1918
  467SOL     OW 1399   0.881   0.675   2.356 -0.3082  0.4682 -0.0124
  467SOL    HW1 1400   0.789   0.700   2.393  0.8356  0.5869 -0.6674
  467SOL    HW2 1401   0.939   0.645   2.437  1.8774 -1.0798  1.6999
  468SOL     OW 1402   0.017   1.015   2.514  0.6008 -0.8105 -0.2752
  468SOL    HW1 1403   0.114   1.018   2.486 -1.2803 -0.0279 -0.9496
  468SOL    HW2 1404   3.059   1.078   2.461 -0.6768  1.9992  0.2763
  469SOL     OW 1405   0.249   1.957   0.453  0.1814  0.1503 -0.3926
  469SOL    HW1 1406   0.341   1.965   0.414 -2.9691  0.3942 -1.7143
  469SOL    HW2 1407   0.181   1.998   0.386 -0.8825  0.8689  0.0104
  470SOL     OW 1408   2.796   1.651   2.523 -0.2431 -0.4573 -0.2158
  470SOL    HW1 1409   2.849   1.716   2.581  1.4760 -0.1822  3.6209
  470SOL    HW2 1410   2.836   1.651   2.427  1.7391 -1.8947  0.1956
  471SOL     OW 1411   1.553   0.799   2.280 -0.3419 -0.3640 -0.9602
  471SOL    HW1 1412   1.590   0.702   2.262 -0.6482 -0.0065 -0.6559
  471SOL    HW2 1413   1.568   0.827   2.380 -0.7204 -0.6929  2.0144
  472SOL     OW 1414   0.582   2.739   1.119  0.0279  0.4517 -0.0217
  472SOL    HW1 1415   0.646   2.663   1.134  0.0026  0.4616 -0.3594
  472SOL    HW2 1416   0.591   2.788   1.029 -0.8665 -2.1899 -3.4479
  473SOL     OW 1417   0.762   0.242   2.316  0.5245  0.1076 -0.1980
  473SOL    HW1 1418   0.809   0.323   2.275  1.1595 -1.0482  3.4191
  473SOL    HW2 1419   0.762   0.164   2.253  0.5122  2.3845 -2.2863
  474SOL     OW 1420   1.745   2.912   1.480  0.2796  0.5123  0.6203
  474SOL    HW1 1421   1.711   3.004   1.501  0.9377 -1.1037 -1.4380
  474SOL    HW2 1422   1.673   2.855   1.435  4.9485  3.1790  2.8765
  475SOL     OW 1423   1.941   0.204   1.069 -0.1859  0.4306 -0.1691
  475SOL    HW1 1424   1.926   0.188   0.968 -3.3251  1.5290  0.3076
  475SOL    HW2 1425   1.979   0.297   1.080 -3.3253 -2.5059 -1.1245
  476SOL     OW 1426   0.465   0.821   1.068 -0.1900  0.2054 -0.3341
  476SOL    HW1 1427   0.431   0.916   1.068 -0.0855  1.5495 -1.1278
  476SOL    HW2 1428   0.511   0.797   1.155 -2.8815 -0.3569 -1.3910
  477SOL     OW 1429   1.255   2.643   0.323  0.2693  0.0656  0.3104
  477SOL    HW1 1430   1.284   2.695   0.238  1.2228  1.2178  1.7393
  477SOL    HW2 1431   1.341   2.596   0.359  1.9752  0.3834  1.0211
  478SOL     OW 1432   0.284   2.204   2.294 -0.4662 -0.1069 -0.2084
  478SOL    HW1 1433   0.321   2.241   2.204  1.2317 -2.2977  1.0677
  478SOL    HW2 1434   0.293   2.269   2.370 -0.0244 -3.6068 -0.9864
  479SOL     OW 1435   2.840   0.181   1.080 -0.1590  0.1533 -0.6502
  479SOL    HW1 1436   2.776   0.247   1.126  1.0067 -1.3791 -1.4042
  479SOL    HW2 1437   2.935   0.211   1.096 -2.3613 -0.8319 -0.1825
  480SOL     OW 1438   0.504   2.260   0.364  0.2496 -0.3528 -0.0867
  480SOL    HW1 1439   0.603   2.292   0.361 -1.7516 -3.0763 -1.4856
  480SOL    HW2 1440   0.442   2.338   0.334  1.9789  1.5838 -1.3403
  481SOL     OW 1441   2.180   2.263   1.377 -0.0702  0.3615  0.3377
  481SOL    HW1 1442   2.215   2.190   1.435 -2.8399  0.3248 -0.8910
  481SOL    HW2 1443   2.258   2.298   1.326 -0.6235  0.7916 -0.4839
  482SOL     OW 1444   1.035   2.490   2.807 -0.1615  0.0279  0.0298
  482SOL    HW1 1445   1.108   2.490   2.738  0.7648 -3.0093  3.0317
  482SOL    HW2 1446   1.063   2.439   2.887 -3.3715 -0.4913 -0.5394
  483SOL     OW 1447   0.674   2.517   2.041 -0.3793  0.5595  0.2982
  483SOL    HW1 1448   0.590   2.541   1.992 -0.1822  0.4896  0.8591
  483SOL    HW2 1449   0.739   2.467   1.984 -1.1120 -0.6610  2.2817
  484SOL     OW 1450   1.052   0.566   1.519  0.2019  0.1209  0.0300
  484SOL    HW1 1451   1.036   0.532   1.613  0.0435  0.2673  0.9365
  484SOL    HW2 1452   1.145   0.612   1.513  0.6655  1.9328  0.2863
  485SOL     OW 1453   1.861   0.741   2.632 -0.1974 -0.1130  0.2905
  485SOL    HW1 1454   1.899   0.808   2.567 -1.2702 -0.3877  0.5000
  485SOL    HW2 1455   1.840   0.659   2.576 -1.5228  0.2801 -1.5057
  486SOL     OW 1456   2.479   2.686   0.919 -0.0575 -0.0112  0.2212
  486SOL    HW1 1457   2.521   2.601   0.884 -3.3920  0.3922  1.2893
  486SOL    HW2 1458   2.464   2.759   0.854  0.3071 -1.3056  2.2659
  487SOL     OW 1459   0.957   2.092   1.525 -0.0840 -0.4262  0.1138
  487SOL    HW1 1460   0.972   2.196   1.526 -2.8322  1.8907  1.0477
  487SOL    HW2 1461   0.861   2.072   1.540  1.3111 -1.2172 -1.6494
  488SOL     OW 1462   2.303   1.769   2.983  0.3940 -0.0747 -0.3723
  488SOL    HW1 1463   2.363   1.767   2.898 -0.9969  1.6263  1.8266
  488SOL    HW2 1464   2.344   1.714   3.057 -1.1957  1.5442  0.7620
  489SOL     OW 1465   1.920   3.004   1.282  0.3676 -0.7062  0.6396
  489SOL    HW1 1466   1.974   2.936   1.231 -2.9011  3.2028  4.3025
  489SOL    HW2 1467   1.873   2.952   1.361  1.6182  0.1851 -0.5546
  490SOL     OW 1468   0.956   1.554   0.096  0.2468 -0.2098 -0.5819
  490SOL    HW1 1469   1.028   1.620   0.126 -1.2475  0.1456  4.0161
  490SOL    HW2 1470   0.873   1.571   0.154  0.8585  0.3810 -0.3490
  491SOL     OW 1471   0.434   2.104   1.446 -0.3932  0.3434 -0.4865
  491SOL    HW1 1472   0.345   2.112   1.500 -3.0036  2.3072  0.9928
  491SOL    HW2 1473   0.423   2.028   1.376 -1.1550  1.8998  1.3077
  492SOL     OW 1474   0.867   1.644   1.832 -0.6354  0.5513  0.3011
  492SOL    HW1 1475   0.940   1.585   1.785  0.6366  1.5050 -1.7633
  492SOL    HW2 1476   0.917   1.720   1.877 -1.5281 -1.6811 -2.1426
  493SOL     OW 1477   2.950   2.220   0.871 -0.0082 -0.0916 -0.4499
  493SOL    HW1 1478   2.889   2.178   0.803  1.1188  1.2011 -0.2320
  493SOL    HW2 1479   2.991   2.150   0.934 -0.5476 -0.3005 -1.4859
  494SOL     OW 1480   2.739   2.109   0.715 -0.8208 -0.0697 -0.4378
  494SOL    HW1 1481   2.660   2.169   0.686  1.8917 -0.2718  1.7257
  494SOL    HW2 1482   2.797   2.072   0.645 -0.5808  0.6594  0.0932
  495SOL     OW 1483   2.749   2.964   0.206 -0.0780 -0.3894  0.7045
  495SOL    HW1 1484   2.848   2.940   0.206  0.5691 -1.2498 -0.1509
  495SOL    HW2 1485   2.711   3.008   0.291 -2.1583  1.5259 -0.5344
  496SOL     OW 1486   2.536   3.045   1.204  0.3707 -0.0286 -0.3170
  496SOL    HW1 1487   2.481   3.080   1.120 -3.7910  3.8624 -1.7650
  496SOL    HW2 1488   2.507   3.097   1.289 -0.2879  3.0215 -1.5849
  497SOL     OW 1489   2.525   0.976   2.416 -0.6122 -0.4010 -0.5946
  497SOL    HW1 1490   2.575   1.063   2.433 -0.0098  1.4791  0.4439
  497SOL    HW2 1491   2.502   0.922   2.501 -1.2512  0.4165 -1.0318
  498SOL     OW 1492   2.911   1.963   1.349  0.6019  0.2969  0.3793
  498SOL    HW1 1493   2.944   1.894   1.417  0.0936  3.0366 -0.7879
  498SOL    HW2 1494   2.987   2.031   1.338  1.9684  0.1078 -0.0757
  499SOL     OW 1495   0.776   2.444   2.732 -0.0032  0.1336  0.4321
  499SOL    HW1 1496   0.866   2.451   2.783 -0.6069 -2.5821 -1.4258
  499SOL    HW2 1497   0.796   2.399   2.639 -1.9780 -1.3213 -1.9520
  500SOL     OW 1498   1.787   0.617   0.195 -0.3107  0.8017  0.5091
  500SOL    HW1 1499   1.868   0.671   0.226 -0.9792 -0.9117  1.2964
  500SOL    HW2 1500   1.748   0.569   0.274  2.2788 -0.3598  0.7241
  501SOL     OW 1501   1.461   0.365   1.677  0.5007  0.0806  0.1687
  501SOL    HW1 1502   1.525   0.436   1.641 -0.7190 -3.1518  2.2357
  501SOL    HW2 1503   1.498   0.312   1.759  0.8453  1.0894 -0.0155
  502SOL     OW 1504   2.245   0.625   1.694  0.2510  0.4672 -0.3071
  502SOL    HW1 1505   2.219   0.724   1.696  0.4659 -1.6712 -0.8579
  502SOL    HW2 1506   2.244   0.586   1.599 -1.1130  0.0725 -0.7432
  503SOL     OW 1507   2.368   1.687   2.178  0.1042  0.1473 -0.1296
  503SOL    HW1 1508   2.298   1.619   2.147  1.9372  0.2740  1.2045
  503SOL    HW2 1509   2.338   1.785   2.151 -0.3541  2.1235 -2.6227
  504SOL     OW 1510   1.457   1.222   1.758  0.2673  0.6768 -0.3257
  504SOL    HW1 1511   1.557   1.226   1.783  1.3671 -1.3729 -0.6747
  504SOL    HW2 1512   1.435   1.122   1.747 -1.9566  0.4892  1.8128
  505SOL     OW 1513   0.508   0.689   1.618 -0.0760 -0.0109  0.1027
  505SOL    HW1 1514   0.474   0.624   1.554  4.5157  1.5012  4.4617
  505SOL    HW2 1515   0.561   0.764   1.577 -1.5561  0.9336 -1.8948
  506SOL     OW 1516   0.366   0.411   2.930  0.0892 -0.4393  0.2208
  506SOL    HW1 1517   0.286   0.462   2.896  0.2875  0.0926  0.0207
  506SOL    HW2 1518   0.452   0.466   2.935  2.0825 -1.2534  0.8615
  507SOL     OW 1519   0.577   0.059   0.155  0.4197 -0.0689 -0.5589
  507SOL    HW1 1520   0.509   0.117   0.204  0.7239 -0.8333  1.1927
  507SOL    HW2 1521   0.662   0.110   0.135  0.2721  1.6296 -1.6281
  508SOL     OW 1522   0.869   0.744   1.909 -0.1591 -0.1387  0.5565
  508SOL    HW1 1523   0.788   0.795   1.939  1.5309 -1.1902 -1.5388
  508SOL    HW2 1524   0.933   0.748   1.989  1.3823  1.7487  0.4754
  509SOL     OW 1525   1.368   2.419   1.092  0.2645  0.1549  0.2013
  509SOL    HW1 1526   1.461   2.422   1.136  0.2618  0.0995 -0.7654
  509SOL    HW2 1527   1.377   2.387   0.997  1.9471 -2.2133  2.0376
  510SOL     OW 1528   2.810   1.410   1.503  0.9114 -0.1722  0.1032
  510SOL    HW1 1529   2.878   1.476   1.459 -1.6585  1.9915 -1.7069
  510SOL    HW2 1530   2.722   1.432   1.461  3.5286  1.5935  0.6490
  511SOL     OW 1531   1.190   1.974   1.494 -0.4312  0.5442  0.1818
  511SOL    HW1 1532   1.266   2.030   1.533  2.4756 -1.1456  0.5074
  511SOL    HW2 1533   1.103   2.021   1.517 -1.8929 -0.3305  0.7417
  512SOL     OW 1534   2.969   1.788   0.741  0.1289  0.1797  0.3884
  512SOL    HW1 1535   2.884   1.736   0.720 -1.4602 -2.6203 -2.2419
  512SOL    HW2 1536   3.021   1.810   0.652  0.8824  2.7373 -1.6731
  513SOL     OW 1537   3.094   1.625   3.096  0.1696  0.2674 -0.0282
  513SOL    HW1 1538   3.095   1.716   3.050  1.5010 -1.2755  0.6565
  513SOL    HW2 1539   0.071   1.573   3.073 -2.9171  1.0287 -2.5570
  514SOL     OW 1540   2.313   2.099   2.377 -0.3214 -0.0257  0.1593
  514SOL    HW1 1541   2.218   2.094   2.419 -1.9688 -2.8657  1.9414
  514SOL    HW2 1542   2.357   2.187   2.356 -0.0700  2.1111  0.4947
  515SOL     OW 1543   2.335   0.911   0.742 -0.1997  0.2912  0.7176
  515SOL    HW1 1544   2.313   0.815   0.730  0.7144  0.3492 -2.2076
  515SOL    HW2 1545   2.398   0.923   0.817 -0.3580 -1.5589 -1.1550
  516SOL     OW 1546   2.598   1.906   0.037  0.0428  0.2233  0.0889
  516SOL    HW1 1547   2.529   1.958   3.090  3.0741 -2.3185  2.8460
  516SOL    HW2 1548   2.652   1.847   3.077 -2.1173 -1.3505 -1.5543
  517SOL     OW 1549   0.488   1.256   2.991  0.1260  0.0693 -0.3125
  517SOL    HW1 1550   0.497   1.355   3.014  2.0432 -1.9604 -0.7186
  517SOL    HW2 1551   0.580   1.212   2.990  1.1066 -1.9883 -0.6202
  518SOL     OW 1552   2.875   0.106   2.325 -0.5596 -0.6491  0.0383
  518SOL    HW1 1553   2.801   0.147   2.383  2.1018  1.7280  0.9389
  518SOL    HW2 1554   2.897   0.016   2.364  2.5300 -0.5427 -0.1662
  519SOL     OW 1555   1.656   1.373   2.999 -0.2227 -0.4207 -0.5146
  519SOL    HW1 1556   1.572   1.322   2.981  0.2133 -0.9014  1.8678
  519SOL    HW2 1557   1.641   1.473   3.020 -1.9465  1.1172  0.9412
  520SOL     OW 1558   2.691   2.790   2.463 -0.2580  0.3547  0.2285
  520SOL    HW1 1559   2.616   2.851   2.436  2.3298 -1.4408 -0.4633
  520SOL    HW2 1560   2.711   2.717   2.392  2.5720 -0.2897  2.7718
  521SOL     OW 1561   0.345   1.613   2.319  0.0017 -0.1034 -0.0705
  521SOL    HW1 1562   0.423   1.567   2.278 -0.6040 -0.1687  1.7255
  521SOL    HW2 1563   0.373   1.701   2.361  1.1248  0.0086 -0.6299
  522SOL     OW 1564   1.281   2.802   2.065  0.4516 -0.8221 -0.1414
  522SOL    HW1 1565   1.330   2.721   2.023  0.2894 -0.3357 -0.5968
  522SOL    HW2 1566   1.181   2.806   2.034  1.0215  0.9857 -0.9343
  523SOL     OW 1567   2.567   2.102   1.139 -0.1405 -0.1037 -0.1786
  523SOL    HW1 1568   2.593   2.196   1.109 -3.6694  0.3820 -1.1748
  523SOL    HW2 1569   2.481   2.069   1.089  0.5674  0.7252  0.4603
  524SOL     OW 1570   1.340   2.104   0.736  0.4029  0.1745  0.7247
  524SOL    HW1 1571   1.358   2.003   0.713 -0.0548 -0.5994 -0.3747
  524SOL    HW2 1572   1.254   2.134   0.682 -0.1589  0.4345 -1.6535
  525SOL     OW 1573   2.931   0.509   0.679  0.4617 -0.1610 -0.3718
  525SOL    HW1 1574   2.892   0.507   0.773  0.2906 -2.3206  2.8963
  525SOL    HW2 1575   2.861   0.486   0.609  1.2026 -1.0253  0.4253
  526SOL     OW 1576   1.687   2.926   0.780 -0.0564 -0.2278  0.6976
  526SOL    HW1 1577   1.667   2.947   0.684  0.2698  2.1269 -0.4208
  526SOL    HW2 1578   1.703   3.009   0.838  0.2699  2.2941 -3.0754
  527SOL     OW 1579   2.063   1.805   1.046  0.3450  0.3680  0.2799
  527SOL    HW1 1580   2.088   1.804   0.948  0.5126 -0.2194  2.6652
  527SOL    HW2 1581   2.148   1.829   1.101  2.8260  0.3826  0.8186
  528SOL     OW 1582   2.415   2.821   2.859 -0.7468 -0.3622 -0.0282
  528SOL    HW1 1583   2.428   2.896   2.924 -1.3273 -0.8260 -1.1893
  528SOL    HW2 1584   2.507   2.804   2.819  1.3277  0.4450 -1.1031
  529SOL     OW 1585   1.212   1.384   2.520  0.0091 -0.2051 -0.3180
  529SOL    HW1 1586   1.281   1.442   2.571  1.5679 -3.4563  0.4995
  529SOL    HW2 1587   1.126   1.370   2.570  2.0641  0.5434  0.8528
  530SOL     OW 1588   2.184   0.930   2.217 -0.6931 -0.0217  0.0417
  530SOL    HW1 1589   2.241   0.881   2.151 -1.7770  2.8987  2.6174
  530SOL    HW2 1590   2.087   0.902   2.214 -1.1883  1.9368 -0.5330
  531SOL     OW 1591   0.168   0.878   0.037  0.3227 -0.5486 -0.6271
  531SOL    HW1 1592   0.246   0.943   0.006  2.0989  0.7432 -1.6833
  531SOL    HW2 1593   0.098   0.935   0.083 -1.3416 -2.8625 -0.5718
  532SOL     OW 1594   1.425   1.580   0.510  0.4355  0.3496 -0.0343
  532SOL    HW1 1595   1.455   1.491   0.551 -1.5741 -1.4212 -0.0281
  532SOL    HW2 1596   1.321   1.569   0.499  0.8388 -1.9232 -1.2910
  533SOL     OW 1597   0.227   0.568   2.199  0.1525 -0.6333 -0.1435
  533SOL    HW1 1598   0.273   0.660   2.197  0.2208  2.6671  2.5343
  533SOL    HW2 1599   0.294   0.499   2.235  1.1867  1.6696  1.3998
  534SOL     OW 1600   1.241   0.672   2.459 -0.0274 -0.3970 -0.4067
  534SOL    HW1 1601   1.156   0.639   2.502  0.1983  2.3486 -2.3266
  534SOL    HW2 1602   1.248   0.771   2.474 -0.4884 -1.1368  0.6964
  535SOL     OW 1603   0.556   0.489   0.253  0.0024 -0.0561 -0.2892
  535SOL    HW1 1604   0.515   0.544   0.327 -0.2974  1.4228  0.0623
  535SOL    HW2 1605   0.530   0.536   0.165 -0.9971 -0.0195 -0.0670
  536SOL     OW 1606   0.462   0.627   0.020  0.6740 -0.5833  0.1269
  536SOL    HW1 1607   0.509   0.707   0.067  0.2604  2.0365  0.2302
  536SOL    HW2 1608   0.504   0.612   3.034 -1.2010  0.4135  0.8965
  537SOL     OW 1609   1.486   3.017   1.638 -0.0402 -0.1122 -0.3145
  537SOL    HW1 1610   1.399   3.063   1.623  1.3354  1.4196  1.3847
  537SOL    HW2 1611   1.563   3.082   1.632 -1.5353  0.3781  0.6074
  538SOL     OW 1612   0.271   2.717   3.100 -0.2874 -0.0112  0.5315
  538SOL    HW1 1613   0.293   2.778   3.019  0.0805 -0.6949 -2.5717
  538SOL    HW2 1614   0.287   2.622   3.072 -1.8336  0.1868 -3.3478
  539SOL     OW 1615   2.905   1.278   1.725  0.1948  0.1650  0.3468
  539SOL    HW1 1616   2.869   1.332   1.641 -1.9186 -0.7553 -3.9672
  539SOL    HW2 1617   2.908   1.335   1.809  2.7243  0.6871 -2.8900
  540SOL     OW 1618   2.154   1.789   1.585 -0.3082 -0.5590 -0.4521
  540SOL    HW1 1619   2.255   1.819   1.561 -0.1420 -1.1382 -1.8524
  540SOL    HW2 1620   2.145   1.690   1.561 -1.2279 -1.6963 -0.6641
  541SOL     OW 1621   0.673   2.098   1.564  0.2447  0.0177 -0.2087
  541SOL    HW1 1622   0.587   2.100   1.501 -3.5142 -0.2206 -3.4936
  541SOL    HW2 1623   0.659   2.023   1.635  0.3124 -0.0995  1.7219
  542SOL     OW 1624   2.310   1.002   1.913 -0.0393 -0.3096 -0.4212
  542SOL    HW1 1625   2.281   0.973   1.822 -0.3807 -0.6762  2.2812
  542SOL    HW2 1626   2.338   0.915   1.953 -2.9355  1.8908 -0.6702
  543SOL     OW 1627   0.999   0.410   0.566  0.2563 -0.2114 -0.1531
  543SOL    HW1 1628   0.946   0.494   0.539  1.6132  1.0895  1.1010
  543SOL    HW2 1629   0.977   0.390   0.661  0.8177  0.9160 -3.2253
  544SOL     OW 1630   1.966   1.989   1.441 -0.3085  0.7433  0.5016
  544SOL    HW1 1631   2.026   2.022   1.372 -1.5571  0.6861  2.0326
  544SOL    HW2 1632   2.024   1.936   1.511  2.9055  1.7741  0.7544
  545SOL     OW 1633   1.588   1.353   1.210 -0.1587 -0.0900  0.3302
  545SOL    HW1 1634   1.595   1.250   1.193 -0.2946 -2.4903 -1.9462
  545SOL    HW2 1635   1.680   1.399   1.192  1.2180 -1.9893 -1.8874
  546SOL     OW 1636   0.070   0.120   3.025 -0.1829 -0.0188 -0.4682
  546SOL    HW1 1637   3.095   0.152   3.077  2.5114  0.4427 -0.8671
  546SOL    HW2 1638   0.155   0.179   3.042  0.0901 -2.5393  0.9322
  547SOL     OW 1639   2.197   0.572   0.012 -0.2739 -0.2805 -0.5362
  547SOL    HW1 1640   2.102   0.562   3.081 -0.5555  1.4951  0.6342
  547SOL    HW2 1641   2.256   0.494   3.093 -2.2490  2.7431 -1.9431
  548SOL     OW 1642   2.665   2.155   2.210  0.2751 -0.6427  0.0651
  548SOL    HW1 1643   2.590   2.204   2.256 -0.0121 -0.1952 -1.8419
  548SOL    HW2 1644   2.713   2.088   2.267 -1.1041 -0.4647  0.2688
  549SOL     OW 1645   2.228   2.996   0.851  0.1976 -0.7541  0.1065
  549SOL    HW1 1646   2.290   2.929   0.806  0.1559 -0.5966 -0.1361
  549SOL    HW2 1647   2.137   2.955   0.857 -0.3360 -2.2236  0.3682
  550SOL     OW 1648   2.412   1.187   0.230 -0.2798 -0.4726  0.3122
  550SOL    HW1 1649   2.389   1.107   0.176 -0.2762  1.6209  2.4193
  550SOL    HW2 1650   2.326   1.231   0.259  1.0413  1.3297 -1.8365
  551SOL     OW 1651   1.224   0.002   1.593  0.3395  0.1284  0.1375
  551SOL    HW1 1652   1.187   3.017   1.628  1.2329 -0.1517  0.8278
  551SOL    HW2 1653   1.175   0.025   1.506  1.0239 -2.1547  0.9039
  552SOL     OW 1654   2.894   2.615   3.096  0.4140  0.2372 -0.4202
  552SOL    HW1 1655   2.861   2.632   3.001 -3.3235 -0.2838  3.0433
  552SOL    HW2 1656   2.819   2.655   0.050 -2.0612 -1.6510  0.7219
  553SOL     OW 1657   0.808   3.038   0.629  0.2111  0.4392 -0.1113
  553SOL    HW1 1658   0.753   3.062   0.712  0.9608  1.6348  0.6172
  553SOL    HW2 1659   0.814   2.935   0.611 -1.2226  0.0196 -0.3599
  554SOL     OW 1660   1.972   2.167   1.664  0.2792  0.0753  0.2192
  554SOL    HW1 1661   1.887   2.157   1.722 -1.3277 -0.3246  0.9976
  554SOL    HW2 1662   1.970   2.103   1.581 -0.0201 -1.9444 -1.3380
  555SOL     OW 1663   1.564   2.458   1.829  0.0151 -0.3534  1.0167
  555SOL    HW1 1664   1.589   2.402   1.911  0.7337  3.0179 -0.8714
  555SOL    HW2 1665   1.467   2.456   1.804  2.3215  2.5668 -0.5986
  556SOL     OW 1666   1.789   1.832   0.509 -0.7223 -0.0907  0.5702
  556SOL    HW1 1667   1.746   1.843   0.600 -1.1095  0.2949  0.2783
  556SOL    HW2 1668   1.716   1.804   0.444 -1.0017  1.3877  2.6432
  557SOL     OW 1669   1.355   2.176   1.999  0.4562  0.5788 -0.1261
  557SOL    HW1 1670   1.413   2.111   1.944 -1.6791  1.0065 -0.0254
  557SOL    HW2 1671   1.392   2.205   2.090  0.3633  0.7995  2.6389
  558SOL     OW 1672   0.066   0.370   2.131 -0.0031  0.2601 -0.0135
  558SOL    HW1 1673   0.096   0.299   2.064  0.6737 -1.7841 -0.4472
  558SOL    HW2 1674   0.143   0.438   2.144  2.9165  2.4688  0.0080
  559SOL     OW 1675   2.148   2.747   1.969 -0.2440 -0.2489  0.1313
  559SOL    HW1 1676   2.170   2.695   1.887 -1.0295  0.8904  0.2444
  559SOL    HW2 1677   2.232   2.786   2.014  0.2805 -0.2873 -0.1298
  560SOL     OW 1678   0.355   3.075   0.044  0.4459 -0.3488 -0.7817
  560SOL    HW1 1679   0.456   3.074   0.053 -0.0500 -3.6518 -0.2905
  560SOL    HW2 1680   0.315   0.063   0.014  0.7897  0.0835  2.9357
  561SOL     OW 1681   1.505   1.170   0.316  0.2294  0.2902 -0.3731
  561SOL    HW1 1682   1.524   1.147   0.223  2.0843  2.9207  2.8255
  561SOL    HW2 1683   1.408   1.198   0.335 -1.8779 -0.1810 -2.6635
  562SOL     OW 1684   0.888   1.134   2.362  0.5824  0.0537 -0.1292
  562SOL    HW1 1685   0.826   1.198   2.411 -0.1112 -0.4719 -1.2142
  562SOL    HW2 1686   0.936   1.082   2.430 -0.7930  3.5687 -3.1129
  563SOL     OW 1687   1.741   2.344   2.803  0.2571  0.7220 -0.5967
  563SOL    HW1 1688   1.684   2.400   2.868  2.9118  3.2825 -0.8893
  563SOL    HW2 1689   1.740   2.386   2.711 -1.6369 -1.7797 -1.3504
  564SOL     OW 1690   3.072   1.871   0.488 -0.7492  0.4560 -0.0609
  564SOL    HW1 1691   0.062   1.903   0.513  0.4305 -1.0751  1.0605
  564SOL    HW2 1692   3.007   1.945   0.462 -0.0939 -2.0136 -2.8981
  565SOL     OW 1693   1.080   3.052   2.798  0.1665  0.1031 -0.1127
  565SOL    HW1 1694   1.014   3.031   2.879 -2.3799 -1.7785  1.6915
  565SOL    HW2 1695   1.156   2.984   2.787  0.7013 -1.4954 -1.6665
  566SOL     OW 1696   1.792   2.820   2.800  0.1580  0.0971 -0.3570
  566SOL    HW1 1697   1.867   2.833   2.727 -1.6441 -0.9724 -1.3507
  566SOL    HW2 1698   1.780   2.906   2.851  0.2536 -0.2605  0.9746
  567SOL     OW 1699   2.375   1.248   1.095  0.1726  0.3189  0.1021
  567SOL    HW1 1700   2.320   1.217   1.177  0.0777 -1.9338 -0.7288
  567SOL    HW2 1701   2.351   1.196   1.013 -1.6634  1.3543 -3.8052
  568SOL     OW 1702   2.183   1.244   2.897  0.5868 -0.1199  0.2182
  568SOL    HW1 1703   2.143   1.167   2.956  2.6550 -1.8337  0.7329
  568SOL    HW2 1704   2.194   1.329   2.952  0.6842 -5.3858  0.3850
  569SOL     OW 1705   2.226   1.709   2.456 -0.1029 -0.5525  0.6817
  569SOL    HW1 1706   2.311   1.711   2.403 -3.9766 -1.0891  0.5143
  569SOL    HW2 1707   2.141   1.692   2.399 -0.3288  0.4855 -0.1850
  570SOL     OW 1708   2.952   2.560   1.965  0.1513 -0.0074 -0.5149
  570SOL    HW1 1709   2.965   2.513   2.058 -0.2025 -2.3597  3.3729
  570SOL    HW2 1710   2.920   2.495   1.893  0.6875 -2.0070 -1.3160
  571SOL     OW 1711   0.383   0.205   1.766 -0.5354 -0.0329 -0.0705
  571SOL    HW1 1712   0.385   0.309   1.769  0.2467  3.1596  4.0231
  571SOL    HW2 1713   0.335   0.168   1.685  0.6682  2.3871  1.1682
  572SOL     OW 1714   1.035   2.003   1.048  0.1173  0.5983 -0.1839
  572SOL    HW1 1715   1.063   1.926   0.987 -1.5786 -1.0249 -3.6211
  572SOL    HW2 1716   1.114   2.056   1.084  0.5173  1.4867  0.1327
  573SOL     OW 1717   1.282   0.592   0.239 -0.6388  0.5151 -0.0874
  573SOL    HW1 1718   1.191   0.621   0.274 -1.1762 -0.9047  0.3312
  573SOL    HW2 1719   1.279   0.618   0.139 -0.2770  0.2678 -1.4840
  574SOL     OW 1720   0.585   2.928   0.277  0.0438 -0.1385 -0.1243
  574SOL    HW1 1721   0.608   3.007   0.210  0.6535  1.9557 -0.5979
  574SOL    HW2 1722   0.675   2.882   0.307  3.4599  1.3162 -1.3434
  575SOL     OW 1723   0.126   1.371   1.335  0.4042  0.0588 -0.1648
  575SOL    HW1 1724   0.189   1.396   1.411 -2.1030  0.0285 -3.2781
  575SOL    HW2 1725   0.182   1.358   1.251  0.2831  0.8220 -0.9476
  576SOL     OW 1726   2.566   0.338   1.734  0.3327  0.2724 -0.7519
  576SOL    HW1 1727   2.598   0.279   1.662  2.0969  1.1463  1.1146
  576SOL    HW2 1728   2.500   0.289   1.799 -0.4535 -1.1423 -0.6735
  577SOL     OW 1729   2.824   1.692   1.749 -0.0094 -0.1570 -0.0619
  577SOL    HW1 1730   2.763   1.648   1.822 -2.3288 -2.7334  1.7881
  577SOL    HW2 1731   2.919   1.678   1.781 -0.2627  1.5193 -0.0849
  578SOL     OW 1732   1.209   3.084   2.139 -0.3003  0.2582  0.0592
  578SOL    HW1 1733   1.220   0.019   2.232  0.9474  2.9664  0.0081
  578SOL    HW2 1734   1.242   2.989   2.137 -0.5362  3.8852  0.6785
  579SOL     OW 1735   2.294   1.947   2.139 -0.2837  0.8334  0.1870
  579SOL    HW1 1736   2.339   1.966   2.049 -1.2653 -0.3191  1.9344
  579SOL    HW2 1737   2.316   2.011   2.218  1.5657  2.7245 -1.5657
  580SOL     OW 1738   1.876   1.352   2.083 -0.3545  0.0966 -0.0868
  580SOL    HW1 1739   1.953   1.287   2.065 -1.2354  2.0023  0.6937
  580SOL    HW2 1740   1.880   1.425   2.006 -2.5379  1.0901  0.4241
  581SOL     OW 1741   1.627   1.223   2.491 -0.0539  0.3692  0.3590
  581SOL    HW1 1742   1.642   1.261   2.399 -0.1018  0.6865  1.9146
  581SOL    HW2 1743   1.715   1.226   2.546  0.3417 -2.5316  1.2535
  582SOL     OW 1744   2.909   2.347   1.811  0.2271 -0.2439 -0.4840
  582SOL    HW1 1745   2.963   2.274   1.771 -0.0310  2.3286  1.7824
  582SOL    HW2 1746   2.850   2.305   1.886  1.5682  0.7952  0.4598
  583SOL     OW 1747   1.679   1.171   0.695  0.9536 -0.1946  0.4964
  583SOL    HW1 1748   1.638   1.112   0.623 -1.7902 -2.9291  2.8630
  583SOL    HW2 1749   1.769   1.125   0.725 -2.0124  0.4257 -0.0325
  584SOL     OW 1750   0.788   2.329   0.405 -0.4561  0.4740  0.0481
  584SOL    HW1 1751   0.790   2.393   0.487  0.0827 -0.4529 -0.0558
  584SOL    HW2 1752   0.848   2.359   0.330 -0.3061 -0.0884 -1.5050
  585SOL     OW 1753   0.035   2.587   0.080  0.0772  0.7120  0.5470
  585SOL    HW1 1754   3.038   2.594   0.060 -0.6474  2.7956 -1.0491
  585SOL    HW2 1755   0.086   2.667   0.043 -2.1476  2.0629 -0.4649
  586SOL     OW 1756   2.331   1.075   0.517 -0.1839  0.2708  0.4785
  586SOL    HW1 1757   2.327   1.012   0.597 -0.0918  0.9838  2.5295
  586SOL    HW2 1758   2.404   1.148   0.512 -1.2278  0.2217  3.5457
  587SOL     OW 1759   0.033   1.288   0.334 -0.6095  0.3120 -0.0487
  587SOL    HW1 1760   3.090   1.374   0.294 -2.0271 -0.6467 -1.9577
  587SOL    HW2 1761   3.101   1.262   0.425  1.5111  0.8440 -1.3467
  588SOL     OW 1762   0.459   0.234   0.849  0.3881 -0.5274  0.0667
  588SOL    HW1 1763   0.438   0.196   0.756  0.3743 -0.3933 -0.4969
  588SOL    HW2 1764   0.394   0.195   0.917 -2.1540  1.4340  1.2755
  589SOL     OW 1765   1.456   0.158   0.704  0.4445 -0.6280 -0.7014
  589SOL    HW1 1766   1.381   0.135   0.773  0.2752 -2.3363  0.3197
  589SOL    HW2 1767   1.525   0.221   0.740  0.1260 -0.1020  2.1360
  590SOL     OW 1768   2.597   2.241   0.276 -0.2413 -0.2462 -0.5393
  590SOL    HW1 1769   2.517   2.191   0.237 -1.1673 -1.7409  0.2708
  590SOL    HW2 1770   2.597   2.339   0.240  2.6923 -0.6542 -1.0633
  591SOL     OW 1771   3.091   2.006   1.934 -0.0000 -0.1516 -0.4089
  591SOL    HW1 1772   3.071   2.070   2.011 -0.4942  0.1656 -1.5705
  591SOL    HW2 1773   3.066   2.042   1.842  3.9980  0.5121  1.7873
  592SOL     OW 1774   0.133   1.595   2.141  0.0422  0.3056  0.4517
  592SOL    HW1 1775   0.076   1.674   2.115  0.9646  0.0644 -1.6739
  592SOL    HW2 1776   0.184   1.615   2.223  0.6628 -0.3341 -2.6863
  593SOL     OW 1777   1.392   1.757   1.413 -0.1370  0.1428 -0.5311
  593SOL    HW1 1778   1.323   1.815   1.459  0.7707 -0.3080 -0.7265
  593SOL    HW2 1779   1.413   1.679   1.475 -0.8766  0.7339  1.4899
  594SOL     OW 1780   0.564   1.199   2.700 -0.3355  0.0384 -0.0146
  594SOL    HW1 1781   0.541   1.102   2.708 -0.9186  0.1352 -1.1096
  594SOL    HW2 1782   0.565   1.255   2.790 -0.6398  1.7769  1.4026
  595SOL     OW 1783   1.633   0.706   0.672 -0.4883  0.1943  0.5174
  595SOL    HW1 1784   1.550   0.719   0.611 -1.2724  1.8513 -1.5919
  595SOL    HW2 1785   1.631   0.765   0.754  3.3631  0.1271  0.0796
  596SOL     OW 1786   0.420   1.080   1.127  0.5372  0.4367 -0.6595
  596SOL    HW1 1787   0.523   1.088   1.142  1.0847 -0.1908  0.8418
  596SOL    HW2 1788   0.370   1.168   1.142  0.8588 -0.5540 -1.4392
  597SOL     OW 1789   0.452   2.528   2.359 -0.0849 -0.0061 -0.3249
  597SOL    HW1 1790   0.543   2.549   2.315  0.8613  0.0024 -1.3032
  597SOL    HW2 1791   0.455   2.486   2.452 -1.6764  1.5515  1.9498
  598SOL     OW 1792   2.449   2.320   2.310  0.0956 -0.3654  0.1771
  598SOL    HW1 1793   2.388   2.368   2.245 -1.2713  1.0448  4.0987
  598SOL    HW2 1794   2.471   2.385   2.384  1.2197 -1.2848 -0.9496
  599SOL     OW 1795   1.238   1.241   0.370 -0.6599 -0.1234 -0.4498
  599SOL    HW1 1796   1.169   1.314   0.354 -3.2302  2.7470 -0.7472
  599SOL    HW2 1797   1.250   1.229   0.473  0.9737  3.6785 -2.0239
  600SOL     OW 1798   1.666   0.455   0.397  0.3685 -0.2441 -0.7457
  600SOL    HW1 1799   1.638   0.382   0.332 -1.5563 -2.6275 -0.6704
  600SOL    HW2 1800   1.597   0.473   0.467  1.3557  0.9719 -1.6960
  601SOL     OW 1801   0.625   0.399   1.592  0.2829  0.2791  0.0823
  601SOL    HW1 1802   0.542   0.429   1.649 -3.8856  0.4657 -0.0937
  601SOL    HW2 1803   0.610   0.422   1.495 -1.1927  2.7818  3.7979
  602SOL     OW 1804   0.462   2.276   0.647 -0.3489  0.1890 -0.6384
  602SOL    HW1 1805   0.549   2.254   0.691 -3.5355  0.9726 -2.5356
  602SOL    HW2 1806   0.467   2.239   0.553  1.4843  0.6366  2.0139
  603SOL     OW 1807   1.036   2.954   2.524  0.3874  0.1219 -0.1959
  603SOL    HW1 1808   1.048   2.981   2.623  0.9026  2.3752  0.9246
  603SOL    HW2 1809   1.097   3.013   2.467 -2.5560 -0.7468  1.1676
  604SOL     OW 1810   0.829   2.407   0.046 -0.3049 -0.8489  0.0222
  604SOL    HW1 1811   0.893   2.415   0.126  0.1999  0.1250 -1.4394
  604SOL    HW2 1812   0.775   2.494   0.031 -1.7905 -1.6452 -1.3040
  605SOL     OW 1813   1.701   1.456   1.653  0.5954  0.3346 -0.0669
  605SOL    HW1 1814   1.740   1.472   1.744 -1.1475 -0.9007 -1.4678
  605SOL    HW2 1815   1.717   1.360   1.626  0.6560  0.6519  2.2842
  606SOL     OW 1816   0.961   1.169   2.761  0.2557  0.4187  0.1589
  606SOL    HW1 1817   0.948   1.105   2.684 -0.1116  1.5945 -0.0257
  606SOL    HW2 1818   0.953   1.270   2.734  0.4220 -1.4190 -0.3505
  607SOL     OW 1819   0.861   0.916   1.166  0.6314 -0.3695 -0.1803
  607SOL    HW1 1820   0.811   0.834   1.201  0.8810 -0.0366 -1.4160
  607SOL    HW2 1821   0.932   0.946   1.231 -1.8925 -1.3854 -2.8693
  608SOL     OW 1822   2.713   2.229   1.955  0.4579 -0.9798  0.1139
  608SOL    HW1 1823   2.663   2.320   1.940 -2.0250  0.8965 -1.8970
  608SOL    HW2 1824   2.699   2.196   2.051 -0.3797  2.5632  0.6494
  609SOL     OW 1825   2.244   0.077   3.103 -0.0385 -0.4660 -0.5602
  609SOL    HW1 1826   2.246   0.133   0.086  0.3058  0.9074  1.4616
  609SOL    HW2 1827   2.235   3.082   0.024  1.1814 -2.8116  0.2626
  610SOL     OW 1828   0.377   2.415   1.709  0.4156 -0.6452  0.2395
  610SOL    HW1 1829   0.381   2.480   1.789  1.5172  0.7642  2.3340
  610SOL    HW2 1830   0.462   2.425   1.655 -0.6055  1.2313 -0.4572
  611SOL     OW 1831   1.454   1.514   1.045 -0.6308  0.2443  0.0652
  611SOL    HW1 1832   1.379   1.568   1.089 -0.4970  0.8757 -0.9651
  611SOL    HW2 1833   1.497   1.453   1.117  2.3883  1.1193  1.9181
  612SOL     OW 1834   0.520   0.161   2.130  0.2999 -0.2378 -0.4401
  612SOL    HW1 1835   0.537   0.241   2.070  0.5540  1.0191  4.8743
  612SOL    HW2 1836   0.576   0.080   2.122 -1.3080  1.4449  2.0794
  613SOL     OW 1837   2.658   1.062   0.312  0.2018 -0.0856 -0.0970
  613SOL    HW1 1838   2.577   1.117   0.279 -0.9010  0.5031  0.8372
  613SOL    HW2 1839   2.690   1.094   0.399  0.0100  1.1699 -2.7331
  614SOL     OW 1840   1.746   0.213   1.949 -0.4485  0.1703  0.2759
  614SOL    HW1 1841   1.778   0.151   1.874  0.4531  2.9520 -2.3940
  614SOL    HW2 1842   1.814   0.288   1.965 -1.7181 -1.5926  1.9193
  615SOL     OW 1843   0.860   1.387   1.565 -0.8287 -0.0477  0.0344
  615SOL    HW1 1844   0.948   1.447   1.582  0.7432  1.6719 -1.4035
  615SOL    HW2 1845   0.846   1.390   1.462  0.8341  2.6658 -4.7564
  616SOL     OW 1846   1.651   2.025   3.097  0.0824 -0.5347 -0.5541
  616SOL    HW1 1847   1.685   1.952   0.057 -2.8635  1.2250 -0.6446
  616SOL    HW2 1848   1.725   2.074   3.045  1.4891 -1.2061  2.3848
  617SOL     OW 1849   2.198   0.055   0.444 -0.2649  0.3931  0.7811
  617SOL    HW1 1850   2.146   3.082   0.479  0.9813 -0.0158  0.7361
  617SOL    HW2 1851   2.252   0.106   0.516 -0.5401  0.6280  1.0576
  618SOL     OW 1852   0.656   0.801   2.464 -0.1232  0.3487  0.3462
  618SOL    HW1 1853   0.661   0.835   2.559  1.1225 -0.8147 -1.1503
  618SOL    HW2 1854   0.599   0.867   2.408 -2.1893  0.7784  1.6354
  619SOL     OW 1855   2.316   1.363   0.756  0.5162 -0.0758 -0.7612
  619SOL    HW1 1856   2.405   1.412   0.784  1.1967  2.6755 -2.3871
  619SOL    HW2 1857   2.330   1.336   0.660  3.1360 -1.1584 -0.2942
  620SOL     OW 1858   2.272   2.676   3.051 -0.1643 -0.2199 -0.0173
  620SOL    HW1 1859   2.212   2.593   3.026  2.6853 -1.9782 -1.1345
  620SOL    HW2 1860   2.304   2.734   2.970  1.3130  1.9684 -0.9017
  621SOL     OW 1861   2.434   1.438   3.039 -0.4722  0.3494 -0.3967
  621SOL    HW1 1862   2.341   1.420   3.075 -0.4381  0.5051 -1.0587
  621SOL    HW2 1863   2.493   1.450   0.014 -3.1798  0.6586  0.0610
  622SOL     OW 1864   1.386   2.553   2.224  0.0280  0.2235  0.0083
  622SOL    HW1 1865   1.354   2.615   2.302  2.2031 -1.5069  0.3317
  622SOL    HW2 1866   1.480   2.574   2.210 -2.1163 -1.4668  0.5510
  623SOL     OW 1867   0.740   1.579   0.269 -0.1087 -0.7438  0.2005
  623SOL    HW1 1868   0.772   1.654   0.333 -1.8316  0.7729 -0.6497
  623SOL    HW2 1869   0.662   1.614   0.211 -1.2184  0.4616  1.3429
  624SOL     OW 1870   0.300   0.234   0.003  0.0022  0.0275 -0.3381
  624SOL    HW1 1871   0.317   0.263   0.097 -2.6715 -0.1063 -1.0734
  624SOL    HW2 1872   0.324   0.311   3.043 -1.4028 -2.7680  1.7404
  625SOL     OW 1873   0.564   1.640   0.665 -0.2483  0.7418 -0.2160
  625SOL    HW1 1874   0.588   1.570   0.596 -1.2023  1.0364 -2.6309
  625SOL    HW2 1875   0.614   1.727   0.648 -0.4740 -0.1412 -0.0987
  626SOL     OW 1876   2.662   2.824   2.724  0.6084  0.0769  0.4317
  626SOL    HW1 1877   2.668   2.798   2.626 -1.8265  0.1127  0.0735
  626SOL    HW2 1878   2.715   2.910   2.738 -1.0030  0.4033 -0.7459
  627SOL     OW 1879   1.357   1.519   2.695 -0.0533 -0.3034 -0.0499
  627SOL    HW1 1880   1.411   1.604   2.704 -3.7719 -0.9394  4.1926
  627SOL    HW2 1881   1.343   1.481   2.786 -2.7077 -1.2996 -1.1657
  628SOL     OW 1882   0.447   0.392   2.295  0.0836  0.7245  0.4224
  628SOL    HW1 1883   0.477   0.323   2.221 -0.5022 -0.4937 -0.3619
  628SOL    HW2 1884   0.484   0.360   2.383 -0.3570 -2.0116 -0.5122
  629SOL     OW 1885   0.320   2.869   1.940 -0.1458 -0.4993 -0.2765
  629SOL    HW1 1886   0.222   2.880   1.931  0.9326 -1.8188 -0.0605
  629SOL    HW2 1887   0.353   2.889   2.038 -0.0558  2.1406 -0.1731
  630SOL     OW 1888   1.687   1.203   1.897 -0.4302  0.5229  0.0637
  630SOL    HW1 1889   1.701   1.105   1.870  1.0591 -0.7098  0.1847
  630SOL    HW2 1890   1.753   1.231   1.970 -0.3841  1.1235  0.2015
  631SOL     OW 1891   2.249   0.905   0.313  0.5674 -1.2304 -0.0523
  631SOL    HW1 1892   2.329   0.861   0.272 -0.1121  2.6051 -1.4495
  631SOL    HW2 1893   2.277   0.972   0.377 -3.1019  1.0338  1.0592
  632SOL     OW 1894   2.243   0.332   2.102  0.4683  0.0922 -0.6578
  632SOL    HW1 1895   2.314   0.331   2.176 -0.1711  0.1127 -0.2288
  632SOL    HW2 1896   2.152   0.297   2.133  0.6320 -0.0891 -2.6834
  633SOL     OW 1897   0.801   2.757   0.287  0.4380  0.1000  0.2484
  633SOL    HW1 1898   0.879   2.713   0.334 -1.8362 -0.2115 -2.2833
  633SOL    HW2 1899   0.786   2.709   0.198  0.5749  0.2924 -0.9940
  634SOL     OW 1900   1.418   2.645   2.765  0.1801  0.7499  0.1502
  634SOL    HW1 1901   1.346   2.593   2.709 -0.7339 -0.2420 -3.2018
  634SOL    HW2 1902   1.499   2.674   2.702  0.4689 -0.4609  0.6816
  635SOL     OW 1903   2.332   0.352   3.027  0.2721  0.0694  0.1338
  635SOL    HW1 1904   2.434   0.335   3.033  2.0560 -0.8858  0.3101
  635SOL    HW2 1905   2.284   0.260   3.023 -2.0088 -3.2430 -1.2184
  636SOL     OW 1906   0.683   1.019   0.771 -0.0290 -0.0153 -0.5646
  636SOL    HW1 1907   0.590   1.040   0.803 -0.7735 -0.5855  0.9226
  636SOL    HW2 1908   0.741   0.951   0.826  2.5438  0.2320 -0.9202
  637SOL     OW 1909   0.258   2.064   0.736  0.5392 -0.1400 -0.0796
  637SOL    HW1 1910   0.324   2.138   0.726  0.6640 -2.1089  0.6747
  637SOL    HW2 1911   0.259   1.998   0.660 -3.4724 -0.5591 -2.3476
  638SOL     OW 1912   0.727   0.063   2.933 -0.0995 -0.3566  0.4728
  638SOL    HW1 1913   0.727   3.064   2.935 -0.8793 -3.5742  0.7551
  638SOL    HW2 1914   0.759   0.107   3.021  1.9009  0.3060 -1.1859
  639SOL     OW 1915   1.572   1.748   0.352 -0.4917  0.1785  0.9341
  639SOL    HW1 1916   1.531   1.689   0.425  1.0039 -0.6173 -0.8616
  639SOL    HW2 1917   1.526   1.838   0.335  2.1090  0.6260  1.4652
  640SOL     OW 1918   1.783   2.709   0.892  0.2886 -0.2395 -0.1651
  640SOL    HW1 1919   1.745   2.615   0.872  1.0364  1.0986 -0.1225
  640SOL    HW2 1920   1.730   2.780   0.842 -0.6532 -0.9588  0.1624
  641SOL     OW 1921   0.082   2.796   0.404  0.1492 -0.6794 -0.2139
  641SOL    HW1 1922   0.121   2.884   0.376  0.3688  0.7410  0.5003
  641SOL    HW2 1923   0.145   2.731   0.451 -0.5975 -1.2567  2.2994
  642SOL     OW 1924   0.856   0.325   1.712  0.7145  0.3144 -0.0054
  642SOL    HW1 1925   0.762   0.360   1.683 -2.6974 -2.1460  1.7957
  642SOL    HW2 1926   0.882   0.376   1.792  0.2887  0.2719  0.7871
  643SOL     OW 1927   0.548   2.054   2.157  0.0303 -0.1964  0.0029
  643SOL    HW1 1928   0.472   2.014   2.216  0.7818  1.6412  1.5832
  643SOL    HW2 1929   0.528   2.030   2.063  0.7285 -1.2788  0.7183
  644SOL     OW 1930   0.787   2.756   0.583  0.1192  0.4660 -0.3816
  644SOL    HW1 1931   0.705   2.727   0.640 -0.6043 -0.5789 -0.1770
  644SOL    HW2 1932   0.761   2.759   0.484  1.2885 -0.1035  0.2027
  645SOL     OW 1933   0.994   1.825   0.195 -0.3201  0.0711 -0.7016
  645SOL    HW1 1934   1.017   1.921   0.164  2.0730 -1.4883  1.5605
  645SOL    HW2 1935   1.074   1.762   0.195 -2.0214 -1.7934  0.6426
  646SOL     OW 1936   0.170   1.259   0.110  0.3022 -0.2618  0.4327
  646SOL    HW1 1937   0.245   1.187   0.110  2.1185 -3.2723  2.0641
  646SOL    HW2 1938   0.132   1.282   0.201 -1.7505 -0.3362  1.8649
  647SOL     OW 1939   1.117   0.111   1.076 -0.3711 -0.0440 -0.2608
  647SOL    HW1 1940   1.176   0.181   1.110 -0.1904  0.0495 -2.1330
  647SOL    HW2 1941   1.141   0.024   1.122  1.1737  1.7864  0.2339
  648SOL     OW 1942   2.702   0.016   1.827  0.0014 -0.0030 -0.5016
  648SOL    HW1 1943   2.793   0.037   1.863 -0.5558  0.0324  0.3696
  648SOL    HW2 1944   2.699   3.031   1.778  0.9795 -2.6044  0.6645
  649SOL     OW 1945   0.644   1.995   2.743 -0.1338  0.6130 -0.3134
  649SOL    HW1 1946   0.726   1.994   2.684  2.6235 -0.4234  1.3490
  649SOL    HW2 1947   0.672   2.028   2.840  0.9188  0.8805  1.7538
  650SOL     OW 1948   0.095   1.857   1.661  0.2422  0.6650  0.2350
  650SOL    HW1 1949   0.153   1.934   1.690 -0.6829 -1.9148  0.4091
  650SOL    HW2 1950   0.146   1.801   1.596 -0.7803 -0.4812 -0.1375
  651SOL     OW 1951   0.791   0.198   0.096 -0.3237 -0.3611  0.2989
  651SOL    HW1 1952   0.885   0.177   0.072  0.1223  0.7575 -2.2768
  651SOL    HW2 1953   0.797   0.288   0.145 -0.4481  0.2012 -0.3302
  652SOL     OW 1954   2.752   2.053   0.188 -0.1223 -0.6813  0.5549
  652SOL    HW1 1955   2.690   1.990   0.138  0.5277  0.6067  2.4729
  652SOL    HW2 1956   2.700   2.139   0.220 -2.3333  2.5547  1.7319
  653SOL     OW 1957   0.068   0.185   0.860 -0.1472 -0.1517 -0.5821
  653SOL    HW1 1958   0.070   0.096   0.813 -0.4382 -0.5423 -0.2571
  653SOL    HW2 1959   0.057   0.257   0.789  1.6834  0.2455  0.9521
  654SOL     OW 1960   1.694   0.098   2.666 -0.2214  1.2105  0.6706
  654SOL    HW1 1961   1.690   0.198   2.656 -0.3609  1.9716 -3.6364
  654SOL    HW2 1962   1.694   0.056   2.574  1.9451  1.2184 -0.7763
  655SOL     OW 1963   0.760   2.516   1.175  0.1935 -0.0709  0.4099
  655SOL    HW1 1964   0.846   2.497   1.222  0.5287 -2.1768  1.0123
  655SOL    HW2 1965   0.685   2.450   1.198 -2.5792 -1.1707  0.7513
  656SOL     OW 1966   0.147   0.439   1.668 -0.2326  0.3499 -0.3382
  656SOL    HW1 1967   0.059   0.484   1.696  0.0192 -0.7385  3.0023
  656SOL    HW2 1968   0.124   0.345   1.632 -2.4651 -2.2458 -0.5496
  657SOL     OW 1969   2.515   0.576   1.937  0.5971  0.2852 -0.4088
  657SOL    HW1 1970   2.578   0.599   2.017  0.0765  0.5289  2.7797
  657SOL    HW2 1971   2.532   0.482   1.906 -1.0095  2.2093 -0.4640
  658SOL     OW 1972   2.251   1.551   1.220 -0.6307  0.0281 -0.1169
  658SOL    HW1 1973   2.302   1.487   1.163 -4.6989  0.1766  1.1992
  658SOL    HW2 1974   2.191   1.604   1.160 -3.0958 -0.5132  1.0078
  659SOL     OW 1975   2.475   3.072   2.951 -0.0682  0.6853 -0.2627
  659SOL    HW1 1976   2.391   0.015   2.985 -0.1587  0.3080  0.7882
  659SOL    HW2 1977   2.561   3.098   3.002  1.4886 -0.1067  0.0754
  660SOL     OW 1978   1.332   1.450   3.023  0.0814 -0.6202  0.2149
  660SOL    HW1 1979   1.365   1.510   3.097  1.4411  1.5043  0.8378
  660SOL    HW2 1980   1.372   1.359   3.041  0.4113 -2.2635 -0.7093
  661SOL     OW 1981   2.834   2.471   0.868 -0.0691  0.3228  0.1291
  661SOL    HW1 1982   2.880   2.388   0.902 -1.2170  0.3854  1.0019
  661SOL    HW2 1983   2.732   2.455   0.867 -0.6273  0.2821 -2.8269
  662SOL     OW 1984   0.621   0.787   0.161 -0.2689 -0.3017  0.1875
  662SOL    HW1 1985   0.714   0.752   0.179 -1.6157  3.1144 -0.0955
  662SOL    HW2 1986   0.601   0.845   0.242 -0.3628  1.0462 -0.5038
  663SOL     OW 1987   1.055   2.092   0.180  0.1465  0.0983  0.3044
  663SOL    HW1 1988   1.108   2.181   0.208  3.8358  1.1680  1.7083
  663SOL    HW2 1989   1.004   2.113   0.093  2.0032 -0.0567 -0.6152
  664SOL     OW 1990   0.849   2.361   1.563 -0.7939 -0.4205 -0.0809
  664SOL    HW1 1991   0.846   2.448   1.512  0.1312 -0.4017 -1.8242
  664SOL    HW2 1992   0.765   2.307   1.534 -0.6255  1.7884  2.1932
  665SOL     OW 1993   2.356   2.188   1.708  0.4847 -0.2994  0.0141
  665SOL    HW1 1994   2.326   2.242   1.791 -1.3043  1.0374 -2.5694
  665SOL    HW2 1995   2.278   2.158   1.647  1.2457 -0.6979  0.3768
  666SOL     OW 1996   0.378   2.762   0.266  0.2613  0.2780 -0.0223
  666SOL    HW1 1997   0.463   2.823   0.261  2.1469  3.7039 -1.1568
  666SOL    HW2 1998   0.319   2.769   0.184  0.2413 -1.5545 -0.8290
  667SOL     OW 1999   2.068   1.774   1.844 -0.1897 -0.3528 -0.0053
  667SOL    HW1 2000   2.100   1.784   1.747 -0.2406 -0.6780  1.2782
  667SOL    HW2 2001   1.964   1.791   1.841 -1.7351  1.2564 -0.3375
  668SOL     OW 2002   0.262   0.946   2.398 -0.0889 -0.4944  0.7441
  668SOL    HW1 2003   0.302   1.041   2.389  4.0695 -1.0005 -0.5046
  668SOL    HW2 2004   0.295   0.892   2.319  1.2166  0.9895  0.7123
  669SOL     OW 2005   1.849   2.213   2.343  0.3422  0.3480 -0.9454
  669SOL    HW1 2006   1.781   2.196   2.416  0.3026 -1.8549 -0.2645
  669SOL    HW2 2007   1.871   2.133   2.275  0.7886  2.1184 -1.5490
  670SOL     OW 2008   2.357   2.168   0.122 -0.1846  0.2732 -0.7152
  670SOL    HW1 2009   2.381   2.123   0.034 -0.9937 -0.0237  2.8902
  670SOL    HW2 2010   2.272   2.226   0.116  0.4531 -0.4868 -0.1391
  671SOL     OW 2011   0.717   1.145   1.191  0.5808  0.1084  0.4523
  671SOL    HW1 2012   0.746   1.206   1.268 -0.5769 -1.7652 -0.5830
  671SOL    HW2 2013   0.787   1.073   1.184 -1.8986  0.5163  1.5761
  672SOL     OW 2014   2.665   0.871   2.217  0.1253 -0.4416 -0.7397
  672SOL    HW1 2015   2.734   0.932   2.180  0.4803 -1.0058  1.0144
  672SOL    HW2 2016   2.630   0.909   2.306  2.3266  1.5672 -0.4904
  673SOL     OW 2017   2.754   1.950   2.366  0.2634 -0.0273  0.5500
  673SOL    HW1 2018   2.682   1.885   2.326 -2.2193  0.9254  1.4597
  673SOL    HW2 2019   2.789   1.916   2.453  0.7344 -1.1407 -0.8436
  674SOL     OW 2020   1.252   2.778   2.365 -0.0752 -0.3331 -0.5512
  674SOL    HW1 2021   1.152   2.794   2.379 -0.3010  1.8194  2.5426
  674SOL    HW2 2022   1.280   2.795   2.266  1.2093  0.9023  0.4173
  675SOL     OW 2023   0.663   0.893   1.525 -0.5454  0.3456  0.1991
  675SOL    HW1 2024   0.753   0.870   1.569  1.1487 -1.8317 -0.5659
  675SOL    HW2 2025   0.641   0.993   1.529 -1.4783 -2.5939 -1.0211
  676SOL     OW 2026   1.833   0.893   0.440 -0.2376  0.5567  0.6162
  676SOL    HW1 2027   1.735   0.914   0.463 -2.8381 -0.1692  0.0258
  676SOL    HW2 2028   1.891   0.922   0.516 -2.8127 -0.8075 -1.5968
  677SOL     OW 2029   2.860   1.565   2.962 -0.0166  0.7313 -0.3096
  677SOL    HW1 2030   2.855   1.469   2.922 -1.3866  0.0389 -1.7857
  677SOL    HW2 2031   2.940   1.581   3.026  1.3537  1.9559  3.4374
  678SOL     OW 2032   3.092   2.403   1.178  0.4035 -0.2340  0.3231
  678SOL    HW1 2033   3.039   2.407   1.268 -0.0889 -0.0892  1.9136
  678SOL    HW2 2034   3.041   2.452   1.102  0.0730  0.5015 -1.5736
  679SOL     OW 2035   2.055   2.567   0.735  0.1103  0.2486  0.3656
  679SOL    HW1 2036   2.041   2.505   0.817  0.7604 -2.6618  1.8559
  679SOL    HW2 2037   2.043   2.665   0.760  1.2885  0.2467  0.2225
  680SOL     OW 2038   0.208   2.564   2.290 -0.5474  0.2866  0.2092
  680SOL    HW1 2039   0.141   2.544   2.368 -0.6257 -0.3175  3.4805
  680SOL    HW2 2040   0.304   2.539   2.318  2.3183 -2.4582 -0.9811
  681SOL     OW 2041   3.015   1.217   1.405  0.0692  0.4302 -0.6653
  681SOL    HW1 2042   3.092   1.259   1.358 -0.3984  2.2131 -0.7532
  681SOL    HW2 2043   2.958   1.287   1.453 -1.2530  1.2326  0.8107
  682SOL     OW 2044   0.429   1.869   1.325  0.4922  0.4530 -0.8665
  682SOL    HW1 2045   0.491   1.839   1.252 -0.6993  1.3018  0.3858
  682SOL    HW2 2046   0.454   1.804   1.401  3.0380 -1.0710  0.7512
  683SOL     OW 2047   2.580   1.537   1.420 -0.7356 -0.2509  0.4109
  683SOL    HW1 2048   2.589   1.530   1.322  1.8716  0.4945 -0.7900
  683SOL    HW2 2049   2.585   1.631   1.456  0.7029  1.3037 -1.6924
  684SOL     OW 2050   2.814   1.324   0.169 -0.6056 -0.5993 -0.4043
  684SOL    HW1 2051   2.831   1.248   0.106  2.9496  2.1753  0.5471
  684SOL    HW2 2052   2.890   1.395   0.167  1.4695 -1.7714  2.5369
  685SOL     OW 2053   0.978   1.039   0.223  0.1341  0.7169  0.0241
  685SOL    HW1 2054   0.925   1.110   0.183  3.0944 -2.3339  1.9384
  685SOL    HW2 2055   1.073   1.037   0.185 -3.1696  1.0999 -0.1850
  686SOL     OW 2056   0.273   0.143   1.036 -0.4451 -0.0387 -0.4710
  686SOL    HW1 2057   0.247   0.213   1.107 -4.0444 -1.4813  0.2321
  686SOL    HW2 2058   0.207   0.149   0.964 -2.0926  4.1202 -2.7016
  687SOL     OW 2059   1.063   1.334   2.303 -0.0796 -0.5581 -0.3342
  687SOL    HW1 2060   1.000   1.256   2.304 -2.2622  0.4667  2.7762
  687SOL    HW2 2061   1.118   1.345   2.389 -1.5217  0.4352  4.5536
  688SOL     OW 2062   0.784   1.681   1.321  0.6033  0.3738 -0.3948
  688SOL    HW1 2063   0.812   1.780   1.311 -0.9688 -1.2722 -0.4637
  688SOL    HW2 2064   0.695   1.670   1.370  1.2879  0.0874 -0.8057
  689SOL     OW 2065   1.727   0.794   0.945 -0.1764 -0.1988  0.5675
  689SOL    HW1 2066   1.640   0.755   0.981 -0.1451  0.5184 -0.9951
  689SOL    HW2 2067   1.795   0.801   1.022 -0.1049 -3.1664  0.9515
  690SOL     OW 2068   2.755   0.910   1.112 -0.2021 -0.4799  0.8851
  690SOL    HW1 2069   2.756   0.998   1.158 -3.5436 -0.8389 -2.6089
  690SOL    HW2 2070   2.762   0.829   1.174  2.2116  0.0991 -1.2552
  691SOL     OW 2071   0.261   2.014   2.002 -0.6417 -0.1983 -0.2450
  691SOL    HW1 2072   0.163   2.005   1.974 -1.7303 -2.6854  0.0963
  691SOL    HW2 2073   0.321   2.056   1.930  2.1164 -0.2882 -1.0886
  692SOL     OW 2074   1.689   0.024   0.979 -0.0320 -0.1896 -0.2079
  692SOL    HW1 2075   1.647   0.111   0.948  0.2660  2.1951 -0.5676
  692SOL    HW2 2076   1.765   0.044   1.043  2.4930  2.7631 -0.6104
  693SOL     OW 2077   0.009   1.583   2.537 -0.8167 -0.2303 -0.1036
  693SOL    HW1 2078   0.022   1.670   2.586 -0.5165  1.3035 -1.0841
  693SOL    HW2 2079   3.057   1.600   2.455 -0.7838 -2.3160 -1.6181
  694SOL     OW 2080   2.165   0.685   1.074  0.1917  0.3865 -0.4615
  694SOL    HW1 2081   2.246   0.694   1.139  0.2190  1.5523 -0.3393
  694SOL    HW2 2082   2.086   0.744   1.108  0.5276 -0.6483 -2.2280
  695SOL     OW 2083   1.055   1.190   1.556  0.9355  0.7724  0.1946
  695SOL    HW1 2084   0.962   1.233   1.570 -2.1016 -2.1088  2.8508
  695SOL    HW2 2085   1.051   1.137   1.467  2.1796  3.1194  1.5376
  696SOL     OW 2086   1.615   3.097   0.558 -0.6093 -0.0963  0.2266
  696SOL    HW1 2087   1.563   0.069   0.604  0.5763 -3.0811 -0.2877
  696SOL    HW2 2088   1.714   0.023   0.558  0.9057  2.0958 -0.6095
  697SOL     OW 2089   0.838   0.186   1.065  0.6695  0.3170 -0.3123
  697SOL    HW1 2090   0.794   0.176   0.975  2.6244  2.9960  0.0809
  697SOL    HW2 2091   0.937   0.174   1.069 -1.6951 -1.5652 -2.2977
  698SOL     OW 2092   1.759   1.584   2.359 -0.0518 -0.6225 -1.0365
  698SOL    HW1 2093   1.687   1.590   2.288  0.6897  0.8135  0.1709
  698SOL    HW2 2094   1.799   1.487   2.364  0.0923 -0.4114 -0.9972
  699SOL     OW 2095   1.242   0.956   1.182 -0.3531 -0.2118 -0.0218
  699SOL    HW1 2096   1.295   1.040   1.150  0.7850  1.1787 -0.2312
  699SOL    HW2 2097   1.254   0.878   1.118  0.0012  1.8894  0.0400
  700SOL     OW 2098   1.227   3.005   0.393  0.3827  0.9325  0.1351
  700SOL    HW1 2099   1.206   2.999   0.292  0.5735 -0.7343 -2.4141
  700SOL    HW2 2100   1.298   2.934   0.426  3.2319 -1.4687  1.1910
  701SOL     OW 2101   2.326   2.652   2.599 -0.0222 -0.1128 -0.3377
  701SOL    HW1 2102   2.281   2.575   2.653  0.4189 -1.3716  0.9920
  701SOL    HW2 2103   2.348   2.724   2.670 -0.4876  0.1902 -1.8954
  702SOL     OW 2104   0.974   0.268   0.349 -0.2774  0.3831  0.3067
  702SOL    HW1 2105   1.061   0.253   0.302  1.4892 -0.3031  2.6822
  702SOL    HW2 2106   0.984   0.319   0.440 -0.8484  0.2287 -1.5016
  703SOL     OW 2107   2.620   0.277   2.148  0.2659 -0.2136 -0.0417
  703SOL    HW1 2108   2.542   0.322   2.201 -0.6971  0.4196 -0.0176
  703SOL    HW2 2109   2.711   0.318   2.157 -1.7350  0.1033 -1.1577
  704SOL     OW 2110   0.006   1.981   0.877  0.0279  0.7113 -0.3749
  704SOL    HW1 2111   3.077   1.894   0.833 -2.1624  0.2944  2.4018
  704SOL    HW2 2112   0.086   2.021   0.826 -0.7692  0.4041  0.8897
  705SOL     OW 2113   2.735   2.925   2.178  0.3353  0.1973  0.5140
  705SOL    HW1 2114   2.833   2.947   2.166 -1.1903  0.9727  2.1014
  705SOL    HW2 2115   2.688   2.985   2.247  0.6306  0.1386 -0.7822
  706SOL     OW 2116   2.560   2.428   0.840  0.1396  0.0921  0.2613
  706SOL    HW1 2117   2.541   2.376   0.757 -0.0805 -2.4574  0.1909
  706SOL    HW2 2118   2.486   2.412   0.911 -1.9032  2.5286  0.1816
  707SOL     OW 2119   0.860   2.391   1.868 -0.1341  0.0584 -0.6295
  707SOL    HW1 2120   0.961   2.418   1.895  1.4720 -0.1869  1.3512
  707SOL    HW2 2121   0.848   2.398   1.766  2.8127  1.1445 -0.9490
  708SOL     OW 2122   0.075   2.819   2.343  0.2624 -0.1250 -0.1091
  708SOL    HW1 2123   0.109   2.750   2.277  1.5861  1.9363 -0.8440
  708SOL    HW2 2124   0.142   2.835   2.414 -2.1058  0.2111 -1.5108
  709SOL     OW 2125   1.911   2.935   1.914 -0.2087 -0.8050  1.1883
  709SOL    HW1 2126   1.985   2.864   1.900 -0.2743 -0.8196 -2.9536
  709SOL    HW2 2127   1.835   2.898   1.963  2.5492  2.0411 -1.1357
  710SOL     OW 2128   1.644   0.925   2.502  0.2266 -0.1665 -0.2633
  710SOL    HW1 2129   1.742   0.915   2.521 -0.5536  1.4279  0.1287
  710SOL    HW2 2130   1.622   1.025   2.496  1.4462 -1.3887 -0.3238
  711SOL     OW 2131   0.775   1.754   3.100  0.0613  0.4548 -0.4864
  711SOL    HW1 2132   0.859   1.741   0.051 -1.8713 -0.2029 -0.3415
  711SOL    HW2 2133   0.790   1.722   3.002  0.8615  1.2170 -0.4628
  712SOL     OW 2134   0.518   2.510   2.650  0.6471 -0.5135  0.4385
  712SOL    HW1 2135   0.608   2.468   2.678 -2.0388  0.7083 -0.3710
  712SOL    HW2 2136   0.454   2.435   2.630  1.9561 -1.7564 -1.7757
  713SOL     OW 2137   1.634   1.662   3.018 -0.1025  0.8922  0.0956
  713SOL    HW1 2138   1.628   1.725   2.938 -2.5881  0.7907 -0.1285
  713SOL    HW2 2139   1.684   1.704   3.098 -0.0058 -0.8089  2.6426
  714SOL     OW 2140   1.053   1.538   1.645 -0.2261  0.4599  0.6311
  714SOL    HW1 2141   1.033   1.614   1.576  1.2942  2.8627 -0.8252
  714SOL    HW2 2142   1.149   1.508   1.634 -0.6370 -1.7010  1.0773
  715SOL     OW 2143   1.702   0.375   2.678  0.1177 -0.7939 -0.2656
  715SOL    HW1 2144   1.692   0.432   2.595  0.3227 -3.0837 -2.1253
  715SOL    HW2 2145   1.798   0.381   2.716 -0.0733  0.9834 -0.4531
  716SOL     OW 2146   2.993   2.431   2.219 -0.3714 -0.0489 -0.3696
  716SOL    HW1 2147   3.048   2.343   2.201 -1.3075 -2.3804  1.6781
  716SOL    HW2 2148   2.996   2.455   2.321  1.2073 -1.1939 -3.4430
  717SOL     OW 2149   2.818   0.560   0.941  0.0478 -0.1900  0.1524
  717SOL    HW1 2150   2.857   0.590   1.028 -1.8911  0.6968  0.2922
  717SOL    HW2 2151   2.718   0.569   0.940  0.0907 -0.1916 -0.5022
  718SOL     OW 2152   0.791   1.551   2.526  0.0726  0.2191 -0.9254
  718SOL    HW1 2153   0.703   1.599   2.556  3.4501  0.1761 -3.3145
  718SOL    HW2 2154   0.828   1.587   2.440  3.3544  0.6699  0.1471
  719SOL     OW 2155   1.949   1.066   2.943 -0.0935  0.1583 -0.5253
  719SOL    HW1 2156   1.901   0.979   2.929  1.0885 -1.6769 -0.1489
  719SOL    HW2 2157   1.991   1.062   3.037 -2.1036 -0.6532  0.2352
  720SOL     OW 2158   0.956   0.347   0.822 -0.3122  0.5534  0.4050
  720SOL    HW1 2159   1.000   0.375   0.911 -1.6902  1.1237  0.0922
  720SOL    HW2 2160   0.892   0.271   0.845 -0.1935  1.6365  2.0941
  721SOL     OW 2161   2.603   0.206   0.779 -0.5432  0.4135  0.1727
  721SOL    HW1 2162   2.573   0.304   0.782  0.8586  2.0740  1.2826
  721SOL    HW2 2163   2.600   0.164   0.687 -0.3284  0.6191  1.0377
  722SOL     OW 2164   2.455   0.775   2.598  0.3956 -0.3253  0.0171
  722SOL    HW1 2165   2.354   0.748   2.607 -4.3897 -1.9789 -0.3788
  722SOL    HW2 2166   2.520   0.698   2.616 -0.1428  0.1485  0.9511
  723SOL     OW 2167   2.496   0.179   0.177 -0.2973 -0.1829  0.2707
  723SOL    HW1 2168   2.481   0.086   0.214  0.2337  0.5825 -0.0942
  723SOL    HW2 2169   2.413   0.235   0.188  3.5628  1.1396  0.4405
  724SOL     OW 2170   0.795   1.602   2.088  0.0347  0.4610 -0.6060
  724SOL    HW1 2171   0.768   1.504   2.119  0.4583  0.7256 -0.6895
  724SOL    HW2 2172   0.822   1.611   1.988  1.5391  2.5816 -2.8965
  725SOL     OW 2173   1.785   0.151   1.298 -0.6465  0.0352  0.3417
  725SOL    HW1 2174   1.817   0.183   1.203  2.2520  1.2850  0.9343
  725SOL    HW2 2175   1.810   0.052   1.307  3.1981 -1.0585  0.1591
  726SOL     OW 2176   1.948   2.575   0.260  0.6212  0.7832 -0.4657
  726SOL    HW1 2177   1.858   2.585   0.209 -1.8766 -0.0446  0.8784
  726SOL    HW2 2178   1.940   2.514   0.342  0.5030 -1.3037  3.6461
  727SOL     OW 2179   1.752   1.636   1.419 -0.2045  0.7385 -0.8650
  727SOL    HW1 2180   1.719   1.587   1.501  0.0627  1.9319  0.7290
  727SOL    HW2 2181   1.796   1.573   1.352  3.0689 -0.3674 -0.1503
  728SOL     OW 2182   2.339   2.670   1.310  0.6691  0.3669  0.1509
  728SOL    HW1 2183   2.295   2.732   1.381 -2.1790 -2.4592 -0.3637
  728SOL    HW2 2184   2.418   2.716   1.269 -4.9012  2.1208  0.3824
  729SOL     OW 2185   2.201   1.508   0.943 -0.0776  0.2516 -0.0456
  729SOL    HW1 2186   2.209   1.596   0.893 -1.7845  0.0097  0.7510
  729SOL    HW2 2187   2.239   1.432   0.882 -0.5346  0.4778  1.0774
  730SOL     OW 2188   0.886   0.781   2.749 -0.1528 -0.0445 -0.7019
  730SOL    HW1 2189   0.786   0.803   2.748 -1.3181  0.0268  0.9836
  730SOL    HW2 2190   0.920   0.782   2.845  0.5890  1.3380 -2.2793
  731SOL     OW 2191   0.468   3.033   1.090  0.5611 -0.2245 -0.0400
  731SOL    HW1 2192   0.429   2.979   1.170 -0.2706 -1.8788  0.9870
  731SOL    HW2 2193   0.399   3.097   1.054 -0.1187 -2.2799  0.8111
  732SOL     OW 2194   1.381   0.789   0.561 -0.5960 -0.4123  0.1850
  732SOL    HW1 2195   1.312   0.833   0.496 -0.4417 -1.4454  0.6370
  732SOL    HW2 2196   1.377   0.688   0.545 -2.1000  1.6633 -0.4763
  733SOL     OW 2197   0.855   2.226   1.248  0.0742  0.0083 -0.4374
  733SOL    HW1 2198   0.900   2.212   1.158 -2.1092  1.2634  0.9348
  733SOL    HW2 2199   0.929   2.235   1.318 -2.2015 -0.3445  0.9016
  734SOL     OW 2200   0.378   2.457   0.264  0.2258 -0.1766  0.3503
  734SOL    HW1 2201   0.416   2.550   0.250 -2.5008 -1.0297  1.4252
  734SOL    HW2 2202   0.278   2.465   0.289  1.2050 -4.1940 -2.0841
  735SOL     OW 2203   1.256   0.284   1.245 -0.0154  0.0352  0.6249
  735SOL    HW1 2204   1.194   0.215   1.294  0.0432  1.1728 -0.2670
  735SOL    HW2 2205   1.355   0.261   1.250  2.9020 -0.3232 -1.1960
  736SOL     OW 2206   2.091   2.258   0.075  0.3346  0.0788  0.4675
  736SOL    HW1 2207   2.059   2.304   0.163 -0.1593  1.9037 -0.1948
  736SOL    HW2 2208   2.073   2.321   3.102  1.9079  0.6962  2.7427
  737SOL     OW 2209   0.063   0.806   0.969 -0.0225 -0.3198  0.0581
  737SOL    HW1 2210   0.086   0.892   1.022 -2.0031 -1.7609 -1.7034
  737SOL    HW2 2211   0.076   0.824   0.866 -1.9496 -0.3886  0.6841
  738SOL     OW 2212   2.264   2.499   2.182 -0.5238 -0.3275  0.0098
  738SOL    HW1 2213   2.337   2.568   2.187 -2.4841 -0.3560 -2.9642
  738SOL    HW2 2214   2.169   2.532   2.181 -1.2656  1.5151  1.8388
  739SOL     OW 2215   1.148   2.290   2.960  0.0636 -0.0508  0.3402
  739SOL    HW1 2216   1.197   2.220   2.907  0.3826  0.5198  1.5421
  739SOL    HW2 2217   1.065   2.249   3.005 -0.4892 -0.0209  0.0927
  740SOL     OW 2218   1.533   0.234   1.203  0.3308  0.0710 -0.2944
  740SOL    HW1 2219   1.617   0.223   1.261  0.9476  0.8812  0.5275
  740SOL    HW2 2220   1.542   0.306   1.130 -4.9469 -0.5865  1.2044
  741SOL     OW 2221   2.967   0.772   0.610 -0.3276 -0.1397 -0.1415
  741SOL    HW1 2222   2.977   0.797   0.514  1.1478  1.3147 -0.1460
  741SOL    HW2 2223   2.968   0.672   0.628  0.3536 -0.6959  1.0689
  742SOL     OW 2224   0.979   1.422   2.677  0.3969 -0.1284  0.2150
  742SOL    HW1 2225   0.995   1.448   2.774  0.9481 -0.5285 -1.6586
  742SOL    HW2 2226   0.912   1.483   2.623 -0.2455 -0.9306 -3.2602
  743SOL     OW 2227   1.012   0.795   2.131  0.4660 -0.2956 -0.3531
  743SOL    HW1 2228   0.977   0.775   2.224  0.7792  1.2474 -0.0922
  743SOL    HW2 2229   1.003   0.892   2.103 -0.3166 -0.1969  0.4485
  744SOL     OW 2230   1.915   0.492   1.429 -0.1335 -0.4630  0.1688
  744SOL    HW1 2231   1.917   0.479   1.329  1.1064  0.5040  1.0041
  744SOL    HW2 2232   1.955   0.409   1.470  1.8105  2.0097  1.9160
  745SOL     OW 2233   1.567   1.085   1.408 -0.1819  0.2667 -0.2112
  745SOL    HW1 2234   1.616   1.067   1.321  1.7104  1.2612  3.3876
  745SOL    HW2 2235   1.615   1.150   1.471 -0.6328 -0.5907 -0.1930
  746SOL     OW 2236   2.196   1.126   0.881  0.1432  0.1078 -0.3079
  746SOL    HW1 2237   2.232   1.208   0.830 -1.0270  2.0455  1.6959
  746SOL    HW2 2238   2.222   1.036   0.842 -2.4419 -0.6357  0.0098
  747SOL     OW 2239   2.626   1.356   1.138 -0.2277  0.4463  0.0438
  747SOL    HW1 2240   2.528   1.330   1.121  1.7505  0.8808 -1.5785
  747SOL    HW2 2241   2.643   1.459   1.156  1.8263  0.3145  2.0595
  748SOL     OW 2242   0.642   1.897   0.593  0.3273  0.1552  0.4264
  748SOL    HW1 2243   0.637   1.910   0.694  1.4786 -0.3952  0.2258
  748SOL    HW2 2244   0.561   1.936   0.537 -0.9374  1.1832 -1.0127
  749SOL     OW 2245   2.292   2.791   2.360  0.2713 -0.2553  0.1129
  749SOL    HW1 2246   2.280   2.733   2.443  0.1085 -0.2381  4.6278
  749SOL    HW2 2247   2.371   2.857   2.375 -0.2028  1.1638 -0.9681
  750SOL     OW 2248   2.470   0.457   0.751 -0.2581 -0.0130  0.4877
  750SOL    HW1 2249   2.534   0.504   0.683  0.1398  0.4470 -2.5182
  750SOL    HW2 2250   2.390   0.511   0.759  6.1361 -3.0019 -0.8733
  751SOL     OW 2251   2.500   2.830   0.463 -0.3121 -0.0275  0.2590
  751SOL    HW1 2252   2.436   2.761   0.497  0.6921 -0.8734  1.9779
  751SOL    HW2 2253   2.457   2.894   0.392 -0.0498 -1.1503  0.8604
  752SOL     OW 2254   0.159   3.046   0.761 -0.5087  0.2877 -0.4105
  752SOL    HW1 2255   0.161   2.955   0.807  1.4099  0.9898 -3.7681
  752SOL    HW2 2256   0.247   3.073   0.731 -2.0713 -2.4583  1.9789
  753SOL     OW 2257   1.695   1.049   2.210 -0.0745 -0.0136  0.2941
  753SOL    HW1 2258   1.668   1.149   2.223 -0.3656  1.8758  1.7620
  753SOL    HW2 2259   1.624   0.984   2.249  0.5312  0.5704 -1.0138
  754SOL     OW 2260   1.694   2.045   1.424  0.0301 -0.0516  0.5036
  754SOL    HW1 2261   1.794   2.027   1.415 -0.3373  1.3138 -2.0632
  754SOL    HW2 2262   1.637   1.990   1.361  0.5194  1.4672 -2.1417
  755SOL     OW 2263   2.544   1.013   0.947  0.1187 -0.0940  0.0783
  755SOL    HW1 2264   2.625   0.963   0.979  0.6993 -1.2859  0.9228
  755SOL    HW2 2265   2.569   1.103   0.900  2.7388  1.9626 -1.7243
  756SOL     OW 2266   1.071   1.528   2.922 -0.0243  0.0078  0.7792
  756SOL    HW1 2267   1.158   1.481   2.942 -1.7850 -1.9973  0.9811
  756SOL    HW2 2268   1.040   1.583   3.003 -0.9587  1.6004 -0.0821
  757SOL     OW 2269   1.370   2.807   0.681  0.7523 -0.0681  0.1380
  757SOL    HW1 2270   1.419   2.851   0.756  1.0386 -0.9058  1.7546
  757SOL    HW2 2271   1.309   2.736   0.714  0.7979 -1.0507 -1.2972
  758SOL     OW 2272   1.145   2.877   1.692 -0.1677 -0.0601 -0.4052
  758SOL    HW1 2273   1.051   2.841   1.713  0.0150  0.4544 -1.8479
  758SOL    HW2 2274   1.198   2.797   1.664  1.2421  1.7809  0.4667
  759SOL     OW 2275   0.244   0.610   0.882 -0.0236  0.1372 -0.2153
  759SOL    HW1 2276   0.201   0.573   0.796  1.8413  1.6874 -0.8420
  759SOL    HW2 2277   0.182   0.674   0.930  0.9301 -0.0857 -0.0300
  760SOL     OW 2278   2.406   0.933   1.184  0.0374  0.1825 -0.9137
  760SOL    HW1 2279   2.449   0.994   1.118 -3.7155 -2.9477  0.1319
  760SOL    HW2 2280   2.444   0.950   1.276 -1.4480  0.6322  3.6004
  761SOL     OW 2281   1.889   0.043   0.566 -0.3633 -0.4771 -0.2051
  761SOL    HW1 2282   1.943   3.063   0.538  0.7834  0.1701  1.3636
  761SOL    HW2 2283   1.928   0.078   0.652 -0.9343 -3.2330  2.5751
  762SOL     OW 2284   2.061   1.780   2.853  0.4816 -0.2406  0.4140
  762SOL    HW1 2285   2.029   1.682   2.846  0.2884 -2.5812  0.5844
  762SOL    HW2 2286   2.145   1.783   2.906  0.1309 -0.5060  1.3819
  763SOL     OW 2287   0.499   1.623   1.453 -0.0864 -0.6571  0.5922
  763SOL    HW1 2288   0.545   1.613   1.547  2.4009  2.2232  2.7538
  763SOL    HW2 2289   0.404   1.656   1.454 -0.4196 -1.1257  0.2949
  764SOL     OW 2290   2.935   2.168   2.727  0.4422  0.3586 -0.3919
  764SOL    HW1 2291   2.868   2.125   2.792 -0.3901  1.1965 -0.0912
  764SOL    HW2 2292   2.923   2.265   2.739 -1.1471 -3.8742 -2.1125
  765SOL     OW 2293   0.310   2.713   1.162 -0.5504 -0.2682  0.5582
  765SOL    HW1 2294   0.413   2.725   1.180  1.6417 -0.0020  1.2403
  765SOL    HW2 2295   0.295   2.676   1.064 -0.7477 -1.7849 -3.0224
  766SOL     OW 2296   0.026   2.198   2.168  0.2416 -0.1242  0.6638
  766SOL    HW1 2297   0.126   2.175   2.186 -1.7941 -2.1106 -1.4832
  766SOL    HW2 2298   3.072   2.116   2.189 -1.7219 -1.0943  0.5443
  767SOL     OW 2299   2.377   0.625   2.367  0.3148 -0.2025  0.2027
  767SOL    HW1 2300   2.400   0.669   2.276 -0.4830  1.3815 -2.1268
  767SOL    HW2 2301   2.399   0.678   2.455 -1.1923  2.5700  2.2913
  768SOL     OW 2302   1.349   0.361   2.683 -0.9461  0.3594  0.3135
  768SOL    HW1 2303   1.333   0.273   2.733  0.2282  1.5064 -0.3912
  768SOL    HW2 2304   1.413   0.428   2.734  1.8081 -1.1062 -0.9044
  769SOL     OW 2305   3.070   2.606   0.948  0.0890  0.0830  0.2462
  769SOL    HW1 2306   3.000   2.549   0.904 -0.6908  2.5987  1.9724
  769SOL    HW2 2307   3.024   2.665   1.017 -2.8060 -0.0783  2.7612
  770SOL     OW 2308   0.527   0.146   2.779 -0.8309  0.5833  0.7698
  770SOL    HW1 2309   0.607   0.122   2.841  0.9907 -0.2470  0.3065
  770SOL    HW2 2310   0.450   0.177   2.834 -1.1892 -0.4140 -1.3657
  771SOL     OW 2311   1.450   1.795   2.070 -0.4284  0.0619 -0.0444
  771SOL    HW1 2312   1.483   1.830   1.979  0.5169 -1.1244 -0.5568
  771SOL    HW2 2313   1.354   1.823   2.083  0.3086  0.3558 -1.4091
  772SOL     OW 2314   1.632   2.691   2.593 -0.3460  0.2945  0.0977
  772SOL    HW1 2315   1.673   2.749   2.669 -1.1218 -0.3840 -1.8176
  772SOL    HW2 2316   1.654   2.727   2.501  1.5697  0.6339 -0.1938
  773SOL     OW 2317   1.597   0.800   1.446  0.1358  0.0042  0.3613
  773SOL    HW1 2318   1.580   0.891   1.402  2.7482 -1.3543  1.3085
  773SOL    HW2 2319   1.552   0.729   1.397  0.2659  2.5756  1.2069
  774SOL     OW 2320   1.083   0.433   1.116 -0.0789  0.4703 -1.0455
  774SOL    HW1 2321   1.169   0.389   1.153  2.8414 -1.9299 -0.1089
  774SOL    HW2 2322   1.022   0.462   1.194 -0.8099  0.7550  0.8630
  775SOL     OW 2323   2.106   3.079   2.650 -0.3409  0.1256  0.3316
  775SOL    HW1 2324   2.035   0.002   2.716 -1.4394 -1.0674 -0.6144
  775SOL    HW2 2325   2.060   3.013   2.586 -1.0677 -0.7263 -0.5321
  776SOL     OW 2326   2.107   0.841   1.399 -0.1956  0.2145 -0.5025
  776SOL    HW1 2327   2.005   0.819   1.407 -1.4940  2.0436  1.7335
  776SOL    HW2 2328   2.147   0.864   1.488 -0.9750 -0.0993  0.2430
  777SOL     OW 2329   2.874   1.341   2.195  0.7287  0.4896  0.1548
  777SOL    HW1 2330   2.904   1.303   2.282  0.4069  1.9240  0.2343
  777SOL    HW2 2331   2.840   1.266   2.135  1.7473  0.2703  0.1345
  778SOL     OW 2332   2.972   0.898   2.753  0.1055 -0.1775 -0.6069
  778SOL    HW1 2333   3.014   0.959   2.676  2.9167  3.4808 -0.0378
  778SOL    HW2 2334   3.001   0.946   2.840  1.9807  1.8093  1.1186
  779SOL     OW 2335   0.017   0.681   3.019 -0.3537 -0.0251  0.2115
  779SOL    HW1 2336   0.089   0.731   3.072 -1.5525 -1.3496 -0.9344
  779SOL    HW2 2337   0.049   0.642   2.928 -3.4733 -0.0707 -1.5134
  780SOL     OW 2338   2.480   1.945   2.545 -0.1115 -0.5355  0.0995
  780SOL    HW1 2339   2.520   1.872   2.486  1.1762 -1.3067  1.5475
  780SOL    HW2 2340   2.405   1.990   2.496  4.5281 -0.6240 -0.2344
  781SOL     OW 2341   2.705   1.089   1.803 -0.3318 -0.1149 -0.2272
  781SOL    HW1 2342   2.789   1.136   1.762  1.6950  1.6218  0.1138
  781SOL    HW2 2343   2.670   1.015   1.739  0.6425  1.1151 -0.4898
  782SOL     OW 2344   1.017   2.030   2.786  0.1287 -0.1438  0.3306
  782SOL    HW1 2345   0.972   1.935   2.794 -2.0009 -1.1808 -0.3189
  782SOL    HW2 2346   1.108   2.028   2.830  1.8509  1.3692  2.9344
  783SOL     OW 2347   1.106   2.510   1.140  0.2263 -0.1508  0.4579
  783SOL    HW1 2348   1.199   2.474   1.118 -2.0409  0.3032 -0.0274
  783SOL    HW2 2349   1.053   2.544   1.065  1.2567 -0.7741  1.0629
  784SOL     OW 2350   2.110   0.519   2.380  0.1281 -0.0018  0.0747
  784SOL    HW1 2351   2.085   0.499   2.474  3.4140 -0.5988 -0.8424
  784SOL    HW2 2352   2.193   0.578   2.376  0.6636  0.0894 -2.4363
  785SOL     OW 2353   3.102   0.017   1.774  0.5296  0.8900 -0.3620
  785SOL    HW1 2354   3.044   0.045   1.856  2.1395 -3.6877  1.9501
  785SOL    HW2 2355   3.068   3.030   1.738 -0.9224  1.7554 -0.7074
  786SOL     OW 2356   1.207   1.995   0.400  0.0785  0.2727 -0.2477
  786SOL    HW1 2357   1.141   2.000   0.324  0.5943  1.5276 -0.8739
  786SOL    HW2 2358   1.213   2.080   0.457 -0.7441 -1.0780  1.3879
  787SOL     OW 2359   1.223   0.141   0.813  0.0141  0.4385  0.8072
  787SOL    HW1 2360   1.169   0.097   0.739 -1.1777 -0.1631 -0.8117
  787SOL    HW2 2361   1.191   0.117   0.907  0.6857  1.2026  0.0308
  788SOL     OW 2362   3.056   1.339   0.945 -0.0107  0.2484 -0.5739
  788SOL    HW1 2363   3.072   1.434   0.983  1.1796 -1.3936  1.1904
  788SOL    HW2 2364   0.046   1.308   0.914  2.7208 -0.2748 -2.2990
  789SOL     OW 2365   2.439   0.806   2.055 -0.7267  0.2632  0.2616
  789SOL    HW1 2366   2.450   0.723   1.993 -2.6540  1.7480 -1.5228
  789SOL    HW2 2367   2.530   0.839   2.094  2.3615  0.8911  1.4245
  790SOL     OW 2368   0.992   0.376   2.915 -0.4011 -0.0284 -0.0480
  790SOL    HW1 2369   0.925   0.439   2.959 -1.2982 -0.8250 -0.3645
  790SOL    HW2 2370   0.944   0.317   2.842  0.0816 -1.2510 -0.1072
  791SOL     OW 2371   0.088   2.927   3.101 -0.3400 -0.2466 -0.1761
  791SOL    HW1 2372   0.174   2.873   3.098 -0.0198  0.3408 -0.5312
  791SOL    HW2 2373   0.097   3.034   3.088  0.8679 -1.6205  0.4940
  792SOL     OW 2374   1.562   0.790   1.984 -0.4941 -0.4141 -0.0482
  792SOL    HW1 2375   1.580   0.774   2.084  3.8402 -1.8996 -0.8419
  792SOL    HW2 2376   1.484   0.728   1.951 -2.3775  1.0684  1.4748
  793SOL     OW 2377   3.077   0.257   1.118  1.1137  0.2578  0.4282
  793SOL    HW1 2378   3.094   0.262   1.020  0.5228  0.1418  2.0352
  793SOL    HW2 2379   0.057   0.290   1.166 -2.6819 -0.3817 -1.7973
  794SOL     OW 2380   0.159   0.194   1.946  0.0209  0.2380 -0.7174
  794SOL    HW1 2381   0.243   0.184   1.893 -1.8811 -0.2087  2.7034
  794SOL    HW2 2382   0.082   0.167   1.886  0.3917  0.8044  1.5781
  795SOL     OW 2383   0.677   1.433   0.500  0.4316  0.0248 -0.6243
  795SOL    HW1 2384   0.595   1.385   0.459  0.1014  1.9155 -0.7532
  795SOL    HW2 2385   0.715   1.499   0.432  0.8051  1.1172 -1.3087
  796SOL     OW 2386   3.073   0.987   2.981 -0.4970 -0.0750 -0.1025
  796SOL    HW1 2387   0.043   0.924   2.992 -1.3016  1.2489  0.8884
  796SOL    HW2 2388   3.040   1.020   3.075 -0.1871  2.9118 -3.0319
  797SOL     OW 2389   2.037   3.102   2.119  0.4376  0.1757  0.7513
  797SOL    HW1 2390   1.988   3.060   2.036 -0.8295  0.2550 -0.7535
  797SOL    HW2 2391   2.002   0.095   2.142 -1.2874 -1.6806  0.2982
  798SOL     OW 2392   0.086   3.088   1.213 -0.0891 -0.2499 -0.4154
  798SOL    HW1 2393   0.110   0.032   1.123  0.2680 -1.1557 -2.1545
  798SOL    HW2 2394   0.023   0.045   1.269 -0.4095 -0.6719 -0.6660
  799SOL     OW 2395   2.686   0.885   1.603  0.6193 -0.0376  0.3562
  799SOL    HW1 2396   2.787   0.882   1.586  0.3931 -0.7378  1.2390
  799SOL    HW2 2397   2.663   0.786   1.622  1.7735 -0.3921 -1.2169
  800SOL     OW 2398   3.003   1.514   0.224  0.3890 -0.6803  0.3459
  800SOL    HW1 2399   2.925   1.573   0.251  0.8032 -1.9081  0.9161
  800SOL    HW2 2400   3.035   1.548   0.134 -1.3769  1.9440  0.4948
  801SOL     OW 2401   2.053   1.725   0.580 -0.4047 -0.2503 -0.3331
  801SOL    HW1 2402   2.063   1.625   0.550  1.2975  0.3654  0.9074
  801SOL    HW2 2403   1.954   1.754   0.573  1.4126  1.7511  0.6048
  802SOL     OW 2404   1.363   1.013   2.801  0.1437 -0.7301 -0.5532
  802SOL    HW1 2405   1.362   1.064   2.713  0.6510  1.5646 -1.0153
  802SOL    HW2 2406   1.419   0.931   2.796 -1.4471 -3.0373 -2.8049
  803SOL     OW 2407   0.899   2.120   1.906 -0.2807 -0.0715  0.1116
  803SOL    HW1 2408   0.889   2.216   1.885  2.5894 -3.3494 -0.5601
  803SOL    HW2 2409   0.989   2.095   1.865 -1.1832  0.1209 -0.4607
  804SOL     OW 2410   1.410   2.361   0.835 -0.0732  0.5648 -0.1021
  804SOL    HW1 2411   1.423   2.258   0.830 -0.9868 -0.1835 -1.8128
  804SOL    HW2 2412   1.334   2.378   0.768 -0.2576 -0.9203 -4.4217
  805SOL     OW 2413   2.640   2.368   2.707 -0.1422 -0.6344 -0.1212
  805SOL    HW1 2414   2.733   2.393   2.691 -3.5092  0.4909 -0.3510
  805SOL    HW2 2415   2.576   2.408   2.638  0.4179  1.6429  1.5783
  806SOL     OW 2416   0.009   0.143   0.291 -0.0581 -0.1461  0.1806
  806SOL    HW1 2417   3.046   0.154   0.366  0.7636  0.0721 -1.9125
  806SOL    HW2 2418   0.066   0.060   0.313  0.4073  0.0786 -0.4838
  807SOL     OW 2419   2.623   0.685   2.892  0.4332 -0.2611 -0.3800
  807SOL    HW1 2420   2.723   0.663   2.866 -0.4627  0.3660  0.3097
  807SOL    HW2 2421   2.591   0.630   2.966 -0.6487  0.3745 -3.0959
  808SOL     OW 2422   0.955   2.201   0.882 -0.5968 -0.2623 -0.8276
  808SOL    HW1 2423   0.978   2.114   0.935 -1.9585  2.3467 -1.8428
  808SOL    HW2 2424   1.020   2.272   0.910 -0.9771 -0.7979 -1.1059
  809SOL     OW 2425   2.764   0.282   2.825  0.1380  0.1566 -0.1254
  809SOL    HW1 2426   2.774   0.182   2.819 -1.3989  0.8869 -0.0428
  809SOL    HW2 2427   2.733   0.323   2.736  1.6337 -1.1837  0.9594
  810SOL     OW 2428   1.484   1.337   0.599 -0.7227  0.0471 -0.1016
  810SOL    HW1 2429   1.404   1.284   0.614  3.3870 -0.8720 -0.7330
  810SOL    HW2 2430   1.563   1.283   0.627 -1.2262  0.6564 -0.9010
  811SOL     OW 2431   1.960   2.789   1.588 -0.4639  0.3555  0.0732
  811SOL    HW1 2432   1.892   2.855   1.556  0.0470  0.6474  1.5026
  811SOL    HW2 2433   1.923   2.720   1.653 -0.2070 -0.1462  1.1794
  812SOL     OW 2434   1.581   2.604   0.392  0.0700 -0.0516 -0.2090
  812SOL    HW1 2435   1.656   2.573   0.449  1.7826 -1.0325 -0.3536
  812SOL    HW2 2436   1.551   2.705   0.409 -1.1258  0.9825 -1.8898
  813SOL     OW 2437   1.213   0.647   2.063  0.2389  0.0222  0.3188
  813SOL    HW1 2438   1.138   0.712   2.095 -0.6587  0.7467  2.1654
  813SOL    HW2 2439   1.231   0.575   2.130  0.4534  0.3568  0.2090
  814SOL     OW 2440   0.336   2.965   1.335 -0.0755  0.2887 -0.3446
  814SOL    HW1 2441   0.240   2.991   1.315  0.2949  0.1747  2.3051
  814SOL    HW2 2442   0.368   3.023   1.410  0.0142 -2.9930 -0.3960
  815SOL     OW 2443   0.422   2.969   0.481 -0.2595 -0.1332  0.5929
  815SOL    HW1 2444   0.490   2.963   0.407  4.2915 -3.4986  0.9493
  815SOL    HW2 2445   0.409   2.878   0.523  0.2283 -0.1415 -0.0316
  816SOL     OW 2446   2.615   1.455   2.592 -0.1835 -0.0917 -0.7188
  816SOL    HW1 2447   2.545   1.494   2.655 -0.3450  0.5976  2.3157
  816SOL    HW2 2448   2.695   1.519   2.579  2.7432  2.2102 -2.3868
  817SOL     OW 2449   1.068   0.199   0.065 -0.5656  0.4939 -0.3351
  817SOL    HW1 2450   1.143   0.246   0.113 -1.3591 -4.7399  1.6756
  817SOL    HW2 2451   1.044   0.251   3.086 -3.2559 -1.7794 -0.2239
  818SOL     OW 2452   1.618   0.555   0.002 -0.5921  0.1040  0.2616
  818SOL    HW1 2453   1.687   0.601   0.063  0.3087  1.8723  1.0101
  818SOL    HW2 2454   1.635   0.458   0.014  2.6735  2.3011 -0.8034
  819SOL     OW 2455   1.824   2.664   3.012  0.0187 -0.1656 -0.1562
  819SOL    HW1 2456   1.805   2.727   2.930 -2.0134  0.8218  0.0788
  819SOL    HW2 2457   1.768   2.688   3.094 -0.2296  0.5946  0.0419
  820SOL     OW 2458   1.591   1.036   0.072 -0.2069 -0.5334  0.0632
  820SOL    HW1 2459   1.565   0.951   0.022 -0.7354 -0.1855  1.7056
  820SOL    HW2 2460   1.686   1.021   0.107 -0.0647 -0.8743  1.8724
  821SOL     OW 2461   0.361   0.517   1.452  0.0344 -0.0844 -0.2337
  821SOL    HW1 2462   0.303   0.589   1.415  1.9607 -0.5888  0.5273
  821SOL    HW2 2463   0.314   0.460   1.524  2.7473  1.3415  1.4271
  822SOL     OW 2464   1.047   2.485   2.376  0.0348  0.0407  0.5789
  822SOL    HW1 2465   1.086   2.424   2.301  2.6386 -0.1596  1.2882
  822SOL    HW2 2466   0.987   2.556   2.334 -1.7680 -0.9832  1.7876
  823SOL     OW 2467   0.293   1.321   2.093 -0.4361 -0.6146 -0.2577
  823SOL    HW1 2468   0.238   1.406   2.105  0.1527  0.2702  0.9715
  823SOL    HW2 2469   0.376   1.326   2.149 -1.1787  1.1017 -1.3939
  824SOL     OW 2470   1.683   2.884   2.105 -0.1950  0.7460  0.2630
  824SOL    HW1 2471   1.619   2.830   2.052 -1.1986  2.6375  1.5935
  824SOL    HW2 2472   1.635   2.972   2.128  0.6359  2.9616  1.9317
  825SOL     OW 2473   0.893   1.272   0.078 -0.4737  0.4449  0.3649
  825SOL    HW1 2474   0.947   1.351   0.048  1.4850  2.2783 -0.7419
  825SOL    HW2 2475   0.819   1.242   0.012 -0.4195  0.2393  0.6597
  826SOL     OW 2476   2.204   0.678   2.659  0.1294  0.3430 -0.2379
  826SOL    HW1 2477   2.110   0.636   2.650  0.2380  0.1467 -1.8319
  826SOL    HW2 2478   2.197   0.762   2.713  1.0661 -0.5513  0.1887
  827SOL     OW 2479   0.372   2.001   2.782  0.3497 -0.6710 -0.4508
  827SOL    HW1 2480   0.474   2.016   2.785  0.7473  0.2797  4.2411
  827SOL    HW2 2481   0.350   1.951   2.696 -1.6780  3.7007 -0.6315
  828SOL     OW 2482   3.078   0.131   1.412 -0.1779  0.1811 -0.0546
  828SOL    HW1 2483   0.033   0.121   1.494  1.3088  0.1606  1.3126
  828SOL    HW2 2484   3.016   0.216   1.414  0.3933 -0.0502  1.9916
  829SOL     OW 2485   1.066   1.347   1.199 -1.0112 -0.8315  0.2630
  829SOL    HW1 2486   1.167   1.348   1.213  0.0456 -0.2759 -0.1305
  829SOL    HW2 2487   1.043   1.398   1.113  2.1009  0.2681 -0.9254
  830SOL     OW 2488   0.577   1.353   1.358  0.1188  0.0746  0.2079
  830SOL    HW1 2489   0.666   1.395   1.323  1.5132  1.3985 -0.1215
  830SOL    HW2 2490   0.521   1.423   1.404  3.1757  0.4051  0.4721
  831SOL     OW 2491   0.518   1.722   0.108 -0.2133 -0.3690 -0.5323
  831SOL    HW1 2492   0.614   1.750   0.076  1.6459  1.8126 -3.3983
  831SOL    HW2 2493   0.452   1.743   0.033  1.0064  0.3460 -0.4361
  832SOL     OW 2494   0.853   2.929   3.015  0.5264 -0.0248 -0.1618
  832SOL    HW1 2495   0.929   2.864   2.996 -0.8091  0.8899 -0.5988
  832SOL    HW2 2496   0.848   2.959   0.007  1.2605 -2.7210 -0.0253
  833SOL     OW 2497   3.018   0.687   1.744 -0.3489 -0.5276 -0.0043
  833SOL    HW1 2498   2.986   0.593   1.719 -2.2912 -2.2949 -1.5050
  833SOL    HW2 2499   2.986   0.711   1.838  0.9314  2.2745 -0.4485
  834SOL     OW 2500   0.359   0.519   1.115 -0.6287 -0.7522 -0.3210
  834SOL    HW1 2501   0.324   0.526   1.020  1.7579 -1.0877 -0.1425
  834SOL    HW2 2502   0.438   0.583   1.126 -1.2765  0.8518 -0.7710
  835SOL     OW 2503   2.803   3.031   1.169 -0.0498 -0.0553 -0.2359
  835SOL    HW1 2504   2.820   0.027   1.150 -1.1024  1.9704  0.1715
  835SOL    HW2 2505   2.702   3.009   1.171 -1.2789  0.4274 -0.8137
  836SOL     OW 2506   0.358   1.818   3.014 -0.0671  0.1879  0.1313
  836SOL    HW1 2507   0.292   1.845   3.088 -2.0091  1.6953  0.6988
  836SOL    HW2 2508   0.373   1.899   2.951 -0.6467  1.5929  3.5146
  837SOL     OW 2509   1.820   1.897   2.810 -0.5120 -0.3716 -0.2864
  837SOL    HW1 2510   1.738   1.836   2.788 -0.0127 -1.3618  0.4604
  837SOL    HW2 2511   1.911   1.849   2.824  0.1734  1.1189 -0.7216
  838SOL     OW 2512   2.495   1.209   1.938  0.3664 -0.7485  0.2749
  838SOL    HW1 2513   2.419   1.140   1.946 -1.1588  2.8671  1.4937
  838SOL    HW2 2514   2.572   1.183   1.882 -1.9197  0.6897  2.8475
  839SOL     OW 2515   1.262   0.945   0.724 -0.1629 -0.0812  0.1177
  839SOL    HW1 2516   1.163   0.947   0.694 -0.4915 -2.4383  1.4236
  839SOL    HW2 2517   1.309   0.863   0.682 -1.6766  0.6770  1.7184
  840SOL     OW 2518   1.516   0.455   1.022  0.5763 -0.3622  0.4347
  840SOL    HW1 2519   1.426   0.476   0.980  2.6049  1.2421  1.3696
  840SOL    HW2 2520   1.556   0.544   1.049  1.6876  1.2171 -1.3408
  841SOL     OW 2521   0.568   2.680   0.722  0.6451 -0.1195 -0.4246
  841SOL    HW1 2522   0.556   2.742   0.800  1.1313  0.8496 -0.3895
  841SOL    HW2 2523   0.478   2.678   0.675  1.3775  0.3637 -0.4014
  842SOL     OW 2524   0.655   0.502   0.670  0.1966 -0.4399  0.6115
  842SOL    HW1 2525   0.674   0.527   0.766  0.9432 -2.8997 -0.9480
  842SOL    HW2 2526   0.626   0.405   0.657 -2.4398 -2.4586 -1.6762
  843SOL     OW 2527   0.612   0.928   2.047 -0.5853  0.5801 -0.2112
  843SOL    HW1 2528   0.663   1.003   2.003 -1.9329 -3.7923  1.9266
  843SOL    HW2 2529   0.516   0.915   2.020  2.3156 -0.2406 -0.0947
  844SOL     OW 2530   1.374   2.383   3.084 -0.2210 -0.0578 -0.0536
  844SOL    HW1 2531   1.452   2.419   3.021  0.2284  0.4932 -0.9659
  844SOL    HW2 2532   1.287   2.397   3.033  0.3165 -0.1941 -1.2531
  845SOL     OW 2533   2.682   2.528   2.293  0.0167 -0.5527  0.1735
  845SOL    HW1 2534   2.752   2.474   2.243 -2.4122  1.2230  0.2691
  845SOL    HW2 2535   2.605   2.565   2.233  0.6959  0.5214 -0.7216
  846SOL     OW 2536   1.724   2.073   2.573  0.5760  0.3165 -0.0550
  846SOL    HW1 2537   1.737   2.056   2.671  1.9431  0.0688  0.1032
  846SOL    HW2 2538   1.731   1.983   2.528 -1.1430  2.6050  0.1483
  847SOL     OW 2539   2.075   2.935   2.345 -0.4285  0.2925 -0.5523
  847SOL    HW1 2540   2.164   2.894   2.326  0.4244  0.4133  0.3608
  847SOL    HW2 2541   2.054   2.991   2.261 -1.7962  0.9869 -1.0733
  848SOL     OW 2542   0.659   0.213   0.545  0.0240 -0.2036  0.4774
  848SOL    HW1 2543   0.562   0.188   0.557 -1.3309 -1.1591 -2.2429
  848SOL    HW2 2544   0.697   0.162   0.464  1.8219  1.2148 -1.5203
  849SOL     OW 2545   0.761   2.867   1.296 -0.3786  0.0323  0.4278
  849SOL    HW1 2546   0.675   2.843   1.252  3.3361 -0.3001  1.6922
  849SOL    HW2 2547   0.743   2.927   1.379 -0.4333 -0.8290 -0.9653
  850SOL     OW 2548   0.071   1.636   0.385  0.0616 -0.2681 -0.3943
  850SOL    HW1 2549   3.097   1.596   0.331 -2.5412 -0.5469  1.1104
  850SOL    HW2 2550   0.050   1.731   0.415 -0.4160 -0.0652 -0.6891
  851SOL     OW 2551   0.266   0.676   0.211 -0.2889  0.6378  0.1823
  851SOL    HW1 2552   0.223   0.762   0.184 -1.0990 -0.3190 -0.3292
  851SOL    HW2 2553   0.343   0.657   0.145 -0.2185  1.4589 -2.2207
  852SOL     OW 2554   1.475   1.974   1.846  0.0882  0.2085 -0.0093
  852SOL    HW1 2555   1.547   2.008   1.785 -1.6312 -0.5123  0.7827
  852SOL    HW2 2556   1.401   1.924   1.791 -2.4229 -0.8312 -0.6469
  853SOL     OW 2557   0.327   1.545   0.274  0.1209 -0.0534 -0.0822
  853SOL    HW1 2558   0.389   1.614   0.231  0.3722 -1.2614  0.5748
  853SOL    HW2 2559   0.239   1.597   0.292 -2.5310  1.2746 -1.2135
  854SOL     OW 2560   1.796   1.220   1.553 -0.4440  0.4064 -0.2224
  854SOL    HW1 2561   1.873   1.263   1.494  2.1586  3.2180  0.7590
  854SOL    HW2 2562   1.846   1.142   1.599  4.3341  2.6267 -0.6499
  855SOL     OW 2563   0.601   2.154   0.109 -0.0388  0.0324 -0.0770
  855SOL    HW1 2564   0.498   2.161   0.130 -3.7834 -0.8457  3.5973
  855SOL    HW2 2565   0.661   2.234   0.111 -0.2196  0.0080 -1.5998
  856SOL     OW 2566   2.942   0.097   1.962 -0.2468 -0.2881  1.0777
  856SOL    HW1 2567   2.909   0.188   1.997  2.8709  2.7453 -0.0130
  856SOL    HW2 2568   2.942   0.025   2.033 -0.3422 -1.3297 -0.8946
  857SOL     OW 2569   0.396   0.481   1.762  0.0617 -0.0587  0.0257
  857SOL    HW1 2570   0.298   0.486   1.738  0.7076  1.1616 -1.3390
  857SOL    HW2 2571   0.444   0.563   1.736  0.8284  0.3771  1.7147
  858SOL     OW 2572   2.909   1.610   2.292  0.4036  0.0203 -0.0753
  858SOL    HW1 2573   2.872   1.517   2.286  0.5446  0.2755  0.2392
  858SOL    HW2 2574   2.945   1.647   2.205 -0.0451 -0.1841  1.2749
  859SOL     OW 2575   2.047   2.931   0.540 -0.1189  0.3116  0.3194
  859SOL    HW1 2576   2.077   2.864   0.467  1.1687  0.5933 -0.5241
  859SOL    HW2 2577   2.056   2.895   0.635  1.2966 -2.6294  1.2095
  860SOL     OW 2578   1.862   0.265   0.128  0.1148 -0.2015  0.0247
  860SOL    HW1 2579   1.912   0.231   0.045  0.1304  1.2474 -0.2000
  860SOL    HW2 2580   1.764   0.282   0.106  2.5787  2.1196  1.8259
  861SOL     OW 2581   0.624   0.648   0.900  0.2928 -0.1533 -0.1470
  861SOL    HW1 2582   0.559   0.711   0.946  1.2048 -0.1382  1.0353
  861SOL    HW2 2583   0.634   0.565   0.956  0.4288 -2.2525 -0.7482
  862SOL     OW 2584   1.748   0.607   1.828 -0.0992  0.2466  0.8038
  862SOL    HW1 2585   1.671   0.621   1.889  2.0866 -0.7740  1.2488
  862SOL    HW2 2586   1.712   0.578   1.735 -0.5714  0.5874  2.8232
  863SOL     OW 2587   0.292   1.704   1.014 -0.5011  0.0162 -0.0474
  863SOL    HW1 2588   0.250   1.794   1.014 -0.1936 -0.8079 -0.5710
  863SOL    HW2 2589   0.387   1.713   1.045  0.0746 -1.5872 -0.9177
  864SOL     OW 2590   2.434   3.080   1.949  0.2575 -0.0784  0.6910
  864SOL    HW1 2591   2.528   3.098   1.930 -1.7383 -1.8661  3.2435
  864SOL    HW2 2592   2.411   2.989   1.907 -2.8461  1.4194 -2.2509
  865SOL     OW 2593   1.370   0.585   1.318  0.0308 -0.2587 -0.2519
  865SOL    HW1 2594   1.356   0.613   1.417  2.7033 -0.7060 -1.6003
  865SOL    HW2 2595   1.318   0.503   1.295  2.0525  0.6984  1.6290
  866SOL     OW 2596   2.582   2.500   0.515 -0.3456 -0.5491 -0.1733
  866SOL    HW1 2597   2.621   2.495   0.419 -0.1742 -2.5436  0.5913
  866SOL    HW2 2598   2.652   2.527   0.579 -1.5959 -0.7900 -3.1320
  867SOL     OW 2599   2.836   2.577   0.608  0.2292  0.0623  0.6520
  867SOL    HW1 2600   2.839   2.553   0.706  1.3546  1.2017 -1.2567
  867SOL    HW2 2601   2.881   2.670   0.584  2.1595  1.6195 -1.0670
  868SOL     OW 2602   1.348   1.887   2.437 -0.0665 -0.4336 -0.2104
  868SOL    HW1 2603   1.284   1.836   2.376 -0.1478 -0.1090  1.2689
  868SOL    HW2 2604   1.325   1.985   2.450 -0.7428  0.3168  0.6484
  869SOL     OW 2605   2.182   1.532   0.290 -0.2945 -0.0773  0.3695
  869SOL    HW1 2606   2.118   1.499   0.364 -1.1383 -1.6068  0.9826
  869SOL    HW2 2607   2.267   1.563   0.336  0.0617 -0.2131  2.3238
  870SOL     OW 2608   2.497   1.949   0.546 -0.2719  0.0621 -0.2882
  870SOL    HW1 2609   2.521   2.046   0.568 -2.5104 -0.3458 -0.9128
  870SOL    HW2 2610   2.402   1.949   0.514  1.1768 -0.3840 -0.0939
  871SOL     OW 2611   2.956   0.859   1.529  0.5521  0.4554 -0.0347
  871SOL    HW1 2612   3.032   0.919   1.504  1.3623 -0.2778  2.6482
  871SOL    HW2 2613   2.987   0.788   1.598 -1.7261 -3.8304 -0.4911
  872SOL     OW 2614   0.587   1.690   2.618  0.0921 -0.2095 -0.1657
  872SOL    HW1 2615   0.589   1.793   2.609  0.9076 -0.3100 -1.9708
  872SOL    HW2 2616   0.496   1.660   2.661 -2.5421 -1.2407  0.0834
  873SOL     OW 2617   0.442   2.605   1.904  0.6944 -0.0377  0.7613
  873SOL    HW1 2618   0.379   2.679   1.936  1.7390  0.3356  1.8875
  873SOL    HW2 2619   0.523   2.644   1.857 -0.4763  2.5115 -0.3790
  874SOL     OW 2620   1.226   1.174   2.130  0.4310  0.4079  0.1217
  874SOL    HW1 2621   1.196   1.250   2.189  0.3739 -1.4241 -2.2393
  874SOL    HW2 2622   1.276   1.104   2.188  0.1106 -3.0260  3.5388
  875SOL     OW 2623   2.944   2.784   1.124  0.1652 -0.1881  0.1061
  875SOL    HW1 2624   3.033   2.795   1.172 -0.4339 -1.2668 -0.0523
  875SOL    HW2 2625   2.896   2.873   1.129 -1.6694  1.0486 -0.5313
  876SOL     OW 2626   1.053   1.275   0.831  0.0177  0.4550  0.2502
  876SOL    HW1 2627   1.034   1.360   0.880  0.9835 -1.7443 -1.4546
  876SOL    HW2 2628   0.972   1.225   0.796 -0.3359 -0.2795  1.6004
  877SOL     OW 2629   0.385   0.203   1.380  0.4897  0.1349  0.1189
  877SOL    HW1 2630   0.395   0.111   1.426 -1.7657 -3.5357  1.1768
  877SOL    HW2 2631   0.454   0.210   1.304 -0.8681  2.3261  0.4513
  878SOL     OW 2632   2.680   1.765   2.922  0.5171 -0.2755  0.0031
  878SOL    HW1 2633   2.719   1.671   2.919  1.3009  0.8975 -2.5725
  878SOL    HW2 2634   2.591   1.760   2.867 -4.0350 -0.7538  1.1257
  879SOL     OW 2635   2.461   2.101   1.394  0.3985 -0.8801  0.2063
  879SOL    HW1 2636   2.534   2.149   1.446 -1.8067  1.3970 -0.4678
  879SOL    HW2 2637   2.493   2.095   1.296 -0.4563  0.2763 -3.7391
  880SOL     OW 2638   1.142   2.283   1.420 -0.1857  0.5176  0.0392
  880SOL    HW1 2639   1.205   2.278   1.501 -1.7687  1.8917 -1.0193
  880SOL    HW2 2640   1.166   2.221   1.342 -0.1753  0.0837  0.2622
  881SOL     OW 2641   1.364   1.968   1.053 -0.1478  0.1172 -0.3018
  881SOL    HW1 2642   1.437   1.951   1.117 -0.7401  0.7014 -0.8101
  881SOL    HW2 2643   1.339   1.881   1.000  0.7747 -2.9982  0.4637
  882SOL     OW 2644   2.222   1.430   2.423  0.3840  0.4275  0.0979
  882SOL    HW1 2645   2.250   1.371   2.500 -0.4223 -0.2742  2.6947
  882SOL    HW2 2646   2.243   1.528   2.439 -2.0401  0.4400 -1.0529
  883SOL     OW 2647   1.243   0.401   0.691  0.4771 -0.0767 -0.0153
  883SOL    HW1 2648   1.161   0.413   0.629 -1.7497  0.5862 -0.5919
  883SOL    HW2 2649   1.259   0.302   0.717 -3.8783 -2.7921 -0.9060
  884SOL     OW 2650   0.151   2.792   0.827  0.3284  0.2003  0.5191
  884SOL    HW1 2651   0.201   2.769   0.745  0.5489  0.9402  1.9063
  884SOL    HW2 2652   0.097   2.720   0.870  2.5881  0.3133 -4.0047
  885SOL     OW 2653   1.040   1.058   1.980 -0.2743  0.1857 -0.2769
  885SOL    HW1 2654   1.069   1.044   1.881 -2.0491  1.0404 -0.2801
  885SOL    HW2 2655   1.110   1.125   2.021 -2.7512 -1.8463  0.2534
  886SOL     OW 2656   1.137   1.004   2.955 -0.0257 -0.2183  0.3096
  886SOL    HW1 2657   1.084   1.081   2.918  1.4963  0.2399  0.7004
  886SOL    HW2 2658   1.225   0.990   2.900 -0.0132 -0.7134 -1.3269
  887SOL     OW 2659   1.665   0.315   0.850  0.8930 -0.0236 -0.3127
  887SOL    HW1 2660   1.612   0.363   0.922  1.9776 -0.1947  0.0159
  887SOL    HW2 2661   1.734   0.379   0.822 -2.8313 -1.4272  0.1662
  888SOL     OW 2662   2.425   1.419   1.635  0.0630  0.1280 -0.1598
  888SOL    HW1 2663   2.492   1.453   1.568 -2.0726 -2.1137 -1.1413
  888SOL    HW2 2664   2.454   1.437   1.733 -0.0523  1.2562 -1.5005
  889SOL     OW 2665   0.159   2.217   1.089  0.2900 -0.7186  1.2293
  889SOL    HW1 2666   0.098   2.292   1.119 -0.3393 -0.4191 -0.0449
  889SOL    HW2 2667   0.182   2.224   0.993 -2.8178 -1.3386 -0.5431
  890SOL     OW 2668   1.229   2.399   0.631  0.3631  0.0698 -0.0269
  890SOL    HW1 2669   1.303   2.413   0.562 -0.1005  2.5179 -0.2169
  890SOL    HW2 2670   1.189   2.309   0.616  0.9651  1.3428 -1.3470
  891SOL     OW 2671   2.766   0.468   2.407 -0.1595  0.0786 -0.3333
  891SOL    HW1 2672   2.866   0.473   2.425  2.3398 -0.4409 -1.7055
  891SOL    HW2 2673   2.715   0.519   2.482  0.2436  0.6724  2.7030
  892SOL     OW 2674   0.139   2.556   1.598 -0.7878 -0.0316 -0.2202
  892SOL    HW1 2675   0.130   2.512   1.508  0.4093 -0.1333 -1.4430
  892SOL    HW2 2676   0.210   2.512   1.660  0.4881  0.6683  2.9390
  893SOL     OW 2677   1.114   0.481   1.767 -0.2931 -0.3032 -0.4381
  893SOL    HW1 2678   1.138   0.390   1.731  0.2745 -0.9726  1.1778
  893SOL    HW2 2679   1.185   0.526   1.824  0.2607  2.5602 -0.2118
  894SOL     OW 2680   2.828   0.069   0.849 -0.1227 -0.0126 -0.1297
  894SOL    HW1 2681   2.867   0.107   0.936  1.6300  0.9523  0.7144
  894SOL    HW2 2682   2.740   0.121   0.831 -1.2880 -2.1807 -2.2623
  895SOL     OW 2683   1.991   1.696   2.323 -0.0641 -0.3075 -0.2691
  895SOL    HW1 2684   1.910   1.635   2.341 -0.2232 -0.4231  2.0972
  895SOL    HW2 2685   2.032   1.655   2.243 -0.2076 -1.9055 -1.7675
  896SOL     OW 2686   1.631   0.564   1.584 -0.4857 -0.0681  0.3529
  896SOL    HW1 2687   1.689   0.528   1.510  0.8482 -0.5654 -2.5357
  896SOL    HW2 2688   1.592   0.656   1.560 -0.7731  1.4513  2.3546
  897SOL     OW 2689   0.672   1.546   1.666  0.4564  0.2223 -0.5766
  897SOL    HW1 2690   0.712   1.602   1.739 -2.4331 -0.0948 -0.2845
  897SOL    HW2 2691   0.739   1.480   1.628 -2.9835 -0.2708  1.2551
  898SOL     OW 2692   1.782   1.975   2.052  0.1585  0.1057 -0.1008
  898SOL    HW1 2693   1.705   1.956   2.119 -1.6799  0.2515  1.5097
  898SOL    HW2 2694   1.873   1.956   2.098  1.7826 -3.0910  1.8421
  899SOL     OW 2695   1.678   2.201   0.715 -0.3177  0.1795 -0.4003
  899SOL    HW1 2696   1.631   2.117   0.739  1.6014  0.2409 -1.4167
  899SOL    HW2 2697   1.683   2.209   0.615 -2.3742  0.8949 -3.5159
  900SOL     OW 2698   0.898   0.317   2.526  0.0854 -0.1784  0.0540
  900SOL    HW1 2699   0.885   0.253   2.606  0.5025  0.2836  0.7392
  900SOL    HW2 2700   0.843   0.281   2.449  0.4663  0.0978  1.4320
  901SOL     OW 2701   1.065   1.553   2.134  0.0743 -0.1114 -0.6088
  901SOL    HW1 2702   0.972   1.581   2.117  0.3172 -0.0690  1.0424
  901SOL    HW2 2703   1.053   1.458   2.169 -0.5297 -0.1260 -1.8432
  902SOL     OW 2704   1.930   0.610   3.061 -0.2213  0.0889  0.3145
  902SOL    HW1 2705   1.914   0.694   3.006  0.1634 -1.0006  1.0675
  902SOL    HW2 2706   1.876   0.606   0.045 -0.9535 -3.1282 -1.5034
  903SOL     OW 2707   1.908   0.964   2.469  0.0043  0.5830 -0.4407
  903SOL    HW1 2708   1.907   1.057   2.514 -0.1153 -0.4311 -0.2082
  903SOL    HW2 2709   1.918   0.962   2.369 -0.3792  0.9375  3.4879
  904SOL     OW 2710   1.957   1.042   1.709 -0.3069 -0.1358 -0.3210
  904SOL    HW1 2711   1.877   0.989   1.750  0.8859 -3.3730 -1.4805
  904SOL    HW2 2712   2.015   1.082   1.786  1.7571 -3.5917  1.9819
  905SOL     OW 2713   2.088   0.361   0.843  0.3746  0.1803 -0.1431
  905SOL    HW1 2714   2.144   0.426   0.787  2.1458  0.2275  1.1361
  905SOL    HW2 2715   2.146   0.324   0.924  2.5286 -3.5111  0.8564
  906SOL     OW 2716   2.746   1.646   0.608 -0.3157  0.0985 -0.1971
  906SOL    HW1 2717   2.793   1.560   0.568 -1.6747 -1.7914  0.7139
  906SOL    HW2 2718   2.741   1.725   0.546 -2.4333  2.0633  2.7487
  907SOL     OW 2719   1.362   0.137   0.412  0.1750 -0.8579 -0.1014
  907SOL    HW1 2720   1.400   0.143   0.507 -1.4255 -0.2965  0.8489
  907SOL    HW2 2721   1.286   0.065   0.406  0.5791 -1.6162  0.8110
  908SOL     OW 2722   1.654   2.359   2.063 -0.2473 -0.2596 -0.3491
  908SOL    HW1 2723   1.595   2.320   2.135  0.7855 -0.8985  1.6536
  908SOL    HW2 2724   1.744   2.387   2.101  1.5639 -0.4496  2.3247
  909SOL     OW 2725   2.574   0.634   1.632  0.4704 -0.5148  0.3823
  909SOL    HW1 2726   2.498   0.697   1.644  0.9232  0.9600  0.8166
  909SOL    HW2 2727   2.572   0.561   1.698  1.8297  3.7054 -1.8505
  910SOL     OW 2728   1.176   0.283   2.482  0.2470  0.1404 -0.1161
  910SOL    HW1 2729   1.083   0.329   2.476 -0.4639  1.1664 -3.1417
  910SOL    HW2 2730   1.236   0.318   2.560  0.7930 -0.7186 -0.7945
  911SOL     OW 2731   2.269   1.040   2.457 -0.3963 -0.0543 -0.2610
  911SOL    HW1 2732   2.225   0.999   2.377 -0.6391  3.1902 -0.1114
  911SOL    HW2 2733   2.368   1.020   2.442  0.6124  1.7107 -2.4422
  912SOL     OW 2734   2.998   2.365   1.419  0.5302  0.1220 -0.1024
  912SOL    HW1 2735   2.910   2.310   1.410 -0.6579 -0.1859 -1.3744
  912SOL    HW2 2736   2.991   2.410   1.511 -1.3696  1.0552  0.7277
  913SOL     OW 2737   2.595   1.923   2.093  0.0550 -0.2707 -0.2268
  913SOL    HW1 2738   2.618   2.013   2.133  0.6203 -0.8382 -2.4504
  913SOL    HW2 2739   2.516   1.935   2.032  1.3929 -0.6534  0.9586
  914SOL     OW 2740   2.222   1.748   0.811 -0.0740 -0.2822  0.1284
  914SOL    HW1 2741   2.318   1.739   0.782 -2.0876 -0.7392 -0.9292
  914SOL    HW2 2742   2.163   1.748   0.727  0.9652 -0.6265 -1.7356
  915SOL     OW 2743   0.859   2.638   2.225 -0.0337  0.0341  0.6172
  915SOL    HW1 2744   0.836   2.715   2.286 -2.4873 -0.3987 -1.2065
  915SOL    HW2 2745   0.780   2.619   2.163 -1.4146 -0.4248  1.5905
  916SOL     OW 2746   0.480   2.369   1.049 -0.1096 -0.5331  0.3425
  916SOL    HW1 2747   0.508   2.335   1.140  3.2841  0.3982 -0.0335
  916SOL    HW2 2748   0.380   2.375   1.042  0.8765 -0.0477  0.0244
  917SOL     OW 2749   2.544   0.934   2.815 -0.0887  0.5186  0.8582
  917SOL    HW1 2750   2.462   0.919   2.754 -0.7078  1.1392  0.4696
  917SOL    HW2 2751   2.582   0.848   2.855  2.2299 -0.8275 -1.6725
  918SOL     OW 2752   1.490   2.205   2.238  0.1202  0.1788  0.5559
  918SOL    HW1 2753   1.538   2.115   2.230  0.4962 -3.4314 -0.1129
  918SOL    HW2 2754   1.494   2.239   2.335 -1.2034  0.6770 -1.3124
  919SOL     OW 2755   1.942   2.180   0.865 -0.3134 -0.1133  0.3392
  919SOL    HW1 2756   1.872   2.156   0.794  0.3502  2.0826 -1.6906
  919SOL    HW2 2757   2.033   2.133   0.849  0.2169 -3.3692  1.2448
  920SOL     OW 2758   1.447   0.484   2.431 -0.5740 -0.2523 -0.3366
  920SOL    HW1 2759   1.443   0.392   2.475  0.7413  0.5040 -0.1918
  920SOL    HW2 2760   1.372   0.543   2.469  0.0929  1.7491  0.4772
  921SOL     OW 2761   0.165   0.596   2.797 -0.1352  0.3428  0.2184
  921SOL    HW1 2762   0.218   0.662   2.731  2.8936  1.5026 -1.8795
  921SOL    HW2 2763   0.136   0.515   2.743 -1.7838 -0.1709 -1.1748
  922SOL     OW 2764   2.699   1.874   1.234  0.1166  0.5247  0.6865
  922SOL    HW1 2765   2.779   1.894   1.290  0.4417 -0.6640 -0.5201
  922SOL    HW2 2766   2.658   1.956   1.186 -1.5866  0.8112 -1.0854
  923SOL     OW 2767   0.013   1.860   2.522  0.0822  0.1681  0.3068
  923SOL    HW1 2768   0.041   1.913   2.439 -1.7955  0.9105 -0.4869
  923SOL    HW2 2769   3.025   1.900   2.556 -1.6907 -0.1140  1.7177
  924SOL     OW 2770   1.545   0.546   2.180 -0.0798  0.1071  0.0147
  924SOL    HW1 2771   1.530   0.486   2.101 -1.4995  0.6071  2.8455
  924SOL    HW2 2772   1.503   0.511   2.263  1.9658  1.2989 -2.9695
  925SOL     OW 2773   2.999   1.028   0.402  0.1460  0.1169 -0.5202
  925SOL    HW1 2774   2.954   0.946   0.362 -0.3813 -1.0016  0.6614
  925SOL    HW2 2775   2.953   1.058   0.488 -3.1414 -1.2475  1.6075
  926SOL     OW 2776   2.269   0.264   1.033 -0.1458 -0.2251  0.4537
  926SOL    HW1 2777   2.343   0.190   1.013 -1.6435 -2.5790  1.9720
  926SOL    HW2 2778   2.289   0.304   1.126  1.5079  0.5660  1.6940
  927SOL     OW 2779   1.314   0.778   0.960 -0.0171  0.3310  0.9897
  927SOL    HW1 2780   1.296   0.836   0.876  0.2979  0.6927  0.3271
  927SOL    HW2 2781   1.261   0.688   0.949  0.1654  1.9386 -0.4994
  928SOL     OW 2782   2.905   0.317   2.120 -0.0877  0.0541  0.1905
  928SOL    HW1 2783   2.895   0.256   2.201 -2.8203 -1.3489 -1.3200
  928SOL    HW2 2784   3.001   0.334   2.113 -1.7668 -0.2714 -0.2996
  929SOL     OW 2785   2.451   0.663   1.203  0.1458  0.8144  0.6902
  929SOL    HW1 2786   2.527   0.629   1.265 -2.4846  2.8648  0.7923
  929SOL    HW2 2787   2.444   0.761   1.206 -1.0776 -3.4175 -1.3372
  930SOL     OW 2788   2.062   2.398   0.955 -0.5298  0.6346  0.0234
  930SOL    HW1 2789   2.007   2.317   0.925  0.0373  4.6871  1.1341
  930SOL    HW2 2790   2.035   2.416   1.051  2.3194 -3.6584  0.5969
  931SOL     OW 2791   1.926   0.857   1.140  0.1141 -0.2341  0.5514
  931SOL    HW1 2792   1.920   0.813   1.229  0.7749  2.2219 -3.4371
  931SOL    HW2 2793   1.960   0.952   1.158  1.6655 -1.2293  1.5577
  932SOL     OW 2794   0.210   0.730   1.381  0.0755  0.2447 -0.0753
  932SOL    HW1 2795   0.123   0.678   1.371  0.9483  4.2395 -0.0309
  932SOL    HW2 2796   0.213   0.820   1.335  1.3475 -2.1360  0.6140
  933SOL     OW 2797   2.107   1.608   2.091  0.1488 -0.3397  0.1192
  933SOL    HW1 2798   2.101   1.515   2.057  0.7518  1.3903  0.3303
  933SOL    HW2 2799   2.108   1.675   2.014  0.1485  0.0587 -0.3794
  934SOL     OW 2800   1.573   2.764   1.667  0.3646 -0.3623 -0.2474
  934SOL    HW1 2801   1.626   2.727   1.591  0.5647 -0.4964  0.0010
  934SOL    HW2 2802   1.576   2.870   1.668 -0.5140  2.0176 -0.1131
  935SOL     OW 2803   0.208   0.993   1.270 -0.2433 -0.0820 -0.0928
  935SOL    HW1 2804   0.131   1.016   1.206 -0.2460 -0.0777  0.3643
  935SOL    HW2 2805   0.299   1.019   1.233  0.0955  2.4930  1.5920
  936SOL     OW 2806   2.648   0.582   1.385  0.6549  0.7043 -0.4661
  936SOL    HW1 2807   2.617   0.610   1.478  3.0784 -3.3917 -1.4066
  936SOL    HW2 2808   2.731   0.630   1.359 -0.0864 -3.8186  4.8405
  937SOL     OW 2809   0.864   0.193   1.452  0.1878  0.2536 -0.2224
  937SOL    HW1 2810   0.869   0.264   1.382  1.9479 -2.9534  0.6659
  937SOL    HW2 2811   0.854   0.237   1.543  0.8962 -2.3850 -0.1803
  938SOL     OW 2812   0.277   2.462   0.633  0.3266 -0.2746  0.4007
  938SOL    HW1 2813   0.189   2.417   0.652  1.1979  1.9943 -0.1139
  938SOL    HW2 2814   0.356   2.401   0.629 -0.2885  0.6419 -1.9570
  939SOL     OW 2815   2.934   2.436   2.737 -0.1835  0.5799 -0.1856
  939SOL    HW1 2816   2.999   2.477   2.673 -3.0773 -0.3249  0.2992
  939SOL    HW2 2817   2.899   2.502   2.810 -3.4328 -1.7054  2.9085
  940SOL     OW 2818   1.869   2.129   2.931  0.0506 -0.4924  0.3858
  940SOL    HW1 2819   1.827   2.205   2.879  0.3959 -1.0324 -0.4265
  940SOL    HW2 2820   1.873   2.046   2.875 -1.7530  2.2571  0.8318
  941SOL     OW 2821   1.818   2.543   0.575  0.1058  0.2854  0.4008
  941SOL    HW1 2822   1.777   2.548   0.670 -1.6507  0.1189 -0.5955
  941SOL    HW2 2823   1.914   2.537   0.583 -4.5696  3.9501 -2.2373
  942SOL     OW 2824   1.798   1.777   1.106  0.1797  0.2273 -0.0029
  942SOL    HW1 2825   1.890   1.817   1.102 -1.5069  0.1703 -3.1365
  942SOL    HW2 2826   1.728   1.838   1.071  1.9010 -0.7925  1.3120
  943SOL     OW 2827   1.969   0.772   1.935 -0.2222  0.0114 -0.0879
  943SOL    HW1 2828   1.900   0.727   1.878  3.3009 -0.6146 -0.6431
  943SOL    HW2 2829   2.049   0.710   1.956  0.8517  0.8244  0.9328
  944SOL     OW 2830   1.712   0.939   1.806 -0.5101  0.7998 -0.2353
  944SOL    HW1 2831   1.717   0.866   1.871 -1.1388  1.2420 -1.1504
  944SOL    HW2 2832   1.618   0.937   1.771  1.2797  0.8099  1.1192
  945SOL     OW 2833   2.745   2.638   1.246  0.1964  0.3490  0.0569
  945SOL    HW1 2834   2.651   2.676   1.214 -2.8857 -0.3438 -0.9246
  945SOL    HW2 2835   2.815   2.689   1.193 -0.9346  2.1468 -2.2548
  946SOL     OW 2836   0.696   1.560   0.937  0.1799 -0.1994  0.6254
  946SOL    HW1 2837   0.631   1.483   0.933 -0.6227  1.9593 -1.0209
  946SOL    HW2 2838   0.702   1.612   0.849  0.1302 -0.9291  2.7919
  947SOL     OW 2839   0.924   2.612   0.964  0.1450 -0.2956  0.8199
  947SOL    HW1 2840   0.910   2.714   0.961  0.9703  1.9620 -1.7749
  947SOL    HW2 2841   0.855   2.571   1.025  3.2236  0.9637 -0.8867
  948SOL     OW 2842   0.282   1.426   1.579 -0.0173 -0.4194 -0.0889
  948SOL    HW1 2843   0.303   1.327   1.596  2.0400 -0.6823 -1.3240
  948SOL    HW2 2844   0.336   1.490   1.642 -1.0064 -0.1373  0.7998
  949SOL     OW 2845   0.379   0.795   2.201  0.5970  0.2461  0.1908
  949SOL    HW1 2846   0.482   0.789   2.207 -1.9958 -0.3371 -1.1312
  949SOL    HW2 2847   0.349   0.816   2.105 -0.2852 -1.9358 -2.1578
  950SOL     OW 2848   0.188   0.340   1.248  0.5755 -0.2445  0.0686
  950SOL    HW1 2849   0.233   0.276   1.314 -0.7058 -1.8165  2.9235
  950SOL    HW2 2850   0.252   0.402   1.200  0.1249 -1.0843 -0.4196
  951SOL     OW 2851   1.185   1.825   2.152 -0.0592  0.3499 -0.4899
  951SOL    HW1 2852   1.130   1.738   2.165  0.0514 -0.8722 -0.2785
  951SOL    HW2 2853   1.126   1.905   2.136 -0.2032 -0.2259 -0.9291
  952SOL     OW 2854   1.216   1.665   0.229  0.0605 -0.2168  0.0907
  952SOL    HW1 2855   1.206   1.609   0.318  1.9363  0.9390  0.0847
  952SOL    HW2 2856   1.303   1.639   0.182 -1.1073  0.1614 -0.4751
  953SOL     OW 2857   0.913   0.171   2.762  0.0848 -0.4399 -0.1891
  953SOL    HW1 2858   0.837   0.143   2.828 -1.6647 -1.2818  2.3195
  953SOL    HW2 2859   0.986   0.097   2.753  1.1259 -4.1215  3.9945
  954SOL     OW 2860   1.974   1.623   0.116 -0.2131 -0.1101  0.5046
  954SOL    HW1 2861   1.936   1.530   0.142  1.3024 -0.8419 -0.6051
  954SOL    HW2 2862   2.053   1.649   0.166 -3.5578 -4.3415 -0.3200
  955SOL     OW 2863   0.317   2.512   2.898  0.4971  1.0975 -0.0707
  955SOL    HW1 2864   0.394   2.534   2.836  0.4065 -0.1911 -0.0192
  955SOL    HW2 2865   0.306   2.412   2.910  0.0394 -0.2410  0.8179
  956SOL     OW 2866   1.356   0.962   1.776  0.5580 -0.3816  0.7157
  956SOL    HW1 2867   1.262   0.968   1.737  2.4336 -0.9747  1.8689
  956SOL    HW2 2868   1.374   0.868   1.809 -0.3699  0.5324  4.4545
  957SOL     OW 2869   1.792   1.820   1.826 -0.5578  0.1804  0.0792
  957SOL    HW1 2870   1.754   1.884   1.897  0.8266 -0.0494  0.3331
  957SOL    HW2 2871   1.738   1.817   1.741  1.1971  0.0936  1.1430
  958SOL     OW 2872   1.321   2.188   1.637 -0.4859  0.7415  0.2171
  958SOL    HW1 2873   1.294   2.265   1.703  1.4467 -0.4743 -0.0221
  958SOL    HW2 2874   1.395   2.216   1.573  1.1640 -1.1509 -2.8719
  959SOL     OW 2875   1.314   1.325   1.312 -0.5896  0.5261 -0.0954
  959SOL    HW1 2876   1.415   1.316   1.295 -1.1538 -0.8111 -1.1633
  959SOL    HW2 2877   1.297   1.347   1.409 -2.7074 -2.9803  1.1655
  960SOL     OW 2878   0.216   1.469   3.043  0.1805  0.7412  0.5912
  960SOL    HW1 2879   0.215   1.392   0.009 -0.2933 -3.0263 -0.5480
  960SOL    HW2 2880   0.234   1.423   2.954  0.5000 -0.7088 -0.2365
  961SOL     OW 2881   0.512   1.397   2.270  0.4339 -0.7355 -0.4064
  961SOL    HW1 2882   0.475   1.332   2.340 -0.7589  0.6410  0.1834
  961SOL    HW2 2883   0.609   1.379   2.254  2.0316  0.8376  1.6228
  962SOL     OW 2884   1.364   1.738   0.872  0.1509 -0.1464  0.4083
  962SOL    HW1 2885   1.415   1.747   0.784  2.5109 -0.4904  0.4763
  962SOL    HW2 2886   1.409   1.661   0.926  1.3688 -2.7240  0.3177
  963SOL     OW 2887   1.271   2.242   2.647 -0.4043 -0.6616  0.2359
  963SOL    HW1 2888   1.251   2.190   2.567 -0.5684  1.8041  2.9490
  963SOL    HW2 2889   1.254   2.186   2.728 -1.5571 -0.4842 -1.3068
  964SOL     OW 2890   0.865   2.994   0.173  0.0779 -0.6197 -0.1259
  964SOL    HW1 2891   0.840   3.049   0.256  0.5387 -0.4352  0.3060
  964SOL    HW2 2892   0.867   2.894   0.195  3.0544 -0.2703  1.3065
  965SOL     OW 2893   0.634   2.925   0.869 -0.9528  0.0427  0.4949
  965SOL    HW1 2894   0.728   2.928   0.910  0.8046 -0.5575  2.5231
  965SOL    HW2 2895   0.568   2.971   0.930 -1.4375 -0.2520 -1.5966
  966SOL     OW 2896   0.348   1.664   2.752 -0.0847  0.7880  0.0750
  966SOL    HW1 2897   0.361   1.688   2.849 -0.2842 -1.9193  0.5999
  966SOL    HW2 2898   0.299   1.575   2.757  1.2570  1.4089  1.2365
  967SOL     OW 2899   0.542   2.921   2.433  0.0017 -0.1015  0.8950
  967SOL    HW1 2900   0.523   3.010   2.476 -0.1363 -0.4323 -0.9119
  967SOL    HW2 2901   0.511   2.907   2.336  0.3991 -0.0465 -1.6926
  968SOL     OW 2902   2.284   0.536   0.424  0.0356 -0.3896  0.3384
  968SOL    HW1 2903   2.236   0.456   0.389 -0.7475  1.9989  3.1438
  968SOL    HW2 2904   2.321   0.582   0.342 -2.7059 -0.4109 -0.8214
  969SOL     OW 2905   2.947   1.742   2.063 -0.4272 -0.7647 -0.4137
  969SOL    HW1 2906   3.008   1.719   1.985  0.3884 -1.1087 -0.1751
  969SOL    HW2 2907   2.847   1.726   2.038  2.6905 -1.2595 -2.9949
  970SOL     OW 2908   2.200   1.493   1.468  0.1104 -0.1409 -0.3079
  970SOL    HW1 2909   2.211   1.511   1.372  1.9404  1.4243  1.4574
  970SOL    HW2 2910   2.286   1.455   1.506 -3.0244 -1.3324 -0.9305
  971SOL     OW 2911   2.126   0.081   1.299 -0.3582  0.5429 -0.0305
  971SOL    HW1 2912   2.147   0.090   1.202  0.5710 -0.9385 -0.3730
  971SOL    HW2 2913   2.036   0.031   1.307 -0.9835 -0.4622  0.5354
  972SOL     OW 2914   0.317   2.899   1.658  0.1544  0.0484  0.4227
  972SOL    HW1 2915   0.320   2.884   1.763  0.7058  1.6868  3.5591
  972SOL    HW2 2916   0.237   2.855   1.611  1.3471  1.4796  1.5936
  973SOL     OW 2917   2.593   0.792   0.066  0.0410  0.0272 -0.3296
  973SOL    HW1 2918   2.660   0.782   3.091  1.4476  1.0181 -2.4760
  973SOL    HW2 2919   2.522   0.865   0.046  1.3760 -0.2766  0.8912
  974SOL     OW 2920   1.949   1.382   2.374 -0.5529  0.1391  0.0157
  974SOL    HW1 2921   2.048   1.418   2.375  1.9130  0.7671 -1.1115
  974SOL    HW2 2922   1.922   1.332   2.294 -1.1884 -0.0364  2.5348
  975SOL     OW 2923   0.108   2.806   1.518 -0.0367  0.5243  0.7957
  975SOL    HW1 2924   0.082   2.817   1.415  0.1538 -2.0793 -1.4324
  975SOL    HW2 2925   0.112   2.706   1.548  0.8683 -0.4541 -0.0328
  976SOL     OW 2926   0.336   1.756   1.956 -0.2360 -0.3488  0.1560
  976SOL    HW1 2927   0.319   1.855   1.948  0.0649 -1.5999 -1.8242
  976SOL    HW2 2928   0.260   1.698   1.992  1.8601 -0.3193  0.9100
  977SOL     OW 2929   1.010   2.656   0.428 -0.6247 -0.3343  0.0380
  977SOL    HW1 2930   1.104   2.663   0.388 -1.3677  0.9319 -3.5604
  977SOL    HW2 2931   1.004   2.695   0.520 -2.0425  0.3178  0.2982
  978SOL     OW 2932   0.277   1.846   2.572 -0.7924 -0.1428 -0.6587
  978SOL    HW1 2933   0.177   1.841   2.558 -1.2834  0.2630  0.5126
  978SOL    HW2 2934   0.296   1.777   2.646 -0.9947  0.1450 -0.9132
  979SOL     OW 2935   1.634   2.389   1.166 -0.1105  0.6329 -0.3477
  979SOL    HW1 2936   1.698   2.468   1.188  0.9404  1.0378  0.2759
  979SOL    HW2 2937   1.689   2.316   1.127  0.8971  1.8405  0.5353
  980SOL     OW 2938   1.030   1.754   2.770 -0.4137  0.4820 -0.3459
  980SOL    HW1 2939   1.057   1.739   2.673  0.0946 -3.2859 -0.1443
  980SOL    HW2 2940   1.058   1.672   2.822 -1.3396  0.9402 -0.5609
  981SOL     OW 2941   2.491   2.976   2.438  0.0750  0.3228 -0.4769
  981SOL    HW1 2942   2.483   3.048   2.361 -2.4107  1.5000 -2.2889
  981SOL    HW2 2943   2.485   3.023   2.531  1.0738  2.5846 -1.0372
  982SOL     OW 2944   0.054   3.059   2.578  0.0278  0.6008 -0.7631
  982SOL    HW1 2945   0.080   0.004   2.494  0.2605  0.4654  3.0056
  982SOL    HW2 2946   3.058   3.070   2.596 -0.8354  2.5367  0.6373
  983SOL     OW 2947   2.140   1.426   1.904  0.6456  0.1610  0.0377
  983SOL    HW1 2948   2.238   1.427   1.875  0.4180  0.8577 -0.7072
  983SOL    HW2 2949   2.078   1.452   1.824  0.4536  0.9391  1.2736
  984SOL     OW 2950   1.365   0.613   1.841  0.9151  0.4552  0.0739
  984SOL    HW1 2951   1.295   0.623   1.914 -1.5065  1.2420  1.3421
  984SOL    HW2 2952   1.400   0.518   1.845 -1.0454 -1.8706  0.4968
  985SOL     OW 2953   1.772   1.558   1.921 -0.2745 -0.3055 -0.0510
  985SOL    HW1 2954   1.694   1.537   1.978 -0.3053 -0.1870  0.2591
  985SOL    HW2 2955   1.772   1.658   1.900 -0.8125  0.0308 -0.9638
  986SOL     OW 2956   1.938   0.442   1.958 -0.0313  0.3752  0.5561
  986SOL    HW1 2957   2.033   0.483   1.957  0.5285 -2.6730  0.6992
  986SOL    HW2 2958   1.867   0.500   1.913 -1.0803 -4.3491 -1.2431
  987SOL     OW 2959   2.165   0.576   1.959  0.1393 -0.1919  0.1814
  987SOL    HW1 2960   2.204   0.490   2.000  1.4502  2.1162 -0.2306
  987SOL    HW2 2961   2.214   0.588   1.868  0.8597 -0.0234  0.0758
  988SOL     OW 2962   2.692   0.584   2.166  0.8566  0.1068  0.2510
  988SOL    HW1 2963   2.708   0.538   2.254 -0.9276  0.4197  0.0405
  988SOL    HW2 2964   2.684   0.683   2.176  1.5078 -3.1420  1.1440
  989SOL     OW 2965   2.074   2.260   2.778  0.2444  0.0378  0.2272
  989SOL    HW1 2966   2.064   2.212   2.690 -1.5923  1.6905  0.3508
  989SOL    HW2 2967   2.032   2.210   2.854 -1.2481  0.2974 -0.9350
  990SOL     OW 2968   1.013   0.592   2.578 -0.1627 -0.4477  0.1441
  990SOL    HW1 2969   0.952   0.515   2.580  0.8773  0.9254  0.4862
  990SOL    HW2 2970   0.997   0.654   2.659  0.7358 -0.7184  0.0416
  991SOL     OW 2971   1.221   0.902   0.369  0.1519 -0.2994  0.1676
  991SOL    HW1 2972   1.191   1.000   0.370  0.7182  1.4032  0.6639
  991SOL    HW2 2973   1.251   0.870   0.275  0.8882 -0.2407  1.6776
  992SOL     OW 2974   2.514   2.118   2.748 -0.1972 -0.1721  0.2837
  992SOL    HW1 2975   2.544   2.212   2.721 -0.2358  2.7428 -1.1822
  992SOL    HW2 2976   2.512   2.063   2.664  0.9726 -0.6814  1.6328
  993SOL     OW 2977   0.406   0.249   0.300 -0.1532 -0.5152 -0.4632
  993SOL    HW1 2978   0.448   0.336   0.273  1.1264 -1.6866 -1.5350
  993SOL    HW2 2979   0.325   0.265   0.364  0.7925  4.2156  1.9800
  994SOL     OW 2980   0.430   2.101   1.818  0.3128  0.4732 -0.1593
  994SOL    HW1 2981   0.440   2.189   1.774 -1.3660 -1.0806  1.3665
  994SOL    HW2 2982   0.523   2.050   1.812  2.6014 -2.6568  0.7200
  995SOL     OW 2983   2.028   1.501   2.831 -0.6439 -1.2154  0.4213
  995SOL    HW1 2984   1.954   1.430   2.824  1.0109 -0.5428 -0.5517
  995SOL    HW2 2985   2.102   1.463   2.772  1.8409 -3.0472  0.3267
  996SOL     OW 2986   1.616   1.744   2.738 -0.3737  0.1804 -0.1191
  996SOL    HW1 2987   1.652   1.731   2.642  1.3922 -1.3040  0.2601
  996SOL    HW2 2988   1.526   1.792   2.734 -0.9640 -0.6088 -1.1608
  997SOL     OW 2989   1.956   1.354   1.400  0.7040  0.7697  0.6203
  997SOL    HW1 2990   2.045   1.397   1.423  2.6250 -2.4667  0.1306
  997SOL    HW2 2991   1.906   1.401   1.323 -0.5338 -0.6292  1.6341
  998SOL     OW 2992   2.557   1.431   0.177 -0.0988 -0.3234 -0.6167
  998SOL    HW1 2993   2.489   1.358   0.200 -1.5354 -0.9080  1.7195
  998SOL    HW2 2994   2.656   1.398   0.176  1.0443 -2.8095  1.0614
  999SOL     OW 2995   2.990   2.421   0.470 -0.4715 -0.1054 -0.0519
  999SOL    HW1 2996   2.930   2.470   0.537 -0.3557 -0.3340 -0.4275
  999SOL    HW2 2997   2.948   2.412   0.373 -0.2409  1.1177 -2.2398
 1000SOL     OW 2998   0.740   3.021   1.760  0.2459  0.2371 -0.0829
 1000SOL    HW1 2999   0.661   3.032   1.824  0.0505 -1.4517  1.6640
 1000SOL    HW2 3000   0.814   3.088   1.788  0.3247 -1.8767 -0.9078
   3.10421   3.10421   3.10421
