1000 SPC/Fw water molecules t= 326.00000 step= 326000
 3000
    1SOL     OW    1   2.287   0.123   1.107 -0.3006 -0.5524  0.0600
    1SOL    HW1    2   2.229   0.051   1.155 -0.1795 -0.0421 -0.8358
    1SOL    HW2    3   2.386   0.099   1.117  0.8884 -0.1720  0.2899
    2SOL     OW    4   2.732   2.451   0.922 -0.7111  0.0597 -0.3261
    2SOL    HW1    5   2.710   2.475   1.018  1.9532 -1.9615  0.5154
    2SOL    HW2    6   2.808   2.388   0.922 -3.4604  1.6098  2.1295
    3SOL     OW    7   0.980   0.042   2.958 -0.0263  0.0105  0.8715
    3SOL    HW1    8   1.042   3.069   3.009 -2.3586  1.5460  1.3927
    3SOL    HW2    9   0.881   0.018   2.971  1.0079  0.1176  0.6107
    4SOL     OW   10   1.993   2.528   2.025  0.2530 -0.0586 -0.2446
    4SOL    HW1   11   2.078   2.478   2.029 -2.6862  1.3312  1.1707
    4SOL    HW2   12   1.963   2.544   1.927  0.7075 -1.8081 -4.9999
    5SOL     OW   13   1.930   0.799   1.674 -0.1982  0.0401 -0.3624
    5SOL    HW1   14   1.976   0.787   1.586 -0.2268 -0.6322  0.8668
    5SOL    HW2   15   1.840   0.844   1.650  0.1062  1.8127  1.1348
    6SOL     OW   16   2.093   2.465   0.808 -0.9385  0.4294  0.1902
    6SOL    HW1   17   2.031   2.417   0.865 -1.6497  2.2645 -0.6616
    6SOL    HW2   18   2.126   2.548   0.851  2.0631 -0.1584  1.4013
    7SOL     OW   19   2.339   1.574   1.042 -0.2968  0.4773 -0.3230
    7SOL    HW1   20   2.435   1.561   1.071 -0.7440 -1.1082 -0.7358
    7SOL    HW2   21   2.278   1.525   1.110  0.1485  0.6644 -1.2167
    8SOL     OW   22   0.824   1.676   1.532  0.1976  0.0742  0.0750
    8SOL    HW1   23   0.736   1.629   1.510 -1.0532  1.9633 -0.6116
    8SOL    HW2   24   0.841   1.749   1.463  1.7772 -0.6889 -1.8159
    9SOL     OW   25   1.099   2.798   2.377  0.3349 -0.6738  0.4474
    9SOL    HW1   26   1.120   2.699   2.393 -2.1099 -0.0003  3.2988
    9SOL    HW2   27   1.083   2.827   2.279  1.8487  0.7581 -1.6183
   10SOL     OW   28   0.458   2.030   0.928  0.3248  0.2474  0.2936
   10SOL    HW1   29   0.553   1.992   0.933  1.9923 -1.5228 -2.0166
   10SOL    HW2   30   0.431   2.071   1.020 -1.2641 -0.3776 -2.0761
   11SOL     OW   31   1.789   1.670   1.064 -0.4157  0.0066 -0.4045
   11SOL    HW1   32   1.855   1.593   1.050 -3.2819 -0.4725  0.2983
   11SOL    HW2   33   1.746   1.667   1.156 -0.0231 -0.0655 -0.5719
   12SOL     OW   34   2.512   2.710   1.848 -0.8214 -0.9520 -0.1879
   12SOL    HW1   35   2.501   2.609   1.864  0.5473 -0.3023  0.4641
   12SOL    HW2   36   2.615   2.735   1.860  0.6237  0.3401  2.3887
   13SOL     OW   37   2.512   2.904   0.428 -0.2645 -0.3023 -0.0102
   13SOL    HW1   38   2.414   2.916   0.449 -0.1173 -0.0357 -0.2428
   13SOL    HW2   39   2.559   2.904   0.521  1.3812 -1.0951  0.5139
   14SOL     OW   40   1.510   2.125   0.073  0.2214 -0.4075 -0.0017
   14SOL    HW1   41   1.442   2.171   0.138 -2.1523  0.2004  2.1698
   14SOL    HW2   42   1.601   2.170   0.079  1.3194 -0.8789  1.1266
   15SOL     OW   43   2.818   2.526   1.593 -0.7672 -0.2771 -0.6195
   15SOL    HW1   44   2.891   2.530   1.663 -0.7752 -1.6774  0.5021
   15SOL    HW2   45   2.774   2.618   1.570 -0.1967 -0.7072  2.7606
   16SOL     OW   46   2.652   3.064   0.247  0.2598 -0.4564 -0.5762
   16SOL    HW1   47   2.611   3.013   0.329 -1.0097 -0.7929  1.7813
   16SOL    HW2   48   2.744   0.001   0.276  2.5175  2.5177  2.6190
   17SOL     OW   49   0.096   0.334   1.376 -0.4080  0.2046  0.6905
   17SOL    HW1   50   0.186   0.377   1.351 -1.1549  1.9942  1.6333
   17SOL    HW2   51   0.115   0.240   1.407 -0.3682  0.6669  0.8371
   18SOL     OW   52   2.073   1.008   0.384  0.0096 -0.2656 -0.0795
   18SOL    HW1   53   2.092   0.934   0.318 -0.8760 -0.4507 -0.3359
   18SOL    HW2   54   2.096   0.976   0.477 -1.2259  2.2710 -1.7194
   19SOL     OW   55   1.634   2.022   0.492 -0.5200 -0.7597 -0.8108
   19SOL    HW1   56   1.686   1.941   0.520 -0.7294  1.7997  3.3271
   19SOL    HW2   57   1.677   2.076   0.412  0.4766  2.8063  0.7867
   20SOL     OW   58   2.515   2.158   2.180 -0.4045  0.4409 -0.2568
   20SOL    HW1   59   2.504   2.068   2.229  0.9080  0.7679  0.1783
   20SOL    HW2   60   2.437   2.168   2.120  0.1683 -2.0266 -0.5127
   21SOL     OW   61   1.578   0.086   0.664 -0.1985 -0.7428 -0.1582
   21SOL    HW1   62   1.617   0.057   0.755  1.3334 -1.6165  1.2574
   21SOL    HW2   63   1.595   0.021   0.589  2.9730  2.6990  0.1897
   22SOL     OW   64   2.512   0.152   1.487  0.5853  0.5795 -0.3098
   22SOL    HW1   65   2.553   0.239   1.523  2.7652 -1.9458 -0.1707
   22SOL    HW2   66   2.420   0.178   1.451  0.9773 -1.4382  1.9788
   23SOL     OW   67   0.205   0.329   1.708  0.7014  0.9810 -0.6575
   23SOL    HW1   68   0.299   0.353   1.736 -2.7524  0.5477  0.6549
   23SOL    HW2   69   0.161   0.404   1.656  3.2820  0.9774 -0.2330
   24SOL     OW   70   2.581   2.703   0.268 -0.2182  0.0761 -0.1292
   24SOL    HW1   71   2.549   2.636   0.341  1.4921  3.2646  0.3740
   24SOL    HW2   72   2.575   2.800   0.307 -3.3609  3.7579  0.7699
   25SOL     OW   73   1.172   3.028   2.506  0.3204  0.0166  0.2478
   25SOL    HW1   74   1.136   2.936   2.480 -0.1343 -0.0923  1.4170
   25SOL    HW2   75   1.246   3.021   2.576  0.4251  1.6546  1.1742
   26SOL     OW   76   1.441   2.503   0.292  0.3840 -0.3222 -0.1137
   26SOL    HW1   77   1.540   2.483   0.284 -0.0126  2.0005 -1.4533
   26SOL    HW2   78   1.421   2.569   0.213  0.5719 -1.4711 -0.5581
   27SOL     OW   79   2.491   1.134   2.816 -0.3385 -0.1958  0.4451
   27SOL    HW1   80   2.493   1.238   2.828 -1.1857  1.9355 -0.0060
   27SOL    HW2   81   2.579   1.102   2.780  0.4128 -1.4318 -1.6759
   28SOL     OW   82   1.040   1.427   1.267 -0.0810  0.0427  0.2004
   28SOL    HW1   83   1.089   1.355   1.322 -0.0282 -1.5224  1.6010
   28SOL    HW2   84   0.942   1.403   1.256 -0.2763 -0.1108  1.7631
   29SOL     OW   85   3.020   2.540   1.782 -0.4366  0.3859  0.5646
   29SOL    HW1   86   0.010   2.594   1.793  3.8335 -2.8739  0.1365
   29SOL    HW2   87   3.051   2.439   1.782 -0.3895 -1.2674 -2.1918
   30SOL     OW   88   1.415   0.159   1.112  0.7482  0.1397 -0.3926
   30SOL    HW1   89   1.451   0.255   1.116 -0.0840  1.1160  1.0463
   30SOL    HW2   90   1.457   0.108   1.192  1.4344 -1.2331  0.4126
   31SOL     OW   91   2.223   2.956   1.936 -0.2219  0.0089 -0.4204
   31SOL    HW1   92   2.205   3.056   1.945 -0.0452  2.2720 -1.3839
   31SOL    HW2   93   2.133   2.904   1.935 -1.4510  2.6838 -0.3367
   32SOL     OW   94   0.948   1.606   0.352  0.1881  0.5058  0.1923
   32SOL    HW1   95   1.037   1.565   0.330 -3.0110  1.1061  0.5550
   32SOL    HW2   96   0.941   1.618   0.454  0.6629 -0.7432  0.4611
   33SOL     OW   97   0.355   0.843   2.379  0.0343  0.1989  0.4633
   33SOL    HW1   98   0.370   0.793   2.466 -1.8564 -0.1888 -2.3166
   33SOL    HW2   99   0.313   0.791   2.302  0.3183  1.1509 -2.0746
   34SOL     OW  100   2.242   2.956   0.473  0.5037 -0.1693 -0.2249
   34SOL    HW1  101   2.235   2.993   0.566 -1.4437 -1.6627 -1.3185
   34SOL    HW2  102   2.186   3.015   0.409  1.6041 -0.5209 -3.0037
   35SOL     OW  103   1.972   2.536   1.721 -0.4765  0.2284  0.8357
   35SOL    HW1  104   1.908   2.615   1.738 -0.3126 -1.1999 -1.7171
   35SOL    HW2  105   1.916   2.464   1.680 -1.6827  0.7452 -0.7863
   36SOL     OW  106   1.764   2.272   0.004 -0.2774  0.3525  0.7867
   36SOL    HW1  107   1.748   2.294   3.007  0.8930  1.7132 -0.2706
   36SOL    HW2  108   1.832   2.196   0.004  2.0275  1.6095 -0.6203
   37SOL     OW  109   1.365   0.500   2.240 -0.2557 -0.1671 -0.2706
   37SOL    HW1  110   1.395   0.559   2.319  0.6508  1.7668 -0.1253
   37SOL    HW2  111   1.342   0.403   2.264  1.0617  0.4016  0.8341
   38SOL     OW  112   0.217   0.287   2.654  0.0677  0.3914  0.2963
   38SOL    HW1  113   0.153   0.325   2.583 -0.4777  1.0902  1.2639
   38SOL    HW2  114   0.284   0.224   2.613  0.1924  0.2427 -1.5981
   39SOL     OW  115   2.285   1.504   1.814 -0.4429  0.2716 -0.1692
   39SOL    HW1  116   2.320   1.575   1.751  0.3252  1.7228  1.0378
   39SOL    HW2  117   2.221   1.545   1.884 -0.8673  1.2966 -0.2682
   40SOL     OW  118   1.371   2.886   0.434  0.2769 -0.1031 -0.0370
   40SOL    HW1  119   1.361   2.930   0.524 -0.4884 -1.7521  0.3751
   40SOL    HW2  120   1.313   2.801   0.434 -0.8343  0.3122  0.4547
   41SOL     OW  121   2.359   1.421   0.815  0.8218 -0.0797  0.3239
   41SOL    HW1  122   2.334   1.472   0.899 -1.1260 -3.1079 -0.0185
   41SOL    HW2  123   2.414   1.474   0.739  2.0362  0.8742 -3.3222
   42SOL     OW  124   0.602   0.276   1.455 -0.3378 -0.3874 -0.9094
   42SOL    HW1  125   0.554   0.344   1.515 -0.5441  0.3754 -1.2233
   42SOL    HW2  126   0.584   0.181   1.485 -3.8214  1.6514  0.8595
   43SOL     OW  127   0.253   1.458   2.290  0.1578 -0.1538  0.0889
   43SOL    HW1  128   0.231   1.470   2.390  0.8986 -2.4682  0.6100
   43SOL    HW2  129   0.316   1.380   2.279 -1.3360 -3.0979 -0.8632
   44SOL     OW  130   2.378   3.023   1.692 -0.1920  0.0702  0.1570
   44SOL    HW1  131   2.398   0.023   1.716  0.6251  0.8826  1.6614
   44SOL    HW2  132   2.351   2.974   1.776  0.8349 -2.7948 -0.7552
   45SOL     OW  133   1.304   3.065   2.262  0.8141  0.1466 -0.7991
   45SOL    HW1  134   1.361   2.982   2.249  0.5051  0.3167  1.0574
   45SOL    HW2  135   1.259   3.057   2.355  0.8121 -0.2311 -0.5601
   46SOL     OW  136   0.971   2.573   2.674 -0.2468 -0.2350 -0.3570
   46SOL    HW1  137   1.050   2.606   2.735 -2.3185 -0.6353  0.7854
   46SOL    HW2  138   0.914   2.650   2.646  1.2327  1.3498 -2.1364
   47SOL     OW  139   1.736   1.538   0.672  0.2462 -0.3762 -0.1382
   47SOL    HW1  140   1.743   1.622   0.726  0.3208 -1.2266 -3.1858
   47SOL    HW2  141   1.825   1.500   0.640 -2.0568  0.6957  0.9240
   48SOL     OW  142   1.085   2.159   0.674  0.5617  0.3601  0.5243
   48SOL    HW1  143   1.079   2.133   0.578  0.2637 -1.0254  0.7042
   48SOL    HW2  144   1.105   2.078   0.732 -0.1653  0.6200 -0.4322
   49SOL     OW  145   2.168   0.204   2.776  0.1637 -0.0009  0.1448
   49SOL    HW1  146   2.156   0.177   2.677  0.1723 -1.9859 -1.0723
   49SOL    HW2  147   2.265   0.203   2.802  0.9512 -0.8228  0.0231
   50SOL     OW  148   1.802   2.974   3.078  0.1647 -0.2625  0.3323
   50SOL    HW1  149   1.783   3.056   3.020  0.2178  1.2689  0.6299
   50SOL    HW2  150   1.898   2.969   0.016  2.7252 -0.4478  2.3262
   51SOL     OW  151   2.081   0.712   1.260 -0.4710  0.3961  0.3455
   51SOL    HW1  152   2.133   0.711   1.345  0.6069  0.8765  0.9119
   51SOL    HW2  153   2.140   0.762   1.189  0.3778  2.2476 -2.5818
   52SOL     OW  154   0.929   1.603   0.920 -0.3428 -0.2660 -0.1200
   52SOL    HW1  155   1.014   1.547   0.941  0.7303 -2.6920 -1.9584
   52SOL    HW2  156   0.899   1.669   0.994  1.2262  1.2319  3.5096
   53SOL     OW  157   0.668   1.575   2.443 -0.0352  0.1672  0.5430
   53SOL    HW1  158   0.640   1.666   2.400  1.1633  1.1257  0.1508
   53SOL    HW2  159   0.586   1.518   2.470  0.8115 -0.3891 -0.7554
   54SOL     OW  160   2.807   1.291   1.653  0.6076  0.5506 -0.1606
   54SOL    HW1  161   2.850   1.204   1.681 -3.3268  1.6925  1.5602
   54SOL    HW2  162   2.805   1.356   1.730 -0.0126 -1.4793 -1.3830
   55SOL     OW  163   2.482   1.846   0.535 -0.1159  0.2135  0.3572
   55SOL    HW1  164   2.482   1.747   0.507  1.5759 -0.1910  2.0516
   55SOL    HW2  165   2.470   1.853   0.632  0.2091 -1.7388 -1.8368
   56SOL     OW  166   1.563   0.100   1.654  0.2734  0.0913  0.1674
   56SOL    HW1  167   1.660   0.123   1.675  0.7046  1.5345  0.5617
   56SOL    HW2  168   1.498   0.161   1.699  1.3765 -2.1350  1.8024
   57SOL     OW  169   1.491   1.322   2.719 -0.8032  0.0906 -0.4928
   57SOL    HW1  170   1.570   1.381   2.699  1.4481 -2.9383  1.0879
   57SOL    HW2  171   1.495   1.242   2.653  0.9648 -0.1521 -2.7761
   58SOL     OW  172   0.182   0.756   1.502 -0.6037  0.3704 -0.0770
   58SOL    HW1  173   0.275   0.791   1.478  1.3427  1.6986  0.0460
   58SOL    HW2  174   0.113   0.834   1.500  0.8590  0.2608  0.1584
   59SOL     OW  175   1.692   2.748   0.278 -0.3252 -0.5242 -0.0182
   59SOL    HW1  176   1.758   2.700   0.218  1.1431  1.7312  0.6465
   59SOL    HW2  177   1.603   2.769   0.234  0.0760 -0.1759  1.7142
   60SOL     OW  178   2.949   1.692   0.096 -0.0995 -0.2316 -0.3098
   60SOL    HW1  179   2.951   1.792   0.120 -0.8223 -1.0460  0.3886
   60SOL    HW2  180   2.901   1.681   0.006  0.2906  1.5844 -0.0030
   61SOL     OW  181   0.938   2.591   0.901  0.0259 -0.4178 -0.5309
   61SOL    HW1  182   0.840   2.608   0.920  0.9117  2.0980 -0.7044
   61SOL    HW2  183   0.951   2.515   0.836  0.7189 -0.8824  0.0576
   62SOL     OW  184   1.948   1.378   2.506 -0.2781  0.1272  0.6365
   62SOL    HW1  185   2.011   1.317   2.448  0.5850 -0.1171 -0.5213
   62SOL    HW2  186   1.986   1.474   2.500 -1.0435  0.1017  1.5005
   63SOL     OW  187   2.169   2.101   0.607 -0.2269 -0.1270 -0.0116
   63SOL    HW1  188   2.242   2.163   0.569  0.6246  1.5302 -0.9193
   63SOL    HW2  189   2.072   2.140   0.591 -2.2562 -0.6768 -0.2969
   64SOL     OW  190   1.787   1.210   3.020 -0.0664  0.5591  0.0913
   64SOL    HW1  191   1.814   1.119   2.975  1.4340 -0.5958 -2.0970
   64SOL    HW2  192   1.856   1.275   2.987 -0.7298 -0.5251 -0.9738
   65SOL     OW  193   1.942   1.793   2.287 -0.3669 -0.4455 -0.3620
   65SOL    HW1  194   1.994   1.704   2.262 -0.4427  0.6299 -2.7175
   65SOL    HW2  195   1.953   1.862   2.211  0.5673 -0.2463  0.4076
   66SOL     OW  196   0.319   0.983   1.331  0.0315  0.2687  0.1300
   66SOL    HW1  197   0.384   0.987   1.256 -1.4771  0.2709 -0.1759
   66SOL    HW2  198   0.285   1.075   1.355  1.1107 -0.5726 -0.3439
   67SOL     OW  199   2.339   2.723   2.716 -0.3026 -0.0514  0.0134
   67SOL    HW1  200   2.340   2.661   2.636  0.9913 -0.2183  0.7805
   67SOL    HW2  201   2.431   2.772   2.725  0.5691  1.0419  2.1041
   68SOL     OW  202   1.162   2.406   1.471 -0.4375 -0.2625 -0.2386
   68SOL    HW1  203   1.244   2.344   1.491  2.6226  0.1628 -0.1695
   68SOL    HW2  204   1.145   2.426   1.372  0.3107 -1.0833 -0.0087
   69SOL     OW  205   0.729   2.481   0.120  0.5672  0.1057  0.8108
   69SOL    HW1  206   0.832   2.489   0.114  2.8347 -0.9621 -0.4020
   69SOL    HW2  207   0.689   2.491   0.210 -2.0338 -0.3653 -3.3849
   70SOL     OW  208   2.682   0.582   2.433  0.0477  0.1947 -0.0051
   70SOL    HW1  209   2.685   0.500   2.375 -0.8295  0.4797 -1.0305
   70SOL    HW2  210   2.763   0.644   2.414  0.7360 -0.2645 -0.0016
   71SOL     OW  211   0.473   1.352   2.597 -0.2232 -0.4953 -0.4205
   71SOL    HW1  212   0.379   1.322   2.580  2.3452  0.5300 -1.7548
   71SOL    HW2  213   0.523   1.275   2.630 -4.8421  1.5835  1.2213
   72SOL     OW  214   0.466   1.821   2.476 -0.3159  0.4207 -0.1587
   72SOL    HW1  215   0.378   1.834   2.424  0.8699  1.0475 -1.8779
   72SOL    HW2  216   0.502   1.899   2.535  0.8969  0.2703 -1.2266
   73SOL     OW  217   1.607   1.602   0.188 -0.6337 -0.4843 -0.1157
   73SOL    HW1  218   1.609   1.599   0.289 -3.1137 -0.0605 -0.4172
   73SOL    HW2  219   1.522   1.651   0.162  0.9484  0.4523 -0.5682
   74SOL     OW  220   2.142   2.617   2.849 -0.0159 -0.1251 -0.2837
   74SOL    HW1  221   2.223   2.665   2.805  3.7785  1.1708 -2.4137
   74SOL    HW2  222   2.129   2.647   2.945  1.8934  2.4642 -0.2713
   75SOL     OW  223   1.956   2.104   1.012  0.1325 -0.1474 -0.0646
   75SOL    HW1  224   1.943   2.043   1.094 -1.0946  2.0259 -0.1772
   75SOL    HW2  225   2.043   2.090   0.965  0.6527  1.4105  0.0247
   76SOL     OW  226   2.321   2.272   2.054 -0.2043 -0.0718 -0.4433
   76SOL    HW1  227   2.296   2.330   1.973  2.4862  0.5352  0.3039
   76SOL    HW2  228   2.312   2.332   2.135 -2.1839  1.4746 -2.5871
   77SOL     OW  229   2.536   0.156   2.205 -0.0673 -0.6726  0.2024
   77SOL    HW1  230   2.537   0.121   2.106  2.5647 -1.2184  1.2134
   77SOL    HW2  231   2.577   0.085   2.269  2.0895 -2.8701  2.8333
   78SOL     OW  232   2.080   1.246   2.918  0.2162  0.3418 -0.2964
   78SOL    HW1  233   2.073   1.220   3.017  0.6973 -2.6043  1.2601
   78SOL    HW2  234   2.082   1.162   2.861 -2.7582 -0.3055  2.2761
   79SOL     OW  235   2.844   1.419   2.480  0.3018  0.1008 -0.1221
   79SOL    HW1  236   2.869   1.377   2.391  0.4179  1.3576 -1.0585
   79SOL    HW2  237   2.831   1.524   2.464  0.6043  2.7728 -2.3855
   80SOL     OW  238   1.654   1.628   1.543 -0.2264 -0.3256 -0.0759
   80SOL    HW1  239   1.589   1.695   1.577  1.4780 -0.9084 -1.3593
   80SOL    HW2  240   1.681   1.557   1.615  1.6910  1.8294 -1.4372
   81SOL     OW  241   1.988   0.668   1.905 -0.0146  0.0935 -0.1494
   81SOL    HW1  242   2.055   0.705   1.975  0.9080  0.9565  0.3460
   81SOL    HW2  243   1.950   0.736   1.839 -1.8531 -1.2442  0.1925
   82SOL     OW  244   1.817   2.030   1.664  0.0243  0.5800 -0.1331
   82SOL    HW1  245   1.841   1.940   1.619 -0.5997 -0.6744 -2.3286
   82SOL    HW2  246   1.894   2.097   1.681 -0.1381  1.5805 -0.7381
   83SOL     OW  247   2.935   0.038   0.289  0.1274  0.3698  0.8118
   83SOL    HW1  248   2.939   0.088   0.377  0.6904  1.8171  0.6672
   83SOL    HW2  249   2.910   0.093   0.207  3.3619  0.0887 -2.4577
   84SOL     OW  250   0.595   1.032   0.123  0.4021 -0.5683 -0.0959
   84SOL    HW1  251   0.665   0.986   0.071 -4.8217  1.1567  3.5849
   84SOL    HW2  252   0.590   1.009   0.215  0.8155 -0.0002 -1.1980
   85SOL     OW  253   2.687   2.069   1.502 -0.2009  0.1098 -0.1084
   85SOL    HW1  254   2.658   2.044   1.596  0.4266 -0.9528  1.9641
   85SOL    HW2  255   2.638   2.008   1.438  0.5411  2.6676 -0.8491
   86SOL     OW  256   0.473   2.564   1.486 -0.7687  0.3985 -0.1032
   86SOL    HW1  257   0.508   2.530   1.394 -1.1223  0.2481 -1.9955
   86SOL    HW2  258   0.505   2.657   1.508  0.5743 -1.2186  0.5823
   87SOL     OW  259   0.438   2.450   2.412 -0.3766 -0.4299  0.2158
   87SOL    HW1  260   0.535   2.420   2.423  0.7681 -1.1214 -0.8507
   87SOL    HW2  261   0.379   2.392   2.471 -0.5604 -0.2359  2.0872
   88SOL     OW  262   0.198   2.423   0.584  0.0903  0.0481  0.4734
   88SOL    HW1  263   0.211   2.412   0.687  2.0830 -2.0920  1.8064
   88SOL    HW2  264   0.277   2.385   0.535 -2.5153  2.2888  0.6806
   89SOL     OW  265   0.821   0.584   1.340 -0.3423  0.6509 -0.6933
   89SOL    HW1  266   0.923   0.591   1.326  1.0961  1.7943 -0.9038
   89SOL    HW2  267   0.778   0.500   1.307 -0.8735  2.3181 -0.2356
   90SOL     OW  268   0.158   1.118   1.617 -0.2246 -0.2710  0.1097
   90SOL    HW1  269   0.127   1.199   1.559 -0.6317  1.0623  1.5219
   90SOL    HW2  270   0.261   1.120   1.639  1.1545 -1.3438  0.3367
   91SOL     OW  271   1.107   0.825   1.028  0.6345 -0.0058  0.0715
   91SOL    HW1  272   1.195   0.850   1.077  1.9503 -1.0652  1.6127
   91SOL    HW2  273   1.125   0.743   0.967 -1.4242  1.0956 -1.4225
   92SOL     OW  274   1.995   1.107   0.833 -0.0179  0.0397  0.0381
   92SOL    HW1  275   2.089   1.109   0.794  1.6076 -1.2608 -1.8798
   92SOL    HW2  276   1.920   1.119   0.765 -0.6208  0.2790  0.9986
   93SOL     OW  277   2.380   0.863   2.452 -0.3793 -0.1455  0.3279
   93SOL    HW1  278   2.392   0.775   2.408  1.0800 -0.5268  1.8178
   93SOL    HW2  279   2.323   0.864   2.534 -1.9978  1.2604 -1.9339
   94SOL     OW  280   2.313   1.911   2.434  0.4612  0.0915 -0.0345
   94SOL    HW1  281   2.260   1.996   2.408 -2.5434  1.2148 -0.5086
   94SOL    HW2  282   2.305   1.886   2.533 -1.5628 -2.3550  1.1073
   95SOL     OW  283   2.668   0.693   1.176  0.5183 -0.2069 -0.5721
   95SOL    HW1  284   2.671   0.706   1.077  0.5596  0.1126 -0.7701
   95SOL    HW2  285   2.584   0.637   1.207 -0.0137 -3.1198 -1.1483
   96SOL     OW  286   2.428   2.774   1.597 -0.4340  0.0227 -0.6645
   96SOL    HW1  287   2.427   2.875   1.609  0.3066  0.1691 -2.1800
   96SOL    HW2  288   2.470   2.736   1.685 -1.0899  0.9806  0.7063
   97SOL     OW  289   2.573   1.174   1.244 -0.1900  0.0409  0.5277
   97SOL    HW1  290   2.627   1.230   1.172  0.8629 -0.8727 -2.2640
   97SOL    HW2  291   2.582   1.234   1.327 -0.9508  1.4030 -0.8529
   98SOL     OW  292   1.381   2.247   1.841 -0.7487 -0.4035 -0.1333
   98SOL    HW1  293   1.381   2.145   1.816 -3.0412 -0.7504 -1.9520
   98SOL    HW2  294   1.290   2.285   1.815 -1.5733 -0.6234  1.2917
   99SOL     OW  295   0.572   2.262   1.465 -0.3902 -0.5456  0.3123
   99SOL    HW1  296   0.647   2.189   1.461  3.2813 -2.0491  3.7223
   99SOL    HW2  297   0.604   2.340   1.411 -2.7436 -1.9573 -2.0445
  100SOL     OW  298   1.260   0.568   3.064  0.4105 -0.1963  0.0494
  100SOL    HW1  299   1.279   0.647   0.032  3.1451 -0.9091 -0.8952
  100SOL    HW2  300   1.346   0.523   3.033  1.5962 -0.9416 -0.0883
  101SOL     OW  301   2.446   0.200   2.831 -0.7470 -0.3023  0.0555
  101SOL    HW1  302   2.476   0.166   2.736  0.9174 -2.9510 -2.2221
  101SOL    HW2  303   2.445   0.302   2.831 -1.7018 -0.8419 -0.6646
  102SOL     OW  304   0.478   0.832   1.510 -0.0523 -0.0774 -0.1481
  102SOL    HW1  305   0.452   0.910   1.449  1.5992 -0.7962 -1.0037
  102SOL    HW2  306   0.580   0.829   1.511 -1.0897  1.2899 -0.4356
  103SOL     OW  307   0.099   0.648   2.583 -0.6986  0.1845 -0.2092
  103SOL    HW1  308   0.070   0.740   2.548 -0.3097 -1.5404  0.4230
  103SOL    HW2  309   0.094   0.636   2.685 -1.4207 -2.3279  2.9350
  104SOL     OW  310   0.598   0.646   2.462 -0.1379  0.5125  0.1275
  104SOL    HW1  311   0.601   0.626   2.360 -1.3019 -2.8630 -1.8891
  104SOL    HW2  312   0.638   0.573   2.523 -0.7580  1.6508  0.3290
  105SOL     OW  313   2.033   2.172   1.745  0.1232 -0.3584  0.9830
  105SOL    HW1  314   2.090   2.164   1.830 -1.4820  2.0896 -1.9477
  105SOL    HW2  315   2.085   2.207   1.665  2.6070 -0.2599 -0.9624
  106SOL     OW  316   1.962   0.096   0.666  0.1703 -0.5521  0.4194
  106SOL    HW1  317   1.917   0.003   0.655  0.6325 -2.3850 -0.7252
  106SOL    HW2  318   1.953   0.148   0.577 -0.3755 -2.2096 -0.0965
  107SOL     OW  319   2.755   2.038   1.046  0.6591 -0.1666 -0.2708
  107SOL    HW1  320   2.710   2.121   1.085  0.0098  0.7268 -1.0464
  107SOL    HW2  321   2.755   2.053   0.945  2.4089 -1.0343 -0.3580
  108SOL     OW  322   2.759   2.794   1.527 -0.0953  0.4412  0.3438
  108SOL    HW1  323   2.719   2.885   1.550 -2.4620  0.2567  0.1272
  108SOL    HW2  324   2.850   2.797   1.479  1.4529  0.1667 -2.2998
  109SOL     OW  325   2.176   2.489   1.133 -0.4833 -0.0096  0.1412
  109SOL    HW1  326   2.120   2.504   1.216 -0.9509  2.4402 -0.7227
  109SOL    HW2  327   2.174   2.571   1.077  1.8573  0.2023 -1.1884
  110SOL     OW  328   0.899   1.606   2.281  0.0699 -0.7340  0.3975
  110SOL    HW1  329   0.824   1.590   2.351 -0.2889 -0.7092  2.0315
  110SOL    HW2  330   0.932   1.707   2.284  1.0109  1.8987  0.1311
  111SOL     OW  331   1.703   2.639   2.251  0.6386 -0.0851  0.1645
  111SOL    HW1  332   1.785   2.664   2.201  0.6990 -2.1581 -0.1568
  111SOL    HW2  333   1.640   2.597   2.179 -2.0819  2.5286 -1.2184
  112SOL     OW  334   2.032   1.716   2.837 -0.4407  0.1987  0.0792
  112SOL    HW1  335   2.104   1.642   2.839  0.5802 -1.5062  0.8832
  112SOL    HW2  336   2.025   1.771   2.754 -1.0638  2.3960  2.6912
  113SOL     OW  337   1.569   2.021   1.515  0.2622  0.6750 -0.4189
  113SOL    HW1  338   1.539   1.943   1.573  1.6519  0.5731  1.8791
  113SOL    HW2  339   1.654   2.061   1.554  0.4169  0.7880 -0.5491
  114SOL     OW  340   2.982   0.970   0.792  0.1905 -0.3268  0.3703
  114SOL    HW1  341   2.963   0.879   0.749 -1.5931 -0.3727  1.0544
  114SOL    HW2  342   2.954   0.959   0.892 -1.5395 -1.0505  2.7127
  115SOL     OW  343   0.693   0.797   0.273  0.4043 -0.2400  0.6627
  115SOL    HW1  344   0.738   0.764   0.357  1.8552 -0.1632  1.2520
  115SOL    HW2  345   0.627   0.730   0.237  1.8021 -0.3822 -0.9583
  116SOL     OW  346   2.819   1.682   2.419  0.1466  0.7707 -0.0902
  116SOL    HW1  347   2.770   1.771   2.409 -0.1292  0.5103  0.6735
  116SOL    HW2  348   2.918   1.682   2.438  0.4795 -0.4055 -2.0128
  117SOL     OW  349   2.737   2.867   0.652  0.4695  0.4130  0.2412
  117SOL    HW1  350   2.810   2.828   0.591  0.0902  0.7029 -0.1473
  117SOL    HW2  351   2.735   2.806   0.736  0.8239  1.3676 -1.0766
  118SOL     OW  352   1.109   1.538   2.890 -0.2116 -0.5926 -0.3399
  118SOL    HW1  353   1.063   1.586   2.808 -1.1365  3.9356 -4.4421
  118SOL    HW2  354   1.087   1.581   2.982 -0.8230 -0.1196 -1.7882
  119SOL     OW  355   0.224   1.920   3.003  0.4381 -0.4511 -0.1065
  119SOL    HW1  356   0.152   1.990   3.026 -0.0276 -0.2117 -0.3523
  119SOL    HW2  357   0.214   1.846   3.076 -0.4804 -0.8528  0.2914
  120SOL     OW  358   1.391   0.797   0.390 -0.2767 -0.0680  0.4933
  120SOL    HW1  359   1.491   0.794   0.395 -2.5952 -1.1280 -0.1743
  120SOL    HW2  360   1.352   0.878   0.446 -2.5783  1.7655 -0.3268
  121SOL     OW  361   1.270   2.630   0.483  0.2414  0.3831 -0.1001
  121SOL    HW1  362   1.292   2.614   0.581 -1.1104 -2.9779 -0.9875
  121SOL    HW2  363   1.328   2.571   0.424 -0.9520  0.3028 -0.2805
  122SOL     OW  364   2.406   2.398   1.668  0.9216 -0.0753 -0.0821
  122SOL    HW1  365   2.331   2.343   1.632  3.2356  0.1203  4.2827
  122SOL    HW2  366   2.498   2.365   1.642 -1.5347  0.2063 -1.3043
  123SOL     OW  367   0.757   2.101   0.432 -0.5032 -0.5985 -0.5183
  123SOL    HW1  368   0.734   2.077   0.333 -1.3347 -1.3764 -2.2173
  123SOL    HW2  369   0.770   2.202   0.447  0.9284 -0.7889 -1.4713
  124SOL     OW  370   2.925   0.664   0.339 -0.2995  0.5482 -0.5595
  124SOL    HW1  371   3.017   0.673   0.290  2.2368  0.3689 -0.0395
  124SOL    HW2  372   2.908   0.741   0.411 -1.3224  3.8311 -0.5642
  125SOL     OW  373   0.334   0.697   0.305 -0.0962 -0.1694  0.8154
  125SOL    HW1  374   0.409   0.655   0.252 -1.1699  1.2667 -0.2437
  125SOL    HW2  375   0.334   0.794   0.297 -0.7684  0.3880  1.9151
  126SOL     OW  376   0.019   2.044   0.713 -0.0718 -0.7737 -0.6512
  126SOL    HW1  377   0.089   2.038   0.786  0.8966 -1.5037  1.5090
  126SOL    HW2  378   0.062   2.011   0.623  2.0218 -3.6296 -2.0049
  127SOL     OW  379   1.355   1.971   1.832 -0.1729  0.4571  0.1108
  127SOL    HW1  380   1.405   1.929   1.910  0.8586  0.6738 -1.0395
  127SOL    HW2  381   1.255   1.964   1.829  3.3861  0.6323  0.9755
  128SOL     OW  382   1.107   1.277   0.364 -0.2406  0.1003 -0.0377
  128SOL    HW1  383   1.023   1.262   0.307 -1.0242  1.7310 -0.6690
  128SOL    HW2  384   1.189   1.243   0.315 -1.3807  1.7752 -0.7687
  129SOL     OW  385   1.995   1.241   1.285 -0.1632 -0.1823 -0.1839
  129SOL    HW1  386   1.944   1.227   1.196  0.1236  2.2020 -1.7991
  129SOL    HW2  387   1.952   1.322   1.337 -3.3274  1.8189  0.6189
  130SOL     OW  388   2.371   1.661   1.600 -1.0547 -0.2872  0.3140
  130SOL    HW1  389   2.366   1.738   1.539 -0.2593  0.1667 -0.7580
  130SOL    HW2  390   2.432   1.684   1.678 -1.0240  1.0779  0.1297
  131SOL     OW  391   3.032   2.644   2.781 -0.1465 -0.2590  0.0941
  131SOL    HW1  392   2.939   2.644   2.820 -2.4709  1.1516 -1.3492
  131SOL    HW2  393   3.069   2.740   2.769 -2.4629  2.7354  1.1487
  132SOL     OW  394   2.927   1.538   0.501 -0.1178  0.1181  0.4889
  132SOL    HW1  395   2.910   1.565   0.409  0.5779 -1.1813  3.3902
  132SOL    HW2  396   2.958   1.616   0.561  0.3993  0.8326 -1.3016
  133SOL     OW  397   0.419   0.028   1.685  0.3025 -0.1872 -0.2340
  133SOL    HW1  398   0.464   0.007   1.597 -2.9134 -0.6916  1.1606
  133SOL    HW2  399   0.316   0.036   1.668 -0.6801  2.1432  0.0408
  134SOL     OW  400   0.507   1.724   2.795  0.2156  0.8533 -0.2191
  134SOL    HW1  401   0.530   1.739   2.698  0.1042  2.8796  0.6820
  134SOL    HW2  402   0.489   1.810   2.846  1.2273 -0.5895 -0.8529
  135SOL     OW  403   1.606   0.618   1.863  0.2272 -0.8546 -0.0357
  135SOL    HW1  404   1.611   0.712   1.902  1.6607  0.7852 -0.6016
  135SOL    HW2  405   1.565   0.561   1.936  2.0070  0.5496  1.4037
  136SOL     OW  406   2.739   1.277   0.278  0.0846  0.7429  0.2012
  136SOL    HW1  407   2.767   1.304   0.371 -2.9599 -0.3085  2.2336
  136SOL    HW2  408   2.805   1.305   0.202 -1.3611  1.5979  0.1046
  137SOL     OW  409   0.183   1.965   0.945 -0.4070 -0.1095  0.2140
  137SOL    HW1  410   0.236   1.927   0.864  2.8129 -0.6289 -1.5476
  137SOL    HW2  411   0.237   2.035   0.990  0.4639 -2.5842 -2.2978
  138SOL     OW  412   2.296   0.792   1.452 -0.4861  0.0401  0.1688
  138SOL    HW1  413   2.306   0.887   1.420  2.7623 -0.3827  0.1339
  138SOL    HW2  414   2.382   0.771   1.502  0.1053 -0.2295 -0.3255
  139SOL     OW  415   1.373   2.676   0.112  0.1058 -0.0226 -0.4403
  139SOL    HW1  416   1.409   2.677   0.013  0.1888  0.7855 -4.3088
  139SOL    HW2  417   1.275   2.700   0.108 -1.3594 -1.6347  1.1496
  140SOL     OW  418   1.212   1.704   1.322  0.3078 -0.1462 -0.4711
  140SOL    HW1  419   1.217   1.605   1.296 -1.2391  1.5101 -0.4390
  140SOL    HW2  420   1.302   1.750   1.321 -3.5005 -3.8290 -0.0726
  141SOL     OW  421   1.337   2.227   0.258  0.0918  0.5363  0.1696
  141SOL    HW1  422   1.256   2.235   0.196  2.4255  0.0433  1.3768
  141SOL    HW2  423   1.350   2.308   0.317 -0.5270  1.3283  1.6566
  142SOL     OW  424   0.960   0.306   0.622  0.1469 -0.1839  0.6029
  142SOL    HW1  425   0.960   0.206   0.607  0.0084 -1.8437  1.9504
  142SOL    HW2  426   0.942   0.341   0.528  0.4953  1.1773 -0.2107
  143SOL     OW  427   0.764   1.798   3.023 -0.3425 -0.3456  0.4976
  143SOL    HW1  428   0.837   1.859   2.979  3.1912  1.4858  0.4506
  143SOL    HW2  429   0.673   1.850   3.011 -2.6988  0.1461 -0.8852
  144SOL     OW  430   1.559   2.689   0.891  1.0549  0.4927 -0.0514
  144SOL    HW1  431   1.568   2.776   0.946 -0.6486 -1.0000 -1.1504
  144SOL    HW2  432   1.644   2.668   0.842 -1.4965  1.5990 -1.4150
  145SOL     OW  433   1.888   0.615   2.613  0.5484 -0.3277  0.1119
  145SOL    HW1  434   1.963   0.655   2.560  1.2157 -1.9847 -1.4740
  145SOL    HW2  435   1.910   0.517   2.627 -0.0927  0.5216 -0.3788
  146SOL     OW  436   0.289   3.002   0.811  0.7982 -0.5968 -0.2522
  146SOL    HW1  437   0.215   3.067   0.797  1.4263 -2.5584  0.7997
  146SOL    HW2  438   0.310   2.951   0.723  1.2070 -2.9456 -1.3379
  147SOL     OW  439   2.167   0.185   1.954  0.2082 -0.5207 -0.1073
  147SOL    HW1  440   2.065   0.177   1.979 -3.4768  1.2374  2.7238
  147SOL    HW2  441   2.197   0.273   1.997  1.9014 -1.8855  2.0370
  148SOL     OW  442   1.096   0.048   2.084 -0.3304  0.4437 -0.0472
  148SOL    HW1  443   1.034   0.114   2.125 -0.8872 -0.6080  0.5732
  148SOL    HW2  444   1.183   0.037   2.135 -1.7354 -1.4371 -0.8479
  149SOL     OW  445   1.579   0.413   2.114 -0.3002  0.0782  0.3544
  149SOL    HW1  446   1.546   0.324   2.082  2.4508 -0.2413  2.1927
  149SOL    HW2  447   1.504   0.472   2.150  0.6273 -0.9955 -0.2299
  150SOL     OW  448   3.043   0.215   3.064 -0.3152  0.5732  0.5332
  150SOL    HW1  449   2.971   0.242   0.036 -0.1336 -1.7585 -1.0371
  150SOL    HW2  450   3.026   0.263   2.977  1.2141 -0.3974 -0.6323
  151SOL     OW  451   0.699   1.668   0.178  0.3238  0.2394  0.5926
  151SOL    HW1  452   0.677   1.609   0.100 -0.6230  1.1711 -2.2647
  151SOL    HW2  453   0.795   1.654   0.206 -1.9646  0.5001 -1.5602
  152SOL     OW  454   3.000   0.463   0.532 -0.0831 -0.3468  0.2387
  152SOL    HW1  455   2.963   0.515   0.454 -1.2081 -0.9680  1.9144
  152SOL    HW2  456   3.089   0.509   0.548 -1.7260 -1.0292 -2.6536
  153SOL     OW  457   2.522   0.643   1.513 -0.3145  0.6044 -0.0544
  153SOL    HW1  458   2.563   0.556   1.552  3.2544 -1.6011  1.1371
  153SOL    HW2  459   2.545   0.724   1.566 -0.1689 -0.1810  1.4212
  154SOL     OW  460   1.673   0.114   2.134  0.3611  0.3740 -0.2206
  154SOL    HW1  461   1.646   0.045   2.205 -0.3347 -0.6618 -0.9914
  154SOL    HW2  462   1.589   0.133   2.080 -1.1771  0.7279  0.1302
  155SOL     OW  463   0.345   1.877   0.676 -0.0100  0.3322 -0.1312
  155SOL    HW1  464   0.421   1.942   0.661 -0.1832  0.1115 -1.9310
  155SOL    HW2  465   0.380   1.779   0.685  0.4577 -2.2049 -1.4765
  156SOL     OW  466   1.893   2.097   2.887  0.4428  0.1331 -0.0685
  156SOL    HW1  467   1.935   2.095   2.795 -0.3430  1.9085 -1.5091
  156SOL    HW2  468   1.821   2.022   2.884  0.5638 -2.1520  1.4885
  157SOL     OW  469   0.976   0.430   0.352  0.5058 -0.4149  0.4052
  157SOL    HW1  470   0.949   0.518   0.399  0.6373  0.8878  1.0325
  157SOL    HW2  471   1.051   0.444   0.286  1.0025  1.2502  1.2590
  158SOL     OW  472   2.264   0.277   2.477 -0.2731  0.0376  0.1257
  158SOL    HW1  473   2.335   0.214   2.511 -1.4560  0.4370  0.3948
  158SOL    HW2  474   2.286   0.296   2.378  3.6907 -0.1328 -1.3161
  159SOL     OW  475   2.941   0.194   0.524 -0.0824 -0.0989 -0.8712
  159SOL    HW1  476   2.963   0.298   0.529  1.8910 -0.4607  0.6361
  159SOL    HW2  477   3.021   0.147   0.560 -1.4185  2.9390  0.8202
  160SOL     OW  478   1.687   1.760   2.393  0.1224 -0.1729 -0.1272
  160SOL    HW1  479   1.624   1.717   2.325  0.1573 -0.8577  0.1767
  160SOL    HW2  480   1.783   1.780   2.360  0.6651  2.7409  0.2492
  161SOL     OW  481   2.787   0.753   2.671  0.1011 -0.0471 -0.3834
  161SOL    HW1  482   2.864   0.696   2.709  0.4658  2.5077 -0.2047
  161SOL    HW2  483   2.784   0.751   2.568 -0.4171 -0.5003  0.4147
  162SOL     OW  484   0.714   2.467   1.360  0.6141 -0.2682 -0.1811
  162SOL    HW1  485   0.718   2.511   1.456  2.5724  2.9138  2.7843
  162SOL    HW2  486   0.758   2.525   1.294 -0.8237 -1.9424  1.4969
  163SOL     OW  487   2.344   0.478   2.678  0.5660  0.1485 -0.1390
  163SOL    HW1  488   2.265   0.538   2.707  0.9544  0.6054  0.3976
  163SOL    HW2  489   2.310   0.415   2.604 -1.2580 -2.9520 -3.0634
  164SOL     OW  490   2.073   1.820   3.088  0.4716 -0.6785 -0.7154
  164SOL    HW1  491   2.077   1.791   2.989  0.6281 -0.8596  2.3203
  164SOL    HW2  492   2.147   1.879   0.026  1.7788  1.9899  0.2858
  165SOL     OW  493   2.691   0.400   1.522  0.4278 -0.2260  0.3496
  165SOL    HW1  494   2.774   0.392   1.580 -0.2117  1.2333  0.2858
  165SOL    HW2  495   2.716   0.429   1.429  1.1987  2.4490 -1.6772
  166SOL     OW  496   2.489   0.997   3.077 -0.4192 -0.1556 -0.5695
  166SOL    HW1  497   2.496   1.009   2.977  2.9270  0.8054 -0.5550
  166SOL    HW2  498   2.453   1.078   0.032  1.3277  1.1755  0.1802
  167SOL     OW  499   2.759   0.637   3.074  0.2538  0.5761  0.8678
  167SOL    HW1  500   2.745   0.617   0.078 -1.8482 -2.5674  2.1642
  167SOL    HW2  501   2.747   0.550   3.019 -0.1417  1.5899  0.0287
  168SOL     OW  502   1.852   3.020   2.720  0.7702  0.1523 -0.5948
  168SOL    HW1  503   1.934   2.999   2.777 -1.0453  2.6742  0.5863
  168SOL    HW2  504   1.791   3.090   2.763 -0.5757  2.7568  2.4213
  169SOL     OW  505   3.061   1.381   0.704  0.0841 -0.2004 -0.4572
  169SOL    HW1  506   3.012   1.452   0.648 -1.5330 -0.6651 -2.1369
  169SOL    HW2  507   3.034   1.289   0.677 -0.6882  1.8932  1.7967
  170SOL     OW  508   2.886   0.583   1.343 -0.1171  0.1487 -0.2836
  170SOL    HW1  509   2.937   0.527   1.275 -0.1198 -0.4672 -0.0010
  170SOL    HW2  510   2.802   0.627   1.298 -2.1041  1.9585 -2.4830
  171SOL     OW  511   1.885   2.227   2.187  0.0735 -0.0178 -0.2287
  171SOL    HW1  512   1.891   2.134   2.158  1.4776  3.5235  0.5308
  171SOL    HW2  513   1.817   2.241   2.263  0.3133  0.9396  1.4061
  172SOL     OW  514   3.039   2.798   1.419 -0.2585  0.4787  0.7211
  172SOL    HW1  515   3.077   2.768   1.507 -0.9344  0.8064  0.0592
  172SOL    HW2  516   0.008   2.862   1.382 -3.5160 -2.2525 -0.2579
  173SOL     OW  517   1.145   0.987   0.238  0.2782  0.0013  0.2683
  173SOL    HW1  518   1.176   1.009   0.143  1.7643  2.6162  0.8667
  173SOL    HW2  519   1.045   1.000   0.254  1.1626 -0.0794  3.6355
  174SOL     OW  520   1.391   3.051   2.677 -0.5138 -0.3007  0.1340
  174SOL    HW1  521   1.381   3.034   2.775 -0.2311 -3.8142 -1.9117
  174SOL    HW2  522   1.382   0.053   2.654  1.1100  0.3560 -0.1872
  175SOL     OW  523   1.852   1.870   0.578  0.0613 -0.5292  0.2228
  175SOL    HW1  524   1.799   1.823   0.649  1.2930 -0.5967 -0.1926
  175SOL    HW2  525   1.923   1.803   0.543  0.2420  1.3225  0.3461
  176SOL     OW  526   1.401   0.508   0.263 -0.4919  0.0106 -0.2528
  176SOL    HW1  527   1.398   0.593   0.217 -3.1063 -0.2458 -1.1545
  176SOL    HW2  528   1.320   0.460   0.230 -1.2228  0.2419  0.8229
  177SOL     OW  529   0.896   1.391   3.028  0.4162  0.0071 -0.7292
  177SOL    HW1  530   0.813   1.447   3.046  2.1863  1.1375 -1.5351
  177SOL    HW2  531   0.972   1.456   3.004  3.9172  1.1702  1.5480
  178SOL     OW  532   2.712   2.245   2.688  0.0196 -0.6130  0.4561
  178SOL    HW1  533   2.727   2.150   2.711  1.5456 -0.8033  0.6181
  178SOL    HW2  534   2.715   2.258   2.586 -1.6527 -0.2694 -0.8456
  179SOL     OW  535   2.713   0.038   2.876  0.5733  0.2704  0.5209
  179SOL    HW1  536   2.712   0.118   2.819 -0.5539  0.4562 -1.1134
  179SOL    HW2  537   2.670   0.059   2.967 -2.4827  0.9901  0.2028
  180SOL     OW  538   1.357   1.533   0.617  0.2658 -0.7397  0.2414
  180SOL    HW1  539   1.269   1.478   0.606 -0.3222 -0.0952  1.8336
  180SOL    HW2  540   1.337   1.629   0.655 -1.6194  3.1335  2.6795
  181SOL     OW  541   1.710   0.957   2.468  0.1105 -0.2276 -0.1401
  181SOL    HW1  542   1.714   0.852   2.454 -0.1075 -4.4215  0.9581
  181SOL    HW2  543   1.770   0.987   2.546 -0.4986 -1.4567  0.0058
  182SOL     OW  544   2.577   2.887   2.695  0.2829 -0.4891  0.0259
  182SOL    HW1  545   2.622   2.971   2.741  2.2147  3.2256  1.0926
  182SOL    HW2  546   2.619   2.870   2.608  2.0249  0.6006  2.9559
  183SOL     OW  547   2.057   0.643   2.398 -0.7886 -0.4055 -0.1605
  183SOL    HW1  548   2.104   0.666   2.315 -0.9334 -1.5912  0.1116
  183SOL    HW2  549   2.024   0.544   2.390  1.2418  0.7730  0.2331
  184SOL     OW  550   0.055   1.290   1.446  0.0828  0.2881  0.4974
  184SOL    HW1  551   3.083   1.238   1.396 -0.5846  0.7069  0.6586
  184SOL    HW2  552   0.062   1.389   1.410 -0.0056  2.3757  0.5390
  185SOL     OW  553   1.715   0.488   0.701 -0.0016  0.5307  0.1631
  185SOL    HW1  554   1.784   0.442   0.758 -1.3616  2.8149  0.0429
  185SOL    HW2  555   1.665   0.417   0.646  0.9340 -1.8451 -2.4918
  186SOL     OW  556   0.338   2.469   2.990  0.4244  0.4962 -0.7195
  186SOL    HW1  557   0.251   2.513   3.028 -0.1567 -0.4425 -1.8689
  186SOL    HW2  558   0.317   2.377   2.954 -1.2884  2.1568 -1.2909
  187SOL     OW  559   2.718   0.998   0.271 -0.2096 -0.3365  0.6261
  187SOL    HW1  560   2.714   1.097   0.261  0.5134 -0.8695  0.0025
  187SOL    HW2  561   2.742   0.969   0.177  1.5581  3.5619  0.1809
  188SOL     OW  562   2.772   1.655   1.344 -0.0501  0.4234 -0.3117
  188SOL    HW1  563   2.799   1.561   1.362 -2.7318 -0.2261 -1.6989
  188SOL    HW2  564   2.844   1.727   1.366 -1.2137  2.4161 -0.1536
  189SOL     OW  565   2.622   0.428   2.645 -0.3399  0.0004 -0.1698
  189SOL    HW1  566   2.527   0.461   2.651  0.7856  0.0459 -2.3720
  189SOL    HW2  567   2.679   0.495   2.596  1.1919 -1.3626 -1.3673
  190SOL     OW  568   1.713   1.499   2.098  0.0650  0.5978  0.0414
  190SOL    HW1  569   1.640   1.477   2.029  2.3993  2.3285 -0.1562
  190SOL    HW2  570   1.679   1.500   2.196  1.0549  2.6908  0.5080
  191SOL     OW  571   0.361   0.319   2.011  0.0083 -0.2086  0.7445
  191SOL    HW1  572   0.325   0.408   1.973 -1.5136  2.4061  2.6857
  191SOL    HW2  573   0.418   0.273   1.947 -3.3804 -1.9812  1.3069
  192SOL     OW  574   1.979   1.487   1.045  0.1571  0.7503  0.1094
  192SOL    HW1  575   1.936   1.397   1.030  1.8551 -0.8622 -1.6055
  192SOL    HW2  576   2.043   1.486   1.125 -1.5843 -1.1132  0.8213
  193SOL     OW  577   1.551   0.711   1.187  0.4657  0.2525  0.3781
  193SOL    HW1  578   1.614   0.780   1.145  1.2270 -2.1758 -0.9996
  193SOL    HW2  579   1.491   0.673   1.113  0.1102  0.9441  1.0832
  194SOL     OW  580   0.635   1.958   1.298 -0.8779 -0.0951  0.0008
  194SOL    HW1  581   0.695   2.026   1.346 -1.3854  1.5874 -0.3915
  194SOL    HW2  582   0.687   1.902   1.230 -1.7898  1.4208  0.4817
  195SOL     OW  583   1.769   0.281   0.204 -0.1013 -0.2780 -0.0962
  195SOL    HW1  584   1.750   0.366   0.257  1.0423 -0.3986  1.6215
  195SOL    HW2  585   1.865   0.286   0.169 -0.5775  0.5011 -0.0441
  196SOL     OW  586   0.378   1.261   1.348 -0.6756 -0.3601  0.1211
  196SOL    HW1  587   0.366   1.333   1.417  2.4626  0.2182 -2.3982
  196SOL    HW2  588   0.470   1.225   1.373  0.1138  0.9135  1.4177
  197SOL     OW  589   1.106   0.006   1.529  0.1933 -0.0656  0.2314
  197SOL    HW1  590   1.153   3.076   1.436  2.3882 -0.2152 -1.6022
  197SOL    HW2  591   1.172   0.001   1.602 -1.1718 -0.5374 -2.4016
  198SOL     OW  592   0.501   1.008   1.129 -0.3587 -0.4359  0.0077
  198SOL    HW1  593   0.574   0.938   1.142  1.3912  1.1628  1.2802
  198SOL    HW2  594   0.543   1.094   1.088 -1.3719  0.0769 -1.3540
  199SOL     OW  595   0.271   2.476   1.625  0.5168 -0.7372  0.3237
  199SOL    HW1  596   0.287   2.376   1.645 -0.1821 -1.6477  2.8404
  199SOL    HW2  597   0.346   2.516   1.569 -0.2020  0.3162  1.6778
  200SOL     OW  598   1.765   1.902   1.906  0.5440 -0.8222 -0.9849
  200SOL    HW1  599   1.766   1.803   1.897 -1.6546  1.2746  0.2986
  200SOL    HW2  600   1.767   1.950   1.816  0.7604  1.4128  1.0307
  201SOL     OW  601   0.561   1.686   2.189 -0.5194  0.0685  0.5549
  201SOL    HW1  602   0.459   1.707   2.198 -0.0045  2.8199 -2.4070
  201SOL    HW2  603   0.578   1.609   2.129 -1.1320  1.0259  2.7700
  202SOL     OW  604   1.839   0.745   0.075  0.4902 -0.4225  0.4217
  202SOL    HW1  605   1.755   0.784   0.032  0.3422  1.6270  0.4895
  202SOL    HW2  606   1.839   0.642   0.060 -0.4082 -0.4039  0.2741
  203SOL     OW  607   1.237   2.642   1.977  0.4658 -0.0669 -0.0515
  203SOL    HW1  608   1.192   2.730   2.014  0.5295  3.6824 -0.4380
  203SOL    HW2  609   1.267   2.666   1.880 -0.6428  1.0548  0.8134
  204SOL     OW  610   0.499   2.097   1.903  0.5913 -0.4945  0.0961
  204SOL    HW1  611   0.583   2.152   1.882 -1.9176  2.3567  1.2929
  204SOL    HW2  612   0.480   2.025   1.829 -0.2679  1.0907 -0.7797
  205SOL     OW  613   1.511   1.844   2.026 -0.1643 -0.3692 -0.2802
  205SOL    HW1  614   1.605   1.859   1.987 -2.9807 -0.7153  2.2464
  205SOL    HW2  615   1.502   1.758   2.078  0.6123  0.2881  0.5165
  206SOL     OW  616   3.095   1.061   2.366  0.2921 -0.0880  0.3027
  206SOL    HW1  617   3.081   0.976   2.310 -0.4449 -0.7911  1.1573
  206SOL    HW2  618   0.090   1.095   2.328 -1.4794  0.6519 -0.8365
  207SOL     OW  619   0.823   2.924   1.904  0.0381  0.3042 -0.1270
  207SOL    HW1  620   0.777   3.016   1.920 -0.6372  3.8907  1.0898
  207SOL    HW2  621   0.762   2.857   1.951 -4.5298 -3.1548 -1.9715
  208SOL     OW  622   0.490   2.576   1.903 -0.1695  0.2328 -0.0415
  208SOL    HW1  623   0.515   2.500   1.843  0.6249  1.2912  1.2453
  208SOL    HW2  624   0.392   2.576   1.917  2.9623 -0.0245 -3.3900
  209SOL     OW  625   1.568   0.081   0.290 -0.1548 -0.3756 -0.2569
  209SOL    HW1  626   1.604   0.023   0.367 -0.5256  0.7240  2.5806
  209SOL    HW2  627   1.637   0.152   0.263 -2.8469  0.5227 -0.8444
  210SOL     OW  628   2.650   0.782   0.910 -1.0878  0.0039 -0.5684
  210SOL    HW1  629   2.745   0.771   0.892 -1.3618  1.7837  1.3080
  210SOL    HW2  630   2.602   0.725   0.841  2.1057 -0.7865  0.1197
  211SOL     OW  631   0.490   0.548   1.551 -0.2646 -0.3578 -0.1206
  211SOL    HW1  632   0.437   0.633   1.534 -0.3012 -1.3223  0.8885
  211SOL    HW2  633   0.572   0.578   1.598  0.0153  1.9272  0.3789
  212SOL     OW  634   1.626   1.646   1.278  0.2617  0.0073  0.0284
  212SOL    HW1  635   1.640   1.622   1.374  0.4769 -0.7090 -2.5146
  212SOL    HW2  636   1.564   1.725   1.278  1.1678  3.8360 -1.1244
  213SOL     OW  637   2.663   0.454   1.840  0.0552  0.1161 -0.0291
  213SOL    HW1  638   2.729   0.446   1.770 -2.2875  1.8031 -0.9464
  213SOL    HW2  639   2.712   0.452   1.928  0.2552 -1.5731 -0.5223
  214SOL     OW  640   0.681   2.393   2.451 -0.0682 -0.3140 -0.6281
  214SOL    HW1  641   0.738   2.462   2.396  3.4739  0.5404 -0.1807
  214SOL    HW2  642   0.732   2.309   2.471  0.3134  0.4010  1.0347
  215SOL     OW  643   2.738   1.756   1.645  0.1427  0.0628  0.2760
  215SOL    HW1  644   2.816   1.716   1.693 -0.1722  1.1407 -0.8057
  215SOL    HW2  645   2.738   1.730   1.546 -0.2633  2.2208  1.0068
  216SOL     OW  646   0.685   0.766   1.958 -0.1623  0.2906 -0.1082
  216SOL    HW1  647   0.747   0.832   1.912 -1.3895  0.1934 -1.0049
  216SOL    HW2  648   0.608   0.733   1.894  1.5480  0.5428 -0.0484
  217SOL     OW  649   2.624   0.420   0.762  0.2356 -0.2954  0.8248
  217SOL    HW1  650   2.674   0.449   0.848  2.1319  1.7003  0.8607
  217SOL    HW2  651   2.570   0.500   0.734  0.5605 -1.1751  0.2988
  218SOL     OW  652   1.453   1.910   1.290 -0.3376 -0.4387 -0.0804
  218SOL    HW1  653   1.415   1.972   1.217  0.4393 -0.1462  1.5903
  218SOL    HW2  654   1.491   1.963   1.371 -0.0534  0.6565 -1.1380
  219SOL     OW  655   1.866   2.949   0.622 -0.0608  0.0052  0.3586
  219SOL    HW1  656   1.846   2.945   0.722  1.2332 -0.7396  2.5306
  219SOL    HW2  657   1.868   2.854   0.580 -1.0214 -1.6633 -1.7165
  220SOL     OW  658   1.758   2.437   0.353  0.2115 -0.5643  0.3678
  220SOL    HW1  659   1.800   2.369   0.415  0.9527  1.5822  0.1009
  220SOL    HW2  660   1.836   2.485   0.306  0.4277 -1.9585  0.7061
  221SOL     OW  661   2.638   1.656   0.321 -0.0200 -0.1635  0.1433
  221SOL    HW1  662   2.573   1.724   0.277 -2.1449  0.3460 -0.4726
  221SOL    HW2  663   2.598   1.563   0.318  1.6174  0.8132  2.6588
  222SOL     OW  664   0.653   2.381   0.918 -0.1496 -0.2365  0.1820
  222SOL    HW1  665   0.613   2.400   0.824 -1.4585  0.4401 -3.0240
  222SOL    HW2  666   0.722   2.304   0.911  4.6502 -1.5165 -0.8109
  223SOL     OW  667   1.325   0.187   0.376  0.3109  0.5257  0.5426
  223SOL    HW1  668   1.291   0.271   0.330 -2.9340  1.0475 -0.3580
  223SOL    HW2  669   1.418   0.170   0.334 -1.1370  0.2186 -0.1680
  224SOL     OW  670   2.919   1.168   0.597 -0.0637 -0.1954 -0.2148
  224SOL    HW1  671   2.835   1.229   0.604 -0.1905  0.0550 -2.4441
  224SOL    HW2  672   2.921   1.113   0.684 -0.0095 -2.7751  2.7606
  225SOL     OW  673   0.064   1.610   1.232  0.0578  0.1278  0.1029
  225SOL    HW1  674   0.085   1.663   1.147  0.8278  0.2936 -0.0940
  225SOL    HW2  675   0.144   1.609   1.296 -0.5380 -0.5414 -0.5233
  226SOL     OW  676   0.512   3.050   0.971  0.1131  0.0540  0.5030
  226SOL    HW1  677   0.440   3.053   0.898 -1.2756  1.3277  1.3421
  226SOL    HW2  678   0.520   0.051   1.002 -1.7201 -1.6659 -0.9008
  227SOL     OW  679   1.323   1.467   1.802 -0.3360 -0.3411  0.2317
  227SOL    HW1  680   1.291   1.539   1.733  0.3896  0.9000 -1.3389
  227SOL    HW2  681   1.273   1.477   1.891 -0.1834 -1.4073  0.4376
  228SOL     OW  682   0.552   0.231   1.824  0.0762  0.2111 -0.0196
  228SOL    HW1  683   0.511   0.162   1.758 -0.9929  0.1463 -2.0733
  228SOL    HW2  684   0.628   0.279   1.782 -2.2590 -1.3235  1.3121
  229SOL     OW  685   2.886   0.738   2.414  0.0976 -0.0094  0.7195
  229SOL    HW1  686   2.942   0.705   2.339  3.7260  1.7017  1.1962
  229SOL    HW2  687   2.939   0.801   2.470 -1.0385 -1.0928 -1.4692
  230SOL     OW  688   0.276   0.843   0.955 -0.2206 -0.0985  0.2018
  230SOL    HW1  689   0.234   0.889   0.874 -4.9825  2.6826 -1.0304
  230SOL    HW2  690   0.214   0.861   1.035  0.6367 -0.6407 -0.9651
  231SOL     OW  691   1.193   0.025   1.784 -0.5755  0.1901  0.4848
  231SOL    HW1  692   1.138   0.043   1.864  3.8780 -0.0873 -1.8164
  231SOL    HW2  693   1.285   3.090   1.815 -0.8553 -3.3131 -0.4321
  232SOL     OW  694   2.927   1.942   0.158 -0.3143 -0.4450 -0.3576
  232SOL    HW1  695   2.954   1.964   0.255 -3.4478  0.9018 -1.3702
  232SOL    HW2  696   2.825   1.961   0.140 -1.3191 -0.4184 -2.4423
  233SOL     OW  697   1.212   2.613   2.831  0.3990 -0.0589 -0.2771
  233SOL    HW1  698   1.250   2.571   2.752  1.9940  5.0137 -0.5396
  233SOL    HW2  699   1.291   2.660   2.873 -0.1780  0.0262 -2.7032
  234SOL     OW  700   0.430   1.130   1.689 -0.3269 -0.3703 -0.2041
  234SOL    HW1  701   0.497   1.134   1.612  0.6785  1.7581 -0.4845
  234SOL    HW2  702   0.477   1.144   1.781 -0.8900  0.6588 -0.7429
  235SOL     OW  703   0.038   2.383   2.469 -0.2316  0.0328  0.3775
  235SOL    HW1  704   0.102   2.307   2.476  0.0868 -0.1648  0.4034
  235SOL    HW2  705   3.066   2.386   2.544  3.1756  1.0641 -0.7922
  236SOL     OW  706   1.675   1.941   2.606  0.3715 -0.4174 -0.8265
  236SOL    HW1  707   1.713   1.892   2.526 -1.1723 -1.0217  1.0490
  236SOL    HW2  708   1.706   2.038   2.600 -3.2037  0.7368 -0.0010
  237SOL     OW  709   1.449   0.601   0.964  0.1794 -0.1334 -0.3417
  237SOL    HW1  710   1.463   0.657   0.879 -2.5404  2.9803 -1.3885
  237SOL    HW2  711   1.393   0.519   0.932 -1.3793  0.2225 -1.7318
  238SOL     OW  712   1.059   2.863   2.082  0.0427 -0.0936  0.7217
  238SOL    HW1  713   1.065   2.963   2.074 -0.6152 -1.7850 -0.4325
  238SOL    HW2  714   0.960   2.839   2.065 -3.4875 -1.4857  0.2285
  239SOL     OW  715   0.909   2.624   2.049 -0.0837  0.2292  0.4918
  239SOL    HW1  716   1.004   2.633   2.079  0.6210  1.1646 -2.0305
  239SOL    HW2  717   0.906   2.613   1.947 -1.5030 -0.8245 -0.1133
  240SOL     OW  718   2.219   0.016   0.704  0.5332 -0.2093  0.0987
  240SOL    HW1  719   2.123   0.042   0.685  0.2259 -0.9207  1.0295
  240SOL    HW2  720   2.279   0.101   0.692  2.6064  1.5218  1.8240
  241SOL     OW  721   1.227   1.305   2.805 -0.2416 -0.4031  0.2551
  241SOL    HW1  722   1.178   1.367   2.871  0.8509 -0.7941  0.8133
  241SOL    HW2  723   1.328   1.322   2.800 -0.5318  0.3058 -0.8969
  242SOL     OW  724   2.560   0.706   2.863 -0.2708  0.0040  0.2957
  242SOL    HW1  725   2.646   0.721   2.921  1.9119 -1.3888  0.5654
  242SOL    HW2  726   2.582   0.696   2.765  1.6387  0.3141 -0.3313
  243SOL     OW  727   0.760   0.355   1.707  0.5606  0.2545  0.4422
  243SOL    HW1  728   0.754   0.443   1.650 -0.1012  2.6358  0.7723
  243SOL    HW2  729   0.838   0.292   1.680 -2.4590  3.4338  1.1816
  244SOL     OW  730   1.351   3.015   2.936 -0.9191  0.4834 -0.1980
  244SOL    HW1  731   1.266   3.010   2.993 -1.1544 -1.1977 -0.6041
  244SOL    HW2  732   1.426   3.051   2.992  1.1380  2.0193 -0.8818
  245SOL     OW  733   1.726   2.749   2.955 -0.0164  0.7085 -0.5038
  245SOL    HW1  734   1.766   2.686   3.026  1.7567 -0.4013  2.9694
  245SOL    HW2  735   1.755   2.846   2.966 -3.1874  0.8097  0.4638
  246SOL     OW  736   0.882   0.913   1.799 -0.0561 -0.8703  0.1200
  246SOL    HW1  737   0.868   1.010   1.813  0.4439 -2.5751  0.2715
  246SOL    HW2  738   0.966   0.872   1.840 -1.6449  0.3279 -0.2941
  247SOL     OW  739   0.044   0.409   2.245  0.0026  0.1233  0.4856
  247SOL    HW1  740   0.005   0.326   2.203 -3.6571 -1.5880 -2.2489
  247SOL    HW2  741   0.144   0.398   2.249 -2.0663 -0.7419 -1.0702
  248SOL     OW  742   0.025   1.380   1.905 -0.4002  0.2984  0.3182
  248SOL    HW1  743   3.037   1.351   1.857  1.5694  2.1031 -2.7104
  248SOL    HW2  744   0.009   1.432   1.990  1.0599 -1.1017 -2.6316
  249SOL     OW  745   0.129   0.376   0.084  0.0360  0.1668 -0.4634
  249SOL    HW1  746   0.191   0.326   0.145 -1.8062  2.1560  0.5423
  249SOL    HW2  747   0.058   0.313   0.046 -1.0596  1.5052  0.3226
  250SOL     OW  748   2.837   0.297   0.137  0.0122  0.3939 -0.1773
  250SOL    HW1  749   2.789   0.376   0.178  0.6281 -0.8079 -1.4332
  250SOL    HW2  750   2.768   0.239   0.087 -1.1547  0.1728  1.1993
  251SOL     OW  751   0.868   1.806   1.948  0.2866  0.1770 -0.1078
  251SOL    HW1  752   0.779   1.841   1.985 -1.5394 -2.3439  1.7030
  251SOL    HW2  753   0.937   1.878   1.950 -1.5399 -0.0592 -0.4390
  252SOL     OW  754   2.010   1.806   1.114 -0.3620  0.5375 -0.4763
  252SOL    HW1  755   1.918   1.772   1.084  0.0180  0.5368 -0.0780
  252SOL    HW2  756   2.024   1.763   1.209 -4.8558  0.5098  2.4014
  253SOL     OW  757   1.658   2.339   2.336 -0.3872 -0.1952 -0.2978
  253SOL    HW1  758   1.678   2.435   2.316 -0.9108  1.2096  2.4747
  253SOL    HW2  759   1.588   2.301   2.277 -0.2890  2.1759  2.5894
  254SOL     OW  760   0.798   2.354   2.131  0.2689  0.5982 -0.4565
  254SOL    HW1  761   0.718   2.415   2.118  1.3489 -0.0593 -0.2481
  254SOL    HW2  762   0.881   2.406   2.154 -2.3655  1.0637 -2.4289
  255SOL     OW  763   0.957   0.202   1.127 -0.6176 -0.3339 -0.2961
  255SOL    HW1  764   0.997   0.275   1.065  1.2327  3.2099 -1.6793
  255SOL    HW2  765   0.915   0.131   1.071  0.2606  0.7863 -0.3751
  256SOL     OW  766   2.219   2.221   1.558 -0.5995 -0.1905  0.2170
  256SOL    HW1  767   2.210   2.192   1.461  0.2957  2.0767 -0.4334
  256SOL    HW2  768   2.275   2.161   1.620  0.2705  4.0313 -0.8005
  257SOL     OW  769   0.585   2.274   2.771 -0.3514 -0.1483 -0.3810
  257SOL    HW1  770   0.576   2.334   2.851 -1.5767  1.6940  0.7284
  257SOL    HW2  771   0.676   2.226   2.762  0.8850  0.3500 -2.0090
  258SOL     OW  772   0.568   0.955   2.112 -0.1589 -0.1374  0.2803
  258SOL    HW1  773   0.604   0.938   2.207 -0.3821 -0.0068 -1.0710
  258SOL    HW2  774   0.596   0.883   2.046  0.4317 -1.3649  0.0832
  259SOL     OW  775   0.622   1.448   2.013  0.3093 -0.2272 -0.1686
  259SOL    HW1  776   0.589   1.503   1.935  1.7056 -1.0882  0.4064
  259SOL    HW2  777   0.723   1.463   2.013 -1.1410  0.2095 -0.4473
  260SOL     OW  778   1.980   0.902   0.998 -0.0451  0.2562 -0.2952
  260SOL    HW1  779   2.069   0.893   1.051  0.6835 -3.3018 -0.9029
  260SOL    HW2  780   1.971   0.996   0.951 -0.0842  1.9285  1.3383
  261SOL     OW  781   0.861   0.008   0.962 -0.6429  0.2540 -0.2878
  261SOL    HW1  782   0.779   0.053   0.915  2.4793  0.1100 -0.4866
  261SOL    HW2  783   0.921   3.055   0.900  1.2013  1.6025  1.0313
  262SOL     OW  784   2.120   2.618   2.436  0.3225 -0.3346  0.0688
  262SOL    HW1  785   2.073   2.596   2.529 -0.9759 -1.4256  2.7770
  262SOL    HW2  786   2.222   2.612   2.449  1.1035  2.0847  0.5836
  263SOL     OW  787   0.457   1.461   2.834  0.0864 -0.1582  0.2255
  263SOL    HW1  788   0.464   1.563   2.820 -2.6194  1.4722  0.1908
  263SOL    HW2  789   0.464   1.412   2.744 -0.5837 -0.8548 -0.4944
  264SOL     OW  790   0.436   1.826   1.472 -0.3277 -0.5352 -0.2129
  264SOL    HW1  791   0.516   1.848   1.412  0.1098 -1.4769 -2.6585
  264SOL    HW2  792   0.360   1.895   1.468  3.4601 -0.4617 -0.8523
  265SOL     OW  793   0.730   0.883   0.564 -0.6509 -0.2065  0.3318
  265SOL    HW1  794   0.674   0.860   0.648  3.0777 -2.5824 -1.9200
  265SOL    HW2  795   0.794   0.961   0.564 -2.4450  0.1655 -1.3374
  266SOL     OW  796   1.403   1.886   3.090 -0.0929  0.2751  0.0018
  266SOL    HW1  797   1.453   1.974   0.017 -1.0339 -0.7148 -0.3463
  266SOL    HW2  798   1.480   1.821   3.061  0.7808 -2.2929 -1.5284
  267SOL     OW  799   0.425   0.746   2.681  0.5821 -0.6759 -1.2048
  267SOL    HW1  800   0.374   0.661   2.712 -0.2012 -0.7607 -1.4196
  267SOL    HW2  801   0.497   0.726   2.608 -1.2155 -2.1645 -0.3025
  268SOL     OW  802   0.964   0.538   3.043 -0.6387  0.3923 -0.3603
  268SOL    HW1  803   1.056   0.543   3.004 -2.3417 -0.5061 -0.5492
  268SOL    HW2  804   0.977   0.588   0.033  3.6514 -1.7060 -2.7028
  269SOL     OW  805   2.032   0.097   2.556  0.1266  0.0712  0.6059
  269SOL    HW1  806   1.950   0.120   2.501  1.5330  3.0685 -0.0614
  269SOL    HW2  807   2.015   0.036   2.634 -1.1659 -0.4080  2.1227
  270SOL     OW  808   0.981   0.717   2.723 -0.0224  0.0590 -0.3228
  270SOL    HW1  809   1.051   0.749   2.792  0.8549 -0.4277 -1.2628
  270SOL    HW2  810   0.895   0.692   2.770 -0.3010 -2.0930 -0.4766
  271SOL     OW  811   0.081   0.647   0.248 -0.0171  0.4834 -0.0390
  271SOL    HW1  812   0.168   0.666   0.297 -0.7664  0.7199 -1.0275
  271SOL    HW2  813   0.078   0.562   0.195  0.5126  0.8958 -0.1025
  272SOL     OW  814   2.403   1.273   2.486 -0.0134  0.1271 -0.4080
  272SOL    HW1  815   2.311   1.263   2.450  1.8506 -2.8434  0.5640
  272SOL    HW2  816   2.462   1.200   2.447 -2.1212 -0.3938  0.3329
  273SOL     OW  817   0.023   0.168   2.102  0.4736 -0.3776  0.6248
  273SOL    HW1  818   0.097   0.113   2.063  2.7272 -0.2328  1.1126
  273SOL    HW2  819   3.082   0.125   2.183  2.7364 -0.7589 -0.7292
  274SOL     OW  820   2.913   0.228   1.917  0.3517  0.7416  0.5632
  274SOL    HW1  821   2.998   0.207   1.971 -3.0041  1.6662 -0.8622
  274SOL    HW2  822   2.870   0.138   1.886 -1.5748  1.0056 -0.0300
  275SOL     OW  823   1.908   1.215   0.394  0.3052 -0.2944 -0.1091
  275SOL    HW1  824   1.962   1.134   0.373 -1.4335 -0.2270  1.5426
  275SOL    HW2  825   1.891   1.270   0.309 -1.8365  0.5094  0.5812
  276SOL     OW  826   0.405   0.993   2.754 -0.5272 -0.0142 -0.4045
  276SOL    HW1  827   0.412   0.891   2.744  1.1089 -1.1538  0.2229
  276SOL    HW2  828   0.349   1.030   2.677 -2.5633  0.6202 -0.2886
  277SOL     OW  829   1.662   2.992   2.290 -0.0436 -0.2662 -0.1187
  277SOL    HW1  830   1.710   2.914   2.249 -0.6271  1.5974  0.7327
  277SOL    HW2  831   1.662   2.978   2.393  0.1913  0.3959  3.8938
  278SOL     OW  832   1.822   0.043   1.515  0.3760  0.1691 -0.3918
  278SOL    HW1  833   1.845   0.086   1.602 -0.6041 -1.1485 -0.0922
  278SOL    HW2  834   1.803   3.041   1.526  0.6995 -3.0021 -1.9266
  279SOL     OW  835   1.491   1.183   2.973 -0.4000 -0.1173 -0.3722
  279SOL    HW1  836   1.510   1.224   2.878  0.2757 -0.6399 -3.7537
  279SOL    HW2  837   1.582   1.164   3.022 -0.9334 -1.9352  0.8317
  280SOL     OW  838   0.888   1.288   0.186 -0.0192  0.1478 -0.4456
  280SOL    HW1  839   0.915   1.322   0.092  1.3977  0.9936 -2.0575
  280SOL    HW2  840   0.851   1.194   0.177  0.0408  0.9805 -0.0484
  281SOL     OW  841   0.055   2.872   1.666  0.1725  0.5223 -0.4389
  281SOL    HW1  842   0.137   2.882   1.724 -0.1452 -2.4831 -0.1575
  281SOL    HW2  843   3.087   2.946   1.692  0.0148 -0.3057 -1.2653
  282SOL     OW  844   3.056   2.472   0.803 -0.0447  0.1611  0.5929
  282SOL    HW1  845   3.012   2.544   0.755 -0.7069  0.5591 -0.9429
  282SOL    HW2  846   0.053   2.503   0.838 -0.1644  0.7866  1.9979
  283SOL     OW  847   1.010   2.210   1.942 -0.3903  0.0002  0.2820
  283SOL    HW1  848   1.038   2.267   2.022  0.5371  0.7846  2.8523
  283SOL    HW2  849   1.043   2.252   1.854  0.2296 -2.4484 -1.6124
  284SOL     OW  850   2.329   0.581   0.523 -0.0761 -0.1301  0.7267
  284SOL    HW1  851   2.245   0.525   0.530 -0.0802  1.2828  1.3620
  284SOL    HW2  852   2.319   0.657   0.456 -0.0446 -2.3722  1.7604
  285SOL     OW  853   3.024   2.896   2.398 -0.1199 -0.3777  0.0204
  285SOL    HW1  854   3.084   2.821   2.363  2.3598  1.1442  0.8784
  285SOL    HW2  855   3.040   2.915   2.496  1.8002 -0.3255  2.2440
  286SOL     OW  856   2.029   2.480   1.368  0.0419 -0.0958 -0.1797
  286SOL    HW1  857   2.095   2.521   1.425 -3.9149 -0.4065 -0.3978
  286SOL    HW2  858   1.968   2.415   1.413  2.6775  1.0314  0.2878
  287SOL     OW  859   0.637   1.292   0.999 -0.4948  0.7437  0.1088
  287SOL    HW1  860   0.670   1.290   0.900  1.8628 -2.9908  0.9874
  287SOL    HW2  861   0.583   1.374   1.024 -2.7974 -2.0169 -1.5089
  288SOL     OW  862   1.771   2.559   0.042 -0.9780  0.1779 -0.4227
  288SOL    HW1  863   1.864   2.545   0.092  1.4988 -0.7736  1.4511
  288SOL    HW2  864   1.730   2.469   0.019  1.2893 -0.4819  1.2298
  289SOL     OW  865   0.575   2.029   2.665 -0.0496  0.0691  0.3492
  289SOL    HW1  866   0.521   2.108   2.703  1.5700  1.0071  0.4617
  289SOL    HW2  867   0.650   2.066   2.602 -2.8910  1.5868  2.3131
  290SOL     OW  868   1.351   2.059   1.102  0.1198  0.5828 -0.1820
  290SOL    HW1  869   1.356   2.165   1.102  0.3134  1.4629 -1.2591
  290SOL    HW2  870   1.255   2.034   1.067 -3.0290 -1.6296 -0.6338
  291SOL     OW  871   1.594   1.686   3.002 -0.3560  0.2137 -0.3555
  291SOL    HW1  872   1.677   1.653   2.949 -1.7406  0.3292  1.1544
  291SOL    HW2  873   1.517   1.616   2.998 -1.5492 -1.0574  1.2795
  292SOL     OW  874   1.409   1.472   1.033  0.2835 -0.4324 -0.3834
  292SOL    HW1  875   1.434   1.558   0.980  0.0487  0.8980 -4.6914
  292SOL    HW2  876   1.493   1.422   1.062  1.3656  1.3956 -0.0819
  293SOL     OW  877   1.850   2.852   0.883 -0.0436 -0.6298 -0.6306
  293SOL    HW1  878   1.943   2.869   0.929  0.9255  3.5200  2.1152
  293SOL    HW2  879   1.849   2.761   0.841 -0.9285  0.8960 -1.5785
  294SOL     OW  880   3.089   1.238   2.604 -0.0916 -0.0099  0.4431
  294SOL    HW1  881   2.996   1.247   2.642 -0.7345 -1.0685  1.9712
  294SOL    HW2  882   3.086   1.224   2.502  1.8071 -2.0187 -2.3650
  295SOL     OW  883   1.386   2.225   2.667 -0.0862  0.1937  0.1674
  295SOL    HW1  884   1.377   2.324   2.646  2.2004  1.2499  0.6281
  295SOL    HW2  885   1.419   2.222   2.765 -0.3556 -2.3732 -0.1504
  296SOL     OW  886   1.993   1.342   2.168  0.0309 -0.6875 -0.3648
  296SOL    HW1  887   2.043   1.281   2.105  0.2560  2.2387  0.8304
  296SOL    HW2  888   1.895   1.362   2.143 -0.1712 -1.6352  0.5875
  297SOL     OW  889   3.056   0.660   2.208 -0.0143  0.3625 -0.2755
  297SOL    HW1  890   3.080   0.557   2.202  1.1022  0.5406 -0.9835
  297SOL    HW2  891   2.969   0.678   2.162  2.2504  1.0533 -1.6237
  298SOL     OW  892   1.100   2.402   2.113  0.1395  0.3178  0.4961
  298SOL    HW1  893   1.149   2.481   2.068 -1.1180 -2.1836 -0.5414
  298SOL    HW2  894   1.118   2.387   2.208  0.1469  0.6888 -3.2281
  299SOL     OW  895   0.843   2.794   2.798  0.0219  0.7958 -0.1244
  299SOL    HW1  896   0.772   2.728   2.832 -3.6903 -1.3292 -3.6166
  299SOL    HW2  897   0.885   2.857   2.872  4.9097  1.1039  1.7461
  300SOL     OW  898   3.035   0.601   2.823  0.2211  0.3234  0.0843
  300SOL    HW1  899   3.033   0.700   2.808  0.7037 -2.6869  3.0282
  300SOL    HW2  900   0.003   0.587   2.899  1.4504 -1.5081 -2.2558
  301SOL     OW  901   1.770   1.000   1.629  0.1690 -0.5490 -0.0755
  301SOL    HW1  902   1.742   1.005   1.531  1.8980  0.9808 -0.8515
  301SOL    HW2  903   1.694   1.024   1.691  0.3937 -2.0341  0.4847
  302SOL     OW  904   2.679   1.908   2.655 -0.2438 -0.3490  0.2411
  302SOL    HW1  905   2.706   1.931   2.563 -0.0601  0.6295  1.4552
  302SOL    HW2  906   2.637   1.812   2.655 -0.3120 -1.6352 -1.4289
  303SOL     OW  907   3.015   0.175   2.609 -0.3747  0.1503  0.1114
  303SOL    HW1  908   3.043   0.084   2.567  1.1711  1.1383  0.2410
  303SOL    HW2  909   3.059   0.249   2.553 -2.6313  1.8065 -2.3904
  304SOL     OW  910   2.860   0.828   1.530  0.5984 -0.6033  1.0713
  304SOL    HW1  911   2.952   0.874   1.516 -0.1411 -0.7708  0.8822
  304SOL    HW2  912   2.851   0.740   1.480 -2.8704  1.8686 -1.4947
  305SOL     OW  913   2.958   3.088   1.703 -0.1694 -0.3135 -0.0664
  305SOL    HW1  914   2.897   3.063   1.783 -2.0289 -0.1775  0.2946
  305SOL    HW2  915   2.906   3.084   1.616 -0.4477 -0.6646  0.0251
  306SOL     OW  916   2.866   1.406   1.391 -0.3922 -0.1906  0.1458
  306SOL    HW1  917   2.856   1.401   1.490  1.9010 -1.5671 -1.1583
  306SOL    HW2  918   2.885   1.312   1.353  1.4829 -1.7071  1.0366
  307SOL     OW  919   1.990   0.469   1.307  0.4046  0.5507  0.2619
  307SOL    HW1  920   1.941   0.464   1.395  1.6588 -0.2990 -0.6996
  307SOL    HW2  921   2.002   0.565   1.284  0.0499  0.3786 -2.3180
  308SOL     OW  922   0.160   2.171   1.265  0.0772  0.6288 -0.2643
  308SOL    HW1  923   0.141   2.182   1.170 -1.4744 -1.3329  0.4129
  308SOL    HW2  924   0.160   2.258   1.317  0.0500 -0.4281  0.3645
  309SOL     OW  925   2.274   1.896   1.482  0.7082  0.2892  0.1486
  309SOL    HW1  926   2.298   1.941   1.391  1.0335  0.6156 -0.9028
  309SOL    HW2  927   2.310   1.941   1.565 -1.7707  0.4520  3.6560
  310SOL     OW  928   2.443   1.841   2.976  0.2870  0.0608  0.0851
  310SOL    HW1  929   2.393   1.906   3.035  2.4674  0.6643 -1.1912
  310SOL    HW2  930   2.539   1.877   2.975 -0.1193 -0.8580  0.2164
  311SOL     OW  931   2.356   1.514   2.634 -0.3052  0.1799 -0.3180
  311SOL    HW1  932   2.383   1.438   2.568 -2.6627  0.0047  2.0153
  311SOL    HW2  933   2.271   1.496   2.689  2.8186 -0.7341  0.2527
  312SOL     OW  934   1.679   2.098   1.254  0.1370  0.0422 -0.0602
  312SOL    HW1  935   1.631   2.186   1.238  1.2671  0.6228 -0.6425
  312SOL    HW2  936   1.625   2.038   1.315  0.4112  1.1534  1.8138
  313SOL     OW  937   0.274   2.516   1.142  0.0600 -0.2842  0.3952
  313SOL    HW1  938   0.361   2.455   1.143  1.0188  1.4865 -0.1597
  313SOL    HW2  939   0.199   2.484   1.208  2.0255 -1.2890 -0.9187
  314SOL     OW  940   0.986   1.642   1.757 -0.1789 -0.3381 -0.4819
  314SOL    HW1  941   0.926   1.649   1.676  1.2055 -1.6619 -0.1982
  314SOL    HW2  942   0.939   1.695   1.832  1.5934 -1.6302  2.3437
  315SOL     OW  943   0.539   2.862   2.324 -0.2403  0.0277  0.5070
  315SOL    HW1  944   0.597   2.944   2.313  1.4724  2.3767  0.3545
  315SOL    HW2  945   0.559   2.812   2.416 -0.0300 -0.4293  2.1235
  316SOL     OW  946   2.834   2.082   0.795  0.3479 -0.0260  0.3217
  316SOL    HW1  947   2.779   2.086   0.711 -2.2641  2.0813 -1.9093
  316SOL    HW2  948   2.919   2.031   0.772 -2.6207  0.8858 -1.5927
  317SOL     OW  949   2.068   0.573   0.334  0.1103 -0.0613  0.4537
  317SOL    HW1  950   1.995   0.575   0.405  1.7288 -0.3427 -0.4408
  317SOL    HW2  951   2.119   0.660   0.336 -0.5816 -2.9065 -0.8924
  318SOL     OW  952   2.866   2.446   0.141 -0.2825  0.4529  0.2655
  318SOL    HW1  953   2.881   2.543   0.109 -1.4826 -1.4471  3.0131
  318SOL    HW2  954   2.849   2.443   0.244 -2.0552  0.4713  1.7695
  319SOL     OW  955   1.354   1.749   0.240 -0.0371  0.0945 -0.2816
  319SOL    HW1  956   1.356   1.801   0.153 -1.5994 -2.4354 -0.3468
  319SOL    HW2  957   1.358   1.813   0.326 -1.5741 -0.2087  2.8503
  320SOL     OW  958   0.576   2.687   2.822 -0.1229 -0.2211  0.0531
  320SOL    HW1  959   0.576   2.599   2.866 -1.0677  3.3814  2.1670
  320SOL    HW2  960   0.579   2.680   2.718  2.4582  1.3845  1.8632
  321SOL     OW  961   0.975   3.066   0.305 -0.8645  0.4461  0.8234
  321SOL    HW1  962   0.907   2.995   0.291  4.3932  2.4364  1.2127
  321SOL    HW2  963   1.066   3.038   0.265  4.5312 -2.0235  1.4915
  322SOL     OW  964   2.311   1.209   2.097  0.9175  0.0519 -0.0205
  322SOL    HW1  965   2.233   1.173   2.045  0.0984  0.3818 -0.4289
  322SOL    HW2  966   2.367   1.134   2.128 -1.2763  2.1881 -1.6666
  323SOL     OW  967   2.742   0.612   0.584 -0.1099  0.0810  0.4759
  323SOL    HW1  968   2.694   0.527   0.621  2.5074 -1.3402  2.1384
  323SOL    HW2  969   2.831   0.623   0.631  1.1947 -0.9135  0.1827
  324SOL     OW  970   0.018   0.407   2.516 -0.1566  0.2853 -0.0458
  324SOL    HW1  971   0.047   0.503   2.544 -1.7347  0.8861  1.9923
  324SOL    HW2  972   0.014   0.407   2.414  1.1124 -0.1253  3.2983
  325SOL     OW  973   0.766   3.028   2.367  0.3329 -0.0046  0.0234
  325SOL    HW1  974   0.771   0.011   2.302 -1.5304  0.5230  0.8582
  325SOL    HW2  975   0.772   3.057   2.466 -0.2465  1.5240 -0.9357
  326SOL     OW  976   2.397   2.745   1.138 -0.0370 -0.2232  0.2585
  326SOL    HW1  977   2.421   2.693   1.053  0.0021  0.9671  0.0055
  326SOL    HW2  978   2.429   2.689   1.216  1.2027 -0.6357  1.9058
  327SOL     OW  979   1.822   0.944   0.242  0.3154  0.0139 -0.3912
  327SOL    HW1  980   1.915   0.978   0.272  0.6753  1.8787  0.5550
  327SOL    HW2  981   1.841   0.870   0.175 -0.1340  0.0935  0.1083
  328SOL     OW  982   2.911   1.876   1.992 -0.2994 -0.1009 -0.4252
  328SOL    HW1  983   2.884   1.799   2.056  1.2899 -3.3354  0.4659
  328SOL    HW2  984   2.848   1.956   1.986  1.3149  2.9851 -2.0845
  329SOL     OW  985   1.817   2.776   1.789 -1.3547 -0.5756  0.2217
  329SOL    HW1  986   1.758   2.717   1.843  1.0118  0.7946 -0.5107
  329SOL    HW2  987   1.785   2.813   1.698  0.1415 -1.6952 -0.1641
  330SOL     OW  988   2.527   1.683   1.832  0.0624  0.4794  0.0526
  330SOL    HW1  989   2.558   1.625   1.912 -0.0473  0.7770  0.7847
  330SOL    HW2  990   2.607   1.698   1.770  3.2240 -1.3904  0.7915
  331SOL     OW  991   2.967   2.263   0.943  0.0267 -0.3801  0.0191
  331SOL    HW1  992   2.917   2.197   0.883  0.7264  0.4432  2.4371
  331SOL    HW2  993   3.005   2.337   0.886 -0.9387 -0.1916  1.3254
  332SOL     OW  994   0.489   3.084   0.502  0.0158 -0.2332 -0.0071
  332SOL    HW1  995   0.474   0.007   0.405 -0.1488  1.4581 -0.0878
  332SOL    HW2  996   0.402   3.083   0.556  0.0656 -3.8515 -0.8872
  333SOL     OW  997   2.004   0.379   2.486 -0.3531  0.0086 -0.3142
  333SOL    HW1  998   1.950   0.306   2.448 -0.1424  1.5786 -0.4129
  333SOL    HW2  999   2.099   0.341   2.509  0.2688  2.1428  1.8808
  334SOL     OW 1000   0.787   1.354   0.769 -0.3103 -0.5839 -0.7182
  334SOL    HW1 1001   0.780   1.380   0.669  0.8028 -0.1062 -0.3891
  334SOL    HW2 1002   0.793   1.433   0.835 -0.9549  0.8175  1.0058
  335SOL     OW 1003   0.090   2.671   2.379  0.6507 -0.1407  0.4664
  335SOL    HW1 1004   0.188   2.685   2.346  0.6569 -0.6972 -2.2502
  335SOL    HW2 1005   0.078   2.580   2.428  1.6580 -3.0046  0.9812
  336SOL     OW 1006   2.804   3.040   1.931 -0.2835 -0.0235  0.0435
  336SOL    HW1 1007   2.844   3.006   2.020 -2.3369 -1.8242 -1.4241
  336SOL    HW2 1008   2.709   3.066   1.947  1.6007 -1.4654 -5.5007
  337SOL     OW 1009   1.947   1.399   0.633  0.1188 -0.2543  0.4287
  337SOL    HW1 1010   2.001   1.418   0.718 -2.0894  1.7019 -1.1320
  337SOL    HW2 1011   1.938   1.300   0.610 -1.1566 -3.1196 -1.1390
  338SOL     OW 1012   0.800   1.792   1.144 -0.0714  0.7229  0.7512
  338SOL    HW1 1013   0.740   1.716   1.175 -4.3037  0.5725  1.5268
  338SOL    HW2 1014   0.865   1.819   1.216 -0.2269  1.1095 -1.5907
  339SOL     OW 1015   2.983   0.880   1.078  0.0287  0.3976 -0.0435
  339SOL    HW1 1016   3.078   0.901   1.114  3.0603  2.7502 -0.4772
  339SOL    HW2 1017   2.912   0.904   1.148 -0.3887 -0.4757  1.8517
  340SOL     OW 1018   1.457   2.858   2.167 -0.1342 -0.2835 -0.3251
  340SOL    HW1 1019   1.461   2.759   2.186  0.0321  1.0748 -0.8374
  340SOL    HW2 1020   1.533   2.913   2.214  1.0834 -0.6537  2.0843
  341SOL     OW 1021   2.231   1.167   0.737  0.1281  0.2370  0.1276
  341SOL    HW1 1022   2.249   1.265   0.772  0.1767 -0.2526  1.7532
  341SOL    HW2 1023   2.257   1.160   0.636 -0.4343  0.1495 -1.6955
  342SOL     OW 1024   3.010   1.744   0.666 -0.2357  0.0950 -0.0594
  342SOL    HW1 1025   2.982   1.743   0.763 -0.0487  0.4234 -1.4582
  342SOL    HW2 1026   3.094   1.800   0.656 -1.0301 -1.2600  2.5094
  343SOL     OW 1027   2.562   1.294   1.512 -0.2047 -0.2611  0.1932
  343SOL    HW1 1028   2.504   1.212   1.531 -0.6912 -0.4730 -3.1880
  343SOL    HW2 1029   2.656   1.290   1.556  0.4441  0.7117 -0.5997
  344SOL     OW 1030   1.878   0.763   0.779  0.6658  0.0914  0.3615
  344SOL    HW1 1031   1.803   0.822   0.744 -0.7909 -0.7253 -2.1513
  344SOL    HW2 1032   1.906   0.798   0.867 -2.5680 -2.8762 -0.7056
  345SOL     OW 1033   0.061   0.006   2.320 -0.5851 -0.5695 -0.2178
  345SOL    HW1 1034   0.024   3.013   2.358 -1.1444 -1.7411  4.1964
  345SOL    HW2 1035   0.158   0.004   2.342 -2.5366 -0.8655 -0.0347
  346SOL     OW 1036   2.956   1.374   0.120 -0.1543  0.6986  0.1453
  346SOL    HW1 1037   3.007   1.455   0.143 -2.2008  0.8602 -2.5568
  346SOL    HW2 1038   2.998   1.314   0.047 -0.7566 -1.8284  2.4593
  347SOL     OW 1039   1.395   2.530   1.652  0.5739 -0.4994 -0.0458
  347SOL    HW1 1040   1.398   2.436   1.688  2.6536 -3.5307  1.3145
  347SOL    HW2 1041   1.478   2.544   1.595 -1.6300  0.8818  1.5692
  348SOL     OW 1042   1.227   1.126   1.786  0.2636 -0.3353  0.3661
  348SOL    HW1 1043   1.254   1.221   1.769 -0.4469 -0.1127 -2.6873
  348SOL    HW2 1044   1.165   1.127   1.868  0.1541  1.5401 -0.5966
  349SOL     OW 1045   2.153   1.617   2.484 -0.5232 -1.2208  0.0813
  349SOL    HW1 1046   2.236   1.611   2.544 -0.6221  1.8497  0.4433
  349SOL    HW2 1047   2.115   1.716   2.500 -0.7036 -0.2085  2.5629
  350SOL     OW 1048   2.616   2.265   0.401  0.0796 -0.0214 -0.3345
  350SOL    HW1 1049   2.588   2.268   0.302 -0.1680  3.0629 -2.9484
  350SOL    HW2 1050   2.694   2.327   0.412 -0.8066 -3.2650 -1.8529
  351SOL     OW 1051   0.113   0.072   1.750  0.1147 -0.3678  0.0349
  351SOL    HW1 1052   0.010   0.047   1.754 -2.7594 -2.9829  0.9349
  351SOL    HW2 1053   0.125   0.170   1.775 -0.5488  0.3735  3.0496
  352SOL     OW 1054   1.154   2.361   1.745  0.1882 -0.4175 -0.1922
  352SOL    HW1 1055   1.093   2.423   1.799  0.2267 -0.4744  1.8040
  352SOL    HW2 1056   1.174   2.398   1.656 -3.7967  0.1250  0.6687
  353SOL     OW 1057   1.017   0.963   2.363 -0.1592  0.1302 -0.3287
  353SOL    HW1 1058   0.946   0.955   2.433 -1.9638 -0.0988 -0.6673
  353SOL    HW2 1059   1.028   0.870   2.323 -2.4291 -0.3104 -0.1554
  354SOL     OW 1060   1.304   1.796   0.681 -0.2362 -0.1283  0.1443
  354SOL    HW1 1061   1.344   1.841   0.601  2.6733  0.7708 -2.0757
  354SOL    HW2 1062   1.211   1.832   0.694  1.3483 -0.5402 -3.2723
  355SOL     OW 1063   1.874   0.290   0.827 -0.1205  0.0817 -0.4434
  355SOL    HW1 1064   1.839   0.251   0.917  1.3685  1.1696  2.6990
  355SOL    HW2 1065   1.907   0.228   0.753 -0.6286  0.0109 -0.1586
  356SOL     OW 1066   0.048   1.277   2.982 -0.4337 -0.2085  0.0177
  356SOL    HW1 1067   0.124   1.211   3.000 -1.6572  0.0901  2.3179
  356SOL    HW2 1068   3.060   1.230   2.951 -0.1384 -0.1756 -0.7480
  357SOL     OW 1069   0.256   2.861   1.867 -0.0496  0.2261  0.1455
  357SOL    HW1 1070   0.329   2.933   1.874  0.5293  0.9830  0.3143
  357SOL    HW2 1071   0.189   2.883   1.938  0.1262  0.8744  1.7422
  358SOL     OW 1072   0.597   1.176   2.802 -0.3559  0.0007 -0.9618
  358SOL    HW1 1073   0.522   1.110   2.795 -0.7282  0.9853  2.1708
  358SOL    HW2 1074   0.579   1.247   2.873  1.1404  3.2400 -0.5590
  359SOL     OW 1075   2.806   2.549   2.428 -0.0941  0.3037 -0.1415
  359SOL    HW1 1076   2.795   2.592   2.337  2.8353 -2.4618  0.4738
  359SOL    HW2 1077   2.864   2.610   2.489  2.7353 -1.9900 -0.5378
  360SOL     OW 1078   1.628   1.175   1.078 -0.5881 -0.0796 -0.2369
  360SOL    HW1 1079   1.549   1.168   1.013 -3.4277 -1.2123 -1.8018
  360SOL    HW2 1080   1.599   1.231   1.155 -0.0720  0.0569 -0.7220
  361SOL     OW 1081   1.919   2.186   1.367  0.0130 -0.3344 -0.1079
  361SOL    HW1 1082   1.836   2.165   1.306 -0.0899  1.0779  0.7292
  361SOL    HW2 1083   2.008   2.163   1.323 -2.6033  0.3223 -1.2708
  362SOL     OW 1084   1.515   1.359   0.773 -0.0268 -0.1556 -0.2705
  362SOL    HW1 1085   1.616   1.372   0.761 -1.5364 -2.2484 -1.2684
  362SOL    HW2 1086   1.463   1.443   0.743 -0.4013  1.8484 -0.7348
  363SOL     OW 1087   2.347   2.270   0.503 -0.5503 -0.5692  0.5895
  363SOL    HW1 1088   2.448   2.257   0.480 -0.6001 -2.4948 -2.5329
  363SOL    HW2 1089   2.329   2.359   0.549 -1.7187  0.0001  0.3305
  364SOL     OW 1090   2.775   0.212   1.289 -0.0344 -0.8615 -0.1441
  364SOL    HW1 1091   2.734   0.234   1.379 -0.7283  0.3649 -0.2092
  364SOL    HW2 1092   2.874   0.202   1.302  1.6712 -0.4065  1.4943
  365SOL     OW 1093   0.600   2.818   0.862  0.4794  0.0337  0.4512
  365SOL    HW1 1094   0.574   2.896   0.915  1.9598  0.0786  0.0576
  365SOL    HW2 1095   0.614   2.745   0.928 -0.3578  1.1276 -0.2900
  366SOL     OW 1096   0.536   1.502   0.488  0.0700 -0.1193  0.6203
  366SOL    HW1 1097   0.516   1.546   0.401  2.7225 -1.2669  1.4467
  366SOL    HW2 1098   0.515   1.567   0.564  1.5413  0.6354 -1.3690
  367SOL     OW 1099   2.649   2.466   2.825 -0.1816 -0.0552  0.5868
  367SOL    HW1 1100   2.554   2.475   2.851  0.3713  0.7271 -0.5467
  367SOL    HW2 1101   2.664   2.390   2.752  0.6439 -1.8108 -4.7092
  368SOL     OW 1102   2.449   1.864   0.789 -0.3255 -0.3735 -0.3628
  368SOL    HW1 1103   2.366   1.853   0.849 -0.8769 -0.0746 -1.5891
  368SOL    HW2 1104   2.530   1.803   0.814  0.0382 -0.9214 -0.9434
  369SOL     OW 1105   0.886   1.103   0.557  0.7382 -0.3593 -0.2531
  369SOL    HW1 1106   0.860   1.198   0.524 -0.1692 -1.2446 -0.2130
  369SOL    HW2 1107   0.870   1.096   0.658 -0.9307  0.9631  0.2879
  370SOL     OW 1108   0.139   2.864   1.006  0.0037 -0.2009 -0.0177
  370SOL    HW1 1109   0.208   2.893   0.938 -2.2176 -0.4335  1.4118
  370SOL    HW2 1110   0.183   2.838   1.094 -0.1495  1.2181  0.3759
  371SOL     OW 1111   2.840   1.259   2.699 -0.2831 -0.0404  0.1332
  371SOL    HW1 1112   2.826   1.324   2.617  0.8636  3.4396  1.0185
  371SOL    HW2 1113   2.799   1.169   2.676  2.8317  1.3109 -1.4655
  372SOL     OW 1114   0.605   0.551   2.212 -0.3864 -0.6049  0.2303
  372SOL    HW1 1115   0.646   0.514   2.123  2.3701 -0.9274 -1.2623
  372SOL    HW2 1116   0.596   0.477   2.274 -1.1442  2.2603 -1.1667
  373SOL     OW 1117   0.708   0.397   3.065 -0.1455 -0.4156  0.4285
  373SOL    HW1 1118   0.798   0.435   3.044 -2.2561 -0.1729 -2.2232
  373SOL    HW2 1119   0.707   0.355   0.062 -0.7832  2.1988  0.8805
  374SOL     OW 1120   1.136   2.240   0.083 -0.1109 -0.1399  0.0754
  374SOL    HW1 1121   1.157   2.277   3.090  1.7848 -2.1006 -0.9455
  374SOL    HW2 1122   1.118   2.139   0.068 -1.6708  0.9113 -0.2206
  375SOL     OW 1123   0.762   2.924   1.210 -0.5778 -0.4111  0.2017
  375SOL    HW1 1124   0.790   2.982   1.131 -1.2789  0.8814 -1.4707
  375SOL    HW2 1125   0.659   2.913   1.205  0.8265  1.0403 -1.5677
  376SOL     OW 1126   0.183   2.268   2.031  0.2606 -0.0526 -0.1566
  376SOL    HW1 1127   0.202   2.365   2.057  0.7778 -1.5318  0.8815
  376SOL    HW2 1128   0.244   2.209   2.083 -0.0212  3.8181  2.2373
  377SOL     OW 1129   2.143   2.166   2.979  0.2556  0.4532 -0.7587
  377SOL    HW1 1130   2.044   2.133   2.974  3.2003  1.1934  0.9493
  377SOL    HW2 1131   2.167   2.236   2.909 -1.8164 -1.0246  0.6983
  378SOL     OW 1132   2.128   0.405   0.611 -0.9432  0.6831  0.4769
  378SOL    HW1 1133   2.099   0.483   0.671 -0.1681  3.7932 -0.0166
  378SOL    HW2 1134   2.215   0.379   0.657 -0.5259  0.5157  0.7720
  379SOL     OW 1135   1.157   0.667   0.837 -0.2364 -0.1441 -0.3782
  379SOL    HW1 1136   1.132   0.701   0.741  1.3419 -2.0338 -1.4111
  379SOL    HW2 1137   1.230   0.596   0.830  1.6236 -1.6410  0.6262
  380SOL     OW 1138   2.799   2.428   1.916 -0.1984 -0.0910  0.0972
  380SOL    HW1 1139   2.873   2.360   1.941 -0.0257 -1.6557  1.6488
  380SOL    HW2 1140   2.844   2.495   1.853 -1.7149 -0.8412  1.6926
  381SOL     OW 1141   2.848   1.440   1.881  0.3506 -0.3601 -0.7222
  381SOL    HW1 1142   2.886   1.523   1.834 -0.2270  1.1529 -0.7018
  381SOL    HW2 1143   2.766   1.455   1.947 -4.4095 -2.4603  1.4184
  382SOL     OW 1144   0.006   2.202   2.840  0.5542  0.0380 -0.4703
  382SOL    HW1 1145   3.078   2.264   2.762  0.4741  0.5413  0.8563
  382SOL    HW2 1146   3.043   2.235   2.917 -1.9757  0.8229  0.0694
  383SOL     OW 1147   1.281   0.673   2.447 -0.3386  0.0691 -0.2361
  383SOL    HW1 1148   1.245   0.765   2.417 -0.2363 -1.4098  0.1141
  383SOL    HW2 1149   1.207   0.619   2.485  0.1518  1.0171 -0.3597
  384SOL     OW 1150   1.276   2.068   2.231  0.2421 -0.0592 -0.6344
  384SOL    HW1 1151   1.349   2.035   2.294 -1.5340  1.1285 -1.4182
  384SOL    HW2 1152   1.251   1.988   2.170  0.4292 -2.5340 -0.8447
  385SOL     OW 1153   2.443   2.662   0.032 -0.3893  0.2307 -0.1140
  385SOL    HW1 1154   2.435   2.562   0.007 -0.6822  0.1013 -2.2397
  385SOL    HW2 1155   2.519   2.670   0.101 -0.1712 -0.9393 -2.0797
  386SOL     OW 1156   1.468   1.172   0.551  0.1799  0.0557  0.2353
  386SOL    HW1 1157   1.500   1.238   0.626  1.5527  2.7981 -0.0703
  386SOL    HW2 1158   1.495   1.077   0.573  2.6948  0.3773 -1.4148
  387SOL     OW 1159   0.046   1.735   1.568  0.0777  0.4209 -0.1394
  387SOL    HW1 1160   0.103   1.673   1.512  0.6972 -2.8701  1.5581
  387SOL    HW2 1161   3.056   1.759   1.515 -2.3925 -2.2799  0.4953
  388SOL     OW 1162   0.603   1.159   1.473 -0.5430 -0.2320 -0.0430
  388SOL    HW1 1163   0.666   1.231   1.434  1.9439 -0.0256  2.5217
  388SOL    HW2 1164   0.655   1.071   1.497 -0.3888  1.1457  4.3498
  389SOL     OW 1165   2.078   1.009   2.536 -0.0441 -0.1385 -0.5786
  389SOL    HW1 1166   2.095   0.918   2.581 -0.7100  0.8603  0.3795
  389SOL    HW2 1167   1.982   1.054   2.543 -3.3964  3.3531  0.0934
  390SOL     OW 1168   0.981   1.860   0.244  0.0739 -0.1059  0.3629
  390SOL    HW1 1169   0.889   1.894   0.210 -1.5444  1.1153 -0.2794
  390SOL    HW2 1170   0.980   1.766   0.285 -2.6572  1.1274  2.5178
  391SOL     OW 1171   1.095   1.937   0.799  0.4628  0.7848  0.0272
  391SOL    HW1 1172   1.019   1.879   0.760 -0.5512 -0.2969  0.1522
  391SOL    HW2 1173   1.119   1.904   0.897  0.6822 -3.2128  0.5835
  392SOL     OW 1174   2.824   2.644   2.182 -0.1631 -0.1571  0.2995
  392SOL    HW1 1175   2.758   2.628   2.107 -0.3894 -1.7093 -1.2918
  392SOL    HW2 1176   2.886   2.560   2.195  1.5922 -3.0509  0.0068
  393SOL     OW 1177   1.434   2.248   2.935  0.2517 -0.1947  0.2455
  393SOL    HW1 1178   1.430   2.182   3.015 -1.9667 -3.1010  1.8582
  393SOL    HW2 1179   1.533   2.276   2.920  3.4442  1.0722 -0.4007
  394SOL     OW 1180   0.317   3.037   2.346  0.0164  0.2414 -0.0922
  394SOL    HW1 1181   0.328   3.075   2.252 -1.8997 -2.2260  1.3817
  394SOL    HW2 1182   0.356   2.943   2.351  0.1277  0.2128 -0.5203
  395SOL     OW 1183   0.006   1.367   1.144  0.8671 -0.0506 -0.3286
  395SOL    HW1 1184   0.010   1.454   1.196  1.0357 -1.1097 -0.4549
  395SOL    HW2 1185   0.099   1.353   1.104 -1.0944 -2.1275 -1.4146
  396SOL     OW 1186   2.176   1.494   2.837 -0.6899  0.0285 -0.2151
  396SOL    HW1 1187   2.140   1.413   2.884  0.9849  2.9477  1.2048
  396SOL    HW2 1188   2.253   1.522   2.894 -0.1632  0.9633  1.5264
  397SOL     OW 1189   0.437   0.772   3.032 -0.6046  0.0677  0.2202
  397SOL    HW1 1190   0.460   0.806   2.940 -0.6634 -0.6859  1.4456
  397SOL    HW2 1191   0.373   0.835   3.082  0.7214 -0.7124 -0.5652
  398SOL     OW 1192   1.009   2.584   0.388 -0.0963  0.3062 -0.2216
  398SOL    HW1 1193   1.105   2.600   0.408  2.2339  3.6603 -2.6960
  398SOL    HW2 1194   0.953   2.651   0.438 -0.6138  0.4511 -3.9228
  399SOL     OW 1195   1.947   2.716   2.207 -0.4939 -0.0597 -0.3009
  399SOL    HW1 1196   1.989   2.709   2.299 -1.7385  0.0761 -0.6858
  399SOL    HW2 1197   1.963   2.629   2.154  0.0884 -3.1468 -2.1113
  400SOL     OW 1198   0.171   1.162   1.880  0.1948  0.4356  0.3320
  400SOL    HW1 1199   0.123   1.252   1.908 -1.3282  1.5249  0.3731
  400SOL    HW2 1200   0.138   1.134   1.787 -0.0863  0.2800 -1.6179
  401SOL     OW 1201   0.628   0.770   0.816 -0.2274 -0.1390 -0.0560
  401SOL    HW1 1202   0.582   0.684   0.843  0.3441 -1.1825 -0.6557
  401SOL    HW2 1203   0.712   0.771   0.873  1.9152  0.0537 -0.1658
  402SOL     OW 1204   0.815   3.068   2.628  0.1904 -0.4185  0.1329
  402SOL    HW1 1205   0.764   0.049   2.665 -0.7390  1.1813 -1.3867
  402SOL    HW2 1206   0.809   2.990   2.683 -0.5381 -0.2778 -0.8910
  403SOL     OW 1207   2.628   1.991   1.758 -0.4011  0.1427  0.4401
  403SOL    HW1 1208   2.654   2.014   1.853 -0.3838 -1.4015  1.1687
  403SOL    HW2 1209   2.666   1.897   1.731  1.3918  0.0769 -0.4663
  404SOL     OW 1210   2.635   2.305   1.602  0.6887  0.0976  0.0288
  404SOL    HW1 1211   2.719   2.363   1.591  2.0222  2.0557 -0.5037
  404SOL    HW2 1212   2.644   2.216   1.550 -0.3355 -0.1073 -1.8706
  405SOL     OW 1213   1.756   0.242   2.674 -0.3368  0.2179  0.6238
  405SOL    HW1 1214   1.734   0.204   2.582 -0.5087  2.0997  0.1281
  405SOL    HW2 1215   1.702   0.322   2.706  3.8847  1.6207 -0.1726
  406SOL     OW 1216   1.143   1.968   0.054 -0.2270 -0.0785  0.2829
  406SOL    HW1 1217   1.234   1.932   0.025  0.4317 -1.1377  0.4991
  406SOL    HW2 1218   1.107   1.895   0.114 -1.0362  0.5385  0.8319
  407SOL     OW 1219   1.566   1.504   0.475  0.2802  0.2499 -0.0352
  407SOL    HW1 1220   1.475   1.516   0.519 -0.2889 -0.9996 -2.1069
  407SOL    HW2 1221   1.635   1.495   0.547 -0.5857  0.5118 -0.0764
  408SOL     OW 1222   0.037   0.520   1.570 -0.2186  0.0444 -0.1370
  408SOL    HW1 1223   0.078   0.605   1.538  1.3737 -2.0998  0.4675
  408SOL    HW2 1224   0.059   0.447   1.499 -1.0396  0.2010  0.6460
  409SOL     OW 1225   2.576   1.387   3.001  0.2754 -0.3263  0.3884
  409SOL    HW1 1226   2.550   1.316   3.068  2.6265  1.7468 -0.8919
  409SOL    HW2 1227   2.503   1.456   2.990  1.0903  0.0411  0.3569
  410SOL     OW 1228   2.561   2.411   0.727 -0.7323 -0.5999  0.7152
  410SOL    HW1 1229   2.638   2.432   0.792 -0.5735  1.3925  0.3576
  410SOL    HW2 1230   2.533   2.314   0.738 -0.4184 -1.1061 -1.6105
  411SOL     OW 1231   0.404   0.073   0.249 -0.5454 -0.4386  0.2565
  411SOL    HW1 1232   0.339   0.155   0.265  2.4499  1.2145  0.9725
  411SOL    HW2 1233   0.494   0.114   0.214  0.2713  2.9637  0.9659
  412SOL     OW 1234   1.642   2.993   0.472  0.7211  0.2797 -0.0591
  412SOL    HW1 1235   1.599   2.903   0.447  2.2891 -0.3550  1.8579
  412SOL    HW2 1236   1.732   2.978   0.521  1.2964 -1.7229  1.3288
  413SOL     OW 1237   1.743   0.606   2.172 -0.3533 -0.1323 -0.1560
  413SOL    HW1 1238   1.807   0.649   2.104  0.7505  1.0381  0.6796
  413SOL    HW2 1239   1.696   0.520   2.138 -0.5775 -1.1890 -4.7569
  414SOL     OW 1240   0.115   0.666   0.626 -0.0072  0.3458 -0.3285
  414SOL    HW1 1241   0.121   0.752   0.569 -0.4684  0.2857  2.4520
  414SOL    HW2 1242   0.202   0.636   0.675  1.1093  2.6293  3.6720
  415SOL     OW 1243   2.884   0.933   0.469 -0.1032 -0.0882 -0.1843
  415SOL    HW1 1244   2.820   0.954   0.390  1.0105 -1.4071  0.5572
  415SOL    HW2 1245   2.895   1.019   0.524 -1.9056  2.0184  2.0341
  416SOL     OW 1246   2.961   0.322   2.837 -0.3830  0.0959 -0.0770
  416SOL    HW1 1247   2.977   0.261   2.755 -2.1210 -0.3447  0.4712
  416SOL    HW2 1248   3.003   0.415   2.812 -1.5330  1.1288 -0.0280
  417SOL     OW 1249   2.360   0.273   0.734 -0.4358  0.6565 -0.0300
  417SOL    HW1 1250   2.370   0.300   0.827 -1.6877  2.3336 -5.5929
  417SOL    HW2 1251   2.443   0.302   0.678  1.5674  0.6357 -1.7948
  418SOL     OW 1252   0.664   3.083   2.968  0.4105 -0.0047 -0.0562
  418SOL    HW1 1253   0.657   0.016   3.067 -0.1659  1.4798 -0.3317
  418SOL    HW2 1254   0.572   3.035   2.943 -2.8155  0.1734 -1.5740
  419SOL     OW 1255   0.157   0.507   1.048  0.0792  0.6127 -0.4317
  419SOL    HW1 1256   0.225   0.582   1.039  2.0523 -1.2350 -0.1368
  419SOL    HW2 1257   0.195   0.429   1.104 -1.8208  1.2882  0.0936
  420SOL     OW 1258   2.956   1.169   1.293 -0.0772  0.5263 -0.1391
  420SOL    HW1 1259   3.008   1.217   1.217 -1.2569 -1.8868 -0.8506
  420SOL    HW2 1260   2.901   1.097   1.255 -0.5656  1.1746  1.6602
  421SOL     OW 1261   0.972   1.927   2.934 -0.1234 -0.0724 -0.3301
  421SOL    HW1 1262   1.039   1.936   3.012 -1.5803  0.1439  1.3212
  421SOL    HW2 1263   1.023   1.922   2.848  0.5579 -0.7498  0.4858
  422SOL     OW 1264   2.342   0.332   2.227  0.4345 -0.4188  0.1940
  422SOL    HW1 1265   2.402   0.253   2.209 -0.2611  1.2471  0.3834
  422SOL    HW2 1266   2.278   0.362   2.152  1.0404  2.1534  0.0815
  423SOL     OW 1267   1.918   1.694   0.207 -0.1293  0.6299  0.0034
  423SOL    HW1 1268   1.945   1.711   0.112 -0.1718 -0.5525  1.0755
  423SOL    HW2 1269   1.818   1.684   0.217  1.7478  0.0940  2.4617
  424SOL     OW 1270   1.124   1.061   2.041  0.0186 -0.0753 -0.1460
  424SOL    HW1 1271   1.080   1.123   2.107 -1.3468 -0.0508 -0.6091
  424SOL    HW2 1272   1.216   1.039   2.076 -1.0124  1.3415 -2.2992
  425SOL     OW 1273   0.155   2.534   2.088  0.2890  0.1371  0.0976
  425SOL    HW1 1274   0.205   2.599   2.158  0.7807 -1.2216 -1.7400
  425SOL    HW2 1275   0.175   2.565   1.989  0.8990  2.7289 -0.7425
  426SOL     OW 1276   2.261   2.488   0.595  0.4578 -0.1758 -0.6714
  426SOL    HW1 1277   2.312   2.569   0.627  1.3370  1.0655  2.1995
  426SOL    HW2 1278   2.184   2.465   0.656  0.1904  1.7883 -1.9097
  427SOL     OW 1279   0.781   0.709   2.917 -0.6610 -0.8026 -0.2214
  427SOL    HW1 1280   0.774   0.798   2.967 -1.9477 -0.0695  0.3647
  427SOL    HW2 1281   0.822   0.643   2.980 -0.8841  1.3395 -0.2818
  428SOL     OW 1282   2.767   1.495   2.827 -0.1527 -0.0637 -0.6419
  428SOL    HW1 1283   2.697   1.466   2.896 -1.4564  0.0552  0.2944
  428SOL    HW2 1284   2.843   1.425   2.806  3.1639 -1.5469  4.0741
  429SOL     OW 1285   2.503   0.413   0.374 -0.1100 -0.4477  0.0104
  429SOL    HW1 1286   2.519   0.315   0.400 -0.7502 -3.2879 -2.0180
  429SOL    HW2 1287   2.468   0.481   0.446  0.2378  1.5917  1.0941
  430SOL     OW 1288   1.463   2.067   2.451 -0.5102  0.2799 -0.5582
  430SOL    HW1 1289   1.560   2.074   2.436 -0.5800 -0.9967 -0.2106
  430SOL    HW2 1290   1.428   2.122   2.534 -1.0915  1.5736  2.5503
  431SOL     OW 1291   0.224   1.977   1.438  0.6189  0.4936 -0.6192
  431SOL    HW1 1292   0.195   2.056   1.376 -0.7341  3.3582  1.0735
  431SOL    HW2 1293   0.143   1.913   1.441 -1.4821  2.9341  0.1912
  432SOL     OW 1294   1.631   2.623   1.923 -0.1022  0.8060  0.0808
  432SOL    HW1 1295   1.566   2.586   1.995 -1.6127 -0.3748 -1.5198
  432SOL    HW2 1296   1.589   2.600   1.834  0.2654  0.0523 -0.0960
  433SOL     OW 1297   1.043   2.075   0.410 -0.1550 -0.2125 -0.0132
  433SOL    HW1 1298   1.042   2.024   0.322 -0.8756 -2.7528 -1.8378
  433SOL    HW2 1299   0.944   2.091   0.429 -1.3616 -0.8522  3.4532
  434SOL     OW 1300   0.364   2.264   2.621  0.2109  0.0719 -0.3961
  434SOL    HW1 1301   0.456   2.276   2.663  0.5522  0.5100  0.5834
  434SOL    HW2 1302   0.299   2.258   2.699  1.9940  3.0279 -0.9373
  435SOL     OW 1303   0.070   0.899   0.505  0.2866 -0.1367 -0.8801
  435SOL    HW1 1304   3.063   0.916   0.485 -1.9918  0.1430  0.9074
  435SOL    HW2 1305   0.129   0.935   0.429  0.7929  2.2903  1.4155
  436SOL     OW 1306   0.493   2.790   1.649 -0.0018 -1.0750  0.3856
  436SOL    HW1 1307   0.457   2.761   1.741 -1.3421  0.9846  0.8638
  436SOL    HW2 1308   0.591   2.811   1.645 -0.9467  0.1915 -1.0957
  437SOL     OW 1309   0.734   0.216   0.828  0.6337 -0.3736  0.1377
  437SOL    HW1 1310   0.801   0.211   0.750 -1.3432  0.2410  0.1896
  437SOL    HW2 1311   0.647   0.253   0.792 -0.6474 -2.2469 -0.1824
  438SOL     OW 1312   0.500   2.096   0.671  0.0481  0.1704 -0.2417
  438SOL    HW1 1313   0.548   2.183   0.662 -2.1140 -1.2807 -0.4199
  438SOL    HW2 1314   0.456   2.097   0.762 -0.6250  0.5952  1.4993
  439SOL     OW 1315   0.791   2.552   1.606  0.7019 -0.0203  0.5603
  439SOL    HW1 1316   0.705   2.514   1.641  1.6574  3.7634 -0.4557
  439SOL    HW2 1317   0.791   2.652   1.617  1.8523 -3.6768  0.5162
  440SOL     OW 1318   1.950   2.914   2.000  0.7126  0.4128  0.5663
  440SOL    HW1 1319   1.902   2.876   1.915  0.3993  2.1455  0.9409
  440SOL    HW2 1320   1.941   2.850   2.079  0.7171  1.0287 -2.6390
  441SOL     OW 1321   2.904   0.359   1.665 -0.3596  0.2212 -0.0434
  441SOL    HW1 1322   2.923   0.318   1.755  1.6513 -0.3527 -1.7245
  441SOL    HW2 1323   2.976   0.428   1.646 -0.8523  1.2602 -0.4858
  442SOL     OW 1324   1.873   2.355   0.959 -0.3667  0.6502  0.2594
  442SOL    HW1 1325   1.789   2.355   0.902 -0.0790  1.1393  2.2527
  442SOL    HW2 1326   1.895   2.262   0.990 -2.5945  2.7369  1.7247
  443SOL     OW 1327   2.829   0.705   2.055  0.1221  0.0933 -0.0945
  443SOL    HW1 1328   2.827   0.603   2.059  0.1823 -1.5962 -0.1708
  443SOL    HW2 1329   2.736   0.748   2.044 -1.6020  2.2073 -0.4864
  444SOL     OW 1330   2.070   1.120   1.960 -0.1179 -0.1913  0.0135
  444SOL    HW1 1331   2.000   1.059   2.003  0.8566  1.9468 -3.0240
  444SOL    HW2 1332   2.048   1.146   1.865  0.0781 -0.7972  0.9413
  445SOL     OW 1333   2.893   2.332   1.182 -0.0294  0.1568 -0.7056
  445SOL    HW1 1334   2.912   2.429   1.188  0.1035 -0.9522  0.7376
  445SOL    HW2 1335   2.917   2.289   1.092 -1.1101 -1.9925 -0.8106
  446SOL     OW 1336   2.931   1.724   0.927 -1.1044  0.5396 -0.7192
  446SOL    HW1 1337   2.953   1.780   1.014 -1.1284  2.1497  3.0235
  446SOL    HW2 1338   2.955   1.625   0.948 -0.5884 -1.4709  0.6306
  447SOL     OW 1339   0.540   1.046   0.799 -0.1676 -0.0901  0.2592
  447SOL    HW1 1340   0.551   0.952   0.832  0.3678  2.7866  1.1643
  447SOL    HW2 1341   0.635   1.076   0.777 -1.1780 -0.1250  0.2125
  448SOL     OW 1342   1.553   1.402   1.896  0.4366  0.0312 -0.5337
  448SOL    HW1 1343   1.463   1.422   1.857  2.1485 -1.1200 -1.6987
  448SOL    HW2 1344   1.549   1.326   1.967  1.3360 -0.0777  2.5957
  449SOL     OW 1345   1.337   1.313   0.067 -0.2031 -0.1855 -0.4800
  449SOL    HW1 1346   1.404   1.314   0.147 -0.5222 -0.8382  3.0855
  449SOL    HW2 1347   1.373   1.237   0.005 -0.2740 -0.5210  2.6437
  450SOL     OW 1348   2.970   2.254   2.005  0.4274 -0.1118 -0.0231
  450SOL    HW1 1349   3.008   2.308   2.084 -0.4812 -3.0960 -1.7753
  450SOL    HW2 1350   3.031   2.254   1.926  0.0413  0.5091  1.9411
  451SOL     OW 1351   2.259   3.024   2.566 -0.1221 -0.1470 -0.2423
  451SOL    HW1 1352   2.228   2.946   2.624  2.1867  1.9093  0.0494
  451SOL    HW2 1353   2.183   3.083   2.529  1.8366  0.3873 -2.3174
  452SOL     OW 1354   1.739   3.004   1.201  0.0465  0.2167 -1.1775
  452SOL    HW1 1355   1.695   3.079   1.250 -2.5330 -0.8804 -0.8940
  452SOL    HW2 1356   1.836   3.020   1.165  0.9982 -0.2239 -0.7112
  453SOL     OW 1357   1.721   0.930   1.155  0.7855  0.1644 -0.8297
  453SOL    HW1 1358   1.808   0.904   1.113  0.0859 -0.0525  1.0928
  453SOL    HW2 1359   1.686   1.020   1.119 -0.7953 -3.7628 -0.3023
  454SOL     OW 1360   0.222   1.252   0.366 -0.2575 -0.2463  0.4590
  454SOL    HW1 1361   0.295   1.266   0.435  1.4167 -3.7640  0.3394
  454SOL    HW2 1362   0.147   1.321   0.367 -1.1489  1.6313  1.7031
  455SOL     OW 1363   2.729   0.041   0.576  0.4028  0.1118  0.0661
  455SOL    HW1 1364   2.810   0.098   0.561 -0.1114 -1.5394  2.2614
  455SOL    HW2 1365   2.750   3.038   0.603 -1.1833 -2.1394  1.0866
  456SOL     OW 1366   2.906   2.614   1.227 -0.5458 -0.1041 -0.3968
  456SOL    HW1 1367   2.965   2.645   1.304  1.5470 -0.6675  0.7861
  456SOL    HW2 1368   2.867   2.692   1.176  1.6938 -0.1952  2.3555
  457SOL     OW 1369   1.249   3.085   0.610  0.4890 -0.0152 -0.0286
  457SOL    HW1 1370   1.281   0.028   0.522 -2.5852  2.6306  1.5351
  457SOL    HW2 1371   1.264   0.054   0.683 -0.4469 -3.9840 -2.4164
  458SOL     OW 1372   2.507   0.138   0.479  0.4311 -0.1976 -0.2085
  458SOL    HW1 1373   2.595   0.116   0.525  4.2006 -0.1547 -0.5977
  458SOL    HW2 1374   2.501   0.082   0.393  2.3192  0.6303 -4.2106
  459SOL     OW 1375   2.154   0.764   2.623  0.0150  0.0630  0.4727
  459SOL    HW1 1376   2.146   0.716   2.531  0.7817 -0.4218 -0.5230
  459SOL    HW2 1377   2.154   0.701   2.703 -1.5152  0.7504  1.5621
  460SOL     OW 1378   2.882   2.945   2.885  0.5032 -0.5064 -0.1063
  460SOL    HW1 1379   2.816   3.026   2.871  0.9658  2.1823 -0.8984
  460SOL    HW2 1380   2.834   2.859   2.906 -0.5380  1.6531 -0.3837
  461SOL     OW 1381   0.900   1.627   0.633 -0.1921 -1.2183  0.0922
  461SOL    HW1 1382   0.892   1.610   0.734 -1.1309  2.3787 -0.3062
  461SOL    HW2 1383   0.830   1.695   0.601  1.1274  0.4450 -0.7766
  462SOL     OW 1384   2.331   2.318   0.993  0.3105 -0.0251 -0.4959
  462SOL    HW1 1385   2.261   2.367   1.052  0.4116  2.2914  1.0997
  462SOL    HW2 1386   2.292   2.247   0.931  0.5625  0.2198 -1.1217
  463SOL     OW 1387   2.397   0.922   0.634  0.8625  0.2228  0.2170
  463SOL    HW1 1388   2.461   0.857   0.588 -0.4577 -0.3237  1.1170
  463SOL    HW2 1389   2.426   0.951   0.727  0.8225 -1.4026 -0.0684
  464SOL     OW 1390   0.273   2.772   1.222  0.4570  0.2126  0.3320
  464SOL    HW1 1391   0.290   2.678   1.180  1.9250  0.8434  2.4090
  464SOL    HW2 1392   0.263   2.772   1.327 -1.6765  0.2733  3.8235
  465SOL     OW 1393   0.191   1.495   2.893 -0.3255  0.3163 -0.3014
  465SOL    HW1 1394   0.144   1.411   2.931 -1.7375 -0.5449  2.8336
  465SOL    HW2 1395   0.293   1.476   2.900  0.5695 -3.1527 -1.2029
  466SOL     OW 1396   1.732   0.093   2.915 -0.3277  0.1584 -0.4296
  466SOL    HW1 1397   1.742   0.139   2.824 -0.3158  3.0213 -0.4227
  466SOL    HW2 1398   1.676   0.145   2.983  3.2014  1.2423  1.2393
  467SOL     OW 1399   1.084   0.815   1.929  0.4164 -0.2856 -0.1382
  467SOL    HW1 1400   1.155   0.750   1.966  5.1356  0.8869  0.7875
  467SOL    HW2 1401   1.096   0.910   1.970  2.9641  0.2045  1.2947
  468SOL     OW 1402   0.621   0.913   2.387  0.2178  0.4653 -0.2816
  468SOL    HW1 1403   0.666   0.840   2.439 -2.4770  0.7646 -1.3281
  468SOL    HW2 1404   0.518   0.893   2.386 -1.0456  2.1531  0.7438
  469SOL     OW 1405   0.032   2.060   0.024  0.1501 -0.0992  0.2738
  469SOL    HW1 1406   0.009   2.158   0.008 -0.7350 -0.6190  1.3360
  469SOL    HW2 1407   3.054   2.015   0.075  3.5397 -0.0142  1.4106
  470SOL     OW 1408   2.381   1.853   2.702  0.4496 -0.0074  0.3378
  470SOL    HW1 1409   2.391   1.765   2.655  1.2226 -0.0538  0.7132
  470SOL    HW2 1410   2.399   1.843   2.804  0.9950  0.1661  3.4101
  471SOL     OW 1411   2.399   0.977   2.209  0.1173 -0.6867  0.7966
  471SOL    HW1 1412   2.381   0.933   2.294  0.6203  0.0030  0.4328
  471SOL    HW2 1413   2.472   0.932   2.156 -1.8293  0.0150  0.0058
  472SOL     OW 1414   0.379   2.653   0.729  0.0946  0.0930 -0.3622
  472SOL    HW1 1415   0.322   2.688   0.656 -0.0720  0.1408  2.1038
  472SOL    HW2 1416   0.438   2.732   0.761 -0.8955  1.0275 -0.1523
  473SOL     OW 1417   0.600   0.125   2.708 -0.0773  0.4285  0.3918
  473SOL    HW1 1418   0.608   0.063   2.786 -1.2437  1.7629 -2.7569
  473SOL    HW2 1419   0.600   0.221   2.752 -2.3426 -1.2740  0.0774
  474SOL     OW 1420   1.809   0.194   2.380  0.0505  0.8193  0.5248
  474SOL    HW1 1421   1.720   0.241   2.393 -1.3682 -1.1723 -0.5706
  474SOL    HW2 1422   1.807   0.161   2.282 -1.3775 -1.2969  1.1334
  475SOL     OW 1423   1.808   2.629   0.733  0.1074  0.0919  0.5456
  475SOL    HW1 1424   1.799   2.525   0.730 -0.6869 -2.9248  0.2225
  475SOL    HW2 1425   1.797   2.671   0.644 -0.3240  0.9836  3.4712
  476SOL     OW 1426   2.984   0.642   0.983  0.0440 -0.2873 -0.4361
  476SOL    HW1 1427   2.973   0.735   1.027 -1.6299 -0.1675  1.4748
  476SOL    HW2 1428   3.081   0.617   0.976 -3.1078 -0.3518 -0.1313
  477SOL     OW 1429   1.305   2.293   0.792 -0.3559  0.7481  0.1380
  477SOL    HW1 1430   1.373   2.227   0.766  0.5712 -1.9743  2.0181
  477SOL    HW2 1431   1.216   2.256   0.759 -1.5591 -0.7756  0.4293
  478SOL     OW 1432   0.225   2.135   2.414  0.2574 -0.4196  0.2144
  478SOL    HW1 1433   0.271   2.164   2.500 -3.2743  0.3384  0.7122
  478SOL    HW2 1434   0.278   2.146   2.330 -3.4246 -0.0486 -0.1278
  479SOL     OW 1435   2.251   0.578   0.908  0.1898  0.1030  0.1136
  479SOL    HW1 1436   2.148   0.570   0.892 -2.2882  2.4021 -1.4127
  479SOL    HW2 1437   2.291   0.495   0.947 -0.9213  1.0494  1.7513
  480SOL     OW 1438   2.947   2.868   0.254  0.3208 -0.6379  0.5763
  480SOL    HW1 1439   2.949   2.970   0.268 -0.5714 -0.9087  1.0048
  480SOL    HW2 1440   3.037   2.839   0.216  1.9799 -2.7003 -1.3137
  481SOL     OW 1441   2.654   2.508   1.173 -0.2055  0.6935  0.3198
  481SOL    HW1 1442   2.575   2.547   1.232 -1.5400  1.6054  3.2475
  481SOL    HW2 1443   2.742   2.560   1.196  1.9803 -0.4785  0.8174
  482SOL     OW 1444   1.005   2.289   2.666 -0.1304 -0.5237  0.0644
  482SOL    HW1 1445   1.069   2.280   2.742  0.7286 -0.3996  0.0890
  482SOL    HW2 1446   0.972   2.384   2.657  0.1056 -2.9913  0.0861
  483SOL     OW 1447   0.771   1.848   2.714  0.3341  0.0148 -0.4988
  483SOL    HW1 1448   0.757   1.797   2.800 -1.2650  1.6805  2.9870
  483SOL    HW2 1449   0.694   1.915   2.705  1.8445 -0.9577 -0.5249
  484SOL     OW 1450   0.996   0.829   1.444 -0.2633  0.2631  0.3973
  484SOL    HW1 1451   1.007   0.730   1.418 -0.1266 -0.4877 -0.8124
  484SOL    HW2 1452   1.056   0.848   1.525 -4.5005  2.1632 -1.2623
  485SOL     OW 1453   2.345   0.779   0.071  0.5025 -0.1463  0.3686
  485SOL    HW1 1454   2.322   0.705   3.093  1.1649 -2.4288 -2.9903
  485SOL    HW2 1455   2.403   0.852   0.030  2.4685 -3.3622  2.8260
  486SOL     OW 1456   2.025   3.056   1.185  0.1159 -0.4407 -0.2970
  486SOL    HW1 1457   2.087   2.986   1.233  0.3934  0.4411  0.9875
  486SOL    HW2 1458   2.008   0.037   1.250 -3.9499  1.3429  1.3673
  487SOL     OW 1459   0.391   2.088   1.177  0.3050 -0.2656 -0.2761
  487SOL    HW1 1460   0.438   2.033   1.245 -1.6092  3.2103 -3.4894
  487SOL    HW2 1461   0.299   2.117   1.212  0.1509  2.4302 -0.6598
  488SOL     OW 1462   2.758   0.936   0.007  0.1720  0.0493 -0.0280
  488SOL    HW1 1463   2.663   0.949   3.071  1.0317  1.7028  0.2477
  488SOL    HW2 1464   2.788   0.837   0.004  0.9550 -1.6117 -0.3477
  489SOL     OW 1465   1.784   0.181   1.047 -0.2285 -0.2142  0.5323
  489SOL    HW1 1466   1.855   0.176   1.121  2.1003  1.0904 -2.8935
  489SOL    HW2 1467   1.713   0.249   1.069  0.3098 -2.1765 -1.1377
  490SOL     OW 1468   0.851   0.658   0.470  0.3241 -0.2637 -0.1526
  490SOL    HW1 1469   0.794   0.580   0.495  0.8379 -0.2182 -1.0704
  490SOL    HW2 1470   0.806   0.739   0.518 -2.8329  0.0166  0.6511
  491SOL     OW 1471   0.513   2.402   0.675  0.5402 -0.0886 -0.8492
  491SOL    HW1 1472   0.534   2.399   0.579 -0.3107  0.4453  0.8463
  491SOL    HW2 1473   0.471   2.490   0.706  0.6709  1.1662  2.3571
  492SOL     OW 1474   1.452   1.663   2.240 -0.1511  0.1378 -0.2621
  492SOL    HW1 1475   1.376   1.596   2.225  1.1006 -0.6319  0.3269
  492SOL    HW2 1476   1.435   1.719   2.323  2.3159  0.0570 -1.1472
  493SOL     OW 1477   3.060   2.755   0.784  0.6629 -0.4387 -0.6354
  493SOL    HW1 1478   2.959   2.758   0.771 -0.4711 -1.8642 -2.0289
  493SOL    HW2 1479   3.090   2.738   0.881 -0.9199 -2.0448 -0.6433
  494SOL     OW 1480   2.679   1.982   0.105 -0.1355  0.1220  0.3055
  494SOL    HW1 1481   2.607   1.921   0.143  0.1065 -0.4691  0.6498
  494SOL    HW2 1482   2.690   1.977   0.003 -0.3089  1.0373 -0.0919
  495SOL     OW 1483   2.694   1.926   2.934 -0.1539 -0.3252  0.2239
  495SOL    HW1 1484   2.669   1.935   2.834 -2.1975  2.1407  1.4083
  495SOL    HW2 1485   2.755   1.846   2.949  2.4461  1.2637 -1.4848
  496SOL     OW 1486   2.693   3.046   1.451 -0.1626  0.3800  0.0786
  496SOL    HW1 1487   2.627   0.014   1.493  2.9888  1.0858 -0.1751
  496SOL    HW2 1488   2.646   2.997   1.370 -0.8315  0.9393 -1.3226
  497SOL     OW 1489   2.912   1.118   2.954 -0.2260 -0.1123  0.1513
  497SOL    HW1 1490   2.859   1.153   2.878 -0.1260 -1.9160  1.8128
  497SOL    HW2 1491   2.851   1.067   3.020  0.6658  0.7252  1.2857
  498SOL     OW 1492   0.030   1.833   2.161  0.0141  0.3125 -0.1620
  498SOL    HW1 1493   0.040   1.910   2.093  2.6065  0.9663  1.8564
  498SOL    HW2 1494   3.070   1.862   2.241  1.4607  1.8622 -0.1689
  499SOL     OW 1495   0.835   2.146   2.831 -0.8353  0.2786 -0.1534
  499SOL    HW1 1496   0.891   2.061   2.861  2.2428 -0.9090 -1.0147
  499SOL    HW2 1497   0.892   2.194   2.755 -0.0957  3.0693 -0.9046
  500SOL     OW 1498   1.562   0.240   0.008  0.3708 -0.7397 -0.3901
  500SOL    HW1 1499   1.542   0.142   0.025  3.9679 -1.1511 -1.9061
  500SOL    HW2 1500   1.639   0.275   0.069  2.3015 -0.8659 -0.7513
  501SOL     OW 1501   1.466   2.991   1.526 -0.3491 -0.5557  0.1320
  501SOL    HW1 1502   1.431   3.009   1.434  0.6231  1.0413  1.5983
  501SOL    HW2 1503   1.490   3.073   1.583 -0.6291  1.1405  3.7649
  502SOL     OW 1504   2.604   0.870   2.026 -0.4162  0.3675  0.0885
  502SOL    HW1 1505   2.653   0.953   1.986  0.8689  0.0913  0.6481
  502SOL    HW2 1506   2.527   0.840   1.966  0.4215 -0.7714  2.5178
  503SOL     OW 1507   2.238   2.176   2.373 -0.0467 -0.4526 -0.2659
  503SOL    HW1 1508   2.328   2.200   2.417  1.5208 -1.3363  0.9165
  503SOL    HW2 1509   2.214   2.253   2.308 -2.0986 -2.1316  0.3922
  504SOL     OW 1510   1.356   0.672   1.673  0.2078 -0.7727 -0.1321
  504SOL    HW1 1511   1.332   0.598   1.608  0.2760 -0.3607  0.3178
  504SOL    HW2 1512   1.447   0.657   1.713 -2.5669  0.5390  0.8873
  505SOL     OW 1513   0.746   0.624   1.597  1.0067  0.0084 -0.2921
  505SOL    HW1 1514   0.810   0.695   1.617 -2.3053 -2.0346  1.1992
  505SOL    HW2 1515   0.756   0.602   1.494  2.0686  1.2831 -0.9656
  506SOL     OW 1516   0.315   0.415   2.249 -0.0126 -0.0871  0.3319
  506SOL    HW1 1517   0.355   0.384   2.159  0.2866 -0.6991  1.2432
  506SOL    HW2 1518   0.306   0.512   2.258  1.5390  1.7970 -0.4973
  507SOL     OW 1519   0.077   2.824   0.093  0.2327  0.3667 -0.0161
  507SOL    HW1 1520   0.176   2.793   0.113 -0.1134 -0.5686 -0.4714
  507SOL    HW2 1521   0.072   2.912   0.047  1.5160 -2.5085  0.0347
  508SOL     OW 1522   1.383   0.929   1.420 -0.5672  0.0465 -0.3259
  508SOL    HW1 1523   1.309   0.971   1.477  0.1108 -0.8303  1.1773
  508SOL    HW2 1524   1.471   0.983   1.411  0.2264 -1.0394  1.1406
  509SOL     OW 1525   1.362   2.206   1.462 -0.4161 -0.3644  0.1295
  509SOL    HW1 1526   1.415   2.251   1.388 -1.3769  1.6311 -0.1570
  509SOL    HW2 1527   1.412   2.131   1.502 -0.8850  1.5344 -0.8460
  510SOL     OW 1528   2.472   1.407   2.208 -0.2802 -0.7861  0.4183
  510SOL    HW1 1529   2.461   1.404   2.309 -0.8319  2.8876  1.1709
  510SOL    HW2 1530   2.398   1.352   2.172  1.6217  0.8944  1.5421
  511SOL     OW 1531   0.665   1.596   1.256 -0.3541 -0.5353 -0.4433
  511SOL    HW1 1532   0.597   1.539   1.199  0.6259 -0.0316 -0.8460
  511SOL    HW2 1533   0.648   1.565   1.354 -0.4289 -1.3841 -0.3717
  512SOL     OW 1534   2.724   2.037   0.560 -0.3318  0.1136  0.0638
  512SOL    HW1 1535   2.683   2.116   0.507 -1.4693 -2.0712  0.7602
  512SOL    HW2 1536   2.665   1.950   0.558 -2.6668 -0.2353  0.4423
  513SOL     OW 1537   0.055   1.761   2.852 -0.0173  0.4280 -0.1202
  513SOL    HW1 1538   0.113   1.811   2.923  0.7092 -0.6727  1.2388
  513SOL    HW2 1539   0.101   1.673   2.828 -0.5654 -0.9048 -1.4898
  514SOL     OW 1540   3.051   2.421   2.204  0.6900 -0.2442 -0.0110
  514SOL    HW1 1541   3.064   2.413   2.307 -0.7029  1.5247  0.1891
  514SOL    HW2 1542   0.033   2.471   2.159 -0.9210 -2.5048 -0.2255
  515SOL     OW 1543   2.198   1.474   1.261 -0.2473  0.4538 -0.8089
  515SOL    HW1 1544   2.157   1.386   1.291 -2.2004  0.2017 -0.2410
  515SOL    HW2 1545   2.279   1.497   1.317  0.9312 -0.9376  0.1999
  516SOL     OW 1546   2.145   2.303   0.128 -0.1939 -0.4462  0.0252
  516SOL    HW1 1547   2.185   2.241   0.194 -0.3613 -0.6269 -0.5423
  516SOL    HW2 1548   2.121   2.260   0.040 -3.1868 -0.9048  1.8584
  517SOL     OW 1549   1.240   1.022   2.996  0.7716 -0.3710 -0.7524
  517SOL    HW1 1550   1.330   1.069   2.975 -1.6657 -0.4456 -2.2284
  517SOL    HW2 1551   1.162   1.060   2.939 -0.3696  0.5558 -2.0183
  518SOL     OW 1552   0.078   2.932   2.074 -0.6188  0.2625 -0.2174
  518SOL    HW1 1553   0.115   3.020   2.118  0.8663  1.7584  4.7389
  518SOL    HW2 1554   3.077   2.916   2.089 -1.9474 -1.6018 -1.7188
  519SOL     OW 1555   1.614   1.410   2.379 -0.5300 -0.0368 -0.2585
  519SOL    HW1 1556   1.639   1.453   2.467  3.6507  2.6540 -3.0019
  519SOL    HW2 1557   1.512   1.392   2.377 -0.5599 -1.0208  2.3928
  520SOL     OW 1558   2.691   2.850   2.454 -0.0476  0.2579 -0.2157
  520SOL    HW1 1559   2.623   2.807   2.386  1.6676 -0.1146 -1.5264
  520SOL    HW2 1560   2.776   2.794   2.456  0.5167 -0.1388  2.0734
  521SOL     OW 1561   0.222   1.776   1.875  0.0292  0.0208 -0.2976
  521SOL    HW1 1562   0.250   1.721   1.957  0.0616  0.3695  1.3095
  521SOL    HW2 1563   0.161   1.857   1.904 -0.7333  1.9367 -0.4555
  522SOL     OW 1564   1.006   2.590   1.778 -0.1748 -0.2834 -0.1483
  522SOL    HW1 1565   0.938   2.562   1.708 -0.3366 -0.1196 -1.9885
  522SOL    HW2 1566   1.023   2.689   1.773 -0.2414 -2.5462 -0.3926
  523SOL     OW 1567   0.141   2.413   1.381  0.4822  0.2037  0.3108
  523SOL    HW1 1568   0.202   2.437   1.453 -0.4496  0.7516  0.2811
  523SOL    HW2 1569   0.044   2.403   1.402 -1.1782 -1.3457 -1.6059
  524SOL     OW 1570   1.349   2.578   0.766 -0.8423 -1.4112 -0.0297
  524SOL    HW1 1571   1.437   2.618   0.797  0.1631  0.7699 -0.0435
  524SOL    HW2 1572   1.352   2.476   0.770  1.0434  2.8313 -0.8523
  525SOL     OW 1573   2.560   1.255   0.903  0.3863  0.0768 -0.3471
  525SOL    HW1 1574   2.618   1.298   0.973  0.2099 -1.8501 -1.7459
  525SOL    HW2 1575   2.477   1.314   0.880  0.8522  0.8590  0.5767
  526SOL     OW 1576   0.951   2.378   0.709  0.3025  0.2564  0.1067
  526SOL    HW1 1577   0.905   2.404   0.620  1.2738  1.0531 -0.7380
  526SOL    HW2 1578   1.023   2.308   0.699  2.5111  0.9161  1.4294
  527SOL     OW 1579   2.519   2.141   0.809 -0.0842  0.1878  0.7067
  527SOL    HW1 1580   2.588   2.139   0.881  1.5685 -2.5303 -1.3252
  527SOL    HW2 1581   2.502   2.044   0.780 -1.5557 -2.3836 -1.2467
  528SOL     OW 1582   1.867   0.502   3.083 -0.6024 -0.4002  0.4733
  528SOL    HW1 1583   1.883   0.459   2.992  0.6443 -1.6116  1.1842
  528SOL    HW2 1584   1.924   0.459   0.058  1.5427  0.1381 -3.4756
  529SOL     OW 1585   1.316   1.246   2.217  0.7461 -0.1526  0.1145
  529SOL    HW1 1586   1.264   1.196   2.286  1.4795 -1.9129  1.2044
  529SOL    HW2 1587   1.264   1.335   2.195 -1.2058 -0.2025  0.5036
  530SOL     OW 1588   2.570   1.052   2.455  0.3021  0.1916  0.2227
  530SOL    HW1 1589   2.628   1.061   2.375 -3.6513  0.0910 -1.3266
  530SOL    HW2 1590   2.495   0.983   2.441 -0.4333  0.9825 -0.6965
  531SOL     OW 1591   0.993   0.675   0.185  0.4472 -0.3407  0.0771
  531SOL    HW1 1592   1.061   0.749   0.178 -3.3826  3.5777  0.4501
  531SOL    HW2 1593   0.937   0.688   0.272 -1.0498 -0.7240  1.4995
  532SOL     OW 1594   1.641   0.902   0.648  0.4532 -0.2572  0.1264
  532SOL    HW1 1595   1.585   0.853   0.715 -1.0245 -3.6521 -1.7653
  532SOL    HW2 1596   1.644   0.858   0.557 -0.4472 -1.0101  0.7217
  533SOL     OW 1597   0.369   0.665   2.161  0.3512  0.4087 -0.4616
  533SOL    HW1 1598   0.343   0.623   2.072  2.7113  2.4252 -2.5205
  533SOL    HW2 1599   0.463   0.643   2.185 -1.7622 -0.4270  0.7013
  534SOL     OW 1600   1.616   0.403   2.399 -0.3569 -0.4356  0.5649
  534SOL    HW1 1601   1.552   0.472   2.436  0.0908  3.3330  0.6129
  534SOL    HW2 1602   1.621   0.417   2.300  0.3430 -1.4954 -2.2892
  535SOL     OW 1603   0.682   0.178   0.470  0.5956 -0.4285  0.5099
  535SOL    HW1 1604   0.764   0.124   0.480 -1.9881  0.3449  1.8303
  535SOL    HW2 1605   0.597   0.123   0.478  1.9666  2.2971 -2.6847
  536SOL     OW 1606   1.023   0.376   0.886  0.1216  0.0292 -0.3233
  536SOL    HW1 1607   1.122   0.398   0.857 -2.1153 -0.6922  0.1983
  536SOL    HW2 1608   0.978   0.342   0.801 -0.2736  0.8224  0.5854
  537SOL     OW 1609   1.420   3.014   1.906  0.1948  0.0404 -0.5289
  537SOL    HW1 1610   1.445   2.965   1.994  0.9310 -2.3217  0.9897
  537SOL    HW2 1611   1.423   2.951   1.826 -1.8191  0.3068 -1.1114
  538SOL     OW 1612   0.338   2.769   3.060  0.0120 -0.4603 -0.2246
  538SOL    HW1 1613   0.353   2.688   3.005 -3.8877  0.1071  0.0954
  538SOL    HW2 1614   0.356   2.851   3.006  1.6183 -1.0838  1.9816
  539SOL     OW 1615   2.957   1.673   1.796  0.2692 -0.4026 -0.1148
  539SOL    HW1 1616   3.039   1.689   1.741  0.9419  0.0318 -0.5288
  539SOL    HW2 1617   2.942   1.751   1.861  0.5434 -0.1031 -0.8728
  540SOL     OW 1618   2.557   2.443   2.195  0.0978  0.6350  0.5725
  540SOL    HW1 1619   2.542   2.453   2.092 -0.5056  0.8303 -0.3666
  540SOL    HW2 1620   2.554   2.342   2.218 -1.9078 -1.8067  1.9801
  541SOL     OW 1621   0.284   2.811   1.487  0.5914 -0.3255 -0.3121
  541SOL    HW1 1622   0.201   2.852   1.536 -0.8912  1.5989  1.5684
  541SOL    HW2 1623   0.371   2.809   1.547  0.8714 -0.7658  0.8610
  542SOL     OW 1624   2.798   0.431   2.070 -0.0867  0.1939 -0.1041
  542SOL    HW1 1625   2.777   0.392   2.163 -0.2235 -0.1829  0.8122
  542SOL    HW2 1626   2.849   0.369   2.012  1.9553  0.3414  1.4026
  543SOL     OW 1627   0.769   0.486   0.983  0.0034  0.5174  0.1911
  543SOL    HW1 1628   0.748   0.452   1.075 -0.9664 -0.1219  0.8227
  543SOL    HW2 1629   0.852   0.438   0.949 -0.1578 -0.7003  0.3288
  544SOL     OW 1630   2.184   2.177   1.280 -0.7467  0.2049  0.2373
  544SOL    HW1 1631   2.259   2.111   1.255  1.3159  1.9055 -1.2585
  544SOL    HW2 1632   2.193   2.265   1.228 -4.7106 -0.6140 -1.9888
  545SOL     OW 1633   1.140   1.453   1.028  0.2281  0.4333 -0.1098
  545SOL    HW1 1634   1.237   1.478   1.036 -3.3103 -1.2302  2.3471
  545SOL    HW2 1635   1.104   1.449   1.120  2.6835  2.0121  0.4764
  546SOL     OW 1636   2.732   0.340   2.301  0.2315 -0.0381  0.0303
  546SOL    HW1 1637   2.662   0.279   2.258  1.5140  0.4773 -1.2607
  546SOL    HW2 1638   2.769   0.299   2.387  3.1041  0.7281  0.0452
  547SOL     OW 1639   2.709   0.416   2.925 -0.1221  0.1628 -0.6188
  547SOL    HW1 1640   2.657   0.412   2.841  2.2852 -1.2611  0.1289
  547SOL    HW2 1641   2.807   0.382   2.910  1.5945 -1.1370  0.2391
  548SOL     OW 1642   2.341   2.127   2.679  0.7285 -0.2468  0.1373
  548SOL    HW1 1643   2.364   2.028   2.698  0.5751  2.3107 -2.7873
  548SOL    HW2 1644   2.356   2.181   2.761  0.1012 -0.0456  0.7183
  549SOL     OW 1645   2.007   0.526   0.832  0.1815  0.5738 -0.0533
  549SOL    HW1 1646   1.944   0.450   0.845 -1.6596  0.4491  0.2090
  549SOL    HW2 1647   1.957   0.608   0.790  0.8702 -1.0061 -1.4269
  550SOL     OW 1648   2.493   1.392   0.255 -0.1832 -0.3505  0.2908
  550SOL    HW1 1649   2.477   1.387   0.357 -2.4936 -2.2563 -1.4274
  550SOL    HW2 1650   2.577   1.336   0.237 -0.7386 -1.2150 -0.3592
  551SOL     OW 1651   1.517   2.367   1.299 -0.3251  0.1206  0.0581
  551SOL    HW1 1652   1.512   2.424   1.217  0.1869 -0.2129 -0.3195
  551SOL    HW2 1653   1.535   2.421   1.380 -3.1963  1.9747 -0.1327
  552SOL     OW 1654   2.727   2.300   2.403  0.2467  0.2518  0.3653
  552SOL    HW1 1655   2.784   2.231   2.349  1.2149 -0.2707 -2.1831
  552SOL    HW2 1656   2.752   2.396   2.378  0.2824  1.3435 -0.9109
  553SOL     OW 1657   0.664   2.901   0.594  0.1813  0.0312 -0.3079
  553SOL    HW1 1658   0.609   2.987   0.567  0.4398  1.8866 -0.7604
  553SOL    HW2 1659   0.658   2.872   0.690  3.4502 -0.2335  0.7529
  554SOL     OW 1660   1.618   2.339   1.765 -0.2576  0.1876 -0.8451
  554SOL    HW1 1661   1.525   2.317   1.792 -0.8326 -2.1405 -1.2168
  554SOL    HW2 1662   1.693   2.308   1.832  0.5488 -1.3011 -1.5476
  555SOL     OW 1663   1.477   2.542   2.127  0.2750 -0.6209 -0.3041
  555SOL    HW1 1664   1.469   2.443   2.136 -0.0126  2.5962  3.6519
  555SOL    HW2 1665   1.391   2.579   2.089 -0.6823  2.7468  0.1614
  556SOL     OW 1666   1.503   0.670   0.706 -0.3473  0.2606  0.4153
  556SOL    HW1 1667   1.592   0.618   0.707  0.9627  1.4539 -3.0487
  556SOL    HW2 1668   1.449   0.633   0.631  2.8728  0.9449  2.2920
  557SOL     OW 1669   1.105   2.108   1.397 -0.0584  0.0803  0.3552
  557SOL    HW1 1670   1.200   2.154   1.414 -0.5456  1.8134 -0.7808
  557SOL    HW2 1671   1.049   2.104   1.482 -0.1105  0.0737 -0.2521
  558SOL     OW 1672   2.943   1.275   2.279 -0.0274  0.3708 -0.4370
  558SOL    HW1 1673   2.850   1.249   2.244  0.7154 -1.9471 -1.0107
  558SOL    HW2 1674   2.997   1.193   2.303 -0.5643 -2.7759 -2.4281
  559SOL     OW 1675   2.528   2.740   2.266 -0.3898  0.1681 -0.2173
  559SOL    HW1 1676   2.550   2.644   2.241 -0.2388  3.3507  1.7000
  559SOL    HW2 1677   2.500   2.791   2.184  0.3134 -0.0830  0.2800
  560SOL     OW 1678   0.381   0.109   2.554 -0.3052 -0.6790 -0.5075
  560SOL    HW1 1679   0.368   0.024   2.496  0.9037 -0.0773 -0.5948
  560SOL    HW2 1680   0.483   0.113   2.584  1.9888 -0.0906 -1.6133
  561SOL     OW 1681   1.320   0.529   0.532  0.0518 -0.2556  0.9991
  561SOL    HW1 1682   1.246   0.605   0.519 -0.0321  2.4234 -0.1244
  561SOL    HW2 1683   1.373   0.517   0.444 -0.3946 -1.5377 -1.7288
  562SOL     OW 1684   0.867   1.207   1.877 -0.1848  0.0367 -0.6289
  562SOL    HW1 1685   0.925   1.198   1.958  0.3771  0.9835 -1.2668
  562SOL    HW2 1686   0.769   1.202   1.896  0.8045 -0.6352 -0.3665
  563SOL     OW 1687   1.831   1.999   0.078 -0.4498 -0.1556  0.5021
  563SOL    HW1 1688   1.785   1.976   3.089  1.7043  0.3449  1.2754
  563SOL    HW2 1689   1.915   1.947   0.087 -0.5643 -1.0954 -0.5433
  564SOL     OW 1690   3.065   2.297   0.434  0.1298  0.4831  0.0129
  564SOL    HW1 1691   3.064   2.192   0.430  0.6482 -1.5616  0.1205
  564SOL    HW2 1692   0.034   2.325   0.506 -2.8952 -1.6344  2.6209
  565SOL     OW 1693   0.471   2.935   2.873 -0.2553 -0.4498  0.1143
  565SOL    HW1 1694   0.378   2.955   2.834 -2.4106 -0.2824  2.1764
  565SOL    HW2 1695   0.510   2.849   2.833  0.1729 -0.4999 -0.1989
  566SOL     OW 1696   1.437   2.742   2.951 -0.0278 -0.3285  0.2339
  566SOL    HW1 1697   1.539   2.718   2.959  1.0304  0.3913  2.2202
  566SOL    HW2 1698   1.418   2.839   2.940  0.7594  0.9049  1.2737
  567SOL     OW 1699   2.362   1.958   1.233 -0.0448  0.6389  0.1327
  567SOL    HW1 1700   2.464   1.941   1.242  1.0251 -1.9537 -1.9030
  567SOL    HW2 1701   2.325   1.908   1.154  0.1945  2.3580  0.2522
  568SOL     OW 1702   1.835   0.963   2.911 -0.4888  0.5280  0.2091
  568SOL    HW1 1703   1.924   0.914   2.935  1.7504 -3.5221  0.1279
  568SOL    HW2 1704   1.757   0.899   2.895 -0.5728  1.6504  0.5027
  569SOL     OW 1705   2.192   2.046   1.977 -0.6917 -0.3336  0.2867
  569SOL    HW1 1706   2.251   1.963   1.989 -0.9192  0.9290  1.2570
  569SOL    HW2 1707   2.238   2.121   2.023 -1.3634 -0.9812 -1.5666
  570SOL     OW 1708   2.791   2.755   1.900  0.5745  0.1308  0.3326
  570SOL    HW1 1709   2.795   2.854   1.913  3.4951 -0.0739  0.5078
  570SOL    HW2 1710   2.864   2.732   1.829  0.4071  1.9518 -1.2988
  571SOL     OW 1711   0.119   0.865   1.200 -0.5234  0.5995  0.2433
  571SOL    HW1 1712   0.198   0.907   1.251  0.0077  0.5430  1.3671
  571SOL    HW2 1713   0.079   0.792   1.260 -0.9133 -3.0412 -0.1603
  572SOL     OW 1714   0.228   1.457   0.786  0.0316 -0.3148 -0.1566
  572SOL    HW1 1715   0.150   1.419   0.729 -1.9841 -1.9128 -1.8699
  572SOL    HW2 1716   0.269   1.384   0.842 -2.7344  1.5463 -0.0016
  573SOL     OW 1717   0.890   1.013   0.299  0.0525 -0.3679 -0.1291
  573SOL    HW1 1718   0.811   0.949   0.295 -0.6569 -0.0125  1.6753
  573SOL    HW2 1719   0.900   1.044   0.399 -1.5385 -3.0841  4.1944
  574SOL     OW 1720   0.253   0.268   0.323  0.3873  0.6719  0.2878
  574SOL    HW1 1721   0.308   0.309   0.397 -1.0721 -0.2234 -4.0391
  574SOL    HW2 1722   0.154   0.256   0.340 -0.3013 -1.3029  0.9546
  575SOL     OW 1723   0.839   2.197   0.916 -0.2334 -0.0404 -0.2043
  575SOL    HW1 1724   0.893   2.239   0.841 -0.1056  0.9157  0.3829
  575SOL    HW2 1725   0.904   2.202   0.992 -0.1605 -1.5088 -1.1739
  576SOL     OW 1726   2.996   0.020   1.320 -0.2690 -0.1482  0.4227
  576SOL    HW1 1727   2.898   3.088   1.325  2.0387 -0.9247  1.8421
  576SOL    HW2 1728   3.028   0.020   1.224  1.8957 -0.2439  2.3192
  577SOL     OW 1729   2.716   2.105   2.000  0.1127 -0.3415 -0.2968
  577SOL    HW1 1730   2.635   2.126   2.064 -0.6238  2.2209 -0.0853
  577SOL    HW2 1731   2.783   2.179   1.993 -0.6790 -1.1697  0.7046
  578SOL     OW 1732   1.108   0.127   2.726  0.1513  0.1458 -0.2716
  578SOL    HW1 1733   1.099   0.052   2.656 -1.3074 -0.5816 -0.7291
  578SOL    HW2 1734   1.068   0.092   2.814 -0.2017 -1.6992 -0.4963
  579SOL     OW 1735   1.942   1.958   2.093  0.0437  0.0539 -0.6701
  579SOL    HW1 1736   2.022   1.988   2.037  0.3265 -0.1252 -0.4211
  579SOL    HW2 1737   1.868   1.917   2.037  2.2964 -0.5562 -0.0865
  580SOL     OW 1738   1.871   0.971   2.086 -0.8843  0.0216  0.5927
  580SOL    HW1 1739   1.951   0.948   2.141 -1.7795  1.7059 -4.3162
  580SOL    HW2 1740   1.813   1.044   2.121  1.2240 -2.7853 -1.7857
  581SOL     OW 1741   1.224   1.108   2.444  0.7184 -0.4076 -0.2513
  581SOL    HW1 1742   1.285   1.037   2.487 -2.5371  1.3048 -1.5820
  581SOL    HW2 1743   1.135   1.063   2.436 -0.3869 -1.4652  0.9687
  582SOL     OW 1744   0.203   2.597   1.836  0.0811 -0.6376  0.2648
  582SOL    HW1 1745   0.205   2.556   1.744  0.4801 -0.1744 -1.1908
  582SOL    HW2 1746   0.226   2.697   1.842  1.2099 -0.6567 -0.1730
  583SOL     OW 1747   1.637   1.068   1.377 -0.3396 -0.2406 -0.1813
  583SOL    HW1 1748   1.678   1.001   1.313  3.3402 -0.2965  1.4491
  583SOL    HW2 1749   1.642   1.162   1.340  0.9053 -1.2262  2.7628
  584SOL     OW 1750   1.209   1.979   2.708 -0.3563 -0.1991  0.1901
  584SOL    HW1 1751   1.256   1.910   2.762  1.4962  3.3722  0.2290
  584SOL    HW2 1752   1.274   2.055   2.676  1.8096 -0.3889  1.0107
  585SOL     OW 1753   0.176   2.323   0.244 -0.6095  0.0635  0.1360
  585SOL    HW1 1754   0.155   2.261   0.165 -1.2444 -1.8968  0.2897
  585SOL    HW2 1755   0.101   2.322   0.308  0.3275 -1.1939 -2.4855
  586SOL     OW 1756   2.022   1.612   0.445  0.0088  0.2972 -0.7083
  586SOL    HW1 1757   1.981   1.643   0.358  0.7881 -2.3638 -1.3857
  586SOL    HW2 1758   1.983   1.529   0.486 -2.7855  1.6211 -1.1335
  587SOL     OW 1759   3.011   1.987   0.418  0.0760  0.2872  0.2211
  587SOL    HW1 1760   0.005   1.946   0.444 -2.4282 -2.6038 -1.4187
  587SOL    HW2 1761   2.950   1.989   0.499 -2.6079  2.9309 -1.4100
  588SOL     OW 1762   2.387   0.344   0.994 -0.1476 -0.0448  0.5337
  588SOL    HW1 1763   2.476   0.351   1.039  0.5454  1.0712 -1.5626
  588SOL    HW2 1764   2.338   0.255   1.024  1.3193 -3.3136  1.5978
  589SOL     OW 1765   0.845   0.743   0.968 -0.4260 -0.1988 -0.3835
  589SOL    HW1 1766   0.942   0.766   0.958 -1.7902 -2.5422 -2.3777
  589SOL    HW2 1767   0.844   0.642   0.972 -0.9891 -0.6224  1.5219
  590SOL     OW 1768   2.410   2.381   0.030 -0.1117  0.9626  0.7279
  590SOL    HW1 1769   2.331   2.342   0.077 -1.0718  1.2980 -1.2566
  590SOL    HW2 1770   2.501   2.345   0.061 -0.0164 -0.7908 -0.6953
  591SOL     OW 1771   0.601   2.381   1.740  0.5566 -0.5615 -0.2216
  591SOL    HW1 1772   0.647   2.307   1.785 -2.4114  2.3886 -2.1099
  591SOL    HW2 1773   0.535   2.333   1.683 -1.3647  0.8481 -0.4327
  592SOL     OW 1774   0.800   1.340   1.440  0.1311  0.3191 -0.2762
  592SOL    HW1 1775   0.849   1.314   1.525 -0.2745 -1.5274  0.5543
  592SOL    HW2 1776   0.832   1.283   1.363  0.6408 -1.0232 -0.9737
  593SOL     OW 1777   0.966   1.857   1.363  0.3498  0.5336  0.0845
  593SOL    HW1 1778   1.047   1.803   1.335 -0.0388  1.8064 -2.0725
  593SOL    HW2 1779   0.998   1.938   1.406 -1.5493 -1.8928 -1.2657
  594SOL     OW 1780   0.858   0.926   2.565  0.0596 -0.2334 -0.3997
  594SOL    HW1 1781   0.892   0.846   2.624  6.0496 -0.4894  1.4882
  594SOL    HW2 1782   0.824   1.003   2.623  1.1795  0.8611  0.3819
  595SOL     OW 1783   1.576   0.377   1.101 -0.1230  0.4080 -0.1608
  595SOL    HW1 1784   1.602   0.376   1.203 -0.6014 -1.9572 -0.6217
  595SOL    HW2 1785   1.604   0.462   1.051  0.7884 -0.4083 -0.2748
  596SOL     OW 1786   0.321   1.195   0.872 -0.8411 -0.0036 -0.2318
  596SOL    HW1 1787   0.395   1.129   0.868 -2.2644  2.1814 -0.3771
  596SOL    HW2 1788   0.237   1.145   0.850 -2.1836  0.2873  0.1265
  597SOL     OW 1789   0.274   2.198   2.888 -0.1588 -0.0992 -0.4030
  597SOL    HW1 1790   0.173   2.196   2.880  1.0880  0.7433 -1.3158
  597SOL    HW2 1791   0.307   2.104   2.916 -2.3258 -1.7959 -0.2559
  598SOL     OW 1792   2.072   2.105   2.653  0.1092  1.2657 -0.5255
  598SOL    HW1 1793   2.027   2.177   2.597  1.3592  0.7388  1.3533
  598SOL    HW2 1794   2.173   2.117   2.645  1.5217 -0.7357 -3.0672
  599SOL     OW 1795   1.730   0.479   0.397 -0.1445 -0.0082  0.0804
  599SOL    HW1 1796   1.656   0.427   0.450 -0.0799 -0.8898  1.8335
  599SOL    HW2 1797   1.781   0.544   0.456 -1.4477  2.3004  0.3315
  600SOL     OW 1798   0.913   0.035   0.556 -0.1879 -0.7907 -0.4190
  600SOL    HW1 1799   0.946   3.071   0.629  0.0034  3.0107  1.1976
  600SOL    HW2 1800   0.942   0.009   0.461 -1.7680 -1.5697 -1.4531
  601SOL     OW 1801   0.322   0.491   1.308  0.2989  0.3305  0.0751
  601SOL    HW1 1802   0.357   0.562   1.250 -0.7606  0.9100  0.2821
  601SOL    HW2 1803   0.381   0.479   1.386  2.4856 -0.3657  1.7189
  602SOL     OW 1804   0.019   3.030   0.755  0.1979  0.6044 -0.3260
  602SOL    HW1 1805   0.021   2.926   0.763  1.3381 -2.0972 -0.5179
  602SOL    HW2 1806   3.022   3.057   0.785 -2.8756 -0.5077  0.5392
  603SOL     OW 1807   0.597   2.705   2.551 -0.3319 -0.8798 -0.5827
  603SOL    HW1 1808   0.692   2.736   2.521  3.3143  0.7670 -0.8040
  603SOL    HW2 1809   0.571   2.619   2.504 -1.6763  0.3193 -1.0253
  604SOL     OW 1810   1.112   2.712   3.086  0.3363 -0.0192  0.3908
  604SOL    HW1 1811   1.063   2.654   0.060 -0.7555 -2.4822  0.3321
  604SOL    HW2 1812   1.126   2.652   3.005  1.1192 -2.0639 -1.0843
  605SOL     OW 1813   1.193   0.888   1.641  0.0425  0.0553 -0.1358
  605SOL    HW1 1814   1.249   0.806   1.671  3.3070  1.9202 -0.2470
  605SOL    HW2 1815   1.200   0.965   1.710 -0.6523  0.6739  3.8097
  606SOL     OW 1816   1.386   0.235   2.630  0.2693  0.2971  0.2988
  606SOL    HW1 1817   1.296   0.237   2.678  1.3542  1.3730  2.1891
  606SOL    HW2 1818   1.445   0.317   2.646 -0.9473 -2.2312 -0.2643
  607SOL     OW 1819   0.272   1.333   1.107 -0.2077  0.4047 -0.0594
  607SOL    HW1 1820   0.312   1.302   1.197 -1.3402 -1.0208  3.1719
  607SOL    HW2 1821   0.300   1.267   1.031 -0.5539 -1.9087 -0.0615
  608SOL     OW 1822   2.878   2.102   2.244 -0.2709 -0.0270  0.0425
  608SOL    HW1 1823   2.915   2.131   2.152  0.2652  1.9951  2.9692
  608SOL    HW2 1824   2.957   2.097   2.310  1.3705  0.5593 -0.5711
  609SOL     OW 1825   2.052   0.346   0.164 -0.0815  0.6132 -0.5646
  609SOL    HW1 1826   2.135   0.286   0.175  1.9398  2.5561  0.5739
  609SOL    HW2 1827   2.059   0.429   0.224 -1.1172 -0.2613 -0.8550
  610SOL     OW 1828   0.863   2.664   1.236 -0.3392 -0.3722 -0.3361
  610SOL    HW1 1829   0.843   2.763   1.229  0.7224 -3.8886  0.9034
  610SOL    HW2 1830   0.964   2.657   1.215  2.1912 -0.1010  0.9290
  611SOL     OW 1831   0.786   1.348   0.458 -0.1656 -0.2642 -0.1745
  611SOL    HW1 1832   0.705   1.408   0.454  0.8209 -0.2409 -2.9815
  611SOL    HW2 1833   0.830   1.344   0.370 -2.5228 -0.5654  1.8700
  612SOL     OW 1834   0.819   0.190   2.247 -0.0071 -0.4384  0.3359
  612SOL    HW1 1835   0.720   0.208   2.280  0.6673 -1.4809  1.7769
  612SOL    HW2 1836   0.873   0.270   2.270  1.6213 -1.0881  0.6037
  613SOL     OW 1837   2.463   1.383   0.524 -0.2905 -0.0964  0.3367
  613SOL    HW1 1838   2.411   1.294   0.502 -0.1252 -2.4045  0.6663
  613SOL    HW2 1839   2.406   1.464   0.546  0.5115 -0.3480  0.6274
  614SOL     OW 1840   1.845   0.462   1.789 -0.1729  0.6213  0.4746
  614SOL    HW1 1841   1.764   0.493   1.843 -1.2943 -3.1093 -2.2042
  614SOL    HW2 1842   1.931   0.515   1.809  1.0639 -0.8285 -0.4212
  615SOL     OW 1843   0.727   1.964   0.933 -0.4316 -0.1141 -0.6677
  615SOL    HW1 1844   0.771   1.914   1.007 -1.0434 -0.3923 -1.0230
  615SOL    HW2 1845   0.761   2.065   0.936 -1.2805 -0.2722  0.0028
  616SOL     OW 1846   1.508   1.091   2.591 -0.3908 -0.1456  0.3886
  616SOL    HW1 1847   1.583   1.049   2.533  1.4842 -0.3773  1.4445
  616SOL    HW2 1848   1.422   1.034   2.597  1.8668 -0.7517  0.9030
  617SOL     OW 1849   1.865   2.723   0.482 -0.2690  0.4055  0.2058
  617SOL    HW1 1850   1.789   2.728   0.415 -2.9445 -0.2329  1.0755
  617SOL    HW2 1851   1.953   2.686   0.445 -0.3948  0.4082 -0.7549
  618SOL     OW 1852   0.805   0.916   0.010 -0.1601  0.0048  0.6508
  618SOL    HW1 1853   0.860   1.000   3.082 -0.6604  2.3641 -1.0945
  618SOL    HW2 1854   0.820   0.894   0.104  0.4632 -0.6643 -1.3698
  619SOL     OW 1855   2.660   1.605   0.620  0.1577 -0.0655  0.1887
  619SOL    HW1 1856   2.643   1.651   0.528 -0.9709  2.9392 -0.8265
  619SOL    HW2 1857   2.742   1.548   0.621 -1.4189  0.5330  2.0255
  620SOL     OW 1858   2.457   2.891   2.971 -0.9279  0.4816  0.4712
  620SOL    HW1 1859   2.454   2.802   3.016 -0.2028  3.8185 -1.9059
  620SOL    HW2 1860   2.476   2.873   2.869  0.5960  1.5844 -1.1553
  621SOL     OW 1861   2.084   1.161   0.080  0.0818  0.0079  0.4623
  621SOL    HW1 1862   2.053   1.066   0.077 -0.0779  0.4717  0.7468
  621SOL    HW2 1863   2.043   1.217   0.153  1.2299  0.3348  0.1037
  622SOL     OW 1864   1.122   2.265   2.336  0.0041  0.3527  0.1471
  622SOL    HW1 1865   1.043   2.217   2.375  0.5379 -1.4265 -0.1778
  622SOL    HW2 1866   1.187   2.201   2.294 -0.4547  1.8966  0.3413
  623SOL     OW 1867   0.660   1.518   3.017  0.0439 -0.6368  0.2262
  623SOL    HW1 1868   0.654   1.617   3.030 -0.9948 -2.0202  1.6611
  623SOL    HW2 1869   0.604   1.502   2.928 -0.7071  1.9793  0.9648
  624SOL     OW 1870   0.199   3.024   2.809 -0.5786  0.2572  1.1189
  624SOL    HW1 1871   0.212   0.016   2.758 -1.2639  0.0575  0.4001
  624SOL    HW2 1872   0.164   3.041   2.906  0.1153 -0.7493  1.3144
  625SOL     OW 1873   0.727   1.975   0.187  0.2090  0.1548  0.8601
  625SOL    HW1 1874   0.726   2.033   0.104 -0.7577 -2.1351  1.7186
  625SOL    HW2 1875   0.658   1.900   0.180 -0.1652  2.8255 -0.2378
  626SOL     OW 1876   2.474   0.425   0.079 -0.3621 -0.8279  0.0027
  626SOL    HW1 1877   2.564   0.427   0.034  1.7884  0.2341  0.7884
  626SOL    HW2 1878   2.486   0.425   0.182 -0.5652 -0.0704  2.3797
  627SOL     OW 1879   1.310   0.907   2.616  0.4243 -0.1733 -0.2324
  627SOL    HW1 1880   1.242   0.963   2.670  1.7810 -1.3315  0.1155
  627SOL    HW2 1881   1.348   0.835   2.683 -2.0574 -0.6380  0.3925
  628SOL     OW 1882   1.051   0.542   2.509  0.8011 -0.5892  0.4038
  628SOL    HW1 1883   1.009   0.463   2.554  1.6990 -0.0844  0.3390
  628SOL    HW2 1884   1.006   0.627   2.546 -2.3576  0.6612 -0.0138
  629SOL     OW 1885   0.463   3.000   1.950 -0.2698 -0.1217 -0.2804
  629SOL    HW1 1886   0.507   2.919   1.986 -3.0495  0.7399 -0.0960
  629SOL    HW2 1887   0.512   3.038   1.868 -2.2625  1.4832 -0.0746
  630SOL     OW 1888   2.431   1.101   1.681 -0.1362 -0.3022 -0.5193
  630SOL    HW1 1889   2.431   1.179   1.751 -1.3745  0.0185  1.6138
  630SOL    HW2 1890   2.339   1.054   1.677 -0.8617  1.9925 -1.6721
  631SOL     OW 1891   2.322   1.148   0.465 -0.3363 -0.2732  0.0890
  631SOL    HW1 1892   2.238   1.124   0.414  0.2145  2.2361 -1.9419
  631SOL    HW2 1893   2.373   1.064   0.487 -1.3432  1.0954  0.3969
  632SOL     OW 1894   2.402   0.501   1.830  0.5486  0.2901  0.3948
  632SOL    HW1 1895   2.502   0.496   1.842 -3.1406 -1.0972  0.1681
  632SOL    HW2 1896   2.387   0.451   1.737  1.4126 -1.9255 -0.0543
  633SOL     OW 1897   0.743   2.928   0.282  0.1528 -0.3101  0.1590
  633SOL    HW1 1898   0.648   2.912   0.250  3.1947  2.9417  1.0169
  633SOL    HW2 1899   0.768   2.855   0.350 -0.0550  0.2778  0.8112
  634SOL     OW 1900   1.543   3.065   0.038  0.5479  0.1743 -0.2481
  634SOL    HW1 1901   1.534   3.089   0.140 -1.0719 -2.2373 -0.0076
  634SOL    HW2 1902   1.622   3.004   0.019 -0.3729  1.3560  0.9996
  635SOL     OW 1903   2.728   0.520   0.222 -0.0474 -0.1289 -0.1110
  635SOL    HW1 1904   2.795   0.576   0.275 -0.4391 -0.4971 -1.0901
  635SOL    HW2 1905   2.645   0.485   0.276 -2.3465 -0.6831 -1.0301
  636SOL     OW 1906   0.542   1.740   0.949 -0.5843 -0.0022  0.6221
  636SOL    HW1 1907   0.475   1.818   0.956  1.5988 -0.2429 -0.2851
  636SOL    HW2 1908   0.636   1.778   0.957  1.3561 -0.1913 -1.9252
  637SOL     OW 1909   0.307   2.850   0.564 -0.3977  0.0525 -0.2401
  637SOL    HW1 1910   0.385   2.828   0.501  1.0033 -1.3776  1.1645
  637SOL    HW2 1911   0.227   2.801   0.533  0.1021 -0.4441 -0.9714
  638SOL     OW 1912   2.916   2.725   0.476  0.0695  0.0451 -0.1153
  638SOL    HW1 1913   2.919   2.777   0.386 -0.1198  2.7324  0.3614
  638SOL    HW2 1914   3.009   2.695   0.496 -1.7914 -0.5850 -1.4248
  639SOL     OW 1915   1.190   1.531   0.198  0.2564  0.0310 -0.5094
  639SOL    HW1 1916   1.229   1.447   0.152 -1.2948  2.1669  1.1323
  639SOL    HW2 1917   1.267   1.592   0.226  2.8742  0.8171 -0.4842
  640SOL     OW 1918   1.351   2.352   1.046 -0.4551 -0.2573 -0.3658
  640SOL    HW1 1919   1.420   2.424   1.057 -0.8961  0.7264  1.4763
  640SOL    HW2 1920   1.322   2.343   0.948 -0.7879  1.4998  0.5059
  641SOL     OW 1921   2.780   2.716   0.864 -0.8498 -0.4910 -0.2876
  641SOL    HW1 1922   2.748   2.619   0.868 -0.9435  0.6627 -1.2207
  641SOL    HW2 1923   2.772   2.773   0.954  2.8701  0.4178  3.1920
  642SOL     OW 1924   1.052   2.867   1.753  0.0276 -0.6094  0.2764
  642SOL    HW1 1925   0.979   2.891   1.823  0.9658 -0.4757 -1.2648
  642SOL    HW2 1926   1.103   2.952   1.726 -0.2056  1.9620  0.2236
  643SOL     OW 1927   0.785   2.103   2.503  0.4866  0.1292  0.2156
  643SOL    HW1 1928   0.769   2.083   2.403  0.5017  0.9251 -0.2091
  643SOL    HW2 1929   0.872   2.058   2.530  0.2827  0.5565  2.9051
  644SOL     OW 1930   0.896   2.796   0.521 -0.5635  0.2865  0.2379
  644SOL    HW1 1931   0.957   2.818   0.602 -1.7709  2.5626 -0.3172
  644SOL    HW2 1932   0.808   2.850   0.542 -0.5885  3.0040  0.8563
  645SOL     OW 1933   1.229   1.502   2.204 -0.7477  0.0907 -0.0918
  645SOL    HW1 1934   1.198   1.499   2.107 -1.9660 -0.0532 -2.2860
  645SOL    HW2 1935   1.169   1.566   2.263  0.2620  1.5331  0.4521
  646SOL     OW 1936   0.475   1.011   0.385  0.0583 -0.9956 -0.2652
  646SOL    HW1 1937   0.557   0.973   0.435  2.3521 -0.8110  0.0981
  646SOL    HW2 1938   0.454   1.107   0.422 -2.5179  1.7336  0.9704
  647SOL     OW 1939   1.360   0.135   0.818  0.1367 -0.2112 -0.0430
  647SOL    HW1 1940   1.370   0.118   0.920  0.4903 -1.1759 -1.4191
  647SOL    HW2 1941   1.442   0.127   0.760  1.4093 -0.3841 -2.3228
  648SOL     OW 1942   2.464   2.623   1.378 -0.5387  0.3481  0.0253
  648SOL    HW1 1943   2.458   2.708   1.437 -0.8028  0.5137 -0.0136
  648SOL    HW2 1944   2.455   2.542   1.438 -0.2563 -0.6479 -1.8104
  649SOL     OW 1945   0.701   2.163   3.057 -0.1651  0.0716  0.0516
  649SOL    HW1 1946   0.684   2.259   3.091  2.3605  0.2463  2.7207
  649SOL    HW2 1947   0.747   2.159   2.964  1.2689 -0.5722  1.4272
  650SOL     OW 1948   2.956   2.067   1.472  0.0144  0.2073  0.2990
  650SOL    HW1 1949   2.978   2.166   1.441 -1.7295 -0.4016  1.4763
  650SOL    HW2 1950   2.854   2.066   1.493  0.6132  1.3573  0.7123
  651SOL     OW 1951   0.034   3.038   3.027 -0.0417  0.8797  0.0621
  651SOL    HW1 1952   3.055   2.998   2.968 -0.6352  1.1297 -0.8793
  651SOL    HW2 1953   0.015   0.035   3.055  1.5380 -0.6529  0.1884
  652SOL     OW 1954   2.305   2.011   0.047  0.3831  0.0757  0.0304
  652SOL    HW1 1955   2.269   2.076   3.068 -1.9712  3.2777 -1.6365
  652SOL    HW2 1956   2.270   2.038   0.138  0.1221  0.5485  0.6571
  653SOL     OW 1957   0.300   0.213   1.093  0.7940  0.8127  0.3345
  653SOL    HW1 1958   0.401   0.222   1.097  0.9370  0.4372  0.6244
  653SOL    HW2 1959   0.267   0.131   1.146 -0.8674 -1.7632  0.6423
  654SOL     OW 1960   1.258   3.046   0.224 -0.1739 -0.0738  0.8591
  654SOL    HW1 1961   1.307   2.968   0.266 -1.6251 -0.1366 -0.8135
  654SOL    HW2 1962   1.316   0.030   0.243  1.8754 -2.9399 -1.1133
  655SOL     OW 1963   0.662   2.607   1.035  0.2356 -0.0826  0.1566
  655SOL    HW1 1964   0.659   2.518   0.987  0.6261  2.3743  2.9481
  655SOL    HW2 1965   0.722   2.608   1.114 -0.0453  2.1743 -1.4868
  656SOL     OW 1966   0.622   2.792   2.033 -0.0673  0.3572  0.0427
  656SOL    HW1 1967   0.591   2.711   1.982  0.0290 -2.8010 -0.9016
  656SOL    HW2 1968   0.588   2.782   2.130  0.7895 -0.5169  1.4946
  657SOL     OW 1969   1.700   0.687   2.428  0.4471 -0.1953 -0.1077
  657SOL    HW1 1970   1.721   0.657   2.331 -0.3328  1.0946 -2.4197
  657SOL    HW2 1971   1.779   0.666   2.484 -0.0593 -2.7054 -0.9330
  658SOL     OW 1972   2.283   1.832   1.017 -0.1227 -0.2166  0.6814
  658SOL    HW1 1973   2.183   1.829   1.045  0.0295  0.7876 -3.1633
  658SOL    HW2 1974   2.322   1.740   1.019 -1.2541  0.4747  2.4682
  659SOL     OW 1975   2.816   2.701   0.089 -0.2937  0.0108 -0.4651
  659SOL    HW1 1976   2.882   2.766   0.129 -0.6296 -0.3507 -0.2991
  659SOL    HW2 1977   2.721   2.709   0.135 -3.4245 -0.8420  2.5934
  660SOL     OW 1978   1.342   0.768   0.123 -0.2815  0.7864  0.5521
  660SOL    HW1 1979   1.437   0.781   0.083  0.5596  0.0677 -2.1868
  660SOL    HW2 1980   1.336   0.799   0.220 -0.6845  1.8942  1.1678
  661SOL     OW 1981   2.428   2.592   0.920 -0.9604 -0.1728  0.2619
  661SOL    HW1 1982   2.421   2.606   0.823  0.8315 -3.1080 -0.4516
  661SOL    HW2 1983   2.419   2.495   0.933 -0.3002  1.1720 -0.6636
  662SOL     OW 1984   0.667   0.455   0.563 -0.0637  0.1979  0.2086
  662SOL    HW1 1985   0.663   0.351   0.555 -0.0063  0.6443  0.1054
  662SOL    HW2 1986   0.578   0.500   0.532  0.9821 -0.5605  1.0548
  663SOL     OW 1987   1.349   2.499   2.594  0.4213 -0.5370 -0.1910
  663SOL    HW1 1988   1.435   2.551   2.565  1.5094  1.2337 -1.5378
  663SOL    HW2 1989   1.271   2.505   2.523 -1.6062  1.4413  0.0977
  664SOL     OW 1990   0.810   2.156   1.382 -0.0534  0.1299  0.2606
  664SOL    HW1 1991   0.849   2.215   1.453 -0.7199 -0.6363 -3.2161
  664SOL    HW2 1992   0.809   2.202   1.292  1.5582 -1.2126  1.0871
  665SOL     OW 1993   1.454   1.799   1.650 -0.1428 -0.1966  0.0972
  665SOL    HW1 1994   1.434   1.866   1.724 -1.3250  2.0531 -2.4991
  665SOL    HW2 1995   1.366   1.772   1.613  0.4116  1.4098  1.6682
  666SOL     OW 1996   0.317   2.590   0.241 -0.4043  0.9322 -0.2466
  666SOL    HW1 1997   0.408   2.549   0.238  2.2073 -0.7874 -1.2389
  666SOL    HW2 1998   0.248   2.516   0.229  0.1522  0.9067 -1.0386
  667SOL     OW 1999   1.930   1.434   1.471 -0.2267  0.2891  0.0391
  667SOL    HW1 2000   1.990   1.444   1.556  0.3088 -1.1724  1.5334
  667SOL    HW2 2001   1.835   1.419   1.502 -1.6848 -1.3989 -4.1600
  668SOL     OW 2002   0.279   0.050   2.064 -0.3297  0.5691 -0.3616
  668SOL    HW1 2003   0.289   0.149   2.037  0.2867 -0.9143 -0.1346
  668SOL    HW2 2004   0.349   3.089   2.015 -0.6933  1.6463  0.9892
  669SOL     OW 2005   2.137   2.382   2.248  0.6393  0.0694 -0.4696
  669SOL    HW1 2006   2.045   2.345   2.225 -1.4026 -0.9396  1.0246
  669SOL    HW2 2007   2.135   2.480   2.273  0.2358  2.2543 -2.4184
  670SOL     OW 2008   2.237   2.127   0.302  0.2652 -0.0083 -0.3456
  670SOL    HW1 2009   2.162   2.077   0.353  0.8340  0.5098 -0.1542
  670SOL    HW2 2010   2.282   2.200   0.360 -0.4804 -1.0144  1.9999
  671SOL     OW 2011   1.119   1.053   1.351  0.9563  0.0555 -0.2939
  671SOL    HW1 2012   1.174   1.042   1.265  1.6594 -2.2838 -2.0346
  671SOL    HW2 2013   1.086   0.956   1.379 -1.8654 -1.2718  1.9394
  672SOL     OW 2014   2.641   1.529   2.019 -0.7804 -0.0252  0.0591
  672SOL    HW1 2015   2.718   1.570   2.078  0.5368 -1.6796  0.3064
  672SOL    HW2 2016   2.569   1.494   2.084  0.5143  0.6732 -0.3379
  673SOL     OW 2017   2.845   1.659   2.129  0.2709  0.2963 -0.1940
  673SOL    HW1 2018   2.838   1.671   2.227  1.3849 -0.3874 -1.4802
  673SOL    HW2 2019   2.943   1.628   2.108  3.5457 -0.6443 -0.6750
  674SOL     OW 2020   0.851   2.758   2.483  0.5671  0.4772 -0.3187
  674SOL    HW1 2021   0.827   2.854   2.462  0.7701  1.6568  1.0777
  674SOL    HW2 2022   0.950   2.747   2.467  0.3126 -1.9457  1.3195
  675SOL     OW 2023   0.747   0.941   1.548 -0.3027  0.1792 -0.1820
  675SOL    HW1 2024   0.807   0.917   1.467  0.5370 -0.3337 -0.0172
  675SOL    HW2 2025   0.801   0.935   1.633 -0.3755 -0.7058 -1.5741
  676SOL     OW 2026   1.881   0.640   0.539  0.1566 -0.4402  0.1386
  676SOL    HW1 2027   1.839   0.614   0.627  0.4775  0.1477 -1.0438
  676SOL    HW2 2028   1.946   0.721   0.543  3.3217  0.0017  1.2861
  677SOL     OW 2029   2.873   1.725   2.930  0.2026 -0.2908  0.2301
  677SOL    HW1 2030   2.834   1.649   2.872 -1.2346 -2.2571  2.8272
  677SOL    HW2 2031   2.975   1.743   2.918  0.4576  1.6687 -0.8403
  678SOL     OW 2032   2.990   3.007   1.055  0.7069 -0.0585 -0.0647
  678SOL    HW1 2033   2.970   3.074   0.983 -1.1321 -0.5430 -0.3521
  678SOL    HW2 2034   3.080   2.957   1.039  2.3413 -1.4855 -2.3341
  679SOL     OW 2035   2.102   0.062   0.311 -0.0497  0.2108 -0.4806
  679SOL    HW1 2036   2.180   0.116   0.270  1.5785  0.2608  0.8627
  679SOL    HW2 2037   2.032   0.124   0.350 -0.1256  1.3811  1.7155
  680SOL     OW 2038   0.407   2.144   2.155  0.6174 -0.0577 -0.0049
  680SOL    HW1 2039   0.476   2.193   2.211  0.7662  2.2188  0.9146
  680SOL    HW2 2040   0.434   2.124   2.061 -0.0442  0.4448  2.9551
  681SOL     OW 2041   2.980   1.914   1.111  0.0468  0.2656 -0.1497
  681SOL    HW1 2042   2.889   1.955   1.088  0.4702  1.5744 -0.7262
  681SOL    HW2 2043   3.064   1.970   1.087  1.3848 -1.9148  0.2358
  682SOL     OW 2044   0.328   2.202   1.609 -0.1584  0.4059 -0.2407
  682SOL    HW1 2045   0.295   2.107   1.592  2.0128 -2.5311  0.5161
  682SOL    HW2 2046   0.383   2.230   1.528  0.7712 -1.1432 -1.2895
  683SOL     OW 2047   3.078   1.982   1.696  0.3608  0.0502 -0.5984
  683SOL    HW1 2048   2.994   1.998   1.639  1.4656  0.9682 -0.7847
  683SOL    HW2 2049   0.041   1.913   1.651 -0.3811 -1.2934 -0.3832
  684SOL     OW 2050   2.587   1.647   2.666 -0.7706 -0.1535 -0.5375
  684SOL    HW1 2051   2.652   1.576   2.698  0.4751  2.4297 -3.6426
  684SOL    HW2 2052   2.492   1.606   2.666  0.1357  1.1934 -0.0285
  685SOL     OW 2053   1.517   1.280   0.305 -0.3581  0.0937  0.0474
  685SOL    HW1 2054   1.483   1.221   0.379 -1.1775  2.4253 -1.5896
  685SOL    HW2 2055   1.560   1.362   0.349  1.3182 -1.1968  1.7097
  686SOL     OW 2056   0.485   0.270   0.730  0.6666 -0.1213 -0.5233
  686SOL    HW1 2057   0.494   0.366   0.687 -1.3156  0.2785  0.0685
  686SOL    HW2 2058   0.393   0.259   0.778 -1.8673  1.5651 -0.8369
  687SOL     OW 2059   1.236   1.415   2.549  0.2644  0.3644 -0.1007
  687SOL    HW1 2060   1.247   1.394   2.646 -1.7290 -1.4912  3.8192
  687SOL    HW2 2061   1.258   1.329   2.490  0.2332 -2.1174 -2.5695
  688SOL     OW 2062   1.222   1.639   1.615  0.6551 -0.2488  0.4780
  688SOL    HW1 2063   1.205   1.625   1.514 -0.3714  1.8941  0.5544
  688SOL    HW2 2064   1.138   1.642   1.673 -0.4494  2.5096 -0.0236
  689SOL     OW 2065   2.248   0.364   1.302 -0.1393  0.2667 -0.4241
  689SOL    HW1 2066   2.245   0.269   1.258 -0.0994 -2.5461 -0.5762
  689SOL    HW2 2067   2.160   0.410   1.312  2.3591  0.6675 -0.8224
  690SOL     OW 2068   2.961   1.464   0.957 -0.4014  0.2967 -0.3688
  690SOL    HW1 2069   3.018   1.434   1.039  2.7217  0.9578  0.3849
  690SOL    HW2 2070   3.005   1.416   0.880  2.8601  0.2811 -0.5218
  691SOL     OW 2071   0.469   2.349   1.127  0.6977  0.8667  0.3616
  691SOL    HW1 2072   0.538   2.360   1.051  0.0247 -1.3252 -2.4607
  691SOL    HW2 2073   0.457   2.248   1.145 -0.0691 -0.3618 -0.7640
  692SOL     OW 2074   2.307   0.353   1.605  0.0836 -0.8020 -0.3784
  692SOL    HW1 2075   2.324   0.381   1.508  2.2254  1.7799 -1.6372
  692SOL    HW2 2076   2.224   0.299   1.611  2.8709  2.5777 -0.7766
  693SOL     OW 2077   0.272   1.694   2.160 -0.0317  0.0286  0.0738
  693SOL    HW1 2078   0.276   1.609   2.215  2.5445 -0.6244 -1.1159
  693SOL    HW2 2079   0.184   1.742   2.175  1.5048  0.5742  1.3054
  694SOL     OW 2080   1.764   1.466   1.748 -0.1987 -0.6993  0.6910
  694SOL    HW1 2081   1.698   1.416   1.804 -0.7704  3.9528  0.0419
  694SOL    HW2 2082   1.862   1.434   1.769  4.2574 -1.1941  1.2362
  695SOL     OW 2083   0.669   0.784   1.175  0.1481  0.0188  0.0762
  695SOL    HW1 2084   0.735   0.811   1.100  1.0929  1.1458  0.0646
  695SOL    HW2 2085   0.716   0.719   1.235  0.6732  1.6936  2.1723
  696SOL     OW 2086   1.682   3.081   0.882  0.1209 -0.5527 -0.0676
  696SOL    HW1 2087   1.705   0.053   0.954 -0.2385  0.9311 -0.2035
  696SOL    HW2 2088   1.745   3.002   0.882  0.9754  0.2731  0.1718
  697SOL     OW 2089   1.124   0.315   1.338 -0.1263 -0.1542 -0.3555
  697SOL    HW1 2090   1.072   0.282   1.423 -1.9200  0.6924  2.5893
  697SOL    HW2 2091   1.077   0.271   1.256 -0.1265 -1.0440 -1.5442
  698SOL     OW 2092   1.550   1.223   2.085 -0.1777 -0.5324 -0.9796
  698SOL    HW1 2093   1.460   1.225   2.139  0.3187  1.5257  0.3598
  698SOL    HW2 2094   1.632   1.223   2.151  1.0441  0.9916  2.1857
  699SOL     OW 2095   1.857   0.795   1.403  0.1571  0.1043  0.8938
  699SOL    HW1 2096   1.775   0.781   1.340 -0.9182  1.9590  1.5864
  699SOL    HW2 2097   1.944   0.762   1.358  0.3929 -2.7547 -0.4771
  700SOL     OW 2098   1.002   2.484   0.140  0.1321 -0.0256  0.2901
  700SOL    HW1 2099   0.999   2.525   0.235  1.5038 -1.1684  2.5843
  700SOL    HW2 2100   1.047   2.393   0.137  0.8939  0.9577 -1.3634
  701SOL     OW 2101   2.329   2.351   2.861  0.3438  0.0173 -0.1087
  701SOL    HW1 2102   2.293   2.442   2.838  1.8210 -0.2706 -2.5297
  701SOL    HW2 2103   2.372   2.349   2.951 -3.6087 -0.6048 -2.6621
  702SOL     OW 2104   0.576   0.217   1.050  0.0542  0.5365 -0.2224
  702SOL    HW1 2105   0.611   0.269   1.132 -1.6354 -0.6439 -0.6327
  702SOL    HW2 2106   0.645   0.216   0.972  2.3398  2.2304  0.1735
  703SOL     OW 2107   2.479   0.091   2.584 -0.0641  0.3100 -0.1850
  703SOL    HW1 2108   2.413   0.010   2.583 -2.7817 -0.0315  0.2531
  703SOL    HW2 2109   2.538   0.083   2.502  2.4682  0.5742 -1.1083
  704SOL     OW 2110   2.846   2.463   0.398 -0.0133 -0.4840 -0.6213
  704SOL    HW1 2111   2.866   2.558   0.435 -1.3940 -1.1191 -0.4100
  704SOL    HW2 2112   2.926   2.403   0.419  0.6653 -1.4274 -1.1667
  705SOL     OW 2113   2.869   2.909   2.153 -0.1641  0.3786 -0.0684
  705SOL    HW1 2114   2.907   2.946   2.238 -0.1360 -0.6068  1.9070
  705SOL    HW2 2115   2.840   2.810   2.155  1.6039  1.2185  0.0804
  706SOL     OW 2116   2.198   2.860   1.316  0.1227 -0.8381  0.1681
  706SOL    HW1 2117   2.172   2.773   1.361 -1.8272  2.9946  1.9996
  706SOL    HW2 2118   2.248   2.852   1.227  0.1447 -2.1350  0.6513
  707SOL     OW 2119   0.787   2.596   2.284  0.0478  0.1885 -0.5824
  707SOL    HW1 2120   0.837   2.607   2.194 -1.4175 -3.6329 -0.9517
  707SOL    HW2 2121   0.812   2.670   2.351  2.1010  0.0776  1.6942
  708SOL     OW 2122   0.038   2.271   1.782  0.4528  0.0659 -0.5928
  708SOL    HW1 2123   0.029   2.187   1.721  2.5434 -1.5444  1.4323
  708SOL    HW2 2124   0.118   2.259   1.845  0.0402  2.1624 -0.3392
  709SOL     OW 2125   1.836   0.172   1.756  0.2570  0.2841 -0.3945
  709SOL    HW1 2126   1.825   0.273   1.758 -0.0670 -0.0168 -0.8540
  709SOL    HW2 2127   1.867   0.143   1.849 -0.0612  1.4786  1.6347
  710SOL     OW 2128   1.576   0.433   2.729  0.0912 -0.6920  0.1346
  710SOL    HW1 2129   1.553   0.446   2.826  1.7145  3.0715 -3.4041
  710SOL    HW2 2130   1.561   0.528   2.684  1.6199 -0.0207 -3.2583
  711SOL     OW 2131   0.985   1.671   2.675 -0.4072  0.1576 -0.0591
  711SOL    HW1 2132   0.897   1.723   2.661  1.5005 -0.4021 -1.0333
  711SOL    HW2 2133   1.033   1.663   2.586  0.7862  0.4017  0.1170
  712SOL     OW 2134   0.994   1.951   2.551  0.2630 -0.5394  0.1642
  712SOL    HW1 2135   1.085   1.962   2.601  1.1010 -0.6740  1.8120
  712SOL    HW2 2136   0.930   1.906   2.612 -0.2126  1.3301 -2.2410
  713SOL     OW 2137   1.851   1.094   2.666 -0.4059  0.3073 -0.6667
  713SOL    HW1 2138   1.847   1.061   2.763  1.9813 -1.4635  0.7025
  713SOL    HW2 2139   1.817   1.192   2.667 -1.3600 -0.2288 -0.6986
  714SOL     OW 2140   1.115   1.498   1.966 -0.0538  0.2235 -0.6280
  714SOL    HW1 2141   1.041   1.460   2.026 -1.3057  1.3416 -0.7229
  714SOL    HW2 2142   1.074   1.561   1.898 -0.2731 -0.2496  1.4492
  715SOL     OW 2143   1.950   0.381   2.830  0.0427  0.1690  0.0624
  715SOL    HW1 2144   2.035   0.326   2.810 -1.6982 -1.1624  0.6117
  715SOL    HW2 2145   1.875   0.332   2.780 -0.4909 -0.0395  0.3155
  716SOL     OW 2146   2.981   2.370   1.428  0.3057  0.1528  0.4303
  716SOL    HW1 2147   2.907   2.435   1.458  0.0377 -1.5261 -0.2346
  716SOL    HW2 2148   2.953   2.343   1.335  2.6087  3.6070  1.2255
  717SOL     OW 2149   2.673   1.280   0.651 -0.2994 -0.1131 -0.3669
  717SOL    HW1 2150   2.633   1.233   0.733 -2.3162  2.2240  0.2923
  717SOL    HW2 2151   2.607   1.344   0.608  1.3699 -0.9917 -4.0763
  718SOL     OW 2152   1.101   1.969   1.902 -0.6480 -0.0100 -0.0236
  718SOL    HW1 2153   1.086   2.064   1.937  0.0177 -3.0143 -0.1013
  718SOL    HW2 2154   1.144   1.909   1.970 -0.7244 -0.3778 -0.5646
  719SOL     OW 2155   2.150   0.595   2.847  0.3823 -0.7710 -0.0553
  719SOL    HW1 2156   2.062   0.542   2.864 -0.3550 -4.7090  4.3047
  719SOL    HW2 2157   2.220   0.582   2.921 -1.1591  0.3191 -0.2493
  720SOL     OW 2158   0.746   0.350   1.227  0.5347 -0.3034 -0.3857
  720SOL    HW1 2159   0.706   0.332   1.322  0.7501 -2.6501  0.8706
  720SOL    HW2 2160   0.803   0.275   1.200 -0.4259  2.9331  1.3912
  721SOL     OW 2161   2.582   0.818   0.473 -0.1067  0.6057  0.3338
  721SOL    HW1 2162   2.631   0.880   0.411 -2.2231 -1.0425  0.5015
  721SOL    HW2 2163   2.648   0.743   0.496  1.2380 -2.6889  2.2471
  722SOL     OW 2164   3.062   2.929   2.690  0.1613 -0.1987 -0.2403
  722SOL    HW1 2165   2.991   2.945   2.764  1.0201 -3.1531  1.0907
  722SOL    HW2 2166   0.058   2.954   2.725 -1.6296 -0.1806  0.3492
  723SOL     OW 2167   1.560   0.334   0.553  0.3071  0.0766 -0.0442
  723SOL    HW1 2168   1.567   0.237   0.581 -1.4159  1.7980 -3.3956
  723SOL    HW2 2169   1.462   0.344   0.527  0.2912  1.1676  0.0180
  724SOL     OW 2170   0.891   1.424   2.083  0.6498 -0.1098  0.1150
  724SOL    HW1 2171   0.905   1.332   2.127  2.5310 -4.6785  2.0834
  724SOL    HW2 2172   0.873   1.497   2.153 -2.1380  0.9085  1.3111
  725SOL     OW 2173   1.541   2.921   1.049 -0.0934  0.4251  0.0134
  725SOL    HW1 2174   1.599   2.943   1.130  2.0373 -0.2421  0.8062
  725SOL    HW2 2175   1.557   2.991   0.976 -0.7332  0.8172 -1.4766
  726SOL     OW 2176   2.303   2.849   0.193  0.6623  0.0366  0.1112
  726SOL    HW1 2177   2.357   2.899   0.261  0.6804  1.2656  1.1409
  726SOL    HW2 2178   2.347   2.764   0.172 -0.9314  2.7550  1.9953
  727SOL     OW 2179   1.416   1.723   0.935  0.2616  0.2672  0.0427
  727SOL    HW1 2180   1.486   1.775   0.987  0.1054  1.4693 -0.7999
  727SOL    HW2 2181   1.393   1.760   0.844 -0.1440  0.8744 -0.9943
  728SOL     OW 2182   2.207   2.442   1.857 -0.5397  0.1682 -0.2404
  728SOL    HW1 2183   2.131   2.484   1.804 -0.0622 -0.9463 -0.8016
  728SOL    HW2 2184   2.286   2.428   1.796 -0.5949 -1.0191 -1.2646
  729SOL     OW 2185   1.861   1.805   1.524  0.2180  0.6206  0.5195
  729SOL    HW1 2186   1.806   1.718   1.512 -2.6191 -0.4770 -2.5618
  729SOL    HW2 2187   1.948   1.792   1.468  2.9402  0.7349 -1.7756
  730SOL     OW 2188   1.565   1.041   0.148  0.6088  0.0517  0.0686
  730SOL    HW1 2189   1.536   1.122   0.199  1.9737  0.8124  0.0547
  730SOL    HW2 2190   1.642   0.984   0.189  1.9295 -0.2818  2.2512
  731SOL     OW 2191   0.481   2.955   1.218  0.0684 -0.0537  0.3510
  731SOL    HW1 2192   0.416   2.873   1.209  4.1061 -1.1568 -1.2173
  731SOL    HW2 2193   0.488   3.016   1.136  2.1735  2.6046 -0.2763
  732SOL     OW 2194   1.290   0.407   0.786 -0.0284 -0.1974  0.5238
  732SOL    HW1 2195   1.294   0.437   0.692 -0.5164  1.8415 -0.1233
  732SOL    HW2 2196   1.316   0.306   0.805  0.5564  0.3984 -0.4057
  733SOL     OW 2197   0.834   1.225   1.191 -0.5359 -0.0340 -0.3827
  733SOL    HW1 2198   0.768   1.247   1.123  1.6904 -1.5852  3.1632
  733SOL    HW2 2199   0.913   1.166   1.153  2.4722 -0.4232 -2.9105
  734SOL     OW 2200   2.803   2.673   2.911  0.1746  0.6494  0.4190
  734SOL    HW1 2201   2.805   2.656   3.007  2.3206 -3.3826  0.8203
  734SOL    HW2 2202   2.734   2.608   2.865 -2.4592 -2.0574 -0.2697
  735SOL     OW 2203   1.138   2.695   1.270  0.1328  0.8034 -0.1414
  735SOL    HW1 2204   1.150   2.717   1.372 -0.5983 -0.0550  0.0251
  735SOL    HW2 2205   1.199   2.745   1.207 -0.2744  0.2952 -2.4949
  736SOL     OW 2206   1.766   2.163   0.304 -0.0756  0.3912 -0.1258
  736SOL    HW1 2207   1.741   2.256   0.275 -0.3810  0.2707  4.2762
  736SOL    HW2 2208   1.791   2.106   0.223 -0.7153  0.5624  1.8170
  737SOL     OW 2209   2.964   1.814   1.372  0.0231  0.3577 -0.0910
  737SOL    HW1 2210   2.976   1.823   1.270 -0.2719 -1.6428 -1.5767
  737SOL    HW2 2211   2.969   1.910   1.408  1.1313  0.4889  0.2805
  738SOL     OW 2212   1.996   2.316   2.502 -0.2721 -0.3886  0.5231
  738SOL    HW1 2213   1.993   2.398   2.562 -1.9091 -0.9953 -0.6116
  738SOL    HW2 2214   2.056   2.335   2.428 -3.8407 -1.4627  1.2465
  739SOL     OW 2215   1.360   1.811   2.467  0.6614  0.2240 -0.0806
  739SOL    HW1 2216   1.415   1.897   2.449 -2.8600  2.1855 -1.0422
  739SOL    HW2 2217   1.379   1.776   2.564  0.4940  0.7111 -0.8367
  740SOL     OW 2218   1.273   2.863   1.102 -0.0822  0.2311 -0.2150
  740SOL    HW1 2219   1.373   2.870   1.091  3.0698  0.3893 -1.5721
  740SOL    HW2 2220   1.230   2.838   1.012 -0.4594 -1.7691 -1.1022
  741SOL     OW 2221   0.234   0.980   0.259 -0.8377 -0.1004  0.4705
  741SOL    HW1 2222   0.194   1.070   0.253  1.6533 -0.4507 -1.3896
  741SOL    HW2 2223   0.330   0.994   0.295 -0.7958  1.1835  1.2828
  742SOL     OW 2224   1.137   1.638   2.465  0.3160  0.0687  0.0814
  742SOL    HW1 2225   1.184   1.553   2.499 -0.0494  0.0853  0.2897
  742SOL    HW2 2226   1.201   1.717   2.459 -1.8092 -3.1131  0.9036
  743SOL     OW 2227   1.050   0.725   2.252 -0.0054 -0.2782  0.2956
  743SOL    HW1 2228   1.014   0.718   2.155 -1.0782 -0.7231  0.9809
  743SOL    HW2 2229   1.100   0.640   2.269  0.8021  2.1103 -0.2594
  744SOL     OW 2230   2.162   3.021   1.516  0.0195  0.0491 -0.4941
  744SOL    HW1 2231   2.170   2.948   1.439  0.8293 -2.3981 -2.5812
  744SOL    HW2 2232   2.226   3.003   1.593  0.4206  0.8501 -1.2530
  745SOL     OW 2233   2.078   1.723   1.372  0.0882 -0.0280  0.1435
  745SOL    HW1 2234   2.130   1.795   1.421  0.3157 -1.2915 -1.1440
  745SOL    HW2 2235   2.133   1.636   1.370 -0.5578 -0.3156  0.5020
  746SOL     OW 2236   1.810   1.130   0.630  0.5785 -0.0990 -0.2969
  746SOL    HW1 2237   1.827   1.170   0.537  1.3533 -1.3723  0.1437
  746SOL    HW2 2238   1.734   1.062   0.626 -0.6618  1.0345 -1.1929
  747SOL     OW 2239   2.306   1.585   0.519  0.2670 -0.4388  0.1330
  747SOL    HW1 2240   2.313   1.670   0.573 -1.1438 -2.3587  1.6980
  747SOL    HW2 2241   2.210   1.571   0.490 -1.0877  3.0689  0.9079
  748SOL     OW 2242   0.229   1.779   0.287 -0.2882 -0.0035  0.0543
  748SOL    HW1 2243   0.181   1.774   0.195 -1.4783  0.8568 -0.5460
  748SOL    HW2 2244   0.313   1.716   0.285  3.5920 -3.3911 -0.0748
  749SOL     OW 2245   2.967   2.399   2.672  0.2104 -0.7847 -0.1805
  749SOL    HW1 2246   2.873   2.375   2.698 -2.0619 -0.1516 -1.8066
  749SOL    HW2 2247   2.998   2.485   2.721 -3.4035  0.4918  0.3272
  750SOL     OW 2248   2.111   0.885   0.625  0.0518  0.1350  0.2700
  750SOL    HW1 2249   2.215   0.903   0.632  4.9574 -0.8292 -0.3926
  750SOL    HW2 2250   2.065   0.874   0.717 -1.7782 -2.0666  2.0431
  751SOL     OW 2251   2.628   0.138   0.042  0.1605  0.1002 -0.3353
  751SOL    HW1 2252   2.533   0.124   0.023 -0.4653  0.6409  0.5946
  751SOL    HW2 2253   2.642   0.072   0.119 -0.2158  1.6237 -2.3780
  752SOL     OW 2254   2.409   2.710   0.662 -0.4065  0.1515 -0.3981
  752SOL    HW1 2255   2.410   2.809   0.681  0.0384  0.0443  0.0625
  752SOL    HW2 2256   2.491   2.688   0.603  0.5866  1.2771 -0.9563
  753SOL     OW 2257   1.751   1.155   2.253 -0.0835 -0.0810  0.0121
  753SOL    HW1 2258   1.743   1.079   2.322 -0.6080 -1.7735  2.4052
  753SOL    HW2 2259   1.759   1.250   2.302  2.9802  4.2637  0.6802
  754SOL     OW 2260   1.851   2.272   1.918 -0.0989  0.1598  0.7483
  754SOL    HW1 2261   1.920   2.243   1.849 -0.4322 -0.1529  0.2333
  754SOL    HW2 2262   1.878   2.257   2.014 -1.4962  0.1978  1.1704
  755SOL     OW 2263   2.429   0.957   0.934 -0.0151  0.0312  0.2426
  755SOL    HW1 2264   2.508   0.895   0.951 -1.8270  1.1135 -1.1333
  755SOL    HW2 2265   2.459   1.058   0.934 -0.4416  0.4114  1.5393
  756SOL     OW 2266   0.930   1.132   2.991 -0.3989  0.3886  0.0332
  756SOL    HW1 2267   0.924   1.235   3.002  3.4222  0.8476 -0.4847
  756SOL    HW2 2268   0.892   1.103   2.900  1.0785  0.4084  0.5658
  757SOL     OW 2269   1.854   2.540   1.154 -0.2225 -0.4231  0.4871
  757SOL    HW1 2270   1.913   2.529   1.234  2.4230 -0.7482  1.4354
  757SOL    HW2 2271   1.866   2.468   1.079  0.5550 -1.9020  0.2331
  758SOL     OW 2272   1.001   2.212   1.131 -0.7934  0.2026 -0.3605
  758SOL    HW1 2273   1.046   2.299   1.153  0.0842  2.7717 -2.1582
  758SOL    HW2 2274   1.037   2.137   1.193  0.1861 -0.3715  1.2327
  759SOL     OW 2275   2.733   1.366   1.083 -0.1121  0.1836 -0.5306
  759SOL    HW1 2276   2.675   1.445   1.096 -0.0389 -1.8920 -0.1203
  759SOL    HW2 2277   2.809   1.391   1.022 -1.9975 -1.5494  0.7320
  760SOL     OW 2278   2.001   1.122   1.699  0.4875 -0.6524  0.0566
  760SOL    HW1 2279   2.057   1.109   1.614 -0.6659 -1.1734  1.6349
  760SOL    HW2 2280   1.912   1.073   1.686  0.7996 -0.5675 -0.9226
  761SOL     OW 2281   2.072   2.961   0.078  0.4354 -0.2468 -0.0501
  761SOL    HW1 2282   2.053   3.051   0.125  1.2643 -0.6147  0.0365
  761SOL    HW2 2283   2.156   2.924   0.120 -1.6288  0.1316 -0.7432
  762SOL     OW 2284   2.053   1.848   2.562  0.0831  0.1500  0.1908
  762SOL    HW1 2285   1.990   1.849   2.484 -1.1793 -0.3745 -1.2917
  762SOL    HW2 2286   2.077   1.942   2.596 -0.3840  0.5395 -1.3977
  763SOL     OW 2287   0.611   1.516   1.508  0.1074 -0.4636  0.1310
  763SOL    HW1 2288   0.678   1.438   1.505  0.1580 -2.1223  1.5277
  763SOL    HW2 2289   0.515   1.484   1.525 -0.7172 -1.1202 -0.5205
  764SOL     OW 2290   3.034   2.349   3.051 -0.2085 -0.0177  0.0939
  764SOL    HW1 2291   2.966   2.378   0.026  1.0665  0.4364 -2.9900
  764SOL    HW2 2292   3.092   2.434   3.032 -1.1212  0.4273  0.2164
  765SOL     OW 2293   0.559   3.058   1.476 -0.8569  0.0289 -0.4143
  765SOL    HW1 2294   0.515   3.006   1.399  0.7926 -3.0675  0.3141
  765SOL    HW2 2295   0.653   3.030   1.472  0.6450 -1.2902 -1.9131
  766SOL     OW 2296   0.107   2.011   1.941 -0.0362  0.0611 -0.3782
  766SOL    HW1 2297   0.139   2.105   1.968 -1.0494  2.7843  0.5696
  766SOL    HW2 2298   0.030   2.010   1.873 -0.2045  0.3377 -1.0676
  767SOL     OW 2299   2.687   1.130   1.909  0.1620  0.3814  0.0912
  767SOL    HW1 2300   2.629   1.194   1.860  0.4795 -2.2035  1.1669
  767SOL    HW2 2301   2.779   1.117   1.863 -1.0192  1.1858  0.5874
  768SOL     OW 2302   0.713   0.445   2.601 -0.1433  0.2166  0.2805
  768SOL    HW1 2303   0.651   0.430   2.680 -0.8210  0.3478 -0.1014
  768SOL    HW2 2304   0.806   0.415   2.621 -1.4419 -0.8355 -0.3879
  769SOL     OW 2305   2.168   2.682   0.954  0.3794 -0.0402  0.5911
  769SOL    HW1 2306   2.264   2.658   0.942  0.1288 -0.1914  0.1760
  769SOL    HW2 2307   2.148   2.779   0.935  0.1935 -1.2022  1.6664
  770SOL     OW 2308   2.749   0.207   2.573 -0.5739  0.2366  0.2830
  770SOL    HW1 2309   2.696   0.293   2.598  0.2598 -0.7742  0.1850
  770SOL    HW2 2310   2.850   0.219   2.600 -2.2692  1.3192 -1.6093
  771SOL     OW 2311   1.446   2.265   2.126  0.2163  0.3940  0.2213
  771SOL    HW1 2312   1.437   2.271   2.023 -2.2910  1.6424  0.5032
  771SOL    HW2 2313   1.379   2.197   2.163  0.6241 -0.0866  3.5277
  772SOL     OW 2314   1.173   0.399   0.149 -0.7325  0.0945 -0.2375
  772SOL    HW1 2315   1.101   0.329   0.138  0.7159 -0.7309 -4.2748
  772SOL    HW2 2316   1.196   0.440   0.061 -0.1422 -1.2428  1.1819
  773SOL     OW 2317   2.574   0.860   1.655  0.7119 -0.0347 -0.3404
  773SOL    HW1 2318   2.674   0.867   1.640 -3.4790 -0.1995  2.1973
  773SOL    HW2 2319   2.547   0.955   1.676 -0.9622 -2.0426  0.6836
  774SOL     OW 2320   1.026   1.098   1.012 -0.3187 -0.0694 -0.2093
  774SOL    HW1 2321   1.080   1.151   0.939  2.3244  2.7420 -1.8267
  774SOL    HW2 2322   1.075   1.011   1.028  0.8720 -3.0538 -2.9323
  775SOL     OW 2323   2.338   0.068   3.043 -0.0047 -0.1939 -0.4781
  775SOL    HW1 2324   2.390   0.126   2.974  1.9747  1.4598 -0.5363
  775SOL    HW2 2325   2.367   3.067   3.033 -0.5794  1.0375  2.5808
  776SOL     OW 2326   2.479   1.314   1.868 -0.1030  0.4641 -0.6293
  776SOL    HW1 2327   2.442   1.311   1.963  1.0703 -1.6280 -2.3842
  776SOL    HW2 2328   2.455   1.399   1.825  1.9197 -0.4645  2.1642
  777SOL     OW 2329   0.286   1.112   2.328  0.0483  0.1922 -0.4551
  777SOL    HW1 2330   0.306   1.014   2.336  1.8406 -0.3091 -0.9590
  777SOL    HW2 2331   0.360   1.154   2.275 -2.9338 -1.8030  1.2787
  778SOL     OW 2332   0.550   0.614   0.154 -0.4445 -0.1451 -0.0919
  778SOL    HW1 2333   0.590   0.531   0.119  2.8055  0.6872 -2.2021
  778SOL    HW2 2334   0.491   0.658   0.083 -1.7972 -0.6047 -0.9507
  779SOL     OW 2335   0.597   0.331   2.372  0.1139  0.1315 -0.0127
  779SOL    HW1 2336   0.621   0.347   2.469  0.2506 -0.2378 -0.7459
  779SOL    HW2 2337   0.492   0.318   2.371 -2.2378 -3.0933  2.3967
  780SOL     OW 2338   2.215   1.034   2.775  0.1464 -0.4244  0.2589
  780SOL    HW1 2339   2.315   1.061   2.781  2.0574 -1.9090 -1.0036
  780SOL    HW2 2340   2.181   1.049   2.681 -0.2120 -1.2051  2.0010
  781SOL     OW 2341   2.907   1.051   1.742  0.0337  0.3020 -0.0327
  781SOL    HW1 2342   2.893   0.981   1.671  0.9906 -0.8532  0.5129
  781SOL    HW2 2343   2.948   1.010   1.824 -0.7651  0.0081 -2.1363
  782SOL     OW 2344   0.836   1.153   2.716  0.3830 -0.1364 -0.5813
  782SOL    HW1 2345   0.737   1.156   2.750 -0.8227  0.8672  0.1756
  782SOL    HW2 2346   0.856   1.251   2.689  1.6733  0.1790 -0.5538
  783SOL     OW 2347   1.136   2.426   1.192  0.1454 -0.4235  0.5157
  783SOL    HW1 2348   1.125   2.522   1.214 -0.4684 -1.1213 -0.8360
  783SOL    HW2 2349   1.212   2.411   1.127 -0.9843 -1.8608 -0.3163
  784SOL     OW 2350   1.513   0.477   2.996 -0.5243 -0.9527  0.2337
  784SOL    HW1 2351   1.528   0.381   3.028 -0.4380  1.4429 -3.5420
  784SOL    HW2 2352   1.584   0.548   3.023 -1.6282 -0.7545  3.3178
  785SOL     OW 2353   0.739   0.072   1.988  0.4825 -0.0087  0.3947
  785SOL    HW1 2354   0.760   0.106   2.074 -0.9184  1.0404 -3.2362
  785SOL    HW2 2355   0.677   0.130   1.931  0.0745  1.6323 -2.0567
  786SOL     OW 2356   0.446   2.031   0.381 -0.2677  0.2042  0.0540
  786SOL    HW1 2357   0.370   1.964   0.386 -1.3617  0.3579 -4.3620
  786SOL    HW2 2358   0.525   2.004   0.429 -4.2603  2.2391 -2.4737
  787SOL     OW 2359   1.113   0.754   0.594 -0.4177 -0.7400  0.3854
  787SOL    HW1 2360   1.142   0.844   0.551 -1.4915 -0.1717  0.7167
  787SOL    HW2 2361   1.030   0.715   0.552  2.1389  1.1724 -0.7577
  788SOL     OW 2362   2.564   1.571   1.164  0.3824  0.2115  0.1015
  788SOL    HW1 2363   2.636   1.644   1.165  0.4576 -1.0813 -0.0456
  788SOL    HW2 2364   2.528   1.547   1.258  0.1504  1.1202 -1.0800
  789SOL     OW 2365   2.704   1.211   2.185  0.1830  0.3441 -0.0259
  789SOL    HW1 2366   2.707   1.178   2.089  0.1099 -1.7390  3.2075
  789SOL    HW2 2367   2.644   1.296   2.196  1.0778  0.8971  0.0641
  790SOL     OW 2368   0.691   0.065   0.153 -0.7919  0.1073  0.1682
  790SOL    HW1 2369   0.726   3.078   0.198  0.6885 -0.3483 -1.2280
  790SOL    HW2 2370   0.747   0.147   0.182  0.9356  1.8269  1.1607
  791SOL     OW 2371   0.136   0.578   3.004  0.3951 -0.4383  0.5212
  791SOL    HW1 2372   0.138   0.513   3.082  0.0418  1.8914 -0.9192
  791SOL    HW2 2373   0.167   0.671   3.033 -0.1080  0.2947 -0.1161
  792SOL     OW 2374   1.511   0.664   2.606  0.9261  0.0492  0.4527
  792SOL    HW1 2375   1.420   0.674   2.562 -2.1481  0.8980  0.3796
  792SOL    HW2 2376   1.585   0.683   2.540 -0.4217  0.0922  1.7550
  793SOL     OW 2377   3.015   0.372   0.801  0.4612  0.0052 -0.2335
  793SOL    HW1 2378   3.003   0.426   0.714 -1.9500  0.3543  0.6842
  793SOL    HW2 2379   2.957   0.398   0.877  3.4480 -0.1633  1.4801
  794SOL     OW 2380   0.287   0.560   1.932  0.4896 -0.5361  0.2156
  794SOL    HW1 2381   0.342   0.602   1.855  0.1235  0.8269 -1.3428
  794SOL    HW2 2382   0.185   0.575   1.913 -1.1786 -2.2324  2.2914
  795SOL     OW 2383   0.532   1.250   3.075  0.1755 -0.3285 -0.1690
  795SOL    HW1 2384   0.572   1.166   0.024  1.5301  1.4652 -1.0323
  795SOL    HW2 2385   0.613   1.313   3.066  3.0041 -0.8133 -0.7972
  796SOL     OW 2386   0.163   0.851   3.088  0.9323 -0.4005 -0.0333
  796SOL    HW1 2387   0.127   0.849   0.083  0.4735  1.4560 -1.9270
  796SOL    HW2 2388   0.195   0.943   3.065  0.4547 -1.3520 -2.4430
  797SOL     OW 2389   1.701   2.583   2.733 -0.5174 -0.7608  0.4622
  797SOL    HW1 2390   1.703   2.637   2.818 -1.1176 -2.4599 -1.3100
  797SOL    HW2 2391   1.643   2.631   2.668  0.3860 -0.3192 -0.4546
  798SOL     OW 2392   3.002   0.423   1.177 -0.0688  1.4243  0.0343
  798SOL    HW1 2393   3.058   0.478   1.111 -1.1398 -2.3711 -1.0632
  798SOL    HW2 2394   3.063   0.373   1.247  1.5860 -0.0115  0.3474
  799SOL     OW 2395   2.227   0.696   2.185 -0.5013  0.0051 -0.5145
  799SOL    HW1 2396   2.302   0.653   2.236  0.0793 -1.6310 -2.2977
  799SOL    HW2 2397   2.259   0.727   2.094 -0.8870 -3.2632  0.2191
  800SOL     OW 2398   0.154   1.907   0.507 -0.1592  0.3887 -0.1630
  800SOL    HW1 2399   0.239   1.892   0.564  0.9570 -2.5609  2.7474
  800SOL    HW2 2400   0.175   1.856   0.419 -1.4985  1.9547 -0.3727
  801SOL     OW 2401   1.510   2.167   0.709  0.0976  0.3434  0.5547
  801SOL    HW1 2402   1.535   2.118   0.621  1.0372  0.1111 -0.4410
  801SOL    HW2 2403   1.562   2.120   0.784  0.4480 -0.3238  2.0790
  802SOL     OW 2404   1.383   1.508   2.945 -0.0809  0.0932  0.7664
  802SOL    HW1 2405   1.373   1.443   3.022 -2.8162  1.3595  1.3457
  802SOL    HW2 2406   1.292   1.523   2.907  1.0021 -0.0625 -0.4041
  803SOL     OW 2407   0.443   1.894   1.751 -0.2389 -0.2067  0.4649
  803SOL    HW1 2408   0.380   1.847   1.815  2.8923  0.0729 -2.8800
  803SOL    HW2 2409   0.420   1.860   1.660 -0.0947 -0.8289  1.6610
  804SOL     OW 2410   1.572   2.512   1.078 -0.1360  0.0873 -0.9093
  804SOL    HW1 2411   1.673   2.510   1.087  2.5577  1.1943 -0.0009
  804SOL    HW2 2412   1.544   2.587   1.020 -0.0917  2.5109  0.0040
  805SOL     OW 2413   2.459   2.296   2.501 -0.1869  0.8015  0.2720
  805SOL    HW1 2414   2.556   2.305   2.485 -3.0073  0.2987  3.0046
  805SOL    HW2 2415   2.436   2.232   2.575 -0.2162  0.2287 -1.8745
  806SOL     OW 2416   2.465   2.991   0.700  0.0953  0.1161 -0.0221
  806SOL    HW1 2417   2.380   3.043   0.727 -0.5611  1.0374  0.0978
  806SOL    HW2 2418   2.529   2.983   0.776 -0.2843  1.2350  2.1962
  807SOL     OW 2419   0.228   1.126   2.590 -0.1989  0.2433 -0.0244
  807SOL    HW1 2420   0.254   1.120   2.490  0.9304 -0.5134 -2.9981
  807SOL    HW2 2421   0.137   1.176   2.603 -3.1377  1.0192  1.5799
  808SOL     OW 2422   0.740   1.889   0.666  0.2053 -0.2743 -0.0656
  808SOL    HW1 2423   0.726   1.926   0.764 -1.8788  1.5724  2.8169
  808SOL    HW2 2424   0.743   1.963   0.596  0.4292  2.3202 -0.2079
  809SOL     OW 2425   2.548   0.010   1.976  0.0749 -0.1741  0.1094
  809SOL    HW1 2426   2.498   0.057   1.904 -0.0896  2.5606  2.1392
  809SOL    HW2 2427   2.489   3.029   2.020 -1.7417 -1.5318 -0.0718
  810SOL     OW 2428   1.333   0.405   1.486  0.2795 -0.1584  0.4713
  810SOL    HW1 2429   1.256   0.352   1.445 -0.2705 -1.1200  0.2670
  810SOL    HW2 2430   1.344   0.497   1.439  0.3300  1.0325 -2.4712
  811SOL     OW 2431   1.900   0.065   1.996 -0.2781  0.1338  0.2653
  811SOL    HW1 2432   1.927   3.061   1.994 -1.7955  2.7142  1.2333
  811SOL    HW2 2433   1.808   0.084   2.035  0.8012 -0.2611 -0.1206
  812SOL     OW 2434   1.899   2.177   0.529 -0.0812  0.0913  0.2800
  812SOL    HW1 2435   1.872   2.176   0.431  1.2441 -1.6972  1.5935
  812SOL    HW2 2436   1.853   2.104   0.585 -0.3680  2.8174 -0.0541
  813SOL     OW 2437   1.091   0.493   1.756 -0.0315 -0.0496 -0.5337
  813SOL    HW1 2438   1.067   0.476   1.854 -1.7917 -0.3303  0.4732
  813SOL    HW2 2439   1.105   0.591   1.745  0.2259  0.0563 -1.3021
  814SOL     OW 2440   0.252   0.003   1.261  0.4806 -0.0368  0.3634
  814SOL    HW1 2441   0.335   3.038   1.274  1.4481  2.6029 -0.0562
  814SOL    HW2 2442   0.196   0.018   1.347  0.3236  2.6748  0.3261
  815SOL     OW 2443   0.132   0.143   0.610  0.4172  0.1930 -0.6794
  815SOL    HW1 2444   0.089   0.063   0.664 -0.1692 -0.6560  1.4761
  815SOL    HW2 2445   0.167   0.218   0.674 -2.2556  2.0607  0.6022
  816SOL     OW 2446   2.493   1.862   2.229 -0.0424 -0.3138 -0.3382
  816SOL    HW1 2447   2.439   1.837   2.150  2.9321  1.7982  2.7054
  816SOL    HW2 2448   2.437   1.867   2.311  2.5340 -0.7860 -0.3119
  817SOL     OW 2449   1.037   2.948   0.712 -0.3079  0.3581  0.3683
  817SOL    HW1 2450   1.117   2.989   0.659  2.2796  0.8386  1.5701
  817SOL    HW2 2451   1.077   2.885   0.781  0.6668  1.5113  0.5903
  818SOL     OW 2452   1.671   0.732   2.825 -0.2383 -0.0687 -0.1170
  818SOL    HW1 2453   1.604   0.746   2.750 -0.8081  1.4002  1.5739
  818SOL    HW2 2454   1.738   0.657   2.801 -0.7071  0.2687 -1.0995
  819SOL     OW 2455   2.299   0.202   0.166 -0.6773 -0.4323  0.0825
  819SOL    HW1 2456   2.351   0.288   0.186  1.2960  2.8410  1.4323
  819SOL    HW2 2457   2.306   0.168   0.069  1.2971 -0.1787 -0.5563
  820SOL     OW 2458   2.090   0.879   2.958 -0.3966 -0.0367  0.0897
  820SOL    HW1 2459   2.105   0.781   2.929 -0.0809 -0.2995  1.3192
  820SOL    HW2 2460   2.147   0.940   2.900 -1.1317 -1.2999  0.0794
  821SOL     OW 2461   2.787   0.445   0.960 -0.1647  0.6682  0.0281
  821SOL    HW1 2462   2.744   0.399   1.042 -1.2451 -0.5165  0.7235
  821SOL    HW2 2463   2.860   0.514   0.988  0.6501  0.5636  1.3405
  822SOL     OW 2464   1.131   2.529   2.432 -0.5608 -0.1991 -0.8952
  822SOL    HW1 2465   1.152   2.433   2.405  2.7134  1.0066  0.2827
  822SOL    HW2 2466   1.071   2.526   2.516 -2.5916 -0.5702  0.0145
  823SOL     OW 2467   0.384   1.398   1.596  0.5050  0.3152 -0.0881
  823SOL    HW1 2468   0.412   1.307   1.628  0.1161 -0.1752  1.7273
  823SOL    HW2 2469   0.354   1.450   1.679  1.4109  0.6845 -0.0177
  824SOL     OW 2470   1.530   2.688   2.497 -0.3659 -0.0023  0.7896
  824SOL    HW1 2471   1.570   2.662   2.409 -0.6079  0.5471 -2.1991
  824SOL    HW2 2472   1.568   2.781   2.526  3.8952  0.3357  1.8702
  825SOL     OW 2473   1.660   0.797   0.401 -0.2029 -0.6356 -0.1159
  825SOL    HW1 2474   1.684   0.703   0.390 -0.6503  0.3772  1.0121
  825SOL    HW2 2475   1.720   0.854   0.341 -3.3110 -1.2475  3.6173
  826SOL     OW 2476   2.084   0.850   0.166  0.4187 -0.0864  0.0342
  826SOL    HW1 2477   2.019   0.787   0.120 -0.6068 -0.2050  1.5432
  826SOL    HW2 2478   2.174   0.850   0.116  0.8057 -1.8406  1.1927
  827SOL     OW 2479   0.888   1.380   2.566  0.1025 -0.2633 -0.0731
  827SOL    HW1 2480   0.823   1.450   2.528  1.6435 -1.8358 -3.0387
  827SOL    HW2 2481   0.978   1.421   2.586 -0.5085  1.1789  0.3017
  828SOL     OW 2482   2.445   1.495   1.403 -0.4693 -0.5542  0.2709
  828SOL    HW1 2483   2.421   1.561   1.473 -0.1378  0.4263 -4.3991
  828SOL    HW2 2484   2.496   1.415   1.445  1.8431 -3.5014  1.1802
  829SOL     OW 2485   0.452   1.602   0.728  0.8703 -0.1244  0.8598
  829SOL    HW1 2486   0.366   1.544   0.740 -0.7449 -0.0421 -1.9078
  829SOL    HW2 2487   0.491   1.638   0.814 -0.8172  0.0098 -0.8530
  830SOL     OW 2488   1.290   0.938   1.168  0.7724  0.5527  0.9752
  830SOL    HW1 2489   1.364   0.984   1.112  0.7329 -0.1955  1.0375
  830SOL    HW2 2490   1.332   0.909   1.258  1.0444  1.2171  0.1782
  831SOL     OW 2491   0.113   1.672   0.057  0.2459 -0.2517 -0.0816
  831SOL    HW1 2492   0.016   1.688   0.078  2.3386 -1.5153 -0.9815
  831SOL    HW2 2493   0.129   1.602   3.084  1.2716 -2.5921 -1.0117
  832SOL     OW 2494   0.751   0.334   0.222  0.3573  0.6435 -0.0055
  832SOL    HW1 2495   0.731   0.305   0.318 -1.6767 -0.1012 -0.9453
  832SOL    HW2 2496   0.850   0.360   0.226 -0.3255  0.3300 -0.1113
  833SOL     OW 2497   0.736   0.500   1.967 -0.4132 -0.4069 -0.4461
  833SOL    HW1 2498   0.743   0.598   1.971 -0.4381 -3.5893 -2.2361
  833SOL    HW2 2499   0.745   0.475   1.871  0.3520  0.8768 -2.3814
  834SOL     OW 2500   0.203   0.314   0.838  0.0378  0.5951 -0.3597
  834SOL    HW1 2501   0.105   0.329   0.855  0.1265 -0.4512  0.1343
  834SOL    HW2 2502   0.241   0.254   0.910  0.9260  0.9064 -0.1053
  835SOL     OW 2503   2.573   0.066   1.077 -0.4449  0.3771 -0.5257
  835SOL    HW1 2504   2.599   0.156   1.117  0.6871  1.6215 -5.0121
  835SOL    HW2 2505   2.598   0.063   0.981  0.3651  1.6322  2.5340
  836SOL     OW 2506   0.530   1.935   3.015  0.6169  0.4645  0.5077
  836SOL    HW1 2507   0.563   2.035   3.017  1.0040  2.5008 -0.2017
  836SOL    HW2 2508   0.450   1.920   3.071 -2.0622  0.3143  0.9700
  837SOL     OW 2509   1.711   1.426   2.640 -0.3391 -0.5075  0.5303
  837SOL    HW1 2510   1.787   1.390   2.583  0.0586 -2.9303  1.0542
  837SOL    HW2 2511   1.751   1.489   2.711  0.0740 -0.0530  0.3300
  838SOL     OW 2512   3.084   0.977   1.480  0.1217  0.7095 -0.6905
  838SOL    HW1 2513   3.034   1.044   1.418  2.1767  2.7404 -0.9058
  838SOL    HW2 2514   0.064   1.022   1.536 -0.3749  1.5452  2.8067
  839SOL     OW 2515   0.814   1.106   0.844 -0.1646 -0.5999 -0.6331
  839SOL    HW1 2516   0.806   1.210   0.833 -5.2103  1.0124 -1.3207
  839SOL    HW2 2517   0.885   1.077   0.915 -0.4979  1.6394  0.1839
  840SOL     OW 2518   1.386   2.785   1.746  0.1688  0.5427  0.2128
  840SOL    HW1 2519   1.387   2.692   1.703  0.5040  3.6115  1.6252
  840SOL    HW2 2520   1.416   2.851   1.675  0.6923 -0.8611 -1.9661
  841SOL     OW 2521   0.569   2.460   0.402  0.0129  0.4269  0.2593
  841SOL    HW1 2522   0.530   2.551   0.421 -0.9257 -3.0774 -0.8532
  841SOL    HW2 2523   0.489   2.388   0.399 -2.2153 -0.6458  1.1765
  842SOL     OW 2524   0.530   0.515   0.910  0.2939 -0.7116 -0.0924
  842SOL    HW1 2525   0.493   0.558   0.993  1.3222 -1.7682 -3.2266
  842SOL    HW2 2526   0.628   0.487   0.926 -1.2254 -1.1006  0.4584
  843SOL     OW 2527   0.983   1.204   2.235 -0.0379 -0.2145 -0.4680
  843SOL    HW1 2528   0.893   1.185   2.274  1.2779 -1.2566  0.4652
  843SOL    HW2 2529   1.054   1.143   2.278  0.6399  1.6724 -1.2776
  844SOL     OW 2530   1.173   2.335   2.913  0.3952  0.3336  0.1267
  844SOL    HW1 2531   1.254   2.289   2.884 -0.1049  1.7180 -1.0103
  844SOL    HW2 2532   1.181   2.434   2.906  1.1078 -1.3969  0.0735
  845SOL     OW 2533   2.388   2.551   2.488 -0.0745  0.4077  0.3327
  845SOL    HW1 2534   2.441   2.593   2.411  3.0854 -1.7259 -1.9872
  845SOL    HW2 2535   2.404   2.450   2.495 -1.6505  1.3758  0.6604
  846SOL     OW 2536   1.704   1.899   2.876 -0.1286  0.0028  0.0963
  846SOL    HW1 2537   1.676   1.915   2.780  0.1472  0.9112  0.9764
  846SOL    HW2 2538   1.652   1.821   2.918  2.6303 -1.1936 -0.4021
  847SOL     OW 2539   2.067   3.047   2.894  0.5750  0.7763  0.1240
  847SOL    HW1 2540   2.088   2.991   2.977  1.0595  0.4593  0.9778
  847SOL    HW2 2541   2.103   0.043   2.906 -0.0085 -2.9168 -1.5379
  848SOL     OW 2542   0.311   0.548   0.752  0.1445 -0.1101  0.3947
  848SOL    HW1 2543   0.402   0.547   0.799 -2.1211  1.6555 -0.9974
  848SOL    HW2 2544   0.250   0.479   0.792 -1.5824 -1.4017  1.1048
  849SOL     OW 2545   1.181   2.751   1.521 -0.7739  0.1887  0.2987
  849SOL    HW1 2546   1.125   2.811   1.578 -1.6248 -0.2311 -3.7921
  849SOL    HW2 2547   1.221   2.668   1.562 -1.3421  1.0864  0.5914
  850SOL     OW 2548   0.443   1.612   0.265 -0.2432 -0.0735  0.0866
  850SOL    HW1 2549   0.431   1.517   0.235  1.7050  1.7230 -0.3501
  850SOL    HW2 2550   0.536   1.649   0.246  0.9517  0.6484 -0.1918
  851SOL     OW 2551   0.155   0.988   0.763 -0.9532 -0.3741  0.4737
  851SOL    HW1 2552   0.175   0.958   0.665  0.8938 -3.3513 -0.5967
  851SOL    HW2 2553   0.057   0.997   0.779 -0.9853  0.8429 -2.9971
  852SOL     OW 2554   1.822   2.342   1.577 -0.0717 -0.3763  0.1147
  852SOL    HW1 2555   1.734   2.303   1.613 -1.1493  2.5506 -4.6836
  852SOL    HW2 2556   1.877   2.270   1.531  1.3772  1.6007  1.0483
  853SOL     OW 2557   0.378   1.355   0.175  0.3758  0.3273 -0.4568
  853SOL    HW1 2558   0.430   1.322   0.096 -0.1211  0.3039  1.9160
  853SOL    HW2 2559   0.314   1.286   0.218  1.2611 -0.5394 -2.6178
  854SOL     OW 2560   1.545   1.071   1.777 -0.2610  0.0717  0.1086
  854SOL    HW1 2561   1.448   1.055   1.801  1.3718  0.3646 -1.4109
  854SOL    HW2 2562   1.556   1.167   1.744  1.5488 -0.0358  0.4012
  855SOL     OW 2563   0.593   2.471   2.973 -0.5469  0.3647 -0.1618
  855SOL    HW1 2564   0.490   2.472   2.978 -0.0875 -1.2983 -0.9508
  855SOL    HW2 2565   0.639   2.479   3.065  1.2151 -4.5242  2.0157
  856SOL     OW 2566   0.042   0.631   1.843 -0.8125  0.1714 -0.5856
  856SOL    HW1 2567   3.067   0.701   1.852 -1.1805  1.1603  0.7142
  856SOL    HW2 2568   0.037   0.592   1.749  0.9137 -0.0827  0.5000
  857SOL     OW 2569   0.607   1.181   1.952 -0.6479  0.1204  0.1185
  857SOL    HW1 2570   0.597   1.105   2.016  0.7608 -0.1555 -0.4249
  857SOL    HW2 2571   0.567   1.265   1.990 -1.2817 -1.7428 -2.4797
  858SOL     OW 2572   0.489   1.261   2.222 -0.3986  0.5122  0.4429
  858SOL    HW1 2573   0.566   1.228   2.279 -0.7141 -0.6046 -0.0718
  858SOL    HW2 2574   0.507   1.347   2.171  1.1023 -0.1176 -0.0892
  859SOL     OW 2575   2.662   0.144   0.821 -0.4730  0.2190  0.5295
  859SOL    HW1 2576   2.661   0.246   0.816 -1.5211 -0.3419 -1.1131
  859SOL    HW2 2577   2.681   0.104   0.724 -0.3014 -1.3551 -3.2228
  860SOL     OW 2578   2.142   2.673   0.030 -0.3175 -0.1158 -0.2834
  860SOL    HW1 2579   2.103   2.746   0.089 -1.4051  0.7378 -1.9362
  860SOL    HW2 2580   2.235   2.646   0.049 -0.5261 -0.0235 -0.5448
  861SOL     OW 2581   0.405   0.498   0.502 -0.2288  0.0219  0.0823
  861SOL    HW1 2582   0.392   0.575   0.434  0.1546  0.2794  0.0691
  861SOL    HW2 2583   0.371   0.519   0.597  1.2419  2.5639 -1.4507
  862SOL     OW 2584   1.440   0.189   2.000  0.2336  0.4519  0.2603
  862SOL    HW1 2585   1.465   0.094   1.964  0.5755  0.2351  0.8520
  862SOL    HW2 2586   1.380   0.241   1.936  0.4495 -0.3996  2.0090
  863SOL     OW 2587   2.561   2.227   1.084 -0.1115  0.3570  0.7585
  863SOL    HW1 2588   2.467   2.252   1.058  2.3905  1.3196  0.5902
  863SOL    HW2 2589   2.612   2.307   1.124  0.2171 -1.6299  1.0068
  864SOL     OW 2590   2.438   2.864   2.053  0.2808  0.2611 -0.5792
  864SOL    HW1 2591   2.344   2.884   2.027  5.4818  3.3755 -1.0819
  864SOL    HW2 2592   2.475   2.809   1.978 -1.6322  0.3471  3.5103
  865SOL     OW 2593   0.991   0.281   1.613  0.0942 -0.7903 -0.1687
  865SOL    HW1 2594   1.023   0.202   1.667 -1.1474 -0.6287  0.2478
  865SOL    HW2 2595   1.043   0.366   1.640 -0.1162 -0.0814  2.5595
  866SOL     OW 2596   2.081   2.977   0.931 -0.1384  0.0969  0.3296
  866SOL    HW1 2597   2.123   3.021   0.847 -0.0472  1.2626 -3.1170
  866SOL    HW2 2598   2.073   3.040   1.008  0.3693 -2.4661  0.1369
  867SOL     OW 2599   2.596   2.569   0.500 -0.0628  0.0070  0.2518
  867SOL    HW1 2600   2.683   2.541   0.454 -1.3512 -4.0052  1.2684
  867SOL    HW2 2601   2.580   2.518   0.586  2.2057 -1.1637  2.5949
  868SOL     OW 2602   0.957   1.945   1.690 -0.1203 -0.3913 -0.3148
  868SOL    HW1 2603   1.020   1.960   1.768  0.3446  0.7759 -0.4370
  868SOL    HW2 2604   0.899   1.865   1.700  0.2198 -0.6616  4.2534
  869SOL     OW 2605   1.977   2.524   0.231  0.2357  0.0345  0.5253
  869SOL    HW1 2606   2.035   2.454   0.180  2.2361  3.5682  0.2991
  869SOL    HW2 2607   2.041   2.587   0.275  1.0244 -0.8691  0.0501
  870SOL     OW 2608   2.220   2.086   0.900  0.2570  0.0006 -0.2630
  870SOL    HW1 2609   2.219   2.098   0.798 -2.5376  0.3539 -1.3699
  870SOL    HW2 2610   2.265   1.999   0.930 -0.3580 -0.0912 -0.8171
  871SOL     OW 2611   0.254   1.608   1.420  0.0967 -0.4755 -0.0138
  871SOL    HW1 2612   0.329   1.674   1.443 -1.1691  0.3352 -0.9086
  871SOL    HW2 2613   0.267   1.526   1.480  2.1807 -0.9903  2.9311
  872SOL     OW 2614   0.731   1.161   2.350  0.0839  0.0819  0.3569
  872SOL    HW1 2615   0.783   1.217   2.417  1.0765  1.3644 -2.3713
  872SOL    HW2 2616   0.705   1.068   2.381 -0.4567 -1.4443  2.1743
  873SOL     OW 2617   0.929   2.302   1.558 -0.3509 -0.0808 -0.0584
  873SOL    HW1 2618   0.855   2.371   1.584 -0.4069  0.2983 -1.2444
  873SOL    HW2 2619   1.019   2.352   1.536  0.2509 -0.7514 -0.4838
  874SOL     OW 2620   1.378   0.961   2.059 -0.3019  0.0503  0.0552
  874SOL    HW1 2621   1.459   1.028   2.055  1.7180 -0.0773  1.2073
  874SOL    HW2 2622   1.406   0.873   2.020 -0.3556  1.7494  0.0628
  875SOL     OW 2623   2.795   2.835   1.104 -0.0076 -0.0879  0.1696
  875SOL    HW1 2624   2.722   2.851   1.173  2.0167  1.6290 -0.7739
  875SOL    HW2 2625   2.853   2.920   1.101  1.6208 -0.6843  0.2102
  876SOL     OW 2626   1.105   1.426   0.611 -0.0576  0.2409 -0.7426
  876SOL    HW1 2627   1.099   1.370   0.526 -1.6308  3.5881 -1.3810
  876SOL    HW2 2628   1.024   1.484   0.624  1.7366 -2.1257  2.1119
  877SOL     OW 2629   2.601   0.356   1.148 -0.2583 -0.1364 -0.6664
  877SOL    HW1 2630   2.546   0.429   1.196 -0.7748  0.7581  1.6618
  877SOL    HW2 2631   2.676   0.312   1.208  0.4700  1.8431 -0.3813
  878SOL     OW 2632   2.303   1.579   0.172 -0.0017 -0.2290  0.1105
  878SOL    HW1 2633   2.358   1.505   0.218  2.3709  0.0566  0.8265
  878SOL    HW2 2634   2.292   1.662   0.231  0.0125 -0.5591 -2.7780
  879SOL     OW 2635   2.641   1.899   1.248  0.1408  0.3971 -1.1350
  879SOL    HW1 2636   2.682   1.809   1.259  0.0461  0.0768 -0.0863
  879SOL    HW2 2637   2.673   1.940   1.161  0.8275 -0.4314  0.3714
  880SOL     OW 2638   0.200   2.520   0.880  0.0694  0.3192  1.0222
  880SOL    HW1 2639   0.236   2.513   0.977 -0.3251  3.7720  2.5242
  880SOL    HW2 2640   0.273   2.557   0.817  1.1420 -0.1609  0.0678
  881SOL     OW 2641   1.410   1.139   0.921 -0.4350 -0.0566 -0.1244
  881SOL    HW1 2642   1.445   1.223   0.867  0.6549  5.2876 -2.2540
  881SOL    HW2 2643   1.310   1.128   0.900 -2.0138 -1.0495 -1.8898
  882SOL     OW 2644   2.706   1.017   2.685  0.5138  0.2415 -0.3581
  882SOL    HW1 2645   2.638   1.019   2.604  1.6104  2.4735  0.2342
  882SOL    HW2 2646   2.742   0.925   2.690 -4.0077 -0.5740  0.2429
  883SOL     OW 2647   1.288   3.077   1.304  0.3110 -0.0545  0.0652
  883SOL    HW1 2648   1.283   2.990   1.250  0.3095 -0.3485  0.6973
  883SOL    HW2 2649   1.281   0.069   1.245 -4.7744  1.1563  0.5094
  884SOL     OW 2650   2.934   0.099   0.866  0.5270 -0.0897  0.2166
  884SOL    HW1 2651   2.831   0.110   0.865 -0.5339  1.9390  0.6943
  884SOL    HW2 2652   2.971   0.193   0.848 -1.2668  0.5178  1.0312
  885SOL     OW 2653   1.375   0.664   1.391 -0.6442 -0.0206 -0.3430
  885SOL    HW1 2654   1.372   0.751   1.448 -0.7066 -1.4853  0.4330
  885SOL    HW2 2655   1.436   0.682   1.310  0.2211 -0.9979 -2.8664
  886SOL     OW 2656   1.586   0.788   3.078 -0.1742 -0.1322  0.6573
  886SOL    HW1 2657   1.614   0.780   2.978  0.4141 -0.4784  2.1657
  886SOL    HW2 2658   1.546   0.878   0.004  0.0457 -1.6997 -1.4079
  887SOL     OW 2659   1.599   0.378   1.360  0.0541 -0.2698  0.1567
  887SOL    HW1 2660   1.669   0.438   1.404 -1.7615 -0.3551 -0.5516
  887SOL    HW2 2661   1.510   0.386   1.414 -1.1824  1.8093  2.3108
  888SOL     OW 2662   2.123   1.640   1.975 -0.2327 -0.6690  0.0543
  888SOL    HW1 2663   2.120   1.632   2.077  1.5076  0.9253 -0.7654
  888SOL    HW2 2664   2.029   1.645   1.942  0.4525 -0.4466 -0.1006
  889SOL     OW 2665   2.109   1.848   0.729  0.0317 -0.2286 -0.0663
  889SOL    HW1 2666   2.072   1.883   0.814 -0.3711  0.3431 -3.7015
  889SOL    HW2 2667   2.152   1.929   0.682 -1.9499  0.8499 -2.0380
  890SOL     OW 2668   1.143   1.816   1.058 -0.6045 -0.4275 -0.3303
  890SOL    HW1 2669   1.229   1.761   1.041  1.2236 -2.7088 -2.9600
  890SOL    HW2 2670   1.102   1.787   1.149 -2.5071 -0.3711  0.8392
  891SOL     OW 2671   2.421   0.592   2.349 -0.8189  0.1009  0.5120
  891SOL    HW1 2672   2.517   0.595   2.385  0.7483 -1.7348  1.4005
  891SOL    HW2 2673   2.403   0.502   2.300 -1.2530 -3.9531 -1.7517
  892SOL     OW 2674   1.047   0.384   2.279 -0.2466 -0.0473  0.2726
  892SOL    HW1 2675   1.128   0.321   2.298  0.9634 -0.1325 -2.6534
  892SOL    HW2 2676   1.029   0.454   2.346  1.1936  0.7773 -0.9418
  893SOL     OW 2677   1.595   0.113   1.329 -0.2339 -0.3041 -0.1862
  893SOL    HW1 2678   1.607   0.074   1.422  3.1262  0.2760  1.1563
  893SOL    HW2 2679   1.619   0.212   1.331  1.2447  0.3818 -1.0156
  894SOL     OW 2680   2.471   0.637   0.739  0.6072 -0.2019  0.0069
  894SOL    HW1 2681   2.385   0.641   0.799 -0.4956  0.1794  0.6320
  894SOL    HW2 2682   2.443   0.627   0.640  1.8749 -0.4585  3.0694
  895SOL     OW 2683   1.965   2.543   2.643 -0.3751  0.1738 -0.2059
  895SOL    HW1 2684   2.024   2.567   2.725  0.2835 -0.2877 -0.7346
  895SOL    HW2 2685   1.872   2.578   2.663  0.0194 -0.1966  0.3613
  896SOL     OW 2686   1.717   2.873   1.544 -0.6989 -0.0921 -0.0304
  896SOL    HW1 2687   1.619   2.902   1.547 -1.0684  0.4673  1.7199
  896SOL    HW2 2688   1.729   2.823   1.453  1.3279 -0.1862  1.7266
  897SOL     OW 2689   0.659   1.925   2.074  0.1223 -0.5030  0.3099
  897SOL    HW1 2690   0.618   1.852   2.129 -1.3813 -0.4881 -3.6616
  897SOL    HW2 2691   0.581   1.968   2.023  0.8050 -0.9873 -1.9102
  898SOL     OW 2692   2.344   1.817   2.003  0.2309  0.1649  0.0114
  898SOL    HW1 2693   2.261   1.761   2.001  4.3020  0.3153 -0.2199
  898SOL    HW2 2694   2.414   1.784   1.939 -2.7939  0.1296  1.1100
  899SOL     OW 2695   1.752   2.350   0.725 -0.4312  0.2150  0.0742
  899SOL    HW1 2696   1.661   2.333   0.688 -0.1849 -0.4963 -0.4270
  899SOL    HW2 2697   1.823   2.314   0.663 -1.0990 -2.6269 -1.5764
  900SOL     OW 2698   0.995   0.185   0.094  0.0649 -0.0551  0.2921
  900SOL    HW1 2699   0.982   0.137   0.005 -1.2617  1.1682  0.3865
  900SOL    HW2 2700   1.004   0.124   0.174 -1.0872 -2.8899  4.6770
  901SOL     OW 2701   1.185   1.824   2.123  0.5529 -0.1292 -0.3307
  901SOL    HW1 2702   1.106   1.811   2.182  0.9754 -1.3674 -0.1116
  901SOL    HW2 2703   1.262   1.763   2.150  3.7259  0.1327  1.2600
  902SOL     OW 2704   2.354   0.579   2.993  0.2109  0.8475 -0.1820
  902SOL    HW1 2705   2.421   0.626   2.935 -0.6913  1.2944  2.1273
  902SOL    HW2 2706   2.397   0.508   3.055 -1.8539 -1.1746  2.9356
  903SOL     OW 2707   2.087   0.944   2.244 -0.3537  0.3339 -0.0542
  903SOL    HW1 2708   2.169   0.897   2.207  1.9939  2.1331  0.4911
  903SOL    HW2 2709   2.099   0.958   2.345  2.5191 -1.9569  0.9682
  904SOL     OW 2710   1.651   0.876   1.949  0.1507 -0.3827 -0.4254
  904SOL    HW1 2711   1.618   0.954   1.893  1.3413 -0.1114  2.7942
  904SOL    HW2 2712   1.722   0.912   2.010 -0.8917  1.2734  2.4741
  905SOL     OW 2713   2.110   0.185   1.569  0.9096 -0.3762  0.4117
  905SOL    HW1 2714   2.129   0.088   1.538 -0.2336  0.6697  1.5912
  905SOL    HW2 2715   2.009   0.199   1.563 -1.4803 -1.6083 -0.5781
  906SOL     OW 2716   2.057   1.927   0.378 -0.2955 -0.3136  0.3183
  906SOL    HW1 2717   1.955   1.918   0.382 -2.3680 -2.9320  0.7581
  906SOL    HW2 2718   2.094   1.838   0.397 -0.2700  1.9382 -1.5319
  907SOL     OW 2719   1.160   2.744   0.856  0.1683 -0.1697  0.0501
  907SOL    HW1 2720   1.240   2.684   0.827  2.8674 -4.5185  0.2927
  907SOL    HW2 2721   1.085   2.694   0.891  2.4253 -1.9059 -2.1029
  908SOL     OW 2722   1.763   2.208   2.587  0.5143  0.3756  0.2262
  908SOL    HW1 2723   1.851   2.235   2.558 -1.0662  0.3668  1.5181
  908SOL    HW2 2724   1.686   2.241   2.524 -3.3637 -1.1017 -1.4961
  909SOL     OW 2725   2.206   0.429   2.008  0.2137 -0.0159 -0.6067
  909SOL    HW1 2726   2.114   0.464   1.983  0.4695  0.9810  2.2933
  909SOL    HW2 2727   2.281   0.460   1.946 -1.0943 -0.7680  1.9860
  910SOL     OW 2728   1.215   0.771   2.880  0.2484  0.0754  0.4506
  910SOL    HW1 2729   1.241   0.682   2.926  0.5716 -2.4878  1.6908
  910SOL    HW2 2730   1.214   0.852   2.942 -0.6908  3.0551  1.2600
  911SOL     OW 2731   3.073   0.884   2.875  0.4922 -0.2411 -0.8938
  911SOL    HW1 2732   0.019   0.852   2.968  0.9185 -3.1588 -0.5565
  911SOL    HW2 2733   3.005   0.957   2.893  0.0859 -0.1943 -0.9202
  912SOL     OW 2734   0.078   2.670   0.561  0.1399 -0.5091 -0.1461
  912SOL    HW1 2735   0.099   2.574   0.546  1.8993  1.6105 -2.0206
  912SOL    HW2 2736   0.047   2.686   0.655 -0.1220 -1.1421 -3.0971
  913SOL     OW 2737   2.716   1.921   2.376 -0.5719  0.2884 -0.3588
  913SOL    HW1 2738   2.636   1.896   2.326  3.8941  0.6757  1.0510
  913SOL    HW2 2739   2.774   1.992   2.335 -0.5076 -2.5044 -0.0798
  914SOL     OW 2740   1.897   1.240   1.046 -0.0982  0.1565  0.3167
  914SOL    HW1 2741   1.948   1.192   0.970 -0.0097  1.5569 -1.3470
  914SOL    HW2 2742   1.799   1.215   1.041  1.6288  1.8141  1.2766
  915SOL     OW 2743   0.351   2.656   2.273  0.4123 -0.1249 -0.2595
  915SOL    HW1 2744   0.376   2.575   2.328 -2.9700 -1.1568  0.2431
  915SOL    HW2 2745   0.413   2.734   2.287  1.2361 -1.1349 -0.0651
  916SOL     OW 2746   0.854   3.027   1.463 -0.6382  0.0309  1.2291
  916SOL    HW1 2747   0.846   3.005   1.365 -2.1118 -1.9965 -2.3260
  916SOL    HW2 2748   0.942   3.082   1.491  2.9174  0.3579  0.4068
  917SOL     OW 2749   2.309   0.773   0.342  0.0475 -0.1632  0.1944
  917SOL    HW1 2750   2.376   0.839   0.378  4.3734 -3.2560  0.2581
  917SOL    HW2 2751   2.327   0.760   0.243 -0.7297 -2.3297  1.3873
  918SOL     OW 2752   1.680   2.321   2.833  0.0675  0.4024 -0.0377
  918SOL    HW1 2753   1.694   2.421   2.818  0.6625  1.4938  0.1161
  918SOL    HW2 2754   1.735   2.264   2.765  0.7511  1.6844 -2.7547
  919SOL     OW 2755   1.737   2.736   1.301  0.3643  0.1261  0.3757
  919SOL    HW1 2756   1.751   2.830   1.268  1.8977 -1.0705 -1.8299
  919SOL    HW2 2757   1.776   2.666   1.234  1.4305 -2.7371 -1.2866
  920SOL     OW 2758   1.308   0.252   2.320 -0.5690  0.2326  0.5804
  920SOL    HW1 2759   1.339   0.239   2.419 -0.2804 -1.8563  3.2802
  920SOL    HW2 2760   1.288   0.162   2.278 -1.4359  0.3580  0.0086
  921SOL     OW 2761   3.068   0.889   2.571  0.2988  0.0491  0.1352
  921SOL    HW1 2762   3.048   0.975   2.524 -2.1595 -1.6825  0.6579
  921SOL    HW2 2763   0.007   0.902   2.668  1.0427 -0.0574  0.5968
  922SOL     OW 2764   0.117   2.237   1.021  0.5256 -0.7036 -0.4585
  922SOL    HW1 2765   0.019   2.230   0.991 -0.3310  2.2948 -4.4424
  922SOL    HW2 2766   0.171   2.300   0.960  1.3016 -1.6098 -0.8299
  923SOL     OW 2767   0.584   1.623   1.785  0.5613 -0.5404  0.3562
  923SOL    HW1 2768   0.555   1.719   1.766  1.4569  0.7010  1.3587
  923SOL    HW2 2769   0.630   1.577   1.706 -2.1428 -1.2302 -1.4315
  924SOL     OW 2770   1.622   2.930   2.591  0.0504  0.1776 -0.2192
  924SOL    HW1 2771   1.536   2.958   2.637 -0.7730 -0.7160 -2.4666
  924SOL    HW2 2772   1.701   2.951   2.652  0.5895 -0.3507 -0.7687
  925SOL     OW 2773   2.668   1.746   0.851 -0.0955 -0.2484 -0.0317
  925SOL    HW1 2774   2.674   1.689   0.769  0.9412  0.3668  2.6963
  925SOL    HW2 2775   2.761   1.759   0.888  1.5843  3.2389  2.3031
  926SOL     OW 2776   2.232   0.833   1.055 -0.4318 -0.0813  0.0253
  926SOL    HW1 2777   2.237   0.742   1.016 -1.2535  1.6504  2.0661
  926SOL    HW2 2778   2.302   0.897   1.013  1.8414 -1.4228  0.6766
  927SOL     OW 2779   1.923   0.186   1.307  0.5902 -0.1587  0.1977
  927SOL    HW1 2780   1.943   0.284   1.328 -0.1563  3.2317 -1.2221
  927SOL    HW2 2781   1.894   0.134   1.391  0.2725  0.6699  1.6937
  928SOL     OW 2782   0.094   0.905   2.152  0.0547  0.2683  0.2165
  928SOL    HW1 2783   0.058   0.811   2.167  0.3612  1.6917 -0.1921
  928SOL    HW2 2784   0.186   0.905   2.110  0.9997  0.6969  0.2008
  929SOL     OW 2785   2.342   1.006   1.276  0.2733 -0.2979 -0.6009
  929SOL    HW1 2786   2.303   0.949   1.204 -2.6802 -0.3924  0.3562
  929SOL    HW2 2787   2.429   1.047   1.244  0.4982 -0.1457 -1.9073
  930SOL     OW 2788   2.550   2.449   1.914  0.0535  0.0696  0.5110
  930SOL    HW1 2789   2.656   2.449   1.913  0.1145 -0.9473  2.3308
  930SOL    HW2 2790   2.514   2.403   1.831 -0.2874 -1.0666 -0.3720
  931SOL     OW 2791   2.142   1.110   1.462  0.4180 -0.1830  0.5711
  931SOL    HW1 2792   2.226   1.066   1.425  1.2149  0.7693  0.3347
  931SOL    HW2 2793   2.094   1.157   1.384  0.0188  1.3495 -0.0073
  932SOL     OW 2794   0.418   0.765   1.781 -0.1990  0.1423  0.3660
  932SOL    HW1 2795   0.408   0.839   1.710  0.6099  1.0305 -1.4909
  932SOL    HW2 2796   0.369   0.799   1.863 -0.6249  0.7248 -0.0073
  933SOL     OW 2797   2.362   2.058   1.717  0.0791 -0.0679 -0.1505
  933SOL    HW1 2798   2.461   2.051   1.744 -3.0436 -0.5143  1.8296
  933SOL    HW2 2799   2.296   2.040   1.796  1.4770 -1.1135  3.9977
  934SOL     OW 2800   0.764   2.174   1.845 -0.2725 -0.1806 -0.0600
  934SOL    HW1 2801   0.838   2.195   1.915  5.2035  0.0848  0.6219
  934SOL    HW2 2802   0.797   2.105   1.774  2.2682 -0.9241 -1.2536
  935SOL     OW 2803   0.234   1.516   1.784  0.2217  0.3572 -0.3315
  935SOL    HW1 2804   0.152   1.458   1.813  1.7704 -1.3572  1.1217
  935SOL    HW2 2805   0.229   1.612   1.824  1.0928  0.6562  0.2671
  936SOL     OW 2806   2.756   0.970   1.213  0.7376  0.2774 -0.1587
  936SOL    HW1 2807   2.691   1.049   1.220  0.9849  0.8978  1.6339
  936SOL    HW2 2808   2.700   0.886   1.199 -2.6219 -1.4605 -0.8348
  937SOL     OW 2809   1.834   0.516   1.516 -0.1863 -0.2730  0.4997
  937SOL    HW1 2810   1.820   0.620   1.515 -0.0018  0.2680  0.1021
  937SOL    HW2 2811   1.837   0.480   1.613  2.1139 -1.2173 -1.8303
  938SOL     OW 2812   0.544   2.727   0.420  0.3460 -0.1157  0.2266
  938SOL    HW1 2813   0.532   2.782   0.333 -1.8363  1.3927 -3.0363
  938SOL    HW2 2814   0.585   2.791   0.492 -1.0899 -0.2079  1.1246
  939SOL     OW 2815   3.035   1.951   2.686 -0.5638  0.0737  0.3245
  939SOL    HW1 2816   3.057   1.858   2.724  0.1780  0.4901 -1.8684
  939SOL    HW2 2817   3.060   2.026   2.747  0.2777 -3.5158  2.8447
  940SOL     OW 2818   1.357   1.982   0.416  0.7524 -0.2993  0.5031
  940SOL    HW1 2819   1.454   2.001   0.429 -1.7572 -1.4804  2.9972
  940SOL    HW2 2820   1.313   2.070   0.380 -0.7568  0.7913 -0.2232
  941SOL     OW 2821   2.162   2.662   0.406 -0.6812 -0.1375  0.0384
  941SOL    HW1 2822   2.196   2.762   0.417  3.5896  4.2208  0.4293
  941SOL    HW2 2823   2.199   2.600   0.480 -0.2246 -0.3823 -0.3029
  942SOL     OW 2824   1.721   1.779   0.820  0.1506  0.3804  0.5216
  942SOL    HW1 2825   1.728   1.715   0.902 -0.4781 -1.8505  2.2627
  942SOL    HW2 2826   1.677   1.868   0.844 -0.7349  1.5776 -1.2908
  943SOL     OW 2827   2.214   0.904   1.701 -0.1316  0.3054 -0.0763
  943SOL    HW1 2828   2.242   0.851   1.621 -1.3375  1.6348  1.4853
  943SOL    HW2 2829   2.115   0.924   1.704  1.7793  2.0334  1.5949
  944SOL     OW 2830   1.267   0.652   2.022  0.4339 -0.1549  0.7579
  944SOL    HW1 2831   1.301   0.618   2.110 -0.3539  0.8784 -1.2383
  944SOL    HW2 2832   1.325   0.613   1.949  0.0456  1.5280 -2.3186
  945SOL     OW 2833   2.198   2.629   1.529  0.0219 -0.0713  0.3477
  945SOL    HW1 2834   2.289   2.663   1.558  0.0346  0.8035  1.0903
  945SOL    HW2 2835   2.148   2.603   1.611  0.2255  0.1150  1.7215
  946SOL     OW 2836   0.459   1.245   0.551  0.2184  0.2007 -0.4967
  946SOL    HW1 2837   0.478   1.208   0.644 -0.9019 -1.1445  0.8876
  946SOL    HW2 2838   0.499   1.335   0.547 -0.1376 -1.7885  0.6457
  947SOL     OW 2839   1.604   2.021   0.953  0.1911 -0.1463 -0.7111
  947SOL    HW1 2840   1.518   1.991   0.997  2.9566  0.2513 -3.1896
  947SOL    HW2 2841   1.665   2.067   1.022  2.1700  0.5784  0.4885
  948SOL     OW 2842   0.144   1.683   0.981 -0.2802 -0.1155 -0.6780
  948SOL    HW1 2843   0.135   1.776   0.950  3.0897 -0.5993 -1.6972
  948SOL    HW2 2844   0.169   1.619   0.903  0.7709 -0.8889  2.7443
  949SOL     OW 2845   1.157   1.277   1.473  0.2818 -0.0069 -0.3453
  949SOL    HW1 2846   1.067   1.298   1.522 -2.1026  2.5424  3.7172
  949SOL    HW2 2847   1.158   1.190   1.418 -0.7646  1.1917 -2.6266
  950SOL     OW 2848   0.425   0.678   1.124 -0.5662  0.3414 -0.2191
  950SOL    HW1 2849   0.507   0.721   1.161 -0.7580  0.5455 -1.4655
  950SOL    HW2 2850   0.377   0.741   1.056 -1.8371  3.7431  0.9855
  951SOL     OW 2851   0.776   2.102   2.220 -0.3162 -0.5905  1.0003
  951SOL    HW1 2852   0.718   2.047   2.161  1.1792  1.0307  3.1576
  951SOL    HW2 2853   0.777   2.200   2.189 -1.8160  1.1943 -2.8088
  952SOL     OW 2854   1.000   1.640   0.029 -0.0324 -0.1040  0.0513
  952SOL    HW1 2855   0.928   1.714   0.024  0.5202  0.6409  1.3034
  952SOL    HW2 2856   1.069   1.650   0.102  2.0879  1.2671 -0.0167
  953SOL     OW 2857   1.143   2.972   0.004  0.8697 -0.4803 -0.4387
  953SOL    HW1 2858   1.190   2.996   0.093  1.7826 -0.5655 -1.0796
  953SOL    HW2 2859   1.121   2.872   3.094 -3.4967 -0.3762  0.3665
  954SOL     OW 2860   1.750   1.458   0.027  0.4067  0.0289  0.0142
  954SOL    HW1 2861   1.706   1.373   3.096  0.4161  2.1494  3.1007
  954SOL    HW2 2862   1.686   1.521   0.068  0.4223  0.4944  1.1283
  955SOL     OW 2863   0.100   2.590   3.043 -0.0082  0.4316 -0.5175
  955SOL    HW1 2864   0.089   2.655   0.021 -1.3445 -2.8701 -1.5665
  955SOL    HW2 2865   0.079   2.634   2.948 -2.0673  0.8688 -0.8718
  956SOL     OW 2866   1.085   0.601   1.359  0.8225  0.8385 -0.3468
  956SOL    HW1 2867   1.154   0.675   1.363  0.5660  0.5542 -0.4730
  956SOL    HW2 2868   1.118   0.505   1.348  0.8423 -1.0613 -0.6313
  957SOL     OW 2869   1.409   1.387   1.493  0.0044 -0.6846  0.0771
  957SOL    HW1 2870   1.315   1.349   1.495  1.0916 -2.2186 -0.9382
  957SOL    HW2 2871   1.440   1.439   1.575  2.2120 -2.4513  1.8407
  958SOL     OW 2872   0.471   1.504   1.103  0.6111  0.9709 -0.0499
  958SOL    HW1 2873   0.370   1.490   1.111 -2.5756  2.4898  3.3786
  958SOL    HW2 2874   0.491   1.593   1.050  0.1374  0.7083 -1.6210
  959SOL     OW 2875   1.593   1.336   1.292  0.4790  0.2011  0.3269
  959SOL    HW1 2876   1.616   1.434   1.268 -0.1128 -0.3070 -2.0021
  959SOL    HW2 2877   1.511   1.330   1.350 -0.9310  0.9492 -1.2413
  960SOL     OW 2878   0.285   1.113   3.009  0.5275 -0.3246  0.3209
  960SOL    HW1 2879   0.330   1.186   3.059 -2.9897  0.6203 -4.0205
  960SOL    HW2 2880   0.341   1.090   2.923  2.5085  2.8491 -0.5537
  961SOL     OW 2881   0.948   1.355   1.673 -0.4409  0.9965  0.1632
  961SOL    HW1 2882   0.917   1.304   1.761  0.6638  1.8177  2.0310
  961SOL    HW2 2883   0.985   1.448   1.699  0.7325 -1.6052  1.3226
  962SOL     OW 2884   1.149   1.254   0.830  0.5806  0.1426  0.2685
  962SOL    HW1 2885   1.139   1.329   0.902 -0.7353  0.8743 -0.5566
  962SOL    HW2 2886   1.156   1.295   0.739 -2.1055  1.5341  0.7519
  963SOL     OW 2887   1.469   1.777   2.717 -0.2241  0.2007  0.2058
  963SOL    HW1 2888   1.548   1.828   2.682  0.7856  2.9038  1.8719
  963SOL    HW2 2889   1.489   1.683   2.751 -0.1065 -4.2826  0.4984
  964SOL     OW 2890   0.486   2.892   0.215 -0.3625 -0.1293 -0.4704
  964SOL    HW1 2891   0.443   2.985   0.214 -0.7830  1.8276  1.0133
  964SOL    HW2 2892   0.433   2.826   0.157 -0.2998 -1.1499 -0.5227
  965SOL     OW 2893   0.386   2.286   0.413 -0.4156 -0.0603  0.4511
  965SOL    HW1 2894   0.406   2.185   0.421  1.7020 -1.3033  1.0647
  965SOL    HW2 2895   0.309   2.301   0.347 -2.5472 -0.4174  0.8225
  966SOL     OW 2896   0.205   1.435   2.584  0.2622 -0.5959  0.0915
  966SOL    HW1 2897   0.119   1.386   2.605 -1.3197  2.7069 -1.7718
  966SOL    HW2 2898   0.236   1.494   2.662  1.7781 -1.2934 -1.7916
  967SOL     OW 2899   2.652   0.011   2.397 -0.0223  0.4739 -0.1678
  967SOL    HW1 2900   2.667   3.009   2.413  0.6511  4.3581  1.5203
  967SOL    HW2 2901   2.695   0.073   2.460  0.0875  0.9599  0.8246
  968SOL     OW 2902   1.956   0.258   0.449 -0.0724 -0.0045  0.3537
  968SOL    HW1 2903   1.901   0.314   0.384  0.9387 -1.2795  0.5736
  968SOL    HW2 2904   2.019   0.313   0.507 -0.4512  0.3718  0.1839
  969SOL     OW 2905   0.314   0.939   1.982  0.3222  0.6269  0.5344
  969SOL    HW1 2906   0.264   1.022   1.947  0.8044  1.2517 -1.5885
  969SOL    HW2 2907   0.399   0.959   2.033 -0.6863  1.6409 -0.7550
  970SOL     OW 2908   1.996   1.605   0.804 -0.1523  0.2627  0.1915
  970SOL    HW1 2909   2.039   1.698   0.778  3.0133  4.4953 -0.8813
  970SOL    HW2 2910   2.019   1.584   0.900  0.6090 -0.5644 -0.0227
  971SOL     OW 2911   2.575   2.924   1.223  0.2130  0.1262  0.4617
  971SOL    HW1 2912   2.505   2.862   1.183 -2.2674  1.3811 -1.4321
  971SOL    HW2 2913   2.577   3.007   1.166  0.6396 -1.4838 -0.1602
  972SOL     OW 2914   0.762   2.832   1.623  0.6350  0.4062 -0.4960
  972SOL    HW1 2915   0.794   2.854   1.717 -2.9818 -0.1476 -0.4437
  972SOL    HW2 2916   0.804   2.899   1.560 -0.6498  0.2541  2.5267
  973SOL     OW 2917   0.578   0.389   2.822 -0.1440 -0.4306  0.1257
  973SOL    HW1 2918   0.631   0.390   2.911  0.2537 -1.8354 -0.8628
  973SOL    HW2 2919   0.494   0.450   2.824  1.7076  0.3246 -0.0233
  974SOL     OW 2920   2.094   1.578   2.227  0.1264  0.0064 -0.2227
  974SOL    HW1 2921   2.078   1.483   2.202  1.1731 -2.4140 -0.0051
  974SOL    HW2 2922   2.118   1.587   2.329 -0.6801 -0.4629  2.0835
  975SOL     OW 2923   0.117   0.059   1.484  0.5799 -0.0970 -0.1279
  975SOL    HW1 2924   0.118   0.044   1.585  0.7970 -0.3462  0.7091
  975SOL    HW2 2925   0.017   0.053   1.459 -1.1550  0.1572  0.7869
  976SOL     OW 2926   0.952   1.887   2.281  0.5391  0.6547 -0.5923
  976SOL    HW1 2927   0.899   1.955   2.230  1.4030 -1.2057  0.1802
  976SOL    HW2 2928   0.971   1.918   2.379 -0.5354  2.1213 -0.0517
  977SOL     OW 2929   0.822   2.368   0.423 -0.0935 -0.8154 -0.3888
  977SOL    HW1 2930   0.730   2.405   0.405  2.3596 -1.4259  3.4146
  977SOL    HW2 2931   0.894   2.428   0.387 -0.2800 -2.1836  1.5997
  978SOL     OW 2932   0.007   1.478   2.193  0.4222  0.4256 -0.4762
  978SOL    HW1 2933   0.100   1.478   2.237  0.9845 -2.2506  2.0323
  978SOL    HW2 2934   3.056   1.386   2.203  1.8936 -2.0985 -0.9094
  979SOL     OW 2935   1.642   2.534   1.494  0.1359 -0.1645  0.0104
  979SOL    HW1 2936   1.697   2.597   1.436 -1.3645  0.9989 -2.1265
  979SOL    HW2 2937   1.699   2.460   1.530  1.0926  1.9482  0.3711
  980SOL     OW 2938   1.113   1.075   2.733  0.0500 -0.2267 -0.2232
  980SOL    HW1 2939   1.140   1.169   2.770  1.2788  3.6936  1.2085
  980SOL    HW2 2940   1.012   1.078   2.709  0.4697 -0.4111 -0.1818
  981SOL     OW 2941   2.390   0.156   1.808  0.1443  0.3764  0.0864
  981SOL    HW1 2942   2.310   0.163   1.869  1.9310 -3.6696 -0.3940
  981SOL    HW2 2943   2.393   0.236   1.748 -1.5121 -2.5464  0.3709
  982SOL     OW 2944   0.286   0.525   2.792 -0.0913  0.1674 -0.4773
  982SOL    HW1 2945   0.240   0.541   2.879  5.0909  1.3551 -1.2314
  982SOL    HW2 2946   0.253   0.434   2.754 -0.5033 -1.2194 -0.9862
  983SOL     OW 2947   2.137   1.215   2.389  0.2627  0.0862 -0.3252
  983SOL    HW1 2948   2.086   1.225   2.303 -0.6308  1.1097 -0.5547
  983SOL    HW2 2949   2.107   1.138   2.445 -1.0479 -0.7102  0.5499
  984SOL     OW 2950   1.354   0.307   1.728  0.4528  0.4587  0.0793
  984SOL    HW1 2951   1.282   0.364   1.776  0.4346  2.8129  0.6598
  984SOL    HW2 2952   1.346   0.312   1.625 -2.0540 -1.8775 -0.8114
  985SOL     OW 2953   1.859   1.657   1.914 -0.1149  0.1942  0.1814
  985SOL    HW1 2954   1.805   1.611   1.986  0.0077 -3.0550  1.3938
  985SOL    HW2 2955   1.852   1.610   1.825  2.7833 -3.3305  1.0206
  986SOL     OW 2956   2.297   0.731   1.921  0.2906  0.0899 -0.3653
  986SOL    HW1 2957   2.336   0.650   1.874 -0.9532  0.8566  0.0586
  986SOL    HW2 2958   2.247   0.793   1.854  0.6217  0.8755  1.0466
  987SOL     OW 2959   2.447   0.549   1.258 -0.5994  0.3029 -0.0111
  987SOL    HW1 2960   2.455   0.580   1.354 -2.8323 -2.0496 -0.5852
  987SOL    HW2 2961   2.360   0.491   1.253 -1.6302 -2.1329 -1.3295
  988SOL     OW 2962   2.996   0.918   1.957  0.7892  0.3858  0.2538
  988SOL    HW1 2963   2.944   0.838   1.991  1.7878  1.2077 -0.0080
  988SOL    HW2 2964   3.082   0.928   2.010 -0.9805  1.8018 -0.3718
  989SOL     OW 2965   2.368   1.576   2.998  0.1429 -0.0540 -0.4000
  989SOL    HW1 2966   2.335   1.563   3.092  0.3659 -0.2002 -3.6832
  989SOL    HW2 2967   2.400   1.670   2.977 -1.3137 -3.4945  1.1945
  990SOL     OW 2968   0.957   0.347   2.687  1.1108  0.2120  0.0730
  990SOL    HW1 2969   1.015   0.269   2.664 -1.4797  1.5081  0.8795
  990SOL    HW2 2970   0.994   0.379   2.776  0.4916 -2.5436  0.1941
  991SOL     OW 2971   1.232   1.014   0.496  0.0853  0.6342  0.0482
  991SOL    HW1 2972   1.200   1.026   0.400 -1.1151  1.6890 -0.5627
  991SOL    HW2 2973   1.215   1.099   0.549 -0.4454  0.9181 -2.8078
  992SOL     OW 2974   1.949   1.396   0.177  0.4433  0.3733 -0.2687
  992SOL    HW1 2975   2.010   1.470   0.212  0.5258 -0.7191  1.1481
  992SOL    HW2 2976   1.887   1.426   0.102  0.1472  0.8556 -1.0967
  993SOL     OW 2977   2.954   0.697   0.723 -0.6182  0.1001  0.0783
  993SOL    HW1 2978   3.037   0.703   0.665 -1.5559  1.6457  1.5367
  993SOL    HW2 2979   2.976   0.674   0.821 -0.3664  0.8921  0.0732
  994SOL     OW 2980   3.096   1.964   2.412  0.2703 -0.2171 -0.0487
  994SOL    HW1 2981   3.073   1.957   2.511  0.1450  1.0879  2.2912
  994SOL    HW2 2982   0.077   2.027   2.401  0.4330  0.9124  1.5881
  995SOL     OW 2983   1.798   1.571   2.882  0.1229 -0.7230 -0.5299
  995SOL    HW1 2984   1.792   1.520   2.971  0.7366  1.2991 -1.1663
  995SOL    HW2 2985   1.877   1.634   2.876 -0.0478  0.8222  0.4985
  996SOL     OW 2986   2.350   1.196   0.097  0.0490 -0.1804 -0.3565
  996SOL    HW1 2987   2.365   1.274   0.161 -1.1777  1.0482  0.1546
  996SOL    HW2 2988   2.248   1.187   0.097  1.0236  2.0540 -0.5071
  997SOL     OW 2989   2.025   1.394   1.753  0.3369 -0.2057 -0.3200
  997SOL    HW1 2990   2.004   1.298   1.731 -0.4391  0.5786  0.8558
  997SOL    HW2 2991   2.123   1.411   1.759 -0.0854 -0.7627 -0.0554
  998SOL     OW 2992   2.469   1.855   0.244  0.3026 -0.0433  0.1477
  998SOL    HW1 2993   2.401   1.902   0.184  1.5419  2.5904 -1.8310
  998SOL    HW2 2994   2.473   1.892   0.341  1.9234  0.8739  1.7461
  999SOL     OW 2995   2.644   2.288   0.137  0.0997  0.3091  0.6031
  999SOL    HW1 2996   2.651   2.192   0.131  0.6757  1.3216  1.5898
  999SOL    HW2 2997   2.735   2.329   0.117 -1.5131  1.9168 -0.9506
 1000SOL     OW 2998   0.990   0.419   2.007  0.4156  0.2809 -0.1071
 1000SOL    HW1 2999   1.034   0.414   2.099 -2.4039 -2.2137  0.1734
 1000SOL    HW2 3000   0.887   0.439   2.011 -3.1835 -1.7102 -0.7172
   3.09653   3.09653   3.09653
