1000 SPC/Fw water molecules t= 398.00000 step= 398000
 3000
    1SOL     OW    1   3.065   2.948   1.717  0.1415 -0.1212 -0.7019
    1SOL    HW1    2   2.989   2.884   1.732 -1.4678  0.5837  0.3654
    1SOL    HW2    3   0.000   2.925   1.635  0.0913 -0.1389  1.1821
    2SOL     OW    4   2.453   2.535   0.341 -0.3968 -0.1534  0.1212
    2SOL    HW1    5   2.426   2.582   0.253 -0.3095  1.4583 -0.4481
    2SOL    HW2    6   2.471   2.601   0.414 -2.0007  0.6583  0.4524
    3SOL     OW    7   1.333   2.823   0.175 -0.1397  0.0944  0.3030
    3SOL    HW1    8   1.361   2.906   0.228  2.1016 -2.0729 -1.1221
    3SOL    HW2    9   1.238   2.798   0.192 -2.8975  3.8351 -0.1883
    4SOL     OW   10   1.085   3.023   2.451 -0.1970  0.1254 -0.6756
    4SOL    HW1   11   1.161   2.954   2.454  1.6533 -2.2328  1.5296
    4SOL    HW2   12   1.052   3.052   2.358  2.3503 -2.2423 -0.4519
    5SOL     OW   13   2.163   3.040   1.633  0.5074  0.2009  0.3037
    5SOL    HW1   14   2.150   2.954   1.683  0.0203  0.3907 -1.1049
    5SOL    HW2   15   2.255   3.044   1.591  1.5787 -0.1911 -0.0954
    6SOL     OW   16   2.265   2.114   0.450 -0.1880 -0.5233  0.1499
    6SOL    HW1   17   2.232   2.100   0.355  1.7728  2.2679 -0.2968
    6SOL    HW2   18   2.238   2.040   0.507 -0.1142 -1.5061 -5.9306
    7SOL     OW   19   2.364   1.260   0.712  0.1850  0.7316 -0.1494
    7SOL    HW1   20   2.451   1.308   0.716 -0.4180 -0.1867  1.2861
    7SOL    HW2   21   2.326   1.251   0.616  0.4389  0.5841 -2.0516
    8SOL     OW   22   0.548   1.344   1.042 -0.4895  0.4295  0.2630
    8SOL    HW1   23   0.611   1.366   1.121  0.7817  1.7606  1.3724
    8SOL    HW2   24   0.592   1.387   0.962 -2.5190  0.8985  2.0979
    9SOL     OW   25   0.370   2.629   1.767 -0.2410  0.0676  0.1943
    9SOL    HW1   26   0.358   2.667   1.675  0.4613 -0.8603  0.2531
    9SOL    HW2   27   0.330   2.537   1.772  2.4603  0.8487 -1.3643
   10SOL     OW   28   1.064   2.321   0.562  0.0516 -0.0324  0.2762
   10SOL    HW1   29   1.074   2.309   0.665 -1.3457 -2.2212  0.5957
   10SOL    HW2   30   1.152   2.348   0.523  0.0352  1.2679  2.1238
   11SOL     OW   31   1.641   2.090   1.015 -0.0315 -0.1211  0.0594
   11SOL    HW1   32   1.734   2.123   0.991 -0.7426  1.3553  3.6100
   11SOL    HW2   33   1.623   2.119   1.110 -1.0754 -2.6997 -1.6305
   12SOL     OW   34   2.649   0.550   2.103 -0.0904 -0.4406 -0.3690
   12SOL    HW1   35   2.694   0.638   2.133  0.8840 -1.6769 -3.5681
   12SOL    HW2   36   2.636   0.486   2.181 -1.6766  1.4036  1.0145
   13SOL     OW   37   2.632   2.853   0.424 -0.0400  0.5668 -0.1963
   13SOL    HW1   38   2.734   2.853   0.421  0.2196  1.0304 -0.5460
   13SOL    HW2   39   2.586   2.854   0.332 -0.0768  0.9764 -0.4798
   14SOL     OW   40   1.989   1.378   0.012 -0.0625  0.2579  0.4804
   14SOL    HW1   41   1.908   1.345   3.069  1.5355  0.3148 -0.3506
   14SOL    HW2   42   1.949   1.404   0.099  0.9718  0.6410 -0.0478
   15SOL     OW   43   2.702   2.401   2.010 -0.0645 -0.2362  0.1908
   15SOL    HW1   44   2.612   2.441   2.037  1.2850  1.4217  1.0798
   15SOL    HW2   45   2.774   2.404   2.086  1.7155  1.0730 -1.5640
   16SOL     OW   46   2.863   2.993   0.752 -0.8483  0.5423 -0.3402
   16SOL    HW1   47   2.837   3.053   0.830 -1.0121 -0.0486  1.7453
   16SOL    HW2   48   2.788   2.927   0.732  1.4215  0.0969  2.0948
   17SOL     OW   49   1.086   0.201   1.200  0.2826 -0.2186  0.1770
   17SOL    HW1   50   1.010   0.247   1.148 -1.3827  0.0783  0.1696
   17SOL    HW2   51   1.085   0.231   1.298 -1.0797 -0.4302 -0.6018
   18SOL     OW   52   1.539   0.060   1.124 -0.6663 -0.1512  0.1742
   18SOL    HW1   53   1.595   3.100   1.162 -1.2711  2.6228 -0.9636
   18SOL    HW2   54   1.583   0.151   1.138 -0.7634 -0.8279  1.2324
   19SOL     OW   55   2.436   1.333   0.202 -0.6311  0.0716  0.4559
   19SOL    HW1   56   2.357   1.381   0.156  1.5225  1.1946 -1.3290
   19SOL    HW2   57   2.498   1.410   0.229 -1.1267  0.9025 -0.0561
   20SOL     OW   58   2.391   1.663   2.366  0.0220  0.0421 -0.9705
   20SOL    HW1   59   2.365   1.575   2.418 -1.3116  0.0201 -0.3893
   20SOL    HW2   60   2.311   1.726   2.356  2.7706 -0.2226  1.3915
   21SOL     OW   61   1.380   3.033   0.385 -0.2926 -0.6154 -0.7659
   21SOL    HW1   62   1.353   0.016   0.383 -2.4795  1.8114  0.5982
   21SOL    HW2   63   1.336   2.992   0.470  0.3083 -0.7311 -1.6283
   22SOL     OW   64   2.938   0.887   0.965 -0.3245  0.0210  0.0445
   22SOL    HW1   65   2.947   0.822   1.045  1.0541 -0.6919 -0.3787
   22SOL    HW2   66   2.844   0.935   0.962 -1.3506  2.1370 -2.3058
   23SOL     OW   67   0.461   3.039   1.920  0.0083  0.3574 -0.1438
   23SOL    HW1   68   0.512   0.011   1.914  4.3677 -0.6069 -2.0213
   23SOL    HW2   69   0.361   3.046   1.897 -0.4640  0.6872  1.3456
   24SOL     OW   70   2.279   2.493   0.742  0.3020  0.3633 -0.5651
   24SOL    HW1   71   2.311   2.518   0.650 -3.2321  1.4281  1.4607
   24SOL    HW2   72   2.276   2.395   0.768  0.0763 -0.6617  0.0238
   25SOL     OW   73   1.998   3.103   2.807  0.2307 -0.6084  0.2012
   25SOL    HW1   74   1.976   3.044   2.887 -1.7761 -0.4451  0.4543
   25SOL    HW2   75   1.924   0.056   2.791 -1.8439  0.8294 -0.8426
   26SOL     OW   76   1.381   2.491   3.010 -0.3014  0.1363 -0.2000
   26SOL    HW1   77   1.409   2.587   3.032 -1.4994  1.0091 -0.2572
   26SOL    HW2   78   1.299   2.465   3.056 -0.1686  0.1398  0.3695
   27SOL     OW   79   1.527   0.687   0.967  0.2489  0.3640 -0.0753
   27SOL    HW1   80   1.449   0.726   1.022 -1.6347  1.4312  1.8120
   27SOL    HW2   81   1.496   0.616   0.898 -0.3691 -0.2735 -1.2334
   28SOL     OW   82   0.903   1.363   0.523 -0.4922 -0.2385 -0.0372
   28SOL    HW1   83   0.873   1.274   0.477 -2.6363 -1.4545 -0.3960
   28SOL    HW2   84   0.952   1.354   0.609  1.3054  0.9283  0.8261
   29SOL     OW   85   2.668   0.378   1.485 -0.1248 -0.6570 -0.7828
   29SOL    HW1   86   2.630   0.314   1.559  0.5791  1.7076 -0.2293
   29SOL    HW2   87   2.660   0.477   1.514 -0.8934 -0.5604  0.1152
   30SOL     OW   88   1.251   2.740   1.443  0.0641 -0.0371 -0.2005
   30SOL    HW1   89   1.215   2.773   1.538 -2.2149  1.7823  1.8314
   30SOL    HW2   90   1.282   2.642   1.441 -1.1814 -4.0117 -1.9064
   31SOL     OW   91   1.670   3.016   1.615  0.4125 -1.3403  0.4770
   31SOL    HW1   92   1.695   2.987   1.707 -0.9780  2.5266 -2.6547
   31SOL    HW2   93   1.722   2.964   1.544 -1.1501  0.7221  0.5656
   32SOL     OW   94   1.564   1.782   2.669  0.4572  0.1595 -0.2316
   32SOL    HW1   95   1.487   1.742   2.617  1.1066  0.8905  0.5658
   32SOL    HW2   96   1.647   1.719   2.675  4.2713 -2.1699 -1.2820
   33SOL     OW   97   2.555   0.746   2.536  0.0969  1.1228 -0.2429
   33SOL    HW1   98   2.505   0.755   2.449  1.3147  2.3832  3.8849
   33SOL    HW2   99   2.499   0.718   2.616  0.0498 -0.0435 -0.4828
   34SOL     OW  100   1.836   0.414   0.423 -0.2610  0.1123 -0.4585
   34SOL    HW1  101   1.818   0.479   0.500 -0.4592  1.9729 -0.3715
   34SOL    HW2  102   1.780   0.432   0.342 -1.0054 -0.3714  1.8878
   35SOL     OW  103   3.088   2.096   2.259  0.4855 -0.2869  0.3782
   35SOL    HW1  104   3.001   2.111   2.213  2.7668 -0.8517 -4.5619
   35SOL    HW2  105   3.088   2.128   2.354 -1.1411  1.0924 -0.5564
   36SOL     OW  106   2.441   1.818   3.051  0.3077  0.0565 -0.0768
   36SOL    HW1  107   2.447   1.729   3.003  1.6305  2.5619  0.2597
   36SOL    HW2  108   2.457   1.898   2.988  0.5498 -2.8286 -0.1056
   37SOL     OW  109   1.884   0.386   1.548 -0.4115 -0.1621 -0.6846
   37SOL    HW1  110   1.896   0.371   1.649 -1.2975  0.3350  0.6842
   37SOL    HW2  111   1.971   0.387   1.496 -2.2092  0.0022 -0.3876
   38SOL     OW  112   0.097   0.448   2.538 -0.4456  1.0527  0.2430
   38SOL    HW1  113   0.050   0.520   2.486  2.2426  1.5406 -0.5618
   38SOL    HW2  114   0.193   0.456   2.516 -2.7108  0.0279 -0.4826
   39SOL     OW  115   1.984   1.205   1.518 -0.0237 -0.1595 -0.4149
   39SOL    HW1  116   1.916   1.181   1.448  2.1789  2.3418  0.2058
   39SOL    HW2  117   2.038   1.281   1.482  0.7284 -0.1103  0.8735
   40SOL     OW  118   1.206   1.790   1.127 -0.3230  0.0340 -0.2179
   40SOL    HW1  119   1.133   1.845   1.080  0.0998 -1.3910  0.0922
   40SOL    HW2  120   1.255   1.734   1.056  1.5236 -1.8818  0.0646
   41SOL     OW  121   2.100   2.076   1.107  0.0267 -0.6168 -0.1749
   41SOL    HW1  122   2.098   1.978   1.088  1.0692  0.7521  1.4258
   41SOL    HW2  123   2.058   2.100   1.197 -3.1648  0.3935 -0.3700
   42SOL     OW  124   2.834   0.645   1.158 -0.2123 -0.4434  0.5294
   42SOL    HW1  125   2.912   0.585   1.197 -0.7777 -2.0434 -0.4781
   42SOL    HW2  126   2.826   0.717   1.226 -0.3327 -1.7154  0.6095
   43SOL     OW  127   0.526   1.747   3.072 -0.0870  0.5146 -1.0917
   43SOL    HW1  128   0.555   1.807   0.032 -2.0698  1.9281 -1.1200
   43SOL    HW2  129   0.587   1.664   3.076  2.2727  1.0396 -0.0174
   44SOL     OW  130   1.617   2.513   1.536  0.1447 -0.2068  0.3074
   44SOL    HW1  131   1.631   2.537   1.636  1.4801 -1.0920  1.4441
   44SOL    HW2  132   1.586   2.592   1.481 -0.9989 -0.1133 -0.0912
   45SOL     OW  133   0.794   2.992   2.462 -0.0458  0.3990 -0.3927
   45SOL    HW1  134   0.891   2.982   2.470 -0.6851 -3.6754  0.0887
   45SOL    HW2  135   0.770   3.072   2.408  1.9000 -2.6227 -0.6519
   46SOL     OW  136   0.905   2.422   2.272  0.2457 -0.5415  0.2975
   46SOL    HW1  137   0.928   2.419   2.174 -0.1490  0.5918  1.8482
   46SOL    HW2  138   0.898   2.517   2.301 -1.2807 -4.2458  2.9190
   47SOL     OW  139   0.927   2.320   1.004  0.0109 -0.6083 -0.5656
   47SOL    HW1  140   0.878   2.404   1.043 -1.0875  3.3381  0.4083
   47SOL    HW2  141   0.858   2.250   0.985  1.8551  0.0335 -1.5691
   48SOL     OW  142   0.664   2.383   1.350  0.2503 -0.1030 -0.4925
   48SOL    HW1  143   0.662   2.445   1.270 -0.3118 -1.7016 -0.1606
   48SOL    HW2  144   0.647   2.287   1.314  4.0849 -2.4893 -1.4916
   49SOL     OW  145   2.487   3.090   0.113  0.3532  0.2914  0.0377
   49SOL    HW1  146   2.438   0.054   0.148  2.5931 -1.0459  2.0341
   49SOL    HW2  147   2.584   3.102   0.148 -0.2718 -0.1119 -3.8227
   50SOL     OW  148   1.727   0.665   0.256  0.6031 -0.1684 -0.3463
   50SOL    HW1  149   1.811   0.696   0.206  3.8135  1.9735 -0.9459
   50SOL    HW2  150   1.694   0.751   0.296 -1.5489 -0.8570 -2.5692
   51SOL     OW  151   2.032   0.732   0.819 -0.0354 -0.0311 -0.4463
   51SOL    HW1  152   1.989   0.693   0.904 -0.3208  2.6405 -1.5269
   51SOL    HW2  153   2.020   0.835   0.825 -0.5903 -4.0130 -3.3677
   52SOL     OW  154   0.592   1.555   0.229  0.3437  0.2585  0.2799
   52SOL    HW1  155   0.645   1.558   0.144 -0.8761 -0.6578  2.9055
   52SOL    HW2  156   0.588   1.454   0.258 -0.2962  0.2304  0.3048
   53SOL     OW  157   0.560   1.204   3.000  0.3564  0.2860 -0.0818
   53SOL    HW1  158   0.539   1.119   3.055 -0.8062 -2.6781 -0.8061
   53SOL    HW2  159   0.503   1.208   2.908 -3.1653  0.5772 -3.9468
   54SOL     OW  160   2.410   1.509   2.150 -0.0226 -0.2048  0.7334
   54SOL    HW1  161   2.417   1.582   2.229  0.0296  1.1577  1.5744
   54SOL    HW2  162   2.449   1.547   2.062  2.0208  0.2175 -4.9577
   55SOL     OW  163   2.624   2.152   0.668  0.6609  0.4711  0.5605
   55SOL    HW1  164   2.623   2.250   0.628 -2.2433  4.5860  1.5221
   55SOL    HW2  165   2.536   2.132   0.716  1.1794  0.6646  1.0562
   56SOL     OW  166   1.756   3.009   1.205  0.8774  0.3798  0.3263
   56SOL    HW1  167   1.781   2.968   1.292 -0.1370  1.9982  0.7020
   56SOL    HW2  168   1.752   2.938   1.132  0.7097 -2.0063  0.6859
   57SOL     OW  169   1.580   1.337   0.240  0.4418 -0.2819  0.0986
   57SOL    HW1  170   1.510   1.302   0.172 -2.2408 -1.5430 -1.0966
   57SOL    HW2  171   1.542   1.412   0.295  2.2920  1.9202  0.5715
   58SOL     OW  172   2.365   0.195   1.414 -0.0638  0.5078  0.4038
   58SOL    HW1  173   2.272   0.155   1.445 -1.6496  0.1259  1.0593
   58SOL    HW2  174   2.435   0.182   1.489  0.2537  0.4975 -0.1378
   59SOL     OW  175   1.109   2.742   2.691  0.3438 -0.0273 -0.2264
   59SOL    HW1  176   1.166   2.764   2.617 -1.9584  0.6751  0.4356
   59SOL    HW2  177   1.007   2.764   2.676 -1.9861  0.4061  1.4513
   60SOL     OW  178   2.967   2.686   2.723 -0.8025  0.2740 -0.3046
   60SOL    HW1  179   2.940   2.676   2.825 -1.0652 -0.0814  1.0845
   60SOL    HW2  180   2.885   2.716   2.663 -0.8077  1.8720 -3.3138
   61SOL     OW  181   0.709   2.492   1.092 -0.0552 -0.3242 -0.9395
   61SOL    HW1  182   0.755   2.584   1.090 -2.1501  0.0437 -0.4483
   61SOL    HW2  183   0.653   2.482   1.010  2.1777  0.5902  3.2732
   62SOL     OW  184   1.656   1.731   2.326  0.2350 -0.3561  0.2214
   62SOL    HW1  185   1.693   1.641   2.288  1.7145  0.5001  2.5925
   62SOL    HW2  186   1.745   1.778   2.360  2.0303  1.8325 -0.8379
   63SOL     OW  187   1.924   1.758   0.206 -0.0545 -0.0759 -0.1137
   63SOL    HW1  188   1.865   1.836   0.176 -0.6655 -0.2257  1.2990
   63SOL    HW2  189   1.970   1.726   0.124 -3.6955 -2.7142 -0.9601
   64SOL     OW  190   1.995   1.065   0.242  0.5899  0.1993 -0.2499
   64SOL    HW1  191   2.024   1.121   0.321 -0.9157 -2.3884  0.0701
   64SOL    HW2  192   1.893   1.081   0.237  2.5838  1.1381  1.4998
   65SOL     OW  193   2.050   2.333   1.964 -0.6338  0.4958  0.1489
   65SOL    HW1  194   2.034   2.315   2.066  1.8102 -2.4798  0.5065
   65SOL    HW2  195   1.962   2.316   1.911  0.9236  0.2130 -1.8071
   66SOL     OW  196   0.386   0.990   1.607  0.2077  0.0043  0.2649
   66SOL    HW1  197   0.396   0.922   1.532 -1.8918  2.6272 -0.1149
   66SOL    HW2  198   0.418   1.077   1.573 -0.2745  0.0870  1.6356
   67SOL     OW  199   2.078   2.868   0.169  0.1878  0.1820  0.0133
   67SOL    HW1  200   2.149   2.791   0.173 -0.9310  1.1322 -1.8185
   67SOL    HW2  201   2.050   2.888   0.072  0.9014 -0.3767  0.3523
   68SOL     OW  202   1.876   2.428   1.165 -0.0488  0.4516 -0.6998
   68SOL    HW1  203   1.962   2.437   1.115 -1.0296  0.9872  1.0384
   68SOL    HW2  204   1.805   2.468   1.108  0.0230  2.9444  0.5343
   69SOL     OW  205   2.899   1.935   2.980 -0.1701  0.1838 -0.6137
   69SOL    HW1  206   2.891   1.835   2.980  0.5481  1.7585 -1.9378
   69SOL    HW2  207   2.867   1.966   3.070 -1.0210  2.0747 -1.2232
   70SOL     OW  208   0.132   1.000   2.123 -0.2067  0.0438 -0.3876
   70SOL    HW1  209   0.115   1.079   2.063 -1.5934 -2.8137  2.2639
   70SOL    HW2  210   0.123   1.023   2.218  0.0382 -1.3454 -1.6166
   71SOL     OW  211   0.990   0.990   2.509  0.4477  0.6691  0.8121
   71SOL    HW1  212   0.908   1.002   2.450  0.4678 -0.4470  0.1362
   71SOL    HW2  213   0.985   0.898   2.554 -0.2158 -0.4566 -0.2101
   72SOL     OW  214   2.612   1.334   2.164  0.2408  0.0035  0.0006
   72SOL    HW1  215   2.542   1.407   2.160 -0.0595 -0.3416 -1.1022
   72SOL    HW2  216   2.663   1.327   2.074  1.5932 -1.6472 -1.6873
   73SOL     OW  217   1.247   1.865   2.986 -0.1403  0.0255 -0.0030
   73SOL    HW1  218   1.205   1.938   2.929  1.1712 -2.8993  1.3745
   73SOL    HW2  219   1.318   1.901   3.046 -0.8845 -1.6955 -3.3900
   74SOL     OW  220   2.029   0.009   2.525 -0.7689  0.7131  0.0267
   74SOL    HW1  221   2.035   3.117   2.626  1.1925 -1.0524  1.3725
   74SOL    HW2  222   2.096   0.083   2.494  0.4996  0.5527 -0.4430
   75SOL     OW  223   1.495   2.416   0.760  0.1723 -0.7367 -0.0725
   75SOL    HW1  224   1.450   2.409   0.854  1.5507 -0.5738 -0.5403
   75SOL    HW2  225   1.580   2.364   0.760 -0.7712  0.7618  1.7432
   76SOL     OW  226   2.758   1.663   2.876 -0.2512  0.3371 -0.1740
   76SOL    HW1  227   2.705   1.597   2.936 -0.0896  0.3200  0.1059
   76SOL    HW2  228   2.852   1.626   2.850  0.3781  0.0353 -0.7707
   77SOL     OW  229   3.007   2.512   1.722  0.2437  0.1869 -0.1280
   77SOL    HW1  230   2.994   2.547   1.817 -0.8578  0.5807  2.6271
   77SOL    HW2  231   2.971   2.416   1.724  0.4219 -0.9212  0.7430
   78SOL     OW  232   2.551   1.011   0.003 -0.0958 -0.0756 -0.3646
   78SOL    HW1  233   2.466   1.021   0.059  1.0462 -2.5098  0.7494
   78SOL    HW2  234   2.531   0.981   3.025  1.3140 -1.3724  1.4617
   79SOL     OW  235   0.351   1.459   2.676  0.3498 -0.2588  0.6564
   79SOL    HW1  236   0.412   1.440   2.597 -2.4595 -0.7030  0.8320
   79SOL    HW2  237   0.252   1.467   2.658 -0.0603  0.3230  0.4884
   80SOL     OW  238   1.812   1.515   2.197  0.3060  0.1529 -0.3435
   80SOL    HW1  239   1.859   1.480   2.112 -1.3356  1.1566  1.3696
   80SOL    HW2  240   1.883   1.528   2.272 -1.1894  0.4583  0.9964
   81SOL     OW  241   2.250   1.297   2.178  0.0417 -0.6451  0.3136
   81SOL    HW1  242   2.228   1.271   2.079  1.4591  3.0842 -0.3134
   81SOL    HW2  243   2.311   1.385   2.183  1.9609  3.2876  0.9219
   82SOL     OW  244   1.489   1.460   1.941 -0.3314  0.4022  0.1826
   82SOL    HW1  245   1.397   1.497   1.928 -0.5865 -1.0274 -0.8940
   82SOL    HW2  246   1.505   1.385   1.869  0.2250 -1.2697 -4.8251
   83SOL     OW  247   2.973   0.305   0.097 -0.2461 -0.0690  0.6433
   83SOL    HW1  248   3.006   0.272   0.188 -1.5961  0.1206  0.4630
   83SOL    HW2  249   2.877   0.347   0.102 -1.4735 -0.2170  1.8704
   84SOL     OW  250   0.022   0.859   0.092  0.5137 -0.3395 -0.0950
   84SOL    HW1  251   3.037   0.864   0.089 -0.9697 -1.5972 -1.2447
   84SOL    HW2  252   0.058   0.848   0.188 -1.2018 -1.0639 -2.1812
   85SOL     OW  253   2.276   2.097   1.611  0.5523  0.6786 -0.3389
   85SOL    HW1  254   2.334   2.135   1.538  0.8168 -0.2123  2.4234
   85SOL    HW2  255   2.286   2.141   1.702 -2.2375  1.3922  1.3466
   86SOL     OW  256   0.313   0.456   1.228 -0.6444 -0.3165  0.0156
   86SOL    HW1  257   0.341   0.550   1.256 -1.5383  1.8075  0.8661
   86SOL    HW2  258   0.357   0.428   1.141  0.1516 -0.6568  3.6210
   87SOL     OW  259   2.957   2.046   1.879 -0.4138  0.2975  0.2431
   87SOL    HW1  260   3.053   2.030   1.860 -3.3054  0.8979 -2.4914
   87SOL    HW2  261   2.947   2.061   1.980 -1.4190  1.9955  0.2845
   88SOL     OW  262   0.254   2.062   0.011 -0.3509 -0.5122 -0.4196
   88SOL    HW1  263   0.305   2.105   3.053  2.4760  0.7220 -1.4389
   88SOL    HW2  264   0.229   1.966   3.103 -2.6450  1.8984  2.3430
   89SOL     OW  265   1.481   0.852   0.167  0.8002  0.1903 -0.4047
   89SOL    HW1  266   1.454   0.920   0.095 -2.2631  1.7354  0.9835
   89SOL    HW2  267   1.551   0.888   0.232 -2.9990  1.1437 -0.2719
   90SOL     OW  268   0.117   1.560   2.384 -0.0615 -0.1213  0.1400
   90SOL    HW1  269   0.054   1.635   2.362  0.2802  1.0500 -2.7202
   90SOL    HW2  270   0.202   1.570   2.326  1.5606 -2.3952 -0.4967
   91SOL     OW  271   1.918   0.193   1.209 -0.9334 -0.5266 -0.5099
   91SOL    HW1  272   1.823   0.201   1.234  3.3482 -0.1540 -1.0611
   91SOL    HW2  273   1.947   0.275   1.157 -0.0120 -3.7022 -1.7680
   92SOL     OW  274   2.545   1.395   1.342  0.3661  0.4632 -0.6059
   92SOL    HW1  275   2.613   1.346   1.282  2.2050 -0.1390 -1.5414
   92SOL    HW2  276   2.489   1.321   1.381  1.1097 -0.2997 -1.7793
   93SOL     OW  277   0.260   1.019   2.878  0.1207  0.7011  0.1138
   93SOL    HW1  278   0.259   1.029   2.979 -1.6144  1.1279 -2.7163
   93SOL    HW2  279   0.326   1.078   2.832 -2.0111 -4.7451 -0.7233
   94SOL     OW  280   1.442   2.431   2.219 -0.9413  0.3133  0.4372
   94SOL    HW1  281   1.474   2.337   2.237  0.7781 -1.0781  2.0320
   94SOL    HW2  282   1.507   2.487   2.166 -2.1974 -0.6235 -0.2854
   95SOL     OW  283   0.352   0.741   1.101 -0.7488 -0.5974 -0.5877
   95SOL    HW1  284   0.446   0.722   1.068  2.0997  0.1856 -1.4368
   95SOL    HW2  285   0.288   0.762   1.024 -1.6428 -1.4705  0.4016
   96SOL     OW  286   2.749   3.018   1.532  0.5169  0.3166  0.1110
   96SOL    HW1  287   2.824   3.078   1.551 -1.9696 -1.7055  0.2019
   96SOL    HW2  288   2.723   3.021   1.433  0.7990  1.5077 -2.0837
   97SOL     OW  289   2.635   0.629   1.634  0.3246  0.1507  0.0879
   97SOL    HW1  290   2.697   0.706   1.604  1.5244  0.4649  1.0378
   97SOL    HW2  291   2.540   0.660   1.659 -2.1062 -2.9022  0.0367
   98SOL     OW  292   2.406   2.723   1.370  0.9096  0.6358 -0.1460
   98SOL    HW1  293   2.409   2.817   1.411  0.4045  0.8821  1.2546
   98SOL    HW2  294   2.449   2.724   1.276 -0.7826 -1.9642 -0.7797
   99SOL     OW  295   0.546   3.111   1.570 -0.9256 -0.1325  0.1539
   99SOL    HW1  296   0.452   0.019   1.578  3.8500  2.6825 -2.2131
   99SOL    HW2  297   0.596   0.065   1.514  0.4765  0.7011 -0.8144
  100SOL     OW  298   2.207   0.206   2.193  0.0710  0.2701 -0.1188
  100SOL    HW1  299   2.191   0.300   2.149 -0.5912 -0.1702 -0.8576
  100SOL    HW2  300   2.219   0.136   2.119 -1.4116 -0.8509 -0.7105
  101SOL     OW  301   0.025   3.088   2.255 -0.3267  0.4336  0.4229
  101SOL    HW1  302   0.056   3.004   2.301  1.1397 -1.0622  1.0590
  101SOL    HW2  303   0.088   0.051   2.272 -0.6239 -1.5671 -0.4086
  102SOL     OW  304   0.700   0.418   1.851  0.5639  0.1936  0.3259
  102SOL    HW1  305   0.711   0.425   1.749  2.1414  0.2485 -1.5543
  102SOL    HW2  306   0.794   0.428   1.893  1.2541  0.4328  0.5296
  103SOL     OW  307   0.837   0.635   2.827  0.4009 -0.6446 -0.1311
  103SOL    HW1  308   0.933   0.629   2.860 -1.1097  0.9244 -1.1759
  103SOL    HW2  309   0.791   0.722   2.858 -1.2678  0.0468 -0.3704
  104SOL     OW  310   0.031   0.551   2.157  0.6278  0.2008 -0.8859
  104SOL    HW1  311   0.130   0.532   2.170 -0.2474 -1.4001  2.2510
  104SOL    HW2  312   0.019   0.641   2.105  1.2339 -1.0956 -1.6828
  105SOL     OW  313   2.463   2.049   1.224 -0.1506 -0.2594 -0.0485
  105SOL    HW1  314   2.506   2.026   1.317  0.4054  1.0937  1.2501
  105SOL    HW2  315   2.419   2.141   1.225 -1.5327  0.2366  0.8885
  106SOL     OW  316   1.793   0.124   0.477  1.0279 -0.0822  0.4328
  106SOL    HW1  317   1.772   0.134   0.575  0.8800 -0.4486 -2.5777
  106SOL    HW2  318   1.811   0.217   0.438 -1.4619  1.3344 -1.1504
  107SOL     OW  319   1.716   2.266   0.738  0.3269  0.0589  0.0058
  107SOL    HW1  320   1.787   2.296   0.674 -0.9754 -0.0226  2.2803
  107SOL    HW2  321   1.749   2.227   0.828 -1.0085 -0.6865 -0.1446
  108SOL     OW  322   0.179   2.372   1.296 -0.1774 -0.2276  0.2162
  108SOL    HW1  323   0.108   2.312   1.249 -1.0916 -1.8682  1.9922
  108SOL    HW2  324   0.185   2.460   1.250 -2.0245 -3.0224 -1.3851
  109SOL     OW  325   1.753   2.595   0.710 -0.0233  0.3662 -0.0174
  109SOL    HW1  326   1.725   2.671   0.649  0.2001 -0.1078  3.8550
  109SOL    HW2  327   1.686   2.583   0.787  1.2809  0.0622 -1.5291
  110SOL     OW  328   1.610   1.438   1.548 -0.0853 -0.0420  0.7689
  110SOL    HW1  329   1.599   1.367   1.617  0.1076 -0.2823 -0.2878
  110SOL    HW2  330   1.529   1.468   1.507  4.8221 -0.5356  2.1091
  111SOL     OW  331   1.766   2.299   1.917  0.1950  0.7049  0.0688
  111SOL    HW1  332   1.726   2.302   1.825  2.3550 -1.5405 -0.1875
  111SOL    HW2  333   1.731   2.383   1.969 -3.0100  1.3714 -1.2927
  112SOL     OW  334   1.770   2.104   2.907  0.6378 -0.0304  0.1515
  112SOL    HW1  335   1.700   2.162   2.955 -2.3756 -0.8761  0.0923
  112SOL    HW2  336   1.862   2.121   2.938 -1.8752 -1.9017 -2.0425
  113SOL     OW  337   2.019   2.039   1.700 -0.4525 -0.4370  0.5269
  113SOL    HW1  338   2.103   2.047   1.642 -1.4363  0.9460  1.1109
  113SOL    HW2  339   2.032   1.962   1.767 -0.0892  2.1947  0.9228
  114SOL     OW  340   3.099   1.568   1.692 -0.1848 -0.7918  0.2556
  114SOL    HW1  341   0.068   1.619   1.716  3.3057 -1.3911 -0.7146
  114SOL    HW2  342   0.007   1.485   1.643  2.7488  0.2428  1.6403
  115SOL     OW  343   0.110   0.810   0.363  0.3928  0.4527 -0.8715
  115SOL    HW1  344   0.050   0.834   0.446 -2.0009  1.7425  0.5305
  115SOL    HW2  345   0.207   0.844   0.377 -2.5189  1.2017 -3.5138
  116SOL     OW  346   2.608   1.315   2.867 -0.2182 -0.2642 -0.6432
  116SOL    HW1  347   2.596   1.213   2.859 -2.7893 -4.0226  2.4416
  116SOL    HW2  348   2.518   1.361   2.856  2.4371 -1.7561  0.0314
  117SOL     OW  349   2.943   2.468   0.278 -0.0753  0.4070 -0.3881
  117SOL    HW1  350   2.853   2.455   0.227 -0.2571  0.8753  1.4050
  117SOL    HW2  351   2.929   2.460   0.380 -1.3836  0.5560  2.7554
  118SOL     OW  352   0.562   1.892   2.851 -0.0946  0.2878 -0.4629
  118SOL    HW1  353   0.489   1.963   2.849  0.2279  1.7817 -2.7280
  118SOL    HW2  354   0.549   1.839   2.941  1.4443 -0.3394  1.1577
  119SOL     OW  355   0.499   2.241   0.732  0.1043  0.2290  0.5539
  119SOL    HW1  356   0.580   2.202   0.684 -0.8620  0.6179  3.3082
  119SOL    HW2  357   0.424   2.169   0.737  0.0702 -0.4432  0.6720
  120SOL     OW  358   1.282   0.404   0.375 -0.1130 -0.0357  0.2977
  120SOL    HW1  359   1.279   0.418   0.272  0.1113 -0.7196 -2.4706
  120SOL    HW2  360   1.256   0.307   0.387 -1.9080  0.6113  0.3726
  121SOL     OW  361   1.431   2.586   1.041 -0.2627  0.5587  0.3529
  121SOL    HW1  362   1.457   2.681   1.030  0.6611 -1.4061 -1.0885
  121SOL    HW2  363   1.350   2.558   0.983 -1.1762 -3.4747 -2.2746
  122SOL     OW  364   2.550   2.108   2.172  0.2102  0.2010  0.8788
  122SOL    HW1  365   2.649   2.124   2.165  0.5679 -1.0759 -0.6766
  122SOL    HW2  366   2.519   2.013   2.151 -1.7638 -1.3589 -0.0631
  123SOL     OW  367   0.862   1.641   1.027 -0.3636 -0.3733 -0.0524
  123SOL    HW1  368   0.871   1.665   1.127  1.4088 -1.2698 -0.0002
  123SOL    HW2  369   0.808   1.707   0.972  0.2629  1.5650 -0.9635
  124SOL     OW  370   0.034   0.431   3.050 -0.2139 -0.3060 -0.1312
  124SOL    HW1  371   3.099   0.383   0.003  0.4369 -0.5859  1.3377
  124SOL    HW2  372   0.015   0.384   2.960 -1.0109 -0.7228 -0.1110
  125SOL     OW  373   0.307   0.326   0.051 -0.7118  0.1533 -0.0227
  125SOL    HW1  374   0.244   0.375   3.108  2.4492 -0.0372  0.5443
  125SOL    HW2  375   0.306   0.228   0.023 -0.5857  2.2749 -0.5845
  126SOL     OW  376   3.113   1.663   0.566 -0.0169 -0.0084  0.2558
  126SOL    HW1  377   0.056   1.645   0.486  0.5476 -1.5428 -3.2965
  126SOL    HW2  378   3.042   1.735   0.537 -1.9689  2.1017  0.0014
  127SOL     OW  379   1.106   2.549   1.637 -0.0614 -0.4613  0.1322
  127SOL    HW1  380   1.056   2.634   1.654 -0.2902 -2.6003 -2.1656
  127SOL    HW2  381   1.061   2.502   1.559 -0.8734 -1.3728  2.0264
  128SOL     OW  382   1.378   1.518   0.162  0.2843 -0.1907 -0.1317
  128SOL    HW1  383   1.312   1.589   0.153  3.8893 -0.8965  1.7966
  128SOL    HW2  384   1.393   1.471   0.077 -1.9703  1.2358  2.2723
  129SOL     OW  385   1.944   2.169   1.341  0.1208  0.3453 -0.0092
  129SOL    HW1  386   1.892   2.256   1.365 -0.3718  0.4853  1.2786
  129SOL    HW2  387   1.889   2.094   1.379  0.2828  1.2503  2.5639
  130SOL     OW  388   1.845   2.239   1.645  0.4024 -0.1462 -0.1501
  130SOL    HW1  389   1.916   2.161   1.648  1.3908 -0.1037  1.7760
  130SOL    HW2  390   1.852   2.293   1.559  0.5704  1.0126  0.7305
  131SOL     OW  391   2.788   2.414   2.507  0.1679 -0.1757 -0.1784
  131SOL    HW1  392   2.706   2.351   2.502 -2.4251 -0.1464  0.3532
  131SOL    HW2  393   2.839   2.409   2.599 -1.6284 -0.1706  1.9880
  132SOL     OW  394   3.073   2.125   0.672  0.2124  0.0122 -0.5032
  132SOL    HW1  395   0.034   2.122   0.738 -0.4447 -2.0337  0.0079
  132SOL    HW2  396   2.984   2.125   0.723 -1.3285 -0.2023 -0.7483
  133SOL     OW  397   0.963   0.400   1.987 -0.2573  0.2092  0.1471
  133SOL    HW1  398   1.035   0.437   1.927  1.4518 -0.6465  1.1960
  133SOL    HW2  399   0.970   0.434   2.084  0.3883 -0.6677  1.2887
  134SOL     OW  400   2.857   1.700   0.094  0.7699 -0.4807 -0.5825
  134SOL    HW1  401   2.922   1.746   0.163 -0.6174 -0.3762 -1.1613
  134SOL    HW2  402   2.766   1.755   0.081 -0.6943  1.6679  0.0188
  135SOL     OW  403   1.605   1.028   2.485 -1.0172 -0.0901 -0.3255
  135SOL    HW1  404   1.604   1.089   2.567 -3.4194  1.1073  0.9141
  135SOL    HW2  405   1.518   0.977   2.468  0.3506 -1.8613  1.4088
  136SOL     OW  406   2.519   1.906   0.996  0.1278  0.3260  0.1761
  136SOL    HW1  407   2.516   1.941   1.089  1.5545  0.1517  1.1987
  136SOL    HW2  408   2.614   1.890   0.954 -0.0472  0.1755 -1.2152
  137SOL     OW  409   2.762   1.820   0.907  0.1889 -0.0127 -0.4643
  137SOL    HW1  410   2.849   1.801   0.963  1.1304  2.0082  1.1989
  137SOL    HW2  411   2.771   1.794   0.811 -0.4052 -1.5650  3.0034
  138SOL     OW  412   2.822   0.415   0.709  0.1893 -0.4155 -0.4816
  138SOL    HW1  413   2.877   0.332   0.734  0.7135  0.6336 -0.0629
  138SOL    HW2  414   2.795   0.460   0.797 -2.3190  1.2987  0.4604
  139SOL     OW  415   2.998   2.901   0.139 -0.3835  0.2550 -0.1401
  139SOL    HW1  416   2.982   2.929   0.042  1.1836 -1.5394 -1.1487
  139SOL    HW2  417   3.069   2.966   0.174  0.2149  0.4982  2.1653
  140SOL     OW  418   0.710   1.725   1.656 -0.0501  0.3938  0.1195
  140SOL    HW1  419   0.734   1.633   1.696 -0.7150  1.2925  1.1758
  140SOL    HW2  420   0.735   1.804   1.716 -3.2942  1.3928  0.0631
  141SOL     OW  421   1.344   1.662   0.938 -0.3442  0.0360 -0.0315
  141SOL    HW1  422   1.390   1.572   0.948  0.1013  1.2192 -1.0159
  141SOL    HW2  423   1.383   1.713   0.859  1.3131 -1.0671 -0.1323
  142SOL     OW  424   0.978   0.652   0.784 -0.6699 -0.5441  0.2928
  142SOL    HW1  425   0.937   0.572   0.827  1.4543  1.9488  0.0782
  142SOL    HW2  426   0.901   0.706   0.742 -0.3204  0.0820 -1.4309
  143SOL     OW  427   0.699   1.267   2.507  0.8302  0.1581 -0.0764
  143SOL    HW1  428   0.767   1.338   2.543 -1.3133  0.8719 -0.9079
  143SOL    HW2  429   0.601   1.306   2.509  0.3961  0.8903  1.4354
  144SOL     OW  430   2.381   2.999   0.848 -0.1375  0.6010  0.3226
  144SOL    HW1  431   2.399   3.099   0.853  1.0599 -1.3440  1.2721
  144SOL    HW2  432   2.373   2.959   0.944  1.3681  0.0049 -0.3375
  145SOL     OW  433   2.338   0.327   2.618  0.3012  0.3035 -0.1016
  145SOL    HW1  434   2.285   0.281   2.691 -0.3073 -1.5346 -0.8734
  145SOL    HW2  435   2.417   0.374   2.659 -0.2434 -0.1661  0.3937
  146SOL     OW  436   3.097   2.692   0.555  0.1205  0.4041 -0.4238
  146SOL    HW1  437   3.048   2.605   0.525  1.5288 -0.1902 -0.1421
  146SOL    HW2  438   3.090   2.709   0.654  1.6022  0.1055 -1.6457
  147SOL     OW  439   0.998   1.156   2.732 -0.1272 -0.0777 -0.3879
  147SOL    HW1  440   1.006   1.087   2.656 -2.4412  2.5991 -2.3181
  147SOL    HW2  441   1.022   1.246   2.700  1.5021 -0.3486 -1.0221
  148SOL     OW  442   1.501   0.259   2.797  0.2059 -0.1044  0.5645
  148SOL    HW1  443   1.500   0.176   2.854  0.7333  0.7791 -2.0471
  148SOL    HW2  444   1.443   0.241   2.716  0.2707  0.9848  0.1740
  149SOL     OW  445   1.905   0.191   2.034 -0.0199  0.3502  0.0082
  149SOL    HW1  446   1.951   0.107   1.999 -1.9396  0.7249 -0.4754
  149SOL    HW2  447   1.936   0.223   2.123 -1.8897  3.0526  3.6776
  150SOL     OW  448   2.291   2.631   0.130  0.2292  0.5502  0.2614
  150SOL    HW1  449   2.347   2.588   0.059 -1.6439  2.7496 -2.0466
  150SOL    HW2  450   2.190   2.594   0.128 -2.8284 -2.6365 -1.2985
  151SOL     OW  451   0.668   1.517   3.106 -0.6774  0.3692 -0.1521
  151SOL    HW1  452   0.622   1.425   0.002 -0.4283  0.4191  0.6810
  151SOL    HW2  453   0.749   1.511   3.041 -2.1275 -0.8419  2.0927
  152SOL     OW  454   0.245   3.088   1.569 -0.4056  0.1458  0.1850
  152SOL    HW1  455   0.192   0.046   1.531 -4.0338 -1.5530  0.8609
  152SOL    HW2  456   0.230   3.087   1.669 -2.4143 -0.5225  0.8140
  153SOL     OW  457   2.488   3.040   1.745 -0.0354  0.2147 -0.1900
  153SOL    HW1  458   2.571   3.099   1.756 -0.9930  0.6012 -0.0641
  153SOL    HW2  459   2.424   3.066   1.820 -2.1223  0.3419 -0.9106
  154SOL     OW  460   2.555   0.100   2.632  0.0183  0.0540 -0.1229
  154SOL    HW1  461   2.503   0.186   2.615  1.0839 -2.2846  1.8972
  154SOL    HW2  462   2.597   0.072   2.544 -1.4900 -0.1610 -1.1167
  155SOL     OW  463   3.076   1.228   0.457  0.6271  0.6772  0.2298
  155SOL    HW1  464   0.024   1.166   0.515  0.9846 -3.0283  3.8569
  155SOL    HW2  465   3.055   1.309   0.505 -1.4705 -2.4629 -0.5888
  156SOL     OW  466   0.173   1.579   0.362 -0.3169 -0.4283 -0.1872
  156SOL    HW1  467   0.221   1.643   0.293 -0.0565  1.1404  0.0852
  156SOL    HW2  468   0.149   1.491   0.317 -1.2080  0.4455 -1.8502
  157SOL     OW  469   0.651   0.030   0.759  0.1943  0.3651  0.1981
  157SOL    HW1  470   0.612   3.087   0.687 -0.8051 -1.0796  1.0803
  157SOL    HW2  471   0.751   0.050   0.752 -0.5529 -0.4297 -0.9262
  158SOL     OW  472   1.707   1.332   0.897 -0.3958  0.3923 -0.0268
  158SOL    HW1  473   1.726   1.256   0.960 -0.6331  1.0361 -1.3775
  158SOL    HW2  474   1.782   1.402   0.902  2.7138  0.6400 -0.5780
  159SOL     OW  475   3.090   0.298   0.334 -0.1447 -0.0594 -0.1523
  159SOL    HW1  476   0.007   0.393   0.319 -1.1700 -0.3348  1.0534
  159SOL    HW2  477   0.050   0.230   0.343  2.9705 -1.5245  1.6777
  160SOL     OW  478   2.203   2.417   1.747 -0.1272  0.2737 -0.2430
  160SOL    HW1  479   2.110   2.376   1.775 -1.1237 -0.5579  3.9698
  160SOL    HW2  480   2.190   2.483   1.669  0.6144 -0.8137 -1.6181
  161SOL     OW  481   0.256   0.748   2.813  0.4974 -0.8984  0.2439
  161SOL    HW1  482   0.177   0.710   2.861  0.5105  0.2001 -1.7810
  161SOL    HW2  483   0.250   0.851   2.813  0.5217  1.6694  0.4952
  162SOL     OW  484   0.967   0.010   1.823 -0.3357 -0.4987  0.1655
  162SOL    HW1  485   1.055   3.091   1.857 -3.1533  1.2429  1.1659
  162SOL    HW2  486   0.921   0.055   1.904 -1.4511  0.6052  2.5756
  163SOL     OW  487   2.685   3.078   2.411  0.7053 -0.3547 -0.4562
  163SOL    HW1  488   2.746   2.992   2.403 -1.7563 -1.3565 -1.9199
  163SOL    HW2  489   2.728   0.035   2.359 -1.3472 -1.2996 -3.5307
  164SOL     OW  490   1.919   1.957   0.442  0.5145 -0.1495  0.3910
  164SOL    HW1  491   1.885   1.980   0.349 -0.0291  2.2215  1.3413
  164SOL    HW2  492   1.955   1.863   0.450  1.1975  0.3311  1.3329
  165SOL     OW  493   0.119   0.213   1.493 -0.2853  0.1185 -0.3892
  165SOL    HW1  494   0.044   0.281   1.504  0.6425  0.7159  0.6760
  165SOL    HW2  495   0.214   0.258   1.484 -1.4809 -0.0526  0.2778
  166SOL     OW  496   2.206   0.792   0.542 -0.2765  0.7703 -0.4234
  166SOL    HW1  497   2.133   0.800   0.609  0.5527 -0.4367 -3.5053
  166SOL    HW2  498   2.238   0.692   0.532 -0.7012 -1.1801  0.4602
  167SOL     OW  499   2.240   0.620   3.021 -0.3532  0.3754  0.3317
  167SOL    HW1  500   2.275   0.584   3.111  1.9357 -0.6517 -0.2666
  167SOL    HW2  501   2.145   0.593   3.003 -0.1886  1.1517  1.0407
  168SOL     OW  502   1.693   0.057   2.483  0.0667  0.2653  0.1680
  168SOL    HW1  503   1.681   3.074   2.469  0.8665 -1.0605  0.6883
  168SOL    HW2  504   1.774   0.081   2.540  1.4535  1.8531  0.0347
  169SOL     OW  505   0.625   1.725   0.897  0.6412  0.0765  0.2498
  169SOL    HW1  506   0.528   1.742   0.863 -1.2879  0.2049 -0.2015
  169SOL    HW2  507   0.619   1.698   0.995 -1.2922 -1.5025 -0.5064
  170SOL     OW  508   0.009   0.961   1.325  0.1439 -0.4279 -0.9887
  170SOL    HW1  509   0.045   1.019   1.253  1.2706  1.5252  2.2345
  170SOL    HW2  510   0.040   0.990   1.418 -0.6767 -0.2446  0.3756
  171SOL     OW  511   2.628   1.754   2.330 -0.2294  0.1634 -0.3686
  171SOL    HW1  512   2.657   1.733   2.237 -2.4436 -1.3865 -0.2556
  171SOL    HW2  513   2.535   1.716   2.352 -0.0305 -0.2799  0.3287
  172SOL     OW  514   0.655   1.797   1.413  0.4770 -0.4898  0.2032
  172SOL    HW1  515   0.587   1.877   1.418  1.9340  3.0001 -2.1250
  172SOL    HW2  516   0.672   1.754   1.503 -1.0914  1.6277  1.0459
  173SOL     OW  517   1.973   1.691   3.057 -0.0561  0.1523  0.0539
  173SOL    HW1  518   1.915   1.607   3.071  0.4647 -0.6372 -1.9240
  173SOL    HW2  519   1.916   1.763   3.014  1.2567 -1.8809  2.3754
  174SOL     OW  520   1.375   0.953   2.835 -0.3562 -0.4694 -0.2034
  174SOL    HW1  521   1.475   0.972   2.852 -2.4784 -1.6957  1.2194
  174SOL    HW2  522   1.368   0.859   2.797 -2.0730  2.6416  1.6661
  175SOL     OW  523   1.157   1.351   1.247  0.1607 -0.2096  0.5923
  175SOL    HW1  524   1.120   1.414   1.314 -0.7979 -1.0201 -0.4334
  175SOL    HW2  525   1.138   1.256   1.281  0.9422 -1.7596 -0.0366
  176SOL     OW  526   1.227   0.136   0.356 -0.1517 -0.2020 -0.2174
  176SOL    HW1  527   1.137   0.130   0.406 -2.4061 -0.2321  0.2066
  176SOL    HW2  528   1.214   0.156   0.255 -1.2985 -1.6557 -0.3488
  177SOL     OW  529   0.349   0.887   0.431 -0.2950  0.0861  0.0123
  177SOL    HW1  530   0.406   0.804   0.405  0.6734 -1.9412  1.6709
  177SOL    HW2  531   0.407   0.936   0.500  0.9853  1.1273 -2.8373
  178SOL     OW  532   2.957   2.330   2.713 -0.2559  0.0793 -0.3329
  178SOL    HW1  533   2.978   2.236   2.757 -0.1860 -2.4536  2.2540
  178SOL    HW2  534   3.000   2.407   2.765  0.8130 -0.3972 -1.9639
  179SOL     OW  535   2.430   2.843   2.460  0.0240  0.2156 -0.4607
  179SOL    HW1  536   2.407   2.849   2.560 -1.1479 -1.8888 -0.7961
  179SOL    HW2  537   2.465   2.753   2.438 -0.7489  0.6435 -0.5881
  180SOL     OW  538   2.158   0.996   1.174  0.4784  0.0381 -0.1145
  180SOL    HW1  539   2.194   1.066   1.237  0.3732 -1.0112 -0.4085
  180SOL    HW2  540   2.226   0.959   1.111 -2.9561 -1.5396  3.2353
  181SOL     OW  541   2.152   0.505   2.518 -0.7041 -0.2308  0.3349
  181SOL    HW1  542   2.221   0.446   2.567  2.7407  1.1920 -0.8787
  181SOL    HW2  543   2.191   0.542   2.433 -4.3812  0.6417 -0.3848
  182SOL     OW  544   2.871   2.379   2.238  0.0211  0.4625 -0.2768
  182SOL    HW1  545   2.965   2.399   2.211  0.0291 -1.8295  3.2583
  182SOL    HW2  546   2.850   2.386   2.338  1.4181 -3.1790 -0.0671
  183SOL     OW  547   2.104   0.879   1.978 -0.2813  0.1368  0.2020
  183SOL    HW1  548   2.204   0.888   1.992 -2.2006 -1.6804 -0.2640
  183SOL    HW2  549   2.077   0.857   1.882 -1.5719  1.8592  0.1927
  184SOL     OW  550   0.236   1.752   1.029 -0.0970 -0.6030  0.3196
  184SOL    HW1  551   0.241   1.735   0.929  0.1225  0.0396 -0.6863
  184SOL    HW2  552   0.259   1.662   1.069  1.5658  0.3439 -1.6452
  185SOL     OW  553   2.845   0.203   0.909  0.1128 -0.8166 -0.4844
  185SOL    HW1  554   2.846   0.103   0.923  0.3963 -1.2271  0.3214
  185SOL    HW2  555   2.895   0.246   0.987 -1.4120  0.1411  0.0420
  186SOL     OW  556   2.160   2.624   2.470  0.4522  0.0871  0.1517
  186SOL    HW1  557   2.067   2.582   2.453  0.0198  0.2753  1.0013
  186SOL    HW2  558   2.148   2.709   2.530  0.5569  0.0497  1.8789
  187SOL     OW  559   0.524   1.292   0.585  0.1385 -0.2327  0.0318
  187SOL    HW1  560   0.511   1.191   0.602 -0.9209  0.2261 -3.5185
  187SOL    HW2  561   0.565   1.339   0.666 -0.2778 -2.4027 -1.7262
  188SOL     OW  562   2.252   1.328   0.976  0.3925  0.1737 -0.4433
  188SOL    HW1  563   2.195   1.242   0.980  0.1764  0.5896 -2.1412
  188SOL    HW2  564   2.304   1.335   0.892 -0.2585  1.1849  0.7727
  189SOL     OW  565   3.015   1.208   2.571 -0.2981 -0.4611  0.3527
  189SOL    HW1  566   3.054   1.156   2.652  0.9544  1.9169  2.5221
  189SOL    HW2  567   2.921   1.227   2.599  1.3788 -1.8457  1.0661
  190SOL     OW  568   2.328   0.541   2.257 -0.1063 -0.5009 -0.0552
  190SOL    HW1  569   2.258   0.533   2.181 -0.1037 -0.9892 -0.3908
  190SOL    HW2  570   2.399   0.472   2.256 -0.6628  2.1465 -0.0508
  191SOL     OW  571   1.261   0.265   2.096  0.2003 -0.1729  0.6328
  191SOL    HW1  572   1.243   0.331   2.018  0.5573  0.8844 -1.7954
  191SOL    HW2  573   1.179   0.207   2.107  2.4664 -0.0478 -0.2633
  192SOL     OW  574   1.064   1.694   1.632 -0.0576 -0.2040  0.2152
  192SOL    HW1  575   1.078   1.738   1.539 -0.4173 -0.4905  0.6845
  192SOL    HW2  576   1.049   1.764   1.702  0.3333  0.7427  1.4384
  193SOL     OW  577   1.242   2.946   0.868  0.5251  0.0661  0.0523
  193SOL    HW1  578   1.162   2.949   0.933 -0.6816  2.1814  1.2145
  193SOL    HW2  579   1.213   2.945   0.772  1.4101 -1.9747  3.3155
  194SOL     OW  580   0.563   1.949   2.083  0.0910 -0.2839  0.3568
  194SOL    HW1  581   0.568   2.030   2.142 -1.1281 -2.2506 -1.4247
  194SOL    HW2  582   0.601   1.975   1.992  1.9277  1.0356  0.0652
  195SOL     OW  583   1.706   0.386   0.836 -0.3785  0.2023  0.2927
  195SOL    HW1  584   1.714   0.292   0.800 -0.1608 -2.2626 -0.0890
  195SOL    HW2  585   1.620   0.430   0.809  4.8578 -2.9370 -0.9011
  196SOL     OW  586   1.248   1.613   1.908  0.2454  0.6017  0.4745
  196SOL    HW1  587   1.210   1.620   2.002 -1.5159 -1.0176 -1.9714
  196SOL    HW2  588   1.261   1.705   1.867  0.3559  1.9737 -1.1851
  197SOL     OW  589   0.411   0.467   1.795 -0.2878 -0.3137  0.1030
  197SOL    HW1  590   0.503   0.470   1.829 -2.6264 -1.5947 -2.0808
  197SOL    HW2  591   0.356   0.545   1.838  1.1160  0.8464  0.7375
  198SOL     OW  592   0.680   0.808   0.804 -0.2729 -0.2534  0.1354
  198SOL    HW1  593   0.584   0.796   0.767 -0.7465  0.8427  2.3760
  198SOL    HW2  594   0.719   0.892   0.764  0.1564 -0.7005 -0.0996
  199SOL     OW  595   0.091   2.589   1.521  0.1395 -0.7357 -0.0785
  199SOL    HW1  596   0.105   2.523   1.441  1.6147 -2.5432 -2.1037
  199SOL    HW2  597   0.045   2.547   1.598  3.0751 -0.3521 -2.1843
  200SOL     OW  598   1.803   1.351   2.614  1.0286  0.1972  0.1571
  200SOL    HW1  599   1.847   1.274   2.576 -1.0238  3.1623  2.4544
  200SOL    HW2  600   1.712   1.329   2.663 -1.2213 -0.5842  1.9594
  201SOL     OW  601   0.666   2.345   1.745 -0.2296  0.1892 -0.4204
  201SOL    HW1  602   0.644   2.363   1.647  0.9110 -0.1342  2.1809
  201SOL    HW2  603   0.682   2.245   1.756  0.2473 -1.6278 -2.0355
  202SOL     OW  604   1.188   2.837   2.920  0.1339 -0.6104 -0.1055
  202SOL    HW1  605   1.163   2.787   2.837  2.6173  3.6893  1.0127
  202SOL    HW2  606   1.114   2.889   2.963  0.5601 -1.8171  2.3612
  203SOL     OW  607   1.713   0.602   2.489 -0.2183 -0.3440  0.5408
  203SOL    HW1  608   1.651   0.571   2.411 -2.1912  0.8968 -0.7678
  203SOL    HW2  609   1.769   0.523   2.524 -1.9562 -1.2403  0.5651
  204SOL     OW  610   0.728   1.461   1.725  0.0216 -0.2099 -0.1056
  204SOL    HW1  611   0.768   1.490   1.818 -0.6289  1.2340  6.0630
  204SOL    HW2  612   0.665   1.380   1.738 -1.4987  4.1342  0.5173
  205SOL     OW  613   2.016   0.867   2.864  0.2351 -0.3911 -0.2811
  205SOL    HW1  614   1.952   0.899   2.789  0.6961  3.5310  1.1749
  205SOL    HW2  615   2.077   0.790   2.832  1.8408  0.4394  0.5114
  206SOL     OW  616   0.321   1.659   2.894 -0.6515 -0.2961  0.1216
  206SOL    HW1  617   0.339   1.602   2.813  1.4883  1.1659 -3.1140
  206SOL    HW2  618   0.410   1.678   2.941 -1.0541 -0.3854  2.0707
  207SOL     OW  619   0.940   2.800   1.806 -0.4950  0.1011  0.1121
  207SOL    HW1  620   0.885   2.723   1.843 -0.1006  1.2950 -1.1652
  207SOL    HW2  621   0.877   2.864   1.765  1.8354 -0.3719 -1.4126
  208SOL     OW  622   0.612   2.625   1.447  0.1197  0.4629  0.7738
  208SOL    HW1  623   0.530   2.670   1.481  0.0602  0.6975 -1.6965
  208SOL    HW2  624   0.598   2.533   1.409 -0.7738  1.2253  1.9309
  209SOL     OW  625   1.067   2.848   0.189  0.2466  0.1200  0.4689
  209SOL    HW1  626   1.006   2.889   0.258 -0.0013  1.7044 -1.8308
  209SOL    HW2  627   1.070   2.901   0.103 -2.2244  2.2136  1.4844
  210SOL     OW  628   2.864   1.673   1.707 -0.3442 -0.0902 -0.1830
  210SOL    HW1  629   2.805   1.605   1.758  0.5989  0.6215  1.2576
  210SOL    HW2  630   2.961   1.635   1.688  1.7747 -1.2057  2.5709
  211SOL     OW  631   1.278   0.547   1.519 -0.2207 -0.5186  0.1916
  211SOL    HW1  632   1.242   0.633   1.563 -2.0265  1.5057  2.2660
  211SOL    HW2  633   1.368   0.513   1.552 -3.9140  0.3627  1.2889
  212SOL     OW  634   1.278   2.048   1.457  0.3942 -0.3506  0.2560
  212SOL    HW1  635   1.313   2.130   1.404  2.0895 -0.1171 -3.5455
  212SOL    HW2  636   1.350   1.986   1.487  0.1155 -0.4834  1.8226
  213SOL     OW  637   2.528   0.217   1.642  0.0967 -0.1139 -1.2349
  213SOL    HW1  638   2.457   0.266   1.700 -1.0606  1.0316  0.2976
  213SOL    HW2  639   2.592   0.162   1.702 -1.0841  1.2833  0.6710
  214SOL     OW  640   0.791   2.004   1.656  0.1200  0.2162  0.4486
  214SOL    HW1  641   0.874   1.980   1.708 -2.3641 -0.3313 -1.0016
  214SOL    HW2  642   0.810   2.051   1.571  0.0860 -3.7579  2.6506
  215SOL     OW  643   2.738   2.007   1.171 -0.1044  0.6850  0.0563
  215SOL    HW1  644   2.643   2.042   1.186  0.7620 -1.5737  1.1997
  215SOL    HW2  645   2.792   2.019   1.257 -1.4564  0.9766  0.3759
  216SOL     OW  646   0.117   0.941   1.618 -0.0042  0.4632 -0.4171
  216SOL    HW1  647   0.212   0.980   1.596  0.1290  1.1556 -3.6004
  216SOL    HW2  648   0.110   0.840   1.616  0.6246  0.4838 -0.3504
  217SOL     OW  649   2.667   0.192   1.283  0.0071  0.1744 -0.1974
  217SOL    HW1  650   2.758   0.142   1.267  0.9858  0.8585 -0.5622
  217SOL    HW2  651   2.680   0.249   1.366 -3.3726 -1.0689  0.5529
  218SOL     OW  652   1.300   2.140   1.127 -0.4296  0.8101 -0.1685
  218SOL    HW1  653   1.389   2.134   1.178  0.7718 -1.8371  4.1686
  218SOL    HW2  654   1.309   2.076   1.042 -0.2906 -1.6106 -0.7373
  219SOL     OW  655   1.439   2.290   0.307 -0.0885  0.0063 -0.0970
  219SOL    HW1  656   1.402   2.382   0.286 -1.6464 -2.0746 -0.5711
  219SOL    HW2  657   1.408   2.253   0.400 -0.7269 -0.9942 -3.0978
  220SOL     OW  658   1.693   2.343   0.236 -0.2617  0.1983  0.5450
  220SOL    HW1  659   1.596   2.318   0.254  0.4105 -0.3789  0.4566
  220SOL    HW2  660   1.751   2.302   0.312 -0.4264  1.3641 -2.4775
  221SOL     OW  661   2.968   2.069   1.022 -0.1559  0.2050  0.1718
  221SOL    HW1  662   3.022   1.983   1.016  1.4268  0.4831  0.0662
  221SOL    HW2  663   2.881   2.053   1.068 -0.1496  0.1508 -0.9129
  222SOL     OW  664   1.153   2.270   0.815 -0.1584  0.3466 -0.0097
  222SOL    HW1  665   1.215   2.194   0.841  2.6097  0.4889 -1.5413
  222SOL    HW2  666   1.079   2.285   0.885 -0.0431  0.2854 -0.6393
  223SOL     OW  667   0.957   2.688   2.317  0.0457 -0.1232 -0.1776
  223SOL    HW1  668   1.053   2.656   2.299  1.1860 -0.1257  0.3951
  223SOL    HW2  669   0.904   2.745   2.253 -2.1891  0.3051 -1.2295
  224SOL     OW  670   2.812   1.452   1.134  0.2292 -0.0738 -0.2602
  224SOL    HW1  671   2.745   1.532   1.133 -1.8277 -0.0855 -1.4582
  224SOL    HW2  672   2.899   1.479   1.178 -0.0276  0.0070  1.8446
  225SOL     OW  673   2.399   1.727   0.842  0.5200 -0.4825  0.2204
  225SOL    HW1  674   2.431   1.791   0.912 -2.5372  0.0301 -0.2304
  225SOL    HW2  675   2.462   1.718   0.763 -0.0652 -1.8961  0.7515
  226SOL     OW  676   1.247   2.690   0.662  0.0699  0.1848  0.1049
  226SOL    HW1  677   1.326   2.665   0.601  0.8536 -0.5688 -1.8737
  226SOL    HW2  678   1.253   2.642   0.755  1.1940 -0.7932  1.7380
  227SOL     OW  679   1.425   1.096   1.334 -0.0783 -0.0061 -0.4816
  227SOL    HW1  680   1.327   1.109   1.305  0.6020  0.4483  1.2886
  227SOL    HW2  681   1.482   1.183   1.322  1.3698 -0.9382 -1.5483
  228SOL     OW  682   1.229   0.657   2.193  0.4333  0.4911  0.0657
  228SOL    HW1  683   1.182   0.743   2.156 -1.0083  0.4968 -1.4786
  228SOL    HW2  684   1.298   0.627   2.124  0.6049 -0.4770  0.2190
  229SOL     OW  685   2.485   0.947   2.864  1.0094 -0.2375 -0.3578
  229SOL    HW1  686   2.517   0.978   2.772 -2.2747  0.8810  0.0508
  229SOL    HW2  687   2.475   0.846   2.867  0.4915  0.5248  0.0777
  230SOL     OW  688   1.077   1.349   0.732  0.0400  0.3602 -0.5815
  230SOL    HW1  689   1.122   1.283   0.792 -0.2286  0.0959 -1.3010
  230SOL    HW2  690   1.143   1.396   0.670 -2.5339 -0.9431  0.9469
  231SOL     OW  691   2.409   3.096   2.320 -0.4670 -0.1824 -0.4039
  231SOL    HW1  692   2.472   3.026   2.356  1.5878 -0.1362 -0.9616
  231SOL    HW2  693   2.369   0.041   2.394 -2.9928 -0.3528 -0.0590
  232SOL     OW  694   0.608   1.955   0.110 -0.0725  0.0551  0.1841
  232SOL    HW1  695   0.579   1.971   0.208 -0.9163  0.0859 -2.0544
  232SOL    HW2  696   0.604   2.040   0.049  0.0813 -0.6816 -2.3623
  233SOL     OW  697   1.587   2.501   2.585 -0.1611  0.1002 -0.0651
  233SOL    HW1  698   1.542   2.453   2.667  0.9525 -2.8028  0.8475
  233SOL    HW2  699   1.654   2.436   2.541 -1.8305 -0.2629  0.4743
  234SOL     OW  700   1.116   1.389   1.872  0.1201  0.1147 -0.5341
  234SOL    HW1  701   1.167   1.482   1.890  3.1259  2.3242 -1.9161
  234SOL    HW2  702   1.018   1.406   1.849  0.5609  0.2384 -2.7204
  235SOL     OW  703   0.582   2.003   1.830  0.2537 -0.4814 -0.1380
  235SOL    HW1  704   0.637   1.986   1.745  0.1087 -0.5593  3.5984
  235SOL    HW2  705   0.487   2.028   1.810  0.9895 -1.0143  0.4833
  236SOL     OW  706   1.816   2.693   2.676  0.2573  0.2124  0.2311
  236SOL    HW1  707   1.757   2.636   2.738 -2.9482  1.0917  2.2522
  236SOL    HW2  708   1.797   2.794   2.685  0.1731 -0.3219 -0.7079
  237SOL     OW  709   1.458   3.117   0.862  0.2776 -0.0909 -0.5409
  237SOL    HW1  710   1.391   3.042   0.874  0.4965 -1.9089 -0.7632
  237SOL    HW2  711   1.489   0.037   0.950 -0.0221 -1.8008 -0.2110
  238SOL     OW  712   1.109   0.671   2.873  0.1713  0.1696 -0.3491
  238SOL    HW1  713   1.126   0.696   2.966 -0.3103 -0.2966 -2.7534
  238SOL    HW2  714   1.196   0.684   2.817  2.0916  1.4388 -3.6888
  239SOL     OW  715   0.851   0.148   2.030  0.3843  0.2343 -0.5052
  239SOL    HW1  716   0.745   0.154   2.022 -1.6255  0.6517 -1.8999
  239SOL    HW2  717   0.898   0.230   1.994  4.0132  1.6919  3.0115
  240SOL     OW  718   2.028   2.603   0.734  0.5579  0.1496 -0.6203
  240SOL    HW1  719   2.068   2.543   0.804 -0.0406 -1.9592 -1.9162
  240SOL    HW2  720   1.928   2.581   0.715 -1.9781  1.5536 -0.6653
  241SOL     OW  721   1.347   1.473   1.444 -0.1250  0.0974  0.7291
  241SOL    HW1  722   1.252   1.449   1.470  0.0646 -0.3909  1.6356
  241SOL    HW2  723   1.356   1.562   1.392 -0.5090  1.3839 -1.4692
  242SOL     OW  724   0.247   0.752   0.861  0.3512 -0.1204  0.1519
  242SOL    HW1  725   0.145   0.768   0.845 -2.5339  0.3621 -2.2990
  242SOL    HW2  726   0.287   0.691   0.791  0.7483  1.9828 -1.7158
  243SOL     OW  727   0.572   0.660   1.521 -0.3330 -0.2518  0.2091
  243SOL    HW1  728   0.503   0.727   1.486 -0.0941  1.4221 -0.0859
  243SOL    HW2  729   0.566   0.571   1.468  0.8719 -0.4127 -0.4296
  244SOL     OW  730   1.254   0.482   0.090 -0.3100  0.3361  0.1864
  244SOL    HW1  731   1.199   0.565   0.085  1.6287 -0.2816 -0.8668
  244SOL    HW2  732   1.347   0.503   0.054  3.2328  0.9307  1.9503
  245SOL     OW  733   2.082   0.212   0.035 -0.2204 -0.6737 -0.3591
  245SOL    HW1  734   2.109   0.144   0.109  1.5717  1.0084  4.1917
  245SOL    HW2  735   2.121   0.305   0.054 -0.4916 -2.1843  1.1682
  246SOL     OW  736   0.651   1.016   1.837 -0.2493  0.2453 -0.0658
  246SOL    HW1  737   0.588   0.936   1.828  0.8782 -0.9891  1.8035
  246SOL    HW2  738   0.750   1.001   1.811  2.2230 -0.5653 -1.2579
  247SOL     OW  739   0.533   3.028   2.202 -0.0717 -0.2176 -0.4291
  247SOL    HW1  740   0.496   3.065   2.116 -1.1008  0.5096  0.5796
  247SOL    HW2  741   0.550   3.109   2.261 -0.6411  0.5246 -1.6950
  248SOL     OW  742   0.347   1.578   2.219  0.1958 -0.0310 -0.8453
  248SOL    HW1  743   0.297   1.636   2.144 -0.8793  0.9722  1.2877
  248SOL    HW2  744   0.445   1.597   2.231  0.0611  0.8086  0.7221
  249SOL     OW  745   0.185   0.081   2.817 -0.7337  0.2292 -0.1849
  249SOL    HW1  746   0.179   0.182   2.790  0.4901 -3.0671 -1.0076
  249SOL    HW2  747   0.199   0.018   2.741  1.3768  0.7150  3.0759
  250SOL     OW  748   2.929   2.967   2.997 -0.2972 -0.2603  0.5437
  250SOL    HW1  749   2.972   3.057   3.009  0.4570 -1.0513  2.9136
  250SOL    HW2  750   2.886   2.954   2.903 -1.6956 -0.3252 -1.2277
  251SOL     OW  751   0.310   1.476   1.090 -0.3034  0.8000  0.0568
  251SOL    HW1  752   0.224   1.438   1.058  1.7030  1.4317 -1.8105
  251SOL    HW2  753   0.392   1.418   1.073  0.0213  0.7708 -1.3298
  252SOL     OW  754   1.541   2.906   2.040 -0.1357  0.0997  0.0332
  252SOL    HW1  755   1.491   2.979   2.086 -3.3334 -0.5602  0.5725
  252SOL    HW2  756   1.590   2.847   2.107 -2.7789  1.2082 -2.2722
  253SOL     OW  757   1.935   2.097   2.613 -0.0335  0.0255 -0.1873
  253SOL    HW1  758   1.990   2.184   2.622  1.7863  2.0349  2.4577
  253SOL    HW2  759   1.839   2.126   2.619 -0.8824  0.1759 -2.5012
  254SOL     OW  760   0.536   1.526   1.939 -0.0687  0.0503  0.0849
  254SOL    HW1  761   0.559   1.445   1.885 -1.1354  1.0242  1.5378
  254SOL    HW2  762   0.626   1.566   1.979  0.7255 -0.6512  1.9872
  255SOL     OW  763   1.162   0.265   1.484 -0.2475  0.0631  0.1275
  255SOL    HW1  764   1.220   0.193   1.534  0.3930 -1.6717  2.2566
  255SOL    HW2  765   1.202   0.360   1.493 -0.3819  2.0087 -1.6747
  256SOL     OW  766   2.898   2.385   1.334 -0.2833  0.6690 -0.2685
  256SOL    HW1  767   2.902   2.457   1.406  2.0872  1.7800  2.3488
  256SOL    HW2  768   2.809   2.398   1.286  2.0691  1.7282 -0.8843
  257SOL     OW  769   0.340   2.414   3.073 -0.2579 -0.1783  0.0924
  257SOL    HW1  770   0.291   2.332   3.107 -0.0339  1.2328  1.2369
  257SOL    HW2  771   0.403   2.443   0.030 -0.4882  0.5140 -0.6971
  258SOL     OW  772   0.946   2.018   2.231 -0.6177  0.1504 -0.0356
  258SOL    HW1  773   0.902   2.043   2.144  1.5768 -1.4179  0.4505
  258SOL    HW2  774   0.928   2.084   2.305 -1.7957 -2.2458  0.3245
  259SOL     OW  775   0.869   1.687   2.870  0.5717  0.3572 -0.1241
  259SOL    HW1  776   0.857   1.776   2.824 -0.3863 -3.2200  1.4145
  259SOL    HW2  777   0.937   1.697   2.945 -0.6334  0.1387  0.3647
  260SOL     OW  778   2.433   0.787   2.284 -0.3919 -0.5772 -0.3174
  260SOL    HW1  779   2.374   0.871   2.268 -2.4800  2.4466 -1.5577
  260SOL    HW2  780   2.389   0.696   2.263 -1.6961 -0.3687 -0.4402
  261SOL     OW  781   1.203   0.790   0.796 -0.1522 -0.4862 -0.2398
  261SOL    HW1  782   1.134   0.716   0.786  0.8760 -1.5688 -2.2237
  261SOL    HW2  783   1.183   0.844   0.882 -3.5899  2.0662 -0.8118
  262SOL     OW  784   1.898   2.469   2.484 -0.2718 -0.3602  0.1925
  262SOL    HW1  785   1.829   2.397   2.487  0.8827 -1.9658 -0.8785
  262SOL    HW2  786   1.859   2.552   2.525  0.5638 -1.1379  0.2840
  263SOL     OW  787   0.324   2.102   0.474  0.1368  0.0805 -0.2241
  263SOL    HW1  788   0.283   2.041   0.404  0.3052  0.6495 -1.7041
  263SOL    HW2  789   0.427   2.106   0.467 -0.1611 -0.1458  0.6309
  264SOL     OW  790   0.036   2.355   0.926 -0.6246  0.1471  0.0096
  264SOL    HW1  791   0.067   2.266   0.891  1.2082  0.6611  0.3711
  264SOL    HW2  792   3.115   2.352   1.023 -0.8983 -1.3588  0.7894
  265SOL     OW  793   0.564   1.289   0.297  0.4009 -0.3034  0.4763
  265SOL    HW1  794   0.522   1.310   0.391 -2.3720 -0.8114  1.1131
  265SOL    HW2  795   0.644   1.229   0.302 -0.0312 -1.1526 -0.9954
  266SOL     OW  796   0.798   1.862   2.474 -0.1392 -0.5197  0.2057
  266SOL    HW1  797   0.813   1.960   2.506  4.3058 -1.4163  0.3363
  266SOL    HW2  798   0.887   1.822   2.446 -1.6276  3.0270 -0.2355
  267SOL     OW  799   1.253   0.649   2.463  0.0220 -0.2531  0.4434
  267SOL    HW1  800   1.240   0.554   2.496 -1.7430  4.9405 -2.1203
  267SOL    HW2  801   1.247   0.662   2.360 -1.6375  1.0177  0.1590
  268SOL     OW  802   0.443   0.795   3.017  0.4694  0.4286 -0.6321
  268SOL    HW1  803   0.380   0.755   2.949  0.8318 -1.6523  0.6646
  268SOL    HW2  804   0.397   0.872   3.064  0.1801 -0.3089  1.6278
  269SOL     OW  805   2.376   2.497   2.583 -0.1692  0.2918 -0.0854
  269SOL    HW1  806   2.390   2.409   2.534 -0.4435  0.0499  0.8483
  269SOL    HW2  807   2.299   2.554   2.549 -0.8433 -1.3676 -1.3040
  270SOL     OW  808   1.751   1.540   2.974 -0.2495 -0.1274 -0.3714
  270SOL    HW1  809   1.763   1.557   2.870 -1.0649  0.9741  0.7914
  270SOL    HW2  810   1.758   1.437   2.988 -1.1455 -1.1323  0.5057
  271SOL     OW  811   0.318   0.058   3.060  0.1563 -0.8542  0.4650
  271SOL    HW1  812   0.365   3.085   3.080 -0.1988  3.0587  0.6827
  271SOL    HW2  813   0.279   0.064   2.965  0.5662 -0.9318  1.9615
  272SOL     OW  814   2.770   0.633   0.407 -0.5990 -0.3677  0.1727
  272SOL    HW1  815   2.827   0.601   0.485  0.8394  1.2145  0.5894
  272SOL    HW2  816   2.670   0.643   0.431  0.1299 -0.5748  1.5306
  273SOL     OW  817   0.571   2.774   1.923 -0.5486 -0.2249  0.1172
  273SOL    HW1  818   0.527   2.861   1.939  1.2038 -2.1760  0.5379
  273SOL    HW2  819   0.511   2.718   1.863  2.0376 -2.3608  1.8863
  274SOL     OW  820   0.202   0.637   1.870  0.0588 -0.6325  0.0784
  274SOL    HW1  821   0.167   0.706   1.938 -0.6493 -0.0450  2.2596
  274SOL    HW2  822   0.153   0.650   1.780 -0.6987 -0.5747  0.0382
  275SOL     OW  823   0.801   1.598   0.611  0.5604 -0.0960 -0.4341
  275SOL    HW1  824   0.832   1.512   0.569  0.9797 -1.9257 -0.7625
  275SOL    HW2  825   0.875   1.635   0.665  2.1514 -1.2656 -1.0338
  276SOL     OW  826   0.762   0.838   2.085 -0.4959 -0.3887  0.6523
  276SOL    HW1  827   0.752   0.939   2.070  1.3759  1.1692  0.6876
  276SOL    HW2  828   0.774   0.817   2.183  2.9439  0.5272  0.4666
  277SOL     OW  829   1.305   2.485   1.798 -0.1801  0.3257 -0.1577
  277SOL    HW1  830   1.231   2.513   1.735  2.9213 -2.5713  2.6432
  277SOL    HW2  831   1.273   2.416   1.869  1.8636  0.5266  1.1517
  278SOL     OW  832   1.755   2.939   1.863  0.0693  0.1009 -1.0615
  278SOL    HW1  833   1.667   2.924   1.909 -0.2183 -0.6087  3.9980
  278SOL    HW2  834   1.826   2.965   1.932  0.4200  0.9348  1.4165
  279SOL     OW  835   1.285   1.323   0.349  0.0483 -0.1467  0.4315
  279SOL    HW1  836   1.329   1.382   0.282 -1.1860 -1.6909  2.7397
  279SOL    HW2  837   1.342   1.238   0.366 -0.9859 -4.2420 -0.5419
  280SOL     OW  838   1.094   1.235   0.185 -0.4000  0.3237  0.3297
  280SOL    HW1  839   1.083   1.295   0.098 -0.6369  0.8104  2.0189
  280SOL    HW2  840   1.146   1.284   0.255  0.6220  1.2920 -2.5856
  281SOL     OW  841   0.383   0.300   1.522  0.2813  0.5302  0.7313
  281SOL    HW1  842   0.395   0.348   1.610 -0.0535  1.9744  0.8555
  281SOL    HW2  843   0.461   0.320   1.459 -1.8154 -2.3572 -1.2306
  282SOL     OW  844   0.214   2.539   0.592 -0.2622 -0.2102 -0.0492
  282SOL    HW1  845   0.145   2.608   0.570 -0.1856 -0.7749 -2.7295
  282SOL    HW2  846   0.181   2.449   0.560 -0.3079 -0.3674 -1.1473
  283SOL     OW  847   1.540   2.188   2.268 -0.7361 -0.5542  0.4206
  283SOL    HW1  848   1.616   2.159   2.210  0.1788  1.7780 -0.3683
  283SOL    HW2  849   1.493   2.100   2.296 -2.4919 -0.6292  1.1404
  284SOL     OW  850   2.324   2.961   1.125 -0.0841  0.1533  0.2164
  284SOL    HW1  851   2.245   3.018   1.100  2.7984 -4.1223 -0.1306
  284SOL    HW2  852   2.295   2.869   1.114 -1.0090  0.4541 -1.2723
  285SOL     OW  853   0.536   2.428   2.717 -0.2357  0.2858  0.2469
  285SOL    HW1  854   0.460   2.407   2.649  0.9899  1.3238  2.1379
  285SOL    HW2  855   0.625   2.453   2.673 -1.2714 -2.5303 -1.8113
  286SOL     OW  856   3.074   2.808   0.823  0.0267  0.4260  0.1136
  286SOL    HW1  857   2.996   2.863   0.793  2.1090 -0.6607  2.3063
  286SOL    HW2  858   3.059   2.775   0.918  1.5463 -2.8358  0.9446
  287SOL     OW  859   0.690   1.398   0.799 -0.2873  0.1266  0.3279
  287SOL    HW1  860   0.695   1.488   0.755  0.2628 -0.6434 -2.1843
  287SOL    HW2  861   0.762   1.390   0.874  1.6559 -0.4742  0.1024
  288SOL     OW  862   2.267   2.151   2.736 -0.3359  0.4012 -0.2126
  288SOL    HW1  863   2.290   2.067   2.682 -0.7469  0.9934  0.8618
  288SOL    HW2  864   2.188   2.192   2.696 -1.3699  2.1755  1.4563
  289SOL     OW  865   3.047   2.128   2.858 -0.3740  0.2960  0.3431
  289SOL    HW1  866   3.077   2.163   2.952  1.4691  1.8191  1.4203
  289SOL    HW2  867   2.992   2.042   2.877  0.4740 -2.0581 -1.5858
  290SOL     OW  868   1.437   1.708   1.350 -0.1188  0.5391 -0.4804
  290SOL    HW1  869   1.517   1.657   1.313  0.8393  4.2310 -1.4061
  290SOL    HW2  870   1.388   1.759   1.278 -1.4930  0.9083 -0.2629
  291SOL     OW  871   1.467   1.272   3.078  0.3322  0.1585  0.4671
  291SOL    HW1  872   1.393   1.331   3.045 -0.2151 -1.8738 -2.0996
  291SOL    HW2  873   1.437   1.175   3.090  0.9900 -2.2050 -0.5488
  292SOL     OW  874   0.966   1.514   0.312 -0.7162  0.3154 -0.4197
  292SOL    HW1  875   0.935   1.451   0.388 -3.4171  0.8729 -2.8617
  292SOL    HW2  876   0.944   1.469   0.226 -1.0704  0.5294  1.9200
  293SOL     OW  877   1.467   2.850   0.991  0.0997 -0.4944 -0.1006
  293SOL    HW1  878   1.447   2.858   1.091  3.1704  1.8971  1.3599
  293SOL    HW2  879   1.392   2.881   0.935  0.5619  0.7439  1.4766
  294SOL     OW  880   2.053   1.339   2.836 -0.2022 -0.2310  0.5908
  294SOL    HW1  881   2.067   1.344   2.933  1.2246  0.7642 -1.7305
  294SOL    HW2  882   1.972   1.283   2.813 -0.8653  0.1679 -0.0022
  295SOL     OW  883   1.799   1.846   2.935  0.0888  0.1601 -0.1627
  295SOL    HW1  884   1.721   1.783   2.942 -1.0572  0.4794 -1.1561
  295SOL    HW2  885   1.774   1.948   2.932  0.9050 -1.3049 -0.6391
  296SOL     OW  886   1.851   0.626   1.911  0.4941  0.1158 -0.3335
  296SOL    HW1  887   1.896   0.683   1.839  2.6504  0.5154 -0.6718
  296SOL    HW2  888   1.870   0.665   2.005  0.3677 -0.0401 -0.6444
  297SOL     OW  889   0.019   0.787   2.022  0.6544  0.3330 -0.4527
  297SOL    HW1  890   3.038   0.810   2.007 -1.0945  0.9929 -0.8578
  297SOL    HW2  891   0.073   0.865   2.052 -0.8713 -2.5042  0.8953
  298SOL     OW  892   1.022   1.924   1.825 -0.3849  0.0374  0.5839
  298SOL    HW1  893   1.125   1.940   1.806  2.9442  1.9277  0.4174
  298SOL    HW2  894   0.993   2.008   1.881 -0.3233  1.4059  1.3062
  299SOL     OW  895   1.221   0.070   2.615  1.4490 -0.2402  0.4891
  299SOL    HW1  896   1.313   0.093   2.581  0.0901 -1.5314  1.8522
  299SOL    HW2  897   1.164   0.029   2.541  0.5431 -0.3363  0.1034
  300SOL     OW  898   0.030   1.020   2.751  0.2247 -0.5177  0.1310
  300SOL    HW1  899   0.002   0.927   2.728  1.5727  3.7352 -0.4170
  300SOL    HW2  900   0.112   1.015   2.816 -0.6602  0.6664  1.7726
  301SOL     OW  901   1.818   0.855   2.526  0.0621  0.4863 -0.4597
  301SOL    HW1  902   1.784   0.766   2.493  0.5404  1.5106 -0.5677
  301SOL    HW2  903   1.743   0.922   2.520  0.6721  2.7771  2.4920
  302SOL     OW  904   2.595   1.781   2.631 -0.0047 -0.1240 -0.0422
  302SOL    HW1  905   2.590   1.715   2.557  0.4709  0.2015  0.4139
  302SOL    HW2  906   2.652   1.751   2.707 -1.2828  1.7007 -0.4423
  303SOL     OW  907   0.397   2.158   2.912 -0.1026  0.2365 -0.2913
  303SOL    HW1  908   0.451   2.243   2.913 -1.0806  2.1086 -0.8185
  303SOL    HW2  909   0.324   2.160   2.841  4.9555 -0.3235 -1.2300
  304SOL     OW  910   0.066   1.319   1.579 -0.3298  0.1721  0.2119
  304SOL    HW1  911   0.088   1.270   1.492  0.5738  0.5935 -2.4827
  304SOL    HW2  912   0.046   1.247   1.648 -0.4871 -0.7305 -1.1116
  305SOL     OW  913   2.460   0.608   1.874 -0.2504  0.5906 -0.1582
  305SOL    HW1  914   2.364   0.576   1.855  0.7767 -0.6139  0.0741
  305SOL    HW2  915   2.506   0.559   1.949 -0.6477  0.4247 -0.3456
  306SOL     OW  916   2.211   1.390   1.738  0.4165  0.2244 -0.3421
  306SOL    HW1  917   2.193   1.490   1.712 -1.5101  0.4945  0.1026
  306SOL    HW2  918   2.119   1.342   1.750  0.2871 -2.1905  0.8213
  307SOL     OW  919   2.851   3.054   1.030 -0.0987  0.1140  0.4435
  307SOL    HW1  920   2.778   3.002   1.083 -2.7118  0.3719  2.6078
  307SOL    HW2  921   2.911   3.096   1.105  1.6997 -2.5102 -1.0510
  308SOL     OW  922   0.217   1.735   1.776  0.4515 -0.4125  0.5673
  308SOL    HW1  923   0.186   1.718   1.870  1.2804 -2.2272  1.2349
  308SOL    HW2  924   0.304   1.690   1.750 -2.2853 -0.9697  0.1656
  309SOL     OW  925   2.420   2.415   1.898 -0.2901  0.2811  0.3155
  309SOL    HW1  926   2.395   2.463   1.985 -0.3207  1.1999  0.0020
  309SOL    HW2  927   2.338   2.418   1.838  0.6244  0.5257  1.4621
  310SOL     OW  928   2.152   1.547   2.682  0.4859  0.5217 -0.2182
  310SOL    HW1  929   2.103   1.634   2.689 -2.1809  1.2708 -2.0261
  310SOL    HW2  930   2.090   1.471   2.700 -0.8264  3.0685 -0.5926
  311SOL     OW  931   1.746   1.279   3.044 -0.2735 -0.1761 -0.1008
  311SOL    HW1  932   1.644   1.279   3.039 -1.1799  0.5977  0.6898
  311SOL    HW2  933   1.778   1.191   3.075  0.6950 -0.2252  1.2584
  312SOL     OW  934   1.247   2.087   2.156 -0.2635  0.8403  0.6868
  312SOL    HW1  935   1.312   2.048   2.222 -1.8363 -0.6972 -2.9715
  312SOL    HW2  936   1.175   2.022   2.169  4.0599 -1.4385  1.7395
  313SOL     OW  937   0.172   0.136   0.879  0.1409 -0.1478  0.6543
  313SOL    HW1  938   0.136   0.191   0.803 -1.4464 -2.0543 -0.5240
  313SOL    HW2  939   0.179   0.175   0.972 -0.9784 -0.2026 -1.9927
  314SOL     OW  940   0.497   1.970   1.039  0.1321 -0.6538 -0.0916
  314SOL    HW1  941   0.480   2.052   1.099  0.3994 -0.1007  1.1422
  314SOL    HW2  942   0.518   1.892   1.098 -1.2676  1.2757 -0.0840
  315SOL     OW  943   0.462   2.204   2.200 -0.5333 -0.2942  0.1731
  315SOL    HW1  944   0.365   2.175   2.196  0.0261  0.6844 -0.9106
  315SOL    HW2  945   0.483   2.261   2.118 -0.9676  2.5246  1.3919
  316SOL     OW  946   0.269   2.516   0.856  0.5368 -0.0450  0.0648
  316SOL    HW1  947   0.196   2.442   0.872  0.3734  1.8283  0.8466
  316SOL    HW2  948   0.253   2.552   0.764  2.5240 -0.9220 -0.3701
  317SOL     OW  949   2.530   3.087   1.263  0.3999  0.1577  0.1620
  317SOL    HW1  950   2.449   3.059   1.203 -2.6829  0.1614 -0.7145
  317SOL    HW2  951   2.558   0.069   1.245  3.3237  2.9699  0.5568
  318SOL     OW  952   2.223   2.417   0.326  0.1432 -0.6952 -0.3679
  318SOL    HW1  953   2.232   2.316   0.335 -1.5573  1.4218 -0.9624
  318SOL    HW2  954   2.311   2.470   0.346  3.0073 -1.0588  1.3578
  319SOL     OW  955   1.254   1.643   2.833 -0.5087 -0.1663 -0.5720
  319SOL    HW1  956   1.274   1.729   2.889 -1.0097  2.4186  1.4384
  319SOL    HW2  957   1.218   1.659   2.735  1.6694 -2.5561 -2.5000
  320SOL     OW  958   0.326   2.416   2.329  0.0654 -0.6031 -0.5917
  320SOL    HW1  959   0.386   2.348   2.279  0.3335 -0.3631 -0.6363
  320SOL    HW2  960   0.317   2.494   2.266  2.0570 -1.5524  0.7367
  321SOL     OW  961   0.804   2.346   3.054  0.2574  0.0376 -0.0878
  321SOL    HW1  962   0.880   2.401   3.021 -2.6733 -0.6397  0.2973
  321SOL    HW2  963   0.821   2.247   3.027  2.2397 -1.9323  1.1164
  322SOL     OW  964   2.553   0.344   2.285 -0.1155 -0.1011 -0.6866
  322SOL    HW1  965   2.526   0.264   2.224  2.7532 -1.0648 -1.8576
  322SOL    HW2  966   2.641   0.319   2.335 -0.1025 -0.2381  0.4948
  323SOL     OW  967   2.885   1.350   0.888  0.4754  0.2769  0.0841
  323SOL    HW1  968   2.860   1.392   0.978  1.8972  0.0611 -2.3359
  323SOL    HW2  969   2.954   1.276   0.899 -0.3650 -0.1302  0.4188
  324SOL     OW  970   0.447   0.852   1.868  0.1218 -0.3685  0.1206
  324SOL    HW1  971   0.419   0.756   1.858  0.9752  1.4203  2.1788
  324SOL    HW2  972   0.391   0.918   1.820 -0.7267 -1.5606  3.0799
  325SOL     OW  973   0.586   0.189   2.000  0.2520  0.0152 -0.6611
  325SOL    HW1  974   0.597   0.282   1.958 -0.6615  0.7447  0.3422
  325SOL    HW2  975   0.515   0.189   2.076 -0.2590  0.6510 -2.5330
  326SOL     OW  976   2.038   2.547   0.157  0.0682  0.5169 -0.5354
  326SOL    HW1  977   1.950   2.559   0.206  3.3724 -0.8675  3.3660
  326SOL    HW2  978   2.094   2.467   0.187 -1.6685 -0.8539 -1.2073
  327SOL     OW  979   2.273   1.300   0.462  0.2578 -0.3891 -0.0591
  327SOL    HW1  980   2.288   1.400   0.475 -1.6668  1.3960  0.3110
  327SOL    HW2  981   2.311   1.275   0.373  2.1767 -1.5453 -0.2891
  328SOL     OW  982   3.026   1.745   2.617  0.2649  0.5724 -0.3722
  328SOL    HW1  983   2.995   1.669   2.677 -0.2496 -0.2233  0.3351
  328SOL    HW2  984   0.008   1.765   2.624 -1.2584  2.2056  0.5081
  329SOL     OW  985   0.498   2.004   1.423  0.1896  0.3656  0.6069
  329SOL    HW1  986   0.434   2.037   1.353  0.0106 -0.6966  1.0667
  329SOL    HW2  987   0.460   2.006   1.516  0.8555  0.1561 -1.8919
  330SOL     OW  988   2.350   1.430   2.493  0.4628  0.0752  0.4838
  330SOL    HW1  989   2.283   1.466   2.561  0.6503  0.0547 -4.2816
  330SOL    HW2  990   2.363   1.327   2.500 -0.0076 -1.3813 -0.7455
  331SOL     OW  991   2.274   2.675   0.976  0.2854  0.6030  0.2433
  331SOL    HW1  992   2.180   2.721   0.978  0.7148 -0.9514  0.7976
  331SOL    HW2  993   2.282   2.615   0.896  0.1049 -2.0460  2.2247
  332SOL     OW  994   0.348   2.834   0.671 -0.3207  0.2787  0.1801
  332SOL    HW1  995   0.277   2.886   0.724 -0.6200  1.1474  3.0096
  332SOL    HW2  996   0.419   2.803   0.739  1.0854  1.0104 -0.1820
  333SOL     OW  997   2.072   2.327   2.642  0.1784 -0.1048  0.0792
  333SOL    HW1  998   2.002   2.396   2.630  3.3218 -1.0652  0.5000
  333SOL    HW2  999   2.147   2.359   2.586 -0.2399 -0.6375  0.1731
  334SOL     OW 1000   0.513   1.031   0.613 -0.0457 -0.3551  0.0245
  334SOL    HW1 1001   0.451   1.003   0.689  0.0809  1.5363  2.6072
  334SOL    HW2 1002   0.611   1.029   0.639 -0.6595  2.0143  1.0492
  335SOL     OW 1003   2.783   1.968   2.403  0.1557 -0.0996  0.8657
  335SOL    HW1 1004   2.837   1.929   2.483  1.2741 -1.3781  1.7479
  335SOL    HW2 1005   2.702   1.908   2.377 -1.9667 -1.0809  0.2169
  336SOL     OW 1006   2.251   2.951   2.179 -0.0784  0.5513 -0.5403
  336SOL    HW1 1007   2.296   3.007   2.252 -0.0771 -1.7608 -0.4485
  336SOL    HW2 1008   2.276   2.854   2.191  1.9683  1.0774 -0.3089
  337SOL     OW 1009   0.853   1.091   1.041  0.0918 -0.0169 -0.4545
  337SOL    HW1 1010   0.920   1.022   1.009  1.6507  2.4947 -0.3437
  337SOL    HW2 1011   0.894   1.184   1.033 -0.4751  2.6358  0.9693
  338SOL     OW 1012   1.037   1.900   0.966 -0.2620  0.6073  0.2273
  338SOL    HW1 1013   0.937   1.902   0.950  1.9815  0.2090  3.2907
  338SOL    HW2 1014   1.096   1.958   0.906 -1.8359  0.0513 -1.1812
  339SOL     OW 1015   0.209   1.833   1.403 -0.2093 -0.0518  0.4357
  339SOL    HW1 1016   0.252   1.869   1.491  0.8985  1.6276  0.9873
  339SOL    HW2 1017   0.261   1.762   1.351 -1.2774  1.5348  1.1008
  340SOL     OW 1018   1.183   2.874   1.688 -0.2118 -0.4104  0.2746
  340SOL    HW1 1019   1.239   2.913   1.760 -1.1107 -2.3642  0.1931
  340SOL    HW2 1020   1.087   2.872   1.722 -0.1128  1.3173  0.3814
  341SOL     OW 1021   1.602   1.700   1.122  0.2095 -0.3123 -0.4537
  341SOL    HW1 1022   1.548   1.766   1.066 -1.0536  0.4187  2.3880
  341SOL    HW2 1023   1.687   1.742   1.160  1.6020 -0.2094 -2.3412
  342SOL     OW 1024   2.626   1.632   1.063  0.3709 -0.0658  0.9062
  342SOL    HW1 1025   2.678   1.715   1.031 -0.5077 -1.4476  1.2173
  342SOL    HW2 1026   2.584   1.591   0.976 -2.4788  1.3425  1.9119
  343SOL     OW 1027   2.594   0.493   1.238  0.2488 -0.0978  0.8789
  343SOL    HW1 1028   2.630   0.438   1.313  2.1347 -1.1260 -0.8940
  343SOL    HW2 1029   2.667   0.548   1.201  0.1700  0.5441  1.6287
  344SOL     OW 1030   2.224   0.269   0.782  0.3438  0.5516 -0.1665
  344SOL    HW1 1031   2.300   0.223   0.836 -0.0611 -0.8255 -1.3147
  344SOL    HW2 1032   2.262   0.287   0.688  1.4013  0.8055  0.6327
  345SOL     OW 1033   0.776   2.870   2.178 -0.6256 -0.6286 -0.1325
  345SOL    HW1 1034   0.700   2.937   2.173 -1.3803  1.1029  1.5911
  345SOL    HW2 1035   0.820   2.864   2.090 -1.8481  0.3256 -0.7493
  346SOL     OW 1036   2.827   2.247   0.848  0.1506 -1.1319 -0.1900
  346SOL    HW1 1037   2.869   2.174   0.904 -0.6386 -1.5239 -0.9021
  346SOL    HW2 1038   2.751   2.215   0.791 -1.3635 -2.5065 -0.0436
  347SOL     OW 1039   2.103   0.132   1.468  0.2393 -0.4946 -0.6020
  347SOL    HW1 1040   2.100   0.045   1.520  2.0201  3.1073 -0.7358
  347SOL    HW2 1041   2.032   0.149   1.398  1.5187  0.9803 -1.2086
  348SOL     OW 1042   1.130   1.086   1.319 -0.2845 -0.1264  0.3662
  348SOL    HW1 1043   1.045   1.082   1.264  0.6005  1.3707 -0.6710
  348SOL    HW2 1044   1.140   1.004   1.380 -0.6757 -1.8031 -1.7153
  349SOL     OW 1045   2.218   0.493   1.821  0.3053  0.1272  0.2492
  349SOL    HW1 1046   2.119   0.471   1.824 -0.6289 -1.7106  1.8333
  349SOL    HW2 1047   2.273   0.417   1.862 -1.1459  5.5545  3.0041
  350SOL     OW 1048   1.998   2.459   0.494  0.3744  0.2585 -0.0729
  350SOL    HW1 1049   2.017   2.521   0.568  2.0333 -0.5741 -0.6228
  350SOL    HW2 1050   2.077   2.450   0.428  1.7444 -0.2698 -1.2568
  351SOL     OW 1051   1.100   0.416   2.712 -0.1543  0.3593  0.2574
  351SOL    HW1 1052   1.079   0.330   2.760 -1.3483 -0.3889 -0.8551
  351SOL    HW2 1053   1.092   0.497   2.777  2.4684  2.8178 -0.8097
  352SOL     OW 1054   2.072   2.580   2.035  0.3937  0.5223  0.5202
  352SOL    HW1 1055   2.086   2.481   2.000  0.4766 -1.8861 -2.2832
  352SOL    HW2 1056   2.005   2.606   1.959 -0.4090 -1.3118 -1.9391
  353SOL     OW 1057   0.509   0.898   2.347 -0.3134 -0.5073  0.4061
  353SOL    HW1 1058   0.460   0.848   2.280  1.9291  1.5278  2.1432
  353SOL    HW2 1059   0.599   0.855   2.360  3.5402  4.4584  0.5044
  354SOL     OW 1060   0.321   2.745   2.775 -0.2586  0.0360  0.1519
  354SOL    HW1 1061   0.305   2.663   2.716 -2.5455 -0.7243 -2.3973
  354SOL    HW2 1062   0.235   2.788   2.814 -1.4981 -0.9628 -0.0627
  355SOL     OW 1063   2.019   2.776   1.085 -0.4092 -0.1173  0.2751
  355SOL    HW1 1064   2.003   2.821   1.176  0.8572  0.2589 -0.4451
  355SOL    HW2 1065   1.931   2.768   1.033  0.0272  1.1693  0.1741
  356SOL     OW 1066   2.501   0.671   0.458 -0.2709 -0.2387 -0.7973
  356SOL    HW1 1067   2.480   0.771   0.445  0.5285  0.1545  1.7641
  356SOL    HW2 1068   2.411   0.621   0.454  0.2617  0.7937 -0.4739
  357SOL     OW 1069   0.209   0.006   1.840  0.0159 -0.6608  0.1921
  357SOL    HW1 1070   0.199   0.103   1.873 -1.9518  0.5824  0.5655
  357SOL    HW2 1071   0.130   3.071   1.873  2.8751  0.5897 -1.4891
  358SOL     OW 1072   3.015   1.525   1.307  0.3027 -0.2817 -0.5211
  358SOL    HW1 1073   3.103   1.492   1.352 -0.8926 -2.9472  0.1316
  358SOL    HW2 1074   3.029   1.622   1.290 -3.0038 -1.3597 -0.9239
  359SOL     OW 1075   2.716   0.210   2.805  0.3296  0.0400 -0.3685
  359SOL    HW1 1076   2.647   0.157   2.749  0.1110  2.0481  2.2625
  359SOL    HW2 1077   2.713   0.166   2.895  1.4864  0.5052 -0.8690
  360SOL     OW 1078   1.272   0.763   1.122 -0.3324 -0.6068  0.6213
  360SOL    HW1 1079   1.223   0.678   1.146 -0.6842  0.3382  1.9026
  360SOL    HW2 1080   1.343   0.778   1.190  0.1709  0.4114 -2.1823
  361SOL     OW 1081   2.835   2.585   1.511 -0.1118  0.0729  0.1300
  361SOL    HW1 1082   2.888   2.573   1.600 -0.5627  0.7591  2.8840
  361SOL    HW2 1083   2.739   2.602   1.532  1.8989  1.6344  0.9597
  362SOL     OW 1084   1.248   0.212   0.935  0.4419  0.1574  0.1336
  362SOL    HW1 1085   1.299   0.133   0.901 -0.1336  1.0469 -0.9593
  362SOL    HW2 1086   1.181   0.200   1.020 -2.6308  1.1470  4.2613
  363SOL     OW 1087   1.975   1.667   0.721 -0.5606  0.6657 -0.1323
  363SOL    HW1 1088   2.043   1.641   0.791 -0.9518 -1.6430 -1.9037
  363SOL    HW2 1089   1.950   1.590   0.659 -1.5365 -2.1182 -0.7859
  364SOL     OW 1090   0.775   0.835   1.619 -0.2543  0.3494  0.2473
  364SOL    HW1 1091   0.843   0.793   1.673 -1.3433  1.7778 -3.1116
  364SOL    HW2 1092   0.701   0.770   1.589  3.6284  1.5997 -0.4576
  365SOL     OW 1093   3.009   0.327   1.081  0.3196 -0.1007  0.3433
  365SOL    HW1 1094   3.096   0.274   1.075  1.4615 -2.6622  1.2911
  365SOL    HW2 1095   3.035   0.409   1.139 -0.2616  1.3362  0.5818
  366SOL     OW 1096   2.907   1.040   0.347 -0.1096  0.1685  0.1048
  366SOL    HW1 1097   2.827   1.079   0.299  2.9300  0.3515 -0.8935
  366SOL    HW2 1098   2.978   1.105   0.386  0.8784  0.0089  0.1609
  367SOL     OW 1099   2.128   2.093   2.295 -0.1623 -0.5148  0.5491
  367SOL    HW1 1100   2.048   2.154   2.267 -0.7038  1.6725 -0.3176
  367SOL    HW2 1101   2.192   2.148   2.349  0.9619  2.5741 -1.1477
  368SOL     OW 1102   2.396   2.059   0.784 -0.1577 -0.0492  0.5408
  368SOL    HW1 1103   2.449   2.002   0.849 -0.2227  0.5193  0.1510
  368SOL    HW2 1104   2.336   1.995   0.729 -0.3401 -1.1299 -3.5367
  369SOL     OW 1105   2.208   0.177   2.806 -0.1039  0.2763 -0.4011
  369SOL    HW1 1106   2.226   0.193   2.906  2.1671  2.9880 -1.1290
  369SOL    HW2 1107   2.144   0.099   2.794  1.6847  0.3872  0.2614
  370SOL     OW 1108   0.630   0.476   1.147 -0.2072 -0.3236 -0.2888
  370SOL    HW1 1109   0.586   0.408   1.085  0.1714  2.7996  2.4876
  370SOL    HW2 1110   0.599   0.571   1.126  2.0026  1.0715  1.5744
  371SOL     OW 1111   0.337   1.690   0.186 -0.4087 -0.2758  0.3886
  371SOL    HW1 1112   0.348   1.718   0.092  1.3424  0.9432  0.4028
  371SOL    HW2 1113   0.414   1.634   0.217  1.1506 -0.2979 -1.0806
  372SOL     OW 1114   0.733   0.757   2.388 -0.0065 -0.0474  0.0588
  372SOL    HW1 1115   0.684   0.669   2.410 -2.5353  0.2461 -0.2843
  372SOL    HW2 1116   0.814   0.772   2.444 -0.3611  1.2426 -1.9227
  373SOL     OW 1117   0.831   2.764   2.636  0.1213 -0.0037  0.0272
  373SOL    HW1 1118   0.776   2.745   2.723  0.9327 -2.0491 -0.2067
  373SOL    HW2 1119   0.798   2.846   2.582  1.4498  1.7859  0.7067
  374SOL     OW 1120   0.962   1.816   0.426 -0.3878  0.2606 -0.2518
  374SOL    HW1 1121   1.050   1.774   0.457 -3.6587 -1.8402  1.7827
  374SOL    HW2 1122   0.895   1.745   0.409  2.1045  1.4009 -1.3618
  375SOL     OW 1123   0.941   0.804   1.854 -0.4545  0.1771  0.3511
  375SOL    HW1 1124   0.858   0.790   1.908  1.1030 -2.8534 -3.9968
  375SOL    HW2 1125   1.018   0.813   1.915 -0.4197 -0.0106 -2.2248
  376SOL     OW 1126   3.052   2.584   1.989 -0.8116 -0.2025  0.1597
  376SOL    HW1 1127   3.067   2.557   2.087 -0.4461 -0.4294  1.1674
  376SOL    HW2 1128   0.010   2.646   1.966 -1.6242  1.6678 -0.8335
  377SOL     OW 1129   2.427   1.536   3.022  0.3718 -0.4634  0.0484
  377SOL    HW1 1130   2.408   1.478   2.942 -0.4236  0.6768  3.5226
  377SOL    HW2 1131   2.380   1.504   3.105  1.2225  0.1060 -0.7830
  378SOL     OW 1132   2.298   2.998   2.995 -0.6809  0.1609 -0.1394
  378SOL    HW1 1133   2.223   2.938   3.030  0.2189 -1.0331 -2.0377
  378SOL    HW2 1134   2.365   3.022   3.067  0.3507 -2.0301 -0.3235
  379SOL     OW 1135   1.868   0.538   0.670 -0.0230 -0.1766  0.6206
  379SOL    HW1 1136   1.920   0.617   0.701 -3.9415 -1.6653 -1.0434
  379SOL    HW2 1137   1.824   0.489   0.748  0.2379  0.1018 -0.6760
  380SOL     OW 1138   2.557   2.001   1.472 -0.2698 -0.0689 -0.2056
  380SOL    HW1 1139   2.573   2.051   1.562 -1.3638 -0.4474 -1.1267
  380SOL    HW2 1140   2.613   1.917   1.468 -1.5461 -3.1409  1.6369
  381SOL     OW 1141   2.618   1.412   2.432 -0.2150 -0.0208 -0.1925
  381SOL    HW1 1142   2.616   1.366   2.342  1.2170  1.4517 -0.7510
  381SOL    HW2 1143   2.523   1.419   2.463  0.7102  0.0695 -0.3610
  382SOL     OW 1144   2.716   2.745   2.626 -0.0654 -0.1454  0.0407
  382SOL    HW1 1145   2.639   2.753   2.692  1.0897 -1.4814  1.1808
  382SOL    HW2 1146   2.715   2.822   2.561 -0.8446  0.0795 -0.7373
  383SOL     OW 1147   1.061   1.437   3.103 -0.7429  0.0407  0.2345
  383SOL    HW1 1148   0.973   1.402   3.067 -0.8714 -0.9575  1.6955
  383SOL    HW2 1149   1.054   1.539   3.102 -0.7450 -1.5493 -0.2194
  384SOL     OW 1150   1.744   1.855   1.639  0.3291  0.3854  0.3556
  384SOL    HW1 1151   1.761   1.919   1.714 -1.2677  0.3434  2.6252
  384SOL    HW2 1152   1.726   1.760   1.673  1.5996  0.4919 -0.7074
  385SOL     OW 1153   1.674   2.770   0.495  0.1354 -0.3409 -0.0248
  385SOL    HW1 1154   1.596   2.836   0.496  2.3342  1.1060  2.3158
  385SOL    HW2 1155   1.757   2.817   0.460 -1.5516  1.2083 -0.2517
  386SOL     OW 1156   1.990   1.232   0.448 -0.5689  0.3769 -0.3069
  386SOL    HW1 1157   2.087   1.260   0.462 -1.0547  1.7518  0.3581
  386SOL    HW2 1158   1.934   1.310   0.472  1.8303 -2.5885 -4.3598
  387SOL     OW 1159   2.962   2.211   1.551  0.2355  0.2551  0.2560
  387SOL    HW1 1160   2.912   2.236   1.634 -1.0978 -1.3769 -0.9769
  387SOL    HW2 1161   2.930   2.268   1.473  1.8111  0.3413  0.7622
  388SOL     OW 1162   3.116   1.144   1.770 -0.2859  0.0535  0.0441
  388SOL    HW1 1163   0.027   1.181   1.866 -2.0444  1.0441  3.5283
  388SOL    HW2 1164   0.057   1.067   1.738  1.1526 -1.2269  0.5040
  389SOL     OW 1165   1.660   0.358   0.060  0.5209 -0.1858 -0.3295
  389SOL    HW1 1166   1.614   0.273   0.035 -1.6430  2.4728  1.2666
  389SOL    HW2 1167   1.623   0.394   0.152 -0.2267 -0.5247 -1.2004
  390SOL     OW 1168   1.020   1.724   3.085  0.5063 -0.5759  0.4372
  390SOL    HW1 1169   0.998   1.775   0.052 -0.3172  1.9478  1.1082
  390SOL    HW2 1170   1.098   1.779   3.047 -2.9112  1.3279 -1.1985
  391SOL     OW 1171   1.337   2.084   0.163 -0.1681 -0.3025 -0.5664
  391SOL    HW1 1172   1.375   2.171   0.204  0.4789  1.1528  1.2194
  391SOL    HW2 1173   1.400   2.033   0.101  1.4648 -0.8807 -1.5890
  392SOL     OW 1174   0.034   2.428   2.187 -0.0430  0.0903 -0.2143
  392SOL    HW1 1175   0.126   2.462   2.155  1.1016  3.8553 -0.0575
  392SOL    HW2 1176   0.049   2.379   2.277  0.4735 -1.1996  2.0678
  393SOL     OW 1177   1.400   1.957   0.391  0.4495  0.9516 -0.1753
  393SOL    HW1 1178   1.476   2.006   0.434 -2.2615 -2.0336  0.6748
  393SOL    HW2 1179   1.354   2.005   0.314 -2.8764 -0.1947  0.6133
  394SOL     OW 1180   0.606   0.442   2.239  0.0294  0.3076  0.4620
  394SOL    HW1 1181   0.631   0.504   2.159 -0.2849  1.1239 -0.3208
  394SOL    HW2 1182   0.610   0.498   2.320  0.2753  1.3418 -2.2837
  395SOL     OW 1183   0.734   1.223   1.429  0.2381 -0.2525 -0.1588
  395SOL    HW1 1184   0.803   1.218   1.502  2.6674 -0.9551 -0.4175
  395SOL    HW2 1185   0.754   1.292   1.360 -1.6149 -1.6589  1.0436
  396SOL     OW 1186   2.046   1.215   2.320 -0.3115 -0.2641 -0.8749
  396SOL    HW1 1187   2.127   1.248   2.265  0.0407  3.4211 -0.0697
  396SOL    HW2 1188   2.067   1.202   2.419  0.1018 -2.7452  0.3622
  397SOL     OW 1189   0.609   0.274   0.064  0.4644 -0.4313 -0.1960
  397SOL    HW1 1190   0.546   0.274   3.101 -2.6702  0.1718 -1.0641
  397SOL    HW2 1191   0.603   0.185   0.108  0.3262  0.9909  2.4069
  398SOL     OW 1192   1.079   2.456   3.013  0.3597  0.0050 -0.6067
  398SOL    HW1 1193   1.095   2.355   3.025  0.8241  1.0897 -3.9000
  398SOL    HW2 1194   1.088   2.511   3.098  3.7910 -2.2948 -1.4425
  399SOL     OW 1195   1.732   2.088   2.084 -0.3951  0.0333  0.0254
  399SOL    HW1 1196   1.771   1.999   2.057 -0.6306  1.8526  0.8211
  399SOL    HW2 1197   1.737   2.144   1.998 -2.1144 -1.2678 -0.6160
  400SOL     OW 1198   2.279   1.412   1.230  0.3822  0.5111 -0.2597
  400SOL    HW1 1199   2.288   1.375   1.135 -2.2080  1.4606 -1.1763
  400SOL    HW2 1200   2.353   1.465   1.269  1.8298  2.6206  0.4112
  401SOL     OW 1201   1.207   1.217   0.971 -0.1265  0.1708 -0.2804
  401SOL    HW1 1202   1.202   1.279   1.051 -0.2161 -0.1196 -0.5190
  401SOL    HW2 1203   1.305   1.201   0.947  0.8378  0.3325 -2.3361
  402SOL     OW 1204   0.091   2.878   2.442  0.4306  0.3228  0.1609
  402SOL    HW1 1205   0.103   2.869   2.544  2.8314  1.1180  0.4825
  402SOL    HW2 1206   0.171   2.845   2.393  0.1877 -0.0963  1.3104
  403SOL     OW 1207   2.746   1.791   1.503 -0.7022  0.1606 -0.0406
  403SOL    HW1 1208   2.787   1.764   1.590  3.9443  1.1582  1.5646
  403SOL    HW2 1209   2.687   1.715   1.469  0.9458 -2.3021  1.8963
  404SOL     OW 1210   2.270   1.837   1.544  0.6130  0.0574 -0.9464
  404SOL    HW1 1211   2.301   1.825   1.445  0.0780 -1.9284 -1.5535
  404SOL    HW2 1212   2.300   1.930   1.585  0.5517  0.4192  0.5992
  405SOL     OW 1213   2.570   0.436   2.733 -0.2970 -0.0792  0.5650
  405SOL    HW1 1214   2.629   0.359   2.760 -0.9635 -0.8297  0.7633
  405SOL    HW2 1215   2.634   0.518   2.728  1.5315 -2.0079 -2.5313
  406SOL     OW 1216   0.880   1.505   2.481  0.3953  0.6008  0.4240
  406SOL    HW1 1217   0.826   1.573   2.531  1.2960  1.5031 -2.6644
  406SOL    HW2 1218   0.960   1.486   2.529 -2.2362  1.1560 -2.6301
  407SOL     OW 1219   1.763   2.598   0.250 -0.4654  0.5780  0.1747
  407SOL    HW1 1220   1.765   2.619   0.349 -0.6221 -0.3732 -1.7932
  407SOL    HW2 1221   1.720   2.505   0.228 -1.5294 -0.6548 -2.0365
  408SOL     OW 1222   0.158   2.977   0.801  0.4453 -0.1035  0.3300
  408SOL    HW1 1223   0.137   3.068   0.830  2.6288 -0.5730  0.4308
  408SOL    HW2 1224   0.072   2.913   0.789 -0.9398 -0.3813 -1.8068
  409SOL     OW 1225   2.222   1.894   0.617 -0.2249  0.0658 -0.3721
  409SOL    HW1 1226   2.140   1.903   0.676  0.8234 -2.9252 -2.0863
  409SOL    HW2 1227   2.204   1.827   0.543  0.5589 -2.6933  0.9700
  410SOL     OW 1228   2.467   2.048   2.906 -0.1657 -0.0785  0.0218
  410SOL    HW1 1229   2.563   2.075   2.881 -0.0165 -1.7536  1.6732
  410SOL    HW2 1230   2.395   2.091   2.842 -4.7898 -1.6062 -3.0227
  411SOL     OW 1231   0.191   0.121   0.375 -0.2438  0.3906  0.1707
  411SOL    HW1 1232   0.273   0.147   0.316  0.5057 -1.7158  2.5073
  411SOL    HW2 1233   0.219   0.072   0.461 -0.0227 -1.6689  1.9440
  412SOL     OW 1234   1.381   2.558   0.274  0.0082  0.4006 -0.0300
  412SOL    HW1 1235   1.374   2.640   0.215 -3.3633 -0.9620  0.7195
  412SOL    HW2 1236   1.416   2.588   0.364 -0.0236  3.9972  0.8359
  413SOL     OW 1237   2.058   0.465   2.136 -0.6315  0.5914  0.1562
  413SOL    HW1 1238   2.027   0.562   2.122 -2.4205 -3.3977  0.0274
  413SOL    HW2 1239   1.988   0.414   2.191 -0.7601  0.3286  0.3529
  414SOL     OW 1240   0.135   0.598   0.581  0.2297  0.4094 -0.4953
  414SOL    HW1 1241   0.221   0.640   0.607 -1.4910 -0.7767 -0.8118
  414SOL    HW2 1242   0.123   0.605   0.483  0.1422  2.6928  0.9650
  415SOL     OW 1243   0.346   1.599   1.330  0.4580  0.9582 -0.0232
  415SOL    HW1 1244   0.335   1.537   1.252 -1.1214  0.5422 -1.2556
  415SOL    HW2 1245   0.341   1.546   1.418 -1.9691  0.6546  0.9192
  416SOL     OW 1246   0.018   3.109   0.191 -0.1408  0.0612  0.4236
  416SOL    HW1 1247   3.104   0.031   0.104  0.6062 -1.7613 -1.7813
  416SOL    HW2 1248   0.100   0.036   0.236  0.1404  0.1554 -1.4418
  417SOL     OW 1249   2.143   0.024   1.135 -0.1280 -0.2431 -0.6280
  417SOL    HW1 1250   2.059   0.080   1.147  0.7044  1.7998  0.9557
  417SOL    HW2 1251   2.217   0.092   1.121 -4.0953  0.9623  0.3772
  418SOL     OW 1252   0.569   0.557   2.475  0.1332  0.3649 -0.0397
  418SOL    HW1 1253   0.587   0.536   2.571  1.9490 -0.3448 -0.4563
  418SOL    HW2 1254   0.475   0.586   2.456  2.1217 -0.9607  0.5024
  419SOL     OW 1255   0.324   1.017   0.827 -0.3342  0.2534  0.2852
  419SOL    HW1 1256   0.296   0.918   0.835  1.5203  2.2912 -0.4703
  419SOL    HW2 1257   0.331   1.056   0.920 -3.4366  0.2257 -1.9357
  420SOL     OW 1258   1.877   2.134   0.913  0.0564  0.0283  0.2061
  420SOL    HW1 1259   1.897   2.061   0.845  0.5486  0.3937  1.1068
  420SOL    HW2 1260   1.954   2.141   0.978 -1.3011 -1.7904 -1.6536
  421SOL     OW 1261   1.659   2.075   2.606  0.0839 -0.1266 -0.2012
  421SOL    HW1 1262   1.658   2.060   2.707 -3.6967 -3.9056  1.7801
  421SOL    HW2 1263   1.657   1.988   2.547  1.1635 -0.1755 -3.0569
  422SOL     OW 1264   2.688   0.342   0.085  0.0381  0.2283 -0.2383
  422SOL    HW1 1265   2.687   0.423   0.023  0.1860  0.6384  0.1757
  422SOL    HW2 1266   2.635   0.360   0.168 -0.3153  0.4592 -0.3570
  423SOL     OW 1267   1.526   1.894   0.890 -0.4610  0.2052  0.0173
  423SOL    HW1 1268   1.566   1.979   0.939 -0.1159  0.8528 -1.4351
  423SOL    HW2 1269   1.562   1.883   0.792 -0.4024 -0.1844  0.7127
  424SOL     OW 1270   0.326   1.461   1.550  0.2103 -0.5581  0.1092
  424SOL    HW1 1271   0.371   1.518   1.624 -0.2924  1.2534 -0.9961
  424SOL    HW2 1272   0.230   1.431   1.562 -1.1978 -1.5215  0.4420
  425SOL     OW 1273   2.651   2.679   1.935  0.6677 -0.1166  0.5267
  425SOL    HW1 1274   2.685   2.585   1.926  0.7366 -1.1320  2.1959
  425SOL    HW2 1275   2.560   2.692   1.894  2.6599 -3.5821  0.4165
  426SOL     OW 1276   1.902   2.859   0.377 -0.2102  0.5512 -0.6200
  426SOL    HW1 1277   1.974   2.857   0.450  2.2087  0.4724  2.0641
  426SOL    HW2 1278   1.946   2.851   0.285 -0.2040  2.3361  1.1221
  427SOL     OW 1279   0.348   0.702   2.544 -0.1511 -0.3742 -0.2368
  427SOL    HW1 1280   0.421   0.770   2.521  0.1436  0.5689 -1.4688
  427SOL    HW2 1281   0.296   0.725   2.632  0.3234 -0.2002  1.2192
  428SOL     OW 1282   2.102   1.055   3.072  0.0075  0.1401 -0.1552
  428SOL    HW1 1283   2.050   1.049   0.040  0.6633  0.4410  1.5039
  428SOL    HW2 1284   2.072   0.981   3.007 -0.3021  1.7584 -2.9712
  429SOL     OW 1285   2.794   0.220   0.365  0.4121 -0.2673  0.0645
  429SOL    HW1 1286   2.797   0.155   0.444 -2.5054 -3.1741 -0.4148
  429SOL    HW2 1287   2.879   0.275   0.356 -0.7056 -0.2484  1.2925
  430SOL     OW 1288   1.087   2.839   2.038  0.0818 -0.3482  0.4971
  430SOL    HW1 1289   1.037   2.822   1.944 -0.5230 -0.0244 -6.3144
  430SOL    HW2 1290   1.173   2.780   2.044  1.1558 -0.9792 -4.2303
  431SOL     OW 1291   3.103   1.859   1.289  0.0790 -0.5499 -0.1503
  431SOL    HW1 1292   3.030   1.909   1.345 -2.4525 -1.2701 -0.6674
  431SOL    HW2 1293   0.072   1.842   1.338 -1.8009  1.2870 -0.1621
  432SOL     OW 1294   2.133   2.855   1.836  0.7271 -0.2185  0.1657
  432SOL    HW1 1295   2.230   2.838   1.854 -1.5951 -0.3287  2.1574
  432SOL    HW2 1296   2.065   2.790   1.876 -2.5143 -0.0200  0.3182
  433SOL     OW 1297   1.174   1.696   0.236 -0.6988 -0.3465 -0.0318
  433SOL    HW1 1298   1.093   1.642   0.265 -0.6897 -1.4109 -0.7771
  433SOL    HW2 1299   1.222   1.736   0.314 -0.1795 -0.5758 -0.0105
  434SOL     OW 1300   3.084   2.187   2.503  0.4837  0.0408 -0.1299
  434SOL    HW1 1301   0.047   2.241   2.536 -0.7164  0.9877 -0.4183
  434SOL    HW2 1302   2.998   2.207   2.559 -3.4050  1.1172  0.5460
  435SOL     OW 1303   0.412   0.640   0.676 -0.4591 -0.5153 -0.0758
  435SOL    HW1 1304   0.391   0.547   0.696  2.4852  0.5365 -3.5380
  435SOL    HW2 1305   0.465   0.648   0.592 -0.6067 -0.9169  3.1828
  436SOL     OW 1306   0.242   2.378   1.725 -0.1448 -0.3817 -0.1965
  436SOL    HW1 1307   0.216   2.461   1.670 -2.5146  1.1498 -1.4416
  436SOL    HW2 1308   0.233   2.300   1.660  2.1175  3.0230 -2.8037
  437SOL     OW 1309   1.100   1.842   1.373 -0.5943  0.2553 -0.1168
  437SOL    HW1 1310   1.166   1.914   1.409 -0.2390 -0.3490 -1.2115
  437SOL    HW2 1311   1.134   1.811   1.279 -1.1395  2.0165 -0.3413
  438SOL     OW 1312   0.120   2.292   0.532  0.2703  0.1174 -1.4282
  438SOL    HW1 1313   0.208   2.238   0.507 -0.3849  1.1294 -0.0466
  438SOL    HW2 1314   0.050   2.226   0.572 -2.0415  0.5198  2.0480
  439SOL     OW 1315   0.150   0.253   1.141 -0.0204  0.4422  0.4156
  439SOL    HW1 1316   0.194   0.175   1.194  0.2871  1.6573  2.3258
  439SOL    HW2 1317   0.198   0.337   1.170 -1.2359  3.4385 -2.2850
  440SOL     OW 1318   2.736   2.726   2.204 -0.1152 -0.6042 -0.0584
  440SOL    HW1 1319   2.683   2.683   2.277  0.2908  1.8770 -1.4727
  440SOL    HW2 1320   2.719   2.696   2.113  2.1067  0.0243  2.1578
  441SOL     OW 1321   2.955   0.656   1.753  0.0563 -0.9243  0.2441
  441SOL    HW1 1322   2.921   0.570   1.789 -2.3038  2.1799 -1.2984
  441SOL    HW2 1323   2.917   0.729   1.814 -2.4168  0.8703  0.2394
  442SOL     OW 1324   1.650   2.313   3.074 -0.3629 -0.2210 -0.0307
  442SOL    HW1 1325   1.679   2.348   0.048  0.5361 -1.0776  0.0208
  442SOL    HW2 1326   1.557   2.341   3.049  1.0511 -0.9190 -2.9109
  443SOL     OW 1327   0.290   0.991   0.037  0.3872 -0.1091  0.5543
  443SOL    HW1 1328   0.199   0.956   0.071  1.3497  0.4323  0.7679
  443SOL    HW2 1329   0.309   1.089   0.070 -1.6413 -0.1622  0.8292
  444SOL     OW 1330   1.420   1.657   2.457 -0.3430 -0.7341 -0.0153
  444SOL    HW1 1331   1.374   1.583   2.408 -0.8623 -0.8260 -1.6593
  444SOL    HW2 1332   1.506   1.691   2.412 -1.8507  0.0935 -0.9265
  445SOL     OW 1333   0.164   2.588   1.103 -0.1532  0.2195 -0.4031
  445SOL    HW1 1334   0.085   2.649   1.082  1.0120  0.6720 -2.2449
  445SOL    HW2 1335   0.203   2.560   1.012  1.5804 -0.3867 -1.9105
  446SOL     OW 1336   2.384   1.273   1.544 -0.4231  0.2968  0.2808
  446SOL    HW1 1337   2.302   1.303   1.591 -0.2003  1.4687 -1.2793
  446SOL    HW2 1338   2.445   1.226   1.615  0.4022  0.1894  3.4168
  447SOL     OW 1339   0.061   0.704   2.990  0.2717  0.2982 -0.2805
  447SOL    HW1 1340   0.044   0.769   3.067 -1.2062 -0.1363  1.0238
  447SOL    HW2 1341   0.058   0.608   3.021 -0.4641 -1.3495  0.5121
  448SOL     OW 1342   1.600   2.175   1.728 -0.0696 -0.4333  0.4959
  448SOL    HW1 1343   1.523   2.229   1.695  0.6414  2.4113 -1.5260
  448SOL    HW2 1344   1.690   2.195   1.677  1.6203 -0.7485  2.6218
  449SOL     OW 1345   1.297   1.446   0.582  0.8042 -0.2576 -0.4294
  449SOL    HW1 1346   1.387   1.479   0.610  1.2471  0.1479 -1.4351
  449SOL    HW2 1347   1.312   1.394   0.495  1.5206  1.1467 -1.4858
  450SOL     OW 1348   2.566   2.082   1.737 -0.3349 -0.2514  0.0485
  450SOL    HW1 1349   2.628   2.023   1.793 -0.9235 -3.5171 -1.0778
  450SOL    HW2 1350   2.484   2.088   1.793  0.0857 -0.3771 -0.9767
  451SOL     OW 1351   2.891   1.261   2.964 -0.2311  0.2338 -0.0448
  451SOL    HW1 1352   2.940   1.318   2.889  1.7188 -0.2335 -0.7888
  451SOL    HW2 1353   2.793   1.290   2.966  0.0853  1.5436  0.1715
  452SOL     OW 1354   1.723   0.862   0.994  0.5655  0.1952  0.7917
  452SOL    HW1 1355   1.652   0.792   0.965  1.1250  1.1045  0.8430
  452SOL    HW2 1356   1.796   0.821   1.049 -1.2546  2.9231  3.7115
  453SOL     OW 1357   2.051   1.142   0.960  0.4591  0.6184 -0.0758
  453SOL    HW1 1358   2.064   1.069   1.026 -0.6933  1.3498 -2.3475
  453SOL    HW2 1359   1.960   1.185   0.979  0.0071  0.0139 -0.6245
  454SOL     OW 1360   3.011   0.870   0.540  0.2528 -0.2388  0.9785
  454SOL    HW1 1361   2.990   0.772   0.546  1.0617 -1.5782 -0.0512
  454SOL    HW2 1362   2.938   0.920   0.479 -2.0912  3.6463 -1.7490
  455SOL     OW 1363   2.515   2.698   1.102 -0.2650  0.0144 -0.0988
  455SOL    HW1 1364   2.580   2.677   1.025 -2.8488 -0.6977 -1.5053
  455SOL    HW2 1365   2.419   2.683   1.072  3.9714  0.6702  1.0353
  456SOL     OW 1366   0.543   2.828   1.131 -0.0636 -0.2775 -0.2549
  456SOL    HW1 1367   0.589   2.870   1.213  2.5219 -0.1951 -3.7325
  456SOL    HW2 1368   0.458   2.881   1.102 -0.9810 -0.7769  3.5420
  457SOL     OW 1369   1.822   2.974   0.752  0.2782  0.3540 -0.2605
  457SOL    HW1 1370   1.739   2.995   0.699  0.5912  1.3972  1.9904
  457SOL    HW2 1371   1.909   2.957   0.702  0.5477  1.7373  1.4632
  458SOL     OW 1372   2.620   0.297   1.028  0.5488  0.0681  0.1410
  458SOL    HW1 1373   2.708   0.279   0.978  2.2520  0.1862 -0.9966
  458SOL    HW2 1374   2.626   0.282   1.130  0.2038 -1.0211  1.7618
  459SOL     OW 1375   1.969   0.571   2.941  0.0114 -0.5638  0.2117
  459SOL    HW1 1376   1.976   0.577   2.836 -1.8190 -0.4378 -1.0125
  459SOL    HW2 1377   1.921   0.481   2.970 -0.1863 -2.6239  0.6713
  460SOL     OW 1378   2.719   2.378   2.975  1.1314 -0.4999  0.0347
  460SOL    HW1 1379   2.621   2.374   2.955  2.2062  0.6252 -0.2914
  460SOL    HW2 1380   2.746   2.475   2.953  0.4623  0.3275  0.3910
  461SOL     OW 1381   0.571   1.683   0.453  0.1462  0.0882  0.4522
  461SOL    HW1 1382   0.647   1.667   0.518 -3.4854  1.7687  0.7438
  461SOL    HW2 1383   0.591   1.635   0.367  0.2007 -3.0758  0.9794
  462SOL     OW 1384   2.635   2.466   0.703 -0.8301  0.5294 -0.2750
  462SOL    HW1 1385   2.685   2.454   0.791  1.3721 -0.9744  0.3985
  462SOL    HW2 1386   2.575   2.544   0.699  0.4991 -2.1719  0.3312
  463SOL     OW 1387   2.972   0.605   0.582 -0.1456  0.2539 -0.1904
  463SOL    HW1 1388   2.914   0.538   0.631  1.1436 -0.4181  1.2114
  463SOL    HW2 1389   3.070   0.602   0.608 -0.0302 -2.0217 -0.4624
  464SOL     OW 1390   1.193   2.943   0.578  0.2039 -0.0209 -0.1801
  464SOL    HW1 1391   1.090   2.949   0.567 -2.3105  0.1277 -1.0594
  464SOL    HW2 1392   1.217   2.846   0.604 -2.9850  1.1967  1.4605
  465SOL     OW 1393   2.420   0.946   0.431  0.1324  0.2761  0.1966
  465SOL    HW1 1394   2.323   0.908   0.449 -0.4182 -2.5503 -2.0547
  465SOL    HW2 1395   2.433   0.998   0.347  0.3656 -1.4236  1.0541
  466SOL     OW 1396   2.485   2.827   0.183  0.5651 -0.2414 -0.6552
  466SOL    HW1 1397   2.478   2.928   0.166  1.2088  1.0131  2.5165
  466SOL    HW2 1398   2.400   2.772   0.160 -0.1934 -1.0942 -2.2644
  467SOL     OW 1399   1.185   0.856   1.453  0.0614 -0.4472 -0.3969
  467SOL    HW1 1400   1.171   0.814   1.547  0.7940  0.7763  0.8177
  467SOL    HW2 1401   1.272   0.816   1.412 -1.7051  2.9667 -1.5006
  468SOL     OW 1402   0.351   0.543   2.212 -0.0901 -0.1801  0.3866
  468SOL    HW1 1403   0.440   0.493   2.202  1.9745  3.0671  0.0886
  468SOL    HW2 1404   0.363   0.645   2.188 -1.0761  2.0050 -0.2267
  469SOL     OW 1405   0.589   2.948   2.621 -0.5947 -0.0067 -0.0610
  469SOL    HW1 1406   0.614   2.861   2.670 -1.3286  0.1725  1.4308
  469SOL    HW2 1407   0.665   2.983   2.558 -1.1382  0.2114  0.5268
  470SOL     OW 1408   2.125   1.215   2.580 -0.1496  0.3246 -0.7439
  470SOL    HW1 1409   2.111   1.242   2.677  0.1518 -1.0436  3.1199
  470SOL    HW2 1410   2.212   1.162   2.566 -3.8146 -4.4348 -0.3306
  471SOL     OW 1411   2.747   1.301   2.651 -0.0627  0.3471 -0.5947
  471SOL    HW1 1412   2.713   1.365   2.585  2.2113 -1.8670  4.8023
  471SOL    HW2 1413   2.711   1.314   2.746 -0.9272 -3.0880  1.1704
  472SOL     OW 1414   0.492   2.438   0.193 -0.5183 -0.3181 -0.3216
  472SOL    HW1 1415   0.487   2.462   0.295  1.5564  1.0410  0.4384
  472SOL    HW2 1416   0.575   2.381   0.181 -0.8735 -0.1852 -0.3742
  473SOL     OW 1417   0.584   0.004   2.832  0.4453 -0.0275 -0.2198
  473SOL    HW1 1418   0.589   3.055   2.752 -2.1408 -0.5054 -0.7583
  473SOL    HW2 1419   0.507   3.083   2.890 -2.3466 -1.4468  1.3171
  474SOL     OW 1420   1.581   0.460   2.266  0.3410 -0.3827  0.1567
  474SOL    HW1 1421   1.495   0.408   2.273  3.3584  2.1999  1.2170
  474SOL    HW2 1422   1.590   0.492   2.168 -0.7488 -4.1953  1.0070
  475SOL     OW 1423   0.795   2.696   0.252  0.0135 -0.4008 -0.6011
  475SOL    HW1 1424   0.811   2.794   0.283  1.5404  1.3310  2.2302
  475SOL    HW2 1425   0.866   2.663   0.186 -0.1716 -1.0144 -0.3539
  476SOL     OW 1426   0.422   1.098   1.076  0.2313 -0.2534  0.3981
  476SOL    HW1 1427   0.484   1.034   1.125  0.2734 -3.3094 -2.7032
  476SOL    HW2 1428   0.461   1.191   1.057 -1.0159 -0.9887  1.1668
  477SOL     OW 1429   1.573   2.126   1.268  0.0165 -0.1038 -0.1904
  477SOL    HW1 1430   1.547   2.199   1.332 -0.6550 -1.6780  0.5019
  477SOL    HW2 1431   1.611   2.045   1.319 -1.3454 -2.0213  2.5525
  478SOL     OW 1432   0.900   1.406   2.216 -0.0571 -0.1532 -0.1230
  478SOL    HW1 1433   0.917   1.307   2.182 -0.0025 -2.1676 -0.4909
  478SOL    HW2 1434   0.900   1.426   2.320  1.1325  0.1470  1.1069
  479SOL     OW 1435   0.319   2.971   1.034 -0.4570 -0.8400 -0.2429
  479SOL    HW1 1436   0.258   2.985   1.114 -0.6144  1.0758 -1.4973
  479SOL    HW2 1437   0.277   2.996   0.945  0.1555  1.9572 -0.2977
  480SOL     OW 1438   2.714   2.436   0.129 -0.2250  0.2240  0.4166
  480SOL    HW1 1439   2.715   2.440   0.029 -0.4787 -0.6977  0.1084
  480SOL    HW2 1440   2.617   2.436   0.161 -0.9539  0.1793 -0.6660
  481SOL     OW 1441   2.919   0.109   1.226  0.3310 -0.0804  0.5761
  481SOL    HW1 1442   2.954   0.186   1.177 -2.9389 -0.7958  1.2781
  481SOL    HW2 1443   2.987   0.061   1.287  1.0320  0.5614 -1.6248
  482SOL     OW 1444   1.648   2.503   2.043 -0.2671 -0.3163 -0.1554
  482SOL    HW1 1445   1.689   2.583   2.093  1.7373  1.3349  0.9253
  482SOL    HW2 1446   1.613   2.541   1.952  0.2273 -1.5119 -1.0502
  483SOL     OW 1447   0.723   1.372   2.795 -0.1734 -0.0458 -0.3060
  483SOL    HW1 1448   0.680   1.460   2.766  1.4637 -1.7178  2.0369
  483SOL    HW2 1449   0.664   1.289   2.770 -0.9851 -1.3530 -1.8573
  484SOL     OW 1450   1.139   1.590   2.191 -0.1074  0.4671  0.2839
  484SOL    HW1 1451   1.204   1.539   2.254 -1.0076 -0.3329 -2.5913
  484SOL    HW2 1452   1.049   1.535   2.196 -1.6022 -0.7376 -0.8398
  485SOL     OW 1453   2.716   0.092   3.049  0.4829  0.1099 -0.0022
  485SOL    HW1 1454   2.705   0.174   3.109  1.6120 -1.5394 -0.0752
  485SOL    HW2 1455   2.751   0.012   3.106  1.0691 -1.4688  1.0073
  486SOL     OW 1456   1.566   3.033   0.618 -0.2890  0.5725  0.2585
  486SOL    HW1 1457   1.514   3.067   0.534  0.4411  0.1180  1.1519
  486SOL    HW2 1458   1.528   3.066   0.706 -1.6406 -1.1844  1.8344
  487SOL     OW 1459   1.235   2.525   0.882  0.1019  0.1884 -0.1004
  487SOL    HW1 1460   1.229   2.424   0.872  0.1285  0.7622  0.5139
  487SOL    HW2 1461   1.139   2.557   0.877 -0.7125 -1.5181  4.8295
  488SOL     OW 1462   2.323   1.080   0.171 -0.1524  0.0324 -0.2650
  488SOL    HW1 1463   2.374   1.168   0.166 -0.7033  2.2282  1.2352
  488SOL    HW2 1464   2.249   1.072   0.107  1.2134 -0.9131  1.9577
  489SOL     OW 1465   1.389   2.888   1.254 -0.5272 -0.2666 -0.1113
  489SOL    HW1 1466   1.339   2.841   1.329  1.2071 -0.2592 -2.9085
  489SOL    HW2 1467   1.351   2.983   1.252 -1.2000 -0.7924  0.7806
  490SOL     OW 1468   0.727   0.882   0.281  0.3438 -0.0781 -0.1295
  490SOL    HW1 1469   0.740   0.818   0.360 -1.0210  2.2143  0.4938
  490SOL    HW2 1470   0.696   0.827   0.201 -0.1066 -4.5009 -0.1826
  491SOL     OW 1471   0.917   0.103   0.770 -0.6342  0.7348  0.0838
  491SOL    HW1 1472   0.949   0.193   0.798 -0.8295 -0.9590 -1.3832
  491SOL    HW2 1473   0.945   0.033   0.839 -1.8427 -0.7778 -1.8685
  492SOL     OW 1474   1.304   1.433   2.351  0.5531 -0.2019 -0.4921
  492SOL    HW1 1475   1.382   1.397   2.303 -4.1856  1.6411  0.9729
  492SOL    HW2 1476   1.255   1.359   2.402  1.7773  2.8445 -0.9243
  493SOL     OW 1477   0.266   2.569   0.233  0.5153 -0.0010  0.3168
  493SOL    HW1 1478   0.201   2.496   0.227  1.9647  2.8471 -0.8861
  493SOL    HW2 1479   0.354   2.539   0.200 -0.1681 -0.8544 -1.4367
  494SOL     OW 1480   2.110   1.740   0.416  0.3575  0.2584  0.2909
  494SOL    HW1 1481   2.178   1.664   0.432  3.0933  1.4178  0.7846
  494SOL    HW2 1482   2.064   1.740   0.325  0.5566  1.4071  0.0471
  495SOL     OW 1483   2.820   0.934   2.802 -0.0686 -0.0979  0.1777
  495SOL    HW1 1484   2.916   0.908   2.786  0.0357  1.1987  1.6784
  495SOL    HW2 1485   2.805   0.916   2.900 -0.5729  1.1114 -1.9011
  496SOL     OW 1486   2.854   2.913   2.037 -0.6920 -0.0482 -0.0096
  496SOL    HW1 1487   2.806   2.858   2.110  1.5586 -0.3890  2.6273
  496SOL    HW2 1488   2.832   2.875   1.942 -0.7131  0.2101 -1.8809
  497SOL     OW 1489   2.696   1.008   0.993 -0.6457 -0.0313 -0.0606
  497SOL    HW1 1490   2.674   0.925   1.045  0.4737  0.7253 -0.2368
  497SOL    HW2 1491   2.626   1.042   0.926  0.3748  1.2491 -0.7044
  498SOL     OW 1492   0.181   2.120   2.736  0.3513  0.1388  0.0314
  498SOL    HW1 1493   0.085   2.116   2.770 -0.6824 -2.3149 -2.2571
  498SOL    HW2 1494   0.199   2.188   2.666  0.7469 -0.5382  2.3284
  499SOL     OW 1495   0.701   2.110   0.592 -0.6585 -0.4278  0.0999
  499SOL    HW1 1496   0.761   2.171   0.532  1.8494 -1.8865  1.7210
  499SOL    HW2 1497   0.747   2.093   0.684 -1.2404 -0.8323 -0.9888
  500SOL     OW 1498   0.811   0.174   2.446  0.1844  0.0902 -0.7901
  500SOL    HW1 1499   0.815   0.160   2.547  2.8489  0.4926 -0.0033
  500SOL    HW2 1500   0.721   0.174   2.401  1.1741 -0.0392  0.2698
  501SOL     OW 1501   0.941   0.219   1.641 -0.3948  0.0904  0.1031
  501SOL    HW1 1502   0.947   0.148   1.714 -1.2059  0.1853  0.8152
  501SOL    HW2 1503   1.028   0.216   1.591  1.6390 -3.7228 -2.4409
  502SOL     OW 1504   0.012   0.328   1.982 -0.3494  0.3556  0.1945
  502SOL    HW1 1505   0.094   0.317   1.922  0.1600  0.5026 -1.6957
  502SOL    HW2 1506   0.014   0.418   2.031 -0.3992  0.3073 -1.1319
  503SOL     OW 1507   2.188   1.857   2.412 -0.5123 -0.4246  0.2187
  503SOL    HW1 1508   2.150   1.943   2.367  0.0871  0.4211  1.0799
  503SOL    HW2 1509   2.242   1.888   2.492 -0.5815  1.8811  0.7980
  504SOL     OW 1510   2.040   0.756   1.751 -0.1002 -0.1991  0.0051
  504SOL    HW1 1511   2.028   0.805   1.666 -0.4203 -0.5026 -1.3297
  504SOL    HW2 1512   2.111   0.681   1.741  0.2678 -1.2079 -0.4197
  505SOL     OW 1513   2.849   1.056   1.731 -0.4097  0.4544  0.4831
  505SOL    HW1 1514   2.950   1.078   1.744  0.5168 -0.3782 -0.3917
  505SOL    HW2 1515   2.828   0.991   1.658 -0.9929 -2.8360 -1.2000
  506SOL     OW 1516   0.460   1.372   2.440 -0.1824 -0.5013  0.0025
  506SOL    HW1 1517   0.380   1.328   2.392 -0.5666 -0.3987 -0.8577
  506SOL    HW2 1518   0.515   1.427   2.368  1.3443  1.6032 -0.6884
  507SOL     OW 1519   0.367   2.834   2.348  0.0360 -0.1929 -0.6476
  507SOL    HW1 1520   0.420   2.909   2.306  0.6560 -0.6170 -1.2414
  507SOL    HW2 1521   0.432   2.766   2.386  3.1175 -0.2483 -1.1129
  508SOL     OW 1522   1.444   0.812   1.326  0.3980  0.1255 -0.3230
  508SOL    HW1 1523   1.442   0.913   1.337 -0.6208 -0.7887  0.0106
  508SOL    HW2 1524   1.536   0.773   1.332 -3.5891  1.6891 -2.7448
  509SOL     OW 1525   0.869   1.690   1.304 -0.0488  0.0860 -0.4948
  509SOL    HW1 1526   0.792   1.726   1.357 -1.3900  1.5401 -0.9381
  509SOL    HW2 1527   0.954   1.738   1.341  0.1344  0.3852  0.7430
  510SOL     OW 1528   2.617   1.049   2.643 -0.1037 -0.4874 -0.7884
  510SOL    HW1 1529   2.634   1.149   2.630  1.3388  0.6527 -0.4000
  510SOL    HW2 1530   2.686   1.007   2.703 -0.9853  1.4636  1.1156
  511SOL     OW 1531   0.569   1.735   1.165  0.2587 -0.1558  0.4456
  511SOL    HW1 1532   0.487   1.674   1.175 -0.1233 -1.1665 -3.6406
  511SOL    HW2 1533   0.612   1.741   1.259  1.2036 -0.5202  1.3483
  512SOL     OW 1534   2.650   2.404   1.234 -0.2370  0.2060  0.5226
  512SOL    HW1 1535   2.579   2.340   1.249  1.8411  1.6431  0.4126
  512SOL    HW2 1536   2.617   2.490   1.194 -0.2180  3.6928 -0.3982
  513SOL     OW 1537   0.213   1.408   3.022  0.5324  0.2610 -0.2663
  513SOL    HW1 1538   0.294   1.363   3.060 -2.8504 -0.2108  0.5629
  513SOL    HW2 1539   0.228   1.504   3.003 -0.6421 -1.6622 -0.4378
  514SOL     OW 1540   0.083   2.537   2.982  0.0086 -0.3361 -0.0513
  514SOL    HW1 1541   0.005   2.527   3.049 -3.4384 -0.4432  3.5228
  514SOL    HW2 1542   0.178   2.515   3.019 -1.9523  0.3757  0.2543
  515SOL     OW 1543   1.642   1.104   2.175 -0.3153 -0.3820 -0.2589
  515SOL    HW1 1544   1.594   1.190   2.193  1.0676  0.8818  0.0955
  515SOL    HW2 1545   1.676   1.064   2.262 -0.0077  1.4194 -2.8940
  516SOL     OW 1546   2.203   2.046   0.158 -0.3804  0.2607  0.4151
  516SOL    HW1 1547   2.191   1.946   0.155  0.3825  1.7492 -0.7327
  516SOL    HW2 1548   2.297   2.073   0.128 -0.4603  1.0827  1.8191
  517SOL     OW 1549   1.416   1.091   0.406 -0.3665  0.5260 -0.4308
  517SOL    HW1 1550   1.471   1.084   0.491  1.5906  0.2543 -2.4238
  517SOL    HW2 1551   1.331   1.029   0.415 -4.1275  0.6315 -1.6325
  518SOL     OW 1552   2.227   2.689   2.219 -0.0091  0.3109  0.6987
  518SOL    HW1 1553   2.192   2.694   2.316  0.9363 -1.4398  0.2588
  518SOL    HW2 1554   2.166   2.635   2.159  1.6589  2.3075 -0.3368
  519SOL     OW 1555   1.833   2.405   1.425  0.0697  0.0252  0.0679
  519SOL    HW1 1556   1.842   2.431   1.329 -1.7944  2.0824  2.4299
  519SOL    HW2 1557   1.745   2.438   1.458  0.8354 -2.3734 -2.3240
  520SOL     OW 1558   2.486   2.505   2.830 -0.0437  0.0520  0.2085
  520SOL    HW1 1559   2.541   2.591   2.832  0.4956  1.8954  3.4832
  520SOL    HW2 1560   2.451   2.487   2.735 -1.4739  3.8144 -1.5210
  521SOL     OW 1561   0.345   1.327   2.065  0.1369 -0.1379  0.3458
  521SOL    HW1 1562   0.299   1.313   2.156  1.7141  1.7357  0.6400
  521SOL    HW2 1563   0.405   1.408   2.066 -0.0267  0.1744  2.6775
  522SOL     OW 1564   1.192   0.498   1.865 -0.4337 -0.0889  0.2917
  522SOL    HW1 1565   1.274   0.545   1.909  0.7089 -0.3886  0.4839
  522SOL    HW2 1566   1.175   0.541   1.774  2.4856  0.5234  1.8489
  523SOL     OW 1567   0.556   2.473   0.855  0.0121 -0.7160 -0.1384
  523SOL    HW1 1568   0.563   2.389   0.799  1.0756  0.1792  1.0758
  523SOL    HW2 1569   0.455   2.501   0.861 -2.6889  1.5268 -1.4087
  524SOL     OW 1570   1.473   2.581   0.529 -0.2557  0.6197 -0.0475
  524SOL    HW1 1571   1.560   2.636   0.537  0.0934 -2.0439  1.6662
  524SOL    HW2 1572   1.461   2.513   0.604  0.2853 -1.5220 -0.1002
  525SOL     OW 1573   2.265   1.171   1.320 -0.9411  0.1407  0.2708
  525SOL    HW1 1574   2.305   1.187   1.415 -0.2593 -0.9185  2.4863
  525SOL    HW2 1575   2.258   1.258   1.268  0.1040 -1.0534 -1.7481
  526SOL     OW 1576   0.989   2.649   0.830  0.0519 -0.0291  0.6905
  526SOL    HW1 1577   0.899   2.659   0.774 -0.7693 -1.8562 -2.1454
  526SOL    HW2 1578   1.056   2.718   0.805 -0.4386 -1.5352 -0.3146
  527SOL     OW 1579   2.537   2.267   0.408  0.1322 -0.0408 -0.5226
  527SOL    HW1 1580   2.509   2.364   0.394  1.5766  0.2416 -0.6166
  527SOL    HW2 1581   2.465   2.215   0.452  0.0392  1.5434  2.0600
  528SOL     OW 1582   2.053   0.545   0.348  0.3386  0.2029 -0.3930
  528SOL    HW1 1583   2.035   0.640   0.316  0.2899  0.1895  0.3323
  528SOL    HW2 1584   1.967   0.495   0.368 -1.3113 -0.6670  2.4790
  529SOL     OW 1585   1.562   1.318   2.744  0.3891  0.3626 -0.3712
  529SOL    HW1 1586   1.470   1.272   2.754 -3.8370 -2.2070  1.3592
  529SOL    HW2 1587   1.566   1.386   2.818 -1.4289  1.7917  2.9450
  530SOL     OW 1588   2.420   0.578   0.109 -0.0401 -0.3968 -0.2438
  530SOL    HW1 1589   2.487   0.593   0.032 -0.8207  2.2746  0.8078
  530SOL    HW2 1590   2.464   0.582   0.200 -0.1975 -0.4836 -0.3072
  531SOL     OW 1591   1.077   0.993   0.046 -0.2808  0.0549 -0.5383
  531SOL    HW1 1592   1.070   1.077   0.099 -1.8008  1.5551  0.2902
  531SOL    HW2 1593   1.003   1.004   3.091  0.9863 -1.9745  1.1251
  532SOL     OW 1594   1.864   0.501   1.017  0.0286  0.5119 -0.4018
  532SOL    HW1 1595   1.963   0.472   1.007  0.9634 -1.8410 -1.4539
  532SOL    HW2 1596   1.803   0.451   0.946  0.8844 -1.4200 -0.6701
  533SOL     OW 1597   1.176   1.093   2.222  0.2047 -0.2522 -0.4896
  533SOL    HW1 1598   1.194   1.117   2.316  0.6687 -1.0594  1.2349
  533SOL    HW2 1599   1.226   1.160   2.161  0.1905  1.4156  0.8324
  534SOL     OW 1600   1.891   0.380   2.546  0.5964 -0.2844  0.2627
  534SOL    HW1 1601   1.974   0.438   2.550 -1.1196 -1.5053  1.2145
  534SOL    HW2 1602   1.883   0.319   2.630  0.3474 -0.7316 -0.3182
  535SOL     OW 1603   0.409   0.203   0.273 -0.1473  0.3254 -0.0372
  535SOL    HW1 1604   0.380   0.268   0.196 -0.5342  1.2295 -1.5111
  535SOL    HW2 1605   0.485   0.134   0.247  3.0088 -3.3376  0.1861
  536SOL     OW 1606   0.947   3.034   0.935  0.2582  0.0696  0.2761
  536SOL    HW1 1607   1.010   3.039   1.012  2.1952 -0.0610  0.5270
  536SOL    HW2 1608   0.862   2.989   0.962  1.8868  1.8120  0.3991
  537SOL     OW 1609   1.466   1.123   0.979 -0.2196  0.0950  0.1613
  537SOL    HW1 1610   1.508   1.077   1.060 -0.3811 -0.4691  1.3893
  537SOL    HW2 1611   1.531   1.172   0.915  0.4260 -0.2068  0.0939
  538SOL     OW 1612   2.921   2.062   0.116  0.1365 -0.2798  0.5923
  538SOL    HW1 1613   2.976   2.018   0.186  0.2762  0.9894 -1.9198
  538SOL    HW2 1614   2.975   2.123   0.056 -0.4908  2.2519 -0.0520
  539SOL     OW 1615   2.608   1.821   0.141  0.0375  0.0331  0.1500
  539SOL    HW1 1616   2.535   1.812   0.067  2.7373 -0.3618 -2.0429
  539SOL    HW2 1617   2.635   1.916   0.162  2.1461  1.6908  2.9517
  540SOL     OW 1618   0.336   2.773   1.539 -0.1231 -0.0482 -0.0775
  540SOL    HW1 1619   0.317   2.757   1.440 -2.5023  1.1726  0.1831
  540SOL    HW2 1620   0.323   2.874   1.557  3.1220 -0.9342  1.1700
  541SOL     OW 1621   2.304   3.117   1.933  0.4754 -0.4905  0.2087
  541SOL    HW1 1622   2.269   3.059   2.007 -2.5141  1.5785  1.9149
  541SOL    HW2 1623   2.224   0.023   1.874 -0.5541 -0.5991  0.2916
  542SOL     OW 1624   2.779   0.240   2.388  0.3893 -0.2034  0.2976
  542SOL    HW1 1625   2.820   0.241   2.481  1.6170 -1.2921 -1.2150
  542SOL    HW2 1626   2.857   0.238   2.324  2.0201 -1.3116  3.9693
  543SOL     OW 1627   0.720   0.428   0.657  0.6287  0.1344 -0.4965
  543SOL    HW1 1628   0.716   0.528   0.641 -3.1666  1.4940 -1.1541
  543SOL    HW2 1629   0.667   0.375   0.594  4.8203  0.2241 -0.2663
  544SOL     OW 1630   3.041   2.696   1.057 -0.0119  0.3685  0.1312
  544SOL    HW1 1631   3.011   2.737   1.148 -0.3183  0.5943  1.2925
  544SOL    HW2 1632   2.985   2.615   1.032 -0.4812  0.1374  1.1151
  545SOL     OW 1633   1.283   2.012   0.860  0.7023  0.3486  0.2834
  545SOL    HW1 1634   1.260   2.010   0.757 -2.4742 -0.1801 -0.7818
  545SOL    HW2 1635   1.369   1.966   0.881 -0.6327 -0.7654  0.4631
  546SOL     OW 1636   2.128   0.171   1.796  0.0808  0.4562 -0.0464
  546SOL    HW1 1637   2.046   0.234   1.803  0.3248  0.7962 -3.4109
  546SOL    HW2 1638   2.112   0.095   1.733  0.8960  2.7046  1.1933
  547SOL     OW 1639   0.355   0.218   2.161  0.2266  0.3476  0.6377
  547SOL    HW1 1640   0.332   0.310   2.130 -3.2070 -2.5751  0.2109
  547SOL    HW2 1641   0.305   0.196   2.249  1.4492 -0.8292  2.7794
  548SOL     OW 1642   2.033   1.775   2.754 -0.6935 -0.0112  0.0767
  548SOL    HW1 1643   1.979   1.774   2.839 -0.9718  2.7526 -2.7259
  548SOL    HW2 1644   2.028   1.862   2.706  0.9319  0.4222 -0.0145
  549SOL     OW 1645   3.114   0.797   0.787 -0.2752  0.3708 -0.5405
  549SOL    HW1 1646   3.089   0.854   0.704  1.6255  1.9717  1.5536
  549SOL    HW2 1647   3.056   0.815   0.868  3.6226 -0.0046 -0.6407
  550SOL     OW 1648   1.636   1.840   0.641  0.3009 -0.3735 -0.1452
  550SOL    HW1 1649   1.704   1.786   0.586  0.9442 -2.4800  0.4757
  550SOL    HW2 1650   1.635   1.939   0.607 -2.0985  0.1657 -0.3283
  551SOL     OW 1651   0.838   0.306   1.107  0.2622  0.5994  0.0485
  551SOL    HW1 1652   0.804   0.216   1.142  1.1053 -0.9031  0.2054
  551SOL    HW2 1653   0.772   0.381   1.138 -0.5697  0.6646  0.2044
  552SOL     OW 1654   2.446   2.542   2.151 -0.3342  0.4838  0.2487
  552SOL    HW1 1655   2.512   2.562   2.226  1.5729  1.4277 -0.9736
  552SOL    HW2 1656   2.357   2.586   2.167  0.1735 -0.9029 -0.6373
  553SOL     OW 1657   2.974   3.075   2.613 -0.2440  0.1162  0.1757
  553SOL    HW1 1658   3.053   3.010   2.628  0.2940  3.4140 -1.0142
  553SOL    HW2 1659   2.914   3.049   2.533 -1.4833  0.4159 -0.0376
  554SOL     OW 1660   1.018   2.755   1.301 -0.3145  0.3355 -0.5983
  554SOL    HW1 1661   0.948   2.762   1.371  1.9338  0.2737  0.1580
  554SOL    HW2 1662   1.114   2.732   1.343  5.4233 -0.4507 -0.0011
  555SOL     OW 1663   2.406   2.799   1.811  0.2082  0.3725 -0.2002
  555SOL    HW1 1664   2.425   2.747   1.722 -0.9954 -0.1023  2.9458
  555SOL    HW2 1665   2.441   2.893   1.795  1.0996  2.2415 -2.6399
  556SOL     OW 1666   1.027   0.149   2.799 -0.9452  0.5873  0.1550
  556SOL    HW1 1667   1.078   0.092   2.734 -0.1791  1.7527  2.5287
  556SOL    HW2 1668   1.046   0.122   2.899 -0.0067 -0.9326 -0.1470
  557SOL     OW 1669   3.065   1.789   2.352  0.5273  0.1842  0.2697
  557SOL    HW1 1670   3.043   1.774   2.450  0.8418 -0.9514 -0.0204
  557SOL    HW2 1671   3.090   1.882   2.328 -0.6765 -2.2788  0.6089
  558SOL     OW 1672   2.378   1.127   2.506  0.0409 -0.1099 -0.1207
  558SOL    HW1 1673   2.341   1.107   2.415 -1.8176 -2.1523  1.9897
  558SOL    HW2 1674   2.449   1.067   2.536  1.9286 -0.2996 -1.4859
  559SOL     OW 1675   2.391   2.135   1.944 -0.0740 -0.0981 -0.2116
  559SOL    HW1 1676   2.445   2.116   2.029  1.5985 -2.7238 -0.2455
  559SOL    HW2 1677   2.380   2.236   1.933 -1.0435  4.0355 -1.4207
  560SOL     OW 1678   3.053   0.618   2.399 -0.2588  0.4040 -0.0899
  560SOL    HW1 1679   2.962   0.663   2.403 -2.2509  0.0723  0.5850
  560SOL    HW2 1680   3.069   0.577   2.310  0.6606  0.5063 -0.1418
  561SOL     OW 1681   0.615   0.492   0.234  0.0015 -0.5440  0.5759
  561SOL    HW1 1682   0.593   0.417   0.170 -0.4990  0.3978  3.1398
  561SOL    HW2 1683   0.706   0.473   0.281  0.4818  1.5250 -0.5641
  562SOL     OW 1684   1.089   1.439   1.547 -0.5784 -0.3441 -0.2780
  562SOL    HW1 1685   1.082   1.527   1.600  2.2901 -1.0852  2.0768
  562SOL    HW2 1686   1.036   1.366   1.593 -0.8900 -2.1281 -0.0333
  563SOL     OW 1687   1.401   2.744   3.044  0.1483  0.1055  0.2637
  563SOL    HW1 1688   1.405   2.779   0.020  1.0472  0.4878 -0.5960
  563SOL    HW2 1689   1.318   2.779   2.991 -1.2981  1.0818 -0.5600
  564SOL     OW 1690   0.135   2.108   0.872 -0.6041  0.6164 -0.2651
  564SOL    HW1 1691   0.129   2.073   0.968  0.5391  1.6454  2.4827
  564SOL    HW2 1692   0.230   2.093   0.836  1.9027  0.0502 -1.0563
  565SOL     OW 1693   0.751   2.207   2.322  0.1077 -0.2400 -0.3467
  565SOL    HW1 1694   0.656   2.202   2.290 -1.4864 -1.5935  1.2131
  565SOL    HW2 1695   0.806   2.288   2.291  0.7104 -0.2178 -3.3653
  566SOL     OW 1696   1.258   2.632   2.292  0.2667 -0.0766  0.0861
  566SOL    HW1 1697   1.314   2.547   2.310  1.5512  0.9489  2.0866
  566SOL    HW2 1698   1.284   2.663   2.195  2.9399  1.3867  0.1553
  567SOL     OW 1699   2.264   2.230   0.968 -0.3745  0.1036  0.3772
  567SOL    HW1 1700   2.196   2.169   1.013 -0.6472 -0.6359  3.3386
  567SOL    HW2 1701   2.320   2.176   0.898  2.6313  0.0570 -2.9094
  568SOL     OW 1702   2.042   0.799   0.323  0.1574 -0.4423  0.1654
  568SOL    HW1 1703   2.022   0.891   0.285 -2.1366  0.3302 -0.9762
  568SOL    HW2 1704   2.110   0.803   0.397  0.4782 -0.7154 -0.0056
  569SOL     OW 1705   0.084   1.454   2.634 -0.2346 -0.0361  0.1693
  569SOL    HW1 1706   0.088   1.513   2.551 -0.6876  0.1999  1.1176
  569SOL    HW2 1707   0.035   1.365   2.611 -2.2754 -0.6954  0.0550
  570SOL     OW 1708   3.083   3.103   1.406 -0.3247  0.1206 -0.7811
  570SOL    HW1 1709   3.049   0.023   1.491  1.3783  1.0932  0.2897
  570SOL    HW2 1710   0.022   3.020   1.427 -1.6574 -0.5527 -1.3423
  571SOL     OW 1711   0.063   0.665   1.621  0.2166 -0.0068 -0.7332
  571SOL    HW1 1712   0.063   0.591   1.548  0.9183 -0.2903 -1.6324
  571SOL    HW2 1713   3.093   0.658   1.672  0.3505 -0.8840  1.2043
  572SOL     OW 1714   2.913   2.503   0.935  0.1436 -0.1437 -1.0160
  572SOL    HW1 1715   2.848   2.426   0.931 -0.9377 -1.3096  1.0610
  572SOL    HW2 1716   3.007   2.477   0.904 -1.9840 -1.3717 -1.4285
  573SOL     OW 1717   0.665   0.719   0.084 -0.3545 -0.0876 -0.0676
  573SOL    HW1 1718   0.612   0.634   0.113 -2.1132  1.2133  0.8832
  573SOL    HW2 1719   0.607   0.780   0.035  1.8225 -2.4318  2.7789
  574SOL     OW 1720   2.859   2.650   2.978 -0.2374 -0.1662 -0.1426
  574SOL    HW1 1721   2.785   2.719   3.006 -2.5106 -0.0528  0.1665
  574SOL    HW2 1722   2.916   2.628   3.058 -1.9246 -1.9010  0.8245
  575SOL     OW 1723   1.102   2.310   1.214 -0.0672  0.1414  0.4670
  575SOL    HW1 1724   1.040   2.318   1.134  1.1122  0.3096  1.0528
  575SOL    HW2 1725   1.181   2.247   1.190  1.5934 -2.3877  1.1642
  576SOL     OW 1726   0.227   0.001   1.274 -0.0964  0.0033  0.0093
  576SOL    HW1 1727   0.294   3.091   1.347 -1.3854 -2.1391 -1.2397
  576SOL    HW2 1728   0.133   3.112   1.307 -1.5566 -2.4200 -1.2102
  577SOL     OW 1729   2.174   1.581   0.908  0.4000  0.2589  0.2994
  577SOL    HW1 1730   2.198   1.489   0.945 -0.6656  0.2766  0.8685
  577SOL    HW2 1731   2.255   1.631   0.865  2.8827  0.3844 -1.1924
  578SOL     OW 1732   1.495   0.141   0.059  0.1415  0.0630  0.6813
  578SOL    HW1 1733   1.489   0.107   3.080  0.9013  1.9558  1.6343
  578SOL    HW2 1734   1.551   0.085   0.125 -0.4838 -0.0205  0.0385
  579SOL     OW 1735   2.877   1.543   2.341  0.1449 -0.3622  0.6473
  579SOL    HW1 1736   2.925   1.631   2.354 -0.4214  3.9939  2.2435
  579SOL    HW2 1737   2.806   1.525   2.409  0.7610  2.1801 -2.5941
  580SOL     OW 1738   1.783   0.934   1.506  0.3313 -0.1102 -0.2962
  580SOL    HW1 1739   1.886   0.931   1.532  3.4327  0.1301  2.4294
  580SOL    HW2 1740   1.752   0.847   1.464 -1.6572  0.8598 -0.1023
  581SOL     OW 1741   0.903   1.274   1.655 -0.3326  0.4243 -0.8955
  581SOL    HW1 1742   0.847   1.351   1.679  0.5551 -1.7781 -0.2117
  581SOL    HW2 1743   0.899   1.196   1.724 -0.3352 -0.7157 -2.2712
  582SOL     OW 1744   3.113   2.995   1.989 -0.2785  0.1701  0.2285
  582SOL    HW1 1745   0.014   3.028   2.083 -2.2416  1.2611 -1.9774
  582SOL    HW2 1746   3.019   2.959   1.977  1.0004  0.4397  0.9852
  583SOL     OW 1747   2.257   0.512   1.543 -0.3524  0.6128  0.1768
  583SOL    HW1 1748   2.256   0.515   1.645 -0.4881 -1.9074 -0.6509
  583SOL    HW2 1749   2.329   0.564   1.495  0.4450 -2.0574 -2.0657
  584SOL     OW 1750   1.492   1.994   2.841 -0.2404 -0.3109  0.0665
  584SOL    HW1 1751   1.512   1.922   2.776 -0.4742  1.2517 -0.7720
  584SOL    HW2 1752   1.450   2.068   2.790  0.8994 -0.9123 -2.4850
  585SOL     OW 1753   0.538   2.865   0.284 -0.0109  0.1886 -0.1864
  585SOL    HW1 1754   0.445   2.836   0.327 -1.6183 -1.3220  1.3938
  585SOL    HW2 1755   0.547   2.840   0.184 -0.5618  0.1017 -3.0867
  586SOL     OW 1756   1.712   2.283   2.455  0.8948  0.2471 -0.2944
  586SOL    HW1 1757   1.676   2.221   2.525  0.5773  0.5095 -0.6965
  586SOL    HW2 1758   1.639   2.277   2.385  2.0089 -1.6251  1.0164
  587SOL     OW 1759   2.671   1.958   0.473 -0.1511  0.5494 -0.2291
  587SOL    HW1 1760   2.663   1.990   0.379 -0.3602 -0.8085  2.5076
  587SOL    HW2 1761   2.656   2.033   0.539 -3.1902 -2.9388  0.8318
  588SOL     OW 1762   2.329   0.212   1.138  0.3025  0.1007 -0.2683
  588SOL    HW1 1763   2.358   0.202   1.235  0.7540 -0.2139  0.1188
  588SOL    HW2 1764   2.333   0.310   1.116  0.6004 -1.0632 -0.7755
  589SOL     OW 1765   0.937   0.608   0.334  0.0571 -0.5477  0.1677
  589SOL    HW1 1766   1.030   0.628   0.370 -2.5339 -1.2679 -0.1881
  589SOL    HW2 1767   0.930   0.600   0.232 -1.0923 -2.6373 -0.4623
  590SOL     OW 1768   2.325   1.566   0.462  0.6377  0.1485  0.0362
  590SOL    HW1 1769   2.378   1.598   0.380  1.1260 -2.1646 -0.3245
  590SOL    HW2 1770   2.398   1.561   0.535  1.9210 -1.1054  1.2565
  591SOL     OW 1771   0.362   2.682   1.263  0.0044 -0.2177  0.2888
  591SOL    HW1 1772   0.442   2.693   1.203  1.6078  1.1072  1.2405
  591SOL    HW2 1773   0.278   2.664   1.211  1.4304  2.8433 -0.7259
  592SOL     OW 1774   0.911   0.852   1.379 -0.0631  0.7345  0.7852
  592SOL    HW1 1775   0.854   0.862   1.465 -0.9919 -2.6714 -0.4245
  592SOL    HW2 1776   1.005   0.879   1.395 -3.1320 -3.7922 -0.1934
  593SOL     OW 1777   0.756   1.406   1.228  0.3448  0.1916 -0.0108
  593SOL    HW1 1778   0.840   1.394   1.166  2.2234 -1.5266 -3.4686
  593SOL    HW2 1779   0.759   1.503   1.262  1.2517  2.5635 -0.6015
  594SOL     OW 1780   0.863   1.884   0.150  0.4265 -0.0111  0.0685
  594SOL    HW1 1781   0.766   1.898   0.137  2.1130 -1.5424  1.1636
  594SOL    HW2 1782   0.879   1.852   0.243  1.6611  0.3649 -1.2037
  595SOL     OW 1783   1.622   0.342   1.200  0.5733  0.0256 -0.2000
  595SOL    HW1 1784   1.523   0.351   1.184  1.7112 -0.6354  0.8578
  595SOL    HW2 1785   1.658   0.416   1.146  0.4385  0.8097 -0.0009
  596SOL     OW 1786   2.981   1.750   1.053  0.3602  0.4153 -0.8688
  596SOL    HW1 1787   3.008   1.773   1.145  0.3486 -1.1343  0.2914
  596SOL    HW2 1788   3.050   1.695   1.002  1.3837 -1.3130 -0.5835
  597SOL     OW 1789   0.081   2.544   2.710  0.2286  0.2118  0.1107
  597SOL    HW1 1790   0.000   2.601   2.694 -1.2382 -1.4598 -1.0454
  597SOL    HW2 1791   0.100   2.539   2.812  2.1984  1.6175 -2.0682
  598SOL     OW 1792   2.820   2.140   2.184  0.2819 -0.2380  0.5093
  598SOL    HW1 1793   2.795   2.076   2.256 -1.3878  2.2629  0.2734
  598SOL    HW2 1794   2.843   2.237   2.221  2.8407  1.4145  1.2270
  599SOL     OW 1795   0.895   0.328   0.058 -0.2742 -0.2778  0.3448
  599SOL    HW1 1796   0.795   0.311   0.057  3.2667  0.3764  1.5529
  599SOL    HW2 1797   0.907   0.433   0.044 -0.6199  1.8789 -1.2275
  600SOL     OW 1798   0.722   2.540   0.466  0.4955  0.4800  0.6549
  600SOL    HW1 1799   0.759   2.605   0.398  0.6307 -1.3480  1.2434
  600SOL    HW2 1800   0.625   2.521   0.454  0.7348 -2.3156 -1.3561
  601SOL     OW 1801   0.402   0.832   1.348  0.4956  0.0316 -0.4217
  601SOL    HW1 1802   0.497   0.868   1.336  0.3373  1.3120  1.3807
  601SOL    HW2 1803   0.369   0.790   1.259  1.1950  0.9601  1.0616
  602SOL     OW 1804   0.582   2.755   0.859  0.2503 -0.1355  0.1972
  602SOL    HW1 1805   0.591   2.654   0.846 -0.5266 -0.5067  0.8508
  602SOL    HW2 1806   0.572   2.785   0.957 -1.1261  1.7020 -0.4396
  603SOL     OW 1807   0.998   0.000   2.205  0.0027 -0.6573  0.6944
  603SOL    HW1 1808   1.004   3.036   2.155  0.7619  1.3224 -0.6128
  603SOL    HW2 1809   0.952   0.077   2.154 -2.6548 -0.3691 -2.7572
  604SOL     OW 1810   0.804   2.584   1.877 -0.8305 -0.5681 -0.6278
  604SOL    HW1 1811   0.775   2.509   1.815 -1.2861  2.6113 -0.5987
  604SOL    HW2 1812   0.722   2.610   1.928 -0.6420 -2.7778  0.0570
  605SOL     OW 1813   1.961   0.739   2.159 -0.2042 -0.1272 -0.7087
  605SOL    HW1 1814   2.028   0.794   2.107 -0.6333  3.6851 -1.2602
  605SOL    HW2 1815   1.955   0.778   2.251 -0.1925  0.4123 -1.9949
  606SOL     OW 1816   2.338   3.013   2.724 -0.2954 -0.3865 -0.4437
  606SOL    HW1 1817   2.299   2.995   2.818 -2.7859 -1.2570  0.9803
  606SOL    HW2 1818   2.403   3.095   2.718  1.9663  2.2598  0.0691
  607SOL     OW 1819   0.891   0.572   1.345  0.3045 -0.2168  0.4812
  607SOL    HW1 1820   0.794   0.535   1.330 -0.6853 -0.3754  0.1274
  607SOL    HW2 1821   0.896   0.674   1.347 -0.9630 -1.1169  0.0858
  608SOL     OW 1822   0.152   1.814   2.708 -0.2837 -0.0163  0.1278
  608SOL    HW1 1823   0.167   1.915   2.731 -0.0650 -0.5837 -0.1170
  608SOL    HW2 1824   0.229   1.757   2.751  2.5992  1.5147  1.3705
  609SOL     OW 1825   1.741   1.098   0.221  0.5497  0.2469  0.0682
  609SOL    HW1 1826   1.684   1.056   0.296 -0.7204  1.2961  0.7413
  609SOL    HW2 1827   1.710   1.198   0.214 -0.6832  4.2605 -3.1445
  610SOL     OW 1828   0.610   0.408   1.400  0.4739  0.5623  0.3494
  610SOL    HW1 1829   0.673   0.332   1.423 -2.4198  1.4074  1.8172
  610SOL    HW2 1830   0.601   0.431   1.302 -1.5481  0.9357  1.0950
  611SOL     OW 1831   1.450   0.546   0.750  0.1773  0.1393 -0.0881
  611SOL    HW1 1832   1.357   0.503   0.746  0.6483  0.6012  2.2123
  611SOL    HW2 1833   1.463   0.622   0.680  2.8206  0.3752 -1.1293
  612SOL     OW 1834   1.783   0.964   3.095  0.5722 -0.0531  1.1571
  612SOL    HW1 1835   1.779   1.008   0.066 -1.7925  2.4562 -1.6669
  612SOL    HW2 1836   1.845   0.886   3.106  2.4988 -0.2762  0.5844
  613SOL     OW 1837   2.268   0.523   0.503 -0.0007  0.4890 -0.3968
  613SOL    HW1 1838   2.170   0.521   0.478  0.7591  0.5113  3.1214
  613SOL    HW2 1839   2.305   0.431   0.520 -1.5719 -2.0073 -1.9815
  614SOL     OW 1840   2.750   0.041   2.074  0.1084 -0.6264 -0.2826
  614SOL    HW1 1841   2.782   3.067   2.040  1.4928  1.5090  3.4368
  614SOL    HW2 1842   2.825   0.087   2.125  1.5210 -2.9719 -0.3695
  615SOL     OW 1843   0.709   2.166   0.989 -0.2699 -0.1910  0.1463
  615SOL    HW1 1844   0.699   2.163   1.089  1.3457 -0.2165 -0.1242
  615SOL    HW2 1845   0.619   2.186   0.951  2.1138  0.3839  1.4887
  616SOL     OW 1846   1.787   1.600   2.710  0.1235 -0.2581  0.2630
  616SOL    HW1 1847   1.882   1.627   2.704  2.2535 -1.0747 -1.2111
  616SOL    HW2 1848   1.778   1.527   2.640  1.9954  2.3566 -0.5766
  617SOL     OW 1849   1.564   0.016   2.892 -0.3220  0.1348 -0.0995
  617SOL    HW1 1850   1.471   3.101   2.860  0.2322  1.8327 -1.6887
  617SOL    HW2 1851   1.598   3.083   2.975 -1.2985 -2.1302 -0.1668
  618SOL     OW 1852   1.268   2.193   2.747 -0.0904  0.0350  0.5283
  618SOL    HW1 1853   1.192   2.138   2.788 -0.3919  0.6385 -1.2908
  618SOL    HW2 1854   1.228   2.288   2.732 -3.5042  0.9165  1.5722
  619SOL     OW 1855   2.551   1.532   0.638 -0.6319 -0.7812  0.4255
  619SOL    HW1 1856   2.627   1.599   0.617  1.2899  1.4727  0.3182
  619SOL    HW2 1857   2.588   1.439   0.657  0.2090  0.8750  1.5654
  620SOL     OW 1858   1.998   2.985   2.280  0.0635  0.1665  0.1401
  620SOL    HW1 1859   1.987   3.040   2.365  1.7597 -3.6958  1.2398
  620SOL    HW2 1860   2.098   2.967   2.258 -0.4096 -2.0234  0.8515
  621SOL     OW 1861   2.928   1.445   0.624 -0.6437  0.2972  0.1123
  621SOL    HW1 1862   2.894   1.409   0.716  0.7617  0.4734  1.1880
  621SOL    HW2 1863   2.996   1.521   0.637  0.5704  0.5974 -1.4111
  622SOL     OW 1864   1.451   1.917   2.312  0.4346 -0.2810 -0.0677
  622SOL    HW1 1865   1.389   1.867   2.374 -0.2014 -2.1053  1.5191
  622SOL    HW2 1866   1.533   1.858   2.298 -3.0015 -0.2688  0.3064
  623SOL     OW 1867   0.629   2.691   2.396  0.5941  0.7464 -0.3867
  623SOL    HW1 1868   0.716   2.728   2.359 -1.3861 -0.4398  2.0291
  623SOL    HW2 1869   0.651   2.619   2.467  0.4549  0.0089 -0.2432
  624SOL     OW 1870   0.618   2.535   2.954  0.2573 -0.0630 -0.0970
  624SOL    HW1 1871   0.683   2.481   3.007 -0.4817 -1.3823 -0.7444
  624SOL    HW2 1872   0.570   2.475   2.894  1.3429  2.8549  2.1301
  625SOL     OW 1873   0.208   2.132   2.152  0.7739  0.0608 -0.2600
  625SOL    HW1 1874   0.186   2.173   2.062  1.2984 -0.0051  3.5232
  625SOL    HW2 1875   0.121   2.123   2.205 -2.1890 -0.0374 -0.3662
  626SOL     OW 1876   3.072   0.093   3.065 -0.1966  0.0685  0.2306
  626SOL    HW1 1877   3.029   0.175   3.104  0.5154 -0.8551 -2.7906
  626SOL    HW2 1878   0.017   0.118   2.986 -1.4829 -1.3373 -0.3931
  627SOL     OW 1879   2.205   1.786   0.055 -0.3905 -0.2020 -0.1679
  627SOL    HW1 1880   2.299   1.813   0.013 -1.9654  1.7124 -0.4887
  627SOL    HW2 1881   2.138   1.756   3.104  2.3143 -0.0487 -2.1706
  628SOL     OW 1882   1.635   1.721   0.024  0.3281 -0.7797  0.5257
  628SOL    HW1 1883   1.683   1.657   3.082 -2.9314 -1.1886  1.1952
  628SOL    HW2 1884   1.636   1.693   0.120 -0.3459  1.7845 -0.1741
  629SOL     OW 1885   0.215   0.287   1.781 -0.1221 -0.1644 -0.1030
  629SOL    HW1 1886   0.292   0.357   1.780  2.0348  1.5487 -0.5490
  629SOL    HW2 1887   0.232   0.228   1.700  1.3171 -2.7290  1.4753
  630SOL     OW 1888   2.376   0.884   1.633  0.0352 -0.1585  0.0319
  630SOL    HW1 1889   2.278   0.886   1.606 -0.4014 -1.5305  0.6452
  630SOL    HW2 1890   2.395   0.900   1.731 -0.8895  0.1863  2.0214
  631SOL     OW 1891   1.774   0.146   0.753 -0.0161  0.2384 -0.0813
  631SOL    HW1 1892   1.865   0.185   0.725  2.5755  1.6383  1.4027
  631SOL    HW2 1893   1.785   0.058   0.809  1.2396  0.1064  0.4583
  632SOL     OW 1894   2.847   0.849   1.942 -0.7092  0.1182  0.2683
  632SOL    HW1 1895   2.852   0.942   1.904  1.5420 -0.3680  0.7385
  632SOL    HW2 1896   2.787   0.848   2.022  4.3242 -1.4177 -0.0686
  633SOL     OW 1897   0.663   0.452   2.729  0.1574 -0.2090 -0.1135
  633SOL    HW1 1898   0.693   0.352   2.714  2.5866 -1.6856 -1.3498
  633SOL    HW2 1899   0.741   0.512   2.760  0.3347  2.0476 -0.3675
  634SOL     OW 1900   0.604   2.748   2.822  0.5547  0.1111  0.1880
  634SOL    HW1 1901   0.617   2.653   2.870  2.9145 -2.8050  1.1744
  634SOL    HW2 1902   0.503   2.773   2.818 -2.6803 -0.4945 -0.2701
  635SOL     OW 1903   0.187   1.202   1.375  0.0356 -0.0261  0.2413
  635SOL    HW1 1904   0.268   1.138   1.386  3.8321 -1.3891 -0.0850
  635SOL    HW2 1905   0.141   1.186   1.283 -2.2199  1.6206 -1.8585
  636SOL     OW 1906   0.003   1.288   0.001  0.3192  0.8177 -0.2595
  636SOL    HW1 1907   3.043   1.267   3.054  0.1022  0.6573 -0.4563
  636SOL    HW2 1908   0.084   1.326   3.070 -0.4775 -2.2431  0.3069
  637SOL     OW 1909   0.186   2.854   0.123  0.9886 -0.5574  0.5882
  637SOL    HW1 1910   0.201   2.764   0.168 -1.4640  1.4056 -0.6687
  637SOL    HW2 1911   0.168   2.924   0.193 -1.6765 -1.9386 -2.4185
  638SOL     OW 1912   2.939   2.447   0.553  0.3246  0.2821  0.5386
  638SOL    HW1 1913   3.016   2.393   0.589 -2.2372  0.1215 -1.4586
  638SOL    HW2 1914   2.850   2.443   0.602  1.0407 -0.2622  0.6760
  639SOL     OW 1915   1.144   0.994   0.387 -0.1738  0.1204  0.0284
  639SOL    HW1 1916   1.178   1.064   0.324  3.0320  2.3596  1.4805
  639SOL    HW2 1917   1.124   0.907   0.337 -3.9381  0.9641  2.7309
  640SOL     OW 1918   1.964   2.630   1.575 -0.5894  0.6790  0.4210
  640SOL    HW1 1919   1.900   2.561   1.542  1.6187  2.6858 -3.3240
  640SOL    HW2 1920   2.055   2.615   1.526 -0.3520  2.1769 -1.1341
  641SOL     OW 1921   0.084   0.304   0.689  0.6126  0.0502  0.3042
  641SOL    HW1 1922   0.016   0.368   0.725 -0.2766 -3.1099  1.5697
  641SOL    HW2 1923   0.108   0.329   0.594 -0.9884  0.7345  0.8751
  642SOL     OW 1924   1.322   0.936   1.773 -0.7061  0.0467  0.2289
  642SOL    HW1 1925   1.402   0.918   1.836  0.9475 -3.7018  1.7797
  642SOL    HW2 1926   1.322   1.035   1.741  0.4262  3.6095 -1.3287
  643SOL     OW 1927   0.840   2.158   2.582  0.5820  0.6311  0.8123
  643SOL    HW1 1928   0.910   2.229   2.585  0.0067 -0.9197 -1.0581
  643SOL    HW2 1929   0.789   2.156   2.496  3.7266 -0.6888  1.5756
  644SOL     OW 1930   1.158   2.465   2.758 -0.5958  0.2354  0.0664
  644SOL    HW1 1931   1.146   2.457   2.856 -0.2410  1.2744 -2.6637
  644SOL    HW2 1932   1.149   2.562   2.725 -1.6993 -1.3577 -1.5191
  645SOL     OW 1933   1.534   1.248   1.757 -0.2433 -0.0893  0.6551
  645SOL    HW1 1934   1.593   1.162   1.761  0.4616 -0.3703  0.5229
  645SOL    HW2 1935   1.435   1.224   1.737 -0.3843 -2.5602  0.2821
  646SOL     OW 1936   0.793   2.949   2.908  0.5732  0.3209  0.3568
  646SOL    HW1 1937   0.757   2.856   2.902  0.2352  2.4780 -1.6749
  646SOL    HW2 1938   0.712   3.009   2.902  2.9054 -0.3527 -0.6467
  647SOL     OW 1939   0.925   2.942   0.616  0.0941 -0.5747  0.4711
  647SOL    HW1 1940   0.859   2.866   0.647 -1.0789  1.0216 -1.5458
  647SOL    HW2 1941   0.895   3.029   0.653 -0.1513  1.6109  0.9463
  648SOL     OW 1942   2.924   2.758   1.311 -0.0877 -0.0884 -0.7286
  648SOL    HW1 1943   2.843   2.821   1.308 -0.3864  3.2023 -3.0900
  648SOL    HW2 1944   2.914   2.688   1.386  2.6349 -0.1092 -1.9465
  649SOL     OW 1945   0.831   2.069   3.066 -0.1318  0.2907  0.2282
  649SOL    HW1 1946   0.814   2.027   2.974 -1.2407 -0.7062 -3.9496
  649SOL    HW2 1947   0.849   1.999   0.021 -0.5568  2.1487 -2.0907
  650SOL     OW 1948   2.197   1.973   2.064 -0.1193 -0.0163 -0.4084
  650SOL    HW1 1949   2.160   2.023   2.150  1.4313 -2.5352  0.5591
  650SOL    HW2 1950   2.237   2.036   1.998 -1.7357  0.6214  1.0081
  651SOL     OW 1951   2.873   2.885   2.389  0.2621 -0.0829 -0.5075
  651SOL    HW1 1952   2.966   2.857   2.410 -1.3064  1.5567  1.1641
  651SOL    HW2 1953   2.844   2.828   2.311  0.2925  1.8320  0.4907
  652SOL     OW 1954   2.961   1.896   0.507  0.2207  0.2937 -0.1081
  652SOL    HW1 1955   3.018   1.954   0.567 -0.1321 -2.4114  0.7698
  652SOL    HW2 1956   2.863   1.916   0.521  0.6784 -1.7388 -0.2135
  653SOL     OW 1957   2.602   0.831   1.155  0.6514 -0.0942  0.2262
  653SOL    HW1 1958   2.586   0.844   1.253  0.5432 -0.4678  0.1353
  653SOL    HW2 1959   2.514   0.805   1.108 -1.0384  2.4884  0.9590
  654SOL     OW 1960   0.782   0.161   2.713 -0.8036  0.1734 -0.0531
  654SOL    HW1 1961   0.874   0.156   2.767  0.1334 -1.3877 -1.0724
  654SOL    HW2 1962   0.704   0.121   2.765 -1.5010 -0.2390 -0.5385
  655SOL     OW 1963   0.896   0.501   1.613  0.2226 -0.2658 -0.5094
  655SOL    HW1 1964   0.909   0.529   1.518 -2.2758 -0.7761  1.3206
  655SOL    HW2 1965   0.930   0.407   1.637  0.7470 -0.9246 -0.0393
  656SOL     OW 1966   0.242   2.583   2.093  0.0354 -0.5986  0.4633
  656SOL    HW1 1967   0.345   2.585   2.091  2.1187 -1.5840 -2.0986
  656SOL    HW2 1968   0.197   2.660   2.044 -2.3966  0.7390 -3.1733
  657SOL     OW 1969   2.210   0.429   0.151 -0.2259 -0.0953  0.5236
  657SOL    HW1 1970   2.160   0.465   0.234 -1.5177 -1.0117 -0.7898
  657SOL    HW2 1971   2.292   0.484   0.135 -1.5788  2.6616  0.0443
  658SOL     OW 1972   2.106   1.778   1.120 -0.1957 -0.6220 -0.1150
  658SOL    HW1 1973   2.175   1.778   1.193 -3.0207 -1.9135  0.0004
  658SOL    HW2 1974   2.138   1.728   1.036 -0.3013 -2.6586  0.4869
  659SOL     OW 1975   2.710   2.128   2.832 -0.0707 -0.0035  0.4378
  659SOL    HW1 1976   2.714   2.218   2.880  0.6827  1.0421  4.1786
  659SOL    HW2 1977   2.777   2.063   2.867 -2.7282  1.8065  0.9636
  660SOL     OW 1978   1.020   0.128   3.066  0.3538 -0.2449 -0.3325
  660SOL    HW1 1979   1.108   0.159   3.107 -1.8340 -1.5992 -2.6964
  660SOL    HW2 1980   0.950   0.197   3.095 -0.2425  2.2080  0.2950
  661SOL     OW 1981   2.270   0.064   0.408  0.2991 -0.4044 -0.1387
  661SOL    HW1 1982   2.171   0.054   0.414  1.3179  0.2179 -1.8030
  661SOL    HW2 1983   2.296   0.115   0.321  0.6929  2.8804  0.2944
  662SOL     OW 1984   0.538   0.073   1.002 -0.7585  0.1034  0.3377
  662SOL    HW1 1985   0.573   0.069   0.906 -0.0126 -0.7904  1.0159
  662SOL    HW2 1986   0.475   3.118   1.026 -0.8887  1.1543 -0.8923
  663SOL     OW 1987   1.337   0.343   2.339  0.4770  0.1523  0.3366
  663SOL    HW1 1988   1.319   0.308   2.245 -0.9464  0.3798 -0.2732
  663SOL    HW2 1989   1.246   0.361   2.389  0.1337  0.2457  1.0123
  664SOL     OW 1990   0.820   2.814   1.489  0.4439  0.3011 -0.1208
  664SOL    HW1 1991   0.754   2.740   1.507 -0.0416  2.2753 -1.0289
  664SOL    HW2 1992   0.809   2.900   1.545  0.2849  2.1590  1.8834
  665SOL     OW 1993   0.974   2.413   2.015  0.4772  0.2313 -0.0686
  665SOL    HW1 1994   0.933   2.492   1.963 -0.1420  0.2163 -0.7704
  665SOL    HW2 1995   1.074   2.400   1.995  1.0388 -1.6718  1.8132
  666SOL     OW 1996   0.320   3.013   2.586  0.4270 -0.2674 -0.4163
  666SOL    HW1 1997   0.399   2.959   2.615 -1.1082 -1.0186 -0.0351
  666SOL    HW2 1998   0.278   2.965   2.506 -1.2722 -4.4993  0.1598
  667SOL     OW 1999   1.845   1.522   1.342  0.5846  0.0462  0.6334
  667SOL    HW1 2000   1.771   1.467   1.370  2.5009 -0.9862  1.2026
  667SOL    HW2 2001   1.934   1.471   1.363 -1.4311  2.1798  1.9079
  668SOL     OW 2002   1.566   0.493   1.579 -0.1068  0.0335  0.6367
  668SOL    HW1 2003   1.599   0.409   1.532 -0.3914 -1.2241  0.4739
  668SOL    HW2 2004   1.614   0.498   1.667  0.7562 -0.0793  0.8887
  669SOL     OW 2005   2.561   2.609   1.581 -0.2789 -0.8505 -0.1373
  669SOL    HW1 2006   2.548   2.509   1.595 -2.0774  0.2047  2.3267
  669SOL    HW2 2007   2.517   2.648   1.496 -2.7053 -2.1330 -3.6577
  670SOL     OW 2008   1.505   2.352   2.784 -0.1803 -0.2457 -0.7699
  670SOL    HW1 2009   1.436   2.283   2.763  1.5530 -0.7397 -0.3193
  670SOL    HW2 2010   1.465   2.418   2.851 -0.4631  2.5904  1.3273
  671SOL     OW 2011   1.003   0.897   0.622  0.3734 -0.0074  0.3573
  671SOL    HW1 2012   1.060   0.864   0.698 -1.7035  0.6180  1.7305
  671SOL    HW2 2013   1.065   0.950   0.564 -0.5906 -1.5066 -1.5354
  672SOL     OW 2014   0.122   1.084   2.454  0.4580 -0.2730 -0.2300
  672SOL    HW1 2015   0.044   1.123   2.510 -2.4992  1.1144  0.8966
  672SOL    HW2 2016   0.102   0.987   2.432 -3.5103  1.1732 -1.1354
  673SOL     OW 2017   2.893   2.000   1.397 -1.1474 -0.2323  0.0417
  673SOL    HW1 2018   2.906   2.083   1.454  0.5978 -3.1734  1.7265
  673SOL    HW2 2019   2.843   1.926   1.451  2.8697 -1.2213  2.7599
  674SOL     OW 2020   0.512   2.382   2.009 -0.1634  0.2597  0.2099
  674SOL    HW1 2021   0.524   2.399   1.908 -0.9309 -0.2819  0.1292
  674SOL    HW2 2022   0.521   2.461   2.070  1.6152 -2.3998 -0.1020
  675SOL     OW 2023   0.916   1.088   1.854 -0.2920 -0.2332  0.4328
  675SOL    HW1 2024   0.959   0.993   1.851  0.2615  0.7672  0.7838
  675SOL    HW2 2025   0.901   1.122   1.952  2.3249  0.7405  0.4174
  676SOL     OW 2026   2.374   0.472   1.062  0.1479  0.9256 -0.1477
  676SOL    HW1 2027   2.395   0.512   0.970 -1.1897  1.8193 -0.7649
  676SOL    HW2 2028   2.453   0.471   1.130 -0.4137  1.6211  1.1119
  677SOL     OW 2029   2.348   1.406   2.811  0.2600 -0.1266  0.0774
  677SOL    HW1 2030   2.300   1.312   2.817 -1.4173 -1.4535  1.1274
  677SOL    HW2 2031   2.288   1.477   2.767 -0.2544 -0.0456 -1.0550
  678SOL     OW 2032   2.885   0.854   1.320  0.3960  0.5091 -0.4958
  678SOL    HW1 2033   2.979   0.896   1.312  2.8706 -0.9038 -2.7006
  678SOL    HW2 2034   2.809   0.926   1.319  0.2229 -0.8543 -0.2799
  679SOL     OW 2035   2.372   0.192   0.197  0.1524  0.3910 -0.3845
  679SOL    HW1 2036   2.440   0.241   0.255  2.4090 -1.2931  0.0427
  679SOL    HW2 2037   2.306   0.254   0.159  2.4958  0.1811  0.4892
  680SOL     OW 2038   0.152   1.667   2.040 -0.4787  0.6675  0.4343
  680SOL    HW1 2039   0.206   1.748   2.078 -1.0369  2.5702  1.3220
  680SOL    HW2 2040   0.055   1.677   2.068  0.9329  0.0447 -2.0822
  681SOL     OW 2041   2.147   2.346   1.299 -0.4230  0.1326 -0.7048
  681SOL    HW1 2042   2.078   2.274   1.326  1.4802  0.9363 -1.0221
  681SOL    HW2 2043   2.131   2.372   1.203  1.1537 -0.0277  0.4424
  682SOL     OW 2044   0.185   1.817   3.066  0.4177  0.0608  0.0806
  682SOL    HW1 2045   0.102   1.767   3.108 -2.5351 -0.0617 -0.9424
  682SOL    HW2 2046   0.230   1.759   2.991 -1.7937 -0.3378 -1.0391
  683SOL     OW 2047   0.139   2.173   1.580 -0.2901 -0.0543  0.6874
  683SOL    HW1 2048   0.161   2.207   1.488 -1.4054 -1.4915  2.4644
  683SOL    HW2 2049   0.038   2.164   1.587  0.7277  0.8829 -1.4456
  684SOL     OW 2050   2.927   1.270   2.291 -0.7829  0.1856 -0.0051
  684SOL    HW1 2051   2.902   1.369   2.310  0.8494  1.4263 -0.2981
  684SOL    HW2 2052   2.949   1.230   2.380 -2.5988  2.2552 -0.5909
  685SOL     OW 2053   1.580   1.063   0.658 -0.1661  0.2239  0.2226
  685SOL    HW1 2054   1.535   1.004   0.730 -1.3179  2.4783 -0.4927
  685SOL    HW2 2055   1.681   1.042   0.656  1.1078 -2.1587  2.9854
  686SOL     OW 2056   0.490   0.253   0.534  0.2906 -0.3673 -0.1370
  686SOL    HW1 2057   0.517   0.166   0.570 -0.1730  2.4254  0.1519
  686SOL    HW2 2058   0.465   0.248   0.436 -2.3528 -1.7602  2.6758
  687SOL     OW 2059   1.057   2.037   2.864 -0.1281  0.3668 -0.1291
  687SOL    HW1 2060   1.054   2.108   2.938 -1.1775  1.4710 -1.1521
  687SOL    HW2 2061   0.965   2.005   2.846  0.4188 -0.8919 -1.0281
  688SOL     OW 2062   1.810   1.142   1.328 -0.2632  0.1286 -0.5905
  688SOL    HW1 2063   1.730   1.204   1.340 -0.6650 -2.4258  2.1406
  688SOL    HW2 2064   1.794   1.057   1.382  2.8940  1.2634  1.2005
  689SOL     OW 2065   1.998   0.261   0.648  0.3187 -0.5067  0.7721
  689SOL    HW1 2066   2.078   0.250   0.707  1.6279  0.1759 -0.9305
  689SOL    HW2 2067   2.016   0.318   0.564 -1.6344 -1.4171  1.6301
  690SOL     OW 2068   0.075   1.408   0.983  0.2318 -0.0932 -0.2329
  690SOL    HW1 2069   0.065   1.309   0.952 -1.3503 -0.1276 -2.5951
  690SOL    HW2 2070   0.098   1.469   0.910  1.0807  0.0508  2.1958
  691SOL     OW 2071   0.333   2.111   1.237 -0.1861 -0.2206  0.0193
  691SOL    HW1 2072   0.256   2.049   1.212  0.7036  1.9436  3.4731
  691SOL    HW2 2073   0.298   2.198   1.280  1.7449 -0.9101 -2.1156
  692SOL     OW 2074   2.097   0.395   1.367  0.0895 -0.0403 -0.5775
  692SOL    HW1 2075   2.165   0.455   1.422  0.9021  3.7374  1.9752
  692SOL    HW2 2076   2.146   0.304   1.351 -3.8033 -1.3332 -0.4155
  693SOL     OW 2077   0.662   1.744   2.248  0.1531 -0.0677  0.1005
  693SOL    HW1 2078   0.634   1.819   2.189  0.1447 -1.4747 -0.2753
  693SOL    HW2 2079   0.698   1.791   2.336 -1.7178  0.7639  0.9468
  694SOL     OW 2080   1.862   1.545   0.941  0.1545  0.3793 -0.1229
  694SOL    HW1 2081   1.866   1.573   1.042 -1.3526 -1.1827  0.7296
  694SOL    HW2 2082   1.903   1.618   0.880  0.5263 -0.3621  1.1266
  695SOL     OW 2083   1.404   0.790   0.539  0.0018 -0.4494 -0.0195
  695SOL    HW1 2084   1.324   0.733   0.508 -4.6151  1.6560  1.5344
  695SOL    HW2 2085   1.382   0.838   0.626 -1.3100  2.4329  0.7189
  696SOL     OW 2086   0.598   0.025   0.192 -0.4639  0.3214 -0.1052
  696SOL    HW1 2087   0.574   3.045   0.212 -3.5744  0.5680  0.8300
  696SOL    HW2 2088   0.691   0.049   0.220 -0.8014 -0.6484 -0.5796
  697SOL     OW 2089   1.926   0.837   1.176 -0.1042 -0.3916 -0.2286
  697SOL    HW1 2090   1.924   0.748   1.221  1.5188  1.2789 -2.8272
  697SOL    HW2 2091   2.019   0.879   1.191  0.8838  1.0805 -0.2110
  698SOL     OW 2092   1.553   1.389   2.217 -0.5948 -0.6188 -0.2839
  698SOL    HW1 2093   1.546   1.456   2.137  1.1019 -1.6637 -1.5774
  698SOL    HW2 2094   1.644   1.404   2.261  3.3204  0.3242  0.6525
  699SOL     OW 2095   2.756   0.453   1.837 -0.0909 -0.2877 -0.0689
  699SOL    HW1 2096   2.721   0.481   1.925 -0.7155 -0.1570  0.4233
  699SOL    HW2 2097   2.697   0.486   1.758 -0.6206 -0.9009 -1.7268
  700SOL     OW 2098   1.363   2.244   0.560  0.2558 -0.5493  0.9091
  700SOL    HW1 2099   1.381   2.295   0.647 -1.7386  0.8537 -1.8116
  700SOL    HW2 2100   1.297   2.167   0.575  0.3691 -0.1525  1.7485
  701SOL     OW 2101   2.386   2.261   2.380  0.0257  0.0160  0.2556
  701SOL    HW1 2102   2.414   2.311   2.296  0.2074  0.8642  0.5924
  701SOL    HW2 2103   2.462   2.202   2.411 -1.8554 -0.0846  0.5557
  702SOL     OW 2104   0.566   2.985   0.559 -0.0893 -0.5431 -0.0927
  702SOL    HW1 2105   0.477   2.947   0.592 -0.6279 -0.1636  0.7792
  702SOL    HW2 2106   0.591   2.954   0.468  0.1556  1.3979  0.7655
  703SOL     OW 2107   1.977   3.027   2.013  0.1950 -0.5778  0.2644
  703SOL    HW1 2108   2.032   2.956   1.967 -2.0632 -1.6472 -0.0162
  703SOL    HW2 2109   1.990   3.020   2.115  0.5167 -0.9876 -0.3949
  704SOL     OW 2110   2.650   2.087   0.220  0.2447 -0.4736  0.3568
  704SOL    HW1 2111   2.604   2.147   0.288 -0.3734  0.4817 -0.9920
  704SOL    HW2 2112   2.747   2.115   0.192  2.0622  0.4870 -0.2499
  705SOL     OW 2113   2.578   2.571   2.396 -0.7461  0.3938  0.0405
  705SOL    HW1 2114   2.674   2.532   2.417 -1.6130  0.3469 -0.4224
  705SOL    HW2 2115   2.515   2.543   2.472  0.0900  1.8490  2.1537
  706SOL     OW 2116   2.614   0.252   0.643 -0.3593 -0.1373 -0.3575
  706SOL    HW1 2117   2.679   0.324   0.651 -3.4158 -1.4068 -2.1185
  706SOL    HW2 2118   2.666   0.167   0.614 -0.9277 -0.9398 -1.8680
  707SOL     OW 2119   1.050   0.403   2.461 -0.0094 -0.0467 -0.1461
  707SOL    HW1 2120   0.977   0.332   2.452  0.5601 -0.2332 -0.4506
  707SOL    HW2 2121   1.073   0.411   2.557  0.9761 -0.3378 -2.3872
  708SOL     OW 2122   0.337   1.986   1.656  0.3883  0.2526  0.0312
  708SOL    HW1 2123   0.277   2.067   1.663 -1.7034 -0.8464 -0.5070
  708SOL    HW2 2124   0.306   1.912   1.718  0.7396  2.2578  0.7435
  709SOL     OW 2125   1.261   0.150   1.704 -0.1940 -0.3473  0.2124
  709SOL    HW1 2126   1.357   0.165   1.687  0.5819 -2.0732  2.0365
  709SOL    HW2 2127   1.242   0.060   1.748 -1.1822  0.9043  0.0631
  710SOL     OW 2128   1.549   2.763   2.478 -0.0995  0.0873  0.2456
  710SOL    HW1 2129   1.562   2.668   2.519 -0.2023 -3.2718 -1.1903
  710SOL    HW2 2130   1.573   2.835   2.542  1.4718 -2.9806  1.2814
  711SOL     OW 2131   0.805   1.972   2.775 -0.1095 -0.4472  0.4224
  711SOL    HW1 2132   0.709   1.939   2.774  0.5116 -1.6947  1.4511
  711SOL    HW2 2133   0.822   2.039   2.699 -0.6637  0.5989 -0.4668
  712SOL     OW 2134   1.083   2.181   3.098  0.4528  0.5095  0.4121
  712SOL    HW1 2135   0.986   2.151   0.006  0.2148  1.8489  0.4673
  712SOL    HW2 2136   1.141   2.162   0.059 -1.7990 -1.7519  2.3407
  713SOL     OW 2137   2.217   1.203   1.936  0.0929 -0.0044 -0.1245
  713SOL    HW1 2138   2.231   1.279   1.872  1.2598 -1.4209 -2.0565
  713SOL    HW2 2139   2.172   1.124   1.894 -0.1390 -0.7745 -0.4215
  714SOL     OW 2140   0.922   1.154   2.136  0.0902 -0.0202 -0.2888
  714SOL    HW1 2141   0.854   1.109   2.199 -2.5452 -1.2473  0.0868
  714SOL    HW2 2142   1.020   1.133   2.167  3.0809  0.0272  0.0584
  715SOL     OW 2143   2.590   0.391   0.321 -0.3128 -0.1140 -0.1137
  715SOL    HW1 2144   2.670   0.326   0.339  1.3233 -0.2291  2.1459
  715SOL    HW2 2145   2.591   0.468   0.386  1.2556 -0.0350  0.8175
  716SOL     OW 2146   0.035   2.849   1.438  0.8747  0.5130 -0.1175
  716SOL    HW1 2147   0.064   2.763   1.489  2.9072 -0.6480 -1.0096
  716SOL    HW2 2148   3.073   2.821   1.376 -3.6258 -2.2974 -3.1063
  717SOL     OW 2149   2.361   0.840   0.972  0.1961  0.4996 -0.3563
  717SOL    HW1 2150   2.436   0.883   0.917  3.4660 -0.5669  1.2446
  717SOL    HW2 2151   2.315   0.766   0.919 -0.2223  0.0775 -0.1511
  718SOL     OW 2152   1.533   1.332   1.292  0.4455  0.5445  0.3547
  718SOL    HW1 2153   1.434   1.364   1.303  0.1910 -0.8448 -1.6929
  718SOL    HW2 2154   1.562   1.383   1.210 -0.1844 -2.1069  0.2418
  719SOL     OW 2155   2.550   2.812   2.823 -0.0814 -0.4513 -0.1158
  719SOL    HW1 2156   2.605   2.826   2.906  0.0994  2.3098 -1.1523
  719SOL    HW2 2157   2.471   2.879   2.824 -1.4992 -0.3001 -0.8268
  720SOL     OW 2158   0.916   0.346   0.854  0.3741  0.1322 -0.1568
  720SOL    HW1 2159   0.842   0.350   0.785 -1.1696  0.6450 -2.2902
  720SOL    HW2 2160   0.874   0.343   0.947  2.5472  2.4444 -1.8477
  721SOL     OW 2161   2.408   0.591   0.812 -0.2302  0.0231  0.3831
  721SOL    HW1 2162   2.506   0.613   0.802 -1.1868 -0.2381  1.2685
  721SOL    HW2 2163   2.368   0.572   0.721 -1.8202  1.1054  0.4119
  722SOL     OW 2164   0.879   2.123   1.969 -0.0303  0.0574 -0.2609
  722SOL    HW1 2165   0.783   2.096   1.931  0.1398  1.4661 -2.0266
  722SOL    HW2 2166   0.892   2.222   1.988  0.0475  0.2431  0.6132
  723SOL     OW 2167   1.276   0.022   1.227  0.2791  0.1828 -0.1334
  723SOL    HW1 2168   1.203   0.098   1.232  0.9404 -0.9592  0.3997
  723SOL    HW2 2169   1.360   0.056   1.189 -1.6247 -1.9070  1.1725
  724SOL     OW 2170   1.787   1.947   1.388 -0.3293  0.4858 -0.4298
  724SOL    HW1 2171   1.785   1.893   1.478 -0.1965  0.7871  2.6091
  724SOL    HW2 2172   1.802   1.889   1.305  1.4634 -2.8104  0.2930
  725SOL     OW 2173   1.319   2.503   1.290 -0.7354  0.2234 -0.1438
  725SOL    HW1 2174   1.367   2.549   1.212  0.5589  3.0779  2.5712
  725SOL    HW2 2175   1.241   2.450   1.247 -0.8982 -1.4045  0.7215
  726SOL     OW 2176   1.647   2.999   0.014 -0.1291  0.0136 -0.5238
  726SOL    HW1 2177   1.691   2.909   3.101 -1.4391 -2.3222 -2.0136
  726SOL    HW2 2178   1.662   3.022   0.114 -0.8806  1.8272  1.6707
  727SOL     OW 2179   1.783   1.687   0.423 -0.0524  0.6753 -0.6088
  727SOL    HW1 2180   1.684   1.712   0.397 -1.6178  2.7413 -0.1119
  727SOL    HW2 2181   1.845   1.707   0.339  1.8354  0.6327  1.2905
  728SOL     OW 2182   1.906   2.663   1.835  0.6135 -0.3597 -0.0171
  728SOL    HW1 2183   1.932   2.655   1.735  0.5460 -1.7245 -1.6838
  728SOL    HW2 2184   1.832   2.731   1.858  0.7616  0.4768 -1.4107
  729SOL     OW 2185   2.188   2.553   1.458 -0.5060  0.6156  0.1016
  729SOL    HW1 2186   2.172   2.477   1.391  0.5866  0.5084  1.5589
  729SOL    HW2 2187   2.251   2.623   1.421  1.0137 -0.4011  0.0672
  730SOL     OW 2188   1.303   1.185   2.727 -0.3782 -0.0941  0.1546
  730SOL    HW1 2189   1.323   1.086   2.749 -0.0085  1.5585 -0.7588
  730SOL    HW2 2190   1.288   1.248   2.805 -0.2909 -2.4008 -0.3925
  731SOL     OW 2191   0.746   0.163   1.455 -0.1381  0.2529 -0.1089
  731SOL    HW1 2192   0.784   0.139   1.366  0.1108 -2.0250  1.8795
  731SOL    HW2 2193   0.821   0.182   1.524 -1.2996 -0.4435 -0.5238
  732SOL     OW 2194   1.101   2.973   1.146 -0.5250  0.2253  0.5308
  732SOL    HW1 2195   1.061   2.911   1.211  0.7240 -0.1696 -1.0117
  732SOL    HW2 2196   1.176   3.031   1.185  1.7014 -0.1984  4.9022
  733SOL     OW 2197   1.106   0.967   1.015  0.0730  0.3857  0.0608
  733SOL    HW1 2198   1.147   1.051   0.980  0.2759  0.2859  3.6515
  733SOL    HW2 2199   1.168   0.920   1.076 -2.3428 -0.4155 -1.4235
  734SOL     OW 2200   2.446   2.112   0.053 -0.3179 -0.4046 -0.2223
  734SOL    HW1 2201   2.446   2.080   3.073  2.0743 -0.3257 -0.5427
  734SOL    HW2 2202   2.533   2.095   0.104 -0.4567 -0.5642  1.7961
  735SOL     OW 2203   0.460   0.355   0.998  0.0454 -0.8674 -0.6700
  735SOL    HW1 2204   0.471   0.255   0.990  0.7278  0.9584 -1.6889
  735SOL    HW2 2205   0.425   0.385   0.907 -2.9568  0.1045  0.3845
  736SOL     OW 2206   1.717   2.514   2.861  0.4839 -0.1765  0.1646
  736SOL    HW1 2207   1.797   2.510   2.925 -2.0944 -0.2596  1.2241
  736SOL    HW2 2208   1.666   2.423   2.849 -1.1587 -1.8097 -0.0392
  737SOL     OW 2209   0.849   2.715   1.078  0.2966  0.5254 -0.1574
  737SOL    HW1 2210   0.909   2.679   1.003  0.8630  0.6833 -1.4601
  737SOL    HW2 2211   0.908   2.746   1.157 -1.0657 -0.4241  2.0661
  738SOL     OW 2212   1.693   0.080   2.178  0.0677 -0.3867  0.5207
  738SOL    HW1 2213   1.769   0.103   2.117  1.2198 -0.5185  0.1818
  738SOL    HW2 2214   1.726   0.094   2.272 -0.1466 -0.7393  1.1542
  739SOL     OW 2215   1.255   2.345   2.030 -0.0366 -0.5086  0.1398
  739SOL    HW1 2216   1.309   2.388   2.104 -2.4634 -3.5453  2.0444
  739SOL    HW2 2217   1.256   2.248   2.047  0.7955  2.3379 -0.6608
  740SOL     OW 2218   1.445   2.300   1.440 -0.0223 -0.2367 -0.4147
  740SOL    HW1 2219   1.390   2.368   1.384 -1.1994  1.4997  0.4852
  740SOL    HW2 2220   1.510   2.364   1.487 -0.7137 -1.4200  0.2638
  741SOL     OW 2221   2.683   1.155   0.241 -0.0824  0.0816  0.1950
  741SOL    HW1 2222   2.666   1.253   0.235 -0.5772  0.2706  1.6886
  741SOL    HW2 2223   2.660   1.104   0.153  3.6049  0.4968  0.6519
  742SOL     OW 2224   0.624   1.476   2.226  0.3547 -0.3780  1.1386
  742SOL    HW1 2225   0.644   1.575   2.248 -2.1138  2.4439  2.4247
  742SOL    HW2 2226   0.706   1.428   2.191  0.0958 -1.2407 -2.2109
  743SOL     OW 2227   0.119   0.815   2.393  0.0726 -0.8491 -0.7424
  743SOL    HW1 2228   0.211   0.777   2.410 -1.9774  0.5976 -0.1870
  743SOL    HW2 2229   0.050   0.742   2.393  0.3524  1.9255 -1.0400
  744SOL     OW 2230   2.418   2.273   1.390  0.1849 -0.3450  0.6823
  744SOL    HW1 2231   2.328   2.317   1.360 -1.4011  2.0600 -0.0314
  744SOL    HW2 2232   2.441   2.307   1.482  0.1805  1.4936  1.4384
  745SOL     OW 2233   2.336   1.820   1.271  0.3373 -0.2985 -0.2184
  745SOL    HW1 2234   2.416   1.762   1.276  0.1237  2.0805  2.8319
  745SOL    HW2 2235   2.369   1.917   1.255  2.0399  3.7509  0.2064
  746SOL     OW 2236   2.505   1.030   0.810  0.1240 -0.6579  0.5345
  746SOL    HW1 2237   2.550   1.000   0.719 -2.3012  0.2916 -1.7525
  746SOL    HW2 2238   2.442   1.112   0.800 -1.9390  0.0269 -2.1171
  747SOL     OW 2239   1.654   2.098   0.515 -0.4034  0.0576  0.1396
  747SOL    HW1 2240   1.730   2.135   0.456  1.6979  1.7756  0.8989
  747SOL    HW2 2241   1.642   2.170   0.583  1.4019 -2.4614 -2.6269
  748SOL     OW 2242   0.970   1.960   0.649 -0.2066  0.2022 -0.1424
  748SOL    HW1 2243   0.954   1.936   0.550  0.6297 -0.3806 -1.9593
  748SOL    HW2 2244   0.894   1.934   0.713 -1.5879 -2.6592  2.5107
  749SOL     OW 2245   2.970   0.173   2.200  0.3633 -0.1963  0.4896
  749SOL    HW1 2246   3.021   0.224   2.130 -0.1120  1.1219  0.9808
  749SOL    HW2 2247   3.020   0.084   2.223 -0.2110  0.4440 -1.2925
  750SOL     OW 2248   1.665   0.263   1.475  0.2686 -0.9731  0.0510
  750SOL    HW1 2249   1.759   0.300   1.500  3.2458  0.3513 -0.6120
  750SOL    HW2 2250   1.635   0.284   1.380  0.9374  0.0067  0.3297
  751SOL     OW 2251   1.527   2.734   2.796  0.1545 -0.1305  0.3463
  751SOL    HW1 2252   1.464   2.751   2.874  1.3105  0.4634 -1.1233
  751SOL    HW2 2253   1.566   2.643   2.799 -2.5531  1.2812  0.2978
  752SOL     OW 2254   1.776   2.025   0.189  0.1450 -0.2217  0.3203
  752SOL    HW1 2255   1.695   2.011   0.130  2.7210  1.0818  2.2971
  752SOL    HW2 2256   1.819   2.112   0.166  0.3477 -2.2266 -1.0886
  753SOL     OW 2257   2.005   0.962   2.352 -0.0563 -0.5083  0.3096
  753SOL    HW1 2258   1.933   0.943   2.422  3.5980 -2.9093 -1.7595
  753SOL    HW2 2259   2.000   1.058   2.318  1.1285 -0.5316 -1.7065
  754SOL     OW 2260   0.309   2.807   0.399  0.2354  0.5854  0.2177
  754SOL    HW1 2261   0.316   2.713   0.360  1.0344 -0.8863 -1.5773
  754SOL    HW2 2262   0.315   2.814   0.503  1.7661  2.7972  3.2261
  755SOL     OW 2263   2.123   0.406   1.015  0.3683  0.2876  0.0481
  755SOL    HW1 2264   2.214   0.447   1.046 -1.2624  2.2174  1.6291
  755SOL    HW2 2265   2.139   0.340   0.935 -0.4794 -2.3208 -3.6844
  756SOL     OW 2266   1.024   1.428   2.707 -0.2215 -0.1509  0.0448
  756SOL    HW1 2267   0.974   1.426   2.793  0.1195  0.5455 -0.0310
  756SOL    HW2 2268   1.087   1.508   2.687  3.6963  2.0774  0.8639
  757SOL     OW 2269   2.707   2.900   1.221 -0.1786  0.4515 -0.1234
  757SOL    HW1 2270   2.662   2.816   1.187 -1.1427  1.5914 -0.6873
  757SOL    HW2 2271   2.631   2.969   1.247  1.2396  2.5588  1.1777
  758SOL     OW 2272   0.779   2.990   1.692 -0.7754 -0.9925  0.2720
  758SOL    HW1 2273   0.685   3.029   1.675 -2.2830 -1.6630 -1.8466
  758SOL    HW2 2274   0.842   3.065   1.729  1.1368  2.5639  0.1155
  759SOL     OW 2275   2.649   1.296   0.728  0.3185  0.1923  0.7798
  759SOL    HW1 2276   2.647   1.207   0.685 -1.9859 -1.5419  0.0084
  759SOL    HW2 2277   2.732   1.307   0.788  0.7467  2.2838  1.0984
  760SOL     OW 2278   2.148   0.743   1.396  0.4611  0.1216  0.0009
  760SOL    HW1 2279   2.090   0.690   1.331  0.2819 -2.0919  1.9061
  760SOL    HW2 2280   2.248   0.723   1.388  1.2285  1.9850  0.8258
  761SOL     OW 2281   2.009   0.020   0.341 -0.0104  0.8417 -0.2125
  761SOL    HW1 2282   1.923   0.058   0.385 -1.0328  0.2960  2.6978
  761SOL    HW2 2283   2.009   3.040   0.310 -0.9552 -0.5037 -1.4062
  762SOL     OW 2284   1.995   2.224   0.086 -0.0960  0.1957  0.0828
  762SOL    HW1 2285   2.054   2.153   0.129  2.8877 -0.0697  0.0284
  762SOL    HW2 2286   1.986   2.221   3.103  0.3718  0.2334  2.3340
  763SOL     OW 2287   0.666   0.951   1.183  0.2567  0.2841  0.5078
  763SOL    HW1 2288   0.729   1.001   1.122 -0.7060 -0.5895  1.2675
  763SOL    HW2 2289   0.708   0.938   1.274 -1.2691  1.8187 -1.1255
  764SOL     OW 2290   2.465   2.442   3.114  0.2164 -0.3559  0.2396
  764SOL    HW1 2291   2.428   2.445   3.017 -1.5992  0.2286 -2.7356
  764SOL    HW2 2292   2.440   2.352   0.038  0.1794 -1.0539 -0.4068
  765SOL     OW 2293   0.983   0.528   2.222  0.8402  0.8380  0.2015
  765SOL    HW1 2294   0.975   0.467   2.302 -1.1434 -0.2605 -0.5652
  765SOL    HW2 2295   1.078   0.572   2.218 -0.1767  0.4566  1.4001
  766SOL     OW 2296   0.213   1.286   2.307  0.0972  0.2982  0.1555
  766SOL    HW1 2297   0.178   1.208   2.364 -1.0257  0.8671  0.0982
  766SOL    HW2 2298   0.170   1.376   2.335 -1.0865 -1.1353  0.7225
  767SOL     OW 2299   3.005   1.705   2.093 -0.4299  0.2064  0.0709
  767SOL    HW1 2300   3.024   1.728   2.192  1.1457  3.0556  0.6014
  767SOL    HW2 2301   2.904   1.691   2.084  0.0403 -0.8774  0.0635
  768SOL     OW 2302   0.904   1.065   2.962 -0.0548  0.2652  0.0443
  768SOL    HW1 2303   0.834   0.987   2.956 -1.0573 -2.3463  2.1242
  768SOL    HW2 2304   0.933   1.098   2.867 -0.3005 -1.1361 -1.7153
  769SOL     OW 2305   1.984   2.897   3.023  0.1835  0.0425  0.1573
  769SOL    HW1 2306   2.030   2.855   2.940  2.5367  0.3796 -0.9869
  769SOL    HW2 2307   1.889   2.866   3.033 -0.4826 -1.4723 -0.8991
  770SOL     OW 2308   2.922   0.531   2.667  0.1951 -0.0535 -0.0366
  770SOL    HW1 2309   2.913   0.564   2.573 -2.4407 -1.7561  2.0970
  770SOL    HW2 2310   2.938   0.428   2.680 -1.9605 -1.0206 -0.2723
  771SOL     OW 2311   0.895   2.140   1.429 -0.2785  0.0733  0.2381
  771SOL    HW1 2312   0.976   2.079   1.400 -0.9228  0.1326  0.1241
  771SOL    HW2 2313   0.925   2.239   1.432  2.1703  0.3882  1.3842
  772SOL     OW 2314   0.393   0.380   2.704  0.6237  0.3335  0.0355
  772SOL    HW1 2315   0.486   0.417   2.708  1.5711 -1.6759  1.2375
  772SOL    HW2 2316   0.326   0.445   2.745  1.8127 -1.0422  0.3970
  773SOL     OW 2317   2.547   1.149   1.717 -0.8226 -0.3029  0.4878
  773SOL    HW1 2318   2.531   1.136   1.817 -0.5747  0.1982  3.0724
  773SOL    HW2 2319   2.647   1.126   1.705 -2.3012 -0.9212  0.4399
  774SOL     OW 2320   1.185   0.594   0.556  0.2804 -0.0652 -0.4608
  774SOL    HW1 2321   1.215   0.507   0.509  1.8647 -3.7490 -0.9477
  774SOL    HW2 2322   1.177   0.568   0.652  0.5320 -1.7729 -0.1262
  775SOL     OW 2323   1.968   2.527   2.964 -0.5160  0.1691  0.0705
  775SOL    HW1 2324   1.995   2.612   2.916 -0.2311 -2.2266  1.7151
  775SOL    HW2 2325   1.958   2.535   3.066  0.5158  1.2621 -0.9289
  776SOL     OW 2326   2.359   0.282   1.908 -0.0413  0.3011 -0.1326
  776SOL    HW1 2327   2.286   0.217   1.876 -0.0492 -1.3411  0.5282
  776SOL    HW2 2328   2.406   0.234   1.987  0.4034 -1.1426 -0.0372
  777SOL     OW 2329   0.419   1.190   2.763  0.4963  0.3164 -0.2357
  777SOL    HW1 2330   0.391   1.290   2.756 -0.4096  2.9666 -0.5259
  777SOL    HW2 2331   0.434   1.147   2.668  1.0733 -3.6590 -2.7422
  778SOL     OW 2332   0.876   2.953   0.350 -0.1742 -0.2373  0.3213
  778SOL    HW1 2333   0.860   3.052   0.318 -2.4598  3.8557  0.2981
  778SOL    HW2 2334   0.900   2.957   0.452  1.6206  1.0776  0.2635
  779SOL     OW 2335   0.401   1.077   2.527 -0.1303  0.3323 -0.9566
  779SOL    HW1 2336   0.303   1.088   2.519  1.1813 -2.0564 -0.3498
  779SOL    HW2 2337   0.439   1.033   2.443  0.4253 -0.3889  1.3853
  780SOL     OW 2338   1.971   0.621   2.680  0.0669 -0.1503 -0.5487
  780SOL    HW1 2339   2.052   0.594   2.624 -3.2211  1.1476  0.5612
  780SOL    HW2 2340   1.921   0.694   2.637  1.4760  1.4174  0.8408
  781SOL     OW 2341   2.557   1.592   1.934  0.3927 -0.0948 -0.2326
  781SOL    HW1 2342   2.613   1.520   1.890  4.1866  3.7388 -0.4834
  781SOL    HW2 2343   2.535   1.666   1.868 -1.8253  1.6654 -1.8011
  782SOL     OW 2344   1.076   1.800   2.334 -0.5251  0.2412  0.0369
  782SOL    HW1 2345   1.101   1.723   2.268 -1.9878  2.6674 -0.0735
  782SOL    HW2 2346   1.018   1.868   2.285 -1.9264 -1.0001  0.9320
  783SOL     OW 2347   0.643   2.965   1.338 -0.0937  0.7173 -0.4974
  783SOL    HW1 2348   0.713   2.894   1.365 -0.1499  1.8702 -1.4921
  783SOL    HW2 2349   0.592   3.004   1.416  0.9336  1.3471 -0.3323
  784SOL     OW 2350   1.406   0.699   3.075  0.2503 -0.6803 -0.3615
  784SOL    HW1 2351   1.474   0.648   3.019  1.3291  0.6269 -1.5336
  784SOL    HW2 2352   1.454   0.737   0.039 -0.2491  0.2998 -0.7707
  785SOL     OW 2353   1.222   0.218   0.090 -0.4658  0.0070 -0.5854
  785SOL    HW1 2354   1.216   0.321   0.090 -1.0222 -1.0113  2.7836
  785SOL    HW2 2355   1.313   0.176   0.089  0.7598  0.9125  0.7815
  786SOL     OW 2356   0.248   1.427   0.567 -0.3349 -0.0039  0.1398
  786SOL    HW1 2357   0.333   1.369   0.562  0.4835  0.1003 -0.5472
  786SOL    HW2 2358   0.242   1.487   0.486  0.3059 -0.2736  1.1826
  787SOL     OW 2359   1.858   1.434   0.234  0.1743 -0.2011 -0.1454
  787SOL    HW1 2360   1.870   1.461   0.330  1.2403  0.8996 -1.2344
  787SOL    HW2 2361   1.760   1.407   0.214 -1.3861  1.8447  0.3793
  788SOL     OW 2362   1.855   1.749   1.202  1.3369 -0.6276 -0.8495
  788SOL    HW1 2363   1.853   1.670   1.264  0.9324  3.0638  0.3748
  788SOL    HW2 2364   1.952   1.775   1.175  3.6280  0.2267  1.2334
  789SOL     OW 2365   3.005   1.398   2.052  0.0592 -0.1264  0.1588
  789SOL    HW1 2366   3.033   1.491   2.046 -0.0536 -1.6375 -0.1109
  789SOL    HW2 2367   2.981   1.363   2.147 -0.4291 -0.9337  1.4037
  790SOL     OW 2368   0.460   2.939   3.026  0.2551 -0.2144 -0.1669
  790SOL    HW1 2369   0.373   2.896   3.002 -1.1062 -0.4111  0.5986
  790SOL    HW2 2370   0.531   2.869   3.060 -0.9232 -0.6788  1.3552
  791SOL     OW 2371   0.572   0.147   2.345  0.1813 -0.5339  0.1886
  791SOL    HW1 2372   0.575   0.242   2.312  0.2120  2.2568  1.3670
  791SOL    HW2 2373   0.508   0.141   2.423  2.8202 -1.4671 -2.7851
  792SOL     OW 2374   1.835   0.350   2.284  0.5998  0.1503 -0.4850
  792SOL    HW1 2375   1.852   0.358   2.387  3.9228 -0.5815  1.1129
  792SOL    HW2 2376   1.740   0.383   2.258  1.8949  0.3305  0.9780
  793SOL     OW 2377   3.069   0.500   1.283 -0.5189 -0.2653 -0.3611
  793SOL    HW1 2378   3.067   0.462   1.377 -0.4384 -2.3772 -0.7663
  793SOL    HW2 2379   0.028   0.568   1.278 -0.0827  0.2704  1.6396
  794SOL     OW 2380   0.600   0.626   2.030 -0.1020  0.3216  0.0211
  794SOL    HW1 2381   0.654   0.712   2.045  0.0872  2.9512 -1.6867
  794SOL    HW2 2382   0.649   0.561   1.968  1.4687  0.8259 -1.9458
  795SOL     OW 2383   0.116   1.347   0.230  0.7678  0.4625  0.1079
  795SOL    HW1 2384   0.073   1.325   0.141 -0.1390 -2.5322 -2.1107
  795SOL    HW2 2385   0.055   1.311   0.306  0.2317  1.9670  2.6932
  796SOL     OW 2386   2.911   2.845   0.398  0.1464 -0.4076 -0.4434
  796SOL    HW1 2387   2.978   2.798   0.457  0.2781 -1.3103  0.4096
  796SOL    HW2 2388   2.950   2.855   0.307 -1.8778 -2.7399  1.4847
  797SOL     OW 2389   1.918   2.722   2.240 -0.6638 -0.0945 -0.2400
  797SOL    HW1 2390   1.971   2.686   2.162  0.6350  2.2797 -0.4713
  797SOL    HW2 2391   1.942   2.820   2.265  0.7484  1.5271 -0.2501
  798SOL     OW 2392   3.048   1.126   0.897 -0.1864  0.4763  0.1170
  798SOL    HW1 2393   3.059   1.122   0.796  0.5011 -0.4936 -1.3543
  798SOL    HW2 2394   2.995   1.046   0.936 -1.4539  0.9379  0.1816
  799SOL     OW 2395   2.726   0.655   2.798 -0.2001 -0.1121  0.1581
  799SOL    HW1 2396   2.811   0.605   2.772  0.0200  0.8807 -0.1141
  799SOL    HW2 2397   2.734   0.759   2.792  1.8614  5.7430 -0.4673
  800SOL     OW 2398   3.062   1.837   0.256 -0.1196 -0.3440 -0.1349
  800SOL    HW1 2399   0.027   1.899   0.238  0.0838  1.4442 -1.5424
  800SOL    HW2 2400   3.015   1.859   0.343 -0.2392  1.4206 -0.1076
  801SOL     OW 2401   1.530   1.460   1.046  0.5623  0.2790 -0.0310
  801SOL    HW1 2402   1.592   1.426   0.975  0.1850  1.6745 -0.7019
  801SOL    HW2 2403   1.561   1.551   1.083  0.3997 -2.6173  0.8435
  802SOL     OW 2404   1.290   1.873   1.788 -0.0221 -0.0630 -0.4486
  802SOL    HW1 2405   1.349   1.935   1.845  0.4939  0.2631 -1.7737
  802SOL    HW2 2406   1.343   1.854   1.704 -0.7219  2.4068  1.5367
  803SOL     OW 2407   0.180   1.588   0.769 -0.1389  0.0718  0.2855
  803SOL    HW1 2408   0.112   1.634   0.709 -1.0216  0.2076 -0.6394
  803SOL    HW2 2409   0.211   1.508   0.705  0.5182 -0.1345 -1.2327
  804SOL     OW 2410   0.959   2.452   1.425 -0.4726  0.4890  0.3086
  804SOL    HW1 2411   1.000   2.446   1.331  0.2789  0.3223 -1.0362
  804SOL    HW2 2412   0.857   2.473   1.422  1.3682  0.0972  0.9392
  805SOL     OW 2413   2.232   1.493   0.093  0.0948 -0.4829 -0.0172
  805SOL    HW1 2414   2.225   1.591   0.088  1.5100  0.6375 -0.4904
  805SOL    HW2 2415   2.139   1.447   0.078  1.8181  3.1077  0.4626
  806SOL     OW 2416   1.591   2.754   1.400 -0.4451  0.2305  0.5664
  806SOL    HW1 2417   1.676   2.794   1.359 -1.4277 -0.3297 -1.5350
  806SOL    HW2 2418   1.506   2.801   1.370  0.4668 -0.4191 -2.1031
  807SOL     OW 2419   2.655   0.582   3.071 -0.5113 -0.2427 -0.2212
  807SOL    HW1 2420   2.714   0.655   3.113 -0.0518 -0.4786 -0.7916
  807SOL    HW2 2421   2.664   0.587   2.972 -0.9540  1.0446 -0.0337
  808SOL     OW 2422   0.140   1.168   0.671 -0.4173 -0.1701  0.5615
  808SOL    HW1 2423   0.212   1.105   0.711  1.0208  1.2010  0.5512
  808SOL    HW2 2424   0.183   1.241   0.617  0.0482 -0.2737  1.1521
  809SOL     OW 2425   2.811   0.735   2.405  0.1374  0.5633 -0.6842
  809SOL    HW1 2426   2.780   0.764   2.313  3.9606  0.3402  0.1577
  809SOL    HW2 2427   2.747   0.766   2.480 -0.6225 -0.3849  1.0174
  810SOL     OW 2428   1.712   0.672   1.421  0.2028  0.3405 -0.2097
  810SOL    HW1 2429   1.673   0.590   1.467 -0.4225  1.5396  1.4529
  810SOL    HW2 2430   1.799   0.646   1.374 -1.3545 -1.4322 -0.3629
  811SOL     OW 2431   1.851   2.846   1.427  0.1153 -0.9546 -0.4570
  811SOL    HW1 2432   1.874   2.773   1.494 -1.2729  0.0641  0.1341
  811SOL    HW2 2433   1.936   2.902   1.403 -0.2276  1.4616  1.8437
  812SOL     OW 2434   1.762   2.751   3.102  0.4429  0.5197 -0.0938
  812SOL    HW1 2435   1.781   2.687   0.064 -2.3850  0.3825 -1.9266
  812SOL    HW2 2436   1.684   2.721   3.047  2.2970  2.4726  2.8189
  813SOL     OW 2437   1.836   1.073   1.972  0.1428  0.1397  0.4928
  813SOL    HW1 2438   1.766   1.088   2.037 -1.8593 -2.7857 -0.8184
  813SOL    HW2 2439   1.908   1.010   2.007  1.0604  0.1389 -1.9258
  814SOL     OW 2440   1.520   0.909   1.982 -0.0333  0.7218 -0.5027
  814SOL    HW1 2441   1.554   0.977   2.050 -2.3251  1.5083  0.3571
  814SOL    HW2 2442   1.576   0.906   1.897 -1.9209 -2.2677 -1.0620
  815SOL     OW 2443   0.533   0.671   0.430  0.3432 -0.0612 -0.1433
  815SOL    HW1 2444   0.620   0.702   0.474  0.6363  0.0811  2.3940
  815SOL    HW2 2445   0.555   0.607   0.353  1.1757  2.0757  1.4938
  816SOL     OW 2446   2.338   1.888   2.649 -0.5405  0.1590 -0.4428
  816SOL    HW1 2447   2.277   1.832   2.706 -0.1158  4.0402  0.1678
  816SOL    HW2 2448   2.430   1.845   2.635 -2.8969  0.1412  0.8400
  817SOL     OW 2449   0.454   2.453   0.464 -0.1383  0.0025 -0.2896
  817SOL    HW1 2450   0.474   2.404   0.555 -0.8455 -0.8693 -1.7478
  817SOL    HW2 2451   0.375   2.516   0.470  0.4935 -1.4991 -1.2777
  818SOL     OW 2452   1.827   0.212   2.761  0.3255  0.1619  0.5419
  818SOL    HW1 2453   1.880   0.259   2.835  2.0881  2.1716 -0.6559
  818SOL    HW2 2454   1.727   0.214   2.777 -1.6272  0.8362  0.5788
  819SOL     OW 2455   1.547   0.459   0.275  0.4887  0.0400 -0.2442
  819SOL    HW1 2456   1.461   0.460   0.330 -0.4322 -2.3592 -1.2864
  819SOL    HW2 2457   1.608   0.536   0.301 -2.9009 -1.6752  0.7012
  820SOL     OW 2458   1.646   0.878   0.387  0.1151 -0.6294 -0.0156
  820SOL    HW1 2459   1.573   0.856   0.450 -1.8293 -0.1531  0.8794
  820SOL    HW2 2460   1.718   0.933   0.439  1.8625  4.7437  2.3513
  821SOL     OW 2461   2.483   2.698   0.557 -0.0500 -0.4808  0.0035
  821SOL    HW1 2462   2.388   2.741   0.563 -0.8908  0.3699  1.4701
  821SOL    HW2 2463   2.550   2.759   0.507 -0.0985  0.7835 -2.6053
  822SOL     OW 2464   0.125   2.761   1.940 -0.2706  0.1439 -0.2967
  822SOL    HW1 2465   0.086   2.851   1.960  0.4992 -0.8721 -1.4853
  822SOL    HW2 2466   0.198   2.771   1.872 -0.3757 -2.2100 -0.3050
  823SOL     OW 2467   2.543   2.348   1.664  0.2952 -0.6673  0.9888
  823SOL    HW1 2468   2.520   2.372   1.760  2.4451  0.3255  1.1188
  823SOL    HW2 2469   2.598   2.260   1.667  0.3040 -2.6735 -2.9523
  824SOL     OW 2470   1.260   2.833   2.485  0.8097 -0.4019 -0.1236
  824SOL    HW1 2471   1.252   2.758   2.416  0.2463 -0.0742  2.0634
  824SOL    HW2 2472   1.360   2.849   2.495  2.8515 -1.0648 -1.8694
  825SOL     OW 2473   1.874   1.455   0.515 -0.4484 -0.3003  0.3159
  825SOL    HW1 2474   1.801   1.415   0.576 -1.5802 -0.4506  0.3842
  825SOL    HW2 2475   1.843   1.545   0.487  2.6012 -2.7812  1.7225
  826SOL     OW 2476   1.957   0.757   0.019  0.3352  0.1263 -1.2093
  826SOL    HW1 2477   2.026   0.721   0.089  2.5389 -1.0698  0.2057
  826SOL    HW2 2478   1.960   0.702   3.046  0.4516 -0.5729 -1.3449
  827SOL     OW 2479   0.473   1.209   1.482  0.6964  0.4855  0.4786
  827SOL    HW1 2480   0.414   1.290   1.502 -1.9646 -0.1114  2.2657
  827SOL    HW2 2481   0.572   1.229   1.484  0.0439 -0.5126 -0.5136
  828SOL     OW 2482   1.891   1.545   1.867  0.0402 -0.0452 -0.2558
  828SOL    HW1 2483   1.811   1.594   1.825 -2.9414  2.1079  0.8498
  828SOL    HW2 2484   1.908   1.452   1.825 -0.2695  2.1588  0.0411
  829SOL     OW 2485   0.206   1.939   0.253  0.3588  0.1526 -0.0550
  829SOL    HW1 2486   0.232   1.991   0.169 -1.8448 -0.5537 -1.7393
  829SOL    HW2 2487   0.268   1.858   0.264 -0.7687 -0.1959  0.4958
  830SOL     OW 2488   1.180   0.396   0.743  0.1651 -0.0085  0.0402
  830SOL    HW1 2489   1.229   0.330   0.803  0.8567 -0.9523  0.0731
  830SOL    HW2 2490   1.086   0.414   0.780 -1.3513  2.5721 -1.0641
  831SOL     OW 2491   2.851   1.454   0.193  0.1656 -0.4864  0.0416
  831SOL    HW1 2492   2.877   1.384   0.126  0.1364  1.0557 -1.2287
  831SOL    HW2 2493   2.848   1.550   0.159 -2.1646  0.3640 -1.6692
  832SOL     OW 2494   1.001   2.984   3.071 -0.5714 -0.7116 -0.1324
  832SOL    HW1 2495   0.917   2.968   3.011 -1.0461  0.4131 -0.2204
  832SOL    HW2 2496   1.014   3.081   3.080 -0.1620 -1.0059 -0.4720
  833SOL     OW 2497   1.146   0.889   2.014 -0.6029 -0.0351  0.3660
  833SOL    HW1 2498   1.211   0.904   1.934 -1.4327 -3.9548 -0.1238
  833SOL    HW2 2499   1.154   0.950   2.097 -1.4076  0.4715  1.7601
  834SOL     OW 2500   0.112   0.707   1.257  0.5252  0.0395 -0.2291
  834SOL    HW1 2501   0.088   0.805   1.272 -0.6253 -2.4793  2.4594
  834SOL    HW2 2502   0.198   0.686   1.209 -0.9836 -1.6293 -1.3896
  835SOL     OW 2503   2.992   0.368   1.519 -0.2351  0.1278  0.1185
  835SOL    HW1 2504   2.982   0.353   1.615 -2.0490  0.9444 -2.1382
  835SOL    HW2 2505   2.911   0.327   1.462 -0.1407 -0.1899 -4.0098
  836SOL     OW 2506   0.539   1.956   0.385 -0.1812 -0.4431  0.2120
  836SOL    HW1 2507   0.515   1.862   0.429 -0.8710 -1.3041 -2.5001
  836SOL    HW2 2508   0.607   2.010   0.437 -0.0372  0.0997 -0.8825
  837SOL     OW 2509   1.907   1.868   2.446 -0.0899  0.0439  0.3089
  837SOL    HW1 2510   1.914   1.953   2.500  0.4108  0.2614 -1.9170
  837SOL    HW2 2511   2.003   1.845   2.421 -1.9952  0.9101 -2.7887
  838SOL     OW 2512   0.107   1.243   1.987  0.3096 -0.2978  0.3779
  838SOL    HW1 2513   0.203   1.278   1.984 -0.3531  2.7055 -0.9635
  838SOL    HW2 2514   0.039   1.303   2.034 -0.6335 -0.2251  3.0494
  839SOL     OW 2515   0.343   0.364   0.751 -0.6040  0.0003  0.0910
  839SOL    HW1 2516   0.249   0.329   0.747  0.9883 -0.4689 -0.7140
  839SOL    HW2 2517   0.391   0.326   0.671  1.4212  0.0289 -0.4360
  840SOL     OW 2518   2.924   0.220   2.655 -0.4668 -0.0492 -0.2122
  840SOL    HW1 2519   2.949   0.127   2.619  0.1454  1.4503 -1.0580
  840SOL    HW2 2520   2.838   0.219   2.717 -0.0636 -1.4279 -0.5936
  841SOL     OW 2521   0.593   2.730   0.044 -0.2223 -0.1657 -0.5230
  841SOL    HW1 2522   0.595   2.669   3.082  0.3188  1.3783  0.8495
  841SOL    HW2 2523   0.650   2.701   0.121 -1.4062 -1.1436 -1.2622
  842SOL     OW 2524   0.709   0.088   1.208 -0.2515 -0.7053 -0.7917
  842SOL    HW1 2525   0.643   0.088   1.128  1.8265  1.7195 -0.3643
  842SOL    HW2 2526   0.714   0.001   1.260  2.0403  1.4715 -0.6349
  843SOL     OW 2527   3.037   0.751   2.761 -0.7071 -0.1223 -0.4973
  843SOL    HW1 2528   2.991   0.670   2.730 -0.3296  3.2943  1.8406
  843SOL    HW2 2529   3.092   0.735   2.847  0.4607 -2.8790  1.6620
  844SOL     OW 2530   1.000   2.354   2.549  0.5007 -0.8799  0.0038
  844SOL    HW1 2531   1.061   2.404   2.612 -1.6769 -1.6818 -0.4718
  844SOL    HW2 2532   1.024   2.379   2.453 -0.0494 -2.3437  1.6668
  845SOL     OW 2533   2.150   2.871   2.577  0.1835 -0.7188  0.0413
  845SOL    HW1 2534   2.224   2.927   2.609 -2.0756 -2.2195 -1.9939
  845SOL    HW2 2535   2.086   2.924   2.514 -0.1178 -0.0657  0.4480
  846SOL     OW 2536   1.975   1.549   2.430 -0.1367 -0.0631 -0.4751
  846SOL    HW1 2537   2.031   1.473   2.466  1.4680 -2.0629  1.7107
  846SOL    HW2 2538   1.992   1.641   2.468 -0.1170 -1.4543 -0.7693
  847SOL     OW 2539   2.688   2.837   3.079  0.0985 -0.5560 -0.0529
  847SOL    HW1 2540   2.632   2.834   0.045 -0.7939  1.0141 -1.4079
  847SOL    HW2 2541   2.775   2.883   3.100  0.6572 -2.1521  2.0386
  848SOL     OW 2542   0.094   0.537   0.301  0.1384  0.4569  0.7280
  848SOL    HW1 2543   0.191   0.543   0.263 -2.9564  1.6287 -2.9325
  848SOL    HW2 2544   0.055   0.632   0.288 -2.2379  3.2150  0.9299
  849SOL     OW 2545   1.427   0.035   2.087 -0.8983 -0.2058 -0.0256
  849SOL    HW1 2546   1.520   0.057   2.119  1.0214 -0.9274  1.0915
  849SOL    HW2 2547   1.377   0.125   2.085 -1.9165  2.1254 -0.3388
  850SOL     OW 2548   0.787   1.041   0.701 -0.3827  0.4184 -0.1780
  850SOL    HW1 2549   0.872   0.998   0.656  3.2248  0.9857 -1.2529
  850SOL    HW2 2550   0.817   1.102   0.775 -0.1205  0.5806 -1.8546
  851SOL     OW 2551   0.351   1.257   0.114 -0.0613 -0.2452 -0.3753
  851SOL    HW1 2552   0.432   1.265   0.177  1.0607  1.2902 -0.5115
  851SOL    HW2 2553   0.266   1.283   0.161  2.2494  1.8235 -2.2658
  852SOL     OW 2554   1.413   0.631   1.998  0.8356  0.7810 -0.1013
  852SOL    HW1 2555   1.438   0.734   1.991  2.9436  2.9464  0.8654
  852SOL    HW2 2556   1.496   0.575   2.005  1.2072  3.2549  0.7099
  853SOL     OW 2557   2.779   1.551   0.429 -0.3799  0.4808  0.1631
  853SOL    HW1 2558   2.836   1.501   0.499  0.1578 -5.5755  0.9082
  853SOL    HW2 2559   2.802   1.506   0.346 -0.2818  2.0949  1.5473
  854SOL     OW 2560   1.174   1.176   2.496 -0.1054  0.6500  0.2320
  854SOL    HW1 2561   1.109   1.101   2.504  0.0271 -0.4371  0.9925
  854SOL    HW2 2562   1.232   1.180   2.581  0.5163 -0.1911  0.8218
  855SOL     OW 2563   0.119   2.815   2.985  0.2489  0.8726 -0.1737
  855SOL    HW1 2564   0.139   2.854   3.074  3.5228 -2.0977 -2.7375
  855SOL    HW2 2565   0.086   2.717   2.994  1.8437  2.1324 -1.3275
  856SOL     OW 2566   1.365   0.920   2.432  0.5037  0.2298  0.1699
  856SOL    HW1 2567   1.294   0.985   2.395 -0.8842  1.8237 -1.7692
  856SOL    HW2 2568   1.356   0.829   2.394 -0.5568  0.4371 -0.4341
  857SOL     OW 2569   1.336   0.681   2.734  0.3684 -0.4838  0.4131
  857SOL    HW1 2570   1.424   0.653   2.770 -0.8199 -1.4770 -0.6957
  857SOL    HW2 2571   1.322   0.658   2.636  2.4048  0.2347 -1.1142
  858SOL     OW 2572   2.728   1.110   2.191 -0.2781 -0.3586  0.0206
  858SOL    HW1 2573   2.662   1.191   2.206 -0.0533 -1.4442  1.0541
  858SOL    HW2 2574   2.823   1.137   2.205 -2.2016 -0.4997 -1.7841
  859SOL     OW 2575   2.466   0.158   0.847 -0.1115 -0.5236  0.0313
  859SOL    HW1 2576   2.518   0.191   0.933 -0.0391 -0.9677  2.2516
  859SOL    HW2 2577   2.533   0.183   0.772 -0.3870 -1.6832 -1.2479
  860SOL     OW 2578   1.710   3.043   0.269 -0.5058 -0.7131  0.3476
  860SOL    HW1 2579   1.715   3.113   0.346  2.0955  1.0368  2.7609
  860SOL    HW2 2580   1.790   2.985   0.293 -0.0899 -1.8690  1.6231
  861SOL     OW 2581   1.367   0.397   1.135 -0.0900  0.1307 -0.3159
  861SOL    HW1 2582   1.326   0.347   1.055 -0.1675  1.7846  0.0160
  861SOL    HW2 2583   1.300   0.469   1.165  0.2006 -3.3417 -1.4931
  862SOL     OW 2584   1.437   0.169   2.534  0.1664 -0.2313 -0.3146
  862SOL    HW1 2585   1.529   0.127   2.515 -0.3412 -1.6424 -2.5584
  862SOL    HW2 2586   1.428   0.251   2.468  2.0102  3.7590 -2.1219
  863SOL     OW 2587   2.700   2.654   0.904  0.6913 -0.4416 -0.7103
  863SOL    HW1 2588   2.680   2.740   0.860  1.6849 -2.6942 -1.1697
  863SOL    HW2 2589   2.796   2.631   0.899  1.2824  1.9361  1.7638
  864SOL     OW 2590   2.501   0.132   2.112 -0.1153  0.1473  0.0091
  864SOL    HW1 2591   2.471   0.069   2.184  1.5989 -0.6369 -0.6065
  864SOL    HW2 2592   2.597   0.112   2.075  2.3762  2.8366 -3.3795
  865SOL     OW 2593   1.295   1.245   2.056 -0.1555 -0.5419  0.2100
  865SOL    HW1 2594   1.209   1.253   1.997  1.1017 -0.4657  0.9009
  865SOL    HW2 2595   1.349   1.332   2.067  1.8505  2.0771  0.3401
  866SOL     OW 2596   1.745   2.826   0.981 -0.0757  0.8629 -0.5662
  866SOL    HW1 2597   1.641   2.836   0.983  2.7442  1.3970 -1.6104
  866SOL    HW2 2598   1.786   2.886   0.906 -1.3949  0.1326 -1.5128
  867SOL     OW 2599   2.312   2.937   0.585  0.4262  0.3272 -0.6987
  867SOL    HW1 2600   2.349   2.980   0.668  0.6752 -0.1922 -2.3428
  867SOL    HW2 2601   2.324   3.001   0.508 -0.2657 -1.7013  1.6162
  868SOL     OW 2602   0.066   2.232   1.936 -0.2091  0.2456 -0.1077
  868SOL    HW1 2603   0.123   2.294   1.879 -0.0184  1.9860  1.1244
  868SOL    HW2 2604   0.007   2.289   1.997  1.4067 -0.2944 -1.4193
  869SOL     OW 2605   1.909   2.244   2.217 -0.3985 -0.3333  0.2990
  869SOL    HW1 2606   1.854   2.177   2.161 -1.0341  2.3243 -1.8609
  869SOL    HW2 2607   1.854   2.322   2.253 -0.0162  3.0821 -0.0487
  870SOL     OW 2608   1.508   1.568   0.663 -0.4174  0.0911  0.6575
  870SOL    HW1 2609   1.556   1.661   0.671  1.4711 -0.3997 -2.0396
  870SOL    HW2 2610   1.578   1.496   0.692  2.3050 -1.8796 -0.9105
  871SOL     OW 2611   2.758   1.890   1.827  0.1074 -0.0924 -0.5810
  871SOL    HW1 2612   2.827   1.966   1.841 -0.7859  1.1767 -1.3019
  871SOL    HW2 2613   2.798   1.814   1.769 -2.4384  0.7903 -0.5391
  872SOL     OW 2614   0.644   1.629   2.704 -0.3707  0.0544 -0.2439
  872SOL    HW1 2615   0.710   1.660   2.776 -1.6065 -0.8480  1.0514
  872SOL    HW2 2616   0.633   1.706   2.642  2.5628  1.6786  1.1508
  873SOL     OW 2617   0.849   1.521   1.967  0.1189  0.1611 -0.0505
  873SOL    HW1 2618   0.849   1.624   1.978 -0.7130  2.3931 -2.2078
  873SOL    HW2 2619   0.869   1.480   2.056 -0.5050  1.0686  1.9180
  874SOL     OW 2620   1.672   0.994   1.766  0.0704 -0.0924  0.3518
  874SOL    HW1 2621   1.704   0.964   1.673  2.5371 -0.0000 -0.4612
  874SOL    HW2 2622   1.755   1.027   1.813 -3.2111 -2.6860 -1.4114
  875SOL     OW 2623   2.775   3.080   0.178  0.2029 -0.6185  0.0263
  875SOL    HW1 2624   2.821   2.997   0.211  0.3335  3.8208 -0.5892
  875SOL    HW2 2625   2.833   0.042   0.200  0.5999 -2.2132  1.7231
  876SOL     OW 2626   0.825   1.139   0.338  0.5338 -0.1322 -0.0608
  876SOL    HW1 2627   0.794   1.043   0.315 -0.3545 -0.3279 -2.7364
  876SOL    HW2 2628   0.926   1.144   0.348 -1.9495  0.7623  0.2117
  877SOL     OW 2629   2.601   2.882   0.742 -0.0004 -0.4245 -0.1557
  877SOL    HW1 2630   2.527   2.936   0.786  0.8278  0.4853 -0.3620
  877SOL    HW2 2631   2.565   2.813   0.679  3.0904 -1.7169  2.9378
  878SOL     OW 2632   1.951   1.951   0.711 -0.7104  0.6210 -0.3381
  878SOL    HW1 2633   1.912   1.964   0.617 -0.3527 -2.8522 -1.2980
  878SOL    HW2 2634   1.935   1.850   0.741 -2.1120 -2.5456  0.4183
  879SOL     OW 2635   2.583   1.665   1.328  0.7679 -0.1118  0.7725
  879SOL    HW1 2636   2.571   1.567   1.341 -1.3413  1.2927  1.1657
  879SOL    HW2 2637   2.611   1.682   1.230 -0.1972 -2.7796  0.7503
  880SOL     OW 2638   0.374   2.002   0.803 -0.3992  0.7576  0.3897
  880SOL    HW1 2639   0.397   1.970   0.899  1.3556  0.6993  2.9649
  880SOL    HW2 2640   0.397   1.937   0.730  0.9453 -1.5563  0.3104
  881SOL     OW 2641   0.628   0.727   1.046  0.7796 -0.3819  0.2149
  881SOL    HW1 2642   0.646   0.808   1.112 -1.8763  1.1614  0.6114
  881SOL    HW2 2643   0.662   0.753   0.954 -1.3974  3.4385 -0.6140
  882SOL     OW 2644   2.696   1.204   1.182  0.0135  0.8330 -0.4203
  882SOL    HW1 2645   2.705   1.132   1.113  1.4584  0.0021 -0.0462
  882SOL    HW2 2646   2.746   1.289   1.160 -1.0703 -2.4009  0.3205
  883SOL     OW 2647   1.624   0.249   1.881 -0.2359  0.3504 -0.0111
  883SOL    HW1 2648   1.647   0.184   1.957  1.0714 -0.1961  0.6290
  883SOL    HW2 2649   1.570   0.205   1.803 -2.0322 -0.5706  2.2101
  884SOL     OW 2650   2.953   0.296   1.778 -0.1806 -0.0607  0.2737
  884SOL    HW1 2651   3.026   0.311   1.852  1.7103 -2.0132  1.3074
  884SOL    HW2 2652   2.867   0.346   1.801  1.1375 -1.5588  0.1555
  885SOL     OW 2653   1.282   1.398   2.932  0.2732 -0.0187  0.1541
  885SOL    HW1 2654   1.198   1.382   2.989 -1.9387 -0.9332 -0.7544
  885SOL    HW2 2655   1.290   1.493   2.895  1.6403 -1.1927 -1.4824
  886SOL     OW 2656   1.871   0.329   3.029 -0.3638  0.2660 -0.3030
  886SOL    HW1 2657   1.791   0.347   3.091 -2.9473 -1.4796 -2.5355
  886SOL    HW2 2658   1.939   0.275   3.082 -3.3476  1.3263  1.1627
  887SOL     OW 2659   1.518   0.127   1.663 -0.1244  0.2498 -0.0687
  887SOL    HW1 2660   1.556   0.179   1.583  1.1942  1.4434  1.1778
  887SOL    HW2 2661   1.578   0.045   1.671 -0.3192  0.3204 -0.0252
  888SOL     OW 2662   2.052   1.838   1.886 -0.2088  0.0571 -0.0773
  888SOL    HW1 2663   2.072   1.739   1.864  2.8951  0.0734  2.4649
  888SOL    HW2 2664   2.106   1.871   1.963 -1.4282  1.8978 -1.1148
  889SOL     OW 2665   1.863   2.237   0.429 -0.8580 -0.1228  0.1842
  889SOL    HW1 2666   1.925   2.162   0.433 -1.3704  1.4140  0.7954
  889SOL    HW2 2667   1.912   2.325   0.450  0.2291 -0.1097 -2.1516
  890SOL     OW 2668   1.234   1.992   0.594 -0.3611 -0.1898  0.6232
  890SOL    HW1 2669   1.140   1.965   0.622  2.0495 -0.9159  0.9052
  890SOL    HW2 2670   1.261   1.946   0.505 -1.0962 -0.6674  0.6061
  891SOL     OW 2671   2.775   0.861   3.072 -0.5659 -0.2490 -0.5600
  891SOL    HW1 2672   2.797   0.814   0.041 -0.2908  0.3946  0.3433
  891SOL    HW2 2673   2.697   0.927   3.089 -0.2550  1.0980  1.2952
  892SOL     OW 2674   1.643   0.673   2.743 -0.0685  0.1294  0.3541
  892SOL    HW1 2675   1.664   0.596   2.806  2.1872 -0.8029 -0.3038
  892SOL    HW2 2676   1.669   0.641   2.649 -0.4786 -0.2183  0.5517
  893SOL     OW 2677   1.468   2.834   1.700  0.3415 -0.0090 -0.1031
  893SOL    HW1 2678   1.382   2.837   1.648  0.1593  0.3636  2.5143
  893SOL    HW2 2679   1.536   2.908   1.669  4.5396 -0.6318 -3.5195
  894SOL     OW 2680   2.759   0.034   0.566  0.3433 -0.0881  0.3400
  894SOL    HW1 2681   2.708   3.101   0.491 -2.1323  2.1483 -1.2567
  894SOL    HW2 2682   2.827   3.093   0.619  2.7189  1.2801 -2.7978
  895SOL     OW 2683   2.014   2.247   2.927 -0.0526  0.3439 -1.0091
  895SOL    HW1 2684   2.073   2.226   2.846  1.4118 -2.6558 -2.3390
  895SOL    HW2 2685   1.985   2.348   2.935 -1.6358  1.6039 -1.3564
  896SOL     OW 2686   2.238   0.139   2.448  0.7185 -0.1251  0.3159
  896SOL    HW1 2687   2.276   0.219   2.490  1.2449 -0.2964 -3.2922
  896SOL    HW2 2688   2.234   0.157   2.351  0.7118 -1.3246  0.4968
  897SOL     OW 2689   0.451   1.633   1.712  0.0237  0.4186  0.6986
  897SOL    HW1 2690   0.466   1.610   1.809  1.7276  0.1709  1.6631
  897SOL    HW2 2691   0.535   1.658   1.665 -0.9247  1.4287 -0.7880
  898SOL     OW 2692   2.489   1.771   1.745 -0.6272  0.0138 -0.1110
  898SOL    HW1 2693   2.402   1.763   1.686 -3.6752  0.3523 -3.8976
  898SOL    HW2 2694   2.543   1.857   1.712  0.5111  1.6368 -0.2456
  899SOL     OW 2695   1.693   2.561   0.982 -0.0868 -0.1599 -0.0897
  899SOL    HW1 2696   1.593   2.559   1.011 -0.1392 -0.6988 -0.3133
  899SOL    HW2 2697   1.727   2.662   0.991  2.3818 -1.1689  0.5170
  900SOL     OW 2698   1.156   0.733   0.035 -0.2213  0.4849 -0.3484
  900SOL    HW1 2699   1.253   0.728   0.007 -0.6503 -2.7467  2.8152
  900SOL    HW2 2700   1.123   0.827   0.039  0.7042  0.2869  1.1492
  901SOL     OW 2701   1.160   1.640   2.588 -0.1728  0.0834  0.0735
  901SOL    HW1 2702   1.245   1.602   2.557 -4.7703  1.7302  3.5197
  901SOL    HW2 2703   1.133   1.718   2.531 -2.7996  3.2133 -0.4463
  902SOL     OW 2704   3.040   2.619   0.074 -0.1148 -0.7570  0.0286
  902SOL    HW1 2705   3.069   2.713   0.096  1.1805  0.7845 -0.1118
  902SOL    HW2 2706   3.004   2.566   0.156 -1.1564 -2.3904  1.4781
  903SOL     OW 2707   2.374   0.859   2.018 -0.2234  0.7118  0.0736
  903SOL    HW1 2708   2.409   0.786   1.961 -2.7490 -0.6351  0.3186
  903SOL    HW2 2709   2.438   0.934   2.016  0.8612 -3.3826 -0.5635
  904SOL     OW 2710   1.553   0.485   2.958 -0.7269  0.0983 -0.3661
  904SOL    HW1 2711   1.522   0.412   2.895  1.6337 -0.3981  1.6412
  904SOL    HW2 2712   1.595   0.447   3.038  1.0238 -0.7907 -2.5138
  905SOL     OW 2713   2.116   2.449   1.041  0.2642 -0.4277 -0.0010
  905SOL    HW1 2714   2.151   2.541   1.026 -1.4184  0.3845 -0.6123
  905SOL    HW2 2715   2.185   2.383   1.009 -1.4616  1.3050  0.6966
  906SOL     OW 2716   1.499   1.946   3.115 -0.1282 -0.0038  0.0917
  906SOL    HW1 2717   1.553   1.856   0.002 -0.8364  0.6278  1.2385
  906SOL    HW2 2718   1.506   1.985   3.023  1.3578  1.5972  3.0744
  907SOL     OW 2719   0.778   2.715   0.652  0.4483  0.0798  0.7798
  907SOL    HW1 2720   0.703   2.728   0.720  4.0806 -0.4954  0.8893
  907SOL    HW2 2721   0.773   2.631   0.590  0.1276 -1.4476  1.5388
  908SOL     OW 2722   1.312   2.712   1.993  0.2873 -0.4502 -0.3337
  908SOL    HW1 2723   1.313   2.622   1.945 -1.1838  3.1497  3.3573
  908SOL    HW2 2724   1.396   2.763   1.968 -2.2870 -1.5303 -1.3762
  909SOL     OW 2725   1.946   0.588   1.259 -0.4171  0.2282  0.3344
  909SOL    HW1 2726   1.996   0.513   1.307 -0.4406  0.5158 -0.4214
  909SOL    HW2 2727   1.899   0.551   1.175 -0.0437  2.4955 -0.7399
  910SOL     OW 2728   1.371   1.011   3.098  0.2086  0.1103  0.5914
  910SOL    HW1 2729   1.273   1.002   0.002 -1.1146 -2.4583 -0.8052
  910SOL    HW2 2730   1.382   0.993   2.996  0.0370 -0.1060  2.5658
  911SOL     OW 2731   2.837   0.795   0.213  0.1074 -0.4812  0.0380
  911SOL    HW1 2732   2.814   0.737   0.291 -1.0665  0.1758  0.7516
  911SOL    HW2 2733   2.882   0.877   0.247 -1.5901 -0.9734 -0.7120
  912SOL     OW 2734   3.115   2.203   3.107  0.0051 -0.2643  0.0784
  912SOL    HW1 2735   0.086   2.154   3.111  1.3733  0.2329 -0.4626
  912SOL    HW2 2736   3.114   2.278   0.063  0.3697  0.0663  0.7183
  913SOL     OW 2737   2.633   2.195   2.533 -0.1557 -0.4435 -0.5382
  913SOL    HW1 2738   2.634   2.229   2.628 -0.8068 -0.6042 -1.7299
  913SOL    HW2 2739   2.664   2.103   2.542  0.4373  3.2661  1.2704
  914SOL     OW 2740   1.458   1.872   1.565  0.0222 -0.1879  0.4323
  914SOL    HW1 2741   1.446   1.813   1.484 -0.1249 -2.5411 -1.3316
  914SOL    HW2 2742   1.552   1.868   1.597  0.1222 -0.1380 -3.1587
  915SOL     OW 2743   0.496   2.605   2.131 -0.2232  0.0497  0.5318
  915SOL    HW1 2744   0.548   2.665   2.068 -0.4529 -0.7988  0.9747
  915SOL    HW2 2745   0.522   2.631   2.226  0.6372 -3.3595 -0.6409
  916SOL     OW 2746   0.565   1.277   1.814 -0.1993 -0.5461  0.1424
  916SOL    HW1 2747   0.598   1.181   1.818  0.4254  3.8565  1.8181
  916SOL    HW2 2748   0.481   1.285   1.870  1.3514  1.1469  2.1738
  917SOL     OW 2749   2.357   0.267   0.538  0.7157 -0.3381 -0.1835
  917SOL    HW1 2750   2.319   0.179   0.510 -0.8383 -0.6213  1.8084
  917SOL    HW2 2751   2.454   0.259   0.573  2.1581  2.9159 -0.0021
  918SOL     OW 2752   1.654   2.737   2.233 -0.3772 -0.3641 -0.3973
  918SOL    HW1 2753   1.754   2.738   2.264  1.2769 -0.5572 -0.7275
  918SOL    HW2 2754   1.594   2.737   2.314  1.8001  0.6082 -1.4733
  919SOL     OW 2755   1.541   2.601   1.810  0.6150 -0.2277 -0.0603
  919SOL    HW1 2756   1.537   2.696   1.775 -2.7068 -0.6520  0.2973
  919SOL    HW2 2757   1.452   2.556   1.791  1.6994  0.6877 -1.0458
  920SOL     OW 2758   0.692   0.865   2.923 -0.3231  0.6266 -0.0978
  920SOL    HW1 2759   0.666   0.929   2.850 -1.7426  0.5917  1.9087
  920SOL    HW2 2760   0.611   0.812   2.955 -1.5812 -2.3525 -0.5045
  921SOL     OW 2761   0.045   0.335   2.793  0.3435 -0.5346  0.1525
  921SOL    HW1 2762   3.085   0.284   2.757  1.2224  1.3305 -0.3066
  921SOL    HW2 2763   0.066   0.416   2.733 -0.1489 -0.4190 -0.5523
  922SOL     OW 2764   0.779   1.939   0.824  0.8988  0.0461  0.4373
  922SOL    HW1 2765   0.709   1.863   0.841  3.5222 -0.8755  2.0758
  922SOL    HW2 2766   0.750   2.022   0.875 -1.2852 -0.1321 -1.3855
  923SOL     OW 2767   0.569   1.156   2.096  0.1527 -0.2120 -0.2426
  923SOL    HW1 2768   0.555   1.112   2.004 -0.1059 -2.5990 -3.7069
  923SOL    HW2 2769   0.486   1.206   2.117  2.6402  2.5336  3.9387
  924SOL     OW 2770   1.346   3.017   2.793  0.4069 -0.0620  0.8533
  924SOL    HW1 2771   1.308   3.080   2.723  3.1489  2.0116  0.4609
  924SOL    HW2 2772   1.278   2.943   2.806 -0.8062 -1.5553 -0.1098
  925SOL     OW 2773   2.734   1.381   1.684 -0.4299 -0.0186 -0.1441
  925SOL    HW1 2774   2.633   1.358   1.668 -0.9062 -1.8865  1.5022
  925SOL    HW2 2775   2.788   1.352   1.604 -0.6699 -1.8237 -2.1467
  926SOL     OW 2776   2.035   0.933   1.544 -0.1304 -1.0074 -0.3170
  926SOL    HW1 2777   2.044   1.035   1.541 -1.3113 -0.7679  2.6172
  926SOL    HW2 2778   2.089   0.886   1.475 -3.0941 -0.5828  1.9581
  927SOL     OW 2779   2.095   2.953   1.332  0.7134 -0.5095 -0.1438
  927SOL    HW1 2780   2.167   2.972   1.402  2.4008 -1.3052 -0.7155
  927SOL    HW2 2781   2.097   3.028   1.265  0.0834 -1.0364  0.8842
  928SOL     OW 2782   0.361   0.814   2.131  0.4964 -0.1999  0.0442
  928SOL    HW1 2783   0.282   0.879   2.130 -0.8806  0.4987  0.6031
  928SOL    HW2 2784   0.423   0.835   2.053  0.1872  3.5201  1.1536
  929SOL     OW 2785   2.691   0.548   0.908  0.2044  0.1801 -0.2789
  929SOL    HW1 2786   2.631   0.477   0.954 -0.0304  3.6302  0.9477
  929SOL    HW2 2787   2.750   0.596   0.974  0.0075 -1.1138  2.1082
  930SOL     OW 2788   2.819   2.828   1.748  0.0777 -0.4300 -0.0187
  930SOL    HW1 2789   2.759   2.753   1.795 -0.5759  0.2739  1.8447
  930SOL    HW2 2790   2.762   2.886   1.685  0.8687 -0.2836  2.0025
  931SOL     OW 2791   1.816   1.004   0.546  0.6708  0.4109 -0.7757
  931SOL    HW1 2792   1.878   0.993   0.626 -1.8822  1.9680 -2.0827
  931SOL    HW2 2793   1.848   1.084   0.499 -2.0714 -2.8026  2.0746
  932SOL     OW 2794   2.767   1.324   1.951  0.4542  0.0454  0.4050
  932SOL    HW1 2795   2.761   1.332   1.850 -1.8543 -0.6937  0.2508
  932SOL    HW2 2796   2.863   1.337   1.984  0.2332  2.8277  0.0087
  933SOL     OW 2797   2.866   2.293   1.797  0.1277 -0.0815  0.4565
  933SOL    HW1 2798   2.903   2.202   1.830  2.8482  1.5229  0.3211
  933SOL    HW2 2799   2.806   2.329   1.874  0.3436  0.0206  0.5630
  934SOL     OW 2800   0.671   2.129   1.262 -0.5211  0.1292  0.1740
  934SOL    HW1 2801   0.762   2.129   1.312  0.2836 -0.4415  2.3197
  934SOL    HW2 2802   0.613   2.059   1.308  0.1649  0.4437 -1.4059
  935SOL     OW 2803   2.747   1.722   2.086  0.5656  0.4476 -0.4371
  935SOL    HW1 2804   2.745   1.807   2.032  1.3842  0.4710 -1.3886
  935SOL    HW2 2805   2.684   1.652   2.056 -0.5474 -0.4485  2.3489
  936SOL     OW 2806   2.468   1.885   2.059  0.1700 -0.0161  0.2608
  936SOL    HW1 2807   2.504   1.847   1.975 -0.5979 -0.0587  2.0496
  936SOL    HW2 2808   2.368   1.863   2.069  0.0127 -0.8087  2.2572
  937SOL     OW 2809   1.975   1.232   1.777  0.5931 -0.3342 -0.6926
  937SOL    HW1 2810   1.927   1.180   1.854 -2.3937 -3.0080  3.8146
  937SOL    HW2 2811   1.967   1.199   1.680 -2.0473  2.3800  2.2767
  938SOL     OW 2812   0.755   2.516   2.575 -0.1355 -0.0739  0.3369
  938SOL    HW1 2813   0.825   2.447   2.548 -0.2618  1.5085 -2.4513
  938SOL    HW2 2814   0.793   2.608   2.601  0.6901 -0.5841 -0.7637
  939SOL     OW 2815   2.318   1.145   2.950  0.1642  0.1824 -0.0563
  939SOL    HW1 2816   2.239   1.107   2.998  0.5832 -0.0559  2.3914
  939SOL    HW2 2817   2.374   1.074   2.905  1.1439  0.0726  2.9471
  940SOL     OW 2818   1.169   1.688   0.538 -0.0773 -0.0669 -0.2310
  940SOL    HW1 2819   1.206   1.593   0.525 -0.6048  0.1142 -2.5006
  940SOL    HW2 2820   1.230   1.738   0.597  1.3794 -0.2042  0.3372
  941SOL     OW 2821   1.650   2.945   2.678 -0.4023  0.1937 -0.5094
  941SOL    HW1 2822   1.643   3.033   2.732 -1.3082  1.1226 -1.3013
  941SOL    HW2 2823   1.582   2.887   2.721 -1.5885  1.8236  2.0964
  942SOL     OW 2824   0.834   2.294   0.447  0.0602 -0.9516  1.0164
  942SOL    HW1 2825   0.791   2.386   0.464 -0.7191 -0.4866 -0.5800
  942SOL    HW2 2826   0.926   2.285   0.482 -3.3655 -0.6762  2.2966
  943SOL     OW 2827   1.942   0.368   1.818  0.6057  0.0597  0.1726
  943SOL    HW1 2828   1.911   0.312   1.898  0.8392 -0.2015  0.2199
  943SOL    HW2 2829   1.917   0.465   1.836  0.2098 -1.2659 -1.0130
  944SOL     OW 2830   0.856   1.311   3.013  0.2201 -0.2816 -0.3584
  944SOL    HW1 2831   0.798   1.336   2.935 -1.2148  1.1063 -0.7220
  944SOL    HW2 2832   0.875   1.213   3.008 -0.3498 -1.0183 -0.4642
  945SOL     OW 2833   3.092   2.261   1.182 -0.2969 -0.0384  0.0350
  945SOL    HW1 2834   3.027   2.309   1.245  1.1312  3.4320 -1.0097
  945SOL    HW2 2835   3.053   2.182   1.133  1.5776  3.2226  0.3353
  946SOL     OW 2836   0.648   1.034   2.723  0.4823 -0.0168 -0.3693
  946SOL    HW1 2837   0.696   1.108   2.678  0.2600 -0.1140 -0.1225
  946SOL    HW2 2838   0.548   1.038   2.710 -1.7049 -0.5295  1.6756
  947SOL     OW 2839   2.705   0.081   1.776 -0.5048 -0.1449  0.7607
  947SOL    HW1 2840   2.732   0.102   1.875  2.1498 -0.3040  0.8830
  947SOL    HW2 2841   2.782   0.057   1.711  1.9174  1.3000  1.4663
  948SOL     OW 2842   0.132   1.980   1.108 -0.1919 -0.0557  0.6962
  948SOL    HW1 2843   0.181   1.896   1.083  0.0007  0.1371 -0.8656
  948SOL    HW2 2844   0.069   1.969   1.188 -1.8526 -1.9112 -0.8161
  949SOL     OW 2845   1.274   1.204   1.677 -0.0448  0.4571  0.2367
  949SOL    HW1 2846   1.254   1.222   1.579 -1.0903  0.4105 -0.3823
  949SOL    HW2 2847   1.212   1.269   1.722  2.2092 -2.2612 -0.5182
  950SOL     OW 2848   0.116   1.089   1.105 -0.0054 -0.0075  0.4694
  950SOL    HW1 2849   0.047   1.089   1.029  1.0788  0.6176  0.3040
  950SOL    HW2 2850   0.211   1.108   1.064  2.7679 -1.3857  1.1628
  951SOL     OW 2851   0.301   1.882   2.070  0.0334 -0.4723 -0.0625
  951SOL    HW1 2852   0.268   1.976   2.087  1.7825  1.5295 -0.4321
  951SOL    HW2 2853   0.402   1.881   2.061 -0.2504  0.6041  0.8471
  952SOL     OW 2854   1.531   1.714   0.323 -0.6314 -0.1931 -0.7617
  952SOL    HW1 2855   1.497   1.801   0.366 -1.3966 -0.7549  0.2220
  952SOL    HW2 2856   1.455   1.669   0.284  2.8570  0.4814  2.9743
  953SOL     OW 2857   0.911   0.587   0.041 -0.1729  0.0022 -0.0439
  953SOL    HW1 2858   1.001   0.633   0.031 -0.1153 -0.1438 -0.3498
  953SOL    HW2 2859   0.832   0.644   0.007  0.6528 -1.4374  1.9272
  954SOL     OW 2860   2.052   1.037   0.715  0.1687  0.5161  0.1818
  954SOL    HW1 2861   2.145   1.038   0.675 -2.9032 -0.9446  2.3063
  954SOL    HW2 2862   2.044   1.096   0.799  1.2844  1.0150  0.2732
  955SOL     OW 2863   2.567   1.576   0.270 -0.1757 -0.3268  0.4101
  955SOL    HW1 2864   2.582   1.652   0.203 -0.5402  0.8723 -0.9784
  955SOL    HW2 2865   2.639   1.583   0.344  0.7745  1.0273 -0.2957
  956SOL     OW 2866   1.144   0.736   1.693 -0.0161  0.1871  0.4299
  956SOL    HW1 2867   1.202   0.818   1.721  1.1510  0.6701 -0.9617
  956SOL    HW2 2868   1.054   0.734   1.743 -1.9846 -1.6699 -0.1048
  957SOL     OW 2869   1.777   1.121   1.061  0.2506 -0.0445  0.0131
  957SOL    HW1 2870   1.783   1.123   1.165 -1.5974 -2.0270  0.8554
  957SOL    HW2 2871   1.753   1.025   1.032 -0.3720  3.5460 -0.3399
  958SOL     OW 2872   0.412   1.746   0.681  0.1151  0.2273 -0.2214
  958SOL    HW1 2873   0.334   1.686   0.700  0.1516  1.5387  0.4464
  958SOL    HW2 2874   0.465   1.716   0.596 -0.4546  0.2245 -1.8479
  959SOL     OW 2875   2.087   1.438   1.414 -0.5717 -0.2672  0.0335
  959SOL    HW1 2876   2.109   1.515   1.480 -1.5282 -0.3519  0.6071
  959SOL    HW2 2877   2.147   1.448   1.329  1.1608 -0.6994 -2.1798
  960SOL     OW 2878   3.034   1.535   2.819 -0.0575  0.4601 -0.0393
  960SOL    HW1 2879   3.091   1.532   2.901 -0.6747  0.0139  2.8388
  960SOL    HW2 2880   3.092   1.501   2.744  0.3506  0.6092  0.8510
  961SOL     OW 2881   0.953   1.376   1.020  0.2336  0.1672  0.0652
  961SOL    HW1 2882   0.932   1.473   1.003 -0.9403  0.4215  0.8213
  961SOL    HW2 2883   1.053   1.366   1.038 -0.4525 -0.4371  1.5372
  962SOL     OW 2884   0.782   0.726   0.523  0.0858  0.7727 -0.6658
  962SOL    HW1 2885   0.848   0.687   0.454 -1.6076 -1.5768  0.0744
  962SOL    HW2 2886   0.828   0.806   0.564 -2.2075 -2.4281 -1.7304
  963SOL     OW 2887   1.475   2.013   1.936 -0.6889 -0.5315 -0.2376
  963SOL    HW1 2888   1.513   2.077   1.862  0.4132 -1.4686  1.1273
  963SOL    HW2 2889   1.544   1.992   2.008  2.3135  1.0997  0.8341
  964SOL     OW 2890   0.037   2.894   2.734 -0.2047 -0.5234 -0.1836
  964SOL    HW1 2891   0.047   2.911   2.834  1.1258  0.0390 -0.2179
  964SOL    HW2 2892   3.107   2.807   2.717  1.2411  0.9415  0.1426
  965SOL     OW 2893   0.716   2.288   0.206 -0.3461 -0.9525 -0.1343
  965SOL    HW1 2894   0.764   2.299   0.120 -2.4854 -3.6541  0.0237
  965SOL    HW2 2895   0.779   2.275   0.284 -2.3686  1.3441  3.0861
  966SOL     OW 2896   3.103   1.592   3.099  0.3718 -0.5431 -0.0639
  966SOL    HW1 2897   3.009   1.615   0.020 -1.0108 -1.3581 -0.3824
  966SOL    HW2 2898   0.026   1.512   0.032 -0.6894 -0.2127 -0.5534
  967SOL     OW 2899   2.052   2.745   2.809 -0.1941 -0.0335 -0.2462
  967SOL    HW1 2900   2.121   2.767   2.735  2.6379 -1.1333 -2.2336
  967SOL    HW2 2901   1.957   2.733   2.779 -0.5617 -0.6889  1.3541
  968SOL     OW 2902   2.049   2.870   0.616  0.4818  0.2324 -0.1217
  968SOL    HW1 2903   2.142   2.906   0.620 -0.3310  0.1653 -1.2166
  968SOL    HW2 2904   2.042   2.773   0.655 -0.1473 -1.1847 -1.4934
  969SOL     OW 2905   0.759   1.047   2.347 -0.5871 -0.0548 -0.0425
  969SOL    HW1 2906   0.748   1.124   2.414 -0.0795 -1.1807  0.8078
  969SOL    HW2 2907   0.671   1.045   2.296 -1.0140 -1.7929 -0.8151
  970SOL     OW 2908   1.669   1.324   0.624 -0.0598 -0.2833  0.0107
  970SOL    HW1 2909   1.613   1.252   0.579 -1.7401  0.6317 -1.4602
  970SOL    HW2 2910   1.676   1.302   0.722 -1.7256  1.6090 -2.2889
  971SOL     OW 2911   2.390   2.986   1.504 -0.5046  0.0718  0.6034
  971SOL    HW1 2912   2.451   2.996   1.584  0.2774  1.2176  2.2880
  971SOL    HW2 2913   2.420   3.042   1.421 -0.4178  2.4638 -0.3964
  972SOL     OW 2914   2.950   0.066   1.657 -0.4835  0.3318  0.2630
  972SOL    HW1 2915   3.011   3.116   1.704  0.6591 -0.9874 -1.1975
  972SOL    HW2 2916   2.951   0.157   1.707  0.0148  1.1357 -3.3851
  973SOL     OW 2917   0.121   0.209   2.367  0.2139  1.0716  0.3815
  973SOL    HW1 2918   0.195   0.187   2.434  2.3281  1.9458  0.1698
  973SOL    HW2 2919   0.063   0.284   2.402 -1.3687  0.3862 -0.8424
  974SOL     OW 2920   2.510   1.107   1.969 -0.3341 -0.4416 -0.2065
  974SOL    HW1 2921   2.419   1.156   1.988  1.0332 -0.3332  2.5458
  974SOL    HW2 2922   2.583   1.154   2.025 -0.8108 -0.4608  0.1738
  975SOL     OW 2923   1.170   0.549   1.272 -0.3051  0.1156 -0.0515
  975SOL    HW1 2924   1.219   0.548   1.360 -0.8534 -0.4156 -0.9090
  975SOL    HW2 2925   1.069   0.562   1.285 -1.4569  1.5525 -1.7742
  976SOL     OW 2926   0.849   1.790   2.006 -0.5355 -0.5248  0.1574
  976SOL    HW1 2927   0.867   1.837   2.099 -0.0442  1.0044  1.6732
  976SOL    HW2 2928   0.911   1.836   1.939 -1.2649 -0.0408  1.3550
  977SOL     OW 2929   0.871   0.110   0.267  0.4859 -0.3736 -0.1001
  977SOL    HW1 2930   0.912   0.162   0.187 -1.1777  2.0892 -1.1999
  977SOL    HW2 2931   0.900   0.148   0.355  0.0412 -1.9877 -2.0676
  978SOL     OW 2932   2.680   0.836   2.167  0.1127  0.2597 -0.6541
  978SOL    HW1 2933   2.595   0.803   2.217  2.4172 -2.9636  2.8524
  978SOL    HW2 2934   2.699   0.935   2.187  1.1822  1.0686 -1.1664
  979SOL     OW 2935   1.643   0.496   2.003  0.6780 -0.2402 -0.2525
  979SOL    HW1 2936   1.638   0.406   1.954 -1.2427 -1.7469  1.6293
  979SOL    HW2 2937   1.722   0.553   1.968  3.9507 -1.0120 -1.2282
  980SOL     OW 2938   1.632   1.611   1.771 -0.7216 -0.2439 -0.4635
  980SOL    HW1 2939   1.549   1.595   1.831 -2.4956 -2.5505  0.6441
  980SOL    HW2 2940   1.622   1.558   1.687  0.6972 -0.3584  3.5515
  981SOL     OW 2941   2.558   0.904   1.428 -0.3174  0.5158 -0.3734
  981SOL    HW1 2942   2.608   0.994   1.418 -1.1677  4.6609 -1.8058
  981SOL    HW2 2943   2.504   0.911   1.514 -1.4238 -0.3127 -0.0601
  982SOL     OW 2944   0.360   0.169   2.532  0.2624  0.0917 -0.7292
  982SOL    HW1 2945   0.388   0.235   2.610  0.2803  1.5018  1.4643
  982SOL    HW2 2946   0.359   0.068   2.559  0.2909 -3.4866  1.5109
  983SOL     OW 2947   2.404   0.674   2.793 -0.2876 -0.1409  0.5348
  983SOL    HW1 2948   2.333   0.656   2.868  2.4626  1.3650  2.8336
  983SOL    HW2 2949   2.453   0.586   2.779 -1.3121  1.2890 -2.4364
  984SOL     OW 2950   1.206   3.047   1.918  0.0740 -0.1609  0.5745
  984SOL    HW1 2951   1.286   3.089   1.966  1.3217 -0.7881 -2.3456
  984SOL    HW2 2952   1.168   2.977   1.979  1.5265  0.0168 -1.2127
  985SOL     OW 2953   1.798   1.856   1.990  0.1912  0.7424 -0.3340
  985SOL    HW1 2954   1.897   1.853   1.955 -0.3965  0.7613 -0.3036
  985SOL    HW2 2955   1.753   1.766   1.981  3.1831 -2.3787 -0.6575
  986SOL     OW 2956   2.412   0.683   1.364 -0.3875 -0.2280  0.2499
  986SOL    HW1 2957   2.447   0.776   1.389 -2.0776  1.0064 -1.2270
  986SOL    HW2 2958   2.477   0.624   1.311  2.1163  0.2727 -0.3824
  987SOL     OW 2959   2.741   1.100   1.430 -0.0646  0.0913  0.3662
  987SOL    HW1 2960   2.711   1.146   1.344  0.1786  0.0987 -0.7154
  987SOL    HW2 2961   2.816   1.159   1.468  2.0637 -0.1883  0.7775
  988SOL     OW 2962   2.112   1.635   1.622  0.2552  0.3435  0.4871
  988SOL    HW1 2963   2.026   1.684   1.618 -0.2080 -1.2047 -0.9016
  988SOL    HW2 2964   2.179   1.709   1.604  1.9295 -1.4552 -0.1823
  989SOL     OW 2965   1.127   2.569   0.140 -0.2535 -0.4937 -0.1612
  989SOL    HW1 2966   1.082   2.653   0.175  0.4470 -0.7872  1.2952
  989SOL    HW2 2967   1.210   2.540   0.185  0.6682  1.3900  0.9684
  990SOL     OW 2968   1.655   0.937   2.859  0.4553 -0.1547  0.3256
  990SOL    HW1 2969   1.668   0.837   2.836  0.9444 -1.8249  0.6433
  990SOL    HW2 2970   1.718   0.957   2.937 -1.8673  1.2522 -0.2953
  991SOL     OW 2971   0.998   0.192   0.514 -0.7155  0.5626 -0.3404
  991SOL    HW1 2972   0.971   0.128   0.590  2.0011 -4.5482  0.7193
  991SOL    HW2 2973   1.034   0.281   0.541  0.6526 -0.2496 -0.7144
  992SOL     OW 2974   2.903   1.319   1.471  0.0495  0.1167 -0.3884
  992SOL    HW1 2975   2.913   1.382   1.394 -2.6624 -3.0616  2.6221
  992SOL    HW2 2976   2.989   1.314   1.522  0.3976 -1.9799 -0.3818
  993SOL     OW 2977   2.816   0.816   1.580 -0.4341 -0.2953 -0.1967
  993SOL    HW1 2978   2.895   0.773   1.626 -0.2882 -0.7568 -1.3015
  993SOL    HW2 2979   2.844   0.850   1.489  2.5819 -2.0248  0.1803
  994SOL     OW 2980   0.191   2.344   2.546 -0.6956  0.3314 -0.0830
  994SOL    HW1 2981   0.253   2.373   2.468 -1.9102 -2.9596  2.9825
  994SOL    HW2 2982   0.149   2.422   2.593  2.1370 -0.7936  0.4933
  995SOL     OW 2983   1.892   1.117   2.800  0.9723  0.4581  0.7196
  995SOL    HW1 2984   1.958   1.083   2.868 -2.6225 -0.5030  0.6897
  995SOL    HW2 2985   1.821   1.043   2.798  4.2869 -0.9148 -0.6193
  996SOL     OW 2986   2.725   1.745   0.630  0.2518  0.7205 -0.4206
  996SOL    HW1 2987   2.697   1.832   0.583 -0.6491  0.0742 -0.7375
  996SOL    HW2 2988   2.762   1.679   0.564  0.9331 -0.3194  2.1598
  997SOL     OW 2989   2.260   1.022   2.256  0.0908 -0.2385 -0.3623
  997SOL    HW1 2990   2.264   1.120   2.232 -2.0036  0.9862  2.3420
  997SOL    HW2 2991   2.164   0.996   2.254 -0.4696 -2.5979 -1.4547
  998SOL     OW 2992   2.621   1.047   0.555 -0.2304 -0.2181  0.0730
  998SOL    HW1 2993   2.540   1.007   0.507  0.6613  0.4047  0.3582
  998SOL    HW2 2994   2.703   1.065   0.497  0.0939 -0.0649  1.9213
  999SOL     OW 2995   0.062   2.349   0.209  0.2744 -0.2256  0.3851
  999SOL    HW1 2996   0.102   2.286   0.274 -2.9377 -0.6576 -3.2709
  999SOL    HW2 2997   3.113   2.410   0.253 -1.0473  1.8693  1.3208
 1000SOL     OW 2998   0.959   0.726   2.544  0.2963 -0.1101  0.6535
 1000SOL    HW1 2999   0.917   0.677   2.625  0.7878 -0.6939 -2.0817
 1000SOL    HW2 3000   1.041   0.683   2.516 -1.2800 -2.4116  1.8942
   3.11766   3.11766   3.11766
