1000 SPC/Fw water molecules t= 120.00000 step= 120000
 3000
    1SOL     OW    1   2.269   2.168   0.752 -0.3245  0.3675 -0.6751
    1SOL    HW1    2   2.282   2.139   0.656 -0.1372 -1.2445  0.5153
    1SOL    HW2    3   2.261   2.086   0.813 -0.8897 -1.5010 -0.4652
    2SOL     OW    4   1.398   1.773   2.264  0.0374 -0.1230  0.0683
    2SOL    HW1    5   1.304   1.769   2.320 -1.9289 -0.0067  3.3074
    2SOL    HW2    6   1.409   1.686   2.213  0.7023 -2.1635 -0.4746
    3SOL     OW    7   1.372   2.431   2.299  0.6754 -0.1758 -0.5250
    3SOL    HW1    8   1.280   2.409   2.257 -1.6768  0.1583 -1.3570
    3SOL    HW2    9   1.409   2.342   2.340  1.9207 -0.7489 -0.2660
    4SOL     OW   10   1.158   2.206   1.880 -0.4251  0.4684 -0.5342
    4SOL    HW1   11   1.258   2.195   1.860  0.7638  0.5335  0.2830
    4SOL    HW2   12   1.104   2.250   1.804 -0.7436  1.4564  0.8899
    5SOL     OW   13   0.575   0.975   1.600  0.6673  0.0191  0.1365
    5SOL    HW1   14   0.634   1.015   1.672 -1.6836  3.9950 -0.8890
    5SOL    HW2   15   0.557   0.876   1.607  0.8761  0.9602  0.4595
    6SOL     OW   16   2.325   0.821   0.096  0.0064  0.2935 -0.1686
    6SOL    HW1   17   2.243   0.795   0.036  2.6900 -1.3321 -1.2733
    6SOL    HW2   18   2.401   0.750   0.094 -0.1559 -0.6995  1.3856
    7SOL     OW   19   0.812   0.325   1.511  0.5138 -0.0600  0.1732
    7SOL    HW1   20   0.906   0.296   1.525 -3.6498  2.0342 -1.3802
    7SOL    HW2   21   0.762   0.281   1.588  1.8508 -1.8658 -1.0590
    8SOL     OW   22   1.404   0.216   1.705  0.2724 -0.8560 -0.0474
    8SOL    HW1   23   1.437   0.198   1.609  0.9507  1.6356 -4.5596
    8SOL    HW2   24   1.483   0.218   1.775  1.1987  1.6522 -0.9532
    9SOL     OW   25   0.609   0.641   0.680  0.1160  0.0674 -0.5430
    9SOL    HW1   26   0.709   0.640   0.702  0.3092 -2.7412 -2.5829
    9SOL    HW2   27   0.568   0.733   0.711 -2.1079  4.5629 -2.2526
   10SOL     OW   28   0.523   2.355   2.414  0.2979  0.4376 -0.3887
   10SOL    HW1   29   0.540   2.379   2.517  1.9638  0.0562  1.4631
   10SOL    HW2   30   0.425   2.341   2.396  0.0669  0.0158  1.4833
   11SOL     OW   31   0.391   2.071   2.961 -0.0093  0.4184 -0.7876
   11SOL    HW1   32   0.318   2.034   3.021 -0.7268  3.2823  0.2676
   11SOL    HW2   33   0.479   2.020   2.974 -0.4540  3.7108  1.3193
   12SOL     OW   34   0.126   3.097   1.369 -0.0070 -0.4924  0.3364
   12SOL    HW1   35   0.232   3.094   1.361  2.6423  1.0315  0.7473
   12SOL    HW2   36   0.096   3.004   1.350  0.2889  1.8381  0.6808
   13SOL     OW   37   0.846   2.792   0.109  0.1095  0.2134  0.0675
   13SOL    HW1   38   0.908   2.785   0.025 -0.2278 -1.8820  0.7346
   13SOL    HW2   39   0.766   2.853   0.081 -0.6201 -0.9416 -3.6994
   14SOL     OW   40   1.603   1.785   1.083  0.1493 -0.0994 -0.0516
   14SOL    HW1   41   1.599   1.801   1.183 -0.8595  1.9588  0.9691
   14SOL    HW2   42   1.542   1.849   1.030 -0.9937  0.3300  0.8958
   15SOL     OW   43   2.837   1.215   2.140  0.0591  0.2613  0.2560
   15SOL    HW1   44   2.911   1.159   2.184 -0.8965 -1.9358  3.4982
   15SOL    HW2   45   2.790   1.273   2.214 -3.2353 -0.5369  1.9337
   16SOL     OW   46   1.155   3.051   3.014  0.3158 -0.4532  0.0581
   16SOL    HW1   47   1.067   3.005   2.997 -3.2142 -0.5217 -3.8527
   16SOL    HW2   48   1.177   3.116   2.941 -0.5495  0.0300 -1.1026
   17SOL     OW   49   0.582   2.381   2.071 -0.7787  0.1339  0.3249
   17SOL    HW1   50   0.638   2.345   2.148 -2.3488  0.5129  0.9772
   17SOL    HW2   51   0.495   2.329   2.071 -0.0915  3.4789  1.2744
   18SOL     OW   52   1.728   0.756   0.268  0.8201  0.7075  0.2471
   18SOL    HW1   53   1.736   0.857   0.248  2.0741 -0.4950 -2.5506
   18SOL    HW2   54   1.690   0.708   0.185  1.1100  1.8321  1.5081
   19SOL     OW   55   2.293   1.870   2.646 -0.3420  0.2317 -0.1527
   19SOL    HW1   56   2.232   1.858   2.728 -1.7857  2.8681  1.3246
   19SOL    HW2   57   2.381   1.904   2.677 -1.6406  0.1229  0.9770
   20SOL     OW   58   2.489   2.111   2.350 -0.3939  0.0962  0.1842
   20SOL    HW1   59   2.398   2.122   2.391 -3.7663 -2.2436  1.0948
   20SOL    HW2   60   2.563   2.083   2.417  0.0160 -2.1054  1.2065
   21SOL     OW   61   0.598   2.011   0.167  0.4193  0.4355 -0.0309
   21SOL    HW1   62   0.555   2.097   0.209 -0.5283  2.5003  2.0081
   21SOL    HW2   63   0.588   1.933   0.236 -0.9894 -0.7912  1.7781
   22SOL     OW   64   2.390   2.679   1.215  0.6757 -0.0725 -0.4672
   22SOL    HW1   65   2.488   2.701   1.222  2.5152  0.7724 -0.5187
   22SOL    HW2   66   2.340   2.768   1.218  0.1660 -0.3579 -0.6547
   23SOL     OW   67   0.407   1.186   1.641  0.7264  0.1261  0.5205
   23SOL    HW1   68   0.451   1.278   1.647 -1.9067  2.7192 -0.5281
   23SOL    HW2   69   0.481   1.114   1.617 -1.9843  1.8351  2.2318
   24SOL     OW   70   2.028   1.985   1.677  0.0207  0.5521 -0.2884
   24SOL    HW1   71   1.978   1.901   1.713  0.7609  0.4850  0.4926
   24SOL    HW2   72   1.999   2.064   1.732 -0.1954  1.8771 -0.9502
   25SOL     OW   73   1.745   0.094   2.710  0.1205  0.4022  0.5910
   25SOL    HW1   74   1.774   0.191   2.706 -1.8811  2.3504 -0.7871
   25SOL    HW2   75   1.725   0.067   2.611  1.1114  2.4740  1.2830
   26SOL     OW   76   1.493   2.921   0.959  0.0755 -0.3385 -0.2879
   26SOL    HW1   77   1.488   2.895   0.860  0.5729 -1.0705 -0.8221
   26SOL    HW2   78   1.501   3.022   0.977  1.3687  0.6943  0.4429
   27SOL     OW   79   1.187   1.834   3.059  0.3891  0.0492  0.1727
   27SOL    HW1   80   1.222   1.902   0.008  0.5745 -2.0165  0.6144
   27SOL    HW2   81   1.115   1.776   3.109 -1.2126 -3.9059  1.3675
   28SOL     OW   82   2.948   1.887   1.287  0.6955 -0.8827  0.1812
   28SOL    HW1   83   2.858   1.844   1.314 -0.6768 -2.0433 -0.0821
   28SOL    HW2   84   3.013   1.904   1.366 -2.1547 -0.2101 -0.5775
   29SOL     OW   85   2.255   2.703   1.917 -0.2197 -0.5021 -0.3046
   29SOL    HW1   86   2.183   2.636   1.887 -0.4957  2.6443  0.0377
   29SOL    HW2   87   2.297   2.673   2.007  1.1681 -0.0105  2.2663
   30SOL     OW   88   1.024   2.676   1.169 -0.0450  0.1916  0.4030
   30SOL    HW1   89   1.073   2.611   1.112 -3.5557 -1.2207 -0.3105
   30SOL    HW2   90   0.980   2.754   1.110  0.5182  2.3202 -0.8323
   31SOL     OW   91   2.915   2.189   1.987  0.9965 -0.4683 -0.3434
   31SOL    HW1   92   2.991   2.142   1.938 -3.2047  0.2471  3.1011
   31SOL    HW2   93   2.940   2.284   2.024  0.1891  1.7532 -0.2890
   32SOL     OW   94   1.545   1.206   1.985  0.3440  0.2854 -0.0835
   32SOL    HW1   95   1.526   1.106   1.967  2.9245 -2.3296  0.5926
   32SOL    HW2   96   1.467   1.262   1.955  3.3243  2.7543  1.4496
   33SOL     OW   97   0.122   0.043   2.729  0.0582  0.2142 -0.2452
   33SOL    HW1   98   0.150   0.140   2.745 -3.9072 -1.8774  3.0647
   33SOL    HW2   99   0.164   0.006   2.648 -2.0337  2.8381  2.5764
   34SOL     OW  100   1.740   0.182   1.425  0.2246 -0.2532 -0.2321
   34SOL    HW1  101   1.731   0.261   1.487 -0.8309 -2.0517  0.1188
   34SOL    HW2  102   1.835   0.169   1.394 -0.3016 -1.1098 -0.3177
   35SOL     OW  103   2.371   0.562   1.425 -1.0314  0.4449  0.2276
   35SOL    HW1  104   2.339   0.537   1.517  1.5345  0.4981  1.1947
   35SOL    HW2  105   2.325   0.649   1.383  1.5015  1.1904  0.1091
   36SOL     OW  106   2.402   3.089   2.389  0.5264 -0.5244 -0.0559
   36SOL    HW1  107   2.338   3.025   2.442  1.2994 -1.6209 -0.7851
   36SOL    HW2  108   2.499   3.065   2.404 -1.0820  0.9511 -0.0351
   37SOL     OW  109   1.216   2.201   2.938  0.0515  0.2865 -0.1866
   37SOL    HW1  110   1.207   2.187   3.038  2.1984 -3.3585 -1.2627
   37SOL    HW2  111   1.237   2.113   2.892 -1.0219  3.5495  2.7491
   38SOL     OW  112   2.788   0.944   2.698  0.0023  0.4895 -0.7536
   38SOL    HW1  113   2.713   0.923   2.630 -2.5134  0.0465 -0.8908
   38SOL    HW2  114   2.756   0.931   2.793 -0.8412  2.7970 -0.4283
   39SOL     OW  115   2.042   2.094   2.240 -0.0442  0.1848 -0.3656
   39SOL    HW1  116   2.003   2.002   2.219  1.2274  1.1863 -1.5023
   39SOL    HW2  117   2.118   2.091   2.314  1.5948  0.3901  2.0051
   40SOL     OW  118   0.431   0.194   3.105 -0.1060 -0.4001  0.6121
   40SOL    HW1  119   0.524   0.200   0.024 -1.1310  0.0782  0.7469
   40SOL    HW2  120   0.380   0.121   0.039  0.4920  0.8432 -3.3606
   41SOL     OW  121   1.442   0.897   1.437 -0.2559  0.0648 -0.0039
   41SOL    HW1  122   1.542   0.926   1.414  2.9560  1.4823  1.7985
   41SOL    HW2  123   1.423   0.897   1.538 -1.5783 -0.8194  0.2170
   42SOL     OW  124   0.206   0.348   2.016  0.1829 -0.4398 -0.2482
   42SOL    HW1  125   0.115   0.397   2.004 -0.4140  0.5513 -0.9261
   42SOL    HW2  126   0.271   0.423   2.045 -4.0269 -2.7688  0.3100
   43SOL     OW  127   1.611   1.309   2.223  0.2064  0.0805  0.5170
   43SOL    HW1  128   1.554   1.395   2.208  0.7562 -0.3881 -0.3987
   43SOL    HW2  129   1.598   1.244   2.147  2.5406  1.6227  2.6122
   44SOL     OW  130   2.891   2.931   2.912 -0.0404 -0.1947 -0.3464
   44SOL    HW1  131   2.954   2.985   2.971  1.8960 -0.2438  1.1379
   44SOL    HW2  132   2.934   2.842   2.889  1.3849  1.9445  0.6390
   45SOL     OW  133   0.764   2.239   1.538  0.2719 -0.0229  0.0925
   45SOL    HW1  134   0.790   2.282   1.449  1.0113 -1.2715  2.4813
   45SOL    HW2  135   0.775   2.136   1.538  0.1708  0.9001 -0.7123
   46SOL     OW  136   2.628   2.540   1.785  0.1206  0.0912 -0.2140
   46SOL    HW1  137   2.619   2.637   1.765  0.0482 -1.1328  2.5918
   46SOL    HW2  138   2.548   2.489   1.745 -0.7710 -1.0306 -0.9035
   47SOL     OW  139   1.814   1.694   1.344 -0.4376  0.2382 -0.0564
   47SOL    HW1  140   1.809   1.794   1.359 -2.6758 -2.4632  0.4391
   47SOL    HW2  141   1.910   1.661   1.334  0.2590 -0.9675 -3.7107
   48SOL     OW  142   0.341   2.218   0.495  0.3119  0.6545  0.4989
   48SOL    HW1  143   0.246   2.231   0.521 -2.9539 -1.0223 -0.4392
   48SOL    HW2  144   0.395   2.220   0.580 -1.4124 -1.4057  0.0902
   49SOL     OW  145   2.771   1.301   1.883  0.0359 -0.5153 -0.3850
   49SOL    HW1  146   2.731   1.398   1.899 -0.9639 -0.3798 -0.5435
   49SOL    HW2  147   2.812   1.263   1.968  0.9021 -2.2200  5.2393
   50SOL     OW  148   2.087   0.881   0.691  0.0049 -0.3745 -0.0121
   50SOL    HW1  149   2.171   0.850   0.649  1.0182 -1.4185 -0.6316
   50SOL    HW2  150   2.003   0.865   0.635 -2.3445  3.3143  0.9266
   51SOL     OW  151   1.286   0.679   0.734  0.8964 -0.0674  0.5042
   51SOL    HW1  152   1.192   0.719   0.728  0.1247  0.1873  1.7490
   51SOL    HW2  153   1.324   0.702   0.823  1.6528 -0.7842 -1.8101
   52SOL     OW  154   1.258   1.095   0.290  0.2562  0.2045  0.1294
   52SOL    HW1  155   1.300   1.017   0.234  2.8567 -1.7230 -1.3332
   52SOL    HW2  156   1.299   1.089   0.383  0.6975  0.8551 -1.0974
   53SOL     OW  157   1.137   2.335   2.675  0.0288  0.5568  0.1884
   53SOL    HW1  158   1.200   2.280   2.619 -1.2794  0.0890 -0.9573
   53SOL    HW2  159   1.160   2.330   2.776  1.1676  0.7353 -1.2321
   54SOL     OW  160   1.636   0.745   1.614 -1.3616 -0.3238 -0.2003
   54SOL    HW1  161   1.545   0.794   1.626  2.2277 -0.3907 -1.6843
   54SOL    HW2  162   1.626   0.667   1.542  0.1864 -0.3336 -1.3794
   55SOL     OW  163   2.307   3.012   0.480 -0.1801 -0.2348  0.4033
   55SOL    HW1  164   2.215   2.961   0.465 -1.6218  0.1230 -0.0918
   55SOL    HW2  165   2.384   2.959   0.442  0.5269  1.7901 -2.5657
   56SOL     OW  166   1.063   2.590   1.672 -0.6636 -0.2684 -0.3689
   56SOL    HW1  167   1.041   2.628   1.762  0.0250 -2.6627 -1.0259
   56SOL    HW2  168   1.072   2.658   1.594  0.5371 -0.1795 -5.3705
   57SOL     OW  169   1.941   0.593   2.929  0.3574  0.3886  0.0626
   57SOL    HW1  170   1.949   0.616   2.827  0.0782  3.9907 -1.2123
   57SOL    HW2  171   1.850   0.550   2.950 -0.8789  1.6277  1.2157
   58SOL     OW  172   2.829   1.187   1.637  0.2185 -0.0097 -0.1799
   58SOL    HW1  173   2.821   1.237   1.725 -0.5883 -1.5652  3.2063
   58SOL    HW2  174   2.749   1.201   1.578  0.1614  0.9712  1.5118
   59SOL     OW  175   0.506   2.819   2.276  0.1130 -0.5280 -0.4667
   59SOL    HW1  176   0.446   2.824   2.191  0.7169 -1.4176 -1.9548
   59SOL    HW2  177   0.538   2.914   2.310  2.6288  4.9353  0.7542
   60SOL     OW  178   2.707   2.397   0.795  0.0247 -0.2177  0.7838
   60SOL    HW1  179   2.689   2.341   0.878 -2.0678 -1.3111 -1.4337
   60SOL    HW2  180   2.630   2.464   0.769  0.4869 -0.9402 -1.4774
   61SOL     OW  181   1.025   2.376   0.181 -0.7109  0.1808 -0.5224
   61SOL    HW1  182   1.113   2.410   0.140 -1.0418 -2.3651  1.0849
   61SOL    HW2  183   1.041   2.315   0.259 -0.1029  0.1411 -2.9822
   62SOL     OW  184   2.095   2.720   2.907  0.4096 -0.5540  0.2158
   62SOL    HW1  185   2.169   2.680   2.839  1.6801 -0.2261 -1.5726
   62SOL    HW2  186   2.001   2.734   2.859 -1.1316  0.6689 -1.4376
   63SOL     OW  187   1.951   0.179   2.940 -0.3339 -0.6649  0.0681
   63SOL    HW1  188   1.930   0.083   2.976  2.9192 -0.8823 -1.4230
   63SOL    HW2  189   2.019   0.176   2.868 -0.8471  1.5625  1.5161
   64SOL     OW  190   0.872   1.095   2.649 -0.0704  0.2279  0.4766
   64SOL    HW1  191   0.947   1.026   2.651  1.2358  1.1694 -0.0678
   64SOL    HW2  192   0.782   1.049   2.622  0.4993 -0.3344 -3.5943
   65SOL     OW  193   1.362   2.633   0.596  0.0739  0.3952  0.2305
   65SOL    HW1  194   1.428   2.620   0.673  0.1766 -0.6701  1.3445
   65SOL    HW2  195   1.389   2.581   0.510  1.3778 -1.7711 -1.6238
   66SOL     OW  196   0.531   1.525   1.715  0.0552  0.1589  0.0681
   66SOL    HW1  197   0.609   1.487   1.772 -1.6238  2.0570 -1.5009
   66SOL    HW2  198   0.448   1.508   1.768 -0.6904 -1.2947 -2.5252
   67SOL     OW  199   2.173   3.010   1.976 -0.3121 -0.3504  0.2023
   67SOL    HW1  200   2.192   2.981   1.876 -0.0483 -0.8937 -1.7977
   67SOL    HW2  201   2.265   3.013   2.023  0.2685 -2.2561  0.2394
   68SOL     OW  202   0.958   0.744   1.522 -0.2077  0.2183 -0.4399
   68SOL    HW1  203   0.883   0.677   1.524  1.8858 -0.6824  1.5205
   68SOL    HW2  204   0.940   0.825   1.582 -0.5253 -1.5648 -0.1958
   69SOL     OW  205   2.082   2.900   0.462  0.4033  0.1426  0.2910
   69SOL    HW1  206   2.040   2.813   0.435 -2.0263  0.6405  0.7653
   69SOL    HW2  207   2.036   2.975   0.415  1.1541 -2.0190  2.4297
   70SOL     OW  208   2.689   0.638   2.902 -0.1291 -0.2241 -0.0807
   70SOL    HW1  209   2.768   0.693   2.936 -0.0950 -1.8309  0.8348
   70SOL    HW2  210   2.635   0.608   2.986  0.4110  0.3695  1.3989
   71SOL     OW  211   2.818   1.968   2.960 -0.1943 -0.5057  0.4128
   71SOL    HW1  212   2.795   1.875   2.922 -4.2204 -2.4840 -0.0059
   71SOL    HW2  213   2.918   2.008   2.937  4.3563 -1.4128 -0.5345
   72SOL     OW  214   2.964   1.885   0.441  0.4096  0.1935 -0.0904
   72SOL    HW1  215   2.947   1.790   0.470 -0.9621  3.6266  1.7049
   72SOL    HW2  216   3.038   1.923   0.501  1.2558  2.9167  0.6000
   73SOL     OW  217   0.998   1.011   0.528 -0.3050 -0.0118  0.2637
   73SOL    HW1  218   0.926   1.088   0.536 -2.4319  3.3632 -2.5389
   73SOL    HW2  219   0.981   0.956   0.439  0.5202 -0.9462 -2.7189
   74SOL     OW  220   3.114   2.010   1.919  0.1220 -0.1121  0.9349
   74SOL    HW1  221   0.068   2.080   1.916 -3.7218 -1.1124 -0.7062
   74SOL    HW2  222   0.025   1.939   1.986  0.0823  0.4538 -1.5401
   75SOL     OW  223   1.808   1.315   1.608 -0.4385  0.1920 -0.1192
   75SOL    HW1  224   1.710   1.308   1.571 -0.9978 -1.1725  0.1552
   75SOL    HW2  225   1.790   1.349   1.706 -2.8838  1.4539  2.5565
   76SOL     OW  226   2.000   2.244   1.356  0.1888  0.2456  0.0220
   76SOL    HW1  227   2.042   2.158   1.385  0.2445  1.5735 -1.6927
   76SOL    HW2  228   2.061   2.297   1.290  0.0968 -0.6678  0.2113
   77SOL     OW  229   2.836   1.524   1.622 -0.1601  0.0765  0.1519
   77SOL    HW1  230   2.809   1.535   1.722  0.2609 -0.1562  3.1265
   77SOL    HW2  231   2.933   1.551   1.619  0.4225 -1.2786  2.4012
   78SOL     OW  232   1.548   0.488   0.526  0.4082  0.3826 -0.1880
   78SOL    HW1  233   1.547   0.499   0.629  1.0351 -2.3483  0.5805
   78SOL    HW2  234   1.636   0.434   0.495 -0.5408  0.1420 -3.3879
   79SOL     OW  235   2.331   1.550   1.603  0.3917 -0.1327 -0.0975
   79SOL    HW1  236   2.384   1.583   1.682  0.0672 -1.4841 -1.4879
   79SOL    HW2  237   2.338   1.447   1.599  0.1794 -0.6202  0.3363
   80SOL     OW  238   0.741   0.582   1.485 -0.3027  0.8771  0.1999
   80SOL    HW1  239   0.774   0.486   1.510  0.3100 -1.6772  1.4302
   80SOL    HW2  240   0.699   0.580   1.393  1.3850  0.6604  0.2376
   81SOL     OW  241   0.547   2.605   0.971 -0.0578  0.6237 -0.3624
   81SOL    HW1  242   0.620   2.612   0.898 -0.2897 -0.1473 -0.6554
   81SOL    HW2  243   0.509   2.700   0.988 -0.7963  0.6907 -1.8227
   82SOL     OW  244   1.265   3.109   1.746 -0.2863 -0.0224  0.2867
   82SOL    HW1  245   1.328   0.070   1.738  0.2129  2.5626  1.3329
   82SOL    HW2  246   1.177   0.026   1.786 -0.1610  0.4101  0.9344
   83SOL     OW  247   1.090   1.974   0.647 -0.3035 -0.3777 -0.2545
   83SOL    HW1  248   1.119   2.076   0.653  2.0404  3.9573  0.8047
   83SOL    HW2  249   0.989   1.970   0.621 -0.4202  2.8626 -0.4710
   84SOL     OW  250   0.155   1.470   2.935  0.1025 -0.9160 -0.4888
   84SOL    HW1  251   0.074   1.415   2.963 -1.2906  1.9738  0.7437
   84SOL    HW2  252   0.128   1.570   2.945  0.8828  2.2233 -0.7796
   85SOL     OW  253   0.214   2.279   0.971  0.4565 -0.8054 -0.0462
   85SOL    HW1  254   0.226   2.356   0.899  1.4902 -0.4901 -0.2050
   85SOL    HW2  255   0.278   2.284   1.050  1.5081  0.8607 -1.5010
   86SOL     OW  256   2.092   2.581   1.577  0.2205 -0.2268  0.9108
   86SOL    HW1  257   2.177   2.563   1.522  1.0792  0.5683  2.0301
   86SOL    HW2  258   2.100   2.583   1.677  0.0620  3.2455 -2.2106
   87SOL     OW  259   0.018   2.024   0.628 -0.1736 -0.0773 -0.1235
   87SOL    HW1  260   0.052   2.117   0.659  1.0065  0.6245 -0.6838
   87SOL    HW2  261   0.002   1.962   0.704 -0.4435  2.0072  0.8047
   88SOL     OW  262   0.873   0.662   1.125 -0.3267 -0.7287 -0.0015
   88SOL    HW1  263   0.846   0.737   1.185  0.7696  1.3772  1.1818
   88SOL    HW2  264   0.973   0.635   1.134 -1.1180 -0.6514  1.9599
   89SOL     OW  265   0.912   3.015   1.808 -0.0661  0.1671  0.3569
   89SOL    HW1  266   0.871   3.028   1.715 -1.6693  1.7366  0.8392
   89SOL    HW2  267   0.911   3.097   1.869 -0.3699  1.0039  1.8113
   90SOL     OW  268   0.262   2.083   1.445  0.4703  0.0144  0.1800
   90SOL    HW1  269   0.348   2.069   1.396 -1.5726  0.4717  0.7218
   90SOL    HW2  270   0.282   2.102   1.542 -1.7957  0.1314 -0.1845
   91SOL     OW  271   1.433   2.114   1.313 -0.1453 -0.5061 -0.7102
   91SOL    HW1  272   1.436   2.059   1.399  1.2493 -0.4276  1.1346
   91SOL    HW2  273   1.526   2.100   1.269 -1.0184  1.2768  0.2619
   92SOL     OW  274   2.789   2.853   1.473 -0.5833  0.4886 -0.0354
   92SOL    HW1  275   2.839   2.937   1.459  0.4905 -1.5725  2.0070
   92SOL    HW2  276   2.856   2.784   1.501 -2.5994  0.4777  1.8032
   93SOL     OW  277   3.113   1.272   3.055 -0.9235  0.3863 -0.3800
   93SOL    HW1  278   0.007   1.173   3.037 -0.6260  0.4090 -0.0862
   93SOL    HW2  279   0.045   1.292   0.025  1.5992 -4.3550  0.0016
   94SOL     OW  280   2.800   2.634   2.014  0.7847 -0.1630  0.7101
   94SOL    HW1  281   2.803   2.732   2.046  1.9645  0.1714  0.2992
   94SOL    HW2  282   2.756   2.618   1.921 -1.3986  2.0271 -1.2922
   95SOL     OW  283   1.420   0.590   1.993 -0.3596 -0.0191  0.3105
   95SOL    HW1  284   1.452   0.541   2.077 -1.4396 -0.9471 -1.3423
   95SOL    HW2  285   1.371   0.679   2.010 -0.2321 -1.4727 -0.0779
   96SOL     OW  286   2.632   0.488   1.662 -0.4679 -0.0945 -0.0768
   96SOL    HW1  287   2.562   0.418   1.634 -3.4227 -0.5579 -1.1740
   96SOL    HW2  288   2.723   0.451   1.689 -0.6937 -0.1748 -2.9719
   97SOL     OW  289   2.378   0.277   1.443 -0.1013  0.1832  0.1933
   97SOL    HW1  290   2.359   0.243   1.537  2.6707 -1.2923 -0.5042
   97SOL    HW2  291   2.348   0.373   1.435  1.1987 -0.8690 -2.9039
   98SOL     OW  292   2.186   2.415   1.216 -0.0450 -0.2751  0.0808
   98SOL    HW1  293   2.264   2.447   1.274 -0.6966 -0.4374  0.0063
   98SOL    HW2  294   2.174   2.477   1.135  0.3777  0.0885 -0.2125
   99SOL     OW  295   2.857   0.344   2.144 -0.2890  0.5276  0.7058
   99SOL    HW1  296   2.915   0.321   2.227  2.0339 -0.0993  4.8821
   99SOL    HW2  297   2.798   0.428   2.164 -0.4544  2.2668 -1.2263
  100SOL     OW  298   2.441   1.696   1.818 -0.2669  0.1940 -0.1166
  100SOL    HW1  299   2.386   1.648   1.890  3.7582 -1.6739 -1.1596
  100SOL    HW2  300   2.495   1.767   1.867  0.7073  1.0616  0.7747
  101SOL     OW  301   1.819   0.042   0.733 -0.0686 -0.0993 -0.3082
  101SOL    HW1  302   1.922   0.060   0.755 -0.4779  3.1271 -0.7533
  101SOL    HW2  303   1.796   3.071   0.781 -0.1822  1.0705 -0.8310
  102SOL     OW  304   0.632   0.908   1.324  0.1685 -0.1696 -0.8509
  102SOL    HW1  305   0.629   0.810   1.313 -1.8461  3.0643 -2.1533
  102SOL    HW2  306   0.620   0.944   1.418  0.2239  1.2054  2.9519
  103SOL     OW  307   2.756   0.237   0.047 -0.1223 -0.5832  0.0596
  103SOL    HW1  308   2.763   0.209   3.064 -0.9023  3.3429 -0.8317
  103SOL    HW2  309   2.818   0.318   0.060  0.0125 -0.9229 -0.0423
  104SOL     OW  310   2.707   0.214   1.966 -0.2639 -0.0825  0.0851
  104SOL    HW1  311   2.760   0.186   1.888 -2.7544 -0.5315  3.1837
  104SOL    HW2  312   2.755   0.281   2.029  0.1736  0.9070  2.1930
  105SOL     OW  313   1.847   0.814   2.324  0.4473 -0.2119 -0.1198
  105SOL    HW1  314   1.896   0.724   2.340  0.2424 -2.0533  0.2691
  105SOL    HW2  315   1.920   0.882   2.332  2.0394  0.6829  0.0315
  106SOL     OW  316   1.840   2.953   0.895 -0.2215 -0.2482  0.2964
  106SOL    HW1  317   1.832   2.995   0.989 -1.9810  1.0668  0.1403
  106SOL    HW2  318   1.941   2.937   0.870  5.0109  0.1746 -1.9588
  107SOL     OW  319   0.906   1.239   0.864 -0.4860 -0.6001 -0.1146
  107SOL    HW1  320   0.813   1.200   0.855  1.3711 -1.9298  3.1990
  107SOL    HW2  321   0.901   1.327   0.918  0.0953  0.1873  1.8417
  108SOL     OW  322   2.904   0.575   2.540  0.5681 -0.2469 -0.1661
  108SOL    HW1  323   2.984   0.512   2.547 -2.5476  0.3707  0.1565
  108SOL    HW2  324   2.822   0.524   2.505 -0.1463  1.2627  0.3003
  109SOL     OW  325   2.019   0.192   0.084 -0.2059  0.2351  0.1706
  109SOL    HW1  326   2.004   0.189   3.104 -1.3384  2.8581  2.4401
  109SOL    HW2  327   1.960   0.263   0.126 -0.5712 -2.3241  0.5092
  110SOL     OW  328   0.027   2.235   2.738  0.2765  0.2972 -0.3035
  110SOL    HW1  329   3.107   2.328   2.722 -0.6672 -1.1393  1.1560
  110SOL    HW2  330   3.098   2.187   2.819 -4.9120  0.0103  1.8365
  111SOL     OW  331   2.083   0.125   2.079  0.7604  0.1466 -0.0549
  111SOL    HW1  332   2.115   0.041   2.029 -0.6820 -0.9458  0.8486
  111SOL    HW2  333   2.126   0.135   2.173  0.7732 -1.0207  0.8044
  112SOL     OW  334   2.414   3.032   0.728 -0.8330 -0.7493  0.1930
  112SOL    HW1  335   2.400   3.103   0.799  0.0320  1.7296 -2.0857
  112SOL    HW2  336   2.350   3.036   0.650  1.5468 -0.0944 -0.0580
  113SOL     OW  337   2.415   2.399   1.733  0.1037  0.6247  0.0632
  113SOL    HW1  338   2.355   2.462   1.680 -0.8799  0.3562  0.8006
  113SOL    HW2  339   2.380   2.389   1.830  2.8700  1.2159 -2.8088
  114SOL     OW  340   3.076   0.647   0.634  0.4891 -0.1921 -0.5022
  114SOL    HW1  341   3.022   0.630   0.720  0.0437 -2.2301  0.8501
  114SOL    HW2  342   0.062   0.634   0.652  3.6492  1.3208  0.9378
  115SOL     OW  343   2.701   1.865   0.109  0.3186  0.0766  0.4388
  115SOL    HW1  344   2.764   1.940   0.131 -0.5335 -1.2066 -2.2178
  115SOL    HW2  345   2.714   1.828   0.016  0.1712  3.2941  1.4821
  116SOL     OW  346   3.042   1.638   1.933 -0.1097  0.4768  0.1195
  116SOL    HW1  347   2.951   1.643   1.981  0.0776 -0.1420  1.1185
  116SOL    HW2  348   3.021   1.645   1.834  1.2466  0.8586  1.8702
  117SOL     OW  349   2.667   3.020   0.615 -0.3655  0.2067  0.1089
  117SOL    HW1  350   2.579   3.030   0.664 -0.4134  1.1159 -1.5055
  117SOL    HW2  351   2.657   3.027   0.516 -0.0272 -1.6211  1.6908
  118SOL     OW  352   0.492   2.616   1.644  0.4959 -0.2253 -0.1715
  118SOL    HW1  353   0.482   2.517   1.616 -1.1058 -3.3367  0.3118
  118SOL    HW2  354   0.590   2.632   1.666 -1.5718  0.7705 -0.1266
  119SOL     OW  355   1.780   2.258   0.990  0.3535 -0.1596  0.2416
  119SOL    HW1  356   1.881   2.262   0.962  3.0086  1.5589  1.8904
  119SOL    HW2  357   1.748   2.334   1.049 -2.1895 -0.6050 -0.5732
  120SOL     OW  358   0.407   1.858   2.231 -0.1304 -0.1167 -0.2829
  120SOL    HW1  359   0.482   1.810   2.278  1.0004  2.1842  0.3633
  120SOL    HW2  360   0.384   1.944   2.281  0.3108  0.0805 -1.5046
  121SOL     OW  361   2.729   1.497   0.920  0.0852  0.5306 -0.1500
  121SOL    HW1  362   2.659   1.515   0.991  3.5877 -0.7719  0.5824
  121SOL    HW2  363   2.762   1.402   0.920  0.0588  3.0374  0.6759
  122SOL     OW  364   1.977   1.589   2.505  0.1475 -0.0299  0.4623
  122SOL    HW1  365   1.934   1.584   2.412  2.0309 -0.3109 -1.9651
  122SOL    HW2  366   2.069   1.633   2.500 -1.2870 -0.2765 -1.4354
  123SOL     OW  367   2.879   0.246   0.709 -0.0719 -0.0458  0.1873
  123SOL    HW1  368   2.964   0.302   0.727  1.0284  2.4166  0.4128
  123SOL    HW2  369   2.892   0.146   0.739 -0.8641  0.9170  1.1810
  124SOL     OW  370   1.484   1.194   2.829  0.0941  0.3721 -0.0843
  124SOL    HW1  371   1.422   1.206   2.907  1.8503  2.9362  0.5701
  124SOL    HW2  372   1.572   1.161   2.864 -2.5812 -1.7227  1.5538
  125SOL     OW  373   0.284   1.737   2.508  0.4802  0.2707  0.4657
  125SOL    HW1  374   0.339   1.726   2.592 -0.3390 -0.3024 -0.6473
  125SOL    HW2  375   0.344   1.735   2.426 -0.6025 -1.0950 -0.4789
  126SOL     OW  376   2.786   2.068   0.321 -0.1544  0.0708 -0.0120
  126SOL    HW1  377   2.860   2.141   0.330  0.1112  1.8184 -5.5631
  126SOL    HW2  378   2.827   1.986   0.367  1.5526 -0.1437  1.4958
  127SOL     OW  379   0.642   1.733   1.050  0.6766 -0.1862  0.7166
  127SOL    HW1  380   0.657   1.695   1.147  0.0258 -1.4038  3.4583
  127SOL    HW2  381   0.548   1.702   1.016 -2.5950  1.5311 -1.8198
  128SOL     OW  382   1.452   0.869   3.082  0.1686 -0.3882 -0.3878
  128SOL    HW1  383   1.405   0.871   0.059 -0.0813  1.2432  3.8341
  128SOL    HW2  384   1.547   0.906   3.090 -1.2227  0.4101  3.2818
  129SOL     OW  385   2.499   1.709   1.431 -0.0309  0.3492  0.6006
  129SOL    HW1  386   2.454   1.788   1.393  0.8524  0.6651  0.8058
  129SOL    HW2  387   2.442   1.653   1.493 -0.6426  1.7137 -1.2939
  130SOL     OW  388   1.954   1.303   0.456  0.6807 -0.5428  0.1492
  130SOL    HW1  389   2.057   1.308   0.444  0.0207  2.3420 -0.3774
  130SOL    HW2  390   1.932   1.288   0.556 -0.5110  1.8007  2.8251
  131SOL     OW  391   2.939   1.169   2.574 -0.1161 -0.2961 -0.0541
  131SOL    HW1  392   2.889   1.084   2.600 -0.1587 -0.7415 -2.5496
  131SOL    HW2  393   2.900   1.255   2.616  0.8335  0.2771  0.6849
  132SOL     OW  394   2.090   1.627   1.608 -0.2625  0.0775 -0.0159
  132SOL    HW1  395   2.184   1.600   1.597 -0.4908  1.1445 -0.5323
  132SOL    HW2  396   2.047   1.606   1.699  3.1907  0.8741 -0.0897
  133SOL     OW  397   0.372   1.378   3.063 -0.4049 -0.1255  0.1693
  133SOL    HW1  398   0.286   1.394   3.009  0.3528  0.6086 -0.4610
  133SOL    HW2  399   0.361   1.411   0.040  0.3889  1.0169 -2.1209
  134SOL     OW  400   2.755   1.504   0.080  0.0483  0.4439  0.6533
  134SOL    HW1  401   2.787   1.410   0.067 -2.0577  1.5404 -1.5394
  134SOL    HW2  402   2.789   1.541   0.169  1.1234 -0.9142 -0.2680
  135SOL     OW  403   2.591   1.125   0.314  0.0704 -0.3302  0.0018
  135SOL    HW1  404   2.494   1.150   0.316  2.7788  0.5394 -2.0280
  135SOL    HW2  405   2.642   1.211   0.317 -2.7318  1.5279  1.3313
  136SOL     OW  406   1.998   1.427   1.469 -0.3747  0.1044 -0.2807
  136SOL    HW1  407   2.021   1.519   1.514 -0.0096 -0.3042  1.6784
  136SOL    HW2  408   1.926   1.375   1.526 -2.5783  0.6963  0.3237
  137SOL     OW  409   2.535   2.130   0.214 -0.2753  0.1576 -0.1181
  137SOL    HW1  410   2.483   2.044   0.216 -3.4844 -1.3136 -0.1451
  137SOL    HW2  411   2.613   2.105   0.275  0.5052 -4.5603  1.5096
  138SOL     OW  412   1.637   0.241   1.844 -0.1447  0.0001  0.1547
  138SOL    HW1  413   1.687   0.159   1.813 -2.0959  0.3420 -2.1692
  138SOL    HW2  414   1.712   0.318   1.845  0.1659  1.3495  0.7631
  139SOL     OW  415   2.442   0.196   0.094 -0.3081 -0.4765 -0.5019
  139SOL    HW1  416   2.534   0.199   0.052  2.2967  0.9015 -0.4002
  139SOL    HW2  417   2.443   0.111   0.151  1.6158 -1.2464  0.5998
  140SOL     OW  418   1.414   2.000   2.737  0.3029  0.1152 -0.0107
  140SOL    HW1  419   1.481   1.946   2.790  0.2134 -0.9879 -3.0101
  140SOL    HW2  420   1.320   1.981   2.759 -0.1582 -0.1648 -2.2093
  141SOL     OW  421   0.887   0.993   1.991  0.0262  0.2712  0.4658
  141SOL    HW1  422   0.845   0.979   2.084  2.0107  0.0554 -1.0347
  141SOL    HW2  423   0.935   0.913   1.947  0.1905 -0.4996  0.6823
  142SOL     OW  424   2.122   2.560   3.103  0.4811  0.2427  0.2922
  142SOL    HW1  425   2.109   2.643   3.043  0.2308  0.4640 -3.1279
  142SOL    HW2  426   2.208   2.515   3.071  3.4905  0.0778 -0.0348
  143SOL     OW  427   0.779   2.006   3.097 -0.1685  0.4519  0.1255
  143SOL    HW1  428   0.858   2.069   0.002  0.9840 -0.5341  1.3627
  143SOL    HW2  429   0.706   2.009   0.052  0.2610  0.0434  1.4209
  144SOL     OW  430   1.143   2.741   0.178 -0.2082 -0.1391  0.0597
  144SOL    HW1  431   1.125   2.749   0.078  1.0043  1.8379  0.7225
  144SOL    HW2  432   1.075   2.670   0.217 -3.2480 -3.4260  1.6927
  145SOL     OW  433   2.171   1.812   2.885 -0.4300  0.6263 -0.2057
  145SOL    HW1  434   2.241   1.877   2.917 -1.5470 -0.2206 -1.2873
  145SOL    HW2  435   2.091   1.834   2.941  0.1487 -0.7088 -2.5632
  146SOL     OW  436   2.458   2.838   2.623  0.2689  0.2405 -0.3212
  146SOL    HW1  437   2.362   2.868   2.602 -1.0808  0.4133 -1.1812
  146SOL    HW2  438   2.506   2.912   2.675 -1.0331 -3.7821 -1.4568
  147SOL     OW  439   2.685   1.815   1.086 -0.0124  0.3026  0.0339
  147SOL    HW1  440   2.774   1.841   1.120 -0.8926  1.1655 -0.4773
  147SOL    HW2  441   2.676   1.713   1.092  0.0071  0.9389  0.7491
  148SOL     OW  442   1.828   3.046   3.010  0.0897 -0.0943 -0.0480
  148SOL    HW1  443   1.764   3.003   2.938 -1.6412 -1.4030 -3.3292
  148SOL    HW2  444   1.786   3.035   3.104  2.0807  1.0519  0.4870
  149SOL     OW  445   1.048   1.410   2.761  0.0480  0.0488 -0.1140
  149SOL    HW1  446   1.127   1.424   2.825  0.8184 -0.7007 -1.0326
  149SOL    HW2  447   0.979   1.351   2.805  0.1159 -1.4502  0.1821
  150SOL     OW  448   0.489   2.227   0.728 -0.4867  0.2113 -0.0011
  150SOL    HW1  449   0.513   2.274   0.816  1.8250 -0.5741 -3.3500
  150SOL    HW2  450   0.483   2.130   0.758 -1.9217  0.3508  1.6408
  151SOL     OW  451   0.455   1.845   0.027 -0.0455  0.7519 -0.0294
  151SOL    HW1  452   0.525   1.908   0.069  3.8197  1.8427  3.8910
  151SOL    HW2  453   0.491   1.749   0.015  2.2039 -2.4146  1.7591
  152SOL     OW  454   2.843   1.270   0.361 -0.3451  0.0392 -0.3404
  152SOL    HW1  455   2.811   1.279   0.455  1.7607 -0.5908 -3.0531
  152SOL    HW2  456   2.896   1.355   0.336  2.4641  0.1942  1.3066
  153SOL     OW  457   2.141   2.341   0.414  0.7933  0.3073  0.2521
  153SOL    HW1  458   2.065   2.284   0.372 -1.7181 -1.2425 -0.5673
  153SOL    HW2  459   2.104   2.433   0.429  0.7984 -1.8073  0.6629
  154SOL     OW  460   0.617   2.926   0.586 -0.0182  0.1192 -0.0834
  154SOL    HW1  461   0.720   2.917   0.597  2.9308 -0.6701  0.6693
  154SOL    HW2  462   0.564   2.863   0.651  1.0759 -0.9849 -0.0423
  155SOL     OW  463   0.390   1.947   0.912 -0.4402  0.6231 -0.3657
  155SOL    HW1  464   0.434   1.920   1.002  0.0585  2.0227  0.9611
  155SOL    HW2  465   0.298   1.980   0.939  0.2687  1.5495  1.6336
  156SOL     OW  466   2.340   2.384   3.100  0.3113 -0.5599  0.3523
  156SOL    HW1  467   2.429   2.412   3.053 -0.1228 -1.4627 -0.1343
  156SOL    HW2  468   2.354   2.360   0.079  2.2674  1.1824 -1.1694
  157SOL     OW  469   1.128   2.110   1.429 -0.0922 -0.3884 -1.0834
  157SOL    HW1  470   1.150   2.203   1.389 -0.9147 -0.5564  0.5680
  157SOL    HW2  471   1.198   2.092   1.506  3.1880 -2.1175  2.7026
  158SOL     OW  472   1.798   0.352   0.199 -0.4309  0.1767  0.2834
  158SOL    HW1  473   1.789   0.436   0.141  1.0475  3.5436 -0.8644
  158SOL    HW2  474   1.749   0.273   0.159  1.1801  0.8739  0.6899
  159SOL     OW  475   1.117   0.630   0.048 -0.0040 -0.3053 -0.5430
  159SOL    HW1  476   1.210   0.626   0.013  0.1901  0.7113 -0.1180
  159SOL    HW2  477   1.121   0.634   0.151  1.9918 -0.7136  3.0402
  160SOL     OW  478   1.245   1.523   0.087 -0.7405  0.2875  0.6105
  160SOL    HW1  479   1.297   1.605   0.125  1.9102  3.0541  0.1076
  160SOL    HW2  480   1.188   1.473   0.158 -0.1660  2.5922  2.4414
  161SOL     OW  481   0.121   2.145   2.461 -0.2785 -0.1663  0.2838
  161SOL    HW1  482   0.075   2.159   2.549 -0.8561 -0.7085 -1.5925
  161SOL    HW2  483   0.096   2.056   2.414 -0.5230 -3.2124 -1.0751
  162SOL     OW  484   0.525   2.343   0.970 -0.1277  0.0089  0.0590
  162SOL    HW1  485   0.510   2.442   0.960  1.3221 -2.6447 -0.8201
  162SOL    HW2  486   0.459   2.302   1.035  0.2416  1.4725  1.3873
  163SOL     OW  487   3.023   0.656   0.074 -0.3304 -0.4228 -0.7711
  163SOL    HW1  488   3.042   0.644   3.094 -0.4684  2.3898  4.1691
  163SOL    HW2  489   3.060   0.748   0.104  0.1581  0.0150 -1.0700
  164SOL     OW  490   0.447   0.191   2.835  0.0590 -0.4127 -0.2579
  164SOL    HW1  491   0.435   0.183   2.936 -1.9412 -0.8348  2.5432
  164SOL    HW2  492   0.497   0.111   2.794 -0.5035 -2.0016 -0.6557
  165SOL     OW  493   2.013   0.434   1.447 -0.2652 -0.2677  0.1486
  165SOL    HW1  494   2.036   0.534   1.451  3.8770  2.2765 -1.6107
  165SOL    HW2  495   2.001   0.408   1.352  0.4290 -4.2277  0.1490
  166SOL     OW  496   2.114   2.898   1.493 -0.3498  0.4914 -0.1843
  166SOL    HW1  497   2.178   2.927   1.567  3.0819 -3.7306 -0.3879
  166SOL    HW2  498   2.056   2.822   1.525  0.7606 -2.4086 -1.6074
  167SOL     OW  499   1.043   0.553   1.972 -0.3874  0.0526  0.4621
  167SOL    HW1  500   0.967   0.541   2.042  1.5215  1.7039  1.6416
  167SOL    HW2  501   1.121   0.486   1.975  1.7495 -2.0057  0.0357
  168SOL     OW  502   2.447   0.215   2.091 -0.5482 -0.1918 -0.5192
  168SOL    HW1  503   2.508   0.207   2.014 -2.4816  3.6428  3.6616
  168SOL    HW2  504   2.403   0.128   2.118  0.1678  1.2146  0.5625
  169SOL     OW  505   0.258   1.467   0.195  0.2088  0.9253  0.1787
  169SOL    HW1  506   0.191   1.539   0.214  0.5550 -2.4590 -3.2848
  169SOL    HW2  507   0.208   1.380   0.189  0.3391  4.0209  2.4634
  170SOL     OW  508   0.219   1.592   1.540 -0.3489 -0.3317  0.3532
  170SOL    HW1  509   0.306   1.639   1.563 -0.2659 -0.0973  1.0596
  170SOL    HW2  510   0.187   1.617   1.450 -0.2937 -0.6241  0.2523
  171SOL     OW  511   0.884   2.490   2.322 -0.7207  0.2594  0.0377
  171SOL    HW1  512   0.808   2.421   2.302  1.5197 -1.5973  2.3106
  171SOL    HW2  513   0.971   2.441   2.347 -0.1786 -1.0708  2.4825
  172SOL     OW  514   0.808   2.769   1.530  0.0841 -0.3043  0.5291
  172SOL    HW1  515   0.789   2.737   1.624 -0.8472 -2.5065 -0.2195
  172SOL    HW2  516   0.847   2.694   1.470  1.9020  1.7495  1.2187
  173SOL     OW  517   1.533   2.285   0.881  0.1616 -0.2406  0.0144
  173SOL    HW1  518   1.631   2.254   0.892  1.9615 -2.9618  0.7569
  173SOL    HW2  519   1.490   2.307   0.970  0.3334 -0.5391 -2.9354
  174SOL     OW  520   1.354   0.140   0.605  0.5683 -0.7154  0.0818
  174SOL    HW1  521   1.395   0.183   0.687 -1.9159 -0.5139  1.3028
  174SOL    HW2  522   1.423   0.073   0.570 -0.0304  2.2348 -0.2257
  175SOL     OW  523   1.195   1.386   0.320 -0.6813  0.3149 -0.4280
  175SOL    HW1  524   1.228   1.290   0.310 -0.9172 -2.8877 -2.5236
  175SOL    HW2  525   1.166   1.402   0.419 -0.0314  1.8539  0.4323
  176SOL     OW  526   1.508   0.745   0.413 -0.1468  0.0987 -0.2349
  176SOL    HW1  527   1.587   0.733   0.348  0.8913  1.2587  0.8120
  176SOL    HW2  528   1.499   0.662   0.474 -1.1622  0.2743  1.6866
  177SOL     OW  529   1.188   0.558   1.369  0.0419 -0.5067 -0.1610
  177SOL    HW1  530   1.118   0.527   1.429  3.1479 -0.2080 -3.2702
  177SOL    HW2  531   1.236   0.641   1.412  1.4798  1.7041  2.2747
  178SOL     OW  532   2.698   1.681   3.005 -0.1586 -0.0816 -0.4914
  178SOL    HW1  533   2.717   1.603   3.071 -0.8680 -0.4515  0.2903
  178SOL    HW2  534   2.625   1.659   2.936  0.0855  2.3499  1.4060
  179SOL     OW  535   0.586   2.516   3.089  0.3178 -0.2126 -0.0736
  179SOL    HW1  536   0.567   2.612   3.071  2.1617 -1.7107 -0.9741
  179SOL    HW2  537   0.655   2.509   0.044 -0.4988  3.4547 -2.0954
  180SOL     OW  538   1.968   1.538   1.842 -0.1479 -0.0463 -0.5459
  180SOL    HW1  539   2.026   1.489   1.909 -1.2575 -0.1883  1.8232
  180SOL    HW2  540   1.874   1.492   1.841 -2.1935  1.3393  0.7007
  181SOL     OW  541   1.129   1.255   2.297 -0.0306 -0.4805 -1.0713
  181SOL    HW1  542   1.123   1.240   2.199 -0.8121  1.2627  1.6016
  181SOL    HW2  543   1.187   1.180   2.342  0.9779 -3.7587  1.4307
  182SOL     OW  544   3.048   1.131   2.323  0.8674  0.4456  0.5128
  182SOL    HW1  545   0.017   1.185   2.307  2.8070  0.6558  1.2440
  182SOL    HW2  546   3.002   1.151   2.413 -0.7708  1.3461 -1.6570
  183SOL     OW  547   1.643   0.565   2.208  0.0098 -0.0020  0.3638
  183SOL    HW1  548   1.626   0.620   2.292  0.0868  1.4548  0.1647
  183SOL    HW2  549   1.741   0.560   2.186 -0.5972  0.9540  1.6525
  184SOL     OW  550   0.228   0.718   1.610 -0.1132 -0.0603 -0.1896
  184SOL    HW1  551   0.325   0.739   1.583 -0.3019 -1.1619 -1.3681
  184SOL    HW2  552   0.167   0.742   1.533 -3.1869  1.6673 -0.9023
  185SOL     OW  553   2.304   1.745   0.793  0.2075  0.1812 -0.4754
  185SOL    HW1  554   2.271   1.829   0.837 -2.0935  3.6443  1.1921
  185SOL    HW2  555   2.386   1.763   0.733  1.0904  1.6379 -3.6803
  186SOL     OW  556   0.581   1.696   2.775  0.3985 -0.5580  0.3744
  186SOL    HW1  557   0.647   1.772   2.807  1.8951  0.3049 -0.2045
  186SOL    HW2  558   0.485   1.733   2.769  0.0563  2.9415 -2.3060
  187SOL     OW  559   2.361   1.962   3.012  0.0321 -0.0725 -0.3607
  187SOL    HW1  560   2.453   1.998   2.978  0.7033 -0.8551  2.8966
  187SOL    HW2  561   2.379   1.931   3.107  3.6218 -0.4801 -1.2897
  188SOL     OW  562   0.669   2.301   0.495  0.2771 -0.1740  0.0290
  188SOL    HW1  563   0.625   2.267   0.581 -1.2667  1.6309 -1.0521
  188SOL    HW2  564   0.600   2.341   0.435  1.4528 -0.0072  0.6008
  189SOL     OW  565   2.231   0.513   2.867  1.0098 -0.1919 -0.1841
  189SOL    HW1  566   2.138   0.520   2.911 -2.8079  1.0940  1.1187
  189SOL    HW2  567   2.247   0.603   2.828 -2.7100 -0.4856 -1.0549
  190SOL     OW  568   1.153   1.991   2.215  0.4029 -0.2789  0.4440
  190SOL    HW1  569   1.121   2.086   2.235 -1.7413  1.1044 -1.9901
  190SOL    HW2  570   1.153   1.931   2.295 -0.6614  2.9198 -0.3513
  191SOL     OW  571   2.240   0.770   1.320  0.0168 -0.4550  0.0783
  191SOL    HW1  572   2.256   0.835   1.397 -1.7116  0.9916  0.8970
  191SOL    HW2  573   2.268   0.814   1.234 -2.0943  2.9767  3.7103
  192SOL     OW  574   2.033   0.389   2.024 -0.1687  0.5326  0.0577
  192SOL    HW1  575   2.128   0.423   2.035  2.0795  0.2084  0.7164
  192SOL    HW2  576   2.031   0.288   2.042  0.9752 -2.1500  0.7033
  193SOL     OW  577   0.027   0.504   0.943 -0.3927 -0.7196 -0.2147
  193SOL    HW1  578   0.034   0.455   1.031 -0.3700  2.0798 -3.3935
  193SOL    HW2  579   0.105   0.573   0.933 -0.5197  1.6974  2.3352
  194SOL     OW  580   1.515   2.528   1.666 -0.1775  0.1470  0.1805
  194SOL    HW1  581   1.479   2.557   1.574 -0.9139 -1.0552 -4.8648
  194SOL    HW2  582   1.609   2.497   1.673 -0.1228 -3.3395  0.2216
  195SOL     OW  583   2.732   0.634   0.654  0.0709 -0.0905  0.3657
  195SOL    HW1  584   2.718   0.535   0.647  1.5909  4.7552 -1.9944
  195SOL    HW2  585   2.833   0.647   0.670  2.4265  0.3499  3.7819
  196SOL     OW  586   1.246   1.879   1.714 -0.1529  0.2811  0.0549
  196SOL    HW1  587   1.285   1.970   1.682  0.6678  0.6139 -0.2394
  196SOL    HW2  588   1.309   1.803   1.698 -0.6933  0.7442  0.5882
  197SOL     OW  589   0.227   0.287   2.720 -0.3072 -0.2776  0.4031
  197SOL    HW1  590   0.312   0.257   2.765  1.0719  0.9801  0.4358
  197SOL    HW2  591   0.228   0.390   2.704  0.3286  0.4489 -0.7869
  198SOL     OW  592   1.280   1.175   0.651 -0.2517  0.2967 -0.4653
  198SOL    HW1  593   1.312   1.105   0.588  0.5907  1.9357  1.8723
  198SOL    HW2  594   1.193   1.223   0.625 -2.6496 -2.3038 -0.3314
  199SOL     OW  595   2.482   0.559   1.899 -0.5306 -0.1961 -0.1097
  199SOL    HW1  596   2.554   0.583   1.970  3.5186  0.7969  1.4697
  199SOL    HW2  597   2.530   0.539   1.814 -0.3160  0.2839 -2.0362
  200SOL     OW  598   2.400   2.655   2.164  0.2687  0.0088 -0.0579
  200SOL    HW1  599   2.462   2.735   2.178 -1.9056 -0.1489  0.1067
  200SOL    HW2  600   2.438   2.562   2.193 -0.0705  0.4424 -0.9077
  201SOL     OW  601   2.318   0.166   1.684  1.0035 -0.0310  0.6203
  201SOL    HW1  602   2.218   0.166   1.701  2.0455  2.4194 -0.8418
  201SOL    HW2  603   2.376   0.095   1.725  1.8687  2.1241  2.3263
  202SOL     OW  604   2.138   2.959   0.160  0.3698 -0.2777 -0.2436
  202SOL    HW1  605   2.055   2.994   0.208  0.1666  0.5677 -1.0842
  202SOL    HW2  606   2.132   2.980   0.062  1.6138 -1.9642  1.1715
  203SOL     OW  607   1.109   2.221   2.374 -0.2868  0.5178  0.1758
  203SOL    HW1  608   1.021   2.185   2.413 -0.4345 -1.0502  0.0760
  203SOL    HW2  609   1.187   2.189   2.422 -2.4711 -1.9559 -0.6342
  204SOL     OW  610   1.121   1.449   2.495 -0.0368  0.3365  0.1125
  204SOL    HW1  611   1.098   1.435   2.597 -2.1974 -0.2535  0.9187
  204SOL    HW2  612   1.094   1.376   2.430 -2.1352  0.0404  0.5663
  205SOL     OW  613   0.953   1.174   1.223 -0.1742  0.5018  0.4088
  205SOL    HW1  614   0.965   1.074   1.253  2.4206 -0.3706 -1.4630
  205SOL    HW2  615   1.044   1.217   1.225 -1.8272 -1.7949 -0.1146
  206SOL     OW  616   0.521   0.451   2.823 -0.2207 -0.5855  0.9694
  206SOL    HW1  617   0.516   0.475   2.726  0.3734 -1.4817  0.7953
  206SOL    HW2  618   0.503   0.353   2.833 -0.6385 -1.2512 -3.4487
  207SOL     OW  619   1.640   2.722   2.382  0.4456 -0.1732 -0.3923
  207SOL    HW1  620   1.712   2.792   2.366  0.7148  1.2494  1.5952
  207SOL    HW2  621   1.548   2.749   2.343 -0.4157  2.2929 -0.1958
  208SOL     OW  622   0.826   2.579   1.329  0.5065 -0.4389 -0.8235
  208SOL    HW1  623   0.879   2.632   1.260  1.5987 -0.1262  0.3008
  208SOL    HW2  624   0.838   2.479   1.321  1.6795  2.7859 -1.6020
  209SOL     OW  625   1.583   1.378   2.660 -0.2589 -0.1119  0.1440
  209SOL    HW1  626   1.644   1.325   2.603 -2.0103  1.2038 -1.3537
  209SOL    HW2  627   1.548   1.322   2.736  2.0959  5.3597 -4.2037
  210SOL     OW  628   1.909   1.029   0.860  0.4119  0.1897 -0.4593
  210SOL    HW1  629   1.932   0.988   0.949 -0.9772  3.3665 -0.0949
  210SOL    HW2  630   1.979   1.007   0.785 -0.3831  2.2865  0.0967
  211SOL     OW  631   0.820   2.525   0.571  0.1813  0.3788  0.1669
  211SOL    HW1  632   0.859   2.592   0.508  1.0690 -0.1993  2.9754
  211SOL    HW2  633   0.776   2.449   0.518  1.9699  2.3046  0.8356
  212SOL     OW  634   1.946   1.758   0.293  0.0849 -0.3577 -0.3177
  212SOL    HW1  635   1.904   1.820   0.226  0.6454 -4.9507  1.5529
  212SOL    HW2  636   1.962   1.804   0.380 -0.4156 -0.8909 -1.5104
  213SOL     OW  637   1.726   0.432   2.935 -0.2484 -0.8493  0.3320
  213SOL    HW1  638   1.772   0.342   2.922  0.1838 -0.0973  1.7427
  213SOL    HW2  639   1.645   0.432   2.870 -0.3306 -0.9388  0.2056
  214SOL     OW  640   1.204   1.580   2.081  0.0240 -0.2787  0.3570
  214SOL    HW1  641   1.112   1.546   2.055 -0.6917  0.7483  1.1201
  214SOL    HW2  642   1.208   1.670   2.038 -1.5160 -3.2000 -0.6999
  215SOL     OW  643   0.822   1.760   0.301 -0.1113 -0.2552 -0.4737
  215SOL    HW1  644   0.864   1.776   0.207 -0.8464  0.2502  0.4740
  215SOL    HW2  645   0.724   1.779   0.302 -0.9418 -0.2190  0.6648
  216SOL     OW  646   0.208   3.014   2.527  0.3896  0.1147  0.4063
  216SOL    HW1  647   0.270   2.931   2.528  1.4195 -2.3661 -3.5344
  216SOL    HW2  648   0.129   3.001   2.458  1.1631  1.2183 -0.0232
  217SOL     OW  649   2.579   0.757   0.997  0.1845 -0.3631  0.2122
  217SOL    HW1  650   2.575   0.676   0.933 -1.5755 -0.8643 -3.5752
  217SOL    HW2  651   2.604   0.732   1.094  0.2963  1.6117  3.6230
  218SOL     OW  652   1.790   1.673   2.274 -0.4531 -0.1125  0.3176
  218SOL    HW1  653   1.752   1.711   2.184  2.9867  0.2212 -0.5748
  218SOL    HW2  654   1.733   1.700   2.354  0.1846 -0.3385  2.7225
  219SOL     OW  655   2.150   1.619   0.136 -0.1666  0.3408  0.2723
  219SOL    HW1  656   2.127   1.606   0.032  0.5628 -0.5623 -1.1101
  219SOL    HW2  657   2.076   1.670   0.182  0.0946  1.3622 -0.3166
  220SOL     OW  658   1.444   1.040   0.476  0.5836  0.5171  0.1453
  220SOL    HW1  659   1.466   0.946   0.463 -0.1501  1.0433  1.6273
  220SOL    HW2  660   1.524   1.102   0.498  0.3464  0.0802  0.0411
  221SOL     OW  661   0.633   0.602   3.015  0.0643 -0.3703  0.2860
  221SOL    HW1  662   0.576   0.626   3.091 -0.9003  0.7876 -2.4128
  221SOL    HW2  663   0.575   0.551   2.949 -0.4124 -0.9927  0.6074
  222SOL     OW  664   1.525   1.423   0.138  0.3270  0.0439 -0.2041
  222SOL    HW1  665   1.534   1.474   0.221 -0.5470 -0.8860 -2.1561
  222SOL    HW2  666   1.426   1.433   0.104  1.4137 -0.2193  1.1099
  223SOL     OW  667   1.164   0.280   0.169  0.2155  0.4878  0.6053
  223SOL    HW1  668   1.070   0.325   0.178 -0.3401 -0.0456 -0.8641
  223SOL    HW2  669   1.233   0.295   0.239 -0.8586 -2.6757 -1.0442
  224SOL     OW  670   2.002   0.057   1.470 -0.5410  0.3371 -0.4590
  224SOL    HW1  671   1.999   0.087   1.569  1.9657  2.4763  4.0537
  224SOL    HW2  672   2.023   3.074   1.459 -1.6273  1.0411  0.1305
  225SOL     OW  673   0.380   2.479   1.379  0.1210 -0.5772  0.4260
  225SOL    HW1  674   0.427   2.438   1.459 -0.4858  0.4559 -1.3953
  225SOL    HW2  675   0.420   2.573   1.357  0.8198  0.2149 -2.1921
  226SOL     OW  676   1.244   1.488   2.930 -0.0952 -0.0006  0.1795
  226SOL    HW1  677   1.274   1.575   2.886 -0.1195  1.6976  2.6661
  226SOL    HW2  678   1.253   1.487   3.034  2.3533 -0.4641  0.9949
  227SOL     OW  679   1.187   1.507   0.798  0.3394 -0.3397  0.2531
  227SOL    HW1  680   1.161   1.607   0.784 -2.1055  1.6806  2.4896
  227SOL    HW2  681   1.202   1.485   0.896 -0.9526  0.6802 -0.4236
  228SOL     OW  682   0.343   1.927   0.430  0.5253 -0.2423 -0.0096
  228SOL    HW1  683   0.350   1.897   0.528  1.9005 -0.6946  0.2778
  228SOL    HW2  684   0.328   2.028   0.416 -1.0021 -1.9957 -0.0823
  229SOL     OW  685   1.432   0.139   3.019 -0.1615 -0.0910  0.2996
  229SOL    HW1  686   1.439   0.130   2.918 -1.0549 -0.8304  1.1265
  229SOL    HW2  687   1.380   0.227   3.037 -2.1412  1.7961 -0.3006
  230SOL     OW  688   1.529   0.849   2.666  0.2120 -0.2429 -0.2919
  230SOL    HW1  689   1.612   0.857   2.730  2.6020  3.6113  0.2020
  230SOL    HW2  690   1.453   0.917   2.681 -0.1237 -0.8701  0.1194
  231SOL     OW  691   1.151   1.756   2.381 -0.0592  0.2580  0.1073
  231SOL    HW1  692   1.179   1.766   2.481 -0.5126  1.2744 -0.2924
  231SOL    HW2  693   1.135   1.658   2.360  0.1943  1.9186 -1.0496
  232SOL     OW  694   2.349   2.344   0.258 -0.2379  0.6589 -0.2175
  232SOL    HW1  695   2.273   2.347   0.328 -1.0390 -0.3942  0.5037
  232SOL    HW2  696   2.403   2.258   0.256 -4.2904  2.8600 -1.5380
  233SOL     OW  697   2.383   2.629   0.310 -0.0602 -0.4876  0.4536
  233SOL    HW1  698   2.297   2.687   0.307  0.4005  1.2748  2.1251
  233SOL    HW2  699   2.361   2.532   0.279 -2.1321 -4.0904 -0.6721
  234SOL     OW  700   0.765   0.808   2.885 -0.2440  0.6577 -0.1326
  234SOL    HW1  701   0.710   0.729   2.921  1.4208 -0.0528 -1.6267
  234SOL    HW2  702   0.862   0.807   2.912 -1.4563 -0.0750 -3.2789
  235SOL     OW  703   2.922   0.329   2.864 -0.0302  0.6093 -0.3689
  235SOL    HW1  704   2.943   0.238   2.908 -1.7456  1.4118 -1.2007
  235SOL    HW2  705   2.840   0.323   2.807 -0.7588 -0.9454 -0.6133
  236SOL     OW  706   2.057   2.544   1.845  0.0076  0.7465 -0.3875
  236SOL    HW1  707   2.014   2.453   1.852  2.7903 -0.4468 -1.2263
  236SOL    HW2  708   1.994   2.618   1.873 -1.0026 -0.9401 -2.2319
  237SOL     OW  709   0.690   1.665   2.091 -0.1128  0.1957 -0.4354
  237SOL    HW1  710   0.773   1.721   2.119  1.9846 -0.1109  1.3458
  237SOL    HW2  711   0.665   1.593   2.160 -0.3498 -2.4618  0.5198
  238SOL     OW  712   1.539   0.415   2.724 -0.3965  0.3418  0.6266
  238SOL    HW1  713   1.458   0.477   2.722  0.4172 -1.4178  0.5288
  238SOL    HW2  714   1.517   0.316   2.740  1.2462 -5.0037  0.4771
  239SOL     OW  715   0.373   2.113   1.714 -0.6029  0.3946 -0.0515
  239SOL    HW1  716   0.296   2.106   1.777 -0.6540  0.5611 -0.7545
  239SOL    HW2  717   0.458   2.063   1.747 -0.8240  0.7629 -0.2607
  240SOL     OW  718   2.665   2.218   0.528  0.7128 -0.1051 -0.3828
  240SOL    HW1  719   2.639   2.310   0.486  2.1438  3.1542 -1.1663
  240SOL    HW2  720   2.712   2.151   0.459  1.8965 -1.9833 -0.7382
  241SOL     OW  721   2.673   0.973   0.878 -0.3806 -0.3322  0.3656
  241SOL    HW1  722   2.624   0.894   0.924 -0.0635 -1.2597  2.3641
  241SOL    HW2  723   2.619   1.012   0.799 -0.0491 -0.2146  1.2511
  242SOL     OW  724   2.102   2.645   2.212 -0.5912 -0.0951  0.1010
  242SOL    HW1  725   2.060   2.553   2.200 -3.3301 -1.1976  1.5201
  242SOL    HW2  726   2.203   2.647   2.191  3.4277 -0.3769  0.0096
  243SOL     OW  727   0.950   2.330   1.718  0.7751 -0.7943  0.0443
  243SOL    HW1  728   0.983   2.425   1.695  0.9330  3.0732 -2.2171
  243SOL    HW2  729   0.891   2.287   1.643 -1.8632 -0.4554  0.4410
  244SOL     OW  730   1.474   0.151   2.750  0.2290  0.0033  0.1627
  244SOL    HW1  731   1.569   0.114   2.739  1.3764  1.0407  0.7943
  244SOL    HW2  732   1.413   0.124   2.672 -0.1612 -0.0337 -0.7422
  245SOL     OW  733   1.314   0.111   1.246  0.2559 -0.2718 -0.0365
  245SOL    HW1  734   1.223   0.137   1.203  0.5272  0.1546 -0.0836
  245SOL    HW2  735   1.313   0.029   1.304 -1.9094 -0.5611 -0.8217
  246SOL     OW  736   1.733   2.494   0.206 -0.9901  0.0656  0.5426
  246SOL    HW1  737   1.820   2.444   0.175  0.6723 -1.2972 -0.0945
  246SOL    HW2  738   1.718   2.573   0.143 -0.1145  0.5486  0.0946
  247SOL     OW  739   1.197   0.583   2.486 -0.5895  0.4005 -0.2990
  247SOL    HW1  740   1.102   0.614   2.513 -0.8865  0.6141 -0.7708
  247SOL    HW2  741   1.198   0.481   2.495  1.4518 -1.7812  1.4884
  248SOL     OW  742   0.613   2.016   1.787  0.3043  0.1782 -0.2072
  248SOL    HW1  743   0.648   2.080   1.856 -0.9796  0.1083 -0.7305
  248SOL    HW2  744   0.581   1.930   1.830  1.0459  1.9015  1.4402
  249SOL     OW  745   2.379   0.200   0.513  0.0063 -0.1012  0.3451
  249SOL    HW1  746   2.335   0.283   0.477  0.2323  0.3098 -0.2536
  249SOL    HW2  747   2.332   0.121   0.482  1.4685  2.2972  1.5078
  250SOL     OW  748   0.234   0.625   0.355  0.2805 -0.0517  0.2935
  250SOL    HW1  749   0.297   0.555   0.399 -0.9110 -0.3283  0.3140
  250SOL    HW2  750   0.137   0.592   0.357  1.6352 -0.6023 -2.3429
  251SOL     OW  751   1.342   0.627   2.998 -0.3030 -0.8681  0.5920
  251SOL    HW1  752   1.382   0.715   3.034  0.3762  2.3817 -0.7563
  251SOL    HW2  753   1.337   0.621   2.897 -0.2139 -0.5772  1.9096
  252SOL     OW  754   1.740   1.791   2.042 -0.4376 -0.3274 -0.0116
  252SOL    HW1  755   1.828   1.796   1.993 -2.2834 -0.3664 -0.0550
  252SOL    HW2  756   1.661   1.736   2.003 -0.6476 -1.3800  1.2834
  253SOL     OW  757   2.420   2.263   1.426 -0.0646 -0.7908  0.3441
  253SOL    HW1  758   2.475   2.224   1.503 -0.3300  0.0210 -0.7266
  253SOL    HW2  759   2.470   2.261   1.336 -0.8393  1.0339 -1.8718
  254SOL     OW  760   2.944   1.079   1.300 -0.1083  0.4030 -0.6803
  254SOL    HW1  761   2.965   1.172   1.338  0.3403  2.6859 -2.0476
  254SOL    HW2  762   2.982   1.077   1.203  2.2015  1.1069 -2.6926
  255SOL     OW  763   1.172   0.346   0.946  0.0192 -0.2564 -0.1500
  255SOL    HW1  764   1.139   0.280   1.015 -1.9287  1.0248  1.4120
  255SOL    HW2  765   1.147   0.444   0.977 -0.5267  2.1212 -0.3545
  256SOL     OW  766   1.766   2.385   1.395 -0.3928  0.6530 -0.5365
  256SOL    HW1  767   1.730   2.343   1.484 -1.1752  2.4306  1.1106
  256SOL    HW2  768   1.855   2.339   1.366 -1.4580  0.0673 -2.0263
  257SOL     OW  769   0.561   3.066   2.655 -0.1880 -0.1536  0.2479
  257SOL    HW1  770   0.535   2.976   2.688  1.5890  0.2504  0.9416
  257SOL    HW2  771   0.588   3.053   2.559  2.0553 -0.3050 -0.4025
  258SOL     OW  772   0.939   2.194   0.418  0.2697 -0.1136 -0.2732
  258SOL    HW1  773   0.844   2.227   0.433 -0.5332  1.1641  0.2868
  258SOL    HW2  774   0.941   2.099   0.446  2.3453  0.7982  0.5289
  259SOL     OW  775   1.163   0.026   2.743 -0.6905 -0.5578 -0.4430
  259SOL    HW1  776   1.088   3.103   2.690 -0.5885  0.4671  2.0876
  259SOL    HW2  777   1.248   3.095   2.712 -1.5604  3.1279  0.1190
  260SOL     OW  778   2.061   0.720   1.024 -0.9084 -0.6273 -0.1991
  260SOL    HW1  779   1.990   0.771   1.072  1.2198  0.0156 -1.4135
  260SOL    HW2  780   2.098   0.639   1.074 -0.9072  2.6011  0.0940
  261SOL     OW  781   0.501   0.523   2.515 -0.2447  0.4849  0.5919
  261SOL    HW1  782   0.405   0.499   2.487  1.3163 -1.9599 -0.4392
  261SOL    HW2  783   0.524   0.614   2.480 -1.1569 -0.5458 -0.1751
  262SOL     OW  784   0.194   2.215   1.908  0.1711  1.0047  0.7574
  262SOL    HW1  785   0.252   2.237   1.992 -2.4351  1.0888  3.3419
  262SOL    HW2  786   0.152   2.305   1.873 -2.2428  0.8603 -3.7068
  263SOL     OW  787   2.929   1.566   2.385 -0.1273 -0.1848  0.4818
  263SOL    HW1  788   3.010   1.525   2.424 -3.0669  2.3547  0.6017
  263SOL    HW2  789   2.936   1.668   2.392  0.6771  0.1037 -0.5535
  264SOL     OW  790   1.154   1.164   0.923 -0.4007 -0.1054  0.3888
  264SOL    HW1  791   1.056   1.193   0.904  1.0940  1.8499  0.4623
  264SOL    HW2  792   1.204   1.163   0.836 -0.7518  1.6353  1.5152
  265SOL     OW  793   1.529   2.568   0.807  0.0444 -0.4726 -0.4172
  265SOL    HW1  794   1.522   2.470   0.827  2.4593  0.7974  0.3981
  265SOL    HW2  795   1.607   2.616   0.854 -1.2258 -1.2219  0.8616
  266SOL     OW  796   1.661   1.039   1.399 -0.2674  0.3884  0.0758
  266SOL    HW1  797   1.731   1.001   1.458 -1.2554  2.8514 -1.0164
  266SOL    HW2  798   1.703   1.092   1.328  0.8756  0.5429  1.2915
  267SOL     OW  799   2.465   1.089   3.050 -0.4029  0.7566  0.4713
  267SOL    HW1  800   2.404   1.043   2.983 -1.5252 -0.2155  0.8677
  267SOL    HW2  801   2.447   1.051   0.022  0.1955  0.1472 -2.6051
  268SOL     OW  802   1.341   0.332   0.409 -0.0785  0.4487  0.4872
  268SOL    HW1  803   1.348   0.254   0.475 -2.5655  2.7647 -2.1252
  268SOL    HW2  804   1.411   0.405   0.422  2.3003  1.4729 -1.3667
  269SOL     OW  805   2.984   0.752   2.692 -0.1555 -0.5100 -0.1962
  269SOL    HW1  806   2.960   0.671   2.633  2.2083 -2.0459  1.1885
  269SOL    HW2  807   2.915   0.829   2.687 -0.2923  0.7862 -3.0917
  270SOL     OW  808   0.391   1.445   2.750 -0.3974 -0.8671 -0.0766
  270SOL    HW1  809   0.453   1.385   2.806  0.3564 -1.7003  0.8153
  270SOL    HW2  810   0.321   1.495   2.801 -0.7244 -0.3312 -2.0025
  271SOL     OW  811   2.749   0.768   0.049  0.3790  0.1186 -0.2383
  271SOL    HW1  812   2.840   0.734   0.068 -2.3806 -0.4471 -0.3111
  271SOL    HW2  813   2.703   0.797   0.135 -1.1643  0.5815  1.2997
  272SOL     OW  814   2.826   2.656   2.571 -0.2539  0.3811  0.4001
  272SOL    HW1  815   2.882   2.739   2.554  0.1490  2.0486  2.3419
  272SOL    HW2  816   2.881   2.598   2.632 -1.1643  2.0227 -1.6330
  273SOL     OW  817   3.025   3.086   3.103  0.4353 -0.6522 -0.1911
  273SOL    HW1  818   3.041   0.067   0.023  1.9198 -0.2962  0.8363
  273SOL    HW2  819   3.041   3.026   0.065  2.2662 -0.1831  0.2738
  274SOL     OW  820   0.801   2.300   0.996 -0.6092  0.2683  0.1890
  274SOL    HW1  821   0.702   2.296   0.976  3.1969 -0.4571 -0.3025
  274SOL    HW2  822   0.851   2.363   0.935 -0.4515 -0.8727  1.2668
  275SOL     OW  823   2.265   0.806   0.503  0.2567 -0.2526  0.1587
  275SOL    HW1  824   2.271   0.731   0.437  0.3586  2.3496  2.0592
  275SOL    HW2  825   2.356   0.822   0.553 -1.0877  0.4400  0.8055
  276SOL     OW  826   2.731   1.417   1.371  0.1910  0.3188  0.2045
  276SOL    HW1  827   2.634   1.385   1.385 -0.7094 -3.4789  0.7457
  276SOL    HW2  828   2.776   1.456   1.452 -0.0871 -1.5727  0.8544
  277SOL     OW  829   2.102   0.052   1.073 -0.2404 -0.2964 -0.2629
  277SOL    HW1  830   2.025   3.102   1.087  1.9034  0.0815 -0.1003
  277SOL    HW2  831   2.121   0.113   1.150 -1.7521  1.6621 -2.2710
  278SOL     OW  832   1.354   2.721   2.335  0.1023 -0.3985  0.4321
  278SOL    HW1  833   1.377   2.625   2.351 -2.0729  1.7200 -0.5906
  278SOL    HW2  834   1.266   2.737   2.385 -1.1052 -0.7064  0.2065
  279SOL     OW  835   1.654   2.085   1.167 -0.3629 -0.3575  0.0649
  279SOL    HW1  836   1.709   2.028   1.230  0.3253 -1.7402 -1.9629
  279SOL    HW2  837   1.704   2.133   1.092  1.2180  0.2350  0.7642
  280SOL     OW  838   0.396   1.249   0.915 -0.3560 -0.1025 -0.7091
  280SOL    HW1  839   0.342   1.224   0.998  1.7449  0.1793 -0.2719
  280SOL    HW2  840   0.475   1.307   0.948 -0.6983 -1.2889  1.3993
  281SOL     OW  841   2.766   1.331   2.717  0.2461 -0.0590 -0.3212
  281SOL    HW1  842   2.695   1.405   2.721  0.1997 -1.4175  0.6948
  281SOL    HW2  843   2.854   1.380   2.741  0.7596 -0.0871  2.1401
  282SOL     OW  844   0.560   1.796   0.332 -0.4875  0.0408  0.0729
  282SOL    HW1  845   0.486   1.836   0.391  1.9621 -1.1677 -0.0765
  282SOL    HW2  846   0.552   1.695   0.325  0.2110 -2.2589  1.5911
  283SOL     OW  847   1.928   2.387   0.060 -0.0446  0.8462 -0.2570
  283SOL    HW1  848   2.011   2.445   0.034 -0.0907 -1.2833  1.5523
  283SOL    HW2  849   1.872   2.378   3.091 -0.6652 -2.0822  0.4630
  284SOL     OW  850   1.024   3.025   1.044 -0.0841 -0.0567 -0.2737
  284SOL    HW1  851   1.100   2.988   0.989  0.9654 -0.0428  0.7890
  284SOL    HW2  852   0.940   3.019   0.989  0.3823 -0.0416  0.4579
  285SOL     OW  853   2.268   1.029   2.816  0.7829 -0.2101  0.0701
  285SOL    HW1  854   2.315   1.084   2.745 -3.1307  1.7340  2.3720
  285SOL    HW2  855   2.209   1.084   2.882 -0.3084 -0.3591 -0.2087
  286SOL     OW  856   2.129   2.541   0.974 -0.1788  0.3467 -0.1499
  286SOL    HW1  857   2.176   2.452   0.944  1.8463 -1.9551  1.0070
  286SOL    HW2  858   2.178   2.625   0.940 -1.4342  0.7566  0.9027
  287SOL     OW  859   1.425   0.219   0.848 -0.3716  0.1751 -0.5840
  287SOL    HW1  860   1.454   0.161   0.930 -0.8633  1.3306  3.1229
  287SOL    HW2  861   1.339   0.268   0.872  0.9877 -0.5166  0.6457
  288SOL     OW  862   0.746   2.459   2.892  0.9167 -0.0921  0.2019
  288SOL    HW1  863   0.784   2.549   2.860 -2.0727  0.6593  1.0762
  288SOL    HW2  864   0.683   2.483   2.970 -0.9733  0.2225  1.2348
  289SOL     OW  865   0.124   1.615   0.866  0.3081 -0.0485  0.1071
  289SOL    HW1  866   0.086   1.568   0.952  0.9769  0.4718  3.0979
  289SOL    HW2  867   0.075   1.703   0.848  3.9322  0.4999  0.0708
  290SOL     OW  868   1.260   2.118   0.993  0.1168  0.5685 -0.4687
  290SOL    HW1  869   1.328   2.189   1.017 -0.3670  0.0726  1.3684
  290SOL    HW2  870   1.301   2.025   1.008  2.4202  1.2489  2.7213
  291SOL     OW  871   1.456   2.995   0.225  0.3651 -0.0765 -0.3154
  291SOL    HW1  872   1.432   2.897   0.216 -0.0037  2.0678  3.0294
  291SOL    HW2  873   1.375   3.059   0.201 -2.4645  2.3361  1.0153
  292SOL     OW  874   0.374   0.592   2.077 -0.1500 -0.0892  0.3257
  292SOL    HW1  875   0.359   0.592   2.177  0.3127 -3.3960 -1.2109
  292SOL    HW2  876   0.393   0.683   2.033  1.6773 -1.2677  1.8256
  293SOL     OW  877   2.430   1.882   1.132 -0.5442 -0.0150 -0.1356
  293SOL    HW1  878   2.525   1.837   1.114  1.4787 -1.7848 -0.9274
  293SOL    HW2  879   2.425   1.918   1.230 -1.6014  1.8425 -1.3707
  294SOL     OW  880   0.743   0.276   2.289 -0.0236 -0.2332  0.3093
  294SOL    HW1  881   0.735   0.306   2.391  1.0214  2.7653  2.9372
  294SOL    HW2  882   0.679   0.198   2.275 -1.3447  0.8695  2.2708
  295SOL     OW  883   1.663   1.496   1.273 -0.3579 -0.9783  0.4302
  295SOL    HW1  884   1.639   1.432   1.349  0.1598 -2.7330 -0.0767
  295SOL    HW2  885   1.718   1.572   1.318  1.2676  0.8243  1.0441
  296SOL     OW  886   2.441   1.868   0.164  0.4216 -0.0256 -0.5875
  296SOL    HW1  887   2.415   1.774   0.188 -1.7263  0.8732  1.6452
  296SOL    HW2  888   2.541   1.872   0.153 -1.4673  0.5104  1.4530
  297SOL     OW  889   2.598   0.038   0.379 -0.4398 -0.7792 -0.4808
  297SOL    HW1  890   2.533   3.107   0.321 -2.6880  2.7631 -1.5822
  297SOL    HW2  891   2.554   0.110   0.434 -1.6011 -0.2064 -0.5216
  298SOL     OW  892   0.767   0.248   2.959 -0.2243  0.8094  0.0827
  298SOL    HW1  893   0.763   0.209   2.863 -0.1344 -0.1006 -0.4258
  298SOL    HW2  894   0.821   0.335   2.951 -1.3589  2.1383  0.1765
  299SOL     OW  895   0.724   2.257   2.269 -0.4877 -0.1056  0.1532
  299SOL    HW1  896   0.786   2.185   2.310 -1.2598  0.7602 -0.8492
  299SOL    HW2  897   0.671   2.302   2.344  2.0018 -0.1778 -4.4251
  300SOL     OW  898   2.856   0.081   2.468 -0.5786 -0.3307 -0.0197
  300SOL    HW1  899   2.908   0.167   2.436  0.2010  1.0271 -1.2313
  300SOL    HW2  900   2.895   0.047   2.559  0.3969  1.6464  1.0934
  301SOL     OW  901   1.081   0.429   1.623  0.2657  0.1372  0.5128
  301SOL    HW1  902   1.172   0.433   1.665 -4.5875  0.5808 -1.5088
  301SOL    HW2  903   1.064   0.336   1.585 -0.7098 -3.8707  1.0225
  302SOL     OW  904   2.906   2.325   2.913 -0.0986  0.1587 -0.1943
  302SOL    HW1  905   2.937   2.287   3.000 -1.8825  0.6307  0.0154
  302SOL    HW2  906   2.804   2.332   2.909 -1.8448 -1.1893  0.3427
  303SOL     OW  907   2.344   2.534   1.455 -0.1089  0.0258 -0.0653
  303SOL    HW1  908   2.376   2.435   1.465  1.7796  1.7268  2.9035
  303SOL    HW2  909   2.389   2.587   1.379  1.8154 -1.1589 -0.7820
  304SOL     OW  910   2.681   0.753   1.580  0.0697 -0.5326 -0.4624
  304SOL    HW1  911   2.631   0.672   1.611 -1.5054  4.5632 -0.2282
  304SOL    HW2  912   2.746   0.788   1.650 -1.3328 -1.3488  0.3184
  305SOL     OW  913   0.806   1.865   0.870 -0.6106 -0.0877  0.0968
  305SOL    HW1  914   0.859   1.947   0.908  0.5019  0.6351 -2.6026
  305SOL    HW2  915   0.743   1.825   0.944 -1.3970 -2.5852 -0.8249
  306SOL     OW  916   0.296   1.590   2.226 -0.2808 -0.0813  0.2061
  306SOL    HW1  917   0.217   1.546   2.181 -0.0973  0.2057  1.4038
  306SOL    HW2  918   0.330   1.664   2.166 -0.6292 -0.3625 -0.0822
  307SOL     OW  919   1.030   0.177   1.521 -0.4652 -0.6215 -0.3562
  307SOL    HW1  920   1.019   0.131   1.428 -1.3803 -2.9728  0.9349
  307SOL    HW2  921   1.038   0.100   1.593  0.7813 -3.5683  0.6899
  308SOL     OW  922   3.113   1.035   1.083 -0.0168 -0.0133  0.0708
  308SOL    HW1  923   0.054   0.954   1.099  1.3554  2.7346 -1.2154
  308SOL    HW2  924   3.104   1.053   0.981 -3.1057  1.8799  0.6180
  309SOL     OW  925   2.679   1.094   1.365 -0.2531  0.4308 -0.7613
  309SOL    HW1  926   2.657   1.176   1.309  0.7667 -1.3087 -0.5879
  309SOL    HW2  927   2.775   1.068   1.344 -2.9758  3.3368  1.7064
  310SOL     OW  928   0.082   1.904   2.364 -0.1508 -0.0988 -0.0092
  310SOL    HW1  929   0.136   1.828   2.405  1.2454 -2.0939 -0.6806
  310SOL    HW2  930   0.052   1.882   2.269  1.0096 -0.8409  1.5216
  311SOL     OW  931   2.628   2.862   2.233  0.1909 -0.0860  0.6570
  311SOL    HW1  932   2.696   2.889   2.158 -2.1927 -2.1986 -2.4924
  311SOL    HW2  933   2.626   2.924   2.317 -0.2613 -0.1998  0.9105
  312SOL     OW  934   1.970   2.197   2.874 -0.3480  0.0472  0.0068
  312SOL    HW1  935   1.889   2.250   2.916 -1.3563  0.8919  0.2520
  312SOL    HW2  936   2.064   2.218   2.907 -1.0889  1.5391  0.0568
  313SOL     OW  937   2.900   3.096   0.767  0.2999 -0.0072 -0.6762
  313SOL    HW1  938   2.815   3.059   0.729  0.5777  1.1217  0.3706
  313SOL    HW2  939   2.973   3.107   0.699 -1.7170 -0.3534  1.8009
  314SOL     OW  940   1.988   0.989   0.035  0.9194 -0.2629 -0.0505
  314SOL    HW1  941   1.954   1.033   0.120  0.8772  1.4552 -0.6983
  314SOL    HW2  942   2.030   1.055   3.086  1.2636 -0.8974 -2.3626
  315SOL     OW  943   1.338   0.077   2.506 -0.1367 -0.4774  0.5208
  315SOL    HW1  944   1.377   0.104   2.411 -2.3443 -1.1191 -0.4461
  315SOL    HW2  945   1.370   3.101   2.528  1.2979  3.0634  1.4158
  316SOL     OW  946   0.024   1.431   0.569 -0.0197  0.1062  0.0065
  316SOL    HW1  947   0.129   1.444   0.583  1.6141  1.5824 -0.2717
  316SOL    HW2  948   0.003   1.359   0.501  2.5201  1.1605 -0.3184
  317SOL     OW  949   0.505   2.773   3.011  0.2235 -0.0875 -0.0538
  317SOL    HW1  950   0.405   2.785   3.037 -3.0548 -0.6927 -0.7806
  317SOL    HW2  951   0.566   2.840   3.058  1.1679 -0.3245  1.1006
  318SOL     OW  952   2.543   2.293   1.185 -0.5812 -0.3368 -0.3345
  318SOL    HW1  953   2.614   2.243   1.136 -0.2858  0.1867  2.9919
  318SOL    HW2  954   2.513   2.374   1.133 -1.2538 -2.4721  0.3883
  319SOL     OW  955   1.152   1.965   2.796 -0.1973 -0.2690  0.0203
  319SOL    HW1  956   1.066   1.958   2.736 -3.8312 -1.7006  1.0273
  319SOL    HW2  957   1.146   1.896   2.876 -2.1819 -0.7745 -0.9718
  320SOL     OW  958   0.728   1.977   1.293  0.3340  0.4855 -0.3466
  320SOL    HW1  959   0.790   2.042   1.248  1.7054 -1.4027  1.9469
  320SOL    HW2  960   0.733   1.978   1.395  2.1551 -1.3453  1.5866
  321SOL     OW  961   1.168   2.787   2.526  0.5958 -0.2131 -0.4236
  321SOL    HW1  962   1.104   2.858   2.490 -1.7228 -0.3862  0.0143
  321SOL    HW2  963   1.118   2.697   2.519 -0.1124 -2.2926 -2.4138
  322SOL     OW  964   2.536   1.927   1.954 -0.4917  0.3478  0.2497
  322SOL    HW1  965   2.442   1.932   1.995 -2.3391  1.2099  1.0172
  322SOL    HW2  966   2.570   2.025   1.948  0.0185  4.1969  0.3593
  323SOL     OW  967   2.930   0.635   0.864  0.0725  0.5580 -0.1419
  323SOL    HW1  968   2.919   0.735   0.872 -1.4719 -1.0281 -2.4350
  323SOL    HW2  969   3.007   0.598   0.920  1.2287  1.3260  2.4024
  324SOL     OW  970   2.650   3.016   2.442 -0.2408  0.0258  0.4474
  324SOL    HW1  971   2.614   2.991   2.534  0.7471  1.8862  2.2885
  324SOL    HW2  972   2.727   3.084   2.454 -1.7176 -0.2774 -2.0092
  325SOL     OW  973   0.957   0.661   2.583 -0.5727  0.0933  0.1980
  325SOL    HW1  974   0.940   0.574   2.634  1.0627  1.5069 -2.3557
  325SOL    HW2  975   0.883   0.683   2.517 -1.6454  2.2104 -0.5183
  326SOL     OW  976   1.848   2.733   1.935  0.4412  0.0323 -0.1925
  326SOL    HW1  977   1.798   2.787   1.862  1.7342  0.4343  0.6800
  326SOL    HW2  978   1.903   2.796   1.994 -3.3081 -0.3318  0.3757
  327SOL     OW  979   2.297   0.087   2.985  0.2982  0.1463  0.5814
  327SOL    HW1  980   2.298   0.132   3.075 -1.5101 -0.5519 -0.6034
  327SOL    HW2  981   2.247   3.117   2.984  1.6428 -2.0838  1.6007
  328SOL     OW  982   0.106   1.481   2.050  0.1054  0.0331 -0.6205
  328SOL    HW1  983   0.075   1.442   2.142 -3.7759 -1.6951  1.5258
  328SOL    HW2  984   0.033   1.542   2.011  4.3751 -0.5860  2.6255
  329SOL     OW  985   1.779   0.416   1.568 -0.2820 -0.0179  0.0262
  329SOL    HW1  986   1.783   0.439   1.669 -0.0653 -0.1734 -0.2829
  329SOL    HW2  987   1.869   0.416   1.524 -1.7036 -0.7268 -1.9073
  330SOL     OW  988   0.300   1.027   0.789 -0.0338 -0.0684 -0.0045
  330SOL    HW1  989   0.194   1.027   0.781 -0.7195 -1.8548  3.3161
  330SOL    HW2  990   0.332   1.099   0.858  0.2625  3.1066  0.4232
  331SOL     OW  991   0.076   1.832   2.081 -0.1253  0.2660 -0.1190
  331SOL    HW1  992   0.023   1.755   2.043  0.5370 -1.6872  0.9510
  331SOL    HW2  993   0.171   1.827   2.051 -3.5139  0.5682 -0.1433
  332SOL     OW  994   2.965   2.675   1.623 -0.5441 -0.5234 -0.3569
  332SOL    HW1  995   2.977   2.628   1.538  2.3806  5.7029  1.6945
  332SOL    HW2  996   2.952   2.611   1.697 -0.3424  0.6972 -0.6984
  333SOL     OW  997   2.351   0.069   0.954 -0.0020 -0.0962 -0.5076
  333SOL    HW1  998   2.267   0.051   1.007 -1.0264 -0.2734 -1.6154
  333SOL    HW2  999   2.433   0.070   1.010 -1.9861 -1.7913 -0.6415
  334SOL     OW 1000   0.374   1.833   0.676  0.2425 -0.1551 -0.2017
  334SOL    HW1 1001   0.346   1.739   0.682  0.1665  1.3033 -1.6341
  334SOL    HW2 1002   0.379   1.881   0.767  1.2898  3.3245  0.8439
  335SOL     OW 1003   0.125   2.604   3.006 -0.2615  0.2024 -0.3280
  335SOL    HW1 1004   0.108   2.623   2.906  1.9569  0.5154 -3.0400
  335SOL    HW2 1005   0.201   2.538   3.014 -1.5984 -0.2005 -1.1865
  336SOL     OW 1006   0.015   2.946   2.350 -0.1717  0.0799  0.0417
  336SOL    HW1 1007   3.069   3.010   2.300 -0.0437  3.1104  0.7398
  336SOL    HW2 1008   0.046   2.871   2.289 -0.4759 -2.7134 -0.9099
  337SOL     OW 1009   1.766   2.459   2.056  0.2276 -0.0025 -0.2883
  337SOL    HW1 1010   1.774   2.556   2.027  2.4301  0.1918  3.6684
  337SOL    HW2 1011   1.696   2.407   1.996  0.4330  2.1752 -0.5093
  338SOL     OW 1012   0.649   2.973   0.029  0.3183 -0.0705  0.6602
  338SOL    HW1 1013   0.573   2.998   0.093  2.6460  0.6138  1.7453
  338SOL    HW2 1014   0.718   3.047   0.031 -0.4645  2.3411 -2.3339
  339SOL     OW 1015   0.381   1.200   2.162 -0.4694  0.7740 -0.2427
  339SOL    HW1 1016   0.423   1.279   2.207 -2.2710 -3.4980  0.3728
  339SOL    HW2 1017   0.359   1.214   2.064  0.3353  1.2290  0.0122
  340SOL     OW 1018   1.796   2.766   0.541 -0.3858  0.3601  0.5260
  340SOL    HW1 1019   1.824   2.688   0.600 -1.1477  0.5251  0.5955
  340SOL    HW2 1020   1.764   2.849   0.591 -0.9365 -1.4696 -0.3208
  341SOL     OW 1021   2.280   1.074   0.767  0.6488  0.2285 -0.9250
  341SOL    HW1 1022   2.208   1.006   0.747  1.1878 -1.5179 -1.1602
  341SOL    HW2 1023   2.301   1.069   0.867  0.9010 -1.8182 -1.6751
  342SOL     OW 1024   2.460   3.020   0.184 -0.0586  0.0567 -0.4424
  342SOL    HW1 1025   2.359   2.996   0.182  0.2516 -0.0919 -0.5640
  342SOL    HW2 1026   2.520   2.946   0.148  2.3363 -2.5850 -1.2626
  343SOL     OW 1027   1.318   2.122   1.612 -0.3855  0.1069  0.2938
  343SOL    HW1 1028   1.287   2.216   1.577 -1.3110  0.4853 -1.5798
  343SOL    HW2 1029   1.405   2.137   1.666  0.5494 -0.7588 -0.2317
  344SOL     OW 1030   2.656   2.895   1.081  0.0628 -0.2021  0.0676
  344SOL    HW1 1031   2.632   2.821   1.142 -0.1910 -0.7775 -1.0084
  344SOL    HW2 1032   2.753   2.903   1.060  0.1683 -1.5247  0.3621
  345SOL     OW 1033   2.583   2.091   2.984 -0.1769 -0.1893 -0.0609
  345SOL    HW1 1034   2.673   2.044   2.973  2.4057  2.5544  3.4878
  345SOL    HW2 1035   2.596   2.177   3.037  0.2798  0.5634 -0.0442
  346SOL     OW 1036   2.456   2.048   0.543 -0.2284 -0.5210  0.0643
  346SOL    HW1 1037   2.519   2.129   0.546 -0.5896  0.0287 -0.5861
  346SOL    HW2 1038   2.502   1.960   0.567  0.5080  0.1663  1.6195
  347SOL     OW 1039   1.606   1.952   1.610  0.2832 -0.5033  0.2144
  347SOL    HW1 1040   1.589   2.021   1.677  0.1652 -3.0390 -2.2003
  347SOL    HW2 1041   1.546   1.867   1.629 -2.0083 -4.0433  0.5047
  348SOL     OW 1042   0.573   1.714   2.398 -0.5378  0.3222 -0.0764
  348SOL    HW1 1043   0.662   1.767   2.396  0.7099 -0.9935 -0.0926
  348SOL    HW2 1044   0.581   1.628   2.455  3.7645 -1.1440  0.0336
  349SOL     OW 1045   2.117   1.537   0.834 -0.7366 -0.1941  0.4350
  349SOL    HW1 1046   2.119   1.448   0.780  2.0180 -2.0571 -1.5272
  349SOL    HW2 1047   2.192   1.602   0.803  2.5772  1.1601 -2.2862
  350SOL     OW 1048   2.924   2.416   0.626 -0.2108  0.0392 -0.5687
  350SOL    HW1 1049   2.930   2.513   0.595 -2.0261  1.0195 -0.5736
  350SOL    HW2 1050   2.837   2.389   0.673 -0.3930  0.6911  0.1321
  351SOL     OW 1051   0.431   3.024   1.709 -0.2907  0.5951 -0.4533
  351SOL    HW1 1052   0.396   2.959   1.641  0.2929 -2.4396 -1.4199
  351SOL    HW2 1053   0.492   3.087   1.657  0.5112  2.7294 -1.2073
  352SOL     OW 1054   0.929   1.604   1.171  0.0278 -0.1626 -0.0142
  352SOL    HW1 1055   0.964   1.682   1.114  1.3100 -2.0642  0.1575
  352SOL    HW2 1056   0.875   1.544   1.116  0.0251  0.9774  2.5947
  353SOL     OW 1057   1.387   1.506   2.496 -0.6221  0.4184 -0.2122
  353SOL    HW1 1058   1.290   1.476   2.520 -2.2724  2.9695 -2.4706
  353SOL    HW2 1059   1.459   1.456   2.555  2.1378 -3.2051  0.0290
  354SOL     OW 1060   1.635   3.044   1.542 -0.5507  0.0737  0.6618
  354SOL    HW1 1061   1.542   3.053   1.508  2.9899 -1.8698  0.5883
  354SOL    HW2 1062   1.676   0.019   1.544 -0.9899 -2.3820  0.1901
  355SOL     OW 1063   2.175   1.323   0.685  0.0532  0.1882 -0.0498
  355SOL    HW1 1064   2.206   1.227   0.700 -0.2299 -0.9011  1.0834
  355SOL    HW2 1065   2.189   1.357   0.589 -0.6702 -0.4025  0.5953
  356SOL     OW 1066   2.682   1.876   2.184  0.1094 -0.1337  0.8194
  356SOL    HW1 1067   2.623   1.895   2.107  1.1797 -3.0958  0.8240
  356SOL    HW2 1068   2.752   1.945   2.202  0.8996 -1.8977 -1.4610
  357SOL     OW 1069   0.596   2.923   1.266 -0.3247 -0.3406  0.0496
  357SOL    HW1 1070   0.612   2.822   1.280 -0.0595  2.2883  1.7338
  357SOL    HW2 1071   0.674   2.968   1.230  0.3397 -1.0414  0.4172
  358SOL     OW 1072   2.487   1.203   1.803 -0.2840 -0.0305  0.3001
  358SOL    HW1 1073   2.586   1.230   1.820  1.8445  1.1285  2.1897
  358SOL    HW2 1074   2.451   1.136   1.875  0.1723  0.1797  2.4655
  359SOL     OW 1075   2.217   2.944   2.516  0.9080  0.3693 -0.4553
  359SOL    HW1 1076   2.151   2.868   2.482  0.2854 -1.3373 -0.4050
  359SOL    HW2 1077   2.168   3.028   2.535  1.7775  1.0980 -3.4600
  360SOL     OW 1078   0.535   0.418   0.879  0.0045 -0.4423 -0.4263
  360SOL    HW1 1079   0.528   0.461   0.789 -0.2283  0.6995  1.3528
  360SOL    HW2 1080   0.502   0.325   0.890  4.2822  2.1630 -0.6399
  361SOL     OW 1081   1.831   3.047   1.142  0.3008  0.8043 -0.0208
  361SOL    HW1 1082   1.809   0.024   1.157 -0.3239 -2.9393  0.3329
  361SOL    HW2 1083   1.807   2.988   1.218 -0.1077  2.0605 -0.7119
  362SOL     OW 1084   1.395   1.053   1.009  0.3292  0.5353 -0.0881
  362SOL    HW1 1085   1.447   1.056   0.925 -1.5858 -0.0511  1.7775
  362SOL    HW2 1086   1.312   1.116   0.999  2.2424  1.2439 -3.0031
  363SOL     OW 1087   2.389   1.391   2.484 -0.3581  0.5356  0.5536
  363SOL    HW1 1088   2.441   1.305   2.514 -0.4172 -2.6746 -1.3188
  363SOL    HW2 1089   2.421   1.428   2.396 -3.3145 -0.2805 -0.4253
  364SOL     OW 1090   0.168   0.035   1.073  0.4491  0.4107  0.1758
  364SOL    HW1 1091   0.253   0.075   1.109  0.0612 -0.3247 -0.8649
  364SOL    HW2 1092   0.093   0.071   1.129  2.5183 -1.3351 -2.6989
  365SOL     OW 1093   0.136   3.028   2.973  0.2062  0.3090  0.4134
  365SOL    HW1 1094   0.137   3.065   2.878 -0.3730 -0.4225  2.7398
  365SOL    HW2 1095   0.052   3.053   3.030  2.0909  2.2412  1.1878
  366SOL     OW 1096   2.220   2.190   2.975 -0.5400  0.0410  0.2166
  366SOL    HW1 1097   2.255   2.091   2.991  1.1244 -4.5684 -2.1660
  366SOL    HW2 1098   2.260   2.265   3.032  1.4840  0.3238 -0.1657
  367SOL     OW 1099   2.548   2.535   2.977  0.1991 -0.1622 -0.3567
  367SOL    HW1 1100   2.577   2.563   2.889 -3.3726 -1.6305  3.5199
  367SOL    HW2 1101   2.625   2.558   3.040 -0.2460  0.4335 -1.6921
  368SOL     OW 1102   0.051   1.424   1.024  0.0212  0.3405 -0.5338
  368SOL    HW1 1103   3.090   1.457   1.084 -1.0277  1.0297 -0.0237
  368SOL    HW2 1104   0.114   1.356   1.070 -1.4195  1.1397  2.5429
  369SOL     OW 1105   0.537   2.755   2.758 -0.1658 -0.2145 -0.4610
  369SOL    HW1 1106   0.535   2.758   2.856 -1.3102 -2.2694 -4.7657
  369SOL    HW2 1107   0.629   2.743   2.723 -2.9704  2.7078 -1.7123
  370SOL     OW 1108   2.959   0.963   0.448 -0.0808 -0.0725 -0.0321
  370SOL    HW1 1109   2.933   1.017   0.364  0.5726 -0.8218  2.2987
  370SOL    HW2 1110   2.964   0.863   0.439  1.8337 -1.3297 -0.4186
  371SOL     OW 1111   2.041   2.213   0.889 -0.0618 -0.3316 -0.4669
  371SOL    HW1 1112   2.123   2.201   0.833  1.4063  0.0372  1.1586
  371SOL    HW2 1113   2.056   2.163   0.977 -2.5415 -0.1201 -0.3225
  372SOL     OW 1114   0.052   0.990   2.980  0.1994 -0.8761 -0.0493
  372SOL    HW1 1115   0.057   0.909   2.920  1.6659  1.7144  1.4391
  372SOL    HW2 1116   0.030   0.951   3.073  1.4967 -0.2243 -0.2865
  373SOL     OW 1117   2.985   2.002   1.039  0.6669  0.1891 -0.3808
  373SOL    HW1 1118   2.940   2.096   1.045 -3.3015  0.6166 -0.8485
  373SOL    HW2 1119   2.971   1.948   1.124  0.6309  1.6306  2.9294
  374SOL     OW 1120   0.445   2.703   0.205  0.4566 -0.1592 -0.7031
  374SOL    HW1 1121   0.376   2.680   0.131 -0.7952  1.7829 -0.5257
  374SOL    HW2 1122   0.449   2.805   0.221  1.0834  1.3734  0.1874
  375SOL     OW 1123   0.125   0.184   0.269  0.2850  0.1811 -0.0228
  375SOL    HW1 1124   0.209   0.242   0.276  1.4117  1.4510  0.3371
  375SOL    HW2 1125   0.055   0.212   0.340  1.4869  0.7652  1.1106
  376SOL     OW 1126   0.002   2.405   1.756  0.2573  0.2298 -0.7494
  376SOL    HW1 1127   3.032   2.355   1.759  0.2219 -0.4080 -2.8141
  376SOL    HW2 1128   0.040   2.421   1.663  0.4150 -1.3178 -0.5606
  377SOL     OW 1129   1.807   2.525   2.742 -0.4330 -0.3136  0.3865
  377SOL    HW1 1130   1.849   2.621   2.757 -0.4220  3.5292  1.4342
  377SOL    HW2 1131   1.853   2.482   2.661  2.4721  0.6876 -2.1169
  378SOL     OW 1132   0.558   0.154   0.246 -0.5246  0.3624  0.2880
  378SOL    HW1 1133   0.657   0.172   0.245 -0.8340 -0.5179 -1.6643
  378SOL    HW2 1134   0.533   0.100   0.328 -0.9298  1.6903  0.9871
  379SOL     OW 1135   0.562   1.512   0.609 -0.3208 -0.9354 -0.6125
  379SOL    HW1 1136   0.581   1.503   0.511  0.2631  0.2061 -2.0929
  379SOL    HW2 1137   0.642   1.566   0.651  4.4582 -0.1461 -0.3634
  380SOL     OW 1138   0.453   1.762   1.524  0.9690  0.2727  0.1311
  380SOL    HW1 1139   0.552   1.783   1.548  2.2994 -0.6168  1.0402
  380SOL    HW2 1140   0.418   1.830   1.452  0.3331  1.7813 -1.8681
  381SOL     OW 1141   0.573   1.068   1.976 -0.2169 -0.7402 -0.0496
  381SOL    HW1 1142   0.638   1.073   1.902 -0.5266  1.5342  0.6137
  381SOL    HW2 1143   0.553   1.160   2.009  2.9562  0.6930  3.1173
  382SOL     OW 1144   2.231   1.944   0.433  0.4200  0.1331  0.1354
  382SOL    HW1 1145   2.317   1.979   0.468 -0.5972  0.4033 -1.0144
  382SOL    HW2 1146   2.230   1.963   0.331  1.8235  0.3753 -3.3006
  383SOL     OW 1147   2.813   1.844   2.646 -0.3091 -0.1990 -0.4614
  383SOL    HW1 1148   2.855   1.801   2.727  0.4655 -0.5765 -1.5555
  383SOL    HW2 1149   2.868   1.840   2.557  0.3272 -0.3325 -2.4254
  384SOL     OW 1150   0.373   2.098   2.333  0.1550 -0.0700 -0.3747
  384SOL    HW1 1151   0.286   2.118   2.389 -2.4512 -1.5100 -0.7128
  384SOL    HW2 1152   0.445   2.169   2.348  2.3622  1.7813 -0.6387
  385SOL     OW 1153   2.659   1.935   0.825  0.3600  0.6262  0.0097
  385SOL    HW1 1154   2.664   1.914   0.923 -0.3192 -0.3216 -3.9645
  385SOL    HW2 1155   2.733   2.002   0.796  0.0454 -1.4056  0.9830
  386SOL     OW 1156   1.751   1.152   1.112 -0.0399  0.0516 -0.1418
  386SOL    HW1 1157   1.797   1.242   1.092 -0.4472  1.0865  1.0963
  386SOL    HW2 1158   1.668   1.135   1.057 -0.0275  0.1985 -1.2406
  387SOL     OW 1159   0.042   1.106   1.802  0.2050  0.1229 -0.4627
  387SOL    HW1 1160   3.060   1.097   1.791  0.0880  2.3969  0.8088
  387SOL    HW2 1161   0.080   1.183   1.752  0.0601 -1.0503 -1.2982
  388SOL     OW 1162   2.349   0.960   2.188 -0.4170  0.2705  0.1780
  388SOL    HW1 1163   2.346   1.004   2.278 -1.7158 -1.3068 -1.1488
  388SOL    HW2 1164   2.350   0.858   2.191 -1.7908 -2.4077 -2.5634
  389SOL     OW 1165   2.133   1.326   2.239 -0.1850 -0.1585  0.6073
  389SOL    HW1 1166   2.200   1.329   2.312  1.3770 -1.8598 -0.0532
  389SOL    HW2 1167   2.050   1.370   2.270  3.3579 -1.2982 -0.2841
  390SOL     OW 1168   1.858   2.811   0.277 -0.7029  0.4679  0.4756
  390SOL    HW1 1169   1.836   2.787   0.373  1.3990  1.4417 -3.8044
  390SOL    HW2 1170   1.866   2.733   0.218  1.3268  4.3292  3.4534
  391SOL     OW 1171   2.244   1.961   0.940 -0.0185 -0.1938  0.1601
  391SOL    HW1 1172   2.165   1.980   1.004  1.5569 -1.3684 -0.9829
  391SOL    HW2 1173   2.323   1.943   1.000  1.0974 -0.2268  0.9251
  392SOL     OW 1174   3.017   2.590   1.345  0.5271  0.1570 -0.2686
  392SOL    HW1 1175   2.944   2.530   1.306 -0.1735  1.8331 -1.4151
  392SOL    HW2 1176   3.104   2.545   1.376 -1.1592  0.5174 -0.8138
  393SOL     OW 1177   1.944   1.919   2.994 -0.4415  0.6858  0.5575
  393SOL    HW1 1178   1.964   2.019   2.974  1.1875  1.7455 -1.4603
  393SOL    HW2 1179   1.860   1.898   2.947  2.0863 -1.3020 -0.0055
  394SOL     OW 1180   0.212   0.564   2.710 -0.1746 -0.0738 -0.0167
  394SOL    HW1 1181   0.293   0.626   2.697  1.3036  2.1033  0.7663
  394SOL    HW2 1182   0.132   0.626   2.698  0.6833 -2.1493  0.2654
  395SOL     OW 1183   0.858   0.635   0.808 -0.7368  0.1927 -0.3820
  395SOL    HW1 1184   0.844   0.666   0.906 -0.0827  1.6240 -0.7140
  395SOL    HW2 1185   0.935   0.687   0.771 -1.3920 -0.0659  2.2722
  396SOL     OW 1186   1.115   1.215   0.087 -0.2681 -0.6124 -0.3136
  396SOL    HW1 1187   1.044   1.278   0.124 -2.2227  0.1220 -0.3987
  396SOL    HW2 1188   1.171   1.181   0.167 -3.4107 -0.3613  2.1566
  397SOL     OW 1189   0.414   0.959   2.235 -0.3031  0.7302 -0.0399
  397SOL    HW1 1190   0.381   1.054   2.207  0.0437  2.2669 -1.7249
  397SOL    HW2 1191   0.426   0.903   2.151  1.5958  0.3833 -3.4319
  398SOL     OW 1192   0.830   0.154   0.259 -0.1909  0.1966 -0.1711
  398SOL    HW1 1193   0.819   0.181   0.358 -2.1605  0.5411 -0.2869
  398SOL    HW2 1194   0.906   0.088   0.243  1.5920 -1.4169  1.4806
  399SOL     OW 1195   2.012   0.162   1.760 -0.1774  0.4434 -0.0791
  399SOL    HW1 1196   1.999   0.253   1.789 -1.5727 -1.6105 -0.9799
  399SOL    HW2 1197   1.942   0.102   1.799  0.7143  3.5595 -1.0050
  400SOL     OW 1198   0.560   1.768   1.855  0.3454  0.0773 -0.3299
  400SOL    HW1 1199   0.625   1.745   1.931  0.6287 -0.1445  0.2809
  400SOL    HW2 1200   0.541   1.692   1.790 -0.8882 -0.6970  2.7925
  401SOL     OW 1201   0.659   0.909   2.643 -0.3028  0.3880 -0.2999
  401SOL    HW1 1202   0.714   0.870   2.716 -3.2736 -0.1361 -1.0122
  401SOL    HW2 1203   0.581   0.958   2.686  1.2947 -0.2242  0.9207
  402SOL     OW 1204   2.873   2.257   1.432  0.4406  0.4847 -0.1197
  402SOL    HW1 1205   2.829   2.169   1.466 -0.1047 -2.2117 -2.2371
  402SOL    HW2 1206   2.960   2.242   1.382  0.5343  2.0272 -1.1983
  403SOL     OW 1207   0.321   1.231   1.899 -0.3069  0.8648 -0.0895
  403SOL    HW1 1208   0.292   1.330   1.890 -0.3084  1.0071 -0.1964
  403SOL    HW2 1209   0.301   1.177   1.815  0.6154  0.5658 -2.8807
  404SOL     OW 1210   2.996   2.889   1.806 -0.1826 -0.4863  0.1451
  404SOL    HW1 1211   3.099   2.890   1.808 -3.2899  1.0791 -1.6828
  404SOL    HW2 1212   2.961   2.830   1.729 -1.2686  3.4328  1.5721
  405SOL     OW 1213   0.521   0.613   1.837 -0.1581  0.4711 -0.6409
  405SOL    HW1 1214   0.609   0.559   1.846  0.0648  4.2388 -0.2174
  405SOL    HW2 1215   0.470   0.601   1.920  0.2894  2.7988 -1.8840
  406SOL     OW 1216   1.720   2.261   2.479 -0.0760  0.1152 -0.2448
  406SOL    HW1 1217   1.732   2.351   2.427  3.7165 -1.3958 -1.8733
  406SOL    HW2 1218   1.814   2.227   2.511  0.2749  2.3167  1.1954
  407SOL     OW 1219   1.415   1.488   2.213 -0.5815 -0.3533 -0.2034
  407SOL    HW1 1220   1.328   1.493   2.156 -0.1959 -1.6823  2.0169
  407SOL    HW2 1221   1.394   1.489   2.312 -1.1398  1.6780 -3.3418
  408SOL     OW 1222   0.694   0.344   2.558  0.4021 -0.0179  0.0529
  408SOL    HW1 1223   0.612   0.402   2.541  0.2812  0.5209 -4.3976
  408SOL    HW2 1224   0.774   0.397   2.599 -0.4423  4.1162 -1.7791
  409SOL     OW 1225   0.197   1.973   0.005  0.6641  0.5165 -0.2213
  409SOL    HW1 1226   0.272   1.906   0.028  0.4678  2.5068 -1.6867
  409SOL    HW2 1227   0.188   2.041   0.083  0.2245 -3.0991  0.2685
  410SOL     OW 1228   2.914   1.518   0.298  0.2515 -0.0403 -0.6221
  410SOL    HW1 1229   2.975   1.583   0.246 -1.4874 -1.3367  2.2410
  410SOL    HW2 1230   2.899   1.561   0.396 -0.0247 -0.2404  3.7729
  411SOL     OW 1231   2.741   0.473   0.965  0.3674 -0.2567 -0.5391
  411SOL    HW1 1232   2.795   0.542   0.910 -1.2537  0.8232 -2.5993
  411SOL    HW2 1233   2.638   0.484   0.942 -1.0836 -2.2942  0.9463
  412SOL     OW 1234   1.277   1.017   1.261  0.1886  0.4624 -0.0679
  412SOL    HW1 1235   1.333   1.013   1.176 -0.2088  0.1055  3.1533
  412SOL    HW2 1236   1.335   0.984   1.338  0.0269 -0.3193 -0.6008
  413SOL     OW 1237   0.564   2.639   1.269 -0.2152 -0.7392  0.4576
  413SOL    HW1 1238   0.654   2.603   1.284  0.8143 -0.1895  0.5564
  413SOL    HW2 1239   0.539   2.653   1.169  0.3510  1.7933 -1.2222
  414SOL     OW 1240   2.974   1.493   2.723  0.2350  0.1828  0.3569
  414SOL    HW1 1241   3.066   1.488   2.679  0.5745 -1.4280 -1.8106
  414SOL    HW2 1242   2.967   1.574   2.772 -0.2435 -3.3219 -0.8294
  415SOL     OW 1243   0.305   2.254   2.804  0.0093  0.5529  0.0694
  415SOL    HW1 1244   0.351   2.181   2.859 -1.0528 -0.3535  1.4889
  415SOL    HW2 1245   0.221   2.220   2.758  0.5048  0.9074  0.7239
  416SOL     OW 1246   1.525   3.066   0.469  0.2414 -0.3521 -0.0052
  416SOL    HW1 1247   1.603   0.015   0.465  0.9598  1.5492 -2.6707
  416SOL    HW2 1248   1.502   3.016   0.382 -0.9383 -2.1966 -1.2681
  417SOL     OW 1249   0.528   0.870   0.789 -0.1327  0.5740  0.1085
  417SOL    HW1 1250   0.595   0.930   0.837  0.2222 -3.5312 -1.2592
  417SOL    HW2 1251   0.434   0.903   0.805  0.4560  2.8280  2.3945
  418SOL     OW 1252   2.281   1.095   1.969  0.4271 -0.1627  0.1202
  418SOL    HW1 1253   2.262   1.029   1.898 -0.1171 -0.4765  1.8455
  418SOL    HW2 1254   2.281   1.041   2.059  0.1093 -4.1433  1.5330
  419SOL     OW 1255   0.028   0.332   0.751 -0.0533  0.2973  0.5966
  419SOL    HW1 1256   0.080   0.246   0.773 -1.5645  0.1602 -0.6223
  419SOL    HW2 1257   0.032   0.393   0.835  0.2772 -2.3248  0.7403
  420SOL     OW 1258   0.389   1.653   0.938 -0.1025 -0.4533 -0.6720
  420SOL    HW1 1259   0.441   1.602   0.867 -1.0018  1.4007 -2.2599
  420SOL    HW2 1260   0.289   1.648   0.916 -1.3602 -1.3808 -1.9118
  421SOL     OW 1261   0.928   2.450   0.801 -0.1312 -0.2197 -0.5881
  421SOL    HW1 1262   0.903   2.483   0.707 -2.5871  0.6720 -1.4035
  421SOL    HW2 1263   1.005   2.380   0.801  1.2228  0.8801  1.5959
  422SOL     OW 1264   0.066   0.806   1.422  0.2701 -0.3549  0.4580
  422SOL    HW1 1265   3.087   0.765   1.418 -3.3507 -1.3648 -3.1765
  422SOL    HW2 1266   0.112   0.812   1.328  1.9247  1.5391 -0.2074
  423SOL     OW 1267   1.199   1.277   1.258  0.5301  0.6826  0.3656
  423SOL    HW1 1268   1.261   1.197   1.284  3.0645 -0.9262  1.9943
  423SOL    HW2 1269   1.237   1.329   1.177 -1.7471 -0.8126  1.9771
  424SOL     OW 1270   2.098   1.179   2.982 -0.3031  0.2962 -0.4696
  424SOL    HW1 1271   2.147   1.240   3.047 -0.4156  0.1658 -0.1181
  424SOL    HW2 1272   2.042   1.239   2.919  2.5935 -0.6572  1.9092
  425SOL     OW 1273   3.064   0.452   1.988  0.0089  0.1176 -0.3307
  425SOL    HW1 1274   3.069   0.556   1.993 -0.4596  0.0854  3.6527
  425SOL    HW2 1275   2.986   0.403   2.035  0.1107 -1.1315  0.4903
  426SOL     OW 1276   3.023   2.710   0.004 -0.4172 -0.0519 -0.1876
  426SOL    HW1 1277   3.110   2.665   3.080  4.4602 -2.0061  0.2119
  426SOL    HW2 1278   3.042   2.786   0.070  0.7771  2.0766  0.0211
  427SOL     OW 1279   0.785   0.713   2.352 -0.3345  0.5252 -0.3749
  427SOL    HW1 1280   0.688   0.729   2.378  0.4059 -0.9534  0.2676
  427SOL    HW2 1281   0.815   0.783   2.291 -0.2317 -1.5480  1.5676
  428SOL     OW 1282   2.271   0.958   1.522 -0.5164  0.0813 -0.6466
  428SOL    HW1 1283   2.372   0.947   1.534  1.6376 -2.5770  1.0667
  428SOL    HW2 1284   2.241   1.050   1.507  1.0469 -1.6572 -2.5425
  429SOL     OW 1285   2.584   2.465   0.453  0.5116 -0.1702 -0.0274
  429SOL    HW1 1286   2.576   2.496   0.551 -1.6710  0.6756 -0.3132
  429SOL    HW2 1287   2.506   2.496   0.398 -4.4959  0.2503 -1.8782
  430SOL     OW 1288   1.612   1.798   2.461  0.2749 -0.2962 -0.2169
  430SOL    HW1 1289   1.529   1.782   2.400 -1.5480 -1.5111  1.5660
  430SOL    HW2 1290   1.626   1.898   2.488 -1.6753 -0.0283 -2.2360
  431SOL     OW 1291   0.110   1.681   1.297  0.4356  0.2032 -0.6367
  431SOL    HW1 1292   0.032   1.629   1.261  1.1102 -1.9341  1.6700
  431SOL    HW2 1293   0.085   1.778   1.321 -0.3384  1.3330 -1.2263
  432SOL     OW 1294   1.394   2.932   2.583  0.3491  0.3890  0.2679
  432SOL    HW1 1295   1.301   2.886   2.566  2.5055  0.3846  1.7696
  432SOL    HW2 1296   1.462   2.856   2.590 -0.8717 -0.3167  0.1497
  433SOL     OW 1297   1.689   0.019   2.443  0.0242 -0.1460 -0.2339
  433SOL    HW1 1298   1.745   3.059   2.403 -1.4648 -2.3318  2.0677
  433SOL    HW2 1299   1.633   0.070   2.374 -1.1209  0.0192 -4.4016
  434SOL     OW 1300   0.291   2.908   2.100  0.3461 -0.0631 -0.3762
  434SOL    HW1 1301   0.212   2.851   2.135 -2.5228 -1.4722 -0.9671
  434SOL    HW2 1302   0.307   2.872   2.006  1.8830 -0.4033 -0.6194
  435SOL     OW 1303   0.021   2.369   0.142 -0.6085 -0.1270  0.3714
  435SOL    HW1 1304   0.046   2.389   0.044  1.9681  1.2116 -2.5459
  435SOL    HW2 1305   0.009   2.452   0.202 -0.9287 -0.4572 -1.2660
  436SOL     OW 1306   0.410   0.867   1.979  0.3943  0.0369  0.1256
  436SOL    HW1 1307   0.317   0.861   1.933 -0.5945  1.9334 -1.3992
  436SOL    HW2 1308   0.457   0.957   1.966 -1.7610 -1.4146  1.0415
  437SOL     OW 1309   0.366   2.805   2.509  0.1017 -0.3339  0.2969
  437SOL    HW1 1310   0.427   2.794   2.430  0.8637  1.1044  0.2502
  437SOL    HW2 1311   0.411   2.779   2.595 -0.6212  0.5656 -1.4353
  438SOL     OW 1312   0.706   1.567   1.527  0.2849 -0.0184  0.1603
  438SOL    HW1 1313   0.781   1.631   1.552 -1.8590 -0.6700 -2.3659
  438SOL    HW2 1314   0.633   1.570   1.593  1.0500 -1.7601 -2.7081
  439SOL     OW 1315   2.267   0.762   2.785 -0.1362  0.2272  0.2208
  439SOL    HW1 1316   2.353   0.742   2.735  0.8182 -1.6302  1.4169
  439SOL    HW2 1317   2.268   0.863   2.808  1.3934 -0.3571  0.0499
  440SOL     OW 1318   0.508   0.684   0.132 -0.8610 -0.3124 -0.7313
  440SOL    HW1 1319   0.532   0.692   0.228  1.2499 -2.9016 -1.3346
  440SOL    HW2 1320   0.466   0.599   0.116  3.9875  3.2753  1.7640
  441SOL     OW 1321   1.169   2.365   1.356 -0.0767 -0.0352  0.6886
  441SOL    HW1 1322   1.227   2.415   1.289 -0.4731  0.2980  1.6071
  441SOL    HW2 1323   1.188   2.393   1.448 -0.5330 -0.3713 -3.9586
  442SOL     OW 1324   2.821   1.712   0.788  0.6417 -0.1113 -0.7322
  442SOL    HW1 1325   2.761   1.793   0.805 -1.3305 -0.7950 -0.8468
  442SOL    HW2 1326   2.786   1.625   0.826 -1.9863  2.2669 -1.1090
  443SOL     OW 1327   2.655   2.049   2.554 -0.9971  0.2391  0.3351
  443SOL    HW1 1328   2.716   1.973   2.586 -0.3152  2.3870 -1.2977
  443SOL    HW2 1329   2.588   2.077   2.626 -1.3800  3.6798  0.2736
  444SOL     OW 1330   1.592   1.189   0.014  0.0520  0.5372 -0.0818
  444SOL    HW1 1331   1.614   1.127   0.092 -1.0436 -2.4084 -1.3353
  444SOL    HW2 1332   1.550   1.276   0.046 -0.1248  0.6889  1.3889
  445SOL     OW 1333   2.615   3.060   1.984 -0.0203  0.4380 -0.0824
  445SOL    HW1 1334   2.630   0.040   2.001 -1.4774  1.6322 -1.7434
  445SOL    HW2 1335   2.704   3.011   1.991  0.2651 -1.6514  0.0494
  446SOL     OW 1336   0.394   1.004   1.229  1.0362  0.6151  0.0585
  446SOL    HW1 1337   0.490   0.972   1.235  2.5800  0.7381  0.9498
  446SOL    HW2 1338   0.374   1.086   1.281 -1.6872 -2.3524 -3.0477
  447SOL     OW 1339   1.097   1.778   0.838  0.2878  0.2357  0.4895
  447SOL    HW1 1340   0.997   1.757   0.859  0.1282  0.0301  0.1365
  447SOL    HW2 1341   1.109   1.860   0.779  1.5485  1.4372  1.4495
  448SOL     OW 1342   1.413   0.882   1.691  0.3457 -0.3413 -0.0271
  448SOL    HW1 1343   1.440   0.911   1.787 -1.2763 -0.1463  3.7206
  448SOL    HW2 1344   1.323   0.835   1.691  2.3100  1.7332  0.1626
  449SOL     OW 1345   2.769   2.381   2.280  0.2904 -0.3841  0.3951
  449SOL    HW1 1346   2.720   2.471   2.302  3.4457 -0.5464  1.7664
  449SOL    HW2 1347   2.849   2.403   2.218  3.1891  1.8532  0.8558
  450SOL     OW 1348   3.005   1.944   1.674  0.1613  0.1134  0.3596
  450SOL    HW1 1349   2.908   1.977   1.667  1.1754  0.2167 -1.9555
  450SOL    HW2 1350   3.038   1.963   1.766 -0.9910 -1.5966 -0.2853
  451SOL     OW 1351   2.326   0.841   1.039  0.0206  0.4945  0.0556
  451SOL    HW1 1352   2.240   0.799   1.001 -1.7992 -0.3402  0.3168
  451SOL    HW2 1353   2.404   0.784   1.017 -2.2275  0.2219  1.4704
  452SOL     OW 1354   0.823   1.480   0.955 -0.0823 -0.8673  0.3369
  452SOL    HW1 1355   0.803   1.539   0.873  1.1107  1.4266 -0.7468
  452SOL    HW2 1356   0.741   1.420   0.974 -1.0084  0.3303  0.9563
  453SOL     OW 1357   0.971   2.071   0.998 -0.0523  0.1976  0.5037
  453SOL    HW1 1358   0.903   2.146   1.003  0.2677 -3.1882 -2.7739
  453SOL    HW2 1359   1.062   2.107   0.974 -1.2731 -0.1486 -2.1581
  454SOL     OW 1360   0.568   1.568   3.039  0.4563 -0.7286  0.1008
  454SOL    HW1 1361   0.577   1.604   2.942 -0.6380 -0.3965 -0.1136
  454SOL    HW2 1362   0.506   1.487   3.044  1.6576 -1.7760  0.9148
  455SOL     OW 1363   1.547   0.770   0.746 -0.1470  0.1945  0.0070
  455SOL    HW1 1364   1.572   0.673   0.765  0.3445 -1.5443  1.8797
  455SOL    HW2 1365   1.462   0.783   0.695 -0.1774  0.6212 -1.5461
  456SOL     OW 1366   2.308   2.418   0.812  0.4222 -0.3127 -0.2578
  456SOL    HW1 1367   2.319   2.328   0.766 -0.3243  0.2022  0.4606
  456SOL    HW2 1368   2.309   2.490   0.742 -2.1979 -1.0473  1.3978
  457SOL     OW 1369   1.608   2.853   2.889 -0.9404 -0.1445 -0.0753
  457SOL    HW1 1370   1.537   2.908   2.939  0.7839  2.8751 -1.3277
  457SOL    HW2 1371   1.556   2.799   2.818 -0.6996  0.8718 -0.3717
  458SOL     OW 1372   2.243   0.570   0.326  0.6238 -0.4485 -0.8843
  458SOL    HW1 1373   2.261   0.473   0.309  0.1532  2.2449 -0.3250
  458SOL    HW2 1374   2.153   0.604   0.284  0.7008  0.3679  1.1360
  459SOL     OW 1375   3.068   0.903   2.180 -0.2272  0.2374 -0.1264
  459SOL    HW1 1376   3.062   0.995   2.229  0.2611  3.8470  0.0164
  459SOL    HW2 1377   3.011   0.909   2.091 -0.6146 -1.0056  1.3506
  460SOL     OW 1378   0.536   0.952   0.108  0.0096 -0.1583  0.2545
  460SOL    HW1 1379   0.637   0.970   0.141  1.7537  0.3977 -0.3391
  460SOL    HW2 1380   0.514   0.851   0.091 -1.8094  0.7987 -1.2646
  461SOL     OW 1381   2.752   2.762   0.658 -0.6146 -0.0736  0.0584
  461SOL    HW1 1382   2.737   2.862   0.657 -0.2699 -1.1339 -0.6285
  461SOL    HW2 1383   2.666   2.710   0.646 -0.3337  1.8336 -0.6558
  462SOL     OW 1384   0.121   0.198   1.539 -0.2120 -0.0080  0.7743
  462SOL    HW1 1385   0.119   0.287   1.488 -1.3584 -0.8522  2.4901
  462SOL    HW2 1386   0.120   0.120   1.475 -2.7271  0.2946 -0.7661
  463SOL     OW 1387   2.033   2.383   2.120  0.5287  0.3370  0.1727
  463SOL    HW1 1388   2.035   2.312   2.193  0.0107 -0.0830 -0.6770
  463SOL    HW2 1389   1.938   2.419   2.099 -3.9907  1.9801 -0.8369
  464SOL     OW 1390   0.812   3.101   1.272 -0.5295  0.2331 -0.3242
  464SOL    HW1 1391   0.895   3.062   1.229  1.1294 -3.9335  0.0922
  464SOL    HW2 1392   0.791   0.080   1.250  0.0230 -0.6908  0.7792
  465SOL     OW 1393   0.567   0.094   1.564 -0.2882 -0.1120  0.4228
  465SOL    HW1 1394   0.654   0.053   1.550 -0.9503  3.4461 -0.6634
  465SOL    HW2 1395   0.558   0.159   1.644 -1.9475  1.4479  0.3260
  466SOL     OW 1396   1.159   2.372   2.133 -0.1376 -0.2124  0.0583
  466SOL    HW1 1397   1.115   2.301   2.194 -0.5907 -3.0668  2.0082
  466SOL    HW2 1398   1.159   2.325   2.045 -1.1406 -0.2097  1.8111
  467SOL     OW 1399   0.448   1.985   1.253  0.0632  0.0812  0.4930
  467SOL    HW1 1400   0.418   1.893   1.234 -0.8327  0.8124  0.2256
  467SOL    HW2 1401   0.549   1.987   1.259  0.9157 -0.7780 -0.1426
  468SOL     OW 1402   2.615   1.725   2.499  0.1229 -0.3599  0.0617
  468SOL    HW1 1403   2.672   1.795   2.540  1.7443  0.7679  0.0261
  468SOL    HW2 1404   2.590   1.749   2.408  1.1087 -0.1243  1.3893
  469SOL     OW 1405   1.197   2.245   0.553  0.5333  0.9404 -0.1581
  469SOL    HW1 1406   1.278   2.265   0.496 -2.4187 -0.0420 -2.6686
  469SOL    HW2 1407   1.110   2.233   0.496  2.3133  2.2480 -0.6183
  470SOL     OW 1408   2.459   1.365   1.330 -0.4292 -0.2215 -0.2621
  470SOL    HW1 1409   2.390   1.363   1.259  3.5074  1.0021 -2.0077
  470SOL    HW2 1410   2.422   1.341   1.421 -0.1991 -0.3541 -0.8743
  471SOL     OW 1411   0.331   2.419   3.053  1.0010  0.3938 -0.0086
  471SOL    HW1 1412   0.328   2.342   2.981  0.8763  0.6261  0.0201
  471SOL    HW2 1413   0.419   2.439   3.087 -3.1541 -1.6666 -0.7397
  472SOL     OW 1414   2.871   2.080   2.238  0.2225  0.0310  0.5749
  472SOL    HW1 1415   2.927   2.104   2.155 -0.0425  0.8463  1.4416
  472SOL    HW2 1416   2.808   2.159   2.257 -0.7530 -3.5560  1.6553
  473SOL     OW 1417   0.737   2.666   0.796  0.1282 -0.2843 -0.5554
  473SOL    HW1 1418   0.782   2.581   0.761  2.4181 -0.8927  1.8014
  473SOL    HW2 1419   0.775   2.749   0.752  3.5054  0.5138  0.7516
  474SOL     OW 1420   3.017   0.123   1.155 -0.5310 -0.3619  0.3487
  474SOL    HW1 1421   2.928   0.158   1.118 -0.1328 -2.0421 -0.1199
  474SOL    HW2 1422   2.995   0.091   1.250  0.0289 -1.5017  3.7239
  475SOL     OW 1423   1.787   0.000   1.808  0.0640  0.2251 -0.5266
  475SOL    HW1 1424   1.799   0.012   1.912  2.0452  2.2929  3.9301
  475SOL    HW2 1425   1.784   3.016   1.785  1.3409 -3.0872  1.0974
  476SOL     OW 1426   0.487   0.692   1.009 -0.2490  0.1774  0.4092
  476SOL    HW1 1427   0.521   0.762   0.943  0.1618 -1.9023  0.3918
  476SOL    HW2 1428   0.498   0.598   0.966 -1.3685  1.1004 -2.1243
  477SOL     OW 1429   0.908   2.318   1.299 -0.3310  0.0636  0.1512
  477SOL    HW1 1430   0.880   2.277   1.208 -0.6813 -3.6045 -0.9513
  477SOL    HW2 1431   1.007   2.329   1.308  0.1861  0.3426 -2.3513
  478SOL     OW 1432   0.250   2.354   2.352  0.1860 -0.6191 -0.0351
  478SOL    HW1 1433   0.229   2.454   2.372 -0.7478 -1.0782  0.6440
  478SOL    HW2 1434   0.180   2.286   2.387  0.2853 -2.8916  0.1236
  479SOL     OW 1435   0.161   0.862   1.847  0.1180 -0.5804  0.3978
  479SOL    HW1 1436   0.118   0.953   1.820 -1.2754 -1.4842  0.2703
  479SOL    HW2 1437   0.184   0.813   1.761  2.8988 -0.5233 -0.6015
  480SOL     OW 1438   2.967   2.194   0.044  0.5608 -0.7005 -0.1870
  480SOL    HW1 1439   2.871   2.180   0.082 -0.8587 -1.0209  1.6290
  480SOL    HW2 1440   3.033   2.235   0.104 -0.5576  0.8848  0.6985
  481SOL     OW 1441   1.538   1.953   2.113  0.4138 -0.2523 -0.2785
  481SOL    HW1 1442   1.608   1.887   2.087  0.6812  0.7288  1.2759
  481SOL    HW2 1443   1.472   1.907   2.176  1.4515 -0.4784 -1.9307
  482SOL     OW 1444   1.559   2.246   2.716  0.0961  0.4606  0.3451
  482SOL    HW1 1445   1.505   2.164   2.721  0.1524  1.7978 -0.9238
  482SOL    HW2 1446   1.621   2.231   2.637 -2.4968  1.9593  1.1217
  483SOL     OW 1447   0.751   2.153   2.674  0.0910  0.0430 -0.1079
  483SOL    HW1 1448   0.689   2.226   2.675 -0.6615 -4.6660  1.1361
  483SOL    HW2 1449   0.825   2.173   2.737 -1.9490  1.0621 -1.9215
  484SOL     OW 1450   0.064   0.332   1.148 -0.5904 -0.0465  0.6340
  484SOL    HW1 1451   0.064   0.368   1.244 -0.3390 -2.4360  0.5819
  484SOL    HW2 1452   0.008   0.252   1.145  0.3813  0.8294  2.1290
  485SOL     OW 1453   1.998   0.533   0.516 -0.3051 -0.4874  0.4761
  485SOL    HW1 1454   1.948   0.627   0.533 -0.3170  0.0565  1.8663
  485SOL    HW2 1455   2.023   0.525   0.421 -0.4244 -0.6737 -0.0705
  486SOL     OW 1456   1.837   2.915   2.360 -0.0835 -0.1144  0.2473
  486SOL    HW1 1457   1.880   2.896   2.266  0.0186  0.6753  0.3755
  486SOL    HW2 1458   1.904   2.893   2.431 -0.6940  0.4702  1.4008
  487SOL     OW 1459   1.619   1.623   0.846  0.1353 -0.0286  0.4892
  487SOL    HW1 1460   1.719   1.653   0.840  2.9416 -1.2943  1.5323
  487SOL    HW2 1461   1.584   1.657   0.937 -0.3304  1.0722  2.0534
  488SOL     OW 1462   2.306   1.179   0.280  0.0061  0.6676 -0.1300
  488SOL    HW1 1463   2.268   1.086   0.288  0.3043 -0.7166 -1.3234
  488SOL    HW2 1464   2.259   1.225   0.203  1.1673  0.9020  1.8567
  489SOL     OW 1465   2.448   0.263   0.793 -0.2037  0.0823  0.7801
  489SOL    HW1 1466   2.428   0.242   0.696  1.7346  0.4799  0.0804
  489SOL    HW2 1467   2.416   0.190   0.855 -0.0707 -0.0085  0.1659
  490SOL     OW 1468   1.599   2.681   3.106 -0.5654  0.1332 -0.4909
  490SOL    HW1 1469   1.514   2.725   0.026  0.9502 -0.0769 -3.1424
  490SOL    HW2 1470   1.627   2.734   3.023  0.0087 -0.6190 -0.7669
  491SOL     OW 1471   1.026   0.831   0.729  0.0930 -0.1713 -0.7063
  491SOL    HW1 1472   1.015   0.896   0.805 -2.8950  0.6037  0.5653
  491SOL    HW2 1473   1.036   0.883   0.645 -0.0505  0.5476  1.2942
  492SOL     OW 1474   1.654   0.148   0.093 -0.2899  0.3912  0.3831
  492SOL    HW1 1475   1.683   0.052   0.106 -1.7010 -1.0028  2.4571
  492SOL    HW2 1476   1.585   0.164   0.024  0.2864 -0.1556  0.5597
  493SOL     OW 1477   1.756   2.382   2.953  0.3379  0.1955 -0.5435
  493SOL    HW1 1478   1.663   2.399   2.983 -1.1575  1.3103 -1.6971
  493SOL    HW2 1479   1.774   2.438   2.870  1.6277  0.0747 -1.9221
  494SOL     OW 1480   0.617   1.252   0.721 -0.2542 -0.5061 -0.2813
  494SOL    HW1 1481   0.571   1.338   0.701 -0.1214  1.8764  2.4022
  494SOL    HW2 1482   0.557   1.190   0.772  1.3620  3.0048  0.6897
  495SOL     OW 1483   2.960   3.092   1.416 -0.0653  0.2592 -0.3509
  495SOL    HW1 1484   2.892   0.026   1.472  1.3475 -0.2912  1.6468
  495SOL    HW2 1485   3.055   3.106   1.456 -0.6361 -1.9314 -0.7845
  496SOL     OW 1486   2.492   3.066   1.742  0.2447 -0.5349  0.3066
  496SOL    HW1 1487   2.521   3.061   1.834  0.6364  0.6254 -1.2334
  496SOL    HW2 1488   2.573   3.068   1.679  0.5117  2.7508  0.5259
  497SOL     OW 1489   1.649   1.642   2.715 -0.1961  0.6661 -0.4575
  497SOL    HW1 1490   1.622   1.544   2.706  0.4197 -1.9462 -0.9068
  497SOL    HW2 1491   1.632   1.694   2.628 -0.4996  0.7421  1.2612
  498SOL     OW 1492   0.594   1.972   0.659 -0.0401 -0.0980 -0.2951
  498SOL    HW1 1493   0.517   1.906   0.640 -0.3331 -1.6356 -1.8714
  498SOL    HW2 1494   0.621   1.956   0.758  0.1063  0.5847 -1.4266
  499SOL     OW 1495   0.361   1.739   1.185  0.2336  0.2068  0.0829
  499SOL    HW1 1496   0.362   1.700   1.088 -2.1449  2.8278 -2.9678
  499SOL    HW2 1497   0.273   1.702   1.232 -0.8308  1.5414  2.3971
  500SOL     OW 1498   1.305   2.377   0.167  0.1189  0.4619  0.9642
  500SOL    HW1 1499   1.381   2.407   0.104 -0.6294  0.1504 -0.0757
  500SOL    HW2 1500   1.345   2.310   0.234  2.1576 -3.5445 -0.5758
  501SOL     OW 1501   2.469   2.498   1.029 -0.1210 -0.5966  0.3120
  501SOL    HW1 1502   2.421   2.574   1.075 -0.1507  0.3089 -3.2630
  501SOL    HW2 1503   2.413   2.464   0.954 -2.8253 -0.4172  1.7074
  502SOL     OW 1504   0.157   1.034   1.541 -0.2241 -0.7940 -0.0204
  502SOL    HW1 1505   0.236   1.007   1.587 -4.4767 -1.8778 -3.5113
  502SOL    HW2 1506   0.122   0.957   1.489  0.9415  1.1153  1.8675
  503SOL     OW 1507   2.276   0.465   1.688  0.0562  1.0607 -0.3678
  503SOL    HW1 1508   2.271   0.366   1.720 -0.3268 -0.0853  0.9950
  503SOL    HW2 1509   2.294   0.527   1.766  0.0753 -1.9624 -2.4052
  504SOL     OW 1510   1.685   0.665   1.904 -0.3256 -0.1902 -0.3429
  504SOL    HW1 1511   1.599   0.626   1.949 -2.6153  0.5134  0.6576
  504SOL    HW2 1512   1.663   0.703   1.812  0.0452 -3.0714  2.8211
  505SOL     OW 1513   1.130   0.296   2.801 -0.4523 -0.2842  0.5893
  505SOL    HW1 1514   1.145   0.198   2.783  2.4892 -0.6904  3.1168
  505SOL    HW2 1515   1.164   0.322   2.896  3.6150  1.8311 -0.2889
  506SOL     OW 1516   0.504   0.708   1.598 -0.3312  0.2346 -0.2067
  506SOL    HW1 1517   0.591   0.683   1.552  1.9125  0.1294  0.4001
  506SOL    HW2 1518   0.502   0.661   1.692  3.6980 -0.4359  0.0809
  507SOL     OW 1519   1.419   2.989   2.995  0.1227 -0.5788  0.6836
  507SOL    HW1 1520   1.428   3.082   3.031 -2.3538  1.0107  2.4622
  507SOL    HW2 1521   1.327   2.970   2.953 -0.3328 -0.7538  1.6652
  508SOL     OW 1522   2.693   0.368   2.720  0.3079 -0.0788  0.3405
  508SOL    HW1 1523   2.689   0.447   2.778 -0.1326 -2.4201 -4.7784
  508SOL    HW2 1524   2.610   0.308   2.733  1.4850  2.1575  1.0915
  509SOL     OW 1525   0.938   1.448   2.035  0.1542 -0.3203  0.6129
  509SOL    HW1 1526   0.856   1.407   2.083 -0.5389 -1.7538  0.1378
  509SOL    HW2 1527   0.913   1.510   1.958  1.2894 -1.3023  0.8955
  510SOL     OW 1528   0.031   1.054   0.787 -0.0526 -0.1273  0.3701
  510SOL    HW1 1529   3.109   1.148   0.785  0.2094  0.7356  2.1342
  510SOL    HW2 1530   3.099   0.988   0.731 -1.5376  2.7032  1.1641
  511SOL     OW 1531   1.762   1.404   1.041 -0.5375  0.3305 -0.0501
  511SOL    HW1 1532   1.698   1.433   1.115 -0.0791  3.2106  0.4688
  511SOL    HW2 1533   1.845   1.469   1.032 -0.2095  2.8602  0.2918
  512SOL     OW 1534   0.936   1.413   0.188 -0.2220  0.3884 -0.1178
  512SOL    HW1 1535   0.903   1.455   0.101 -0.1791  0.8152  1.8090
  512SOL    HW2 1536   0.967   1.485   0.250 -0.3112 -1.6718 -1.2969
  513SOL     OW 1537   0.236   2.466   0.772 -0.7148 -0.0622  0.9423
  513SOL    HW1 1538   0.184   2.553   0.774  0.1991 -0.3280  0.9428
  513SOL    HW2 1539   0.322   2.486   0.724 -0.2877  2.2653 -1.1725
  514SOL     OW 1540   0.091   1.926   2.745 -0.2246  0.2479 -0.7967
  514SOL    HW1 1541   0.123   1.960   2.654 -1.1701 -0.5283  1.6478
  514SOL    HW2 1542   0.057   1.997   2.807 -2.6216 -0.0755 -1.7976
  515SOL     OW 1543   2.513   0.620   0.269 -0.6155  0.0239 -0.1893
  515SOL    HW1 1544   2.549   0.718   0.265  2.6714  2.4502 -0.7995
  515SOL    HW2 1545   2.416   0.608   0.295  3.1576 -0.2220  1.2998
  516SOL     OW 1546   2.526   2.799   0.834  0.1647  0.4530  0.6333
  516SOL    HW1 1547   2.579   2.807   0.917 -3.0625  0.0902 -1.2384
  516SOL    HW2 1548   2.498   2.895   0.800 -0.2519  2.3679  2.0801
  517SOL     OW 1549   1.360   1.736   2.875  0.0210 -0.6131 -0.0935
  517SOL    HW1 1550   1.456   1.743   2.913  0.5004  0.8780 -1.1043
  517SOL    HW2 1551   1.296   1.775   2.947 -1.5417  0.9837  3.2068
  518SOL     OW 1552   1.186   0.711   1.677  0.0871  0.1940 -0.1607
  518SOL    HW1 1553   1.113   0.696   1.609 -4.5912  0.7407  1.3537
  518SOL    HW2 1554   1.200   0.617   1.719 -0.9723 -1.7610  0.2173
  519SOL     OW 1555   2.952   1.633   0.549  0.2317  0.1038  0.0216
  519SOL    HW1 1556   2.911   1.657   0.637 -0.3140  0.0599 -2.4629
  519SOL    HW2 1557   3.030   1.564   0.555  2.0211 -1.0883 -0.3754
  520SOL     OW 1558   2.227   2.107   1.987 -0.1177  0.1537 -0.0332
  520SOL    HW1 1559   2.283   2.192   1.984 -1.9547  1.4324 -1.2756
  520SOL    HW2 1560   2.251   2.047   2.068  1.7605  1.2512 -0.6759
  521SOL     OW 1561   0.944   3.052   2.619 -0.1507 -0.5426  0.1836
  521SOL    HW1 1562   0.886   0.018   2.610 -2.0549  0.8330 -0.2295
  521SOL    HW2 1563   0.936   3.007   2.526 -2.5715  2.2208  0.0198
  522SOL     OW 1564   2.664   0.468   2.471  0.0842 -0.7570  0.3148
  522SOL    HW1 1565   2.609   0.425   2.389  1.1067  0.0296 -2.5217
  522SOL    HW2 1566   2.660   0.408   2.552  0.9395 -1.1651 -2.7898
  523SOL     OW 1567   1.793   2.281   1.690  0.0565 -0.3071 -0.8145
  523SOL    HW1 1568   1.774   2.383   1.700  0.0342 -1.5366  1.4285
  523SOL    HW2 1569   1.855   2.252   1.765 -0.5661 -0.5455 -1.6107
  524SOL     OW 1570   1.606   2.081   2.957 -0.5897  0.1010  0.3427
  524SOL    HW1 1571   1.619   2.155   2.889  0.6734 -1.2289 -0.9237
  524SOL    HW2 1572   1.685   2.018   2.964 -1.9065 -1.0760  0.1750
  525SOL     OW 1573   0.222   0.871   0.258 -0.2480  0.1759 -0.1953
  525SOL    HW1 1574   0.250   0.772   0.281  0.5584 -2.2176 -0.3664
  525SOL    HW2 1575   0.306   0.929   0.251 -0.3119 -1.9082 -0.6978
  526SOL     OW 1576   1.149   2.789   0.662 -0.1211  0.1698  0.5058
  526SOL    HW1 1577   1.207   2.703   0.643  0.5254 -3.6365  1.0247
  526SOL    HW2 1578   1.167   2.824   0.756  1.2284  1.3520  0.8166
  527SOL     OW 1579   2.560   1.796   0.623  0.1923 -0.8215 -0.0592
  527SOL    HW1 1580   2.589   1.843   0.710  1.5673  1.9310 -0.5527
  527SOL    HW2 1581   2.621   1.718   0.603  0.4392 -0.4415  0.6502
  528SOL     OW 1582   0.751   0.974   2.219 -0.2644 -0.7603 -0.1707
  528SOL    HW1 1583   0.792   1.043   2.284 -2.8417  1.9765  0.1353
  528SOL    HW2 1584   0.655   1.000   2.202 -0.8277 -0.6507 -0.5655
  529SOL     OW 1585   1.276   1.733   2.613 -0.1063 -0.0421  0.6325
  529SOL    HW1 1586   1.287   1.764   2.707  1.1670  0.8387 -0.2044
  529SOL    HW2 1587   1.342   1.655   2.593  2.9275  0.3408  0.4474
  530SOL     OW 1588   1.698   1.234   2.480  0.3583  0.2882  0.1485
  530SOL    HW1 1589   1.672   1.256   2.384  0.5317  1.0761 -2.8755
  530SOL    HW2 1590   1.684   1.140   2.509 -0.0397  0.3334  1.0924
  531SOL     OW 1591   0.564   2.394   2.683 -0.1697 -0.5146  0.2659
  531SOL    HW1 1592   0.483   2.347   2.714  4.5523  1.7360 -0.8446
  531SOL    HW2 1593   0.622   2.407   2.765 -4.0757 -0.7705 -2.9353
  532SOL     OW 1594   2.511   0.789   0.612  0.5970  0.2599 -0.5286
  532SOL    HW1 1595   2.535   0.887   0.636  0.7954 -0.9146  2.2307
  532SOL    HW2 1596   2.587   0.728   0.638 -0.2420 -0.2083  0.2904
  533SOL     OW 1597   0.063   0.513   1.730  0.2822 -0.3052  0.1212
  533SOL    HW1 1598   0.114   0.599   1.716 -0.4859 -0.6460  1.5039
  533SOL    HW2 1599   0.072   0.479   1.824 -0.0488 -2.2312  2.5186
  534SOL     OW 1600   1.267   0.018   0.131  0.9651 -0.3371  0.4256
  534SOL    HW1 1601   1.240   0.116   0.141  0.0792  2.0748  1.2974
  534SOL    HW2 1602   1.245   3.093   0.043 -0.0659  0.1238 -0.7687
  535SOL     OW 1603   0.256   0.004   0.090 -0.1820  0.3954 -0.4393
  535SOL    HW1 1604   0.241   3.083   3.116  0.9783  0.4125  2.4374
  535SOL    HW2 1605   0.176   0.061   0.121 -0.6319  0.1414 -0.6559
  536SOL     OW 1606   0.576   1.535   1.281  0.8041  0.3344  0.8381
  536SOL    HW1 1607   0.481   1.576   1.292  0.3697  1.6811  0.5180
  536SOL    HW2 1608   0.637   1.546   1.364  1.2415 -0.4394 -0.0890
  537SOL     OW 1609   0.716   2.677   1.774  0.0580  0.0373 -0.0504
  537SOL    HW1 1610   0.815   2.683   1.810  5.2943  0.4237  0.3828
  537SOL    HW2 1611   0.646   2.666   1.848 -1.1475 -0.7548  0.1105
  538SOL     OW 1612   0.034   1.740   3.065 -0.1686 -0.3448 -0.4113
  538SOL    HW1 1613   0.099   1.823   3.073 -1.2865  1.6507 -0.1869
  538SOL    HW2 1614   0.002   1.725   0.042  0.0694  2.6053 -2.2721
  539SOL     OW 1615   2.571   0.684   2.654  0.3395 -0.2994 -0.2557
  539SOL    HW1 1616   2.585   0.608   2.588  0.0953  0.0037  1.8866
  539SOL    HW2 1617   2.619   0.669   2.743 -0.5383 -1.4546  2.2620
  540SOL     OW 1618   1.788   0.353   2.653 -0.5854 -0.0327 -0.1697
  540SOL    HW1 1619   1.693   0.383   2.671  1.0382 -0.3766 -0.5676
  540SOL    HW2 1620   1.846   0.425   2.606  0.0790  2.6095 -2.6600
  541SOL     OW 1621   0.634   0.245   1.777  0.2478 -0.1931 -0.1493
  541SOL    HW1 1622   0.586   0.201   1.856  1.1111  2.1573  0.9848
  541SOL    HW2 1623   0.664   0.336   1.805 -2.1662  0.2484 -0.6037
  542SOL     OW 1624   1.859   2.776   2.800 -0.0506 -0.5862  0.0188
  542SOL    HW1 1625   1.778   2.812   2.848 -0.7517  3.1807 -1.1350
  542SOL    HW2 1626   1.894   2.848   2.735 -0.3709 -2.8851 -1.7306
  543SOL     OW 1627   0.884   2.864   0.699 -0.1441 -0.1133 -0.2356
  543SOL    HW1 1628   0.892   2.967   0.706  0.1037  0.9525 -2.1560
  543SOL    HW2 1629   0.976   2.836   0.663  2.8978  2.6091 -0.5739
  544SOL     OW 1630   2.715   1.565   1.858  0.2341  0.9500  0.0411
  544SOL    HW1 1631   2.732   1.608   1.946 -1.5659 -2.7927 -1.6898
  544SOL    HW2 1632   2.616   1.589   1.822 -1.9744 -0.2175 -0.6848
  545SOL     OW 1633   2.173   1.706   1.315  0.6710 -0.2654 -0.3684
  545SOL    HW1 1634   2.208   1.649   1.389  0.4588 -1.8845 -1.2298
  545SOL    HW2 1635   2.211   1.674   1.227 -2.1748  1.7780 -0.5315
  546SOL     OW 1636   0.099   0.169   2.208 -0.7118 -0.3862  0.2905
  546SOL    HW1 1637   0.125   0.239   2.135  2.3360  1.4416  0.5178
  546SOL    HW2 1638   0.172   0.098   2.217  2.5935 -1.0658 -0.0037
  547SOL     OW 1639   1.143   0.586   1.083  0.0570 -0.4998  0.1050
  547SOL    HW1 1640   1.142   0.592   1.185  0.2634 -0.2714  0.1480
  547SOL    HW2 1641   1.196   0.665   1.040 -0.9516  2.2939 -1.5316
  548SOL     OW 1642   1.384   2.411   2.868 -0.3021 -0.1712  0.7306
  548SOL    HW1 1643   1.319   2.351   2.916  0.4148 -1.1704 -0.4770
  548SOL    HW2 1644   1.446   2.356   2.807  1.8379 -0.2339 -1.3280
  549SOL     OW 1645   2.264   0.314   0.250 -0.3843  0.2535  0.5531
  549SOL    HW1 1646   2.182   0.271   0.218  0.4557  1.7606  3.0372
  549SOL    HW2 1647   2.345   0.290   0.188  1.9509 -1.7415 -4.1717
  550SOL     OW 1648   2.869   2.119   0.768  0.3712  0.3771 -0.0734
  550SOL    HW1 1649   2.819   2.178   0.707  0.8654 -2.8019  0.8465
  550SOL    HW2 1650   2.950   2.093   0.712  0.5133  0.7545 -1.0198
  551SOL     OW 1651   1.120   3.071   2.155 -0.2502 -0.4207  0.2862
  551SOL    HW1 1652   1.119   3.107   2.060 -2.9541  1.2709 -0.0816
  551SOL    HW2 1653   1.122   0.035   2.215 -0.2436  2.4011  0.0475
  552SOL     OW 1654   2.963   2.466   2.693 -0.5064  0.1805 -0.3547
  552SOL    HW1 1655   2.901   2.417   2.630  2.1468  0.9058 -4.2362
  552SOL    HW2 1656   2.953   2.415   2.781 -1.4525 -0.5795  0.0729
  553SOL     OW 1657   0.173   2.873   1.039  0.0910 -0.4626  0.4142
  553SOL    HW1 1658   0.156   2.968   1.044 -1.0978 -3.2094  1.8816
  553SOL    HW2 1659   0.094   2.823   1.000 -1.3977  0.8792  2.0596
  554SOL     OW 1660   2.317   1.940   1.673  0.4546 -0.5694  0.0441
  554SOL    HW1 1661   2.214   1.925   1.672 -1.9183 -0.9723 -1.5288
  554SOL    HW2 1662   2.359   1.864   1.720 -0.2726 -2.4208  0.7510
  555SOL     OW 1663   1.642   2.173   2.012  0.0774 -0.6293  0.3415
  555SOL    HW1 1664   1.612   2.084   2.048  4.4179  3.0524  0.3480
  555SOL    HW2 1665   1.585   2.252   2.043  1.5725 -1.0547 -0.5852
  556SOL     OW 1666   1.342   1.421   1.072 -0.6154  0.3738  0.8608
  556SOL    HW1 1667   1.407   1.383   1.008 -0.4507  0.0571  2.3427
  556SOL    HW2 1668   1.350   1.521   1.074 -1.6997 -0.2911  1.1385
  557SOL     OW 1669   1.674   2.840   1.750 -0.1157  0.2170 -1.3943
  557SOL    HW1 1670   1.592   2.863   1.801  1.8343 -1.3629 -0.6301
  557SOL    HW2 1671   1.683   2.899   1.666 -0.7569 -1.2139 -0.7415
  558SOL     OW 1672   0.183   0.119   1.805  0.2672  0.2589  0.7641
  558SOL    HW1 1673   0.224   0.180   1.877  3.4586  0.5784  2.7631
  558SOL    HW2 1674   0.173   0.169   1.715  0.7924  2.7205  0.3086
  559SOL     OW 1675   2.086   2.945   0.726  0.2827  0.3737 -0.1904
  559SOL    HW1 1676   2.069   3.045   0.747  1.3962 -0.0208 -0.5749
  559SOL    HW2 1677   2.085   2.928   0.626  0.4790 -0.9127  1.2610
  560SOL     OW 1678   1.860   2.565   0.735  0.0432 -0.3508  0.0752
  560SOL    HW1 1679   1.956   2.572   0.767  0.8421  0.6770 -1.2414
  560SOL    HW2 1680   1.792   2.600   0.804 -0.3746  1.0410  1.0088
  561SOL     OW 1681   0.874   0.019   0.699 -0.3553  0.1284 -0.0489
  561SOL    HW1 1682   0.959   0.070   0.686 -0.2858 -2.6905  1.9090
  561SOL    HW2 1683   0.794   0.056   0.642 -2.0272 -1.6984 -2.6011
  562SOL     OW 1684   0.499   1.417   2.299 -0.2440 -0.4647 -0.1111
  562SOL    HW1 1685   0.429   1.489   2.275  0.3613  1.9516 -0.2895
  562SOL    HW2 1686   0.472   1.372   2.387 -0.7181 -0.7789  0.7551
  563SOL     OW 1687   1.502   2.186   2.320 -0.0960 -0.4962 -0.6975
  563SOL    HW1 1688   1.504   2.122   2.245  3.0299  0.8032 -0.1947
  563SOL    HW2 1689   1.595   2.208   2.356  0.0022 -1.6381  0.6722
  564SOL     OW 1690   2.907   0.947   0.728  0.1892  0.0297  0.0420
  564SOL    HW1 1691   2.937   0.952   0.631  0.9787 -2.8506  0.0253
  564SOL    HW2 1692   2.808   0.960   0.741  0.6150  2.3569 -1.8803
  565SOL     OW 1693   0.784   1.018   0.166  0.5477  0.7850 -0.1885
  565SOL    HW1 1694   0.838   1.023   0.076  0.2530 -0.9844  0.5165
  565SOL    HW2 1695   0.779   1.108   0.213  1.3457  1.0895 -2.5429
  566SOL     OW 1696   2.558   0.140   2.897 -0.2384  0.3239 -0.4056
  566SOL    HW1 1697   2.481   0.079   2.922 -0.6235  1.4720 -2.0972
  566SOL    HW2 1698   2.529   0.238   2.919  0.3031  0.0179 -1.0654
  567SOL     OW 1699   1.328   0.774   1.004  0.8765  0.1170  0.6910
  567SOL    HW1 1700   1.413   0.723   1.026 -0.1311  0.9967 -1.4739
  567SOL    HW2 1701   1.347   0.873   0.996 -0.1249 -2.5728  3.1848
  568SOL     OW 1702   1.694   1.814   2.920 -0.6038  0.0060  0.4306
  568SOL    HW1 1703   1.636   1.770   3.000 -5.7508 -1.4589  1.4500
  568SOL    HW2 1704   1.683   1.757   2.830 -3.0140  1.1006 -2.2634
  569SOL     OW 1705   2.221   1.329   0.081  0.6831 -0.1239 -0.5516
  569SOL    HW1 1706   2.177   1.415   0.115 -0.5502  2.2402  0.3042
  569SOL    HW2 1707   2.305   1.359   0.037  0.0311 -0.5395  0.1520
  570SOL     OW 1708   0.087   2.564   1.988  0.0424 -0.4517  0.0356
  570SOL    HW1 1709   0.183   2.580   1.957  2.1507  0.2502  1.5269
  570SOL    HW2 1710   0.022   2.526   1.919 -2.1306 -1.3912 -2.1408
  571SOL     OW 1711   3.061   1.671   1.644 -0.1049 -0.4014  0.1790
  571SOL    HW1 1712   3.029   1.769   1.648  1.1965  0.7067  0.3918
  571SOL    HW2 1713   0.039   1.660   1.615  0.9538 -1.0557  1.6805
  572SOL     OW 1714   1.571   1.983   0.434 -0.3060 -0.0879  0.0956
  572SOL    HW1 1715   1.527   1.916   0.500 -1.9163 -1.4339  1.4096
  572SOL    HW2 1716   1.639   2.040   0.483 -0.4320 -0.3937  0.1105
  573SOL     OW 1717   1.883   2.051   0.482 -0.9104  0.4558 -0.1273
  573SOL    HW1 1718   1.898   2.093   0.394  1.6307  1.0622 -0.6402
  573SOL    HW2 1719   1.869   2.118   0.555  0.1195 -2.9147 -0.4290
  574SOL     OW 1720   0.724   3.069   0.915  0.0906  0.1838  0.0682
  574SOL    HW1 1721   0.649   0.009   0.947  1.1491  0.2042 -1.3147
  574SOL    HW2 1722   0.767   3.106   0.832  0.2637 -1.8295  1.6667
  575SOL     OW 1723   0.743   1.108   1.755 -0.5638 -0.3220  0.3862
  575SOL    HW1 1724   0.755   1.209   1.749 -1.0703 -1.5635 -0.4885
  575SOL    HW2 1725   0.807   1.065   1.824  1.7573 -0.1556  0.8031
  576SOL     OW 1726   2.674   0.039   1.543  0.5661 -0.7632  0.3671
  576SOL    HW1 1727   2.725   0.107   1.601  0.3359  0.0591  2.5354
  576SOL    HW2 1728   2.631   0.090   1.461  0.1016  2.2127  0.2620
  577SOL     OW 1729   1.244   1.048   2.410 -0.5368  0.0320  0.3165
  577SOL    HW1 1730   1.182   1.011   2.479  0.2642 -1.0749 -0.7918
  577SOL    HW2 1731   1.266   0.979   2.337 -0.0391 -0.6907 -0.3075
  578SOL     OW 1732   2.241   1.194   2.573  0.6205  0.1830 -0.2861
  578SOL    HW1 1733   2.139   1.192   2.589 -0.8279 -1.7291  1.7590
  578SOL    HW2 1734   2.272   1.289   2.567  1.9248 -1.0447  0.9924
  579SOL     OW 1735   1.535   2.177   1.757 -0.5745  0.2782  0.5037
  579SOL    HW1 1736   1.538   2.208   1.858 -1.8176  0.9112  2.9525
  579SOL    HW2 1737   1.626   2.203   1.714  3.2161 -2.0613  1.6773
  580SOL     OW 1738   1.364   1.719   0.259 -0.2611 -0.0806  0.3141
  580SOL    HW1 1739   1.435   1.667   0.311  2.4273 -1.8899 -0.8054
  580SOL    HW2 1740   1.289   1.750   0.317 -1.4451 -1.4430 -2.0389
  581SOL     OW 1741   1.302   0.818   2.038  0.1738  0.7892 -0.1490
  581SOL    HW1 1742   1.206   0.846   2.013  0.3540 -0.2682  2.3905
  581SOL    HW2 1743   1.312   0.830   2.135  0.9371  2.2718 -1.3131
  582SOL     OW 1744   0.756   1.395   1.800 -0.4248  0.3009  0.0037
  582SOL    HW1 1745   0.794   1.477   1.845  0.8914  0.7501 -0.7422
  582SOL    HW2 1746   0.806   1.374   1.714 -0.4591  2.7034 -0.5326
  583SOL     OW 1747   1.043   1.195   2.021  1.0055 -0.4004  0.7723
  583SOL    HW1 1748   0.975   1.123   1.999  1.4412 -1.1447 -0.6095
  583SOL    HW2 1749   1.005   1.293   2.008 -1.1027 -0.0821 -1.4556
  584SOL     OW 1750   2.514   2.573   0.694  0.6482 -0.1867 -0.2684
  584SOL    HW1 1751   2.432   2.595   0.639 -2.7682 -1.9551 -0.3854
  584SOL    HW2 1752   2.524   2.650   0.762  0.9372 -0.6694 -0.1617
  585SOL     OW 1753   2.240   0.234   2.753 -0.5570  0.1377  0.5518
  585SOL    HW1 1754   2.209   0.332   2.768 -2.5721  0.4088  0.8338
  585SOL    HW2 1755   2.253   0.192   2.845 -1.0468  0.5460 -3.7829
  586SOL     OW 1756   0.080   2.289   0.657  0.0701  0.2124 -0.2049
  586SOL    HW1 1757   3.106   2.331   0.658  2.0056  0.9072 -0.9984
  586SOL    HW2 1758   0.138   2.358   0.708 -0.0269  2.1784  0.8648
  587SOL     OW 1759   1.555   1.690   3.116  0.2520  0.1673  0.1589
  587SOL    HW1 1760   1.554   1.747   0.081 -0.4047  0.3265  0.6575
  587SOL    HW2 1761   1.553   1.594   0.027  0.9073  3.5471 -2.3095
  588SOL     OW 1762   0.329   0.259   1.137  0.5075  0.0444 -0.3606
  588SOL    HW1 1763   0.367   0.253   1.227  0.6373 -0.8030  0.4668
  588SOL    HW2 1764   0.232   0.293   1.127 -0.6881  0.3600 -1.0415
  589SOL     OW 1765   1.567   0.495   0.791 -0.1011  0.1102 -0.1889
  589SOL    HW1 1766   1.644   0.428   0.811  1.2385 -0.4386 -3.1874
  589SOL    HW2 1767   1.505   0.491   0.872 -2.2695  0.7337 -0.4927
  590SOL     OW 1768   1.277   1.217   3.008  0.9501  0.2323 -0.1792
  590SOL    HW1 1769   1.217   1.225   3.090  1.3251 -0.0183 -2.5480
  590SOL    HW2 1770   1.291   1.311   2.971 -0.6951 -1.3224  2.3011
  591SOL     OW 1771   2.414   2.497   2.563  0.9245 -0.4205 -0.4643
  591SOL    HW1 1772   2.510   2.523   2.572 -2.4976 -4.8223  1.4036
  591SOL    HW2 1773   2.398   2.460   2.471  3.0530 -1.6414  0.6534
  592SOL     OW 1774   2.027   1.931   1.415  0.3430 -0.4631 -0.4897
  592SOL    HW1 1775   2.038   1.959   1.515  0.0105  1.5813  0.6323
  592SOL    HW2 1776   2.083   1.847   1.392  0.3913 -1.5073 -2.8207
  593SOL     OW 1777   0.829   0.254   1.257 -1.0119 -0.6974 -0.1634
  593SOL    HW1 1778   0.814   0.299   1.347  0.2017  1.2142 -0.2275
  593SOL    HW2 1779   0.790   0.310   1.184  0.6472 -1.4043  1.4451
  594SOL     OW 1780   2.539   0.893   2.487 -0.1243  0.3394  0.1887
  594SOL    HW1 1781   2.540   0.816   2.551 -2.5367  2.2954 -2.6089
  594SOL    HW2 1782   2.549   0.863   2.390  2.6988 -1.3984 -1.1883
  595SOL     OW 1783   0.159   0.089   0.801 -0.2304  0.6610 -0.4458
  595SOL    HW1 1784   0.164   0.071   0.898  2.9034  3.2743 -2.2414
  595SOL    HW2 1785   0.164   3.115   0.753  2.8129 -0.6233  1.2381
  596SOL     OW 1786   0.208   1.254   1.159 -0.3172 -0.3864  0.0080
  596SOL    HW1 1787   0.208   1.277   1.256  2.3920  1.1206 -0.4564
  596SOL    HW2 1788   0.151   1.175   1.143  1.6627  3.5055  1.1955
  597SOL     OW 1789   1.829   1.523   0.326 -0.0544  0.3899  0.0159
  597SOL    HW1 1790   1.888   1.454   0.378  2.6561 -0.4613  1.0770
  597SOL    HW2 1791   1.877   1.614   0.316  2.6617 -0.8355  0.8696
  598SOL     OW 1792   0.142   2.959   1.768  0.0973  0.4018 -0.1004
  598SOL    HW1 1793   0.165   2.942   1.669 -0.0343 -1.8017  0.1326
  598SOL    HW2 1794   0.153   3.053   1.794 -3.2481  0.9191 -0.3359
  599SOL     OW 1795   2.606   1.557   2.731  0.1482 -0.0785  0.2720
  599SOL    HW1 1796   2.530   1.574   2.795  0.1829  0.0749  1.5100
  599SOL    HW2 1797   2.597   1.616   2.652  1.0202 -3.3886 -0.2953
  600SOL     OW 1798   0.759   1.257   0.305 -0.1739 -0.0595 -0.6234
  600SOL    HW1 1799   0.834   1.307   0.251  1.4733 -1.3986  3.1907
  600SOL    HW2 1800   0.779   1.245   0.408 -0.5202  0.0514  1.4195
  601SOL     OW 1801   0.722   0.992   0.932  0.0492 -0.2493 -0.0203
  601SOL    HW1 1802   0.826   0.979   0.945 -0.8464  2.5972 -0.0781
  601SOL    HW2 1803   0.685   1.030   1.018  1.9232 -0.9614 -3.1625
  602SOL     OW 1804   1.488   2.534   0.347  0.0762  0.2557  0.4363
  602SOL    HW1 1805   1.445   2.440   0.348 -1.6704  0.5159 -0.5079
  602SOL    HW2 1806   1.590   2.519   0.346 -1.3793 -0.0812  0.8863
  603SOL     OW 1807   0.531   2.625   1.963 -0.2224 -0.3430  0.2655
  603SOL    HW1 1808   0.432   2.630   1.948  0.1212  0.7596 -1.1087
  603SOL    HW2 1809   0.556   2.536   2.011 -2.9207 -0.6797 -0.9432
  604SOL     OW 1810   0.254   0.478   2.377 -0.1428 -0.1337  0.3768
  604SOL    HW1 1811   0.215   0.387   2.396  2.5180 -0.4437 -1.8244
  604SOL    HW2 1812   0.199   0.553   2.420 -1.4081 -1.6511 -3.4906
  605SOL     OW 1813   3.027   1.301   1.404  0.0972  0.3319  0.6273
  605SOL    HW1 1814   0.002   1.296   1.447 -1.5204 -2.8295 -1.0385
  605SOL    HW2 1815   2.949   1.305   1.473 -2.2413 -0.8441 -0.6444
  606SOL     OW 1816   0.903   1.610   2.513 -0.2956  0.1682  0.5604
  606SOL    HW1 1817   0.818   1.556   2.540 -1.8838  0.6275 -0.7285
  606SOL    HW2 1818   0.981   1.545   2.493  1.2452 -2.6163 -0.0422
  607SOL     OW 1819   0.194   3.047   0.399 -0.5080 -0.4596  0.1235
  607SOL    HW1 1820   0.291   3.070   0.419  0.2246  0.6573  2.9631
  607SOL    HW2 1821   0.154   3.111   0.334 -1.5884  2.0452  1.8439
  608SOL     OW 1822   2.249   1.709   2.246  0.0642 -0.1456 -0.1133
  608SOL    HW1 1823   2.159   1.760   2.241 -0.5396  2.4009 -1.9033
  608SOL    HW2 1824   2.261   1.670   2.343 -1.1385 -0.9943  3.0418
  609SOL     OW 1825   2.708   0.441   1.253  0.6251  0.0291 -0.4388
  609SOL    HW1 1826   2.699   0.452   1.150 -0.3564 -1.5108 -0.2896
  609SOL    HW2 1827   2.680   0.350   1.290  3.2658  0.9460  1.8264
  610SOL     OW 1828   0.441   2.794   0.757  0.3963 -0.3981  0.3948
  610SOL    HW1 1829   0.460   2.810   0.856 -1.1054 -0.6789  0.7506
  610SOL    HW2 1830   0.470   2.701   0.728  2.1399 -0.1778  1.8291
  611SOL     OW 1831   1.750   0.840   3.061  0.6045  0.4740 -0.2378
  611SOL    HW1 1832   1.798   0.912   3.114 -2.0270  0.1186 -1.8197
  611SOL    HW2 1833   1.772   0.846   2.961  0.5340 -1.2641 -0.6558
  612SOL     OW 1834   0.733   2.236   1.918  0.4954  0.6024 -0.4408
  612SOL    HW1 1835   0.679   2.314   1.960 -0.2842  2.5320 -1.4355
  612SOL    HW2 1836   0.820   2.267   1.881 -1.9302  1.2133  0.2256
  613SOL     OW 1837   0.524   2.587   0.582 -0.5591  0.8517  0.3642
  613SOL    HW1 1838   0.627   2.585   0.580  1.7594  1.7489 -0.6196
  613SOL    HW2 1839   0.492   2.550   0.494 -1.1358 -1.8670  0.2367
  614SOL     OW 1840   2.225   2.902   1.236 -0.1581  0.1901  0.1564
  614SOL    HW1 1841   2.248   3.000   1.224 -0.2588 -1.2720  0.9600
  614SOL    HW2 1842   2.199   2.902   1.338 -2.0553  1.5667  2.5938
  615SOL     OW 1843   1.666   1.036   0.234 -0.1439  0.2661  0.2975
  615SOL    HW1 1844   1.601   1.074   0.300  0.1790 -0.3001  1.1987
  615SOL    HW2 1845   1.760   1.062   0.265 -0.0576  1.0132  1.4100
  616SOL     OW 1846   1.990   0.584   0.209  0.1851  0.4417 -0.4915
  616SOL    HW1 1847   2.032   0.622   0.123 -2.2571  0.7115 -2.2902
  616SOL    HW2 1848   1.903   0.635   0.227  0.0530  3.2537 -3.1671
  617SOL     OW 1849   1.041   0.808   2.975 -0.0475  0.0114 -0.3815
  617SOL    HW1 1850   1.121   0.859   2.935  1.2986  0.5897 -1.3527
  617SOL    HW2 1851   1.068   0.746   3.055  1.7244  0.1570  3.4114
  618SOL     OW 1852   0.591   3.045   1.936  0.0352 -0.3308  0.3169
  618SOL    HW1 1853   0.671   3.015   1.876  3.8699 -1.0182 -1.7885
  618SOL    HW2 1854   0.504   3.022   1.886 -1.2480 -1.4914 -0.8460
  619SOL     OW 1855   2.999   1.538   1.239 -0.4684 -0.4903  0.6351
  619SOL    HW1 1856   2.992   1.447   1.277 -2.6418  2.2172 -1.4698
  619SOL    HW2 1857   2.903   1.576   1.239 -0.0221  0.5757  0.7143
  620SOL     OW 1858   2.699   0.984   2.978 -0.1521 -0.2153 -0.0341
  620SOL    HW1 1859   2.628   1.046   3.005 -1.1029 -0.7387 -2.5605
  620SOL    HW2 1860   2.718   0.912   3.049 -0.1884 -2.0005  3.5111
  621SOL     OW 1861   2.325   2.363   1.978  0.5353  0.0196  0.0639
  621SOL    HW1 1862   2.394   2.366   2.055 -1.5453 -0.4298 -0.6717
  621SOL    HW2 1863   2.228   2.373   2.005  0.5486  1.3103 -1.7765
  622SOL     OW 1864   0.827   0.487   2.161 -0.2134 -0.2122 -0.9553
  622SOL    HW1 1865   0.786   0.406   2.208  2.4984 -1.1651 -0.0372
  622SOL    HW2 1866   0.833   0.568   2.224  1.8714  2.0720 -1.6166
  623SOL     OW 1867   1.090   0.884   2.622 -0.6900 -0.3794  0.2779
  623SOL    HW1 1868   1.033   0.798   2.610 -1.7288 -1.2230 -2.4994
  623SOL    HW2 1869   1.156   0.877   2.697 -0.5865  1.8258  0.2117
  624SOL     OW 1870   2.653   0.852   0.293  0.1880  0.1113 -0.9069
  624SOL    HW1 1871   2.651   0.956   0.286  0.2403  0.9390  1.8464
  624SOL    HW2 1872   2.683   0.817   0.386  2.3067 -0.5055  1.7953
  625SOL     OW 1873   1.078   1.386   0.585 -0.3993 -0.0649  0.3357
  625SOL    HW1 1874   1.121   1.407   0.675  2.6868 -0.1442  2.7917
  625SOL    HW2 1875   1.025   1.464   0.553 -1.8472 -0.2338  1.6318
  626SOL     OW 1876   1.776   0.895   2.778 -0.5306 -0.2211 -0.4045
  626SOL    HW1 1877   1.845   0.848   2.720 -1.5806 -0.6279  0.4272
  626SOL    HW2 1878   1.787   0.993   2.776 -0.1822 -1.7278  1.2023
  627SOL     OW 1879   0.920   2.929   2.882  0.1191 -0.3650  0.1682
  627SOL    HW1 1880   0.916   2.960   2.785 -0.8501  1.4234 -0.2373
  627SOL    HW2 1881   0.871   3.003   2.939 -1.8021  2.3929 -0.1945
  628SOL     OW 1882   2.204   0.170   2.328  0.3448 -0.2985  0.1328
  628SOL    HW1 1883   2.277   0.098   2.355  1.0510 -1.4150 -2.6358
  628SOL    HW2 1884   2.221   0.261   2.376  0.7259  0.9102  0.0396
  629SOL     OW 1885   0.879   0.502   3.000 -0.0458 -0.2176 -0.8398
  629SOL    HW1 1886   0.791   0.545   3.026  5.4930 -1.9321  1.4976
  629SOL    HW2 1887   0.960   0.549   3.036 -0.2555 -1.9147 -1.1656
  630SOL     OW 1888   0.894   0.464   2.731 -0.1627 -0.6386 -0.0474
  630SOL    HW1 1889   0.973   0.400   2.753  0.6828  1.7660 -1.8239
  630SOL    HW2 1890   0.859   0.502   2.821  1.0012 -0.9533  1.1314
  631SOL     OW 1891   2.568   1.067   0.645  0.4393 -0.3536 -0.4484
  631SOL    HW1 1892   2.472   1.105   0.654 -3.3209  1.7646 -1.8288
  631SOL    HW2 1893   2.630   1.141   0.615 -1.1403 -1.5072  0.2767
  632SOL     OW 1894   1.771   0.712   1.243  0.0430  0.1009 -0.1874
  632SOL    HW1 1895   1.833   0.788   1.224  1.8533 -2.8220  2.6115
  632SOL    HW2 1896   1.711   0.730   1.324 -1.5767  0.1342 -1.4304
  633SOL     OW 1897   0.972   1.616   0.496 -0.2881 -0.0765  0.4709
  633SOL    HW1 1898   0.914   1.662   0.425 -1.8817  0.8144 -1.8312
  633SOL    HW2 1899   1.062   1.652   0.500 -3.6642  1.2232 -0.6337
  634SOL     OW 1900   2.150   0.202   1.285  0.4593  0.6310  0.1025
  634SOL    HW1 1901   2.088   0.171   1.359 -0.0704 -0.0762 -0.6219
  634SOL    HW2 1902   2.239   0.217   1.324 -0.8950 -3.7607  2.4365
  635SOL     OW 1903   1.844   0.507   1.103  0.0250  0.6965  0.0536
  635SOL    HW1 1904   1.818   0.573   1.172  0.8996 -0.7840 -1.0507
  635SOL    HW2 1905   1.833   0.552   1.011  0.5614  2.1985  0.2187
  636SOL     OW 1906   0.846   1.238   0.539  0.3651  0.6955 -0.1048
  636SOL    HW1 1907   0.776   1.215   0.609  2.7967 -1.8517 -0.8687
  636SOL    HW2 1908   0.930   1.271   0.591  0.8726 -0.8439  0.5036
  637SOL     OW 1909   2.477   2.060   2.744  0.1007 -0.2991  0.6113
  637SOL    HW1 1910   2.537   2.078   2.819 -1.8117  0.0597 -5.1004
  637SOL    HW2 1911   2.422   2.141   2.731  2.5376 -0.8341 -2.2271
  638SOL     OW 1912   1.543   2.687   2.632  0.7568  0.1981 -0.3919
  638SOL    HW1 1913   1.564   2.663   2.535  0.0015 -2.4141 -1.5287
  638SOL    HW2 1914   1.574   2.616   2.700  0.8564  0.8627  0.3120
  639SOL     OW 1915   1.416   1.618   1.371  0.5366 -1.1255 -0.0665
  639SOL    HW1 1916   1.333   1.650   1.314 -0.8005 -1.0505 -1.6186
  639SOL    HW2 1917   1.486   1.586   1.308 -3.6883 -1.6735  3.0156
  640SOL     OW 1918   2.529   2.812   0.443  0.6669  0.2161  0.4448
  640SOL    HW1 1919   2.462   2.772   0.378 -1.1183 -0.8554 -0.9427
  640SOL    HW2 1920   2.623   2.790   0.415 -2.2641  2.7777  0.4261
  641SOL     OW 1921   3.075   2.911   0.202 -0.7882  0.4008 -0.4725
  641SOL    HW1 1922   0.037   2.865   0.241 -0.4106  0.2702  2.7023
  641SOL    HW2 1923   3.019   2.935   0.282  1.4126 -0.3597  0.4688
  642SOL     OW 1924   2.896   0.828   1.386 -0.4179  0.5328 -0.1285
  642SOL    HW1 1925   2.796   0.820   1.375 -3.4685  0.5348 -0.5211
  642SOL    HW2 1926   2.937   0.919   1.360  0.8890  0.2985 -2.0279
  643SOL     OW 1927   0.943   1.809   2.091  0.0279  0.4499  0.1721
  643SOL    HW1 1928   0.923   1.908   2.070 -0.3258  1.9129  0.5612
  643SOL    HW2 1929   1.044   1.785   2.089  1.7945 -1.4152  0.9870
  644SOL     OW 1930   1.857   2.273   0.657  0.1778 -0.6701 -0.2363
  644SOL    HW1 1931   1.901   2.238   0.742  0.2909 -2.4139 -1.8606
  644SOL    HW2 1932   1.860   2.376   0.654  0.0885  0.7167  0.9437
  645SOL     OW 1933   2.037   2.039   1.122 -0.5691  0.7218  0.5070
  645SOL    HW1 1934   1.971   1.964   1.097 -1.4509  5.0435 -0.6027
  645SOL    HW2 1935   2.039   2.055   1.221 -2.0266 -1.0369 -0.3028
  646SOL     OW 1936   1.085   2.741   3.037  0.1487  0.4293 -0.0183
  646SOL    HW1 1937   1.175   2.705   2.997  0.1267 -0.4958  1.3029
  646SOL    HW2 1938   1.045   2.800   2.964 -1.7336  1.5705  0.0627
  647SOL     OW 1939   0.281   2.734   1.859 -0.1709 -0.5118 -0.3545
  647SOL    HW1 1940   0.238   2.816   1.823  2.7979 -0.8715 -0.2017
  647SOL    HW2 1941   0.368   2.713   1.805  0.4120 -0.4108  3.4735
  648SOL     OW 1942   1.526   0.624   1.077  0.2624 -0.1330 -0.1696
  648SOL    HW1 1943   1.497   0.555   1.144  0.6717  3.2590  0.1970
  648SOL    HW2 1944   1.615   0.658   1.103 -1.4084  0.7207 -0.3630
  649SOL     OW 1945   1.510   2.150   0.074  0.1149 -0.2775  0.6330
  649SOL    HW1 1946   1.537   2.249   0.075  2.7808 -0.2842 -2.9023
  649SOL    HW2 1947   1.535   2.109   3.105 -1.7169  1.4882  1.0094
  650SOL     OW 1948   2.339   1.568   2.044  1.0193  0.2601 -0.4675
  650SOL    HW1 1949   2.275   1.621   2.107 -1.6677  1.7022 -0.5566
  650SOL    HW2 1950   2.298   1.479   2.004 -0.4645 -6.7963 -2.1828
  651SOL     OW 1951   1.515   2.437   3.110  0.5658 -0.3141  0.2410
  651SOL    HW1 1952   1.462   2.445   3.026 -0.5192 -0.6705  0.2454
  651SOL    HW2 1953   1.575   2.519   0.008  3.7588 -0.8452  0.7404
  652SOL     OW 1954   0.460   2.219   0.258 -0.0719 -0.1214 -0.2975
  652SOL    HW1 1955   0.416   2.201   0.348  1.7578  1.2243 -0.2645
  652SOL    HW2 1956   0.495   2.315   0.253 -0.4843  1.7047 -2.2727
  653SOL     OW 1957   2.369   1.989   1.394  0.3119 -0.2229  0.4848
  653SOL    HW1 1958   2.382   2.090   1.379 -1.3868 -1.0325 -0.1824
  653SOL    HW2 1959   2.355   1.967   1.493  0.7172  1.1747  2.7871
  654SOL     OW 1960   2.654   2.692   1.289  0.2271  0.0001 -0.1689
  654SOL    HW1 1961   2.693   2.764   1.349  1.4813  0.8922  1.4958
  654SOL    HW2 1962   2.704   2.606   1.300 -0.1711 -0.0446 -0.6391
  655SOL     OW 1963   0.006   2.222   1.326  0.0178  1.1482 -0.2034
  655SOL    HW1 1964   0.053   2.133   1.334  0.7824  0.3490  2.9156
  655SOL    HW2 1965   3.103   2.241   1.226  1.1696  2.2193  0.3520
  656SOL     OW 1966   3.003   2.880   2.597  0.1778  0.0328  0.1085
  656SOL    HW1 1967   3.034   2.898   2.503  0.0297  1.9188 -0.8631
  656SOL    HW2 1968   2.983   2.963   2.650  1.1891  1.4186 -0.4859
  657SOL     OW 1969   0.005   0.894   0.113  0.1752 -0.0870 -0.1410
  657SOL    HW1 1970   3.078   0.978   0.143  0.9015 -2.1046 -0.3724
  657SOL    HW2 1971   0.094   0.884   0.158 -2.4218 -1.0450  0.4691
  658SOL     OW 1972   1.877   1.832   1.055 -0.3911 -0.3209  0.6344
  658SOL    HW1 1973   1.877   1.835   0.951  0.5175 -2.3660 -0.4180
  658SOL    HW2 1974   1.782   1.804   1.088  0.9723  1.4149 -0.5351
  659SOL     OW 1975   1.409   0.436   1.247  0.2364  0.0020  0.1450
  659SOL    HW1 1976   1.323   0.493   1.270 -2.3193 -0.1036  0.4617
  659SOL    HW2 1977   1.387   0.336   1.252 -1.0031  0.0630 -1.0176
  660SOL     OW 1978   1.818   1.453   0.042  0.2612  0.1410 -0.1202
  660SOL    HW1 1979   1.831   1.486   0.138  0.1861  1.4366  0.9940
  660SOL    HW2 1980   1.725   1.410   0.041  1.0638 -0.4731  1.4827
  661SOL     OW 1981   0.193   2.154   0.208 -0.1113 -0.1769 -0.4352
  661SOL    HW1 1982   0.288   2.178   0.215 -4.3309 -1.7307  0.3521
  661SOL    HW2 1983   0.140   2.234   0.182  1.7927 -3.2652  0.8830
  662SOL     OW 1984   3.112   0.718   1.991  0.0812 -0.2821  0.1864
  662SOL    HW1 1985   3.091   0.772   2.074  0.0093  1.0667  2.0855
  662SOL    HW2 1986   0.072   0.764   1.942 -2.5451 -1.2672 -0.6258
  663SOL     OW 1987   1.896   1.270   0.720  0.2143  0.1216  0.1823
  663SOL    HW1 1988   1.862   1.193   0.786 -0.8486  1.9115  0.3633
  663SOL    HW2 1989   1.995   1.288   0.737  1.0471  0.4624 -1.8339
  664SOL     OW 1990   0.744   0.414   1.081 -0.0143 -0.1107 -0.0203
  664SOL    HW1 1991   0.812   0.489   1.085  0.9173 -1.4805 -1.3606
  664SOL    HW2 1992   0.689   0.421   0.994 -0.9799  0.9744  2.4251
  665SOL     OW 1993   1.028   3.096   0.225  0.9004 -0.0559 -0.0434
  665SOL    HW1 1994   1.048   3.045   0.314  0.8313  0.1109  0.6180
  665SOL    HW2 1995   1.113   3.086   0.171 -0.1043 -1.0750  0.4969
  666SOL     OW 1996   3.081   0.352   2.629  0.0799  0.4249 -0.0583
  666SOL    HW1 1997   0.061   0.324   2.649  0.7103 -1.4197 -0.7808
  666SOL    HW2 1998   3.021   0.339   2.716  0.0982  0.0332  1.7934
  667SOL     OW 1999   2.374   1.955   2.175 -0.1863 -0.5043 -0.6310
  667SOL    HW1 2000   2.449   2.003   2.223  2.8488  1.4949 -1.1229
  667SOL    HW2 2001   2.353   1.864   2.213  1.7540  2.8261 -2.8503
  668SOL     OW 2002   0.667   1.507   2.588  0.2527  0.3858  0.1631
  668SOL    HW1 2003   0.635   1.570   2.664  2.6923 -1.0965 -2.0136
  668SOL    HW2 2004   0.594   1.435   2.578 -0.5721  0.4906  0.2340
  669SOL     OW 2005   2.039   2.737   2.452 -0.1407  0.3898 -0.4075
  669SOL    HW1 2006   2.074   2.695   2.367 -3.2602 -1.9005  2.0379
  669SOL    HW2 2007   1.994   2.659   2.506 -1.2236  0.4415  0.5075
  670SOL     OW 2008   2.275   0.965   2.461 -0.4007  0.7629  0.3037
  670SOL    HW1 2009   2.371   0.926   2.477  1.8656  0.3858  0.9608
  670SOL    HW2 2010   2.269   1.052   2.514  2.6137 -2.5205 -1.5311
  671SOL     OW 2011   2.465   1.401   3.110  0.6586  0.5510 -0.4340
  671SOL    HW1 2012   2.479   1.298   3.092  0.1415 -0.1003 -0.6534
  671SOL    HW2 2013   2.552   1.447   3.105  0.4739 -0.7080  0.6921
  672SOL     OW 2014   2.581   1.187   2.564  0.2320 -0.4930 -0.4055
  672SOL    HW1 2015   2.665   1.202   2.622  2.5531  1.6077  2.2958
  672SOL    HW2 2016   2.571   1.093   2.536 -3.1292  3.8486 -0.2507
  673SOL     OW 2017   2.528   0.984   1.569 -0.1832 -0.4694 -0.1362
  673SOL    HW1 2018   2.589   1.022   1.496 -0.9411  3.5068 -3.8675
  673SOL    HW2 2019   2.570   0.893   1.586 -0.7214  0.5274  1.8871
  674SOL     OW 2020   2.012   1.780   1.954  0.0859 -0.3244 -0.1661
  674SOL    HW1 2021   1.992   1.695   1.901 -0.3346  1.7874 -0.5015
  674SOL    HW2 2022   2.061   1.853   1.905 -0.9147 -2.1823 -1.2222
  675SOL     OW 2023   0.219   0.672   0.928  0.2694 -0.6881 -0.1232
  675SOL    HW1 2024   0.217   0.678   0.828  1.2071  0.2077  0.0069
  675SOL    HW2 2025   0.317   0.686   0.960  3.5313 -1.5653 -0.0748
  676SOL     OW 2026   1.933   0.942   1.121 -0.3844 -0.0054 -0.1474
  676SOL    HW1 2027   2.020   0.992   1.137  3.5229  3.1209 -1.4622
  676SOL    HW2 2028   1.858   1.010   1.123 -0.1846  1.9780  0.6130
  677SOL     OW 2029   1.876   1.410   2.303  0.5109 -0.1847  0.4472
  677SOL    HW1 2030   1.793   1.357   2.295  1.4499  3.3213 -1.5378
  677SOL    HW2 2031   1.856   1.502   2.261  0.9380  2.5407  0.9259
  678SOL     OW 2032   3.078   1.837   0.829  0.0812  0.1820 -0.0341
  678SOL    HW1 2033   3.068   1.895   0.915  0.9076 -0.5583 -0.6091
  678SOL    HW2 2034   2.997   1.777   0.812 -0.9165  0.8576 -0.1728
  679SOL     OW 2035   2.781   2.795   0.331  0.0111 -0.4196  0.5978
  679SOL    HW1 2036   2.832   2.884   0.342  1.9960  1.3303  1.3004
  679SOL    HW2 2037   2.831   2.717   0.365  2.2138 -0.6810 -0.0363
  680SOL     OW 2038   0.122   2.436   1.458  0.6687  0.4185 -0.2041
  680SOL    HW1 2039   0.223   2.446   1.449  1.2367  0.8151 -1.3634
  680SOL    HW2 2040   0.083   2.346   1.424  0.2790 -1.6206  1.1332
  681SOL     OW 2041   0.703   1.150   1.159 -0.1062 -0.2035 -0.2327
  681SOL    HW1 2042   0.799   1.176   1.183  2.7843 -1.5308  0.7896
  681SOL    HW2 2043   0.673   1.080   1.230  0.0335  1.6646  0.2928
  682SOL     OW 2044   1.920   2.632   1.128 -0.4615 -0.4491 -0.7373
  682SOL    HW1 2045   1.997   2.598   1.065  1.5304 -1.7598 -1.2849
  682SOL    HW2 2046   1.957   2.644   1.223 -1.1204 -0.4319  0.9139
  683SOL     OW 2047   2.142   1.116   1.129 -0.2517  0.1023  0.1599
  683SOL    HW1 2048   2.109   1.208   1.144  1.9155 -1.0116 -2.7605
  683SOL    HW2 2049   2.241   1.106   1.149  0.1596  1.2214  0.1945
  684SOL     OW 2050   0.924   2.067   2.017  0.3223  0.0110  0.4982
  684SOL    HW1 2051   0.834   2.116   1.996 -2.1539  0.4615  1.0256
  684SOL    HW2 2052   1.006   2.107   1.972  0.9253  1.2587  1.2275
  685SOL     OW 2053   2.399   1.570   0.203 -0.1530  0.3785 -0.3182
  685SOL    HW1 2054   2.422   1.506   0.130 -1.4392  0.3375 -1.0996
  685SOL    HW2 2055   2.299   1.597   0.196  1.3086  1.6569  1.8737
  686SOL     OW 2056   3.110   0.504   0.345  0.4440 -0.1028  0.2940
  686SOL    HW1 2057   3.076   0.452   0.264 -2.1461  0.2188  0.1023
  686SOL    HW2 2058   3.055   0.587   0.358 -1.7306 -0.8336  0.4647
  687SOL     OW 2059   1.099   2.891   0.407  0.5314 -0.2474 -0.1466
  687SOL    HW1 2060   1.160   2.871   0.489  0.7149 -0.7180  1.9899
  687SOL    HW2 2061   1.149   2.857   0.322  0.7108 -3.4238 -1.3957
  688SOL     OW 2062   2.010   1.813   2.222 -0.2477  0.3359  0.0599
  688SOL    HW1 2063   2.024   1.815   2.120 -1.0740  0.7623  1.5502
  688SOL    HW2 2064   1.922   1.767   2.245  2.1963  0.1761 -0.0260
  689SOL     OW 2065   2.634   1.022   2.083  0.0782  0.0387  0.4172
  689SOL    HW1 2066   2.536   1.005   2.105  1.8023 -2.6981  3.1741
  689SOL    HW2 2067   2.658   1.119   2.100  1.2083 -1.4027  2.2909
  690SOL     OW 2068   1.642   1.028   0.836  0.0558  0.6128  0.4677
  690SOL    HW1 2069   1.745   1.025   0.849  3.7528 -0.1685 -2.3019
  690SOL    HW2 2070   1.605   0.937   0.810 -1.5324  0.2212  0.8382
  691SOL     OW 2071   1.063   1.475   1.380 -0.2277  0.0975 -0.6072
  691SOL    HW1 2072   1.118   1.400   1.335  1.3585 -2.0910  0.4258
  691SOL    HW2 2073   0.990   1.500   1.315 -1.1551 -0.8852 -3.0471
  692SOL     OW 2074   1.562   0.327   2.116  0.4456 -0.1728  0.2036
  692SOL    HW1 2075   1.594   0.418   2.150  3.1679  1.5010 -0.6274
  692SOL    HW2 2076   1.616   0.295   2.037  1.3786  2.4681  1.8951
  693SOL     OW 2077   0.316   1.115   0.062  0.1383 -0.0800  0.2908
  693SOL    HW1 2078   0.326   1.181   3.100 -2.8959  1.8813  1.0447
  693SOL    HW2 2079   0.375   1.032   0.054 -1.6823  0.0318 -0.9280
  694SOL     OW 2080   2.260   2.605   0.622  0.5821 -0.0475 -0.0478
  694SOL    HW1 2081   2.246   2.678   0.686  0.5292 -1.9538  0.5033
  694SOL    HW2 2082   2.180   2.608   0.557 -1.0735  1.2952  0.2099
  695SOL     OW 2083   1.739   1.155   2.906  0.2422 -0.5893 -0.2439
  695SOL    HW1 2084   1.694   1.175   2.997 -0.0705 -0.4888  0.0175
  695SOL    HW2 2085   1.802   1.232   2.882  0.1236 -2.8285 -0.5272
  696SOL     OW 2086   1.483   0.175   1.459 -0.3155 -0.1675  0.0621
  696SOL    HW1 2087   1.419   0.164   1.378 -0.6812 -0.9078 -0.2654
  696SOL    HW2 2088   1.581   0.162   1.432  3.4348  2.5455  1.1424
  697SOL     OW 2089   1.249   0.312   1.993  0.1603 -0.3066  0.6358
  697SOL    HW1 2090   1.263   0.351   1.901 -0.2488  2.1142  0.6466
  697SOL    HW2 2091   1.326   0.329   2.057 -1.8550 -0.4054 -3.1222
  698SOL     OW 2092   1.988   1.313   2.553  0.2422  0.2645  0.0569
  698SOL    HW1 2093   2.031   1.403   2.546 -1.4001  0.3685 -0.5256
  698SOL    HW2 2094   1.908   1.305   2.484 -1.1862 -0.2127 -5.0268
  699SOL     OW 2095   1.549   1.292   0.919 -0.2811 -0.7626 -0.0830
  699SOL    HW1 2096   1.641   1.337   0.949  1.4790  0.3384  1.1690
  699SOL    HW2 2097   1.560   1.207   0.868  1.2776  1.1366  0.4190
  700SOL     OW 2098   1.719   2.998   0.146  0.1054  0.2894  0.1943
  700SOL    HW1 2099   1.774   2.932   0.199  1.8431  0.4201  0.6234
  700SOL    HW2 2100   1.626   2.996   0.187  2.5013 -1.3038  1.4239
  701SOL     OW 2101   0.382   3.110   1.337  0.0899 -0.4123 -0.4085
  701SOL    HW1 2102   0.444   3.044   1.290 -0.3336 -0.7680 -1.5571
  701SOL    HW2 2103   0.431   0.032   1.417  2.5249 -0.0651  0.9964
  702SOL     OW 2104   1.512   2.830   1.261 -0.4359 -0.0854 -0.2971
  702SOL    HW1 2105   1.608   2.822   1.294  0.6484 -2.1871  2.4272
  702SOL    HW2 2106   1.511   2.867   1.166 -1.7350  0.2945 -0.6789
  703SOL     OW 2107   2.384   3.050   2.115  0.1886  0.7922  0.2252
  703SOL    HW1 2108   2.386   3.032   2.216 -0.5618  0.9376 -1.8043
  703SOL    HW2 2109   2.473   3.037   2.068  1.5770 -3.1909 -0.2174
  704SOL     OW 2110   1.330   1.853   1.015  0.3505 -0.9459 -0.0560
  704SOL    HW1 2111   1.280   1.847   0.924 -1.5261 -0.3110 -2.9095
  704SOL    HW2 2112   1.303   1.783   1.083  2.7667  0.8008 -0.7589
  705SOL     OW 2113   2.795   1.631   2.117 -0.0170  0.2921 -0.0749
  705SOL    HW1 2114   2.749   1.713   2.151  0.5482 -0.0441  1.0983
  705SOL    HW2 2115   2.829   1.581   2.199  1.8859 -0.5146 -1.6725
  706SOL     OW 2116   1.519   2.901   0.675  0.4724  0.4317  0.5515
  706SOL    HW1 2117   1.487   2.810   0.634 -3.8452 -2.6885 -0.1693
  706SOL    HW2 2118   1.530   2.965   0.600  1.8288  0.0445  0.1125
  707SOL     OW 2119   0.975   2.556   2.619  0.1342 -0.1722  0.2283
  707SOL    HW1 2120   0.910   2.514   2.554  3.1873 -0.7008 -1.2533
  707SOL    HW2 2121   1.039   2.483   2.652 -2.7339 -0.7548  1.4632
  708SOL     OW 2122   0.498   2.344   1.595  0.6636  0.0770  0.2076
  708SOL    HW1 2123   0.453   2.292   1.670 -0.5919 -0.5168  0.9519
  708SOL    HW2 2124   0.587   2.306   1.567 -0.0582 -1.5494  2.0427
  709SOL     OW 2125   2.309   0.692   2.211 -0.8964 -0.3186  0.6816
  709SOL    HW1 2126   2.356   0.602   2.220  0.7184 -1.0254 -3.8617
  709SOL    HW2 2127   2.236   0.678   2.142  2.0979  1.0980  2.8426
  710SOL     OW 2128   2.904   0.490   1.693  0.1381  0.2640  0.5710
  710SOL    HW1 2129   2.893   0.503   1.592  0.3309  0.0980  0.7393
  710SOL    HW2 2130   3.003   0.481   1.721 -0.3408  1.3956  0.7752
  711SOL     OW 2131   2.956   2.276   0.359  0.0811 -0.2791 -0.3841
  711SOL    HW1 2132   2.935   2.339   0.436 -2.4987  1.3025 -0.4625
  711SOL    HW2 2133   3.054   2.263   0.337 -0.4003 -1.0999 -0.0074
  712SOL     OW 2134   0.174   2.608   2.433  0.2312  0.3210 -0.3529
  712SOL    HW1 2135   0.248   2.682   2.439  0.6532  2.9081 -0.6390
  712SOL    HW2 2136   0.121   2.611   2.521 -1.8303  0.2912  1.1002
  713SOL     OW 2137   2.099   0.749   3.089  0.2036 -0.0106 -0.1173
  713SOL    HW1 2138   2.046   0.837   3.103  0.0538  0.3955  1.6698
  713SOL    HW2 2139   2.042   0.692   3.024  0.2846  1.4278  2.1998
  714SOL     OW 2140   1.418   2.252   0.385  0.1037 -0.1793 -0.0014
  714SOL    HW1 2141   1.420   2.164   0.335 -1.8909 -0.4593 -0.0362
  714SOL    HW2 2142   1.488   2.248   0.463  1.1365 -1.9717  1.7249
  715SOL     OW 2143   3.091   0.031   0.573 -0.8711  0.3275 -0.1576
  715SOL    HW1 2144   3.061   0.127   0.551 -0.5434  4.2882  0.0737
  715SOL    HW2 2145   0.073   0.019   0.560 -0.2681 -1.9233  3.0017
  716SOL     OW 2146   0.578   0.068   2.170  0.1586  0.1004 -0.5946
  716SOL    HW1 2147   0.477   0.068   2.192  1.1893  0.7893  1.2492
  716SOL    HW2 2148   0.584   0.028   2.078 -0.6326  1.5001 -2.0384
  717SOL     OW 2149   0.367   0.457   0.049  0.0894  0.1736 -0.6673
  717SOL    HW1 2150   0.381   0.361   0.014  1.0770 -0.1970  0.5630
  717SOL    HW2 2151   0.272   0.485   0.027 -1.8014 -2.1532  1.7012
  718SOL     OW 2152   1.167   0.511   0.540  0.2270  0.4860 -0.4650
  718SOL    HW1 2153   1.229   0.568   0.602  0.9054  1.2289  0.1537
  718SOL    HW2 2154   1.212   0.435   0.493 -2.6169 -0.9641  0.0177
  719SOL     OW 2155   2.284   2.258   2.709 -0.3911  0.0555 -0.0195
  719SOL    HW1 2156   2.322   2.345   2.665  2.1852 -1.1000 -4.4347
  719SOL    HW2 2157   2.271   2.257   2.809  1.1921 -0.5479 -0.7001
  720SOL     OW 2158   1.714   0.902   2.083  0.1489 -0.3618 -0.1456
  720SOL    HW1 2159   1.743   0.828   2.017 -0.5960  2.6604  1.5791
  720SOL    HW2 2160   1.750   0.881   2.177 -2.1943 -1.1802 -0.4830
  721SOL     OW 2161   2.826   0.214   1.005  0.0043  0.2879 -0.2706
  721SOL    HW1 2162   2.807   0.314   1.003  1.5118  0.8901  1.4032
  721SOL    HW2 2163   2.879   0.180   0.924  0.2075 -0.7089  1.2498
  722SOL     OW 2164   1.306   2.161   2.550  0.1280  0.0503  0.0953
  722SOL    HW1 2165   1.398   2.179   2.503  0.4383 -1.2853 -0.8969
  722SOL    HW2 2166   1.309   2.074   2.606 -2.8555 -1.9650 -1.0458
  723SOL     OW 2167   1.088   0.173   0.704 -0.6730  0.0587 -0.3279
  723SOL    HW1 2168   1.107   0.247   0.774 -0.4194  0.2278 -2.1220
  723SOL    HW2 2169   1.175   0.151   0.654 -0.2755 -0.2422 -1.0059
  724SOL     OW 2170   0.887   2.089   2.445 -0.0651  0.4937  0.4861
  724SOL    HW1 2171   0.855   2.107   2.542 -1.5268 -1.1020  1.2792
  724SOL    HW2 2172   0.860   1.995   2.420 -1.5706 -2.8794  0.7334
  725SOL     OW 2173   0.159   0.837   1.140  1.1147  0.3951 -0.3699
  725SOL    HW1 2174   0.252   0.872   1.163 -1.9353  2.3835  2.9612
  725SOL    HW2 2175   0.164   0.763   1.067 -1.1184 -0.6523  0.6378
  726SOL     OW 2176   1.785   0.069   0.473 -0.5184  0.4285 -0.9072
  726SOL    HW1 2177   1.773   0.168   0.453 -0.0638 -1.0066 -0.6099
  726SOL    HW2 2178   1.816   0.058   0.571  0.0007 -1.0361  0.2108
  727SOL     OW 2179   2.072   1.037   2.272  0.8114 -0.5570  0.0317
  727SOL    HW1 2180   2.079   1.137   2.246 -1.0884  4.7280  1.6002
  727SOL    HW2 2181   2.147   1.014   2.340  0.2245 -2.1176 -0.4158
  728SOL     OW 2182   1.792   2.550   1.720 -0.1772 -0.1735  0.4939
  728SOL    HW1 2183   1.746   2.629   1.765  0.8252 -0.2685 -2.5435
  728SOL    HW2 2184   1.848   2.583   1.640 -0.5892 -0.4144  0.1420
  729SOL     OW 2185   1.839   0.430   1.850 -0.6041  0.5997 -0.0467
  729SOL    HW1 2186   1.916   0.416   1.921  0.2719 -1.9677  4.2912
  729SOL    HW2 2187   1.783   0.511   1.872  1.5485 -2.8250 -2.2974
  730SOL     OW 2188   0.960   1.673   1.583 -0.3968  0.2369  0.2588
  730SOL    HW1 2189   0.984   1.771   1.597  0.3982 -1.0126  1.5620
  730SOL    HW2 2190   1.011   1.632   1.499 -1.6096 -2.8638 -1.9357
  731SOL     OW 2191   0.450   2.971   0.209  0.0542 -0.1930 -0.8942
  731SOL    HW1 2192   0.473   3.028   0.290 -0.2612  2.0850 -0.4238
  731SOL    HW2 2193   0.366   3.013   0.159 -2.9436  3.1909 -1.6500
  732SOL     OW 2194   0.579   0.670   0.402  0.3141  0.3717 -0.2798
  732SOL    HW1 2195   0.674   0.633   0.394  0.5279  0.9815  1.1083
  732SOL    HW2 2196   0.550   0.682   0.496 -0.1309 -0.8207 -1.8207
  733SOL     OW 2197   1.490   1.700   1.970  0.0606  0.3095  0.4483
  733SOL    HW1 2198   1.404   1.747   1.994 -0.8388  0.0916  0.3007
  733SOL    HW2 2199   1.484   1.632   1.901  2.5843  0.5043  1.0864
  734SOL     OW 2200   2.973   2.443   2.093 -0.5139 -0.2764  0.1532
  734SOL    HW1 2201   3.066   2.477   2.105  1.1636  2.1088 -1.3237
  734SOL    HW2 2202   2.909   2.511   2.045 -0.6696  1.3095  0.8498
  735SOL     OW 2203   1.223   2.870   0.922  0.2415 -0.3984  0.1548
  735SOL    HW1 2204   1.216   2.772   0.942 -0.2718 -0.1649  0.0982
  735SOL    HW2 2205   1.320   2.906   0.929  0.3761 -1.2643 -1.4451
  736SOL     OW 2206   1.267   0.948   2.897  0.0292  0.2921  0.3873
  736SOL    HW1 2207   1.347   0.916   2.951 -0.5725  1.0319  0.8612
  736SOL    HW2 2208   1.281   1.051   2.895  1.3054  0.2139  0.1953
  737SOL     OW 2209   0.026   1.167   0.439  0.0413  0.3922 -0.2996
  737SOL    HW1 2210   0.121   1.141   0.466  2.3670 -1.8026 -0.2880
  737SOL    HW2 2211   3.077   1.096   0.464 -3.2872  1.0380  1.2548
  738SOL     OW 2212   0.261   2.841   1.544 -0.0850  0.1238 -0.3205
  738SOL    HW1 2213   0.337   2.771   1.548  0.4100 -1.5231 -0.4228
  738SOL    HW2 2214   0.197   2.830   1.470  1.4966 -1.3238  3.5141
  739SOL     OW 2215   1.405   2.728   0.184  0.2751 -0.5664 -0.3330
  739SOL    HW1 2216   1.442   2.656   0.254 -0.1957  0.0612  0.5038
  739SOL    HW2 2217   1.306   2.721   0.192  1.9528  0.6300  2.6748
  740SOL     OW 2218   1.755   2.859   1.349  0.0097 -0.1213  0.6965
  740SOL    HW1 2219   1.728   2.938   1.409  0.5724 -2.8403  0.0024
  740SOL    HW2 2220   1.805   2.783   1.397  1.4569  0.8180  0.9672
  741SOL     OW 2221   2.121   0.353   0.706  0.5203 -0.0549 -0.5785
  741SOL    HW1 2222   2.213   0.392   0.719  2.2173  0.1546  0.6443
  741SOL    HW2 2223   2.067   0.400   0.632  2.5787 -2.9384  3.3363
  742SOL     OW 2224   0.786   2.738   2.248  0.2206 -0.1417  0.2984
  742SOL    HW1 2225   0.688   2.750   2.242  2.3516 -1.7092  0.7208
  742SOL    HW2 2226   0.814   2.645   2.277  1.9988  0.2915  0.1473
  743SOL     OW 2227   2.162   0.936   1.780  0.4344  0.3987  0.3957
  743SOL    HW1 2228   2.215   0.922   1.695 -0.4893  1.1598  0.7225
  743SOL    HW2 2229   2.074   0.983   1.760 -2.1188 -1.7254 -0.7703
  744SOL     OW 2230   2.385   0.516   0.632 -0.1066 -0.3972  0.4224
  744SOL    HW1 2231   2.432   0.562   0.711 -1.3702  3.5346  1.2213
  744SOL    HW2 2232   2.357   0.594   0.564  1.3486  2.0309  0.1116
  745SOL     OW 2233   2.166   1.364   1.975 -0.0626 -0.1961 -0.1480
  745SOL    HW1 2234   2.188   1.269   1.944 -0.4019 -0.7095  1.4117
  745SOL    HW2 2235   2.150   1.357   2.079 -2.5120 -1.8458  2.6619
  746SOL     OW 2236   1.476   1.775   0.597  1.0243  0.3398 -0.6876
  746SOL    HW1 2237   1.529   1.766   0.687  2.5801 -1.5780  2.6775
  746SOL    HW2 2238   1.524   1.727   0.520  1.4240  0.2378 -1.8949
  747SOL     OW 2239   2.067   1.361   1.218  0.1926 -0.1840  0.4226
  747SOL    HW1 2240   2.034   1.436   1.154  1.3978 -2.3963 -0.3706
  747SOL    HW2 2241   2.050   1.387   1.316 -0.2302  0.5323 -0.8035
  748SOL     OW 2242   0.163   2.778   0.355 -0.1769  0.0940 -0.0961
  748SOL    HW1 2243   0.159   2.877   0.386 -1.6422  0.3126 -3.4329
  748SOL    HW2 2244   0.254   2.754   0.331 -2.1058  0.9177  0.7883
  749SOL     OW 2245   0.166   0.846   2.354  0.1022 -0.5975  0.2201
  749SOL    HW1 2246   0.249   0.867   2.302  1.0710 -1.4843 -0.6916
  749SOL    HW2 2247   0.081   0.864   2.296 -2.9668  2.0445 -0.7685
  750SOL     OW 2248   1.431   2.913   1.870 -0.5410  0.1272 -0.1875
  750SOL    HW1 2249   1.373   2.980   1.814  0.2858 -1.0436 -1.4333
  750SOL    HW2 2250   1.416   2.932   1.971  3.2540 -0.3437  1.1593
  751SOL     OW 2251   2.747   0.460   0.318 -0.5517 -0.0620  0.0092
  751SOL    HW1 2252   2.666   0.515   0.292  0.8584  1.1396 -2.2630
  751SOL    HW2 2253   2.728   0.412   0.406 -2.1035  1.7854 -0.0988
  752SOL     OW 2254   0.150   2.025   0.992  0.0488  0.6845  0.2372
  752SOL    HW1 2255   0.053   2.009   1.013 -1.1442 -1.9136 -1.8396
  752SOL    HW2 2256   0.172   2.120   0.969  1.1346 -0.7723  0.1211
  753SOL     OW 2257   1.056   0.174   1.129  0.8845  0.9150 -0.1375
  753SOL    HW1 2258   1.035   0.086   1.080  2.7527  1.5410 -1.8554
  753SOL    HW2 2259   0.981   0.217   1.183  0.3110  1.3811  0.7984
  754SOL     OW 2260   0.706   3.017   2.356  0.6949 -0.2458  0.8275
  754SOL    HW1 2261   0.669   3.068   2.274  0.1573  1.6671 -0.4118
  754SOL    HW2 2262   0.800   2.981   2.343 -0.4186  0.0278 -0.5418
  755SOL     OW 2263   2.155   0.948   0.301 -0.2165 -0.2306 -0.0955
  755SOL    HW1 2264   2.187   0.918   0.395 -1.9717  0.1761  1.7999
  755SOL    HW2 2265   2.215   0.906   0.228 -1.4010 -0.9596  1.3840
  756SOL     OW 2266   2.254   2.094   2.501  0.0851  0.0658 -0.0165
  756SOL    HW1 2267   2.254   1.998   2.540  1.8807 -0.8833  0.8610
  756SOL    HW2 2268   2.250   2.159   2.578 -2.3810 -0.4256 -0.0480
  757SOL     OW 2269   1.689   0.258   0.807  0.0889 -0.4524  0.3182
  757SOL    HW1 2270   1.590   0.231   0.801  2.7675  1.4160  0.4892
  757SOL    HW2 2271   1.743   0.184   0.761 -2.0575  0.2230 -1.3931
  758SOL     OW 2272   1.738   2.685   0.931 -0.3291  0.4337  0.0658
  758SOL    HW1 2273   1.726   2.783   0.913  1.8124 -0.7149  0.1855
  758SOL    HW2 2274   1.805   2.673   1.013  0.6764  0.0322  2.9036
  759SOL     OW 2275   2.606   0.701   1.297  0.0031  0.2114  0.1074
  759SOL    HW1 2276   2.581   0.707   1.397 -0.8603 -1.7102  0.6487
  759SOL    HW2 2277   2.604   0.599   1.275  2.6103 -0.7318 -2.0377
  760SOL     OW 2278   2.400   1.046   1.215 -0.1740 -0.5286 -0.0592
  760SOL    HW1 2279   2.492   1.041   1.259  1.5384  1.5890 -1.4602
  760SOL    HW2 2280   2.379   0.961   1.159  1.0123 -2.2487  2.1534
  761SOL     OW 2281   0.388   0.476   0.538 -0.0528  0.1444  0.4493
  761SOL    HW1 2282   0.395   0.409   0.461  0.8299  0.5109 -1.1147
  761SOL    HW2 2283   0.480   0.515   0.552 -1.6782 -2.1792 -0.6087
  762SOL     OW 2284   1.756   1.955   1.381  0.3567 -0.2669 -0.6854
  762SOL    HW1 2285   1.855   1.973   1.392 -1.8997  1.1030  1.5269
  762SOL    HW2 2286   1.700   1.988   1.457  2.2272  3.1609 -2.9308
  763SOL     OW 2287   1.310   1.332   1.951 -0.6183 -0.1425  0.1590
  763SOL    HW1 2288   1.291   1.410   2.018  1.1480  0.6176  1.0315
  763SOL    HW2 2289   1.244   1.255   1.959 -0.1115 -1.9606  0.3117
  764SOL     OW 2290   2.937   1.849   2.398  0.5922 -0.3914  0.4492
  764SOL    HW1 2291   2.884   1.921   2.347  2.2986  0.2089 -1.2111
  764SOL    HW2 2292   3.037   1.870   2.408  0.4269 -0.4881  0.2244
  765SOL     OW 2293   1.660   2.446   1.156 -0.8251  0.6194 -0.0042
  765SOL    HW1 2294   1.712   2.428   1.242  0.8283  2.6796 -0.1194
  765SOL    HW2 2295   1.682   2.541   1.118 -1.7373  1.5064  0.1600
  766SOL     OW 2296   0.033   2.657   2.686 -0.0428 -0.2777 -0.2051
  766SOL    HW1 2297   3.098   2.747   2.666 -2.4932  3.9717 -0.8213
  766SOL    HW2 2298   3.087   2.577   2.688 -0.2079 -1.5374 -0.5421
  767SOL     OW 2299   1.326   0.763   2.302 -0.2917 -0.1325  0.1430
  767SOL    HW1 2300   1.426   0.751   2.323  0.2420  0.5084 -0.6709
  767SOL    HW2 2301   1.275   0.708   2.371 -3.0513 -1.4369  0.5430
  768SOL     OW 2302   1.289   2.005   0.138 -0.6227 -0.2045  0.3707
  768SOL    HW1 2303   1.350   2.083   0.108  2.7248  0.5908 -2.5489
  768SOL    HW2 2304   1.350   1.929   0.172  0.0410  0.9286 -2.6459
  769SOL     OW 2305   0.394   2.271   1.188 -0.5447  0.1955  0.4237
  769SOL    HW1 2306   0.408   2.177   1.227 -1.2330  2.8320 -0.0835
  769SOL    HW2 2307   0.377   2.342   1.258 -1.3103 -2.4556  1.6124
  770SOL     OW 2308   1.721   0.581   0.057  0.1472 -0.3517 -0.5923
  770SOL    HW1 2309   1.669   0.510   0.003 -0.1824 -2.6175 -0.4291
  770SOL    HW2 2310   1.730   0.671   0.004  1.8490  0.2599 -0.2235
  771SOL     OW 2311   0.341   3.105   2.275  0.6217 -0.2890  0.5458
  771SOL    HW1 2312   0.293   0.000   2.364  1.7093  1.2215  0.0610
  771SOL    HW2 2313   0.315   3.023   2.223  0.1189 -1.8762  0.4250
  772SOL     OW 2314   1.980   2.857   2.111 -0.0317  0.6125  0.0361
  772SOL    HW1 2315   2.026   2.773   2.154  0.1254 -3.6729  2.3080
  772SOL    HW2 2316   2.048   2.917   2.065  0.5474 -0.3114  0.3442
  773SOL     OW 2317   1.000   1.943   1.665 -0.3024  0.2498  0.1121
  773SOL    HW1 2318   1.090   1.905   1.681 -0.1810  2.3646  0.9337
  773SOL    HW2 2319   1.015   2.039   1.638  0.7488 -1.4061  1.6564
  774SOL     OW 2320   1.049   0.143   1.976 -0.1473  0.4101  0.1128
  774SOL    HW1 2321   0.995   0.182   2.054 -0.8674  1.4222 -0.6522
  774SOL    HW2 2322   1.141   0.191   1.977  0.8929 -1.0848  2.5143
  775SOL     OW 2323   2.116   2.977   2.981 -0.5402 -0.5903  0.0725
  775SOL    HW1 2324   2.139   2.890   2.932  2.2386  3.3568 -0.3709
  775SOL    HW2 2325   2.010   2.977   2.989 -4.3767  2.5069  0.8157
  776SOL     OW 2326   2.628   0.791   2.259 -0.1670 -0.3243 -0.1375
  776SOL    HW1 2327   2.721   0.763   2.294 -1.1167 -1.4958 -0.9420
  776SOL    HW2 2328   2.639   0.867   2.196  0.6707 -3.6720 -3.6090
  777SOL     OW 2329   2.495   2.367   2.178  0.0074 -0.1419 -0.3059
  777SOL    HW1 2330   2.484   2.280   2.229 -1.6542  1.6386 -1.5448
  777SOL    HW2 2331   2.591   2.398   2.175 -0.8933 -2.7350 -1.1719
  778SOL     OW 2332   1.948   0.675   2.652  0.2514 -0.0641  0.1908
  778SOL    HW1 2333   2.035   0.728   2.668  0.0771  0.2145 -0.4967
  778SOL    HW2 2334   1.961   0.598   2.584  1.0250 -1.1450 -1.0925
  779SOL     OW 2335   3.032   0.270   0.450 -0.4086  0.4067  0.2170
  779SOL    HW1 2336   3.066   0.364   0.465  0.2903  2.0151  1.1516
  779SOL    HW2 2337   2.949   0.274   0.387 -1.8891  0.1765  0.6112
  780SOL     OW 2338   2.566   0.475   0.049  0.0702  0.2437 -0.2023
  780SOL    HW1 2339   2.598   0.387   0.095  2.0208 -0.3702 -0.5913
  780SOL    HW2 2340   2.547   0.550   0.116 -2.2082 -1.7592 -0.8327
  781SOL     OW 2341   0.094   2.827   1.314 -0.3148  0.4294 -0.4146
  781SOL    HW1 2342   0.132   2.847   1.220 -0.0820  1.5383 -0.5247
  781SOL    HW2 2343   0.019   2.756   1.318  1.7059 -0.0948 -2.3377
  782SOL     OW 2344   2.041   2.577   0.436 -0.0756 -0.1144  0.1871
  782SOL    HW1 2345   2.073   2.607   0.341  0.7736 -0.2141 -2.4900
  782SOL    HW2 2346   1.943   2.582   0.445  1.7374 -1.0672  1.4925
  783SOL     OW 2347   0.894   1.368   1.567 -0.0015 -0.3441 -0.3553
  783SOL    HW1 2348   0.809   1.420   1.535 -2.1015 -0.2264 -1.1344
  783SOL    HW2 2349   0.977   1.376   1.508  0.6598 -0.5965 -0.9319
  784SOL     OW 2350   1.350   0.631   2.711  0.2907 -0.5955  0.0488
  784SOL    HW1 2351   1.277   0.630   2.641  3.2677 -2.9333  1.4089
  784SOL    HW2 2352   1.426   0.685   2.674 -2.9130 -0.3223 -0.0372
  785SOL     OW 2353   2.360   0.490   1.151 -0.3113  0.3678  0.1119
  785SOL    HW1 2354   2.390   0.509   1.247 -3.1095 -0.1515 -0.4306
  785SOL    HW2 2355   2.258   0.466   1.146 -3.2274 -1.1909  3.2431
  786SOL     OW 2356   1.198   2.666   2.088 -0.4139  0.2471  0.2483
  786SOL    HW1 2357   1.297   2.672   2.054  5.8697  1.2393 -0.8922
  786SOL    HW2 2358   1.174   2.571   2.119  1.0342 -0.3562  1.4105
  787SOL     OW 2359   1.717   0.239   1.058  0.5700  0.4009 -0.2592
  787SOL    HW1 2360   1.776   0.319   1.091 -0.2685  0.3175 -1.0549
  787SOL    HW2 2361   1.691   0.254   0.959  2.0647 -1.0639  4.9362
  788SOL     OW 2362   0.295   1.190   0.498 -0.5200 -0.1089  0.0533
  788SOL    HW1 2363   0.309   1.129   0.577  0.1333  0.6526  2.4879
  788SOL    HW2 2364   0.379   1.198   0.437  0.4998  3.7119 -2.6743
  789SOL     OW 2365   0.750   1.976   1.557  0.4388  0.1068  0.0465
  789SOL    HW1 2366   0.840   1.935   1.585  0.0744  0.1530 -1.7835
  789SOL    HW2 2367   0.681   1.989   1.628  0.9109 -0.7186 -2.0158
  790SOL     OW 2368   0.526   0.788   2.441  0.6974  0.1082 -0.0667
  790SOL    HW1 2369   0.576   0.834   2.519 -0.5340  0.4020  2.5301
  790SOL    HW2 2370   0.491   0.863   2.384 -0.6236  0.1310 -0.0221
  791SOL     OW 2371   1.877   0.579   0.824  0.3457 -0.4250 -0.1771
  791SOL    HW1 2372   1.888   0.504   0.756  0.2627 -0.2173 -0.2155
  791SOL    HW2 2373   1.962   0.633   0.841 -1.3052  0.6781  2.9353
  792SOL     OW 2374   0.975   2.729   1.892  0.7171  0.7349  0.1093
  792SOL    HW1 2375   0.987   2.827   1.870  0.3234  0.0709 -0.5205
  792SOL    HW2 2376   1.014   2.703   1.983 -0.9185 -1.4270  1.4260
  793SOL     OW 2377   0.464   3.108   0.459 -0.1205  0.1963  0.1533
  793SOL    HW1 2378   0.444   0.054   0.538 -2.4589 -1.1033 -3.0251
  793SOL    HW2 2379   0.533   3.045   0.489  0.2791  0.9478 -0.3584
  794SOL     OW 2380   0.274   1.522   1.810 -0.1157  0.0840  0.5319
  794SOL    HW1 2381   0.212   1.555   1.877  1.8480 -2.3644  0.0007
  794SOL    HW2 2382   0.246   1.548   1.714 -0.5723  2.5586 -0.1528
  795SOL     OW 2383   0.339   2.260   2.113  0.3778  0.7531 -0.2785
  795SOL    HW1 2384   0.302   2.324   2.184  2.2459 -1.8688  1.2648
  795SOL    HW2 2385   0.351   2.172   2.157 -2.7472 -0.2664 -1.0425
  796SOL     OW 2386   2.282   0.452   2.030 -0.2430  0.1691 -1.2318
  796SOL    HW1 2387   2.314   0.373   2.086 -1.7482  0.5032  1.9181
  796SOL    HW2 2388   2.362   0.501   1.984 -2.1318 -1.1128  1.5135
  797SOL     OW 2389   2.613   2.632   2.719  0.3091 -0.4915 -0.2842
  797SOL    HW1 2390   2.551   2.712   2.699 -0.3411  2.5138 -3.6854
  797SOL    HW2 2391   2.700   2.646   2.666  0.2293  0.3473  0.0024
  798SOL     OW 2392   2.936   3.113   2.185  0.4285 -0.2930 -0.1462
  798SOL    HW1 2393   2.888   0.041   2.262  0.5761 -1.5114 -0.7513
  798SOL    HW2 2394   2.983   0.063   2.119 -0.4853  1.6633 -0.9444
  799SOL     OW 2395   0.094   2.737   2.206 -0.0640  0.2126  0.2496
  799SOL    HW1 2396   0.111   2.661   2.275 -2.5802 -0.8122  1.8650
  799SOL    HW2 2397   0.085   2.694   2.113 -1.0564  0.0274  0.1636
  800SOL     OW 2398   3.092   2.085   2.975  0.8224  0.3230 -0.4292
  800SOL    HW1 2399   3.040   2.127   3.053  1.4484  1.8004 -0.3776
  800SOL    HW2 2400   0.062   2.058   3.004 -3.9504  1.8907 -0.1632
  801SOL     OW 2401   1.582   1.285   1.482 -0.4555 -0.3196  0.0603
  801SOL    HW1 2402   1.587   1.194   1.437  2.1630  0.7977 -3.0179
  801SOL    HW2 2403   1.486   1.315   1.495  1.2868 -1.5676 -1.8235
  802SOL     OW 2404   0.285   1.570   0.634  0.2432  0.6022 -0.0058
  802SOL    HW1 2405   0.237   1.540   0.719  0.8561 -0.2637  5.1604
  802SOL    HW2 2406   0.375   1.523   0.624  1.1410 -2.7089  0.6524
  803SOL     OW 2407   1.234   1.851   2.011 -0.4066  0.6166  0.3514
  803SOL    HW1 2408   1.237   1.895   1.920 -0.5385  0.2067 -0.0093
  803SOL    HW2 2409   1.200   1.915   2.081  0.0078 -0.8536 -0.3437
  804SOL     OW 2410   1.982   1.556   1.064 -0.6077  0.3533  0.2310
  804SOL    HW1 2411   2.032   1.521   0.982 -1.0941  0.3261 -1.0500
  804SOL    HW2 2412   1.947   1.651   1.045 -1.0880  2.4184 -1.3174
  805SOL     OW 2413   2.798   1.238   3.074 -0.0057 -0.2707 -0.4504
  805SOL    HW1 2414   2.753   1.181   3.006  0.2618  0.0057 -0.9604
  805SOL    HW2 2415   2.890   1.266   3.033  2.7435  1.1128 -1.5393
  806SOL     OW 2416   0.558   2.485   0.303  0.0717  0.4550 -0.0298
  806SOL    HW1 2417   0.657   2.485   0.271  1.5177  1.3118 -1.4846
  806SOL    HW2 2418   0.514   2.575   0.277 -1.8890  1.2221  0.6135
  807SOL     OW 2419   2.432   1.645   2.925  0.5240 -0.0458 -0.0586
  807SOL    HW1 2420   2.412   1.571   2.993 -1.4894 -3.1973  1.0794
  807SOL    HW2 2421   2.364   1.715   2.941  1.1976 -2.9312  0.6688
  808SOL     OW 2422   1.207   1.682   1.224 -0.0986  0.0131  0.3232
  808SOL    HW1 2423   1.147   1.607   1.252  0.4205  2.9101 -3.1362
  808SOL    HW2 2424   1.155   1.770   1.213 -2.9237  0.4256 -2.0322
  809SOL     OW 2425   2.941   0.695   0.406 -0.5083 -0.9636 -0.3206
  809SOL    HW1 2426   2.967   0.676   0.507  2.1628 -3.2046 -0.6631
  809SOL    HW2 2427   2.866   0.631   0.381  1.5792  2.3380  0.7411
  810SOL     OW 2428   0.773   1.649   0.703  0.1391 -0.1627  0.4569
  810SOL    HW1 2429   0.781   1.732   0.761  0.3023  0.7672 -1.7158
  810SOL    HW2 2430   0.858   1.620   0.656 -3.8392 -0.4431 -1.7451
  811SOL     OW 2431   1.874   2.631   1.436 -0.2887  0.0116  0.3717
  811SOL    HW1 2432   1.825   2.546   1.414 -2.6997 -1.7105 -0.7400
  811SOL    HW2 2433   1.966   2.606   1.468 -3.2412 -0.3688 -0.2994
  812SOL     OW 2434   1.415   2.638   1.441 -0.1512 -0.3915  0.0499
  812SOL    HW1 2435   1.469   2.682   1.365  1.7054  0.5666  0.1957
  812SOL    HW2 2436   1.325   2.685   1.460 -0.7792 -1.9054  0.2316
  813SOL     OW 2437   0.833   3.031   1.558  0.2073  0.1403 -0.6317
  813SOL    HW1 2438   0.824   2.928   1.556  1.0894 -1.3005 -2.4046
  813SOL    HW2 2439   0.816   3.061   1.464  0.4284 -0.7983  0.4426
  814SOL     OW 2440   0.981   2.895   2.349 -0.1913  0.3210 -0.4378
  814SOL    HW1 2441   1.046   2.940   2.283  1.5185 -0.7939 -2.7125
  814SOL    HW2 2442   0.920   2.827   2.300 -0.9789  0.7319 -2.6051
  815SOL     OW 2443   0.759   0.123   2.722 -0.2876  0.5456  0.4647
  815SOL    HW1 2444   0.686   0.055   2.715  0.0576  2.0111 -0.8973
  815SOL    HW2 2445   0.748   0.194   2.650 -0.8597 -0.1703  1.5501
  816SOL     OW 2446   2.452   0.376   2.950 -0.7235  0.0823  0.4372
  816SOL    HW1 2447   2.489   0.411   3.042 -0.7440 -0.2994  3.5450
  816SOL    HW2 2448   2.368   0.428   2.927 -0.0756  1.0052  1.6495
  817SOL     OW 2449   2.257   2.908   1.729 -0.2096 -0.1899  0.1233
  817SOL    HW1 2450   2.335   2.969   1.759 -0.3261  1.5217  4.1487
  817SOL    HW2 2451   2.251   2.818   1.781  1.5740 -1.5905 -3.6810
  818SOL     OW 2452   1.148   0.704   0.301 -0.3245 -0.2754 -0.3062
  818SOL    HW1 2453   1.065   0.762   0.311  0.7523  0.6630  1.4559
  818SOL    HW2 2454   1.165   0.648   0.382  0.7462  1.2877  1.8950
  819SOL     OW 2455   1.942   1.618   2.766  0.2129  0.2652  0.4360
  819SOL    HW1 2456   2.000   1.608   2.687 -2.1648 -0.6833  2.5523
  819SOL    HW2 2457   1.846   1.605   2.737  2.0982  0.0261 -1.6781
  820SOL     OW 2458   0.069   1.537   2.530  0.1681  0.3766  0.4894
  820SOL    HW1 2459   0.106   1.441   2.536 -1.7164 -2.6037  0.3883
  820SOL    HW2 2460   0.142   1.607   2.529 -0.1643  1.6714 -2.0510
  821SOL     OW 2461   0.096   2.712   0.712 -0.0984 -0.0772 -0.1410
  821SOL    HW1 2462   0.153   2.795   0.678  0.9285  1.5207 -0.7622
  821SOL    HW2 2463   0.044   2.731   0.796 -1.9490  0.1882  0.1398
  822SOL     OW 2464   2.302   2.556   2.817 -0.1822  0.2062  0.7085
  822SOL    HW1 2465   2.343   2.547   2.723  0.3906  1.1525 -1.3938
  822SOL    HW2 2466   2.366   2.594   2.884 -2.6839  0.0666  1.2790
  823SOL     OW 2467   1.457   0.105   2.278 -0.2413 -0.1582  0.0514
  823SOL    HW1 2468   1.470   0.185   2.216 -1.8648 -2.2620  0.8825
  823SOL    HW2 2469   1.430   0.020   2.230 -2.4117 -0.8307  0.1979
  824SOL     OW 2470   2.632   2.590   2.376  0.4232  0.1063  0.2101
  824SOL    HW1 2471   2.597   2.676   2.333 -1.6496  2.7848 -1.5744
  824SOL    HW2 2472   2.704   2.615   2.446  5.0014 -1.6957  1.5306
  825SOL     OW 2473   2.790   2.307   2.533 -0.3116 -0.2030  0.0207
  825SOL    HW1 2474   2.746   2.215   2.565 -1.3637 -0.3543  0.3330
  825SOL    HW2 2475   2.768   2.333   2.437 -1.9708  1.0697  0.7206
  826SOL     OW 2476   2.216   0.391   2.465  0.4127 -0.0453 -0.6887
  826SOL    HW1 2477   2.308   0.367   2.499 -1.2535 -0.0095 -0.9688
  826SOL    HW2 2478   2.202   0.491   2.490  1.1559  0.9772 -1.3785
  827SOL     OW 2479   2.757   2.038   1.589 -0.0199  0.6455  0.2632
  827SOL    HW1 2480   2.691   2.057   1.665 -0.0662  0.7852 -1.9404
  827SOL    HW2 2481   2.735   1.955   1.534  0.6707 -0.4654  0.2274
  828SOL     OW 2482   2.842   0.225   1.697  0.1781 -0.2770  0.2593
  828SOL    HW1 2483   2.916   0.158   1.728  0.6551 -1.4912 -0.1999
  828SOL    HW2 2484   2.873   0.324   1.694 -0.0236  1.8506  0.9450
  829SOL     OW 2485   0.931   1.839   2.673 -0.2018 -0.1991 -0.3366
  829SOL    HW1 2486   0.850   1.869   2.729 -1.2588 -2.1137 -0.8612
  829SOL    HW2 2487   0.913   1.759   2.611 -1.1203  0.9075 -2.1739
  830SOL     OW 2488   0.998   0.954   0.982 -0.4970 -0.1383  0.0596
  830SOL    HW1 2489   1.023   0.905   1.065  0.1670  1.2177 -2.0337
  830SOL    HW2 2490   1.059   1.032   0.974 -3.2032 -1.6367  0.3614
  831SOL     OW 2491   2.932   1.734   2.874 -0.5491 -0.2684  0.0997
  831SOL    HW1 2492   3.003   1.759   2.950  0.6579 -0.0915 -0.3953
  831SOL    HW2 2493   2.847   1.697   2.922  0.6841 -0.7874  1.4288
  832SOL     OW 2494   1.767   2.479   2.334  0.0004  0.3737  0.5101
  832SOL    HW1 2495   1.754   2.449   2.238 -0.1798 -1.3220 -0.8964
  832SOL    HW2 2496   1.718   2.568   2.350  0.3003 -1.9537  0.7589
  833SOL     OW 2497   0.751   0.454   1.906 -0.6151  0.1623 -0.4693
  833SOL    HW1 2498   0.839   0.492   1.879 -3.0284  3.9378  0.0714
  833SOL    HW2 2499   0.755   0.452   2.006 -0.0267  0.8733 -2.9730
  834SOL     OW 2500   0.082   0.451   1.422 -0.1315 -0.0725  0.2732
  834SOL    HW1 2501   3.100   0.483   1.419 -2.9931  1.2892 -1.9639
  834SOL    HW2 2502   0.125   0.470   1.512 -1.5548 -1.1109  2.8549
  835SOL     OW 2503   2.934   0.409   0.151 -0.6573 -0.0056  0.1246
  835SOL    HW1 2504   2.862   0.411   0.223 -0.9145 -1.2414 -2.6696
  835SOL    HW2 2505   2.957   0.506   0.120  0.0966  2.2519  2.5859
  836SOL     OW 2506   1.588   1.917   0.176 -0.3675 -0.4091  0.2608
  836SOL    HW1 2507   1.568   2.009   0.137  1.7345 -0.3946 -1.3310
  836SOL    HW2 2508   1.599   1.928   0.274  1.0620 -2.3976  0.5251
  837SOL     OW 2509   1.881   1.737   0.798 -0.2161 -0.4321 -0.4966
  837SOL    HW1 2510   1.940   1.663   0.828  1.2533 -0.2054  2.5181
  837SOL    HW2 2511   1.926   1.791   0.728 -0.8965 -0.6322  1.9705
  838SOL     OW 2512   1.598   0.753   2.404 -0.0912  0.1177  0.4426
  838SOL    HW1 2513   1.577   0.781   2.498 -0.3050  0.0091 -0.1568
  838SOL    HW2 2514   1.690   0.791   2.377 -0.1632  2.6896  0.5257
  839SOL     OW 2515   0.744   1.368   2.202  0.2192  0.0114  0.0252
  839SOL    HW1 2516   0.671   1.418   2.258  0.1330  0.1452  0.4348
  839SOL    HW2 2517   0.775   1.291   2.263 -1.5605  1.2572  1.0460
  840SOL     OW 2518   1.215   1.771   0.525  0.4505  0.4764  0.3860
  840SOL    HW1 2519   1.171   1.854   0.567  0.6510  0.1486 -0.9313
  840SOL    HW2 2520   1.311   1.770   0.560 -2.3882  1.4978  1.1904
  841SOL     OW 2521   1.598   2.241   0.598  0.0964 -0.3110 -0.0628
  841SOL    HW1 2522   1.699   2.259   0.598  0.1001  0.1659  0.1687
  841SOL    HW2 2523   1.554   2.263   0.688 -0.9813 -0.0283  1.1558
  842SOL     OW 2524   0.359   0.343   0.309  0.1800  0.1182  0.5124
  842SOL    HW1 2525   0.415   0.266   0.274  0.6591 -1.1950  2.3878
  842SOL    HW2 2526   0.353   0.424   0.242  1.4462  0.4606 -1.7056
  843SOL     OW 2527   0.753   0.220   0.548  0.3898  0.2399  0.1307
  843SOL    HW1 2528   0.670   0.228   0.605  0.2428  2.1550 -1.5087
  843SOL    HW2 2529   0.810   0.305   0.558 -2.1830 -2.5331  2.3584
  844SOL     OW 2530   2.810   0.086   2.948 -0.2828  0.2711  0.4857
  844SOL    HW1 2531   2.714   0.088   2.915  1.4760 -1.3146  0.6189
  844SOL    HW2 2532   2.832   3.114   2.986 -2.3838 -0.7694 -2.2863
  845SOL     OW 2533   2.851   2.389   1.657 -0.3055 -0.5853 -0.0312
  845SOL    HW1 2534   2.766   2.403   1.707 -1.4556  0.4881  0.1878
  845SOL    HW2 2535   2.845   2.347   1.562 -2.3177 -1.0679 -0.4083
  846SOL     OW 2536   2.494   1.485   2.263  0.0058  0.0467 -0.0164
  846SOL    HW1 2537   2.596   1.486   2.262 -2.3068 -1.7740 -0.7641
  846SOL    HW2 2538   2.452   1.507   2.173 -3.6727  0.9585 -1.2572
  847SOL     OW 2539   1.061   0.800   1.909  0.0279  0.9472 -0.5245
  847SOL    HW1 2540   1.052   0.707   1.953  0.3272  0.2429  2.8274
  847SOL    HW2 2541   1.124   0.786   1.829 -1.0947  0.0434  0.9407
  848SOL     OW 2542   2.578   3.044   2.732  0.1324 -0.1255  0.1632
  848SOL    HW1 2543   2.595   3.006   2.826  1.0786  0.4921 -1.4754
  848SOL    HW2 2544   2.560   0.030   2.732 -0.1551 -1.1752  2.8086
  849SOL     OW 2545   0.248   2.809   3.100 -0.1688  0.0243  0.6870
  849SOL    HW1 2546   0.207   2.895   3.075  1.9359  0.9626  2.6050
  849SOL    HW2 2547   0.190   2.728   3.074  2.5664 -0.2865 -0.4368
  850SOL     OW 2548   1.152   2.558   0.955  0.1225  0.3161  0.4671
  850SOL    HW1 2549   1.216   2.485   0.978  0.1991  1.0519  1.8816
  850SOL    HW2 2550   1.085   2.521   0.888 -0.8162  1.6612 -1.2768
  851SOL     OW 2551   2.505   0.413   2.248 -0.0960 -0.1970  0.4359
  851SOL    HW1 2552   2.483   0.336   2.182  0.3728  1.7653  0.2008
  851SOL    HW2 2553   2.570   0.472   2.198 -0.9925  0.2039 -1.7404
  852SOL     OW 2554   1.156   0.285   2.499  0.1753 -0.2028  0.4164
  852SOL    HW1 2555   1.231   0.217   2.500  1.6523  1.2152 -2.9257
  852SOL    HW2 2556   1.125   0.312   2.596  0.4901 -3.0097  1.2448
  853SOL     OW 2557   3.117   2.550   0.350 -0.1392  0.2599 -0.1291
  853SOL    HW1 2558   3.047   2.599   0.409 -0.1697  0.3984 -3.4531
  853SOL    HW2 2559   0.087   2.604   0.345  2.4626 -0.6004  1.0068
  854SOL     OW 2560   2.212   0.685   2.461  0.5908  0.4435 -0.1068
  854SOL    HW1 2561   2.233   0.773   2.513  1.0626  1.2365  4.1219
  854SOL    HW2 2562   2.252   0.685   2.367 -1.7149 -0.5221  1.5737
  855SOL     OW 2563   0.797   2.515   0.152  0.1540 -0.2163 -0.0677
  855SOL    HW1 2564   0.875   2.460   0.176 -2.6980  1.0524 -0.6404
  855SOL    HW2 2565   0.823   2.609   0.126 -0.9945 -0.0871  0.5750
  856SOL     OW 2566   2.988   3.116   2.699  0.2325 -0.3010 -0.3819
  856SOL    HW1 2567   3.088   0.020   2.719 -1.2402  1.1547 -0.4122
  856SOL    HW2 2568   2.933   3.093   2.784 -0.2156 -2.3613  0.2845
  857SOL     OW 2569   1.132   2.764   1.444 -0.1753  0.2692  0.0947
  857SOL    HW1 2570   1.133   2.867   1.454  0.5106  1.6698 -2.5031
  857SOL    HW2 2571   1.106   2.736   1.347  0.9215 -1.5603 -0.8672
  858SOL     OW 2572   2.520   2.168   1.678 -0.3209  0.4479  0.3621
  858SOL    HW1 2573   2.487   2.260   1.696  1.9939 -2.8545 -0.4444
  858SOL    HW2 2574   2.448   2.102   1.676  3.2958  2.7377 -0.2363
  859SOL     OW 2575   1.980   2.181   1.887 -0.1652 -0.3792 -0.4999
  859SOL    HW1 2576   2.071   2.146   1.920 -1.0994  1.4648  0.1549
  859SOL    HW2 2577   1.917   2.179   1.965 -0.8706  1.8485 -2.3834
  860SOL     OW 2578   1.977   3.115   0.315 -0.4965  0.0441  0.6757
  860SOL    HW1 2579   1.991   0.061   0.232 -1.4710  1.9539 -4.1391
  860SOL    HW2 2580   1.902   0.034   0.375  1.9093 -0.0690  0.1665
  861SOL     OW 2581   2.699   0.372   0.579  0.0805 -0.5091 -0.4773
  861SOL    HW1 2582   2.766   0.322   0.637  1.0144 -1.0544  0.6912
  861SOL    HW2 2583   2.609   0.333   0.604  2.1155 -1.2497  3.6617
  862SOL     OW 2584   0.829   2.695   2.786  0.1637  0.7292 -0.1269
  862SOL    HW1 2585   0.867   2.782   2.816  0.8322  0.1098 -0.1348
  862SOL    HW2 2586   0.901   2.648   2.736 -2.0801  0.1535  3.1547
  863SOL     OW 2587   0.596   0.632   1.257  0.3657 -0.0112  0.1695
  863SOL    HW1 2588   0.627   0.538   1.247  2.2485 -3.9523 -0.1861
  863SOL    HW2 2589   0.560   0.674   1.173  0.3923  1.2740  2.3596
  864SOL     OW 2590   3.011   0.047   1.829  0.1932 -0.2391  0.1733
  864SOL    HW1 2591   3.108   0.076   1.843 -1.0856 -2.5769 -2.5234
  864SOL    HW2 2592   3.004   3.070   1.797 -0.6511  0.3724  2.0775
  865SOL     OW 2593   0.598   1.295   2.865 -0.2507  0.1513 -0.4135
  865SOL    HW1 2594   0.700   1.305   2.864 -2.3104  0.2286 -1.1344
  865SOL    HW2 2595   0.558   1.321   2.953  2.0208  0.0467 -0.6122
  866SOL     OW 2596   3.072   0.230   0.003  0.3736 -0.3409 -0.8340
  866SOL    HW1 2597   0.020   0.290   3.067  0.8571 -0.0661 -0.6033
  866SOL    HW2 2598   3.020   0.285   0.075 -2.2741  0.2419  3.5552
  867SOL     OW 2599   2.620   2.963   2.965 -0.4114 -0.2725  0.0219
  867SOL    HW1 2600   2.582   2.928   3.054  2.0099 -2.7417 -1.9269
  867SOL    HW2 2601   2.715   2.926   2.952  3.4564  1.7129  3.2664
  868SOL     OW 2602   1.355   0.858   0.211 -0.4661 -0.3638  0.0700
  868SOL    HW1 2603   1.268   0.801   0.231  0.0946 -2.4949 -3.7261
  868SOL    HW2 2604   1.429   0.827   0.274  1.7327 -0.7678 -0.0890
  869SOL     OW 2605   2.686   1.330   0.600  0.3391 -0.0510 -0.9696
  869SOL    HW1 2606   2.630   1.403   0.555  0.3598 -0.9533 -0.5707
  869SOL    HW2 2607   2.734   1.369   0.687  0.8950 -0.1104  1.4232
  870SOL     OW 2608   2.521   1.518   0.477 -0.0058 -0.2182 -0.1055
  870SOL    HW1 2609   2.504   1.523   0.379  0.2391  0.8456  1.4128
  870SOL    HW2 2610   2.447   1.562   0.525  1.7916  0.8796 -1.5359
  871SOL     OW 2611   1.509   1.454   0.650 -0.4499 -0.2650  0.2798
  871SOL    HW1 2612   1.458   1.407   0.720  0.5716 -1.3753  1.6044
  871SOL    HW2 2613   1.578   1.520   0.684 -0.1715 -0.9675 -1.2539
  872SOL     OW 2614   1.455   1.718   1.624 -0.3419  0.4795  0.0816
  872SOL    HW1 2615   1.466   1.636   1.685  2.1063 -1.5882  2.8329
  872SOL    HW2 2616   1.416   1.688   1.532 -1.5945 -0.0744 -1.4359
  873SOL     OW 2617   0.817   1.833   2.327  0.6071  0.1391 -0.2546
  873SOL    HW1 2618   0.865   1.834   2.236 -0.9024  2.6449  0.1705
  873SOL    HW2 2619   0.856   1.767   2.396 -1.6667 -2.3856  0.3900
  874SOL     OW 2620   1.063   1.907   1.260 -0.0117  0.1083 -0.2747
  874SOL    HW1 2621   1.005   1.951   1.192  0.0019  0.7451  1.2390
  874SOL    HW2 2622   1.100   1.967   1.334  1.6261  1.5337  0.3434
  875SOL     OW 2623   2.097   0.421   1.127 -0.2092 -0.1703 -0.6692
  875SOL    HW1 2624   2.096   0.320   1.130  0.5379 -0.3658 -0.3878
  875SOL    HW2 2625   2.001   0.458   1.127  1.7011 -0.3156  0.9262
  876SOL     OW 2626   0.826   0.571   0.356 -0.0438  0.2557 -0.2121
  876SOL    HW1 2627   0.844   0.508   0.436  3.2483  2.4439  2.3588
  876SOL    HW2 2628   0.852   0.540   0.263 -0.1684 -2.1545  1.1937
  877SOL     OW 2629   2.898   0.541   1.409 -0.4361  0.1857 -0.6223
  877SOL    HW1 2630   2.821   0.502   1.356  1.3901 -2.0506  1.5418
  877SOL    HW2 2631   2.888   0.639   1.393 -0.0833 -2.0604  0.8410
  878SOL     OW 2632   1.985   2.184   0.242 -0.0012  0.1801  0.0121
  878SOL    HW1 2633   1.991   2.256   0.173 -0.5210 -2.6493  2.4181
  878SOL    HW2 2634   1.970   2.088   0.204  0.6381 -0.3021 -0.7181
  879SOL     OW 2635   2.765   1.784   1.459  0.3452  0.0863 -0.6487
  879SOL    HW1 2636   2.669   1.759   1.452  3.7192  1.9514  1.9778
  879SOL    HW2 2637   2.816   1.705   1.495 -0.1512  0.3145 -1.0575
  880SOL     OW 2638   1.386   3.016   1.417  0.6082 -0.2101 -0.1362
  880SOL    HW1 2639   1.429   2.947   1.352  0.8825 -1.5102 -1.6572
  880SOL    HW2 2640   1.298   2.981   1.458  1.8682 -0.7581 -2.1985
  881SOL     OW 2641   1.003   2.119   0.060 -0.1377 -0.8170  0.3054
  881SOL    HW1 2642   0.968   2.191   0.123  0.3662  0.8315  0.1203
  881SOL    HW2 2643   1.070   2.055   0.100  0.7066 -0.5417 -0.1807
  882SOL     OW 2644   2.067   0.773   2.074  0.3375  0.3513 -0.4793
  882SOL    HW1 2645   2.113   0.853   2.119  0.1085 -0.7557  0.8559
  882SOL    HW2 2646   2.059   0.786   1.973  0.9545  1.1831  4.3744
  883SOL     OW 2647   0.992   0.206   2.283  0.2524 -0.2907  0.5629
  883SOL    HW1 2648   1.048   0.239   2.358 -1.9021 -0.8525 -2.1871
  883SOL    HW2 2649   0.902   0.255   2.278 -2.6256  1.1121 -0.9319
  884SOL     OW 2650   2.843   0.126   0.265 -0.3681 -0.4359 -0.1881
  884SOL    HW1 2651   2.758   0.095   0.308  0.1840  1.4655  0.7332
  884SOL    HW2 2652   2.825   0.154   0.169 -0.8004  1.4300  2.7989
  885SOL     OW 2653   0.827   1.524   3.096 -0.3594 -0.4796  0.1650
  885SOL    HW1 2654   0.875   1.526   3.004  2.7013  0.6866  1.6174
  885SOL    HW2 2655   0.725   1.521   3.091  1.1738  0.6889 -0.7721
  886SOL     OW 2656   1.936   1.354   2.818 -0.5334  0.7670  0.1227
  886SOL    HW1 2657   1.954   1.327   2.719  1.9745 -1.2081 -4.5277
  886SOL    HW2 2658   1.940   1.456   2.826 -2.1526  0.6659 -2.6910
  887SOL     OW 2659   1.314   0.478   1.758 -0.4718  0.0170 -0.1739
  887SOL    HW1 2660   1.351   0.387   1.727 -2.1740 -1.5715  0.1991
  887SOL    HW2 2661   1.374   0.522   1.829 -2.2761 -0.6404  1.1467
  888SOL     OW 2662   2.805   0.660   1.891  0.0565 -0.1502  0.2810
  888SOL    HW1 2663   2.878   0.727   1.905 -1.7038 -0.2941  0.5800
  888SOL    HW2 2664   2.834   0.598   1.816 -0.7471  1.5350 -0.7099
  889SOL     OW 2665   2.974   2.669   0.544  0.1391  0.1145 -0.0781
  889SOL    HW1 2666   2.891   2.706   0.590  1.7732  0.0630 -1.5755
  889SOL    HW2 2667   3.059   2.676   0.597 -1.7496  0.3356 -1.9508
  890SOL     OW 2668   2.773   2.619   0.018  0.4096 -0.0105 -0.7743
  890SOL    HW1 2669   2.785   2.574   0.111  2.2320  0.6830 -1.3432
  890SOL    HW2 2670   2.869   2.648   3.109  3.8384 -2.5980  1.4988
  891SOL     OW 2671   0.913   1.646   2.851 -0.1238  0.1270 -0.2167
  891SOL    HW1 2672   0.955   1.572   2.793  0.2810 -2.4517 -1.5474
  891SOL    HW2 2673   0.939   1.731   2.811  0.0920 -0.3060  4.3627
  892SOL     OW 2674   2.924   2.980   1.005  0.1273  0.0962  0.5397
  892SOL    HW1 2675   2.921   3.017   0.905  1.0444 -0.9483 -2.1576
  892SOL    HW2 2676   2.947   3.051   1.071  1.1643 -0.4179 -1.8739
  893SOL     OW 2677   0.808   2.832   1.039  0.1089 -0.5206 -0.4712
  893SOL    HW1 2678   0.814   2.759   0.969  1.0905  0.9808 -0.9925
  893SOL    HW2 2679   0.759   2.905   0.992  0.5190 -3.3583 -0.0768
  894SOL     OW 2680   3.068   1.301   0.795 -0.6793  0.0352 -0.4883
  894SOL    HW1 2681   0.002   1.343   0.874  2.6424 -1.0338 -0.0203
  894SOL    HW2 2682   3.088   1.361   0.711  0.7220 -1.0630 -1.0653
  895SOL     OW 2683   2.558   2.764   1.644 -1.0853  0.1553 -0.1972
  895SOL    HW1 2684   2.465   2.805   1.646  0.2341  0.4552 -1.6092
  895SOL    HW2 2685   2.622   2.822   1.586 -0.5732 -0.4134  0.4234
  896SOL     OW 2686   1.122   3.026   1.535 -0.0632  0.0787  0.2273
  896SOL    HW1 2687   1.025   2.991   1.560 -1.9152 -0.5098  2.6267
  896SOL    HW2 2688   1.186   3.041   1.610 -0.2505 -1.4867 -1.6051
  897SOL     OW 2689   0.887   1.623   1.852 -0.0983 -0.0670  0.0884
  897SOL    HW1 2690   0.932   1.665   1.768 -1.5592 -0.2135 -0.5073
  897SOL    HW2 2691   0.885   1.694   1.928  0.5025 -1.9366  1.3429
  898SOL     OW 2692   1.462   2.651   1.894  0.1733 -0.2592  0.4115
  898SOL    HW1 2693   1.440   2.756   1.887 -1.0011  2.0448 -2.3141
  898SOL    HW2 2694   1.476   2.608   1.799  2.2355 -1.7988 -1.1655
  899SOL     OW 2695   0.899   0.458   0.599  0.0616 -0.0755  0.3575
  899SOL    HW1 2696   0.875   0.513   0.683  0.9769  1.7039  2.7350
  899SOL    HW2 2697   1.001   0.455   0.580  2.1949 -1.4174  1.1093
  900SOL     OW 2698   1.475   2.396   2.053  0.1051 -0.1362  0.4270
  900SOL    HW1 2699   1.475   2.490   2.016  1.8424  3.1274 -1.8885
  900SOL    HW2 2700   1.434   2.402   2.147  2.2000  2.1480  2.7673
  901SOL     OW 2701   0.907   2.240   2.870 -0.2522  0.8235 -0.4303
  901SOL    HW1 2702   1.000   2.254   2.906 -2.0177  0.1414 -2.3258
  901SOL    HW2 2703   0.845   2.316   2.890  1.0200 -1.5097  2.0766
  902SOL     OW 2704   1.927   1.083   0.282 -0.1148  0.4178  0.2630
  902SOL    HW1 2705   2.023   1.047   0.295  1.2920  3.3610  3.1319
  902SOL    HW2 2706   1.924   1.183   0.306  1.3266  1.5117 -0.2942
  903SOL     OW 2707   1.866   0.757   0.546 -0.2874 -0.5267  0.0292
  903SOL    HW1 2708   1.799   0.767   0.621  0.7002 -2.0497 -3.2658
  903SOL    HW2 2709   1.826   0.790   0.459 -0.9529 -1.1231  2.0598
  904SOL     OW 2710   0.938   1.065   3.065 -0.7087  0.4762 -0.1749
  904SOL    HW1 2711   1.025   1.122   3.082  1.4881  0.8767 -1.9237
  904SOL    HW2 2712   0.969   0.973   3.034 -0.0679  1.2423 -0.6691
  905SOL     OW 2713   2.059   0.094   0.812  0.0445  0.3192 -0.0655
  905SOL    HW1 2714   2.099   0.085   0.910 -1.0712 -1.6777  2.7915
  905SOL    HW2 2715   2.099   0.179   0.767  0.9370 -1.9383 -1.9403
  906SOL     OW 2716   3.053   2.297   1.062 -0.2538 -0.0071  0.7423
  906SOL    HW1 2717   3.023   2.390   1.032 -0.8589  0.2204 -2.5032
  906SOL    HW2 2718   0.007   2.260   1.000 -3.3078  1.0529 -0.7491
  907SOL     OW 2719   0.912   0.844   0.322  0.6157  0.0106  0.4670
  907SOL    HW1 2720   0.847   0.767   0.331  1.7829 -0.0253  1.4459
  907SOL    HW2 2721   0.881   0.912   0.252 -2.6616  2.1984 -0.3406
  908SOL     OW 2722   2.241   2.769   0.865  0.2615 -0.4989 -0.4880
  908SOL    HW1 2723   2.340   2.792   0.868  0.9039 -0.9365  0.2065
  908SOL    HW2 2724   2.192   2.845   0.819 -1.8858 -3.2913  3.3367
  909SOL     OW 2725   2.107   1.164   1.490 -0.1030 -0.2393 -0.0849
  909SOL    HW1 2726   2.067   1.137   1.402  1.1645 -0.2729  1.9999
  909SOL    HW2 2727   2.071   1.252   1.531  2.7408  2.3718  1.5817
  910SOL     OW 2728   1.373   2.963   2.141  0.2255  0.2433  0.1787
  910SOL    HW1 2729   1.376   2.877   2.195 -1.5081 -0.7198 -0.4833
  910SOL    HW2 2730   1.281   3.009   2.160 -0.0236 -0.6411 -0.0907
  911SOL     OW 2731   2.887   0.720   2.301  0.5080 -0.2699  0.1217
  911SOL    HW1 2732   2.967   0.777   2.265  3.5187 -2.2549 -0.4466
  911SOL    HW2 2733   2.913   0.676   2.387  0.3562 -0.5421 -2.5137
  912SOL     OW 2734   0.184   1.310   1.444 -0.3813  0.2429 -0.0766
  912SOL    HW1 2735   0.183   1.216   1.489 -1.5656 -2.8279  2.9383
  912SOL    HW2 2736   0.256   1.367   1.482  1.7969 -0.4369 -2.9501
  913SOL     OW 2737   2.788   2.441   1.256  0.2494 -0.3410 -0.0549
  913SOL    HW1 2738   2.823   2.365   1.316  1.2617 -1.5676  1.1222
  913SOL    HW2 2739   2.694   2.425   1.219 -1.2115  0.5567  1.8031
  914SOL     OW 2740   1.842   0.878   1.541 -0.3385 -0.5020  0.1044
  914SOL    HW1 2741   1.772   0.816   1.584  0.5853 -0.7022 -0.8504
  914SOL    HW2 2742   1.878   0.937   1.610  1.3094 -2.6106 -1.4924
  915SOL     OW 2743   1.594   0.574   1.422  0.1126 -0.2332 -0.1533
  915SOL    HW1 2744   1.670   0.513   1.451  1.3196 -0.1585  0.3466
  915SOL    HW2 2745   1.550   0.534   1.340  0.4787  0.9456  0.0176
  916SOL     OW 2746   2.876   2.533   1.009 -0.0513  0.0270 -0.2511
  916SOL    HW1 2747   2.810   2.541   0.931 -0.3627 -0.3596  0.4757
  916SOL    HW2 2748   2.832   2.501   1.099 -0.6395 -1.4115 -1.2218
  917SOL     OW 2749   1.876   1.960   0.120 -0.3627  0.0487  0.0195
  917SOL    HW1 2750   1.773   1.956   0.134  0.0297  0.4413  1.2431
  917SOL    HW2 2751   1.901   1.927   0.024  3.5879 -0.3887 -1.3914
  918SOL     OW 2752   1.938   2.994   2.646 -0.6671 -0.9661 -0.5090
  918SOL    HW1 2753   2.008   3.059   2.615 -0.7276 -0.7603  0.4288
  918SOL    HW2 2754   1.859   3.047   2.684 -1.9498  0.8757 -1.9348
  919SOL     OW 2755   1.422   2.336   1.133 -0.5072  0.0988  0.0635
  919SOL    HW1 2756   1.402   2.267   1.208 -2.9943  0.0205  0.6485
  919SOL    HW2 2757   1.504   2.397   1.161 -1.4551  1.1094  0.4621
  920SOL     OW 2758   3.029   0.273   2.361  0.1602 -0.6948 -0.3124
  920SOL    HW1 2759   3.074   0.309   2.442  2.6090  1.5125 -2.1049
  920SOL    HW2 2760   3.090   0.239   2.286 -2.0420  2.1762 -1.3866
  921SOL     OW 2761   2.903   0.937   1.683 -0.1784  0.3244 -0.5314
  921SOL    HW1 2762   2.877   1.035   1.669  0.5894 -0.0245 -1.6111
  921SOL    HW2 2763   2.921   0.886   1.597 -0.1349 -0.6985  1.0663
  922SOL     OW 2764   2.011   1.846   0.578 -0.2012 -0.1251 -0.4899
  922SOL    HW1 2765   2.100   1.865   0.542 -2.3917  1.0377 -0.0353
  922SOL    HW2 2766   1.950   1.912   0.544  3.8657 -3.3697 -0.9688
  923SOL     OW 2767   0.938   1.785   0.066 -0.1458  0.2725  0.1073
  923SOL    HW1 2768   0.888   1.718   0.010 -4.1486 -1.2067  1.8582
  923SOL    HW2 2769   0.894   1.879   0.052 -2.1732  0.4351 -4.2058
  924SOL     OW 2770   0.908   0.395   0.145 -0.3441 -0.1662 -0.3500
  924SOL    HW1 2771   0.888   0.303   0.185 -0.9482  2.9575  0.2652
  924SOL    HW2 2772   0.880   0.408   0.052 -0.0539  1.3329  2.3737
  925SOL     OW 2773   2.475   0.514   0.911 -0.1401  0.1878 -0.5514
  925SOL    HW1 2774   2.470   0.422   0.872  0.7612  1.0006  1.0031
  925SOL    HW2 2775   2.432   0.507   1.001 -0.3142 -0.0725 -3.1659
  926SOL     OW 2776   0.487   0.143   0.938  0.3486 -0.6993 -0.2886
  926SOL    HW1 2777   0.412   0.091   0.887 -0.1931 -0.3183  1.8101
  926SOL    HW2 2778   0.453   0.200   1.018 -2.2646  1.3241  2.7311
  927SOL     OW 2779   0.085   1.246   2.563  0.4567 -0.8430 -0.0119
  927SOL    HW1 2780   0.139   1.179   2.613 -0.2262 -0.1992 -0.0858
  927SOL    HW2 2781   3.101   1.235   2.590 -3.2525 -2.2511  0.8600
  928SOL     OW 2782   3.035   0.591   2.906  0.3917  0.3423  0.0834
  928SOL    HW1 2783   2.998   0.649   2.827 -1.4749 -0.2370  0.4297
  928SOL    HW2 2784   3.003   0.494   2.895 -0.4880 -1.8639 -0.1150
  929SOL     OW 2785   2.607   0.197   1.316 -0.3638  0.3203  0.0785
  929SOL    HW1 2786   2.512   0.223   1.345 -0.5125  0.0660  1.0176
  929SOL    HW2 2787   2.603   0.142   1.231  1.4672  1.8652  1.0986
  930SOL     OW 2788   1.911   1.080   1.987  0.3217 -0.0251  0.1003
  930SOL    HW1 2789   1.826   1.046   2.036  0.3672  0.7679 -0.9131
  930SOL    HW2 2790   1.996   1.052   2.031 -2.4315  1.3874 -3.0097
  931SOL     OW 2791   2.207   1.407   0.443 -0.6238 -0.4392 -0.0352
  931SOL    HW1 2792   2.270   1.340   0.395  0.8832 -3.7117  0.0366
  931SOL    HW2 2793   2.233   1.507   0.431 -0.8976  1.6514 -2.0733
  932SOL     OW 2794   2.799   1.237   0.894  0.1235  0.1056  0.4565
  932SOL    HW1 2795   2.896   1.247   0.862  1.5828 -0.4590  0.1545
  932SOL    HW2 2796   2.768   1.138   0.915  0.5941 -5.3778  0.0707
  933SOL     OW 2797   2.583   1.578   1.166 -0.1966 -0.0320  0.2081
  933SOL    HW1 2798   2.615   1.507   1.233  1.5295 -0.2018  1.4523
  933SOL    HW2 2799   2.483   1.563   1.156  1.1145 -1.9469 -1.2841
  934SOL     OW 2800   1.961   0.483   2.483 -0.0215 -0.0495  0.4092
  934SOL    HW1 2801   1.943   0.519   2.389  1.0217  0.3200  1.1391
  934SOL    HW2 2802   2.037   0.413   2.480  2.6968 -2.2488  1.2925
  935SOL     OW 2803   0.198   1.698   0.407 -0.1350 -0.0393  0.0421
  935SOL    HW1 2804   0.249   1.646   0.479  2.0286 -0.7222  3.2579
  935SOL    HW2 2805   0.237   1.793   0.416 -0.9026 -0.3864 -1.2858
  936SOL     OW 2806   0.223   0.670   0.658 -0.0272 -0.6861  0.0313
  936SOL    HW1 2807   0.202   0.749   0.603 -0.0344  0.1137 -0.1727
  936SOL    HW2 2808   0.289   0.610   0.605  0.8804 -2.8167 -0.7764
  937SOL     OW 2809   2.595   0.041   1.078 -0.2139  0.0634 -0.3371
  937SOL    HW1 2810   2.611   3.059   1.066  0.6323  2.4979  0.2586
  937SOL    HW2 2811   2.675   0.098   1.049  0.6099 -1.0449 -0.9314
  938SOL     OW 2812   2.765   2.483   0.253  0.2385 -0.6447 -0.4095
  938SOL    HW1 2813   2.837   2.423   0.286 -1.1812  0.1716 -0.6737
  938SOL    HW2 2814   2.692   2.488   0.333 -1.2582  2.5910  1.5484
  939SOL     OW 2815   0.845   1.950   0.545  0.7899  0.1457  0.3178
  939SOL    HW1 2816   0.831   1.865   0.491 -0.8305  2.2105  1.3619
  939SOL    HW2 2817   0.754   1.979   0.590  0.2752  2.8039 -2.5082
  940SOL     OW 2818   0.110   0.403   2.974 -0.0679 -0.0836 -0.3205
  940SOL    HW1 2819   0.165   0.389   2.891  1.1862  0.8269  1.1408
  940SOL    HW2 2820   0.064   0.496   2.962  2.8214  0.4649 -0.0261
  941SOL     OW 2821   1.266   0.364   3.033 -0.0454 -0.3287 -0.0428
  941SOL    HW1 2822   1.306   0.462   3.029  0.8313  2.8062 -0.4917
  941SOL    HW2 2823   1.226   0.342   0.007 -3.6012 -1.7270  1.0864
  942SOL     OW 2824   1.035   0.873   1.277  0.0038  0.1189  0.4563
  942SOL    HW1 2825   1.126   0.917   1.269 -0.9844 -0.7107  0.3292
  942SOL    HW2 2826   1.016   0.853   1.375  0.2324 -1.2886 -0.0840
  943SOL     OW 2827   1.495   0.956   1.945  0.4845 -0.3050 -0.0022
  943SOL    HW1 2828   1.575   0.955   2.007  1.2289 -0.9343 -2.7382
  943SOL    HW2 2829   1.416   0.902   1.979  0.3700  1.7625 -0.3579
  944SOL     OW 2830   1.920   1.071   1.728  0.2276 -0.1370 -0.2443
  944SOL    HW1 2831   1.923   1.079   1.834  1.2560 -1.3252  3.3046
  944SOL    HW2 2832   1.865   1.151   1.690 -1.1507 -0.8333 -0.0867
  945SOL     OW 2833   2.933   3.015   0.395  0.2105 -0.2109  0.0304
  945SOL    HW1 2834   3.001   3.047   0.463 -2.7363 -2.3598 -3.1292
  945SOL    HW2 2835   2.888   3.099   0.355 -1.8467  3.8708  0.2717
  946SOL     OW 2836   2.887   0.925   1.982  0.2933 -0.0831 -0.3446
  946SOL    HW1 2837   2.901   0.924   1.883 -0.7229  1.2465  1.7235
  946SOL    HW2 2838   2.796   0.972   2.005 -0.6056  3.5195 -0.4506
  947SOL     OW 2839   0.881   2.714   0.411 -0.1395 -0.1369 -0.2690
  947SOL    HW1 2840   0.957   2.778   0.432 -0.1514 -3.4280 -0.4253
  947SOL    HW2 2841   0.846   2.738   0.318 -0.7786 -0.5260  2.5614
  948SOL     OW 2842   2.353   1.280   1.558 -0.2445  0.4165  0.1309
  948SOL    HW1 2843   2.396   1.247   1.644  0.5783  0.5744 -0.9319
  948SOL    HW2 2844   2.258   1.240   1.543  0.4557 -0.5079 -0.1258
  949SOL     OW 2845   0.450   1.284   2.535  0.3983  0.1961 -0.2401
  949SOL    HW1 2846   0.397   1.328   2.608 -0.5233  1.6346  0.3556
  949SOL    HW2 2847   0.477   1.193   2.567  1.6396 -0.6595 -1.6056
  950SOL     OW 2848   0.456   2.850   1.045 -0.0381 -0.0442 -0.4698
  950SOL    HW1 2849   0.357   2.884   1.034 -3.3251 -1.0312 -2.0488
  950SOL    HW2 2850   0.499   2.889   1.126  0.3103 -0.3596  0.2034
  951SOL     OW 2851   0.854   1.172   2.359 -0.1331 -0.1926  0.5081
  951SOL    HW1 2852   0.938   1.203   2.310 -1.5717 -0.0149  3.6430
  951SOL    HW2 2853   0.877   1.172   2.456 -0.4534  1.4042  1.0543
  952SOL     OW 2854   0.519   1.515   0.316 -0.0195 -0.6568 -0.3304
  952SOL    HW1 2855   0.563   1.435   0.275 -1.6024  1.5808  2.5320
  952SOL    HW2 2856   0.413   1.517   0.294 -2.8055  2.3413 -1.5808
  953SOL     OW 2857   2.443   0.252   2.585  0.4759 -0.4919 -0.2045
  953SOL    HW1 2858   2.364   0.244   2.647  1.0055 -0.7496 -0.0571
  953SOL    HW2 2859   2.439   0.181   2.507  0.4244 -0.8730 -2.2657
  954SOL     OW 2860   1.635   1.236   0.537 -0.5131 -0.5039 -0.0193
  954SOL    HW1 2861   1.566   1.304   0.570 -0.1976 -0.9812 -0.2752
  954SOL    HW2 2862   1.723   1.250   0.588  1.0209 -0.8272 -0.8961
  955SOL     OW 2863   0.715   1.934   2.839  0.0145  0.2164  0.5796
  955SOL    HW1 2864   0.739   1.952   2.937 -0.6105 -2.8184  1.1008
  955SOL    HW2 2865   0.734   2.021   2.782  2.8811  1.8171 -1.5610
  956SOL     OW 2866   1.926   0.565   2.184 -0.6923  0.1183 -0.1544
  956SOL    HW1 2867   1.967   0.496   2.127 -1.3677  0.6308  1.4513
  956SOL    HW2 2868   1.944   0.655   2.146  2.3208 -3.1138  0.9659
  957SOL     OW 2869   1.986   2.188   2.594  0.6115 -0.0118  0.3746
  957SOL    HW1 2870   2.055   2.120   2.559 -1.1761  2.4640 -2.7208
  957SOL    HW2 2871   1.996   2.204   2.695 -1.0999 -2.9103 -2.6170
  958SOL     OW 2872   1.350   1.397   1.526 -0.3389  0.1556 -0.2718
  958SOL    HW1 2873   1.248   1.382   1.525 -2.4373  0.6015 -0.7401
  958SOL    HW2 2874   1.377   1.464   1.456  0.1265 -1.8762  2.4898
  959SOL     OW 2875   1.980   2.455   2.520 -0.4132  0.2065  0.2804
  959SOL    HW1 2876   1.917   2.461   2.440  1.3919 -2.0287 -0.2758
  959SOL    HW2 2877   1.992   2.359   2.542 -1.4424  3.9490 -1.0293
  960SOL     OW 2878   0.108   0.814   2.618 -0.0048  0.3964 -0.1255
  960SOL    HW1 2879   0.117   0.808   2.515 -0.2641  0.3785 -0.5250
  960SOL    HW2 2880   0.007   0.799   2.638  2.5986  1.3053 -0.3195
  961SOL     OW 2881   0.468   1.090   2.720 -0.1469 -0.0578  0.0666
  961SOL    HW1 2882   0.368   1.094   2.748  0.2338 -1.5498  0.8109
  961SOL    HW2 2883   0.527   1.135   2.789  0.6689  1.7950  2.0422
  962SOL     OW 2884   0.866   1.236   2.874  0.2356  0.5998 -0.4232
  962SOL    HW1 2885   0.878   1.174   2.957 -1.6173  0.1596  1.1328
  962SOL    HW2 2886   0.869   1.181   2.788  2.4135 -2.0730  0.6430
  963SOL     OW 2887   2.663   2.296   0.051 -0.7491 -0.4353 -0.1870
  963SOL    HW1 2888   2.695   2.378   0.106  0.6230  1.9137 -1.2641
  963SOL    HW2 2889   2.611   2.227   0.107  0.7779  0.3215 -0.0933
  964SOL     OW 2890   1.253   2.399   1.604 -0.0647 -0.5588  0.2484
  964SOL    HW1 2891   1.346   2.416   1.644  0.9476 -1.7779 -0.2092
  964SOL    HW2 2892   1.186   2.462   1.651 -2.4694 -2.1910  2.0840
  965SOL     OW 2893   1.553   1.557   0.398  0.3607  0.0527  0.6312
  965SOL    HW1 2894   1.651   1.539   0.381  1.3452 -0.4749 -0.2766
  965SOL    HW2 2895   1.519   1.518   0.482  0.7879  0.3409 -0.3938
  966SOL     OW 2896   3.104   1.762   0.221  0.1204  0.2336  0.2274
  966SOL    HW1 2897   0.053   1.747   0.301  2.4295 -0.6904  2.4186
  966SOL    HW2 2898   3.043   1.842   0.241 -0.2221  2.9948 -0.9536
  967SOL     OW 2899   1.805   0.076   2.076 -0.2947  0.6302  0.2818
  967SOL    HW1 2900   1.896   0.115   2.092 -1.8659 -0.0982 -0.9231
  967SOL    HW2 2901   1.759   0.076   2.164 -1.1307  2.2382 -1.5403
  968SOL     OW 2902   1.801   0.353   0.457 -0.4654 -0.9383  0.1994
  968SOL    HW1 2903   1.797   0.356   0.353  0.3950 -0.2097 -1.0067
  968SOL    HW2 2904   1.868   0.425   0.494 -0.4002  2.5554 -0.4072
  969SOL     OW 2905   0.145   1.328   2.289 -0.4758 -0.4102  0.1559
  969SOL    HW1 2906   0.218   1.274   2.244 -2.1901  2.0764  1.7190
  969SOL    HW2 2907   0.128   1.302   2.385  1.0787 -1.2985 -2.0125
  970SOL     OW 2908   2.306   1.648   1.095  0.1497 -1.0253  0.5136
  970SOL    HW1 2909   2.257   1.649   1.007 -2.3467 -1.0864 -1.1724
  970SOL    HW2 2910   2.365   1.733   1.100  0.8197  0.7363  1.7231
  971SOL     OW 2911   3.055   2.738   0.957  0.8947  0.0399 -0.4809
  971SOL    HW1 2912   3.002   2.658   0.992 -0.2999  0.5606 -1.0147
  971SOL    HW2 2913   3.004   2.825   0.983 -0.3427  2.2716 -1.2879
  972SOL     OW 2914   0.163   1.050   2.725  0.0062 -0.4227 -0.4130
  972SOL    HW1 2915   0.138   1.058   2.828 -0.8038  0.0699  2.3382
  972SOL    HW2 2916   0.143   0.956   2.687  0.2047  0.4207 -1.0243
  973SOL     OW 2917   0.329   0.198   0.612 -0.2763 -0.2057  0.1777
  973SOL    HW1 2918   0.254   0.169   0.674 -0.5552  0.9054  0.6155
  973SOL    HW2 2919   0.324   0.303   0.617  0.5023  0.2014  2.6333
  974SOL     OW 2920   2.027   0.708   1.450  0.0660 -0.0635 -0.1599
  974SOL    HW1 2921   1.965   0.786   1.481  0.5463  1.1652 -2.1020
  974SOL    HW2 2922   2.108   0.736   1.394  2.2239  2.1548  1.9300
  975SOL     OW 2923   2.630   2.833   0.109 -0.2556  0.0807  0.4806
  975SOL    HW1 2924   2.655   2.814   0.202  0.7027  2.6615 -4.2898
  975SOL    HW2 2925   2.668   2.761   0.046  0.5280  1.9047  0.8138
  976SOL     OW 2926   0.600   1.370   1.041 -0.6400  0.0666  0.4062
  976SOL    HW1 2927   0.641   1.288   1.084 -0.5192 -0.7440  1.7333
  976SOL    HW2 2928   0.599   1.444   1.114 -2.5925 -1.9509  0.3595
  977SOL     OW 2929   1.146   2.277   0.804  0.3153  1.0577  0.1062
  977SOL    HW1 2930   1.169   2.279   0.704  2.3340 -1.8556 -0.2817
  977SOL    HW2 2931   1.210   2.212   0.851 -0.9299 -1.7318  0.8769
  978SOL     OW 2932   0.510   1.157   0.306  0.8568 -0.0035 -0.4052
  978SOL    HW1 2933   0.608   1.185   0.312  0.1228  0.2651 -0.0978
  978SOL    HW2 2934   0.497   1.080   0.239  0.7471  1.9555  0.9013
  979SOL     OW 2935   2.233   1.678   0.488 -0.7848  0.3407  0.4813
  979SOL    HW1 2936   2.144   1.691   0.533 -0.8298  1.7786  0.9969
  979SOL    HW2 2937   2.258   1.767   0.451  1.3626 -0.3734  1.8366
  980SOL     OW 2938   0.329   1.833   1.987 -0.0857  0.3811 -0.3689
  980SOL    HW1 2939   0.382   1.806   1.904 -0.1216  0.5537 -0.3657
  980SOL    HW2 2940   0.387   1.841   2.074  0.0737  0.0208 -2.2068
  981SOL     OW 2941   2.923   1.090   0.191  0.1238 -0.6193 -0.2879
  981SOL    HW1 2942   2.896   1.161   0.257  1.2647 -0.3120  1.7013
  981SOL    HW2 2943   2.894   1.117   0.097 -0.0254  2.3179 -0.0930
  982SOL     OW 2944   2.837   2.919   2.021  0.0179  0.1686  0.0393
  982SOL    HW1 2945   2.880   2.995   2.075 -1.2254  3.5246 -0.6601
  982SOL    HW2 2946   2.882   2.912   1.930 -0.2996 -1.7423  2.1883
  983SOL     OW 2947   1.493   0.070   1.070  0.2787 -0.7789  0.1554
  983SOL    HW1 2948   1.418   0.102   1.131 -0.0154  0.9889 -1.0183
  983SOL    HW2 2949   1.579   0.116   1.095  0.1034  0.3294 -0.4132
  984SOL     OW 2950   1.311   2.683   2.844  0.1447 -0.0939 -0.4175
  984SOL    HW1 2951   1.262   2.699   2.762  0.2216  0.9789  0.0630
  984SOL    HW2 2952   1.353   2.591   2.853  0.2886 -1.1331 -2.6627
  985SOL     OW 2953   1.818   1.757   1.680 -0.2914 -0.0550  0.0779
  985SOL    HW1 2954   1.751   1.817   1.637  1.9932 -2.0316  2.7700
  985SOL    HW2 2955   1.847   1.684   1.618  0.6908  0.9533  2.0764
  986SOL     OW 2956   2.119   0.065   2.561  0.1671  0.3536 -0.0189
  986SOL    HW1 2957   2.118   0.107   2.471  1.0345 -1.4688  2.9235
  986SOL    HW2 2958   2.165   0.128   2.631  0.9963  1.2560  0.9092
  987SOL     OW 2959   2.749   1.369   2.350  0.3416  0.2045  0.2917
  987SOL    HW1 2960   2.715   1.335   2.437 -0.4229 -1.5969 -4.0268
  987SOL    HW2 2961   2.827   1.434   2.367  3.0087  0.2410  0.2261
  988SOL     OW 2962   2.679   0.574   2.108 -0.5796  0.1778  0.1551
  988SOL    HW1 2963   2.721   0.597   2.019 -0.7296 -2.9909  2.3793
  988SOL    HW2 2964   2.681   0.657   2.160 -0.8446 -0.0920 -0.3899
  989SOL     OW 2965   1.786   1.327   1.882 -0.2404  0.5555  0.2569
  989SOL    HW1 2966   1.696   1.286   1.911 -0.7256 -0.9978  0.1511
  989SOL    HW2 2967   1.859   1.261   1.907 -1.0653 -0.3653 -1.0303
  990SOL     OW 2968   0.106   1.248   0.197 -0.1439  0.2840  0.2555
  990SOL    HW1 2969   0.060   1.223   0.284  0.9370 -0.7343  1.4883
  990SOL    HW2 2970   0.189   1.187   0.187  0.9127  1.3470  0.7320
  991SOL     OW 2971   0.341   1.810   2.800 -1.0750 -0.6966 -0.2322
  991SOL    HW1 2972   0.240   1.804   2.803  2.4352  0.2972 -0.7374
  991SOL    HW2 2973   0.380   1.896   2.841 -0.2224 -1.3843  2.9404
  992SOL     OW 2974   2.652   2.158   1.950  0.4139  0.1183 -0.1367
  992SOL    HW1 2975   2.617   2.215   1.876  1.2324 -1.5429  1.7667
  992SOL    HW2 2976   2.743   2.193   1.976  1.4099  0.1255  1.1245
  993SOL     OW 2977   0.240   2.974   0.668 -0.2606  0.3354 -0.3776
  993SOL    HW1 2978   0.245   2.981   0.564 -0.1554 -1.3636 -2.4570
  993SOL    HW2 2979   0.316   2.915   0.708  1.7682 -0.9686 -1.8907
  994SOL     OW 2980   0.043   1.918   1.454  0.3831 -0.3654 -0.6867
  994SOL    HW1 2981   3.106   1.939   1.546  1.1912  3.2960  0.8144
  994SOL    HW2 2982   0.126   1.978   1.446  1.3476 -0.4603  2.0490
  995SOL     OW 2983   2.273   1.631   2.498  0.3060  0.0853  0.3137
  995SOL    HW1 2984   2.300   1.689   2.579 -0.2539  2.2947  1.4807
  995SOL    HW2 2985   2.327   1.543   2.496  1.6339 -0.9669  0.5432
  996SOL     OW 2986   2.046   1.550   3.005  0.5494 -0.4618 -0.1399
  996SOL    HW1 2987   1.965   1.499   3.050 -3.4867  0.1206  2.3074
  996SOL    HW2 2988   2.013   1.600   2.922 -1.0373 -1.3200  0.8418
  997SOL     OW 2989   1.446   1.492   1.786  0.3621  0.0572  0.2716
  997SOL    HW1 2990   1.398   1.434   1.855 -0.2346  0.8857  0.0276
  997SOL    HW2 2991   1.434   1.448   1.696  0.0742  1.3922 -1.2427
  998SOL     OW 2992   2.769   2.233   1.020  0.8330  0.1826  0.2132
  998SOL    HW1 2993   2.846   2.301   1.017 -0.3916 -0.9274 -0.3154
  998SOL    HW2 2994   2.792   2.162   0.951 -0.3057  1.5440  0.9687
  999SOL     OW 2995   2.144   2.705   0.208  0.1998  0.3126 -0.2126
  999SOL    HW1 2996   2.144   2.803   0.182 -0.6331  0.5299 -2.0788
  999SOL    HW2 2997   2.135   2.644   0.131  1.5346  2.7377 -1.4521
 1000SOL     OW 2998   0.874   0.015   3.083  0.0329 -0.1894 -0.4485
 1000SOL    HW1 2999   0.932   0.017   0.051  0.3107 -1.9944  1.0578
 1000SOL    HW2 3000   0.840   0.107   3.054  1.4324  0.6153  1.2662
   3.11740   3.11740   3.11740
