1000 SPC/Fw water molecules t=  79.00000 step= 79000
 3000
    1SOL     OW    1   1.835   2.790   0.819 -0.2809  0.2345 -0.3057
    1SOL    HW1    2   1.774   2.711   0.811  0.5589 -0.2191 -1.5878
    1SOL    HW2    3   1.838   2.832   0.728 -3.1535 -2.3368  1.6686
    2SOL     OW    4   0.755   1.250   2.206 -0.0516  0.4663 -0.1015
    2SOL    HW1    5   0.679   1.248   2.270  2.7693  1.4794  0.3532
    2SOL    HW2    6   0.792   1.343   2.201 -0.1531 -1.3687 -0.3440
    3SOL     OW    7   1.544   2.921   2.462  0.2771 -0.2155  0.4328
    3SOL    HW1    8   1.524   2.981   2.540 -0.4311  0.3203  1.1471
    3SOL    HW2    9   1.516   2.827   2.486 -0.8082  2.6386 -0.4453
    4SOL     OW   10   1.117   1.857   2.780 -0.5056  0.3736  0.6112
    4SOL    HW1   11   1.191   1.893   2.719  3.9518  1.3649 -1.1457
    4SOL    HW2   12   1.157   1.773   2.828  1.5483  0.4958  0.2124
    5SOL     OW   13   0.616   0.760   1.836 -0.0206  0.1415  0.1476
    5SOL    HW1   14   0.673   0.815   1.765  2.2238  2.8285 -0.5142
    5SOL    HW2   15   0.620   0.805   1.929  1.8909  1.0866 -0.3580
    6SOL     OW   16   1.903   0.610   2.718  0.0297  0.4479  0.3916
    6SOL    HW1   17   1.878   0.676   2.644 -0.0926 -2.4245  4.0476
    6SOL    HW2   18   1.831   0.608   2.791  3.8377  0.9184 -0.1265
    7SOL     OW   19   0.376   0.217   1.503  0.1124 -0.4417 -0.0203
    7SOL    HW1   20   0.339   0.285   1.435  0.7971  0.9073  0.2686
    7SOL    HW2   21   0.366   0.259   1.601  0.1361  0.0428 -0.3859
    8SOL     OW   22   1.869   0.135   1.852  0.7546 -0.5314 -0.2951
    8SOL    HW1   23   1.935   0.104   1.922 -0.6009 -0.2775  1.2799
    8SOL    HW2   24   1.901   0.118   1.758 -2.5510  2.3291  0.4612
    9SOL     OW   25   0.377   0.001   0.612 -0.5967 -0.1278 -0.4766
    9SOL    HW1   26   0.418   0.032   0.700  0.3342 -0.0533  1.1423
    9SOL    HW2   27   0.287   3.069   0.615  2.7914  0.7388 -0.9951
   10SOL     OW   28   0.439   2.455   2.434  0.5621 -1.1787  0.3598
   10SOL    HW1   29   0.534   2.484   2.464  1.9026  1.1992  2.7449
   10SOL    HW2   30   0.420   2.439   2.340 -1.3166  0.6230  3.7262
   11SOL     OW   31   0.521   1.537   0.185  0.6601  0.1394 -0.1308
   11SOL    HW1   32   0.541   1.501   0.095 -1.4983 -1.9618  2.4842
   11SOL    HW2   33   0.606   1.535   0.244  3.4390  0.2081  0.0840
   12SOL     OW   34   2.980   2.901   1.256  0.0348  0.0538  0.0496
   12SOL    HW1   35   2.954   2.967   1.177 -0.7591  1.1295 -2.3403
   12SOL    HW2   36   3.066   2.848   1.238  2.0411  0.0554 -1.2151
   13SOL     OW   37   0.816   2.799   0.458  0.6531 -0.3030 -0.4375
   13SOL    HW1   38   0.833   2.759   0.366  2.7265  0.8133  2.1769
   13SOL    HW2   39   0.817   2.901   0.454  1.0588 -1.3606  1.6206
   14SOL     OW   40   1.627   1.570   1.416  0.4064 -0.0437 -0.0464
   14SOL    HW1   41   1.543   1.559   1.360  2.1837 -0.5775  1.2247
   14SOL    HW2   42   1.650   1.482   1.459 -0.7116 -1.4507 -2.2049
   15SOL     OW   43   0.006   1.610   2.472  0.0244 -0.1549 -0.1798
   15SOL    HW1   44   3.030   1.645   2.486 -1.0295  0.5927 -1.7381
   15SOL    HW2   45   0.060   1.627   2.557 -2.0427  0.5160 -0.9443
   16SOL     OW   46   1.617   0.678   2.571  0.7674 -0.6721  0.6764
   16SOL    HW1   47   1.570   0.720   2.489 -0.5345 -1.1108 -0.1449
   16SOL    HW2   48   1.668   0.746   2.627  2.4707 -0.0121  4.7345
   17SOL     OW   49   0.049   2.317   2.537  0.0139  0.3458  0.5838
   17SOL    HW1   50   0.073   2.403   2.591 -0.1989 -0.3705 -3.1494
   17SOL    HW2   51   0.086   2.228   2.576 -0.3501 -3.0450 -2.2359
   18SOL     OW   52   1.006   1.347   0.680  0.0161  0.0294  0.2854
   18SOL    HW1   53   1.041   1.444   0.660 -1.2751  2.3355 -0.8576
   18SOL    HW2   54   0.986   1.344   0.777  2.1412 -0.5784 -3.2978
   19SOL     OW   55   2.820   1.767   2.416  0.9104 -0.4977 -0.3860
   19SOL    HW1   56   2.804   1.701   2.492  2.3572  0.2219 -3.1782
   19SOL    HW2   57   2.734   1.814   2.387 -1.5291  3.1291 -2.1810
   20SOL     OW   58   2.445   2.203   2.544 -0.2922  0.1605 -0.5276
   20SOL    HW1   59   2.536   2.233   2.577  0.5419 -1.8589 -0.2155
   20SOL    HW2   60   2.383   2.281   2.521  0.5823 -0.1141  0.2426
   21SOL     OW   61   1.354   1.693   0.219  0.1621 -0.0253  0.0850
   21SOL    HW1   62   1.311   1.598   0.233  0.1464  0.6677 -0.4202
   21SOL    HW2   63   1.357   1.740   0.308  2.2846 -0.6944 -1.3185
   22SOL     OW   64   2.142   2.259   1.461  0.1475 -0.5021  0.3760
   22SOL    HW1   65   2.223   2.308   1.489 -1.0794 -3.5341 -1.4242
   22SOL    HW2   66   2.055   2.286   1.512 -0.9956  0.5363  1.0833
   23SOL     OW   67   0.178   1.157   1.293  0.4480 -0.3061 -0.2510
   23SOL    HW1   68   0.160   1.074   1.235  0.3231  0.1173  1.1006
   23SOL    HW2   69   0.171   1.134   1.394  0.1406 -2.0809 -0.2048
   24SOL     OW   70   2.485   1.626   2.244  0.0779  0.3838  0.0120
   24SOL    HW1   71   2.460   1.595   2.339  1.4659 -3.3476 -0.5362
   24SOL    HW2   72   2.574   1.588   2.215 -2.1320 -0.9396 -1.1526
   25SOL     OW   73   1.996   0.332   2.285  0.2681  0.2902  0.1879
   25SOL    HW1   74   2.081   0.371   2.328  0.1733  2.3764  0.0321
   25SOL    HW2   75   1.971   0.396   2.208  0.3931 -3.6094  2.4177
   26SOL     OW   76   1.229   0.025   0.503  0.4546  0.2204 -0.0171
   26SOL    HW1   77   1.165   0.024   0.422  0.1648 -0.5738  1.1299
   26SOL    HW2   78   1.207   0.102   0.565 -0.0170  3.6390 -0.4287
   27SOL     OW   79   0.700   1.586   0.409  0.0754 -0.9539 -0.3932
   27SOL    HW1   80   0.601   1.603   0.436  0.1298  2.9667 -1.0717
   27SOL    HW2   81   0.736   1.499   0.455  2.2567 -0.8531  2.2418
   28SOL     OW   82   2.398   2.163   1.070  0.5138  0.0410  0.3938
   28SOL    HW1   83   2.456   2.154   1.146 -1.5344  2.0527 -2.2216
   28SOL    HW2   84   2.308   2.209   1.104 -2.6810  1.7367  1.2738
   29SOL     OW   85   2.322   2.981   1.712  0.5133 -0.1721  0.5532
   29SOL    HW1   86   2.268   2.898   1.694 -0.6241 -1.7538  0.7584
   29SOL    HW2   87   2.371   2.965   1.800 -1.2759  1.2628  1.5948
   30SOL     OW   88   0.832   2.892   1.212  0.0432 -0.5933  0.2164
   30SOL    HW1   89   0.824   2.838   1.128 -1.7870  2.2363  1.6874
   30SOL    HW2   90   0.795   2.843   1.294  1.0054  1.1899  1.6033
   31SOL     OW   91   0.073   2.164   1.686  0.3654  0.2955  0.0613
   31SOL    HW1   92   0.069   2.065   1.726  1.4750 -3.0871  0.4756
   31SOL    HW2   93   3.111   2.219   1.717 -3.6775 -1.1290  1.9555
   32SOL     OW   94   1.369   1.542   1.842 -0.6689 -0.3000 -0.2776
   32SOL    HW1   95   1.287   1.590   1.811 -0.9927 -0.5627  1.8703
   32SOL    HW2   96   1.440   1.606   1.887 -1.5245  1.5902  0.7000
   33SOL     OW   97   0.369   0.191   3.055 -0.1741 -0.1978  0.0010
   33SOL    HW1   98   0.428   0.262   3.008  0.6628 -0.4105 -2.8300
   33SOL    HW2   99   0.321   0.136   2.981  0.2363  0.5447 -0.9813
   34SOL     OW  100   2.434   3.044   0.513  0.2526  0.2065 -0.0340
   34SOL    HW1  101   2.404   3.052   0.608 -2.5269 -0.6631 -1.8362
   34SOL    HW2  102   2.420   2.949   0.476 -1.9087  1.9541  0.4955
   35SOL     OW  103   2.667   0.165   1.442 -0.4920  0.2245 -0.3276
   35SOL    HW1  104   2.682   0.214   1.527 -1.4476  2.5441 -1.6143
   35SOL    HW2  105   2.592   0.096   1.451  1.1923 -1.9143 -0.8059
   36SOL     OW  106   2.716   2.714   2.749  0.2364  0.1709 -0.0908
   36SOL    HW1  107   2.724   2.794   2.808 -0.0817 -1.3045 -2.0292
   36SOL    HW2  108   2.793   2.718   2.685 -2.1258 -0.1728  0.8864
   37SOL     OW  109   1.547   2.649   2.826 -0.3836  0.0503 -0.5244
   37SOL    HW1  110   1.608   2.700   2.890 -0.6977 -1.2086 -2.0971
   37SOL    HW2  111   1.456   2.639   2.864 -0.3231  2.4473 -1.8250
   38SOL     OW  112   2.926   0.914   3.047 -0.2060  0.4680  0.6919
   38SOL    HW1  113   2.822   0.902   3.050 -2.3716 -1.6980  0.6082
   38SOL    HW2  114   2.954   1.010   3.076  0.5591  1.1506  0.9868
   39SOL     OW  115   1.752   1.781   2.026 -0.4290 -0.0640 -0.2479
   39SOL    HW1  116   1.732   1.849   2.099  0.7314  1.2158 -2.3894
   39SOL    HW2  117   1.816   1.705   2.052 -0.9124  1.4332 -0.8623
   40SOL     OW  118   0.330   0.300   2.691 -0.2172 -0.1111  0.0108
   40SOL    HW1  119   0.305   0.216   2.745  0.1526 -0.6638  0.9501
   40SOL    HW2  120   0.403   0.351   2.743  0.0890 -1.1469 -0.4458
   41SOL     OW  121   1.774   1.345   1.797  0.0768  0.3006  0.3905
   41SOL    HW1  122   1.741   1.300   1.879 -1.2378  2.2866 -1.1263
   41SOL    HW2  123   1.694   1.388   1.745 -3.0560  1.4505  0.7889
   42SOL     OW  124   0.149   0.121   1.702  0.3689 -0.0676 -0.0263
   42SOL    HW1  125   0.125   0.174   1.617  1.5038 -0.3969 -2.1078
   42SOL    HW2  126   0.235   0.158   1.739 -0.4514  0.6456 -0.5302
   43SOL     OW  127   1.349   1.307   1.992  0.2925 -0.7054 -0.9534
   43SOL    HW1  128   1.385   1.216   1.996 -0.8022  1.6120  1.0231
   43SOL    HW2  129   1.376   1.352   1.905 -3.5819  0.8915 -1.5599
   44SOL     OW  130   3.036   0.060   3.068 -0.2897  0.0708 -0.1910
   44SOL    HW1  131   3.063   0.043   2.974 -0.4862 -3.8526  1.1341
   44SOL    HW2  132   2.961   0.130   3.076 -4.0028 -2.0844 -0.1293
   45SOL     OW  133   0.171   2.093   0.977 -0.1345 -0.3035  0.1712
   45SOL    HW1  134   0.247   2.159   0.945  1.2450  1.7021  1.5298
   45SOL    HW2  135   0.200   1.995   0.973 -0.7770  1.2994 -0.1589
   46SOL     OW  136   2.539   2.760   1.739 -0.0120 -0.1261 -0.1543
   46SOL    HW1  137   2.511   2.828   1.812 -1.9032 -0.9712  0.3456
   46SOL    HW2  138   2.644   2.751   1.739  0.4147  2.2578  0.2883
   47SOL     OW  139   0.670   1.675   1.183  0.2972 -0.2409  0.3699
   47SOL    HW1  140   0.717   1.596   1.140 -0.0965 -0.7339  0.2560
   47SOL    HW2  141   0.612   1.729   1.117  1.1337 -1.2932 -2.1476
   48SOL     OW  142   0.457   2.644   0.274  0.1236 -0.2946 -0.0212
   48SOL    HW1  143   0.488   2.673   0.369 -0.3640  0.0827  3.4587
   48SOL    HW2  144   0.443   2.725   0.220 -0.0926  0.7839 -0.3312
   49SOL     OW  145   2.960   1.779   1.730  0.0987  0.2861  0.7171
   49SOL    HW1  146   2.876   1.767   1.787 -2.1743 -1.7434 -0.9414
   49SOL    HW2  147   2.983   1.693   1.688 -0.5644  0.2956  1.4497
   50SOL     OW  148   1.576   0.891   0.678 -0.2739  0.4251 -0.8367
   50SOL    HW1  149   1.559   0.794   0.646  2.1097 -0.7201  1.8841
   50SOL    HW2  150   1.658   0.905   0.741  0.2578  1.6668  2.8080
   51SOL     OW  151   1.165   0.640   0.991  0.1598  0.3474  0.7116
   51SOL    HW1  152   1.204   0.703   1.062 -2.0477 -2.7125  0.5280
   51SOL    HW2  153   1.084   0.588   1.033  0.5714  0.6152  0.1552
   52SOL     OW  154   0.976   1.392   0.216 -0.0012  0.5371 -0.0388
   52SOL    HW1  155   0.999   1.342   0.308  1.9948 -0.7116  1.5554
   52SOL    HW2  156   0.901   1.345   0.166 -2.4155  2.4946 -1.0126
   53SOL     OW  157   1.351   0.175   2.578  0.2323 -0.0744  0.1907
   53SOL    HW1  158   1.411   0.132   2.648  0.6701  1.0668  1.6077
   53SOL    HW2  159   1.291   0.111   2.527  1.6187  2.0606 -2.6289
   54SOL     OW  160   1.760   0.815   1.629 -0.2901  0.4685 -0.1097
   54SOL    HW1  161   1.679   0.853   1.574  0.8706 -0.7404 -2.1106
   54SOL    HW2  162   1.844   0.854   1.584 -2.4617 -2.1977  1.7961
   55SOL     OW  163   2.668   2.860   0.442  0.2161 -0.3472  0.2961
   55SOL    HW1  164   2.674   2.822   0.536  0.9161 -2.3093 -1.5898
   55SOL    HW2  165   2.577   2.834   0.406 -1.0404 -2.9428 -1.2967
   56SOL     OW  166   0.899   2.556   2.012  0.1404 -0.1075 -0.4308
   56SOL    HW1  167   0.889   2.644   1.963  0.7277 -1.2762  2.3424
   56SOL    HW2  168   0.906   2.475   1.944 -1.2223  1.7408  0.9169
   57SOL     OW  169   1.687   0.916   2.642  0.1384  0.1587 -0.3571
   57SOL    HW1  170   1.709   0.917   2.741 -0.3884 -0.1287  1.7267
   57SOL    HW2  171   1.601   0.959   2.621 -0.0226  1.0564 -0.9944
   58SOL     OW  172   0.480   1.203   1.934  0.2681 -0.5404  0.4611
   58SOL    HW1  173   0.448   1.138   1.863 -1.4799  0.8074  2.1893
   58SOL    HW2  174   0.490   1.293   1.892  2.1068 -2.0721 -2.0388
   59SOL     OW  175   0.654   2.701   2.264 -0.3248  0.3745  0.2027
   59SOL    HW1  176   0.706   2.775   2.208  0.0897  2.8965 -2.2480
   59SOL    HW2  177   0.676   2.613   2.217 -0.9225 -2.5695 -0.1186
   60SOL     OW  178   2.566   2.429   0.362  0.3984 -0.3674  0.3704
   60SOL    HW1  179   2.644   2.467   0.410 -3.7322 -2.2720 -1.0309
   60SOL    HW2  180   2.546   2.488   0.281  1.3055 -2.0058 -2.5543
   61SOL     OW  181   0.848   2.574   0.618  0.0209 -0.7309 -0.0301
   61SOL    HW1  182   0.922   2.528   0.572 -1.4995 -0.4491  0.2723
   61SOL    HW2  183   0.832   2.663   0.575  2.4586  0.2967 -0.0656
   62SOL     OW  184   1.679   2.480   2.593  0.0066 -0.1176 -0.3130
   62SOL    HW1  185   1.662   2.399   2.534 -0.1170 -0.7091 -0.8610
   62SOL    HW2  186   1.612   2.557   2.582 -1.9532 -1.2343  0.9632
   63SOL     OW  187   2.113   0.650   0.054 -0.1324  0.3793  0.1640
   63SOL    HW1  188   2.130   0.627   3.077  1.8327 -0.2689  1.4724
   63SOL    HW2  189   2.206   0.656   0.099 -0.7221  0.0421 -1.1247
   64SOL     OW  190   0.952   1.377   2.879 -0.1192  0.5730 -0.2781
   64SOL    HW1  191   0.900   1.449   2.928  1.5738 -2.4804  1.3267
   64SOL    HW2  192   0.998   1.318   2.947  2.2920 -1.7579  1.4419
   65SOL     OW  193   1.118   2.824   1.201  0.0795 -0.7676 -0.1369
   65SOL    HW1  194   1.180   2.896   1.166  1.5998  0.9914 -0.9286
   65SOL    HW2  195   1.022   2.854   1.204 -2.2369 -3.0332  0.5178
   66SOL     OW  196   0.670   1.614   1.607  0.1916  0.8259  0.5746
   66SOL    HW1  197   0.729   1.556   1.543 -1.5359 -1.9235 -0.3574
   66SOL    HW2  198   0.726   1.651   1.682 -1.5851 -1.6646 -0.6062
   67SOL     OW  199   2.367   2.713   2.138 -0.2567 -0.2459 -0.3642
   67SOL    HW1  200   2.439   2.722   2.206  0.6654 -1.4075 -2.4300
   67SOL    HW2  201   2.388   2.772   2.056  3.7888  0.9345 -1.1135
   68SOL     OW  202   0.963   0.968   1.758 -0.2565 -0.2267 -0.2209
   68SOL    HW1  203   0.938   0.963   1.857  0.3932  0.2682  0.9671
   68SOL    HW2  204   0.888   0.930   1.699 -1.5779  0.1253  1.5418
   69SOL     OW  205   2.560   2.610   0.142 -0.8107 -0.8648  0.0159
   69SOL    HW1  206   2.540   2.658   0.054 -0.9645 -0.5741  2.0175
   69SOL    HW2  207   2.647   2.646   0.177 -1.7842 -0.2460 -1.0120
   70SOL     OW  208   2.287   0.811   2.802 -0.0050  0.1860  0.1689
   70SOL    HW1  209   2.301   0.782   2.708  2.2806 -1.3494  1.2648
   70SOL    HW2  210   2.376   0.796   2.858 -0.0236 -1.6617  1.3645
   71SOL     OW  211   0.022   2.376   0.432 -0.8316 -0.4137 -0.0173
   71SOL    HW1  212   3.062   2.315   0.408  1.5928  1.9669  0.5507
   71SOL    HW2  213   0.102   2.343   0.381  0.8250  2.9570 -1.6146
   72SOL     OW  214   2.824   1.861   0.540  0.4188 -0.2135  0.3525
   72SOL    HW1  215   2.897   1.922   0.567 -1.7375 -0.4912 -3.3937
   72SOL    HW2  216   2.847   1.762   0.547 -0.1826 -2.0264 -0.8086
   73SOL     OW  217   1.101   0.443   0.615 -0.1353 -0.4507  0.0350
   73SOL    HW1  218   1.200   0.442   0.639 -0.2070  0.7135  0.0092
   73SOL    HW2  219   1.056   0.529   0.653 -2.0525  1.1024  0.8376
   74SOL     OW  220   0.002   2.292   1.934  0.3786  0.2358  1.0406
   74SOL    HW1  221   0.047   2.278   2.023  0.3396  3.1576  1.3304
   74SOL    HW2  222   0.076   2.292   1.867 -1.5822 -2.3442  0.6653
   75SOL     OW  223   1.806   1.858   1.770 -0.2756 -0.8042  0.8695
   75SOL    HW1  224   1.799   1.842   1.869 -3.3525  0.4755  1.5276
   75SOL    HW2  225   1.733   1.800   1.729  2.5235  0.0914  0.3913
   76SOL     OW  226   1.413   2.098   1.121 -0.3234 -0.2977 -0.0809
   76SOL    HW1  227   1.462   2.116   1.032 -0.9532  0.1908 -0.3318
   76SOL    HW2  228   1.317   2.127   1.116  0.7196 -1.1327  0.6496
   77SOL     OW  229   2.772   1.670   1.910  0.1473  0.0573  0.4778
   77SOL    HW1  230   2.805   1.581   1.942  0.7555  1.4922 -0.7269
   77SOL    HW2  231   2.796   1.745   1.973  1.2574 -0.6307 -4.4769
   78SOL     OW  232   1.700   0.565   0.875  0.3340  0.3266 -0.6224
   78SOL    HW1  233   1.696   0.474   0.927 -1.6574 -1.5650  1.2652
   78SOL    HW2  234   1.668   0.636   0.941  3.1383  0.0755 -0.7712
   79SOL     OW  235   2.000   1.469   1.892  0.0420  0.9717 -0.3065
   79SOL    HW1  236   2.031   1.399   1.963  0.5034  0.7415 -1.8796
   79SOL    HW2  237   1.933   1.436   1.823 -0.7626 -0.8153  1.0449
   80SOL     OW  238   1.264   0.317   1.242 -0.0525 -0.0556 -0.7248
   80SOL    HW1  239   1.311   0.232   1.275  2.7509 -1.7757 -0.8020
   80SOL    HW2  240   1.176   0.330   1.291 -1.0647 -0.6803 -3.6369
   81SOL     OW  241   0.623   2.422   0.624  0.9255  0.4187 -0.0747
   81SOL    HW1  242   0.701   2.484   0.604 -0.9436 -1.9936  0.4595
   81SOL    HW2  243   0.654   2.333   0.663  0.9554 -2.3633  1.7629
   82SOL     OW  244   1.418   0.443   1.756 -0.2889  0.2671  0.6048
   82SOL    HW1  245   1.447   0.387   1.675 -0.5056 -0.9424 -0.4803
   82SOL    HW2  246   1.354   0.399   1.824 -1.1172  2.3922  2.6568
   83SOL     OW  247   0.385   2.031   0.719  0.1705 -0.5394 -0.6677
   83SOL    HW1  248   0.410   2.078   0.807 -0.3862 -0.2510  2.7328
   83SOL    HW2  249   0.331   2.088   0.654  1.6043  2.2489  2.3551
   84SOL     OW  250   2.635   1.385   0.001 -0.3885 -0.1052  0.3073
   84SOL    HW1  251   2.712   1.370   3.057 -0.0495  0.3340 -2.8660
   84SOL    HW2  252   2.550   1.383   3.066 -0.9531 -0.9048  0.0457
   85SOL     OW  253   0.048   2.684   1.511 -0.2238  0.3545  0.5985
   85SOL    HW1  254   0.007   2.776   1.524 -1.5225 -0.9440  0.5394
   85SOL    HW2  255   3.116   2.628   1.441  1.0700 -0.2602  3.0972
   86SOL     OW  256   1.706   2.832   1.056  0.0773 -0.3111  0.0158
   86SOL    HW1  257   1.774   2.769   1.091 -1.7344  2.3661 -3.7320
   86SOL    HW2  258   1.734   2.856   0.961 -1.8240  0.9468 -2.3569
   87SOL     OW  259   2.674   1.403   0.620 -0.3687 -0.3171  0.4220
   87SOL    HW1  260   2.629   1.388   0.528 -0.4013  2.0772 -2.3516
   87SOL    HW2  261   2.622   1.365   0.697  5.6272  1.1536 -0.7738
   88SOL     OW  262   0.994   0.494   1.147  0.6257  0.5515 -0.7579
   88SOL    HW1  263   1.032   0.465   1.239  1.5808 -0.4056  0.3106
   88SOL    HW2  264   0.941   0.414   1.111 -2.1186 -0.0531 -0.8645
   89SOL     OW  265   0.922   2.850   1.887 -0.0970  0.0146  0.2966
   89SOL    HW1  266   0.891   2.848   1.785  0.0236  1.1421 -0.7180
   89SOL    HW2  267   1.025   2.868   1.895  0.6284  0.0275 -3.5187
   90SOL     OW  268   3.044   1.755   1.273 -0.3875  0.2214 -0.7828
   90SOL    HW1  269   2.988   1.688   1.219  1.0223  0.3320  2.1124
   90SOL    HW2  270   2.977   1.822   1.319 -3.3023  2.3148  1.4250
   91SOL     OW  271   1.243   1.635   1.158  0.1241 -0.4974  0.2480
   91SOL    HW1  272   1.269   1.633   1.254  2.2283 -1.5480 -2.7013
   91SOL    HW2  273   1.258   1.546   1.109  1.4318 -1.8798 -0.9951
   92SOL     OW  274   2.834   2.801   1.931 -0.0569  0.1691 -0.0762
   92SOL    HW1  275   2.811   2.788   1.832  0.5146  0.4336  3.0823
   92SOL    HW2  276   2.763   2.860   1.976 -0.7814 -0.7561 -1.7119
   93SOL     OW  277   3.047   1.261   2.866  0.4718 -0.0171 -0.0329
   93SOL    HW1  278   2.975   1.225   2.805 -0.6573 -0.2075  1.5911
   93SOL    HW2  279   0.018   1.264   2.826  0.5194  0.4465  2.3927
   94SOL     OW  280   2.466   2.903   1.954 -0.2860  0.2847 -0.0874
   94SOL    HW1  281   2.391   2.960   1.995  1.7745 -0.4194 -1.8206
   94SOL    HW2  282   2.551   2.934   1.995  0.6819 -1.0814  0.4012
   95SOL     OW  283   1.782   0.834   2.166  0.3225  0.3511 -0.0668
   95SOL    HW1  284   1.710   0.776   2.211 -1.0377  0.1197  1.1075
   95SOL    HW2  285   1.761   0.858   2.073  1.6337 -0.3486  5.5880
   96SOL     OW  286   2.670   0.800   1.646 -0.2659 -0.1498 -0.4375
   96SOL    HW1  287   2.746   0.835   1.707  1.3488 -1.2864  1.6619
   96SOL    HW2  288   2.709   0.766   1.560  0.6829  0.8686  0.4405
   97SOL     OW  289   2.488   3.063   1.499  0.0565 -0.1950 -0.0129
   97SOL    HW1  290   2.551   2.993   1.464 -1.5891  2.1241 -1.3736
   97SOL    HW2  291   2.448   3.040   1.589  0.3851  0.5908 -1.8960
   98SOL     OW  292   2.204   2.664   1.392 -0.5541  0.8439  0.2088
   98SOL    HW1  293   2.288   2.703   1.433 -1.4227  0.5091  1.2695
   98SOL    HW2  294   2.132   2.641   1.463  0.6902 -0.0201 -0.7336
   99SOL     OW  295   2.778   0.309   1.649 -0.6314 -0.1859  0.2090
   99SOL    HW1  296   2.723   0.339   1.728  1.1289  1.8274 -1.9759
   99SOL    HW2  297   2.852   0.251   1.682 -0.1571  1.9056 -1.3502
  100SOL     OW  298   2.338   1.771   2.082  0.0277  0.1146 -0.5052
  100SOL    HW1  299   2.390   1.731   2.162  0.8307  0.0822  0.6270
  100SOL    HW2  300   2.244   1.802   2.113 -1.8032  1.0054 -0.9471
  101SOL     OW  301   2.097   0.012   0.205  0.2010 -0.5146 -0.0960
  101SOL    HW1  302   2.183   0.018   0.259 -0.0841  1.9238  1.0219
  101SOL    HW2  303   2.078   0.105   0.158 -2.1171 -2.3126  1.0840
  102SOL     OW  304   0.453   0.592   1.338  0.5183  0.7436  0.3628
  102SOL    HW1  305   0.399   0.563   1.423 -2.7659 -0.9984  1.2932
  102SOL    HW2  306   0.443   0.517   1.273  2.0959  0.3224 -1.5549
  103SOL     OW  307   2.602   3.020   2.571  0.2711  0.2345 -0.5834
  103SOL    HW1  308   2.643   3.090   2.630 -1.3834  1.6331  0.1761
  103SOL    HW2  309   2.548   2.951   2.626  2.7726 -1.9739  2.0234
  104SOL     OW  310   3.092   2.869   1.820  0.0768 -0.2345 -0.3451
  104SOL    HW1  311   0.031   2.786   1.830  1.1835  0.3576  2.1533
  104SOL    HW2  312   2.997   2.846   1.853 -1.4999 -0.6227 -2.0398
  105SOL     OW  313   1.296   0.940   2.169 -0.0145 -0.4368 -0.2949
  105SOL    HW1  314   1.243   1.022   2.141  1.7128  1.8109  0.3809
  105SOL    HW2  315   1.261   0.855   2.134  0.6353  0.9737  1.1861
  106SOL     OW  316   1.970   0.617   0.761  0.4163  0.2429 -0.4637
  106SOL    HW1  317   1.881   0.626   0.813 -0.7654 -0.1402  0.3504
  106SOL    HW2  318   1.954   0.578   0.667 -1.2158 -0.1042 -0.2976
  107SOL     OW  319   0.655   1.002   1.164  0.1763 -0.0796 -0.1502
  107SOL    HW1  320   0.602   0.918   1.139  2.6412 -0.8059  0.5141
  107SOL    HW2  321   0.754   0.977   1.179  0.2461 -2.7745  0.3008
  108SOL     OW  322   3.029   0.399   2.355  0.1456  0.0694  0.0372
  108SOL    HW1  323   3.047   0.365   2.259 -1.9900  1.2145  1.1031
  108SOL    HW2  324   3.069   0.333   2.423  0.1659  0.2259 -0.7432
  109SOL     OW  325   2.065   3.071   3.052  0.5650 -0.3703  0.1584
  109SOL    HW1  326   2.084   3.076   0.028  0.0889  3.7717 -1.2806
  109SOL    HW2  327   2.023   0.039   3.025 -2.0785 -0.7062  0.6113
  110SOL     OW  328   3.042   1.671   2.790  0.1152 -0.2396 -0.0951
  110SOL    HW1  329   2.961   1.612   2.776  0.7031  0.5608 -0.4398
  110SOL    HW2  330   3.012   1.763   2.824  1.1988  0.4757 -3.2728
  111SOL     OW  331   2.618   0.181   2.440  1.0087 -0.6784  0.1750
  111SOL    HW1  332   2.626   0.242   2.523  0.0321  0.3301  0.4724
  111SOL    HW2  333   2.601   0.083   2.467 -0.6302 -0.1376  1.4964
  112SOL     OW  334   2.684   2.846   1.077 -0.0543 -0.0980 -0.1752
  112SOL    HW1  335   2.753   2.771   1.065 -2.9297 -0.8619 -1.6681
  112SOL    HW2  336   2.730   2.939   1.057  1.9115  2.2821  1.2218
  113SOL     OW  337   2.443   2.204   2.132  0.5550  0.4031 -0.3467
  113SOL    HW1  338   2.475   2.112   2.103  0.3553 -2.1873 -0.0606
  113SOL    HW2  339   2.380   2.185   2.211  0.0805  0.5951  0.7241
  114SOL     OW  340   2.660   0.103   0.453 -0.5112  1.0768  0.2815
  114SOL    HW1  341   2.582   0.039   0.473 -2.9192 -0.8371  0.3320
  114SOL    HW2  342   2.746   0.070   0.502  2.3058 -1.0685  1.3553
  115SOL     OW  343   2.718   1.889   0.259  0.1246  0.3633  0.0814
  115SOL    HW1  344   2.748   1.918   0.353 -1.1726 -1.0399  3.8727
  115SOL    HW2  345   2.651   1.813   0.273 -0.4827 -0.0725  1.2532
  116SOL     OW  346   3.075   1.331   2.123 -0.4181  0.2304  0.4085
  116SOL    HW1  347   0.004   1.403   2.068 -1.5251  3.7553  0.6717
  116SOL    HW2  348   3.087   1.355   2.220  0.0324 -0.7688  0.6949
  117SOL     OW  349   2.174   0.078   0.903  0.7682  0.5471 -0.1834
  117SOL    HW1  350   2.125   3.107   0.929 -3.2811 -1.2180  2.7199
  117SOL    HW2  351   2.226   0.117   0.982 -2.2277 -0.4037 -0.3848
  118SOL     OW  352   0.323   2.333   1.679  0.2042 -0.0036 -0.5276
  118SOL    HW1  353   0.227   2.311   1.650 -1.5057  1.4130 -2.5404
  118SOL    HW2  354   0.356   2.251   1.733 -2.7512 -2.6032 -0.3096
  119SOL     OW  355   1.122   2.063   1.418  0.4283 -0.0202 -0.0609
  119SOL    HW1  356   1.127   2.107   1.323 -0.6149 -0.2376 -2.1037
  119SOL    HW2  357   1.048   1.994   1.432 -1.6491  0.7617  1.0440
  120SOL     OW  358   0.309   1.887   1.409 -0.5564  0.0339 -0.3547
  120SOL    HW1  359   0.306   1.891   1.514 -0.5963 -1.2120 -1.3473
  120SOL    HW2  360   0.400   1.850   1.384  2.9009 -3.9312 -0.2365
  121SOL     OW  361   1.905   1.341   1.041  0.1843  0.2415  0.0556
  121SOL    HW1  362   1.848   1.420   1.040 -0.2837 -1.8079  1.3241
  121SOL    HW2  363   1.959   1.330   1.128  0.7023  0.1645 -2.1347
  122SOL     OW  364   2.230   1.969   2.925  0.2933  0.5569 -0.1708
  122SOL    HW1  365   2.135   1.933   2.907 -0.6618  0.3847  0.4425
  122SOL    HW2  366   2.278   1.996   2.837  0.2791  0.3874 -0.8644
  123SOL     OW  367   2.907   2.971   0.472 -0.0968 -0.1815  0.5510
  123SOL    HW1  368   2.808   2.956   0.455 -1.0383 -0.4753  0.4144
  123SOL    HW2  369   2.959   2.884   0.470 -2.4818 -0.5837 -2.1878
  124SOL     OW  370   1.087   1.013   0.197  0.6482 -0.1714  0.2644
  124SOL    HW1  371   1.050   1.101   0.161  1.3391  1.1968 -1.7447
  124SOL    HW2  372   1.074   0.939   0.126  1.1593  2.3997 -0.2666
  125SOL     OW  373   3.074   1.370   2.388 -0.1117 -0.1221  0.3887
  125SOL    HW1  374   3.109   1.462   2.422 -0.9414  1.4366  1.6681
  125SOL    HW2  375   0.013   1.292   2.419 -0.8369 -1.2283 -1.1801
  126SOL     OW  376   3.050   2.738   0.488  0.5534 -0.3176 -0.4142
  126SOL    HW1  377   3.103   2.758   0.403 -1.3463 -1.8619  0.0198
  126SOL    HW2  378   3.105   2.690   0.560 -2.6919  0.8605  0.9602
  127SOL     OW  379   2.929   1.565   0.592 -0.4474  0.0650 -0.0850
  127SOL    HW1  380   2.876   1.493   0.640 -0.8639 -0.6030 -1.3001
  127SOL    HW2  381   2.985   1.537   0.507  1.1314 -3.7110 -2.5016
  128SOL     OW  382   1.083   1.253   0.420 -0.2936 -0.1384 -0.0717
  128SOL    HW1  383   1.037   1.240   0.513  0.7023 -0.9712  0.1965
  128SOL    HW2  384   1.174   1.210   0.420 -1.7942 -0.3403  1.3377
  129SOL     OW  385   2.021   1.988   1.430 -0.4333  0.1529  0.0968
  129SOL    HW1  386   2.073   2.072   1.448 -0.4000  1.5186  0.7083
  129SOL    HW2  387   1.940   2.015   1.368 -3.5596 -0.0573  0.5836
  130SOL     OW  388   2.042   0.974   0.734  0.2240  0.3319  0.0778
  130SOL    HW1  389   1.951   0.933   0.769 -2.7685 -3.9917 -0.3191
  130SOL    HW2  390   2.089   1.025   0.811 -0.4745 -4.0653  1.0460
  131SOL     OW  391   2.981   0.914   2.745  0.2655 -0.3839 -0.2688
  131SOL    HW1  392   2.974   0.907   2.846  0.5189 -0.9943  2.3090
  131SOL    HW2  393   2.925   0.998   2.717 -0.4186  1.1547  1.2250
  132SOL     OW  394   1.687   1.252   2.048  0.5635 -0.3881  0.2938
  132SOL    HW1  395   1.616   1.181   2.058  1.1488  2.4832 -1.0109
  132SOL    HW2  396   1.648   1.339   2.080  1.0373 -1.3639 -1.3654
  133SOL     OW  397   3.016   1.144   3.115  0.6389  0.5464  0.5266
  133SOL    HW1  398   3.058   1.192   3.036  0.0066  1.5235  1.9661
  133SOL    HW2  399   2.990   1.207   0.066  2.2002 -0.8504 -0.7532
  134SOL     OW  400   2.830   0.751   0.779  0.3860 -0.4735  0.2062
  134SOL    HW1  401   2.866   0.795   0.861 -1.4825 -1.9703 -2.3786
  134SOL    HW2  402   2.890   0.774   0.697  1.7708  1.0143 -2.5483
  135SOL     OW  403   1.983   0.920   3.077 -0.0850  0.3661 -0.1588
  135SOL    HW1  404   2.043   0.844   3.052 -3.8134  1.4221  0.5472
  135SOL    HW2  405   2.019   0.986   0.022 -1.0272 -1.3375 -2.4305
  136SOL     OW  406   1.835   2.131   1.715  0.2534 -0.0023  0.2872
  136SOL    HW1  407   1.841   2.027   1.709 -2.3456 -1.5742 -1.9340
  136SOL    HW2  408   1.760   2.159   1.778 -0.2398  2.2117  1.5299
  137SOL     OW  409   2.235   2.616   0.601 -0.0307 -0.5557 -0.1488
  137SOL    HW1  410   2.330   2.620   0.641  1.0209 -1.8379 -3.3015
  137SOL    HW2  411   2.179   2.535   0.635  1.2640 -0.0463 -1.4352
  138SOL     OW  412   2.403   0.391   1.539 -0.0773 -0.6037  0.6356
  138SOL    HW1  413   2.307   0.359   1.557 -0.1221 -0.8031 -0.0148
  138SOL    HW2  414   2.433   0.460   1.611 -0.3024  1.0189  1.2618
  139SOL     OW  415   2.681   0.051   2.794 -0.1028 -0.0431 -0.2181
  139SOL    HW1  416   2.596   0.054   2.854 -2.5115  0.6988  0.6485
  139SOL    HW2  417   2.746   0.123   2.829  1.4228  0.1014 -0.2598
  140SOL     OW  418   1.178   1.484   2.310 -0.5653 -0.0918 -0.1833
  140SOL    HW1  419   1.109   1.522   2.375  1.5669  0.2346 -0.4732
  140SOL    HW2  420   1.264   1.462   2.367  1.4530  1.3762 -0.8606
  141SOL     OW  421   0.778   0.589   2.260  0.4012  0.2838 -0.5481
  141SOL    HW1  422   0.700   0.585   2.196  0.2577  0.7675 -3.1835
  141SOL    HW2  423   0.855   0.642   2.215 -0.4629  1.6008  0.4824
  142SOL     OW  424   2.695   2.449   2.815 -0.2312 -0.2984  0.4763
  142SOL    HW1  425   2.735   2.432   2.906 -0.9749  2.3934 -2.9603
  142SOL    HW2  426   2.708   2.548   2.785 -0.2178  0.8609  0.9477
  143SOL     OW  427   0.804   2.064   0.333 -0.3504 -0.3019  0.2970
  143SOL    HW1  428   0.736   2.141   0.348 -1.3745  0.9138  1.9570
  143SOL    HW2  429   0.887   2.089   0.393  1.4194  3.0452  1.9671
  144SOL     OW  430   1.312   2.509   2.935 -0.3141 -0.2456 -1.0738
  144SOL    HW1  431   1.306   2.434   2.870  0.6175  1.9184  1.7841
  144SOL    HW2  432   1.286   2.478   3.028 -0.7614 -2.3991 -0.5185
  145SOL     OW  433   1.562   1.877   2.646  0.1859 -0.0672  0.0879
  145SOL    HW1  434   1.594   1.959   2.701 -1.1644  2.2343  0.7724
  145SOL    HW2  435   1.636   1.849   2.574 -0.0396  0.3705 -4.3323
  146SOL     OW  436   2.772   2.930   2.900 -0.3671 -0.3472  0.1062
  146SOL    HW1  437   2.805   2.936   2.997  3.2517 -2.9382 -2.4152
  146SOL    HW2  438   2.762   3.021   2.854  2.8461 -0.8507  1.5976
  147SOL     OW  439   3.044   1.460   1.030  0.9692 -0.5114 -0.2461
  147SOL    HW1  440   0.009   1.489   0.985 -0.5909  0.1596  2.1091
  147SOL    HW2  441   2.973   1.536   1.037 -0.1487 -0.4909 -0.3674
  148SOL     OW  442   1.931   2.762   0.187 -0.4064  0.4527 -0.2213
  148SOL    HW1  443   1.925   2.658   0.196 -1.0818 -0.9872 -0.7053
  148SOL    HW2  444   1.942   2.791   0.093  0.0657 -3.0090  5.2997
  149SOL     OW  445   0.492   1.979   2.714  0.2961  0.4722  0.5785
  149SOL    HW1  446   0.578   1.923   2.727  1.9023 -1.7897 -2.7030
  149SOL    HW2  447   0.497   2.064   2.772  0.1734  2.8976 -0.1241
  150SOL     OW  448   0.272   2.561   0.488  0.7954 -0.1900 -0.6923
  150SOL    HW1  449   0.342   2.555   0.419 -0.9687 -1.0711  0.8543
  150SOL    HW2  450   0.182   2.510   0.469 -2.8062 -0.5769 -0.5517
  151SOL     OW  451   0.416   1.118   0.334  0.3011  0.2949 -0.1375
  151SOL    HW1  452   0.357   1.035   0.330  1.6432  0.3518 -2.4941
  151SOL    HW2  453   0.382   1.181   0.404 -2.4816  0.7175  2.0687
  152SOL     OW  454   2.592   2.025   0.552  0.0841  0.1038  0.4408
  152SOL    HW1  455   2.649   1.940   0.570  0.0148 -3.7241 -3.4479
  152SOL    HW2  456   2.535   2.011   0.469 -0.4877 -2.7607  0.4631
  153SOL     OW  457   1.806   2.134   0.574 -0.1250  0.3893  0.4202
  153SOL    HW1  458   1.882   2.170   0.629 -0.1790 -1.0168 -0.1461
  153SOL    HW2  459   1.796   2.187   0.488  1.2463  0.6211 -0.0732
  154SOL     OW  460   0.832   2.448   0.874  0.2046 -0.1643  0.0434
  154SOL    HW1  461   0.829   2.505   0.787 -0.7585  1.7471 -0.6684
  154SOL    HW2  462   0.754   2.478   0.936 -0.3645 -0.7597 -2.4404
  155SOL     OW  463   2.768   1.807   0.893  0.5046 -0.4586  0.2822
  155SOL    HW1  464   2.692   1.780   0.829 -0.3162 -1.4883 -0.5709
  155SOL    HW2  465   2.855   1.806   0.841 -2.5169  0.9227  0.2953
  156SOL     OW  466   2.672   2.263   0.119  0.1244 -0.3971  0.6715
  156SOL    HW1  467   2.592   2.205   0.093 -0.1016 -2.8116  0.2772
  156SOL    HW2  468   2.643   2.324   0.194 -1.8914  2.7395  3.0265
  157SOL     OW  469   0.645   2.048   1.453 -0.2961 -0.1767  0.0322
  157SOL    HW1  470   0.710   2.102   1.396  0.7326  2.3447 -0.4613
  157SOL    HW2  471   0.589   1.974   1.405  0.1901  1.5624  1.8371
  158SOL     OW  472   1.449   0.457   0.400  0.1923 -0.1711  0.0859
  158SOL    HW1  473   1.513   0.479   0.471 -0.9223 -1.0995 -1.6865
  158SOL    HW2  474   1.499   0.431   0.315  1.4202  0.5654  3.0140
  159SOL     OW  475   1.317   0.708   0.313  0.5218  0.3554 -0.1796
  159SOL    HW1  476   1.345   0.627   0.363 -3.5875 -0.0509 -2.3348
  159SOL    HW2  477   1.282   0.678   0.221  1.0176  0.9172 -2.6668
  160SOL     OW  478   0.760   1.357   0.556 -0.2355 -0.1240 -0.3489
  160SOL    HW1  479   0.679   1.354   0.621 -2.3956 -1.4874 -0.1111
  160SOL    HW2  480   0.847   1.346   0.610  1.2649 -3.2786 -0.4192
  161SOL     OW  481   0.085   2.501   2.737  0.1638  0.0616 -0.3412
  161SOL    HW1  482   0.014   2.463   2.801 -2.7878  1.3322 -0.8728
  161SOL    HW2  483   0.174   2.447   2.735  0.9120  0.5303 -0.9649
  162SOL     OW  484   0.229   2.459   0.998 -0.3755  0.0840 -0.2509
  162SOL    HW1  485   0.239   2.466   1.097 -0.9973 -0.9268 -1.3282
  162SOL    HW2  486   0.182   2.538   0.958  1.4459  0.2019  1.7085
  163SOL     OW  487   3.034   0.425   2.786 -0.1863  0.3346 -0.5877
  163SOL    HW1  488   3.025   0.518   2.742 -0.0773 -3.9985 -2.8046
  163SOL    HW2  489   3.093   0.425   2.870  1.5171 -0.7869 -1.0852
  164SOL     OW  490   0.592   3.037   2.909  0.8178 -0.5660 -0.1933
  164SOL    HW1  491   0.493   3.007   2.907  0.0883  3.2633  0.8373
  164SOL    HW2  492   0.642   3.003   2.825  0.3361  1.1613  1.0464
  165SOL     OW  493   2.475   0.609   1.703  0.4387 -0.1615 -0.5964
  165SOL    HW1  494   2.376   0.633   1.723 -1.4293  0.9495 -1.5891
  165SOL    HW2  495   2.530   0.691   1.678 -2.7477  0.0268  0.2476
  166SOL     OW  496   2.007   2.334   1.698 -0.4192 -0.6418 -0.1929
  166SOL    HW1  497   2.033   2.379   1.788 -1.8835  2.4091  1.4349
  166SOL    HW2  498   1.945   2.261   1.710  4.1155  2.7956  1.2401
  167SOL     OW  499   0.561   1.189   2.389  0.6490  0.3622  0.0850
  167SOL    HW1  500   0.547   1.246   2.471  2.5420  1.4949 -0.2631
  167SOL    HW2  501   0.593   1.098   2.414  2.1013 -1.2309 -1.2173
  168SOL     OW  502   2.268   0.081   2.321  0.2186 -0.0448  0.1124
  168SOL    HW1  503   2.220   0.169   2.342 -1.4920 -0.4308 -3.3306
  168SOL    HW2  504   2.359   0.098   2.278 -0.4626  3.0582 -0.1353
  169SOL     OW  505   0.264   0.881   0.240 -0.3208 -0.0145 -0.6615
  169SOL    HW1  506   0.341   0.823   0.210 -2.6571 -1.0449 -1.3619
  169SOL    HW2  507   0.201   0.910   0.160  0.9505  0.3105 -2.9090
  170SOL     OW  508   0.054   1.520   1.968 -0.8112 -0.0937 -0.3796
  170SOL    HW1  509   0.060   1.486   1.875 -2.2104 -0.4288  1.5097
  170SOL    HW2  510   0.077   1.616   1.982 -1.3630 -2.5557 -0.7146
  171SOL     OW  511   1.147   2.335   2.103  0.0550 -0.9366  0.1552
  171SOL    HW1  512   1.089   2.404   2.056 -1.6529  0.7806 -0.1547
  171SOL    HW2  513   1.241   2.368   2.112  1.4208  0.2854 -0.4833
  172SOL     OW  514   1.050   2.668   2.223 -0.2915 -0.2057  0.2347
  172SOL    HW1  515   1.003   2.639   2.136  1.6129 -4.1365  1.9044
  172SOL    HW2  516   1.151   2.672   2.212 -1.6141  5.0046  0.5034
  173SOL     OW  517   1.513   2.398   0.622 -0.5155 -0.2264  0.0104
  173SOL    HW1  518   1.480   2.306   0.640 -0.8500 -2.8932  0.8380
  173SOL    HW2  519   1.438   2.466   0.627  0.4943 -0.5070  0.5258
  174SOL     OW  520   2.342   0.088   0.302 -0.4909 -0.3533  0.3135
  174SOL    HW1  521   2.394   0.055   0.386  0.6211  0.6040  0.1029
  174SOL    HW2  522   2.359   0.189   0.296  1.4529 -0.2527 -1.2735
  175SOL     OW  523   0.914   1.751   0.490 -0.1148 -0.5755  0.6913
  175SOL    HW1  524   0.970   1.793   0.413 -1.2133 -0.5212  1.7948
  175SOL    HW2  525   0.834   1.703   0.447  3.1091 -0.9551 -0.1453
  176SOL     OW  526   0.457   1.637   0.540  0.6694 -0.2462  0.0474
  176SOL    HW1  527   0.511   1.723   0.559  0.0960  1.1978 -1.7995
  176SOL    HW2  528   0.357   1.658   0.528  0.1892  2.1770  1.2930
  177SOL     OW  529   1.247   1.166   1.535  0.6192 -0.3335  0.0252
  177SOL    HW1  530   1.167   1.181   1.595  4.2390  1.2266 -1.3021
  177SOL    HW2  531   1.334   1.147   1.587 -1.3558 -0.4089 -1.4409
  178SOL     OW  532   2.394   1.711   0.556 -0.3766 -0.1655 -0.3004
  178SOL    HW1  533   2.321   1.779   0.558  0.6658 -0.4944  3.8768
  178SOL    HW2  534   2.440   1.697   0.463  1.7699 -0.0911 -4.0131
  179SOL     OW  535   0.959   2.440   2.710  0.0162 -0.0863  0.3410
  179SOL    HW1  536   0.983   2.479   2.616 -1.1027  1.0448 -0.7770
  179SOL    HW2  537   0.947   2.508   2.784  2.5258  1.1074 -2.5460
  180SOL     OW  538   1.973   1.653   2.118  0.1166  0.3144 -0.4404
  180SOL    HW1  539   2.022   1.741   2.093  0.8416 -0.1055 -0.9543
  180SOL    HW2  540   1.980   1.586   2.040  2.4128 -0.7159  1.6633
  181SOL     OW  541   0.666   0.907   2.424 -0.0199  0.1112  0.1607
  181SOL    HW1  542   0.654   0.857   2.338 -1.1317  0.7064  0.4846
  181SOL    HW2  543   0.765   0.906   2.459  1.3720 -2.0651  0.9059
  182SOL     OW  544   2.875   1.008   2.382 -0.4699  0.0257 -0.1271
  182SOL    HW1  545   2.794   1.011   2.442 -1.3072  0.7897 -1.2945
  182SOL    HW2  546   2.964   0.986   2.429  2.9375  0.3625  2.6594
  183SOL     OW  547   1.502   0.758   2.332 -0.0938  0.1947 -0.6909
  183SOL    HW1  548   1.477   0.660   2.318  0.7301 -0.4071  0.8252
  183SOL    HW2  549   1.451   0.808   2.265 -0.2258 -0.0315  2.6501
  184SOL     OW  550   0.377   0.616   1.773  0.6763  1.2643 -0.3726
  184SOL    HW1  551   0.458   0.671   1.788  0.1570 -1.0886 -4.0554
  184SOL    HW2  552   0.366   0.561   1.857  1.2857  1.3857 -1.6123
  185SOL     OW  553   2.012   1.842   0.857 -0.4928 -0.3166  0.1687
  185SOL    HW1  554   2.089   1.893   0.806 -1.0653  0.5119  0.5743
  185SOL    HW2  555   2.041   1.816   0.952  0.1274  1.0590  2.6057
  186SOL     OW  556   0.330   1.999   0.372  0.2950  0.6070 -0.0540
  186SOL    HW1  557   0.377   1.926   0.327 -1.4992  2.7924  4.0387
  186SOL    HW2  558   0.229   1.984   0.387  0.1518 -0.4561 -1.2168
  187SOL     OW  559   1.983   1.996   0.203 -0.2634  0.7602  0.4283
  187SOL    HW1  560   2.087   1.996   0.207  0.2568 -3.3683  1.3825
  187SOL    HW2  561   1.952   2.028   0.110  2.0855 -0.6444 -2.3053
  188SOL     OW  562   0.851   2.163   0.947 -0.4023  0.9849  0.5550
  188SOL    HW1  563   0.947   2.120   0.945  0.0742 -0.0596  1.3181
  188SOL    HW2  564   0.858   2.261   0.948  1.8008 -1.2478 -0.6731
  189SOL     OW  565   2.010   1.372   2.754  0.1773 -0.3731  0.1167
  189SOL    HW1  566   2.008   1.274   2.775  0.6167  0.6152  1.1603
  189SOL    HW2  567   1.924   1.390   2.706 -0.2684 -0.6450 -2.1064
  190SOL     OW  568   1.014   2.167   2.267 -0.0003 -0.0571  0.1289
  190SOL    HW1  569   0.951   2.221   2.329  0.2399 -0.7784 -0.3055
  190SOL    HW2  570   1.073   2.239   2.215 -0.5659 -1.6869 -2.0099
  191SOL     OW  571   2.285   0.632   1.316 -0.2572  0.0982  0.0015
  191SOL    HW1  572   2.221   0.624   1.400  1.5518  1.1982 -1.2057
  191SOL    HW2  573   2.371   0.575   1.320  1.5507  1.2937  0.3566
  192SOL     OW  574   2.602   0.438   1.855  0.0173  0.0856 -0.4854
  192SOL    HW1  575   2.579   0.500   1.774  0.1019  1.8040 -2.1273
  192SOL    HW2  576   2.665   0.494   1.921  3.3458 -1.2947 -2.1284
  193SOL     OW  577   0.893   0.074   0.640 -0.1631  0.2659  0.0222
  193SOL    HW1  578   0.862   0.015   0.564 -2.1865  1.9897  2.4465
  193SOL    HW2  579   0.988   0.058   0.667 -3.9576 -0.7158 -0.6982
  194SOL     OW  580   1.228   2.346   1.739 -0.4313 -0.3380  0.4441
  194SOL    HW1  581   1.242   2.349   1.638 -1.6479  1.9332  0.5769
  194SOL    HW2  582   1.188   2.436   1.769 -1.6119  1.5089  1.0193
  195SOL     OW  583   2.716   1.061   0.840  0.0823  0.4290  0.3961
  195SOL    HW1  584   2.657   1.141   0.847  1.3828 -1.9051  0.0378
  195SOL    HW2  585   2.708   1.026   0.746  0.5931  3.6429  0.7333
  196SOL     OW  586   1.199   2.089   1.851  0.2151  0.2012  0.0146
  196SOL    HW1  587   1.187   2.190   1.846  0.9103  2.1449  0.7935
  196SOL    HW2  588   1.111   2.041   1.876 -2.0330  0.2338  1.0387
  197SOL     OW  589   0.245   0.810   2.469 -0.1677 -0.0060 -0.3969
  197SOL    HW1  590   0.256   0.825   2.371  0.3689 -0.8062  1.1094
  197SOL    HW2  591   0.231   0.709   2.477 -0.1472 -2.7063 -1.4319
  198SOL     OW  592   1.436   0.881   0.122 -0.6595  0.2412  0.4548
  198SOL    HW1  593   1.408   0.828   0.204  0.6175 -1.6924  1.6879
  198SOL    HW2  594   1.399   0.978   0.126 -1.8723 -0.8517 -1.3986
  199SOL     OW  595   2.744   0.565   2.067 -0.1715  0.0294  0.0641
  199SOL    HW1  596   2.742   0.519   2.158  0.8350 -2.2429 -1.7491
  199SOL    HW2  597   2.696   0.657   2.076  3.7625 -1.8549  1.2348
  200SOL     OW  598   2.285   2.402   2.488 -0.3687 -0.4497 -0.1975
  200SOL    HW1  599   2.315   2.499   2.489  0.3196 -0.1909 -1.4606
  200SOL    HW2  600   2.237   2.377   2.401 -1.5823  1.7739  2.9007
  201SOL     OW  601   2.257   3.095   1.360 -0.4627 -0.3016 -0.3252
  201SOL    HW1  602   2.178   0.035   1.387  2.0656  0.6088 -1.3087
  201SOL    HW2  603   2.333   3.087   1.430 -0.2377 -0.2365 -0.1240
  202SOL     OW  604   0.099   2.796   0.289  0.0085  0.5993 -0.2692
  202SOL    HW1  605   0.052   2.870   0.243 -0.7236  0.1279  1.8039
  202SOL    HW2  606   0.197   2.808   0.290 -2.9898 -0.4531 -1.2669
  203SOL     OW  607   1.047   2.108   2.829 -0.1100  0.0916 -0.3014
  203SOL    HW1  608   0.960   2.144   2.794  0.6278 -3.0941 -1.9069
  203SOL    HW2  609   1.069   2.009   2.805  1.1503 -1.5712  0.3040
  204SOL     OW  610   0.559   2.052   2.447  0.4036 -0.0013  0.0890
  204SOL    HW1  611   0.654   2.027   2.432 -0.9568 -0.5788  1.8949
  204SOL    HW2  612   0.523   2.035   2.541  0.2875  1.9668 -0.8896
  205SOL     OW  613   0.937   0.959   1.202  0.7806  0.0148  0.2406
  205SOL    HW1  614   0.898   0.863   1.200  1.9947  0.6373 -0.0421
  205SOL    HW2  615   1.025   0.964   1.254  3.1077 -2.6655 -0.8761
  206SOL     OW  616   0.192   0.671   2.763 -0.0840  0.0034  0.2579
  206SOL    HW1  617   0.100   0.650   2.726 -0.5583  2.1090 -1.2358
  206SOL    HW2  618   0.244   0.708   2.684 -0.9075 -1.0577 -1.2582
  207SOL     OW  619   1.839   2.194   2.070 -0.4000 -0.6309 -0.1610
  207SOL    HW1  620   1.913   2.168   2.002  1.5271  1.5641 -0.7910
  207SOL    HW2  621   1.749   2.198   2.021  0.9650  0.3692 -0.3907
  208SOL     OW  622   0.997   2.638   1.342 -0.0042 -0.0138  0.1325
  208SOL    HW1  623   0.895   2.643   1.321  0.3797  0.6010 -0.0292
  208SOL    HW2  624   1.048   2.714   1.294 -1.0640  0.1697  1.0380
  209SOL     OW  625   1.246   1.379   0.010  0.1031  0.0765 -0.4929
  209SOL    HW1  626   1.248   1.398   0.110 -1.0229 -0.1861  1.6377
  209SOL    HW2  627   1.310   1.433   3.073 -1.9004 -0.4987  1.9030
  210SOL     OW  628   2.331   0.526   0.892 -0.5469 -0.0654  0.2184
  210SOL    HW1  629   2.424   0.550   0.929  0.3783 -3.4165 -1.1228
  210SOL    HW2  630   2.294   0.595   0.836  1.4203 -4.4336  2.4355
  211SOL     OW  631   1.405   2.502   0.248 -0.1660 -0.8605 -0.5149
  211SOL    HW1  632   1.325   2.562   0.271  1.3091  0.0058 -0.4218
  211SOL    HW2  633   1.479   2.512   0.320  1.0218  2.2759  2.7352
  212SOL     OW  634   2.004   2.194   0.778 -0.0974  0.3688 -0.1653
  212SOL    HW1  635   2.087   2.247   0.791 -2.1641 -1.8467 -0.0391
  212SOL    HW2  636   1.966   2.172   0.870 -0.7403 -0.8676  1.3695
  213SOL     OW  637   1.701   0.649   2.899  0.0460  0.7218  0.4121
  213SOL    HW1  638   1.616   0.630   2.958 -2.8213 -1.3945  1.1398
  213SOL    HW2  639   1.732   0.748   2.904  0.2207 -0.4631 -0.4178
  214SOL     OW  640   0.782   1.776   1.871 -0.7642  0.0761  0.1747
  214SOL    HW1  641   0.882   1.780   1.897 -0.3111  3.1957 -1.2553
  214SOL    HW2  642   0.770   1.851   1.800  0.3407 -1.7472 -1.5194
  215SOL     OW  643   0.024   1.435   0.382 -0.0715 -0.3595  0.5643
  215SOL    HW1  644   0.117   1.435   0.339 -1.7046  0.9318  0.4635
  215SOL    HW2  645   0.042   1.428   0.482  1.6238  0.3491 -0.2393
  216SOL     OW  646   0.206   2.883   2.483 -0.1480  0.0714 -0.2866
  216SOL    HW1  647   0.307   2.878   2.461  2.0953 -0.6958 -0.3501
  216SOL    HW2  648   0.172   2.851   2.576 -3.4520 -2.6241  3.3543
  217SOL     OW  649   2.599   1.136   1.374 -0.0758 -0.1800  0.1899
  217SOL    HW1  650   2.555   1.139   1.462 -2.1431 -1.4695 -2.6167
  217SOL    HW2  651   2.697   1.167   1.376 -1.3839  0.0666 -0.3904
  218SOL     OW  652   1.275   1.763   2.216 -0.1911 -0.1697 -0.4358
  218SOL    HW1  653   1.319   1.760   2.126 -1.3640  0.4584  0.4386
  218SOL    HW2  654   1.253   1.674   2.250  1.3113  2.1849  1.3081
  219SOL     OW  655   2.138   1.456   0.296 -0.1470 -0.6526 -0.1328
  219SOL    HW1  656   2.224   1.406   0.264 -1.9950  1.0439 -0.9435
  219SOL    HW2  657   2.070   1.384   0.322 -2.6761 -3.6532  1.1685
  220SOL     OW  658   2.122   1.009   0.246 -0.0178  0.2658 -0.3452
  220SOL    HW1  659   2.224   1.011   0.232 -0.5629 -0.9554 -0.3337
  220SOL    HW2  660   2.100   0.937   0.320  2.4917  2.0040  1.6683
  221SOL     OW  661   0.091   0.231   0.064 -0.1762 -0.2018  0.2515
  221SOL    HW1  662   0.184   0.191   0.081  0.3930 -0.0995 -1.0680
  221SOL    HW2  663   0.029   0.161   0.027  1.7055  0.1545 -1.0609
  222SOL     OW  664   1.360   1.495   0.664 -0.5390  0.2127  0.1730
  222SOL    HW1  665   1.430   1.569   0.657  0.1003  0.9675 -0.1193
  222SOL    HW2  666   1.272   1.531   0.632  2.9419 -1.0233 -1.7110
  223SOL     OW  667   0.801   0.209   0.048 -0.1452  0.7243 -0.2530
  223SOL    HW1  668   0.747   0.140   0.102  1.8504  0.6144 -0.0880
  223SOL    HW2  669   0.779   0.193   3.074 -0.6569 -3.4504  0.3370
  224SOL     OW  670   1.720   0.086   1.353  0.0631 -0.3758  0.1280
  224SOL    HW1  671   1.639   0.033   1.389 -0.5470  0.0784 -0.4787
  224SOL    HW2  672   1.768   0.034   1.277 -1.2668  0.0782 -0.3321
  225SOL     OW  673   0.529   2.477   1.378  0.1998 -0.4827 -0.1531
  225SOL    HW1  674   0.503   2.396   1.321 -0.8630 -2.1174 -1.6161
  225SOL    HW2  675   0.450   2.515   1.424  1.5834 -0.9801 -2.1332
  226SOL     OW  676   0.933   1.626   0.062 -0.1153 -0.2078  0.2251
  226SOL    HW1  677   0.965   1.550   0.121 -1.6648 -2.8022  0.6524
  226SOL    HW2  678   1.011   1.689   0.038 -0.1419 -1.5494 -0.3358
  227SOL     OW  679   0.962   1.613   0.902  0.1048 -0.2010 -0.2592
  227SOL    HW1  680   0.886   1.677   0.869  1.6925 -2.8133 -2.7829
  227SOL    HW2  681   0.919   1.543   0.965 -0.2463 -2.5430  1.2770
  228SOL     OW  682   0.200   1.681   0.491  0.2568 -0.6094 -0.9637
  228SOL    HW1  683   0.177   1.760   0.432  1.6633 -0.9911 -0.5915
  228SOL    HW2  684   0.203   1.595   0.434  0.0203 -2.9781  2.0943
  229SOL     OW  685   2.376   0.468   2.769 -0.2791  0.5072  0.1020
  229SOL    HW1  686   2.291   0.416   2.739  0.0196  1.0136  0.2509
  229SOL    HW2  687   2.400   0.455   2.867 -2.6123 -3.4856  2.9751
  230SOL     OW  688   1.797   1.206   0.519 -0.0425 -0.0191 -0.0677
  230SOL    HW1  689   1.762   1.294   0.560 -2.1028  1.1003 -3.1104
  230SOL    HW2  690   1.773   1.131   0.579  1.5454  0.6462  1.2931
  231SOL     OW  691   1.378   1.429   2.485 -0.0216  0.0196 -0.2024
  231SOL    HW1  692   1.452   1.493   2.480 -0.1540 -4.4253  0.7133
  231SOL    HW2  693   1.406   1.339   2.517 -0.3493 -0.1849  0.1330
  232SOL     OW  694   2.453   2.254   0.665  0.1849 -0.0587  0.1322
  232SOL    HW1  695   2.517   2.301   0.728  1.9121 -3.6808  0.4587
  232SOL    HW2  696   2.488   2.160   0.645 -0.8257 -1.1819  1.9223
  233SOL     OW  697   0.375   2.352   0.664  0.3495 -0.5239 -0.0184
  233SOL    HW1  698   0.465   2.389   0.636  0.0034  0.8792 -0.1622
  233SOL    HW2  699   0.303   2.386   0.606  0.7035 -0.4166  1.1026
  234SOL     OW  700   0.576   0.591   2.738 -0.2640  0.1132  0.2770
  234SOL    HW1  701   0.521   0.652   2.680  0.5025 -0.4824  0.8653
  234SOL    HW2  702   0.634   0.643   2.809  1.6212  1.5220  2.7503
  235SOL     OW  703   2.726   0.415   2.321  0.5816 -0.2934  0.3883
  235SOL    HW1  704   2.692   0.318   2.328  0.3238 -0.6554 -0.0485
  235SOL    HW2  705   2.825   0.418   2.343  1.3035  0.8263  2.4149
  236SOL     OW  706   1.738   2.675   1.386 -0.0625 -0.2571 -0.0537
  236SOL    HW1  707   1.801   2.696   1.309  0.2768  1.2748 -2.2485
  236SOL    HW2  708   1.699   2.582   1.383 -0.6365  2.2281  0.0902
  237SOL     OW  709   0.943   1.833   2.240 -0.1519  0.0754 -0.0359
  237SOL    HW1  710   0.924   1.934   2.244 -0.7435 -0.7232  0.4408
  237SOL    HW2  711   0.945   1.801   2.334 -1.3136 -0.8889 -0.2626
  238SOL     OW  712   1.111   0.371   2.287  0.2159  0.1999  0.2715
  238SOL    HW1  713   1.160   0.415   2.368 -0.3329  0.8843  2.3000
  238SOL    HW2  714   1.181   0.332   2.227  0.4588  1.1813 -1.6071
  239SOL     OW  715   0.452   2.344   2.151 -0.2605 -0.6570  0.5050
  239SOL    HW1  716   0.543   2.362   2.194  2.7898 -1.0934  3.2985
  239SOL    HW2  717   0.442   2.379   2.052  0.1227  1.0445  0.1213
  240SOL     OW  718   2.401   2.796   0.445 -0.1204 -0.0410 -0.1763
  240SOL    HW1  719   2.383   2.728   0.517 -2.5365 -0.8035  1.1947
  240SOL    HW2  720   2.348   2.769   0.363 -0.7516 -1.4988  0.7986
  241SOL     OW  721   2.521   1.260   0.821  0.1069  0.4779  0.0390
  241SOL    HW1  722   2.448   1.306   0.876  1.4669  0.1052  3.0270
  241SOL    HW2  723   2.473   1.209   0.746  0.8024  1.1068  1.3969
  242SOL     OW  724   2.075   2.499   1.909 -0.0854 -0.8037 -0.4148
  242SOL    HW1  725   2.168   2.480   1.951  2.0024  0.6203  0.3309
  242SOL    HW2  726   2.032   2.577   1.959  2.2582  1.0986  1.7883
  243SOL     OW  727   1.003   2.608   1.612 -0.4820  0.3942  0.7708
  243SOL    HW1  728   1.016   2.591   1.512  3.2917  1.4608  4.0573
  243SOL    HW2  729   0.954   2.695   1.638 -0.8318  1.6734  2.7371
  244SOL     OW  730   2.101   0.636   2.894  0.0932  0.4239 -0.1136
  244SOL    HW1  731   2.027   0.633   2.824 -1.9135 -0.3874  1.2838
  244SOL    HW2  732   2.174   0.701   2.858 -0.9472  2.2922  1.6201
  245SOL     OW  733   1.551   0.496   1.257  0.5223  0.5976  1.0264
  245SOL    HW1  734   1.570   0.580   1.200 -0.3895  0.7685 -0.3974
  245SOL    HW2  735   1.475   0.439   1.212 -1.3784 -0.5814  0.6862
  246SOL     OW  736   1.694   2.421   3.021 -0.3411 -0.1259  0.2851
  246SOL    HW1  737   1.761   2.399   2.944  1.0145 -0.1365 -1.7074
  246SOL    HW2  738   1.610   2.463   2.980 -0.7605 -0.5908  0.0901
  247SOL     OW  739   0.946   0.837   2.502 -0.0932  0.2524  0.0812
  247SOL    HW1  740   0.948   0.741   2.548  1.9430 -4.2362  0.5353
  247SOL    HW2  741   1.001   0.904   2.550 -0.6808 -2.2322 -1.9799
  248SOL     OW  742   0.437   2.103   1.838 -0.4112 -0.3265 -0.4094
  248SOL    HW1  743   0.408   2.021   1.888  1.7051 -1.2123 -0.9491
  248SOL    HW2  744   0.534   2.120   1.868  1.1520 -0.8770 -2.2296
  249SOL     OW  745   2.565   0.398   0.463 -0.5196  0.2584 -0.6662
  249SOL    HW1  746   2.496   0.385   0.391  0.0359  1.9437  0.4976
  249SOL    HW2  747   2.614   0.310   0.480 -0.0689  0.2722 -1.4625
  250SOL     OW  748   2.800   0.293   2.852  0.4724  0.2985  0.7228
  250SOL    HW1  749   2.758   0.340   2.931  3.1168 -0.7198 -1.3977
  250SOL    HW2  750   2.893   0.335   2.833 -3.2213  0.2586  0.2858
  251SOL     OW  751   1.403   0.876   2.961  0.4865  0.2105 -0.7708
  251SOL    HW1  752   1.405   0.773   2.959 -0.3687 -1.3305  0.8651
  251SOL    HW2  753   1.419   0.902   3.059 -0.0280 -0.0016  2.8419
  252SOL     OW  754   1.409   2.014   2.023  0.2209 -0.0757 -0.1907
  252SOL    HW1  755   1.335   2.052   1.963  3.0171 -1.9362  0.7450
  252SOL    HW2  756   1.417   2.060   2.116  2.1245 -2.3153  1.1927
  253SOL     OW  757   2.287   2.570   0.936  0.3245 -0.5252 -0.2943
  253SOL    HW1  758   2.313   2.671   0.918  1.2367 -1.0332 -0.1475
  253SOL    HW2  759   2.303   2.551   1.036  3.9634  2.1206 -0.2700
  254SOL     OW  760   2.241   1.199   0.568  0.1242  0.0025  0.7449
  254SOL    HW1  761   2.158   1.208   0.513  0.1875  1.5429  2.1307
  254SOL    HW2  762   2.258   1.110   0.618 -0.0383  0.5158 -0.4959
  255SOL     OW  763   1.367   0.071   1.325 -0.3774 -0.1250  0.3498
  255SOL    HW1  764   1.318   0.017   1.258  0.4290 -0.5991 -2.5254
  255SOL    HW2  765   1.378   0.022   1.411 -0.3812 -0.2049 -3.3436
  256SOL     OW  766   1.684   2.490   1.676  0.3214  0.1801  0.1374
  256SOL    HW1  767   1.732   2.427   1.613 -1.0365  0.9158 -2.3829
  256SOL    HW2  768   1.589   2.515   1.648  1.9699  0.0436  1.8196
  257SOL     OW  769   0.703   2.959   2.658  0.9173 -0.2958  0.2325
  257SOL    HW1  770   0.741   3.045   2.611 -1.8244  0.1496  0.0154
  257SOL    HW2  771   0.766   2.878   2.659  1.5874 -1.7390  0.5785
  258SOL     OW  772   1.046   2.472   0.441  0.2037 -0.1136  0.2816
  258SOL    HW1  773   0.999   2.457   0.352  1.6213 -2.9895  2.0904
  258SOL    HW2  774   1.111   2.396   0.461 -1.9832 -1.3497  0.6756
  259SOL     OW  775   1.539   0.202   2.843  0.0925  0.1013  0.0486
  259SOL    HW1  776   1.572   0.196   2.941 -0.8926 -0.0800  1.9658
  259SOL    HW2  777   1.592   0.278   2.796  0.4613 -0.7220  1.0574
  260SOL     OW  778   2.559   0.502   1.348 -0.2381  0.6213  0.0947
  260SOL    HW1  779   2.662   0.478   1.366  1.2461  0.1866 -0.3186
  260SOL    HW2  780   2.504   0.454   1.415  0.1566  1.8205 -1.0568
  261SOL     OW  781   0.797   0.586   2.558 -0.3373  0.2670 -0.1862
  261SOL    HW1  782   0.705   0.580   2.598  1.4177  0.8505  0.8758
  261SOL    HW2  783   0.791   0.594   2.456 -2.1734  0.4272 -0.2443
  262SOL     OW  784   1.028   2.474   2.440 -0.2307 -0.0173  0.3038
  262SOL    HW1  785   0.943   2.416   2.430 -1.1868 -1.8095 -0.9235
  262SOL    HW2  786   1.033   2.539   2.361 -0.9541 -1.7035  1.3010
  263SOL     OW  787   0.158   1.924   2.966 -0.3592 -0.0325  0.4464
  263SOL    HW1  788   0.223   1.897   2.890 -4.5574 -0.9884 -0.9561
  263SOL    HW2  789   0.125   2.021   2.948  2.3042  2.6078  0.4350
  264SOL     OW  790   1.129   1.606   0.621  0.3863 -0.1327  0.2601
  264SOL    HW1  791   1.137   1.634   0.720 -0.5377  1.8354  0.9987
  264SOL    HW2  792   1.056   1.662   0.576  1.4017 -2.1951 -0.7572
  265SOL     OW  793   1.238   2.278   0.498 -0.2656 -0.2044 -0.5300
  265SOL    HW1  794   1.293   2.241   0.418  0.7379 -1.3206  0.8819
  265SOL    HW2  795   1.276   2.235   0.587 -1.1948 -1.3502  0.7255
  266SOL     OW  796   1.974   0.808   1.025  0.1596 -0.1508  0.3622
  266SOL    HW1  797   1.979   0.723   0.964  0.1615 -2.3227 -0.4496
  266SOL    HW2  798   2.057   0.832   1.079  0.4163 -0.3052 -0.3697
  267SOL     OW  799   2.856   1.144   2.690  0.1959  0.1005 -0.3059
  267SOL    HW1  800   2.866   1.208   2.614 -1.3872 -0.4583  0.1959
  267SOL    HW2  801   2.758   1.111   2.714 -0.8012 -2.1089  0.8789
  268SOL     OW  802   1.449   0.051   0.111  0.2459  0.3093 -0.3692
  268SOL    HW1  803   1.448   0.035   0.213 -0.2029 -3.6135  2.6594
  268SOL    HW2  804   1.367   0.096   0.072  1.9133 -0.2955  1.0779
  269SOL     OW  805   2.750   0.624   2.553  0.5627  0.3622  0.4503
  269SOL    HW1  806   2.722   0.528   2.570  1.6721  1.1777 -0.1523
  269SOL    HW2  807   2.819   0.626   2.475  0.6543  2.2659  1.1308
  270SOL     OW  808   2.942   1.577   0.093 -0.3691 -0.1326 -0.4120
  270SOL    HW1  809   2.987   1.516   0.160 -2.4380  1.0182 -2.6673
  270SOL    HW2  810   3.010   1.646   0.059 -1.8048  0.0490 -0.1090
  271SOL     OW  811   2.588   1.046   2.735 -0.3258  0.0384 -0.3199
  271SOL    HW1  812   2.553   1.145   2.740  0.2035 -1.5836  0.0373
  271SOL    HW2  813   2.558   0.992   2.816 -0.6430 -0.1369  0.8119
  272SOL     OW  814   2.950   2.453   2.479  0.2723 -0.0234 -0.0075
  272SOL    HW1  815   3.023   2.386   2.498 -1.7924  2.0676 -2.7754
  272SOL    HW2  816   2.863   2.414   2.439 -0.5526 -1.1844 -2.2195
  273SOL     OW  817   0.274   2.751   0.685  0.5152 -0.4439  0.3148
  273SOL    HW1  818   0.368   2.781   0.714 -1.4614  0.8579  0.4163
  273SOL    HW2  819   0.281   2.688   0.609  1.3034 -0.3001  0.0073
  274SOL     OW  820   0.751   2.170   0.671  0.0853 -0.4440  0.2650
  274SOL    HW1  821   0.828   2.171   0.602  1.2434  2.0155 -1.2013
  274SOL    HW2  822   0.774   2.166   0.771 -1.0427 -0.0551  2.1451
  275SOL     OW  823   2.449   1.352   0.438  0.0491 -0.8183 -0.0455
  275SOL    HW1  824   2.368   1.301   0.477  2.5881  0.5771  2.2952
  275SOL    HW2  825   2.436   1.370   0.341  0.8697 -0.2063  0.0509
  276SOL     OW  826   2.614   1.800   1.363 -1.1760  0.0292 -0.3878
  276SOL    HW1  827   2.631   1.722   1.432 -0.0432 -0.6443 -0.8072
  276SOL    HW2  828   2.530   1.777   1.312  1.5375  2.9271  0.5827
  277SOL     OW  829   2.803   0.053   0.693 -0.2771  0.3146  0.3129
  277SOL    HW1  830   2.715   0.049   0.744  0.1129 -1.7654  1.4752
  277SOL    HW2  831   2.862   3.093   0.712 -2.2706  2.2638 -0.6757
  278SOL     OW  832   1.508   0.182   2.361 -0.2595 -0.0886 -0.1119
  278SOL    HW1  833   1.442   0.173   2.438 -0.3910 -0.6034 -0.1284
  278SOL    HW2  834   1.607   0.163   2.386  1.9384 -1.2128 -1.0540
  279SOL     OW  835   1.474   2.714   0.992 -0.2039 -0.4183 -0.3353
  279SOL    HW1  836   1.564   2.762   1.025  2.7746  0.4583  1.9180
  279SOL    HW2  837   1.432   2.780   0.927  0.1414 -0.5616  0.9991
  280SOL     OW  838   0.790   0.874   0.648 -0.0062 -0.2797 -0.0414
  280SOL    HW1  839   0.814   0.945   0.716  2.5324  4.5296  0.8533
  280SOL    HW2  840   0.832   0.910   0.561 -2.2123 -1.1437  0.4609
  281SOL     OW  841   2.514   1.309   2.717  0.4118  0.0786 -0.0458
  281SOL    HW1  842   2.526   1.402   2.763 -0.3879  1.0492  0.1839
  281SOL    HW2  843   2.473   1.324   2.627  0.0451  0.8720 -0.8457
  282SOL     OW  844   2.970   1.306   0.205 -0.4236  0.1644 -0.0554
  282SOL    HW1  845   2.888   1.284   0.262  0.7558  0.5460  1.1095
  282SOL    HW2  846   3.039   1.358   0.259 -0.6815 -0.8543  0.4236
  283SOL     OW  847   1.859   2.696   2.648  0.0827 -0.4863  0.5582
  283SOL    HW1  848   1.862   2.724   2.549  1.3874  1.3214 -0.5138
  283SOL    HW2  849   1.805   2.614   2.661 -1.1205  1.9926 -1.5128
  284SOL     OW  850   1.020   3.044   0.035  0.7061 -0.2784  0.3560
  284SOL    HW1  851   1.070   2.965   0.074 -2.5890  0.1463  1.3467
  284SOL    HW2  852   1.006   3.119   0.102 -0.1230 -0.4988 -2.1450
  285SOL     OW  853   2.390   1.561   2.466  0.2016  0.1435  0.0613
  285SOL    HW1  854   2.315   1.492   2.464 -0.6829  1.0205 -1.3834
  285SOL    HW2  855   2.393   1.611   2.558  1.1221  0.1645  0.9444
  286SOL     OW  856   1.393   2.155   0.678 -0.0259 -0.3881 -0.8599
  286SOL    HW1  857   1.348   2.068   0.643 -0.8729 -0.6392  0.5619
  286SOL    HW2  858   1.442   2.130   0.763 -2.3738 -1.1972  3.0553
  287SOL     OW  859   1.717   0.320   0.990  0.2482  0.1719  0.2034
  287SOL    HW1  860   1.807   0.356   1.022 -1.4473 -3.7020 -0.7140
  287SOL    HW2  861   1.724   0.248   0.918 -1.5782 -2.8866 -1.0912
  288SOL     OW  862   0.850   3.017   2.337  0.6358 -0.3148  0.4207
  288SOL    HW1  863   0.937   2.972   2.360  0.6774  0.6192 -0.3307
  288SOL    HW2  864   0.819   2.980   2.248  0.7585  0.8610 -0.0282
  289SOL     OW  865   0.112   1.386   0.637  0.1561 -0.1206  0.0466
  289SOL    HW1  866   0.097   1.440   0.724  0.8899 -0.4261  1.4621
  289SOL    HW2  867   0.063   1.301   0.632 -0.0937  0.6561  0.1747
  290SOL     OW  868   1.128   2.061   0.919 -0.5764  0.0278 -0.6365
  290SOL    HW1  869   1.176   2.035   0.834  1.8827 -1.8249 -0.3222
  290SOL    HW2  870   1.126   1.978   0.974  2.1282  0.2000 -0.4586
  291SOL     OW  871   1.439   2.777   0.347 -0.3297 -0.6835  0.6298
  291SOL    HW1  872   1.521   2.714   0.358  2.4603  0.2397 -3.0157
  291SOL    HW2  873   1.353   2.734   0.375  0.7081  1.3705 -0.9774
  292SOL     OW  874   0.610   0.227   2.261  0.0988 -0.1321  0.3899
  292SOL    HW1  875   0.689   0.285   2.295  1.4827 -2.8386 -0.2346
  292SOL    HW2  876   0.540   0.219   2.340 -0.6948  0.8895 -0.4802
  293SOL     OW  877   2.436   1.954   0.918  0.0617 -0.6150  0.1557
  293SOL    HW1  878   2.411   1.880   0.976  1.1416  0.8442 -2.0025
  293SOL    HW2  879   2.450   2.042   0.967  0.9828  0.4463 -1.0323
  294SOL     OW  880   0.772   0.225   2.027 -0.0506  0.3116 -0.4624
  294SOL    HW1  881   0.863   0.184   2.042 -1.6702  2.2861  0.0728
  294SOL    HW2  882   0.712   0.210   2.110  0.0147 -1.3585  2.8548
  295SOL     OW  883   1.296   1.398   0.978 -0.1836 -0.2459 -0.6647
  295SOL    HW1  884   1.363   1.347   1.033 -0.0907  0.6404 -1.3273
  295SOL    HW2  885   1.208   1.352   0.965 -2.1565  3.6549 -1.4907
  296SOL     OW  886   2.181   1.980   0.722  0.7807 -1.0710  0.1285
  296SOL    HW1  887   2.279   1.968   0.757  0.4964 -0.2926  2.6356
  296SOL    HW2  888   2.147   2.069   0.752  0.5252 -2.0417 -2.1538
  297SOL     OW  889   2.467   0.108   2.962  0.3405 -0.0717 -0.8108
  297SOL    HW1  890   2.408   0.027   2.947  0.2429 -0.0363  0.2271
  297SOL    HW2  891   2.514   0.104   3.050 -0.9117 -1.8780 -1.2573
  298SOL     OW  892   1.272   0.446   2.494 -0.5873  0.0398 -0.1606
  298SOL    HW1  893   1.181   0.434   2.539 -0.3061  1.4986 -0.7111
  298SOL    HW2  894   1.326   0.359   2.505 -2.6642  2.5134  0.4593
  299SOL     OW  895   1.199   2.913   1.883  0.1835  0.2044 -0.7680
  299SOL    HW1  896   1.191   2.952   1.790 -0.3257 -1.4624 -1.3374
  299SOL    HW2  897   1.203   2.992   1.946  0.6515  1.9577 -1.8212
  300SOL     OW  898   2.706   3.004   2.054 -0.3405 -0.2993 -0.7083
  300SOL    HW1  899   2.705   2.988   2.159  1.0162 -1.9104  0.0852
  300SOL    HW2  900   2.764   3.082   2.015  0.6779  0.3551 -3.1713
  301SOL     OW  901   2.136   0.487   1.883  0.1013 -0.2238 -0.7819
  301SOL    HW1  902   2.207   0.455   1.950 -1.6364  1.2209 -0.3038
  301SOL    HW2  903   2.134   0.423   1.807 -1.1921 -0.9487  0.1367
  302SOL     OW  904   0.277   2.522   3.070 -0.7706  0.1931  0.1064
  302SOL    HW1  905   0.225   2.433   3.047  0.1073 -5.9259 -1.1462
  302SOL    HW2  906   0.246   2.539   0.043  1.1444 -0.7409  0.1821
  303SOL     OW  907   1.739   2.258   1.495  0.3559  0.0335  0.1455
  303SOL    HW1  908   1.663   2.203   1.452 -1.4129  2.1141 -1.6275
  303SOL    HW2  909   1.778   2.212   1.574 -0.8283  0.1426 -2.2755
  304SOL     OW  910   2.980   0.947   1.474 -0.5701 -0.4834  0.0067
  304SOL    HW1  911   2.905   0.876   1.476 -0.5063 -2.1267 -1.2089
  304SOL    HW2  912   2.950   1.033   1.426 -1.1815 -0.0902  0.3823
  305SOL     OW  913   0.554   0.915   0.810 -0.1509 -0.2339  0.4440
  305SOL    HW1  914   0.596   0.854   0.876 -0.2485  1.2542 -1.3306
  305SOL    HW2  915   0.611   0.917   0.725  0.3283 -0.2469  0.4772
  306SOL     OW  916   0.303   1.129   2.900  0.0083  0.8108 -0.7349
  306SOL    HW1  917   0.388   1.075   2.887 -0.7817  0.1492  2.4215
  306SOL    HW2  918   0.241   1.078   2.962 -1.4445  0.0554 -0.7186
  307SOL     OW  919   1.217   0.278   1.543  0.7805 -0.0669  0.2952
  307SOL    HW1  920   1.317   0.268   1.531 -0.5670  0.2791  0.4282
  307SOL    HW2  921   1.195   0.293   1.640 -1.1243  1.4725  0.8991
  308SOL     OW  922   0.449   0.810   1.160 -0.7303 -0.0146  0.0946
  308SOL    HW1  923   0.358   0.825   1.119 -0.6495 -1.4551 -0.9434
  308SOL    HW2  924   0.445   0.725   1.220 -1.4872 -1.0554  3.0937
  309SOL     OW  925   2.440   0.890   0.983 -0.1076  0.5905  0.4063
  309SOL    HW1  926   2.493   0.836   0.915 -0.4874  1.8866 -2.1012
  309SOL    HW2  927   2.395   0.966   0.922 -1.7034  0.1525 -2.9735
  310SOL     OW  928   0.774   1.580   2.953  0.1514 -0.2010  0.3075
  310SOL    HW1  929   0.831   1.607   3.034 -1.1361 -0.1027 -1.8449
  310SOL    HW2  930   0.681   1.548   2.980  0.7285  1.6026 -2.9797
  311SOL     OW  931   2.395   2.652   2.471 -0.0779 -0.0545  0.2644
  311SOL    HW1  932   2.467   2.680   2.404  0.3737  1.7105 -0.8923
  311SOL    HW2  933   2.418   2.685   2.566 -1.0431  0.6031 -1.3336
  312SOL     OW  934   1.935   2.142   3.060  0.3135 -0.5420 -0.1944
  312SOL    HW1  935   1.985   2.127   2.972 -2.6694 -1.2312 -2.7621
  312SOL    HW2  936   1.916   2.240   3.067  0.9231 -0.3129 -0.5506
  313SOL     OW  937   0.654   0.034   0.197  0.2775  0.0790 -0.1174
  313SOL    HW1  938   0.671   3.092   0.123  1.7114  1.1087  1.0158
  313SOL    HW2  939   0.559   0.056   0.220  1.6686  3.0627 -1.7314
  314SOL     OW  940   2.255   1.214   2.834  0.3804 -0.4196 -0.1712
  314SOL    HW1  941   2.179   1.169   2.779 -3.1672 -2.4554 -1.3666
  314SOL    HW2  942   2.324   1.262   2.781  0.3253 -0.5951  0.1213
  315SOL     OW  943   1.710   0.363   2.624 -0.3396 -0.1348 -0.2806
  315SOL    HW1  944   1.667   0.361   2.532  0.0508  0.2771 -1.5278
  315SOL    HW2  945   1.728   0.457   2.658 -1.6302  0.4842 -0.2745
  316SOL     OW  946   3.106   1.142   0.624  0.3577 -0.0521 -0.1542
  316SOL    HW1  947   3.056   1.172   0.711  0.1989  0.8368  1.0944
  316SOL    HW2  948   3.059   1.069   0.569  3.6042 -1.0604  2.3373
  317SOL     OW  949   0.709   2.693   3.071  0.4796 -0.2675  0.1973
  317SOL    HW1  950   0.622   2.661   3.022 -0.2452  0.3364  0.7479
  317SOL    HW2  951   0.709   2.795   3.089  1.5279 -1.1607 -1.3265
  318SOL     OW  952   2.443   2.820   0.940  0.4290 -0.4945  0.3742
  318SOL    HW1  953   2.386   2.898   0.966  1.1876  1.6183 -0.8714
  318SOL    HW2  954   2.529   2.831   0.995  0.1366  1.2284  2.7754
  319SOL     OW  955   1.205   1.423   2.747 -0.8419 -0.6372 -0.0865
  319SOL    HW1  956   1.105   1.402   2.761  0.9331 -0.2754 -0.5541
  319SOL    HW2  957   1.224   1.453   2.648  0.8414 -1.4715  1.6811
  320SOL     OW  958   0.520   1.850   1.007 -0.3436 -0.1143 -0.4886
  320SOL    HW1  959   0.422   1.837   1.010  1.2944 -0.2109  1.7003
  320SOL    HW2  960   0.545   1.948   0.991  0.2123 -0.7050  0.6387
  321SOL     OW  961   1.317   2.697   2.159 -0.1949  0.1709  0.1346
  321SOL    HW1  962   1.383   2.652   2.223  0.1841  0.1716 -0.3935
  321SOL    HW2  963   1.329   2.799   2.158  1.0775  2.9937  0.7741
  322SOL     OW  964   2.317   2.089   2.341 -0.5550 -0.4031 -0.5336
  322SOL    HW1  965   2.241   2.031   2.377  1.0231  0.1982  0.8300
  322SOL    HW2  966   2.364   2.131   2.427 -2.6131  2.2623  0.2028
  323SOL     OW  967   2.927   0.281   0.797 -0.2534  0.2383  0.6776
  323SOL    HW1  968   2.879   0.190   0.783  1.1906  1.4142 -0.6146
  323SOL    HW2  969   2.853   0.351   0.772 -1.7039  0.0499 -1.6528
  324SOL     OW  970   2.935   2.716   2.562  0.0801 -0.4422 -0.1642
  324SOL    HW1  971   3.022   2.753   2.594 -0.9099 -0.9296  2.3635
  324SOL    HW2  972   2.946   2.614   2.537 -0.6805 -3.0122  0.6421
  325SOL     OW  973   1.091   0.660   2.726  0.3268  0.1545  0.6010
  325SOL    HW1  974   1.188   0.677   2.735 -2.9466 -0.4359 -0.0667
  325SOL    HW2  975   1.069   0.563   2.705  0.3667 -1.1474 -0.4287
  326SOL     OW  976   2.392   2.283   1.641  0.7466 -0.3449  0.7594
  326SOL    HW1  977   2.434   2.370   1.668 -0.6903 -2.2818 -0.0922
  326SOL    HW2  978   2.435   2.250   1.552 -1.2535 -2.3491  0.9310
  327SOL     OW  979   2.488   3.083   0.111  0.2289 -0.4125 -0.0615
  327SOL    HW1  980   2.423   0.012   0.171  0.4898  4.4035  0.1832
  327SOL    HW2  981   2.456   2.992   0.079  0.6229 -1.0961  0.5306
  328SOL     OW  982   0.206   1.100   1.585  0.4355  0.2454 -0.4980
  328SOL    HW1  983   0.228   1.000   1.602  0.3453 -3.5955  3.8493
  328SOL    HW2  984   0.282   1.162   1.580 -0.8880  1.2762 -1.1355
  329SOL     OW  985   2.083   0.631   1.510 -0.0603  0.2703  0.6330
  329SOL    HW1  986   2.136   0.643   1.597  0.8579  2.3216  1.0928
  329SOL    HW2  987   2.028   0.543   1.516  1.3596 -1.8691  1.0189
  330SOL     OW  988   0.148   0.965   1.091 -0.5559 -0.8984  0.6364
  330SOL    HW1  989   0.225   0.967   1.021 -0.2240 -0.2380 -0.1108
  330SOL    HW2  990   0.078   0.899   1.060  1.2483  0.8945 -1.8526
  331SOL     OW  991   0.475   1.498   1.890 -0.5535 -0.3153  0.5178
  331SOL    HW1  992   0.573   1.524   1.907  0.8093 -1.6003  0.1040
  331SOL    HW2  993   0.436   1.536   1.801  0.3100  1.0336 -0.0642
  332SOL     OW  994   0.297   2.521   1.506 -0.0405 -0.5888 -0.5312
  332SOL    HW1  995   0.235   2.589   1.546  0.0992  0.3123 -1.3149
  332SOL    HW2  996   0.327   2.451   1.573 -1.2244  3.7448 -1.5328
  333SOL     OW  997   3.024   3.008   0.798  0.3515  0.1396  0.2290
  333SOL    HW1  998   3.096   3.021   0.733 -3.1629 -1.0979  3.5033
  333SOL    HW2  999   3.051   2.931   0.866 -0.2775  0.8615  0.8557
  334SOL     OW 1000   0.354   1.255   0.575 -0.3320  0.0405  0.4312
  334SOL    HW1 1001   0.274   1.310   0.610 -1.7594 -1.4761  3.1632
  334SOL    HW2 1002   0.429   1.295   0.628 -1.5589 -3.0547  2.8377
  335SOL     OW 1003   0.502   2.589   2.927 -0.5964  0.3165 -0.0813
  335SOL    HW1 1004   0.415   2.554   2.961  1.5128  0.9723 -0.0059
  335SOL    HW2 1005   0.486   2.651   2.849  2.4101 -0.1560 -1.1269
  336SOL     OW 1006   0.054   2.598   2.133 -0.1250  0.2897 -0.0555
  336SOL    HW1 1007   0.102   2.526   2.188  1.8266  0.8444  0.2749
  336SOL    HW2 1008   3.084   2.573   2.099  0.2588  2.6210 -0.9470
  337SOL     OW 1009   1.616   2.177   1.910  0.3393 -0.0363 -0.2320
  337SOL    HW1 1010   1.564   2.263   1.903 -1.6969  2.7511 -1.6578
  337SOL    HW2 1011   1.551   2.100   1.935 -2.5225 -0.9463  0.8185
  338SOL     OW 1012   1.007   0.428   2.605  0.4351  0.3644 -0.3798
  338SOL    HW1 1013   0.933   0.493   2.580  0.4053  0.5060  0.2427
  338SOL    HW2 1014   0.968   0.343   2.650 -0.4538 -0.8641 -1.2609
  339SOL     OW 1015   0.317   1.171   2.224 -0.6976  0.0883  0.6946
  339SOL    HW1 1016   0.335   1.228   2.137 -0.8160 -0.8012  1.2307
  339SOL    HW2 1017   0.398   1.179   2.283 -1.7298  0.9044 -1.7756
  340SOL     OW 1018   2.043   0.293   0.783  0.2295 -0.2858  0.1410
  340SOL    HW1 1019   2.114   0.231   0.817  3.0182  0.1709 -1.4910
  340SOL    HW2 1020   2.043   0.378   0.835  0.1836 -1.5982  1.1050
  341SOL     OW 1021   2.135   1.156   0.920  0.1385  0.4074  0.1577
  341SOL    HW1 1022   2.051   1.206   0.901  0.9596 -2.1823 -1.2391
  341SOL    HW2 1023   2.215   1.219   0.938  1.6113  1.8741  0.0367
  342SOL     OW 1024   2.328   2.747   2.931  0.2242  0.0934  0.3278
  342SOL    HW1 1025   2.373   2.657   2.934 -1.0691 -0.9598 -2.2233
  342SOL    HW2 1026   2.235   2.724   2.907  1.7145  0.8216  0.6730
  343SOL     OW 1027   0.890   2.401   1.795 -0.1918 -0.2728 -0.0321
  343SOL    HW1 1028   0.917   2.478   1.729  2.9339  1.7113 -2.3771
  343SOL    HW2 1029   0.809   2.349   1.751 -3.2359  1.6657 -2.8008
  344SOL     OW 1030   2.451   2.735   1.495 -0.4204 -0.0468 -0.5174
  344SOL    HW1 1031   2.497   2.731   1.586 -1.8158  0.9968  0.5674
  344SOL    HW2 1032   2.515   2.780   1.426 -1.1625 -0.1920 -1.9067
  345SOL     OW 1033   2.464   2.102   0.091  0.0687  0.6181  0.0659
  345SOL    HW1 1034   2.474   2.014   0.040  1.3930  1.0395  0.3710
  345SOL    HW2 1035   2.412   2.093   0.178  2.5443  1.2848 -0.9098
  346SOL     OW 1036   1.619   2.385   1.284 -0.3046  0.7358 -0.1872
  346SOL    HW1 1037   1.681   2.369   1.205 -3.4711  1.2927  1.1577
  346SOL    HW2 1038   1.666   2.337   1.363  1.1443  0.9454 -0.9192
  347SOL     OW 1039   1.386   1.810   1.608 -0.3391 -0.0432  0.4804
  347SOL    HW1 1040   1.377   1.906   1.574  2.2421  1.1358  0.0106
  347SOL    HW2 1041   1.319   1.790   1.681  0.0009 -1.4166  0.1089
  348SOL     OW 1042   0.422   1.950   2.064  0.3722 -0.5179 -0.1411
  348SOL    HW1 1043   0.387   2.010   2.139 -0.1753  2.0883 -0.0595
  348SOL    HW2 1044   0.496   1.888   2.095  0.2001  1.1816 -0.2566
  349SOL     OW 1045   1.885   1.593   1.383 -0.3741 -0.4929  0.5359
  349SOL    HW1 1046   1.784   1.594   1.394  0.6648  0.3319 -1.1273
  349SOL    HW2 1047   1.936   1.628   1.468  1.2067  0.4467  0.5282
  350SOL     OW 1048   2.333   2.325   0.434  0.4258  0.2988 -0.0288
  350SOL    HW1 1049   2.420   2.366   0.394  1.5524 -3.1910 -0.1613
  350SOL    HW2 1050   2.355   2.309   0.535  0.7550  1.2926 -1.0038
  351SOL     OW 1051   0.945   3.096   1.503 -0.1067 -0.1821 -0.3672
  351SOL    HW1 1052   0.897   0.050   1.550  0.0989 -0.9830 -1.3964
  351SOL    HW2 1053   0.924   3.094   1.402 -2.8036  0.3954 -1.0631
  352SOL     OW 1054   0.185   1.472   0.966  0.3910 -0.3209  0.5009
  352SOL    HW1 1055   0.217   1.384   1.004  0.4715  0.0412 -3.9872
  352SOL    HW2 1056   0.235   1.550   1.008 -1.9936  1.0773  3.5376
  353SOL     OW 1057   1.132   1.482   2.038 -0.3460  0.2710 -0.1332
  353SOL    HW1 1058   1.216   1.434   2.001 -0.3640  0.8692  1.5703
  353SOL    HW2 1059   1.138   1.473   2.137 -0.0981 -0.8274 -0.7792
  354SOL     OW 1060   1.747   2.856   2.106 -0.5971  0.0710 -0.0154
  354SOL    HW1 1061   1.718   2.956   2.112 -1.4637  2.4675 -2.9173
  354SOL    HW2 1062   1.667   2.802   2.069 -2.3591 -0.3533 -0.9426
  355SOL     OW 1063   2.370   1.384   0.174  0.8103  0.1292  0.5676
  355SOL    HW1 1064   2.416   1.328   0.103  0.8516 -0.7884  0.1605
  355SOL    HW2 1065   2.339   1.469   0.132 -2.9406 -3.9223  1.4735
  356SOL     OW 1066   2.852   1.946   1.402 -0.1752 -0.0953  0.1496
  356SOL    HW1 1067   2.859   1.994   1.495 -0.3933 -0.8641  1.8178
  356SOL    HW2 1068   2.768   1.888   1.404  0.4143  2.0469 -0.2706
  357SOL     OW 1069   0.399   2.821   1.365 -0.4495  0.4030 -0.1762
  357SOL    HW1 1070   0.341   2.739   1.365  1.4366  1.7862  0.0151
  357SOL    HW2 1071   0.342   2.899   1.390 -0.1140 -3.5757 -0.1696
  358SOL     OW 1072   2.684   1.660   1.564  0.6634  0.2280  0.7459
  358SOL    HW1 1073   2.603   1.649   1.631 -0.9113  0.2051  0.5762
  358SOL    HW2 1074   2.774   1.626   1.599  1.9070 -0.0271  0.6239
  359SOL     OW 1075   2.295   3.027   2.922 -0.0917 -0.6124  0.3029
  359SOL    HW1 1076   2.301   2.924   2.923  0.5788  0.0665 -0.4273
  359SOL    HW2 1077   2.204   3.056   2.960 -2.4143  1.4600 -2.0326
  360SOL     OW 1078   1.112   3.096   0.917 -0.4789 -0.3643  0.5794
  360SOL    HW1 1079   1.161   0.029   0.847 -2.2162 -1.7110  1.1541
  360SOL    HW2 1080   1.092   2.999   0.884  0.5103 -2.2413 -1.1102
  361SOL     OW 1081   2.130   0.424   0.357 -0.6037 -0.3659 -0.0664
  361SOL    HW1 1082   2.055   0.411   0.430 -2.0205  0.6610  2.8302
  361SOL    HW2 1083   2.182   0.505   0.390 -1.8393  0.9187 -1.0711
  362SOL     OW 1084   1.765   1.177   0.849  0.5034 -0.0669  0.1453
  362SOL    HW1 1085   1.820   1.231   0.921  2.1800  0.6012 -1.4627
  362SOL    HW2 1086   1.685   1.236   0.825  0.6010 -0.1371  1.6298
  363SOL     OW 1087   2.298   1.080   2.288  0.0110  0.4807 -0.0316
  363SOL    HW1 1088   2.201   1.088   2.322 -2.2240  0.2311 -0.6589
  363SOL    HW2 1089   2.311   1.060   2.190 -0.3250  1.2057  1.0101
  364SOL     OW 1090   0.325   0.355   1.180  0.2556 -0.1571 -0.4695
  364SOL    HW1 1091   0.238   0.407   1.164 -1.1864 -0.3683 -2.1673
  364SOL    HW2 1092   0.299   0.263   1.213 -0.2690 -0.8759 -0.0051
  365SOL     OW 1093   0.683   0.185   2.912 -0.0747  0.2566  0.1287
  365SOL    HW1 1094   0.662   0.087   2.929  1.4274  0.2453  2.4886
  365SOL    HW2 1095   0.765   0.200   2.851  0.5772  1.0286  1.2170
  366SOL     OW 1096   2.062   2.669   2.852 -0.0300  0.3952  0.3740
  366SOL    HW1 1097   2.005   2.669   2.770 -1.5108  0.1586  1.2690
  366SOL    HW2 1098   2.074   2.574   2.891 -0.5732 -0.3888  0.4019
  367SOL     OW 1099   2.971   2.492   0.160 -0.2936 -0.0027  0.0319
  367SOL    HW1 1100   2.892   2.551   0.172  2.8552 -0.2144  3.7120
  367SOL    HW2 1101   2.990   2.449   0.246 -1.1809  1.2458 -1.4793
  368SOL     OW 1102   3.083   1.314   1.258  0.2851 -0.5258 -0.3461
  368SOL    HW1 1103   3.071   1.365   1.171  1.9746  0.2555 -0.6948
  368SOL    HW2 1104   0.052   1.269   1.264 -1.3971  2.7466  2.1394
  369SOL     OW 1105   0.903   0.194   2.754  0.2984 -0.0430 -0.0636
  369SOL    HW1 1106   0.865   0.162   2.667 -1.2396 -0.5653 -0.5262
  369SOL    HW2 1107   0.987   0.140   2.774 -0.4060 -2.2131  0.9607
  370SOL     OW 1108   2.884   0.534   0.421 -0.0720  0.5587 -0.0947
  370SOL    HW1 1109   2.788   0.508   0.435 -1.3206 -0.3650 -0.3879
  370SOL    HW2 1110   2.945   0.458   0.380 -0.0589  0.1983 -0.1144
  371SOL     OW 1111   1.606   2.156   0.895 -0.2810  0.3157  0.2190
  371SOL    HW1 1112   1.683   2.101   0.855  0.6198 -0.9161  2.1036
  371SOL    HW2 1113   1.629   2.244   0.935  0.0054 -3.1215 -2.2861
  372SOL     OW 1114   3.053   0.649   2.654 -0.1628 -0.4013  0.6135
  372SOL    HW1 1115   3.014   0.649   2.560 -0.5090  1.5808  1.1592
  372SOL    HW2 1116   3.019   0.733   2.705  0.0294  2.4989  1.1608
  373SOL     OW 1117   2.878   1.646   1.087 -0.1997 -0.5653 -0.1809
  373SOL    HW1 1118   2.841   1.723   1.033 -1.9482 -1.4778  0.1842
  373SOL    HW2 1119   2.814   1.574   1.112  3.4392 -2.4690 -2.3370
  374SOL     OW 1120   0.919   2.629   2.896 -0.1071  0.1062  0.5174
  374SOL    HW1 1121   0.842   2.637   2.961 -0.7201  1.1106  1.6597
  374SOL    HW2 1122   1.003   2.672   2.938 -0.0273 -0.3007 -0.1798
  375SOL     OW 1123   0.029   2.903   0.030  0.4986 -0.3135 -0.3445
  375SOL    HW1 1124   0.087   2.974   0.075  1.1213 -2.8096  0.6784
  375SOL    HW2 1125   0.082   2.818   0.014  0.7052  0.5668  1.2779
  376SOL     OW 1126   3.101   2.265   1.436  0.3392  0.1194  0.8804
  376SOL    HW1 1127   0.021   2.210   1.513 -0.1721  1.1717 -1.0611
  376SOL    HW2 1128   3.119   2.224   1.343  0.0231  0.9055  0.8711
  377SOL     OW 1129   1.646   2.233   2.463 -0.0020  0.3900  0.2921
  377SOL    HW1 1130   1.640   2.173   2.545  1.3328  1.8296 -1.5561
  377SOL    HW2 1131   1.592   2.185   2.392  0.4115 -0.7141  0.9503
  378SOL     OW 1132   0.511   0.368   2.890  0.4389 -0.5206 -0.5440
  378SOL    HW1 1133   0.538   0.450   2.832 -0.5725 -1.1168  0.0981
  378SOL    HW2 1134   0.581   0.293   2.892 -2.2157  1.8715  0.2116
  379SOL     OW 1135   0.489   0.644   0.478  0.5986  0.8306 -0.4027
  379SOL    HW1 1136   0.405   0.672   0.531 -2.9946  2.7661 -0.4736
  379SOL    HW2 1137   0.571   0.636   0.539 -1.2345  0.5990  0.8045
  380SOL     OW 1138   0.051   1.913   1.807 -0.2233  0.0063 -0.5195
  380SOL    HW1 1139   3.091   1.856   1.777 -0.7868 -2.0536  0.3457
  380SOL    HW2 1140   0.094   1.866   1.889  1.8702 -1.8006 -2.9157
  381SOL     OW 1141   0.471   1.056   1.706 -0.7245 -0.0680  1.4454
  381SOL    HW1 1142   0.429   1.145   1.675  1.3473  0.3175 -0.3875
  381SOL    HW2 1143   0.494   0.987   1.630  1.3152 -2.5476  1.0201
  382SOL     OW 1144   2.149   1.886   0.465  0.0494 -0.1707  0.2950
  382SOL    HW1 1145   2.098   1.802   0.439  3.3330 -0.2786 -1.8025
  382SOL    HW2 1146   2.117   1.912   0.558 -0.3219 -0.5846 -1.0182
  383SOL     OW 1147   2.925   1.894   2.933 -0.4827 -0.0697 -0.5816
  383SOL    HW1 1148   2.888   1.921   3.019  1.0416 -2.0624 -4.0242
  383SOL    HW2 1149   2.936   1.979   2.875 -1.7054  4.3702 -0.5416
  384SOL     OW 1150   0.818   2.201   2.726 -0.5350 -0.0882 -0.2960
  384SOL    HW1 1151   0.765   2.206   2.811  1.9784  0.8722 -1.0155
  384SOL    HW2 1152   0.868   2.287   2.706  2.9162 -1.0870  0.3529
  385SOL     OW 1153   2.631   1.687   0.690  0.3274 -0.3193  0.3410
  385SOL    HW1 1154   2.660   1.589   0.670 -0.7702 -2.4962  1.1833
  385SOL    HW2 1155   2.532   1.704   0.658 -2.8776  3.8933 -3.5911
  386SOL     OW 1156   2.166   1.517   1.607  0.1037 -0.2505 -0.5206
  386SOL    HW1 1157   2.202   1.552   1.520 -1.0949 -1.8000  3.9796
  386SOL    HW2 1158   2.112   1.592   1.651  1.9558 -2.3462 -0.5089
  387SOL     OW 1159   2.530   1.220   2.123 -0.0646 -0.0229 -0.1411
  387SOL    HW1 1160   2.458   1.287   2.102 -0.4662 -0.8168 -0.7579
  387SOL    HW2 1161   2.570   1.222   2.217  2.3080 -0.4805 -1.3756
  388SOL     OW 1162   2.835   1.415   1.993  0.0235  0.0464 -0.0191
  388SOL    HW1 1163   2.804   1.340   1.929  0.1463 -0.2079 -2.0661
  388SOL    HW2 1164   2.913   1.378   2.049  2.3587 -0.3680  1.9000
  389SOL     OW 1165   1.927   1.084   1.858  0.1562  0.0682 -0.5451
  389SOL    HW1 1166   1.958   1.140   1.942 -0.1246  1.8917  5.2867
  389SOL    HW2 1167   1.916   1.140   1.777  1.0810 -0.1916  1.0259
  390SOL     OW 1168   1.792   0.135   0.800  0.3123 -0.9335 -0.1922
  390SOL    HW1 1169   1.886   0.170   0.821 -1.0412  0.7623  0.5941
  390SOL    HW2 1170   1.761   0.170   0.707 -1.6282 -0.4882 -0.7525
  391SOL     OW 1171   2.366   1.756   1.272  0.0562  0.8870  0.3356
  391SOL    HW1 1172   2.360   1.822   1.350 -0.0210  0.4301  2.3355
  391SOL    HW2 1173   2.326   1.666   1.301 -0.4470  0.3057  0.2571
  392SOL     OW 1174   2.472   2.676   0.717  0.0602  0.2576  0.3663
  392SOL    HW1 1175   2.466   2.732   0.800  0.3234 -2.8823 -3.0994
  392SOL    HW2 1176   2.568   2.644   0.701  0.9582  2.4817  1.3596
  393SOL     OW 1177   1.518   1.690   2.821 -0.7545  0.2293  0.0006
  393SOL    HW1 1178   1.564   1.610   2.794 -3.9901  0.6376  0.8037
  393SOL    HW2 1179   1.528   1.764   2.750 -1.6359  1.7906 -1.2762
  394SOL     OW 1180   0.233   0.070   2.841  0.0004  0.1836  0.4354
  394SOL    HW1 1181   0.135   0.064   2.818  4.8652 -0.3855  1.2922
  394SOL    HW2 1182   0.269   3.096   2.846 -0.7441 -1.0816  2.7265
  395SOL     OW 1183   0.704   0.697   0.950  0.0173  1.2180  0.2323
  395SOL    HW1 1184   0.684   0.596   0.951 -0.5744 -1.8258  1.7444
  395SOL    HW2 1185   0.801   0.711   0.921  0.1374 -0.4127  1.5292
  396SOL     OW 1186   1.269   0.763   0.681 -0.2044  0.3725  0.8517
  396SOL    HW1 1187   1.255   0.777   0.778 -1.1210 -0.0489 -0.7629
  396SOL    HW2 1188   1.303   0.844   0.635 -1.4837 -2.2587  1.7519
  397SOL     OW 1189   0.565   0.541   2.088 -0.2972 -0.1367  0.4433
  397SOL    HW1 1190   0.489   0.492   2.037 -0.5652  0.2306 -1.6609
  397SOL    HW2 1191   0.535   0.641   2.096 -1.9631  3.7894 -0.6263
  398SOL     OW 1192   1.053   0.062   0.272 -0.0356  0.2139 -0.1418
  398SOL    HW1 1193   1.000   0.142   0.306 -1.2083 -0.7338  0.3444
  398SOL    HW2 1194   1.140   0.094   0.221 -0.0599 -0.4978 -1.8090
  399SOL     OW 1195   2.082   2.837   1.755  0.1869 -0.1828  0.7684
  399SOL    HW1 1196   2.020   2.861   1.829  1.3814 -1.7676 -0.0536
  399SOL    HW2 1197   2.068   2.746   1.709  0.6220 -2.5331 -1.7848
  400SOL     OW 1198   1.024   1.720   2.002 -0.1297  0.2271  0.7415
  400SOL    HW1 1199   0.998   1.758   2.092 -0.7724 -0.4462 -1.6156
  400SOL    HW2 1200   1.067   1.629   2.021 -1.9440  0.4175  2.3812
  401SOL     OW 1201   0.754   1.107   2.788 -0.1168  0.1874 -0.1871
  401SOL    HW1 1202   0.830   1.078   2.855  0.2779  0.5362  2.7389
  401SOL    HW2 1203   0.666   1.066   2.813 -0.0665 -0.2801  0.5985
  402SOL     OW 1204   2.785   2.076   0.957 -0.4183 -0.1010  0.6123
  402SOL    HW1 1205   2.767   1.979   0.937  2.2683  0.1392  1.0627
  402SOL    HW2 1206   2.792   2.097   1.059 -0.8706  4.2737 -0.8852
  403SOL     OW 1207   0.220   0.868   2.202  0.2469  0.5145  0.0104
  403SOL    HW1 1208   0.133   0.831   2.164 -0.6134 -0.3463 -1.9652
  403SOL    HW2 1209   0.245   0.963   2.172  3.1939 -1.9241 -0.1222
  404SOL     OW 1210   0.399   2.459   1.901  0.3228 -0.1099 -0.0445
  404SOL    HW1 1211   0.370   2.422   1.808 -1.3905 -3.3012 -2.0833
  404SOL    HW2 1212   0.378   2.556   1.906  0.1590 -2.8812  0.4737
  405SOL     OW 1213   0.281   0.336   2.229 -0.1698 -0.7739  0.4400
  405SOL    HW1 1214   0.348   0.316   2.302 -1.7115 -0.6848  0.0636
  405SOL    HW2 1215   0.223   0.260   2.203 -0.8412  3.6396 -0.0948
  406SOL     OW 1216   1.614   1.565   2.441 -0.2708 -0.9840  0.6034
  406SOL    HW1 1217   1.695   1.533   2.491 -2.0439 -0.1872  1.6284
  406SOL    HW2 1218   1.644   1.652   2.399 -2.0213 -1.0496 -0.7262
  407SOL     OW 1219   1.145   1.076   2.396 -0.2653 -0.1073  0.0338
  407SOL    HW1 1220   1.095   1.107   2.318 -2.3673 -1.6081  3.3971
  407SOL    HW2 1221   1.226   1.020   2.368 -1.7091 -3.3752  0.9358
  408SOL     OW 1222   0.863   0.103   2.509  0.7684  0.2280  0.1709
  408SOL    HW1 1223   0.853   0.200   2.480  0.7793  0.5016  0.4753
  408SOL    HW2 1224   0.834   0.042   2.433  1.2920 -0.3382  1.5537
  409SOL     OW 1225   0.186   1.801   0.730  0.2845 -0.2307  0.5013
  409SOL    HW1 1226   0.251   1.879   0.736  1.3220  2.2828  0.3881
  409SOL    HW2 1227   0.187   1.742   0.645 -0.0565 -3.1391 -2.3817
  410SOL     OW 1228   2.650   1.183   0.192 -0.3454  0.0158  0.3017
  410SOL    HW1 1229   2.711   1.193   0.273  0.3214  0.2058  2.8434
  410SOL    HW2 1230   2.666   1.250   0.116 -0.0236 -0.5400  0.3654
  411SOL     OW 1231   0.195   0.116   1.270 -0.3052  0.3508  0.5374
  411SOL    HW1 1232   0.104   0.148   1.310 -1.7255  1.5915  0.1891
  411SOL    HW2 1233   0.230   0.032   1.313 -3.2518  2.7858 -3.8102
  412SOL     OW 1234   1.571   0.928   1.479  0.3636 -0.3577  0.2109
  412SOL    HW1 1235   1.604   0.999   1.417 -2.4165 -0.7719  0.9655
  412SOL    HW2 1236   1.502   0.863   1.433  1.0366  1.5645 -1.9044
  413SOL     OW 1237   0.877   2.862   1.634  0.2654 -0.1210  0.3166
  413SOL    HW1 1238   0.780   2.833   1.622 -2.0564  1.4431 -1.7903
  413SOL    HW2 1239   0.894   2.955   1.587 -1.7900  3.4224  0.9852
  414SOL     OW 1240   2.747   1.575   2.596 -0.2923 -0.2463 -0.0344
  414SOL    HW1 1241   2.686   1.577   2.680  0.1178  1.7983 -0.7327
  414SOL    HW2 1242   2.782   1.478   2.576  1.9793 -3.6146  2.2591
  415SOL     OW 1243   0.689   2.414   0.004  0.6986  0.0884 -0.1548
  415SOL    HW1 1244   0.674   2.504   3.067  0.5099 -0.1321 -2.3325
  415SOL    HW2 1245   0.783   2.404   0.031 -4.0865 -0.2354 -1.6720
  416SOL     OW 1246   1.919   2.991   0.348 -0.1426 -0.6156 -0.0902
  416SOL    HW1 1247   1.925   2.895   0.308 -1.6233 -1.1578 -2.1179
  416SOL    HW2 1248   1.983   3.051   0.296 -0.4344 -1.8269  2.2029
  417SOL     OW 1249   0.268   0.559   0.813 -0.1332 -0.0845  0.6237
  417SOL    HW1 1250   0.287   0.623   0.743 -0.3693 -5.1269  2.0416
  417SOL    HW2 1251   0.244   0.472   0.763  1.1873  1.1066  2.3890
  418SOL     OW 1252   2.547   0.233   1.043 -0.3732 -0.0636  0.0002
  418SOL    HW1 1253   2.461   0.189   1.069  0.3271  0.5568 -0.6278
  418SOL    HW2 1254   2.540   0.334   1.035 -0.7794 -0.6987  0.9507
  419SOL     OW 1255   0.126   2.994   0.656 -0.0301 -0.0894 -0.0594
  419SOL    HW1 1256   0.063   3.021   0.580 -1.8296  0.0169  0.4331
  419SOL    HW2 1257   0.169   2.903   0.642 -0.5153  0.6753 -1.7184
  420SOL     OW 1258   0.172   1.469   1.691 -0.6729 -0.1604  0.2052
  420SOL    HW1 1259   0.236   1.543   1.717 -0.0764 -1.0688  1.5003
  420SOL    HW2 1260   0.131   1.483   1.599 -1.2895 -1.9756 -0.9504
  421SOL     OW 1261   1.186   2.893   0.621  0.0305  0.7477 -0.1535
  421SOL    HW1 1262   1.223   2.977   0.582 -2.4759 -1.0869  0.2119
  421SOL    HW2 1263   1.169   2.821   0.550 -1.6162 -0.2593 -0.5621
  422SOL     OW 1264   0.284   0.482   1.521  0.3431  0.1053  0.0988
  422SOL    HW1 1265   0.295   0.519   1.615  2.0990 -0.8577 -0.9129
  422SOL    HW2 1266   0.189   0.453   1.501 -0.3906  0.4604  0.1989
  423SOL     OW 1267   1.006   1.220   1.655  0.4387  0.4725 -0.1580
  423SOL    HW1 1268   0.986   1.280   1.735 -2.2884  0.2974 -0.1553
  423SOL    HW2 1269   0.976   1.124   1.682 -0.2540  1.3659  0.0390
  424SOL     OW 1270   2.028   1.642   0.051  0.3359 -0.1174 -0.3876
  424SOL    HW1 1271   2.042   1.597   0.144 -0.3694  1.2404 -2.3083
  424SOL    HW2 1272   1.985   1.571   3.107 -1.6892 -1.1045  2.0491
  425SOL     OW 1273   0.068   0.148   2.199 -0.0632 -0.2859 -0.2343
  425SOL    HW1 1274   0.048   0.062   2.147 -0.7757 -0.4256  1.0341
  425SOL    HW2 1275   0.108   0.123   2.289 -0.1464  0.1355 -1.3043
  426SOL     OW 1276   0.346   2.937   2.863  0.6616 -0.0272 -0.3073
  426SOL    HW1 1277   0.308   2.890   2.946 -0.1328  0.1265  0.7769
  426SOL    HW2 1278   0.362   2.872   2.788  0.0132  2.1094 -0.6678
  427SOL     OW 1279   0.953   0.829   2.863  0.2206 -0.0730  0.4019
  427SOL    HW1 1280   1.004   0.919   2.865  0.8415  2.9962 -0.2973
  427SOL    HW2 1281   1.004   0.767   2.800 -2.1213  0.2931 -1.2108
  428SOL     OW 1282   2.857   1.281   1.658 -0.0676  0.2629 -0.4883
  428SOL    HW1 1283   2.759   1.277   1.682 -0.3066  0.5000  0.0622
  428SOL    HW2 1284   2.913   1.224   1.724 -0.8535  4.9632  0.4032
  429SOL     OW 1285   2.346   3.053   0.768 -0.0602  0.0063 -0.8687
  429SOL    HW1 1286   2.287   0.007   0.809  4.2338 -1.5790  1.4780
  429SOL    HW2 1287   2.288   2.970   0.757 -0.5874  3.0370 -0.1420
  430SOL     OW 1288   0.820   1.541   2.215  0.3801 -0.3335 -0.4534
  430SOL    HW1 1289   0.749   1.593   2.272 -1.4521  1.6044  2.1702
  430SOL    HW2 1290   0.907   1.532   2.269  2.6234 -0.9806 -0.4996
  431SOL     OW 1291   2.944   1.543   1.598  0.2182  0.0045  0.6313
  431SOL    HW1 1292   3.024   1.540   1.535 -0.4738  2.7373 -1.6437
  431SOL    HW2 1293   2.901   1.451   1.610  1.1080  0.5592 -0.5185
  432SOL     OW 1294   1.076   2.875   2.400  0.3364  0.0160  0.0500
  432SOL    HW1 1295   1.132   2.832   2.474  0.1021 -2.8674  1.0837
  432SOL    HW2 1296   1.058   2.809   2.326 -0.1764 -1.6029  2.9009
  433SOL     OW 1297   1.646   0.261   2.001  0.1996  0.4043  0.2679
  433SOL    HW1 1298   1.719   0.236   1.937 -1.8376  0.5006  1.5342
  433SOL    HW2 1299   1.654   0.357   2.032 -0.0195 -2.2830 -0.3184
  434SOL     OW 1300   0.703   2.574   2.487 -0.3226 -0.0106  0.1585
  434SOL    HW1 1301   0.683   2.636   2.407 -1.2959  1.5064 -1.9363
  434SOL    HW2 1302   0.748   2.625   2.561 -3.7236 -0.2944  1.6559
  435SOL     OW 1303   0.346   2.901   0.221 -0.0483  0.0089  0.3174
  435SOL    HW1 1304   0.288   2.982   0.192 -0.4330  0.7591 -0.9826
  435SOL    HW2 1305   0.416   2.928   0.291 -2.0596 -2.5058 -0.6113
  436SOL     OW 1306   0.745   0.517   1.833 -0.1831  0.8971 -0.4334
  436SOL    HW1 1307   0.681   0.595   1.830 -0.6961  0.5243 -0.7756
  436SOL    HW2 1308   0.708   0.436   1.882  2.9761 -0.1086  0.1422
  437SOL     OW 1309   0.316   2.377   2.689  0.2871 -0.3111 -0.0568
  437SOL    HW1 1310   0.360   2.399   2.600 -0.5069 -2.2096  0.1754
  437SOL    HW2 1311   0.359   2.297   2.737  0.8390 -0.8981  0.8893
  438SOL     OW 1312   0.870   1.405   1.479 -0.2019  0.6734 -0.7779
  438SOL    HW1 1313   0.937   1.482   1.481  1.7706  0.2113  1.9945
  438SOL    HW2 1314   0.905   1.324   1.527  0.1487  1.0695 -0.6904
  439SOL     OW 1315   2.477   0.857   2.342 -0.3658  0.6764 -0.3899
  439SOL    HW1 1316   2.526   0.873   2.430 -2.1327 -1.5044 -0.5434
  439SOL    HW2 1317   2.424   0.944   2.318  0.1057  1.0940  0.2950
  440SOL     OW 1318   0.467   0.704   0.205  0.7123 -0.0719 -0.4943
  440SOL    HW1 1319   0.391   0.636   0.199  1.5897  0.1715  0.5839
  440SOL    HW2 1320   0.517   0.695   0.295  0.1567 -0.2471 -0.5478
  441SOL     OW 1321   1.270   2.367   1.470 -0.1339  0.1518  0.5006
  441SOL    HW1 1322   1.290   2.445   1.405 -6.1183  0.5816 -0.9661
  441SOL    HW2 1323   1.280   2.277   1.427 -0.1482  0.2781 -0.2426
  442SOL     OW 1324   1.987   1.582   0.727 -0.2738  0.2482 -0.1471
  442SOL    HW1 1325   1.979   1.667   0.784 -1.7567  1.7269  1.1493
  442SOL    HW2 1326   2.082   1.552   0.708 -0.8959  3.8197  2.4225
  443SOL     OW 1327   2.689   1.929   2.642 -0.3394 -0.3937  0.2114
  443SOL    HW1 1328   2.701   2.028   2.658 -0.2786 -2.5461  0.1342
  443SOL    HW2 1329   2.662   1.919   2.543 -0.4383  0.0725  2.0682
  444SOL     OW 1330   1.598   1.427   2.843 -0.3770 -0.2891 -0.7578
  444SOL    HW1 1331   1.594   1.448   2.944  0.9543  2.9199  1.5787
  444SOL    HW2 1332   1.521   1.364   2.816  0.3220  2.9783  1.9240
  445SOL     OW 1333   2.585   2.707   2.286  0.2524 -0.0654 -0.2704
  445SOL    HW1 1334   2.629   2.633   2.227  2.1051  0.4148 -0.9002
  445SOL    HW2 1335   2.654   2.785   2.296 -0.0018 -1.6650 -1.0028
  446SOL     OW 1336   0.742   0.866   1.621 -0.0282  0.0922 -0.0327
  446SOL    HW1 1337   0.703   0.949   1.572 -0.3884  1.3608 -0.1557
  446SOL    HW2 1338   0.736   0.788   1.558  1.5862  0.4682 -1.1349
  447SOL     OW 1339   0.894   0.955   0.891  0.0513  0.0251  0.2176
  447SOL    HW1 1340   0.855   0.970   0.983  0.9458 -0.7472 -0.4918
  447SOL    HW2 1341   0.994   0.976   0.894  1.8130  1.4987 -0.7340
  448SOL     OW 1342   0.868   0.914   2.012 -0.5789 -0.3179 -0.4026
  448SOL    HW1 1343   0.781   0.958   2.037  2.0055 -1.9819 -1.0281
  448SOL    HW2 1344   0.895   0.850   2.083  1.2950  1.3117  0.8966
  449SOL     OW 1345   0.077   2.024   2.587  0.3878 -0.2893 -0.5323
  449SOL    HW1 1346   0.071   2.001   2.483  0.1136  1.0357 -4.3514
  449SOL    HW2 1347   0.146   1.955   2.630 -0.6458 -0.3245 -2.2310
  450SOL     OW 1348   2.550   1.972   2.036  0.4014 -0.0156 -0.0034
  450SOL    HW1 1349   2.650   1.943   2.053 -1.7583  1.1530  2.4764
  450SOL    HW2 1350   2.482   1.893   2.031  0.2561 -2.2770  1.3303
  451SOL     OW 1351   2.407   1.292   1.258 -0.5743 -0.4855 -0.0226
  451SOL    HW1 1352   2.323   1.238   1.255 -1.3149  3.2805 -1.2154
  451SOL    HW2 1353   2.482   1.241   1.304  0.6837  0.6812 -1.6191
  452SOL     OW 1354   0.425   1.302   1.603  0.1785  0.5476  0.1020
  452SOL    HW1 1355   0.363   1.380   1.607  1.6358 -0.9294 -3.2730
  452SOL    HW2 1356   0.474   1.311   1.513  0.2489 -1.4690  0.3778
  453SOL     OW 1357   0.291   1.247   1.061  0.4266 -0.1685 -0.3551
  453SOL    HW1 1358   0.303   1.169   0.998  2.2257  2.3416 -0.7693
  453SOL    HW2 1359   0.252   1.216   1.150  3.8945 -0.3708  0.9249
  454SOL     OW 1360   0.257   1.465   0.248  0.3199  1.0056 -0.0904
  454SOL    HW1 1361   0.359   1.476   0.257 -0.9340 -1.1588  3.0822
  454SOL    HW2 1362   0.237   1.421   0.162  0.8129  0.4670  2.2522
  455SOL     OW 1363   1.779   0.911   0.856 -0.6617 -0.0072 -0.0487
  455SOL    HW1 1364   1.773   1.015   0.850  0.1040  0.7452 -1.1643
  455SOL    HW2 1365   1.843   0.879   0.928  0.9688 -0.7052  1.1616
  456SOL     OW 1366   1.662   2.562   0.813 -0.2088 -0.0759  0.3280
  456SOL    HW1 1367   1.581   2.617   0.837  2.0518  1.2618 -1.3846
  456SOL    HW2 1368   1.641   2.495   0.739 -1.5718 -0.0836  1.5302
  457SOL     OW 1369   1.931   0.179   2.701  0.6017 -0.6865 -0.2534
  457SOL    HW1 1370   1.950   0.106   2.633  0.0362  2.8265  0.8143
  457SOL    HW2 1371   1.854   0.241   2.671 -0.5617  0.8761 -0.6023
  458SOL     OW 1372   2.521   0.495   0.084 -0.6362  0.0052 -0.3770
  458SOL    HW1 1373   2.474   0.435   0.017  2.8323  0.2912 -0.1345
  458SOL    HW2 1374   2.617   0.502   0.069  0.0580 -0.4422 -2.8824
  459SOL     OW 1375   2.962   1.080   2.120  0.4279 -0.2519 -0.3014
  459SOL    HW1 1376   3.021   1.163   2.134  0.8528 -1.7175  1.1493
  459SOL    HW2 1377   2.926   1.055   2.215  2.3267  0.8241  0.8096
  460SOL     OW 1378   0.230   0.860   2.964  0.3050  0.0539 -0.4681
  460SOL    HW1 1379   0.218   0.793   2.887  2.0734  2.2029 -0.4183
  460SOL    HW2 1380   0.304   0.829   3.024 -1.3081 -0.2561 -0.2795
  461SOL     OW 1381   3.115   2.385   0.708 -0.2278 -0.3594  0.7898
  461SOL    HW1 1382   3.087   2.304   0.753  2.0140  0.6797 -3.2038
  461SOL    HW2 1383   0.003   2.370   0.602  0.7594 -0.5948 -0.7840
  462SOL     OW 1384   3.119   2.962   1.549  0.4887  0.2038 -0.0952
  462SOL    HW1 1385   3.117   2.966   1.651  1.1363  1.1006 -3.4233
  462SOL    HW2 1386   3.035   3.001   1.510  2.7816 -3.0255 -1.7396
  463SOL     OW 1387   2.037   2.112   1.902  0.2268 -0.4049 -0.2345
  463SOL    HW1 1388   2.132   2.150   1.896  2.8425  1.3294 -0.7865
  463SOL    HW2 1389   2.011   2.086   1.810 -2.0327  2.0954 -1.3560
  464SOL     OW 1390   0.276   2.934   1.125 -0.6383  0.1975 -0.3302
  464SOL    HW1 1391   0.372   2.970   1.153  0.5359 -0.9314 -2.1112
  464SOL    HW2 1392   0.236   3.000   1.060  3.1963 -1.6435  1.5192
  465SOL     OW 1393   0.561   0.075   1.397 -0.8953  0.1919  0.3894
  465SOL    HW1 1394   0.655   0.098   1.435 -2.0064  1.6801  3.2770
  465SOL    HW2 1395   0.487   0.122   1.447  0.9133 -0.8586 -3.7787
  466SOL     OW 1396   1.241   2.037   2.341  0.2793 -0.3250 -0.7828
  466SOL    HW1 1397   1.245   1.946   2.294 -0.6466 -1.8476  1.4057
  466SOL    HW2 1398   1.149   2.075   2.323 -0.8862  0.5056  0.8576
  467SOL     OW 1399   3.001   1.763   0.769 -0.3589  0.0885  0.4677
  467SOL    HW1 1400   3.097   1.800   0.760 -2.2601 -0.1893 -1.1465
  467SOL    HW2 1401   2.986   1.683   0.706  0.3925  0.2056  0.9850
  468SOL     OW 1402   2.420   2.008   2.726 -0.2406 -0.8314 -0.3885
  468SOL    HW1 1403   2.487   1.930   2.721  1.4582 -1.6953 -1.1751
  468SOL    HW2 1404   2.438   2.078   2.648  3.7237  0.3790 -1.9767
  469SOL     OW 1405   1.001   2.124   0.504 -0.1194 -0.0114 -0.0056
  469SOL    HW1 1406   1.096   2.161   0.496 -0.3860  2.2961 -1.4084
  469SOL    HW2 1407   0.984   2.062   0.579 -1.8543  2.8104 -2.8703
  470SOL     OW 1408   1.984   1.742   1.588  0.2508 -0.2697 -0.2822
  470SOL    HW1 1409   1.999   1.823   1.531 -0.4486  1.1312  0.8156
  470SOL    HW2 1410   1.920   1.773   1.664 -3.0584 -0.1646  2.1202
  471SOL     OW 1411   0.498   2.386   0.199 -0.3573  0.3249 -0.0223
  471SOL    HW1 1412   0.477   2.477   0.234 -0.4295 -2.6044 -2.2656
  471SOL    HW2 1413   0.564   2.396   0.121 -1.4741  0.9669  3.4046
  472SOL     OW 1414   2.593   1.893   2.358  0.0795  0.5329 -0.6507
  472SOL    HW1 1415   2.542   1.814   2.320  0.4071  3.1820 -0.7290
  472SOL    HW2 1416   2.550   1.982   2.340  0.4394 -0.8088  0.4870
  473SOL     OW 1417   1.304   2.582   0.679 -0.0550 -0.3035 -0.8002
  473SOL    HW1 1418   1.213   2.593   0.729 -0.8453  0.6934  1.0372
  473SOL    HW2 1419   1.366   2.659   0.700  1.6787  1.4285 -2.3292
  474SOL     OW 1420   2.887   3.095   1.466  0.5519 -0.0590  0.1872
  474SOL    HW1 1421   2.902   3.034   1.382 -4.0881  1.5708  0.8016
  474SOL    HW2 1422   2.790   3.113   1.475 -0.8076 -2.2689 -1.6834
  475SOL     OW 1423   1.770   2.731   1.769  0.1518  0.2270  0.3386
  475SOL    HW1 1424   1.735   2.638   1.760 -0.2536  0.6326  3.9130
  475SOL    HW2 1425   1.720   2.777   1.846 -0.5741 -0.1874  2.6328
  476SOL     OW 1426   0.436   0.387   0.931  0.1092 -0.0773  0.5280
  476SOL    HW1 1427   0.389   0.360   1.015  0.9266  0.6502 -3.4351
  476SOL    HW2 1428   0.374   0.459   0.884 -1.3560  2.8869 -1.2269
  477SOL     OW 1429   0.579   2.123   0.995  0.7883  0.3944 -0.4150
  477SOL    HW1 1430   0.499   2.184   0.969  0.3726  2.5078  0.3209
  477SOL    HW2 1431   0.669   2.166   0.978 -1.2231 -0.1762  0.5024
  478SOL     OW 1432   0.853   2.740   2.658 -0.2389  0.3912 -0.3896
  478SOL    HW1 1433   0.946   2.771   2.627  0.9919 -0.4319 -3.4690
  478SOL    HW2 1434   0.869   2.701   2.751  1.6581  2.2751 -0.1301
  479SOL     OW 1435   0.300   0.443   1.984 -0.6002  0.6302  0.6733
  479SOL    HW1 1436   0.205   0.443   1.955  1.6194 -0.6746 -1.9868
  479SOL    HW2 1437   0.312   0.402   2.084 -0.5556 -1.9721  5.1431
  480SOL     OW 1438   0.179   2.273   2.988 -0.1101  0.1221 -0.2554
  480SOL    HW1 1439   0.159   2.235   3.082 -0.1059  0.6632 -1.6063
  480SOL    HW2 1440   0.087   2.286   2.944 -0.5726  1.6208 -0.6144
  481SOL     OW 1441   1.671   0.023   2.134 -0.1401 -0.2145  0.2322
  481SOL    HW1 1442   1.744   0.064   2.191  0.2898 -0.0627 -1.3249
  481SOL    HW2 1443   1.636   0.089   2.067 -0.0906 -0.0846  1.2466
  482SOL     OW 1444   1.706   1.788   3.004 -0.6912 -0.0592 -0.0970
  482SOL    HW1 1445   1.673   1.779   3.101 -1.1238  0.5653 -0.5233
  482SOL    HW2 1446   1.650   1.722   2.952  0.8144  1.3730 -0.4930
  483SOL     OW 1447   1.183   2.784   2.628 -0.3515  0.8218 -0.0485
  483SOL    HW1 1448   1.224   2.694   2.632  2.6453  1.2263 -2.1497
  483SOL    HW2 1449   1.220   2.849   2.702 -0.4729  0.4118  1.4905
  484SOL     OW 1450   0.545   2.813   0.792  0.2431 -0.0931 -0.1115
  484SOL    HW1 1451   0.564   2.905   0.836 -0.7529  1.5428 -0.9712
  484SOL    HW2 1452   0.489   2.759   0.861 -0.7789  0.2340  4.6768
  485SOL     OW 1453   2.207   0.732   0.767 -0.3620 -0.2447 -0.5768
  485SOL    HW1 1454   2.188   0.832   0.774  0.3540 -0.0548 -1.8333
  485SOL    HW2 1455   2.120   0.681   0.762 -0.6682  1.1350 -1.4423
  486SOL     OW 1456   1.952   2.703   2.039 -0.1454  0.6311 -0.0781
  486SOL    HW1 1457   2.027   2.708   2.113  2.4790  1.0955  1.3125
  486SOL    HW2 1458   1.869   2.755   2.066  2.9769  0.7273  0.7845
  487SOL     OW 1459   1.215   1.915   0.698  0.0072 -0.1488 -0.6539
  487SOL    HW1 1460   1.113   1.915   0.693  0.0296 -1.0953  0.0604
  487SOL    HW2 1461   1.256   1.841   0.757  1.5584 -0.4754  2.3524
  488SOL     OW 1462   2.051   0.283   0.143 -0.1322 -0.1194 -0.1406
  488SOL    HW1 1463   2.068   0.329   0.228  1.4301  2.4752 -2.2462
  488SOL    HW2 1464   2.070   0.348   0.067  0.0420  0.1611  0.1571
  489SOL     OW 1465   1.915   2.970   0.615  0.3843 -0.0291  0.2357
  489SOL    HW1 1466   1.908   3.061   0.657  3.4197  0.1726 -0.8671
  489SOL    HW2 1467   1.900   2.974   0.513 -1.3074  1.6364 -0.7385
  490SOL     OW 1468   1.697   2.818   2.990 -0.3136  0.0529 -0.2427
  490SOL    HW1 1469   1.792   2.819   3.033  0.7924 -1.6907  1.3019
  490SOL    HW2 1470   1.623   2.856   3.058 -2.8331 -1.6721  0.1394
  491SOL     OW 1471   0.813   0.266   1.069  0.2386 -0.2821  0.1958
  491SOL    HW1 1472   0.854   0.174   1.088  1.1845 -1.4537  2.2787
  491SOL    HW2 1473   0.738   0.283   1.136  0.9402 -0.3091  1.2045
  492SOL     OW 1474   1.700   0.021   0.337  0.5706  0.4608 -0.4294
  492SOL    HW1 1475   1.616   3.082   0.323 -0.4903 -0.4022 -0.5468
  492SOL    HW2 1476   1.784   3.084   0.334 -2.4063  0.6741  1.6157
  493SOL     OW 1477   1.832   2.346   2.794  0.8292 -0.2145 -0.0668
  493SOL    HW1 1478   1.761   2.388   2.732 -2.3515 -0.8414 -0.0311
  493SOL    HW2 1479   1.922   2.367   2.759 -3.0334  0.6254 -1.1716
  494SOL     OW 1480   0.328   1.019   0.902  0.3664  0.2073 -0.9711
  494SOL    HW1 1481   0.421   0.984   0.875  0.6166 -3.9927 -1.0347
  494SOL    HW2 1482   0.272   1.032   0.819 -0.4976  0.2103  1.0516
  495SOL     OW 1483   2.997   0.121   1.739  0.1103  0.4614  0.3745
  495SOL    HW1 1484   3.101   0.137   1.734  0.2341  0.4897 -1.5767
  495SOL    HW2 1485   2.972   0.036   1.680  0.7395 -3.1776 -1.6577
  496SOL     OW 1486   2.712   2.492   2.158  0.1246 -0.2044 -0.3366
  496SOL    HW1 1487   2.804   2.518   2.115  1.5676  2.7336 -1.7540
  496SOL    HW2 1488   2.657   2.430   2.103 -0.7734 -0.1704  1.7065
  497SOL     OW 1489   1.584   1.216   2.472 -0.5158  0.5501  0.1882
  497SOL    HW1 1490   1.571   1.230   2.374  0.5184 -0.2146  0.6921
  497SOL    HW2 1491   1.545   1.128   2.506  1.2152 -3.2269  0.2993
  498SOL     OW 1492   0.746   1.774   0.803  0.6154 -0.2899  0.7822
  498SOL    HW1 1493   0.692   1.793   0.888  0.4136 -0.4843  0.1507
  498SOL    HW2 1494   0.677   1.784   0.727 -6.0004 -1.3007 -0.0042
  499SOL     OW 1495   0.193   1.712   1.240 -0.4340 -0.0737 -0.4653
  499SOL    HW1 1496   0.091   1.718   1.245 -0.6628 -0.1262 -2.0811
  499SOL    HW2 1497   0.238   1.766   1.315 -0.6500  1.2901  1.2528
  500SOL     OW 1498   1.255   2.410   0.054 -0.1010  0.3276  0.0170
  500SOL    HW1 1499   1.329   2.434   0.122  0.7734 -2.9435 -0.8171
  500SOL    HW2 1500   1.190   2.337   0.089 -2.0695 -2.0740  1.9859
  501SOL     OW 1501   1.991   2.587   0.958  0.6516 -0.3815 -0.5992
  501SOL    HW1 1502   2.077   2.564   0.910  1.2105 -0.0912 -1.0322
  501SOL    HW2 1503   1.960   2.668   0.908  2.8304 -0.9904 -0.0194
  502SOL     OW 1504   0.261   0.836   1.609  0.1283 -0.2349 -0.6397
  502SOL    HW1 1505   0.256   0.803   1.515  2.1908  3.5159  3.8493
  502SOL    HW2 1506   0.307   0.766   1.665 -0.3666 -2.6203 -0.2702
  503SOL     OW 1507   2.159   0.067   1.608  0.1880  0.2532 -0.0339
  503SOL    HW1 1508   2.063   0.036   1.627 -1.9994  0.2290  0.1814
  503SOL    HW2 1509   2.219   3.110   1.625  2.1352 -1.7237 -4.0999
  504SOL     OW 1510   2.020   0.832   1.865  0.2275 -0.0790 -0.3538
  504SOL    HW1 1511   1.975   0.779   1.941  1.6141 -0.8434  1.9134
  504SOL    HW2 1512   1.977   0.925   1.848 -3.3372 -0.3382  1.0737
  505SOL     OW 1513   1.250   0.003   2.075  0.1468 -0.3083 -0.2217
  505SOL    HW1 1514   1.299   0.068   2.016  1.3105 -2.2745  1.3123
  505SOL    HW2 1515   1.318   3.098   2.151  1.8060  0.5581  3.7406
  506SOL     OW 1516   0.358   0.258   1.790  0.0789  0.1777  0.6125
  506SOL    HW1 1517   0.327   0.324   1.860  2.9813 -2.6738 -2.8793
  506SOL    HW2 1518   0.448   0.211   1.815 -1.8436 -1.1085 -0.3105
  507SOL     OW 1519   1.655   0.189   3.106  0.2433  0.3333  0.2518
  507SOL    HW1 1520   1.707   0.225   0.065  0.6995  1.7362  1.4277
  507SOL    HW2 1521   1.592   0.127   0.027  1.4353  0.0575 -1.3646
  508SOL     OW 1522   2.306   0.657   2.578  0.2442 -0.1463 -0.2285
  508SOL    HW1 1523   2.349   0.607   2.660 -0.7133 -0.9658  2.1640
  508SOL    HW2 1524   2.356   0.631   2.492  1.0680 -1.3058  0.8136
  509SOL     OW 1525   0.735   1.518   1.952  0.4053  0.1187 -0.1806
  509SOL    HW1 1526   0.764   1.493   2.047 -1.1605 -1.0717  1.5190
  509SOL    HW2 1527   0.779   1.607   1.919 -0.7770  0.5680 -0.9455
  510SOL     OW 1528   3.033   0.418   1.001 -0.3071  0.0421  0.4498
  510SOL    HW1 1529   3.072   0.497   0.954 -1.5387 -0.9871 -0.5625
  510SOL    HW2 1530   2.980   0.367   0.933  2.1451  1.9851 -0.3288
  511SOL     OW 1531   1.714   1.528   1.024  0.2239  0.2569  0.3455
  511SOL    HW1 1532   1.679   1.567   0.935 -2.3948  0.4431 -0.3581
  511SOL    HW2 1533   1.765   1.597   1.083 -0.9741 -1.7465 -0.4725
  512SOL     OW 1534   0.720   1.150   0.372 -0.4306  0.2249 -0.1119
  512SOL    HW1 1535   0.626   1.118   0.358  3.6895  1.9253  2.8413
  512SOL    HW2 1536   0.725   1.235   0.431  1.7374  2.2640  0.4121
  513SOL     OW 1537   0.364   2.257   0.904 -0.0295 -0.0726  0.3703
  513SOL    HW1 1538   0.309   2.326   0.958  0.7130 -0.0758  2.1819
  513SOL    HW2 1539   0.379   2.285   0.808  0.2311  0.5084 -1.0323
  514SOL     OW 1540   0.079   2.220   0.109  0.7135 -0.2273  0.3070
  514SOL    HW1 1541   0.066   2.121   0.128 -0.7514 -1.1104  0.3165
  514SOL    HW2 1542   0.143   2.259   0.178  2.5270 -0.1411  0.6221
  515SOL     OW 1543   2.880   0.248   0.087  0.1838  0.2493  0.4699
  515SOL    HW1 1544   2.806   0.181   0.112 -0.1235  1.5324  1.4870
  515SOL    HW2 1545   2.940   0.286   0.164  1.1642  0.2395  2.1084
  516SOL     OW 1546   2.092   2.970   0.984  0.6528  0.0180  0.1710
  516SOL    HW1 1547   2.138   2.939   1.070  0.6155  1.2743  0.3254
  516SOL    HW2 1548   2.110   2.905   0.906 -1.6571 -0.1769  0.3611
  517SOL     OW 1549   1.263   1.438   0.276  0.0650 -0.5560  0.0457
  517SOL    HW1 1550   1.338   1.417   0.340  1.8139 -0.8029 -0.6190
  517SOL    HW2 1551   1.176   1.412   0.318  1.6932  2.6162 -0.0539
  518SOL     OW 1552   1.423   0.708   1.385  0.2258 -0.5205  0.1500
  518SOL    HW1 1553   1.455   0.612   1.364  2.5009 -0.7909  1.2072
  518SOL    HW2 1554   1.320   0.703   1.403 -0.3027  2.0500 -0.0186
  519SOL     OW 1555   2.935   2.221   0.351 -0.5955  0.4668  0.3803
  519SOL    HW1 1556   2.896   2.228   0.257 -1.8053  0.9983 -3.4610
  519SOL    HW2 1557   2.874   2.189   0.427  0.3705  3.1730  1.6059
  520SOL     OW 1558   2.295   2.174   1.869  0.6578 -0.0025 -0.1670
  520SOL    HW1 1559   2.342   2.205   1.782 -0.1972  0.6644 -1.1493
  520SOL    HW2 1560   2.331   2.214   1.953  1.6247  1.0386 -1.0590
  521SOL     OW 1561   1.441   3.004   2.199 -0.2330 -0.2063 -0.0850
  521SOL    HW1 1562   1.471   2.952   2.282  1.8422 -1.5317 -3.1421
  521SOL    HW2 1563   1.522   3.061   2.163  1.5229  0.8281 -0.0469
  522SOL     OW 1564   2.870   0.130   1.978  0.1115 -0.3646  0.1460
  522SOL    HW1 1565   2.885   0.215   2.029  1.4158 -2.0965  1.2423
  522SOL    HW2 1566   2.923   0.121   1.892 -0.7492 -1.1414  0.9424
  523SOL     OW 1567   1.368   2.082   1.561 -0.2662 -0.0650 -0.0949
  523SOL    HW1 1568   1.373   2.126   1.654  1.6711  1.0946  1.3156
  523SOL    HW2 1569   1.269   2.090   1.529  2.8332  0.7580 -1.8835
  524SOL     OW 1570   2.119   2.401   2.949  0.2592  0.6172  0.2896
  524SOL    HW1 1571   2.201   2.341   2.970 -2.3086  0.0859  0.8308
  524SOL    HW2 1572   2.049   2.409   3.020 -1.2094 -0.8203 -0.5527
  525SOL     OW 1573   2.917   0.987   0.480  0.2935 -0.3051  0.1538
  525SOL    HW1 1574   2.986   0.952   0.417  1.1967  0.6942  0.9592
  525SOL    HW2 1575   2.846   0.917   0.475  1.0199  0.1225 -0.4093
  526SOL     OW 1576   1.088   2.827   0.867 -0.2557 -0.1896  0.0397
  526SOL    HW1 1577   1.109   2.826   0.771 -1.1027 -1.5273  1.8200
  526SOL    HW2 1578   1.091   2.731   0.908  0.3663 -1.3909 -1.6491
  527SOL     OW 1579   2.256   1.487   0.675  0.1823 -0.1350 -0.4481
  527SOL    HW1 1580   2.244   1.385   0.670  2.3859  3.2629  0.9900
  527SOL    HW2 1581   2.303   1.529   0.597 -2.3457 -0.1882  0.1905
  528SOL     OW 1582   0.484   0.828   2.599 -0.0277 -0.3300 -0.1441
  528SOL    HW1 1583   0.550   0.861   2.531  0.2170 -0.8850 -0.0818
  528SOL    HW2 1584   0.392   0.826   2.557 -0.5861  4.0505  0.5812
  529SOL     OW 1585   0.537   1.465   3.038  0.2303  0.0869  0.7695
  529SOL    HW1 1586   0.448   1.501   3.002 -0.3759 -1.5822 -0.0858
  529SOL    HW2 1587   0.529   1.364   3.051  0.6403 -0.4941  0.0447
  530SOL     OW 1588   1.492   1.051   1.994  0.0984  0.4687  0.2661
  530SOL    HW1 1589   1.581   1.003   1.965  1.1432  1.6321  3.3468
  530SOL    HW2 1590   1.434   0.994   2.057  1.1203  1.7844 -1.5674
  531SOL     OW 1591   1.266   2.300   2.769 -0.1999 -0.4679  0.6017
  531SOL    HW1 1592   1.163   2.286   2.787 -1.0926  0.3486 -0.1703
  531SOL    HW2 1593   1.318   2.222   2.799  1.3880  3.0711 -0.1241
  532SOL     OW 1594   2.371   0.709   0.154 -0.2076 -0.0547  0.1615
  532SOL    HW1 1595   2.418   0.799   0.147  1.5500 -1.2311 -0.7077
  532SOL    HW2 1596   2.435   0.634   0.144  2.0920  1.7262  1.0482
  533SOL     OW 1597   0.043   0.454   1.879 -0.4564  0.1533  0.1498
  533SOL    HW1 1598   0.081   0.447   1.785 -1.2800  1.0556  2.5860
  533SOL    HW2 1599   3.086   0.519   1.880  0.7857 -0.4941 -1.7533
  534SOL     OW 1600   1.776   0.244   0.232 -0.6453  0.1062 -0.1072
  534SOL    HW1 1601   1.767   0.148   0.277  0.2527 -1.7145  1.4806
  534SOL    HW2 1602   1.876   0.258   0.223 -1.8156 -0.0877  0.0497
  535SOL     OW 1603   0.561   0.360   0.176  0.2611  0.3884 -0.2137
  535SOL    HW1 1604   0.618   0.305   0.116  0.4810 -2.4223 -0.8482
  535SOL    HW2 1605   0.619   0.419   0.237  0.4122  0.8021 -0.3643
  536SOL     OW 1606   0.407   1.629   1.658  0.4395  0.4338  0.3185
  536SOL    HW1 1607   0.381   1.726   1.635  3.5583  0.6100  0.8678
  536SOL    HW2 1608   0.507   1.610   1.635  5.0250  2.0504 -1.9827
  537SOL     OW 1609   0.432   2.743   1.851 -0.0623 -0.3356  0.1753
  537SOL    HW1 1610   0.509   2.754   1.918  2.1975 -1.0652  0.3218
  537SOL    HW2 1611   0.398   2.832   1.817 -0.1928  0.2327  0.2857
  538SOL     OW 1612   3.073   1.922   0.167  0.0657 -0.8423  0.2076
  538SOL    HW1 1613   3.103   1.845   0.107  0.2379 -0.2194 -5.4849
  538SOL    HW2 1614   2.987   1.962   0.133 -1.7162  1.3094  2.5260
  539SOL     OW 1615   2.701   0.679   2.823 -0.3167 -0.3786 -0.5312
  539SOL    HW1 1616   2.734   0.679   2.726 -1.4816  0.4467 -0.8020
  539SOL    HW2 1617   2.772   0.650   2.890  2.2491 -4.0670  1.6661
  540SOL     OW 1618   1.691   0.812   0.081  0.5029 -0.0236 -0.3964
  540SOL    HW1 1619   1.732   0.785   3.112 -0.9745  1.7077  0.0256
  540SOL    HW2 1620   1.591   0.842   0.075  0.3518  0.5787 -0.2890
  541SOL     OW 1621   0.816   0.494   1.567 -0.0749  0.5472 -0.2321
  541SOL    HW1 1622   0.799   0.502   1.666  2.2496 -2.2834 -2.8800
  541SOL    HW2 1623   0.752   0.549   1.512  4.7085 -2.5271  2.1589
  542SOL     OW 1624   1.811   2.417   2.201 -0.5234  0.0310 -0.0363
  542SOL    HW1 1625   1.870   2.474   2.137 -0.9353  0.1670 -0.8586
  542SOL    HW2 1626   1.816   2.320   2.180 -0.8872  1.7416  1.2488
  543SOL     OW 1627   0.800   2.762   0.958 -0.2959  0.5024  0.0030
  543SOL    HW1 1628   0.719   2.801   0.911 -0.5993 -0.0359  0.2710
  543SOL    HW2 1629   0.882   2.760   0.898  1.1609 -1.6683 -0.6555
  544SOL     OW 1630   2.733   1.505   2.219 -0.1388 -0.4143 -0.1423
  544SOL    HW1 1631   2.779   1.472   2.134  1.3867 -0.8295  0.3213
  544SOL    HW2 1632   2.795   1.556   2.284  1.4206  2.6663 -0.4878
  545SOL     OW 1633   1.576   2.105   1.366 -0.0647  0.2354 -0.2712
  545SOL    HW1 1634   1.537   2.090   1.273 -0.0479  1.3001  1.3806
  545SOL    HW2 1635   1.501   2.096   1.434 -1.3914 -0.4831  0.9892
  546SOL     OW 1636   0.408   0.197   2.440 -0.1515 -0.6725  0.2355
  546SOL    HW1 1637   0.338   0.126   2.424 -0.4798 -1.4631  2.1883
  546SOL    HW2 1638   0.390   0.244   2.528 -0.5496  0.3181  0.2972
  547SOL     OW 1639   1.475   0.224   0.671 -0.1082 -0.0677  0.5441
  547SOL    HW1 1640   1.421   0.312   0.670 -1.7925  0.5382 -0.9911
  547SOL    HW2 1641   1.433   0.152   0.727 -1.5808 -1.0211 -1.4535
  548SOL     OW 1642   1.420   2.082   2.875 -0.0077 -0.5005 -1.1732
  548SOL    HW1 1643   1.413   2.039   2.781  0.2860  1.3678  0.6897
  548SOL    HW2 1644   1.511   2.060   2.914 -2.7151 -0.0528 -2.5023
  549SOL     OW 1645   1.711   1.089   0.213  0.5364  0.4139  0.0712
  549SOL    HW1 1646   1.758   1.014   0.173 -0.6608  1.7793 -0.5054
  549SOL    HW2 1647   1.662   1.061   0.302 -3.7690  0.6743  0.1764
  550SOL     OW 1648   2.372   2.048   0.391  0.4610 -0.0720  0.8068
  550SOL    HW1 1649   2.294   1.990   0.430  0.1488  0.8270  0.4558
  550SOL    HW2 1650   2.357   2.139   0.424  1.0278 -0.4543 -0.3337
  551SOL     OW 1651   1.480   0.313   1.515 -0.0226  0.1838  0.3577
  551SOL    HW1 1652   1.538   0.365   1.454 -0.5541 -3.8587  1.3464
  551SOL    HW2 1653   1.533   0.240   1.564  1.0621 -1.6553  2.8101
  552SOL     OW 1654   3.043   2.310   2.892 -0.0546  0.2473  0.0560
  552SOL    HW1 1655   2.992   2.235   2.844  0.2954  1.1936  0.3306
  552SOL    HW2 1656   2.979   2.347   2.963  0.7164  1.1686  0.6549
  553SOL     OW 1657   2.886   2.499   0.818  0.6498 -0.2548 -0.0220
  553SOL    HW1 1658   2.971   2.458   0.783 -0.7095  2.0397  1.0835
  553SOL    HW2 1659   2.833   2.431   0.867  1.3446  0.9182 -0.2775
  554SOL     OW 1660   2.162   1.711   1.846 -0.3660 -0.3832  0.0691
  554SOL    HW1 1661   2.226   1.693   1.925  1.9108  0.1062  2.6063
  554SOL    HW2 1662   2.107   1.630   1.824 -1.5250  2.9191 -0.6120
  555SOL     OW 1663   1.484   2.130   2.262 -0.2288  0.0149 -0.7801
  555SOL    HW1 1664   1.401   2.077   2.304 -4.1138 -0.6496  0.6249
  555SOL    HW2 1665   1.457   2.225   2.234  0.7412  0.3299  0.9444
  556SOL     OW 1666   1.291   1.626   1.429 -0.2193  0.4123  0.0714
  556SOL    HW1 1667   1.343   1.683   1.491  0.7209  0.7021 -1.6760
  556SOL    HW2 1668   1.336   1.530   1.424  2.3214 -5.1124 -2.8679
  557SOL     OW 1669   1.580   0.103   1.668 -0.0281 -0.5763  0.0690
  557SOL    HW1 1670   1.645   0.110   1.746 -2.6231 -1.9360 -0.8474
  557SOL    HW2 1671   1.488   0.094   1.711 -0.7347  1.4264 -1.9616
  558SOL     OW 1672   0.549   3.082   2.141 -0.3870 -0.0440 -0.5287
  558SOL    HW1 1673   0.447   3.059   2.143 -0.0281 -1.0181  0.0924
  558SOL    HW2 1674   0.569   0.050   2.187 -1.8268 -1.4535  0.4596
  559SOL     OW 1675   1.928   2.421   0.016  0.0125  0.2051 -0.0522
  559SOL    HW1 1676   1.835   2.441   3.098 -2.2261 -0.2968  1.2901
  559SOL    HW2 1677   1.933   2.443   0.118 -1.8626 -0.9658  1.8227
  560SOL     OW 1678   1.308   2.076   0.312 -0.4232 -0.7394 -0.1303
  560SOL    HW1 1679   1.307   1.981   0.356  1.5105  1.3722  1.9102
  560SOL    HW2 1680   1.391   2.090   0.256 -1.0015  0.7437 -1.4656
  561SOL     OW 1681   1.292   0.205   2.952  0.5837 -0.3174 -0.4040
  561SOL    HW1 1682   1.277   0.304   2.921  3.6353  2.5095  0.9963
  561SOL    HW2 1683   1.390   0.189   2.929 -0.2302 -0.7802  1.7470
  562SOL     OW 1684   0.305   1.497   2.095 -0.5118  0.5850 -0.3425
  562SOL    HW1 1685   0.226   1.460   2.049  2.0489 -1.4105 -2.1419
  562SOL    HW2 1686   0.379   1.501   2.028 -0.1123  1.2120  0.8460
  563SOL     OW 1687   1.308   1.929   2.612  0.1716  0.2472  0.2161
  563SOL    HW1 1688   1.413   1.918   2.616  0.8753  0.3936 -0.1286
  563SOL    HW2 1689   1.273   1.970   2.525 -2.2402 -1.6675  3.3839
  564SOL     OW 1690   2.969   1.265   0.836  0.2054 -0.6299  0.1069
  564SOL    HW1 1691   2.887   1.210   0.855 -2.3404  0.3010  2.0972
  564SOL    HW2 1692   2.996   1.320   0.918  0.9805 -0.9008 -1.9085
  565SOL     OW 1693   0.417   1.241   0.086 -0.0417  0.9922  0.0355
  565SOL    HW1 1694   0.333   1.265   0.032 -0.1401  0.7770  0.4262
  565SOL    HW2 1695   0.390   1.196   0.176 -1.2687 -1.0047  0.4298
  566SOL     OW 1696   2.460   2.794   2.696 -0.1443  0.2209 -0.3682
  566SOL    HW1 1697   2.542   2.735   2.702 -0.6626 -1.8696  0.7789
  566SOL    HW2 1698   2.407   2.791   2.787 -0.0226  1.0983  3.1611
  567SOL     OW 1699   1.544   1.330   1.165  0.0040 -0.1478 -0.0249
  567SOL    HW1 1700   1.624   1.380   1.119  2.6256  1.2981  0.0073
  567SOL    HW2 1701   1.573   1.239   1.195 -0.5352  3.0632  0.2467
  568SOL     OW 1702   1.414   1.260   2.751 -0.4022  0.2961 -0.1573
  568SOL    HW1 1703   1.323   1.303   2.760 -1.0269 -1.0620  3.9252
  568SOL    HW2 1704   1.393   1.162   2.752  1.0001  2.5085  3.1687
  569SOL     OW 1705   2.300   1.633   0.041 -0.3817  0.4165 -0.0771
  569SOL    HW1 1706   2.360   1.708   0.000 -2.5082  2.0500  2.7570
  569SOL    HW2 1707   2.201   1.658   0.040  0.1354  1.5842  0.5005
  570SOL     OW 1708   0.060   2.502   1.708 -0.1932  0.1635  0.3741
  570SOL    HW1 1709   0.045   2.557   1.623  0.3263  1.3778 -0.6499
  570SOL    HW2 1710   0.095   2.562   1.781  0.4385  1.5663 -0.8707
  571SOL     OW 1711   2.833   2.048   1.660  0.2155  0.0797  0.0381
  571SOL    HW1 1712   2.814   1.949   1.668 -0.8981  0.7631  0.7682
  571SOL    HW2 1713   2.842   2.096   1.747  0.8921  0.5053 -1.8112
  572SOL     OW 1714   1.824   2.230   0.303 -0.0091 -0.3747  0.2600
  572SOL    HW1 1715   1.753   2.250   0.237  0.5842  0.4346  0.4817
  572SOL    HW2 1716   1.878   2.148   0.285  1.3377  0.3978  1.4940
  573SOL     OW 1717   1.354   1.813   0.460 -0.3559 -0.1461 -0.4533
  573SOL    HW1 1718   1.445   1.849   0.498  4.6769  2.6109 -1.0191
  573SOL    HW2 1719   1.274   1.815   0.522 -1.6854 -1.8210  0.2152
  574SOL     OW 1720   1.514   3.038   1.493  0.2777  0.1806  0.0960
  574SOL    HW1 1721   1.603   2.991   1.510  2.4440 -0.0730  2.8693
  574SOL    HW2 1722   1.518   3.115   1.557 -0.0436 -6.5526 -3.3228
  575SOL     OW 1723   0.588   1.310   1.387  0.4726  0.2413 -0.1325
  575SOL    HW1 1724   0.665   1.351   1.440 -1.7039 -3.6780 -0.7169
  575SOL    HW2 1725   0.588   1.317   1.285 -1.1535  0.4371 -0.1181
  576SOL     OW 1726   2.808   0.762   1.399 -0.1423 -0.5298 -0.0123
  576SOL    HW1 1727   2.799   0.660   1.384 -0.6749  0.1645 -1.5011
  576SOL    HW2 1728   2.785   0.811   1.309  0.0730  2.7543 -5.0600
  577SOL     OW 1729   1.463   0.986   2.514 -0.3053 -0.0443 -0.3106
  577SOL    HW1 1730   1.405   0.974   2.599 -0.9713 -0.5734  2.7154
  577SOL    HW2 1731   1.452   0.905   2.447 -0.0368 -3.2814 -0.0375
  578SOL     OW 1732   2.142   1.416   2.523 -0.1097 -0.4603 -0.0614
  578SOL    HW1 1733   2.090   1.437   2.609  2.7371  2.2085 -0.4451
  578SOL    HW2 1734   2.076   1.438   2.446  0.1792  0.7086 -0.5710
  579SOL     OW 1735   0.897   1.905   1.469  0.0208  0.1911 -0.7947
  579SOL    HW1 1736   0.839   1.930   1.543  1.4106 -2.3150 -0.4249
  579SOL    HW2 1737   0.861   1.941   1.380 -0.7437 -0.2115 -0.0515
  580SOL     OW 1738   1.529   2.020   0.169  0.1350 -0.2221 -0.0462
  580SOL    HW1 1739   1.537   2.109   0.121  1.3165  0.0310 -1.2246
  580SOL    HW2 1740   1.558   1.936   0.114  0.6528 -0.1645 -0.9731
  581SOL     OW 1741   1.022   0.596   1.864 -0.2494  0.3124  0.0087
  581SOL    HW1 1742   0.923   0.591   1.842  0.1439 -1.1183 -2.5990
  581SOL    HW2 1743   1.036   0.515   1.921 -0.8849 -0.2761  0.7367
  582SOL     OW 1744   0.952   1.258   1.238  0.3579  0.1066  0.3911
  582SOL    HW1 1745   0.950   1.158   1.268 -1.5573 -1.2758  2.6308
  582SOL    HW2 1746   0.942   1.320   1.317  2.9135  0.9668 -1.6735
  583SOL     OW 1747   0.647   1.042   2.088  0.2862 -0.2344 -0.6649
  583SOL    HW1 1748   0.605   1.088   2.008 -0.5804  1.4469 -1.2162
  583SOL    HW2 1749   0.684   1.114   2.153  0.0336  1.1843 -0.1489
  584SOL     OW 1750   1.915   2.499   0.334 -0.5876  0.0109  0.4372
  584SOL    HW1 1751   1.992   2.491   0.404  1.7398  0.2607  2.8840
  584SOL    HW2 1752   1.872   2.409   0.320  1.6648  3.4287  0.2156
  585SOL     OW 1753   1.898   0.184   2.973  0.6172 -0.2721 -0.4565
  585SOL    HW1 1754   1.802   0.163   3.011  0.1635  1.2899  0.3783
  585SOL    HW2 1755   1.910   0.176   2.870  1.4096  0.1881 -1.9009
  586SOL     OW 1756   3.011   2.040   0.610 -0.0778 -0.4801  1.3642
  586SOL    HW1 1757   2.926   2.087   0.587  5.3928  0.3773  2.0127
  586SOL    HW2 1758   3.050   2.074   0.697  0.1415  0.2867 -1.3519
  587SOL     OW 1759   1.791   1.799   0.284 -0.4832  0.2263  0.3981
  587SOL    HW1 1760   1.845   1.739   0.349 -0.3138  0.4230 -0.5304
  587SOL    HW2 1761   1.857   1.859   0.235  2.6768 -3.0294  3.2038
  588SOL     OW 1762   0.210   0.321   0.702  0.1075 -0.1358  0.1886
  588SOL    HW1 1763   0.179   0.291   0.790  1.1672  1.1143  0.5675
  588SOL    HW2 1764   0.285   0.268   0.659  0.8222  1.0740 -0.2954
  589SOL     OW 1765   1.176   1.021   0.930 -0.4802 -0.4347  0.1494
  589SOL    HW1 1766   1.261   1.059   0.888 -1.1321 -0.0541 -2.1138
  589SOL    HW2 1767   1.203   0.951   1.004 -0.0771 -0.6473  0.6714
  590SOL     OW 1768   1.372   1.132   0.040  0.2346  0.4017  0.0796
  590SOL    HW1 1769   1.400   1.208   0.095  1.5858 -3.5856 -1.3753
  590SOL    HW2 1770   1.286   1.152   3.115 -0.0060 -0.4507  0.4480
  591SOL     OW 1771   2.708   2.360   2.397  0.1744 -0.2890  0.4705
  591SOL    HW1 1772   2.605   2.357   2.403 -0.8949 -2.0921  0.4257
  591SOL    HW2 1773   2.731   2.402   2.306  0.1876  0.2455  0.7344
  592SOL     OW 1774   1.808   1.997   1.265 -0.7072  0.6178  0.4836
  592SOL    HW1 1775   1.809   1.900   1.231  0.6470 -1.8930 -0.0512
  592SOL    HW2 1776   1.717   2.026   1.301 -1.5244  1.4517  0.0285
  593SOL     OW 1777   0.909   0.001   1.092  0.0016 -0.0691 -0.2142
  593SOL    HW1 1778   0.878   3.041   1.142  1.7799 -1.2815  0.7994
  593SOL    HW2 1779   0.989   3.103   1.031  0.1295 -0.2749 -1.5805
  594SOL     OW 1780   2.959   0.658   2.386 -0.3156 -0.2387 -0.0055
  594SOL    HW1 1781   3.001   0.736   2.333 -1.1584  0.3185  1.2162
  594SOL    HW2 1782   2.985   0.564   2.357  2.3255  2.0314 -0.1257
  595SOL     OW 1783   0.726   2.643   1.285  0.0966 -0.0394  0.3189
  595SOL    HW1 1784   0.704   2.627   1.190 -1.6808  1.1799  2.1595
  595SOL    HW2 1785   0.646   2.609   1.342 -1.9732 -0.6379  0.8209
  596SOL     OW 1786   0.093   0.762   1.352 -0.0665 -0.4189  0.2380
  596SOL    HW1 1787   0.097   0.797   1.260  1.5703 -2.2136  2.1272
  596SOL    HW2 1788   0.016   0.803   1.403  0.7148 -2.4374 -2.3751
  597SOL     OW 1789   1.591   1.752   0.114 -0.2037  0.1897  0.2342
  597SOL    HW1 1790   1.498   1.744   0.158  1.1190  2.1134 -0.0314
  597SOL    HW2 1791   1.673   1.735   0.174  0.3458 -0.5564  0.4982
  598SOL     OW 1792   0.596   2.813   1.591 -0.4791  0.1371 -0.4387
  598SOL    HW1 1793   0.539   2.829   1.506 -2.9331  0.0725  1.1208
  598SOL    HW2 1794   0.605   2.713   1.613  1.9429  0.4354 -1.1382
  599SOL     OW 1795   2.422   1.814   3.015  0.5923 -0.0583 -0.1564
  599SOL    HW1 1796   2.367   1.871   2.954  1.4007 -2.2016  2.2782
  599SOL    HW2 1797   2.518   1.818   2.981 -4.3540  0.1188 -0.7600
  600SOL     OW 1798   0.738   0.737   0.318 -0.1779 -0.4558  0.1269
  600SOL    HW1 1799   0.799   0.805   0.359  0.3185  0.4846 -0.9911
  600SOL    HW2 1800   0.713   0.674   0.392  2.3347 -0.5538  0.1777
  601SOL     OW 1801   0.708   0.609   0.642 -0.3476  0.3670  0.4794
  601SOL    HW1 1802   0.737   0.706   0.656 -1.1597 -1.9831 -1.6390
  601SOL    HW2 1803   0.729   0.549   0.721  0.8859 -2.1420 -0.0814
  602SOL     OW 1804   1.418   2.835   0.765 -0.5520 -0.6781 -0.0026
  602SOL    HW1 1805   1.489   2.916   0.771 -0.7761  2.5130 -0.7470
  602SOL    HW2 1806   1.346   2.847   0.690 -0.6922 -1.1163  0.4034
  603SOL     OW 1807   0.751   2.913   2.107 -0.3570 -0.1627 -0.3544
  603SOL    HW1 1808   0.679   2.986   2.097 -0.7603  0.0510  1.3648
  603SOL    HW2 1809   0.815   2.906   2.027 -0.3368 -0.6175 -0.0703
  604SOL     OW 1810   2.972   2.951   2.391 -0.2878  0.1013  0.3804
  604SOL    HW1 1811   3.051   2.911   2.342 -1.9984 -0.6915  2.9945
  604SOL    HW2 1812   2.933   2.880   2.453 -0.0278  1.9083  1.5079
  605SOL     OW 1813   2.630   2.313   1.327  0.0882 -0.0212  0.1556
  605SOL    HW1 1814   2.687   2.337   1.408  2.3521  0.4737 -0.3299
  605SOL    HW2 1815   2.580   2.223   1.338 -0.6980  2.2216  1.3807
  606SOL     OW 1816   0.310   1.556   2.946 -0.3231 -0.3617  0.1948
  606SOL    HW1 1817   0.308   1.643   3.003 -1.8508  0.3955 -0.3144
  606SOL    HW2 1818   0.269   1.573   2.855  0.9713 -1.1733 -0.8940
  607SOL     OW 1819   0.837   3.074   0.395 -0.1629  0.2503  0.1820
  607SOL    HW1 1820   0.762   3.099   0.332  0.1273 -1.6341  0.1859
  607SOL    HW2 1821   0.930   3.098   0.354  0.7851  2.3792  1.4447
  608SOL     OW 1822   1.820   1.248   2.298 -0.8078  0.1854 -0.5047
  608SOL    HW1 1823   1.743   1.243   2.364 -1.3260 -1.7378 -0.1408
  608SOL    HW2 1824   1.788   1.252   2.204 -1.3087  0.4441  2.2751
  609SOL     OW 1825   0.133   0.236   0.963 -0.0095 -0.0452 -0.7436
  609SOL    HW1 1826   0.147   0.135   0.959 -0.8233  0.6678 -1.3149
  609SOL    HW2 1827   0.061   0.257   1.029  0.9844 -0.5484  0.5857
  610SOL     OW 1828   0.560   2.739   0.527 -0.2450 -0.2441  0.3690
  610SOL    HW1 1829   0.655   2.753   0.491  0.1534  0.5813 -2.4462
  610SOL    HW2 1830   0.561   2.754   0.625 -0.7780  2.5007  2.1476
  611SOL     OW 1831   1.778   0.905   2.916  0.7088  0.0177 -0.2949
  611SOL    HW1 1832   1.851   0.913   2.988  1.7604 -0.0715  1.5417
  611SOL    HW2 1833   1.712   0.981   2.932 -3.1181 -1.1106 -0.8634
  612SOL     OW 1834   0.798   2.316   2.390 -0.3000  0.0630 -0.2457
  612SOL    HW1 1835   0.795   2.218   2.429 -0.2632 -0.3833 -1.4204
  612SOL    HW2 1836   0.754   2.383   2.456 -0.5442  2.8917  2.1141
  613SOL     OW 1837   0.893   2.389   0.241 -0.5742  0.1704  0.2109
  613SOL    HW1 1838   0.820   2.364   0.304  1.2793  1.4282 -3.5120
  613SOL    HW2 1839   0.937   2.304   0.198  0.1776 -1.5787 -0.0761
  614SOL     OW 1840   2.861   2.714   1.422  0.0683  0.4722 -0.1864
  614SOL    HW1 1841   2.912   2.786   1.367  1.5249  1.3585  0.1030
  614SOL    HW2 1842   2.847   2.634   1.367  1.2391  0.3880  4.1907
  615SOL     OW 1843   2.372   1.369   3.021 -0.9153  0.1147 -0.1041
  615SOL    HW1 1844   2.325   1.454   3.042 -0.9844 -1.0848  0.2296
  615SOL    HW2 1845   2.335   1.321   2.941  0.5849  0.2438  0.4626
  616SOL     OW 1846   1.711   0.210   0.538 -0.5969  0.3412 -0.3806
  616SOL    HW1 1847   1.705   0.135   0.469  2.1408 -0.7435  0.6313
  616SOL    HW2 1848   1.620   0.252   0.564  0.9058 -2.4015  1.6850
  617SOL     OW 1849   1.005   0.805   0.028  0.8775 -0.7395 -0.6440
  617SOL    HW1 1850   1.005   0.823   3.048  0.2479  0.1167 -3.3079
  617SOL    HW2 1851   0.928   0.749   0.056  2.0054 -0.3553  0.6512
  618SOL     OW 1852   0.628   0.171   1.813 -0.5633 -0.0183  0.1465
  618SOL    HW1 1853   0.690   0.186   1.894  0.4404  0.6471 -0.1432
  618SOL    HW2 1854   0.598   0.073   1.798 -0.4886  0.7517 -0.6262
  619SOL     OW 1855   2.876   1.199   1.399  0.1994 -0.1993  0.0138
  619SOL    HW1 1856   2.942   1.258   1.343  0.6850  1.2926  0.2352
  619SOL    HW2 1857   2.866   1.235   1.493 -1.6403  0.6910 -0.0911
  620SOL     OW 1858   1.984   1.119   2.785  0.4298  0.2373 -0.1169
  620SOL    HW1 1859   1.980   1.061   2.700  0.6928  1.2835  1.5139
  620SOL    HW2 1860   1.944   1.073   2.867  2.2092  2.9012 -0.4692
  621SOL     OW 1861   2.634   2.877   1.352  0.0830 -0.1080 -0.8872
  621SOL    HW1 1862   2.611   2.873   1.250 -1.6876 -0.7160 -4.1277
  621SOL    HW2 1863   2.719   2.826   1.378  1.6243  0.7778 -1.0056
  622SOL     OW 1864   1.325   0.996   2.746  0.5907 -0.3581  0.3545
  622SOL    HW1 1865   1.227   1.012   2.767 -0.0501 -1.7798 -1.6583
  622SOL    HW2 1866   1.365   0.948   2.832  1.3276  0.3090  2.3840
  623SOL     OW 1867   1.315   0.470   2.861 -0.0299 -0.1641 -0.4489
  623SOL    HW1 1868   1.343   0.523   2.948  1.0869  0.8946  0.0271
  623SOL    HW2 1869   1.345   0.531   2.786 -0.2768  1.2444 -1.2349
  624SOL     OW 1870   1.911   0.678   0.218  0.1664  0.2214  0.5562
  624SOL    HW1 1871   1.835   0.727   0.165 -1.6038  2.2572 -1.1739
  624SOL    HW2 1872   2.002   0.678   0.164  1.9875 -1.4822  1.6065
  625SOL     OW 1873   1.036   1.248   0.973 -0.6528  0.3069 -0.0438
  625SOL    HW1 1874   1.059   1.150   0.956 -0.8534  2.3770  1.5505
  625SOL    HW2 1875   1.003   1.261   1.067  1.7837 -0.8384  0.6793
  626SOL     OW 1876   1.602   1.107   2.953  0.2429  0.2424  0.2303
  626SOL    HW1 1877   1.516   1.109   3.012 -2.9025 -3.6834  2.7101
  626SOL    HW2 1878   1.612   1.186   2.889 -0.2048  1.1571 -0.5418
  627SOL     OW 1879   0.995   0.080   2.076  0.0457  0.1323  0.5673
  627SOL    HW1 1880   0.936   0.016   2.126 -2.4195  0.0437  0.1445
  627SOL    HW2 1881   1.097   0.056   2.084  1.8918  0.0316 -0.3635
  628SOL     OW 1882   2.456   0.228   2.188  0.2442  0.4246  0.3600
  628SOL    HW1 1883   2.507   0.198   2.105 -1.7955  0.7383 -0.2667
  628SOL    HW2 1884   2.519   0.250   2.264  1.3867  2.1549 -0.4522
  629SOL     OW 1885   0.708   0.710   2.939  0.2180  0.1083 -0.2210
  629SOL    HW1 1886   0.783   0.752   2.884 -2.2175  0.2396  0.0113
  629SOL    HW2 1887   0.748   0.660   3.020  2.6060 -0.3637  2.2943
  630SOL     OW 1888   1.415   0.233   2.116  0.4539 -0.1971  0.2112
  630SOL    HW1 1889   1.429   0.209   2.213 -2.8629  0.4500 -0.5729
  630SOL    HW2 1890   1.503   0.256   2.067 -0.3031  1.5403  1.4710
  631SOL     OW 1891   3.027   0.700   0.587 -0.2230 -0.3471  0.1721
  631SOL    HW1 1892   2.958   0.640   0.543 -0.5691  1.6561  0.4391
  631SOL    HW2 1893   3.104   0.714   0.520  0.6969  0.2903 -0.7715
  632SOL     OW 1894   2.189   1.099   1.278  0.0832 -0.0813  0.0597
  632SOL    HW1 1895   2.132   1.127   1.201 -0.2761  3.4964 -3.0962
  632SOL    HW2 1896   2.220   1.003   1.260 -1.4558  1.2086  1.6378
  633SOL     OW 1897   1.611   0.744   1.124  0.2545 -0.1350  0.4517
  633SOL    HW1 1898   1.551   0.815   1.083 -2.1244  1.2332 -0.6163
  633SOL    HW2 1899   1.684   0.781   1.189  1.1254  0.9935  0.2796
  634SOL     OW 1900   1.841   3.055   1.161  0.4010 -0.1498 -0.0917
  634SOL    HW1 1901   1.932   3.036   1.116  2.1613 -0.5122 -2.6268
  634SOL    HW2 1902   1.778   2.983   1.128  1.3148  1.4323  0.5501
  635SOL     OW 1903   1.460   0.965   1.090  0.5805 -0.0583 -0.0193
  635SOL    HW1 1904   1.460   1.019   1.007  1.7930  0.6072 -1.2992
  635SOL    HW2 1905   1.521   1.014   1.157  2.1232 -0.3672  1.9387
  636SOL     OW 1906   0.980   0.675   0.798  0.2779 -0.1996 -0.8636
  636SOL    HW1 1907   1.052   0.674   0.875  2.6953  1.0223 -2.2029
  636SOL    HW2 1908   0.967   0.764   0.749  0.7352  1.3210  0.0259
  637SOL     OW 1909   2.058   2.370   0.529 -0.6478  0.2846  0.3489
  637SOL    HW1 1910   2.149   2.346   0.485  3.2741  1.0112  0.2991
  637SOL    HW2 1911   2.062   2.321   0.615 -0.4035  0.5222  0.7120
  638SOL     OW 1912   1.764   2.931   2.751 -0.2517 -0.0619  0.1969
  638SOL    HW1 1913   1.743   2.916   2.849  0.8449 -1.5490 -0.2795
  638SOL    HW2 1914   1.793   2.842   2.713 -0.9310 -1.6579  0.5778
  639SOL     OW 1915   0.838   2.181   1.304 -0.0026  0.2505 -0.2880
  639SOL    HW1 1916   0.879   2.272   1.274  2.4045  0.5959 -1.1904
  639SOL    HW2 1917   0.870   2.104   1.242 -0.3537 -0.6295  0.9508
  640SOL     OW 1918   2.744   2.679   0.628 -0.1709 -0.4408  0.4233
  640SOL    HW1 1919   2.796   2.615   0.688  1.8987  0.8888  1.7403
  640SOL    HW2 1920   2.798   2.761   0.611  0.3034 -0.3143  0.7905
  641SOL     OW 1921   0.312   0.510   0.125 -0.4118  0.0344  0.0750
  641SOL    HW1 1922   0.397   0.458   0.131 -0.6589  0.3922 -0.8531
  641SOL    HW2 1923   0.312   0.546   0.027  0.2741  1.8006 -0.3247
  642SOL     OW 1924   2.822   0.895   1.010  0.1579 -0.0688 -0.3757
  642SOL    HW1 1925   2.752   0.881   1.082 -1.4704 -1.9196 -0.9368
  642SOL    HW2 1926   2.786   0.962   0.938 -0.5785 -2.3865 -2.5929
  643SOL     OW 1927   0.633   1.800   2.158 -0.0493  0.1737 -0.2101
  643SOL    HW1 1928   0.712   1.766   2.103 -0.8835  1.4529  1.7626
  643SOL    HW2 1929   0.644   1.777   2.257  1.5588  1.8757  0.2195
  644SOL     OW 1930   1.630   2.548   0.417  0.6065  0.2250  0.1911
  644SOL    HW1 1931   1.596   2.490   0.489 -0.9227  3.3367 -1.1827
  644SOL    HW2 1932   1.724   2.529   0.394  0.6805 -0.0162 -0.8963
  645SOL     OW 1933   1.785   2.411   1.021  0.0289  0.2039  0.6396
  645SOL    HW1 1934   1.872   2.462   0.997  2.8434  0.7629  1.8527
  645SOL    HW2 1935   1.699   2.446   0.972 -3.2193  1.9420 -1.0972
  646SOL     OW 1936   1.191   2.698   0.377 -0.7710 -0.2436 -0.1661
  646SOL    HW1 1937   1.134   2.616   0.397 -0.7770 -2.3985 -1.3178
  646SOL    HW2 1938   1.164   2.733   0.288  1.8382 -1.4094  1.7753
  647SOL     OW 1939   0.546   3.025   1.740 -0.0917 -0.3257 -0.1567
  647SOL    HW1 1940   0.455   3.013   1.781  0.9023  0.7865 -3.0790
  647SOL    HW2 1941   0.582   2.943   1.688  0.3550 -2.6960 -1.1956
  648SOL     OW 1942   1.858   0.934   1.255 -0.4294  0.2450 -0.3498
  648SOL    HW1 1943   1.915   0.921   1.337 -0.0173  2.1036 -2.8991
  648SOL    HW2 1944   1.912   0.879   1.185 -1.2117  0.1266  0.2121
  649SOL     OW 1945   1.694   2.118   2.713 -0.3311  0.3123 -0.2021
  649SOL    HW1 1946   1.781   2.112   2.663 -3.4132  1.4813  1.0799
  649SOL    HW2 1947   1.708   2.182   2.790 -0.1074 -0.7541 -1.2433
  650SOL     OW 1948   2.519   1.681   1.785  0.5860  0.4661  0.2681
  650SOL    HW1 1949   2.601   1.689   1.842  0.3784 -2.5404 -1.8455
  650SOL    HW2 1950   2.467   1.768   1.773 -0.8684 -1.3158  2.1682
  651SOL     OW 1951   1.245   1.646   2.903 -0.3164 -0.1011 -0.2596
  651SOL    HW1 1952   1.220   1.563   2.845 -1.0833 -1.8238  0.1330
  651SOL    HW2 1953   1.344   1.673   2.886  1.3001 -1.2583 -0.3976
  652SOL     OW 1954   1.197   2.743   2.979 -0.1541 -0.2148  0.2941
  652SOL    HW1 1955   1.240   2.652   2.968 -1.8633 -0.7126  2.4849
  652SOL    HW2 1956   1.246   2.810   2.922 -0.9128  0.8026  1.6715
  653SOL     OW 1957   2.155   2.273   1.187 -0.5242 -0.1378  0.0189
  653SOL    HW1 1958   2.081   2.230   1.131  0.0894 -1.3391  4.0257
  653SOL    HW2 1959   2.150   2.243   1.285  1.4788  1.0532  2.2427
  654SOL     OW 1960   2.925   2.576   2.024 -0.1534  0.0289  0.0300
  654SOL    HW1 1961   2.895   2.669   1.996  1.6531 -0.1004  1.6838
  654SOL    HW2 1962   2.942   2.530   1.940  0.4407 -0.8741  0.4940
  655SOL     OW 1963   2.655   2.290   0.861 -0.5502 -0.4676 -0.2889
  655SOL    HW1 1964   2.700   2.207   0.886 -0.5434  0.8387  0.8184
  655SOL    HW2 1965   2.623   2.340   0.941 -2.0085  0.5810 -3.4193
  656SOL     OW 1966   0.388   2.711   2.699 -0.2648  0.2542 -0.3084
  656SOL    HW1 1967   0.441   2.725   2.612 -0.6485 -1.4070 -1.9752
  656SOL    HW2 1968   0.319   2.642   2.680 -0.6988  0.9287  0.6702
  657SOL     OW 1969   3.050   0.827   0.260  0.7032  0.1177  0.0635
  657SOL    HW1 1970   3.112   0.762   0.305  0.5136  1.0648  2.8673
  657SOL    HW2 1971   3.100   0.871   0.187 -1.7810 -0.0136 -0.0640
  658SOL     OW 1972   1.427   1.820   1.069  0.3706  0.3224  0.7496
  658SOL    HW1 1973   1.371   1.751   1.118  0.6235 -1.2892 -1.6319
  658SOL    HW2 1974   1.447   1.899   1.127  0.8064 -0.2782  0.0343
  659SOL     OW 1975   1.790   0.345   1.320 -0.0192  0.2917  0.2522
  659SOL    HW1 1976   1.762   0.246   1.334 -0.4003  1.3109  0.3703
  659SOL    HW2 1977   1.706   0.397   1.306  5.0905 -2.5931  2.5882
  660SOL     OW 1978   1.444   1.344   0.448 -0.3101  0.4494 -0.0468
  660SOL    HW1 1979   1.482   1.252   0.465 -3.0541 -0.5079 -1.2416
  660SOL    HW2 1980   1.425   1.403   0.529 -2.7571 -1.6845 -1.3513
  661SOL     OW 1981   0.067   1.964   0.405  0.1000  0.0416  0.1342
  661SOL    HW1 1982   0.009   1.932   0.330  2.1046  0.8959  0.5492
  661SOL    HW2 1983   0.019   2.001   0.486  1.1360 -0.1995 -0.3255
  662SOL     OW 1984   3.083   0.813   2.153  0.0351 -0.1575  0.7715
  662SOL    HW1 1985   3.052   0.736   2.094 -0.0442  0.3116  0.3150
  662SOL    HW2 1986   3.037   0.907   2.134  2.3374  0.1021 -0.5213
  663SOL     OW 1987   2.020   1.352   1.289  0.2214  0.1525 -0.3232
  663SOL    HW1 1988   1.979   1.435   1.331  0.7352  1.6912  2.8992
  663SOL    HW2 1989   1.997   1.274   1.349 -0.1370  0.9571  1.1060
  664SOL     OW 1990   0.696   0.421   0.879 -0.1677  0.3252  0.0093
  664SOL    HW1 1991   0.602   0.389   0.897  2.4781  1.9530 -1.5869
  664SOL    HW2 1992   0.757   0.356   0.934  0.2746 -1.0362  0.3354
  665SOL     OW 1993   1.298   2.938   2.819 -0.2730  0.1646  0.1618
  665SOL    HW1 1994   1.389   2.970   2.783 -0.7342  0.4759 -3.0135
  665SOL    HW2 1995   1.232   3.012   2.829 -0.0253 -0.5031  1.2584
  666SOL     OW 1996   0.204   0.555   2.444  0.1891 -0.0018 -0.3580
  666SOL    HW1 1997   0.255   0.526   2.363  0.5380  0.4403  0.4063
  666SOL    HW2 1998   0.133   0.487   2.468  0.3713  0.5250  0.3648
  667SOL     OW 1999   1.974   1.510   2.328 -0.0442  0.3316  0.2294
  667SOL    HW1 2000   1.967   1.577   2.254 -0.1834 -2.6996  0.5803
  667SOL    HW2 2001   1.938   1.420   2.296  2.4915  1.8771 -0.7822
  668SOL     OW 2002   0.157   1.545   2.703  0.2843  0.7185 -0.0412
  668SOL    HW1 2003   0.157   1.440   2.709  0.3673 -0.4193 -2.3037
  668SOL    HW2 2004   0.062   1.579   2.731  3.5852 -3.5527 -0.7016
  669SOL     OW 2005   2.176   2.952   2.439 -0.1800  0.0772 -0.2726
  669SOL    HW1 2006   2.221   3.039   2.406 -3.5150 -0.3028 -0.7506
  669SOL    HW2 2007   2.249   2.889   2.472 -1.7495  2.7444  0.4153
  670SOL     OW 2008   2.661   0.887   2.529 -0.0069 -0.6241  0.5326
  670SOL    HW1 2009   2.687   0.783   2.528  1.8753 -0.2754 -1.9319
  670SOL    HW2 2010   2.641   0.927   2.621  1.6409 -1.6488 -2.1707
  671SOL     OW 2011   2.484   1.683   0.269 -0.3080  0.2685 -0.6030
  671SOL    HW1 2012   2.559   1.673   0.194 -0.3648  1.2126 -0.4265
  671SOL    HW2 2013   2.395   1.655   0.225 -1.5002  0.0487 -0.1634
  672SOL     OW 2014   2.631   1.309   2.366  0.5158 -0.3516 -0.6628
  672SOL    HW1 2015   2.537   1.327   2.407 -1.2497 -1.7722  0.5168
  672SOL    HW2 2016   2.645   1.388   2.302 -1.9817 -0.7274 -4.5274
  673SOL     OW 2017   0.042   1.502   1.423  0.3943 -0.2379 -0.6242
  673SOL    HW1 2018   0.104   1.557   1.361 -1.0790  1.5469 -3.4094
  673SOL    HW2 2019   3.117   1.425   1.370 -1.0934 -4.0013  1.1679
  674SOL     OW 2020   1.487   1.744   1.995 -0.3546  0.0167  1.1563
  674SOL    HW1 2021   1.457   1.844   2.002 -1.8139 -1.0241 -1.8033
  674SOL    HW2 2022   1.585   1.732   2.025  3.2971  1.3373  1.3513
  675SOL     OW 2023   2.921   0.326   1.212 -0.2777  0.5953 -0.4178
  675SOL    HW1 2024   2.947   0.373   1.126 -1.1358 -1.5290  2.0061
  675SOL    HW2 2025   2.854   0.250   1.198  0.3963 -0.1287  2.2984
  676SOL     OW 2026   2.376   0.979   0.720 -0.4598  0.2819 -0.2095
  676SOL    HW1 2027   2.416   1.014   0.635  1.2877 -1.3471  3.7093
  676SOL    HW2 2028   2.415   0.885   0.737  0.1063 -0.8690  4.6270
  677SOL     OW 2029   1.548   1.396   2.239 -0.2648 -0.9081 -0.3488
  677SOL    HW1 2030   1.564   1.463   2.312 -0.7221 -1.1536 -0.2654
  677SOL    HW2 2031   1.459   1.402   2.203  3.7169 -0.3083  0.9010
  678SOL     OW 2032   2.326   1.342   0.984  0.4090 -0.0426  0.7598
  678SOL    HW1 2033   2.373   1.319   1.071  1.2960  2.5500 -1.8197
  678SOL    HW2 2034   2.311   1.443   0.975  0.4170 -2.0540  0.5219
  679SOL     OW 2035   0.419   2.678   0.968 -0.9175 -0.0393 -0.5033
  679SOL    HW1 2036   0.398   2.579   0.974 -3.1593  0.6772 -0.9875
  679SOL    HW2 2037   0.379   2.735   1.046 -0.3412  3.6114  0.8537
  680SOL     OW 2038   2.851   2.155   1.219  0.0734 -0.7078  0.0922
  680SOL    HW1 2039   2.850   2.065   1.277 -0.3619 -3.9276 -1.8417
  680SOL    HW2 2040   2.804   2.229   1.268 -2.4830 -2.5482 -2.7942
  681SOL     OW 2041   0.841   0.711   1.207 -0.0203 -0.2772 -0.1365
  681SOL    HW1 2042   0.907   0.630   1.204  2.4187  1.1123  1.6716
  681SOL    HW2 2043   0.770   0.689   1.139 -1.4446  0.9094 -1.7067
  682SOL     OW 2044   1.549   3.052   0.850 -0.4604 -0.0940 -0.1714
  682SOL    HW1 2045   1.523   3.115   0.926 -0.1354  3.1895 -0.3233
  682SOL    HW2 2046   1.641   3.078   0.829  0.0176 -2.1311  0.2994
  683SOL     OW 2047   2.366   1.449   1.792  0.0441  0.3336 -0.6393
  683SOL    HW1 2048   2.420   1.536   1.803  0.1793  1.7223  0.5691
  683SOL    HW2 2049   2.280   1.466   1.737  1.1621 -0.0350 -2.6025
  684SOL     OW 2050   0.316   1.889   1.677  0.0780 -0.1995  0.0532
  684SOL    HW1 2051   0.377   1.965   1.704 -0.1180 -1.0617  0.4068
  684SOL    HW2 2052   0.228   1.891   1.732 -0.8161  0.7712 -1.6106
  685SOL     OW 2053   1.976   1.653   0.445 -0.2843 -0.6644  0.2492
  685SOL    HW1 2054   1.968   1.606   0.536 -2.4794 -3.3527  1.7455
  685SOL    HW2 2055   2.022   1.586   0.385 -0.3621  0.0893  2.9628
  686SOL     OW 2056   3.097   0.260   0.570  0.0095 -0.0551 -0.5960
  686SOL    HW1 2057   0.069   0.288   0.609  1.0614  1.5568 -1.8076
  686SOL    HW2 2058   3.015   0.281   0.629  1.0778 -0.8537  0.1988
  687SOL     OW 2059   1.522   3.071   2.720  0.8324 -0.1387 -0.6199
  687SOL    HW1 2060   1.516   0.045   2.764 -1.2678 -1.4291  0.2937
  687SOL    HW2 2061   1.612   3.031   2.720 -1.9364  0.4388 -1.0862
  688SOL     OW 2062   1.735   1.832   2.439  0.1199  0.7838 -0.2589
  688SOL    HW1 2063   1.826   1.788   2.448 -0.8519 -1.2384 -3.4517
  688SOL    HW2 2064   1.726   1.891   2.358  1.5895 -0.0381 -1.9060
  689SOL     OW 2065   2.682   1.022   2.027  0.2492 -0.0181  0.2382
  689SOL    HW1 2066   2.619   1.100   2.043 -0.6346 -1.2728  0.8414
  689SOL    HW2 2067   2.762   1.045   2.081 -2.6464 -1.1658 -2.1495
  690SOL     OW 2068   1.846   1.728   1.160 -0.3056  0.0870  0.7181
  690SOL    HW1 2069   1.927   1.749   1.098 -0.3499  1.8359 -2.9476
  690SOL    HW2 2070   1.869   1.688   1.248 -2.7113 -3.0282 -0.9813
  691SOL     OW 2071   0.792   1.421   1.081  0.1177 -0.4280  0.5423
  691SOL    HW1 2072   0.861   1.388   1.141 -1.4716 -1.3071  0.3910
  691SOL    HW2 2073   0.711   1.357   1.078 -1.1157 -1.5901 -0.3066
  692SOL     OW 2074   2.264   3.048   2.073 -0.1037 -0.0716  0.3557
  692SOL    HW1 2075   2.231   0.004   2.012  1.6856 -0.0749 -0.7131
  692SOL    HW2 2076   2.256   3.077   2.174 -2.5254  1.5950 -0.3508
  693SOL     OW 2077   2.852   1.331   2.507  0.1159  0.7181 -0.2221
  693SOL    HW1 2078   2.936   1.340   2.453  1.5382  1.2679 -0.2425
  693SOL    HW2 2079   2.765   1.313   2.449 -1.9712  0.7721 -0.1100
  694SOL     OW 2080   2.288   0.175   1.137  0.1160 -0.1242 -0.2150
  694SOL    HW1 2081   2.289   0.117   1.227 -0.6620 -4.1245  0.7093
  694SOL    HW2 2082   2.231   0.260   1.147  0.4196  0.9319  0.5755
  695SOL     OW 2083   1.085   1.071   2.837  0.0183  0.1585 -0.2163
  695SOL    HW1 2084   1.089   1.126   2.928  0.2798  1.7033  2.3609
  695SOL    HW2 2085   1.061   1.134   2.759  2.2561 -2.1579  1.0014
  696SOL     OW 2086   2.144   0.334   1.638 -0.4837  0.1344  0.1651
  696SOL    HW1 2087   2.058   0.369   1.603  1.4695  0.4759 -1.1086
  696SOL    HW2 2088   2.160   0.237   1.612  1.5915  0.1464 -0.4524
  697SOL     OW 2089   1.487   0.472   2.325  0.0037  0.1051 -0.6983
  697SOL    HW1 2090   1.408   0.452   2.386  1.7961  0.1955  0.5707
  697SOL    HW2 2091   1.539   0.387   2.321  0.4491 -1.8724  3.1504
  698SOL     OW 2092   1.968   1.717   2.499  0.2863  0.1215 -0.2375
  698SOL    HW1 2093   1.991   1.702   2.599 -2.3833  1.0629 -0.5344
  698SOL    HW2 2094   1.985   1.635   2.439 -2.1599 -1.3982 -0.3553
  699SOL     OW 2095   1.538   1.035   0.430  0.4316 -0.1906 -0.0851
  699SOL    HW1 2096   1.443   1.008   0.429 -0.8859  1.5047 -0.6374
  699SOL    HW2 2097   1.584   0.990   0.507 -0.2134  0.1102  0.3317
  700SOL     OW 2098   1.529   2.910   0.056 -0.4763  0.3352 -0.1555
  700SOL    HW1 2099   1.486   2.998   0.070  0.7041 -3.6614 -3.1037
  700SOL    HW2 2100   1.489   2.834   0.113  0.8665  0.7562 -0.7574
  701SOL     OW 2101   0.096   0.491   1.217 -0.1962  0.3981  0.0983
  701SOL    HW1 2102   0.045   0.489   1.129  0.0158 -0.2712 -2.3574
  701SOL    HW2 2103   0.074   0.576   1.269 -0.8774  1.5691 -2.8255
  702SOL     OW 2104   1.879   0.027   1.610  0.0004  0.3554 -0.2397
  702SOL    HW1 2105   1.838   0.089   1.541  1.2155 -1.4487 -1.3247
  702SOL    HW2 2106   1.846   3.051   1.596 -0.0970  1.0700 -1.0902
  703SOL     OW 2107   2.816   0.483   1.416  0.0718  0.1908 -0.8882
  703SOL    HW1 2108   2.794   0.424   1.495  1.6491 -1.9780 -2.0166
  703SOL    HW2 2109   2.869   0.438   1.344  0.3281 -0.6866  0.3676
  704SOL     OW 2110   1.144   2.201   1.159  0.4998 -0.0047  0.4216
  704SOL    HW1 2111   1.132   2.303   1.151 -2.7555  0.1793 -0.5483
  704SOL    HW2 2112   1.133   2.163   1.065  1.2893  1.6994 -0.8635
  705SOL     OW 2113   0.132   1.969   2.327  0.9547  0.5088 -0.6429
  705SOL    HW1 2114   0.222   2.011   2.314 -2.8041  1.2411 -0.9649
  705SOL    HW2 2115   0.107   1.909   2.250  0.4606  0.6994 -1.2123
  706SOL     OW 2116   2.650   0.377   2.643  0.2447 -0.4278  0.2936
  706SOL    HW1 2117   2.558   0.405   2.674 -0.6472  1.5050  2.7955
  706SOL    HW2 2118   2.701   0.328   2.716  2.7592  0.2383 -0.6918
  707SOL     OW 2119   1.751   2.767   2.386 -0.1801 -0.5502 -0.1209
  707SOL    HW1 2120   1.762   2.791   2.289  0.4257 -0.1151  1.1790
  707SOL    HW2 2121   1.704   2.844   2.434 -0.0277  1.4298  0.0029
  708SOL     OW 2122   0.750   2.368   1.509  0.3217  0.7320 -0.4738
  708SOL    HW1 2123   0.671   2.403   1.457 -0.8252 -3.4987  3.1599
  708SOL    HW2 2124   0.805   2.299   1.458  0.9053 -1.0573  1.1520
  709SOL     OW 2125   2.843   0.878   1.840 -0.0777  0.0454  0.1497
  709SOL    HW1 2126   2.789   0.934   1.907  1.1496  2.7686  1.2221
  709SOL    HW2 2127   2.933   0.920   1.823 -1.5659 -3.1011 -0.7766
  710SOL     OW 2128   0.024   0.392   1.559  0.2181 -0.1258  0.4276
  710SOL    HW1 2129   3.089   0.341   1.489 -1.6344  0.1480 -0.8021
  710SOL    HW2 2130   3.091   0.466   1.603 -0.7350 -0.0449  0.9079
  711SOL     OW 2131   3.118   2.829   0.957  0.1980  0.4564  0.3364
  711SOL    HW1 2132   0.031   2.835   1.053  2.1950  2.2779 -0.9028
  711SOL    HW2 2133   0.027   2.739   0.917 -1.8365 -0.9968 -1.3534
  712SOL     OW 2134   0.456   2.883   2.360 -0.0912 -0.2975  0.4281
  712SOL    HW1 2135   0.515   2.960   2.391 -0.3188 -0.3393 -0.1210
  712SOL    HW2 2136   0.506   2.807   2.319 -0.6318  4.1218  0.8085
  713SOL     OW 2137   2.377   0.348   0.262  0.2818 -0.5001 -0.0187
  713SOL    HW1 2138   2.282   0.383   0.274 -1.5798 -0.3281 -1.1957
  713SOL    HW2 2139   2.422   0.403   0.188  0.2506 -0.2246 -1.5462
  714SOL     OW 2140   1.542   1.492   3.112 -0.0794  0.3872  0.0801
  714SOL    HW1 2141   1.543   1.589   0.026  3.2715  2.6301 -0.3742
  714SOL    HW2 2142   1.538   1.430   0.069  0.5867 -0.1350 -2.3223
  715SOL     OW 2143   0.208   0.441   0.360 -0.4971  0.1472 -0.4146
  715SOL    HW1 2144   0.243   0.464   0.268  0.4854 -1.2264 -1.7662
  715SOL    HW2 2145   0.272   0.401   0.430 -0.2176 -0.8516  0.1079
  716SOL     OW 2146   1.244   0.268   1.927  0.3617  0.5759  0.4000
  716SOL    HW1 2147   1.312   0.261   2.001 -0.8834  0.0632 -0.9342
  716SOL    HW2 2148   1.159   0.298   1.966  2.6739  0.1187  0.9535
  717SOL     OW 2149   0.311   0.542   2.971 -0.2466 -0.8636  0.7045
  717SOL    HW1 2150   0.378   0.477   2.930  0.8973 -1.7290 -0.6047
  717SOL    HW2 2151   0.258   0.585   2.891  1.5830  2.2899 -3.8247
  718SOL     OW 2152   1.212   0.405   0.285  0.1492 -0.1872 -0.3186
  718SOL    HW1 2153   1.122   0.411   0.326 -0.2798  1.3608 -1.9407
  718SOL    HW2 2154   1.296   0.417   0.345  1.9588 -0.6488  0.1963
  719SOL     OW 2155   2.324   2.238   3.027  0.0857  0.4475  0.1399
  719SOL    HW1 2156   2.287   2.155   2.986  0.4689 -0.2230  1.0336
  719SOL    HW2 2157   2.385   2.205   3.104  2.9394 -0.0899  1.3777
  720SOL     OW 2158   1.161   0.936   1.387  0.3442  0.2416 -0.0510
  720SOL    HW1 2159   1.195   1.023   1.434  2.0286  1.2680  3.7721
  720SOL    HW2 2160   1.169   0.854   1.452 -1.3237 -0.2433  2.2250
  721SOL     OW 2161   0.092   2.780   1.219  0.6081  0.1875  0.1855
  721SOL    HW1 2162   0.134   2.687   1.235 -1.3612 -0.6506 -1.5528
  721SOL    HW2 2163   0.162   2.853   1.202  0.1359 -0.0698 -0.4549
  722SOL     OW 2164   0.719   1.820   2.816 -0.1613  0.0817 -0.4738
  722SOL    HW1 2165   0.722   1.725   2.851 -1.3016  0.0791 -1.6946
  722SOL    HW2 2166   0.734   1.892   2.889  0.0744 -1.4867 -0.6295
  723SOL     OW 2167   1.924   0.374   0.554 -0.4166  0.0018 -0.2234
  723SOL    HW1 2168   1.847   0.311   0.537  2.9491  2.7380  1.7743
  723SOL    HW2 2169   1.976   0.343   0.637  1.0566  1.3463  0.8049
  724SOL     OW 2170   0.683   2.192   2.957  0.6534 -0.1985  0.1816
  724SOL    HW1 2171   0.699   2.105   3.010 -1.0058 -1.1088  3.0635
  724SOL    HW2 2172   0.664   2.274   3.018 -0.8918  0.8473 -1.4740
  725SOL     OW 2173   3.084   0.773   1.029  0.2477 -0.2934  0.6573
  725SOL    HW1 2174   2.984   0.804   1.036 -0.7091  0.1465 -0.3408
  725SOL    HW2 2175   3.093   0.711   0.945  0.7141  0.9666  2.6292
  726SOL     OW 2176   2.492   0.651   0.504  0.2366  0.1730 -0.0716
  726SOL    HW1 2177   2.511   0.551   0.488 -2.7515  0.5779 -1.5768
  726SOL    HW2 2178   2.388   0.663   0.489 -0.1802 -3.4002 -1.4679
  727SOL     OW 2179   2.029   1.092   2.347 -0.1089  0.2084 -0.3967
  727SOL    HW1 2180   1.949   1.148   2.316  1.4874  2.0195 -2.6375
  727SOL    HW2 2181   2.001   1.053   2.440 -0.1964  1.1459  1.9371
  728SOL     OW 2182   1.746   2.884   1.565 -0.3615 -0.1548  0.2047
  728SOL    HW1 2183   1.756   2.836   1.658  0.3357  1.4425 -2.4313
  728SOL    HW2 2184   1.757   2.804   1.498 -0.7832 -0.2039 -1.7814
  729SOL     OW 2185   2.473   0.550   2.368  0.3367 -0.6096  0.7698
  729SOL    HW1 2186   2.563   0.513   2.358 -0.6275  2.1696 -1.2553
  729SOL    HW2 2187   2.476   0.650   2.345  1.1548  1.5392 -1.2901
  730SOL     OW 2188   0.682   0.677   1.430 -0.0211 -0.4442 -0.1232
  730SOL    HW1 2189   0.586   0.655   1.402 -0.2785 -1.2262 -1.7907
  730SOL    HW2 2190   0.739   0.699   1.353 -0.5342 -2.2551  2.6283
  731SOL     OW 2191   0.369   0.155   0.207 -0.2606 -0.2462 -0.2784
  731SOL    HW1 2192   0.421   0.232   0.244  0.3808 -2.4231 -2.8930
  731SOL    HW2 2193   0.374   0.157   0.104 -2.0208 -0.4754  4.5119
  732SOL     OW 2194   0.732   0.396   0.422 -0.2304 -0.0145  0.2144
  732SOL    HW1 2195   0.716   0.342   0.510 -0.0728  1.4419  1.5635
  732SOL    HW2 2196   0.765   0.488   0.441 -0.6477 -1.6711 -1.4309
  733SOL     OW 2197   1.764   1.384   2.629  0.2328  0.4551 -0.3306
  733SOL    HW1 2198   1.715   1.316   2.567 -0.2971  1.0950  0.7125
  733SOL    HW2 2199   1.698   1.409   2.706  0.2100 -2.1001  3.5622
  734SOL     OW 2200   2.966   1.958   2.290 -0.1474  0.3466 -0.3778
  734SOL    HW1 2201   3.058   1.990   2.311 -0.4556  0.9909  2.7485
  734SOL    HW2 2202   2.952   1.870   2.338  1.4103 -0.0876  0.5713
  735SOL     OW 2203   1.950   0.388   1.098  0.4051 -0.3211 -0.2387
  735SOL    HW1 2204   2.046   0.424   1.117  1.7726 -1.4635 -0.2852
  735SOL    HW2 2205   1.900   0.367   1.187 -1.2110 -0.4952  1.0733
  736SOL     OW 2206   1.062   1.206   3.071  0.4530 -0.0039 -0.2510
  736SOL    HW1 2207   0.972   1.208   0.004  0.1377 -1.0583  3.1326
  736SOL    HW2 2208   1.136   1.265   3.118  0.2674 -1.6974  1.6262
  737SOL     OW 2209   3.049   0.329   0.301  0.1882 -0.4238  0.2665
  737SOL    HW1 2210   0.005   0.336   0.231 -1.4633  0.2606 -1.5897
  737SOL    HW2 2211   3.091   0.313   0.393  0.3360 -2.3123 -1.7427
  738SOL     OW 2212   0.661   2.576   1.686  0.5504 -0.1883 -0.1519
  738SOL    HW1 2213   0.680   2.497   1.632 -0.7563  2.1099 -0.5751
  738SOL    HW2 2214   0.604   2.551   1.770 -3.0438 -2.4810  1.8093
  739SOL     OW 2215   1.173   0.016   2.449  0.1596 -0.5964  0.1550
  739SOL    HW1 2216   1.165   3.043   2.408  0.9033  2.6533 -0.7871
  739SOL    HW2 2217   1.083   0.050   2.484  0.0839  3.0563  1.2760
  740SOL     OW 2218   1.987   2.607   1.576 -0.0879  0.2020  0.2709
  740SOL    HW1 2219   1.897   2.640   1.605 -0.6990 -1.2627  1.4718
  740SOL    HW2 2220   2.009   2.518   1.626  0.9786 -2.8727  2.2231
  741SOL     OW 2221   2.246   0.685   0.401  0.0237 -0.5404  0.3787
  741SOL    HW1 2222   2.275   0.709   0.310  0.5775  1.6430  1.4560
  741SOL    HW2 2223   2.172   0.749   0.432 -0.4621  0.3617 -0.2631
  742SOL     OW 2224   1.493   2.684   2.564 -0.2704  0.5108 -0.1315
  742SOL    HW1 2225   1.408   2.625   2.557 -0.2694  0.2678  1.4201
  742SOL    HW2 2226   1.523   2.689   2.662  1.3969 -0.2435  2.8390
  743SOL     OW 2227   2.511   1.061   1.627  0.1594 -0.2036 -0.3735
  743SOL    HW1 2228   2.517   1.121   1.709  0.8520  1.7287  1.3713
  743SOL    HW2 2229   2.565   0.976   1.643 -1.5362 -2.0189 -2.4560
  744SOL     OW 2230   2.751   0.468   0.716 -0.0597 -0.1807 -0.4316
  744SOL    HW1 2231   2.784   0.557   0.757  1.1808  0.7845  1.6368
  744SOL    HW2 2232   2.684   0.485   0.640 -0.5460  2.0849  0.2699
  745SOL     OW 2233   2.558   1.270   1.805 -0.2700 -0.2483 -0.4150
  745SOL    HW1 2234   2.491   1.344   1.793 -2.0889  0.2683 -1.7163
  745SOL    HW2 2235   2.544   1.236   1.898  0.0554  2.6823 -3.3145
  746SOL     OW 2236   1.275   1.695   0.854 -0.3816 -0.1747 -0.3749
  746SOL    HW1 2237   1.347   1.726   0.914 -1.6753  1.6404 -3.4482
  746SOL    HW2 2238   1.277   1.592   0.851 -0.0514 -1.2359 -2.3308
  747SOL     OW 2239   1.621   1.705   1.657 -0.1707 -0.2124  0.0677
  747SOL    HW1 2240   1.529   1.748   1.664 -1.8610 -0.5608 -2.1633
  747SOL    HW2 2241   1.626   1.632   1.588  2.2436 -3.3324  1.4252
  748SOL     OW 2242   0.298   2.809   3.091  0.6294 -0.2836  0.2826
  748SOL    HW1 2243   0.325   2.838   0.065 -1.1792  1.7806  1.1959
  748SOL    HW2 2244   0.293   2.707   3.083  0.3340  3.5956  0.1343
  749SOL     OW 2245   0.162   1.202   2.448  0.2049  0.3290  0.2320
  749SOL    HW1 2246   0.217   1.215   2.362 -0.0528  0.5337  2.4950
  749SOL    HW2 2247   0.104   1.119   2.452 -0.9475  1.7545  0.1197
  750SOL     OW 2248   1.681   0.526   2.109 -0.2268  0.1471 -0.5772
  750SOL    HW1 2249   1.635   0.538   2.200  0.5865  0.0710  0.5319
  750SOL    HW2 2250   1.778   0.551   2.108 -1.2674 -0.8325 -0.8262
  751SOL     OW 2251   2.727   0.796   0.456  0.8727  0.4054 -0.5999
  751SOL    HW1 2252   2.717   0.791   0.355 -0.1567  0.8996  4.5222
  751SOL    HW2 2253   2.646   0.743   0.496 -1.7627  1.0457  0.9900
  752SOL     OW 2254   3.019   2.159   0.850  0.1880 -0.2228 -0.5888
  752SOL    HW1 2255   2.930   2.131   0.891  0.8961  0.7033 -1.2525
  752SOL    HW2 2256   3.095   2.152   0.921  3.4747  0.2660  2.2039
  753SOL     OW 2257   1.089   2.558   0.910 -0.6734  0.0709  0.7096
  753SOL    HW1 2258   1.154   2.532   0.982 -1.8283 -2.7011  1.8029
  753SOL    HW2 2259   0.997   2.507   0.905  1.5286  0.1963 -0.3197
  754SOL     OW 2260   0.300   2.967   1.824 -0.1795 -0.2847 -0.2284
  754SOL    HW1 2261   0.273   2.954   1.923 -1.0201  0.9684  3.6512
  754SOL    HW2 2262   0.216   2.985   1.767 -1.2569 -2.6613 -0.1101
  755SOL     OW 2263   2.059   0.853   0.466 -0.5716  0.1934 -0.5930
  755SOL    HW1 2264   1.985   0.781   0.462  1.1715  1.0067 -0.2000
  755SOL    HW2 2265   2.064   0.902   0.554 -2.2370 -0.6076 -2.3780
  756SOL     OW 2266   2.042   2.369   2.611 -0.0595  0.3919 -0.6469
  756SOL    HW1 2267   2.144   2.348   2.602 -3.4784  2.1063  0.3903
  756SOL    HW2 2268   2.010   2.426   2.532  3.2832 -0.3827 -1.2959
  757SOL     OW 2269   1.868   0.640   0.471  0.1338  0.7090  0.0832
  757SOL    HW1 2270   1.859   0.656   0.370 -1.5655  0.0781 -0.1185
  757SOL    HW2 2271   1.900   0.547   0.487 -0.7381  2.9444  2.1132
  758SOL     OW 2272   2.202   0.453   1.123 -0.1016 -0.5983  0.2708
  758SOL    HW1 2273   2.227   0.520   1.192  0.9465 -2.7249  2.3826
  758SOL    HW2 2274   2.255   0.474   1.041 -1.2806 -0.3477  1.7086
  759SOL     OW 2275   2.575   0.556   1.049  0.7100 -0.6407  0.3680
  759SOL    HW1 2276   2.562   0.615   1.129 -2.7575 -0.5225  0.8421
  759SOL    HW2 2277   2.666   0.562   1.005 -3.7526  0.0033  1.9006
  760SOL     OW 2278   2.251   1.498   1.332 -0.1644  0.2320  0.0266
  760SOL    HW1 2279   2.166   1.458   1.298  0.7957 -2.7155 -1.5525
  760SOL    HW2 2280   2.327   1.439   1.303 -0.2389  1.2832 -0.4952
  761SOL     OW 2281   0.425   0.277   0.499  0.0443 -0.0396  0.3910
  761SOL    HW1 2282   0.518   0.255   0.538  1.2143 -1.9627  2.9008
  761SOL    HW2 2283   0.374   0.186   0.493  0.2211 -2.7890 -1.2217
  762SOL     OW 2284   0.875   1.921   1.195 -0.0646  0.1995 -0.0760
  762SOL    HW1 2285   0.935   1.868   1.132 -2.8157  1.6408  1.1850
  762SOL    HW2 2286   0.783   1.886   1.202  1.5228 -1.0770  0.0461
  763SOL     OW 2287   1.477   1.117   1.682  0.3585 -0.5190 -0.2641
  763SOL    HW1 2288   1.489   1.081   1.777 -1.2254  2.9093  0.9795
  763SOL    HW2 2289   1.493   1.042   1.613 -0.2710  0.4382  0.2983
  764SOL     OW 2290   0.257   1.859   2.721  0.2862  0.2600  0.0804
  764SOL    HW1 2291   0.251   1.758   2.707 -2.6673  0.5467  2.8194
  764SOL    HW2 2292   0.350   1.893   2.704 -3.2434 -0.5138 -1.7013
  765SOL     OW 2293   1.154   2.473   1.173 -0.1011  0.2215 -0.6417
  765SOL    HW1 2294   1.096   2.537   1.228  0.5291  1.6905  1.6451
  765SOL    HW2 2295   1.252   2.501   1.173 -1.3176  2.2169  0.4641
  766SOL     OW 2296   2.723   2.227   2.645 -0.9172  0.0551 -0.4981
  766SOL    HW1 2297   2.706   2.297   2.721 -0.3585  0.0101 -3.4408
  766SOL    HW2 2298   2.765   2.274   2.566 -0.8274  3.6397  1.2602
  767SOL     OW 2299   0.807   1.398   2.629 -0.0551 -0.1717 -0.2977
  767SOL    HW1 2300   0.832   1.385   2.727 -0.3129  3.1872 -2.4759
  767SOL    HW2 2301   0.718   1.352   2.608 -0.4105 -1.4919 -2.2122
  768SOL     OW 2302   1.180   1.786   3.116  0.8264  0.1775  0.0869
  768SOL    HW1 2303   1.203   1.728   3.031 -1.4886 -0.6236 -0.2207
  768SOL    HW2 2304   1.254   1.769   0.064  0.5197 -1.4922  1.0090
  769SOL     OW 2305   0.480   2.287   1.208 -0.0464  0.2088 -0.0032
  769SOL    HW1 2306   0.520   2.204   1.159 -1.0465 -2.2314 -0.7940
  769SOL    HW2 2307   0.403   2.251   1.262 -0.6766 -1.0050  0.0112
  770SOL     OW 2308   1.050   1.209   2.621 -0.2131 -0.2567 -0.1721
  770SOL    HW1 2309   0.973   1.260   2.586  1.1624 -1.2341  2.3729
  770SOL    HW2 2310   1.096   1.158   2.542 -1.0782 -4.1504 -1.2914
  771SOL     OW 2311   0.059   2.844   2.268 -0.3536  0.2815  0.2852
  771SOL    HW1 2312   0.120   2.853   2.355 -0.9258  0.4946  3.6528
  771SOL    HW2 2313   0.066   2.752   2.229  1.5761  0.8027 -0.4855
  772SOL     OW 2314   2.493   2.497   1.803 -0.6044 -0.0603  0.0358
  772SOL    HW1 2315   2.404   2.500   1.855 -1.6377  2.5196  0.6141
  772SOL    HW2 2316   2.511   2.594   1.766  0.7152  1.9558 -1.0466
  773SOL     OW 2317   0.715   1.996   1.712 -0.2109 -0.3593  0.3671
  773SOL    HW1 2318   0.676   2.041   1.625 -0.4387 -0.3782 -2.7829
  773SOL    HW2 2319   0.732   2.061   1.787 -2.5893  0.6757 -0.4830
  774SOL     OW 2320   1.493   0.647   1.954  0.2077 -0.2196 -0.6082
  774SOL    HW1 2321   1.462   0.593   1.870  0.9531  0.4310 -1.4864
  774SOL    HW2 2322   1.562   0.591   2.002 -5.0079 -0.6534 -1.2584
  775SOL     OW 2323   1.949   2.824   3.048  0.4531  0.5629 -0.0478
  775SOL    HW1 2324   1.996   2.915   3.039 -1.3032  0.0876  2.1574
  775SOL    HW2 2325   1.970   2.768   2.965  0.5434 -0.3175 -0.9947
  776SOL     OW 2326   3.031   0.318   2.084 -0.4025  0.6750  0.5869
  776SOL    HW1 2327   3.069   0.355   2.001  0.0420 -2.0422  1.3143
  776SOL    HW2 2328   3.097   0.246   2.116 -1.1624 -1.2014 -1.2729
  777SOL     OW 2329   2.633   2.301   1.938 -0.4636  0.2837 -0.6441
  777SOL    HW1 2330   2.585   2.233   2.001 -2.7137 -2.2889  3.2408
  777SOL    HW2 2331   2.567   2.372   1.905 -0.8265 -1.1465 -0.3168
  778SOL     OW 2332   2.042   0.822   2.216  0.3934  0.1068  0.1745
  778SOL    HW1 2333   2.078   0.913   2.237  0.9055 -0.9177 -1.6859
  778SOL    HW2 2334   1.938   0.822   2.210 -4.1366 -1.1806 -2.4349
  779SOL     OW 2335   2.553   0.757   0.754 -0.3693 -0.1155 -0.1932
  779SOL    HW1 2336   2.533   0.703   0.674 -0.5339  0.8928 -1.0329
  779SOL    HW2 2337   2.657   0.753   0.769 -1.6975  1.3659 -0.5929
  780SOL     OW 2338   2.387   0.358   3.027  0.0410  0.2575  0.4403
  780SOL    HW1 2339   2.286   0.370   3.017 -0.8471 -1.5707  0.4298
  780SOL    HW2 2340   2.419   0.262   3.016 -1.6429  1.7247  0.3885
  781SOL     OW 2341   0.265   2.154   1.306  0.0264  0.5353 -0.1668
  781SOL    HW1 2342   0.270   2.061   1.344 -0.2003  0.2628  0.4992
  781SOL    HW2 2343   0.178   2.167   1.250 -0.7433 -1.2532 -1.2245
  782SOL     OW 2344   2.451   2.506   2.908 -0.5521  0.6198  0.1765
  782SOL    HW1 2345   2.539   2.489   2.854  3.4262  1.9250 -1.2989
  782SOL    HW2 2346   2.421   2.421   2.954  2.3197 -1.7115 -1.2153
  783SOL     OW 2347   0.572   1.789   1.418 -0.0782 -0.0599  0.0718
  783SOL    HW1 2348   0.594   1.745   1.509 -1.0275  0.2125 -0.7389
  783SOL    HW2 2349   0.622   1.739   1.343 -1.2007  1.8508  1.1126
  784SOL     OW 2350   1.452   0.599   3.067  0.4928  0.1037 -0.2722
  784SOL    HW1 2351   1.375   0.622   0.012 -3.5636  1.0806  3.5168
  784SOL    HW2 2352   1.524   0.545   3.119  2.1513  1.0292 -0.8584
  785SOL     OW 2353   2.587   0.054   0.853 -0.4146 -0.5235  0.6701
  785SOL    HW1 2354   2.504   0.020   0.805  2.0890  1.5888 -2.5937
  785SOL    HW2 2355   2.559   0.126   0.924 -2.2519 -0.4946  0.5980
  786SOL     OW 2356   0.935   2.052   2.016 -0.2108 -0.1133  0.0929
  786SOL    HW1 2357   0.964   1.958   2.031 -0.8445  1.8290  3.7842
  786SOL    HW2 2358   0.945   2.113   2.097 -1.9496 -1.2557  0.8088
  787SOL     OW 2359   1.237   0.852   1.139 -0.6748 -0.1624 -0.8077
  787SOL    HW1 2360   1.189   0.869   1.233  0.2006  2.3524  1.7668
  787SOL    HW2 2361   1.332   0.892   1.142  1.7964 -1.2320  0.9400
  788SOL     OW 2362   0.117   0.680   0.420 -0.4140  0.0342 -0.7691
  788SOL    HW1 2363   0.183   0.738   0.367  0.4933 -0.5730 -0.4751
  788SOL    HW2 2364   0.131   0.575   0.415 -1.2640 -4.0404  0.3933
  789SOL     OW 2365   0.021   2.149   1.185  0.3599 -0.0425  0.0375
  789SOL    HW1 2366   0.072   2.148   1.093  0.0199 -0.5480 -0.3784
  789SOL    HW2 2367   3.057   2.083   1.179 -0.5519 -2.6470 -1.3357
  790SOL     OW 2368   0.987   0.736   2.195  0.2670  0.0380 -0.0084
  790SOL    HW1 2369   1.066   0.718   2.132  0.8686  2.0928  1.3926
  790SOL    HW2 2370   1.015   0.732   2.295  0.4629 -1.2290  2.5091
  791SOL     OW 2371   1.630   0.611   0.595  0.4403 -0.0050  0.2653
  791SOL    HW1 2372   1.718   0.638   0.553 -1.1077 -1.2333  1.0865
  791SOL    HW2 2373   1.649   0.576   0.687  0.9530 -0.7396 -2.6138
  792SOL     OW 2374   1.538   2.742   1.953  0.0109  0.0069  0.0805
  792SOL    HW1 2375   1.463   2.711   2.015 -1.3180  0.0659 -1.6213
  792SOL    HW2 2376   1.512   2.735   1.853  2.1315  0.3996 -0.2970
  793SOL     OW 2377   1.355   0.457   0.705  0.3625 -0.3198  0.1986
  793SOL    HW1 2378   1.349   0.558   0.675  1.7178  3.9804 -1.3517
  793SOL    HW2 2379   1.326   0.448   0.802 -0.7067 -0.9695  1.1450
  794SOL     OW 2380   0.481   0.822   2.121 -0.4737 -0.1784  1.1599
  794SOL    HW1 2381   0.382   0.827   2.137  1.4176 -2.6103 -1.3860
  794SOL    HW2 2382   0.523   0.909   2.144 -1.5140 -2.6734  1.4982
  795SOL     OW 2383   0.344   2.135   2.259 -0.0633 -0.6452 -0.0198
  795SOL    HW1 2384   0.378   2.216   2.201 -1.5645  2.0543 -2.7648
  795SOL    HW2 2385   0.407   2.117   2.336  1.0941 -0.7573 -1.2986
  796SOL     OW 2386   2.599   0.782   2.101  0.5147  0.1133  0.0356
  796SOL    HW1 2387   2.538   0.806   2.181 -2.0572 -1.0498  3.7981
  796SOL    HW2 2388   2.629   0.863   2.049 -0.5283 -1.4256 -1.1446
  797SOL     OW 2389   2.853   2.361   3.062  0.4562  0.7161 -0.1065
  797SOL    HW1 2390   2.905   2.415   0.010  0.1747 -2.1881 -1.7820
  797SOL    HW2 2391   2.767   2.329   3.110 -0.0055 -2.2123 -1.5872
  798SOL     OW 2392   0.136   2.354   2.275 -0.2503  0.1117  0.5434
  798SOL    HW1 2393   0.209   2.287   2.253 -1.0075  0.7360  3.4514
  798SOL    HW2 2394   0.104   2.331   2.370 -1.9329 -0.7238  0.6668
  799SOL     OW 2395   0.415   2.192   2.852 -0.1391  0.3780  0.2677
  799SOL    HW1 2396   0.501   2.206   2.904 -3.1147 -0.0653 -0.7397
  799SOL    HW2 2397   0.333   2.215   2.909  3.7638  0.1052 -0.9403
  800SOL     OW 2398   0.785   1.965   3.049  0.1749 -0.1790  0.8462
  800SOL    HW1 2399   0.750   1.917   0.008  0.4031  1.6227 -5.4377
  800SOL    HW2 2400   0.887   1.977   3.061  0.4912  2.4612 -1.4950
  801SOL     OW 2401   1.761   1.309   1.487  0.3410 -0.5140 -0.8018
  801SOL    HW1 2402   1.861   1.295   1.518  4.0212  2.1091  0.3191
  801SOL    HW2 2403   1.701   1.310   1.573  0.6263 -0.4112 -1.2200
  802SOL     OW 2404   2.812   1.225   0.420 -0.3190  0.0399 -0.3497
  802SOL    HW1 2405   2.791   1.277   0.504 -0.1992 -0.3457 -0.1141
  802SOL    HW2 2406   2.872   1.145   0.440 -1.5791 -0.9884 -0.6289
  803SOL     OW 2407   0.897   1.800   2.603  0.0380  0.2584  0.3107
  803SOL    HW1 2408   0.817   1.787   2.662  1.3846 -0.1831 -1.4774
  803SOL    HW2 2409   0.979   1.835   2.658  0.5757  2.3707  1.3702
  804SOL     OW 2410   1.541   1.305   0.199 -0.9931  0.2360 -0.0870
  804SOL    HW1 2411   1.520   1.348   0.290 -2.3546  1.0523  0.0026
  804SOL    HW2 2412   1.616   1.241   0.203 -1.9697  3.0812  0.9721
  805SOL     OW 2413   2.647   1.560   2.867 -0.0881  0.4059  0.1225
  805SOL    HW1 2414   2.648   1.662   2.880  2.1001  0.7292  0.1317
  805SOL    HW2 2415   2.737   1.526   2.902 -0.2151 -2.0557 -1.0868
  806SOL     OW 2416   0.497   2.982   0.419  0.8905  0.3552 -0.6541
  806SOL    HW1 2417   0.468   3.052   0.484 -0.0751 -0.6990 -1.6280
  806SOL    HW2 2418   0.528   2.898   0.466  1.0389 -0.4992 -0.3925
  807SOL     OW 2419   2.084   1.658   2.749  0.2247  0.1811 -0.1979
  807SOL    HW1 2420   2.058   1.727   2.827 -0.3955  0.5078  0.8192
  807SOL    HW2 2421   2.052   1.561   2.776  0.6884 -5.0050  0.3877
  808SOL     OW 2422   0.529   1.396   0.702  0.0845  0.5106 -0.1361
  808SOL    HW1 2423   0.521   1.481   0.648 -1.1186 -0.9163  0.3484
  808SOL    HW2 2424   0.480   1.408   0.787  0.9512 -1.5435 -1.6309
  809SOL     OW 2425   2.545   1.112   0.538  0.0997  0.0410  0.4281
  809SOL    HW1 2426   2.515   1.192   0.480 -0.8100  1.8830 -0.2491
  809SOL    HW2 2427   2.602   1.049   0.481  1.9080 -0.6099 -1.0586
  810SOL     OW 2428   0.878   0.948   0.420 -0.4164 -0.9284  0.0466
  810SOL    HW1 2429   0.812   1.029   0.414  0.0654  2.7897  0.7110
  810SOL    HW2 2430   0.957   0.964   0.359 -0.6491  1.9818  1.4554
  811SOL     OW 2431   1.406   2.560   1.228  0.1352  0.4133 -0.4923
  811SOL    HW1 2432   1.422   2.631   1.158 -1.4615  0.5222  1.6364
  811SOL    HW2 2433   1.489   2.502   1.243 -0.1085  0.6149 -0.4129
  812SOL     OW 2434   1.192   2.635   1.803 -0.5574 -0.2353  0.2326
  812SOL    HW1 2435   1.184   2.731   1.835 -2.0235 -1.6496  0.0517
  812SOL    HW2 2436   1.122   2.614   1.731  3.1915 -1.4096 -1.7719
  813SOL     OW 2437   1.335   0.066   1.781  0.3646 -0.3295  0.8341
  813SOL    HW1 2438   1.292   0.139   1.842  1.8634 -2.5051  2.7529
  813SOL    HW2 2439   1.282   0.027   1.710  0.0465 -0.2905  3.9665
  814SOL     OW 2440   1.278   2.515   2.573 -0.4222 -0.4733 -0.5135
  814SOL    HW1 2441   1.201   2.484   2.511  0.8367  3.6776 -0.3196
  814SOL    HW2 2442   1.301   2.439   2.642  2.0398 -2.2316  2.3210
  815SOL     OW 2443   0.844   0.350   2.348 -0.0635  0.0306  0.0653
  815SOL    HW1 2444   0.938   0.327   2.326 -0.7836 -1.9716  2.6991
  815SOL    HW2 2445   0.809   0.438   2.311  0.3520 -0.6472  2.0658
  816SOL     OW 2446   2.106   0.372   2.995 -0.7550 -0.2632  0.3595
  816SOL    HW1 2447   2.086   0.459   2.946  1.5597 -1.7641  0.3415
  816SOL    HW2 2448   2.039   0.292   2.989 -1.3565  1.7049 -0.3275
  817SOL     OW 2449   2.232   0.383   2.395 -0.2099 -0.1462  0.5116
  817SOL    HW1 2450   2.224   0.391   2.494 -0.2393  0.7369 -2.4112
  817SOL    HW2 2451   2.320   0.427   2.364  1.7686  0.7363 -0.1167
  818SOL     OW 2452   1.615   0.465   0.162 -0.4656  0.2267 -0.2677
  818SOL    HW1 2453   1.660   0.548   0.188 -1.6502 -4.1919  0.0603
  818SOL    HW2 2454   1.673   0.384   0.179  2.3734 -1.0465  0.8417
  819SOL     OW 2455   2.363   1.645   2.715  0.2090  0.2092 -0.1462
  819SOL    HW1 2456   2.265   1.656   2.702  1.6125  0.7262 -2.5319
  819SOL    HW2 2457   2.388   1.630   2.817  0.7900 -0.5992  2.3783
  820SOL     OW 2458   0.026   1.702   3.088 -0.0655 -0.1808  0.0413
  820SOL    HW1 2459   0.027   1.763   3.008 -0.4141 -2.1818 -0.4496
  820SOL    HW2 2460   0.118   1.679   3.117 -1.3513 -3.6420  2.1595
  821SOL     OW 2461   0.206   3.089   0.893  0.9581 -0.0350 -0.0980
  821SOL    HW1 2462   0.298   0.009   0.886  0.5693  0.4716 -0.3335
  821SOL    HW2 2463   0.180   3.051   0.802 -0.0899  0.7995  0.9514
  822SOL     OW 2464   2.790   2.706   0.203  0.5623  0.9476  0.0056
  822SOL    HW1 2465   2.766   2.733   0.298  0.5688 -3.9985 -0.6443
  822SOL    HW2 2466   2.790   2.782   0.136  0.6236 -2.6833 -0.3986
  823SOL     OW 2467   1.358   0.647   2.669 -0.2735  0.6197  0.0210
  823SOL    HW1 2468   1.306   0.596   2.599 -1.1743  1.5720 -1.0761
  823SOL    HW2 2469   1.451   0.671   2.641 -0.0873  0.4225 -1.0889
  824SOL     OW 2470   2.881   2.163   1.928 -0.4063 -0.1231 -0.2786
  824SOL    HW1 2471   2.813   2.233   1.929  2.0787 -1.6850  0.3760
  824SOL    HW2 2472   2.975   2.205   1.941  0.2424  0.7977  4.0403
  825SOL     OW 2473   2.962   2.086   2.742 -0.4515  0.0439 -0.0171
  825SOL    HW1 2474   2.892   2.111   2.675 -1.1511 -1.5861  0.2232
  825SOL    HW2 2475   3.047   2.062   2.696 -3.4379 -0.6782  1.1141
  826SOL     OW 2476   2.357   1.270   2.476 -0.4379 -0.0635  0.0624
  826SOL    HW1 2477   2.357   1.199   2.402 -0.2216 -0.4334 -1.7005
  826SOL    HW2 2478   2.266   1.316   2.485  1.5479 -3.6945 -0.0366
  827SOL     OW 2479   2.313   2.504   1.194 -0.2046  0.4984  0.0886
  827SOL    HW1 2480   2.253   2.421   1.179  1.5446  0.4024  0.0421
  827SOL    HW2 2481   2.278   2.560   1.267  0.3943 -3.7107 -3.0108
  828SOL     OW 2482   0.248   3.022   1.452  0.1627 -0.0666 -0.0032
  828SOL    HW1 2483   0.148   3.020   1.479 -0.8642  3.2888  0.3197
  828SOL    HW2 2484   0.298   3.096   1.505  1.2199  1.2538 -0.3067
  829SOL     OW 2485   1.592   2.583   2.268 -0.0347  1.0197 -0.3152
  829SOL    HW1 2486   1.614   2.657   2.337 -1.9416  0.4778 -0.8428
  829SOL    HW2 2487   1.677   2.534   2.236  2.2194  0.0898  1.1852
  830SOL     OW 2488   0.981   0.296   0.421  0.4717 -0.3426  0.3115
  830SOL    HW1 2489   0.880   0.313   0.430 -0.4152 -1.8260  3.2108
  830SOL    HW2 2490   1.031   0.351   0.494  0.3464 -1.1992  1.1648
  831SOL     OW 2491   2.892   1.455   2.949  0.4625 -0.2092 -0.2564
  831SOL    HW1 2492   2.938   1.510   3.024  0.5496 -1.1757  1.9021
  831SOL    HW2 2493   2.952   1.375   2.931 -0.9758  2.1471  1.9404
  832SOL     OW 2494   1.713   1.989   2.205  0.5914 -0.1331  0.4329
  832SOL    HW1 2495   1.626   2.037   2.240  0.7081  2.1014  2.2163
  832SOL    HW2 2496   1.780   2.055   2.172 -2.8582 -0.3786  0.5686
  833SOL     OW 2497   1.016   0.394   2.033  0.0162  0.1093  0.3519
  833SOL    HW1 2498   1.031   0.402   2.133 -0.3551  1.6346 -0.7260
  833SOL    HW2 2499   0.921   0.365   2.017 -0.6190  2.8499 -0.2225
  834SOL     OW 2500   0.601   1.018   1.442 -0.0761 -0.3176  0.5844
  834SOL    HW1 2501   0.614   0.987   1.342 -0.3938  1.7119 -2.3529
  834SOL    HW2 2502   0.578   1.118   1.432 -3.5536 -0.3138  1.1856
  835SOL     OW 2503   2.668   0.923   0.016  0.4614 -0.2191  0.3882
  835SOL    HW1 2504   2.719   0.855   0.074 -0.3485 -1.5069 -1.5320
  835SOL    HW2 2505   2.656   1.010   0.072 -0.9391  1.2320  1.1394
  836SOL     OW 2506   1.011   1.863   0.268  0.2102 -0.1177 -0.3561
  836SOL    HW1 2507   0.935   1.936   0.255 -4.0218  4.0182  2.6241
  836SOL    HW2 2508   1.082   1.868   0.197 -0.3689 -0.5054  1.8940
  837SOL     OW 2509   1.619   1.745   0.861  0.3980 -0.0895  0.6737
  837SOL    HW1 2510   1.689   1.818   0.845 -0.8426 -3.2428 -1.6152
  837SOL    HW2 2511   1.560   1.769   0.940 -2.0057  0.0871 -0.8775
  838SOL     OW 2512   1.090   1.107   2.055 -0.2174 -0.1227 -0.2520
  838SOL    HW1 2513   1.019   1.032   2.052 -0.7809  0.3778  0.5748
  838SOL    HW2 2514   1.064   1.178   1.986  0.1252 -0.3318  0.3099
  839SOL     OW 2515   0.841   2.056   2.507  0.5360  0.3478 -0.5334
  839SOL    HW1 2516   0.869   1.962   2.521 -1.3079  1.4980 -1.9631
  839SOL    HW2 2517   0.826   2.102   2.596  0.2126  0.7460 -2.2729
  840SOL     OW 2518   0.672   2.296   0.379  0.1195  0.6324  0.1507
  840SOL    HW1 2519   0.609   2.332   0.308  1.1711  1.6682  4.6111
  840SOL    HW2 2520   0.629   2.301   0.471 -0.2911  1.3741 -0.3502
  841SOL     OW 2521   1.603   2.304   0.143 -0.3007 -0.5122  0.6315
  841SOL    HW1 2522   1.531   2.372   0.168 -0.2889 -0.5338 -0.3519
  841SOL    HW2 2523   1.644   2.326   0.053 -1.2465  0.4132  1.3425
  842SOL     OW 2524   0.504   0.823   3.090  0.0317 -0.2993  0.1495
  842SOL    HW1 2525   0.477   0.784   0.060  0.7262  1.4917  4.2260
  842SOL    HW2 2526   0.584   0.770   3.047  0.9783  0.5864 -1.1435
  843SOL     OW 2527   1.165   0.207   0.772 -0.0609  0.0206  0.3900
  843SOL    HW1 2528   1.135   0.272   0.702 -0.9584  0.3643 -1.6539
  843SOL    HW2 2529   1.197   0.250   0.853 -0.6228 -1.0059 -2.2231
  844SOL     OW 2530   3.015   0.066   2.517  0.1404  0.2281 -0.0802
  844SOL    HW1 2531   2.924   0.116   2.527 -1.0556  2.3541  1.3522
  844SOL    HW2 2532   2.999   3.104   2.458  1.7088  0.5833 -0.5501
  845SOL     OW 2533   2.569   2.429   1.100  0.1985  0.1640 -0.3672
  845SOL    HW1 2534   2.471   2.457   1.110 -2.3053 -0.2861  0.4210
  845SOL    HW2 2535   2.594   2.378   1.186 -2.8109 -0.7698  1.5610
  846SOL     OW 2536   2.816   1.910   2.035 -0.6506  0.2616 -0.0150
  846SOL    HW1 2537   2.847   1.998   1.994 -1.6158  2.0537  2.2122
  846SOL    HW2 2538   2.854   1.911   2.138  1.0712 -3.0650  4.5360
  847SOL     OW 2539   1.185   0.684   1.474  0.4452  0.2475  0.2204
  847SOL    HW1 2540   1.177   0.727   1.568 -1.6359 -1.3740  0.5164
  847SOL    HW2 2541   1.116   0.605   1.458 -3.0088 -4.2736  1.3572
  848SOL     OW 2542   2.859   2.939   0.050  0.1265  0.0885  0.2197
  848SOL    HW1 2543   2.809   3.003   0.114  0.5635 -1.9481 -0.1735
  848SOL    HW2 2544   2.961   2.962   0.050  2.6101  2.1823 -1.0744
  849SOL     OW 2545   0.750   2.956   0.016  0.5482  0.4587  0.5626
  849SOL    HW1 2546   0.704   3.001   3.056 -0.2554 -3.4472  1.3669
  849SOL    HW2 2547   0.849   2.979   0.017 -0.3660 -0.9708 -0.1915
  850SOL     OW 2548   1.281   3.010   1.108  0.2262 -0.2561 -0.3557
  850SOL    HW1 2549   1.368   3.006   1.056 -0.4092  0.7981  1.8451
  850SOL    HW2 2550   1.214   3.059   1.047  1.3684 -0.6070  2.3732
  851SOL     OW 2551   2.604   0.191   1.944 -0.3432  0.5538  0.1890
  851SOL    HW1 2552   2.607   0.286   1.913  0.5259 -0.1314  0.8666
  851SOL    HW2 2553   2.693   0.152   1.955  0.8978 -1.4444 -3.8608
  852SOL     OW 2554   2.061   0.739   2.488 -0.1963  0.3182 -0.1194
  852SOL    HW1 2555   2.070   0.739   2.384  0.0169  1.6467 -1.5744
  852SOL    HW2 2556   2.139   0.698   2.539 -1.1230  0.8788  2.3526
  853SOL     OW 2557   0.002   3.119   0.444 -0.3415  0.1495  0.4569
  853SOL    HW1 2558   0.009   0.082   0.505  0.6685 -0.5682  0.9620
  853SOL    HW2 2559   3.027   3.083   0.445  1.5670  0.4221 -0.3800
  854SOL     OW 2560   2.351   1.413   2.067 -0.7048  0.4698  0.0911
  854SOL    HW1 2561   2.381   1.503   2.110  0.4267  0.0352 -0.5819
  854SOL    HW2 2562   2.315   1.424   1.972 -0.6114  0.7821  1.6087
  855SOL     OW 2563   0.830   2.642   0.227  0.2305 -0.1222 -0.9549
  855SOL    HW1 2564   0.782   2.657   0.140 -0.4187  1.5784  0.2385
  855SOL    HW2 2565   0.849   2.543   0.234 -0.9527  2.9688 -0.0473
  856SOL     OW 2566   3.071   0.055   2.803  0.0272 -0.1820 -0.0948
  856SOL    HW1 2567   3.053   0.089   2.708 -0.3878 -1.2316  1.6479
  856SOL    HW2 2568   3.059   3.075   2.816  0.8555 -1.2755  2.6454
  857SOL     OW 2569   1.190   3.007   1.605 -0.9988  0.4517 -0.1677
  857SOL    HW1 2570   1.216   2.922   1.546  2.3223 -1.2822  0.5250
  857SOL    HW2 2571   1.112   3.050   1.567  4.5960  0.5094  1.3149
  858SOL     OW 2572   2.928   2.464   1.764 -0.0031 -0.3807  0.3069
  858SOL    HW1 2573   2.889   2.378   1.731 -0.9142  0.2538  2.0554
  858SOL    HW2 2574   3.023   2.476   1.737 -1.6387 -2.0875 -1.5155
  859SOL     OW 2575   1.457   2.420   1.878  0.3359  0.2755  0.7977
  859SOL    HW1 2576   1.381   2.384   1.819  1.6601  0.1576 -3.7851
  859SOL    HW2 2577   1.495   2.504   1.833 -3.0606 -0.6787  0.6808
  860SOL     OW 2578   2.395   2.835   0.057 -0.7251  0.0186  0.2232
  860SOL    HW1 2579   2.369   2.810   3.083 -0.6525 -1.7480 -0.6266
  860SOL    HW2 2580   2.338   2.783   0.125 -1.5049 -1.4246  2.4533
  861SOL     OW 2581   2.144   2.849   0.743 -0.4693 -0.0236  0.0016
  861SOL    HW1 2582   2.062   2.892   0.701  0.4751 -1.8066  3.3096
  861SOL    HW2 2583   2.181   2.774   0.684 -0.1995  1.9961 -0.0474
  862SOL     OW 2584   1.792   0.176   2.385 -0.6061  0.1245 -0.4949
  862SOL    HW1 2585   1.841   0.091   2.408  0.1406 -0.1916  2.2200
  862SOL    HW2 2586   1.854   0.256   2.351 -0.4070  2.5846 -0.8452
  863SOL     OW 2587   0.016   0.604   0.831 -0.1095 -0.5197  0.7358
  863SOL    HW1 2588   0.119   0.599   0.833 -0.0284  1.2944 -1.8790
  863SOL    HW2 2589   3.109   0.633   0.735 -0.5765  0.8078  0.9790
  864SOL     OW 2590   0.290   2.964   2.111  0.3540  0.2270 -0.4469
  864SOL    HW1 2591   0.347   2.908   2.180  1.6804 -1.6165 -0.1696
  864SOL    HW2 2592   0.198   2.992   2.147  1.6752 -1.5357 -0.7393
  865SOL     OW 2593   0.629   1.075   0.003 -0.2028 -0.1625  0.3301
  865SOL    HW1 2594   0.606   0.980   3.112 -1.1746  3.2481  0.3988
  865SOL    HW2 2595   0.554   1.122   0.046  3.5586  3.5033 -0.5665
  866SOL     OW 2596   2.799   0.757   0.181  0.4892 -0.2055  0.2343
  866SOL    HW1 2597   2.888   0.782   0.215 -2.2190 -0.6527 -1.8330
  866SOL    HW2 2598   2.800   0.661   0.148 -2.7089  0.0698 -0.4086
  867SOL     OW 2599   3.052   2.910   2.888 -0.2071  0.5209  0.6354
  867SOL    HW1 2600   3.077   2.915   2.988 -3.5059 -0.6082 -0.6073
  867SOL    HW2 2601   2.948   2.914   2.887 -2.4188  3.2731  0.1623
  868SOL     OW 2602   1.446   3.046   0.361  0.0565 -0.5839 -0.4255
  868SOL    HW1 2603   1.396   3.051   0.451 -0.6990 -0.7899  5.2455
  868SOL    HW2 2604   1.447   2.949   0.320  3.0322 -3.8319 -2.1513
  869SOL     OW 2605   1.585   1.658   0.622 -0.4978 -0.2977 -0.1943
  869SOL    HW1 2606   1.610   1.697   0.711  1.5717  0.9263 -0.8300
  869SOL    HW2 2607   1.592   1.731   0.553 -0.3990 -2.2179  0.9447
  870SOL     OW 2608   1.780   1.958   0.777  0.5977 -0.0727 -0.1390
  870SOL    HW1 2609   1.874   1.926   0.805  2.2250  0.2643 -3.1707
  870SOL    HW2 2610   1.794   2.018   0.696  2.1998 -0.8124  2.6613
  871SOL     OW 2611   1.377   1.380   1.387 -0.4007  0.5351 -0.2101
  871SOL    HW1 2612   1.310   1.309   1.416  0.7076  1.0067 -0.4340
  871SOL    HW2 2613   1.442   1.343   1.321 -1.4573 -0.4742  0.4727
  872SOL     OW 2614   1.168   1.755   1.771  0.2771  0.2365 -0.6099
  872SOL    HW1 2615   1.093   1.743   1.705  1.2516  2.0774  0.0445
  872SOL    HW2 2616   1.133   1.759   1.868  2.2363 -0.2123  0.1265
  873SOL     OW 2617   0.964   1.572   2.475 -0.4204  0.7283  0.3664
  873SOL    HW1 2618   0.920   1.504   2.535  3.6366  2.1744  0.4034
  873SOL    HW2 2619   0.951   1.665   2.514  1.9641 -1.7197 -0.2611
  874SOL     OW 2620   0.574   1.274   1.119  0.4982 -0.0249 -0.6119
  874SOL    HW1 2621   0.472   1.271   1.105 -1.6060  2.2483 -2.7582
  874SOL    HW2 2622   0.609   1.178   1.122 -0.3381  0.8279  1.4278
  875SOL     OW 2623   2.730   0.100   1.190 -0.4056  0.0504 -0.0266
  875SOL    HW1 2624   2.664   0.138   1.125  1.4419 -1.1423  1.3838
  875SOL    HW2 2625   2.698   0.115   1.283 -3.4853 -0.3125 -1.5482
  876SOL     OW 2626   0.818   0.633   0.081 -0.3815  0.1842  0.4432
  876SOL    HW1 2627   0.861   0.543   0.102 -3.7272 -1.8711  1.2457
  876SOL    HW2 2628   0.761   0.667   0.154  0.2274  0.2977 -1.9891
  877SOL     OW 2629   3.060   0.189   1.389 -0.1905 -0.2538  0.2702
  877SOL    HW1 2630   3.013   0.252   1.319 -1.5069 -1.0163  1.9979
  877SOL    HW2 2631   2.992   0.111   1.411 -1.8674  0.6954  0.1569
  878SOL     OW 2632   1.657   2.038   3.024 -0.1502 -0.7074  0.0496
  878SOL    HW1 2633   1.744   2.086   3.046 -2.5741 -2.2095  1.5243
  878SOL    HW2 2634   1.673   1.937   3.013  0.4151  1.9616 -0.9955
  879SOL     OW 2635   2.312   1.934   1.465  0.2142  0.5901 -0.5899
  879SOL    HW1 2636   2.206   1.941   1.472 -1.8547 -0.8405 -1.5547
  879SOL    HW2 2637   2.345   1.916   1.562  4.1076  1.1549 -0.0064
  880SOL     OW 2638   0.751   0.205   1.578  0.1772 -0.3760 -0.4588
  880SOL    HW1 2639   0.697   0.192   1.669 -0.7413  1.2332  4.0515
  880SOL    HW2 2640   0.749   0.305   1.554  0.0300  2.0245  1.3362
  881SOL     OW 2641   1.050   2.026   3.086  0.3894 -0.0655 -0.9362
  881SOL    HW1 2642   1.078   2.079   3.005 -1.2837  1.2076  3.3280
  881SOL    HW2 2643   1.097   1.937   3.095 -1.3902 -1.0880  0.1308
  882SOL     OW 2644   2.102   1.242   2.032  0.2087  1.1346 -0.3289
  882SOL    HW1 2645   2.168   1.170   2.001  1.3237 -0.1313 -0.3148
  882SOL    HW2 2646   2.151   1.291   2.106  0.4950  0.9157 -0.4549
  883SOL     OW 2647   1.227   0.709   2.025  0.1739 -0.2160  0.1489
  883SOL    HW1 2648   1.162   0.680   1.951 -0.0440 -1.4357 -1.4936
  883SOL    HW2 2649   1.325   0.708   1.989 -0.4461  1.3465 -0.7022
  884SOL     OW 2650   2.798   0.505   0.062  0.2954 -0.3594  0.2067
  884SOL    HW1 2651   2.826   0.403   0.069  1.4447  1.8440 -0.6939
  884SOL    HW2 2652   2.853   0.542   3.107  0.0578  0.6418  0.6438
  885SOL     OW 2653   0.271   2.274   0.311  0.7566 -0.4177  0.0130
  885SOL    HW1 2654   0.289   2.179   0.340  1.9852 -1.3492  1.8275
  885SOL    HW2 2655   0.353   2.312   0.263  0.2829 -0.1327 -1.4528
  886SOL     OW 2656   1.993   1.407   3.043 -0.5343  0.4305  0.4431
  886SOL    HW1 2657   2.049   1.372   2.960  1.0883 -0.9098  0.7258
  886SOL    HW2 2658   1.923   1.335   3.072 -0.5578 -0.6728  1.6099
  887SOL     OW 2659   1.708   0.562   1.684  0.2099 -0.4941 -0.1707
  887SOL    HW1 2660   1.606   0.554   1.695 -0.4330  0.4978 -0.1991
  887SOL    HW2 2661   1.734   0.662   1.667  1.5119 -0.3836  0.2716
  888SOL     OW 2662   2.971   1.146   1.846 -0.2208  0.0220  0.0541
  888SOL    HW1 2663   3.060   1.181   1.821 -0.5624 -0.5122 -2.4509
  888SOL    HW2 2664   2.968   1.123   1.943 -3.5121 -1.2612 -1.9972
  889SOL     OW 2665   2.893   2.683   1.031  0.2196  0.0325 -0.0570
  889SOL    HW1 2666   2.973   2.748   1.014  1.2912  2.4567  0.1561
  889SOL    HW2 2667   2.884   2.612   0.958 -1.4866 -1.2686  2.3820
  890SOL     OW 2668   0.040   2.768   2.699 -0.7573  0.5555 -0.2136
  890SOL    HW1 2669   0.056   2.665   2.714  2.2344 -2.5705  1.1904
  890SOL    HW2 2670   0.010   2.815   2.786 -2.2901  0.7158 -4.7673
  891SOL     OW 2671   0.431   1.786   0.235 -0.2745  0.6522  0.1320
  891SOL    HW1 2672   0.512   1.842   0.212 -0.4390 -3.4652  0.1510
  891SOL    HW2 2673   0.454   1.689   0.212 -1.5539  2.1133  1.7246
  892SOL     OW 2674   0.212   2.545   1.246  0.4188  0.2268  0.2890
  892SOL    HW1 2675   0.259   2.508   1.331  0.8372  0.6239 -1.7926
  892SOL    HW2 2676   0.109   2.524   1.262 -1.3799 -0.1790  1.6972
  893SOL     OW 2677   0.526   2.996   1.216  0.1702 -0.3558  0.1721
  893SOL    HW1 2678   0.551   3.068   1.285 -0.3861 -0.6088  0.1998
  893SOL    HW2 2679   0.493   2.911   1.267 -0.9804 -2.6583 -0.0565
  894SOL     OW 2680   2.344   1.629   0.894 -0.1974 -0.3316  0.0626
  894SOL    HW1 2681   2.408   1.696   0.856  0.0596  1.7470 -1.6037
  894SOL    HW2 2682   2.299   1.579   0.819 -0.3478 -0.8171  2.0541
  895SOL     OW 2683   2.796   2.686   1.687 -0.2783 -0.3085 -0.8459
  895SOL    HW1 2684   2.833   2.600   1.720 -1.5387  2.3972  2.0248
  895SOL    HW2 2685   2.816   2.701   1.590  1.9253 -1.3259  0.6208
  896SOL     OW 2686   1.050   0.443   1.416  0.2513 -0.0065 -0.6905
  896SOL    HW1 2687   1.107   0.363   1.455  0.6957 -2.4676 -0.0270
  896SOL    HW2 2688   0.970   0.454   1.474  2.7656  0.1991 -0.5448
  897SOL     OW 2689   1.050   1.648   1.533 -0.0886  0.2430 -0.1145
  897SOL    HW1 2690   0.991   1.722   1.497  0.0195 -0.9868  2.2039
  897SOL    HW2 2691   1.141   1.653   1.485 -2.0635 -1.1674 -1.2515
  898SOL     OW 2692   1.442   2.640   1.679 -1.0028  0.1083 -0.1023
  898SOL    HW1 2693   1.435   2.687   1.588 -1.2485 -0.5492  0.4647
  898SOL    HW2 2694   1.350   2.624   1.721 -1.9578 -0.8732  0.7007
  899SOL     OW 2695   0.960   0.408   0.124  0.8355 -0.4975 -0.4078
  899SOL    HW1 2696   0.958   0.411   0.223  1.7095 -0.4307  1.4276
  899SOL    HW2 2697   0.888   0.341   0.093  0.4782  2.2590  3.5612
  900SOL     OW 2698   1.432   2.387   2.156 -0.3608  0.1434  0.1754
  900SOL    HW1 2699   1.497   2.439   2.216 -1.2211  0.6942 -0.8187
  900SOL    HW2 2700   1.432   2.428   2.062 -1.1509  2.1076  2.7740
  901SOL     OW 2701   1.076   2.189   0.169 -0.0259 -0.3086  0.2397
  901SOL    HW1 2702   1.050   2.124   0.092 -1.1803 -3.1071  0.0225
  901SOL    HW2 2703   1.154   2.146   0.218  0.4451 -0.9423 -0.1238
  902SOL     OW 2704   1.552   1.347   0.786 -0.2466  0.0399  0.1766
  902SOL    HW1 2705   1.454   1.385   0.797 -0.2967 -0.8312  2.2064
  902SOL    HW2 2706   1.615   1.410   0.743  0.6019 -1.4939  1.5679
  903SOL     OW 2707   2.420   0.984   0.179 -0.2741 -0.1072  0.4047
  903SOL    HW1 2708   2.391   0.997   0.083  2.9670  0.6381  0.8763
  903SOL    HW2 2709   2.489   1.053   0.211  0.2474  0.1386 -3.5357
  904SOL     OW 2710   0.822   1.207   0.128 -0.4628  0.8227 -0.5530
  904SOL    HW1 2711   0.771   1.142   0.068  1.0182 -0.7667 -0.0644
  904SOL    HW2 2712   0.776   1.204   0.220  1.0887 -0.3362  0.9677
  905SOL     OW 2713   2.229   2.895   1.187 -0.2107  0.2377 -0.0593
  905SOL    HW1 2714   2.190   2.815   1.237  0.3183  1.8603  0.6286
  905SOL    HW2 2715   2.242   2.965   1.262 -1.7593  2.7793  1.2476
  906SOL     OW 2716   2.827   2.513   1.230 -0.3663  0.6719 -0.1021
  906SOL    HW1 2717   2.861   2.583   1.161 -0.3921  2.4320 -1.2606
  906SOL    HW2 2718   2.735   2.474   1.206 -3.6434 -0.8966  2.2896
  907SOL     OW 2719   1.257   0.941   0.422 -0.1923  0.2725 -0.2702
  907SOL    HW1 2720   1.272   0.844   0.400  2.6369  0.0136 -1.7784
  907SOL    HW2 2721   1.209   0.982   0.341 -1.4177  2.7719 -1.8662
  908SOL     OW 2722   1.502   0.162   1.053 -0.4877  0.4327 -0.3096
  908SOL    HW1 2723   1.480   0.153   1.152  1.6776 -1.9378 -0.1479
  908SOL    HW2 2724   1.574   0.227   1.035 -0.0727 -0.3276 -0.7981
  909SOL     OW 2725   2.193   1.056   1.541  0.5155  0.1258 -0.4784
  909SOL    HW1 2726   2.278   1.066   1.594 -2.1839  0.7924 -1.0892
  909SOL    HW2 2727   2.212   1.080   1.446  2.3826  0.7584  2.2881
  910SOL     OW 2728   1.963   0.569   2.092  0.4438  0.4742 -0.3183
  910SOL    HW1 2729   1.995   0.629   2.160 -1.3395 -1.8733 -0.6815
  910SOL    HW2 2730   2.020   0.553   2.013 -2.4889 -0.5308  0.2168
  911SOL     OW 2731   2.516   0.847   2.927 -0.7265  0.3073 -0.3767
  911SOL    HW1 2732   2.593   0.778   2.899  3.5250 -3.5893 -0.7307
  911SOL    HW2 2733   2.549   0.882   3.019 -0.6708 -0.9813 -0.5347
  912SOL     OW 2734   0.101   1.250   1.785  1.0871  0.8230  0.0207
  912SOL    HW1 2735   0.086   1.196   1.697 -1.3320  0.3172 -2.3351
  912SOL    HW2 2736   0.135   1.338   1.757 -4.4465 -2.1305  1.7173
  913SOL     OW 2737   3.072   2.496   1.313  0.2829  0.5982 -0.3942
  913SOL    HW1 2738   3.085   2.412   1.374  1.1806 -3.4585  1.1217
  913SOL    HW2 2739   2.992   2.494   1.249 -0.1148  1.0474  0.3562
  914SOL     OW 2740   1.724   0.930   1.892 -0.2258 -0.0107 -0.6207
  914SOL    HW1 2741   1.813   0.985   1.892  3.9509  0.2292 -0.2934
  914SOL    HW2 2742   1.713   0.877   1.806 -0.4927 -0.2116 -3.9888
  915SOL     OW 2743   2.222   0.847   1.168 -0.1286  0.1789  0.1624
  915SOL    HW1 2744   2.262   0.774   1.230  0.3260  1.2678  0.1695
  915SOL    HW2 2745   2.267   0.849   1.077 -0.1884 -1.6636 -1.5804
  916SOL     OW 2746   1.928   2.183   1.082  0.3048  0.0529 -0.2311
  916SOL    HW1 2747   1.875   2.269   1.083  0.4048  0.9959 -0.4545
  916SOL    HW2 2748   1.883   2.110   1.135 -0.0940  0.3074  2.7015
  917SOL     OW 2749   1.923   2.118   2.546  0.2990  0.1190  0.7831
  917SOL    HW1 2750   1.956   2.210   2.569  2.4896  0.7120  0.5549
  917SOL    HW2 2751   1.853   2.131   2.475  1.8228  2.3015 -1.3452
  918SOL     OW 2752   2.017   2.523   2.380 -0.2293  0.3090  0.5337
  918SOL    HW1 2753   2.059   2.604   2.340  0.5588  1.6342  0.4380
  918SOL    HW2 2754   1.928   2.501   2.331  1.0334  0.6667  3.3354
  919SOL     OW 2755   1.376   2.785   1.449  0.0658 -0.2114  0.4022
  919SOL    HW1 2756   1.417   2.880   1.418  0.8259  0.5298 -1.7646
  919SOL    HW2 2757   1.347   2.740   1.363  0.4517 -1.7602 -0.7149
  920SOL     OW 2758   0.175   0.039   2.441  0.6972 -0.0556  0.0897
  920SOL    HW1 2759   0.194   3.065   2.471 -1.2506  0.7055  3.3797
  920SOL    HW2 2760   0.092   0.073   2.488  1.1560  0.0471 -1.5331
  921SOL     OW 2761   3.103   0.847   1.694 -0.6668  0.2846  0.2684
  921SOL    HW1 2762   3.059   0.892   1.612 -1.0019  0.8177 -0.2642
  921SOL    HW2 2763   0.081   0.856   1.693 -0.7013 -0.7331  0.9490
  922SOL     OW 2764   2.205   2.746   0.249  0.3180  0.2515  0.0910
  922SOL    HW1 2765   2.127   2.799   0.218  1.9963 -1.1984 -0.4262
  922SOL    HW2 2766   2.175   2.677   0.321 -2.3913  0.3425 -2.8557
  923SOL     OW 2767   0.555   1.877   0.615  0.3222 -0.1218  0.0059
  923SOL    HW1 2768   0.610   1.940   0.559 -3.5692  0.4810  2.1749
  923SOL    HW2 2769   0.486   1.932   0.665 -0.2062 -0.6930 -0.9996
  924SOL     OW 2770   1.221   0.620   0.079 -0.4582  0.6039  0.0153
  924SOL    HW1 2771   1.149   0.683   0.042  0.2684 -0.8877 -2.3077
  924SOL    HW2 2772   1.178   0.544   0.132 -2.4303  2.1304  0.9888
  925SOL     OW 2773   2.623   0.939   1.187  0.1170  0.0182 -0.5857
  925SOL    HW1 2774   2.599   1.010   1.258 -2.8182 -1.5182 -1.0982
  925SOL    HW2 2775   2.551   0.936   1.111 -0.3846 -0.6783 -2.8249
  926SOL     OW 2776   0.594   0.272   1.210  0.5566 -0.1587 -0.3518
  926SOL    HW1 2777   0.520   0.334   1.181  2.1484  1.7029  0.2879
  926SOL    HW2 2778   0.564   0.188   1.260 -1.6008 -0.2948  0.8255
  927SOL     OW 2779   0.362   1.571   2.362  0.3890  0.4241 -0.4366
  927SOL    HW1 2780   0.270   1.546   2.401  3.1096 -1.0275 -0.6147
  927SOL    HW2 2781   0.374   1.552   2.265  0.9640 -0.6452 -2.3759
  928SOL     OW 2782   0.076   0.329   2.586 -0.4896 -0.5919  0.8337
  928SOL    HW1 2783   0.017   0.358   2.661  2.1384  0.8471  0.5050
  928SOL    HW2 2784   0.171   0.326   2.626  1.3389  0.9182  0.0504
  929SOL     OW 2785   2.905   3.073   1.080  0.1973 -0.1620 -0.3205
  929SOL    HW1 2786   2.953   3.107   0.997 -1.1132 -0.9590  0.1682
  929SOL    HW2 2787   2.838   0.020   1.113  1.0256 -1.6600  0.1655
  930SOL     OW 2788   2.215   0.691   1.731 -0.7897  0.1373 -0.6995
  930SOL    HW1 2789   2.188   0.625   1.811 -1.0890 -1.4082  3.5690
  930SOL    HW2 2790   2.180   0.781   1.749  0.1436 -1.2488  1.3788
  931SOL     OW 2791   1.832   1.189   3.100  0.2727  0.3019 -0.2259
  931SOL    HW1 2792   1.766   1.151   3.033  0.6486  2.0212  0.7002
  931SOL    HW2 2793   1.787   1.188   0.073 -1.1747 -1.7685  1.5136
  932SOL     OW 2794   2.023   1.232   0.358 -0.0906  0.6398  0.4559
  932SOL    HW1 2795   2.056   1.152   0.297 -0.1635 -3.2109 -0.8056
  932SOL    HW2 2796   1.930   1.216   0.398 -1.0440  0.6091 -1.2059
  933SOL     OW 2797   2.128   1.762   1.083 -0.3047 -0.8993 -0.2447
  933SOL    HW1 2798   2.203   1.717   1.036 -0.5508  0.5917 -1.4427
  933SOL    HW2 2799   2.159   1.786   1.175 -1.8059 -1.3005  1.1878
  934SOL     OW 2800   1.941   0.953   2.562  0.0217 -0.2927  0.0033
  934SOL    HW1 2801   1.984   0.862   2.548 -1.7036  0.1214  2.5108
  934SOL    HW2 2802   1.849   0.952   2.599  2.4824  0.2818 -0.4835
  935SOL     OW 2803   0.239   1.010   0.636  0.3316  0.3074 -0.0034
  935SOL    HW1 2804   0.301   1.083   0.603 -1.4160 -0.9595 -1.5136
  935SOL    HW2 2805   0.141   1.042   0.613  0.1282  2.0846  1.4073
  936SOL     OW 2806   0.442   0.116   0.856  0.1356  0.4405  0.4100
  936SOL    HW1 2807   0.510   0.055   0.904 -1.0765 -0.3197  0.7255
  936SOL    HW2 2808   0.452   0.216   0.879  1.6079  1.2627  0.7981
  937SOL     OW 2809   0.023   3.026   2.085  0.1571  0.2110  0.3343
  937SOL    HW1 2810   0.024   2.943   2.147  0.7414 -2.6108  1.1809
  937SOL    HW2 2811   0.019   3.000   1.986  2.7762  1.3384  0.7952
  938SOL     OW 2812   0.139   2.552   0.174 -0.1658 -0.6031  0.1491
  938SOL    HW1 2813   0.049   2.504   0.153 -2.1595  0.1041 -1.5737
  938SOL    HW2 2814   0.128   2.614   0.256  0.2889 -0.0097 -0.2183
  939SOL     OW 2815   1.076   1.812   1.042  0.8633  0.3409  0.2209
  939SOL    HW1 2816   1.039   1.743   0.976 -0.1146  1.1105  0.7827
  939SOL    HW2 2817   1.133   1.768   1.112 -1.9829  0.9412 -0.2622
  940SOL     OW 2818   0.060   0.431   3.008 -0.2102 -0.2318  0.0739
  940SOL    HW1 2819   0.047   0.345   3.065  1.6201  1.0206 -2.0208
  940SOL    HW2 2820   0.156   0.459   3.003 -2.0809 -1.2686 -1.7245
  941SOL     OW 2821   2.133   0.400   2.687  0.2869 -0.4705 -0.5735
  941SOL    HW1 2822   2.062   0.471   2.695  2.0657 -0.6698  0.1578
  941SOL    HW2 2823   2.087   0.309   2.710  0.1340  1.8728  2.0400
  942SOL     OW 2824   1.256   0.388   0.953  0.4429 -0.1332 -0.0294
  942SOL    HW1 2825   1.258   0.335   1.042 -2.8586 -0.1727 -1.1426
  942SOL    HW2 2826   1.238   0.488   0.967 -1.2596  0.0330  0.1724
  943SOL     OW 2827   1.152   0.786   1.726 -0.1295 -0.6635  0.2117
  943SOL    HW1 2828   1.111   0.709   1.782 -1.3054  0.8640 -0.6920
  943SOL    HW2 2829   1.089   0.866   1.734  1.0307  3.7653  0.6354
  944SOL     OW 2830   1.978   0.888   1.489 -0.1839  0.2953  0.1624
  944SOL    HW1 2831   2.016   0.793   1.492 -3.5808  0.8797 -1.6291
  944SOL    HW2 2832   2.052   0.954   1.506 -2.6827 -1.2251 -0.2933
  945SOL     OW 2833   2.728   0.026   0.200 -0.3580 -0.0473 -0.5209
  945SOL    HW1 2834   2.716   0.061   0.294 -0.4901  1.3501 -1.5114
  945SOL    HW2 2835   2.640   3.117   0.159  1.5525  1.3992  0.0519
  946SOL     OW 2836   2.966   0.630   1.942 -0.0987  0.1046  0.3458
  946SOL    HW1 2837   2.883   0.591   1.984  2.0763 -0.8693 -0.6662
  946SOL    HW2 2838   2.943   0.701   1.873  2.3559  0.6218  2.1075
  947SOL     OW 2839   1.124   2.793   0.121  0.0021  0.0792 -0.1264
  947SOL    HW1 2840   1.164   2.781   0.026 -0.6842  0.4592  0.0390
  947SOL    HW2 2841   1.038   2.745   0.131  2.7744  0.8536  0.5584
  948SOL     OW 2842   2.512   2.079   1.350 -0.4747 -0.3302  0.3225
  948SOL    HW1 2843   2.435   2.040   1.403 -1.7188  0.1214 -1.1064
  948SOL    HW2 2844   2.564   1.996   1.322 -1.5151 -0.4939 -2.6664
  949SOL     OW 2845   0.181   1.382   0.005 -0.7412  0.2458 -0.0127
  949SOL    HW1 2846   0.080   1.360   3.110 -3.6617 -0.1854  0.9866
  949SOL    HW2 2847   0.220   1.437   3.053 -1.1008 -0.2206  1.5264
  950SOL     OW 2848   0.620   2.492   1.028 -0.2441  0.3183 -1.0290
  950SOL    HW1 2849   0.568   2.571   0.989 -2.5859  0.6565  2.6059
  950SOL    HW2 2850   0.561   2.427   1.084  0.7603 -2.9154  1.6571
  951SOL     OW 2851   0.552   1.268   2.656  0.4316 -0.2137  0.0101
  951SOL    HW1 2852   0.508   1.324   2.725 -1.8004  1.3080 -0.1944
  951SOL    HW2 2853   0.615   1.199   2.696  0.5090  2.4391 -1.7081
  952SOL     OW 2854   0.356   0.769   0.662 -0.2791  0.1714  0.4447
  952SOL    HW1 2855   0.443   0.799   0.703 -0.0347 -0.3845  1.7587
  952SOL    HW2 2856   0.301   0.853   0.657 -2.2603 -0.0940  0.5672
  953SOL     OW 2857   2.719   2.978   2.313  0.4481 -0.0221 -0.3183
  953SOL    HW1 2858   2.660   2.992   2.396 -0.0859  0.6972 -0.1817
  953SOL    HW2 2859   2.818   2.968   2.335  1.2627  2.1181  0.6014
  954SOL     OW 2860   1.438   1.063   0.830 -0.6478  0.0295 -0.6467
  954SOL    HW1 2861   1.446   1.156   0.787  1.7867  1.1076 -0.6041
  954SOL    HW2 2862   1.476   0.981   0.774 -0.6899 -3.1189  0.2422
  955SOL     OW 2863   0.708   1.854   0.205  0.3613  0.3195  0.1303
  955SOL    HW1 2864   0.782   1.793   0.180 -2.9493  0.9724 -1.8238
  955SOL    HW2 2865   0.742   1.926   0.264 -0.0694  1.7487  0.9587
  956SOL     OW 2866   2.363   0.396   1.986 -0.3616  0.0563  0.0422
  956SOL    HW1 2867   2.395   0.358   2.073  0.8690 -0.2554 -1.7766
  956SOL    HW2 2868   2.436   0.421   1.926  0.2426 -2.9866 -0.0037
  957SOL     OW 2869   2.311   2.467   2.055  0.1622  0.0772  0.4413
  957SOL    HW1 2870   2.324   2.563   2.086  1.1944  0.3912 -0.8016
  957SOL    HW2 2871   2.373   2.405   2.105  0.0492 -1.0960 -1.6183
  958SOL     OW 2872   1.664   1.125   1.260 -0.1576 -0.0162  0.2300
  958SOL    HW1 2873   1.700   1.181   1.336 -0.4426 -2.1980 -2.9800
  958SOL    HW2 2874   1.732   1.051   1.233  1.2343 -1.0679 -2.7527
  959SOL     OW 2875   2.102   1.883   2.112 -0.3904 -0.0210 -0.6446
  959SOL    HW1 2876   2.132   1.949   2.039  2.3204 -1.3972 -1.6759
  959SOL    HW2 2877   2.073   1.929   2.198 -1.5674 -1.7474  0.3551
  960SOL     OW 2878   0.521   0.965   2.836 -0.5201 -0.2077 -0.4532
  960SOL    HW1 2879   0.510   0.909   2.750 -0.4442  1.1803  0.2293
  960SOL    HW2 2880   0.505   0.906   2.918  1.5607 -1.9585 -1.9146
  961SOL     OW 2881   0.144   1.268   2.716  0.1956 -0.0071  0.3081
  961SOL    HW1 2882   0.218   1.231   2.778  0.9404  0.4333  1.1204
  961SOL    HW2 2883   0.161   1.246   2.616 -0.1504  0.9637  1.0558
  962SOL     OW 2884   0.650   1.643   2.403 -0.1452 -0.1008  0.0361
  962SOL    HW1 2885   0.546   1.643   2.408 -3.1143 -2.8114 -0.3834
  962SOL    HW2 2886   0.691   1.619   2.488 -0.0124 -1.2124 -4.7020
  963SOL     OW 2887   2.829   2.006   0.056  0.0906  0.6335 -0.1398
  963SOL    HW1 2888   2.778   2.091   0.045  1.1214 -1.8044 -0.4454
  963SOL    HW2 2889   2.785   1.945   0.126 -1.5022 -0.6445  1.3686
  964SOL     OW 2890   0.699   2.173   1.928 -0.0643 -0.3494 -0.6489
  964SOL    HW1 2891   0.669   2.235   1.999  2.2955 -1.1934 -0.0704
  964SOL    HW2 2892   0.766   2.104   1.969  2.4103 -1.2251  0.6773
  965SOL     OW 2893   1.592   1.924   0.490  0.1749  0.9958 -0.3541
  965SOL    HW1 2894   1.657   1.986   0.535 -0.8655 -0.5712 -1.1736
  965SOL    HW2 2895   1.611   1.924   0.389 -0.6178  2.0246 -0.2660
  966SOL     OW 2896   2.671   1.630   0.102  0.1771 -0.0422  0.4503
  966SOL    HW1 2897   2.634   1.546   0.059 -1.7000  1.1258 -1.4935
  966SOL    HW2 2898   2.773   1.616   0.108 -0.0251  1.3228  0.8940
  967SOL     OW 2899   2.206   0.118   1.889  0.0694  0.1648 -0.5924
  967SOL    HW1 2900   2.295   0.162   1.891 -2.3300  1.7652 -0.5041
  967SOL    HW2 2901   2.166   0.113   1.797  0.4342 -1.2419 -0.2512
  968SOL     OW 2902   1.202   0.173   0.088  0.1343  0.1216  0.0059
  968SOL    HW1 2903   1.239   0.172   3.111  0.3991 -0.7916  1.9266
  968SOL    HW2 2904   1.208   0.260   0.143  0.7496  0.9250 -1.3798
  969SOL     OW 2905   0.188   1.752   2.040 -0.2311  0.3569 -0.1559
  969SOL    HW1 2906   0.264   1.820   2.034  0.5538 -0.2178 -0.8573
  969SOL    HW2 2907   0.215   1.666   2.083 -0.5997 -0.3114 -1.3239
  970SOL     OW 2908   1.940   2.667   1.218  0.6613 -0.6682  0.0990
  970SOL    HW1 2909   2.003   2.634   1.289  1.3322  1.1982 -0.8244
  970SOL    HW2 2910   1.958   2.634   1.124  0.7805  2.1768  0.6776
  971SOL     OW 2911   2.227   2.349   0.798  0.0541  0.0581 -0.3007
  971SOL    HW1 2912   2.261   2.422   0.858  1.8264  0.7299 -4.1806
  971SOL    HW2 2913   2.301   2.297   0.753 -1.7159  0.9603  2.1135
  972SOL     OW 2914   0.004   0.968   2.507 -0.2097  0.1510 -0.2068
  972SOL    HW1 2915   0.064   0.887   2.482  2.1168 -1.6824 -1.5678
  972SOL    HW2 2916   3.073   0.951   2.595 -1.0663  0.2267  1.0029
  973SOL     OW 2917   0.660   0.248   0.636 -0.0621  0.2336  0.2808
  973SOL    HW1 2918   0.677   0.309   0.718  1.5466 -1.1636 -1.3836
  973SOL    HW2 2919   0.741   0.183   0.627  3.4527  0.3539 -1.5765
  974SOL     OW 2920   2.253   0.991   1.995  0.4446  0.6980 -0.5682
  974SOL    HW1 2921   2.334   0.932   1.976  1.6607 -2.2235 -3.0681
  974SOL    HW2 2922   2.177   0.949   1.953  4.2802  1.8025  0.2491
  975SOL     OW 2923   0.172   3.098   0.207 -0.2828 -0.1631  0.1704
  975SOL    HW1 2924   0.101   0.013   0.269  4.4029  0.9596 -2.7154
  975SOL    HW2 2925   0.243   0.052   0.205 -0.3479 -1.2905 -1.6795
  976SOL     OW 2926   0.225   1.823   0.993 -0.1024  0.7775  0.1295
  976SOL    HW1 2927   0.182   1.796   1.081  0.5300 -1.1523 -1.4237
  976SOL    HW2 2928   0.188   1.779   0.905  0.8256 -2.0923 -1.9366
  977SOL     OW 2929   0.957   1.926   0.691 -0.1928 -0.0943  0.9275
  977SOL    HW1 2930   0.946   1.864   0.614  1.6603  2.5953 -0.3001
  977SOL    HW2 2931   0.887   1.898   0.756  0.5769  0.9406 -2.3256
  978SOL     OW 2932   0.080   0.943   0.057 -0.0892 -0.1773  0.1500
  978SOL    HW1 2933   0.128   0.934   3.088 -1.2596  3.2974 -0.2779
  978SOL    HW2 2934   0.006   1.009   0.039 -1.2591 -1.2204  3.2938
  979SOL     OW 2935   1.751   1.456   0.627  0.7002 -0.0623  0.5502
  979SOL    HW1 2936   1.834   1.503   0.663  0.7821 -1.8011  1.2289
  979SOL    HW2 2937   1.682   1.525   0.604 -0.5328  3.8260  0.3155
  980SOL     OW 2938   0.724   2.450   2.182 -0.1537  0.5072  0.4299
  980SOL    HW1 2939   0.796   2.487   2.114  3.3305 -0.8884 -0.5481
  980SOL    HW2 2940   0.767   2.396   2.252  0.9736 -2.7036 -4.4936
  981SOL     OW 2941   2.323   1.015   3.034  0.0814 -0.4916 -0.7214
  981SOL    HW1 2942   2.318   1.106   2.987 -0.4723  0.3672  1.0945
  981SOL    HW2 2943   2.355   0.943   2.972 -1.6638  1.2520 -2.0787
  982SOL     OW 2944   0.160   2.664   1.897 -0.3389  0.6673 -0.1680
  982SOL    HW1 2945   0.127   2.645   1.992 -2.3356 -1.5541  0.3039
  982SOL    HW2 2946   0.248   2.716   1.905  1.2713  1.4207  1.6581
  983SOL     OW 2947   1.897   0.419   1.567  0.8643  0.1721  0.0732
  983SOL    HW1 2948   1.848   0.409   1.478 -1.1798  3.0897 -1.8289
  983SOL    HW2 2949   1.834   0.471   1.627  1.3486  1.4449  0.2406
  984SOL     OW 2950   1.936   3.034   2.548  0.1068  0.3626  0.3907
  984SOL    HW1 2951   2.026   2.980   2.540 -0.0773 -0.4123  0.2583
  984SOL    HW2 2952   1.881   3.006   2.636 -2.3408  0.2290  1.6464
  985SOL     OW 2953   1.554   1.406   1.662  0.5267  0.5969 -0.3494
  985SOL    HW1 2954   1.501   1.334   1.611  0.9385 -1.7141 -0.4801
  985SOL    HW2 2955   1.486   1.460   1.717 -0.1998 -1.0230  0.0122
  986SOL     OW 2956   2.108   2.754   2.248 -0.4754 -0.2080 -0.2062
  986SOL    HW1 2957   2.207   2.741   2.235 -2.6356 -0.5425  1.4474
  986SOL    HW2 2958   2.087   2.832   2.304 -2.5115 -3.9882 -1.0369
  987SOL     OW 2959   2.665   1.829   2.906  0.1954  0.0827 -0.7651
  987SOL    HW1 2960   2.763   1.839   2.936 -0.8469 -0.3836  1.4688
  987SOL    HW2 2961   2.656   1.859   2.808  0.5417  0.1528 -2.2463
  988SOL     OW 2962   2.988   0.599   1.632  0.1201  0.0759  0.5800
  988SOL    HW1 2963   3.018   0.688   1.676  0.0366 -0.7317  3.2611
  988SOL    HW2 2964   2.911   0.610   1.573  0.8702  1.0695  1.2554
  989SOL     OW 2965   2.012   1.274   1.588 -0.8471  0.2596  0.1384
  989SOL    HW1 2966   2.071   1.190   1.578  0.3353 -0.4631 -1.1656
  989SOL    HW2 2967   2.069   1.361   1.586  1.8101  0.3794  1.4207
  990SOL     OW 2968   2.970   0.637   3.015  0.6439  0.0776  0.1921
  990SOL    HW1 2969   3.062   0.593   3.027  1.2407 -1.1158 -2.5435
  990SOL    HW2 2970   2.972   0.736   3.036 -1.3369 -1.4620 -1.5091
  991SOL     OW 2971   0.283   1.761   0.011  0.5122 -0.6112  0.3785
  991SOL    HW1 2972   0.222   1.841   3.101 -1.3626 -0.3166 -1.0040
  991SOL    HW2 2973   0.317   1.777   0.107  2.8923 -1.3416  3.8380
  992SOL     OW 2974   2.373   1.920   1.752 -0.2582  0.4055 -0.2807
  992SOL    HW1 2975   2.289   1.872   1.777  3.0597  0.9122  3.0273
  992SOL    HW2 2976   2.376   2.004   1.807 -1.0557 -1.7817 -2.0202
  993SOL     OW 2977   0.605   3.043   0.952 -0.4120  0.3210  0.1338
  993SOL    HW1 2978   0.576   3.038   1.048  0.5349 -0.5170 -0.9651
  993SOL    HW2 2979   0.694   3.093   0.943 -0.3107  1.9470 -0.7057
  994SOL     OW 2980   2.833   2.269   1.519  0.3619  0.2519  0.2195
  994SOL    HW1 2981   2.934   2.263   1.500 -0.4226 -0.5244 -0.4625
  994SOL    HW2 2982   2.802   2.176   1.550  1.2612 -0.2821 -0.0451
  995SOL     OW 2983   2.113   1.953   2.436  0.3428 -0.4382  0.2538
  995SOL    HW1 2984   2.061   2.021   2.492 -0.3060 -1.7448 -1.0503
  995SOL    HW2 2985   2.081   1.859   2.444 -1.8280 -0.7780  1.8659
  996SOL     OW 2986   1.984   1.799   2.955  0.1526  0.0982  0.1769
  996SOL    HW1 2987   1.881   1.807   2.966 -1.0140  2.1565  1.5637
  996SOL    HW2 2988   2.019   1.744   3.033 -1.1926 -1.1245  0.0544
  997SOL     OW 2989   0.963   1.341   1.885 -0.2090  0.0728 -0.2610
  997SOL    HW1 2990   0.880   1.400   1.886  2.5416  0.0430 -1.5162
  997SOL    HW2 2991   1.040   1.381   1.941  1.3636 -1.5131  0.2902
  998SOL     OW 2992   2.772   2.216   0.584 -0.2616  0.4572  0.1366
  998SOL    HW1 2993   2.694   2.158   0.562  0.2993 -1.2804  4.1841
  998SOL    HW2 2994   2.754   2.243   0.680 -1.9916 -0.2894 -0.7208
  999SOL     OW 2995   0.081   2.621   0.822 -0.4068  0.1376 -0.1402
  999SOL    HW1 2996   0.056   2.546   0.762  0.3556  0.0857  0.4245
  999SOL    HW2 2997   0.148   2.678   0.767 -0.6527 -1.7837  0.9997
 1000SOL     OW 2998   1.116   0.030   2.895 -0.0612 -0.1469 -0.0194
 1000SOL    HW1 2999   1.074   3.113   2.979  1.6763  0.0466 -0.0760
 1000SOL    HW2 3000   1.172   0.111   2.916 -0.2014 -0.6159 -0.2509
   3.12037   3.12037   3.12037
