1000 SPC/Fw water molecules t= 143.00000 step= 143000
 3000
    1SOL     OW    1   2.283   2.521   0.920 -0.3297  0.0635 -0.0183
    1SOL    HW1    2   2.209   2.538   0.853  0.3620 -0.0442 -1.3836
    1SOL    HW2    3   2.242   2.491   1.011  1.9660 -0.6602 -0.7893
    2SOL     OW    4   1.630   1.671   2.238  1.0825  0.5147 -0.3800
    2SOL    HW1    5   1.730   1.675   2.274  4.1092  1.1130  1.6859
    2SOL    HW2    6   1.582   1.753   2.281 -0.1381  0.0162  2.7920
    3SOL     OW    7   1.730   2.514   2.191  0.1167 -0.3517  0.3567
    3SOL    HW1    8   1.742   2.555   2.282 -1.5418  3.7061  0.8776
    3SOL    HW2    9   1.798   2.562   2.132 -0.4679  1.4448 -2.4170
    4SOL     OW   10   1.514   2.568   2.009  0.2248 -0.3212 -0.5691
    4SOL    HW1   11   1.549   2.552   2.101 -2.1431 -0.3055 -2.2705
    4SOL    HW2   12   1.570   2.524   1.941  0.0179 -0.6449  1.9692
    5SOL     OW   13   0.528   0.673   1.328 -0.3459 -0.1531  0.0322
    5SOL    HW1   14   0.612   0.624   1.299 -0.7117  1.2538  0.9243
    5SOL    HW2   15   0.450   0.608   1.324  1.3796  0.8253  0.5303
    6SOL     OW   16   2.650   0.930   2.980  0.0311  0.9157 -0.1329
    6SOL    HW1   17   2.623   0.836   3.018  1.8075 -0.3998  1.6743
    6SOL    HW2   18   2.577   0.953   2.912 -3.7987 -1.3798 -0.6435
    7SOL     OW   19   0.748   0.519   1.225 -0.1040  0.1610 -0.1598
    7SOL    HW1   20   0.723   0.429   1.271  0.8182  1.0633 -0.5658
    7SOL    HW2   21   0.749   0.502   1.125  1.8588  1.7468  2.4173
    8SOL     OW   22   1.045   2.458   1.415 -0.1560  0.0774  0.3510
    8SOL    HW1   23   0.946   2.452   1.431  0.1692  0.6179 -1.4940
    8SOL    HW2   24   1.102   2.374   1.452  1.3236 -1.4812  1.3146
    9SOL     OW   25   0.731   0.903   0.375 -0.1710  0.3016  0.2614
    9SOL    HW1   26   0.751   0.860   0.291  0.6749  1.8443  4.2332
    9SOL    HW2   27   0.639   0.884   0.413  0.3696 -1.6818 -2.1164
   10SOL     OW   28   0.812   2.345   2.649  0.1479 -0.5660 -0.2434
   10SOL    HW1   29   0.717   2.376   2.623 -0.2396  3.1833 -1.6237
   10SOL    HW2   30   0.864   2.411   2.704  1.3696  0.1394 -0.6828
   11SOL     OW   31   0.214   1.689   3.095 -0.2744 -0.3896  0.1986
   11SOL    HW1   32   0.203   1.790   0.011  0.3292 -0.2183  1.5291
   11SOL    HW2   33   0.225   1.666   2.993  0.2848 -0.4633 -1.4780
   12SOL     OW   34   0.395   0.037   1.379  0.4717 -0.3004  0.1967
   12SOL    HW1   35   0.339   0.063   1.462  0.8400 -0.7303  2.4790
   12SOL    HW2   36   0.436   0.121   1.335 -0.3296  1.2703  1.6039
   13SOL     OW   37   0.823   2.503   0.311 -0.6587  0.1874  0.0973
   13SOL    HW1   38   0.877   2.422   0.347 -1.7947 -0.8550 -0.8724
   13SOL    HW2   39   0.732   2.479   0.279  1.6081  3.4214  0.8230
   14SOL     OW   40   1.339   1.765   0.953  0.7056 -0.1773  0.4206
   14SOL    HW1   41   1.419   1.708   0.934  0.6438  0.4992  1.8031
   14SOL    HW2   42   1.360   1.851   0.993  0.2444 -2.3009 -1.6123
   15SOL     OW   43   2.604   0.850   2.454 -0.1047 -0.1510  0.2002
   15SOL    HW1   44   2.628   0.793   2.537  1.7188 -0.0691 -0.7020
   15SOL    HW2   45   2.538   0.926   2.484 -1.3732  3.3735  0.5113
   16SOL     OW   46   1.550   2.718   0.082  0.8698  0.6901  0.4257
   16SOL    HW1   47   1.579   2.629   0.045 -0.0335  1.0364  1.3722
   16SOL    HW2   48   1.620   2.788   0.061  0.3620  1.2320  1.9004
   17SOL     OW   49   0.695   2.413   2.021 -0.2735 -0.2924 -0.5928
   17SOL    HW1   50   0.686   2.383   2.122  2.2207  2.8150  1.4694
   17SOL    HW2   51   0.624   2.477   1.999 -0.3472  4.5483 -0.0707
   18SOL     OW   52   1.683   1.084   0.499 -0.2918  0.5912  0.1479
   18SOL    HW1   53   1.588   1.086   0.459 -1.8258 -2.8324 -2.4220
   18SOL    HW2   54   1.729   0.994   0.476  0.4267 -2.2886 -1.0951
   19SOL     OW   55   2.454   2.304   2.746  0.3081 -0.1880  0.0130
   19SOL    HW1   56   2.411   2.269   2.834 -0.2825 -0.3690  3.4723
   19SOL    HW2   57   2.500   2.227   2.694  2.7738 -4.8836  0.0029
   20SOL     OW   58   1.893   1.657   2.308 -0.2061  0.1477 -0.3492
   20SOL    HW1   59   1.963   1.615   2.250 -1.8038  0.5144  3.4239
   20SOL    HW2   60   1.933   1.670   2.401  2.6794  0.9738  1.7022
   21SOL     OW   61   0.542   1.989   2.942  0.2282 -0.2890  0.6566
   21SOL    HW1   62   0.589   1.914   2.991 -1.8434 -0.1238 -0.0592
   21SOL    HW2   63   0.481   1.954   2.867  0.0052  0.9492 -0.9428
   22SOL     OW   64   2.072   2.993   1.463 -0.4381  0.1113 -0.1947
   22SOL    HW1   65   1.984   2.979   1.516 -2.9064  2.1871  1.1371
   22SOL    HW2   66   2.112   3.084   1.494  0.5560 -0.3060  0.9379
   23SOL     OW   67   0.129   1.300   1.515  0.0785 -0.1197 -0.1422
   23SOL    HW1   68   0.152   1.325   1.611  0.5238 -0.8199  1.3831
   23SOL    HW2   69   0.165   1.210   1.491 -2.4197  0.2923 -0.6225
   24SOL     OW   70   2.368   1.990   1.784 -0.7898 -0.1728 -0.4370
   24SOL    HW1   71   2.361   2.027   1.691 -2.0466 -0.6621  0.7577
   24SOL    HW2   72   2.323   2.048   1.853  0.7681 -2.7386  1.0525
   25SOL     OW   73   1.989   2.924   2.997  0.1676  0.1317  0.5445
   25SOL    HW1   74   2.064   2.979   2.957  0.3145  2.7970  0.3106
   25SOL    HW2   75   1.967   2.849   2.930  0.6415  0.4619 -2.1068
   26SOL     OW   76   1.084   2.943   0.810 -0.2032 -0.2459  0.0282
   26SOL    HW1   77   1.164   2.881   0.835  0.7768  1.6169  0.6250
   26SOL    HW2   78   1.121   3.030   0.771 -0.2852 -0.7579 -1.8322
   27SOL     OW   79   1.254   1.966   2.847 -0.2727  0.3017  0.1593
   27SOL    HW1   80   1.269   1.948   2.944  1.2067  1.8940 -0.6287
   27SOL    HW2   81   1.156   1.954   2.827  2.2725  1.7350 -0.2693
   28SOL     OW   82   3.001   1.819   1.234  0.0059 -0.3621 -0.1961
   28SOL    HW1   83   3.092   1.850   1.266 -1.8130  2.4446 -0.8071
   28SOL    HW2   84   2.932   1.889   1.253  1.6453 -1.9160 -3.3970
   29SOL     OW   85   2.200   2.177   2.276 -0.1484  0.5390 -0.1870
   29SOL    HW1   86   2.277   2.236   2.301 -0.4635 -1.3654 -0.1794
   29SOL    HW2   87   2.221   2.075   2.305  0.0715 -3.7510 -0.3710
   30SOL     OW   88   0.923   2.824   1.188 -0.0772  0.3292 -0.1583
   30SOL    HW1   89   0.980   2.905   1.206  0.0058  0.2127 -1.8955
   30SOL    HW2   90   0.856   2.839   1.111  3.1458  0.8432 -2.5215
   31SOL     OW   91   3.063   2.079   1.915 -0.0031 -0.8396 -0.9645
   31SOL    HW1   92   3.015   1.986   1.918 -1.3738 -1.6267 -1.3547
   31SOL    HW2   93   0.059   2.075   1.875 -0.0180 -1.2081  3.8750
   32SOL     OW   94   1.177   0.982   2.140  0.1142 -0.3053  0.0522
   32SOL    HW1   95   1.135   1.048   2.078 -3.7254 -2.8652  2.4150
   32SOL    HW2   96   1.205   1.030   2.230  2.1666 -0.8932  1.0825
   33SOL     OW   97   0.527   2.927   2.451 -0.1654 -0.4336  0.0167
   33SOL    HW1   98   0.458   2.987   2.500 -2.4472 -0.4937  0.2528
   33SOL    HW2   99   0.563   2.853   2.511 -0.0645 -0.6225 -0.4753
   34SOL     OW  100   1.410   3.039   1.479  0.6174  0.2772 -0.4137
   34SOL    HW1  101   1.348   2.964   1.441  1.5505 -1.5024  0.1053
   34SOL    HW2  102   1.508   3.020   1.452 -0.0896 -0.4779  1.1854
   35SOL     OW  103   2.022   0.456   1.005  0.3219  0.4378 -0.2867
   35SOL    HW1  104   2.026   0.376   0.948  1.4603  0.8774  0.8206
   35SOL    HW2  105   1.946   0.444   1.068 -0.0505  1.1617 -1.3074
   36SOL     OW  106   2.008   2.821   2.447  0.4399 -0.4615 -0.1471
   36SOL    HW1  107   2.102   2.822   2.412 -2.2625 -0.1191  1.5510
   36SOL    HW2  108   1.955   2.892   2.401  1.9561 -0.9443  1.6768
   37SOL     OW  109   1.352   2.427   2.471  0.2471  0.4344 -0.5494
   37SOL    HW1  110   1.266   2.469   2.505  0.0167 -1.3124  0.8449
   37SOL    HW2  111   1.357   2.396   2.373 -0.6389  2.7278 -0.6322
   38SOL     OW  112   2.358   0.675   2.808  0.2189 -0.2396 -0.2517
   38SOL    HW1  113   2.261   0.683   2.843 -0.9366  0.8441 -0.8833
   38SOL    HW2  114   2.432   0.672   2.881 -0.0712 -1.3037 -1.0391
   39SOL     OW  115   1.768   2.060   2.463  0.4431  0.4557  0.8091
   39SOL    HW1  116   1.855   2.074   2.509 -2.5758  0.1552 -2.1315
   39SOL    HW2  117   1.783   2.015   2.371  0.4221 -0.4161 -1.0107
   40SOL     OW  118   0.412   0.125   2.953 -0.2777 -0.0786 -0.3020
   40SOL    HW1  119   0.482   0.176   2.895  1.9528  1.7441 -0.7118
   40SOL    HW2  120   0.387   0.038   2.912  0.5762  1.0271  1.9069
   41SOL     OW  121   1.421   0.832   1.557  0.0210  0.1065  0.4676
   41SOL    HW1  122   1.439   0.901   1.484  3.2831  2.0054  0.1752
   41SOL    HW2  123   1.317   0.812   1.568 -2.4212  0.0251  0.0285
   42SOL     OW  124   0.340   0.368   1.647  0.4385  0.4846  0.5446
   42SOL    HW1  125   0.318   0.264   1.637 -1.8587 -1.1771 -0.5843
   42SOL    HW2  126   0.442   0.379   1.668  0.9000  0.8918  0.0574
   43SOL     OW  127   1.585   0.969   1.983  0.4666 -0.1433  0.5237
   43SOL    HW1  128   1.570   1.069   1.994  0.3328  0.8968  1.6981
   43SOL    HW2  129   1.583   0.942   1.886 -0.8843  0.2664  2.3972
   44SOL     OW  130   0.145   2.739   2.648  0.1032 -0.6004  0.5235
   44SOL    HW1  131   0.227   2.743   2.704  0.2865 -1.6463 -1.6638
   44SOL    HW2  132   0.131   2.809   2.570 -2.5857 -0.6745 -6.1325
   45SOL     OW  133   0.313   2.484   1.033 -0.1674 -0.2148 -0.0631
   45SOL    HW1  134   0.278   2.570   0.991  2.0330  0.8367  1.6104
   45SOL    HW2  135   0.405   2.459   0.989  0.6416 -1.6180 -1.7084
   46SOL     OW  136   2.204   2.233   1.876  0.3658  0.8063  0.5126
   46SOL    HW1  137   2.113   2.244   1.921  0.9052  0.7606  0.1875
   46SOL    HW2  138   2.267   2.292   1.929 -0.5908  1.8168  0.9395
   47SOL     OW  139   1.767   1.945   1.626 -0.0035 -0.4304  0.1367
   47SOL    HW1  140   1.746   1.926   1.723  1.3953  0.0195  0.5371
   47SOL    HW2  141   1.848   1.893   1.594 -2.0235  0.3841  0.1889
   48SOL     OW  142   0.426   1.901   0.421  0.3378  0.0884 -0.1300
   48SOL    HW1  143   0.445   1.799   0.433 -0.0346 -0.0356 -0.2478
   48SOL    HW2  144   0.454   1.955   0.500  0.2116  0.5397 -1.0499
   49SOL     OW  145   2.888   0.647   2.235 -0.5545  0.2197  0.0184
   49SOL    HW1  146   2.890   0.626   2.341  1.4672 -1.5576  4.8716
   49SOL    HW2  147   2.843   0.738   2.220 -1.2308  0.8279  0.3998
   50SOL     OW  148   2.212   0.616   0.886  0.8428 -0.2568  0.0486
   50SOL    HW1  149   2.133   0.572   0.940 -1.5451 -1.3581  2.6616
   50SOL    HW2  150   2.305   0.603   0.931  1.1380  0.1801  2.7668
   51SOL     OW  151   1.250   0.495   0.832 -0.2502  0.4819  0.0094
   51SOL    HW1  152   1.186   0.456   0.900  1.8790 -0.6345  0.8815
   51SOL    HW2  153   1.290   0.580   0.874  1.4976  2.6985  1.3024
   52SOL     OW  154   1.354   1.143   0.391  0.3554  0.3872  0.2130
   52SOL    HW1  155   1.320   1.139   0.294 -0.4183 -0.6307 -0.8219
   52SOL    HW2  156   1.302   1.073   0.445 -1.1560 -0.2217 -1.3688
   53SOL     OW  157   1.095   2.237   2.532 -0.3228 -0.3699 -0.3960
   53SOL    HW1  158   1.020   2.167   2.545  0.6022  0.0889 -0.8696
   53SOL    HW2  159   1.129   2.274   2.626  1.1479  0.7150  3.1829
   54SOL     OW  160   1.611   0.863   1.738  0.4690 -0.0901 -0.8385
   54SOL    HW1  161   1.661   0.773   1.754  0.5659  0.0036  1.4969
   54SOL    HW2  162   1.534   0.854   1.668  0.9205  0.2121 -0.0850
   55SOL     OW  163   2.024   2.834   0.767 -0.0031  0.2060 -0.1880
   55SOL    HW1  164   1.925   2.837   0.777  1.0582  0.2558  2.3436
   55SOL    HW2  165   2.055   2.745   0.733 -0.9435  2.6719  3.4549
   56SOL     OW  166   0.668   2.670   1.267 -0.1606 -0.3806  0.0598
   56SOL    HW1  167   0.758   2.687   1.224  1.2281  2.1381  2.1122
   56SOL    HW2  168   0.636   2.761   1.296  1.0533 -0.8712  1.2446
   57SOL     OW  169   1.974   0.990   0.197 -0.4109  0.4899 -0.4832
   57SOL    HW1  170   2.031   1.009   0.275 -0.0166  0.7295  0.1893
   57SOL    HW2  171   1.962   1.073   0.142 -0.7833  1.9391  0.2782
   58SOL     OW  172   2.989   1.155   2.123 -0.8484 -0.1465 -0.3440
   58SOL    HW1  173   3.031   1.238   2.172  2.3925  2.0420  0.2463
   58SOL    HW2  174   2.925   1.186   2.049  0.7806 -1.7185 -0.5958
   59SOL     OW  175   0.720   2.416   2.320  0.1066 -0.6785 -0.0158
   59SOL    HW1  176   0.664   2.409   2.400  0.6242 -1.3697 -3.3905
   59SOL    HW2  177   0.767   2.507   2.326  0.6079  2.2913  0.8952
   60SOL     OW  178   2.497   2.587   1.040  0.2818  0.2573  0.1655
   60SOL    HW1  179   2.409   2.559   0.990 -0.6956 -0.6182 -3.4205
   60SOL    HW2  180   2.551   2.647   0.976  0.0108  1.3818  1.5518
   61SOL     OW  181   1.344   1.963   0.305  0.3052 -0.1129 -0.9141
   61SOL    HW1  182   1.268   1.949   0.372 -1.3849 -1.4434 -0.3417
   61SOL    HW2  183   1.356   2.059   0.278  0.8832 -1.2580  0.1251
   62SOL     OW  184   2.320   2.883   0.008 -0.1486  0.4392  0.7187
   62SOL    HW1  185   2.387   2.826   3.058  1.9603 -1.0262  0.9015
   62SOL    HW2  186   2.277   2.832   0.087  0.3020  0.5062  0.4983
   63SOL     OW  187   1.943   0.176   0.193  0.7136 -0.7651  0.4018
   63SOL    HW1  188   2.021   0.241   0.218  1.1643  1.1854 -0.0503
   63SOL    HW2  189   1.850   0.220   0.174  0.9784  2.7676 -0.5362
   64SOL     OW  190   0.899   1.023   2.502 -0.3418 -0.3828 -0.2961
   64SOL    HW1  191   0.985   1.050   2.546 -3.6863  0.5986 -0.2524
   64SOL    HW2  192   0.902   0.924   2.494 -0.2509  1.6090 -0.1848
   65SOL     OW  193   1.375   2.450   0.521  0.1769  0.2775 -0.4391
   65SOL    HW1  194   1.456   2.463   0.465 -1.1775 -3.1892  0.8586
   65SOL    HW2  195   1.379   2.501   0.607 -1.0745  1.3329 -0.8644
   66SOL     OW  196   0.662   1.580   1.586  0.2767  0.2486 -0.5456
   66SOL    HW1  197   0.685   1.676   1.618  0.0303  0.8351  0.2616
   66SOL    HW2  198   0.573   1.553   1.635 -0.7971  0.4633  1.0956
   67SOL     OW  199   2.553   2.969   2.114  0.5585 -0.3767 -0.3136
   67SOL    HW1  200   2.573   3.065   2.086  0.1975  0.3987 -0.8002
   67SOL    HW2  201   2.580   2.942   2.208 -0.0834  0.2439 -1.1572
   68SOL     OW  202   0.869   0.875   1.399 -0.1606  1.0189 -0.0794
   68SOL    HW1  203   0.892   0.773   1.386  1.1048 -1.7459  0.6922
   68SOL    HW2  204   0.803   0.895   1.479 -1.5044  1.3161  2.1151
   69SOL     OW  205   1.831   2.825   0.483  0.6320  0.1178  0.1551
   69SOL    HW1  206   1.831   2.914   0.435  1.3646 -2.7986 -0.0673
   69SOL    HW2  207   1.929   2.797   0.499 -2.4097  0.7708 -2.4524
   70SOL     OW  208   2.898   1.064   2.421 -0.4870 -0.0951 -0.5153
   70SOL    HW1  209   2.854   1.026   2.340  0.5979  0.4472 -0.6928
   70SOL    HW2  210   2.970   1.127   2.393  0.9705  0.1287 -0.2773
   71SOL     OW  211   2.949   1.594   3.016  0.3280 -0.1097  0.3791
   71SOL    HW1  212   2.855   1.552   3.012 -4.2249 -1.2763 -0.6165
   71SOL    HW2  213   2.966   1.663   2.940  1.9208 -1.4542 -2.9232
   72SOL     OW  214   0.022   1.663   0.355  0.0080 -0.4595  0.0769
   72SOL    HW1  215   0.074   1.572   0.355  0.0144 -2.8049 -1.5233
   72SOL    HW2  216   0.070   1.740   0.401  1.3853  2.6662  0.9346
   73SOL     OW  217   1.079   1.243   0.593 -0.7179 -0.2878  0.4956
   73SOL    HW1  218   1.069   1.169   0.659 -1.8148  2.2968 -3.5353
   73SOL    HW2  219   1.131   1.322   0.632  0.0833 -2.0398 -2.6878
   74SOL     OW  220   0.268   1.791   2.079  0.4513  0.3085 -0.3385
   74SOL    HW1  221   0.167   1.795   2.097  2.2092 -2.0445 -0.6871
   74SOL    HW2  222   0.293   1.829   1.991  0.7674 -0.5973  2.4153
   75SOL     OW  223   1.753   1.588   1.675 -0.4972 -0.7968  0.2033
   75SOL    HW1  224   1.680   1.617   1.618 -0.3306  0.8681  1.6389
   75SOL    HW2  225   1.721   1.512   1.743  0.5728 -1.2538 -0.0783
   76SOL     OW  226   2.183   2.613   1.253  0.5071 -0.1116 -0.6011
   76SOL    HW1  227   2.241   2.611   1.341  4.3811 -1.5556  3.8235
   76SOL    HW2  228   2.168   2.711   1.217 -1.9566  2.0396 -3.3009
   77SOL     OW  229   2.706   1.299   1.352 -0.0884  0.3453 -0.2477
   77SOL    HW1  230   2.787   1.277   1.404 -1.1942 -0.2801 -1.2287
   77SOL    HW2  231   2.639   1.228   1.365 -0.0390  3.1488  0.1849
   78SOL     OW  232   1.492   0.825   0.524 -0.5790 -0.6379  0.5070
   78SOL    HW1  233   1.406   0.875   0.546 -1.9495 -0.1594 -2.0169
   78SOL    HW2  234   1.530   0.787   0.609  0.1561  0.1416  0.0144
   79SOL     OW  235   2.482   1.439   1.404  0.4647 -0.1018 -0.4347
   79SOL    HW1  236   2.409   1.445   1.335 -1.6311 -1.9889  2.1905
   79SOL    HW2  237   2.566   1.389   1.377 -0.3183 -0.8182 -3.1919
   80SOL     OW  238   0.906   0.611   1.417 -0.0436 -0.0324 -0.1857
   80SOL    HW1  239   0.862   0.569   1.337 -1.4961 -1.3451  1.4570
   80SOL    HW2  240   0.986   0.563   1.455  0.5524  0.5945 -2.1259
   81SOL     OW  241   0.749   0.060   0.851  0.5290 -0.1529 -0.3343
   81SOL    HW1  242   0.745   0.051   0.754 -0.8806  0.2165  1.2138
   81SOL    HW2  243   0.833   0.093   0.895 -1.9351  0.3579  1.0401
   82SOL     OW  244   1.331   3.069   1.761 -0.0936 -0.3579  0.4351
   82SOL    HW1  245   1.256   3.003   1.774 -1.4215 -0.3983 -0.9889
   82SOL    HW2  246   1.398   3.032   1.695 -0.4594  0.4216 -0.4198
   83SOL     OW  247   1.260   2.168   0.504  0.3501 -0.1453  0.5681
   83SOL    HW1  248   1.233   2.170   0.601 -0.8670 -1.6394  1.1775
   83SOL    HW2  249   1.257   2.260   0.464 -2.3637  1.4926  0.2578
   84SOL     OW  250   0.210   1.686   2.817  0.3985  0.0589 -0.4097
   84SOL    HW1  251   0.117   1.645   2.802 -3.4462 -1.4031 -0.9795
   84SOL    HW2  252   0.284   1.618   2.806 -1.9591  0.2757  0.4219
   85SOL     OW  253   0.226   2.235   1.005  0.1743 -0.1572 -0.0893
   85SOL    HW1  254   0.144   2.230   1.061 -2.2388  1.3133 -0.2737
   85SOL    HW2  255   0.263   2.331   0.998  0.6475  4.1425  0.2145
   86SOL     OW  256   2.322   2.594   1.491 -0.2181  0.6518 -0.1094
   86SOL    HW1  257   2.380   2.606   1.575  1.0573  0.3797  3.4605
   86SOL    HW2  258   2.270   2.507   1.516 -2.2383 -0.3673 -2.6695
   87SOL     OW  259   0.102   1.956   0.930 -0.0725 -0.7987 -0.3094
   87SOL    HW1  260   0.120   1.873   0.991  0.4814  0.7676  0.1135
   87SOL    HW2  261   0.186   2.021   0.927 -0.2093  2.0041 -0.9163
   88SOL     OW  262   0.930   1.177   1.238 -0.1356 -0.0358 -0.2641
   88SOL    HW1  263   0.867   1.241   1.195  0.0674 -3.0612  2.0637
   88SOL    HW2  264   0.947   1.102   1.172 -2.3159  0.1607  0.3457
   89SOL     OW  265   0.874   2.854   2.058 -0.0372  0.0736 -0.4199
   89SOL    HW1  266   0.787   2.893   2.014 -4.8503 -0.9336  0.2067
   89SOL    HW2  267   0.893   2.765   2.017 -1.3420  1.4322 -0.8091
   90SOL     OW  268   0.074   2.151   1.402  0.1554  0.3412  0.4340
   90SOL    HW1  269   0.062   2.075   1.470 -1.9011 -1.4778  3.1965
   90SOL    HW2  270   0.170   2.160   1.375  0.5472 -2.9803 -1.6009
   91SOL     OW  271   1.353   1.847   1.565  0.3213  0.1346  0.1143
   91SOL    HW1  272   1.376   1.764   1.623  1.1630 -3.0394  1.1782
   91SOL    HW2  273   1.424   1.867   1.495  0.9526 -1.9239  0.9900
   92SOL     OW  274   2.508   2.879   1.569  0.0328  0.9315  0.2905
   92SOL    HW1  275   2.464   2.784   1.597 -1.5078 -2.4729  2.3737
   92SOL    HW2  276   2.496   2.942   1.651 -0.3317 -0.6040 -0.0194
   93SOL     OW  277   2.836   1.409   2.752 -0.4486 -0.5212  0.2871
   93SOL    HW1  278   2.771   1.350   2.702 -0.7572  1.6880 -1.8712
   93SOL    HW2  279   2.815   1.414   2.851  1.8720  2.1710  0.1110
   94SOL     OW  280   2.721   2.666   2.001  0.0113 -0.0988 -0.0259
   94SOL    HW1  281   2.723   2.727   2.083 -1.3361  1.0358 -0.2002
   94SOL    HW2  282   2.731   2.731   1.923  1.6863 -0.7008 -2.5862
   95SOL     OW  283   1.252   0.612   1.987 -0.3515  0.5973 -0.5296
   95SOL    HW1  284   1.217   0.579   2.079 -1.5277  0.3085  1.1715
   95SOL    HW2  285   1.303   0.699   1.993  2.4952  0.0963 -0.5591
   96SOL     OW  286   2.670   0.698   1.646 -0.1095 -0.0133  0.2082
   96SOL    HW1  287   2.703   0.617   1.593 -0.4115 -2.5217 -0.5018
   96SOL    HW2  288   2.566   0.701   1.645 -3.3971 -0.3370  0.7684
   97SOL     OW  289   1.946   0.555   1.705 -0.2653  0.1521 -0.2399
   97SOL    HW1  290   1.851   0.562   1.745 -0.1695  1.1278 -1.0948
   97SOL    HW2  291   1.948   0.504   1.614 -0.9504  1.0549  0.7411
   98SOL     OW  292   1.665   2.985   1.399 -0.3465 -0.0242 -0.1004
   98SOL    HW1  293   1.674   3.062   1.332  0.1453 -0.0707 -1.2827
   98SOL    HW2  294   1.725   2.905   1.374  0.1267 -0.4174 -0.6448
   99SOL     OW  295   2.669   0.110   1.976  0.7125 -0.4213  0.0722
   99SOL    HW1  296   2.768   0.114   1.984  0.2890  0.3500  0.6636
   99SOL    HW2  297   2.632   0.201   1.951  0.2028 -0.8308 -1.6806
  100SOL     OW  298   2.662   1.567   1.716 -0.0051 -0.0256 -0.2967
  100SOL    HW1  299   2.672   1.547   1.815  0.4391 -1.1450 -2.7343
  100SOL    HW2  300   2.643   1.478   1.666  0.3781  0.1612 -2.2327
  101SOL     OW  301   1.373   0.257   0.747  0.1898  0.3616  0.2875
  101SOL    HW1  302   1.469   0.254   0.784  3.6331 -0.7968 -1.7470
  101SOL    HW2  303   1.323   0.345   0.775 -2.7967  3.0910  1.1379
  102SOL     OW  304   0.491   1.133   1.209 -0.3197 -0.0975  0.1927
  102SOL    HW1  305   0.404   1.174   1.173  1.5473 -0.1421 -0.1764
  102SOL    HW2  306   0.496   1.150   1.311  2.1349  2.4747  0.5112
  103SOL     OW  307   2.891   0.482   0.180 -0.6450 -0.0446  0.1798
  103SOL    HW1  308   2.939   0.395   0.200 -0.4470  4.1402  0.7212
  103SOL    HW2  309   2.954   0.554   0.145 -0.4968  0.5215  2.4539
  104SOL     OW  310   2.680   0.099   1.707 -0.4026 -0.1334 -0.3881
  104SOL    HW1  311   2.766   0.156   1.686  0.9703 -2.0934 -1.3361
  104SOL    HW2  312   2.677   0.079   1.805  0.8104 -1.3859 -0.4234
  105SOL     OW  313   1.794   0.654   2.250  0.6107  0.5829 -0.1138
  105SOL    HW1  314   1.865   0.630   2.320  1.2073  2.0115 -0.1612
  105SOL    HW2  315   1.783   0.757   2.241 -0.2192  2.4781 -0.8668
  106SOL     OW  316   1.636   0.215   0.888  0.1458 -0.0065 -0.3036
  106SOL    HW1  317   1.701   0.138   0.868 -0.3397 -0.2060 -1.3648
  106SOL    HW2  318   1.569   0.183   0.957 -1.6251  0.4400  1.2641
  107SOL     OW  319   0.688   1.082   0.713 -0.7249  0.8575  0.2110
  107SOL    HW1  320   0.704   1.042   0.621 -4.2113 -1.3866 -0.9627
  107SOL    HW2  321   0.601   1.131   0.725  0.5976 -1.0448  1.2313
  108SOL     OW  322   2.929   0.226   2.107 -0.4288 -0.5882 -0.2911
  108SOL    HW1  323   2.979   0.291   2.050  1.2203 -1.9827 -0.1966
  108SOL    HW2  324   2.991   0.157   2.146 -1.5994  1.5886 -1.2921
  109SOL     OW  325   2.306   0.715   0.222 -0.3521  0.4151  0.3638
  109SOL    HW1  326   2.340   0.816   0.227 -1.2397  0.1743 -0.0075
  109SOL    HW2  327   2.360   0.662   0.297  2.4903 -0.8004  5.2346
  110SOL     OW  328   0.280   2.319   2.820 -0.6368  0.7418 -0.2200
  110SOL    HW1  329   0.226   2.375   2.756 -1.0729  0.3014 -0.8029
  110SOL    HW2  330   0.238   2.227   2.833 -1.1051 -0.3736  1.0683
  111SOL     OW  331   2.182   0.010   2.187 -0.1525 -0.4850  0.2499
  111SOL    HW1  332   2.230   0.094   2.158 -1.3508  1.0761  0.4372
  111SOL    HW2  333   2.083   0.024   2.176 -0.1664 -0.4034 -0.3369
  112SOL     OW  334   2.299   2.793   0.535 -0.1153 -0.4706 -0.1165
  112SOL    HW1  335   2.231   2.868   0.536  1.9130  2.1388  0.7612
  112SOL    HW2  336   2.385   2.816   0.482  2.0933  0.6096 -0.1782
  113SOL     OW  337   2.342   2.094   1.535  0.7837 -0.5682  0.1874
  113SOL    HW1  338   2.358   2.058   1.439  1.7856 -0.3590 -0.6816
  113SOL    HW2  339   2.262   2.154   1.538  0.5580 -5.3351 -0.7381
  114SOL     OW  340   2.705   1.061   0.920  0.1656  0.5957  0.2262
  114SOL    HW1  341   2.609   1.035   0.940 -0.3795  0.1515  1.0602
  114SOL    HW2  342   2.753   0.983   0.887 -0.1963 -0.3011  2.2695
  115SOL     OW  343   3.006   1.786   0.136 -0.0791 -0.2393  0.3948
  115SOL    HW1  344   3.042   1.760   0.228  0.4830  1.1732  3.7219
  115SOL    HW2  345   3.002   1.707   0.074 -1.4277  0.3321  0.3927
  116SOL     OW  346   0.047   1.504   1.970  0.3160 -0.4480 -0.7565
  116SOL    HW1  347   3.053   1.454   1.978  1.7632  0.3194  0.7900
  116SOL    HW2  348   0.110   1.469   2.044 -0.0158 -1.1448  0.9542
  117SOL     OW  349   2.567   0.000   0.646  0.2532 -0.4176  0.0259
  117SOL    HW1  350   2.501   0.059   0.695 -2.9081 -1.1296  0.4076
  117SOL    HW2  351   2.520   3.028   0.589 -1.3522  0.5544 -1.6068
  118SOL     OW  352   0.327   2.245   1.440 -0.0373 -0.1682 -0.1284
  118SOL    HW1  353   0.364   2.254   1.538 -1.0203  2.8379 -1.0910
  118SOL    HW2  354   0.318   2.338   1.394  1.4619 -1.5602 -2.4643
  119SOL     OW  355   1.495   2.037   1.059  0.8192  0.1315 -0.1793
  119SOL    HW1  356   1.532   1.942   1.039  3.3350 -1.6500 -2.2179
  119SOL    HW2  357   1.554   2.080   1.132 -2.0230 -2.4094 -0.6635
  120SOL     OW  358   0.170   1.649   2.375 -0.1483  0.2971  0.0088
  120SOL    HW1  359   0.252   1.648   2.435 -1.8902 -0.2450  0.2194
  120SOL    HW2  360   0.109   1.728   2.399  1.3230 -1.8129  1.9712
  121SOL     OW  361   2.772   1.941   1.264  0.4157  1.0215  0.5034
  121SOL    HW1  362   2.728   2.029   1.287 -0.3488  2.7963 -1.7419
  121SOL    HW2  363   2.713   1.859   1.268 -0.7389 -1.8298 -2.3745
  122SOL     OW  364   2.342   1.341   2.250  0.4690 -0.0186 -0.1022
  122SOL    HW1  365   2.271   1.265   2.225  1.6893 -2.5129  0.1954
  122SOL    HW2  366   2.395   1.324   2.333  0.1382  1.4576  1.4045
  123SOL     OW  367   0.028   0.111   0.753  0.0021  0.5565  0.2093
  123SOL    HW1  368   3.045   0.065   0.796 -2.8687  2.9883 -1.1054
  123SOL    HW2  369   0.120   0.063   0.752 -0.9213 -1.2872  2.1081
  124SOL     OW  370   1.518   1.063   2.776 -0.1696  0.0783  0.5591
  124SOL    HW1  371   1.581   1.051   2.695 -0.4452 -3.1670 -0.2144
  124SOL    HW2  372   1.455   0.984   2.792 -0.7042 -1.5332  1.8767
  125SOL     OW  373   0.445   1.540   2.777  0.0959  0.1913 -0.1349
  125SOL    HW1  374   0.512   1.575   2.845 -2.7262  1.4555  1.4677
  125SOL    HW2  375   0.422   1.439   2.785  1.5959  0.8380  0.7220
  126SOL     OW  376   2.784   1.965   0.119  0.4082 -0.6519  0.5304
  126SOL    HW1  377   2.824   2.033   0.184  0.8349  1.7590  2.3944
  126SOL    HW2  378   2.841   1.881   0.121 -0.8527 -0.0275  0.3398
  127SOL     OW  379   0.672   1.518   0.890 -0.8243  0.0491 -0.0944
  127SOL    HW1  380   0.766   1.528   0.844  1.8033  1.9867 -0.1002
  127SOL    HW2  381   0.603   1.503   0.817  0.4462 -1.3519  1.4568
  128SOL     OW  382   1.310   0.594   0.435 -0.8708  0.2609  0.2198
  128SOL    HW1  383   1.358   0.672   0.480 -0.6788 -1.1205  1.2745
  128SOL    HW2  384   1.364   0.511   0.432 -2.2564  1.3114 -3.3273
  129SOL     OW  385   2.312   1.690   1.155 -0.0949  0.0484  0.3770
  129SOL    HW1  386   2.287   1.654   1.062  0.4671 -2.8886 -1.6245
  129SOL    HW2  387   2.407   1.728   1.157 -0.2387 -0.0527 -1.8729
  130SOL     OW  388   1.971   1.433   0.804 -0.3488  0.2365 -0.2348
  130SOL    HW1  389   2.002   1.531   0.813  4.0393  2.3161  1.3410
  130SOL    HW2  390   1.917   1.392   0.884  1.6391 -1.3643  0.5084
  131SOL     OW  391   3.073   0.975   2.795 -0.3492  0.4245  0.0674
  131SOL    HW1  392   3.052   1.076   2.791 -1.5930  0.6452 -0.5885
  131SOL    HW2  393   0.076   0.953   2.798 -1.8389 -2.0342  0.1103
  132SOL     OW  394   2.559   1.818   1.840 -0.1573  0.4512  0.3601
  132SOL    HW1  395   2.500   1.892   1.796 -1.8108  2.8394 -2.0363
  132SOL    HW2  396   2.589   1.748   1.768 -0.7570 -0.7879 -4.0500
  133SOL     OW  397   3.083   1.227   3.076 -0.2036 -0.0732 -0.0926
  133SOL    HW1  398   3.061   1.313   0.026  0.0398  3.9884 -1.4503
  133SOL    HW2  399   0.003   1.241   2.978 -2.1090  0.1635  2.9050
  134SOL     OW  400   0.226   1.395   3.000 -0.3189  0.1636 -0.2416
  134SOL    HW1  401   0.151   1.363   3.063 -0.5896  0.7239  0.7985
  134SOL    HW2  402   0.294   1.457   3.048  2.1537  2.3076  0.0116
  135SOL     OW  403   2.290   1.252   0.545 -0.5758  0.1521  0.6683
  135SOL    HW1  404   2.355   1.305   0.489 -0.7080  1.3629  0.3560
  135SOL    HW2  405   2.318   1.266   0.640 -1.2156 -0.9180 -3.8990
  136SOL     OW  406   2.012   1.485   1.365 -0.3748 -0.0383  0.0035
  136SOL    HW1  407   2.112   1.462   1.351 -0.1638 -0.2053 -2.5056
  136SOL    HW2  408   1.958   1.488   1.279  2.0871  0.5835 -0.1791
  137SOL     OW  409   2.618   2.183   0.651 -0.2506 -0.0064  0.1296
  137SOL    HW1  410   2.593   2.095   0.693  0.1071 -1.0282  2.3811
  137SOL    HW2  411   2.638   2.179   0.554  0.3281  2.5183 -1.1087
  138SOL     OW  412   1.353   0.209   1.531  0.1957 -0.4267 -0.3452
  138SOL    HW1  413   1.378   0.113   1.511 -0.0639  3.4617  0.4863
  138SOL    HW2  414   1.259   0.213   1.576 -1.1683  1.3550  1.2035
  139SOL     OW  415   2.586   0.196   0.023  0.0203  0.3790  0.1437
  139SOL    HW1  416   2.624   0.245   3.041 -0.1851 -2.5703  1.9680
  139SOL    HW2  417   2.659   0.182   0.099 -0.4056  2.0747  2.7373
  140SOL     OW  418   1.658   2.139   2.708  0.4742 -0.4912 -0.7952
  140SOL    HW1  419   1.686   2.104   2.614  0.1503 -0.8285 -2.7965
  140SOL    HW2  420   1.716   2.105   2.788  3.7853 -4.5414  2.6873
  141SOL     OW  421   0.727   1.003   1.620  0.0543  0.4742  0.4336
  141SOL    HW1  422   0.703   1.080   1.680  2.2576 -2.0608  2.7297
  141SOL    HW2  423   0.796   0.946   1.670 -0.2034  0.5480  2.9008
  142SOL     OW  424   2.717   2.888   0.069  0.1701  0.9017 -0.6117
  142SOL    HW1  425   2.640   2.951   0.067  1.6773  1.7306 -0.1658
  142SOL    HW2  426   2.789   2.917   0.006  0.0218  2.1837 -1.2497
  143SOL     OW  427   0.806   2.148   2.839 -0.0017  0.4995 -0.0794
  143SOL    HW1  428   0.789   2.229   2.772  0.4339  1.1469 -0.3702
  143SOL    HW2  429   0.719   2.115   2.887 -1.4291  0.3198 -0.4961
  144SOL     OW  430   1.093   2.640   2.964  0.4708  0.1117 -0.5336
  144SOL    HW1  431   1.189   2.655   2.934 -1.9637  0.5036  3.2043
  144SOL    HW2  432   1.094   2.557   3.021  1.7016  0.4491  2.0258
  145SOL     OW  433   2.380   1.797   3.079  0.0002  0.0339  0.0877
  145SOL    HW1  434   2.413   1.891   3.044  0.9472  2.4605 -0.1804
  145SOL    HW2  435   2.278   1.793   3.081  1.2871 -0.0753 -1.7235
  146SOL     OW  436   2.746   2.741   2.892 -0.1824  0.1571 -0.3421
  146SOL    HW1  437   2.811   2.824   2.914  0.7221  1.9883 -0.7368
  146SOL    HW2  438   2.804   2.658   2.873  1.5512  0.5937 -0.8861
  147SOL     OW  439   2.642   2.164   1.265 -0.0489 -0.0684  0.2426
  147SOL    HW1  440   2.696   2.220   1.331  2.3777  0.1973 -3.6968
  147SOL    HW2  441   2.596   2.216   1.191 -1.7659 -0.0590 -1.1040
  148SOL     OW  442   1.690   0.257   0.155 -0.0378  0.6718 -0.2854
  148SOL    HW1  443   1.686   0.337   0.093  0.6704 -1.3659 -0.9299
  148SOL    HW2  444   1.655   0.178   0.098 -0.6841 -2.4613  1.6341
  149SOL     OW  445   1.144   1.482   2.760  0.4022 -0.5853 -0.4608
  149SOL    HW1  446   1.190   1.393   2.776 -2.1289  0.2271  1.0103
  149SOL    HW2  447   1.072   1.475   2.686 -3.2903 -1.9005 -1.2254
  150SOL     OW  448   0.967   2.267   0.340 -0.0362  0.2741  0.1084
  150SOL    HW1  449   0.987   2.185   0.403  0.1223 -1.4615  0.2460
  150SOL    HW2  450   0.953   2.235   0.242 -0.9076 -0.2774 -3.7415
  151SOL     OW  451   0.643   1.609   2.961  0.0674 -0.1746 -0.5190
  151SOL    HW1  452   0.685   1.537   3.014 -0.6629  1.0767  1.5048
  151SOL    HW2  453   0.714   1.654   2.901 -3.2128 -0.2920  1.7400
  152SOL     OW  454   2.851   1.412   0.585  0.4474 -0.5847  0.4046
  152SOL    HW1  455   2.902   1.448   0.667  0.0402 -2.3309 -0.9739
  152SOL    HW2  456   2.897   1.328   0.557 -2.7477 -0.8909  1.6322
  153SOL     OW  457   2.427   2.474   0.411  0.3216 -0.1675  0.0574
  153SOL    HW1  458   2.432   2.452   0.509  1.1788 -1.2925  0.6006
  153SOL    HW2  459   2.446   2.572   0.394 -0.2784 -2.3048  1.6789
  154SOL     OW  460   0.501   0.179   0.980  0.1994 -0.5123  0.1533
  154SOL    HW1  461   0.455   0.235   0.909  0.4782  1.0255  1.0906
  154SOL    HW2  462   0.575   0.120   0.942  0.9051  1.1494  1.8950
  155SOL     OW  463   0.410   2.087   0.818  0.3400 -0.6497 -0.0018
  155SOL    HW1  464   0.417   2.135   0.724  0.4280 -2.5350 -1.0198
  155SOL    HW2  465   0.361   2.143   0.883 -0.7392 -3.1342  2.7472
  156SOL     OW  466   2.685   2.428   0.027 -0.1313 -0.1329 -0.2611
  156SOL    HW1  467   2.670   2.410   3.022 -1.5239  0.6297 -2.9333
  156SOL    HW2  468   2.782   2.422   0.049 -3.0114  3.3831 -0.3592
  157SOL     OW  469   0.970   2.067   1.302  0.2255  0.3074  0.5607
  157SOL    HW1  470   0.881   2.104   1.268  0.4140  0.3658  0.2409
  157SOL    HW2  471   0.963   1.981   1.354 -1.3285 -1.4484  0.7151
  158SOL     OW  472   1.741   0.497   3.083 -0.1034 -0.4434 -0.1285
  158SOL    HW1  473   1.782   0.450   3.002 -0.0633 -1.0575 -1.6648
  158SOL    HW2  474   1.784   0.586   3.092 -2.3258  0.2435  0.4702
  159SOL     OW  475   1.040   0.320   3.047 -0.3833  0.1831 -0.0872
  159SOL    HW1  476   0.965   0.346   0.011  0.0309  0.0896 -0.1188
  159SOL    HW2  477   1.127   0.367   3.072  0.7101 -1.2875 -2.4221
  160SOL     OW  478   1.307   1.376   0.124 -0.4007  0.0868 -0.5442
  160SOL    HW1  479   1.300   1.477   0.131  0.6630 -0.6757  0.7326
  160SOL    HW2  480   1.230   1.335   0.178 -1.6594 -0.2306 -0.6066
  161SOL     OW  481   3.005   2.159   2.830 -0.1780  0.0306 -0.1171
  161SOL    HW1  482   2.965   2.184   2.738 -2.4239  0.2305 -0.6817
  161SOL    HW2  483   3.095   2.110   2.826 -1.9933  0.0332 -0.3095
  162SOL     OW  484   0.615   2.680   0.900  0.2227 -0.6713  0.2989
  162SOL    HW1  485   0.690   2.731   0.945  2.5130  2.7859  0.8629
  162SOL    HW2  486   0.526   2.714   0.945 -1.0945 -2.0315  2.0076
  163SOL     OW  487   2.738   1.157   0.011  0.0913  0.4034  0.2474
  163SOL    HW1  488   2.713   1.062   3.068 -1.4414  0.1495 -0.0841
  163SOL    HW2  489   2.787   1.156   0.099  0.4657 -0.5073 -0.6105
  164SOL     OW  490   0.385   2.754   2.790  0.3525 -0.2045  0.1008
  164SOL    HW1  491   0.399   2.685   2.866  0.4940  0.2019  1.4693
  164SOL    HW2  492   0.458   2.752   2.723 -3.5531 -0.2513  3.7169
  165SOL     OW  493   2.107   0.279   1.298 -0.2006 -0.3919 -0.6419
  165SOL    HW1  494   2.169   0.361   1.278  0.3180  0.0675  0.7935
  165SOL    HW2  495   2.082   0.238   1.209  0.2274  0.9173  0.8856
  166SOL     OW  496   1.904   0.336   1.479 -0.1820 -0.1669 -0.1094
  166SOL    HW1  497   1.852   0.269   1.530  3.6767  3.7791  0.2862
  166SOL    HW2  498   1.984   0.289   1.434 -0.7826  1.2315  3.0107
  167SOL     OW  499   0.884   0.262   1.877  0.0595  0.0950 -0.0722
  167SOL    HW1  500   0.791   0.251   1.912 -1.4864 -0.9782 -3.3612
  167SOL    HW2  501   0.952   0.235   1.949  0.2992  1.9426  0.8880
  168SOL     OW  502   2.557   0.372   1.905 -0.6760 -0.1451  0.2534
  168SOL    HW1  503   2.592   0.465   1.933  1.7873  1.7566  1.3428
  168SOL    HW2  504   2.555   0.373   1.803  0.7345 -0.0316 -1.3121
  169SOL     OW  505   0.536   1.335   0.180  0.3968  0.0671  0.3492
  169SOL    HW1  506   0.457   1.401   0.184  0.6749  3.1398 -0.2089
  169SOL    HW2  507   0.505   1.239   0.165 -1.5895 -0.3639  0.0782
  170SOL     OW  508   0.227   1.390   1.773 -0.6483 -0.2003  0.4941
  170SOL    HW1  509   0.256   1.294   1.795  2.4897  1.8375  1.3472
  170SOL    HW2  510   0.158   1.429   1.834  0.1977 -1.5416  0.8228
  171SOL     OW  511   1.258   2.216   2.002 -0.0885 -0.0154 -0.3290
  171SOL    HW1  512   1.226   2.302   1.956 -0.3960  3.0609  0.5227
  171SOL    HW2  513   1.183   2.147   2.009  3.2888  0.5539 -0.5748
  172SOL     OW  514   0.316   2.478   1.301 -0.0570 -0.0175 -0.0944
  172SOL    HW1  515   0.348   2.570   1.339  0.8207  2.7810  3.0032
  172SOL    HW2  516   0.315   2.485   1.200  1.6812 -0.2608 -1.0670
  173SOL     OW  517   1.285   2.755   0.855  0.2619 -0.9779  0.0163
  173SOL    HW1  518   1.352   2.720   0.789  0.8652  1.7872  0.0100
  173SOL    HW2  519   1.221   2.676   0.880  1.9804 -2.4567  0.2025
  174SOL     OW  520   1.188   2.933   0.077 -0.4585 -0.5799  0.0201
  174SOL    HW1  521   1.181   3.009   0.148 -3.1024  0.1411 -0.3372
  174SOL    HW2  522   1.165   2.842   0.122 -2.1077 -1.9982  1.1663
  175SOL     OW  523   0.880   0.934   2.792  0.4603  0.5912  0.0104
  175SOL    HW1  524   0.900   1.031   2.822 -1.1598 -1.9678 -0.2171
  175SOL    HW2  525   0.863   0.931   2.691  1.0503  0.3308  2.9983
  176SOL     OW  526   1.608   0.704   0.317  0.0670  0.4359 -0.1230
  176SOL    HW1  527   1.700   0.741   0.334 -3.2095 -1.9245 -1.7303
  176SOL    HW2  528   1.538   0.745   0.382 -2.0095 -0.7717  0.0189
  177SOL     OW  529   1.368   0.760   0.944 -0.0139 -0.3975 -0.2543
  177SOL    HW1  530   1.268   0.769   0.949  0.3835  0.0628  1.7044
  177SOL    HW2  531   1.401   0.762   1.041 -2.4100 -1.9689 -2.7592
  178SOL     OW  532   2.624   1.651   2.744  0.1084  0.4439 -0.3432
  178SOL    HW1  533   2.593   1.628   2.841 -0.2171  0.7401 -0.0309
  178SOL    HW2  534   2.566   1.597   2.678 -2.6301 -3.5344  0.6906
  179SOL     OW  535   0.669   2.546   2.948 -0.0681 -0.2112  1.0243
  179SOL    HW1  536   0.738   2.572   2.875 -1.0500 -1.2203 -3.4061
  179SOL    HW2  537   0.715   2.495   3.022 -2.2051 -1.1285  1.8669
  180SOL     OW  538   1.982   1.653   1.560  0.2021  0.2318  0.0428
  180SOL    HW1  539   1.995   1.594   1.479 -3.6233  2.1612  1.1233
  180SOL    HW2  540   1.890   1.641   1.605 -0.9435 -1.9388  2.7360
  181SOL     OW  541   1.120   1.328   2.327 -0.0782 -0.1962  0.3062
  181SOL    HW1  542   1.054   1.271   2.274  0.7002  0.3038  2.4727
  181SOL    HW2  543   1.162   1.403   2.268  0.6469 -2.1682  1.1195
  182SOL     OW  544   3.018   0.862   2.546  0.0554 -0.3568  0.2045
  182SOL    HW1  545   3.052   0.893   2.641 -0.0992  2.7166  1.6274
  182SOL    HW2  546   2.961   0.938   2.509 -0.7062  3.3342 -2.4039
  183SOL     OW  547   1.232   0.283   2.436  0.5972  0.1032  0.3300
  183SOL    HW1  548   1.297   0.233   2.496  0.9200 -0.5214 -1.5666
  183SOL    HW2  549   1.281   0.293   2.345 -0.8534 -0.4992  0.9825
  184SOL     OW  550   0.055   0.520   1.443  0.2846 -0.4020 -0.0791
  184SOL    HW1  551   0.039   0.575   1.356 -0.1054 -0.6251 -2.3857
  184SOL    HW2  552   3.078   0.447   1.461 -1.4215 -3.4105 -0.4461
  185SOL     OW  553   2.599   1.710   1.123  0.1263 -0.2107  0.3983
  185SOL    HW1  554   2.631   1.771   1.045  1.4878 -3.3268  0.5970
  185SOL    HW2  555   2.643   1.621   1.118 -0.8587  0.8840 -0.8184
  186SOL     OW  556   0.494   1.937   2.499  0.6487 -0.2655 -0.0769
  186SOL    HW1  557   0.470   1.904   2.404 -2.6355  1.8970 -1.7632
  186SOL    HW2  558   0.508   2.041   2.501  1.0562  1.5593 -0.3044
  187SOL     OW  559   2.505   2.015   2.995 -0.1214 -0.4236  0.2561
  187SOL    HW1  560   2.601   2.054   2.995 -2.4338 -1.3228 -0.5341
  187SOL    HW2  561   2.427   2.081   3.013 -0.5935 -2.8342  0.5479
  188SOL     OW  562   0.792   2.125   0.110 -0.0597  0.7007 -0.2754
  188SOL    HW1  563   0.860   2.050   0.142  3.0969 -2.9659  0.5040
  188SOL    HW2  564   0.697   2.097   0.117 -0.1938  1.3058  1.1034
  189SOL     OW  565   2.399   0.970   0.235  0.1453 -0.2508  0.7161
  189SOL    HW1  566   2.327   0.999   0.298  1.1671  0.3972 -1.0501
  189SOL    HW2  567   2.395   1.032   0.152 -1.1603 -0.6026  1.3002
  190SOL     OW  568   0.871   1.758   2.139  0.0366 -0.4309  0.3599
  190SOL    HW1  569   0.862   1.856   2.165 -0.8890 -0.0158 -0.5904
  190SOL    HW2  570   0.962   1.751   2.092 -2.7767  2.1281 -0.8300
  191SOL     OW  571   2.249   0.577   1.788 -0.5616 -0.3695 -0.2482
  191SOL    HW1  572   2.268   0.530   1.877  1.5685  2.3793  0.8784
  191SOL    HW2  573   2.154   0.614   1.778  1.4505  0.4329 -2.7647
  192SOL     OW  574   1.937   0.016   1.847  0.0603  0.2173  0.1804
  192SOL    HW1  575   1.924   0.117   1.866  0.1285  3.1552 -0.5992
  192SOL    HW2  576   1.890   3.088   1.761  0.2018  1.3683 -0.5296
  193SOL     OW  577   0.106   0.851   0.881 -0.1210  0.1225 -0.4364
  193SOL    HW1  578   0.105   0.862   0.983 -1.2950  2.4102  1.2394
  193SOL    HW2  579   0.042   0.776   0.849  0.3450 -1.3469 -2.2192
  194SOL     OW  580   1.426   2.432   1.546  0.4382 -0.1299  0.1070
  194SOL    HW1  581   1.436   2.389   1.455  0.4852 -0.7896  0.5346
  194SOL    HW2  582   1.434   2.367   1.623  1.2700  0.7117 -0.2410
  195SOL     OW  583   2.607   0.642   1.018 -0.0360 -0.3984  0.2564
  195SOL    HW1  584   2.628   0.650   0.920 -3.1646 -0.4579  1.0496
  195SOL    HW2  585   2.544   0.718   1.040  3.3958  1.6724  1.2161
  196SOL     OW  586   1.508   2.093   1.976  0.6265 -0.5503  0.4515
  196SOL    HW1  587   1.578   2.114   2.043 -0.1189  1.4711  0.9212
  196SOL    HW2  588   1.416   2.144   1.985 -0.6468  2.6913 -0.9014
  197SOL     OW  589   0.290   3.005   2.864 -0.3092 -0.0838  0.7735
  197SOL    HW1  590   0.337   2.915   2.861 -0.2851 -0.2500 -0.0466
  197SOL    HW2  591   0.262   3.014   2.960  0.6781  1.7676  0.6435
  198SOL     OW  592   1.060   1.042   0.798  0.0965 -0.4140  0.3998
  198SOL    HW1  593   1.162   1.038   0.825  1.5386 -1.4281  0.5761
  198SOL    HW2  594   1.026   0.948   0.764 -1.3954  0.1661 -0.1263
  199SOL     OW  595   2.503   0.952   1.752  0.2911 -0.0674  0.1009
  199SOL    HW1  596   2.600   0.959   1.733  0.1102  0.0855 -0.4391
  199SOL    HW2  597   2.457   1.039   1.723 -1.5976  1.6491  1.5579
  200SOL     OW  598   2.338   2.571   2.405 -0.2170 -0.1486 -0.2432
  200SOL    HW1  599   2.311   2.667   2.388 -0.8919 -2.4129 -3.2659
  200SOL    HW2  600   2.409   2.575   2.478 -0.2755 -0.9932  2.7592
  201SOL     OW  601   2.508   0.239   1.574  0.4612 -0.2813  0.3763
  201SOL    HW1  602   2.594   0.196   1.606  0.4412  2.1455 -0.1571
  201SOL    HW2  603   2.477   0.216   1.482  0.7322  1.3596 -1.1430
  202SOL     OW  604   2.239   0.029   0.456 -0.4226 -0.0380 -0.0147
  202SOL    HW1  605   2.328   0.055   0.416 -0.1481 -0.3010 -2.0053
  202SOL    HW2  606   2.232   0.075   0.550  0.7222  1.6911  2.5200
  203SOL     OW  607   1.127   1.916   2.209  0.0419 -0.7244 -0.1467
  203SOL    HW1  608   1.093   1.994   2.154  0.4500  2.9306  0.8082
  203SOL    HW2  609   1.201   1.949   2.275 -0.3743 -2.3990  1.0064
  204SOL     OW  610   0.757   1.458   2.680  0.1851  0.2028 -0.0359
  204SOL    HW1  611   0.694   1.378   2.706 -0.1522 -2.6430  0.9526
  204SOL    HW2  612   0.840   1.434   2.629 -0.1549 -0.7982 -1.6655
  205SOL     OW  613   1.015   1.653   1.351  0.5139  0.1439 -0.0865
  205SOL    HW1  614   1.021   1.660   1.252 -0.4416  1.4978 -1.6531
  205SOL    HW2  615   0.923   1.678   1.385  0.9377 -0.3724  2.4050
  206SOL     OW  616   0.077   0.366   3.011 -0.7506  0.1887 -0.2985
  206SOL    HW1  617   0.040   0.296   2.944  0.2295  0.2469  1.4829
  206SOL    HW2  618   0.170   0.340   3.040 -1.7594  0.3824 -3.0119
  207SOL     OW  619   1.764   2.668   2.414 -0.5295  0.3986 -0.0236
  207SOL    HW1  620   1.826   2.600   2.449 -1.6150  0.0924  2.6829
  207SOL    HW2  621   1.801   2.757   2.442 -3.1478  0.5553 -0.8951
  208SOL     OW  622   0.656   2.415   1.152  0.5166  0.1434  0.3094
  208SOL    HW1  623   0.667   2.508   1.196  1.7005 -1.6484 -2.8285
  208SOL    HW2  624   0.636   2.417   1.050 -2.3076  0.8129  0.9286
  209SOL     OW  625   1.522   1.151   2.301 -0.3301  0.0362  0.3302
  209SOL    HW1  626   1.425   1.122   2.326 -2.2765  1.3875  1.2549
  209SOL    HW2  627   1.543   1.238   2.353  1.5553  0.7813  1.1907
  210SOL     OW  628   1.999   0.791   1.322  0.3926 -0.0333 -0.7007
  210SOL    HW1  629   2.021   0.792   1.221 -1.2606 -1.7946 -0.6871
  210SOL    HW2  630   1.943   0.708   1.344 -2.2340  0.1273  1.1953
  211SOL     OW  631   0.908   2.877   0.610  0.6001 -0.6736 -0.2337
  211SOL    HW1  632   0.965   2.835   0.536 -2.1500  1.9297  1.7710
  211SOL    HW2  633   0.965   2.916   0.691 -1.5134 -1.2006  2.2138
  212SOL     OW  634   1.832   1.716   0.420 -0.1961 -0.2226 -0.0646
  212SOL    HW1  635   1.764   1.787   0.419  3.0382 -2.8258 -0.8335
  212SOL    HW2  636   1.814   1.644   0.491  3.6554 -0.0718  0.2935
  213SOL     OW  637   1.705   0.051   2.845 -0.2037 -0.5456  0.2088
  213SOL    HW1  638   1.678   0.040   2.942 -0.3897 -3.4824 -0.2261
  213SOL    HW2  639   1.759   0.134   2.834 -1.0656 -1.3649 -2.4699
  214SOL     OW  640   1.235   1.522   2.169 -0.4328  0.1040 -0.3897
  214SOL    HW1  641   1.197   1.582   2.092 -1.3114  0.2795 -0.3948
  214SOL    HW2  642   1.234   1.574   2.255 -0.7728  2.9535  0.1481
  215SOL     OW  643   0.810   1.682   0.202  0.0391  0.0327 -0.1822
  215SOL    HW1  644   0.717   1.691   0.160  0.1443  0.1441  0.4852
  215SOL    HW2  645   0.808   1.649   0.300 -0.9423 -3.2996  1.4497
  216SOL     OW  646   0.274   2.855   2.233  0.2984  0.1761 -0.8716
  216SOL    HW1  647   0.364   2.814   2.218 -0.1635 -0.1195 -2.2520
  216SOL    HW2  648   0.204   2.784   2.230 -1.0795 -0.6766 -1.8641
  217SOL     OW  649   2.434   1.019   0.954  0.4036 -0.7585 -0.1999
  217SOL    HW1  650   2.392   1.102   0.994  0.3432  1.8967  1.8535
  217SOL    HW2  651   2.392   0.983   0.869 -1.9672  3.8457 -3.1530
  218SOL     OW  652   1.685   1.393   1.887 -0.2973 -0.6795  0.0963
  218SOL    HW1  653   1.610   1.321   1.905 -3.6287 -1.7018 -0.9974
  218SOL    HW2  654   1.786   1.364   1.888  0.8609  0.7503 -1.4496
  219SOL     OW  655   1.958   1.680   0.197 -0.0434  0.1744  0.7611
  219SOL    HW1  656   1.883   1.642   0.136 -1.8928  1.7982 -2.0610
  219SOL    HW2  657   1.916   1.695   0.294 -1.1702 -2.7189  0.3358
  220SOL     OW  658   1.442   1.363   0.870 -0.5631 -0.0735 -0.7176
  220SOL    HW1  659   1.536   1.371   0.824  0.5096 -1.4826 -1.1570
  220SOL    HW2  660   1.451   1.373   0.969 -0.0552  0.7269 -1.9233
  221SOL     OW  661   0.687   0.473   2.999 -0.1443  0.3326 -0.6422
  221SOL    HW1  662   0.706   0.569   2.965 -0.7664  0.2826 -1.1052
  221SOL    HW2  663   0.754   0.440   3.069  0.3094  2.6724  1.8262
  222SOL     OW  664   1.383   1.443   0.436 -0.3211 -0.1788  0.3984
  222SOL    HW1  665   1.366   1.432   0.533  1.3255  1.0874 -2.6840
  222SOL    HW2  666   1.384   1.355   0.389  0.1599 -0.9803 -0.3977
  223SOL     OW  667   1.077   2.962   2.928 -0.3175 -0.1395 -0.2839
  223SOL    HW1  668   1.140   2.936   3.004 -0.2983  0.2264  0.9390
  223SOL    HW2  669   0.988   2.985   2.968  2.3750  0.6054 -0.7303
  224SOL     OW  670   2.157   0.139   1.511 -0.2613  0.2136  0.0183
  224SOL    HW1  671   2.127   0.182   1.422  0.5631 -1.0921  2.1332
  224SOL    HW2  672   2.212   0.204   1.571 -0.4508 -1.8458  0.2530
  225SOL     OW  673   0.471   0.256   1.268 -0.4650 -0.3758  1.0811
  225SOL    HW1  674   0.403   0.323   1.304  0.6881 -0.6928  1.4098
  225SOL    HW2  675   0.486   0.278   1.166  1.2320 -1.8585 -3.3648
  226SOL     OW  676   1.328   1.363   2.964 -0.1486 -0.4576 -0.0947
  226SOL    HW1  677   1.425   1.339   2.929  0.5317  3.3717  0.9226
  226SOL    HW2  678   1.329   1.377   3.065 -2.6892  1.2713 -0.7374
  227SOL     OW  679   1.077   1.670   1.098 -0.3176 -0.3653  0.0500
  227SOL    HW1  680   1.092   1.576   1.056  2.8109 -1.8426  0.2259
  227SOL    HW2  681   1.148   1.741   1.067 -3.0187  0.1262  0.1569
  228SOL     OW  682   0.460   1.663   0.505 -0.5938 -0.1511  0.0131
  228SOL    HW1  683   0.485   1.566   0.519 -1.7079  0.8373 -1.6188
  228SOL    HW2  684   0.376   1.682   0.555 -2.2874  0.9411  0.3599
  229SOL     OW  685   1.246   0.483   0.043 -0.2361 -0.1884  0.1655
  229SOL    HW1  686   1.188   0.567   0.040  0.4809 -0.1373  1.1432
  229SOL    HW2  687   1.344   0.508   0.072  2.8843  0.1055  0.7023
  230SOL     OW  688   1.349   0.332   2.199  0.2554 -0.0545 -0.4354
  230SOL    HW1  689   1.417   0.406   2.182 -0.8012  0.4886  2.0743
  230SOL    HW2  690   1.387   0.239   2.174  0.9998 -1.5330  0.8851
  231SOL     OW  691   1.153   1.705   2.367  0.4731  0.3200  0.1945
  231SOL    HW1  692   1.057   1.694   2.403 -2.7517  0.3973 -0.4721
  231SOL    HW2  693   1.147   1.789   2.302  2.1528  2.5789 -4.0860
  232SOL     OW  694   2.466   2.038   0.860 -0.4551 -0.6886 -0.0520
  232SOL    HW1  695   2.413   2.096   0.931  1.9564  1.5305 -0.7900
  232SOL    HW2  696   2.400   1.976   0.805 -1.0515  0.6523  0.1805
  233SOL     OW  697   2.580   2.651   0.150 -0.3017 -0.4935 -0.0104
  233SOL    HW1  698   2.607   2.570   0.091  0.1645 -1.7028 -2.4278
  233SOL    HW2  699   2.633   2.737   0.124 -0.2258 -0.4215  0.1561
  234SOL     OW  700   1.087   0.134   2.839 -0.1103 -0.1004 -0.2080
  234SOL    HW1  701   1.057   0.179   2.920  0.0039 -0.0686 -0.9926
  234SOL    HW2  702   1.088   0.031   2.845 -2.3388 -0.3402 -1.1572
  235SOL     OW  703   2.668   0.337   2.915 -0.3423  0.2200 -0.1265
  235SOL    HW1  704   2.581   0.363   2.872  1.3989 -2.9097  0.0519
  235SOL    HW2  705   2.713   0.417   2.967 -0.9976  0.2056 -1.4403
  236SOL     OW  706   2.071   2.462   2.001  0.0011 -0.4852 -0.2387
  236SOL    HW1  707   2.054   2.525   2.077 -0.4125  0.0339 -1.1427
  236SOL    HW2  708   1.993   2.407   1.991  1.2191  0.8817  0.9333
  237SOL     OW  709   0.843   1.422   2.001 -0.2591 -0.1973  0.4363
  237SOL    HW1  710   0.781   1.501   2.008  2.6594 -2.9815  0.9782
  237SOL    HW2  711   0.839   1.382   1.910 -0.8296 -0.5868  0.4786
  238SOL     OW  712   1.721   2.921   2.712 -0.6594 -0.2595 -0.1173
  238SOL    HW1  713   1.713   3.003   2.775  3.4473  1.0991 -0.6718
  238SOL    HW2  714   1.817   2.895   2.697  0.6111 -1.8613 -1.2929
  239SOL     OW  715   0.035   1.978   1.597 -0.4529 -0.3773  0.3842
  239SOL    HW1  716   0.082   2.036   1.669  0.1966  1.4645  0.5580
  239SOL    HW2  717   0.021   1.878   1.615 -1.6276 -2.7705 -1.5408
  240SOL     OW  718   3.013   2.570   0.589  0.0327 -0.1344 -0.7954
  240SOL    HW1  719   2.943   2.547   0.654  4.3159 -0.8640 -3.5014
  240SOL    HW2  720   3.070   2.494   0.554 -0.3720  1.1001  0.3175
  241SOL     OW  721   2.304   1.244   1.037  0.1527 -0.0310 -0.4743
  241SOL    HW1  722   2.310   1.266   0.936  0.2959  1.4890 -0.0811
  241SOL    HW2  723   2.212   1.213   1.069 -0.4777 -0.6057 -0.5247
  242SOL     OW  724   1.958   2.080   2.685  0.4997  0.1183 -0.3727
  242SOL    HW1  725   2.046   2.031   2.676 -0.1189 -0.8851  0.0075
  242SOL    HW2  726   1.903   2.047   2.764 -0.6003  1.7646  3.4144
  243SOL     OW  727   0.551   2.559   1.514  0.5626 -0.3600  0.5299
  243SOL    HW1  728   0.514   2.599   1.428  0.9613  0.3014 -0.9936
  243SOL    HW2  729   0.559   2.636   1.580  1.1153 -0.8294  1.1740
  244SOL     OW  730   2.211   3.056   2.925 -0.5641  0.2914 -0.8229
  244SOL    HW1  731   2.265   2.992   2.990  3.6057 -0.8807  0.5346
  244SOL    HW2  732   2.252   3.050   2.828  1.6391 -1.3445 -2.0827
  245SOL     OW  733   1.524   2.825   0.982 -0.0514 -0.2112 -0.4483
  245SOL    HW1  734   1.522   2.838   1.086  1.8017 -1.0463  0.4275
  245SOL    HW2  735   1.430   2.805   0.944 -0.5253 -1.2382  1.2442
  246SOL     OW  736   1.552   2.471   0.297 -0.1145 -0.0646 -0.3890
  246SOL    HW1  737   1.624   2.538   0.262  0.3441  1.0089  1.7611
  246SOL    HW2  738   1.594   2.383   0.323  0.9187  1.0878 -1.0436
  247SOL     OW  739   0.978   0.289   2.299 -0.4108  0.1517  0.0822
  247SOL    HW1  740   0.906   0.363   2.293  0.3376 -1.1842  3.5372
  247SOL    HW2  741   1.064   0.323   2.345  2.5821 -2.6866  0.5326
  248SOL     OW  742   0.380   1.827   1.834 -0.1436  0.2229  0.5466
  248SOL    HW1  743   0.468   1.869   1.847 -1.8258 -3.7071  1.1446
  248SOL    HW2  744   0.398   1.735   1.795 -0.3603  3.0169 -0.7763
  249SOL     OW  745   2.104   0.375   0.287 -0.3179 -0.1336 -0.2734
  249SOL    HW1  746   2.209   0.366   0.291  0.4951 -0.1368  0.8372
  249SOL    HW2  747   2.074   0.468   0.250  0.4275  1.4830 -1.4250
  250SOL     OW  748   0.018   0.505   0.588 -0.0785 -0.3168  0.5032
  250SOL    HW1  749   0.077   0.468   0.661 -1.8602  2.3702  0.8969
  250SOL    HW2  750   0.060   0.506   0.495 -0.4790  0.6749 -2.0168
  251SOL     OW  751   1.856   0.276   2.878  0.1038 -0.5163 -0.0928
  251SOL    HW1  752   1.900   0.317   2.792  1.6025  1.2931  0.3568
  251SOL    HW2  753   1.927   0.233   2.937 -0.5778  0.6093 -0.9863
  252SOL     OW  754   1.572   1.644   1.988 -0.2828 -0.3045 -0.0414
  252SOL    HW1  755   1.585   1.657   2.086  1.3606 -0.7919 -3.9663
  252SOL    HW2  756   1.615   1.555   1.963 -0.9545 -0.5901 -1.4112
  253SOL     OW  757   2.566   2.413   1.794 -0.5207 -0.1863 -0.3218
  253SOL    HW1  758   2.659   2.429   1.832 -1.0154 -0.1437 -1.6215
  253SOL    HW2  759   2.567   2.316   1.756 -0.0733  0.2143 -1.1843
  254SOL     OW  760   2.913   1.644   1.054 -0.3735  0.2910  0.1937
  254SOL    HW1  761   2.848   1.579   1.098  1.6828 -0.6159  1.5075
  254SOL    HW2  762   2.942   1.718   1.120  1.5455 -2.6885 -1.5555
  255SOL     OW  763   1.233   0.421   1.241  0.1480  0.7165  0.3475
  255SOL    HW1  764   1.183   0.393   1.328  0.5371  0.7391 -2.4455
  255SOL    HW2  765   1.325   0.456   1.249 -1.8079 -1.8174 -0.5836
  256SOL     OW  766   1.924   2.398   1.548 -0.2711  0.1578 -0.4293
  256SOL    HW1  767   1.899   2.449   1.466  0.9777  2.5084 -0.7268
  256SOL    HW2  768   1.893   2.301   1.541  2.1606  3.2121  2.9606
  257SOL     OW  769   0.584   2.680   2.580 -0.2550 -0.0751  0.7052
  257SOL    HW1  770   0.675   2.718   2.596  1.9925  1.2513  1.7055
  257SOL    HW2  771   0.590   2.579   2.575  2.6189  0.1220  1.2135
  258SOL     OW  772   1.052   2.189   2.947 -0.5508  1.1014 -0.0472
  258SOL    HW1  773   1.102   2.125   3.014  0.4810 -2.6128  2.0234
  258SOL    HW2  774   0.962   2.146   2.914 -2.3964 -1.7650 -1.5010
  259SOL     OW  775   0.939   0.047   2.422  0.6252 -0.0322 -0.3341
  259SOL    HW1  776   1.008   3.075   2.388 -0.2154  0.2317 -0.0137
  259SOL    HW2  777   0.942   0.134   2.369 -1.9883  0.0779 -0.9787
  260SOL     OW  778   1.747   0.582   1.105 -0.4516 -0.6424  0.5055
  260SOL    HW1  779   1.800   0.653   1.052 -0.1144  2.6900 -0.7613
  260SOL    HW2  780   1.789   0.578   1.201  1.7247  0.6094 -0.5492
  261SOL     OW  781   0.507   0.329   2.734 -0.0841  0.3977 -0.1580
  261SOL    HW1  782   0.422   0.388   2.704 -2.1694  0.2783 -3.2793
  261SOL    HW2  783   0.583   0.393   2.757 -0.7775  0.9343  0.5234
  262SOL     OW  784   0.220   2.062   1.826 -0.3487 -0.0791 -0.1876
  262SOL    HW1  785   0.281   2.139   1.850  0.1172 -1.6290 -0.3397
  262SOL    HW2  786   0.276   1.974   1.813  2.2487  1.3413  1.1615
  263SOL     OW  787   2.762   1.548   2.235  0.0283  0.1094  0.2792
  263SOL    HW1  788   2.706   1.600   2.302  2.2861 -0.3082 -2.2348
  263SOL    HW2  789   2.860   1.570   2.260 -0.6037  0.1761  0.0874
  264SOL     OW  790   0.679   1.285   1.045  0.3231  0.3842 -0.3554
  264SOL    HW1  791   0.599   1.262   1.104  1.8402 -0.6283 -1.3688
  264SOL    HW2  792   0.662   1.370   0.992 -1.1928 -0.2668  0.5794
  265SOL     OW  793   1.125   2.549   0.910 -0.6563  0.2978 -0.1462
  265SOL    HW1  794   1.087   2.468   0.857 -1.9498 -0.4188  1.1661
  265SOL    HW2  795   1.103   2.546   1.012  1.0703  3.2550  0.1872
  266SOL     OW  796   1.717   1.001   0.997  0.2062 -0.5235 -0.0974
  266SOL    HW1  797   1.719   1.048   1.085  1.4952 -0.9386 -0.8702
  266SOL    HW2  798   1.680   1.061   0.923  0.9130 -1.4970 -0.1339
  267SOL     OW  799   2.421   1.196   0.051  0.2675 -0.2088  0.0557
  267SOL    HW1  800   2.377   1.192   3.056 -2.7154  0.8578  0.9832
  267SOL    HW2  801   2.466   1.284   0.065  0.4867 -2.9768 -1.7472
  268SOL     OW  802   1.202   0.323   0.263  0.4614 -0.1887  0.0762
  268SOL    HW1  803   1.275   0.326   0.332 -0.0905 -0.9693 -1.4918
  268SOL    HW2  804   1.231   0.382   0.182  1.5913  1.3395  0.5204
  269SOL     OW  805   2.477   0.499   2.632 -0.1408 -0.4952  0.2622
  269SOL    HW1  806   2.426   0.568   2.685 -1.1578  2.0918 -0.1781
  269SOL    HW2  807   2.481   0.412   2.682 -1.3800  0.1462  0.3480
  270SOL     OW  808   0.240   1.038   3.076 -0.0831  0.2853 -0.7616
  270SOL    HW1  809   0.260   0.985   2.990 -0.8364  0.7480 -0.1572
  270SOL    HW2  810   0.154   1.093   3.065 -0.6729  0.9952  1.8308
  271SOL     OW  811   2.762   1.209   0.295 -0.2840 -0.2881 -0.5387
  271SOL    HW1  812   2.711   1.123   0.312  0.6753  2.9710  0.1703
  271SOL    HW2  813   2.854   1.211   0.335 -1.4060 -0.2929 -1.7171
  272SOL     OW  814   2.966   2.662   2.661  0.2258  0.3977 -0.0197
  272SOL    HW1  815   3.070   2.659   2.642 -1.8245  0.5979 -4.0224
  272SOL    HW2  816   2.947   2.606   2.746 -0.2379 -1.4771  2.6740
  273SOL     OW  817   2.884   2.994   2.949 -0.1292  0.4102 -0.2198
  273SOL    HW1  818   2.941   3.032   3.032  1.7102 -2.0860  1.3511
  273SOL    HW2  819   2.946   2.985   2.866  1.4432  0.3868  2.1277
  274SOL     OW  820   0.564   2.433   0.887  0.0184  0.4130 -0.5709
  274SOL    HW1  821   0.590   2.527   0.863 -0.4273 -4.1959 -0.0946
  274SOL    HW2  822   0.544   2.390   0.795 -1.8977 -0.6843 -2.0071
  275SOL     OW  823   2.662   1.463   0.228  0.3881  0.6443  0.1489
  275SOL    HW1  824   2.740   1.515   0.270  1.4644 -0.9014  2.1672
  275SOL    HW2  825   2.676   1.367   0.256 -1.3438  1.1905  1.8230
  276SOL     OW  826   2.987   1.253   1.704  0.4122 -1.0555  0.4144
  276SOL    HW1  827   3.026   1.157   1.696  1.4098  0.6505 -0.0328
  276SOL    HW2  828   2.988   1.298   1.611 -0.2558  0.8588 -2.6655
  277SOL     OW  829   2.083   0.119   1.056 -0.1216 -0.1352  0.1050
  277SOL    HW1  830   2.166   0.055   1.067  0.8507 -0.8526  0.2404
  277SOL    HW2  831   2.060   0.146   0.957  0.8785  0.5979 -0.4392
  278SOL     OW  832   1.389   2.324   2.235 -0.2989  0.0209  0.0087
  278SOL    HW1  833   1.474   2.275   2.217 -2.6712  1.0098  1.4940
  278SOL    HW2  834   1.320   2.299   2.163 -0.7898  0.9229 -1.4859
  279SOL     OW  835   1.755   1.877   0.749 -0.4643 -0.2773 -0.3967
  279SOL    HW1  836   1.841   1.882   0.698 -4.2083 -1.9367  1.0545
  279SOL    HW2  837   1.723   1.974   0.754  0.6092  3.4119 -1.5726
  280SOL     OW  838   0.355   1.394   0.994 -0.0139 -0.0894  0.1712
  280SOL    HW1  839   0.308   1.438   0.915  0.4457 -0.0419 -0.4964
  280SOL    HW2  840   0.381   1.470   1.061  1.2655  2.1150  0.1546
  281SOL     OW  841   3.060   1.286   2.370  0.7051  0.0853  0.0758
  281SOL    HW1  842   0.061   1.267   2.389  0.4437  0.7403 -0.2078
  281SOL    HW2  843   3.039   1.388   2.361 -0.3910  2.1862  0.2554
  282SOL     OW  844   0.750   1.376   0.001  0.1575  0.1678 -0.2960
  282SOL    HW1  845   0.667   1.377   0.062  0.5741  2.0955 -0.0029
  282SOL    HW2  846   0.814   1.308   0.036 -0.3259  0.9371  1.5312
  283SOL     OW  847   2.282   2.533   3.081  0.5942  0.5140 -0.1139
  283SOL    HW1  848   2.273   2.577   0.075  1.4961  0.1453  0.6421
  283SOL    HW2  849   2.350   2.579   3.023  2.4646 -0.1863  1.2145
  284SOL     OW  850   0.770   0.031   0.582 -0.2564  0.0266 -0.6544
  284SOL    HW1  851   0.836   3.049   0.578  1.3625  0.8366  2.1273
  284SOL    HW2  852   0.722   0.056   0.496  1.4982 -0.4001  1.1588
  285SOL     OW  853   2.294   1.168   2.898  0.4935  0.1988  0.0410
  285SOL    HW1  854   2.367   1.105   2.864  2.0170 -1.1947 -0.2346
  285SOL    HW2  855   2.205   1.116   2.892 -1.8161  1.2536 -0.0120
  286SOL     OW  856   1.840   2.565   1.386 -0.0361  0.1850  0.1863
  286SOL    HW1  857   1.893   2.651   1.371 -0.6646 -0.2983 -0.4151
  286SOL    HW2  858   1.737   2.578   1.408 -1.4925 -2.0806 -2.1749
  287SOL     OW  859   0.969   0.260   0.688  0.3536 -0.2377  0.4655
  287SOL    HW1  860   0.926   0.343   0.724  2.6976 -1.8901  0.3877
  287SOL    HW2  861   0.935   0.246   0.591  0.3731  0.1344 -2.9690
  288SOL     OW  862   1.176   2.586   2.593  0.1642  0.0773 -0.0856
  288SOL    HW1  863   1.173   2.524   2.676 -3.4009 -0.7920  4.5458
  288SOL    HW2  864   1.185   2.686   2.612 -0.4592  0.6330 -1.0809
  289SOL     OW  865   0.148   1.702   1.035  0.5923 -0.1670 -0.1405
  289SOL    HW1  866   0.094   1.633   1.089 -0.1244  1.2050  2.9655
  289SOL    HW2  867   0.178   1.665   0.946  0.2897  0.8190 -0.3492
  290SOL     OW  868   1.508   2.182   0.843  0.4231  0.0363 -0.0945
  290SOL    HW1  869   1.480   2.114   0.912  0.9855  2.0708 -3.2971
  290SOL    HW2  870   1.538   2.268   0.896  3.0632  0.6159  0.6898
  291SOL     OW  871   1.407   2.786   0.312  0.6125 -0.2043  0.0774
  291SOL    HW1  872   1.307   2.782   0.277  0.1085 -0.6832  0.2172
  291SOL    HW2  873   1.481   2.755   0.242  1.5725 -1.2508 -0.5683
  292SOL     OW  874   0.627   0.420   1.715  0.1406 -0.1662 -0.1763
  292SOL    HW1  875   0.704   0.488   1.726  0.7880 -1.1855  1.0451
  292SOL    HW2  876   0.630   0.353   1.789  0.6870 -1.5130 -0.1076
  293SOL     OW  877   2.332   2.206   1.007 -0.5830 -0.6110 -0.7762
  293SOL    HW1  878   2.420   2.250   1.040  3.2009 -0.8658 -0.2404
  293SOL    HW2  879   2.259   2.262   1.053  1.1464 -1.7232  1.0386
  294SOL     OW  880   0.788   0.493   2.267  0.5818 -0.0267 -0.3976
  294SOL    HW1  881   0.708   0.448   2.225  1.2172  2.7643 -2.2118
  294SOL    HW2  882   0.765   0.518   2.365 -0.2514  0.3296  3.5068
  295SOL     OW  883   1.446   1.734   1.289  0.4256 -0.0986 -0.4636
  295SOL    HW1  884   1.361   1.779   1.264 -0.1885 -2.1841  1.5241
  295SOL    HW2  885   1.521   1.802   1.285 -2.3668 -1.1143  0.9994
  296SOL     OW  886   2.532   1.890   0.238  0.3597  0.1217  0.3462
  296SOL    HW1  887   2.620   1.913   0.184  4.8733  0.9083  0.1416
  296SOL    HW2  888   2.449   1.887   0.179 -0.9985  2.1363 -1.5722
  297SOL     OW  889   2.477   0.091   0.319  0.4646 -0.2070 -0.3888
  297SOL    HW1  890   2.570   0.106   0.359  0.5704  2.7698  1.9343
  297SOL    HW2  891   2.485   0.043   0.229 -1.9364 -1.2337 -2.3333
  298SOL     OW  892   0.768   2.887   2.671  0.5809  0.0155  0.1023
  298SOL    HW1  893   0.842   2.841   2.628 -0.7033  2.3598  0.7186
  298SOL    HW2  894   0.787   2.984   2.693  0.7093  0.1878 -1.0389
  299SOL     OW  895   0.796   2.035   2.191  0.7257 -0.1074  0.2455
  299SOL    HW1  896   0.700   2.039   2.164  0.8377  0.3131 -0.9337
  299SOL    HW2  897   0.798   2.086   2.276 -0.6369 -1.4130 -1.0550
  300SOL     OW  898   2.981   3.019   2.307  0.3634 -0.5291 -0.2009
  300SOL    HW1  899   2.912   3.077   2.354  0.7343  0.3792  3.0824
  300SOL    HW2  900   3.061   3.076   2.290  0.3243  0.6985  0.3066
  301SOL     OW  901   0.937   0.865   2.028  0.4652 -0.0248  0.3148
  301SOL    HW1  902   0.936   0.770   2.050  1.9547  1.7336  1.7086
  301SOL    HW2  903   1.017   0.903   2.074 -0.6824 -2.7561 -0.7765
  302SOL     OW  904   3.075   2.340   0.478  0.0209  0.0560  0.2529
  302SOL    HW1  905   0.077   2.334   0.449 -0.9725 -0.7286  0.6314
  302SOL    HW2  906   3.042   2.256   0.529  2.0450  1.7874 -1.1256
  303SOL     OW  907   2.446   2.656   1.721  0.2293  0.1013  0.1583
  303SOL    HW1  908   2.485   2.565   1.743  0.1117  0.6058 -1.5364
  303SOL    HW2  909   2.366   2.672   1.783 -2.0288 -0.7629  1.4391
  304SOL     OW  910   3.035   1.002   1.658  0.6294 -0.2105 -0.0716
  304SOL    HW1  911   3.031   0.956   1.747  0.4576 -0.4940 -0.0562
  304SOL    HW2  912   3.064   0.932   1.588 -0.4661 -2.7772 -0.1408
  305SOL     OW  913   0.688   1.588   1.164  0.9434 -0.0820 -0.4880
  305SOL    HW1  914   0.692   1.572   1.064 -0.7139 -1.5990  0.1524
  305SOL    HW2  915   0.752   1.658   1.197 -0.5558 -0.0450 -0.2578
  306SOL     OW  916   0.477   1.442   2.024  0.3513  0.0034 -0.4107
  306SOL    HW1  917   0.499   1.351   1.992 -0.3672 -1.5400  2.3550
  306SOL    HW2  918   0.552   1.486   2.073 -2.9627 -0.8206 -1.9252
  307SOL     OW  919   0.829   0.611   1.722 -0.1508 -0.3115  0.2447
  307SOL    HW1  920   0.904   0.582   1.787 -0.8987  3.0060 -2.4316
  307SOL    HW2  921   0.866   0.628   1.634  2.0419 -1.4699  1.0504
  308SOL     OW  922   3.059   1.229   1.250  0.3868  0.1421 -0.2477
  308SOL    HW1  923   3.020   1.262   1.338  0.0870 -0.7268  2.6163
  308SOL    HW2  924   2.996   1.153   1.219 -1.3653  0.0501  1.5638
  309SOL     OW  925   2.737   1.466   1.132 -0.0296 -0.5177 -0.2854
  309SOL    HW1  926   2.754   1.412   1.215 -2.2133 -2.6992 -2.8061
  309SOL    HW2  927   2.757   1.414   1.049 -0.4144 -0.3490 -0.0826
  310SOL     OW  928   2.865   2.208   2.578  0.4566  0.7420  0.3278
  310SOL    HW1  929   2.773   2.230   2.617 -0.0985 -3.2128  0.0789
  310SOL    HW2  930   2.878   2.113   2.536 -1.8212 -1.3134  2.2059
  311SOL     OW  931   2.871   2.576   2.322 -0.2553  0.5719  0.0554
  311SOL    HW1  932   2.878   2.656   2.257  0.0695 -0.8165 -0.3566
  311SOL    HW2  933   2.816   2.597   2.406 -0.7890 -0.5577  1.0439
  312SOL     OW  934   2.129   2.101   0.059  0.1919 -0.0448 -0.2648
  312SOL    HW1  935   2.048   2.158   0.083  2.1395  2.0647  0.1464
  312SOL    HW2  936   2.105   2.006   0.043 -0.7810  2.5101 -1.1354
  313SOL     OW  937   2.765   2.938   0.737 -0.1841 -0.0109 -0.2890
  313SOL    HW1  938   2.703   3.009   0.694 -0.7144  0.3342  0.1145
  313SOL    HW2  939   2.779   2.866   0.668  0.2562  0.9957  2.6425
  314SOL     OW  940   1.905   1.167   3.081  0.2604  0.3098 -0.2106
  314SOL    HW1  941   1.816   1.124   3.053  2.5210  1.4804  2.4367
  314SOL    HW2  942   1.897   1.262   0.017  0.1722  2.6247 -1.4169
  315SOL     OW  943   1.315   2.731   2.278 -0.2941  0.1730  1.0616
  315SOL    HW1  944   1.341   2.816   2.220 -0.5785  0.1835 -1.7631
  315SOL    HW2  945   1.393   2.707   2.341 -1.1521  2.0032 -3.6103
  316SOL     OW  946   3.007   0.982   0.071  0.3606  0.0699  0.4104
  316SOL    HW1  947   3.029   1.081   0.061  0.4051 -3.1845  1.2998
  316SOL    HW2  948   2.931   0.949   0.007  0.8148  1.0480 -1.1576
  317SOL     OW  949   0.632   2.818   0.041 -0.0499 -0.2105 -0.2861
  317SOL    HW1  950   0.608   2.861   3.046 -1.0818  0.3156 -1.8492
  317SOL    HW2  951   0.723   2.770   0.051  1.1195 -1.4479 -1.2540
  318SOL     OW  952   2.411   2.414   0.681 -0.3988  0.4717 -0.2589
  318SOL    HW1  953   2.460   2.324   0.696  1.0480  1.8522  2.0321
  318SOL    HW2  954   2.325   2.428   0.732  0.3665  1.8554 -0.4973
  319SOL     OW  955   1.349   1.920   2.604  0.5161 -0.0300 -0.0886
  319SOL    HW1  956   1.357   1.824   2.574  1.2688  0.8014 -0.2420
  319SOL    HW2  957   1.327   1.919   2.705  0.3868  0.1633  0.3965
  320SOL     OW  958   0.586   1.980   1.442  0.0614  0.1426  0.2632
  320SOL    HW1  959   0.623   2.036   1.366  3.3484 -2.7716  0.4663
  320SOL    HW2  960   0.485   1.999   1.463 -1.8944 -0.0849  2.7656
  321SOL     OW  961   1.500   2.652   2.478 -0.1036  0.5640  0.3184
  321SOL    HW1  962   1.445   2.565   2.481  1.2731  0.0924 -1.4590
  321SOL    HW2  963   1.595   2.634   2.471 -3.8592  0.7694  0.2183
  322SOL     OW  964   2.672   1.480   1.984  0.3533  0.1247  0.4695
  322SOL    HW1  965   2.712   1.520   2.072  1.2579  0.2238  0.6239
  322SOL    HW2  966   2.590   1.421   2.002 -1.9898 -1.2354 -2.0662
  323SOL     OW  967   2.390   0.788   1.098  0.5073  0.1117 -0.3770
  323SOL    HW1  968   2.408   0.881   1.053 -0.2686 -0.1989 -0.2869
  323SOL    HW2  969   2.354   0.798   1.194  1.2873 -1.4714  0.1525
  324SOL     OW  970   2.636   2.841   2.422 -0.4172 -0.0397 -0.3880
  324SOL    HW1  971   2.655   2.746   2.454  0.3012 -0.1692  1.3211
  324SOL    HW2  972   2.704   2.910   2.464  1.9702  1.2997 -0.0967
  325SOL     OW  973   1.176   0.562   2.628  0.2465 -0.0850 -0.1606
  325SOL    HW1  974   1.114   0.484   2.643  1.9103 -1.2294 -1.7844
  325SOL    HW2  975   1.169   0.593   2.532  1.0344  0.4881  0.1608
  326SOL     OW  976   1.837   2.976   2.291 -0.4564  0.1587 -0.4614
  326SOL    HW1  977   1.865   3.064   2.250  1.7905 -0.8712  0.3810
  326SOL    HW2  978   1.831   2.903   2.220  1.8199  1.2240  2.0001
  327SOL     OW  979   2.229   0.387   3.063 -0.4404  0.1150 -0.3888
  327SOL    HW1  980   2.144   0.333   3.052 -2.2171  1.6115  2.3590
  327SOL    HW2  981   2.282   0.355   0.047 -0.3151  0.8283  1.2448
  328SOL     OW  982   3.019   1.572   2.339  0.1151  0.2192  0.0971
  328SOL    HW1  983   3.023   1.566   2.440 -0.9710  4.2176 -1.3378
  328SOL    HW2  984   0.009   1.614   2.304  0.6386  0.3879  0.5279
  329SOL     OW  985   1.830   3.011   1.625 -0.2003  0.9274 -0.1561
  329SOL    HW1  986   1.784   2.939   1.674  1.4374  2.0751  0.2170
  329SOL    HW2  987   1.766   3.045   1.551  1.2031 -0.4535 -0.1939
  330SOL     OW  988   0.435   1.202   0.803  0.3471 -0.0608  0.0617
  330SOL    HW1  989   0.338   1.180   0.774 -1.3248  0.2658  0.2817
  330SOL    HW2  990   0.425   1.229   0.901  0.8726  2.1805  2.6785
  331SOL     OW  991   0.240   1.469   2.186 -0.0080  0.0998 -0.3301
  331SOL    HW1  992   0.301   1.496   2.108  2.3994  2.1137 -1.5009
  331SOL    HW2  993   0.209   1.546   2.247  0.1678  0.3990  1.5837
  332SOL     OW  994   3.028   2.727   1.418 -0.1171  0.4462 -0.2798
  332SOL    HW1  995   2.958   2.783   1.465 -0.2052 -3.6372 -2.0047
  332SOL    HW2  996   2.985   2.660   1.357 -1.2755  1.7393  1.2567
  333SOL     OW  997   2.290   0.198   0.749  0.4648  0.0129 -0.5982
  333SOL    HW1  998   2.267   0.101   0.776  0.3781 -2.4331  1.4536
  333SOL    HW2  999   2.223   0.234   0.681  0.4704  1.5063 -0.6653
  334SOL     OW 1000   0.742   2.052   0.453 -0.4805 -0.4002  0.0483
  334SOL    HW1 1001   0.755   1.968   0.508  0.7305 -0.4650 -0.8129
  334SOL    HW2 1002   0.684   2.027   0.372 -3.2006 -0.3425  2.4330
  335SOL     OW 1003   0.170   2.604   3.064  0.4609  0.4469 -0.0750
  335SOL    HW1 1004   0.091   2.547   3.039  1.5932 -0.6232 -1.3721
  335SOL    HW2 1005   0.262   2.576   3.032 -0.8623  1.3104  1.8479
  336SOL     OW 1006   0.117   2.641   2.164 -0.6707 -0.5621  0.2284
  336SOL    HW1 1007   0.097   2.594   2.076 -2.0902 -0.5491  0.4059
  336SOL    HW2 1008   0.044   2.613   2.229 -0.3206  1.2458  1.4790
  337SOL     OW 1009   2.126   2.390   2.427 -0.0945  0.0056  0.1018
  337SOL    HW1 1010   2.209   2.453   2.429  2.5847 -0.3332  0.4638
  337SOL    HW2 1011   2.134   2.314   2.361 -0.8192  0.3569  0.4237
  338SOL     OW 1012   0.553   0.213   0.434  0.0083  0.2454 -0.4543
  338SOL    HW1 1013   0.579   0.292   0.493  0.7845 -0.4051 -0.6069
  338SOL    HW2 1014   0.544   0.247   0.337  0.7182  1.6175 -0.8896
  339SOL     OW 1015   0.310   0.856   2.163  0.0375  0.4797  0.3702
  339SOL    HW1 1016   0.257   0.817   2.238  0.3564  1.3111 -1.7825
  339SOL    HW2 1017   0.245   0.902   2.099  1.4330  0.2173  0.9804
  340SOL     OW 1018   1.835   3.038   0.308 -0.0837  0.2260  0.2218
  340SOL    HW1 1019   1.898   0.012   0.275  0.4158 -1.7509  0.9158
  340SOL    HW2 1020   1.745   3.080   0.335  0.7259 -0.6010  1.6459
  341SOL     OW 1021   2.072   0.813   1.060 -0.5034  0.4913  0.1811
  341SOL    HW1 1022   1.989   0.783   1.002 -1.6863 -1.1176  1.2513
  341SOL    HW2 1023   2.155   0.776   1.015 -1.1258  0.8378  0.1224
  342SOL     OW 1024   2.510   3.054   0.093 -0.3937 -0.7036 -0.3437
  342SOL    HW1 1025   2.526   0.053   0.060 -0.7685  2.7350  1.0839
  342SOL    HW2 1026   2.434   2.999   0.056  0.4699 -0.5910  0.7621
  343SOL     OW 1027   1.312   2.124   1.598  0.0806 -0.4097 -0.0172
  343SOL    HW1 1028   1.403   2.152   1.631  0.9959 -0.4408 -0.0295
  343SOL    HW2 1029   1.303   2.023   1.589  0.3116 -2.2400  1.7305
  344SOL     OW 1030   2.372   2.874   0.913  0.1267  0.4430  0.0212
  344SOL    HW1 1031   2.283   2.837   0.952 -0.6184 -0.3014  1.0409
  344SOL    HW2 1032   2.414   2.804   0.851 -1.1808  1.3906 -0.8457
  345SOL     OW 1033   2.948   2.359   0.094  0.0730  0.1482 -0.7306
  345SOL    HW1 1034   2.966   2.442   0.157  0.6445 -0.0752  2.5007
  345SOL    HW2 1035   2.928   2.280   0.154 -0.1563  1.9803 -0.3341
  346SOL     OW 1036   2.679   1.866   0.921 -0.0661  0.7444 -0.4147
  346SOL    HW1 1037   2.616   1.940   0.892  1.4687 -1.1639  0.4100
  346SOL    HW2 1038   2.726   1.902   1.004 -2.5918  0.1424  4.2126
  347SOL     OW 1039   1.690   1.866   1.884  0.2566 -0.2624 -0.0974
  347SOL    HW1 1040   1.626   1.937   1.918 -1.1915  1.3837  0.1467
  347SOL    HW2 1041   1.655   1.770   1.898  0.8182 -2.2580  0.4471
  348SOL     OW 1042   0.428   1.576   2.489 -0.1642  0.6322 -0.0101
  348SOL    HW1 1043   0.485   1.495   2.461 -0.5336 -2.6157 -0.2593
  348SOL    HW2 1044   0.427   1.577   2.589  1.4424  0.0636 -1.0406
  349SOL     OW 1045   2.344   1.349   0.799  0.7367 -0.2198 -0.2820
  349SOL    HW1 1046   2.333   1.442   0.834 -1.6667  2.5292  3.6627
  349SOL    HW2 1047   2.441   1.326   0.786  0.3066 -0.2057 -2.1002
  350SOL     OW 1048   2.932   2.630   1.065 -0.2487 -0.3468 -0.0691
  350SOL    HW1 1049   2.863   2.694   1.106 -0.0218  1.3516  0.2583
  350SOL    HW2 1050   2.953   2.549   1.125 -0.6366 -2.4735 -2.7708
  351SOL     OW 1051   0.584   0.052   2.112 -0.2428  0.2922  0.3168
  351SOL    HW1 1052   0.487   0.048   2.144  1.5016 -0.9807  1.4807
  351SOL    HW2 1053   0.636   0.077   2.201 -1.4840 -2.9418  3.8789
  352SOL     OW 1054   0.922   1.506   0.803 -0.0380 -0.0511 -0.1763
  352SOL    HW1 1055   0.921   1.410   0.838 -1.4344 -1.4667  2.0189
  352SOL    HW2 1056   1.011   1.551   0.800 -2.5291 -0.0244 -0.2003
  353SOL     OW 1057   1.311   1.622   2.580  0.0124 -0.7831  0.1302
  353SOL    HW1 1058   1.237   1.640   2.510 -2.3634  0.6078 -1.7906
  353SOL    HW2 1059   1.265   1.586   2.662  3.2951 -1.8518  0.6056
  354SOL     OW 1060   1.481   0.041   1.044 -1.0859  0.0172  0.3659
  354SOL    HW1 1061   1.489   3.040   1.010  0.9849 -2.5824 -4.7730
  354SOL    HW2 1062   1.394   0.069   1.081 -0.8580  0.9543 -0.1400
  355SOL     OW 1063   2.590   1.458   0.701 -0.6051  0.4273 -0.4090
  355SOL    HW1 1064   2.547   1.549   0.681  3.5302  1.5141  0.1692
  355SOL    HW2 1065   2.649   1.429   0.622 -0.1209  1.4629  0.8220
  356SOL     OW 1066   2.406   1.629   2.338  0.5043  0.1226 -0.2331
  356SOL    HW1 1067   2.401   1.635   2.235 -1.6392 -0.7545 -0.9871
  356SOL    HW2 1068   2.487   1.681   2.368 -1.2557  0.9645 -0.9763
  357SOL     OW 1069   0.359   2.758   1.383  0.1618  0.3624 -0.8110
  357SOL    HW1 1070   0.286   2.813   1.332 -0.3474  0.3203 -1.5827
  357SOL    HW2 1071   0.445   2.815   1.406  2.0621  0.1801  0.3683
  358SOL     OW 1072   2.393   0.735   1.595  0.0326  0.5031  0.3231
  358SOL    HW1 1073   2.321   0.689   1.653 -0.4159 -1.3929  0.5389
  358SOL    HW2 1074   2.420   0.822   1.638 -0.0618 -0.8049  0.9689
  359SOL     OW 1075   2.301   2.744   2.689 -0.1932 -0.2623  0.3117
  359SOL    HW1 1076   2.199   2.734   2.715 -0.7326 -1.7908  0.1071
  359SOL    HW2 1077   2.332   2.840   2.681  2.4035  0.8147  1.8215
  360SOL     OW 1078   0.883   0.495   0.813  0.6844  0.0212 -0.0547
  360SOL    HW1 1079   0.932   0.521   0.896  0.2623 -1.5395  0.1731
  360SOL    HW2 1080   0.845   0.578   0.761  0.7447 -0.6437  0.4847
  361SOL     OW 1081   1.897   3.037   1.082 -0.0137 -0.1866 -0.0823
  361SOL    HW1 1082   1.813   3.072   1.131  0.9151  1.5964  4.3351
  361SOL    HW2 1083   1.966   0.017   1.070  2.4869  0.1662 -0.4391
  362SOL     OW 1084   1.329   1.026   0.854  0.7263 -0.5991  0.3235
  362SOL    HW1 1085   1.409   1.091   0.863 -0.0004 -0.1809 -0.4894
  362SOL    HW2 1086   1.346   0.936   0.892 -1.6323  4.2912 -0.1118
  363SOL     OW 1087   2.253   1.402   2.724 -0.2032 -0.4925 -0.1041
  363SOL    HW1 1088   2.222   1.484   2.776 -1.5604  0.4813 -0.0769
  363SOL    HW2 1089   2.307   1.337   2.781  0.9076 -0.6747  0.3132
  364SOL     OW 1090   0.120   0.424   1.074  0.6447  0.3666  0.8066
  364SOL    HW1 1091   0.221   0.442   1.082  0.0166 -1.0893 -1.3523
  364SOL    HW2 1092   0.059   0.499   1.105  0.4394  1.4043 -0.8481
  365SOL     OW 1093   0.194   2.765   0.169  0.0792  0.3687  0.1319
  365SOL    HW1 1094   0.184   2.698   0.091 -2.3914  1.3258 -0.0013
  365SOL    HW2 1095   0.108   2.762   0.224  0.7807  1.5973  3.0117
  366SOL     OW 1096   2.336   2.236   3.013  0.1422 -0.0585  0.3017
  366SOL    HW1 1097   2.265   2.170   3.050 -0.4213  1.2786 -2.7063
  366SOL    HW2 1098   2.327   2.330   3.056 -0.3426  0.4238 -1.5175
  367SOL     OW 1099   2.913   2.533   2.879 -0.3300  0.0104 -0.5515
  367SOL    HW1 1100   2.831   2.484   2.864  3.6299  3.0255  1.0923
  367SOL    HW2 1101   2.989   2.475   2.923  2.8306 -1.8457 -0.5772
  368SOL     OW 1102   0.371   1.807   0.756 -0.2109 -0.4234 -0.1406
  368SOL    HW1 1103   0.416   1.804   0.845 -2.1465 -0.4141 -4.4326
  368SOL    HW2 1104   0.349   1.906   0.741 -0.6525 -0.5779 -0.7398
  369SOL     OW 1105   0.890   2.563   2.784  0.0231  0.4635 -0.2717
  369SOL    HW1 1106   0.907   2.607   2.694  2.1559 -1.8193  1.0097
  369SOL    HW2 1107   0.978   2.587   2.832 -1.4163  1.8676 -0.6420
  370SOL     OW 1108   0.159   1.122   0.789  0.2374 -0.6690 -0.0520
  370SOL    HW1 1109   0.076   1.176   0.804  0.5448  0.8999 -0.0990
  370SOL    HW2 1110   0.145   1.030   0.834  1.1331  1.0013  1.7231
  371SOL     OW 1111   1.960   2.609   0.975  0.0848 -0.1092 -0.0575
  371SOL    HW1 1112   1.919   2.579   0.887 -3.0922 -0.6648  0.8656
  371SOL    HW2 1113   1.906   2.560   1.049  2.3442 -0.1570  1.1126
  372SOL     OW 1114   0.242   0.921   2.816  0.1909 -0.2071 -0.3245
  372SOL    HW1 1115   0.250   0.969   2.728 -2.0733 -2.0568 -0.1381
  372SOL    HW2 1116   0.279   0.824   2.812  3.1066 -1.7051  0.6327
  373SOL     OW 1117   3.083   1.901   0.689  0.0199  0.2309 -1.0186
  373SOL    HW1 1118   2.990   1.865   0.703 -1.1212 -1.3076  2.3525
  373SOL    HW2 1119   0.031   1.908   0.779  0.4639 -0.5125 -2.7230
  374SOL     OW 1120   0.265   2.353   0.406  0.0816  0.0409 -0.0012
  374SOL    HW1 1121   0.320   2.322   0.323  1.5541  0.7038 -1.9734
  374SOL    HW2 1122   0.288   2.445   0.446 -0.4438 -0.0304  0.8777
  375SOL     OW 1123   0.422   0.523   0.334  0.3351  0.5135 -0.5448
  375SOL    HW1 1124   0.492   0.501   0.401 -1.9453 -1.6494 -2.7339
  375SOL    HW2 1125   0.447   0.603   0.275 -0.4074  1.0829 -1.7565
  376SOL     OW 1126   0.310   2.395   1.907  0.4236 -0.4023 -0.1740
  376SOL    HW1 1127   0.362   2.387   1.819 -0.1153 -1.5715 -3.8613
  376SOL    HW2 1128   0.226   2.449   1.893  1.2716 -1.5930 -1.0636
  377SOL     OW 1129   1.650   2.503   3.025  0.5224 -0.6202  0.3523
  377SOL    HW1 1130   1.657   2.570   2.944  0.3586  2.8115 -1.5042
  377SOL    HW2 1131   1.740   2.481   3.052 -2.9592  0.6877  0.8601
  378SOL     OW 1132   0.847   0.521   0.480  0.5322  0.1814  0.0592
  378SOL    HW1 1133   0.874   0.427   0.446 -0.1650 -1.3120 -0.4333
  378SOL    HW2 1134   0.924   0.554   0.543  0.6647  0.9071  1.3442
  379SOL     OW 1135   0.735   1.767   0.577 -0.2752 -0.4563  0.2405
  379SOL    HW1 1136   0.641   1.729   0.592  3.9944  2.2487 -0.9321
  379SOL    HW2 1137   0.795   1.698   0.538 -2.1771  1.7812  1.0552
  380SOL     OW 1138   0.357   2.087   1.235  0.5482  0.1591  0.1443
  380SOL    HW1 1139   0.335   2.129   1.147 -1.3794 -2.0612 -1.8220
  380SOL    HW2 1140   0.365   2.158   1.308  2.6927  0.3464  0.2856
  381SOL     OW 1141   0.648   1.257   1.715 -0.5117  0.1592 -0.1782
  381SOL    HW1 1142   0.726   1.316   1.726 -1.1165  0.2928  4.1144
  381SOL    HW2 1143   0.596   1.265   1.801  1.4368  2.4119 -1.0811
  382SOL     OW 1144   2.322   1.923   0.659 -0.0699 -0.1328 -0.1844
  382SOL    HW1 1145   2.319   1.829   0.631  0.7080 -0.6743  0.9736
  382SOL    HW2 1146   2.305   1.991   0.580 -1.9435  1.7309 -0.9036
  383SOL     OW 1147   2.635   1.735   2.435  0.0726 -0.3124  0.3307
  383SOL    HW1 1148   2.630   1.712   2.531  0.2668  0.7184 -1.9905
  383SOL    HW2 1149   2.643   1.831   2.418 -2.4664 -2.0883  0.3147
  384SOL     OW 1150   0.004   1.876   2.333  0.1708  0.3761  0.4291
  384SOL    HW1 1151   0.054   1.965   2.313  1.9477 -1.7908 -0.8619
  384SOL    HW2 1152   3.069   1.829   2.245 -0.1638  0.0730 -0.1083
  385SOL     OW 1153   2.735   2.264   0.877 -0.4836  0.2433  0.2053
  385SOL    HW1 1154   2.807   2.204   0.913 -2.4618 -0.4073  0.3048
  385SOL    HW2 1155   2.697   2.234   0.790  3.3950  0.9151  0.3099
  386SOL     OW 1156   1.842   0.780   0.933  0.0522 -0.1374  0.3432
  386SOL    HW1 1157   1.850   0.761   0.833  0.8951  1.4489  1.1126
  386SOL    HW2 1158   1.789   0.866   0.955 -2.1397 -0.4447  0.1853
  387SOL     OW 1159   0.451   0.642   2.062 -0.3471  0.2985 -0.1312
  387SOL    HW1 1160   0.401   0.711   2.122  0.4592  0.2295  0.0452
  387SOL    HW2 1161   0.513   0.677   1.997 -1.1323 -4.2445  3.8092
  388SOL     OW 1162   2.435   1.040   2.540  0.1758 -0.2603  0.0478
  388SOL    HW1 1163   2.497   1.110   2.495  0.3850 -2.0269 -0.7908
  388SOL    HW2 1164   2.336   1.055   2.514 -1.0309  0.2387 -1.8760
  389SOL     OW 1165   1.923   1.203   2.088 -0.5351 -1.1543  0.3119
  389SOL    HW1 1166   1.953   1.259   2.006  0.6767 -0.1995  1.0995
  389SOL    HW2 1167   1.916   1.105   2.068  1.0470  1.4135 -0.6865
  390SOL     OW 1168   1.914   2.513   0.468 -0.2833  0.4549  0.9893
  390SOL    HW1 1169   1.844   2.561   0.408 -1.1119  1.6125 -0.5971
  390SOL    HW2 1170   1.978   2.456   0.411 -0.6819 -0.3010  0.2394
  391SOL     OW 1171   1.996   2.049   1.269  0.3409 -0.0425  0.2660
  391SOL    HW1 1172   1.976   2.103   1.185 -3.2924 -1.3917  1.7358
  391SOL    HW2 1173   2.014   1.947   1.247  0.9200 -0.8267 -0.7486
  392SOL     OW 1174   2.747   2.800   1.182 -0.3873  0.0724  0.0506
  392SOL    HW1 1175   2.676   2.772   1.247 -2.6387  0.9430 -1.3039
  392SOL    HW2 1176   2.723   2.868   1.108 -1.5910 -1.1703 -0.4381
  393SOL     OW 1177   2.098   1.829   0.025  0.5081 -0.2758  0.5110
  393SOL    HW1 1178   2.048   1.773   0.096  0.3152 -4.7037  2.1386
  393SOL    HW2 1179   2.035   1.815   3.042  1.4553 -2.8586 -0.0851
  394SOL     OW 1180   0.076   0.244   2.632  0.4637 -0.6687  0.1669
  394SOL    HW1 1181   0.063   0.188   2.710  0.5689 -0.2805 -1.5341
  394SOL    HW2 1182   3.079   0.264   2.594  1.5322 -0.7931  0.5213
  395SOL     OW 1183   1.095   0.776   0.951  0.0789  0.0329 -0.2253
  395SOL    HW1 1184   1.049   0.845   1.014 -2.4548  1.4758  3.0799
  395SOL    HW2 1185   1.052   0.775   0.860  0.3488  0.3414  2.3088
  396SOL     OW 1186   1.198   0.750   3.055 -0.3063  0.3806  0.1982
  396SOL    HW1 1187   1.165   0.707   2.971  1.4246 -3.5008 -0.5972
  396SOL    HW2 1188   1.291   0.791   3.042 -0.3345  2.4740  0.1069
  397SOL     OW 1189   0.436   0.606   2.446 -0.2080  0.3828 -0.4393
  397SOL    HW1 1190   0.426   0.707   2.454 -0.6754  0.9650  0.7500
  397SOL    HW2 1191   0.356   0.568   2.400  0.0683  1.5670  1.2654
  398SOL     OW 1192   0.800   0.094   0.286 -0.4085  0.8347 -0.0300
  398SOL    HW1 1193   0.825   3.091   0.280 -3.1156  1.2463  0.2217
  398SOL    HW2 1194   0.706   0.111   0.256 -0.9818 -0.7067  0.2449
  399SOL     OW 1195   1.972   2.834   1.878 -0.8228  0.0310 -0.2763
  399SOL    HW1 1196   2.070   2.811   1.861  1.6041 -1.3926  1.1471
  399SOL    HW2 1197   1.962   2.936   1.895  0.6391  2.2030 -1.7617
  400SOL     OW 1198   0.439   1.797   2.274  0.0378 -0.1637  0.6792
  400SOL    HW1 1199   0.437   1.720   2.336 -1.7329 -0.5835 -2.4770
  400SOL    HW2 1200   0.356   1.798   2.217  2.3136  0.5318  0.5699
  401SOL     OW 1201   0.776   0.434   2.743  0.2078  0.6012 -0.4349
  401SOL    HW1 1202   0.867   0.403   2.703  1.7662 -2.5943  0.6502
  401SOL    HW2 1203   0.783   0.434   2.845  1.7459 -1.3176  0.2767
  402SOL     OW 1204   3.007   2.342   1.951 -0.4092  1.0481  0.5377
  402SOL    HW1 1205   3.027   2.243   1.934 -0.8300  1.3650  3.0406
  402SOL    HW2 1206   2.911   2.344   1.984  0.8189 -2.0142 -0.5666
  403SOL     OW 1207   0.564   1.189   1.982  0.2761 -0.1524 -1.0784
  403SOL    HW1 1208   0.626   1.113   2.012  2.5493  0.6780  1.0603
  403SOL    HW2 1209   0.466   1.162   1.986 -0.8977  1.5670  0.7076
  404SOL     OW 1210   3.096   2.735   1.753 -0.3121 -0.2214  0.1849
  404SOL    HW1 1211   3.072   2.692   1.665 -0.0554  0.1504 -0.3017
  404SOL    HW2 1212   3.058   2.829   1.761 -0.4027 -0.3433 -2.2905
  405SOL     OW 1213   0.261   0.526   1.880  0.0035  0.1534  0.3544
  405SOL    HW1 1214   0.337   0.579   1.929  0.7405  0.1125 -1.4191
  405SOL    HW2 1215   0.296   0.449   1.822 -0.6996  0.1140  1.1001
  406SOL     OW 1216   1.914   2.416   3.087  0.5058  0.4496  0.0334
  406SOL    HW1 1217   1.942   2.383   0.086 -0.4551 -3.0057 -0.8826
  406SOL    HW2 1218   1.993   2.447   3.030 -0.0070  0.5539  1.5298
  407SOL     OW 1219   1.507   1.213   2.027 -0.2693  0.2074  0.0131
  407SOL    HW1 1220   1.414   1.252   2.012  0.1035 -0.5470  0.9684
  407SOL    HW2 1221   1.533   1.207   2.127 -1.0603 -1.2280  1.1640
  408SOL     OW 1222   0.648   0.120   2.792  0.3176 -0.4400  0.1333
  408SOL    HW1 1223   0.736   0.104   2.746  0.8307  0.5879  1.9764
  408SOL    HW2 1224   0.591   0.194   2.749  0.0523 -1.8148 -2.0367
  409SOL     OW 1225   0.161   1.816   0.523  0.9593  0.5459  0.9210
  409SOL    HW1 1226   0.084   1.846   0.583 -0.0462  1.9461 -2.4817
  409SOL    HW2 1227   0.204   1.904   0.491  0.1945  0.5343 -2.4019
  410SOL     OW 1228   2.657   1.757   0.456  0.2454 -0.3140  0.1656
  410SOL    HW1 1229   2.621   1.798   0.372  2.2798 -0.5430  2.6483
  410SOL    HW2 1230   2.732   1.693   0.445  1.3215  1.1493  1.5367
  411SOL     OW 1231   2.945   0.465   1.004 -0.4632 -0.1286  0.1380
  411SOL    HW1 1232   2.860   0.436   0.960  2.8679  0.6500 -0.6904
  411SOL    HW2 1233   2.981   0.384   1.059 -1.2906  2.2463 -0.4482
  412SOL     OW 1234   1.365   0.783   1.214 -0.2437  0.0017 -0.2197
  412SOL    HW1 1235   1.409   0.864   1.265  0.7312 -1.2454 -0.5189
  412SOL    HW2 1236   1.265   0.776   1.221  3.0774  0.0607  1.2629
  413SOL     OW 1237   0.341   0.014   1.114 -0.1323 -0.2982  0.6778
  413SOL    HW1 1238   0.420   0.074   1.083  1.4096  0.5890 -0.2552
  413SOL    HW2 1239   0.341   3.085   1.212 -3.5088 -1.0505 -0.7507
  414SOL     OW 1240   3.026   1.798   2.830 -0.1936 -0.0060 -0.1866
  414SOL    HW1 1241   2.933   1.810   2.785 -1.1547 -2.5484 -0.4011
  414SOL    HW2 1242   3.071   1.884   2.849  0.4290 -1.4364  2.6594
  415SOL     OW 1243   0.496   2.205   2.754 -0.0062  0.5443  0.4128
  415SOL    HW1 1244   0.500   2.114   2.804 -1.3318  0.7312  1.3780
  415SOL    HW2 1245   0.410   2.252   2.785 -1.9322 -1.3037  0.7518
  416SOL     OW 1246   1.424   0.355   0.476  0.2436 -0.0918 -0.5990
  416SOL    HW1 1247   1.523   0.331   0.473 -0.9511 -0.1508  1.0491
  416SOL    HW2 1248   1.379   0.316   0.557  1.8416  1.3003  0.9305
  417SOL     OW 1249   0.216   1.142   0.525  0.1556  0.1475  0.2270
  417SOL    HW1 1250   0.310   1.107   0.517 -0.4821 -1.1139  2.5448
  417SOL    HW2 1251   0.179   1.128   0.622 -1.9523  2.0336  1.3274
  418SOL     OW 1252   2.624   1.128   2.095  0.1755 -0.1309  0.5555
  418SOL    HW1 1253   2.557   1.196   2.054  0.4759  2.2781 -2.3104
  418SOL    HW2 1254   2.681   1.182   2.156  0.2030 -3.4918 -2.1243
  419SOL     OW 1255   0.474   0.742   0.112  0.2462  0.2155 -0.1685
  419SOL    HW1 1256   0.455   0.843   0.134  1.7115  3.1697  0.5042
  419SOL    HW2 1257   0.387   0.698   0.084 -0.9806 -2.0105 -1.7770
  420SOL     OW 1258   0.511   1.448   0.692  0.3504  0.1863  0.6685
  420SOL    HW1 1259   0.450   1.395   0.757 -0.7862  1.3123  3.8423
  420SOL    HW2 1260   0.534   1.395   0.609  0.1907  2.0400  0.9372
  421SOL     OW 1261   0.814   2.581   0.593  0.0742  0.1679  0.5151
  421SOL    HW1 1262   0.823   2.675   0.554 -0.0347  0.3125  1.1954
  421SOL    HW2 1263   0.893   2.548   0.642 -0.9575 -0.4654 -0.6874
  422SOL     OW 1264   0.049   0.865   1.461 -0.1239  0.3659 -0.9745
  422SOL    HW1 1265   0.125   0.932   1.440  0.0504  1.0016  0.5344
  422SOL    HW2 1266   0.085   0.795   1.527  0.5789 -1.1638 -0.5358
  423SOL     OW 1267   1.553   1.581   1.507  0.5328 -0.0547  0.1187
  423SOL    HW1 1268   1.486   1.513   1.550  1.4261 -1.3019 -0.0250
  423SOL    HW2 1269   1.508   1.641   1.439 -4.0408 -0.9811 -0.6920
  424SOL     OW 1270   2.030   1.058   2.858 -0.1024 -0.4391 -0.1847
  424SOL    HW1 1271   1.977   1.092   2.936 -0.6338 -1.5267  1.1017
  424SOL    HW2 1272   2.009   1.118   2.777 -1.3093  0.7035  0.1417
  425SOL     OW 1273   3.084   0.368   1.832  0.3444 -0.1350 -0.4604
  425SOL    HW1 1274   0.084   0.377   1.863  1.8031  0.8562  0.2269
  425SOL    HW2 1275   3.023   0.450   1.860 -2.8686  3.2307 -0.4003
  426SOL     OW 1276   2.712   2.619   2.543 -0.0934 -0.2982 -0.2278
  426SOL    HW1 1277   2.794   2.635   2.599 -2.0567  0.5456 -0.7492
  426SOL    HW2 1278   2.637   2.596   2.607  2.1678  3.5206  1.5276
  427SOL     OW 1279   1.119   0.659   2.383  0.0458 -0.2995 -0.6426
  427SOL    HW1 1280   1.050   0.689   2.311 -0.7231 -0.7938 -0.5241
  427SOL    HW2 1281   1.212   0.683   2.349 -2.2840 -1.2997 -2.1359
  428SOL     OW 1282   1.985   0.902   2.111 -0.4909 -0.5411  0.1230
  428SOL    HW1 1283   2.075   0.867   2.135  1.2599 -0.1883 -0.2734
  428SOL    HW2 1284   1.956   0.855   2.025  0.6640 -2.9405  1.4156
  429SOL     OW 1285   3.069   2.796   0.342  0.4972 -0.2224 -0.1889
  429SOL    HW1 1286   0.033   2.862   0.395  2.0728  0.9003  0.8843
  429SOL    HW2 1287   2.985   2.844   0.309  0.8273  2.5177  0.9327
  430SOL     OW 1288   2.100   1.489   2.219 -0.0116 -0.0141  0.5521
  430SOL    HW1 1289   2.188   1.445   2.234 -2.8805  3.0839 -1.3260
  430SOL    HW2 1290   2.025   1.450   2.273  1.0938  2.2720 -0.5837
  431SOL     OW 1291   0.189   1.853   1.289  0.0856 -0.9334  0.2465
  431SOL    HW1 1292   0.217   1.783   1.213  0.6395 -0.8122 -1.8410
  431SOL    HW2 1293   0.236   1.944   1.270  1.8628  0.4977  2.0907
  432SOL     OW 1294   1.928   0.048   2.594 -0.1461  0.2270  0.3934
  432SOL    HW1 1295   1.865   0.107   2.537  1.1811  2.7603 -1.9916
  432SOL    HW2 1296   1.880   0.022   2.678 -1.3266 -0.1022 -0.0187
  433SOL     OW 1297   1.409   2.954   2.150 -0.0353  0.4987 -0.3513
  433SOL    HW1 1298   1.351   2.986   2.071 -0.9956  1.9328 -0.5008
  433SOL    HW2 1299   1.445   3.045   2.185  2.2441  2.9748  2.4629
  434SOL     OW 1300   0.496   2.627   2.030 -0.0768  0.0224  0.1115
  434SOL    HW1 1301   0.491   2.658   2.127 -0.9825  0.9767  0.0293
  434SOL    HW2 1302   0.434   2.549   2.019  2.3582  1.0582 -0.0656
  435SOL     OW 1303   0.361   2.184   0.173 -0.3512 -0.4049  0.0655
  435SOL    HW1 1304   0.403   2.235   0.092  1.5210 -0.7722  0.5586
  435SOL    HW2 1305   0.422   2.103   0.196 -1.1760 -1.8387  1.1740
  436SOL     OW 1306   0.579   0.729   1.813 -0.3132  0.0484 -0.0257
  436SOL    HW1 1307   0.673   0.698   1.784 -0.2320  0.7949 -2.6350
  436SOL    HW2 1308   0.519   0.739   1.732 -2.2501  0.7989  2.4182
  437SOL     OW 1309   0.491   2.718   2.297 -0.2399  0.4845 -0.1168
  437SOL    HW1 1310   0.491   2.809   2.344  1.4181 -1.5800 -0.7188
  437SOL    HW2 1311   0.475   2.640   2.365 -0.4181 -0.3069  0.9614
  438SOL     OW 1312   0.746   1.763   1.383 -0.5777  0.5266  0.1170
  438SOL    HW1 1313   0.693   1.848   1.405  1.7950  0.8462 -0.1435
  438SOL    HW2 1314   0.723   1.694   1.454 -0.9510  1.5593  0.2359
  439SOL     OW 1315   1.982   0.787   2.897 -0.4039 -0.1912 -0.0224
  439SOL    HW1 1316   2.001   0.887   2.870 -0.6543  1.5372 -0.4672
  439SOL    HW2 1317   2.062   0.760   2.953 -2.4437 -0.1624 -1.7539
  440SOL     OW 1318   0.844   0.387   0.108 -0.2081 -0.1410  0.3256
  440SOL    HW1 1319   0.791   0.319   0.166 -0.4742 -0.8005 -0.8417
  440SOL    HW2 1320   0.888   0.461   0.161 -1.7332 -2.4616 -3.2029
  441SOL     OW 1321   0.774   2.393   1.422 -0.0292  0.5493  0.2278
  441SOL    HW1 1322   0.696   2.454   1.442  0.0615  1.5476 -0.1438
  441SOL    HW2 1323   0.757   2.339   1.337 -1.5437 -0.5474  0.2076
  442SOL     OW 1324   2.961   1.574   0.793 -0.0824  0.0174  0.1024
  442SOL    HW1 1325   2.918   1.648   0.737 -0.2952 -0.5118 -1.6552
  442SOL    HW2 1326   2.945   1.592   0.892  1.6869  1.0330 -3.8993
  443SOL     OW 1327   2.610   2.109   2.666  0.0092  0.3335  0.2282
  443SOL    HW1 1328   2.582   2.063   2.581  1.0329  1.2338 -0.5913
  443SOL    HW2 1329   2.667   2.049   2.726  0.2891  1.3539  1.7947
  444SOL     OW 1330   1.659   1.082   3.024 -0.1454  0.6410  0.2174
  444SOL    HW1 1331   1.619   1.141   3.096  0.4536  0.1049 -4.1063
  444SOL    HW2 1332   1.616   1.079   2.933  1.4761  0.5376 -0.4855
  445SOL     OW 1333   2.712   2.902   1.874 -0.1572 -0.2060  0.2874
  445SOL    HW1 1334   2.683   2.904   1.776 -0.1426 -0.6704 -0.7598
  445SOL    HW2 1335   2.634   2.913   1.937 -1.5643 -1.8802  0.1819
  446SOL     OW 1336   0.222   1.188   1.132  0.6519 -0.1938 -0.0280
  446SOL    HW1 1337   0.267   1.275   1.094  0.0534  0.6960 -0.6101
  446SOL    HW2 1338   0.124   1.211   1.161 -0.3709 -2.2211 -1.5274
  447SOL     OW 1339   1.092   2.071   1.027 -0.5461 -0.1359 -0.5601
  447SOL    HW1 1340   1.061   2.101   1.115  0.9210 -1.4031 -0.4164
  447SOL    HW2 1341   1.016   2.064   0.962 -1.0551 -1.7288  1.3099
  448SOL     OW 1342   1.038   1.125   1.649  0.1763  0.1232  0.0965
  448SOL    HW1 1343   0.981   1.185   1.595  0.4662 -1.0272  1.8931
  448SOL    HW2 1344   0.984   1.043   1.684 -0.3192 -0.0824  0.2539
  449SOL     OW 1345   2.743   2.075   2.199 -0.4013  0.3999  0.1389
  449SOL    HW1 1346   2.755   2.173   2.226 -0.8600  4.0182  2.6258
  449SOL    HW2 1347   2.724   2.060   2.095  0.3479  0.2887 -0.1157
  450SOL     OW 1348   0.042   1.695   1.682 -0.1436 -0.1722  0.1590
  450SOL    HW1 1349   3.041   1.682   1.706  0.0736  1.1037 -0.2984
  450SOL    HW2 1350   0.085   1.609   1.659 -2.0902  1.3041  3.1083
  451SOL     OW 1351   2.260   0.535   1.253  0.2958 -0.3391  0.0017
  451SOL    HW1 1352   2.306   0.608   1.310  0.5703 -1.5682  0.8900
  451SOL    HW2 1353   2.182   0.579   1.204  1.7706 -0.9773  0.4425
  452SOL     OW 1354   0.829   1.344   0.567  0.1228 -0.0487 -0.3475
  452SOL    HW1 1355   0.781   1.338   0.655 -0.2351 -0.5389 -2.7974
  452SOL    HW2 1356   0.914   1.288   0.566  1.3393 -0.2961 -0.6496
  453SOL     OW 1357   1.535   2.188   0.440 -0.7082  0.1116  0.0376
  453SOL    HW1 1358   1.440   2.156   0.452 -0.5037  0.6080 -0.6938
  453SOL    HW2 1359   1.565   2.239   0.526  3.1650  0.7651 -2.4742
  454SOL     OW 1360   0.561   1.710   0.116 -0.2166  0.3049 -0.0426
  454SOL    HW1 1361   0.568   1.689   0.017  0.8886  1.8854  2.4266
  454SOL    HW2 1362   0.496   1.644   0.156 -0.6885  2.9940 -1.2050
  455SOL     OW 1363   1.264   0.937   0.572  0.1718  0.5674  0.5617
  455SOL    HW1 1364   1.165   0.936   0.536 -2.6950 -1.0624 -0.4474
  455SOL    HW2 1365   1.273   0.994   0.655  0.7628 -1.2696 -0.0217
  456SOL     OW 1366   2.171   2.379   1.152  0.3122  0.2871  0.9671
  456SOL    HW1 1367   2.180   2.311   1.226  1.1345 -0.8233 -1.1210
  456SOL    HW2 1368   2.168   2.470   1.191  1.9358 -1.9372  0.4557
  457SOL     OW 1369   1.738   2.934   0.077 -0.3444  0.2952  0.7389
  457SOL    HW1 1370   1.760   2.946   0.174 -1.5596 -0.9709 -3.9084
  457SOL    HW2 1371   1.822   2.955   0.027  0.6471 -0.1486 -0.9723
  458SOL     OW 1372   2.624   0.946   0.368  0.0109 -0.0019  0.1311
  458SOL    HW1 1373   2.541   0.953   0.308  0.7049  0.5989  0.1756
  458SOL    HW2 1374   2.617   1.001   0.453 -3.2556  1.0652  1.0189
  459SOL     OW 1375   2.912   0.351   2.521  0.0082 -0.0557 -0.8763
  459SOL    HW1 1376   2.923   0.455   2.504  3.8002  0.5851 -3.1232
  459SOL    HW2 1377   2.862   0.299   2.446  2.8482  0.7022  1.8710
  460SOL     OW 1378   2.901   0.831   2.939 -0.1128  0.0800 -0.2379
  460SOL    HW1 1379   2.804   0.860   2.957 -1.6784  1.9057  0.3243
  460SOL    HW2 1380   2.955   0.901   2.887  1.8062  0.6109  0.6903
  461SOL     OW 1381   2.837   2.514   0.802 -0.0012 -0.0911 -0.0519
  461SOL    HW1 1382   2.865   2.539   0.897 -0.0491  0.6115  0.3082
  461SOL    HW2 1383   2.798   2.423   0.808  0.0461  0.9544  1.3809
  462SOL     OW 1384   2.997   3.097   1.625  0.0088 -0.0126  0.1519
  462SOL    HW1 1385   2.963   0.088   1.654  3.8830 -0.7726  2.5507
  462SOL    HW2 1386   3.066   0.017   1.553 -0.5463  0.0940  3.0373
  463SOL     OW 1387   2.196   1.789   2.487  0.5782  0.0072 -0.1421
  463SOL    HW1 1388   2.269   1.716   2.471  0.6073 -0.3264  1.3062
  463SOL    HW2 1389   2.110   1.752   2.532  1.6711  0.7886  0.5198
  464SOL     OW 1390   0.578   2.922   1.376  0.1691 -0.2854  0.1784
  464SOL    HW1 1391   0.636   2.920   1.462  2.5347 -0.0085  0.5655
  464SOL    HW2 1392   0.529   3.010   1.365  0.8465  0.2036  1.4146
  465SOL     OW 1393   0.751   0.270   1.385 -0.1598 -0.6106 -0.7011
  465SOL    HW1 1394   0.668   0.297   1.440  1.5433 -0.6510 -0.4817
  465SOL    HW2 1395   0.729   0.190   1.326  2.5526 -2.2392  1.9615
  466SOL     OW 1396   1.583   2.822   1.948 -0.0647  0.4404 -0.1531
  466SOL    HW1 1397   1.558   2.721   1.956 -1.2134  1.5567  0.0509
  466SOL    HW2 1398   1.547   2.873   2.030 -0.4482  0.3217  1.3252
  467SOL     OW 1399   0.615   2.016   1.012 -0.2404 -0.7379 -0.5072
  467SOL    HW1 1400   0.596   1.923   1.046 -2.6580  1.7876 -0.6627
  467SOL    HW2 1401   0.535   2.045   0.951  0.4658  3.2700 -1.6790
  468SOL     OW 1402   2.458   1.507   2.580 -0.1407  0.0321  0.6032
  468SOL    HW1 1403   2.429   1.540   2.486 -1.7585  2.5296  1.2182
  468SOL    HW2 1404   2.377   1.479   2.633 -0.5707 -2.0279  1.3573
  469SOL     OW 1405   1.092   1.870   0.443  0.0668  0.4527 -0.0274
  469SOL    HW1 1406   1.120   1.776   0.431 -1.0559  0.3196  2.7527
  469SOL    HW2 1407   1.053   1.896   0.533 -0.1116  3.6724 -0.5903
  470SOL     OW 1408   2.171   1.200   1.539 -0.3053  0.1562  0.0696
  470SOL    HW1 1409   2.245   1.182   1.611 -1.3568 -0.0615  0.3874
  470SOL    HW2 1410   2.090   1.229   1.583  2.2155 -1.4584 -0.7009
  471SOL     OW 1411   0.401   2.545   2.956 -0.0304  0.2107  0.2119
  471SOL    HW1 1412   0.364   2.471   2.897 -1.6030 -1.5958  1.2910
  471SOL    HW2 1413   0.505   2.537   2.964  1.3788 -1.5909  0.8008
  472SOL     OW 1414   2.923   1.867   1.933 -0.0342 -0.3132  0.6085
  472SOL    HW1 1415   2.920   1.825   1.839 -0.4021 -2.2666 -3.1902
  472SOL    HW2 1416   2.827   1.891   1.962 -0.4718 -2.0254  1.0898
  473SOL     OW 1417   0.908   2.946   0.271  0.2229 -0.2131 -0.0537
  473SOL    HW1 1418   0.926   2.862   0.329 -0.5073 -1.3039 -0.7681
  473SOL    HW2 1419   0.879   2.919   0.176  0.3711  1.2526  2.7038
  474SOL     OW 1420   2.534   2.670   0.784  0.6492 -0.3206 -0.0880
  474SOL    HW1 1421   2.487   2.587   0.763  0.1439 -0.0549  0.8201
  474SOL    HW2 1422   2.635   2.668   0.786  1.1157 -0.7753  1.6128
  475SOL     OW 1423   1.883   2.590   1.737  0.5580  0.1202  0.4743
  475SOL    HW1 1424   1.901   2.513   1.668  0.1302  0.8830  2.0163
  475SOL    HW2 1425   1.963   2.632   1.774 -1.4863  1.3137 -3.4138
  476SOL     OW 1426   0.722   0.717   0.772 -0.0027  0.9096 -0.3131
  476SOL    HW1 1427   0.624   0.686   0.754  0.5128 -2.4730 -1.0241
  476SOL    HW2 1428   0.722   0.782   0.845 -2.4430 -2.0768  0.5271
  477SOL     OW 1429   0.766   2.225   0.686  0.6177  0.0916  0.0148
  477SOL    HW1 1430   0.709   2.301   0.662 -1.1198  0.1852  0.6725
  477SOL    HW2 1431   0.764   2.148   0.619 -0.0445 -1.7412  2.8499
  478SOL     OW 1432   0.054   2.336   2.201 -0.3075  0.8024 -0.1254
  478SOL    HW1 1433   0.004   2.347   2.291 -1.0887  1.7758  0.3810
  478SOL    HW2 1434   3.086   2.339   2.119 -2.6670 -1.3063 -1.1891
  479SOL     OW 1435   0.110   0.654   1.691 -0.7621  0.4350 -0.3841
  479SOL    HW1 1436   0.161   0.591   1.755  0.8334  1.5544 -2.4242
  479SOL    HW2 1437   0.089   0.602   1.602  1.9567 -1.4375  1.9190
  480SOL     OW 1438   0.003   2.387   2.988  0.3064 -0.5957  0.1171
  480SOL    HW1 1439   0.003   2.304   2.928 -0.0293  0.6551  0.5065
  480SOL    HW2 1440   3.049   2.373   3.076 -1.6697  2.8111  0.7657
  481SOL     OW 1441   1.818   1.964   2.208 -0.1752 -0.3572 -0.3651
  481SOL    HW1 1442   1.820   1.863   2.185  0.5820 -0.2685 -0.4322
  481SOL    HW2 1443   1.891   2.020   2.160 -2.2025  0.0004 -0.7965
  482SOL     OW 1444   1.726   2.187   0.026  0.2222  0.5457  0.8354
  482SOL    HW1 1445   1.629   2.207   0.004  0.9667  1.0500  0.3717
  482SOL    HW2 1446   1.787   2.253   3.081 -0.8194  0.9486 -0.7717
  483SOL     OW 1447   0.536   2.034   2.126 -0.8532  0.1141  0.4092
  483SOL    HW1 1448   0.561   2.014   2.030  0.0735 -1.8254  0.7997
  483SOL    HW2 1449   0.518   1.948   2.173 -0.9637  2.2073 -0.7293
  484SOL     OW 1450   3.074   0.613   1.204  0.9773 -0.3613  0.5564
  484SOL    HW1 1451   2.987   0.573   1.156 -2.3325  3.1247 -1.3557
  484SOL    HW2 1452   3.038   0.701   1.246 -2.7131  2.7285 -0.0158
  485SOL     OW 1453   2.288   0.926   0.717 -0.4710  0.3666  0.4419
  485SOL    HW1 1454   2.320   0.835   0.685  2.0904 -0.5589  0.3935
  485SOL    HW2 1455   2.184   0.938   0.705 -0.5254  1.2606  4.4329
  486SOL     OW 1456   1.509   0.106   2.253  0.1972 -0.3011  0.2727
  486SOL    HW1 1457   1.566   0.164   2.191  2.2506  1.1358  0.7218
  486SOL    HW2 1458   1.559   0.061   2.332 -1.6078  2.5982  0.4439
  487SOL     OW 1459   1.164   1.404   1.007  0.7640 -0.2782 -0.1637
  487SOL    HW1 1460   1.089   1.336   0.984  0.3307 -0.6376  3.3185
  487SOL    HW2 1461   1.242   1.387   0.940  3.0147  1.2760  0.8791
  488SOL     OW 1462   2.215   1.455   3.086 -1.1299 -0.5491 -0.6367
  488SOL    HW1 1463   2.214   1.362   3.050  0.4747  3.2728  1.4635
  488SOL    HW2 1464   2.308   1.483   3.095  0.3759  0.9868  0.0075
  489SOL     OW 1465   2.357   0.303   0.220  0.1831 -0.6779 -0.8288
  489SOL    HW1 1466   2.424   0.359   0.164  0.9244  1.6189  0.0225
  489SOL    HW2 1467   2.401   0.219   0.257  1.5713  1.4727  1.7601
  490SOL     OW 1468   1.565   2.763   0.530 -0.1586  0.2002  0.6344
  490SOL    HW1 1469   1.651   2.809   0.510  0.3520  0.1913 -0.8312
  490SOL    HW2 1470   1.514   2.759   0.442 -0.5183 -0.1763 -1.6443
  491SOL     OW 1471   0.971   0.812   0.693 -0.4905 -0.4143  0.2057
  491SOL    HW1 1472   0.874   0.786   0.706 -1.9472  2.9394  2.2837
  491SOL    HW2 1473   0.994   0.833   0.596  4.2505  2.3080 -2.7644
  492SOL     OW 1474   1.604   0.055   3.090  0.5229  0.2309 -0.0979
  492SOL    HW1 1475   1.662   3.070   0.013  0.5539 -0.1823  0.2109
  492SOL    HW2 1476   1.505   0.026   3.087 -2.5032 -1.2726  2.1452
  493SOL     OW 1477   2.008   2.314   0.225  0.4226  0.4130  0.3082
  493SOL    HW1 1478   2.079   2.357   0.280 -3.0517 -1.6529 -0.8600
  493SOL    HW2 1479   1.944   2.268   0.289  1.1173 -1.1462  0.4303
  494SOL     OW 1480   0.470   1.064   0.435 -0.1913 -0.0497 -0.0668
  494SOL    HW1 1481   0.512   1.154   0.456 -2.5505 -1.2282 -0.5164
  494SOL    HW2 1482   0.439   1.071   0.340  0.4024 -0.1263  0.3459
  495SOL     OW 1483   0.006   2.856   1.036  0.1489  0.5899  0.1888
  495SOL    HW1 1484   3.046   2.776   1.058  0.0013 -0.2367  2.3383
  495SOL    HW2 1485   0.059   2.844   0.948  0.7851  1.2052 -1.3938
  496SOL     OW 1486   2.271   0.313   1.685  0.4566 -0.1310  0.4486
  496SOL    HW1 1487   2.365   0.295   1.668 -2.0814 -0.0599  2.4368
  496SOL    HW2 1488   2.251   0.416   1.694 -0.7873  1.6644  1.1950
  497SOL     OW 1489   1.945   1.667   2.574  0.1926  0.0302  0.4524
  497SOL    HW1 1490   1.954   1.570   2.588  2.7654  0.0956 -1.2816
  497SOL    HW2 1491   1.848   1.707   2.575  1.0788  0.9931 -0.4590
  498SOL     OW 1492   0.957   1.905   0.681 -0.1801  0.2382 -0.1459
  498SOL    HW1 1493   0.953   1.962   0.764  3.7172 -0.8769 -4.2507
  498SOL    HW2 1494   0.870   1.861   0.650 -0.0954 -2.1541 -0.7059
  499SOL     OW 1495   0.713   2.166   1.218 -0.4592  0.0605  0.0475
  499SOL    HW1 1496   0.689   2.110   1.135  1.1777 -0.1406  1.2986
  499SOL    HW2 1497   0.692   2.263   1.190  0.4417  3.4213  0.0610
  500SOL     OW 1498   1.145   2.025   0.043 -0.3376  0.3897  0.0381
  500SOL    HW1 1499   1.108   1.945   0.090 -0.6271  2.7133  1.7867
  500SOL    HW2 1500   1.210   2.083   0.101  1.2574  1.7916 -0.4564
  501SOL     OW 1501   2.336   2.982   1.357  0.0173  1.0188  0.1287
  501SOL    HW1 1502   2.402   2.953   1.426 -1.7509 -1.8778 -2.5499
  501SOL    HW2 1503   2.239   2.976   1.384  0.4887  0.2129 -3.1502
  502SOL     OW 1504   0.306   0.843   1.702  0.1452  0.3682 -0.0023
  502SOL    HW1 1505   0.263   0.751   1.711  0.0797 -0.4387 -1.3922
  502SOL    HW2 1506   0.377   0.855   1.627 -0.1638  2.3446 -0.0135
  503SOL     OW 1507   2.067   0.789   1.592  0.6621  0.5690 -0.3333
  503SOL    HW1 1508   2.009   0.713   1.625  1.7803  0.1762 -3.6465
  503SOL    HW2 1509   2.071   0.793   1.491  1.6862 -1.7645  3.3996
  504SOL     OW 1510   1.376   0.682   2.278 -0.3109 -0.3147  0.2932
  504SOL    HW1 1511   1.436   0.720   2.354  1.3480 -1.1221 -0.0442
  504SOL    HW2 1512   1.365   0.752   2.201  0.2826 -0.8527 -1.0555
  505SOL     OW 1513   0.676   0.056   2.367 -0.1107  0.1687  0.3683
  505SOL    HW1 1514   0.768   0.046   2.410  3.3285  1.6511  0.0651
  505SOL    HW2 1515   0.615   3.072   2.378  0.1351 -0.1596  1.7619
  506SOL     OW 1516   0.315   0.472   1.397 -0.3394 -0.4677 -0.1461
  506SOL    HW1 1517   0.344   0.443   1.487 -1.0875  2.1958 -0.1430
  506SOL    HW2 1518   0.218   0.486   1.408 -2.0588 -0.4126  0.3627
  507SOL     OW 1519   1.415   2.961   3.061 -0.0335 -0.5001 -0.3523
  507SOL    HW1 1520   1.330   2.938   0.015  0.1975  0.0863  1.2836
  507SOL    HW2 1521   1.480   2.883   3.065 -1.5829 -0.6024  1.4855
  508SOL     OW 1522   2.153   0.411   2.499  0.7940  0.5969  0.4883
  508SOL    HW1 1523   2.227   0.461   2.451  1.1547 -1.8355 -0.0423
  508SOL    HW2 1524   2.174   0.309   2.501  0.8555  0.6404  1.7918
  509SOL     OW 1525   0.891   1.390   1.731  0.1093  0.3010 -0.6305
  509SOL    HW1 1526   0.929   1.358   1.646 -2.6482 -0.5674  1.7870
  509SOL    HW2 1527   0.912   1.487   1.751  1.0615 -1.5432 -1.6441
  510SOL     OW 1528   3.029   1.282   0.865 -0.6086  0.1187 -0.1414
  510SOL    HW1 1529   2.932   1.311   0.870  0.8061  0.3559 -2.7847
  510SOL    HW2 1530   3.089   1.338   0.918  0.1955 -0.1400 -0.1405
  511SOL     OW 1531   1.654   1.810   0.997  0.2516  0.2649  0.0084
  511SOL    HW1 1532   1.693   1.815   0.902  1.2247 -0.9100  1.8111
  511SOL    HW2 1533   1.728   1.786   1.057  0.5785  0.0189 -3.2484
  512SOL     OW 1534   0.576   1.317   0.453  0.5458  0.6630 -0.2113
  512SOL    HW1 1535   0.568   1.347   0.355  0.4003  2.8646  1.9285
  512SOL    HW2 1536   0.671   1.317   0.472  0.3925 -1.2868 -1.4491
  513SOL     OW 1537   0.600   2.424   0.538 -0.0802 -0.8801 -0.0235
  513SOL    HW1 1538   0.598   2.403   0.439  0.0032  0.2255  2.3959
  513SOL    HW2 1539   0.674   2.498   0.551 -1.8289  3.6533  0.7444
  514SOL     OW 1540   2.558   2.018   2.408 -0.0275  0.4749  0.2569
  514SOL    HW1 1541   2.465   2.005   2.359 -2.4067 -1.2141 -2.8466
  514SOL    HW2 1542   2.635   2.051   2.347  0.1025  2.4441  1.0016
  515SOL     OW 1543   2.512   0.667   3.033 -0.3726  0.2755  0.0489
  515SOL    HW1 1544   2.599   0.613   3.023 -0.0471  0.7086  1.9487
  515SOL    HW2 1545   2.481   0.649   0.032 -0.9336 -0.9327 -0.6743
  516SOL     OW 1546   1.801   0.000   0.817 -0.2398  0.1891 -0.1718
  516SOL    HW1 1547   1.842   3.033   0.882 -0.3070  0.9683 -0.6208
  516SOL    HW2 1548   1.711   3.069   0.774 -2.4039 -0.1813 -0.8045
  517SOL     OW 1549   1.377   2.240   2.808 -0.0902 -0.1903  0.0243
  517SOL    HW1 1550   1.344   2.144   2.811 -2.8562  0.4863  0.0973
  517SOL    HW2 1551   1.472   2.245   2.768  0.6106 -1.6155  0.4283
  518SOL     OW 1552   0.934   0.873   1.738 -0.0243  0.4433  0.0167
  518SOL    HW1 1553   1.016   0.834   1.698  0.1166  0.1512  1.5741
  518SOL    HW2 1554   0.934   0.879   1.841 -1.7353  0.4646  2.0827
  519SOL     OW 1555   0.010   1.478   0.090 -0.5377 -0.2500 -0.8630
  519SOL    HW1 1556   0.064   1.549   0.136 -0.3469 -1.1185 -1.0282
  519SOL    HW2 1557   3.043   1.516   0.023 -2.0245  0.1990 -0.1673
  520SOL     OW 1558   2.026   2.124   2.077 -0.1019 -0.0917  0.4295
  520SOL    HW1 1559   2.101   2.135   2.147  1.3286  0.6052  0.2837
  520SOL    HW2 1560   2.045   2.049   2.013 -1.5432  2.6463  0.7109
  521SOL     OW 1561   0.920   2.656   2.511  0.7544  0.0154  0.4567
  521SOL    HW1 1562   0.880   2.688   2.421  2.2981 -1.4267 -0.9889
  521SOL    HW2 1563   1.022   2.635   2.503  1.4465 -2.6470  0.5024
  522SOL     OW 1564   2.359   0.192   2.056  0.7773 -0.0052  0.2805
  522SOL    HW1 1565   2.292   0.150   1.987  0.7721 -2.2695  0.2651
  522SOL    HW2 1566   2.409   0.275   2.026  1.3722 -0.0660 -0.1334
  523SOL     OW 1567   1.658   2.157   1.284  0.5068 -0.5375  0.2226
  523SOL    HW1 1568   1.578   2.225   1.309 -0.2975  0.2937  1.7252
  523SOL    HW2 1569   1.741   2.179   1.335 -0.8484 -3.6359 -1.1278
  524SOL     OW 1570   1.346   2.199   0.177 -0.0300  0.3648 -0.0116
  524SOL    HW1 1571   1.311   2.284   0.217 -0.9488 -0.5226 -1.0913
  524SOL    HW2 1572   1.412   2.212   0.102 -1.4979 -0.8397 -1.4397
  525SOL     OW 1573   0.234   0.631   0.048  0.1377 -0.3090  0.3958
  525SOL    HW1 1574   0.288   0.549   0.019 -4.0193 -0.0509 -1.0371
  525SOL    HW2 1575   0.160   0.615   0.118 -1.4636 -1.5353  2.3460
  526SOL     OW 1576   0.980   2.706   0.391 -0.0652 -0.1451  0.2364
  526SOL    HW1 1577   0.896   2.649   0.367 -1.8067  0.8760  0.7745
  526SOL    HW2 1578   1.035   2.653   0.463  1.3966 -1.3311  2.7269
  527SOL     OW 1579   2.807   1.816   0.702 -0.0754 -0.1735 -0.6445
  527SOL    HW1 1580   2.743   1.822   0.782 -0.9761 -1.1071  1.9095
  527SOL    HW2 1581   2.750   1.818   0.617  1.7019 -0.0398 -1.1672
  528SOL     OW 1582   0.539   0.932   2.246 -0.4359  0.1020 -0.3914
  528SOL    HW1 1583   0.445   0.899   2.234  2.5195 -1.5684  1.5350
  528SOL    HW2 1584   0.584   0.928   2.152 -1.5832 -3.8764 -2.4022
  529SOL     OW 1585   1.687   1.727   2.589 -0.7147 -0.1627 -0.7516
  529SOL    HW1 1586   1.642   1.640   2.605  0.4322  1.0149 -0.2405
  529SOL    HW2 1587   1.643   1.786   2.518 -0.5313  1.2352 -2.1120
  530SOL     OW 1588   1.884   1.033   2.412  0.7641  0.6261 -0.3040
  530SOL    HW1 1589   1.821   0.974   2.358  0.5529 -0.2637  0.5459
  530SOL    HW2 1590   1.887   1.129   2.373  1.1058  1.8740  1.2567
  531SOL     OW 1591   0.568   2.410   2.582 -0.3219 -0.0517  0.1323
  531SOL    HW1 1592   0.482   2.445   2.539 -1.1869  0.2371 -0.3986
  531SOL    HW2 1593   0.541   2.330   2.641 -1.4610 -0.7769 -0.6102
  532SOL     OW 1594   2.549   1.104   0.601 -0.0897 -0.2504 -0.1525
  532SOL    HW1 1595   2.637   1.097   0.644 -0.0872  1.2513 -0.8185
  532SOL    HW2 1596   2.484   1.026   0.616 -0.3609  1.6369 -0.7223
  533SOL     OW 1597   2.910   0.236   1.679  0.1113 -0.0906 -0.2976
  533SOL    HW1 1598   2.982   0.272   1.747  1.2494  0.2061 -0.9772
  533SOL    HW2 1599   2.920   0.286   1.594 -2.1577 -1.0445  2.0815
  534SOL     OW 1600   0.837   3.049   3.044  0.5223 -0.1792 -0.8361
  534SOL    HW1 1601   0.828   0.045   3.090 -1.3194  1.1542 -1.3958
  534SOL    HW2 1602   0.751   3.027   2.988 -4.3222 -0.6464 -1.7922
  535SOL     OW 1603   0.285   0.262   0.059 -0.1462 -0.1969  0.0401
  535SOL    HW1 1604   0.322   0.199   3.085 -1.3490 -1.1003 -2.1759
  535SOL    HW2 1605   0.252   0.211   0.141 -0.2259 -0.1606  0.1201
  536SOL     OW 1606   0.502   1.755   0.994  0.5930  0.0102  0.4085
  536SOL    HW1 1607   0.421   1.721   1.045 -0.8865  0.8629 -0.9366
  536SOL    HW2 1608   0.559   1.679   0.965 -0.0825 -0.0835 -0.8848
  537SOL     OW 1609   0.900   2.738   1.765  0.3197  0.0998  0.2769
  537SOL    HW1 1610   0.996   2.781   1.763  2.5692 -0.1073  3.1649
  537SOL    HW2 1611   0.899   2.667   1.837 -0.6982 -1.4211 -1.6240
  538SOL     OW 1612   0.176   2.072   2.839 -0.8110  0.3141 -0.6687
  538SOL    HW1 1613   0.163   2.023   2.931 -1.7351  1.0015  5.7379
  538SOL    HW2 1614   0.249   2.017   2.788  2.8120 -1.2786 -2.6599
  539SOL     OW 1615   2.712   1.206   2.652 -0.3956  0.0258 -0.8047
  539SOL    HW1 1616   2.692   1.126   2.708 -0.7411  4.0200 -0.9215
  539SOL    HW2 1617   2.738   1.166   2.562 -3.4418  0.3844 -2.0700
  540SOL     OW 1618   1.819   0.293   2.349  0.0371 -0.2823 -0.1662
  540SOL    HW1 1619   1.872   0.334   2.430  1.6879  4.5695  4.7235
  540SOL    HW2 1620   1.724   0.271   2.373  0.2640  3.2144 -4.3457
  541SOL     OW 1621   0.532   0.406   2.163 -0.2309 -0.1111  0.3346
  541SOL    HW1 1622   0.470   0.369   2.233 -0.9223 -2.6563 -1.0835
  541SOL    HW2 1623   0.501   0.499   2.130 -0.3046  0.9561 -2.4109
  542SOL     OW 1624   2.095   2.895   0.378 -0.5012  0.3491  0.3671
  542SOL    HW1 1625   2.019   2.893   0.313 -1.1187 -0.3391  1.6790
  542SOL    HW2 1626   2.135   2.988   0.383  2.5689  1.6364 -2.0201
  543SOL     OW 1627   1.142   0.042   0.254 -0.1884 -0.0709  0.2916
  543SOL    HW1 1628   1.162   0.145   0.245 -1.0247  2.2779 -2.7972
  543SOL    HW2 1629   1.043   0.027   0.272  0.9358 -0.0091 -1.2754
  544SOL     OW 1630   2.675   1.279   1.670  0.4436 -0.1368 -0.0791
  544SOL    HW1 1631   2.595   1.232   1.703  2.1078 -1.1831  1.2291
  544SOL    HW2 1632   2.759   1.251   1.720 -0.1162 -1.6559 -2.3994
  545SOL     OW 1633   2.076   1.799   1.258 -0.5879 -0.1834  0.3377
  545SOL    HW1 1634   2.157   1.760   1.206  1.5553 -0.9601 -0.8989
  545SOL    HW2 1635   2.064   1.750   1.349 -0.1894 -0.7739  3.5731
  546SOL     OW 1636   0.311   0.032   2.187 -0.5953 -0.4111 -0.0927
  546SOL    HW1 1637   0.281   0.070   2.274  3.2956  0.2803 -0.1519
  546SOL    HW2 1638   0.301   3.027   2.186  0.9098 -0.0130 -2.7141
  547SOL     OW 1639   1.570   0.721   0.757  0.5557  0.4993 -0.5166
  547SOL    HW1 1640   1.483   0.737   0.815 -0.9300 -1.1298  1.5940
  547SOL    HW2 1641   1.622   0.642   0.798  1.0149  0.5126  2.5324
  548SOL     OW 1642   1.603   2.384   2.571  0.2272 -0.2124 -0.0757
  548SOL    HW1 1643   1.511   2.376   2.534  2.4079 -1.0338 -0.4828
  548SOL    HW2 1644   1.625   2.306   2.632 -0.0856  1.9318  0.2930
  549SOL     OW 1645   2.048   0.629   0.211 -0.3926 -0.1785  0.0469
  549SOL    HW1 1646   2.135   0.679   0.223  0.5346 -2.8471 -0.8962
  549SOL    HW2 1647   2.024   0.630   0.114  1.0898  1.4195  1.1584
  550SOL     OW 1648   2.960   2.147   0.623  0.0737  0.1714 -0.1441
  550SOL    HW1 1649   2.943   2.189   0.716  0.2402  1.4040 -1.0971
  550SOL    HW2 1650   2.977   2.046   0.642 -1.3502 -1.1418  0.5919
  551SOL     OW 1651   1.097   2.590   2.207  0.1143 -0.4374 -0.1602
  551SOL    HW1 1652   1.173   2.636   2.261  4.8588  0.5201 -0.5602
  551SOL    HW2 1653   1.078   2.494   2.243  0.6497 -1.9660 -0.9087
  552SOL     OW 1654   3.020   2.406   2.474  0.4665 -1.1408  0.4944
  552SOL    HW1 1655   2.963   2.328   2.511 -0.2088 -0.9538 -0.4742
  552SOL    HW2 1656   2.972   2.470   2.413  2.7254 -0.1666 -1.6484
  553SOL     OW 1657   0.134   0.371   0.802  0.1013  0.7817  0.6494
  553SOL    HW1 1658   0.120   0.400   0.902 -0.7050  0.4262  1.8484
  553SOL    HW2 1659   0.075   0.292   0.776  0.3337  3.4880 -2.8419
  554SOL     OW 1660   2.191   2.373   1.592  0.8270 -0.3369 -0.2605
  554SOL    HW1 1661   2.097   2.403   1.582 -0.5946 -1.6832  0.9001
  554SOL    HW2 1662   2.199   2.321   1.677 -1.2958 -1.8207 -0.0179
  555SOL     OW 1663   1.661   2.224   2.205 -0.5570  0.2400  0.5774
  555SOL    HW1 1664   1.711   2.156   2.267  0.9377 -3.0657  2.7332
  555SOL    HW2 1665   1.675   2.319   2.236 -1.0278 -2.1874  1.0671
  556SOL     OW 1666   1.249   1.180   1.276 -0.3643 -0.1851  0.3079
  556SOL    HW1 1667   1.158   1.183   1.238  2.6842  1.1809  1.1789
  556SOL    HW2 1668   1.259   1.274   1.319  0.0802  2.3051  0.5642
  557SOL     OW 1669   2.023   2.624   2.216  0.4629 -0.4441  0.4164
  557SOL    HW1 1670   2.062   2.606   2.305 -0.1724  0.9923 -0.9203
  557SOL    HW2 1671   1.976   2.713   2.214  1.2711  1.3738 -1.0101
  558SOL     OW 1672   0.203   3.011   1.785  0.0271  0.5301 -0.4524
  558SOL    HW1 1673   0.270   2.929   1.793  0.8879 -2.8229 -1.6001
  558SOL    HW2 1674   0.110   2.978   1.805 -0.3132 -3.4236 -2.1076
  559SOL     OW 1675   2.216   3.026   0.756  0.0256 -0.0063 -0.0629
  559SOL    HW1 1676   2.293   2.964   0.783  0.0723 -0.5433  0.8956
  559SOL    HW2 1677   2.125   2.977   0.751  0.7448 -0.0408 -0.4506
  560SOL     OW 1678   1.744   2.804   0.824  0.1634 -0.7536  0.0484
  560SOL    HW1 1679   1.675   2.819   0.900  0.1412  1.5768  0.6996
  560SOL    HW2 1680   1.711   2.847   0.739  1.8240 -0.4043  1.3478
  561SOL     OW 1681   0.975   0.145   0.989  0.1519 -0.4584  0.3685
  561SOL    HW1 1682   0.993   0.217   0.917 -0.8971 -0.4419  0.7050
  561SOL    HW2 1683   1.063   0.112   1.025 -1.2368 -2.3286 -1.3690
  562SOL     OW 1684   0.476   0.875   2.530  0.3196 -0.3427 -0.2055
  562SOL    HW1 1685   0.530   0.902   2.453 -1.6176 -3.4550 -0.5037
  562SOL    HW2 1686   0.389   0.925   2.536 -0.5138 -1.3272 -0.8853
  563SOL     OW 1687   1.578   1.892   2.402  0.1262  0.6108 -0.2603
  563SOL    HW1 1688   1.641   1.962   2.431 -1.6170 -0.7619  0.4351
  563SOL    HW2 1689   1.479   1.910   2.436 -4.6070 -1.0587  2.6276
  564SOL     OW 1690   2.838   1.069   1.207 -0.1472 -0.2897  0.0097
  564SOL    HW1 1691   2.749   1.102   1.243 -0.1403  0.1518  0.8042
  564SOL    HW2 1692   2.830   1.062   1.105 -1.1792 -0.3469 -1.0442
  565SOL     OW 1693   0.995   0.935   0.038 -0.3237  0.2160 -0.7248
  565SOL    HW1 1694   1.073   0.871   0.021 -1.1395 -1.0229 -0.1235
  565SOL    HW2 1695   0.916   0.879   0.054  3.7432  0.3869 -0.0158
  566SOL     OW 1696   2.408   0.313   2.828 -0.2584 -0.4174  0.1398
  566SOL    HW1 1697   2.364   0.230   2.788  0.4876 -0.6447 -0.6448
  566SOL    HW2 1698   2.347   0.358   2.899  0.0276  0.4996 -0.4209
  567SOL     OW 1699   2.032   0.942   0.634  0.7763  0.2018 -0.4889
  567SOL    HW1 1700   2.027   1.038   0.666 -2.1162 -0.4451  0.9038
  567SOL    HW2 1701   1.945   0.894   0.650  0.7316  0.8205  1.3421
  568SOL     OW 1702   1.684   1.778   2.847 -0.2387 -0.3392  0.2840
  568SOL    HW1 1703   1.611   1.727   2.895 -0.8058 -1.2288  1.9941
  568SOL    HW2 1704   1.669   1.775   2.742 -0.7213 -2.6343 -4.2034
  569SOL     OW 1705   1.941   1.454   3.014  0.1114  0.4462 -0.4627
  569SOL    HW1 1706   1.880   1.511   3.074  1.1650 -0.6950 -1.8856
  569SOL    HW2 1707   2.036   1.466   3.051  2.2127  1.0284 -0.2220
  570SOL     OW 1708   0.466   2.330   1.658 -0.1429 -0.2950  0.2188
  570SOL    HW1 1709   0.486   2.413   1.601  3.0031  1.1326 -0.3442
  570SOL    HW2 1710   0.551   2.282   1.685 -0.3305 -1.1199 -0.8089
  571SOL     OW 1711   0.281   1.119   1.858  0.2926 -0.2615 -0.6114
  571SOL    HW1 1712   0.297   1.052   1.788  0.6558  2.9232  0.3247
  571SOL    HW2 1713   0.212   1.081   1.925 -1.6115 -0.8495  1.1779
  572SOL     OW 1714   1.137   1.585   0.373 -0.6158  0.1574  0.4552
  572SOL    HW1 1715   1.218   1.544   0.421  0.5827 -0.8897  1.4101
  572SOL    HW2 1716   1.144   1.592   0.275  0.9522 -0.3850  2.9585
  573SOL     OW 1717   1.971   2.090   0.467 -0.3835 -0.0779  0.6066
  573SOL    HW1 1718   1.896   2.056   0.399 -0.4132  0.0750 -1.3082
  573SOL    HW2 1719   1.923   2.145   0.538  0.8256 -0.7350 -0.5645
  574SOL     OW 1720   0.808   0.034   1.200  0.2296  0.0484  0.1261
  574SOL    HW1 1721   0.749   3.054   1.182  1.2342  0.5964  0.9939
  574SOL    HW2 1722   0.827   0.090   1.117  0.2141 -1.7262  0.0152
  575SOL     OW 1723   0.520   1.206   1.465 -0.2456  0.7187 -0.9215
  575SOL    HW1 1724   0.527   1.219   1.566 -2.5322  2.6399  0.5780
  575SOL    HW2 1725   0.582   1.272   1.420 -0.8283  1.4954  0.1227
  576SOL     OW 1726   2.641   2.956   0.980  0.5223 -0.0493  0.3295
  576SOL    HW1 1727   2.693   2.949   0.892 -1.4441 -0.0338 -0.8001
  576SOL    HW2 1728   2.541   2.941   0.961 -2.3824 -0.4048  1.4817
  577SOL     OW 1729   0.919   1.234   2.186 -0.1631  0.1567 -0.2486
  577SOL    HW1 1730   0.905   1.319   2.136 -0.2675  0.1419 -3.2323
  577SOL    HW2 1731   0.837   1.206   2.241  0.5877  0.4451 -3.1948
  578SOL     OW 1732   1.767   1.094   2.660 -0.1503  0.4614 -0.3351
  578SOL    HW1 1733   1.813   1.068   2.574  0.4270  1.1683  0.5827
  578SOL    HW2 1734   1.799   1.184   2.698 -0.9590  0.0220 -0.8800
  579SOL     OW 1735   1.518   2.260   1.766 -0.6186  0.0545  0.2315
  579SOL    HW1 1736   1.583   2.335   1.796 -1.5508 -1.8017 -1.6434
  579SOL    HW2 1737   1.517   2.190   1.844 -1.0166 -1.0663  2.0915
  580SOL     OW 1738   1.551   1.474   2.594 -0.4933 -0.1427 -0.2914
  580SOL    HW1 1739   1.542   1.412   2.676  1.2880 -2.1241  0.5336
  580SOL    HW2 1740   1.461   1.518   2.569 -0.7053 -1.0514  2.0251
  581SOL     OW 1741   1.261   1.095   2.379 -0.6402 -0.4741  0.3431
  581SOL    HW1 1742   1.249   1.033   2.462  1.0334 -1.6549 -1.1202
  581SOL    HW2 1743   1.192   1.173   2.374  1.4951 -0.1963 -1.8174
  582SOL     OW 1744   0.904   1.277   1.467  0.0006 -0.3724  0.1905
  582SOL    HW1 1745   0.810   1.315   1.462  0.4714  0.2115 -1.7307
  582SOL    HW2 1746   0.921   1.207   1.401  0.8763  2.1755 -0.1901
  583SOL     OW 1747   1.039   1.186   1.958 -0.6160 -0.2827 -0.1837
  583SOL    HW1 1748   1.007   1.232   1.878  1.7146 -0.5099  1.3994
  583SOL    HW2 1749   0.960   1.177   2.024 -1.1286 -0.6219  0.2240
  584SOL     OW 1750   2.532   2.740   0.407  0.0196  0.1287 -0.0761
  584SOL    HW1 1751   2.603   2.748   0.478 -1.0298  0.1108 -2.5457
  584SOL    HW2 1752   2.560   2.701   0.311 -0.9052 -2.3093 -1.8388
  585SOL     OW 1753   2.069   0.185   3.032 -0.3352  0.3107  0.7188
  585SOL    HW1 1754   2.011   0.170   0.021 -0.7581 -0.2807 -0.0268
  585SOL    HW2 1755   2.124   0.100   3.002  3.3101  1.3947 -1.0232
  586SOL     OW 1756   3.050   2.221   1.174 -0.4088 -0.1501  0.0041
  586SOL    HW1 1757   3.016   2.313   1.192  0.9245 -1.5238 -0.9495
  586SOL    HW2 1758   3.088   2.178   1.260 -0.1668  1.3734  1.3769
  587SOL     OW 1759   1.484   1.646   2.993  0.2608  0.4536 -0.1628
  587SOL    HW1 1760   1.446   1.704   3.069  2.4103 -2.2507 -3.3887
  587SOL    HW2 1761   1.407   1.593   2.955 -1.3756  2.9484 -0.3203
  588SOL     OW 1762   0.415   0.511   1.069 -0.4928  1.2563  0.0745
  588SOL    HW1 1763   0.512   0.481   1.052 -0.7123  1.7932  1.1665
  588SOL    HW2 1764   0.395   0.602   1.030 -0.7433 -2.3385 -0.2397
  589SOL     OW 1765   1.196   0.090   0.687  0.0208  0.2781  0.6337
  589SOL    HW1 1766   1.103   0.134   0.686  3.0137 -2.2607 -1.0053
  589SOL    HW2 1767   1.271   0.158   0.702 -0.6070 -0.7074  2.8799
  590SOL     OW 1768   1.176   0.996   2.607 -0.2749 -0.3973  0.2553
  590SOL    HW1 1769   1.234   0.916   2.623 -0.1556 -2.8027 -0.2375
  590SOL    HW2 1770   1.188   1.070   2.677 -1.4909  1.1052  1.5240
  591SOL     OW 1771   2.698   2.341   2.282 -0.1840 -0.4524 -0.3766
  591SOL    HW1 1772   2.597   2.351   2.295  0.6310 -1.2196 -0.1354
  591SOL    HW2 1773   2.746   2.433   2.285 -0.1020  1.8469 -0.2579
  592SOL     OW 1774   2.366   1.439   1.645 -0.1090 -0.0297 -0.2236
  592SOL    HW1 1775   2.339   1.537   1.657 -1.0657  2.3091 -0.2094
  592SOL    HW2 1776   2.400   1.435   1.549 -1.0853  0.2777  0.4749
  593SOL     OW 1777   1.155   0.785   1.577  0.0393  0.3074  0.3143
  593SOL    HW1 1778   1.139   0.848   1.500  1.7468 -1.5666  1.1340
  593SOL    HW2 1779   1.192   0.695   1.548  1.4338 -0.8772  1.0824
  594SOL     OW 1780   2.775   1.291   2.271  0.2733 -0.1107 -0.4786
  594SOL    HW1 1781   2.759   1.383   2.229  0.6613  0.9028  0.2092
  594SOL    HW2 1782   2.863   1.287   2.317 -1.8792  1.7876 -2.7735
  595SOL     OW 1783   3.093   0.096   0.459 -0.1880  0.4747  0.6270
  595SOL    HW1 1784   3.057   0.124   0.548 -0.8289 -2.6486  0.7448
  595SOL    HW2 1785   0.050   0.011   0.468 -1.1178  2.5374 -1.3103
  596SOL     OW 1786   0.009   1.449   1.085 -0.1849 -0.4641  0.8458
  596SOL    HW1 1787   3.092   1.367   1.151  1.3637 -0.3950  2.3380
  596SOL    HW2 1788   3.034   1.518   1.079  2.9381 -0.6099 -0.1195
  597SOL     OW 1789   1.626   1.673   0.637 -0.0305 -0.3783 -0.0924
  597SOL    HW1 1790   1.666   1.736   0.706  0.1308 -3.5773 -0.8496
  597SOL    HW2 1791   1.572   1.724   0.570  0.5969  1.9729 -1.8460
  598SOL     OW 1792   0.286   2.730   1.643 -0.3226  0.0512 -0.0392
  598SOL    HW1 1793   0.304   2.736   1.542  0.9561  0.5341 -0.0760
  598SOL    HW2 1794   0.188   2.702   1.661 -1.9569  0.6499  0.6886
  599SOL     OW 1795   3.032   1.578   2.629 -0.0991 -0.4269  0.1231
  599SOL    HW1 1796   2.946   1.538   2.669 -1.6041 -2.2484 -0.3985
  599SOL    HW2 1797   3.050   1.672   2.659  2.3071 -1.2785 -1.6560
  600SOL     OW 1798   0.675   1.035   0.077 -0.7351 -0.4506  0.0539
  600SOL    HW1 1799   0.761   1.096   0.090  2.8077 -0.0021  1.9672
  600SOL    HW2 1800   0.703   0.939   0.074  0.3382  1.7093  0.2455
  601SOL     OW 1801   0.723   0.924   0.941 -0.0968  0.3275  0.1863
  601SOL    HW1 1802   0.629   0.913   0.973  0.5548  1.2619 -2.6068
  601SOL    HW2 1803   0.722   0.992   0.862  1.8422 -1.6556 -0.5060
  602SOL     OW 1804   1.206   2.423   0.284 -0.1679 -0.0486  0.1786
  602SOL    HW1 1805   1.267   2.452   0.358  1.5992 -1.4143 -0.3227
  602SOL    HW2 1806   1.131   2.365   0.326 -1.5278 -1.0529 -0.9306
  603SOL     OW 1807   1.140   2.457   1.871  0.0719 -0.4112 -0.1513
  603SOL    HW1 1808   1.205   2.533   1.904  0.4712 -0.8895  0.5783
  603SOL    HW2 1809   1.046   2.474   1.912 -1.5260  1.4122  2.5629
  604SOL     OW 1810   0.285   0.430   2.637  0.3608  0.2969  0.7132
  604SOL    HW1 1811   0.209   0.363   2.633 -1.6733 -1.9391 -0.6251
  604SOL    HW2 1812   0.288   0.493   2.554  0.1889  0.2901 -0.0349
  605SOL     OW 1813   2.587   1.068   1.404 -0.1951 -0.1741  0.2983
  605SOL    HW1 1814   2.491   1.078   1.385  0.9804  0.4899 -0.8778
  605SOL    HW2 1815   2.617   1.037   1.495 -0.6297  1.9376 -1.6804
  606SOL     OW 1816   0.807   1.701   2.773 -0.2967 -0.1961  0.5852
  606SOL    HW1 1817   0.789   1.764   2.693  0.3634  1.5952 -0.5027
  606SOL    HW2 1818   0.798   1.605   2.747 -0.8187  5.5532 -1.3954
  607SOL     OW 1819   0.578   3.053   0.156 -0.3711  0.6065  0.4067
  607SOL    HW1 1820   0.575   2.964   0.102  0.5830 -2.7261 -0.6692
  607SOL    HW2 1821   0.549   3.031   0.253 -0.3331 -1.9698  1.7854
  608SOL     OW 1822   2.389   1.762   2.085 -0.1762  0.0520  0.1157
  608SOL    HW1 1823   2.459   1.778   2.012 -0.0439  2.0684  0.4068
  608SOL    HW2 1824   2.292   1.756   2.055  0.8532  1.9644  3.4176
  609SOL     OW 1825   2.814   0.256   0.824 -0.4879 -0.0834  0.1011
  609SOL    HW1 1826   2.865   0.168   0.848 -0.4246 -2.9106 -1.4040
  609SOL    HW2 1827   2.713   0.250   0.853 -1.5698  0.0034 -1.5158
  610SOL     OW 1828   0.360   2.590   0.531  0.3552 -0.3681  0.0536
  610SOL    HW1 1829   0.425   2.520   0.558 -1.4919  2.5369  1.6234
  610SOL    HW2 1830   0.412   2.671   0.504 -0.0201 -1.7943  2.4702
  611SOL     OW 1831   1.612   1.486   0.287  0.0777  0.8548 -0.6423
  611SOL    HW1 1832   1.697   1.459   0.336  0.5654 -1.2777 -1.0386
  611SOL    HW2 1833   1.538   1.508   0.356 -0.5490  2.7796  0.6757
  612SOL     OW 1834   0.452   2.802   1.831  0.4442 -0.2698 -0.0900
  612SOL    HW1 1835   0.456   2.737   1.910  0.1180  1.0578 -0.5572
  612SOL    HW2 1836   0.395   2.767   1.759  2.3370 -0.6189  1.7083
  613SOL     OW 1837   0.568   2.760   0.627  0.1138  0.2191  0.3604
  613SOL    HW1 1838   0.495   2.779   0.698 -1.1176 -1.4929  0.7635
  613SOL    HW2 1839   0.651   2.714   0.668  0.3706 -0.3178  0.1339
  614SOL     OW 1840   2.229   0.100   1.850  0.0614 -0.1327 -0.5270
  614SOL    HW1 1841   2.137   0.070   1.831  3.2266  0.0259  0.6430
  614SOL    HW2 1842   2.250   0.172   1.783 -1.7620  3.2226 -1.3355
  615SOL     OW 1843   1.784   1.326   0.438  0.6472  0.2302 -0.7142
  615SOL    HW1 1844   1.746   1.230   0.460  0.1388 -2.1618 -0.2395
  615SOL    HW2 1845   1.885   1.320   0.413  0.0589 -1.8382 -0.9169
  616SOL     OW 1846   2.059   1.335   0.390 -0.0277 -0.1396  0.5123
  616SOL    HW1 1847   2.125   1.400   0.344  3.9864  0.8384 -1.9286
  616SOL    HW2 1848   2.089   1.308   0.483 -0.2974  0.4132  1.3330
  617SOL     OW 1849   1.102   0.744   2.813  0.2292  0.3346  0.5204
  617SOL    HW1 1850   1.113   0.667   2.747  2.2772  0.4039 -0.2976
  617SOL    HW2 1851   1.024   0.806   2.781 -3.3303  0.0319 -0.7359
  618SOL     OW 1852   0.656   2.954   1.936  0.2495 -0.2712 -0.2916
  618SOL    HW1 1853   0.571   2.922   1.891  0.0465 -0.2425  0.9736
  618SOL    HW2 1854   0.622   3.021   2.005  1.8474 -1.5755 -2.5444
  619SOL     OW 1855   2.915   1.625   1.392  0.0063 -0.2826 -0.1161
  619SOL    HW1 1856   2.980   1.692   1.353 -1.1027  0.4034  0.7749
  619SOL    HW2 1857   2.819   1.651   1.374  1.9924 -1.6914  1.0641
  620SOL     OW 1858   2.865   0.596   2.794 -0.5562 -0.0234 -0.0785
  620SOL    HW1 1859   2.898   0.678   2.846 -0.9627 -0.2383 -1.6369
  620SOL    HW2 1860   2.945   0.546   2.770 -2.5193  3.1151 -2.5908
  621SOL     OW 1861   2.302   1.917   2.288 -0.2169  0.0159  0.3444
  621SOL    HW1 1862   2.339   1.859   2.207  1.6479 -0.7598 -0.7004
  621SOL    HW2 1863   2.256   1.862   2.361  2.4898 -0.9223 -2.1709
  622SOL     OW 1864   0.968   0.619   2.113 -0.2606 -0.2858 -0.4267
  622SOL    HW1 1865   0.908   0.569   2.179  0.4465  0.5057 -0.1077
  622SOL    HW2 1866   0.989   0.570   2.025 -0.4507  0.6998 -1.2422
  623SOL     OW 1867   0.707   1.120   2.333  0.0795 -0.2711  0.2008
  623SOL    HW1 1868   0.629   1.057   2.304  1.2452 -0.4209  1.1452
  623SOL    HW2 1869   0.778   1.062   2.374 -0.7860  0.4215  0.6325
  624SOL     OW 1870   2.824   0.741   0.358  0.2327  0.9228  0.3454
  624SOL    HW1 1871   2.772   0.824   0.344  0.4338 -0.9421  2.2777
  624SOL    HW2 1872   2.880   0.713   0.277 -1.0769  0.1719  2.1705
  625SOL     OW 1873   0.860   2.073   0.883  0.0013  0.3706  0.2897
  625SOL    HW1 1874   0.827   2.132   0.809 -2.1615  0.8823 -0.3516
  625SOL    HW2 1875   0.786   2.040   0.945  0.6665 -0.1457  1.6409
  626SOL     OW 1876   1.874   0.662   2.668  0.9497  0.0206  0.0434
  626SOL    HW1 1877   1.919   0.673   2.758 -0.2032  3.2183 -1.1940
  626SOL    HW2 1878   1.780   0.703   2.675  0.6926  0.6092 -2.7598
  627SOL     OW 1879   1.454   2.824   2.684  0.0392  0.4101 -0.2097
  627SOL    HW1 1880   1.541   2.874   2.691 -0.7256  0.5171  1.3954
  627SOL    HW2 1881   1.452   2.764   2.599 -2.1553 -1.3359  0.0439
  628SOL     OW 1882   2.261   2.818   2.330  0.1354 -0.1347 -0.1406
  628SOL    HW1 1883   2.309   2.895   2.374 -1.0436  0.0067  1.9238
  628SOL    HW2 1884   2.278   2.821   2.232 -0.5506 -1.0745  3.2557
  629SOL     OW 1885   0.894   0.056   2.687 -0.4810 -0.8171  0.1125
  629SOL    HW1 1886   0.908   0.059   2.585  0.5683 -2.3209  3.3354
  629SOL    HW2 1887   0.978   0.079   2.741 -3.0641 -0.9931 -1.7766
  630SOL     OW 1888   1.047   0.339   2.665  0.4880  0.7508  0.2575
  630SOL    HW1 1889   1.108   0.304   2.592 -2.5300  3.3424 -1.2096
  630SOL    HW2 1890   1.061   0.286   2.755  0.2832  0.8262  3.3796
  631SOL     OW 1891   2.059   1.212   0.697 -0.8003  0.0358 -0.0593
  631SOL    HW1 1892   2.020   1.292   0.749  0.3531 -2.1836 -1.9472
  631SOL    HW2 1893   2.155   1.229   0.669  0.8585 -0.5663 -0.7459
  632SOL     OW 1894   1.974   0.990   1.721  0.1017  0.6133  0.6292
  632SOL    HW1 1895   2.027   0.915   1.675  1.2446 -0.4369  1.3317
  632SOL    HW2 1896   1.882   0.998   1.681 -0.4895  1.8033 -1.1524
  633SOL     OW 1897   1.236   1.636   0.082 -0.2276  0.1710  0.4377
  633SOL    HW1 1898   1.183   1.642   3.091 -1.6788  0.3723  0.3007
  633SOL    HW2 1899   1.281   1.727   0.109  0.9681  0.0459  0.3471
  634SOL     OW 1900   2.437   3.052   1.770 -0.0238  0.4026 -0.7215
  634SOL    HW1 1901   2.347   3.092   1.799 -0.2979 -0.3269  0.2013
  634SOL    HW2 1902   2.502   0.017   1.725  0.0093  0.5266  0.4877
  635SOL     OW 1903   1.691   0.498   0.850  0.1892  0.5067  0.1657
  635SOL    HW1 1904   1.700   0.524   0.944 -2.6701 -0.7575 -0.2456
  635SOL    HW2 1905   1.680   0.399   0.846  0.4408  3.0109  1.9361
  636SOL     OW 1906   0.888   1.181   0.088 -0.0597  0.4955  0.1168
  636SOL    HW1 1907   0.942   1.218   0.162  1.3141 -1.6681 -2.3836
  636SOL    HW2 1908   0.922   1.085   0.074  0.4371 -1.3318  2.1232
  637SOL     OW 1909   2.781   2.106   2.970  0.0317 -0.1453  0.5681
  637SOL    HW1 1910   2.787   2.042   3.048  1.3889  2.0056  0.5171
  637SOL    HW2 1911   2.877   2.126   2.935  3.0113  1.3596  1.3584
  638SOL     OW 1912   1.701   2.648   2.809 -0.2833 -0.0999 -0.4940
  638SOL    HW1 1913   1.661   2.733   2.773  0.8133  0.6431 -0.7050
  638SOL    HW2 1914   1.747   2.590   2.738  0.5430 -1.1895  0.5484
  639SOL     OW 1915   1.393   1.495   1.133  0.2109 -0.3974 -0.0249
  639SOL    HW1 1916   1.303   1.462   1.106  0.7133 -0.5494  0.9070
  639SOL    HW2 1917   1.393   1.596   1.142 -2.5974 -1.8493 -0.5472
  640SOL     OW 1918   2.144   2.598   0.646  0.0858 -0.2877 -0.1010
  640SOL    HW1 1919   2.215   2.655   0.605 -1.4646  1.9831 -0.3725
  640SOL    HW2 1920   2.107   2.532   0.577 -0.3460 -0.9022 -1.1332
  641SOL     OW 1921   3.071   0.141   2.880  0.3042  0.3608  0.1942
  641SOL    HW1 1922   2.976   0.158   2.846  0.5142  1.6949 -0.3015
  641SOL    HW2 1923   3.062   0.103   2.974  0.2351  0.0404 -0.0946
  642SOL     OW 1924   2.924   0.826   1.298 -0.1789  0.4680 -0.0473
  642SOL    HW1 1925   2.891   0.915   1.269  3.8309 -0.8120  0.5617
  642SOL    HW2 1926   3.003   0.835   1.361  1.7592  1.9757  0.5562
  643SOL     OW 1927   0.650   1.608   2.126 -0.6741  0.0015  0.1668
  643SOL    HW1 1928   0.569   1.658   2.152 -1.2684 -3.6675  0.1094
  643SOL    HW2 1929   0.738   1.664   2.126 -2.0489 -0.6474  0.4732
  644SOL     OW 1930   1.942   2.290   0.721 -0.6929 -0.1198  0.3130
  644SOL    HW1 1931   2.039   2.256   0.722 -1.0732 -1.0795 -0.8278
  644SOL    HW2 1932   1.937   2.392   0.728 -3.5813 -0.7882 -2.0167
  645SOL     OW 1933   1.960   2.212   1.009 -0.5076  0.3151 -0.5056
  645SOL    HW1 1934   2.055   2.238   1.015 -0.4945  0.7973  1.6495
  645SOL    HW2 1935   1.923   2.220   0.913 -2.9459  0.9394 -2.7233
  646SOL     OW 1936   1.144   2.366   2.760 -0.9098  0.3594 -0.0727
  646SOL    HW1 1937   1.242   2.339   2.777 -0.7875 -3.0856 -0.0106
  646SOL    HW2 1938   1.087   2.313   2.822  3.3780 -0.1585 -1.3761
  647SOL     OW 1939   0.703   2.853   1.621 -0.0461 -0.2403  0.1597
  647SOL    HW1 1940   0.783   2.794   1.651  0.2220  0.8115  1.4400
  647SOL    HW2 1941   0.692   2.924   1.690 -1.0128  0.8236 -2.2966
  648SOL     OW 1942   1.698   0.585   1.825  0.5677 -0.3749  0.2172
  648SOL    HW1 1943   1.669   0.498   1.784 -1.4868  2.6590  0.0441
  648SOL    HW2 1944   1.638   0.613   1.906  1.0512  1.1087 -0.2332
  649SOL     OW 1945   1.745   2.136   0.285  0.3618 -0.0550 -0.8399
  649SOL    HW1 1946   1.733   2.158   0.189 -0.3385  0.3382  4.7152
  649SOL    HW2 1947   1.660   2.145   0.346 -4.9151  2.4202  1.0845
  650SOL     OW 1948   2.275   1.699   1.690  0.2087 -0.2371 -0.2624
  650SOL    HW1 1949   2.176   1.690   1.672  1.5053  1.8131  3.3868
  650SOL    HW2 1950   2.303   1.792   1.707  1.0791  0.7824 -1.0150
  651SOL     OW 1951   1.759   2.656   0.287  0.4756 -0.4423 -0.3829
  651SOL    HW1 1952   1.763   2.714   0.370  0.5883 -1.4652  2.5440
  651SOL    HW2 1953   1.807   2.695   0.206  1.5142 -0.7934  0.3109
  652SOL     OW 1954   0.552   1.968   0.198 -0.3907  0.2337  0.0695
  652SOL    HW1 1955   0.500   1.946   0.279  2.8289  2.1670  0.3560
  652SOL    HW2 1956   0.573   1.880   0.155 -0.3795  0.7032  1.5443
  653SOL     OW 1957   2.541   2.639   1.301  0.0677 -0.1753  0.1341
  653SOL    HW1 1958   2.455   2.644   1.353 -1.7938 -0.1997  0.2833
  653SOL    HW2 1959   2.522   2.621   1.204  0.7755  0.9852  0.2066
  654SOL     OW 1960   2.816   2.883   1.543  0.1353  0.2704 -0.3434
  654SOL    HW1 1961   2.853   2.972   1.511  2.7033 -1.1395 -0.5267
  654SOL    HW2 1962   2.711   2.890   1.541 -1.5071 -0.4023 -1.1942
  655SOL     OW 1963   2.953   2.108   0.952  0.2804 -0.0296 -0.5412
  655SOL    HW1 1964   3.028   2.040   0.933  1.4418 -0.0274  0.6103
  655SOL    HW2 1965   2.972   2.156   1.038 -1.3600 -1.4682 -0.3713
  656SOL     OW 1966   0.108   2.927   2.461 -0.2908 -0.1849  0.1655
  656SOL    HW1 1967   0.017   2.960   2.434 -0.1698  0.4074 -0.2950
  656SOL    HW2 1968   0.173   2.916   2.379  1.2052 -0.6403  0.8479
  657SOL     OW 1969   2.716   1.414   2.990  0.1977 -0.4098 -0.5025
  657SOL    HW1 1970   2.730   1.319   3.031 -0.1243 -0.0172  2.8816
  657SOL    HW2 1971   2.643   1.459   3.045  1.5233 -0.2766  0.1129
  658SOL     OW 1972   2.025   1.707   0.856  0.1494  0.8504  0.9947
  658SOL    HW1 1973   2.027   1.792   0.800  0.8360 -1.8525  0.1001
  658SOL    HW2 1974   1.969   1.717   0.943 -1.2565  1.0912  1.6730
  659SOL     OW 1975   1.516   0.535   1.255  0.0430 -0.5496 -0.4141
  659SOL    HW1 1976   1.498   0.634   1.234  1.9609  2.1931 -1.1914
  659SOL    HW2 1977   1.592   0.502   1.192  2.6096 -0.0223  1.6710
  660SOL     OW 1978   1.557   1.242   0.119  0.0331 -0.4579 -0.4821
  660SOL    HW1 1979   1.593   1.289   0.200 -1.1821 -1.5712  0.9019
  660SOL    HW2 1980   1.458   1.273   0.101 -1.8953  1.6057  0.6436
  661SOL     OW 1981   0.412   2.243   0.600 -0.2585 -0.8026 -0.0205
  661SOL    HW1 1982   0.334   2.259   0.540 -1.5222 -0.4652  2.4139
  661SOL    HW2 1983   0.492   2.306   0.581  0.0383  0.7547 -1.2162
  662SOL     OW 1984   0.147   0.749   2.366  0.1512 -0.3777 -0.6536
  662SOL    HW1 1985   0.070   0.794   2.422  0.5055 -0.0836 -1.7980
  662SOL    HW2 1986   0.120   0.666   2.319 -0.3222  2.1378  1.7113
  663SOL     OW 1987   1.856   1.252   0.968  0.3077  0.0252  0.0117
  663SOL    HW1 1988   1.823   1.193   0.890 -0.9583 -3.5435  0.9546
  663SOL    HW2 1989   1.921   1.199   1.026 -0.8595 -0.5635  1.3009
  664SOL     OW 1990   0.936   0.939   1.105 -0.3406  0.2104  0.5673
  664SOL    HW1 1991   0.890   0.922   1.194  2.0670 -0.5246  1.1781
  664SOL    HW2 1992   0.863   0.927   1.037 -1.0307  0.4131  0.5078
  665SOL     OW 1993   1.186   2.854   2.696 -0.5724 -0.1052  0.6674
  665SOL    HW1 1994   1.157   2.886   2.785 -0.7661  0.6805 -0.6618
  665SOL    HW2 1995   1.285   2.877   2.689  0.9105  1.1935  1.2855
  666SOL     OW 1996   2.781   3.002   2.583  0.3428  0.1391  0.2877
  666SOL    HW1 1997   2.878   2.982   2.593 -2.8217 -0.8030 -1.4135
  666SOL    HW2 1998   2.757   3.077   2.644 -0.0850 -0.4906 -2.2686
  667SOL     OW 1999   2.399   1.184   1.707 -0.1257  0.0494 -0.2131
  667SOL    HW1 2000   2.398   1.286   1.682 -1.0580 -1.3881  2.0046
  667SOL    HW2 2001   2.350   1.163   1.794 -0.2028 -0.2634 -0.2700
  668SOL     OW 2002   0.295   1.093   2.606 -0.2104  0.3088 -0.0011
  668SOL    HW1 2003   0.347   1.162   2.658  0.4188  3.8672  1.8002
  668SOL    HW2 2004   0.221   1.145   2.552  1.4207 -0.2010 -1.3382
  669SOL     OW 2005   2.061   2.337   2.671  0.3319 -0.1263 -0.1048
  669SOL    HW1 2006   2.017   2.244   2.681  1.2632 -0.2296 -1.0363
  669SOL    HW2 2007   2.081   2.362   2.571  1.4924  0.8341 -0.7803
  670SOL     OW 2008   2.188   1.144   2.166  0.1047 -0.4624 -0.2002
  670SOL    HW1 2009   2.231   1.127   2.075 -1.1202  3.6323 -4.1774
  670SOL    HW2 2010   2.090   1.157   2.151  3.9424 -1.0241  0.0431
  671SOL     OW 2011   2.505   1.536   0.026  0.5276 -0.1976  0.7684
  671SOL    HW1 2012   2.557   1.515   0.112 -0.5868  1.4570  0.8622
  671SOL    HW2 2013   2.478   1.636   0.020 -1.9892 -0.2919 -1.8734
  672SOL     OW 2014   2.497   0.863   2.014  0.3368 -0.4293  0.6691
  672SOL    HW1 2015   2.481   0.863   1.912  0.4457 -0.5564 -1.8660
  672SOL    HW2 2016   2.546   0.949   2.042 -1.9644 -2.7836  2.6002
  673SOL     OW 2017   2.749   0.982   1.624 -0.4631  0.2281  0.3450
  673SOL    HW1 2018   2.847   1.011   1.627 -0.6237 -1.2501  3.4994
  673SOL    HW2 2019   2.748   0.880   1.611 -2.0563  0.3021  0.5321
  674SOL     OW 2020   1.971   1.883   1.912 -0.9185  0.2485 -0.0932
  674SOL    HW1 2021   1.994   1.912   1.817 -0.7113  1.4115 -1.8985
  674SOL    HW2 2022   1.876   1.854   1.919 -0.2313  1.6894  0.4908
  675SOL     OW 2023   0.347   0.728   0.951 -0.5017 -0.1919 -0.0416
  675SOL    HW1 2024   0.406   0.788   1.005 -1.0100  0.9879 -0.2514
  675SOL    HW2 2025   0.269   0.781   0.914  3.3239 -0.3956  4.1276
  676SOL     OW 2026   1.705   1.129   1.283 -0.1096  0.5199  0.5467
  676SOL    HW1 2027   1.659   1.217   1.287  1.2808 -2.3054  1.0511
  676SOL    HW2 2028   1.798   1.132   1.331  1.6478 -0.8895  0.8144
  677SOL     OW 2029   2.453   1.323   2.002 -0.4783 -0.0404  0.3541
  677SOL    HW1 2030   2.398   1.347   1.920 -0.1851  1.2671 -0.6377
  677SOL    HW2 2031   2.399   1.351   2.084 -0.4046  0.3610 -3.1639
  678SOL     OW 2032   0.059   1.437   0.633  0.0389  0.0328  0.9692
  678SOL    HW1 2033   0.035   1.346   0.674  0.7316 -3.0115 -1.4214
  678SOL    HW2 2034   0.005   1.511   0.674  1.6484 -2.1566  0.8868
  679SOL     OW 2035   2.790   2.767   0.524 -0.7019 -0.1034 -0.5615
  679SOL    HW1 2036   2.825   2.807   0.441 -0.0611 -1.1227  0.3497
  679SOL    HW2 2037   2.857   2.699   0.561  1.3641 -0.1204 -1.2226
  680SOL     OW 2038   2.942   2.444   1.267  0.1634 -0.5887 -0.5405
  680SOL    HW1 2039   3.030   2.444   1.317 -1.1527  0.8763  0.6172
  680SOL    HW2 2040   2.873   2.399   1.321  1.2067  0.2815 -0.4661
  681SOL     OW 2041   0.419   1.571   1.178 -0.3555  0.4713 -0.4342
  681SOL    HW1 2042   0.518   1.573   1.183 -1.2904  0.9784 -1.9123
  681SOL    HW2 2043   0.380   1.558   1.275  1.0995 -0.9590 -1.8814
  682SOL     OW 2044   1.552   2.418   0.967 -0.5423 -0.6228 -0.3452
  682SOL    HW1 2045   1.488   2.480   1.016  0.5991  0.1674  2.4218
  682SOL    HW2 2046   1.636   2.422   1.024 -1.9447 -1.3932 -0.5144
  683SOL     OW 2047   2.314   1.651   0.881  0.6111  0.3386  0.0107
  683SOL    HW1 2048   2.219   1.676   0.854 -2.6689  0.5662  0.9309
  683SOL    HW2 2049   2.385   1.681   0.817 -0.0778 -1.7196  0.1549
  684SOL     OW 2050   0.631   1.970   1.887  0.2139  0.4609  0.0403
  684SOL    HW1 2051   0.658   2.065   1.857 -2.6178  2.9443  0.7451
  684SOL    HW2 2052   0.638   1.905   1.808  2.6978  0.2023  0.0744
  685SOL     OW 2053   2.203   1.536   0.259 -0.7491 -0.5038 -0.0546
  685SOL    HW1 2054   2.204   1.524   0.160  1.3005  0.6544  2.0729
  685SOL    HW2 2055   2.138   1.609   0.287  1.0691  0.4068 -0.5460
  686SOL     OW 2056   2.884   0.363   0.581  0.5084  0.3181 -0.3576
  686SOL    HW1 2057   2.859   0.327   0.676  0.7103 -1.5911  3.1632
  686SOL    HW2 2058   2.963   0.427   0.584  1.5750  1.6466 -1.6115
  687SOL     OW 2059   1.159   2.713   0.204 -0.0221 -0.5980  0.6118
  687SOL    HW1 2060   1.078   2.712   0.269  0.8032 -1.9575  1.7158
  687SOL    HW2 2061   1.195   2.620   0.183  0.3508 -0.0590 -1.7927
  688SOL     OW 2062   2.132   1.684   2.005  0.5305 -0.2561 -0.3413
  688SOL    HW1 2063   2.093   1.616   2.075  0.4590 -0.2491  0.1628
  688SOL    HW2 2064   2.072   1.766   1.990 -2.5799  0.6296  1.1793
  689SOL     OW 2065   2.437   0.781   2.253  0.4020  0.7175 -0.6825
  689SOL    HW1 2066   2.463   0.831   2.165  1.9032 -2.0443 -1.2433
  689SOL    HW2 2067   2.502   0.790   2.324 -1.0852  1.4558 -1.5592
  690SOL     OW 2068   1.849   0.586   1.360 -0.7346 -0.6945  0.4179
  690SOL    HW1 2069   1.774   0.619   1.419  1.9389 -2.8880 -2.5494
  690SOL    HW2 2070   1.862   0.489   1.383  0.1741 -0.4196 -2.2581
  691SOL     OW 2071   1.088   1.809   1.570 -0.2510  0.4410  0.0421
  691SOL    HW1 2072   1.078   1.748   1.494  3.1528 -1.7471  2.1659
  691SOL    HW2 2073   1.185   1.843   1.578 -3.1969  0.0569 -0.2560
  692SOL     OW 2074   1.608   0.280   2.056  0.2895  0.4119  0.1539
  692SOL    HW1 2075   1.590   0.375   2.084  3.6951  0.4452  0.4992
  692SOL    HW2 2076   1.550   0.255   1.976 -1.1603 -2.8908  1.6178
  693SOL     OW 2077   0.533   1.059   2.929  0.1955 -0.6888  0.7590
  693SOL    HW1 2078   0.585   1.028   3.013  1.8059  2.3433 -0.7792
  693SOL    HW2 2079   0.481   0.982   2.885 -1.3518  0.8418  1.0721
  694SOL     OW 2080   2.113   2.809   1.062  0.1644  0.5676  0.6248
  694SOL    HW1 2081   2.047   2.732   1.035  0.8598  1.2628  0.7454
  694SOL    HW2 2082   2.061   2.896   1.056  0.2453 -0.2732  2.1991
  695SOL     OW 2083   1.659   1.425   2.344 -0.1293  0.6648  0.2566
  695SOL    HW1 2084   1.642   1.501   2.275  1.4009  0.3089  0.8742
  695SOL    HW2 2085   1.617   1.447   2.436  1.3903  1.6616  0.4389
  696SOL     OW 2086   1.588   0.286   1.396 -0.5103 -0.4755  0.4393
  696SOL    HW1 2087   1.491   0.267   1.413 -1.1842  0.7701 -1.0561
  696SOL    HW2 2088   1.604   0.386   1.382  1.3329 -0.9909  1.4414
  697SOL     OW 2089   1.311   0.203   1.892 -0.0040  0.3770 -0.0515
  697SOL    HW1 2090   1.336   0.126   1.833  1.2935  0.9883 -0.3020
  697SOL    HW2 2091   1.229   0.189   1.947  1.0417 -1.6135  0.1515
  698SOL     OW 2092   1.916   1.336   2.317  0.1810  0.1782  0.3505
  698SOL    HW1 2093   1.900   1.301   2.223 -1.4699 -0.2171  0.8925
  698SOL    HW2 2094   1.825   1.370   2.348 -2.3797 -2.4514  0.8931
  699SOL     OW 2095   1.447   1.002   1.332 -0.3984  0.0711  0.1644
  699SOL    HW1 2096   1.542   1.037   1.316  3.4577  1.4039  0.5810
  699SOL    HW2 2097   1.380   1.080   1.321  0.9890  1.5364  0.9103
  700SOL     OW 2098   1.589   0.044   0.350 -0.1560 -0.3925 -0.0183
  700SOL    HW1 2099   1.593   0.133   0.298  1.7279  2.4979  2.8694
  700SOL    HW2 2100   1.488   0.023   0.372 -0.7434 -2.4273 -0.4230
  701SOL     OW 2101   0.267   0.110   1.606  0.1644 -0.3133 -0.0925
  701SOL    HW1 2102   0.272   0.054   1.691  2.9684 -0.1917 -0.9996
  701SOL    HW2 2103   0.197   0.073   1.548  3.0378 -0.3388  2.6420
  702SOL     OW 2104   1.262   2.855   0.520  0.0996 -0.4559 -0.2647
  702SOL    HW1 2105   1.284   2.951   0.543  0.8449  1.0557  0.2168
  702SOL    HW2 2106   1.332   2.814   0.457  2.1909 -0.6332 -1.9249
  703SOL     OW 2107   2.289   2.888   2.068  0.1398  0.1364 -0.1360
  703SOL    HW1 2108   2.228   2.960   2.101  0.7827 -1.0184  1.6168
  703SOL    HW2 2109   2.384   2.918   2.088  2.4884 -1.1632  1.9218
  704SOL     OW 2110   1.223   2.154   0.793 -0.4522  0.2456  0.6562
  704SOL    HW1 2111   1.177   2.128   0.880 -0.8935  1.9716 -1.6666
  704SOL    HW2 2112   1.327   2.151   0.794  3.1654  0.4910 -0.0530
  705SOL     OW 2113   2.926   1.369   1.933  0.0197 -0.1363 -0.1210
  705SOL    HW1 2114   2.834   1.413   1.924  1.5840  4.6075  0.2787
  705SOL    HW2 2115   2.953   1.320   1.849 -0.5404 -0.1446 -1.2572
  706SOL     OW 2116   1.324   0.027   0.451 -0.2613 -0.0752 -0.0328
  706SOL    HW1 2117   1.261   0.013   0.372  0.8112 -0.7443  0.2449
  706SOL    HW2 2118   1.265   0.045   0.536 -0.0845  1.2078  2.7314
  707SOL     OW 2119   0.991   2.303   2.283 -0.0532 -0.6305 -0.0339
  707SOL    HW1 2120   0.887   2.297   2.276 -1.6308  3.4087 -0.9291
  707SOL    HW2 2121   1.027   2.269   2.372 -0.0838  1.3210 -4.0682
  708SOL     OW 2122   0.063   2.433   1.408  0.1726 -0.4773  0.3146
  708SOL    HW1 2123   0.077   2.333   1.426 -0.4608  2.6480 -2.8017
  708SOL    HW2 2124   0.149   2.470   1.366  0.4496 -1.2007 -1.5006
  709SOL     OW 2125   1.948   0.497   2.008  0.2337 -0.0959 -0.0396
  709SOL    HW1 2126   1.883   0.536   2.077  2.9040  0.5083 -1.0757
  709SOL    HW2 2127   1.947   0.547   1.922  2.3099  0.2073  0.4795
  710SOL     OW 2128   2.695   0.458   1.488  0.0701  0.1400 -0.0307
  710SOL    HW1 2129   2.603   0.436   1.516  1.5177 -0.3691 -1.9430
  710SOL    HW2 2130   2.690   0.513   1.398 -1.8293  2.0202 -0.9370
  711SOL     OW 2131   0.141   2.731   0.600 -0.9654 -0.2731  0.0698
  711SOL    HW1 2132   0.221   2.666   0.575  1.0444 -0.8687 -0.5289
  711SOL    HW2 2133   0.056   2.680   0.613 -2.9153 -0.1460 -1.2338
  712SOL     OW 2134   0.364   2.463   2.415  0.1583  0.6563 -0.3079
  712SOL    HW1 2135   0.344   2.445   2.318 -0.8767  0.9706 -1.4465
  712SOL    HW2 2136   0.277   2.465   2.476 -2.8330 -1.8467  1.0194
  713SOL     OW 2137   1.500   0.561   0.104  0.3729  0.4206 -0.2031
  713SOL    HW1 2138   1.526   0.628   0.176 -0.4225  0.6832 -3.4231
  713SOL    HW2 2139   1.577   0.550   0.036  0.8560 -1.9640 -0.4109
  714SOL     OW 2140   1.583   1.880   0.451  0.5062 -0.4635 -0.0024
  714SOL    HW1 2141   1.641   1.950   0.492 -1.2380 -2.2407 -1.6063
  714SOL    HW2 2142   1.504   1.917   0.396  0.1038  0.4674  0.4837
  715SOL     OW 2143   2.691   0.198   0.467 -0.4122  0.1113 -0.1205
  715SOL    HW1 2144   2.660   0.137   0.540  4.1173  3.0734 -0.8757
  715SOL    HW2 2145   2.722   0.284   0.505 -3.6204 -3.6319 -3.5578
  716SOL     OW 2146   0.495   0.268   2.451  0.3003  0.7199 -0.4329
  716SOL    HW1 2147   0.496   0.273   2.551  3.8341  1.2330 -1.1041
  716SOL    HW2 2148   0.571   0.208   2.413  0.6199 -3.9542 -2.9372
  717SOL     OW 2149   0.031   0.579   2.867 -0.2602  0.4192 -0.0649
  717SOL    HW1 2150   0.038   0.500   2.928  1.0588  0.9059  0.9657
  717SOL    HW2 2151   0.122   0.620   2.848  3.3217  0.9727 -1.9198
  718SOL     OW 2152   1.096   0.554   0.574  0.4706  0.4049 -0.2987
  718SOL    HW1 2153   1.119   0.520   0.669  2.5724 -1.9408 -0.5304
  718SOL    HW2 2154   1.183   0.560   0.517  1.6880  3.1301 -0.6968
  719SOL     OW 2155   2.702   2.354   2.870 -0.4886  0.3568 -0.2928
  719SOL    HW1 2156   2.623   2.337   2.803 -1.6206  0.4807  1.6672
  719SOL    HW2 2157   2.727   2.263   2.908 -0.4032  0.5419 -0.7635
  720SOL     OW 2158   1.649   0.663   1.516 -0.0954  0.4771  0.2250
  720SOL    HW1 2159   1.625   0.593   1.589  0.7236  1.9253  0.2840
  720SOL    HW2 2160   1.585   0.748   1.521  0.3731  3.3618  0.5395
  721SOL     OW 2161   2.815   0.802   0.771 -0.5104 -0.0683 -0.2352
  721SOL    HW1 2162   2.734   0.741   0.768  0.6473  1.2548 -1.6600
  721SOL    HW2 2163   2.896   0.750   0.801  0.3518  2.2477 -2.4191
  722SOL     OW 2164   1.289   2.071   2.366 -0.1535  0.0607  0.0384
  722SOL    HW1 2165   1.292   2.172   2.352 -3.2692  1.1112 -2.8062
  722SOL    HW2 2166   1.299   2.034   2.461  0.0474 -0.1213  3.4046
  723SOL     OW 2167   0.576   0.478   0.546 -0.0333  0.0804  0.1524
  723SOL    HW1 2168   0.671   0.482   0.520 -0.1062  0.2801 -0.4070
  723SOL    HW2 2169   0.553   0.553   0.603  1.0792  0.0589 -0.9857
  724SOL     OW 2170   1.009   2.067   1.983 -0.2234 -0.4494 -0.3023
  724SOL    HW1 2171   0.989   2.072   1.883  0.8489  0.0053 -1.0770
  724SOL    HW2 2172   0.926   2.057   2.036  1.4704  0.1687  1.3553
  725SOL     OW 2173   0.260   1.028   1.392 -0.2793 -0.3864  0.0574
  725SOL    HW1 2174   0.290   1.103   1.326  1.7038  3.0481 -1.4982
  725SOL    HW2 2175   0.346   0.988   1.438  2.7572  2.8482  0.1197
  726SOL     OW 2176   1.843   0.464   0.597 -0.1696 -0.2923 -0.0106
  726SOL    HW1 2177   1.808   0.469   0.688  1.0398 -1.2472 -1.4637
  726SOL    HW2 2178   1.772   0.461   0.528  3.7324  1.3532  0.6540
  727SOL     OW 2179   1.676   0.928   2.266  0.4912  0.5812  0.3120
  727SOL    HW1 2180   1.695   0.918   2.167 -1.2582 -0.5389 -0.2435
  727SOL    HW2 2181   1.605   0.997   2.284 -1.1946  0.2566 -1.3125
  728SOL     OW 2182   1.591   2.651   1.474  0.0683  0.4899  0.0654
  728SOL    HW1 2183   1.607   2.718   1.551 -2.3232 -2.0889 -0.9113
  728SOL    HW2 2184   1.537   2.570   1.505 -0.1149 -0.5840  1.5518
  729SOL     OW 2185   1.359   0.455   1.825  0.0789  0.1169 -0.1797
  729SOL    HW1 2186   1.334   0.356   1.847  1.2615  0.0779 -1.7349
  729SOL    HW2 2187   1.335   0.513   1.907 -1.0649  0.8060  3.2971
  730SOL     OW 2188   0.938   1.998   1.722 -0.3502 -0.1913  0.1962
  730SOL    HW1 2189   0.907   2.080   1.660 -0.2122  1.1672 -0.6463
  730SOL    HW2 2190   1.008   1.936   1.679 -4.2766 -0.5381  0.8715
  731SOL     OW 2191   0.564   0.227   0.166 -0.4079  0.0385 -0.0167
  731SOL    HW1 2192   0.493   0.285   0.129 -0.7509 -0.5125  0.9124
  731SOL    HW2 2193   0.549   0.126   0.139  4.1249  0.8214  2.1178
  732SOL     OW 2194   0.795   0.778   0.144 -0.1809  0.2584 -0.2755
  732SOL    HW1 2195   0.861   0.712   0.187  1.2870 -1.4316  2.1432
  732SOL    HW2 2196   0.721   0.729   0.097 -0.4629 -1.3006  2.7140
  733SOL     OW 2197   1.347   1.626   1.815  0.5748  0.6137 -0.2021
  733SOL    HW1 2198   1.432   1.640   1.873  0.7188 -0.7264  0.5393
  733SOL    HW2 2199   1.344   1.536   1.772  1.1562  2.2122  2.0024
  734SOL     OW 2200   2.888   2.826   2.141 -0.0257  0.3496  0.5528
  734SOL    HW1 2201   2.884   2.843   2.040  0.0622  1.6584 -0.6525
  734SOL    HW2 2202   2.892   2.909   2.199 -0.2644 -2.7784  0.6736
  735SOL     OW 2203   0.821   2.884   0.943  0.1033 -0.3473 -0.0199
  735SOL    HW1 2204   0.762   2.964   0.916 -1.5216  1.4824  0.8187
  735SOL    HW2 2205   0.916   2.888   0.907 -1.5599  0.0467  0.7037
  736SOL     OW 2206   1.349   0.863   2.771 -0.2450 -0.1897  0.1590
  736SOL    HW1 2207   1.394   0.772   2.772 -0.8257 -2.1616  0.1405
  736SOL    HW2 2208   1.255   0.845   2.803 -0.7972 -1.2004  1.6318
  737SOL     OW 2209   0.138   0.886   0.202 -0.2811  0.2162  0.0181
  737SOL    HW1 2210   0.218   0.944   0.176  0.1560 -1.6098 -1.4721
  737SOL    HW2 2211   0.061   0.905   0.137 -0.2108 -0.0475  1.3458
  738SOL     OW 2212   0.116   2.891   1.283  0.3580 -0.0691 -0.4017
  738SOL    HW1 2213   0.055   2.847   1.353  0.7596 -0.0677  0.1271
  738SOL    HW2 2214   0.084   2.882   1.184 -1.6176 -0.0711 -0.9482
  739SOL     OW 2215   1.554   3.058   0.692  0.2336  0.0571 -0.1524
  739SOL    HW1 2216   1.492   2.980   0.664 -0.9276 -0.7248 -2.6521
  739SOL    HW2 2217   1.527   0.046   0.644 -0.2848  0.9309 -0.4734
  740SOL     OW 2218   1.506   2.785   1.248  0.0610 -0.1842 -0.7079
  740SOL    HW1 2219   1.557   2.722   1.312  1.4836 -0.5407  2.4559
  740SOL    HW2 2220   1.420   2.821   1.295 -1.2267  1.8693  0.4267
  741SOL     OW 2221   2.009   0.674   0.456  0.2282 -0.1587 -0.0219
  741SOL    HW1 2222   1.966   0.593   0.500 -0.7310  2.7962 -1.4058
  741SOL    HW2 2223   2.019   0.651   0.359 -1.4973  2.9898  0.9841
  742SOL     OW 2224   1.123   2.316   1.661  0.5437 -0.3608 -0.1137
  742SOL    HW1 2225   1.126   2.383   1.740 -2.3546 -1.5144  0.1837
  742SOL    HW2 2226   1.208   2.260   1.662  0.4968 -0.3038 -2.9670
  743SOL     OW 2227   2.175   0.732   2.197  0.4771 -0.4673 -0.2887
  743SOL    HW1 2228   2.117   0.700   2.278 -0.2725  0.4548 -1.0090
  743SOL    HW2 2229   2.272   0.750   2.231  0.3349 -0.6810  2.9627
  744SOL     OW 2230   2.063   0.280   0.575 -0.4423  0.3227 -0.4890
  744SOL    HW1 2231   2.105   0.297   0.481 -0.4949  0.1978  0.4996
  744SOL    HW2 2232   1.984   0.345   0.589 -2.1156  0.5188  1.6482
  745SOL     OW 2233   2.198   1.453   1.869 -0.1178  0.3337 -0.3547
  745SOL    HW1 2234   2.190   1.532   1.940 -0.7817  0.9527  2.0866
  745SOL    HW2 2235   2.254   1.484   1.792 -0.0483 -0.7826 -0.4372
  746SOL     OW 2236   1.136   1.651   0.762 -0.1268 -1.0041 -0.0238
  746SOL    HW1 2237   1.073   1.713   0.713 -2.4042  1.4669  1.1863
  746SOL    HW2 2238   1.204   1.712   0.818  1.0637  2.0639  0.2550
  747SOL     OW 2239   2.093   1.089   1.123 -0.5509  0.1479  0.5431
  747SOL    HW1 2240   2.024   1.104   1.201 -2.0783 -2.6093 -2.6583
  747SOL    HW2 2241   2.099   0.991   1.092 -1.7726  0.1333 -1.2395
  748SOL     OW 2242   0.200   2.998   0.041 -0.0522 -0.3160 -0.1207
  748SOL    HW1 2243   0.275   3.061   0.070  1.1118  0.9276 -1.4179
  748SOL    HW2 2244   0.205   2.906   0.086  1.1499  0.6241 -0.8262
  749SOL     OW 2245   0.103   0.550   2.119 -0.1703 -0.3240 -0.0562
  749SOL    HW1 2246   0.155   0.545   2.033 -0.6315 -0.3786  1.2310
  749SOL    HW2 2247   0.013   0.591   2.109  1.6836 -2.2977 -0.7082
  750SOL     OW 2248   1.683   2.790   1.694  0.4942 -0.0845 -0.2756
  750SOL    HW1 2249   1.765   2.732   1.708  2.3368  1.8437 -0.0526
  750SOL    HW2 2250   1.636   2.804   1.786  0.4910  2.1742  2.5150
  751SOL     OW 2251   2.699   0.520   0.446 -0.1084  0.0962 -0.1785
  751SOL    HW1 2252   2.749   0.600   0.405 -0.5020  0.0273 -0.4980
  751SOL    HW2 2253   2.766   0.454   0.488 -0.8949  0.3678  1.2551
  752SOL     OW 2254   0.200   2.886   0.824 -0.0073  0.0970 -0.6557
  752SOL    HW1 2255   0.158   2.852   0.735 -1.2090 -0.1837 -1.2806
  752SOL    HW2 2256   0.233   2.983   0.817  1.7764  2.7164  1.3277
  753SOL     OW 2257   1.038   0.331   1.419  0.6822  0.0128 -0.0278
  753SOL    HW1 2258   0.944   0.319   1.377 -1.2132 -0.9233  1.1842
  753SOL    HW2 2259   1.051   0.280   1.505 -0.1041  1.9037 -2.1416
  754SOL     OW 2260   0.795   2.708   2.293 -0.2781 -0.3426  0.2434
  754SOL    HW1 2261   0.702   2.742   2.299  3.1248 -0.5889 -2.6045
  754SOL    HW2 2262   0.830   2.741   2.204 -1.1449  1.6652 -2.4962
  755SOL     OW 2263   2.443   1.453   0.391 -0.1589  0.0746  0.4772
  755SOL    HW1 2264   2.522   1.463   0.327  1.3966  1.5990 -0.1936
  755SOL    HW2 2265   2.357   1.469   0.342 -1.4424  0.1351  3.8539
  756SOL     OW 2266   2.185   1.955   2.692 -1.1516 -0.4385  0.3957
  756SOL    HW1 2267   2.270   1.941   2.748 -1.0789  1.5925 -0.9604
  756SOL    HW2 2268   2.186   1.899   2.608  2.3708 -1.5463  1.1178
  757SOL     OW 2269   1.710   0.101   1.224  0.2626 -0.5863  0.2829
  757SOL    HW1 2270   1.709   0.183   1.279  1.1445  1.5900 -3.1576
  757SOL    HW2 2271   1.620   0.087   1.173 -1.8533 -2.4220 -1.5478
  758SOL     OW 2272   1.475   2.594   0.711 -0.1741 -0.2981  0.2203
  758SOL    HW1 2273   1.553   2.552   0.759 -0.6741 -2.2952 -0.4348
  758SOL    HW2 2274   1.515   2.671   0.651  3.6995  1.6878  0.8865
  759SOL     OW 2275   2.460   0.420   1.131  0.3071  0.0769 -0.5449
  759SOL    HW1 2276   2.537   0.486   1.133  2.0309 -0.4552 -1.4033
  759SOL    HW2 2277   2.381   0.446   1.192 -0.3589  1.9148  0.2779
  760SOL     OW 2278   2.314   1.080   1.333 -0.5531  0.0992 -0.1370
  760SOL    HW1 2279   2.281   1.137   1.412  0.2203 -0.2476 -0.4879
  760SOL    HW2 2280   2.322   1.132   1.247  1.9491 -1.2086  0.1966
  761SOL     OW 2281   0.482   0.665   0.716  0.1834 -0.4064 -0.3274
  761SOL    HW1 2282   0.440   0.730   0.653 -0.4824 -1.7664  1.4937
  761SOL    HW2 2283   0.426   0.667   0.804 -1.9809  1.5078 -0.1653
  762SOL     OW 2284   1.574   1.957   1.436  0.2108  0.7485 -0.0749
  762SOL    HW1 2285   1.643   1.944   1.512 -0.2898 -1.2140 -1.4301
  762SOL    HW2 2286   1.608   2.023   1.370 -0.3295 -1.9799  0.8281
  763SOL     OW 2287   1.159   1.439   1.408 -0.0054 -0.6931 -0.6978
  763SOL    HW1 2288   1.087   1.364   1.406  0.3097 -2.4973 -2.7163
  763SOL    HW2 2289   1.114   1.526   1.388 -0.4142  1.4705 -2.3217
  764SOL     OW 2290   3.063   1.731   2.096  0.2406 -0.5307  0.0975
  764SOL    HW1 2291   2.990   1.786   2.045 -1.3355  0.9785 -0.3120
  764SOL    HW2 2292   0.004   1.662   2.032  1.9182 -2.4198 -0.1695
  765SOL     OW 2293   1.442   2.329   1.296 -0.1213  0.3011 -0.2604
  765SOL    HW1 2294   1.361   2.263   1.290  1.3106 -0.2040 -0.1208
  765SOL    HW2 2295   1.448   2.396   1.220 -3.4757 -0.6876 -0.5107
  766SOL     OW 2296   0.150   2.483   2.630 -0.0312  0.0477  0.2613
  766SOL    HW1 2297   0.151   2.586   2.622  2.4720  0.4265  2.6417
  766SOL    HW2 2298   0.063   2.435   2.605 -0.0596 -1.7241  3.3401
  767SOL     OW 2299   1.448   0.618   2.717 -0.1342 -0.4577  0.0538
  767SOL    HW1 2300   1.490   0.544   2.773 -0.0515 -1.2814 -0.0559
  767SOL    HW2 2301   1.361   0.578   2.681 -3.8123  0.6931  0.7977
  768SOL     OW 2302   1.493   2.275   3.048 -0.0906  0.4578 -0.2196
  768SOL    HW1 2303   1.539   2.369   3.051  1.1498  2.5952 -1.4654
  768SOL    HW2 2304   1.426   2.267   2.970 -0.4291  0.9105  0.4085
  769SOL     OW 2305   0.375   2.815   1.017 -0.1886  0.1104  0.5722
  769SOL    HW1 2306   0.290   2.837   0.960  0.0235 -0.5301  0.7461
  769SOL    HW2 2307   0.395   2.896   1.080  0.7299  2.3237  0.6809
  770SOL     OW 2308   1.457   0.835   3.093 -0.4487 -0.1319 -0.2855
  770SOL    HW1 2309   1.534   0.903   3.077  0.1990  3.7525  0.1828
  770SOL    HW2 2310   1.481   0.749   0.041 -2.3513 -1.4811  1.0601
  771SOL     OW 2311   0.249   0.165   2.413 -0.4164 -0.1960  0.2105
  771SOL    HW1 2312   0.192   0.162   2.498 -2.0178 -1.2439  1.1838
  771SOL    HW2 2313   0.346   0.197   2.441  1.3625  2.8769  0.9718
  772SOL     OW 2314   1.835   2.802   2.091 -0.2015  0.2071  0.0731
  772SOL    HW1 2315   1.904   2.800   2.016 -1.6114  1.0846 -1.7630
  772SOL    HW2 2316   1.748   2.816   2.048 -1.5575 -0.2842 -0.6553
  773SOL     OW 2317   0.683   2.220   1.799 -0.1089 -0.1508 -0.7204
  773SOL    HW1 2318   0.771   2.218   1.757 -1.6689  1.0165  1.4384
  773SOL    HW2 2319   0.683   2.288   1.872  2.1341 -0.9898 -1.9828
  774SOL     OW 2320   1.096   0.185   2.057  0.4183 -0.0307  0.7783
  774SOL    HW1 2321   1.087   0.082   2.061 -3.1218 -3.3117  0.4184
  774SOL    HW2 2322   1.077   0.230   2.146 -1.5656  2.3994 -0.5619
  775SOL     OW 2323   2.195   2.706   0.202 -0.2672  0.3793 -0.4371
  775SOL    HW1 2324   2.197   2.749   0.293  1.0537 -1.4228 -1.8588
  775SOL    HW2 2325   2.102   2.686   0.167  1.3948 -1.5702 -2.6515
  776SOL     OW 2326   2.357   0.537   2.389 -0.0989  0.2557 -0.5727
  776SOL    HW1 2327   2.426   0.523   2.466  1.3065 -1.7301  2.6767
  776SOL    HW2 2328   2.399   0.604   2.326 -1.1391 -1.8256  0.9711
  777SOL     OW 2329   2.548   1.267   2.429 -0.2689 -0.2079 -0.4838
  777SOL    HW1 2330   2.560   1.317   2.516 -1.0320 -0.8063 -0.6559
  777SOL    HW2 2331   2.623   1.299   2.363 -0.6144 -0.0511 -0.3971
  778SOL     OW 2332   2.183   1.065   2.422  0.5628  0.5302 -0.3266
  778SOL    HW1 2333   2.191   1.108   2.327  1.3474 -0.8951  0.1733
  778SOL    HW2 2334   2.086   1.032   2.427 -1.2151 -1.3313 -0.0058
  779SOL     OW 2335   3.040   0.282   0.261 -0.2185  0.0537 -0.2888
  779SOL    HW1 2336   3.094   0.370   0.279  1.7440  1.4794  0.1419
  779SOL    HW2 2337   3.060   0.210   0.330 -0.2300 -0.8409  1.4496
  780SOL     OW 2338   2.770   0.549   3.039  0.2167 -0.2776  0.0419
  780SOL    HW1 2339   2.836   0.542   2.963 -3.1386 -1.1206  0.1380
  780SOL    HW2 2340   2.814   0.528   0.031  0.8581 -1.1603  0.3834
  781SOL     OW 2341   0.082   0.046   1.406 -0.2788  0.4041 -0.5543
  781SOL    HW1 2342   0.093   0.113   1.327  0.9962  2.2691 -0.9982
  781SOL    HW2 2343   0.065   3.052   1.364  0.3423  1.2950  0.8205
  782SOL     OW 2344   1.832   2.548   0.724 -0.3324  0.4758  0.4124
  782SOL    HW1 2345   1.851   2.531   0.627  1.5501 -1.4746 -0.0447
  782SOL    HW2 2346   1.779   2.628   0.748 -0.1969 -1.0396  2.6083
  783SOL     OW 2347   0.671   1.426   1.369 -0.6886  0.3041  0.1600
  783SOL    HW1 2348   0.671   1.491   1.291  0.1792 -1.6182  0.9329
  783SOL    HW2 2349   0.642   1.477   1.453  1.1779  0.4182  2.0417
  784SOL     OW 2350   1.598   0.369   2.750  0.1372 -0.3294  0.0869
  784SOL    HW1 2351   1.679   0.334   2.799 -1.6144  1.4086 -4.4660
  784SOL    HW2 2352   1.524   0.296   2.736 -1.6406  2.5050 -1.4551
  785SOL     OW 2353   2.453   0.168   1.307  0.1880  0.6238 -0.3749
  785SOL    HW1 2354   2.429   0.243   1.246 -2.5768  2.2329 -0.6001
  785SOL    HW2 2355   2.382   0.095   1.313 -2.4088 -0.6914 -1.7600
  786SOL     OW 2356   1.217   2.634   1.567  0.9366  0.4190 -0.2468
  786SOL    HW1 2357   1.293   2.565   1.567  2.1312  0.1788  0.2451
  786SOL    HW2 2358   1.128   2.593   1.532 -0.3439 -0.4974 -0.8862
  787SOL     OW 2359   1.565   0.408   1.661  0.0766  0.3129  1.0388
  787SOL    HW1 2360   1.549   0.338   1.593 -1.5658  0.4627 -0.5842
  787SOL    HW2 2361   1.480   0.421   1.712 -1.7595  0.6618 -0.7847
  788SOL     OW 2362   3.004   1.175   0.515  0.2270 -0.7770  0.5493
  788SOL    HW1 2363   3.088   1.170   0.465 -2.6917 -0.4574 -1.9973
  788SOL    HW2 2364   2.991   1.086   0.564  2.1692  2.1827 -0.4745
  789SOL     OW 2365   0.693   1.847   1.664 -0.3186  0.2086 -0.4038
  789SOL    HW1 2366   0.787   1.890   1.675  0.2208  1.1940 -1.0331
  789SOL    HW2 2367   0.646   1.898   1.585 -1.1537  2.8755 -0.9667
  790SOL     OW 2368   0.682   0.549   2.513 -0.0448  0.0660 -0.0555
  790SOL    HW1 2369   0.699   0.509   2.605 -0.0479 -2.4294  2.8165
  790SOL    HW2 2370   0.580   0.554   2.493 -1.4244  0.6992  0.6855
  791SOL     OW 2371   2.251   0.661   0.612  0.1055 -0.7689  0.1689
  791SOL    HW1 2372   2.171   0.680   0.549  2.0435  0.3349  0.7163
  791SOL    HW2 2373   2.221   0.666   0.707  0.1179 -1.5394 -3.1903
  792SOL     OW 2374   1.155   2.824   1.735 -0.1468  0.5910  0.1641
  792SOL    HW1 2375   1.199   2.787   1.823 -0.2679  0.7611 -0.3148
  792SOL    HW2 2376   1.180   2.767   1.652  1.5153  0.4805 -1.4122
  793SOL     OW 2377   0.293   0.045   0.736 -0.2353 -0.1323 -0.8942
  793SOL    HW1 2378   0.340   0.127   0.770 -2.9307  1.7383 -1.4417
  793SOL    HW2 2379   0.324   0.025   0.642  1.9910 -1.6780 -0.7536
  794SOL     OW 2380   0.111   0.984   2.023 -0.2602 -0.2060  0.1955
  794SOL    HW1 2381   0.050   1.044   2.078  3.9222  0.8894  0.4302
  794SOL    HW2 2382   0.063   0.920   1.956  0.1741  0.6607 -0.4444
  795SOL     OW 2383   0.518   2.184   2.352  0.4262  0.8440 -0.3518
  795SOL    HW1 2384   0.453   2.256   2.383  2.5711  2.4708  0.7958
  795SOL    HW2 2385   0.504   2.166   2.252 -0.3964  3.5466  0.6168
  796SOL     OW 2386   2.467   0.204   2.331 -0.1419  0.0653 -0.3954
  796SOL    HW1 2387   2.413   0.269   2.387 -1.2878  1.1349 -2.0417
  796SOL    HW2 2388   2.444   0.213   2.230 -2.4948  0.4055  3.0118
  797SOL     OW 2389   2.480   2.555   2.633 -0.0013 -0.3444 -0.6059
  797SOL    HW1 2390   2.453   2.474   2.694 -1.0318 -0.5520  0.2156
  797SOL    HW2 2391   2.424   2.634   2.650 -0.1021  0.2979  1.3192
  798SOL     OW 2392   0.036   0.038   2.119 -0.0755 -0.3065 -0.7844
  798SOL    HW1 2393   0.140   0.050   2.129  4.2633  2.5672 -2.1730
  798SOL    HW2 2394   0.014   3.072   2.040 -0.0993 -1.0969  1.2942
  799SOL     OW 2395   0.353   2.350   2.157 -0.2224  0.4831 -0.1710
  799SOL    HW1 2396   0.251   2.341   2.176  1.6313 -2.2436  2.1765
  799SOL    HW2 2397   0.358   2.361   2.057 -0.3822  1.4450  1.7512
  800SOL     OW 2398   0.129   1.981   3.090  0.4816  0.0162 -0.2225
  800SOL    HW1 2399   0.189   2.053   0.034  1.3332 -2.2562 -2.3999
  800SOL    HW2 2400   0.068   1.934   0.059  2.9061 -0.9609 -0.6098
  801SOL     OW 2401   1.591   1.388   1.299 -0.3591 -0.3304  0.5292
  801SOL    HW1 2402   1.568   1.444   1.381 -0.5296  3.3725  3.3438
  801SOL    HW2 2403   1.524   1.412   1.222 -2.3876 -0.6602  0.3921
  802SOL     OW 2404   0.090   0.737   0.416 -0.5745 -0.0782 -0.8934
  802SOL    HW1 2405   0.070   0.801   0.341 -0.4083  0.6640 -1.9184
  802SOL    HW2 2406   0.010   0.734   0.476 -1.1246 -2.3347 -3.5683
  803SOL     OW 2407   1.275   1.325   1.959  0.1633 -0.1083 -0.3203
  803SOL    HW1 2408   1.275   1.400   2.029  0.6981 -1.7091 -2.6621
  803SOL    HW2 2409   1.181   1.288   1.938  0.6358 -0.9594 -0.8218
  804SOL     OW 2410   1.832   1.458   1.160 -0.1269  0.1313 -0.1686
  804SOL    HW1 2411   1.750   1.463   1.222  0.9770 -0.5020  0.9823
  804SOL    HW2 2412   1.831   1.377   1.094 -3.2044 -1.4549  0.1762
  805SOL     OW 2413   2.796   1.876   2.690  0.2335 -0.0031  0.6894
  805SOL    HW1 2414   2.819   1.912   2.596  0.9311  0.6043  0.2150
  805SOL    HW2 2415   2.721   1.807   2.684 -0.4822 -2.9177  0.2492
  806SOL     OW 2416   0.522   2.309   3.080  0.3164  0.1672 -0.3447
  806SOL    HW1 2417   0.623   2.311   3.083  1.1844 -1.1868  1.9425
  806SOL    HW2 2418   0.489   2.338   2.987 -1.5490  0.7394  0.3069
  807SOL     OW 2419   2.225   1.637   2.853  0.4813  0.3346 -0.5606
  807SOL    HW1 2420   2.296   1.700   2.889 -0.0071 -0.5140  3.5790
  807SOL    HW2 2421   2.134   1.675   2.867  0.1969 -0.3365 -0.3224
  808SOL     OW 2422   1.252   1.918   1.188  0.6625 -0.4774  0.0966
  808SOL    HW1 2423   1.204   1.973   1.110 -1.3476  2.0831 -2.2912
  808SOL    HW2 2424   1.271   1.983   1.268  0.3045  1.6961  0.2254
  809SOL     OW 2425   0.141   0.482   0.349 -0.3255  0.1529  0.2551
  809SOL    HW1 2426   0.121   0.581   0.343 -1.1902  0.2403  0.3169
  809SOL    HW2 2427   0.238   0.463   0.327  0.9903 -0.3791 -1.4143
  810SOL     OW 2428   1.050   1.295   0.313  0.2507  0.6224 -0.1336
  810SOL    HW1 2429   1.047   1.284   0.417 -2.7687 -2.7862  5.5331
  810SOL    HW2 2430   1.039   1.391   0.286  0.9188  1.4711  0.0828
  811SOL     OW 2431   1.787   2.435   1.115 -0.0414  0.7580  0.0654
  811SOL    HW1 2432   1.847   2.350   1.097  0.0189 -2.4974  0.7219
  811SOL    HW2 2433   1.808   2.474   1.207 -1.8188 -0.7485  1.2439
  812SOL     OW 2434   1.259   2.839   1.363 -0.6839 -0.7050  0.1498
  812SOL    HW1 2435   1.225   2.750   1.399 -1.4841  0.4296 -0.5968
  812SOL    HW2 2436   1.196   2.895   1.312  1.4310  0.6916  0.7543
  813SOL     OW 2437   0.822   0.010   1.730  0.1929 -0.3890  0.3365
  813SOL    HW1 2438   0.825   0.104   1.770 -1.7539  1.7825  0.0298
  813SOL    HW2 2439   0.783   3.041   1.795 -1.6624  1.0140 -1.9263
  814SOL     OW 2440   0.918   2.575   2.002 -0.4838  0.4058  0.2452
  814SOL    HW1 2441   0.971   2.581   2.092 -0.3422  2.2975  1.9012
  814SOL    HW2 2442   0.840   2.515   2.010  2.6000  3.4876 -3.1754
  815SOL     OW 2443   0.614   2.953   2.910 -0.1662 -0.3263  0.2345
  815SOL    HW1 2444   0.642   2.886   2.842 -0.9003  3.8554  0.3386
  815SOL    HW2 2445   0.602   3.047   2.863 -1.5376  1.5908 -2.1412
  816SOL     OW 2446   2.178   0.685   3.037 -0.0210 -0.2833 -0.1009
  816SOL    HW1 2447   2.196   0.584   3.039 -0.5498 -1.3193 -1.9076
  816SOL    HW2 2448   2.249   0.734   3.095  1.7210  0.9553 -0.4451
  817SOL     OW 2449   2.414   2.356   2.283  0.6451  0.0784  0.1555
  817SOL    HW1 2450   2.403   2.358   2.181  0.6404  1.9216 -0.6111
  817SOL    HW2 2451   2.391   2.442   2.335  1.6662 -0.3286 -0.0328
  818SOL     OW 2452   1.024   0.920   0.459  0.5910  0.1062 -0.6828
  818SOL    HW1 2453   1.073   0.889   0.374  2.8680  3.0323 -2.3296
  818SOL    HW2 2454   0.946   0.982   0.435  1.2251  1.0942  0.5004
  819SOL     OW 2455   1.839   1.312   2.781  0.3815  0.8196 -0.4296
  819SOL    HW1 2456   1.914   1.328   2.715 -2.9210 -1.4416  1.5112
  819SOL    HW2 2457   1.868   1.333   2.876  2.1496  1.4470  0.1641
  820SOL     OW 2458   0.153   1.398   2.647  0.2283  0.2910  0.3006
  820SOL    HW1 2459   0.096   1.483   2.640  1.1817 -2.2856 -0.1684
  820SOL    HW2 2460   0.220   1.391   2.571  0.8889 -1.7999 -0.5203
  821SOL     OW 2461   0.396   0.002   0.493  0.6144 -0.0232 -0.0882
  821SOL    HW1 2462   0.459   0.084   0.493  2.7616  0.7712  1.3185
  821SOL    HW2 2463   0.436   3.018   0.446  0.0495  0.2710 -1.8435
  822SOL     OW 2464   2.466   2.710   2.936 -0.0282 -0.2426  0.5885
  822SOL    HW1 2465   2.430   2.715   2.843 -1.9977  1.7210 -2.5297
  822SOL    HW2 2466   2.569   2.697   2.940  0.7731  0.0386 -0.4099
  823SOL     OW 2467   1.659   3.081   2.449  0.3954 -0.0163 -0.2249
  823SOL    HW1 2468   1.726   3.034   2.388  1.7161 -0.0583 -0.9313
  823SOL    HW2 2469   1.627   3.014   2.521  0.6784 -1.4315 -1.3228
  824SOL     OW 2470   2.752   2.407   2.010  0.1858  0.1323 -0.3226
  824SOL    HW1 2471   2.738   2.506   1.991 -0.3499 -0.2375  0.5325
  824SOL    HW2 2472   2.701   2.377   2.092 -0.9001 -0.6455 -0.7727
  825SOL     OW 2473   2.874   1.965   2.426 -0.1091  0.1022  0.1029
  825SOL    HW1 2474   2.973   1.958   2.411 -0.1232  0.1324  0.1922
  825SOL    HW2 2475   2.834   2.000   2.342 -1.3630  0.3873  0.8072
  826SOL     OW 2476   1.756   0.796   3.079 -0.1285 -0.5767  0.2933
  826SOL    HW1 2477   1.736   0.890   0.010 -2.2289  0.5680  1.5413
  826SOL    HW2 2478   1.819   0.801   3.000  1.2273 -1.4822  1.5556
  827SOL     OW 2479   2.865   1.739   1.664 -0.1198  0.2086  0.1244
  827SOL    HW1 2480   2.850   1.744   1.565  2.6584  1.3279  0.8881
  827SOL    HW2 2481   2.791   1.678   1.703  0.1862  0.2662 -0.3829
  828SOL     OW 2482   2.944   0.231   1.160 -0.0010 -0.1600 -0.0588
  828SOL    HW1 2483   3.034   0.182   1.159  0.9186  0.5711 -0.3040
  828SOL    HW2 2484   2.870   0.182   1.114  0.5069  0.8327 -1.4065
  829SOL     OW 2485   0.774   1.876   2.563 -0.3719 -0.3447  0.0522
  829SOL    HW1 2486   0.812   1.961   2.522 -1.1324 -1.0567  3.5907
  829SOL    HW2 2487   0.671   1.874   2.561 -0.0688 -0.1758 -1.3751
  830SOL     OW 2488   0.502   0.878   1.506  0.2859 -0.2051  0.4893
  830SOL    HW1 2489   0.590   0.915   1.551  2.9610 -0.9729  3.3290
  830SOL    HW2 2490   0.524   0.810   1.428  2.7603 -1.1269 -2.0417
  831SOL     OW 2491   2.428   1.874   2.780 -0.1419  0.1720  0.0660
  831SOL    HW1 2492   2.475   1.816   2.712 -2.2135  2.0438  0.0215
  831SOL    HW2 2493   2.490   1.929   2.842  0.3563 -0.6259  1.1193
  832SOL     OW 2494   1.941   2.715   0.087  0.0163 -0.2377  0.1287
  832SOL    HW1 2495   1.930   2.640   0.022 -0.7006  3.1377  1.8275
  832SOL    HW2 2496   1.996   2.797   0.050  1.7498  0.8276 -0.9460
  833SOL     OW 2497   0.623   0.263   1.954  0.0372 -0.0495 -0.4166
  833SOL    HW1 2498   0.601   0.170   1.977 -0.1063 -0.2648 -1.1234
  833SOL    HW2 2499   0.599   0.324   2.025  1.1260 -1.5853 -3.8986
  834SOL     OW 2500   2.948   0.350   1.427 -0.3537  0.7396 -0.0945
  834SOL    HW1 2501   2.942   0.288   1.351  0.8281 -1.0641 -3.0372
  834SOL    HW2 2502   2.859   0.397   1.443 -0.0227  1.3068  2.2603
  835SOL     OW 2503   2.539   0.513   0.162  0.1157  0.0226 -0.1671
  835SOL    HW1 2504   2.640   0.496   0.173  2.4955 -3.1112  0.2139
  835SOL    HW2 2505   2.494   0.521   0.256 -1.5256  0.0814  3.3671
  836SOL     OW 2506   1.387   1.865   0.060 -0.5224  0.0529  0.6344
  836SOL    HW1 2507   1.381   1.907   0.154  1.6050  0.9162 -1.8287
  836SOL    HW2 2508   1.450   1.916   0.002 -0.1880  0.7376  3.7183
  837SOL     OW 2509   2.045   1.924   0.701  0.7731 -0.5006 -0.6097
  837SOL    HW1 2510   2.142   1.941   0.716  1.4476  1.0885 -0.6236
  837SOL    HW2 2511   2.017   1.962   0.612 -0.1210  0.7814  1.9143
  838SOL     OW 2512   1.470   0.791   2.498  0.2068  0.0618 -0.5923
  838SOL    HW1 2513   1.468   0.723   2.576  2.3679  0.2082 -1.9545
  838SOL    HW2 2514   1.551   0.859   2.507  2.3384  2.2683  1.9093
  839SOL     OW 2515   0.540   1.329   2.439  0.1264 -0.9025 -0.1968
  839SOL    HW1 2516   0.609   1.350   2.514  2.1615  1.6420 -0.7421
  839SOL    HW2 2517   0.580   1.273   2.364 -0.5471 -1.6129  0.4481
  840SOL     OW 2518   0.884   1.574   0.460 -0.3228  0.1748 -0.1461
  840SOL    HW1 2519   0.981   1.575   0.430 -2.4593 -0.2688  1.0446
  840SOL    HW2 2520   0.869   1.504   0.532  1.5331 -0.3668  1.8639
  841SOL     OW 2521   1.725   2.150   0.692 -0.2927  0.0467  0.0487
  841SOL    HW1 2522   1.807   2.214   0.696  4.7534  3.0870 -2.1962
  841SOL    HW2 2523   1.651   2.178   0.758 -0.5448  1.3558  1.7660
  842SOL     OW 2524   0.419   0.435   3.003 -0.2177  0.1053 -0.1457
  842SOL    HW1 2525   0.397   0.339   3.037 -0.4393  0.2130  2.0806
  842SOL    HW2 2526   0.519   0.446   2.990 -0.5907  1.3893  0.1279
  843SOL     OW 2527   0.395   0.300   0.753  0.0587 -0.6756 -0.1004
  843SOL    HW1 2528   0.458   0.371   0.719  0.8471 -0.7916 -0.1590
  843SOL    HW2 2529   0.297   0.327   0.741  0.6417  2.8604  0.9691
  844SOL     OW 2530   2.164   0.119   2.484 -0.0368 -0.3957  0.2362
  844SOL    HW1 2531   2.207   0.055   2.422 -0.2651  1.6065 -0.6924
  844SOL    HW2 2532   2.082   0.080   2.528  3.4420  0.3851  0.0212
  845SOL     OW 2533   0.084   2.543   1.915  0.2281  0.0232  0.4140
  845SOL    HW1 2534   0.002   2.483   1.912 -1.6895  1.6400  0.5865
  845SOL    HW2 2535   0.068   2.633   1.873  1.7985 -0.9552  2.8381
  846SOL     OW 2536   2.017   1.360   2.580  0.3323  0.3948  0.0516
  846SOL    HW1 2537   2.111   1.356   2.628  2.4495  1.6378  0.9604
  846SOL    HW2 2538   2.014   1.327   2.482  2.8503 -1.2218 -2.7493
  847SOL     OW 2539   0.669   0.924   1.995  0.2507  0.0604 -0.3624
  847SOL    HW1 2540   0.619   0.854   1.941  0.7386 -0.5714  0.6071
  847SOL    HW2 2541   0.772   0.904   1.994  1.3629  0.0360 -0.8796
  848SOL     OW 2542   2.639   3.010   2.811  0.3199 -0.2234 -0.1398
  848SOL    HW1 2543   2.659   2.914   2.797 -0.0851 -1.0231  0.1574
  848SOL    HW2 2544   2.713   3.059   2.856  0.2434 -1.7936  0.3608
  849SOL     OW 2545   0.445   2.670   0.237 -0.2403  0.3379  0.0401
  849SOL    HW1 2546   0.346   2.700   0.244  0.4776  1.0439 -0.2631
  849SOL    HW2 2547   0.491   2.704   0.152  0.1079  1.0338  0.8387
  850SOL     OW 2548   1.124   2.594   0.580 -0.1897 -0.0817 -0.1370
  850SOL    HW1 2549   1.144   2.519   0.643 -1.7548  0.3729 -0.7182
  850SOL    HW2 2550   1.190   2.670   0.596 -1.2305  0.2284 -1.4274
  851SOL     OW 2551   1.933   0.389   2.650  0.0645 -0.1658  0.1677
  851SOL    HW1 2552   2.014   0.402   2.591 -1.6167 -2.0912 -2.2135
  851SOL    HW2 2553   1.881   0.477   2.645 -0.0126  0.4681  1.2958
  852SOL     OW 2554   1.419   0.171   2.608 -0.3589 -0.0155  0.5930
  852SOL    HW1 2555   1.499   0.135   2.557 -0.3510 -1.1909 -1.3827
  852SOL    HW2 2556   1.380   0.101   2.676  0.6492 -1.9422  2.8371
  853SOL     OW 2557   3.014   2.534   0.279 -0.3750  0.2543 -0.1697
  853SOL    HW1 2558   3.023   2.473   0.357 -0.0867  2.0127  0.4004
  853SOL    HW2 2559   3.034   2.630   0.312 -1.3687 -0.2010 -3.0057
  854SOL     OW 2560   2.022   0.629   2.425  0.9170  0.2436  0.6929
  854SOL    HW1 2561   1.975   0.665   2.507 -0.7262 -2.9376 -0.7526
  854SOL    HW2 2562   2.078   0.542   2.449  0.3206 -1.8907  1.0915
  855SOL     OW 2563   0.558   2.435   0.268  0.3831  0.0802  0.7250
  855SOL    HW1 2564   0.525   2.533   0.264 -1.1347  2.1525 -1.1760
  855SOL    HW2 2565   0.549   2.391   0.173 -0.6855  1.7128  1.7779
  856SOL     OW 2566   0.326   3.060   2.603  0.0930  0.3256  0.0798
  856SOL    HW1 2567   0.229   3.043   2.573 -1.9033  2.5416  0.8437
  856SOL    HW2 2568   0.332   3.043   2.705 -2.2998  1.0353  2.6912
  857SOL     OW 2569   1.009   2.987   1.554 -0.4329  0.2514 -0.2904
  857SOL    HW1 2570   1.051   2.907   1.611  1.9488 -0.9490  3.3398
  857SOL    HW2 2571   0.914   3.003   1.592 -1.2103  0.1053 -0.4083
  858SOL     OW 2572   2.601   2.150   1.682  0.0258 -0.0656  0.1031
  858SOL    HW1 2573   2.685   2.099   1.648 -0.6425 -1.1582 -0.2845
  858SOL    HW2 2574   2.526   2.150   1.612 -2.5130 -0.9175 -1.8267
  859SOL     OW 2575   1.849   2.306   2.004 -0.3101 -0.2328 -0.5453
  859SOL    HW1 2576   1.762   2.285   2.050  0.8813  0.9741  0.8620
  859SOL    HW2 2577   1.920   2.235   2.027  1.7368 -1.5380  0.0012
  860SOL     OW 2578   1.688   0.402   0.380  0.2912  0.1275  0.5878
  860SOL    HW1 2579   1.652   0.493   0.352  0.5961 -1.9927 -0.2016
  860SOL    HW2 2580   1.720   0.348   0.297  2.0781 -1.2184  0.2480
  861SOL     OW 2581   2.638   0.602   0.757 -0.0544 -0.0326  0.3390
  861SOL    HW1 2582   2.644   0.597   0.654  0.6110 -0.0232  0.2938
  861SOL    HW2 2583   2.598   0.511   0.789 -0.1648 -0.5111 -0.8839
  862SOL     OW 2584   1.140   2.942   2.404 -0.3978 -0.2870 -0.3532
  862SOL    HW1 2585   1.144   2.924   2.506  0.7003  3.2168  1.0697
  862SOL    HW2 2586   1.199   2.876   2.359 -1.2323  0.8577  2.4107
  863SOL     OW 2587   0.501   0.873   1.110 -0.2748  0.1690 -0.3870
  863SOL    HW1 2588   0.506   0.807   1.190  1.1908 -0.6876  0.0891
  863SOL    HW2 2589   0.530   0.968   1.143  2.3531  1.3849  2.9750
  864SOL     OW 2590   3.009   2.972   1.862  0.9794  0.1828 -0.1197
  864SOL    HW1 2591   2.997   3.013   1.769 -1.2717  0.7608  0.7763
  864SOL    HW2 2592   2.917   2.967   1.904 -0.6374 -0.1792 -0.4479
  865SOL     OW 2593   0.921   1.194   2.886  0.0135  0.1313  0.1447
  865SOL    HW1 2594   0.896   1.209   2.983  0.2345 -2.7577 -0.5437
  865SOL    HW2 2595   0.839   1.203   2.825  1.7317 -0.7505 -0.3331
  866SOL     OW 2596   3.043   0.021   0.031 -0.1364 -0.1196 -0.3023
  866SOL    HW1 2597   3.055   0.102   0.093 -1.1974  2.1509  0.0839
  866SOL    HW2 2598   0.024   3.056   0.043  1.9594 -0.9664  0.9284
  867SOL     OW 2599   3.022   2.949   2.715 -0.0471  0.0808  0.1704
  867SOL    HW1 2600   3.088   2.997   2.652  1.9534  1.9418 -1.9805
  867SOL    HW2 2601   3.029   2.847   2.712  1.6413 -2.4794  1.0332
  868SOL     OW 2602   1.250   1.054   0.148  0.0688 -0.9165  0.1214
  868SOL    HW1 2603   1.149   1.070   0.151 -1.8213  0.5589  2.3272
  868SOL    HW2 2604   1.275   0.994   0.067  1.0512  1.4500 -0.6376
  869SOL     OW 2605   0.227   1.419   0.415  0.3780  0.3008  0.1851
  869SOL    HW1 2606   0.174   1.423   0.502  1.2115  0.1878 -1.7358
  869SOL    HW2 2607   0.256   1.321   0.391  2.0482 -0.6583 -0.1640
  870SOL     OW 2608   2.380   1.670   0.567 -0.6473 -0.7755 -0.2270
  870SOL    HW1 2609   2.461   1.708   0.523  0.5774  1.2004 -1.9328
  870SOL    HW2 2610   2.361   1.574   0.541 -0.7037 -2.3701 -1.9327
  871SOL     OW 2611   0.938   1.253   0.936 -0.0860  0.3230 -0.2971
  871SOL    HW1 2612   0.983   1.168   0.897  1.8339 -2.7664 -0.7853
  871SOL    HW2 2613   0.838   1.260   0.955  1.3160 -1.5604 -1.4666
  872SOL     OW 2614   1.136   1.734   1.995  0.2860  0.2702  0.9873
  872SOL    HW1 2615   1.212   1.719   1.929 -2.8839  1.5035  1.6677
  872SOL    HW2 2616   1.153   1.826   2.037  1.3758  0.2396  0.7838
  873SOL     OW 2617   0.885   1.681   2.410  0.3816  0.2413 -0.2704
  873SOL    HW1 2618   0.822   1.741   2.462 -1.2238 -1.7021 -0.2840
  873SOL    HW2 2619   0.893   1.708   2.313 -0.1656  1.1583  0.7932
  874SOL     OW 2620   1.016   2.348   0.731 -0.1948 -0.0125 -0.8157
  874SOL    HW1 2621   1.087   2.276   0.760  1.0726 -3.5874 -0.9724
  874SOL    HW2 2622   0.936   2.293   0.703  1.8175 -3.1042 -0.1466
  875SOL     OW 2623   2.521   0.338   0.835  0.1617 -0.7022  0.1967
  875SOL    HW1 2624   2.446   0.285   0.793 -0.0857  1.2233  3.3162
  875SOL    HW2 2625   2.502   0.342   0.938  1.6023  0.2048  0.9805
  876SOL     OW 2626   0.972   0.597   0.240 -0.0591  0.3607  0.1473
  876SOL    HW1 2627   0.932   0.575   0.329 -0.0060 -0.1769 -0.1864
  876SOL    HW2 2628   1.032   0.679   0.243  0.5428 -2.1150 -0.3649
  877SOL     OW 2629   2.699   0.628   1.274 -0.1914  0.0092 -0.2565
  877SOL    HW1 2630   2.662   0.629   1.179 -0.4918  1.8903  0.4869
  877SOL    HW2 2631   2.772   0.702   1.279 -0.5320  0.3844 -1.1983
  878SOL     OW 2632   2.173   2.200   0.768  0.4435  0.0033  0.3742
  878SOL    HW1 2633   2.245   2.219   0.835  0.3080  1.5045 -0.8179
  878SOL    HW2 2634   2.202   2.161   0.676 -1.2463 -1.2944 -1.5103
  879SOL     OW 2635   2.660   1.690   1.382 -0.3077 -0.3091 -0.4815
  879SOL    HW1 2636   2.608   1.699   1.298 -2.4377 -0.7058  2.5551
  879SOL    HW2 2637   2.627   1.622   1.446  0.5377 -0.6628  0.2285
  880SOL     OW 2638   1.378   2.556   1.150 -0.0802 -0.4424  0.2296
  880SOL    HW1 2639   1.423   2.649   1.166  1.3792  0.2776 -2.1400
  880SOL    HW2 2640   1.279   2.563   1.153 -0.5361  2.1499 -0.2975
  881SOL     OW 2641   0.826   2.370   0.018 -0.3064 -0.1373  0.0661
  881SOL    HW1 2642   0.825   2.268   0.041 -1.2991  0.5412  1.4124
  881SOL    HW2 2643   0.919   2.408   0.039 -3.7599 -3.1035  0.2006
  882SOL     OW 2644   1.661   1.134   1.679 -0.0983  0.1240 -0.3630
  882SOL    HW1 2645   1.567   1.167   1.657  2.0948 -1.1920  2.2203
  882SOL    HW2 2646   1.662   1.036   1.706 -1.7644  1.6841  1.0634
  883SOL     OW 2647   1.109   3.008   2.076  0.1880 -0.5919  0.3607
  883SOL    HW1 2648   1.096   3.008   2.174 -1.5791  0.6027 -1.7337
  883SOL    HW2 2649   1.036   2.950   2.043 -0.3151  1.0503 -1.3075
  884SOL     OW 2650   3.036   0.678   0.058  0.1458 -0.4474  0.2686
  884SOL    HW1 2651   0.028   0.716   0.045 -0.4695 -4.3421 -1.8554
  884SOL    HW2 2652   2.977   0.704   3.076 -1.0362 -1.7183 -1.5417
  885SOL     OW 2653   1.181   1.192   2.819  0.1892  0.3123 -0.5210
  885SOL    HW1 2654   1.246   1.253   2.874  3.1188  2.2830 -0.2677
  885SOL    HW2 2655   1.084   1.208   2.850  0.4719  0.0186 -1.1182
  886SOL     OW 2656   1.570   1.317   2.823 -0.2627 -0.1698 -0.3249
  886SOL    HW1 2657   1.527   1.226   2.804  2.5004  0.9165 -1.3610
  886SOL    HW2 2658   1.668   1.321   2.795  3.5487  0.7318 -1.1208
  887SOL     OW 2659   1.027   0.507   1.879 -0.2044 -0.0382  0.0098
  887SOL    HW1 2660   1.005   0.412   1.852  1.0226  0.0036 -0.2434
  887SOL    HW2 2661   1.127   0.523   1.886  0.4274 -0.3716 -1.0412
  888SOL     OW 2662   2.638   0.633   1.922  0.7590  0.1814 -0.1536
  888SOL    HW1 2663   2.605   0.707   1.976  0.6003 -3.1999  1.1827
  888SOL    HW2 2664   2.630   0.659   1.822  2.0995  1.0594  1.5657
  889SOL     OW 2665   0.142   2.956   0.493  0.2363 -0.3260 -0.4584
  889SOL    HW1 2666   0.134   2.867   0.546 -1.4807  1.5176  1.1451
  889SOL    HW2 2667   0.235   2.992   0.504 -0.7211 -0.3644  0.2610
  890SOL     OW 2668   2.858   2.172   0.295 -0.1893 -0.1159  0.2359
  890SOL    HW1 2669   2.767   2.153   0.334  1.9638  1.7467 -1.7144
  890SOL    HW2 2670   2.923   2.199   0.368  0.3016  1.7625 -2.1804
  891SOL     OW 2671   1.103   1.671   2.939  0.2479 -0.0016 -0.3199
  891SOL    HW1 2672   1.034   1.731   2.891 -1.3035  0.2290 -0.4556
  891SOL    HW2 2673   1.110   1.581   2.887 -1.2905  0.2120  1.4718
  892SOL     OW 2674   2.948   3.064   0.923 -0.2192  0.0600 -0.2051
  892SOL    HW1 2675   2.894   2.998   0.868  0.3682 -0.8518 -0.5339
  892SOL    HW2 2676   3.005   3.011   0.986  2.4505 -0.6298 -0.6313
  893SOL     OW 2677   1.079   3.065   1.311  0.6443 -0.2346 -0.0599
  893SOL    HW1 2678   1.057   3.043   1.410  2.1162  1.8374 -0.0405
  893SOL    HW2 2679   0.994   0.015   1.272 -3.1732  4.5652 -2.1790
  894SOL     OW 2680   3.008   0.932   0.644 -0.5366  0.1175  0.7397
  894SOL    HW1 2681   2.929   0.874   0.670  0.9639 -0.0150 -3.2825
  894SOL    HW2 2682   3.081   0.924   0.712 -1.6901  0.9038 -0.7246
  895SOL     OW 2683   2.247   2.660   1.901 -0.0668  0.1387  0.2235
  895SOL    HW1 2684   2.183   2.588   1.934  0.3989  1.5504  0.7169
  895SOL    HW2 2685   2.254   2.743   1.959 -0.1204 -2.1185 -2.4401
  896SOL     OW 2686   1.072   0.173   1.643 -0.5156  0.3401 -0.5017
  896SOL    HW1 2687   1.082   0.073   1.651 -1.1942  1.3500 -0.5205
  896SOL    HW2 2688   0.974   0.192   1.668  0.4716 -0.1816  0.7974
  897SOL     OW 2689   0.970   1.650   1.789 -0.5492  0.6186 -0.3469
  897SOL    HW1 2690   0.989   1.699   1.702  0.6135  1.0449 -0.7136
  897SOL    HW2 2691   1.023   1.681   1.871 -0.7421  1.8118  0.6575
  898SOL     OW 2692   1.679   2.456   1.854  0.1582 -0.2864  0.1264
  898SOL    HW1 2693   1.728   2.529   1.796  1.4014 -0.9582  1.8884
  898SOL    HW2 2694   1.746   2.407   1.915 -0.1036 -1.1615  1.0457
  899SOL     OW 2695   1.052   0.513   1.041  0.3590 -0.0481 -0.2509
  899SOL    HW1 2696   1.112   0.469   1.113  2.1614  1.8335  1.3698
  899SOL    HW2 2697   1.083   0.609   1.018  2.8357 -0.0548  0.4106
  900SOL     OW 2698   1.837   2.501   2.618  0.1516  0.2491  0.8116
  900SOL    HW1 2699   1.755   2.439   2.593 -4.5351  0.0422 -1.6490
  900SOL    HW2 2700   1.910   2.438   2.653  0.2192 -3.0499 -0.1991
  901SOL     OW 2701   0.773   2.145   2.449  0.1256 -0.2489 -0.1494
  901SOL    HW1 2702   0.821   2.210   2.507 -3.1419 -0.5420 -1.3337
  901SOL    HW2 2703   0.676   2.168   2.434  0.8643 -1.2099 -1.2732
  902SOL     OW 2704   2.179   1.027   0.390 -0.2841 -0.7287 -0.4514
  902SOL    HW1 2705   2.217   1.115   0.428  0.0457 -1.7534 -0.2742
  902SOL    HW2 2706   2.133   0.981   0.470  0.8296  2.6635  0.5272
  903SOL     OW 2707   1.821   0.862   0.395 -0.6693 -0.6010  0.8102
  903SOL    HW1 2708   1.847   0.906   0.307  0.1223 -1.0214 -3.1531
  903SOL    HW2 2709   1.903   0.837   0.457 -0.4122  0.4962  0.3881
  904SOL     OW 2710   0.721   0.760   2.957 -0.0711 -0.1476 -0.4392
  904SOL    HW1 2711   0.805   0.802   2.920 -1.3816  0.7380 -1.6841
  904SOL    HW2 2712   0.642   0.774   2.892 -0.4196  0.6052  0.3148
  905SOL     OW 2713   1.992   0.178   0.810 -0.1350 -0.3134 -0.3625
  905SOL    HW1 2714   1.926   0.101   0.809 -1.0834  1.6874 -1.3086
  905SOL    HW2 2715   2.015   0.211   0.717  2.1204 -0.4006  2.4112
  906SOL     OW 2716   2.778   2.317   1.470 -0.3965  0.6619  0.3428
  906SOL    HW1 2717   2.806   2.257   1.549 -0.0355 -1.0791  0.1767
  906SOL    HW2 2718   2.748   2.410   1.496  0.7086 -2.0333 -2.0749
  907SOL     OW 2719   1.186   0.793   0.262  0.0433  0.4739 -0.2644
  907SOL    HW1 2720   1.214   0.693   0.267  0.6964 -0.7555  0.8638
  907SOL    HW2 2721   1.264   0.859   0.257  1.0186 -0.1641 -0.4983
  908SOL     OW 2722   1.910   2.826   1.307 -0.6233  0.0904  0.1186
  908SOL    HW1 2723   1.998   2.850   1.358 -0.1171  1.3841  2.8018
  908SOL    HW2 2724   1.905   2.889   1.228 -0.5838 -2.5903  0.1283
  909SOL     OW 2725   2.340   0.791   1.355 -0.1573 -0.5292  0.1882
  909SOL    HW1 2726   2.353   0.759   1.452 -1.9785 -1.7107 -0.4512
  909SOL    HW2 2727   2.329   0.894   1.349  0.3214  0.3064  0.1721
  910SOL     OW 2728   1.256   2.659   1.971  0.2882  0.2546  0.6942
  910SOL    HW1 2729   1.198   2.622   2.043 -1.0240 -0.1888 -1.5432
  910SOL    HW2 2730   1.354   2.622   1.984 -0.7872 -0.2836  1.1407
  911SOL     OW 2731   2.776   0.167   2.335  0.0482 -0.1069  0.1019
  911SOL    HW1 2732   2.678   0.170   2.328  2.0600 -0.0469  0.9762
  911SOL    HW2 2733   2.815   0.216   2.258  0.8372 -0.4199  4.3762
  912SOL     OW 2734   2.969   1.372   1.453  0.0636 -0.5371  0.6568
  912SOL    HW1 2735   2.948   1.476   1.437 -3.0866  2.7263  1.7297
  912SOL    HW2 2736   3.067   1.360   1.485 -0.1653 -0.0916  3.3777
  913SOL     OW 2737   2.850   2.040   1.633  0.5996 -0.0576  0.1216
  913SOL    HW1 2738   2.843   1.942   1.651  0.6114 -0.2909 -0.2032
  913SOL    HW2 2739   2.941   2.068   1.658 -2.3748 -0.5173 -3.1881
  914SOL     OW 2740   1.965   1.070   1.369 -0.2378 -0.1716  0.0309
  914SOL    HW1 2741   1.981   0.969   1.378 -0.2499 -1.3187  1.2902
  914SOL    HW2 2742   2.043   1.120   1.413 -0.7946 -1.6112  1.2855
  915SOL     OW 2743   1.287   0.558   1.546  0.7653 -0.1119  0.1928
  915SOL    HW1 2744   1.305   0.498   1.624  0.6502 -1.0192 -0.2755
  915SOL    HW2 2745   1.373   0.585   1.503  1.9389  0.6361 -0.2968
  916SOL     OW 2746   2.695   2.566   1.518 -0.1978  0.0475 -0.2163
  916SOL    HW1 2747   2.639   2.603   1.439  1.8385 -0.8960 -3.7909
  916SOL    HW2 2748   2.739   2.640   1.569  3.3436 -2.5448 -0.0987
  917SOL     OW 2749   2.304   2.160   0.265 -0.2611 -0.6130  0.2056
  917SOL    HW1 2750   2.247   2.158   0.175 -1.9526  0.1584 -4.6566
  917SOL    HW2 2751   2.395   2.207   0.247  0.1059 -2.8916  0.8895
  918SOL     OW 2752   1.976   2.801   2.733  0.0100  0.1410  0.3587
  918SOL    HW1 2753   2.002   2.829   2.639  0.6029 -1.7068 -1.0640
  918SOL    HW2 2754   1.927   2.708   2.722 -1.9116 -2.4884 -0.5472
  919SOL     OW 2755   1.228   2.156   1.336  0.2791  0.2712  0.7989
  919SOL    HW1 2756   1.263   2.148   1.430 -1.0708  0.7494  1.4329
  919SOL    HW2 2757   1.129   2.141   1.326  0.3518  0.2481 -1.5468
  920SOL     OW 2758   0.199   0.440   2.344 -0.2374  0.0718  0.4173
  920SOL    HW1 2759   0.203   0.338   2.358 -2.9046  1.9200 -0.0669
  920SOL    HW2 2760   0.147   0.466   2.260  0.1456  1.1261  2.7518
  921SOL     OW 2761   3.066   0.814   1.857  0.1805 -0.1243  0.2962
  921SOL    HW1 2762   3.002   0.744   1.896  0.1476 -0.9875 -0.2167
  921SOL    HW2 2763   0.017   0.769   1.781 -1.9375  0.7923  0.7039
  922SOL     OW 2764   2.228   2.142   0.499  0.7952 -0.2405  0.1082
  922SOL    HW1 2765   2.125   2.138   0.493 -1.6474  0.5879  1.2251
  922SOL    HW2 2766   2.276   2.133   0.410  0.5650  1.6850 -0.6023
  923SOL     OW 2767   0.988   1.930   2.775  0.1900  0.6639 -0.4288
  923SOL    HW1 2768   0.956   1.837   2.742  0.8028  0.8342 -1.1947
  923SOL    HW2 2769   0.913   1.998   2.765 -2.8136 -0.4699 -0.0910
  924SOL     OW 2770   0.944   0.269   0.416 -0.1476  0.0101  0.4903
  924SOL    HW1 2771   0.888   0.198   0.368  2.7088 -4.3589 -1.6188
  924SOL    HW2 2772   1.034   0.277   0.366 -0.8305 -0.2831 -2.0860
  925SOL     OW 2773   2.424   0.584   0.415 -0.3371 -0.0995 -0.2359
  925SOL    HW1 2774   2.375   0.616   0.496  4.1477 -1.6660  0.5322
  925SOL    HW2 2775   2.522   0.567   0.438  2.4026  2.9415  0.7151
  926SOL     OW 2776   0.117   0.887   1.152  0.3189 -0.5939 -0.3374
  926SOL    HW1 2777   0.176   0.962   1.192 -0.5680 -0.1404  2.0796
  926SOL    HW2 2778   0.134   0.802   1.205  0.3122 -1.4917  1.0096
  927SOL     OW 2779   3.057   1.259   2.797 -0.0682 -0.2975 -0.1306
  927SOL    HW1 2780   0.043   1.297   2.746  0.8315  1.7541 -1.7458
  927SOL    HW2 2781   2.976   1.296   2.753  2.9027 -0.3023  0.6203
  928SOL     OW 2782   2.644   0.707   2.661 -0.4712  0.0427  0.4602
  928SOL    HW1 2783   2.600   0.620   2.645  1.2676  1.6670 -2.4713
  928SOL    HW2 2784   2.726   0.693   2.715 -1.9008 -0.0172  1.6955
  929SOL     OW 2785   2.687   0.121   1.091 -0.2310 -0.6841 -0.0129
  929SOL    HW1 2786   2.605   0.132   1.149 -0.9960 -2.6703 -1.5756
  929SOL    HW2 2787   2.695   0.025   1.047  1.0770  0.0651  0.1030
  930SOL     OW 2788   1.912   1.284   1.605  0.2459  0.1831 -0.1222
  930SOL    HW1 2789   1.840   1.212   1.608  1.7767  0.1846 -1.1905
  930SOL    HW2 2790   1.881   1.365   1.551 -0.0423  0.4630 -1.0000
  931SOL     OW 2791   1.637   1.414   0.687 -0.1363 -0.3356 -0.3287
  931SOL    HW1 2792   1.711   1.377   0.627 -0.1299 -0.5448 -2.7098
  931SOL    HW2 2793   1.610   1.514   0.661 -3.4638 -0.0019 -1.8234
  932SOL     OW 2794   2.762   1.325   0.890 -0.6946 -0.4223  0.2577
  932SOL    HW1 2795   2.704   1.376   0.826  1.5366  0.1098  2.3694
  932SOL    HW2 2796   2.740   1.227   0.892  2.2974 -0.9978 -2.8394
  933SOL     OW 2797   2.379   2.048   1.275  0.0465  0.1358  0.1620
  933SOL    HW1 2798   2.348   2.042   1.178  0.9818 -0.1546 -0.1406
  933SOL    HW2 2799   2.473   2.082   1.281 -0.4361 -0.7608 -0.2738
  934SOL     OW 2800   1.921   0.099   2.187 -0.8911  0.1742  0.0458
  934SOL    HW1 2801   1.892   0.173   2.258  0.3355  3.4103 -1.0461
  934SOL    HW2 2802   1.904   0.131   2.093  1.7571  1.4661  0.3602
  935SOL     OW 2803   0.248   1.578   0.806 -0.5132  0.1793 -0.3487
  935SOL    HW1 2804   0.204   1.533   0.728  1.1552  0.9225  1.9664
  935SOL    HW2 2805   0.308   1.659   0.777 -0.5624  2.4605 -0.4902
  936SOL     OW 2806   0.360   0.836   0.550  0.3870 -0.0754  0.4219
  936SOL    HW1 2807   0.272   0.808   0.508 -0.6134  2.5302 -0.6046
  936SOL    HW2 2808   0.393   0.926   0.516 -1.9076 -1.6961  0.0320
  937SOL     OW 2809   2.315   3.065   1.096 -0.2391  0.4362 -0.0725
  937SOL    HW1 2810   2.341   2.988   1.032  0.9009  0.6266  1.3086
  937SOL    HW2 2811   2.313   3.026   1.190  0.0872  0.7648  0.9117
  938SOL     OW 2812   2.606   2.130   0.366  0.7540  0.1728 -0.2747
  938SOL    HW1 2813   2.568   2.042   0.332  2.2260  0.2583 -1.1635
  938SOL    HW2 2814   2.565   2.203   0.306  0.6216  2.1641 -0.6352
  939SOL     OW 2815   0.960   1.903   0.230 -0.0375  0.1938  0.0895
  939SOL    HW1 2816   0.899   1.820   0.227 -0.4523 -2.0783 -1.5086
  939SOL    HW2 2817   1.021   1.905   0.316  2.3229  0.6779 -0.7128
  940SOL     OW 2818   2.847   0.201   2.749 -0.2662  0.3179 -0.0933
  940SOL    HW1 2819   2.864   0.266   2.671  1.1638  0.4451  0.0112
  940SOL    HW2 2820   2.782   0.243   2.811  2.2488  0.1591 -0.0765
  941SOL     OW 2821   1.362   0.011   2.819 -0.2705 -0.4571 -0.1959
  941SOL    HW1 2822   1.390   3.056   2.904  0.5051  0.8797 -1.0040
  941SOL    HW2 2823   1.282   0.064   2.845 -0.0851  0.0996 -1.0725
  942SOL     OW 2824   1.128   0.936   1.364 -0.3520  0.5243 -0.1768
  942SOL    HW1 2825   1.183   1.010   1.329 -0.2857  0.8097 -1.4337
  942SOL    HW2 2826   1.028   0.947   1.365 -0.2973  0.5844  2.0355
  943SOL     OW 2827   1.351   1.171   1.704  0.2121  0.2721 -0.7576
  943SOL    HW1 2828   1.345   1.181   1.805  0.3318 -2.3151 -2.2922
  943SOL    HW2 2829   1.263   1.120   1.677 -1.6994 -1.5909 -1.9238
  944SOL     OW 2830   1.373   0.839   2.047 -0.2071  0.4656  0.2818
  944SOL    HW1 2831   1.293   0.899   2.073  1.6708  1.2226 -0.6971
  944SOL    HW2 2832   1.459   0.897   2.035  0.7664 -1.1731  1.4801
  945SOL     OW 2833   2.877   2.974   0.291 -0.6558  0.0089 -0.3010
  945SOL    HW1 2834   2.820   2.926   0.223  1.8393  0.7833 -1.0506
  945SOL    HW2 2835   2.866   3.072   0.277 -1.4840 -0.6762  0.4384
  946SOL     OW 2836   2.935   0.608   1.951 -0.2943 -0.2024 -0.4582
  946SOL    HW1 2837   2.918   0.594   2.050 -0.5670  0.4160  0.1932
  946SOL    HW2 2838   2.845   0.610   1.904  1.3254  1.6026  0.4609
  947SOL     OW 2839   0.535   2.896   0.381  0.2016 -0.2841 -0.1230
  947SOL    HW1 2840   0.578   2.869   0.471 -2.8186 -1.0200  2.4635
  947SOL    HW2 2841   0.551   2.827   0.309  2.3184 -1.2349  1.8996
  948SOL     OW 2842   2.183   1.116   1.874 -0.1451  0.0837  0.1395
  948SOL    HW1 2843   2.143   1.207   1.852  1.2465 -0.8737  2.1022
  948SOL    HW2 2844   2.117   1.043   1.845  0.6698 -0.2021 -2.1506
  949SOL     OW 2845   0.507   0.796   2.795 -0.2376 -0.2648 -0.6418
  949SOL    HW1 2846   0.497   0.825   2.698 -0.5890 -1.6866  2.7976
  949SOL    HW2 2847   0.438   0.721   2.812  0.7224 -1.8921  1.0655
  950SOL     OW 2848   0.642   0.431   0.932  0.0430 -0.3254  0.0549
  950SOL    HW1 2849   0.626   0.331   0.907  0.0841 -2.7069  1.9477
  950SOL    HW2 2850   0.730   0.465   0.897 -1.4046 -1.8832  0.2917
  951SOL     OW 2851   0.989   1.470   2.545 -0.3491 -0.1113  0.2460
  951SOL    HW1 2852   0.943   1.532   2.479  1.7134  0.4256 -0.6029
  951SOL    HW2 2853   1.044   1.399   2.495  0.4070 -1.3090 -1.1020
  952SOL     OW 2854   1.000   1.485   0.139 -0.2640  0.0224  0.2301
  952SOL    HW1 2855   1.036   1.504   0.048  1.9419  0.1511  2.8163
  952SOL    HW2 2856   0.931   1.555   0.170 -1.1490  4.0269 -0.8514
  953SOL     OW 2857   2.437   3.024   2.436 -0.7131  0.0544 -0.0512
  953SOL    HW1 2858   2.482   0.003   2.386  1.8582 -0.2553 -0.1886
  953SOL    HW2 2859   2.501   2.942   2.432 -0.8688  1.7061 -0.1986
  954SOL     OW 2860   1.701   1.154   0.773 -0.1544  0.2275 -0.2700
  954SOL    HW1 2861   1.711   1.080   0.703  1.5082  0.1494  1.1924
  954SOL    HW2 2862   1.658   1.239   0.734  1.7901 -2.3945 -1.2398
  955SOL     OW 2863   0.181   2.058   2.255 -0.1779 -0.0450 -0.4817
  955SOL    HW1 2864   0.138   2.145   2.236 -0.0045  2.5257 -1.6896
  955SOL    HW2 2865   0.251   2.034   2.179  0.1980 -1.1510 -0.5912
  956SOL     OW 2866   1.549   0.522   2.166  0.1361 -0.0770 -0.3084
  956SOL    HW1 2867   1.478   0.584   2.206  1.2398  0.6760  2.7598
  956SOL    HW2 2868   1.637   0.551   2.204 -1.9438  0.1353 -1.5709
  957SOL     OW 2869   1.791   2.002   2.906 -0.3477  0.1570  0.2423
  957SOL    HW1 2870   1.756   1.906   2.904 -0.9398 -2.9195  0.7998
  957SOL    HW2 2871   1.794   2.046   2.999 -0.7533  0.2185 -0.1155
  958SOL     OW 2872   0.891   2.223   1.592 -0.0213 -0.0977  0.1240
  958SOL    HW1 2873   0.980   2.258   1.626 -1.7586 -0.8271  0.7434
  958SOL    HW2 2874   0.851   2.284   1.519 -1.1909 -0.1350  1.5310
  959SOL     OW 2875   2.097   2.525   2.880  0.0695  0.0497 -0.2034
  959SOL    HW1 2876   2.072   2.453   2.808  1.4950 -2.4545  1.4298
  959SOL    HW2 2877   2.177   2.501   2.940 -1.3126 -1.3622 -0.8176
  960SOL     OW 2878   2.890   0.606   2.506 -0.0874  0.1103  0.5588
  960SOL    HW1 2879   2.961   0.679   2.520 -1.7333  2.0940  2.4897
  960SOL    HW2 2880   2.798   0.652   2.526 -1.8008 -0.1754  1.0804
  961SOL     OW 2881   0.872   0.758   2.470  0.5429 -0.1046  0.1984
  961SOL    HW1 2882   0.789   0.698   2.475  0.3201  1.5754 -0.7844
  961SOL    HW2 2883   0.957   0.705   2.481 -0.0630 -1.3435 -2.6621
  962SOL     OW 2884   0.717   1.183   2.687  0.4329  0.0729 -0.7907
  962SOL    HW1 2885   0.631   1.140   2.727 -2.7412 -0.5047  2.1853
  962SOL    HW2 2886   0.743   1.135   2.603 -0.6439  1.6712 -0.0764
  963SOL     OW 2887   2.518   2.325   0.200  0.3880  0.2214 -0.9196
  963SOL    HW1 2888   2.588   2.359   0.134  1.0898 -2.9411  1.8051
  963SOL    HW2 2889   2.481   2.399   0.265  0.3232 -1.6062  1.1631
  964SOL     OW 2890   1.097   2.600   1.178  0.5341  0.8200  1.2016
  964SOL    HW1 2891   1.082   2.536   1.256 -0.1224  2.1680  2.5060
  964SOL    HW2 2892   1.041   2.687   1.192  0.1572  0.8197  0.4410
  965SOL     OW 2893   1.255   1.431   0.674  0.2370  0.5183  0.4673
  965SOL    HW1 2894   1.325   1.399   0.744 -0.9400 -2.2438 -2.2342
  965SOL    HW2 2895   1.208   1.519   0.698 -2.3691  2.3554  0.8742
  966SOL     OW 2896   0.352   1.537   0.187 -0.5518 -0.1957  0.4024
  966SOL    HW1 2897   0.302   1.509   0.273 -0.2431 -0.8111  4.2015
  966SOL    HW2 2898   0.294   1.593   0.132 -0.0473 -0.7789  0.9843
  967SOL     OW 2899   1.861   0.251   1.945 -0.3437  0.1731  0.1660
  967SOL    HW1 2900   1.920   0.334   1.962 -0.6626 -1.2787 -0.6906
  967SOL    HW2 2901   1.767   0.269   1.982  1.4533 -1.8435  0.2894
  968SOL     OW 2902   1.785   0.837   0.663 -0.3060 -0.4040 -0.1939
  968SOL    HW1 2903   1.785   0.818   0.565 -0.9496  0.7359 -1.2773
  968SOL    HW2 2904   1.701   0.792   0.700  1.9666  1.9112 -0.2134
  969SOL     OW 2905   0.240   1.274   2.391 -0.4541  0.0876  0.5035
  969SOL    HW1 2906   0.234   1.335   2.307  0.6195 -0.4947 -1.8768
  969SOL    HW2 2907   0.339   1.257   2.403 -1.7989  1.3097  0.5040
  970SOL     OW 2908   2.246   1.447   1.244  0.3150 -0.2553  0.1797
  970SOL    HW1 2909   2.257   1.404   1.153 -1.1591  0.3590 -0.9387
  970SOL    HW2 2910   2.264   1.547   1.237  1.1743  3.5841 -0.5921
  971SOL     OW 2911   0.105   0.165   1.156  0.1681  0.5971 -0.4853
  971SOL    HW1 2912   0.120   0.255   1.119 -0.4587 -2.5889 -0.6421
  971SOL    HW2 2913   0.175   0.102   1.122  0.3469  0.9722 -1.7670
  972SOL     OW 2914   0.289   0.633   2.820  0.5665 -0.3068  0.6097
  972SOL    HW1 2915   0.322   0.598   2.910 -1.0451 -1.2579 -0.0677
  972SOL    HW2 2916   0.270   0.558   2.747 -0.1726  1.2861 -1.8450
  973SOL     OW 2917   3.032   0.644   0.816  0.1932  0.0050  0.2956
  973SOL    HW1 2918   3.053   0.598   0.724 -0.5898  1.1094 -2.6575
  973SOL    HW2 2919   3.005   0.569   0.880  0.7513 -0.6286 -3.1727
  974SOL     OW 2920   2.257   0.498   2.056  0.1797 -0.4467  0.2143
  974SOL    HW1 2921   2.284   0.594   2.085  0.4841 -2.2073  1.9581
  974SOL    HW2 2922   2.188   0.450   2.113  0.6725  0.4585 -0.3987
  975SOL     OW 2923   2.782   0.168   0.218  0.0791 -0.4220 -0.5488
  975SOL    HW1 2924   2.723   0.178   0.305 -0.1358  1.4916  1.1704
  975SOL    HW2 2925   2.872   0.215   0.226  3.1375  2.7548 -1.9265
  976SOL     OW 2926   0.321   1.517   1.435 -0.9587  0.3022  0.7273
  976SOL    HW1 2927   0.270   1.443   1.488 -2.8721 -3.1481  1.5641
  976SOL    HW2 2928   0.319   1.607   1.475  1.0245 -4.8073 -3.0612
  977SOL     OW 2929   1.090   2.418   0.008 -0.0279 -0.0109 -0.1470
  977SOL    HW1 2930   1.144   2.395   0.090 -0.0792 -2.1913 -1.6303
  977SOL    HW2 2931   1.082   2.343   3.038 -0.4937 -1.4395  1.8798
  978SOL     OW 2932   0.424   1.276   2.824 -0.4219 -0.4906  0.3232
  978SOL    HW1 2933   0.339   1.297   2.882  1.6079  0.0723 -1.3091
  978SOL    HW2 2934   0.471   1.192   2.864 -0.1267  1.5080  2.9093
  979SOL     OW 2935   1.879   1.731   1.106  0.4640 -0.1404 -0.0684
  979SOL    HW1 2936   1.861   1.633   1.112 -0.7326  1.7900 -0.7482
  979SOL    HW2 2937   1.959   1.751   1.166  0.3161  2.8478  3.2550
  980SOL     OW 2938   0.445   1.556   1.756  0.7553  0.4020  0.0259
  980SOL    HW1 2939   0.350   1.519   1.734 -0.5016 -2.5219 -1.9598
  980SOL    HW2 2940   0.480   1.519   1.844 -1.2576 -0.2584  1.0125
  981SOL     OW 2941   2.864   1.589   0.384  0.0742 -0.1715  0.0411
  981SOL    HW1 2942   2.956   1.626   0.383 -2.7427 -0.5786  1.0066
  981SOL    HW2 2943   2.855   1.509   0.453 -0.7363 -1.2101 -0.3716
  982SOL     OW 2944   2.376   2.388   2.000 -0.2929 -0.0201  0.0046
  982SOL    HW1 2945   2.323   2.473   2.001 -0.0779 -0.3195  0.7475
  982SOL    HW2 2946   2.455   2.410   1.947 -0.8413  1.5564  3.5178
  983SOL     OW 2947   1.239   0.141   1.146 -0.2344 -0.5932  0.7670
  983SOL    HW1 2948   1.206   0.090   1.222 -2.4488  0.2875 -0.6263
  983SOL    HW2 2949   1.235   0.243   1.166  0.6376  0.9540  2.0076
  984SOL     OW 2950   1.385   2.655   2.938 -0.2565  0.3230 -0.1983
  984SOL    HW1 2951   1.421   2.682   2.851 -1.4853  1.5503  1.9582
  984SOL    HW2 2952   1.454   2.671   3.010  1.4241  1.1647 -0.2257
  985SOL     OW 2953   1.875   2.148   1.470  0.3846 -0.7418 -0.3339
  985SOL    HW1 2954   1.841   2.082   1.535  1.3428  1.7334 -2.4314
  985SOL    HW2 2955   1.921   2.105   1.394 -1.7565  1.3566  4.6289
  986SOL     OW 2956   2.384   3.020   2.711 -0.1600 -0.5199 -0.9988
  986SOL    HW1 2957   2.392   3.042   2.610 -0.4673  1.4052 -0.9544
  986SOL    HW2 2958   2.478   3.038   2.755  1.2367 -1.4187  3.4939
  987SOL     OW 2959   2.749   0.921   2.239  0.6040  0.0493 -0.6956
  987SOL    HW1 2960   2.683   0.888   2.309  0.6034  2.8688 -2.0860
  987SOL    HW2 2961   2.706   0.991   2.182  0.8336 -2.7023 -0.3954
  988SOL     OW 2962   2.463   0.936   2.789 -0.2046 -0.1621  0.0526
  988SOL    HW1 2963   2.425   0.838   2.785 -0.2424 -2.3885 -1.2252
  988SOL    HW2 2964   2.461   0.978   2.698 -0.4290 -2.0725  1.2070
  989SOL     OW 2965   1.953   1.339   1.863  0.0753  0.5417 -0.2731
  989SOL    HW1 2966   1.912   1.327   1.770  0.3312  0.7899 -1.0735
  989SOL    HW2 2967   2.041   1.393   1.869 -0.9741 -0.0987 -0.1930
  990SOL     OW 2968   0.422   1.086   0.162 -0.3798  0.1207  0.4729
  990SOL    HW1 2969   0.511   1.067   0.117 -0.5941  1.2008  1.8108
  990SOL    HW2 2970   0.354   1.102   0.092  1.3595  0.3389  2.4000
  991SOL     OW 2971   0.372   1.896   2.761 -0.3141  0.1741  0.4874
  991SOL    HW1 2972   0.299   1.821   2.768 -1.0747 -0.0369 -1.4278
  991SOL    HW2 2973   0.419   1.881   2.669  1.6084 -1.5992  1.3785
  992SOL     OW 2974   2.680   2.037   1.932  0.2013 -0.2185  0.5332
  992SOL    HW1 2975   2.667   2.118   1.867  0.4829  0.1858 -1.4944
  992SOL    HW2 2976   2.616   1.966   1.904  2.9763  1.3802  1.1310
  993SOL     OW 2977   0.217   0.122   0.290 -0.2977  0.2249  0.0957
  993SOL    HW1 2978   0.287   0.091   0.354  0.7855  1.0249  1.5008
  993SOL    HW2 2979   0.128   0.111   0.335  2.7689 -0.6658 -0.7518
  994SOL     OW 2980   0.305   1.761   1.505 -0.0365 -0.3362 -0.0024
  994SOL    HW1 2981   0.282   1.812   1.589 -0.4454 -0.7097 -1.4014
  994SOL    HW2 2982   0.249   1.791   1.427  2.3093  0.0235  2.7543
  995SOL     OW 2983   1.971   1.746   2.880 -0.3636 -0.4581 -0.0463
  995SOL    HW1 2984   1.902   1.674   2.857  0.1475 -0.6707 -1.7809
  995SOL    HW2 2985   1.983   1.808   2.800 -0.3212 -0.5438  2.3123
  996SOL     OW 2986   1.715   1.586   0.047  0.2257 -0.0174 -0.1367
  996SOL    HW1 2987   1.661   1.543   0.125  0.2413 -1.3019  0.6643
  996SOL    HW2 2988   1.654   1.619   3.070  4.2629 -1.4782  1.3203
  997SOL     OW 2989   1.369   1.425   1.605  0.5847 -0.2832 -0.3691
  997SOL    HW1 2990   1.291   1.441   1.544  1.3371  1.8057 -2.3841
  997SOL    HW2 2991   1.366   1.327   1.642 -1.5431  0.8566  2.2740
  998SOL     OW 2992   2.559   2.332   1.078  0.4153 -0.2951 -0.4784
  998SOL    HW1 2993   2.545   2.431   1.064  1.9910  0.2510  3.5397
  998SOL    HW2 2994   2.623   2.303   1.006 -1.0815  0.3430 -0.8497
  999SOL     OW 2995   2.166   2.401   0.422 -0.0881  0.0600  0.1093
  999SOL    HW1 2996   2.254   2.453   0.418 -2.2984  0.5085  0.8763
  999SOL    HW2 2997   2.173   2.313   0.464 -2.3720  0.2349 -0.8057
 1000SOL     OW 2998   0.904   2.775   0.018  0.3681  0.1249  0.1344
 1000SOL    HW1 2999   0.977   2.717   3.076 -2.2511 -2.3090 -0.6189
 1000SOL    HW2 3000   0.893   2.868   3.075  2.4852  2.0461 -1.0097
   3.09716   3.09716   3.09716
