1000 SPC/Fw water molecules t= 487.00000 step= 487000
 3000
    1SOL     OW    1   2.764   3.079   1.437  0.0202  0.5572  0.2006
    1SOL    HW1    2   2.793   0.014   1.351 -0.4575  1.6429 -1.4929
    1SOL    HW2    3   2.677   3.116   1.474  1.0193 -1.6308 -2.4729
    2SOL     OW    4   3.104   2.649   3.056 -0.1023 -0.0662  0.2987
    2SOL    HW1    5   3.043   2.657   2.976 -2.9087  1.2074  2.1085
    2SOL    HW2    6   3.069   2.579   0.002  0.8061  1.8769  0.9719
    3SOL     OW    7   0.961   2.039   0.072 -0.5606 -0.1957  0.4955
    3SOL    HW1    8   0.886   2.089   0.024 -2.7368  1.5671 -1.2954
    3SOL    HW2    9   0.963   2.078   0.165 -2.5544  0.8201  1.9391
    4SOL     OW   10   1.254   2.823   2.277  0.4733 -0.7716  0.3042
    4SOL    HW1   11   1.187   2.892   2.232 -1.7254  2.3677  0.5880
    4SOL    HW2   12   1.210   2.796   2.368 -1.0862 -0.1033  3.4714
    5SOL     OW   13   2.034   0.256   3.097 -0.6307 -0.3495  0.2727
    5SOL    HW1   14   2.031   0.163   3.048  2.0101  3.4889  1.4832
    5SOL    HW2   15   2.027   0.249   0.079  1.1205 -2.4656  0.5027
    6SOL     OW   16   3.064   1.415   0.855 -0.0682  0.2296  0.0568
    6SOL    HW1   17   3.076   1.426   0.957  1.3822  0.9156  1.9440
    6SOL    HW2   18   0.031   1.453   0.813 -0.9071 -0.5024 -0.0168
    7SOL     OW   19   0.960   1.968   0.576 -0.3046  0.0779  0.0974
    7SOL    HW1   20   0.979   1.876   0.533  3.0615 -3.3730 -1.8533
    7SOL    HW2   21   0.898   1.955   0.657  0.0563  0.8272 -1.2109
    8SOL     OW   22   0.582   0.413   0.394  0.1975  0.4499 -0.2630
    8SOL    HW1   23   0.665   0.469   0.362 -1.4731  2.4965 -0.1620
    8SOL    HW2   24   0.500   0.462   0.364  0.7843 -0.2796  1.1370
    9SOL     OW   25   0.175   2.560   1.739 -0.3878 -0.1502 -0.2194
    9SOL    HW1   26   0.185   2.617   1.823 -0.8716 -2.5557  0.8394
    9SOL    HW2   27   0.183   2.622   1.659  0.0667  1.2844 -1.9519
   10SOL     OW   28   1.434   1.784   0.360  0.8078 -0.1386  0.2814
   10SOL    HW1   29   1.474   1.756   0.271 -0.7933 -0.1490  2.1811
   10SOL    HW2   30   1.471   1.873   0.383 -0.6471  0.4821 -3.5011
   11SOL     OW   31   1.824   0.664   1.563 -0.1292 -0.7695  0.0006
   11SOL    HW1   32   1.770   0.689   1.644  1.0424 -0.0138 -0.8213
   11SOL    HW2   33   1.864   0.572   1.568 -0.6232  0.2111 -0.6331
   12SOL     OW   34   0.499   0.753   2.160  0.0014  0.1423  0.0054
   12SOL    HW1   35   0.593   0.793   2.180  6.5815  1.4857  3.3115
   12SOL    HW2   36   0.487   0.669   2.213 -0.5029 -0.2294  1.3949
   13SOL     OW   37   2.092   0.133   0.457  0.2215 -0.2040 -0.5110
   13SOL    HW1   38   2.019   0.066   0.433 -0.5678 -3.6059  0.3958
   13SOL    HW2   39   2.067   0.199   0.532 -1.3868  1.3752  2.1156
   14SOL     OW   40   2.595   2.141   0.141 -0.3191  0.2291 -0.1763
   14SOL    HW1   41   2.513   2.203   0.138  1.4170  1.5419 -0.5264
   14SOL    HW2   42   2.623   2.104   0.048 -0.8347  0.9818 -2.7074
   15SOL     OW   43   2.639   3.070   2.771 -0.1812 -0.6994 -0.1360
   15SOL    HW1   44   2.628   3.008   2.691 -0.1796 -1.6046  2.1430
   15SOL    HW2   45   2.551   3.117   2.795  1.7947  0.7073 -0.0261
   16SOL     OW   46   2.976   0.711   1.052  0.0068  0.3210 -1.1064
   16SOL    HW1   47   3.051   0.643   1.042  0.5079 -1.7394 -0.1501
   16SOL    HW2   48   2.909   0.697   0.976 -0.7112  1.3135 -2.2683
   17SOL     OW   49   0.550   0.301   1.036 -0.5914  0.1492  0.4262
   17SOL    HW1   50   0.601   0.355   0.963  0.0667  2.6473 -3.2743
   17SOL    HW2   51   0.547   0.357   1.119  0.1602 -1.2882 -1.4508
   18SOL     OW   52   2.955   0.130   0.489  0.2554  0.7880  0.0359
   18SOL    HW1   53   2.961   0.100   0.588 -0.8861 -1.3049  2.1733
   18SOL    HW2   54   3.043   0.170   0.451  2.4657  0.2916 -1.7409
   19SOL     OW   55   1.892   1.867   0.800  0.0007 -0.4038  0.2751
   19SOL    HW1   56   1.869   1.918   0.716  2.0312  1.9243 -1.6448
   19SOL    HW2   57   1.966   1.800   0.781 -0.2315 -1.5822  0.0798
   20SOL     OW   58   2.117   1.660   2.373 -0.1061  0.4361  0.8204
   20SOL    HW1   59   2.018   1.641   2.353 -1.3820  0.4177 -2.3834
   20SOL    HW2   60   2.131   1.729   2.445  1.1405  0.0446  0.7846
   21SOL     OW   61   1.194   0.255   0.289  0.0803  0.2584 -0.1068
   21SOL    HW1   62   1.157   0.199   0.206  1.4458 -0.4841 -2.0724
   21SOL    HW2   63   1.296   0.239   0.282  3.6599  1.2915  1.0471
   22SOL     OW   64   2.492   0.972   3.095  0.2979 -0.2382  0.3144
   22SOL    HW1   65   2.583   0.933   3.071 -1.2060 -0.6210 -0.4713
   22SOL    HW2   66   2.436   0.970   3.011  0.1564 -0.7076  1.4159
   23SOL     OW   67   0.268   0.200   2.470 -0.2453 -0.4832 -0.4990
   23SOL    HW1   68   0.254   0.129   2.400  1.5124 -1.1071 -2.2653
   23SOL    HW2   69   0.365   0.195   2.507 -0.5667  0.9262  0.6937
   24SOL     OW   70   2.204   2.442   0.937 -0.0988 -0.4973 -0.3587
   24SOL    HW1   71   2.233   2.476   1.028 -0.6960 -0.8328 -3.2415
   24SOL    HW2   72   2.121   2.386   0.942  0.3692  0.2302 -2.2033
   25SOL     OW   73   1.537   0.432   0.153  0.1061 -0.1939 -0.3108
   25SOL    HW1   74   1.585   0.339   0.159  0.1313 -2.3267  0.5537
   25SOL    HW2   75   1.617   0.492   0.133  3.0301  3.3496 -0.3048
   26SOL     OW   76   1.123   2.756   2.785 -0.3049  0.2857 -0.1388
   26SOL    HW1   77   1.084   2.830   2.843 -0.8656  1.8456  0.8120
   26SOL    HW2   78   1.166   2.685   2.842 -1.3996  1.2309 -2.0971
   27SOL     OW   79   1.034   0.910   1.448  1.3087 -0.0715  0.3701
   27SOL    HW1   80   1.130   0.913   1.413  0.1628  0.8238  0.0779
   27SOL    HW2   81   0.980   0.979   1.403  2.1404 -1.0386  2.6048
   28SOL     OW   82   0.761   1.985   1.296  0.3435 -0.4734  0.5361
   28SOL    HW1   83   0.806   1.962   1.205 -1.1264 -0.5594 -0.9673
   28SOL    HW2   84   0.818   1.956   1.374 -1.8168  1.4862 -1.7864
   29SOL     OW   85   2.748   0.379   0.762  0.0589  0.0722  0.1460
   29SOL    HW1   86   2.734   0.326   0.848 -1.9149  0.7495  0.3019
   29SOL    HW2   87   2.767   0.476   0.787  1.1615 -0.9278  0.4367
   30SOL     OW   88   1.576   0.190   1.717  0.2300 -0.0548  0.0121
   30SOL    HW1   89   1.601   0.115   1.651  1.7982  3.2670  0.5080
   30SOL    HW2   90   1.479   0.174   1.748 -0.0682  0.5946 -0.3212
   31SOL     OW   91   1.102   0.161   1.247 -0.2894  0.4847 -0.1067
   31SOL    HW1   92   1.197   0.123   1.237  0.5852 -0.2566  0.9527
   31SOL    HW2   93   1.027   0.091   1.234  0.8248 -0.3444 -0.4396
   32SOL     OW   94   2.337   0.942   2.174  0.2283 -0.0083  0.6533
   32SOL    HW1   95   2.426   0.991   2.178 -1.1257 -1.6459 -0.0877
   32SOL    HW2   96   2.287   0.966   2.084 -0.0780  0.0528  0.7169
   33SOL     OW   97   2.539   2.881   2.595  0.4612 -0.2417  0.2642
   33SOL    HW1   98   2.437   2.866   2.592 -0.7568 -2.2604  0.9416
   33SOL    HW2   99   2.594   2.804   2.553 -0.2113 -0.6110  0.2543
   34SOL     OW  100   1.952   0.921   3.082  0.2239 -0.0713 -0.9663
   34SOL    HW1  101   2.004   0.929   0.049 -0.1501  1.2413 -1.2272
   34SOL    HW2  102   1.857   0.952   3.112 -1.3081 -0.9728 -0.1054
   35SOL     OW  103   2.914   1.197   1.148 -0.4181  0.2748 -0.5169
   35SOL    HW1  104   2.977   1.147   1.088 -1.2032  2.0173  2.1991
   35SOL    HW2  105   2.841   1.137   1.183  0.5599 -0.0706 -0.5352
   36SOL     OW  106   2.336   2.425   2.780  0.9681  0.6777 -0.1512
   36SOL    HW1  107   2.430   2.456   2.760  0.6253 -1.2106 -1.0963
   36SOL    HW2  108   2.325   2.326   2.740 -0.5572 -2.8159 -0.7436
   37SOL     OW  109   1.822   0.102   2.158 -0.3436  0.6557  0.4178
   37SOL    HW1  110   1.802   0.070   2.064 -0.3097  0.6567 -1.6583
   37SOL    HW2  111   1.926   0.115   2.163  1.9427 -0.8606  0.9520
   38SOL     OW  112   1.317   1.661   2.349 -0.5534  0.4055 -0.5076
   38SOL    HW1  113   1.322   1.742   2.287 -1.8394  0.1711 -1.3870
   38SOL    HW2  114   1.405   1.622   2.379 -0.6162 -0.2658 -0.9344
   39SOL     OW  115   1.665   0.419   1.614 -0.4835 -0.0914  0.9409
   39SOL    HW1  116   1.600   0.486   1.570  0.7247 -0.9141  1.3964
   39SOL    HW2  117   1.620   0.329   1.639  0.7850  1.0774 -1.6171
   40SOL     OW  118   0.941   2.438   0.525 -0.3462 -0.1473 -0.5065
   40SOL    HW1  119   0.978   2.354   0.568  1.8666 -0.8053 -1.6171
   40SOL    HW2  120   0.962   2.524   0.579 -0.6366 -0.7411  0.3492
   41SOL     OW  121   2.337   2.338   1.317  0.1767 -0.0067  0.3156
   41SOL    HW1  122   2.313   2.409   1.250  2.1462 -0.7631 -0.3624
   41SOL    HW2  123   2.413   2.280   1.280  1.1431 -0.6438  1.2145
   42SOL     OW  124   2.481   2.856   0.274 -0.4692  0.7924 -0.2466
   42SOL    HW1  125   2.497   2.919   0.198 -0.4089 -0.7460  2.7030
   42SOL    HW2  126   2.538   2.874   0.357 -1.6600  1.8601  0.7457
   43SOL     OW  127   1.015   1.787   2.134 -0.1101  0.0798 -0.5252
   43SOL    HW1  128   1.016   1.690   2.105 -1.2866  2.5573 -0.3590
   43SOL    HW2  129   1.104   1.810   2.180  0.9312  0.8512  1.8168
   44SOL     OW  130   1.776   2.996   1.218  0.3080  0.0139  0.2837
   44SOL    HW1  131   1.827   3.026   1.132 -1.6355  0.3048 -0.6681
   44SOL    HW2  132   1.793   3.057   1.297 -3.0669  2.3713 -0.7760
   45SOL     OW  133   0.172   2.150   2.510  0.2983  0.1615 -0.0016
   45SOL    HW1  134   0.255   2.123   2.559 -1.7412 -1.7688 -0.4157
   45SOL    HW2  135   0.094   2.168   2.576 -0.8383 -2.5440  2.3167
   46SOL     OW  136   0.676   2.571   1.809  0.4837 -0.0396  0.0301
   46SOL    HW1  137   0.607   2.518   1.861  0.0846 -0.2444  0.3650
   46SOL    HW2  138   0.749   2.603   1.868 -2.6466  2.0104  0.5444
   47SOL     OW  139   0.343   1.869   0.557 -0.3513 -0.2868 -0.2813
   47SOL    HW1  140   0.363   1.934   0.634 -1.0496  0.3324  0.1868
   47SOL    HW2  141   0.424   1.846   0.501 -1.7308  0.2577  1.7792
   48SOL     OW  142   0.752   2.831   1.489  0.6195 -0.9172  0.1421
   48SOL    HW1  143   0.677   2.789   1.434 -0.3527 -1.9039 -2.7500
   48SOL    HW2  144   0.711   2.893   1.560 -2.1128 -2.1232  0.2098
   49SOL     OW  145   0.366   2.690   0.162  0.3917  0.0564  0.1441
   49SOL    HW1  146   0.380   2.787   0.137 -0.1851  0.0119 -1.0512
   49SOL    HW2  147   0.330   2.678   0.253  1.9860  1.0772 -0.2532
   50SOL     OW  148   1.688   0.985   0.581  0.0165 -0.4554 -0.0094
   50SOL    HW1  149   1.623   0.998   0.664  1.8311 -0.1470  0.9452
   50SOL    HW2  150   1.755   1.061   0.580 -1.6685  0.7604 -1.2130
   51SOL     OW  151   1.854   3.005   0.925 -0.0282 -0.3251  0.2446
   51SOL    HW1  152   1.838   2.901   0.926 -1.7120 -0.5750  2.1374
   51SOL    HW2  153   1.777   3.060   0.891 -1.9460  1.4023  0.8436
   52SOL     OW  154   0.553   1.699   0.983 -0.0813  0.7412  0.2906
   52SOL    HW1  155   0.553   1.597   1.000 -0.7321 -1.7349  3.0089
   52SOL    HW2  156   0.475   1.743   1.029  1.1514 -1.1916 -2.5783
   53SOL     OW  157   0.109   0.890   2.727  0.0518  0.3048  0.3044
   53SOL    HW1  158   0.065   0.975   2.768 -0.5751  1.8169  0.7458
   53SOL    HW2  159   0.132   0.823   2.804  0.5785 -0.7805  0.3745
   54SOL     OW  160   2.163   2.027   2.796 -0.3559 -0.7137  0.6841
   54SOL    HW1  161   2.074   2.076   2.783 -0.0669  1.0397 -3.8789
   54SOL    HW2  162   2.197   2.011   2.888 -0.9154 -2.0842 -4.0543
   55SOL     OW  163   2.604   2.214   1.272  0.0827 -0.0711 -0.3355
   55SOL    HW1  164   2.659   2.268   1.207 -1.1795 -0.5625  2.6035
   55SOL    HW2  165   2.624   2.243   1.367  1.6429  0.1048 -2.4115
   56SOL     OW  166   1.416   1.094   1.750  0.1306 -0.8873  0.7231
   56SOL    HW1  167   1.346   1.147   1.804 -2.6270  1.6542 -1.0340
   56SOL    HW2  168   1.486   1.156   1.710  0.5638 -1.5339  2.7672
   57SOL     OW  169   2.177   2.099   0.854  0.1738 -0.7116  0.7766
   57SOL    HW1  170   2.109   2.125   0.925 -1.8028  2.8985  1.4384
   57SOL    HW2  171   2.249   2.170   0.841 -1.1880  0.7946 -0.0511
   58SOL     OW  172   1.998   0.380   2.268 -0.1813 -0.6405 -0.8479
   58SOL    HW1  173   2.040   0.451   2.327 -0.4355  1.9018  1.3266
   58SOL    HW2  174   1.988   0.422   2.176  0.1801 -0.6746 -0.3282
   59SOL     OW  175   1.445   0.152   2.650  0.3532 -0.6162  0.6591
   59SOL    HW1  176   1.412   0.158   2.748  2.1837 -2.3327  0.4086
   59SOL    HW2  177   1.386   0.088   2.595 -3.1565  0.7648  2.3581
   60SOL     OW  178   1.811   1.853   3.028 -0.6133  0.3177 -0.0821
   60SOL    HW1  179   1.728   1.853   3.087  3.6187 -0.5957  1.7935
   60SOL    HW2  180   1.819   1.936   2.973  2.0570  2.6426  0.5128
   61SOL     OW  181   0.565   2.010   3.046  0.7748 -0.2816  0.0016
   61SOL    HW1  182   0.583   1.939   3.113  0.4962  2.2129  0.4327
   61SOL    HW2  183   0.468   2.019   3.010  1.7582  2.0334 -0.8115
   62SOL     OW  184   1.366   2.404   1.358  0.2989 -0.3953 -0.3040
   62SOL    HW1  185   1.289   2.429   1.298  1.0510 -1.9961 -3.2056
   62SOL    HW2  186   1.332   2.372   1.447 -1.2881  2.1145  0.0575
   63SOL     OW  187   0.927   2.095   0.341 -0.2187 -0.1397  0.5203
   63SOL    HW1  188   0.830   2.123   0.350 -1.6826 -1.5266  2.4966
   63SOL    HW2  189   0.937   2.030   0.416  0.5677  0.1442 -0.0219
   64SOL     OW  190   1.810   1.827   2.554  0.1980  0.0017  0.1544
   64SOL    HW1  191   1.833   1.731   2.564 -0.1842 -1.8623  0.5125
   64SOL    HW2  192   1.876   1.880   2.501 -0.5419  0.8690  1.4522
   65SOL     OW  193   1.782   2.121   1.163  0.1668 -0.2867 -0.2749
   65SOL    HW1  194   1.772   2.028   1.127 -1.1363  2.7517  1.6656
   65SOL    HW2  195   1.783   2.123   1.267  0.3733 -0.6588  0.6925
   66SOL     OW  196   2.718   0.271   0.517 -0.2340 -0.3501 -0.3023
   66SOL    HW1  197   2.803   0.217   0.505  1.8926 -0.7046 -2.0990
   66SOL    HW2  198   2.706   0.287   0.619 -2.1932  0.7964 -2.3192
   67SOL     OW  199   2.061   2.688   1.239  0.2062 -0.6886 -0.0064
   67SOL    HW1  200   1.961   2.682   1.221 -0.1685 -0.2047 -1.3509
   67SOL    HW2  201   2.099   2.766   1.182  0.2311 -0.0410  1.6953
   68SOL     OW  202   2.594   2.535   1.540 -0.2823  0.3644  0.9507
   68SOL    HW1  203   2.514   2.580   1.502  1.0167  0.6918  0.7162
   68SOL    HW2  204   2.609   2.566   1.638 -0.0520 -1.7867  1.1559
   69SOL     OW  205   2.875   2.664   2.869 -0.2825  0.0190  0.3684
   69SOL    HW1  206   2.901   2.739   2.803  0.8730  0.2946  1.5266
   69SOL    HW2  207   2.794   2.691   2.922 -0.1491  0.3564  1.3684
   70SOL     OW  208   1.224   1.904   2.241 -0.0065 -0.2443  0.1748
   70SOL    HW1  209   1.158   1.979   2.270 -4.9789  1.5263 -0.1001
   70SOL    HW2  210   1.324   1.937   2.232 -0.2631 -0.7695  0.4305
   71SOL     OW  211   1.047   1.989   1.937  0.4851  0.0148 -0.1749
   71SOL    HW1  212   1.028   1.911   1.996  0.2632 -0.9159  2.0666
   71SOL    HW2  213   0.967   2.048   1.925  0.3927  0.0683 -0.7217
   72SOL     OW  214   2.688   1.203   1.469 -0.4027 -0.2478 -0.4730
   72SOL    HW1  215   2.755   1.208   1.548 -1.2741  0.1613 -0.1451
   72SOL    HW2  216   2.639   1.291   1.465 -0.6044  0.2679  2.2330
   73SOL     OW  217   0.700   2.201   2.593  0.0896 -0.9580 -0.2365
   73SOL    HW1  218   0.688   2.250   2.504  0.4249 -1.9732  1.0406
   73SOL    HW2  219   0.784   2.234   2.646  0.7318 -0.3169 -1.1009
   74SOL     OW  220   0.799   0.066   2.482  0.2417 -0.2546 -0.7044
   74SOL    HW1  221   0.780   3.091   2.517 -0.9128 -0.7416  1.8529
   74SOL    HW2  222   0.794   0.076   2.383 -2.8913 -1.5551  1.9092
   75SOL     OW  223   0.835   0.069   0.764 -0.1707  0.1360 -0.1578
   75SOL    HW1  224   0.866   3.093   0.780  1.8934 -0.5718  1.7466
   75SOL    HW2  225   0.919   0.127   0.762 -0.2326 -0.3780  0.2044
   76SOL     OW  226   0.517   1.146   2.582 -0.0897  0.4147  0.5365
   76SOL    HW1  227   0.425   1.108   2.575  0.2636 -0.8495 -1.2476
   76SOL    HW2  228   0.522   1.195   2.668 -0.4592  1.2992 -1.6793
   77SOL     OW  229   0.538   2.872   0.530  0.4716 -0.2890  0.2190
   77SOL    HW1  230   0.529   2.916   0.436 -1.0753  0.8749 -1.9525
   77SOL    HW2  231   0.635   2.862   0.564  1.9277  1.7640  1.4758
   78SOL     OW  232   2.589   1.108   2.663  0.1479 -0.1239 -0.5099
   78SOL    HW1  233   2.550   1.160   2.585  0.7961 -0.2447 -1.0343
   78SOL    HW2  234   2.607   1.007   2.638  1.4081 -0.1587 -3.0815
   79SOL     OW  235   1.060   1.459   2.334 -0.3960  0.0844  0.0536
   79SOL    HW1  236   1.090   1.556   2.342  1.2067  1.1547  0.7333
   79SOL    HW2  237   0.968   1.450   2.299  0.8473 -1.1206 -1.1285
   80SOL     OW  238   2.070   1.001   1.518  0.4619  0.2331 -0.0848
   80SOL    HW1  239   2.034   1.090   1.477 -0.0111  1.9565  1.4602
   80SOL    HW2  240   2.168   1.012   1.529 -5.5433 -1.4832  0.4110
   81SOL     OW  241   2.397   0.952   2.836 -0.5983  0.2863 -0.0569
   81SOL    HW1  242   2.306   0.921   2.806 -0.5697 -1.4434 -0.1313
   81SOL    HW2  243   2.442   1.010   2.764 -0.6102 -0.2242  1.6139
   82SOL     OW  244   2.321   2.028   1.641  0.1149 -0.0044 -0.1370
   82SOL    HW1  245   2.384   1.984   1.573 -0.2159  1.3063  0.4471
   82SOL    HW2  246   2.330   1.977   1.726  0.1554  2.8436 -1.1061
   83SOL     OW  247   1.754   2.810   0.347 -0.8697  0.2168 -0.2182
   83SOL    HW1  248   1.678   2.842   0.410 -1.0285  0.1216  0.4420
   83SOL    HW2  249   1.737   2.839   0.251 -1.7409  1.7755 -1.2771
   84SOL     OW  250   0.793   0.726   0.540  0.2956  0.1960 -0.5539
   84SOL    HW1  251   0.854   0.668   0.597  2.4363  0.5224  0.0129
   84SOL    HW2  252   0.702   0.727   0.588  0.3517  0.9331 -0.6277
   85SOL     OW  253   2.122   1.627   1.224  0.0716  0.0442  0.2723
   85SOL    HW1  254   2.162   1.534   1.209 -1.5260  1.0237  0.6090
   85SOL    HW2  255   2.189   1.702   1.209  0.2299 -0.2453  0.7878
   86SOL     OW  256   0.547   0.743   1.163  0.1552  0.8484  0.1586
   86SOL    HW1  257   0.451   0.761   1.136 -0.8294 -2.0223 -3.4869
   86SOL    HW2  258   0.554   0.792   1.248 -0.7516  0.1284 -0.3367
   87SOL     OW  259   0.016   2.035   2.261 -0.4168  0.2192  0.6038
   87SOL    HW1  260   0.053   1.940   2.240  1.6143 -0.1779  2.0366
   87SOL    HW2  261   0.062   2.074   2.340  0.4743  0.6257 -0.1799
   88SOL     OW  262   0.427   2.959   0.049  0.3376  0.6570  0.1114
   88SOL    HW1  263   0.470   2.922   3.081  2.2020 -1.1677  0.5770
   88SOL    HW2  264   0.351   3.024   0.028 -1.6217 -0.0730 -1.4234
   89SOL     OW  265   1.414   0.650   1.280 -0.1986  0.1937  0.2409
   89SOL    HW1  266   1.511   0.687   1.302 -0.5558  0.5600  1.0727
   89SOL    HW2  267   1.405   0.559   1.319 -1.5727  0.9418 -0.9538
   90SOL     OW  268   2.921   1.074   1.988 -0.0161  0.1882 -0.2766
   90SOL    HW1  269   2.927   1.171   1.980 -1.4092 -2.4340 -2.1324
   90SOL    HW2  270   2.955   1.032   1.900 -1.0565  0.2466  0.2722
   91SOL     OW  271   1.809   2.729   0.964 -0.2343  0.7122  0.0330
   91SOL    HW1  272   1.842   2.644   0.915  0.3164 -0.0787  0.9918
   91SOL    HW2  273   1.818   2.720   1.067  1.0066 -1.8317  2.4642
   92SOL     OW  274   1.869   2.063   0.608  0.7398 -0.3859  0.0035
   92SOL    HW1  275   1.955   2.114   0.606  2.6352 -0.7138  0.5588
   92SOL    HW2  276   1.798   2.111   0.552 -0.7660  0.7511 -0.7071
   93SOL     OW  277   0.534   1.462   0.286  0.0665  0.0902 -0.0056
   93SOL    HW1  278   0.553   1.521   0.363 -0.1798 -0.9609  2.5035
   93SOL    HW2  279   0.471   1.383   0.301  0.1316  0.5851 -1.7626
   94SOL     OW  280   0.741   2.328   0.967 -0.6610  0.2567  0.1248
   94SOL    HW1  281   0.830   2.288   0.936 -2.1161 -1.1756  0.8251
   94SOL    HW2  282   0.704   2.279   1.049  0.5642  0.3526 -1.8155
   95SOL     OW  283   0.377   0.797   0.277 -0.3238 -0.3033  0.1899
   95SOL    HW1  284   0.318   0.845   0.341  0.5495  1.3175 -1.1534
   95SOL    HW2  285   0.433   0.865   0.230  2.1342  2.7205  0.5081
   96SOL     OW  286   0.878   2.628   2.005  0.6715 -0.4379 -0.7199
   96SOL    HW1  287   0.944   2.669   1.938  0.9455  0.0110 -1.5814
   96SOL    HW2  288   0.921   2.550   2.049 -2.6774  1.1685 -1.3640
   97SOL     OW  289   2.323   0.980   0.502  1.0244  0.0076  0.0700
   97SOL    HW1  290   2.327   1.020   0.594 -0.6614 -1.9402 -3.3344
   97SOL    HW2  291   2.370   1.047   0.436 -0.2693  0.3340  0.8066
   98SOL     OW  292   0.205   1.828   1.971  0.0402 -0.3058 -0.2203
   98SOL    HW1  293   0.106   1.798   1.979 -2.5951  2.7295 -3.6492
   98SOL    HW2  294   0.269   1.757   1.946 -1.9999 -0.4304 -1.2787
   99SOL     OW  295   0.196   0.442   1.858  0.5409 -0.2574  0.1489
   99SOL    HW1  296   0.285   0.480   1.827  0.1579 -2.2806 -2.7577
   99SOL    HW2  297   0.207   0.352   1.902 -3.2718  1.8563  0.2159
  100SOL     OW  298   2.235   0.728   2.583  0.4010  0.0789 -0.9272
  100SOL    HW1  299   2.202   0.644   2.633 -0.3575 -0.8547  0.2474
  100SOL    HW2  300   2.198   0.814   2.630 -0.8875  2.7043  1.3122
  101SOL     OW  301   1.082   0.458   2.026 -0.0337  0.1168 -0.1442
  101SOL    HW1  302   1.173   0.434   1.990  0.8396  1.2122 -1.0846
  101SOL    HW2  303   1.018   0.382   1.999  0.7201  3.2046 -0.3644
  102SOL     OW  304   0.450   0.520   1.639 -0.4099  0.2916  0.3416
  102SOL    HW1  305   0.396   0.574   1.570  2.0946  0.8962 -1.2328
  102SOL    HW2  306   0.456   0.565   1.729  0.5360 -1.3349 -0.0193
  103SOL     OW  307   0.481   0.668   2.947 -0.2095 -0.3660 -0.1975
  103SOL    HW1  308   0.471   0.587   3.014 -1.3976 -3.7792 -1.0783
  103SOL    HW2  309   0.561   0.727   2.974 -1.0491 -2.2089 -1.6082
  104SOL     OW  310   0.305   2.694   1.950  0.3690  0.3788 -0.4833
  104SOL    HW1  311   0.268   2.781   1.987  1.2266 -0.7201  1.7357
  104SOL    HW2  312   0.321   2.632   2.028 -1.5969  0.8419  0.9639
  105SOL     OW  313   2.481   2.759   1.942 -0.0174 -0.6419 -0.5719
  105SOL    HW1  314   2.545   2.843   1.941  0.8107 -0.3119 -0.4179
  105SOL    HW2  315   2.382   2.783   1.942 -2.3489 -0.0016 -3.1465
  106SOL     OW  316   0.392   3.046   0.732 -0.3641 -0.1021 -0.1781
  106SOL    HW1  317   0.439   0.014   0.766  1.0341  2.1813  3.3607
  106SOL    HW2  318   0.453   2.983   0.674  0.9112  0.7491 -2.2068
  107SOL     OW  319   3.012   1.449   1.147 -0.2413 -0.8199 -0.4266
  107SOL    HW1  320   2.993   1.348   1.147  0.8820  0.2953  2.1338
  107SOL    HW2  321   2.924   1.497   1.172  0.4161 -1.1566  0.5999
  108SOL     OW  322   0.326   2.273   1.051  0.2310  0.4181 -0.3673
  108SOL    HW1  323   0.405   2.265   0.988  0.4185 -2.2388 -0.5506
  108SOL    HW2  324   0.283   2.365   1.055 -0.8292 -3.3430 -1.7797
  109SOL     OW  325   1.167   2.869   0.654  0.2380 -0.0262  0.1699
  109SOL    HW1  326   1.120   2.936   0.710  0.3453 -0.0027 -1.7710
  109SOL    HW2  327   1.199   2.907   0.563  0.4647 -0.4013 -0.7497
  110SOL     OW  328   1.499   2.011   0.510 -0.1513 -0.4756  0.3186
  110SOL    HW1  329   1.580   2.064   0.479  0.6206  0.2916  1.0269
  110SOL    HW2  330   1.510   1.971   0.602 -0.0693 -1.9156 -1.0296
  111SOL     OW  331   1.657   2.849   2.125 -0.1863 -0.0721  0.0077
  111SOL    HW1  332   1.598   2.768   2.124 -0.4775 -2.7763 -0.5673
  111SOL    HW2  333   1.695   2.868   2.215 -1.7679 -1.2628 -1.8101
  112SOL     OW  334   1.803   2.711   2.867  0.1235 -0.2583  0.5373
  112SOL    HW1  335   1.853   2.677   2.784 -0.5997  1.3951 -1.4205
  112SOL    HW2  336   1.871   2.721   2.944  1.6980 -1.8006  0.7007
  113SOL     OW  337   2.422   2.147   2.183  0.1418 -0.2267 -0.1916
  113SOL    HW1  338   2.467   2.216   2.244 -1.5478  3.1479 -2.8847
  113SOL    HW2  339   2.496   2.109   2.125 -3.3025 -2.5292  1.5261
  114SOL     OW  340   0.046   1.219   1.687  0.1011  0.5797  0.6197
  114SOL    HW1  341   0.113   1.142   1.698  3.3550 -1.6317 -1.4124
  114SOL    HW2  342   0.012   1.249   1.777 -2.7610  2.5485 -0.1300
  115SOL     OW  343   0.092   0.741   0.100 -0.1735 -0.1055 -0.0383
  115SOL    HW1  344   0.046   0.779   0.184 -0.2967 -0.8041 -3.1119
  115SOL    HW2  345   0.164   0.808   0.063  2.0937 -1.8114  0.5706
  116SOL     OW  346   2.794   0.423   0.042 -0.5626  0.3858 -0.2152
  116SOL    HW1  347   2.807   0.452   3.061  0.1398 -3.0573 -0.8930
  116SOL    HW2  348   2.792   0.320   0.035 -1.4953 -0.7892  0.2895
  117SOL     OW  349   2.766   2.843   0.723  0.1489 -0.4600  0.3842
  117SOL    HW1  350   2.805   2.751   0.707 -1.5431 -0.2162 -0.3081
  117SOL    HW2  351   2.765   2.858   0.825 -0.3474  0.5233  0.1488
  118SOL     OW  352   0.976   2.397   2.171  0.5754  0.4787 -0.4763
  118SOL    HW1  353   1.067   2.350   2.163  2.8097 -0.4303 -1.8198
  118SOL    HW2  354   0.903   2.323   2.181  0.8451 -2.0723  1.6268
  119SOL     OW  355   0.820   2.489   3.110 -0.0432 -0.2697  0.1850
  119SOL    HW1  356   0.728   2.522   0.027  0.9829 -0.1459  1.3207
  119SOL    HW2  357   0.824   2.386   3.109 -0.7269 -3.6867  3.9175
  120SOL     OW  358   1.398   0.990   0.204 -0.3456  0.2396 -0.3081
  120SOL    HW1  359   1.486   0.980   0.261  0.0677  0.0316 -0.5224
  120SOL    HW2  360   1.412   0.970   0.103  1.8819  0.6661  0.2049
  121SOL     OW  361   1.372   1.151   1.166  0.2840  0.2045 -0.2968
  121SOL    HW1  362   1.454   1.107   1.210 -2.1191 -1.0959 -0.7920
  121SOL    HW2  363   1.388   1.166   1.065  0.1075 -0.1623  2.3351
  122SOL     OW  364   2.002   1.313   2.148 -0.6112 -0.7723 -0.2367
  122SOL    HW1  365   1.913   1.306   2.106  1.4373 -1.9152 -1.9375
  122SOL    HW2  366   2.030   1.225   2.198  2.8595  0.3946  1.4911
  123SOL     OW  367   0.217   0.974   0.446 -0.1461  0.0681 -0.1112
  123SOL    HW1  368   0.282   1.046   0.407 -1.0567 -2.4791 -1.7756
  123SOL    HW2  369   0.198   0.980   0.544 -1.1715 -1.3552 -0.6694
  124SOL     OW  370   0.864   0.154   2.848 -0.1394 -0.6627 -0.2786
  124SOL    HW1  371   0.839   0.208   2.765  1.6864 -0.2312  0.0336
  124SOL    HW2  372   0.906   0.208   2.922 -0.2290  0.7994 -0.6499
  125SOL     OW  373   0.480   2.685   2.842  0.0553  0.7289 -0.4204
  125SOL    HW1  374   0.535   2.613   2.798  2.0786  2.8134  0.0243
  125SOL    HW2  375   0.399   2.643   2.894 -1.4153 -3.0091  0.4581
  126SOL     OW  376   0.750   1.419   2.628 -0.2741 -0.1739 -0.4710
  126SOL    HW1  377   0.762   1.500   2.569  0.9826 -1.5875 -0.3511
  126SOL    HW2  378   0.810   1.419   2.711  0.9356 -1.3022  0.1211
  127SOL     OW  379   1.106   2.963   1.027 -0.1409 -0.3138  0.0877
  127SOL    HW1  380   1.079   3.008   1.114 -1.0286 -0.5866 -0.5680
  127SOL    HW2  381   1.179   3.017   0.981  1.0863  1.5348 -2.3332
  128SOL     OW  382   1.780   2.142   0.190 -0.6203  0.0562  0.2785
  128SOL    HW1  383   1.750   2.120   0.096 -0.6344 -0.7113  0.2836
  128SOL    HW2  384   1.848   2.217   0.194  0.5914  2.5466  1.3244
  129SOL     OW  385   1.876   1.770   1.317  0.5503  0.4300 -0.0539
  129SOL    HW1  386   1.973   1.731   1.310 -0.3852 -1.0244 -2.1023
  129SOL    HW2  387   1.847   1.809   1.225 -1.8412  0.9606 -3.6575
  130SOL     OW  388   2.109   1.893   1.509  0.3303 -0.1778  0.1202
  130SOL    HW1  389   2.069   1.965   1.449  1.3165 -1.3553 -0.3611
  130SOL    HW2  390   2.194   1.924   1.558  1.4693 -1.0282  1.4376
  131SOL     OW  391   0.842   2.951   1.904 -0.1085  0.1336  0.3801
  131SOL    HW1  392   0.806   2.856   1.911 -1.2434 -1.1690 -0.1737
  131SOL    HW2  393   0.765   3.021   1.896  0.7480  1.9515  0.4768
  132SOL     OW  394   2.605   1.527   0.650 -0.3891 -0.0881  0.2741
  132SOL    HW1  395   2.551   1.604   0.686  0.8470  1.2056 -0.6485
  132SOL    HW2  396   2.697   1.526   0.701 -0.3265 -0.0608  0.2519
  133SOL     OW  397   0.656   1.577   1.563 -0.0255  0.0597 -1.0173
  133SOL    HW1  398   0.580   1.524   1.614 -1.0851  0.5606  2.1103
  133SOL    HW2  399   0.669   1.676   1.596  1.4512  1.6297  0.9855
  134SOL     OW  400   0.122   0.998   0.692  0.0037 -0.1300  0.2215
  134SOL    HW1  401   0.041   1.045   0.661  3.8581  0.8545 -0.9984
  134SOL    HW2  402   0.106   0.894   0.689  0.5919 -0.0511  0.9495
  135SOL     OW  403   2.040   1.922   0.112 -0.1333  0.1846  0.1969
  135SOL    HW1  404   2.066   1.854   0.185  1.3555 -0.3684  1.1773
  135SOL    HW2  405   1.963   1.889   0.057  2.1113  1.7433  1.4861
  136SOL     OW  406   2.820   1.550   1.327  0.3629 -0.1267  0.4030
  136SOL    HW1  407   2.871   1.483   1.380 -1.9673  1.6723 -2.9974
  136SOL    HW2  408   2.833   1.640   1.373 -1.2842  0.9882 -0.8312
  137SOL     OW  409   2.729   1.287   2.817  0.0681  0.1820  0.2398
  137SOL    HW1  410   2.678   1.205   2.773  1.7111 -2.2854 -1.2279
  137SOL    HW2  411   2.683   1.314   2.904  0.3939 -0.1454  2.6720
  138SOL     OW  412   3.010   0.205   0.793 -0.1225  0.2633  0.5487
  138SOL    HW1  413   2.944   0.130   0.781  0.4314  1.3817 -3.0602
  138SOL    HW2  414   3.054   0.236   0.708 -0.0915 -1.7031  0.5490
  139SOL     OW  415   2.044   2.286   3.007  0.0517  0.1398 -0.2036
  139SOL    HW1  416   1.983   2.366   3.021 -2.1364  0.8979 -0.5901
  139SOL    HW2  417   2.027   2.257   2.917  0.1741  2.1825  4.4375
  140SOL     OW  418   0.814   1.574   0.741  0.2489 -0.7338 -0.5562
  140SOL    HW1  419   0.779   1.510   0.811 -0.2678  1.9901 -1.3469
  140SOL    HW2  420   0.913   1.562   0.725 -1.1217  1.5617  0.8111
  141SOL     OW  421   1.434   1.543   0.964 -0.1952 -0.1882 -0.0021
  141SOL    HW1  422   1.400   1.495   0.883  1.2055 -1.6087  0.2015
  141SOL    HW2  423   1.533   1.573   0.956  0.5379  0.4976 -1.3624
  142SOL     OW  424   1.021   0.991   1.052 -0.1426  0.2247 -0.3672
  142SOL    HW1  425   0.963   1.040   0.983  1.3571 -0.8716  0.4161
  142SOL    HW2  426   0.985   0.901   1.079  0.5392 -0.6949 -0.7899
  143SOL     OW  427   0.259   0.117   2.825  0.1729  0.2014 -0.5975
  143SOL    HW1  428   0.325   0.056   2.776  1.1617  2.5989  1.7170
  143SOL    HW2  429   0.300   0.207   2.841  0.0853 -1.5165  3.4162
  144SOL     OW  430   2.366   0.162   0.516 -0.5524  0.2402  0.2357
  144SOL    HW1  431   2.410   0.240   0.471  0.8139  0.8334  2.5708
  144SOL    HW2  432   2.264   0.164   0.511  0.0514  0.0499 -0.9011
  145SOL     OW  433   2.018   0.030   2.943  0.1726 -0.0645  0.0512
  145SOL    HW1  434   2.008   0.064   2.847  1.0111  2.4282 -1.3987
  145SOL    HW2  435   2.111   3.113   2.954 -1.4458  0.7738 -0.5639
  146SOL     OW  436   2.969   2.688   0.247  0.1784 -0.3431 -0.5782
  146SOL    HW1  437   2.949   2.748   0.166  2.9896 -0.3296  0.1611
  146SOL    HW2  438   2.929   2.595   0.251 -2.1325 -0.0557  0.1495
  147SOL     OW  439   1.668   1.273   0.250  0.5822  0.3020  0.5686
  147SOL    HW1  440   1.612   1.281   0.336  0.2973  2.0621  0.6923
  147SOL    HW2  441   1.622   1.226   0.171  0.7183  1.4300 -1.9730
  148SOL     OW  442   0.974   3.000   0.355 -0.1551  0.0714 -0.1084
  148SOL    HW1  443   0.922   3.057   0.288  2.1980 -1.1191  0.2867
  148SOL    HW2  444   1.027   3.067   0.415 -0.4828 -1.2078  3.6393
  149SOL     OW  445   1.394   0.606   2.440 -0.0558  0.4188  0.2372
  149SOL    HW1  446   1.296   0.604   2.410  0.5477 -0.1870 -1.2685
  149SOL    HW2  447   1.412   0.534   2.517 -0.6732 -0.5017  1.8554
  150SOL     OW  448   1.329   2.880   2.673  0.0858 -0.3550  0.4262
  150SOL    HW1  449   1.424   2.863   2.705  0.5874  2.5088  2.4011
  150SOL    HW2  450   1.254   2.833   2.732 -1.8993  0.3806  2.0729
  151SOL     OW  451   0.228   1.183   3.050 -0.0986  0.4594  0.1136
  151SOL    HW1  452   0.303   1.255   3.057 -0.7937  3.7363 -0.7327
  151SOL    HW2  453   0.262   1.088   3.062  2.9132 -0.3101 -0.0817
  152SOL     OW  454   0.595   0.150   1.463 -0.3024 -0.2429  0.1478
  152SOL    HW1  455   0.500   0.192   1.485 -1.9040  1.3732 -0.5353
  152SOL    HW2  456   0.657   0.224   1.436 -2.8448 -3.3858  1.5611
  153SOL     OW  457   2.555   0.069   1.545  0.3396 -0.3955 -0.0251
  153SOL    HW1  458   2.515   0.155   1.507  1.0712 -0.6382  2.4157
  153SOL    HW2  459   2.505   0.046   1.630 -0.2235 -1.6420  1.3733
  154SOL     OW  460   2.431   0.318   1.825 -0.1565  0.0785 -0.1940
  154SOL    HW1  461   2.354   0.286   1.770 -0.8872 -0.8667  0.9957
  154SOL    HW2  462   2.414   0.314   1.925  0.7380  0.9365 -2.2903
  155SOL     OW  463   0.542   1.009   0.141 -0.0334 -0.1465  1.1738
  155SOL    HW1  464   0.626   0.970   0.181  1.4909  3.1916  1.5206
  155SOL    HW2  465   0.569   1.095   0.090  1.3851  0.5891 -1.0629
  156SOL     OW  466   1.932   1.353   0.229 -0.0334 -0.2872 -0.2373
  156SOL    HW1  467   1.977   1.262   0.237  0.5807  1.8476  1.1936
  156SOL    HW2  468   1.832   1.348   0.236  0.7092 -1.6721 -1.8491
  157SOL     OW  469   1.180   2.056   3.027 -0.6132 -0.2126 -0.1686
  157SOL    HW1  470   1.174   2.062   2.925 -3.1861  0.5906  0.5663
  157SOL    HW2  471   1.093   2.045   3.070  4.7002 -1.4508  0.8193
  158SOL     OW  472   1.699   0.754   1.798  0.3291  0.6464 -0.1530
  158SOL    HW1  473   1.725   0.662   1.833  1.2388  1.6714 -0.2474
  158SOL    HW2  474   1.625   0.801   1.844  0.4337 -0.8529 -0.6940
  159SOL     OW  475   0.083   0.219   0.534 -0.4121 -0.5329  0.5060
  159SOL    HW1  476   0.119   0.130   0.581  1.4052 -3.6437  1.9428
  159SOL    HW2  477   0.121   0.238   0.441  0.8152 -0.3204 -0.6121
  160SOL     OW  478   2.459   1.620   1.779 -0.2793 -0.5837  0.2327
  160SOL    HW1  479   2.524   1.552   1.827  3.9319 -1.1476  0.3403
  160SOL    HW2  480   2.362   1.591   1.802 -2.0271 -0.1038 -1.3285
  161SOL     OW  481   0.062   3.030   0.293  0.1959  0.0583  0.1980
  161SOL    HW1  482   0.039   2.956   0.358 -0.4204  2.5003  1.5255
  161SOL    HW2  483   0.153   3.074   0.319  1.3373  2.2537 -0.9603
  162SOL     OW  484   0.202   0.442   2.423 -0.2872 -0.0728 -0.2701
  162SOL    HW1  485   0.105   0.472   2.428 -0.2529  0.3248  1.4155
  162SOL    HW2  486   0.210   0.340   2.436 -2.7326 -1.5085  1.7679
  163SOL     OW  487   0.094   2.803   2.622  0.1307  0.3000 -0.4286
  163SOL    HW1  488   0.108   2.707   2.647 -0.5745  0.7563  2.2015
  163SOL    HW2  489   0.001   2.830   2.650 -0.1153 -0.1907  0.5707
  164SOL     OW  490   2.498   2.021   0.373 -0.0449  0.2389 -0.0548
  164SOL    HW1  491   2.540   2.084   0.298  1.2945  1.8189 -1.2290
  164SOL    HW2  492   2.399   2.025   0.376  3.7427  0.5550 -0.7562
  165SOL     OW  493   1.137   0.670   1.665 -0.3685 -0.7513 -0.4985
  165SOL    HW1  494   1.209   0.717   1.614  0.1163  0.3974  1.0980
  165SOL    HW2  495   1.053   0.729   1.685  2.3430 -0.6272  3.9083
  166SOL     OW  496   2.903   3.075   0.283 -0.2685 -0.7417  0.2729
  166SOL    HW1  497   3.003   3.060   0.293 -0.3096 -1.5927 -0.4888
  166SOL    HW2  498   2.877   0.027   0.346  0.3449 -0.4341 -3.2383
  167SOL     OW  499   2.105   0.613   0.946 -0.0029 -0.1223 -0.0618
  167SOL    HW1  500   2.142   0.631   1.039  0.9654  0.7590 -1.4763
  167SOL    HW2  501   2.017   0.565   0.946  2.4287 -3.0211  0.1969
  168SOL     OW  502   1.143   0.334   2.434  0.0873  0.4509 -0.4825
  168SOL    HW1  503   1.233   0.333   2.384  0.3386 -2.2886  4.2880
  168SOL    HW2  504   1.153   0.311   2.532 -0.2125 -1.3846 -0.5212
  169SOL     OW  505   1.182   2.088   1.205  0.1203  0.5430 -0.0681
  169SOL    HW1  506   1.145   1.993   1.175 -1.2607 -2.9238  0.7046
  169SOL    HW2  507   1.161   2.103   1.301 -2.0034 -0.1947 -2.8773
  170SOL     OW  508   3.059   3.027   1.534  0.3208  0.3756  0.1335
  170SOL    HW1  509   3.049   2.941   1.487  0.9728  0.8343  1.3317
  170SOL    HW2  510   3.080   3.101   1.468  0.1221  1.2918 -3.2852
  171SOL     OW  511   2.809   0.493   2.269  0.2800 -0.1290  0.5285
  171SOL    HW1  512   2.790   0.408   2.213 -2.4566  0.8249  1.4277
  171SOL    HW2  513   2.736   0.502   2.343 -0.0125  0.8357 -1.6556
  172SOL     OW  514   1.325   3.040   1.472  0.1285 -0.7621 -0.1079
  172SOL    HW1  515   1.243   3.032   1.534  1.1060 -0.5954  1.5652
  172SOL    HW2  516   1.408   3.028   1.530 -0.7497 -0.8869  2.7286
  173SOL     OW  517   2.708   2.314   2.958 -0.3832  0.2926  0.4430
  173SOL    HW1  518   2.608   2.305   2.946  0.6023  1.0483 -0.3216
  173SOL    HW2  519   2.747   2.343   2.866  1.0034 -0.7421 -1.0640
  174SOL     OW  520   1.858   1.101   0.372  0.3455 -0.3731 -0.3973
  174SOL    HW1  521   1.923   1.041   0.326  0.1659  0.6965  0.2288
  174SOL    HW2  522   1.796   1.153   0.308 -1.0809  1.2095 -0.1898
  175SOL     OW  523   0.888   1.570   1.248 -0.0744 -0.1921 -0.4493
  175SOL    HW1  524   0.879   1.621   1.161 -0.9939  0.0316  2.4166
  175SOL    HW2  525   0.924   1.627   1.326 -1.3457  0.1641  0.3025
  176SOL     OW  526   0.153   0.005   0.676 -0.7115  0.2880 -0.0066
  176SOL    HW1  527   0.249   3.077   0.698  3.4291 -0.1344  1.2285
  176SOL    HW2  528   0.079   3.055   0.666  1.2412 -0.7322 -2.3954
  177SOL     OW  529   2.553   1.341   0.215  0.5001 -0.3081 -0.6521
  177SOL    HW1  530   2.647   1.321   0.251 -2.3475  0.7618 -0.2462
  177SOL    HW2  531   2.520   1.425   0.259  1.5636  3.8140 -0.2923
  178SOL     OW  532   2.837   2.649   2.279  0.3528 -0.6512  0.4822
  178SOL    HW1  533   2.887   2.688   2.202 -1.6527 -0.1159  0.4557
  178SOL    HW2  534   2.886   2.562   2.305  1.5143  2.0571 -0.7773
  179SOL     OW  535   2.243   3.012   0.320  0.2347  0.2108  0.2472
  179SOL    HW1  536   2.333   2.970   0.323 -1.6149  3.1190 -0.9915
  179SOL    HW2  537   2.243   3.112   0.347  1.0438  0.3640 -0.3557
  180SOL     OW  538   2.106   0.550   0.671 -0.5338  0.1708  0.9496
  180SOL    HW1  539   2.087   0.588   0.766 -1.0306  1.8764  0.4894
  180SOL    HW2  540   2.030   0.563   0.607  0.4527  1.0032 -1.3409
  181SOL     OW  541   2.788   0.218   2.797  0.3520 -0.3025  0.2847
  181SOL    HW1  542   2.888   0.210   2.816 -2.9478 -0.4066  0.3941
  181SOL    HW2  543   2.750   0.124   2.789 -0.0811  0.5508 -0.9953
  182SOL     OW  544   2.788   1.856   2.451 -0.0082  0.0997  0.0640
  182SOL    HW1  545   2.688   1.845   2.449  1.9338  2.3023 -1.8682
  182SOL    HW2  546   2.814   1.927   2.382  2.7148  3.4656 -2.3743
  183SOL     OW  547   0.219   1.005   1.681 -0.2730 -0.4907 -0.1600
  183SOL    HW1  548   0.239   0.950   1.601 -0.1155  0.6582  2.6962
  183SOL    HW2  549   0.294   1.004   1.751  1.5332  0.4639  2.3464
  184SOL     OW  550   0.301   1.297   1.036 -0.6480 -0.1929  0.1477
  184SOL    HW1  551   0.220   1.297   1.102 -2.0983  1.8323  1.1498
  184SOL    HW2  552   0.363   1.213   1.064  1.1979 -0.8041  0.6485
  185SOL     OW  553   3.094   2.601   1.160 -0.1989 -0.2867  0.5104
  185SOL    HW1  554   3.034   2.559   1.093 -1.2897  0.0751  1.2562
  185SOL    HW2  555   3.065   2.698   1.183 -0.3001  2.9170  1.2873
  186SOL     OW  556   1.539   2.786   2.932 -0.7172 -0.5405  0.6454
  186SOL    HW1  557   1.637   2.790   2.908 -2.7352 -0.8745  0.6260
  186SOL    HW2  558   1.512   2.692   2.945  1.2334 -0.3921 -0.6089
  187SOL     OW  559   0.142   1.316   0.581 -0.6812  0.2720  0.4291
  187SOL    HW1  560   0.064   1.251   0.589  0.0281 -0.3880 -0.9978
  187SOL    HW2  561   0.182   1.337   0.668  0.9179 -1.2933 -0.7183
  188SOL     OW  562   1.742   1.899   0.285  0.7471 -0.1431 -0.3252
  188SOL    HW1  563   1.671   1.876   0.213 -0.0004  2.9644 -0.5790
  188SOL    HW2  564   1.778   1.988   0.262  0.9374 -1.7590  1.5496
  189SOL     OW  565   0.085   1.672   2.950  0.6211 -0.2885  0.1451
  189SOL    HW1  566   0.073   1.631   3.039  3.1952  0.3271 -1.2605
  189SOL    HW2  567   0.031   1.621   2.878  1.8922  0.8215 -0.1609
  190SOL     OW  568   2.532   0.677   2.105  0.7677  0.1631 -0.3557
  190SOL    HW1  569   2.452   0.732   2.068 -1.2084  0.6946 -0.1260
  190SOL    HW2  570   2.520   0.638   2.195  0.4527 -0.4317 -1.2478
  191SOL     OW  571   0.625   1.246   2.203 -0.5170  0.2686 -0.6628
  191SOL    HW1  572   0.526   1.242   2.225 -1.7384  1.1884  1.5643
  191SOL    HW2  573   0.688   1.222   2.281  1.7348 -1.8944  1.2563
  192SOL     OW  574   1.927   1.325   1.829 -0.2457  0.0212 -0.4442
  192SOL    HW1  575   1.885   1.243   1.876 -0.1389  1.2561 -1.6011
  192SOL    HW2  576   2.024   1.305   1.805 -2.1224  1.0775 -2.8822
  193SOL     OW  577   0.570   0.099   0.829  0.6091  0.6596  0.8097
  193SOL    HW1  578   0.557   0.180   0.888 -1.3634 -2.0450 -0.1613
  193SOL    HW2  579   0.668   0.077   0.813  0.0225  1.2463 -1.0478
  194SOL     OW  580   1.591   1.805   1.377  0.2096  0.0560 -0.3033
  194SOL    HW1  581   1.690   1.780   1.379 -0.6865  0.2658  1.8367
  194SOL    HW2  582   1.546   1.802   1.287 -1.4504  3.1163  2.8262
  195SOL     OW  583   1.857   0.492   0.957  0.1525 -0.5461  0.4334
  195SOL    HW1  584   1.874   0.392   0.932 -0.0739 -1.9830  1.1453
  195SOL    HW2  585   1.766   0.532   0.919  0.3144 -1.3137  3.3944
  196SOL     OW  586   1.265   1.746   1.868  0.2394  0.4797 -0.3871
  196SOL    HW1  587   1.338   1.742   1.939 -0.5097 -2.1519  1.1677
  196SOL    HW2  588   1.197   1.807   1.905  1.0961 -0.2082  0.6603
  197SOL     OW  589   2.997   3.111   2.806  0.3332  0.3513 -0.3460
  197SOL    HW1  590   3.053   0.078   2.808 -0.0405  2.0293  0.5486
  197SOL    HW2  591   2.960   3.098   2.903 -0.5745  1.8070  1.1504
  198SOL     OW  592   0.043   0.741   0.649  0.1524  0.1193 -0.1372
  198SOL    HW1  593   0.069   0.641   0.641 -2.0350  0.3623  1.2388
  198SOL    HW2  594   3.066   0.756   0.611 -0.7504 -0.6222  1.3455
  199SOL     OW  595   0.388   2.006   1.034 -0.1350  0.5492 -0.4409
  199SOL    HW1  596   0.360   2.099   1.062 -0.0560  1.0152 -0.6129
  199SOL    HW2  597   0.453   1.974   1.102  1.5266 -2.0998 -1.8596
  200SOL     OW  598   2.626   1.737   3.091 -0.0066 -0.5806  0.5010
  200SOL    HW1  599   2.657   1.831   3.078 -1.4415 -1.1028  1.4063
  200SOL    HW2  600   2.703   1.675   3.092  1.3769  1.1755  0.8746
  201SOL     OW  601   1.165   2.593   1.625  0.0547  0.1501  0.0351
  201SOL    HW1  602   1.163   2.649   1.539  2.3340  1.6575  0.2954
  201SOL    HW2  603   1.186   2.495   1.597  1.8077 -0.7850 -1.7347
  202SOL     OW  604   1.041   2.673   0.010 -0.3508 -0.0110  0.0230
  202SOL    HW1  605   0.972   2.603   0.038  0.0473 -2.8924 -1.4472
  202SOL    HW2  606   1.072   2.720   0.093 -1.2139 -2.6304  0.8373
  203SOL     OW  607   1.447   3.106   0.073  0.1636  0.6391  0.1859
  203SOL    HW1  608   1.495   3.098   3.102 -2.3812  0.1100 -0.9519
  203SOL    HW2  609   1.365   0.042   0.064 -0.5761 -1.8523  1.8231
  204SOL     OW  610   0.445   1.671   1.336 -0.0142  0.4393 -0.0139
  204SOL    HW1  611   0.383   1.605   1.289 -1.7491  0.5235  0.7749
  204SOL    HW2  612   0.517   1.620   1.386  2.1663  0.7175  0.6800
  205SOL     OW  613   1.779   1.189   2.024 -0.4826 -0.2377  0.2598
  205SOL    HW1  614   1.783   1.089   2.038 -1.3738 -3.1386 -1.0309
  205SOL    HW2  615   1.679   1.218   2.024 -1.6928 -0.8502  0.7886
  206SOL     OW  616   0.153   2.010   0.102 -0.6138  0.1547  0.0559
  206SOL    HW1  617   0.180   2.029   0.005 -2.0732  0.9041 -0.7798
  206SOL    HW2  618   0.053   2.002   0.119  3.5522 -0.3717 -0.9588
  207SOL     OW  619   0.419   2.050   2.020 -0.3918  0.3973 -0.2030
  207SOL    HW1  620   0.507   2.010   1.979  3.1315 -1.6105 -0.2085
  207SOL    HW2  621   0.352   2.065   1.948 -2.2730  1.2956  1.7542
  208SOL     OW  622   0.225   2.574   1.074 -0.0724 -0.1051 -0.0018
  208SOL    HW1  623   0.247   2.570   0.973 -0.2264 -0.4934 -0.0968
  208SOL    HW2  624   0.126   2.589   1.095 -2.8036 -1.4114  0.7723
  209SOL     OW  625   1.003   2.969   2.188 -0.3476  0.7025 -0.0152
  209SOL    HW1  626   0.913   2.923   2.212  0.3354 -1.3123 -1.6497
  209SOL    HW2  627   1.017   2.964   2.085  2.2831 -0.4491 -1.2194
  210SOL     OW  628   2.707   1.214   1.807 -0.4595  0.0446  0.4885
  210SOL    HW1  629   2.786   1.175   1.753  1.9996  1.2518 -0.5624
  210SOL    HW2  630   2.632   1.145   1.830 -0.7214 -0.0096  3.0612
  211SOL     OW  631   1.123   3.004   1.909 -0.4677 -0.9765  0.2300
  211SOL    HW1  632   1.169   3.024   1.818  1.2539 -0.8601 -0.2416
  211SOL    HW2  633   1.023   3.005   1.891  4.0532 -0.5872 -1.5589
  212SOL     OW  634   2.204   2.794   1.994 -0.1537 -0.0201 -0.1253
  212SOL    HW1  635   2.158   2.738   1.923  2.4685  1.4910 -0.0056
  212SOL    HW2  636   2.174   2.759   2.084 -2.0961 -1.5955 -3.5477
  213SOL     OW  637   3.046   0.266   1.799  0.2814  0.4100  0.6332
  213SOL    HW1  638   3.098   0.176   1.794  0.6006  0.3714  0.8138
  213SOL    HW2  639   3.067   0.306   1.887 -0.6281 -1.7357 -0.4952
  214SOL     OW  640   0.982   2.190   0.880 -0.2966  0.1754  0.0392
  214SOL    HW1  641   1.073   2.199   0.929  2.2655 -0.2029 -0.3703
  214SOL    HW2  642   0.999   2.173   0.779  0.2330 -0.2352  0.1671
  215SOL     OW  643   2.630   1.973   0.609 -0.0707  0.2449 -0.7662
  215SOL    HW1  644   2.729   2.001   0.604  1.1264 -2.0990  1.4951
  215SOL    HW2  645   2.576   1.981   0.522 -1.1927 -2.0405 -1.0920
  216SOL     OW  646   3.033   0.897   1.777 -0.1167  0.1513  0.0938
  216SOL    HW1  647   2.977   0.925   1.694 -3.7752  1.4351  0.6383
  216SOL    HW2  648   3.067   0.801   1.764  2.1725  2.4188  0.6713
  217SOL     OW  649   2.369   0.281   1.434  0.5863  0.1655  0.2853
  217SOL    HW1  650   2.272   0.266   1.462  0.3257 -2.9973  1.3027
  217SOL    HW2  651   2.413   0.356   1.488  0.0805 -3.0256  0.2621
  218SOL     OW  652   1.798   2.570   1.528  0.5087  0.7112 -0.1659
  218SOL    HW1  653   1.721   2.590   1.465 -1.2157  2.2172 -0.7374
  218SOL    HW2  654   1.766   2.564   1.626 -1.0695 -0.8700 -0.0103
  219SOL     OW  655   2.207   2.598   0.128 -0.2620  0.6204 -0.3640
  219SOL    HW1  656   2.146   2.514   0.140 -1.1051 -1.3172  0.4897
  219SOL    HW2  657   2.303   2.580   0.163  0.6942  0.5630  1.1786
  220SOL     OW  658   1.286   2.976   0.432 -0.1988  0.0859 -0.0620
  220SOL    HW1  659   1.296   3.077   0.426 -0.2641  0.4186  2.4654
  220SOL    HW2  660   1.324   2.923   0.350  3.8516 -0.3335  0.0910
  221SOL     OW  661   3.053   1.971   1.540 -0.0526 -0.5416  0.0132
  221SOL    HW1  662   0.020   2.023   1.563 -1.4354 -0.2157 -1.1958
  221SOL    HW2  663   2.968   2.026   1.559  3.1725 -0.8921 -0.9687
  222SOL     OW  664   1.777   2.732   1.236  0.2108 -0.2503  0.3131
  222SOL    HW1  665   1.769   2.839   1.229  2.0286  2.8933  3.5208
  222SOL    HW2  666   1.719   2.681   1.298  1.4202  3.5235 -0.0662
  223SOL     OW  667   1.391   0.448   1.448 -0.2028 -0.5482 -0.2625
  223SOL    HW1  668   1.310   0.390   1.453 -1.7286  0.8155  1.8817
  223SOL    HW2  669   1.411   0.498   1.534  2.7979 -1.5830  1.3880
  224SOL     OW  670   0.061   2.383   1.516  0.0643  0.2798 -0.0386
  224SOL    HW1  671   0.124   2.453   1.476  1.6631  0.5064  1.7741
  224SOL    HW2  672   3.094   2.414   1.561 -0.1503  0.2355 -1.4330
  225SOL     OW  673   2.443   2.040   1.132  0.0590  0.1957 -0.0040
  225SOL    HW1  674   2.495   2.106   1.190  0.5565  1.8918  2.8205
  225SOL    HW2  675   2.479   2.031   1.036 -0.9250 -2.9439 -0.6838
  226SOL     OW  676   1.673   2.138   3.056 -0.4899 -0.0934 -0.2865
  226SOL    HW1  677   1.576   2.117   3.074  0.2114 -2.5002 -1.7068
  226SOL    HW2  678   1.686   2.200   2.972  1.8658 -0.2991 -1.4877
  227SOL     OW  679   2.028   1.136   0.793 -0.3073 -0.4158 -0.1910
  227SOL    HW1  680   1.994   1.180   0.878  2.0456 -2.5424  1.5730
  227SOL    HW2  681   2.007   1.036   0.796  0.7131  3.2577  1.0886
  228SOL     OW  682   1.611   0.918   0.331  0.1910  0.2286 -0.3411
  228SOL    HW1  683   1.620   0.819   0.343  1.1942  0.5970 -2.4421
  228SOL    HW2  684   1.655   0.974   0.411 -0.6513 -1.5144  1.3821
  229SOL     OW  685   2.729   0.918   2.151 -0.2770 -0.1137 -0.0972
  229SOL    HW1  686   2.659   0.848   2.115  0.9272 -2.1273  0.8748
  229SOL    HW2  687   2.782   0.948   2.068 -0.8317 -0.8935 -0.2770
  230SOL     OW  688   0.443   1.072   1.118  0.3198 -0.7278  0.3368
  230SOL    HW1  689   0.543   1.063   1.107 -1.6511  1.3735 -1.9462
  230SOL    HW2  690   0.390   0.985   1.104  0.1624  0.2513 -1.3122
  231SOL     OW  691   2.218   0.539   2.775  0.8377  0.0363 -0.4708
  231SOL    HW1  692   2.178   0.538   2.874  0.3667  0.5853  2.4174
  231SOL    HW2  693   2.320   0.514   2.776  1.8172  1.5527  1.2793
  232SOL     OW  694   3.109   1.713   1.087  0.1178 -0.5804 -0.0524
  232SOL    HW1  695   3.085   1.622   1.125  0.6405 -0.6030 -0.1695
  232SOL    HW2  696   3.114   1.784   1.162 -0.8036  2.3466 -2.8443
  233SOL     OW  697   1.727   0.000   2.755 -0.0370  0.0591 -0.2382
  233SOL    HW1  698   1.825   0.025   2.750 -2.9043  1.9044 -1.2860
  233SOL    HW2  699   1.678   0.031   2.841 -1.9951 -2.3009  1.5175
  234SOL     OW  700   1.576   2.597   1.372 -0.5377 -0.0896  0.1935
  234SOL    HW1  701   1.526   2.679   1.352  2.7004 -2.8071  3.0914
  234SOL    HW2  702   1.515   2.518   1.364  1.1725 -0.2414 -0.9610
  235SOL     OW  703   0.747   1.300   1.529 -0.3780  0.3937 -0.0854
  235SOL    HW1  704   0.731   1.389   1.577 -0.6400  1.0600 -0.4742
  235SOL    HW2  705   0.847   1.285   1.522  0.0697 -2.3544  1.0211
  236SOL     OW  706   0.645   2.468   2.744 -0.0072 -0.1930 -0.0012
  236SOL    HW1  707   0.743   2.476   2.768 -0.9315  1.0767  0.1474
  236SOL    HW2  708   0.618   2.378   2.710 -0.1956  0.9738  0.6590
  237SOL     OW  709   0.656   3.076   1.645  0.2628  0.5643  0.3968
  237SOL    HW1  710   0.619   3.083   1.738  0.2070 -1.0206 -1.6742
  237SOL    HW2  711   0.602   0.012   1.577  0.6539 -2.1821 -2.2856
  238SOL     OW  712   0.983   0.845   0.390 -0.3903  0.4194 -0.2131
  238SOL    HW1  713   1.001   0.794   0.304 -2.1977 -1.1181  0.7753
  238SOL    HW2  714   0.914   0.791   0.441 -0.5011  0.6175  1.0662
  239SOL     OW  715   2.624   0.737   2.867 -0.7078 -0.4547  0.1243
  239SOL    HW1  716   2.550   0.803   2.870  1.4427  0.1728 -1.3076
  239SOL    HW2  717   2.676   0.737   2.954 -3.4150 -0.0939  0.9363
  240SOL     OW  718   2.787   2.134   0.996 -0.6914 -0.5627 -0.1832
  240SOL    HW1  719   2.803   2.058   1.064 -2.3349  1.6504  2.8677
  240SOL    HW2  720   2.704   2.111   0.938  1.2372 -1.9276  0.2388
  241SOL     OW  721   1.147   1.665   0.774 -0.1422 -0.1187 -0.0748
  241SOL    HW1  722   1.205   1.629   0.702 -3.2100  0.0310  1.2796
  241SOL    HW2  723   1.163   1.764   0.789 -1.1618  3.1581 -1.2213
  242SOL     OW  724   0.679   0.432   0.860 -0.0554  0.1119 -0.3734
  242SOL    HW1  725   0.694   0.531   0.860  0.9076 -0.7219 -1.1114
  242SOL    HW2  726   0.715   0.401   0.767 -1.5869 -0.4258 -1.5423
  243SOL     OW  727   0.282   0.517   1.165  0.1923  0.1773 -0.1094
  243SOL    HW1  728   0.272   0.552   1.072 -0.4612 -2.5660  0.2475
  243SOL    HW2  729   0.308   0.417   1.152  1.7813 -0.2385 -2.5056
  244SOL     OW  730   0.777   0.067   0.499 -0.2672 -0.0290  0.6683
  244SOL    HW1  731   0.868   0.098   0.463  3.2100 -0.9542  0.4883
  244SOL    HW2  732   0.781   0.058   0.602  1.4471 -0.1826  0.9071
  245SOL     OW  733   2.195   1.197   0.171 -0.3289  0.2845 -0.7542
  245SOL    HW1  734   2.275   1.139   0.184  1.3740  1.5114  2.2263
  245SOL    HW2  735   2.194   1.264   0.246 -1.2184 -2.9045 -0.8245
  246SOL     OW  736   0.321   2.950   1.634  0.0538 -0.1687 -0.4414
  246SOL    HW1  737   0.360   2.860   1.671 -0.5679  1.1473 -0.4041
  246SOL    HW2  738   0.291   2.940   1.538  1.5727 -3.4798  1.8596
  247SOL     OW  739   0.902   0.257   1.948 -0.2404  0.3357  0.3435
  247SOL    HW1  740   0.811   0.302   1.943 -1.2830 -0.2534 -0.4968
  247SOL    HW2  741   0.936   0.232   1.856 -0.6254  1.7057 -0.8207
  248SOL     OW  742   0.396   1.650   1.879  0.0299 -0.4594 -0.0951
  248SOL    HW1  743   0.468   1.688   1.936 -2.7702  0.6400  1.1880
  248SOL    HW2  744   0.439   1.582   1.817  1.7506  0.6291  3.2757
  249SOL     OW  745   1.131   2.251   0.256  0.6368  0.3940 -0.1108
  249SOL    HW1  746   1.054   2.200   0.302  0.9081  0.6498 -0.1925
  249SOL    HW2  747   1.162   2.321   0.325 -0.6027 -1.4675 -0.0116
  250SOL     OW  748   0.549   3.102   2.213 -0.0363 -0.3926  0.2657
  250SOL    HW1  749   0.450   3.112   2.238 -1.2341  0.8283 -1.4927
  250SOL    HW2  750   0.601   0.068   2.229 -2.8972 -2.9319  2.6959
  251SOL     OW  751   2.829   2.130   1.588 -0.0884  0.0129 -0.7559
  251SOL    HW1  752   2.817   2.113   1.688 -2.8420  1.8072 -0.8732
  251SOL    HW2  753   2.744   2.175   1.544  1.4739  2.5925 -1.6594
  252SOL     OW  754   1.289   0.281   1.943 -0.7938  0.2372 -0.4208
  252SOL    HW1  755   1.253   0.210   2.010 -1.4630 -3.5793 -0.0947
  252SOL    HW2  756   1.316   0.232   1.856  0.5121 -1.9958  1.7168
  253SOL     OW  757   2.487   1.837   2.454 -0.1459  0.3484 -0.3727
  253SOL    HW1  758   2.486   1.779   2.372  0.0717  2.5852 -0.3258
  253SOL    HW2  759   2.407   1.897   2.450  1.6276 -0.9901  1.0217
  254SOL     OW  760   0.759   1.369   0.909 -0.0783 -0.2735  0.4053
  254SOL    HW1  761   0.678   1.402   0.964  0.4728 -2.2956 -2.1687
  254SOL    HW2  762   0.827   1.315   0.964  1.3032  1.3236 -3.0195
  255SOL     OW  763   3.093   2.425   1.869  0.2999  0.2124  0.1402
  255SOL    HW1  764   2.999   2.429   1.823  0.8073 -0.7096 -1.8276
  255SOL    HW2  765   0.043   2.474   1.809 -0.3288 -0.1576 -0.9072
  256SOL     OW  766   0.562   2.936   0.272 -0.5502 -0.2266 -0.3286
  256SOL    HW1  767   0.660   2.914   0.254  1.0461 -3.3997 -2.8891
  256SOL    HW2  768   0.522   2.940   0.181  3.7857 -0.5148  0.4990
  257SOL     OW  769   1.003   2.532   2.430  0.0455  0.4918  0.3971
  257SOL    HW1  770   1.055   2.614   2.459  0.3102  0.1467  3.6633
  257SOL    HW2  771   1.005   2.510   2.332 -0.4949 -1.0569 -0.4035
  258SOL     OW  772   1.927   2.249   2.249 -0.1357  0.3103  0.4488
  258SOL    HW1  773   1.855   2.197   2.194 -1.8324  0.0560  0.7194
  258SOL    HW2  774   2.021   2.250   2.204  1.0744 -1.2952  1.4860
  259SOL     OW  775   0.692   0.587   2.388  0.3364 -0.2320  0.1655
  259SOL    HW1  776   0.595   0.556   2.353 -1.4557 -0.3745  0.5370
  259SOL    HW2  777   0.698   0.689   2.366  0.3815  0.8897 -0.9830
  260SOL     OW  778   2.761   0.908   3.081 -0.2980  0.0553  0.0293
  260SOL    HW1  779   2.763   0.900   0.061 -0.6505 -0.6693 -3.5313
  260SOL    HW2  780   2.859   0.910   3.044  5.0407 -1.4807 -0.9422
  261SOL     OW  781   0.930   1.236   0.634  0.2364  0.2182 -0.2237
  261SOL    HW1  782   0.920   1.266   0.536  0.1238 -0.7002 -4.1169
  261SOL    HW2  783   0.969   1.310   0.691 -0.5360 -2.3464  1.7718
  262SOL     OW  784   1.902   2.629   2.611 -0.4175 -0.2716 -0.1355
  262SOL    HW1  785   1.938   2.701   2.543  1.0401  1.5439  2.0860
  262SOL    HW2  786   1.983   2.585   2.655 -0.9643  0.8396  0.3724
  263SOL     OW  787   0.717   2.802   0.880  0.1237 -0.3847 -0.2544
  263SOL    HW1  788   0.744   2.720   0.935 -2.2064  0.2806  2.0496
  263SOL    HW2  789   0.650   2.862   0.927 -0.0764 -1.0908  1.2155
  264SOL     OW  790   2.831   1.763   0.872 -0.3114 -0.2991  0.9029
  264SOL    HW1  791   2.806   1.692   0.807  1.3440  0.7322  2.5663
  264SOL    HW2  792   2.923   1.798   0.854 -2.4226 -0.3395  0.3984
  265SOL     OW  793   1.853   1.339   2.660 -0.1288 -0.3779  0.0362
  265SOL    HW1  794   1.937   1.290   2.627  0.1583  0.4514  1.5773
  265SOL    HW2  795   1.869   1.438   2.651  0.5108 -1.4664  0.2501
  266SOL     OW  796   1.709   2.073   2.165  0.4960 -0.5396  0.0390
  266SOL    HW1  797   1.713   1.979   2.123 -0.2474 -0.0015  2.4680
  266SOL    HW2  798   1.633   2.062   2.235 -3.2450  0.2363  3.6456
  267SOL     OW  799   2.407   0.542   2.322  0.2245 -0.4337  0.0508
  267SOL    HW1  800   2.323   0.591   2.333  2.8538  0.5367  1.0821
  267SOL    HW2  801   2.403   0.451   2.368 -4.0432 -1.0473 -0.1561
  268SOL     OW  802   1.041   1.191   2.875  0.2433 -0.2445  0.2027
  268SOL    HW1  803   1.012   1.280   2.833  0.0163  2.9821 -0.9443
  268SOL    HW2  804   1.032   1.111   2.810  0.2584  1.8937 -2.2979
  269SOL     OW  805   3.056   1.794   2.069 -0.8192  0.1462 -0.7715
  269SOL    HW1  806   3.072   1.755   2.164 -0.9927  3.4506 -1.8331
  269SOL    HW2  807   2.991   1.734   2.021  3.7405  0.0924  2.1952
  270SOL     OW  808   3.017   1.574   0.049 -0.3241 -0.1392 -0.0602
  270SOL    HW1  809   3.014   1.674   0.040  1.2853 -1.9926  1.2798
  270SOL    HW2  810   3.098   1.542   0.100  0.6585  0.8833  0.2896
  271SOL     OW  811   0.572   0.153   0.330 -0.4502 -0.2116 -0.0886
  271SOL    HW1  812   0.636   0.094   0.385  0.1289  1.0503  1.7367
  271SOL    HW2  813   0.587   0.248   0.355 -0.3935 -0.8344  1.5821
  272SOL     OW  814   0.055   2.798   0.424 -0.3608  0.1404 -0.1224
  272SOL    HW1  815   0.143   2.752   0.405 -2.4815 -1.2927 -0.4637
  272SOL    HW2  816   3.096   2.741   0.388  0.9796 -2.1285  0.8768
  273SOL     OW  817   0.107   2.836   2.096  0.9612 -0.1280  0.2797
  273SOL    HW1  818   0.136   2.828   2.195  1.1878 -2.5785  0.4860
  273SOL    HW2  819   0.047   2.757   2.067 -0.5750 -3.3842 -1.7697
  274SOL     OW  820   0.358   0.261   1.568  0.0070  0.2442 -0.0305
  274SOL    HW1  821   0.266   0.293   1.545  3.9921 -0.8867  1.1287
  274SOL    HW2  822   0.412   0.340   1.604  1.2408 -2.2656 -0.6676
  275SOL     OW  823   1.111   1.821   1.178  0.4972 -0.3177  0.0474
  275SOL    HW1  824   1.030   1.813   1.119 -0.2698 -0.0664  2.3137
  275SOL    HW2  825   1.102   1.770   1.265  0.0805  0.2595  0.0375
  276SOL     OW  826   0.184   1.481   1.951  0.0265  0.9096  0.0290
  276SOL    HW1  827   0.248   1.540   1.903  0.7743 -1.0110  3.0897
  276SOL    HW2  828   0.216   1.386   1.973 -0.4423 -0.7170  4.3445
  277SOL     OW  829   1.242   2.338   2.057 -0.0505 -0.0035 -0.4338
  277SOL    HW1  830   1.274   2.429   2.017  0.6692 -0.2218 -0.5667
  277SOL    HW2  831   1.292   2.314   2.146  0.4279  0.1481 -1.5979
  278SOL     OW  832   2.056   3.116   2.457  0.1195 -0.2037 -0.3094
  278SOL    HW1  833   1.982   3.043   2.446  2.3715 -1.3812 -1.2765
  278SOL    HW2  834   2.068   0.051   2.371  1.3253 -3.0340  0.5978
  279SOL     OW  835   1.365   1.670   3.072 -0.2385  0.0802  0.1004
  279SOL    HW1  836   1.408   1.624   0.032 -2.4577  1.3142 -1.4729
  279SOL    HW2  837   1.424   1.662   2.986  2.5093 -1.1366 -1.9470
  280SOL     OW  838   1.218   0.680   0.840 -0.0009  0.1980 -0.1988
  280SOL    HW1  839   1.246   0.760   0.779 -0.2980 -0.7252 -0.2269
  280SOL    HW2  840   1.131   0.693   0.895  1.0968  0.5095 -2.7760
  281SOL     OW  841   0.119   0.547   2.101  0.0575 -0.6172  0.4627
  281SOL    HW1  842   0.139   0.531   2.003 -0.4850  2.8510 -0.4109
  281SOL    HW2  843   0.128   0.645   2.120 -0.5386 -2.5543 -1.4572
  282SOL     OW  844   0.341   2.697   0.506 -0.4252  0.5949  0.6614
  282SOL    HW1  845   0.397   2.779   0.516  1.1846 -0.8272 -0.7718
  282SOL    HW2  846   0.292   2.678   0.593  1.6091 -1.2723 -0.3118
  283SOL     OW  847   1.233   2.320   1.582 -0.4139 -0.0014  0.3911
  283SOL    HW1  848   1.196   2.247   1.523  0.5119 -1.5615  1.1027
  283SOL    HW2  849   1.200   2.292   1.676  1.2813 -0.3212 -2.9423
  284SOL     OW  850   2.003   2.769   1.504 -0.4093  0.1940  0.0984
  284SOL    HW1  851   2.042   2.770   1.410 -0.3491 -1.9079 -1.2490
  284SOL    HW2  852   1.918   2.713   1.504  1.5391  0.0088 -0.6059
  285SOL     OW  853   0.824   1.747   1.020  0.4650  0.6273  1.0584
  285SOL    HW1  854   0.719   1.736   1.013 -1.5168  1.2348 -0.7004
  285SOL    HW2  855   0.851   1.765   0.919  0.7922  1.1378 -3.4000
  286SOL     OW  856   3.053   2.653   2.021  0.9314  0.1656 -0.3467
  286SOL    HW1  857   2.999   2.717   1.962  0.6675  0.5522  0.5831
  286SOL    HW2  858   3.065   2.561   1.983 -1.5866  0.2362  0.2281
  287SOL     OW  859   0.607   1.275   0.707  0.4561  0.0097 -0.1797
  287SOL    HW1  860   0.690   1.293   0.756 -3.0229 -1.7453 -1.3207
  287SOL    HW2  861   0.579   1.357   0.658  3.2493 -1.4877  0.7127
  288SOL     OW  862   1.347   2.244   2.722  0.3818  0.2708 -0.1143
  288SOL    HW1  863   1.281   2.299   2.663 -1.7926  2.3743 -0.1191
  288SOL    HW2  864   1.296   2.167   2.767 -1.1460 -2.1118  0.3000
  289SOL     OW  865   2.095   1.219   2.600 -0.7113 -0.4277 -0.2904
  289SOL    HW1  866   2.129   1.247   2.691  0.0534 -4.9334  0.5308
  289SOL    HW2  867   2.143   1.275   2.527  0.5583  2.0694  1.9993
  290SOL     OW  868   1.883   1.779   0.486  0.4791  0.0172  0.2605
  290SOL    HW1  869   1.832   1.840   0.421  1.5263  1.8639  1.6378
  290SOL    HW2  870   1.967   1.821   0.515  1.7542 -0.7447  0.4378
  291SOL     OW  871   1.456   0.910   3.079 -0.4742 -0.2858 -0.0561
  291SOL    HW1  872   1.462   0.959   2.991  1.1016  0.3388  2.9416
  291SOL    HW2  873   1.438   0.814   3.072 -0.7269  1.9578  1.2455
  292SOL     OW  874   2.100   1.682   0.759  0.1826  0.2476 -0.0405
  292SOL    HW1  875   2.106   1.597   0.702 -0.9391  1.4510 -3.5104
  292SOL    HW2  876   2.178   1.744   0.745 -1.9554 -1.7106 -1.4385
  293SOL     OW  877   1.685   0.136   1.047  0.5300  0.0530 -0.1066
  293SOL    HW1  878   1.621   0.060   1.066 -0.7976  0.1784 -0.6664
  293SOL    HW2  879   1.634   0.223   1.082 -2.0277  1.2431 -1.4492
  294SOL     OW  880   2.441   1.082   0.271  0.3508 -0.3777  0.0923
  294SOL    HW1  881   2.468   1.018   0.195 -1.1554  2.6407 -0.1374
  294SOL    HW2  882   2.482   1.175   0.242 -0.3515  0.6406 -0.3004
  295SOL     OW  883   2.129   1.735   2.673  0.3019 -0.2575 -0.2538
  295SOL    HW1  884   2.145   1.834   2.703 -1.0030  3.8496  0.3095
  295SOL    HW2  885   2.188   1.678   2.729 -0.6470  1.7156 -2.0524
  296SOL     OW  886   1.410   1.762   1.165 -0.3942 -0.8071 -0.1394
  296SOL    HW1  887   1.419   1.666   1.131 -0.1680 -0.3776 -0.7822
  296SOL    HW2  888   1.317   1.778   1.210  1.0612  2.6479  3.0314
  297SOL     OW  889   0.527   0.783   2.706 -0.1461  0.1331  0.3308
  297SOL    HW1  890   0.447   0.771   2.641 -2.7847 -0.1625 -1.4194
  297SOL    HW2  891   0.500   0.737   2.793 -0.5917  0.9480 -2.7941
  298SOL     OW  892   1.587   2.822   1.745 -0.1072 -0.0078 -0.4921
  298SOL    HW1  893   1.676   2.795   1.790  2.5911 -2.0603  0.6085
  298SOL    HW2  894   1.522   2.744   1.743  0.1589  1.3735  1.0141
  299SOL     OW  895   1.184   0.341   2.709  0.1172  0.6332 -0.1656
  299SOL    HW1  896   1.096   0.389   2.727 -1.3350  0.7942 -0.7367
  299SOL    HW2  897   1.216   0.284   2.788  0.2147 -1.4695  1.7252
  300SOL     OW  898   1.958   1.411   3.072  0.3027  0.3869  0.2442
  300SOL    HW1  899   1.956   1.377   0.047 -0.7794 -0.0883 -0.7877
  300SOL    HW2  900   1.928   1.335   3.009 -3.4186 -1.0677  1.0252
  301SOL     OW  901   2.321   0.338   2.475 -0.3459  0.0653  0.1693
  301SOL    HW1  902   2.372   0.255   2.504 -0.5194  0.2806  0.3603
  301SOL    HW2  903   2.238   0.351   2.530 -0.8142  2.3774 -0.7766
  302SOL     OW  904   2.441   1.606   2.595  0.3845  0.8203 -0.2106
  302SOL    HW1  905   2.534   1.565   2.595  0.2217  0.8976 -0.6726
  302SOL    HW2  906   2.442   1.694   2.547 -0.3593 -2.0724  1.2356
  303SOL     OW  907   0.213   2.295   2.298  0.5937  0.0585  0.0887
  303SOL    HW1  908   0.114   2.310   2.268  0.4664 -0.8128  0.3126
  303SOL    HW2  909   0.223   2.239   2.381 -0.3060 -0.7682  1.7998
  304SOL     OW  910   0.011   1.130   0.967  0.1734  0.3435 -0.0884
  304SOL    HW1  911   0.047   1.219   0.944 -1.6490 -1.2739 -2.2669
  304SOL    HW2  912   0.042   1.061   0.897  1.2983  0.7801 -1.6623
  305SOL     OW  913   3.041   0.311   2.076 -0.0386 -0.2888  0.5288
  305SOL    HW1  914   3.095   0.397   2.085  0.4131 -0.5505  2.3440
  305SOL    HW2  915   3.012   0.286   2.168  1.4067 -0.5506 -1.0604
  306SOL     OW  916   1.382   1.630   0.617  0.0561 -0.7202 -0.4882
  306SOL    HW1  917   1.429   1.676   0.699  1.8243  2.0715  3.0335
  306SOL    HW2  918   1.386   1.697   0.538 -2.2600  1.9571  1.1973
  307SOL     OW  919   2.927   2.838   1.376  0.0499 -0.2072 -0.0466
  307SOL    HW1  920   2.937   2.821   1.270  0.6750 -0.8225 -2.2200
  307SOL    HW2  921   2.874   2.922   1.392 -1.6963 -0.1965  1.0707
  308SOL     OW  922   2.898   1.764   2.691 -0.0599 -0.1706 -0.2031
  308SOL    HW1  923   2.875   1.671   2.708 -2.5244  2.7288  0.6037
  308SOL    HW2  924   2.862   1.796   2.602 -0.0581 -1.7420 -0.6642
  309SOL     OW  925   0.291   2.012   2.984 -0.4144 -0.0484 -0.1152
  309SOL    HW1  926   0.275   1.927   2.930  1.4735 -0.2917 -2.1455
  309SOL    HW2  927   0.275   2.091   2.921 -2.0294 -2.8329  1.6333
  310SOL     OW  928   2.243   0.541   0.124  0.2661  0.0899  0.2820
  310SOL    HW1  929   2.313   0.612   0.125 -3.2926 -1.3743 -0.8785
  310SOL    HW2  930   2.276   0.445   0.121 -0.5652 -0.5225 -1.9485
  311SOL     OW  931   1.917   1.179   2.933  0.6084 -0.6505  0.4703
  311SOL    HW1  932   1.860   1.187   2.849  1.7096 -0.2058 -0.7136
  311SOL    HW2  933   1.958   1.082   2.940 -0.2662 -2.0145 -1.2142
  312SOL     OW  934   1.179   1.308   2.163  0.0087  0.5178  0.1911
  312SOL    HW1  935   1.147   1.363   2.243  0.0919  2.1851  3.5786
  312SOL    HW2  936   1.152   1.210   2.179  0.8735  1.1019 -0.6822
  313SOL     OW  937   0.566   0.098   0.070  0.1532  0.2833 -0.2185
  313SOL    HW1  938   0.484   0.135   0.022 -1.2531 -0.1556 -1.2491
  313SOL    HW2  939   0.567   0.116   0.171  1.9988  0.3730  2.0029
  314SOL     OW  940   0.520   1.917   1.256 -0.4707  0.3299  0.4409
  314SOL    HW1  941   0.489   1.823   1.296 -2.4843  0.6268  0.4034
  314SOL    HW2  942   0.618   1.937   1.280 -0.4758 -1.2214  0.0460
  315SOL     OW  943   1.490   2.048   1.431  0.1891  0.0970  0.3129
  315SOL    HW1  944   1.530   1.951   1.417 -0.6676 -1.0171 -0.9855
  315SOL    HW2  945   1.495   2.099   1.339  2.9743 -1.6512 -1.6571
  316SOL     OW  946   0.629   2.426   0.345  0.1410  0.0266 -0.1399
  316SOL    HW1  947   0.691   2.350   0.374 -2.2160  1.3950 -1.4143
  316SOL    HW2  948   0.680   2.515   0.346 -1.3319 -0.9864 -1.1364
  317SOL     OW  949   2.737   0.232   1.016 -0.1321  0.3120  0.1539
  317SOL    HW1  950   2.794   0.191   1.093  0.7765 -1.1293 -1.5204
  317SOL    HW2  951   2.676   0.167   0.969  1.8562 -2.5196  0.1310
  318SOL     OW  952   1.176   2.616   0.410  0.4647  0.2240 -0.0752
  318SOL    HW1  953   1.114   2.623   0.488  1.2345  0.4624 -1.6504
  318SOL    HW2  954   1.153   2.685   0.345 -2.4848 -2.9472  2.7895
  319SOL     OW  955   1.311   0.160   2.884  0.7181 -0.1637  0.0019
  319SOL    HW1  956   1.293   0.058   2.889  1.5368 -0.1127  1.8520
  319SOL    HW2  957   1.339   0.196   2.978  2.6258  2.3555  0.2991
  320SOL     OW  958   2.379   1.859   1.845 -0.2794 -0.3217  0.2276
  320SOL    HW1  959   2.277   1.850   1.857  1.7886 -0.0296 -1.8865
  320SOL    HW2  960   2.429   1.776   1.826 -1.2150  2.6914  0.5626
  321SOL     OW  961   3.102   3.016   0.043  0.6406  0.1099 -0.4408
  321SOL    HW1  962   0.021   3.013   0.139  0.1066 -1.7376  1.7738
  321SOL    HW2  963   3.050   2.932   0.023 -0.7096 -2.9896  2.0140
  322SOL     OW  964   2.442   0.839   1.444 -0.0739  0.1913  0.3214
  322SOL    HW1  965   2.407   0.928   1.470  0.6225  0.3689 -3.3323
  322SOL    HW2  966   2.523   0.847   1.382 -1.2374 -3.1317 -0.2786
  323SOL     OW  967   2.026   1.559   0.352 -0.0808 -0.1516 -0.0539
  323SOL    HW1  968   1.957   1.601   0.414 -1.4717 -2.4512 -0.2107
  323SOL    HW2  969   1.978   1.475   0.311 -1.3767 -2.4539 -1.3532
  324SOL     OW  970   0.111   0.377   1.488 -0.4013 -0.1531  0.0604
  324SOL    HW1  971   0.113   0.440   1.409  1.3793 -3.0828  0.4551
  324SOL    HW2  972   0.034   0.387   1.553 -0.9613 -2.2338  0.6614
  325SOL     OW  973   2.734   2.899   1.016 -0.4412 -0.0825 -0.0541
  325SOL    HW1  974   2.681   2.827   1.068  1.8877  1.2283  0.5677
  325SOL    HW2  975   2.674   2.979   0.999 -0.2617 -2.8941  0.4660
  326SOL     OW  976   1.581   2.925   0.560  0.3693 -0.1432  0.2608
  326SOL    HW1  977   1.493   2.911   0.515  1.2761  0.4795  1.9184
  326SOL    HW2  978   1.595   2.860   0.641 -1.3606 -1.9652 -0.0458
  327SOL     OW  979   2.323   2.425   0.386  0.1569  0.5296  0.0280
  327SOL    HW1  980   2.239   2.470   0.414  1.8045 -0.5479 -0.9339
  327SOL    HW2  981   2.381   2.492   0.333  1.6194 -0.5055  0.9745
  328SOL     OW  982   2.744   2.374   1.922 -0.0066  0.2125  0.0465
  328SOL    HW1  983   2.793   2.291   1.884 -1.1779  0.0202 -0.5959
  328SOL    HW2  984   2.769   2.395   2.016 -1.5090  2.2392 -0.9919
  329SOL     OW  985   0.107   2.173   0.694  0.3525  0.8789 -0.2425
  329SOL    HW1  986   0.044   2.158   0.775 -0.3790  0.5604  0.3413
  329SOL    HW2  987   0.199   2.127   0.696  0.8257 -2.7463 -0.5889
  330SOL     OW  988   2.230   1.035   1.932 -0.0436  0.1414 -0.1504
  330SOL    HW1  989   2.237   1.128   1.889  0.8782 -0.2294  0.6071
  330SOL    HW2  990   2.135   1.013   1.948  2.2812  0.0847 -1.0529
  331SOL     OW  991   2.254   1.886   0.729  0.1644 -0.2672  0.2370
  331SOL    HW1  992   2.350   1.882   0.752 -2.4243 -3.0930 -0.6265
  331SOL    HW2  993   2.212   1.966   0.774  0.5628  1.8605 -0.5675
  332SOL     OW  994   0.145   2.650   1.454 -0.2507 -0.2030 -0.1233
  332SOL    HW1  995   0.049   2.634   1.427 -0.4622 -2.1533 -0.4853
  332SOL    HW2  996   0.170   2.747   1.425  0.8964 -1.2036 -1.2289
  333SOL     OW  997   0.008   1.603   1.824  0.1175  0.1700  0.5477
  333SOL    HW1  998   0.083   1.575   1.890  0.3832  0.8780 -1.7205
  333SOL    HW2  999   0.046   1.668   1.751  2.5294 -0.9070  0.6224
  334SOL     OW 1000   0.365   0.656   1.415 -0.0945  0.0390  0.0544
  334SOL    HW1 1001   0.283   0.718   1.434 -3.2765  0.7113 -0.1264
  334SOL    HW2 1002   0.344   0.593   1.335 -0.1163 -0.1066 -0.8923
  335SOL     OW 1003   2.874   1.655   1.910  0.5945  0.0218 -0.3671
  335SOL    HW1 1004   2.812   1.574   1.916  0.8528 -0.0315 -0.0087
  335SOL    HW2 1005   2.961   1.625   1.867  1.3271  0.5419 -1.3281
  336SOL     OW 1006   1.818   3.105   0.034 -0.0773  0.2831 -0.0684
  336SOL    HW1 1007   1.771   3.011   0.053 -0.1735 -1.3995  0.6661
  336SOL    HW2 1008   1.894   3.095   3.082 -0.3990  1.4785 -0.1178
  337SOL     OW 1009   0.587   0.436   1.273  0.2066 -0.1685  0.0140
  337SOL    HW1 1010   0.595   0.537   1.256 -1.7641 -4.0519 -3.4943
  337SOL    HW2 1011   0.655   0.407   1.345 -0.3148 -0.0026 -1.5062
  338SOL     OW 1012   1.474   2.249   0.846 -0.1312  0.6151 -0.1436
  338SOL    HW1 1013   1.497   2.301   0.764 -2.1287 -0.9195  1.0436
  338SOL    HW2 1014   1.554   2.234   0.901 -2.6241  1.1764  0.8830
  339SOL     OW 1015   0.261   1.781   1.040  0.3414  0.5030  0.2054
  339SOL    HW1 1016   0.164   1.774   1.071 -1.0364 -0.9328  1.4661
  339SOL    HW2 1017   0.297   1.877   1.044 -0.2745 -0.4022  1.6634
  340SOL     OW 1018   0.282   3.103   2.310 -0.4604  0.0453 -0.1063
  340SOL    HW1 1019   0.207   0.007   2.251  2.2872 -1.1958  1.1235
  340SOL    HW2 1020   0.274   3.003   2.341  1.9524 -2.4741 -0.3879
  341SOL     OW 1021   2.412   1.391   0.777 -0.0487  0.3367  0.1688
  341SOL    HW1 1022   2.319   1.415   0.730 -1.2720 -1.2859 -5.4267
  341SOL    HW2 1023   2.495   1.401   0.718 -0.2645 -1.4067 -0.5270
  342SOL     OW 1024   1.700   2.179   0.438  0.2897  0.1111  0.5263
  342SOL    HW1 1025   1.712   2.168   0.338 -1.0177  2.6358  2.1175
  342SOL    HW2 1026   1.654   2.264   0.467  3.2306  0.1562  0.4991
  343SOL     OW 1027   1.902   0.236   0.914 -0.5265  0.2273 -0.4986
  343SOL    HW1 1028   1.819   0.191   0.955  1.8620 -1.2514  0.4246
  343SOL    HW2 1029   1.982   0.224   0.983  1.0649 -0.4483  1.6232
  344SOL     OW 1030   2.535   0.270   2.959 -0.3132  0.0412 -0.0978
  344SOL    HW1 1031   2.512   0.344   2.895  1.2072 -2.2687  0.3575
  344SOL    HW2 1032   2.617   0.220   2.927 -0.1266 -0.8187  1.4583
  345SOL     OW 1033   1.358   0.040   1.246  0.1324  0.9693  0.4644
  345SOL    HW1 1034   1.422   3.114   1.181  3.7959  0.6786  0.2720
  345SOL    HW2 1035   1.344   3.112   1.335  2.4099  2.9218 -1.3371
  346SOL     OW 1036   2.317   2.285   1.681 -0.3639 -0.4010 -0.0042
  346SOL    HW1 1037   2.223   2.312   1.705  2.9130 -0.4088  0.3615
  346SOL    HW2 1038   2.321   2.180   1.666 -1.2734 -1.5204 -2.6248
  347SOL     OW 1039   2.574   2.904   0.537  0.1703 -0.0657 -0.1103
  347SOL    HW1 1040   2.653   2.892   0.596 -1.8129  0.2178 -1.3163
  347SOL    HW2 1041   2.575   2.999   0.506  1.6048 -1.0594  1.8433
  348SOL     OW 1042   0.706   1.063   1.112  0.0237  0.0196 -0.5148
  348SOL    HW1 1043   0.768   1.058   1.030 -0.5049  0.0821 -1.1135
  348SOL    HW2 1044   0.753   1.046   1.200 -1.2148 -1.1834  2.2620
  349SOL     OW 1045   2.178   2.863   0.096  0.3201  0.1605 -0.0286
  349SOL    HW1 1046   2.196   2.925   0.178 -0.6231 -1.0464  0.5022
  349SOL    HW2 1047   2.198   2.766   0.132  4.4719 -4.0275  2.6317
  350SOL     OW 1048   2.538   2.047   2.979  0.4065 -0.6098 -0.7468
  350SOL    HW1 1049   2.453   1.985   2.980 -1.3711 -2.7330 -0.9569
  350SOL    HW2 1050   2.513   2.145   2.999 -0.1366 -1.1238 -0.8970
  351SOL     OW 1051   0.972   0.545   0.652  0.7143  0.0158 -0.3545
  351SOL    HW1 1052   1.058   0.530   0.700 -3.2722 -0.4226 -1.4275
  351SOL    HW2 1053   0.912   0.465   0.642 -1.4998  0.3025 -0.1875
  352SOL     OW 1054   2.120   2.611   2.753 -0.6693 -0.4561  0.2447
  352SOL    HW1 1055   2.204   2.551   2.756 -2.5900 -2.1906  0.2608
  352SOL    HW2 1056   2.137   2.683   2.821 -2.3121 -4.0970  2.2489
  353SOL     OW 1057   0.759   0.587   3.077  0.6668  0.4535  0.4132
  353SOL    HW1 1058   0.744   0.683   3.053  1.8393 -2.5303 -0.7054
  353SOL    HW2 1059   0.665   0.553   3.095 -0.3644  0.6984  0.3106
  354SOL     OW 1060   0.851   1.770   2.860 -0.8607  0.1482  0.4651
  354SOL    HW1 1061   0.772   1.733   2.907 -1.0048  0.4654  4.8909
  354SOL    HW2 1062   0.935   1.732   2.894 -0.3873 -0.0261  0.9367
  355SOL     OW 1063   2.918   2.812   1.797  0.8643  0.3757  0.2300
  355SOL    HW1 1064   2.829   2.760   1.793 -3.2861 -1.5291 -0.5440
  355SOL    HW2 1065   2.915   2.915   1.788  2.0459  1.5010  2.1648
  356SOL     OW 1066   2.920   0.794   0.551  0.1922  0.0933 -0.0715
  356SOL    HW1 1067   2.860   0.856   0.603 -0.5739  1.5693  1.2895
  356SOL    HW2 1068   2.877   0.702   0.545 -1.8290  1.7561 -2.7156
  357SOL     OW 1069   2.460   0.271   1.181  0.0314 -0.0268  0.0835
  357SOL    HW1 1070   2.555   0.313   1.181  1.5568  2.5316 -2.6014
  357SOL    HW2 1071   2.411   0.301   1.267 -1.3423  1.2035  3.0164
  358SOL     OW 1072   1.162   2.654   1.350  0.8592 -0.4921 -0.2828
  358SOL    HW1 1073   1.152   2.580   1.286  1.0556  2.1328 -0.0560
  358SOL    HW2 1074   1.260   2.689   1.351  1.9332  0.0543 -0.5541
  359SOL     OW 1075   0.027   2.159   2.750  0.1978  0.3303  0.0722
  359SOL    HW1 1076   0.067   2.067   2.764 -0.5629  1.9913  1.4050
  359SOL    HW2 1077   3.079   2.174   2.824 -1.6302  0.8686  0.2910
  360SOL     OW 1078   0.605   0.866   1.724 -0.3177  0.0485 -0.4177
  360SOL    HW1 1079   0.533   0.904   1.785  0.7625 -1.1148 -0.3700
  360SOL    HW2 1080   0.696   0.911   1.745  1.0663 -1.3045  0.3295
  361SOL     OW 1081   2.358   2.796   0.658 -0.6147 -0.8196  0.3272
  361SOL    HW1 1082   2.274   2.846   0.638  5.3548 -1.0772 -1.1740
  361SOL    HW2 1083   2.436   2.831   0.595  1.0734  1.6668 -0.4403
  362SOL     OW 1084   2.984   2.860   1.107 -0.5213  0.0820 -0.3436
  362SOL    HW1 1085   3.052   2.848   1.032 -1.2111  0.4667  0.6375
  362SOL    HW2 1086   2.894   2.880   1.070  0.9907  0.1834 -1.5476
  363SOL     OW 1087   0.802   1.599   0.451  0.7087 -0.0139 -0.2773
  363SOL    HW1 1088   0.795   1.504   0.410 -0.1458  1.7489 -1.1098
  363SOL    HW2 1089   0.794   1.610   0.552 -0.8513  1.0990 -1.8167
  364SOL     OW 1090   0.663   1.431   1.301 -0.1795 -0.3689 -0.4469
  364SOL    HW1 1091   0.663   1.387   1.392 -0.9091 -0.6284 -1.3891
  364SOL    HW2 1092   0.748   1.483   1.281  1.3101  1.3675 -1.8581
  365SOL     OW 1093   2.448   1.507   0.400 -0.2192  0.1203 -0.1299
  365SOL    HW1 1094   2.511   1.470   0.474 -1.9240  0.0567  2.7595
  365SOL    HW2 1095   2.484   1.600   0.375  0.4558  1.4837 -0.3262
  366SOL     OW 1096   2.635   1.534   1.157  0.6928 -0.7717 -0.2114
  366SOL    HW1 1097   2.706   1.550   1.222 -3.3751  0.7106 -3.4547
  366SOL    HW2 1098   2.595   1.621   1.118  1.4568  0.2985 -1.3122
  367SOL     OW 1099   2.171   2.233   2.141  0.1279  0.0277  0.3768
  367SOL    HW1 1100   2.146   2.249   2.042 -0.0733 -0.6239 -1.3732
  367SOL    HW2 1101   2.270   2.209   2.152 -2.0438  5.1910  1.2633
  368SOL     OW 1102   2.736   1.024   1.262 -0.0886 -0.7075  0.2994
  368SOL    HW1 1103   2.691   1.074   1.338 -0.2068  1.3494 -2.4229
  368SOL    HW2 1104   2.783   0.939   1.292 -0.3466 -0.6703 -1.4910
  369SOL     OW 1105   2.486   2.573   0.237  0.0873  0.5688  0.2835
  369SOL    HW1 1106   2.492   2.672   0.244 -0.3900 -2.2655 -0.4680
  369SOL    HW2 1107   2.535   2.541   0.153  0.5687 -1.0204  2.2232
  370SOL     OW 1108   2.840   2.575   1.423 -0.2637 -0.1115 -0.3814
  370SOL    HW1 1109   2.741   2.566   1.454  0.2630 -2.1540 -1.0679
  370SOL    HW2 1110   2.876   2.668   1.421  0.4298 -0.1439  0.6362
  371SOL     OW 1111   0.836   1.632   2.478 -0.0847  0.0799  0.3734
  371SOL    HW1 1112   0.935   1.626   2.482  1.2164  1.4511  0.0023
  371SOL    HW2 1113   0.804   1.716   2.529 -3.0140  2.1408  0.4625
  372SOL     OW 1114   0.809   1.322   0.370 -0.1795  0.7523  1.0792
  372SOL    HW1 1115   0.714   1.291   0.377  0.6004 -1.9426  0.4558
  372SOL    HW2 1116   0.861   1.246   0.321  1.8955  1.4845 -2.2801
  373SOL     OW 1117   1.484   2.639   0.102  0.1365 -0.2583  0.0263
  373SOL    HW1 1118   1.497   2.555   0.156  0.4643  0.4820  3.3151
  373SOL    HW2 1119   1.435   2.623   0.012  0.3528 -0.4022  0.0306
  374SOL     OW 1120   0.350   1.821   0.105  0.2989 -0.0472  0.1233
  374SOL    HW1 1121   0.260   1.869   0.085 -1.1083  0.7282 -2.0468
  374SOL    HW2 1122   0.349   1.722   0.072 -0.3948 -1.0027 -1.7026
  375SOL     OW 1123   1.008   1.522   2.049  0.0851  0.1088 -0.1885
  375SOL    HW1 1124   1.093   1.471   2.057  0.1213  2.1953 -1.4840
  375SOL    HW2 1125   0.931   1.476   2.007 -1.2814 -0.2525  0.0518
  376SOL     OW 1126   0.553   2.333   1.611  0.7339 -0.2888 -0.8095
  376SOL    HW1 1127   0.469   2.302   1.656 -0.3750 -1.1760 -0.5470
  376SOL    HW2 1128   0.613   2.379   1.678  2.0538 -0.4223 -0.3996
  377SOL     OW 1129   2.456   1.389   2.089  0.1366  0.5939 -0.1302
  377SOL    HW1 1130   2.360   1.391   2.066  2.0724 -1.5926  1.1236
  377SOL    HW2 1131   2.485   1.296   2.121 -0.1774 -0.2268 -1.0481
  378SOL     OW 1132   0.993   2.929   3.018 -0.1479  0.0666 -0.1485
  378SOL    HW1 1133   0.931   2.923   2.938 -0.3377  3.3049  0.6345
  378SOL    HW2 1134   0.998   2.843   3.073 -1.9517 -0.1292 -1.5959
  379SOL     OW 1135   1.649   0.556   0.811  0.4642 -0.0471  0.1172
  379SOL    HW1 1136   1.555   0.547   0.858  0.6909 -0.9243 -0.7934
  379SOL    HW2 1137   1.641   0.614   0.727 -1.6442  0.6532 -1.4426
  380SOL     OW 1138   2.841   1.796   1.467 -0.0840  0.5109 -0.4971
  380SOL    HW1 1139   2.903   1.850   1.529 -1.1172 -0.0521 -1.0592
  380SOL    HW2 1140   2.766   1.850   1.428  0.1334  1.3206  2.1154
  381SOL     OW 1141   1.756   1.952   1.715 -0.0881  0.1689 -0.2224
  381SOL    HW1 1142   1.666   1.935   1.758 -0.2075 -1.9542  0.4100
  381SOL    HW2 1143   1.762   2.043   1.677  2.1100 -1.5314  0.2184
  382SOL     OW 1144   0.150   0.501   3.113  0.9796  0.2065  0.1022
  382SOL    HW1 1145   0.148   0.423   0.059 -1.2353 -0.9962  0.9000
  382SOL    HW2 1146   0.119   0.588   0.046 -1.2505  4.1025  1.1481
  383SOL     OW 1147   1.594   1.242   2.638  1.0681 -0.6524  0.0367
  383SOL    HW1 1148   1.538   1.308   2.691  0.6574  0.4766  1.5264
  383SOL    HW2 1149   1.693   1.259   2.651 -2.6617 -1.7389  2.8925
  384SOL     OW 1150   1.119   2.452   1.171 -0.4454 -0.6375  0.1700
  384SOL    HW1 1151   1.142   2.520   1.096 -0.7259  1.4950 -2.6896
  384SOL    HW2 1152   1.115   2.359   1.131  1.1575  4.6389  0.4884
  385SOL     OW 1153   1.840   2.478   0.867 -0.9592 -0.2360 -0.1288
  385SOL    HW1 1154   1.893   2.454   0.788 -0.6391 -2.2081  2.7337
  385SOL    HW2 1155   1.790   2.402   0.909 -2.2785  2.8845  1.1017
  386SOL     OW 1156   2.052   2.195   1.104 -0.0460  0.0879  0.6281
  386SOL    HW1 1157   1.959   2.177   1.134  1.5780 -0.6394  0.7520
  386SOL    HW2 1158   2.111   2.205   1.189  1.2978  0.0854  1.6624
  387SOL     OW 1159   0.331   2.083   1.387  0.0171 -0.0545  0.1726
  387SOL    HW1 1160   0.357   2.168   1.343 -2.5991 -1.0173 -0.9155
  387SOL    HW2 1161   0.396   2.010   1.362 -1.2661  1.0333  1.2363
  388SOL     OW 1162   3.084   0.617   1.735 -0.3594 -0.5247  0.0784
  388SOL    HW1 1163   3.005   0.597   1.798  2.0015 -1.7572 -0.8799
  388SOL    HW2 1164   0.046   0.557   1.767 -1.2605 -2.2742  1.0043
  389SOL     OW 1165   1.897   1.285   0.999  0.3087  0.4391  0.1724
  389SOL    HW1 1166   1.952   1.365   1.028  0.4734 -2.4026  1.0666
  389SOL    HW2 1167   1.797   1.299   0.997  0.4813 -1.2249 -1.2489
  390SOL     OW 1168   0.799   2.182   2.203 -0.0482 -0.0774  0.1636
  390SOL    HW1 1169   0.730   2.237   2.254 -0.7159  0.4519  2.3188
  390SOL    HW2 1170   0.760   2.096   2.166 -2.3753 -0.2309  0.1697
  391SOL     OW 1171   0.986   1.967   2.545 -0.1991  0.0327 -0.3995
  391SOL    HW1 1172   0.887   1.943   2.555 -1.4072 -0.8420 -0.2782
  391SOL    HW2 1173   1.004   2.025   2.464  2.0623 -1.3510  2.9353
  392SOL     OW 1174   3.014   3.034   2.190  0.3923  0.0357 -0.1148
  392SOL    HW1 1175   3.037   3.043   2.290  0.9594 -0.5829 -0.4012
  392SOL    HW2 1176   3.089   2.982   2.136  1.5146 -2.9495  1.2831
  393SOL     OW 1177   1.987   2.699   0.455 -0.3811 -0.2727  0.0074
  393SOL    HW1 1178   1.910   2.747   0.408  0.9825 -1.8144  1.4147
  393SOL    HW2 1179   1.999   2.608   0.418  1.9887 -2.3926  2.0507
  394SOL     OW 1180   0.766   0.653   2.639 -0.1773 -0.0512  1.1595
  394SOL    HW1 1181   0.676   0.685   2.678 -2.8367 -1.4090 -1.2228
  394SOL    HW2 1182   0.738   0.591   2.556 -0.8860 -0.2775 -1.4518
  395SOL     OW 1183   0.771   1.052   1.383  0.5212 -0.2406  0.1140
  395SOL    HW1 1184   0.706   0.986   1.422  0.2039 -0.9093  1.3753
  395SOL    HW2 1185   0.758   1.141   1.432  0.4745  1.7955  1.1488
  396SOL     OW 1186   1.797   1.685   2.088 -0.0945  0.0371 -0.1926
  396SOL    HW1 1187   1.747   1.598   2.064  0.1505  1.2927  0.7783
  396SOL    HW2 1188   1.840   1.679   2.179  2.2247 -0.2793 -0.3571
  397SOL     OW 1189   0.938   0.474   2.741 -0.3902  0.3601 -0.3866
  397SOL    HW1 1190   0.958   0.480   2.841  0.4700  2.0736 -2.6817
  397SOL    HW2 1191   0.870   0.543   2.708  1.4583  0.2917 -0.9728
  398SOL     OW 1192   0.460   1.871   2.470 -0.0348 -0.3804 -0.8711
  398SOL    HW1 1193   0.446   1.957   2.529  1.4776  2.8471  1.2920
  398SOL    HW2 1194   0.397   1.872   2.391 -0.5844  0.7533 -1.6710
  399SOL     OW 1195   0.199   1.503   2.235  0.3731  0.1573 -0.6507
  399SOL    HW1 1196   0.200   1.501   2.135  0.9176  0.3675  1.9828
  399SOL    HW2 1197   0.280   1.451   2.271  2.3143 -0.8387  1.2674
  400SOL     OW 1198   2.861   0.375   1.598  0.7709  0.6232  0.3732
  400SOL    HW1 1199   2.784   0.331   1.654  0.5074  0.8761  2.9157
  400SOL    HW2 1200   2.948   0.351   1.645  1.6513 -1.8815 -1.6247
  401SOL     OW 1201   0.749   1.786   0.267  0.2948  0.0164 -0.5029
  401SOL    HW1 1202   0.808   1.787   0.184  0.0476  2.2635 -0.9249
  401SOL    HW2 1203   0.756   1.700   0.325  0.4442 -3.0535  0.2930
  402SOL     OW 1204   3.100   2.319   2.134  0.1154  0.2047 -0.6090
  402SOL    HW1 1205   3.095   2.354   2.041 -2.1030 -1.8445  3.5986
  402SOL    HW2 1206   3.117   2.220   2.132 -1.7686 -0.2626 -1.2504
  403SOL     OW 1207   0.293   1.223   1.983 -0.5945  0.4958 -0.4770
  403SOL    HW1 1208   0.202   1.174   1.980 -1.7178 -0.5609  0.3752
  403SOL    HW2 1209   0.336   1.206   2.076 -0.1878  2.8116  2.2945
  404SOL     OW 1210   1.767   2.134   1.419 -0.0397 -0.1235 -0.1762
  404SOL    HW1 1211   1.673   2.099   1.443 -2.2594 -1.2953  0.4990
  404SOL    HW2 1212   1.819   2.185   1.490  0.7737  2.6239 -1.5019
  405SOL     OW 1213   2.826   2.418   2.746 -0.0825  0.4359 -0.4518
  405SOL    HW1 1214   2.835   2.512   2.790 -0.2051  3.1962  0.9718
  405SOL    HW2 1215   2.912   2.400   2.696 -2.0094  1.8899  2.3407
  406SOL     OW 1216   0.657   1.244   2.814 -1.2670  0.2286 -0.1082
  406SOL    HW1 1217   0.694   1.154   2.783  0.6852  2.3900  1.0694
  406SOL    HW2 1218   0.681   1.317   2.748  0.4132  1.5322 -0.2961
  407SOL     OW 1219   2.490   2.837   2.897 -0.2824  0.2335 -0.3571
  407SOL    HW1 1220   2.547   2.861   2.822 -0.4615  0.9441  0.9515
  407SOL    HW2 1221   2.538   2.801   2.979 -0.5352  1.1220 -1.4669
  408SOL     OW 1222   2.670   2.485   0.045  1.0631  0.1691 -0.3173
  408SOL    HW1 1223   2.728   2.446   0.119  0.3675 -0.8373  2.0043
  408SOL    HW2 1224   2.669   2.427   3.082 -1.0034  0.1326  0.7688
  409SOL     OW 1225   2.327   1.072   0.742 -0.0243 -0.6087  0.1569
  409SOL    HW1 1226   2.397   1.146   0.756 -0.0637  0.2441 -2.1778
  409SOL    HW2 1227   2.231   1.105   0.764  0.1629  4.0690  0.8357
  410SOL     OW 1228   2.841   1.500   0.753  0.2612 -0.4548  0.2387
  410SOL    HW1 1229   2.787   1.465   0.831 -0.6244  0.8332  0.4182
  410SOL    HW2 1230   2.936   1.465   0.773  0.2466 -0.5519  1.0114
  411SOL     OW 1231   0.254   1.401   0.800  0.0822  0.0090  0.1771
  411SOL    HW1 1232   0.253   1.502   0.805  0.2109  3.5728  0.2473
  411SOL    HW2 1233   0.302   1.358   0.877 -1.6034  2.2550 -2.9826
  412SOL     OW 1234   2.388   2.293   0.792 -0.2606  0.0593  0.3231
  412SOL    HW1 1235   2.452   2.356   0.740  0.6243  3.9185  2.8013
  412SOL    HW2 1236   2.308   2.346   0.818  0.9049  1.1261 -3.0454
  413SOL     OW 1237   1.524   1.255   2.056 -0.1749 -0.2243 -0.0574
  413SOL    HW1 1238   1.429   1.232   2.031  0.8596  1.3768  2.7009
  413SOL    HW2 1239   1.525   1.279   2.153 -0.0822 -1.4631 -0.9440
  414SOL     OW 1240   2.848   2.881   0.098 -0.2776 -0.3965 -0.6851
  414SOL    HW1 1241   2.831   2.930   0.012  1.2925 -1.5897  1.6598
  414SOL    HW2 1242   2.856   2.951   0.175  0.3466  1.7986  2.1321
  415SOL     OW 1243   1.089   2.131   1.475  0.4138 -0.1859 -0.0936
  415SOL    HW1 1244   1.017   2.196   1.452  1.2676 -1.8336 -3.1156
  415SOL    HW2 1245   1.045   2.061   1.532  1.0333  1.7667  1.1708
  416SOL     OW 1246   3.083   2.373   2.618  0.2982  0.1431 -0.7200
  416SOL    HW1 1247   0.033   2.445   2.637 -2.1334  2.8146  1.6316
  416SOL    HW2 1248   3.107   2.288   2.664  0.0590  3.9812 -0.7059
  417SOL     OW 1249   2.666   0.445   1.165 -0.2600 -0.8064 -0.0189
  417SOL    HW1 1250   2.702   0.378   1.094  1.7451 -1.3246  1.3128
  417SOL    HW2 1251   2.746   0.464   1.231 -0.0203  1.2498  3.1280
  418SOL     OW 1252   2.767   0.147   0.063  0.0160 -0.2660  0.0002
  418SOL    HW1 1253   2.794   0.070   0.123  0.4307 -0.2920  2.9773
  418SOL    HW2 1254   2.665   0.155   0.052  1.5188  0.9402 -0.5682
  419SOL     OW 1255   0.145   1.576   1.417 -0.2547  0.1909 -0.1649
  419SOL    HW1 1256   0.047   1.552   1.422  0.9850  0.0291 -2.2055
  419SOL    HW2 1257   0.179   1.576   1.322 -0.0014 -1.7186  0.5184
  420SOL     OW 1258   0.384   1.514   0.045  0.0393 -0.1587  0.6891
  420SOL    HW1 1259   0.466   1.499   0.101 -2.0515 -0.2015 -1.6047
  420SOL    HW2 1260   0.395   1.447   3.085  1.9930  2.1913  1.6153
  421SOL     OW 1261   2.250   2.761   2.470  0.1580  0.0854 -0.2231
  421SOL    HW1 1262   2.148   2.776   2.450 -2.1057  0.0909 -1.5539
  421SOL    HW2 1263   2.281   2.670   2.432 -0.2743 -0.1373  1.0264
  422SOL     OW 1264   0.286   0.720   2.571  0.2360  0.2191  0.5792
  422SOL    HW1 1265   0.232   0.699   2.483  0.7996  0.2821  0.6326
  422SOL    HW2 1266   0.221   0.762   2.637 -1.9799 -0.5101 -0.5922
  423SOL     OW 1267   1.101   2.212   0.603 -0.5655  0.3627  0.3120
  423SOL    HW1 1268   1.191   2.186   0.651  2.9563  1.6332 -2.5480
  423SOL    HW2 1269   1.053   2.128   0.572  0.6181  2.0760  1.5348
  424SOL     OW 1270   0.875   1.989   1.572 -0.1966 -0.5738  0.2795
  424SOL    HW1 1271   0.856   2.088   1.583  1.1124 -1.1954  1.4833
  424SOL    HW2 1272   0.793   1.933   1.598 -0.5315  2.0702 -0.5635
  425SOL     OW 1273   2.594   2.515   2.658 -0.0510 -0.1256  0.4123
  425SOL    HW1 1274   2.611   2.588   2.583 -2.2051  1.7251  0.0859
  425SOL    HW2 1275   2.682   2.467   2.686  1.7919 -0.9952  1.4690
  426SOL     OW 1276   1.425   0.611   1.004  0.1457 -0.0118 -0.2343
  426SOL    HW1 1277   1.408   0.608   1.101 -0.7019  1.6436  0.2064
  426SOL    HW2 1278   1.341   0.639   0.954 -0.7618 -0.7003  0.1905
  427SOL     OW 1279   0.086   1.521   2.595  0.0714  0.1623  0.2654
  427SOL    HW1 1280   0.015   1.527   2.672 -0.5421  2.6632 -0.4125
  427SOL    HW2 1281   0.046   1.479   2.511  0.6393 -0.1011  1.0270
  428SOL     OW 1282   1.162   1.447   3.102 -0.4291  0.0755  0.4624
  428SOL    HW1 1283   1.068   1.484   3.090  1.4719 -0.6676 -1.1497
  428SOL    HW2 1284   1.235   1.504   3.058  1.4408 -2.8005 -0.0303
  429SOL     OW 1285   2.841   2.596   0.592 -0.4869  0.6413  0.4106
  429SOL    HW1 1286   2.826   2.498   0.562 -2.4599 -1.3107  0.9583
  429SOL    HW2 1287   2.842   2.662   0.510 -0.6472  0.1991 -2.1321
  430SOL     OW 1288   0.453   2.252   2.201  0.0712  0.3367  0.1116
  430SOL    HW1 1289   0.360   2.279   2.234  1.0317 -0.9958 -1.0806
  430SOL    HW2 1290   0.447   2.182   2.121  3.3304 -0.0008  0.2219
  431SOL     OW 1291   3.023   1.158   0.335  0.0125  0.2036  0.1397
  431SOL    HW1 1292   3.092   1.213   0.286  1.1630 -0.7415  0.0298
  431SOL    HW2 1293   3.022   1.059   0.298  0.8096  0.0844  0.9195
  432SOL     OW 1294   1.650   2.756   2.551 -0.0563 -0.0947 -0.7950
  432SOL    HW1 1295   1.630   2.859   2.548  1.6436  1.3938  0.1621
  432SOL    HW2 1296   1.717   2.742   2.625  1.1006 -1.3725  1.4842
  433SOL     OW 1297   1.013   2.658   0.692 -0.0183 -0.4265  0.3439
  433SOL    HW1 1298   1.061   2.748   0.673  0.3394  0.7364  0.5169
  433SOL    HW2 1299   1.023   2.636   0.791 -1.0855  0.8912 -1.1904
  434SOL     OW 1300   1.490   1.988   2.320 -0.4479  0.0121 -0.0505
  434SOL    HW1 1301   1.457   2.067   2.376 -0.2514  3.0475  4.2287
  434SOL    HW2 1302   1.488   1.903   2.383 -2.2280 -2.3426  0.2732
  435SOL     OW 1303   2.428   0.756   0.141 -0.0388 -0.4124  0.2672
  435SOL    HW1 1304   2.450   0.839   0.086 -0.5293 -0.0709 -1.0043
  435SOL    HW2 1305   2.356   0.775   0.211 -0.6328 -0.1070 -1.8662
  436SOL     OW 1306   0.262   2.575   2.294  0.2483  0.6697 -0.0282
  436SOL    HW1 1307   0.228   2.482   2.289 -2.8715  1.5010 -2.0588
  436SOL    HW2 1308   0.355   2.594   2.337  2.4076 -0.3518  0.2974
  437SOL     OW 1309   2.069   3.037   1.542  0.2821 -0.0633  0.0682
  437SOL    HW1 1310   2.065   2.935   1.543 -1.3334  0.0735 -1.0894
  437SOL    HW2 1311   2.152   3.061   1.490  0.2137  0.0092  1.2453
  438SOL     OW 1312   0.077   1.805   0.620 -0.4957 -0.2083 -0.6570
  438SOL    HW1 1313   0.072   1.828   0.722  1.9377  1.0728  4.8482
  438SOL    HW2 1314   0.167   1.847   0.584 -1.0530 -0.0493  0.8257
  439SOL     OW 1315   0.081   3.056   1.167  0.2806  0.4652 -0.0979
  439SOL    HW1 1316   0.113   3.104   1.084 -3.6027  0.9605  1.0522
  439SOL    HW2 1317   3.106   3.016   1.154 -0.6702 -0.6689  2.2938
  440SOL     OW 1318   2.850   2.891   2.423 -0.3763 -0.2043  0.4993
  440SOL    HW1 1319   2.832   2.809   2.359  0.5197 -1.0438 -1.9986
  440SOL    HW2 1320   2.844   2.977   2.365  1.5323  0.8821 -2.5859
  441SOL     OW 1321   0.378   0.531   0.261 -0.3038 -0.1633  0.0502
  441SOL    HW1 1322   0.385   0.636   0.246  1.1680  0.7957 -0.1672
  441SOL    HW2 1323   0.278   0.504   0.258  1.5892  0.1501  0.2330
  442SOL     OW 1324   1.628   2.516   2.400 -0.2967 -0.7684  0.5109
  442SOL    HW1 1325   1.631   2.435   2.463 -0.8044  1.0458  0.7648
  442SOL    HW2 1326   1.620   2.600   2.454  0.0099  1.3725 -1.8254
  443SOL     OW 1327   0.688   2.831   2.987 -0.4801 -0.0660 -0.0040
  443SOL    HW1 1328   0.610   2.783   2.940 -0.2220  2.3688 -2.4502
  443SOL    HW2 1329   0.686   2.934   2.977  1.1163 -0.9112 -1.1781
  444SOL     OW 1330   1.462   1.926   2.747 -0.7931  0.1884 -0.1469
  444SOL    HW1 1331   1.370   1.967   2.740 -0.4111  1.2604  0.9054
  444SOL    HW2 1332   1.479   1.889   2.655 -0.4761 -0.9160 -3.0996
  445SOL     OW 1333   0.273   0.245   1.089  0.3565 -0.1282  0.0673
  445SOL    HW1 1334   0.201   0.190   1.047  1.4868  2.3307 -0.2150
  445SOL    HW2 1335   0.366   0.207   1.071  0.7934 -1.0661  2.8415
  446SOL     OW 1336   1.619   0.814   0.974  0.2824  0.3357  0.4989
  446SOL    HW1 1337   1.570   0.724   0.981  0.7042 -0.7446  0.7498
  446SOL    HW2 1338   1.712   0.817   1.022  0.2331 -0.4943  1.4994
  447SOL     OW 1339   3.090   0.867   0.314 -0.1572  0.6509 -0.0091
  447SOL    HW1 1340   3.014   0.852   0.376 -0.5089  2.4964 -0.5421
  447SOL    HW2 1341   0.061   0.875   0.359 -1.5698 -1.8164  2.3803
  448SOL     OW 1342   2.247   1.850   1.124 -0.3852  0.0554  0.2475
  448SOL    HW1 1343   2.317   1.926   1.126  0.9191  1.3261 -0.2445
  448SOL    HW2 1344   2.157   1.877   1.086  0.5184  0.9674 -1.1105
  449SOL     OW 1345   0.960   1.454   2.816  0.4264 -0.1717 -0.4211
  449SOL    HW1 1346   1.052   1.485   2.783  3.1784 -2.0989  1.0953
  449SOL    HW2 1347   0.930   1.500   2.903 -0.9009  0.1998  1.1749
  450SOL     OW 1348   2.325   3.024   2.391 -0.0317  0.4780 -0.3828
  450SOL    HW1 1349   2.326   2.930   2.430 -1.6872 -0.5709 -1.4684
  450SOL    HW2 1350   2.231   3.062   2.410 -0.3892  0.4663  1.0116
  451SOL     OW 1351   2.631   0.846   2.615 -0.2831  0.5520 -0.3663
  451SOL    HW1 1352   2.637   0.788   2.698  1.2880 -2.3413 -0.6251
  451SOL    HW2 1353   2.589   0.799   2.535  0.0098  0.8248 -3.6193
  452SOL     OW 1354   1.703   1.252   1.357 -0.6556  0.3711  0.0514
  452SOL    HW1 1355   1.670   1.311   1.282 -0.4267 -0.8268  0.2065
  452SOL    HW2 1356   1.674   1.284   1.444  0.7136 -1.1027 -3.4775
  453SOL     OW 1357   1.720   0.476   1.878  0.4246 -0.5118 -0.3434
  453SOL    HW1 1358   1.703   0.470   1.777  0.0538  0.0461  3.4334
  453SOL    HW2 1359   1.632   0.462   1.932 -0.4098 -0.4292  0.7581
  454SOL     OW 1360   3.032   0.866   3.035  0.4931 -0.3404 -0.6013
  454SOL    HW1 1361   3.073   0.801   2.972 -1.5879  1.5062  1.3403
  454SOL    HW2 1362   3.058   0.840   0.012 -0.7241  0.3117 -0.5997
  455SOL     OW 1363   2.600   1.646   1.549  0.0278 -0.0024 -0.2738
  455SOL    HW1 1364   2.528   1.624   1.624 -0.8418  1.2023  1.0835
  455SOL    HW2 1365   2.697   1.626   1.573 -1.3098  2.0473 -0.2867
  456SOL     OW 1366   1.830   2.846   1.924  0.7208  0.2051  0.1417
  456SOL    HW1 1367   1.766   2.829   2.000 -1.8968 -0.2286 -1.0217
  456SOL    HW2 1368   1.828   2.944   1.902  2.9317 -1.9166  0.8304
  457SOL     OW 1369   1.368   2.697   0.757 -0.4249 -0.3379 -0.5274
  457SOL    HW1 1370   1.469   2.713   0.734 -0.5349 -0.9649  2.8378
  457SOL    HW2 1371   1.310   2.778   0.725 -0.3488  1.4063 -2.0764
  458SOL     OW 1372   3.085   2.927   0.681 -0.5319 -0.9988  0.1409
  458SOL    HW1 1373   3.113   2.890   0.774 -0.3969 -1.1882  3.0159
  458SOL    HW2 1374   3.100   2.864   0.605  0.1216  0.4129  0.3150
  459SOL     OW 1375   1.874   1.218   0.605  0.0648  0.5965 -0.2881
  459SOL    HW1 1376   1.896   1.172   0.517  1.5763 -2.4694  1.2502
  459SOL    HW2 1377   1.942   1.202   0.679  0.0044 -0.8193 -0.6345
  460SOL     OW 1378   0.731   2.603   2.286 -0.3880 -0.3091  0.7823
  460SOL    HW1 1379   0.712   2.662   2.206 -1.8838  2.2929 -1.0330
  460SOL    HW2 1380   0.829   2.610   2.323  0.4288 -0.8073  1.0422
  461SOL     OW 1381   0.618   1.728   3.004 -0.2049 -0.4680 -0.0528
  461SOL    HW1 1382   0.529   1.735   2.956  2.0823 -0.2385  1.7916
  461SOL    HW2 1383   0.604   1.655   3.074  0.7321  1.4394  0.4152
  462SOL     OW 1384   2.084   2.224   0.406  0.6563  0.2358  0.1357
  462SOL    HW1 1385   2.164   2.185   0.453  1.4522  3.2743 -0.6940
  462SOL    HW2 1386   2.085   2.188   0.307  0.0110  2.0460 -0.6449
  463SOL     OW 1387   2.782   0.551   0.512  0.2088  0.4552  0.5589
  463SOL    HW1 1388   2.784   0.451   0.532 -1.5628  0.2002 -1.4614
  463SOL    HW2 1389   2.698   0.592   0.551 -0.6666  0.7848  3.3729
  464SOL     OW 1390   0.488   1.849   0.318 -0.0652 -0.0020  0.4681
  464SOL    HW1 1391   0.429   1.841   0.235 -0.6572  0.3686 -2.5344
  464SOL    HW2 1392   0.580   1.819   0.295 -0.1214  3.4767 -2.3020
  465SOL     OW 1393   2.094   0.275   1.394 -0.0097 -0.4636  0.2353
  465SOL    HW1 1394   2.112   0.291   1.298 -1.0957  1.9170  1.3162
  465SOL    HW2 1395   1.994   0.267   1.409  1.9034  5.7779 -1.2349
  466SOL     OW 1396   2.473   0.181   0.775 -0.1985  0.1408 -0.0101
  466SOL    HW1 1397   2.411   0.167   0.697  1.3917 -0.4423  1.2218
  466SOL    HW2 1398   2.452   0.264   0.827  2.0879 -1.0327 -1.7044
  467SOL     OW 1399   0.435   0.504   2.291  0.1610  0.4270  0.1291
  467SOL    HW1 1400   0.356   0.471   2.351 -2.7438  0.2642  0.0626
  467SOL    HW2 1401   0.444   0.448   2.201 -0.3470 -2.6274 -0.7804
  468SOL     OW 1402   2.762   0.002   2.116  0.3242  0.4728  0.2862
  468SOL    HW1 1403   2.765   0.102   2.107  1.2910  0.8112  1.3169
  468SOL    HW2 1404   2.855   3.083   2.140  1.9455 -1.6956  0.3334
  469SOL     OW 1405   1.097   3.041   1.629  0.2329  0.4338 -0.2186
  469SOL    HW1 1406   1.024   3.110   1.643  1.2144  2.3251  1.2973
  469SOL    HW2 1407   1.060   2.968   1.564  1.7642  1.5955  2.6202
  470SOL     OW 1408   2.542   1.000   1.803  0.0103 -0.7517 -0.4418
  470SOL    HW1 1409   2.603   0.926   1.766 -0.7247  1.1100 -0.4008
  470SOL    HW2 1410   2.471   0.954   1.857 -0.4261 -0.2229  1.3636
  471SOL     OW 1411   3.043   1.503   2.813 -0.6629 -0.3805 -0.3141
  471SOL    HW1 1412   2.974   1.539   2.882  0.5082 -2.1290 -2.8397
  471SOL    HW2 1413   3.013   1.407   2.794  0.2821  0.5119  0.3517
  472SOL     OW 1414   0.568   2.116   0.594  0.3002  0.0070 -0.5160
  472SOL    HW1 1415   0.603   2.111   0.495  0.2609  0.7817 -3.1107
  472SOL    HW2 1416   0.586   2.209   0.634  1.6255 -1.6068 -0.5100
  473SOL     OW 1417   1.365   2.344   2.297  0.3061  0.0979 -0.2286
  473SOL    HW1 1418   1.431   2.300   2.361 -2.1378  1.7561  0.7071
  473SOL    HW2 1419   1.385   2.443   2.303  0.8494 -2.2890 -0.9212
  474SOL     OW 1420   0.508   2.874   2.636 -0.0790 -0.1979  0.4372
  474SOL    HW1 1421   0.478   2.809   2.709  0.3888 -0.0885  1.1462
  474SOL    HW2 1422   0.504   2.969   2.669  0.6644 -1.5497 -1.0085
  475SOL     OW 1423   0.704   1.821   2.612  0.3613  0.1103 -0.1760
  475SOL    HW1 1424   0.735   1.851   2.707 -0.6862 -0.8135 -1.4760
  475SOL    HW2 1425   0.603   1.834   2.594 -1.3973  0.5197 -1.9177
  476SOL     OW 1426   0.696   0.700   0.944 -0.1401  0.3557  0.5380
  476SOL    HW1 1427   0.646   0.695   1.028  0.0983 -0.1300 -3.2523
  476SOL    HW2 1428   0.637   0.739   0.869 -1.4819 -0.3921 -2.8609
  477SOL     OW 1429   2.116   2.186   1.369 -0.0434 -0.4265  0.4205
  477SOL    HW1 1430   2.212   2.220   1.373 -0.0461 -1.1665  1.3051
  477SOL    HW2 1431   2.043   2.242   1.413 -1.2284  1.2307  1.1218
  478SOL     OW 1432   0.308   0.371   2.918  0.5089 -0.7417 -0.1179
  478SOL    HW1 1433   0.236   0.425   2.971 -2.9031  0.4147  2.1018
  478SOL    HW2 1434   0.314   0.401   2.818 -0.2381 -0.0024 -2.5965
  479SOL     OW 1435   1.190   0.266   1.482 -0.1458  0.0965  0.1741
  479SOL    HW1 1436   1.125   0.328   1.529  1.7423  0.6923 -0.2404
  479SOL    HW2 1437   1.150   0.212   1.406  0.7235  2.2955  2.0063
  480SOL     OW 1438   2.790   2.164   0.343  0.2450  0.3371  0.0847
  480SOL    HW1 1439   2.710   2.167   0.282 -1.3732  1.3454 -0.8399
  480SOL    HW2 1440   2.809   2.069   0.371  1.3597 -0.3600  0.9694
  481SOL     OW 1441   0.102   0.704   1.485  0.1502 -0.1929  0.1362
  481SOL    HW1 1442   0.083   0.802   1.484 -0.5719 -2.2890  0.8424
  481SOL    HW2 1443   0.049   0.663   1.562  2.7541  1.7930 -2.1508
  482SOL     OW 1444   0.928   3.086   1.250  0.0127  0.0756 -0.0880
  482SOL    HW1 1445   0.825   3.078   1.229 -1.8307  0.0576 -0.0899
  482SOL    HW2 1446   0.936   3.045   1.341  1.0948  0.1420 -3.1455
  483SOL     OW 1447   3.042   1.401   2.370  0.3127 -0.2049  0.1049
  483SOL    HW1 1448   3.014   1.314   2.420  1.0550 -2.5039 -0.5549
  483SOL    HW2 1449   2.978   1.476   2.380 -1.4709 -0.7974  1.3407
  484SOL     OW 1450   1.883   1.891   1.950  0.8098 -0.1971 -0.2071
  484SOL    HW1 1451   1.862   1.803   2.000  0.4625  1.6408  1.0410
  484SOL    HW2 1452   1.807   1.901   1.879 -0.7578  0.1735 -2.6931
  485SOL     OW 1453   0.173   2.843   2.368 -0.5506  0.0649  0.0563
  485SOL    HW1 1454   0.149   2.843   2.469  0.0930  1.0997 -0.3651
  485SOL    HW2 1455   0.204   2.748   2.346 -1.2455 -0.5625 -2.5508
  486SOL     OW 1456   1.116   0.135   0.742  0.4042 -0.3103  0.0184
  486SOL    HW1 1457   1.162   0.059   0.790  1.9645  0.4600  0.8958
  486SOL    HW2 1458   1.164   0.225   0.765 -0.3661 -0.1170  2.6082
  487SOL     OW 1459   1.364   0.239   0.932  0.2181 -0.3141  0.3210
  487SOL    HW1 1460   1.447   0.234   0.868  2.7549 -3.4204 -0.4016
  487SOL    HW2 1461   1.395   0.283   1.020  0.4349  0.5033  0.6333
  488SOL     OW 1462   2.453   0.898   0.918 -0.3260 -0.8105 -0.0565
  488SOL    HW1 1463   2.405   0.939   0.835 -0.7099  1.9973  2.4473
  488SOL    HW2 1464   2.438   0.959   0.997 -0.5517 -0.0466 -2.2863
  489SOL     OW 1465   1.289   0.872   1.370  0.2441  0.6620  0.3557
  489SOL    HW1 1466   1.311   0.936   1.291 -0.0898  0.8660 -2.9389
  489SOL    HW2 1467   1.333   0.781   1.353  1.8392  0.2327  0.6569
  490SOL     OW 1468   0.954   0.414   2.996 -0.1496 -0.1192  0.4632
  490SOL    HW1 1469   1.036   0.450   3.048 -1.3109 -2.7349  0.9067
  490SOL    HW2 1470   0.868   0.455   3.027  0.9952 -1.8342  0.1204
  491SOL     OW 1471   0.814   2.850   0.557 -0.4415  0.5809  0.2153
  491SOL    HW1 1472   0.852   2.926   0.498  3.1392 -0.1893  1.1904
  491SOL    HW2 1473   0.877   2.847   0.637 -0.9851  0.7388  1.6418
  492SOL     OW 1474   1.221   1.628   1.621 -0.4548  0.1973 -0.0792
  492SOL    HW1 1475   1.223   1.687   1.704 -0.3566  0.3729  0.3802
  492SOL    HW2 1476   1.304   1.622   1.559  0.5410  0.7373 -1.1612
  493SOL     OW 1477   0.702   1.442   0.058  0.5203  0.2557  0.4139
  493SOL    HW1 1478   0.715   1.344   0.037  1.0796 -0.8245 -0.2654
  493SOL    HW2 1479   0.672   1.450   0.158  0.7129 -1.1288 -1.7857
  494SOL     OW 1480   1.970   2.393   0.616  0.0539 -0.1122  0.4948
  494SOL    HW1 1481   2.012   2.334   0.551 -0.0540 -1.3315  1.7776
  494SOL    HW2 1482   2.041   2.462   0.646  1.7493  0.6036 -1.6589
  495SOL     OW 1483   0.398   1.392   2.399 -0.4516 -0.5884  0.1266
  495SOL    HW1 1484   0.435   1.487   2.392  0.3489  2.4865 -2.0907
  495SOL    HW2 1485   0.414   1.371   2.495  2.6938  0.8583 -0.6697
  496SOL     OW 1486   0.390   2.454   2.566 -0.1400 -0.1237  0.0194
  496SOL    HW1 1487   0.428   2.534   2.517 -0.7703 -0.7865 -0.5256
  496SOL    HW2 1488   0.437   2.365   2.551 -2.4315 -0.4046  1.1309
  497SOL     OW 1489   1.674   1.410   0.576 -0.2610 -0.1247 -0.5236
  497SOL    HW1 1490   1.583   1.372   0.541 -2.1195 -1.0991 -1.1825
  497SOL    HW2 1491   1.736   1.330   0.594  0.2350  1.6596 -1.1695
  498SOL     OW 1492   2.874   2.402   0.227  0.0103  0.1399  0.5496
  498SOL    HW1 1493   2.950   2.375   0.166  0.6384 -0.4495  0.1554
  498SOL    HW2 1494   2.834   2.321   0.270 -1.6197  0.3492 -3.7138
  499SOL     OW 1495   2.189   2.547   0.700  0.7335  0.0487  0.8038
  499SOL    HW1 1496   2.191   2.537   0.802 -0.2693  2.0629  0.9587
  499SOL    HW2 1497   2.230   2.639   0.676  0.4688  1.7680  0.6142
  500SOL     OW 1498   0.512   0.261   2.615  0.3823  0.2401 -0.0322
  500SOL    HW1 1499   0.450   0.342   2.635 -1.4594  2.4190 -1.2616
  500SOL    HW2 1500   0.616   0.275   2.619  1.9258  0.9290 -1.8896
  501SOL     OW 1501   1.997   2.686   1.771  0.2151 -0.4868 -0.1892
  501SOL    HW1 1502   1.982   2.714   1.674 -0.1095 -1.2277  3.8889
  501SOL    HW2 1503   1.949   2.752   1.833 -0.7280  0.8390  2.7371
  502SOL     OW 1504   3.051   0.016   2.450 -0.4636  0.3678  0.0280
  502SOL    HW1 1505   2.977   3.112   2.519  0.2294 -0.1103 -0.0978
  502SOL    HW2 1506   0.022   0.003   2.488  0.1551  0.7701 -1.0215
  503SOL     OW 1507   1.965   2.803   2.402 -0.1618 -0.3086 -0.1289
  503SOL    HW1 1508   2.017   2.758   2.321  1.3024 -1.5227  2.8317
  503SOL    HW2 1509   1.896   2.865   2.363  1.9593 -0.4912  1.2672
  504SOL     OW 1510   2.218   0.230   1.695  0.1502  0.4678 -0.3142
  504SOL    HW1 1511   2.155   0.178   1.755 -0.7382 -1.4344  1.5600
  504SOL    HW2 1512   2.172   0.311   1.656 -4.3123 -2.0550  3.2095
  505SOL     OW 1513   2.504   1.432   1.409  0.3147  0.5628 -0.1664
  505SOL    HW1 1514   2.520   1.512   1.473 -1.3312  2.1298  2.1223
  505SOL    HW2 1515   2.521   1.459   1.312  0.7136 -1.7851  0.2669
  506SOL     OW 1516   0.108   1.761   1.635 -0.5136  0.5607  0.1704
  506SOL    HW1 1517   0.119   1.703   1.551 -0.1875 -0.9746  2.4239
  506SOL    HW2 1518   0.060   1.848   1.619  1.3691  1.6989  1.0602
  507SOL     OW 1519   0.460   2.336   1.360 -0.0392  0.3189 -0.3395
  507SOL    HW1 1520   0.491   2.326   1.457  0.6295 -0.8614  0.0713
  507SOL    HW2 1521   0.422   2.430   1.348  0.3713 -0.6204 -0.7260
  508SOL     OW 1522   0.734   0.596   1.690 -0.1956 -0.0564  0.6370
  508SOL    HW1 1523   0.731   0.545   1.780 -3.0270 -0.2485  0.9411
  508SOL    HW2 1524   0.645   0.634   1.665  1.4292  0.1126 -0.3969
  509SOL     OW 1525   1.720   2.525   1.779 -0.2496  0.3914 -0.5935
  509SOL    HW1 1526   1.622   2.534   1.785  0.3909 -0.0195  0.0219
  509SOL    HW2 1527   1.767   2.551   1.867  2.4113  2.5492  0.5682
  510SOL     OW 1528   2.492   1.267   2.451  0.3112  0.0554 -0.3274
  510SOL    HW1 1529   2.396   1.294   2.471  1.6997 -3.0732  0.9320
  510SOL    HW2 1530   2.556   1.336   2.484  1.1315 -0.9343  0.5008
  511SOL     OW 1531   1.004   1.372   1.104  0.1683 -0.6153 -0.4687
  511SOL    HW1 1532   0.992   1.287   1.158  0.1347  0.8894 -0.8533
  511SOL    HW2 1533   0.973   1.451   1.165 -0.8692  3.3801  3.1207
  512SOL     OW 1534   2.949   1.707   0.563 -0.1195 -0.5464  0.1691
  512SOL    HW1 1535   2.916   1.634   0.627  0.0651 -1.9828  1.7595
  512SOL    HW2 1536   3.039   1.752   0.589  0.9808 -1.5905 -1.4412
  513SOL     OW 1537   1.043   2.112   2.323  0.0076  0.3572 -0.4349
  513SOL    HW1 1538   0.959   2.116   2.265 -3.2942  0.6201  0.5927
  513SOL    HW2 1539   1.063   2.197   2.370  0.3446 -1.2943 -2.2845
  514SOL     OW 1540   0.076   2.210   1.247 -0.2664  0.0606  0.8919
  514SOL    HW1 1541   0.078   2.276   1.326 -0.3673 -2.2507  0.0032
  514SOL    HW2 1542   0.165   2.206   1.193  0.2343  0.5418 -0.6014
  515SOL     OW 1543   1.983   0.882   1.768  0.1373  0.3288  0.4260
  515SOL    HW1 1544   1.882   0.879   1.766 -2.2679  0.3803 -0.9047
  515SOL    HW2 1545   2.014   0.925   1.676  0.5640  2.3174 -1.9020
  516SOL     OW 1546   2.410   0.328   0.081  0.1336 -0.1156 -0.0670
  516SOL    HW1 1547   2.452   0.299   3.112 -1.6495  1.5545  0.5490
  516SOL    HW2 1548   2.471   0.395   0.128 -1.0720 -1.2921 -1.3650
  517SOL     OW 1549   1.158   1.766   2.901 -0.0003  0.2648  0.1301
  517SOL    HW1 1550   1.230   1.742   2.968 -2.9927  1.2920 -3.0191
  517SOL    HW2 1551   1.150   1.694   2.827 -1.5443  0.7688 -2.3528
  518SOL     OW 1552   1.605   3.038   1.572  0.1485  0.5023  0.2388
  518SOL    HW1 1553   1.611   2.965   1.642 -0.3178  1.2571 -0.9084
  518SOL    HW2 1554   1.698   3.077   1.554  1.4373  1.4697  1.5568
  519SOL     OW 1555   2.177   2.896   1.113 -0.5555  0.9441  0.2160
  519SOL    HW1 1556   2.243   2.838   1.059  0.3885 -1.7300 -0.1869
  519SOL    HW2 1557   2.173   2.983   1.062  1.9368  2.0980  0.9633
  520SOL     OW 1558   2.692   1.827   2.067 -0.0698 -0.6185  0.1260
  520SOL    HW1 1559   2.749   1.756   2.020  2.0095  0.4656 -0.8078
  520SOL    HW2 1560   2.646   1.878   1.992  0.0996 -1.0443  0.8727
  521SOL     OW 1561   2.953   0.525   0.273  0.1456 -0.0391  0.2317
  521SOL    HW1 1562   2.891   0.508   0.192  0.5232  1.6289 -2.6101
  521SOL    HW2 1563   2.905   0.551   0.362 -0.0090 -0.4843  1.6820
  522SOL     OW 1564   0.982   0.762   2.544  0.2102 -0.2875  0.1707
  522SOL    HW1 1565   0.906   0.705   2.586 -0.0478 -1.1704 -0.6018
  522SOL    HW2 1566   0.941   0.831   2.481  0.0283  1.0035 -3.2686
  523SOL     OW 1567   0.176   2.401   0.599 -0.1468  0.6399  0.6890
  523SOL    HW1 1568   0.144   2.303   0.629  0.4164 -4.2124  4.1423
  523SOL    HW2 1569   0.244   2.404   0.529 -0.6440 -0.7852  1.7823
  524SOL     OW 1570   1.976   2.730   3.084  0.0082 -0.2482 -0.7182
  524SOL    HW1 1571   2.022   2.821   3.104  0.1549  1.3795  1.4161
  524SOL    HW2 1572   2.043   2.658   3.079  0.8650 -0.3830 -1.0519
  525SOL     OW 1573   2.501   0.473   1.554 -0.0032 -0.3867  0.7097
  525SOL    HW1 1574   2.594   0.494   1.585 -0.0263 -2.8643  0.7524
  525SOL    HW2 1575   2.440   0.549   1.595 -1.9582 -0.5662  1.3382
  526SOL     OW 1576   1.058   0.112   0.472 -0.3740  0.5761 -0.8261
  526SOL    HW1 1577   1.071   0.143   0.571  3.0557  1.5552  0.3402
  526SOL    HW2 1578   1.095   0.173   0.403 -0.9226 -3.5083 -1.6456
  527SOL     OW 1579   2.119   2.919   0.553  0.1964 -0.6581 -0.3173
  527SOL    HW1 1580   2.069   2.834   0.524 -2.5782  0.8766 -0.0649
  527SOL    HW2 1581   2.166   2.957   0.473  1.3870  0.9009  0.7969
  528SOL     OW 1582   1.847   0.966   2.747 -0.1085  0.3641 -0.2193
  528SOL    HW1 1583   1.770   0.912   2.789 -0.0685  0.0907 -0.0955
  528SOL    HW2 1584   1.827   0.990   2.651 -0.5432  0.6642 -0.9849
  529SOL     OW 1585   1.869   1.558   2.345 -0.0145 -0.0713 -0.0453
  529SOL    HW1 1586   1.766   1.538   2.357 -2.5879 -1.9510  2.2145
  529SOL    HW2 1587   1.924   1.476   2.319 -1.2269 -1.2910 -0.4737
  530SOL     OW 1588   2.676   2.736   3.076 -0.1572  0.6869 -0.3959
  530SOL    HW1 1589   2.747   2.782   0.013  0.6155  0.6140  2.0701
  530SOL    HW2 1590   2.657   2.642   3.113 -0.1346 -0.7382  1.4526
  531SOL     OW 1591   1.787   1.587   2.937 -0.3032  0.3355 -0.0904
  531SOL    HW1 1592   1.812   1.529   3.012 -2.5574 -1.4096 -1.9527
  531SOL    HW2 1593   1.816   1.681   2.954 -2.1070  1.4964 -0.2107
  532SOL     OW 1594   1.506   0.345   1.149 -0.0582  0.1566 -0.4250
  532SOL    HW1 1595   1.450   0.319   1.230 -2.2026  1.0147 -1.6536
  532SOL    HW2 1596   1.574   0.411   1.182 -1.3103 -3.8388 -0.4601
  533SOL     OW 1597   0.690   0.842   3.017 -0.2842  0.1129  0.5221
  533SOL    HW1 1598   0.677   0.892   3.099  1.6929  1.9959 -2.1023
  533SOL    HW2 1599   0.701   0.907   2.937  0.3020  0.1648 -1.1153
  534SOL     OW 1600   1.407   0.645   3.076  0.2692 -0.3226  0.3613
  534SOL    HW1 1601   1.439   0.641   2.978 -0.8386  1.9266 -2.1033
  534SOL    HW2 1602   1.462   0.591   0.024  0.1385  1.3568  1.1219
  535SOL     OW 1603   0.797   2.035   2.901  0.0788 -0.3848  0.5517
  535SOL    HW1 1604   0.707   2.026   2.946  1.6298  3.4837 -1.6876
  535SOL    HW2 1605   0.827   1.940   2.885 -1.5866 -2.4720 -1.2749
  536SOL     OW 1606   0.784   2.839   0.137  0.1073  0.1469 -0.4821
  536SOL    HW1 1607   0.751   2.818   0.042  1.0091 -0.1515 -1.6246
  536SOL    HW2 1608   0.820   2.762   0.184 -1.3843  0.8100  0.6419
  537SOL     OW 1609   1.986   0.264   0.242  0.7541 -0.1045 -0.4626
  537SOL    HW1 1610   2.028   0.215   0.321  2.6640  0.8178 -2.0522
  537SOL    HW2 1611   1.994   0.367   0.248  0.4645  2.0791 -3.3606
  538SOL     OW 1612   2.437   2.294   3.012 -0.0219  0.2355 -0.2917
  538SOL    HW1 1613   2.390   2.345   2.931 -2.6551  2.7823 -2.2419
  538SOL    HW2 1614   2.398   2.319   3.102 -1.1183 -2.0779 -2.0303
  539SOL     OW 1615   2.575   1.371   3.061  0.0576 -0.2064 -0.2647
  539SOL    HW1 1616   2.567   1.365   0.047  0.4269 -2.5569  3.0536
  539SOL    HW2 1617   2.482   1.356   3.023 -0.9261  0.7347  2.2448
  540SOL     OW 1618   0.589   3.092   1.938 -0.5613 -0.1183 -0.2080
  540SOL    HW1 1619   0.511   0.023   1.891  1.0678  0.6365 -0.4254
  540SOL    HW2 1620   0.571   3.087   2.038  2.3785  2.0952 -0.2350
  541SOL     OW 1621   2.443   0.109   2.541  0.1044 -0.0801 -0.1435
  541SOL    HW1 1622   2.432   0.098   2.644  1.0326  1.0260  1.4399
  541SOL    HW2 1623   2.409   0.028   2.489 -0.7103  1.0823 -1.5354
  542SOL     OW 1624   0.500   0.473   0.018 -0.2513  0.5520 -0.6368
  542SOL    HW1 1625   0.472   0.377   0.000  1.7311  0.6301 -0.6645
  542SOL    HW2 1626   0.463   0.499   0.108  0.7845 -1.8711  2.5200
  543SOL     OW 1627   0.425   1.020   0.740 -0.1081 -0.0497 -0.0444
  543SOL    HW1 1628   0.326   1.035   0.744 -0.0701  5.8291  1.5287
  543SOL    HW2 1629   0.475   1.097   0.698  0.3091  1.1839 -3.6884
  544SOL     OW 1630   2.452   0.588   1.260  0.0206 -0.1551 -0.1223
  544SOL    HW1 1631   2.538   0.540   1.226  1.4612  0.5820  0.5453
  544SOL    HW2 1632   2.452   0.603   1.361 -0.4123  1.3135 -0.6521
  545SOL     OW 1633   0.973   1.775   0.095 -0.2897  0.4845 -0.2226
  545SOL    HW1 1634   0.972   1.877   0.101  0.5919 -0.0800 -2.5145
  545SOL    HW2 1635   1.029   1.722   0.166  2.8449 -1.9693 -0.7732
  546SOL     OW 1636   2.295   2.523   1.524  0.3498  0.0630  0.4213
  546SOL    HW1 1637   2.341   2.444   1.566  2.6203  1.3719 -1.1642
  546SOL    HW2 1638   2.254   2.498   1.433  0.8410 -2.3314  0.9427
  547SOL     OW 1639   1.334   2.599   1.994  0.3595  0.4558 -0.2539
  547SOL    HW1 1640   1.366   2.630   2.087  2.0093 -1.7941 -0.7242
  547SOL    HW2 1641   1.242   2.630   1.975  0.2178  0.7206 -0.0982
  548SOL     OW 1642   1.634   0.811   2.835  0.2556  0.2817 -0.3949
  548SOL    HW1 1643   1.691   0.781   2.917  1.0016 -0.5354  3.8776
  548SOL    HW2 1644   1.593   0.728   2.792 -2.8494 -0.8728  2.3906
  549SOL     OW 1645   2.243   0.800   0.328 -0.2207 -0.4124  0.0728
  549SOL    HW1 1646   2.254   0.710   0.376 -0.0604  1.0845 -0.1673
  549SOL    HW2 1647   2.268   0.877   0.394 -1.8209  0.4720  3.4415
  550SOL     OW 1648   2.219   1.389   0.372  0.2582  0.0553 -0.6739
  550SOL    HW1 1649   2.306   1.439   0.372 -2.1569  1.1171 -0.9820
  550SOL    HW2 1650   2.141   1.454   0.363 -1.7081 -1.2538 -0.7041
  551SOL     OW 1651   1.806   0.287   1.411 -0.0237  0.0191 -0.0069
  551SOL    HW1 1652   1.753   0.334   1.484 -0.5674  1.6152  0.5270
  551SOL    HW2 1653   1.784   0.333   1.322  1.4411  0.1556  1.5972
  552SOL     OW 1654   1.606   0.087   2.973 -0.4350 -0.5173 -0.5020
  552SOL    HW1 1655   1.592   0.188   2.956 -1.0451  0.7878  0.9047
  552SOL    HW2 1656   1.678   0.073   3.047  1.5362 -0.8431  1.4686
  553SOL     OW 1657   0.516   2.399   1.947  0.4701  0.7052 -0.0389
  553SOL    HW1 1658   0.507   2.378   2.044 -2.1076  1.1361 -1.2264
  553SOL    HW2 1659   0.445   2.356   1.882 -1.6501 -0.5610 -2.5208
  554SOL     OW 1660   0.215   2.897   1.354  0.5430  0.1885  0.1665
  554SOL    HW1 1661   0.170   2.958   1.287 -2.1512 -0.4858  0.8341
  554SOL    HW2 1662   0.302   2.862   1.311  1.3092 -2.9765  0.8447
  555SOL     OW 1663   2.508   1.697   2.227 -0.6347 -0.3764 -0.6430
  555SOL    HW1 1664   2.571   1.746   2.162 -0.6775  1.6879  0.1352
  555SOL    HW2 1665   2.470   1.616   2.179  0.8090 -1.1017 -0.8760
  556SOL     OW 1666   1.154   0.509   0.012 -0.8329  0.2587  0.4409
  556SOL    HW1 1667   1.228   0.580   3.112  1.3687  0.5863 -1.2472
  556SOL    HW2 1668   1.110   0.519   0.101  1.0051 -0.4224 -1.3500
  557SOL     OW 1669   0.298   1.874   2.259  0.5966 -0.2182  0.3107
  557SOL    HW1 1670   0.323   1.913   2.165  0.9650  0.5241 -0.4390
  557SOL    HW2 1671   0.231   1.797   2.251  0.5588 -2.1890 -3.2822
  558SOL     OW 1672   1.859   0.664   3.003 -0.1838  0.2923  0.1371
  558SOL    HW1 1673   1.927   0.591   3.005 -0.0324  0.8114 -0.7251
  558SOL    HW2 1674   1.905   0.754   3.024  0.9937  0.4978 -0.2960
  559SOL     OW 1675   2.114   1.828   1.800  0.3461  0.5778  0.4535
  559SOL    HW1 1676   2.081   1.845   1.703 -1.7883 -1.5233  0.4930
  559SOL    HW2 1677   2.050   1.858   1.873 -2.6604  1.8146  0.5248
  560SOL     OW 1678   1.791   0.898   2.033  0.2970 -0.0371  0.3770
  560SOL    HW1 1679   1.690   0.890   2.011  0.2207  2.2918  0.0216
  560SOL    HW2 1680   1.840   0.874   1.951 -1.6491  1.4473  3.7315
  561SOL     OW 1681   0.020   0.223   2.844  0.0342  0.2474 -0.1431
  561SOL    HW1 1682   3.107   0.218   2.946  2.9770  0.4061  3.2631
  561SOL    HW2 1683   0.108   0.174   2.832 -3.1213 -1.2309 -0.0001
  562SOL     OW 1684   1.013   1.713   1.435 -0.0764 -0.4187 -0.0910
  562SOL    HW1 1685   1.072   1.647   1.488 -1.1932 -3.4666 -4.2368
  562SOL    HW2 1686   0.979   1.778   1.506  0.2041 -0.5895 -0.3839
  563SOL     OW 1687   1.069   0.109   0.059  0.7551 -0.3095 -0.1162
  563SOL    HW1 1688   1.086   0.034   3.112  1.5969 -0.3986  0.1871
  563SOL    HW2 1689   0.977   0.089   0.102 -3.5152 -2.1159  0.9155
  564SOL     OW 1690   3.093   2.586   0.725 -0.6290 -0.4531  0.4309
  564SOL    HW1 1691   0.035   2.513   0.688  1.7000  0.7474 -0.5971
  564SOL    HW2 1692   2.997   2.577   0.693  2.0822  0.0741  4.3301
  565SOL     OW 1693   0.652   2.244   1.210 -0.0645  0.2980  0.3689
  565SOL    HW1 1694   0.703   2.180   1.271 -0.5683 -0.1143  0.1571
  565SOL    HW2 1695   0.577   2.287   1.262 -3.7182  0.4894 -1.2107
  566SOL     OW 1696   1.048   3.067   2.437  0.0027  0.9410 -0.3356
  566SOL    HW1 1697   0.990   0.016   2.486  1.6206 -0.8179  1.2073
  566SOL    HW2 1698   1.026   3.072   2.340 -1.3043 -2.1740  1.4912
  567SOL     OW 1699   2.197   0.162   0.957 -0.1727  0.4066 -0.5355
  567SOL    HW1 1700   2.280   0.211   0.925  3.6006 -1.2460  1.6245
  567SOL    HW2 1701   2.177   0.083   0.893  0.5368 -2.2406  0.3462
  568SOL     OW 1702   1.688   1.675   0.680  0.0641 -0.5124 -0.0413
  568SOL    HW1 1703   1.767   1.689   0.618 -2.2155 -1.2938 -0.1138
  568SOL    HW2 1704   1.652   1.581   0.655  1.8014 -1.6211  1.5445
  569SOL     OW 1705   2.156   0.669   2.326  0.2233 -0.2395 -0.4251
  569SOL    HW1 1706   2.068   0.629   2.345  0.6757 -1.1434  2.3102
  569SOL    HW2 1707   2.191   0.717   2.411  3.2377  2.5603  0.5999
  570SOL     OW 1708   0.133   0.044   2.115  0.3160  0.0306  0.2190
  570SOL    HW1 1709   0.032   0.064   2.139  0.7134 -0.8645  1.2453
  570SOL    HW2 1710   0.144   3.071   2.077 -0.7445  0.2029 -3.0414
  571SOL     OW 1711   0.431   2.737   1.732 -0.1969  0.0634 -0.1598
  571SOL    HW1 1712   0.379   2.726   1.818  0.9428  0.9726 -2.7216
  571SOL    HW2 1713   0.505   2.667   1.741 -0.9657  0.3923 -1.8375
  572SOL     OW 1714   0.134   2.132   1.574  0.8474  0.4047  0.1519
  572SOL    HW1 1715   0.081   2.221   1.557 -0.8961  0.3975  0.1350
  572SOL    HW2 1716   0.198   2.113   1.499  0.9630  1.4413  1.0051
  573SOL     OW 1717   1.239   0.928   2.860 -0.4545 -0.2789 -0.1531
  573SOL    HW1 1718   1.326   0.950   2.820 -0.8936 -0.4409  1.4663
  573SOL    HW2 1719   1.158   0.942   2.797 -1.7665  0.2229  2.1302
  574SOL     OW 1720   2.617   2.667   2.425 -0.2196  0.4123 -0.5374
  574SOL    HW1 1721   2.689   2.695   2.361  1.4753  2.3424 -0.2971
  574SOL    HW2 1722   2.525   2.645   2.380 -1.2592  1.3587 -0.9204
  575SOL     OW 1723   1.295   3.094   0.896  0.2922 -0.2568 -0.4144
  575SOL    HW1 1724   1.385   3.060   0.860 -1.4423 -0.8179 -2.2935
  575SOL    HW2 1725   1.305   0.071   0.932  2.0217  2.0375 -0.4066
  576SOL     OW 1726   0.946   0.380   1.149  0.3814  0.4907 -0.5017
  576SOL    HW1 1727   0.918   0.357   1.055  0.4871  0.2425 -0.4410
  576SOL    HW2 1728   0.997   0.304   1.192  2.2049 -1.3201 -1.0239
  577SOL     OW 1729   2.188   1.762   0.287 -0.0887  0.1420  0.1204
  577SOL    HW1 1730   2.275   1.727   0.252 -3.1966  0.7997  0.5453
  577SOL    HW2 1731   2.118   1.686   0.301 -3.5783 -1.1117 -0.0219
  578SOL     OW 1732   2.188   0.629   1.220  0.1162  0.2437 -0.3140
  578SOL    HW1 1733   2.288   0.620   1.239 -1.4048  0.8393 -2.7044
  578SOL    HW2 1734   2.138   0.679   1.294  0.4057  1.3478 -1.4986
  579SOL     OW 1735   1.705   0.974   2.491 -0.0382 -0.4661 -0.1671
  579SOL    HW1 1736   1.762   0.960   2.412  0.7772  1.5984  2.5794
  579SOL    HW2 1737   1.645   1.059   2.485 -2.9067 -0.9064  2.8745
  580SOL     OW 1738   1.269   1.249   1.921 -0.1584  0.0988 -0.4911
  580SOL    HW1 1739   1.222   1.320   1.863  0.9078 -0.2645 -1.6692
  580SOL    HW2 1740   1.248   1.272   2.015  0.3483  1.4014 -5.5832
  581SOL     OW 1741   0.298   0.818   1.063 -0.4118 -0.0423  0.1754
  581SOL    HW1 1742   0.200   0.829   1.095 -0.6438  0.8533  0.6512
  581SOL    HW2 1743   0.314   0.796   0.966 -1.0457  1.7630  1.1139
  582SOL     OW 1744   2.863   0.599   1.895  0.1765  0.4062 -0.3284
  582SOL    HW1 1745   2.776   0.548   1.895 -1.6834 -0.8029 -3.0937
  582SOL    HW2 1746   2.884   0.629   1.987 -1.1290  0.9305 -3.0124
  583SOL     OW 1747   3.055   0.494   2.476  0.5612  0.1342  0.2051
  583SOL    HW1 1748   3.051   0.593   2.452 -0.0385 -0.2265 -0.1940
  583SOL    HW2 1749   2.998   0.448   2.404  0.5922 -1.9354  2.6517
  584SOL     OW 1750   2.036   2.465   0.289  0.1967 -0.0169 -0.3242
  584SOL    HW1 1751   2.056   2.371   0.328  1.8568 -1.4771 -0.8253
  584SOL    HW2 1752   1.939   2.471   0.254 -2.9616  0.0401 -2.0574
  585SOL     OW 1753   0.147   2.342   0.216  0.2968  0.0232  0.2508
  585SOL    HW1 1754   0.092   2.254   0.229 -0.6657 -0.8542  1.4504
  585SOL    HW2 1755   0.222   2.343   0.286  2.1432  2.8278 -2.3137
  586SOL     OW 1756   1.996   1.987   2.402  0.2051 -0.3083  0.1123
  586SOL    HW1 1757   1.986   2.009   2.303 -0.8809 -3.3453 -1.6064
  586SOL    HW2 1758   2.099   1.989   2.418  1.1805 -0.1295 -1.2221
  587SOL     OW 1759   2.307   1.586   2.815 -0.4208  0.0395 -0.4633
  587SOL    HW1 1760   2.365   1.599   2.731 -2.8780  0.3448  0.7344
  587SOL    HW2 1761   2.261   1.494   2.807  3.1949 -1.2295  0.6611
  588SOL     OW 1762   3.115   0.129   1.356  0.0722 -0.0129  0.2659
  588SOL    HW1 1763   0.035   0.067   1.283 -0.6523 -2.0888  0.3352
  588SOL    HW2 1764   0.056   0.194   1.400  0.5895 -0.1854 -2.9068
  589SOL     OW 1765   0.755   0.346   0.619 -0.3531  0.3436 -0.2144
  589SOL    HW1 1766   0.765   0.246   0.610 -0.3045  2.5546  1.3233
  589SOL    HW2 1767   0.695   0.383   0.547 -0.1400 -0.0318  1.7745
  590SOL     OW 1768   2.551   2.076   0.865 -0.1186  0.1082  0.1320
  590SOL    HW1 1769   2.486   2.153   0.844 -0.1556  0.7566  1.5705
  590SOL    HW2 1770   2.582   2.026   0.779 -0.9417 -1.0898 -1.8644
  591SOL     OW 1771   0.807   2.599   1.011 -0.4350  0.3313  0.4210
  591SOL    HW1 1772   0.785   2.500   1.000 -0.8214  0.7095  0.7374
  591SOL    HW2 1773   0.907   2.625   1.015 -0.0704  0.0156 -0.2011
  592SOL     OW 1774   1.104   1.160   1.261  0.0451 -0.0624  0.1599
  592SOL    HW1 1775   1.205   1.166   1.258 -2.2484 -0.6471  0.9240
  592SOL    HW2 1776   1.072   1.084   1.199  1.2053  0.0543  1.3982
  593SOL     OW 1777   0.950   2.379   1.401 -0.6514 -0.2791  0.2403
  593SOL    HW1 1778   0.898   2.465   1.426  2.1198  2.4909  1.7291
  593SOL    HW2 1779   1.018   2.400   1.328  3.5125 -0.9051 -0.4519
  594SOL     OW 1780   0.914   1.549   3.071  0.1964 -0.2288 -0.3467
  594SOL    HW1 1781   0.946   1.635   3.114 -0.9725 -1.7521 -0.0333
  594SOL    HW2 1782   0.826   1.509   3.109 -0.9729  0.2387  1.5842
  595SOL     OW 1783   1.512   1.362   1.602 -0.0542  0.1172  0.2815
  595SOL    HW1 1784   1.598   1.391   1.648 -0.3299  2.1420  2.4499
  595SOL    HW2 1785   1.469   1.444   1.554 -1.9321  1.3376 -0.5766
  596SOL     OW 1786   2.818   1.174   2.261 -0.3387 -0.0944 -0.5807
  596SOL    HW1 1787   2.857   1.160   2.357  1.1831  2.5127  3.4937
  596SOL    HW2 1788   2.872   1.129   2.188 -0.2558 -0.7053  2.0666
  597SOL     OW 1789   1.425   2.602   1.753 -0.2279  0.5488  0.0813
  597SOL    HW1 1790   1.344   2.594   1.692  2.3502 -0.1006 -2.8125
  597SOL    HW2 1791   1.405   2.607   1.855 -0.3200 -1.8854  1.0606
  598SOL     OW 1792   2.290   1.319   1.531  0.4464 -0.2867  0.4206
  598SOL    HW1 1793   2.374   1.337   1.476 -0.9977  0.6657 -1.0270
  598SOL    HW2 1794   2.206   1.363   1.488 -1.1812 -0.4466  0.3620
  599SOL     OW 1795   0.890   2.531   2.842  0.3766  0.1639 -0.6908
  599SOL    HW1 1796   0.952   2.597   2.802 -2.0290 -1.5017 -2.1403
  599SOL    HW2 1797   0.876   2.536   2.943 -2.4222 -1.1378 -1.6471
  600SOL     OW 1798   3.026   1.985   0.231  0.2171 -0.3352 -0.3535
  600SOL    HW1 1799   2.960   1.941   0.295 -0.2691  0.6521  0.2682
  600SOL    HW2 1800   3.084   2.058   0.283  1.8283  1.9462  1.4238
  601SOL     OW 1801   0.584   0.844   1.445 -0.2770 -0.3024 -0.2222
  601SOL    HW1 1802   0.590   0.871   1.544  3.7813  1.1061  2.0048
  601SOL    HW2 1803   0.526   0.761   1.441 -6.2463 -1.7190 -0.3864
  602SOL     OW 1804   0.662   0.043   1.214 -0.2886  0.6500  0.5005
  602SOL    HW1 1805   0.636   0.060   1.309  2.6666 -0.4786  0.7155
  602SOL    HW2 1806   0.645   0.129   1.164  0.0326 -2.4212  2.3383
  603SOL     OW 1807   0.226   3.100   3.074 -0.0389 -0.5549 -0.3122
  603SOL    HW1 1808   0.239   0.001   2.975  0.1365 -1.2228 -0.9183
  603SOL    HW2 1809   0.128   3.070   3.085 -0.8531  1.4777 -1.3188
  604SOL     OW 1810   1.410   3.017   1.815 -0.3535  0.0577 -0.1355
  604SOL    HW1 1811   1.414   3.032   1.914 -2.6581  0.2786  0.5146
  604SOL    HW2 1812   1.473   2.950   1.771 -1.5328  1.3009 -0.7902
  605SOL     OW 1813   1.630   1.506   1.986  0.1047 -0.4861 -0.4883
  605SOL    HW1 1814   1.650   1.496   1.886  1.0149  0.1193 -0.5606
  605SOL    HW2 1815   1.592   1.419   2.025  2.4285  0.5241  0.0348
  606SOL     OW 1816   2.254   2.937   2.981  0.9690 -0.0569 -0.1159
  606SOL    HW1 1817   2.214   2.899   3.064  0.3202  2.8241 -2.1176
  606SOL    HW2 1818   2.342   2.897   2.954 -1.3629 -2.0693 -0.1391
  607SOL     OW 1819   0.743   0.175   2.182 -0.0932 -0.2096 -0.0287
  607SOL    HW1 1820   0.814   0.218   2.237 -0.0437 -0.0154  1.4175
  607SOL    HW2 1821   0.781   0.148   2.091 -3.8134 -3.1477  0.2201
  608SOL     OW 1822   3.052   2.056   1.943  0.4511  0.7950  0.0482
  608SOL    HW1 1823   3.055   1.965   1.987 -1.5700  0.2937 -0.4594
  608SOL    HW2 1824   0.024   2.088   1.917 -1.8101 -1.8182  1.1506
  609SOL     OW 1825   0.930   1.197   0.034  0.0558 -0.7242 -0.1877
  609SOL    HW1 1826   0.961   1.297   0.058 -0.0589  4.9423  0.6416
  609SOL    HW2 1827   0.980   1.160   3.073  2.3789  1.4178 -0.6921
  610SOL     OW 1828   0.299   2.914   0.968  0.1030 -0.3357  0.5308
  610SOL    HW1 1829   0.334   2.989   0.906  1.5240 -0.1142 -1.8391
  610SOL    HW2 1830   0.361   2.901   1.044  0.6077  2.2117 -2.9399
  611SOL     OW 1831   1.047   1.721   0.456  0.5132  0.7772  0.3255
  611SOL    HW1 1832   1.116   1.714   0.382 -2.3158 -0.4812  0.6981
  611SOL    HW2 1833   0.961   1.686   0.415  0.4694  1.7145 -0.4228
  612SOL     OW 1834   2.187   1.962   0.466 -0.4442  0.7200 -0.0616
  612SOL    HW1 1835   2.184   1.879   0.410  0.1808  0.3267  0.4517
  612SOL    HW2 1836   2.200   1.937   0.565 -0.5112 -2.8107 -0.4305
  613SOL     OW 1837   1.653   1.581   0.354  0.0604 -0.1566  0.0964
  613SOL    HW1 1838   1.709   1.664   0.371 -1.0898  1.8408  0.2079
  613SOL    HW2 1839   1.662   1.515   0.430  1.1341 -0.1389 -1.2004
  614SOL     OW 1840   3.108   0.493   2.780 -0.1821 -0.5427 -0.3455
  614SOL    HW1 1841   3.106   0.492   2.675  0.1452  0.0456 -4.2405
  614SOL    HW2 1842   0.018   0.405   2.817  0.7650  3.1859 -1.3280
  615SOL     OW 1843   0.530   1.508   0.581 -0.1467  0.5669 -0.4780
  615SOL    HW1 1844   0.429   1.528   0.591 -1.2728  1.2062  2.8760
  615SOL    HW2 1845   0.586   1.590   0.607  0.0170 -0.5532  1.3365
  616SOL     OW 1846   1.476   1.010   2.708  0.0373  0.1272 -0.3615
  616SOL    HW1 1847   1.525   1.095   2.676  1.3613  2.8277  0.4372
  616SOL    HW2 1848   1.532   0.938   2.758  0.4398 -1.0550  2.0207
  617SOL     OW 1849   1.618   0.713   0.587  0.2912  0.6980  0.3360
  617SOL    HW1 1850   1.613   0.815   0.585 -0.2798 -1.1113  2.4458
  617SOL    HW2 1851   1.568   0.678   0.509  4.6035  1.5786 -1.5692
  618SOL     OW 1852   0.054   1.716   2.291 -0.0536  0.1287  0.2208
  618SOL    HW1 1853   0.116   1.636   2.263  0.1357 -0.3662 -0.5477
  618SOL    HW2 1854   3.117   1.692   2.371  0.4551  0.5396  0.1520
  619SOL     OW 1855   2.542   1.734   0.781  0.0144 -0.1530 -0.5985
  619SOL    HW1 1856   2.560   1.738   0.883  0.5570  1.2880  0.9620
  619SOL    HW2 1857   2.592   1.807   0.732  0.3146  1.8742 -0.8317
  620SOL     OW 1858   2.417   0.008   1.145 -0.1656  0.1809 -0.5629
  620SOL    HW1 1859   2.347   3.098   1.216  1.2669 -0.6660  2.9131
  620SOL    HW2 1860   2.432   0.109   1.157  0.4845 -0.1325 -3.9489
  621SOL     OW 1861   3.079   1.869   0.868 -0.3319  0.0132  0.1441
  621SOL    HW1 1862   3.101   1.820   0.952  1.2510  1.3323 -1.9707
  621SOL    HW2 1863   3.095   1.970   0.883 -1.4605  1.0974 -1.3756
  622SOL     OW 1864   0.661   1.847   1.666  0.0662  0.1446  0.1562
  622SOL    HW1 1865   0.565   1.820   1.643  0.7327 -0.5375 -0.3036
  622SOL    HW2 1866   0.667   1.894   1.760 -0.1398  1.7184  2.4373
  623SOL     OW 1867   2.367   0.064   2.140  0.3112  0.0148 -0.1360
  623SOL    HW1 1868   2.363   0.027   2.234 -1.0978 -0.4469  0.5991
  623SOL    HW2 1869   2.456   0.114   2.127 -2.3517 -1.3337 -1.1364
  624SOL     OW 1870   0.653   2.111   0.336  0.0833  0.2002 -0.1080
  624SOL    HW1 1871   0.628   2.010   0.348 -0.6712 -0.2289  0.0011
  624SOL    HW2 1872   0.628   2.146   0.243  0.6883  0.9015  0.6674
  625SOL     OW 1873   0.771   1.889   2.135 -0.2228 -0.3663  0.0731
  625SOL    HW1 1874   0.867   1.863   2.161 -0.8479 -1.7917 -1.1327
  625SOL    HW2 1875   0.712   1.809   2.144  1.1517  2.0462  2.5042
  626SOL     OW 1876   0.361   2.338   0.364  0.1284 -0.4404  0.4303
  626SOL    HW1 1877   0.452   2.381   0.366  0.5205  1.0587 -0.1519
  626SOL    HW2 1878   0.367   2.241   0.340 -1.2562  2.0893  0.4504
  627SOL     OW 1879   1.548   1.802   2.521 -0.2578 -0.2854 -0.1364
  627SOL    HW1 1880   1.645   1.834   2.525 -1.0473  1.2949  1.1890
  627SOL    HW2 1881   1.543   1.704   2.491  1.7567 -0.3888 -1.9835
  628SOL     OW 1882   1.392   2.125   0.299 -0.3914 -0.1069  0.0138
  628SOL    HW1 1883   1.302   2.172   0.284 -1.6811 -2.1718  0.4522
  628SOL    HW2 1884   1.399   2.082   0.394  1.9411 -1.1927  1.3438
  629SOL     OW 1885   0.876   0.568   2.183 -0.5126  0.2923  0.7330
  629SOL    HW1 1886   0.834   0.531   2.269 -0.2580 -0.9176 -2.8236
  629SOL    HW2 1887   0.970   0.535   2.163  1.5883  1.4489 -0.3350
  630SOL     OW 1888   2.373   2.784   1.495  0.2414  0.3995 -0.3114
  630SOL    HW1 1889   2.375   2.835   1.583 -1.5699 -1.2851 -0.3624
  630SOL    HW2 1890   2.321   2.695   1.506 -0.4798 -1.3296 -1.0378
  631SOL     OW 1891   1.515   0.982   0.793  0.1516 -0.3464  0.4634
  631SOL    HW1 1892   1.414   0.974   0.773 -1.9998  1.7604 -3.2553
  631SOL    HW2 1893   1.540   0.912   0.863 -1.9939 -2.2594  3.2806
  632SOL     OW 1894   2.320   0.375   2.066  0.1786  0.3610 -0.3093
  632SOL    HW1 1895   2.228   0.332   2.086 -0.2923  1.7396 -0.1167
  632SOL    HW2 1896   2.317   0.473   2.088  0.7990 -0.5631 -0.0506
  633SOL     OW 1897   1.556   1.202   0.022 -0.4027 -0.6385 -0.0699
  633SOL    HW1 1898   1.463   1.211   3.099  0.6946 -2.0691 -0.9029
  633SOL    HW2 1899   1.595   1.112   3.108  2.2233 -2.7896  0.8684
  634SOL     OW 1900   0.363   2.086   0.294  0.0201 -0.8506  0.2219
  634SOL    HW1 1901   0.409   1.998   0.312 -0.2786  1.9403 -0.3865
  634SOL    HW2 1902   0.314   2.089   0.203  0.3045  2.5594 -0.2087
  635SOL     OW 1903   2.708   1.432   2.235  0.2821 -0.7409  0.6702
  635SOL    HW1 1904   2.755   1.342   2.242 -1.2256 -0.9119  1.1625
  635SOL    HW2 1905   2.610   1.429   2.208  0.7315  2.0511 -0.4550
  636SOL     OW 1906   0.331   1.640   2.609 -0.2389 -0.0763 -0.1302
  636SOL    HW1 1907   0.240   1.601   2.591  1.5350  1.5162  3.6807
  636SOL    HW2 1908   0.366   1.701   2.537  0.5611 -3.6481 -0.8097
  637SOL     OW 1909   0.089   2.131   0.390 -0.4585  0.0296 -0.2106
  637SOL    HW1 1910   0.185   2.107   0.366  0.1319 -2.5759  0.9152
  637SOL    HW2 1911   0.080   2.167   0.482  1.3100  1.4297  1.1192
  638SOL     OW 1912   2.514   2.432   0.579  0.1614  0.2700 -0.8268
  638SOL    HW1 1913   2.489   2.524   0.607 -0.2570 -2.5231 -1.9324
  638SOL    HW2 1914   2.451   2.405   0.504 -0.0964  1.2442  2.0077
  639SOL     OW 1915   0.994   0.728   0.131 -0.0696 -0.0508 -0.2498
  639SOL    HW1 1916   1.073   0.787   0.106  1.0910  1.4015  1.2266
  639SOL    HW2 1917   0.958   0.685   0.047  0.0122 -0.3778  1.3909
  640SOL     OW 1918   2.468   2.313   1.917  0.2597 -0.4619  0.4730
  640SOL    HW1 1919   2.560   2.353   1.909 -3.6697  1.4380  1.0937
  640SOL    HW2 1920   2.412   2.317   1.830 -0.7712 -2.6753 -2.3451
  641SOL     OW 1921   2.608   2.793   1.358 -0.0889  0.0196  0.4960
  641SOL    HW1 1922   2.639   2.884   1.334 -0.3022 -1.1470 -0.6301
  641SOL    HW2 1923   2.532   2.789   1.427 -0.1032  0.1985 -1.5442
  642SOL     OW 1924   0.866   1.070   1.705  0.3353 -0.1560 -0.1470
  642SOL    HW1 1925   0.862   0.975   1.657  3.3453 -1.8847 -1.2448
  642SOL    HW2 1926   0.925   1.135   1.650  1.7776  2.0634  2.9339
  643SOL     OW 1927   0.730   1.419   1.996  0.1063 -0.7556  0.0060
  643SOL    HW1 1928   0.691   1.390   2.082  1.3622  3.0284 -1.1763
  643SOL    HW2 1929   0.700   1.361   1.919  0.0571 -0.4937 -0.8297
  644SOL     OW 1930   1.000   0.189   2.276 -0.7736 -0.7247  0.5179
  644SOL    HW1 1931   1.067   0.240   2.339  0.9934  0.6839 -0.1178
  644SOL    HW2 1932   1.039   0.181   2.183  0.6671 -0.9366 -0.2630
  645SOL     OW 1933   1.954   1.247   1.440 -0.0877  0.4200 -0.0603
  645SOL    HW1 1934   1.861   1.230   1.398  1.9826 -1.8855  2.0285
  645SOL    HW2 1935   1.969   1.348   1.451 -0.2309  2.4896 -0.1437
  646SOL     OW 1936   1.771   2.437   0.192 -0.7365  0.0643  0.0022
  646SOL    HW1 1937   1.679   2.434   0.231  0.4608  1.2033 -2.5313
  646SOL    HW2 1938   1.772   2.465   0.093 -1.0344 -0.9589  3.0904
  647SOL     OW 1939   1.629   2.706   0.719 -0.4868  0.0904  0.5077
  647SOL    HW1 1940   1.650   2.696   0.818 -0.0628  1.2377 -2.8344
  647SOL    HW2 1941   1.688   2.645   0.659  2.1044 -0.5148 -1.3273
  648SOL     OW 1942   0.359   2.587   1.298 -0.2372  0.0004  0.2372
  648SOL    HW1 1943   0.287   2.598   1.368  1.7526  1.5794 -2.1344
  648SOL    HW2 1944   0.314   2.586   1.205 -1.5198  0.2577  0.1446
  649SOL     OW 1945   1.199   2.556   2.957  0.0906  0.4714  0.3842
  649SOL    HW1 1946   1.218   2.461   2.987  0.4712 -1.2254 -2.4399
  649SOL    HW2 1947   1.141   2.602   3.029 -0.3507  1.7815  1.4678
  650SOL     OW 1948   2.812   1.517   2.987 -0.4032  0.0777  0.0789
  650SOL    HW1 1949   2.726   1.480   3.021  5.7358  0.5874 -0.9382
  650SOL    HW2 1950   2.880   1.537   3.062 -1.9410  0.5657 -0.8274
  651SOL     OW 1951   2.493   2.311   2.430  0.1065  0.2338  0.2301
  651SOL    HW1 1952   2.589   2.283   2.429 -2.3079  0.3515 -1.0784
  651SOL    HW2 1953   2.451   2.272   2.517 -0.3524  0.0109  1.4272
  652SOL     OW 1954   2.768   2.327   0.546  0.5606 -0.1328  0.2657
  652SOL    HW1 1955   2.671   2.355   0.553 -1.1306 -1.0512  1.5617
  652SOL    HW2 1956   2.792   2.258   0.477  0.4127  0.0470  1.1625
  653SOL     OW 1957   2.460   1.860   1.478 -0.3316 -0.0286  0.1521
  653SOL    HW1 1958   2.540   1.900   1.439 -0.6274 -2.1326 -0.2881
  653SOL    HW2 1959   2.486   1.766   1.505 -1.3741 -0.2754 -2.9819
  654SOL     OW 1960   0.987   1.124   0.286  0.0441 -0.0294 -0.2190
  654SOL    HW1 1961   0.999   1.028   0.316 -2.3342  0.2797 -0.3465
  654SOL    HW2 1962   0.961   1.129   0.188 -0.9672 -0.3635  2.6154
  655SOL     OW 1963   1.335   1.400   0.759  0.4303 -0.1209  0.6875
  655SOL    HW1 1964   1.234   1.381   0.766 -0.6040 -1.4164  0.1793
  655SOL    HW2 1965   1.347   1.465   0.678  0.1741  0.6404 -0.5497
  656SOL     OW 1966   1.468   2.666   2.212 -0.1489 -0.1488  0.3360
  656SOL    HW1 1967   1.394   2.724   2.248  0.3592 -2.9653 -0.1804
  656SOL    HW2 1968   1.532   2.619   2.281 -0.1749  0.1710  1.4441
  657SOL     OW 1969   2.172   1.443   0.639 -1.0095 -0.2607  0.0486
  657SOL    HW1 1970   2.087   1.395   0.653  1.3153  0.6957 -3.6681
  657SOL    HW2 1971   2.200   1.435   0.542 -3.8257 -1.6241 -1.2478
  658SOL     OW 1972   2.041   0.038   1.799  0.2618 -0.2513 -0.5081
  658SOL    HW1 1973   2.124   3.117   1.853  0.0736 -2.8470  1.7348
  658SOL    HW2 1974   2.034   3.106   1.716  0.1797  1.6418  1.3044
  659SOL     OW 1975   2.907   1.542   0.330  0.2435 -0.1929  0.2994
  659SOL    HW1 1976   2.885   1.609   0.258 -0.0354  0.7874 -0.4543
  659SOL    HW2 1977   2.913   1.586   0.422 -1.6421 -0.4293 -1.0795
  660SOL     OW 1978   1.201   0.408   0.797  0.1069 -0.7233  0.7311
  660SOL    HW1 1979   1.210   0.509   0.815 -1.9349 -3.1563 -0.4944
  660SOL    HW2 1980   1.252   0.361   0.871  2.3685  1.9796 -1.5161
  661SOL     OW 1981   1.722   0.612   0.119  0.3974  0.3041 -0.2231
  661SOL    HW1 1982   1.797   0.622   0.186 -1.8197  0.1976 -1.0864
  661SOL    HW2 1983   1.752   0.648   0.027 -1.0556 -1.1705  2.6691
  662SOL     OW 1984   0.311   3.117   0.346 -0.2118  0.1111  0.3804
  662SOL    HW1 1985   0.368   0.034   0.424 -1.0684 -2.7408  1.6896
  662SOL    HW2 1986   0.370   3.048   0.297  1.0331 -1.9159 -2.2686
  663SOL     OW 1987   1.465   2.539   2.967 -0.1772 -0.2555  0.1449
  663SOL    HW1 1988   1.365   2.549   2.938 -1.3841 -0.9160  1.6169
  663SOL    HW2 1989   1.514   2.470   2.912 -0.9590 -2.3374 -1.7155
  664SOL     OW 1990   0.646   2.663   1.245  0.5319 -0.3530  0.3957
  664SOL    HW1 1991   0.565   2.600   1.253 -0.9969 -1.7403  0.7658
  664SOL    HW2 1992   0.711   2.634   1.172  2.7255  0.5634  1.5820
  665SOL     OW 1993   1.524   2.986   1.096 -0.1867 -0.1253 -0.0492
  665SOL    HW1 1994   1.542   3.004   0.995  2.1474  0.7447 -2.8473
  665SOL    HW2 1995   1.612   2.979   1.150  0.0792 -0.0413  0.9574
  666SOL     OW 1996   0.919   2.260   2.759  0.2325  0.1001 -0.7390
  666SOL    HW1 1997   0.907   2.349   2.802  2.0794  0.1993 -0.7894
  666SOL    HW2 1998   0.894   2.187   2.827 -1.2458  0.0842  2.3591
  667SOL     OW 1999   2.874   0.459   1.335  0.3922 -0.2196 -0.8450
  667SOL    HW1 2000   2.869   0.427   1.432  0.3010  0.6800  0.1588
  667SOL    HW2 2001   2.967   0.467   1.301  1.1405  1.4841 -0.4935
  668SOL     OW 2002   0.973   0.447   1.622 -0.1067  0.7454 -0.0567
  668SOL    HW1 2003   1.049   0.515   1.618 -0.3621 -0.3064  2.4151
  668SOL    HW2 2004   0.890   0.502   1.659 -3.8442  1.3317 -3.2550
  669SOL     OW 2005   1.392   2.817   1.304  0.2198  0.3088 -0.0580
  669SOL    HW1 2006   1.366   2.899   1.358  1.3758 -2.2306 -0.6873
  669SOL    HW2 2007   1.427   2.842   1.208  1.2072 -2.6524 -1.6795
  670SOL     OW 2008   1.795   2.489   3.023  0.4072  0.4768 -0.2045
  670SOL    HW1 2009   1.699   2.447   3.010 -1.9373 -1.5231 -0.9053
  670SOL    HW2 2010   1.808   2.568   2.961  2.1883 -3.2152  0.5921
  671SOL     OW 2011   0.424   1.371   2.909 -0.4132 -0.1804 -0.2112
  671SOL    HW1 2012   0.360   1.370   2.831 -0.0064  1.0875  1.1139
  671SOL    HW2 2013   0.519   1.354   2.873  0.3027  2.1176 -3.9593
  672SOL     OW 2014   2.491   0.491   2.760  0.3943 -0.2778  0.1999
  672SOL    HW1 2015   2.535   0.571   2.805 -3.9680  0.4926 -1.5583
  672SOL    HW2 2016   2.547   0.474   2.676  0.3900  0.8414 -0.8884
  673SOL     OW 2017   3.075   1.940   1.254 -0.3658  0.2292 -0.2617
  673SOL    HW1 2018   3.052   1.924   1.355 -0.2181 -0.2961 -0.9066
  673SOL    HW2 2019   3.108   2.038   1.246  2.0328  1.8098  1.0365
  674SOL     OW 2020   1.464   2.083   1.699  0.2623  0.5855 -0.2669
  674SOL    HW1 2021   1.373   2.123   1.724 -1.2336 -0.3817  1.3715
  674SOL    HW2 2022   1.475   2.064   1.598 -0.9638 -4.3579  2.0600
  675SOL     OW 2023   1.324   1.456   1.191 -0.0310  0.4035 -0.3742
  675SOL    HW1 2024   1.346   1.476   1.096 -2.0017 -0.9028  0.9354
  675SOL    HW2 2025   1.286   1.361   1.194  0.0166 -0.2804  1.9448
  676SOL     OW 2026   2.464   0.625   0.935  0.3003  0.1564 -0.2616
  676SOL    HW1 2027   2.428   0.722   0.915  1.9256  0.0303  1.0880
  676SOL    HW2 2028   2.469   0.615   1.035 -2.8578  1.6565 -1.5262
  677SOL     OW 2029   2.493   0.348   0.382  0.0167 -0.4786  0.2647
  677SOL    HW1 2030   2.582   0.320   0.424  1.4872 -2.4417  0.8810
  677SOL    HW2 2031   2.512   0.428   0.317  0.0682  2.6134  0.2402
  678SOL     OW 2032   2.465   1.091   1.122  0.0021  0.3657  0.0749
  678SOL    HW1 2033   2.463   1.192   1.101  0.4926  1.4602 -1.1522
  678SOL    HW2 2034   2.554   1.069   1.161 -0.4867 -0.3354 -0.9361
  679SOL     OW 2035   2.571   0.510   0.186 -0.2936 -0.5552 -0.1053
  679SOL    HW1 2036   2.547   0.609   0.176  0.4525  2.4647  4.7218
  679SOL    HW2 2037   2.663   0.489   0.150 -1.8185  1.7688 -1.4889
  680SOL     OW 2038   0.611   1.653   2.118 -0.2087  0.2890  0.2936
  680SOL    HW1 2039   0.671   1.580   2.068  2.0747 -0.5075  0.2622
  680SOL    HW2 2040   0.588   1.628   2.214 -0.9745 -0.1031 -0.8813
  681SOL     OW 2041   2.575   2.261   1.536 -0.2177 -0.4406 -0.5011
  681SOL    HW1 2042   2.596   2.359   1.541  0.1911  0.7085  0.6598
  681SOL    HW2 2043   2.475   2.242   1.552 -3.0241 -2.2184  1.7905
  682SOL     OW 2044   0.571   1.625   2.394 -0.3194 -0.1619 -0.3312
  682SOL    HW1 2045   0.668   1.608   2.411  0.6284  1.9206 -3.0650
  682SOL    HW2 2046   0.548   1.719   2.425 -0.2023 -0.5425  0.5365
  683SOL     OW 2047   2.694   1.980   1.339  0.1313  0.3250  0.7802
  683SOL    HW1 2048   2.739   1.954   1.248  1.5527  2.5191 -0.8604
  683SOL    HW2 2049   2.663   2.076   1.338 -0.7679 -0.0605 -0.8338
  684SOL     OW 2050   2.652   1.444   1.917 -0.2601 -0.0939  0.4893
  684SOL    HW1 2051   2.591   1.419   1.997  0.1336  0.4347  1.9672
  684SOL    HW2 2052   2.694   1.357   1.876 -2.0280 -0.9296 -0.4697
  685SOL     OW 2053   0.868   1.092   0.844  0.2136  0.0660  0.0906
  685SOL    HW1 2054   0.888   1.166   0.778 -0.7740 -0.4903  1.6707
  685SOL    HW2 2055   0.801   1.029   0.810  3.1295 -0.6782  2.4753
  686SOL     OW 2056   0.494   0.001   2.710 -0.0548 -0.7116 -0.1157
  686SOL    HW1 2057   0.560   3.118   2.790  1.8267  1.6791  0.5792
  686SOL    HW2 2058   0.500   0.092   2.666 -1.0784 -0.2105  3.0481
  687SOL     OW 2059   0.671   1.967   1.910  0.4034 -0.0742  0.1328
  687SOL    HW1 2060   0.718   2.055   1.887 -2.9469  0.6108 -0.9236
  687SOL    HW2 2061   0.711   1.924   1.993  0.5009  0.4975  0.0174
  688SOL     OW 2062   2.124   0.479   1.566  0.2758  0.1941 -1.1211
  688SOL    HW1 2063   2.109   0.437   1.471  1.3546 -0.6572 -3.6283
  688SOL    HW2 2064   2.181   0.564   1.559 -0.9465 -3.6535  1.2644
  689SOL     OW 2065   1.973   0.857   0.841  0.1687  0.6211 -0.3530
  689SOL    HW1 2066   1.883   0.805   0.840 -2.0531  1.3897 -0.8556
  689SOL    HW2 2067   2.034   0.807   0.904 -1.6086  1.3463 -3.3316
  690SOL     OW 2068   2.853   0.749   1.304 -0.5052  0.2262  0.7610
  690SOL    HW1 2069   2.911   0.747   1.220  0.5325  1.3767 -1.6263
  690SOL    HW2 2070   2.834   0.656   1.335 -2.4251  1.7569 -0.5801
  691SOL     OW 2071   0.095   1.028   1.955  0.0665  0.2187 -0.3793
  691SOL    HW1 2072   0.011   1.027   2.014 -0.0983 -0.1178  2.1820
  691SOL    HW2 2073   0.081   0.964   1.873 -1.1604  1.8027 -1.4555
  692SOL     OW 2074   0.686   1.064   1.997  0.1214 -0.4766  0.0946
  692SOL    HW1 2075   0.685   1.136   2.073 -1.3230 -0.5738  0.0678
  692SOL    HW2 2076   0.762   0.989   2.004  0.3461 -1.6510  0.5077
  693SOL     OW 2077   0.441   1.023   1.885  0.5314 -0.2695  0.1055
  693SOL    HW1 2078   0.516   1.021   1.957  0.1769 -0.9056 -0.6577
  693SOL    HW2 2079   0.384   1.105   1.900  0.1431  1.7228 -0.0855
  694SOL     OW 2080   1.526   1.894   0.756 -0.1149  0.5345  0.0227
  694SOL    HW1 2081   1.595   1.833   0.711  1.3413  2.3901  1.4227
  694SOL    HW2 2082   1.536   1.907   0.857  1.7465 -0.8887 -2.3966
  695SOL     OW 2083   0.037   0.897   1.134 -0.5660 -0.3427 -0.2559
  695SOL    HW1 2084   0.023   0.986   1.088 -3.8846 -0.4366  0.9130
  695SOL    HW2 2085   3.085   0.830   1.101  0.9987  2.4032  0.2564
  696SOL     OW 2086   0.615   2.345   0.738  0.0056 -0.4777 -0.0827
  696SOL    HW1 2087   0.636   2.438   0.702  0.4840  0.1103  0.0494
  696SOL    HW2 2088   0.650   2.342   0.834  0.3785  2.4397 -1.8692
  697SOL     OW 2089   1.354   0.838   1.641  0.1249  0.2952  0.2291
  697SOL    HW1 2090   1.409   0.922   1.674  1.6723  4.3916  0.8335
  697SOL    HW2 2091   1.332   0.835   1.541  0.5944 -0.8223 -1.1564
  698SOL     OW 2092   1.872   1.711   1.591  0.0194  0.0192  0.1573
  698SOL    HW1 2093   1.839   1.794   1.631  1.0038 -0.9777 -0.6759
  698SOL    HW2 2094   1.875   1.724   1.491  1.2441 -0.4596  4.9970
  699SOL     OW 2095   0.313   0.465   2.672  0.4003 -0.0865  0.3817
  699SOL    HW1 2096   0.272   0.433   2.583 -0.8485 -2.7588 -2.3587
  699SOL    HW2 2097   0.307   0.569   2.669 -0.1223 -0.5339 -1.0072
  700SOL     OW 2098   1.526   2.355   0.569  0.4871 -0.1904  0.4761
  700SOL    HW1 2099   1.589   2.432   0.577  0.1352 -0.9686 -0.6945
  700SOL    HW2 2100   1.439   2.377   0.520 -0.2129 -2.4031 -0.6205
  701SOL     OW 2101   0.044   1.245   2.143 -0.1822 -0.3583 -0.8860
  701SOL    HW1 2102   0.020   1.323   2.205  4.2763 -1.3400  1.2591
  701SOL    HW2 2103   0.055   1.155   2.192 -1.3860 -2.5062  0.4841
  702SOL     OW 2104   0.649   3.095   2.944 -0.1058 -0.4600 -0.2348
  702SOL    HW1 2105   0.716   0.040   2.905 -2.0561  0.4746  1.0806
  702SOL    HW2 2106   0.612   0.009   3.035  0.2144 -0.8851 -0.1016
  703SOL     OW 2107   1.510   0.560   2.846 -0.0680  0.4199 -0.9852
  703SOL    HW1 2108   1.590   0.522   2.891 -0.4801  0.5133 -1.8209
  703SOL    HW2 2109   1.469   0.495   2.776 -0.1393 -3.2644 -0.6707
  704SOL     OW 2110   2.767   1.369   0.972  0.1560 -0.5549 -0.0983
  704SOL    HW1 2111   2.709   1.422   1.035 -0.4945  0.2845 -2.8481
  704SOL    HW2 2112   2.837   1.314   1.019 -3.9566 -0.3142  0.5792
  705SOL     OW 2113   2.542   2.051   1.942 -0.0764 -0.4291 -0.0384
  705SOL    HW1 2114   2.515   2.146   1.921  2.0928  1.4194  1.7497
  705SOL    HW2 2115   2.478   1.981   1.905 -0.6276  1.5257  2.7858
  706SOL     OW 2116   2.996   2.473   0.956  0.2917  0.1094 -0.3641
  706SOL    HW1 2117   3.050   2.508   0.879  2.1239 -1.0814 -2.0227
  706SOL    HW2 2118   2.922   2.414   0.910 -2.3526 -0.0615 -2.4949
  707SOL     OW 2119   1.129   2.813   0.225  0.4307 -0.4890  0.7666
  707SOL    HW1 2120   1.227   2.844   0.217  2.2705  0.3404  1.0468
  707SOL    HW2 2121   1.068   2.872   0.280  0.2459 -0.6372 -1.0710
  708SOL     OW 2122   0.812   2.263   1.591  0.0300  0.3927  0.0519
  708SOL    HW1 2123   0.869   2.307   1.525 -0.3472  0.1958  3.2756
  708SOL    HW2 2124   0.712   2.297   1.583 -1.2387  3.2690  1.3600
  709SOL     OW 2125   2.036   0.434   2.607  0.0572 -0.0700 -0.1021
  709SOL    HW1 2126   1.940   0.466   2.603 -0.5590  1.5048  0.9796
  709SOL    HW2 2127   2.088   0.484   2.679 -3.3831 -0.7420 -0.4772
  710SOL     OW 2128   1.077   2.798   2.482 -0.7485  0.1886 -0.0772
  710SOL    HW1 2129   1.052   2.897   2.453 -1.0281 -0.6238  0.8694
  710SOL    HW2 2130   1.088   2.795   2.584  1.0420 -0.1407 -0.0500
  711SOL     OW 2131   1.103   2.298   2.563  0.3328 -0.0967 -0.0736
  711SOL    HW1 2132   1.073   2.378   2.510  1.7610 -1.5733 -1.1191
  711SOL    HW2 2133   1.030   2.270   2.628 -3.3548 -0.9508  0.3848
  712SOL     OW 2134   1.169   2.002   2.763  0.3296  0.0325  0.0379
  712SOL    HW1 2135   1.104   1.992   2.680 -3.2416  1.0026  1.3388
  712SOL    HW2 2136   1.158   1.923   2.820  1.0663  3.6168 -0.9247
  713SOL     OW 2137   0.948   0.989   1.946  0.1605 -0.4175 -0.7028
  713SOL    HW1 2138   0.933   1.035   1.856  2.0258  2.0918 -0.1407
  713SOL    HW2 2139   0.998   0.903   1.938  1.7676 -1.3664 -1.9656
  714SOL     OW 2140   1.563   1.942   1.040  0.1132  0.2033 -0.5618
  714SOL    HW1 2141   1.548   2.042   1.054 -1.6349 -1.2610  1.8351
  714SOL    HW2 2142   1.488   1.887   1.085  1.4987  2.6310 -0.3183
  715SOL     OW 2143   0.141   0.505   0.574  0.2751  0.1077  0.2209
  715SOL    HW1 2144   0.151   0.403   0.570  0.5621  2.5432 -2.5249
  715SOL    HW2 2145   0.115   0.533   0.478  2.4666  0.3291  2.5550
  716SOL     OW 2146   0.821   2.629   0.361 -0.5232 -0.3905 -0.9392
  716SOL    HW1 2147   0.811   2.713   0.420 -0.8671  0.9546  0.2980
  716SOL    HW2 2148   0.872   2.551   0.404  0.2722  2.2050 -0.1256
  717SOL     OW 2149   0.256   0.268   0.334  0.4641 -0.3739  0.8385
  717SOL    HW1 2150   0.254   0.176   0.290  0.5530  2.0002  1.4838
  717SOL    HW2 2151   0.327   0.329   0.295 -1.0168  1.1930 -2.4529
  718SOL     OW 2152   1.510   2.178   1.200 -0.1253 -0.5041  0.1968
  718SOL    HW1 2153   1.449   2.251   1.229  2.6827 -1.1666  1.8385
  718SOL    HW2 2154   1.607   2.208   1.197  1.8617  1.3304 -1.8118
  719SOL     OW 2155   2.821   2.343   0.828 -0.8240  0.0981  0.3984
  719SOL    HW1 2156   2.785   2.269   0.889 -1.2181 -0.2231  3.6671
  719SOL    HW2 2157   2.783   2.332   0.737  1.8789  0.0144  0.0127
  720SOL     OW 2158   1.048   1.410   0.817  0.0185  0.3345  0.0393
  720SOL    HW1 2159   1.081   1.506   0.828 -2.1349 -0.1700  2.4820
  720SOL    HW2 2160   1.033   1.384   0.913  0.9782 -2.5032 -2.6207
  721SOL     OW 2161   0.976   0.673   1.024 -0.1547 -0.0629  0.1535
  721SOL    HW1 2162   0.884   0.686   0.973 -1.0182 -0.1145 -2.4241
  721SOL    HW2 2163   0.962   0.590   1.083 -0.3351  0.0909 -0.6892
  722SOL     OW 2164   1.024   1.256   1.532 -0.1596  0.0934 -0.8228
  722SOL    HW1 2165   1.105   1.290   1.581 -0.8661 -0.8969 -1.5406
  722SOL    HW2 2166   1.050   1.226   1.439 -1.4991 -1.5450  0.0539
  723SOL     OW 2167   0.878   0.121   1.644  0.3163 -0.0988  0.4058
  723SOL    HW1 2168   0.858   0.217   1.618 -0.0491  0.7920 -2.3435
  723SOL    HW2 2169   0.793   0.061   1.632  0.3382  0.3293 -0.2487
  724SOL     OW 2170   1.920   2.173   1.902  0.4213 -0.1278  0.6135
  724SOL    HW1 2171   1.927   2.090   1.954  2.6982  5.3566  0.0060
  724SOL    HW2 2172   1.833   2.176   1.846  2.1147 -0.7954  0.4611
  725SOL     OW 2173   1.020   2.864   1.441 -0.5783 -0.3439  0.6759
  725SOL    HW1 2174   1.088   2.796   1.400 -0.3264  0.7271  0.4026
  725SOL    HW2 2175   0.922   2.831   1.435  2.1158  1.4566 -0.5542
  726SOL     OW 2176   1.502   0.616   0.354 -0.4441 -0.2081 -0.0842
  726SOL    HW1 2177   1.415   0.669   0.350  4.1824 -2.7889 -1.3659
  726SOL    HW2 2178   1.515   0.555   0.273  0.1648 -0.5324 -0.6906
  727SOL     OW 2179   1.303   2.074   0.723 -0.7550 -0.0673  0.2227
  727SOL    HW1 2180   1.388   2.122   0.754 -3.4880 -0.3646  0.7738
  727SOL    HW2 2181   1.319   1.977   0.731  1.7904  2.7304  0.9448
  728SOL     OW 2182   1.713   0.230   2.554 -0.5132 -0.1105  0.0248
  728SOL    HW1 2183   1.630   0.182   2.588  0.7080  0.3541  2.0495
  728SOL    HW2 2184   1.797   0.190   2.592 -1.7738  0.4789  1.6937
  729SOL     OW 2185   2.462   1.354   1.046  0.0900 -0.0716 -0.1375
  729SOL    HW1 2186   2.451   1.340   0.945 -3.9921  0.3411  0.5285
  729SOL    HW2 2187   2.515   1.436   1.069 -1.7097 -2.8983  0.8680
  730SOL     OW 2188   2.120   0.939   2.692 -0.1189  0.7913  0.4762
  730SOL    HW1 2189   2.104   1.015   2.625 -1.7201  0.1364 -1.5810
  730SOL    HW2 2190   2.034   0.925   2.741  3.0107 -0.1212 -1.7396
  731SOL     OW 2191   0.392   0.062   1.751 -0.0499 -0.1922 -0.4796
  731SOL    HW1 2192   0.400   0.139   1.681 -0.0683 -3.0944  0.7798
  731SOL    HW2 2193   0.370   3.096   1.700  1.3377  4.1397  0.7959
  732SOL     OW 2194   1.760   0.497   1.213 -0.0890  0.6285  0.7506
  732SOL    HW1 2195   1.758   0.593   1.248 -0.3018  2.0214  1.1935
  732SOL    HW2 2196   1.805   0.495   1.118 -0.8616 -0.9940 -0.3956
  733SOL     OW 2197   0.639   1.259   1.805  0.0788 -0.4126 -0.1604
  733SOL    HW1 2198   0.687   1.240   1.719 -0.4492 -2.5700  0.1292
  733SOL    HW2 2199   0.644   1.175   1.866  0.5639 -1.4534 -1.6789
  734SOL     OW 2200   2.544   1.764   0.365  0.5541  0.0406 -0.3450
  734SOL    HW1 2201   2.485   1.755   0.281 -0.3254  0.6354 -0.2598
  734SOL    HW2 2202   2.536   1.857   0.407  0.4881  2.5737 -1.4908
  735SOL     OW 2203   0.766   0.853   0.195 -0.6405 -0.0114  0.8422
  735SOL    HW1 2204   0.736   0.766   0.243  1.6483 -3.1214 -0.9801
  735SOL    HW2 2205   0.860   0.841   0.159 -0.4085  0.5242 -0.2143
  736SOL     OW 2206   1.746   2.845   0.078 -0.1931  0.5339  0.1625
  736SOL    HW1 2207   1.823   2.786   0.055  0.9957  1.2262 -0.8446
  736SOL    HW2 2208   1.665   2.810   0.028  1.3019 -1.7956 -1.5332
  737SOL     OW 2209   1.231   2.238   0.987 -0.3229  0.1428 -0.3429
  737SOL    HW1 2210   1.226   2.178   1.072  2.6702  0.2087  2.5159
  737SOL    HW2 2211   1.329   2.242   0.951 -0.5577  0.1337 -2.8292
  738SOL     OW 2212   1.965   0.152   2.662  0.4498  0.2034 -0.3841
  738SOL    HW1 2213   1.993   0.249   2.641 -0.7592  0.1251  0.0300
  738SOL    HW2 2214   2.000   0.087   2.589  1.4194  1.4004  0.8770
  739SOL     OW 2215   1.782   2.387   2.680  0.5546  0.0756  0.4548
  739SOL    HW1 2216   1.791   2.327   2.598 -1.5912  2.1131  1.3230
  739SOL    HW2 2217   1.799   2.486   2.659 -0.0788  1.5393 -2.0592
  740SOL     OW 2218   1.856   2.523   2.259  0.3842 -0.0073  0.1554
  740SOL    HW1 2219   1.765   2.553   2.293  1.0718  4.5071 -0.1122
  740SOL    HW2 2220   1.867   2.421   2.269  0.7196 -1.2497 -1.1223
  741SOL     OW 2221   2.379   2.175   2.667 -0.3301 -0.0679  0.3760
  741SOL    HW1 2222   2.323   2.108   2.715 -0.5063 -1.5045 -0.6420
  741SOL    HW2 2223   2.479   2.140   2.662  1.2904 -0.8391 -0.9680
  742SOL     OW 2224   1.194   1.546   2.734  0.2712  0.0069 -0.0895
  742SOL    HW1 2225   1.286   1.502   2.740 -1.4880 -1.3520  2.6975
  742SOL    HW2 2226   1.175   1.575   2.640 -1.8541  0.2727  0.2506
  743SOL     OW 2227   1.438   1.411   2.791 -0.8759 -0.3285  0.3862
  743SOL    HW1 2228   1.394   1.358   2.865  0.3070  0.3359 -0.2011
  743SOL    HW2 2229   1.505   1.477   2.832  3.3048  3.9057  1.8097
  744SOL     OW 2230   2.258   3.001   1.334 -0.3033 -0.5930 -0.4279
  744SOL    HW1 2231   2.294   2.931   1.398 -2.5238 -0.4812  1.5353
  744SOL    HW2 2232   2.219   2.953   1.252  2.4466  0.6950 -3.5579
  745SOL     OW 2233   2.730   0.899   0.730 -0.0552  0.7925 -0.4092
  745SOL    HW1 2234   2.651   0.914   0.668 -1.8163 -1.5238  0.4370
  745SOL    HW2 2235   2.772   0.987   0.763  0.0278 -0.5318  0.7361
  746SOL     OW 2236   2.527   1.759   1.087  1.2454 -0.9009  0.2904
  746SOL    HW1 2237   2.423   1.757   1.093 -4.5202 -0.4910  0.5489
  746SOL    HW2 2238   2.561   1.841   1.144 -1.3393  2.7174  1.4202
  747SOL     OW 2239   1.705   0.222   0.197 -0.3520  0.6136  0.0888
  747SOL    HW1 2240   1.796   0.245   0.238 -2.8695 -2.0560 -3.3871
  747SOL    HW2 2241   1.725   0.154   0.122  2.3711 -1.1894 -0.8529
  748SOL     OW 2242   0.684   1.185   3.083 -0.1456  0.4824  0.1968
  748SOL    HW1 2243   0.667   1.222   2.992  1.0330 -1.4385  0.4242
  748SOL    HW2 2244   0.783   1.159   3.097  1.9246 -2.2309  1.0031
  749SOL     OW 2245   2.915   0.701   2.155  0.4666 -0.3001 -0.1828
  749SOL    HW1 2246   2.864   0.625   2.196  0.2943 -1.1014  0.7360
  749SOL    HW2 2247   2.871   0.789   2.179 -0.7305 -1.1064  0.8292
  750SOL     OW 2248   1.106   0.741   1.933 -0.2306 -0.1765 -0.3135
  750SOL    HW1 2249   1.085   0.658   1.983  1.9315  1.8540 -2.2635
  750SOL    HW2 2250   1.139   0.716   1.838  0.4988 -1.7697 -0.8423
  751SOL     OW 2251   2.415   2.526   2.094  0.7195  0.3521  0.0302
  751SOL    HW1 2252   2.418   2.435   2.038 -2.4623 -1.9239  1.3339
  751SOL    HW2 2253   2.435   2.601   2.033 -0.6430 -1.8112  0.4630
  752SOL     OW 2254   1.978   1.572   0.968 -0.5674 -0.3774  0.0282
  752SOL    HW1 2255   2.004   1.617   1.056  0.2579 -0.4871 -2.4216
  752SOL    HW2 2256   2.041   1.601   0.891 -0.2564  1.5159 -1.7434
  753SOL     OW 2257   1.067   1.054   2.202 -0.1592 -0.2685  0.1051
  753SOL    HW1 2258   1.017   1.042   2.113 -2.3185  0.8852  0.3281
  753SOL    HW2 2259   1.119   0.972   2.235  0.9483  0.2532  1.4639
  754SOL     OW 2260   0.559   2.642   0.715  0.2056  0.0013  0.0110
  754SOL    HW1 2261   0.547   2.704   0.636  1.4326  1.0823 -0.9432
  754SOL    HW2 2262   0.638   2.678   0.769  0.0664 -1.2994 -1.5956
  755SOL     OW 2263   2.593   0.010   0.933  0.7470 -0.3451  0.0693
  755SOL    HW1 2264   2.554   0.068   0.856 -1.8232  0.6042 -0.6879
  755SOL    HW2 2265   2.527   0.019   1.010 -1.4429 -0.1571  1.1164
  756SOL     OW 2266   2.285   2.011   2.426 -0.1615 -0.2877 -0.3425
  756SOL    HW1 2267   2.301   2.080   2.500 -3.0153 -2.8878  3.2662
  756SOL    HW2 2268   2.315   2.037   2.331  1.3311 -0.8971 -1.1729
  757SOL     OW 2269   2.838   3.062   1.712  0.1697 -0.2924 -0.5258
  757SOL    HW1 2270   2.830   3.053   1.610 -0.1107 -0.2280  1.5182
  757SOL    HW2 2271   2.896   0.024   1.732 -4.4964 -3.8947 -1.3287
  758SOL     OW 2272   0.301   2.553   0.802  0.5576 -0.0497 -0.0553
  758SOL    HW1 2273   0.264   2.478   0.741  1.7467 -0.7164 -0.1211
  758SOL    HW2 2274   0.397   2.573   0.773  1.0348  0.3714  2.9160
  759SOL     OW 2275   2.014   1.030   1.175  0.1918 -0.0407 -0.1956
  759SOL    HW1 2276   1.958   1.117   1.163 -0.8809 -0.6229  0.8287
  759SOL    HW2 2277   2.073   1.030   1.261 -3.9508 -0.1076  0.1401
  760SOL     OW 2278   1.443   0.588   1.680  0.2245  0.2281  0.2003
  760SOL    HW1 2279   1.446   0.566   1.783 -1.0388 -2.1338  2.0474
  760SOL    HW2 2280   1.401   0.682   1.664  0.7409  3.0647 -0.5754
  761SOL     OW 2281   2.122   0.334   1.141 -0.3155 -0.1548  0.4682
  761SOL    HW1 2282   2.180   0.416   1.119 -1.7066  0.9094 -1.2426
  761SOL    HW2 2283   2.147   0.253   1.078  0.5499  1.0265  0.0701
  762SOL     OW 2284   1.697   0.153   0.554 -0.0726  0.2145 -0.2434
  762SOL    HW1 2285   1.744   0.066   0.525 -1.8700  1.8199 -1.0783
  762SOL    HW2 2286   1.691   0.217   0.474  0.8401  0.8264 -0.0433
  763SOL     OW 2287   0.786   0.343   1.418  0.4270 -0.8486  0.1588
  763SOL    HW1 2288   0.832   0.407   1.482 -0.0992  0.0530  0.9077
  763SOL    HW2 2289   0.840   0.318   1.338 -1.4663  0.6689 -0.1354
  764SOL     OW 2290   2.379   2.550   2.351  0.1131 -0.7103  0.4860
  764SOL    HW1 2291   2.418   2.472   2.401  0.2588  1.3479 -1.8263
  764SOL    HW2 2292   2.388   2.541   2.252 -0.3568  1.3769  2.9664
  765SOL     OW 2293   2.967   1.131   2.496 -0.2441  0.8100 -0.3445
  765SOL    HW1 2294   2.931   1.038   2.489  2.0962  0.5665 -0.3165
  765SOL    HW2 2295   2.991   1.159   2.591  0.4394  0.1534 -0.3150
  766SOL     OW 2296   0.164   0.673   2.891  0.2524  0.4123  0.5285
  766SOL    HW1 2297   0.170   0.626   2.987 -1.5768 -1.4390 -1.1039
  766SOL    HW2 2298   0.106   0.611   2.830 -1.0737 -3.1961  3.8130
  767SOL     OW 2299   0.324   2.332   1.768 -0.1134  0.2902  0.9614
  767SOL    HW1 2300   0.267   2.247   1.759 -1.4893 -2.9260 -0.8888
  767SOL    HW2 2301   0.271   2.418   1.769  1.1723  0.7527 -0.5015
  768SOL     OW 2302   1.150   0.910   0.027  0.1611  0.4936  0.3244
  768SOL    HW1 2303   1.163   0.900   3.045  1.6415  2.4843  0.4256
  768SOL    HW2 2304   1.230   0.943   0.076  2.7355 -0.8439 -2.0766
  769SOL     OW 2305   1.465   2.399   0.266 -0.2092 -0.5706  0.0429
  769SOL    HW1 2306   1.477   2.298   0.274 -3.1082  0.7523  4.8402
  769SOL    HW2 2307   1.386   2.422   0.326  0.2831 -2.1912 -0.1980
  770SOL     OW 2308   1.245   0.043   2.100 -0.5075 -0.3282  0.4447
  770SOL    HW1 2309   1.331   3.118   2.128 -0.1151  0.9538  2.6651
  770SOL    HW2 2310   1.187   3.099   2.048  0.0343  0.4407  1.0843
  771SOL     OW 2311   0.946   2.937   0.808  0.5807  0.4261  0.4440
  771SOL    HW1 2312   1.015   2.937   0.879 -0.0132 -1.3330 -0.4041
  771SOL    HW2 2313   0.864   2.879   0.838 -0.0945 -2.6532 -0.1171
  772SOL     OW 2314   2.769   0.841   0.223 -0.3368 -0.3763 -0.6395
  772SOL    HW1 2315   2.863   0.811   0.219  2.7698 -1.1713 -1.4070
  772SOL    HW2 2316   2.733   0.838   0.319  1.5473 -0.6907  1.4701
  773SOL     OW 2317   2.072   0.616   1.802 -0.5960  0.1531  0.0216
  773SOL    HW1 2318   2.107   0.566   1.721  1.8968  0.4493  2.1905
  773SOL    HW2 2319   2.034   0.708   1.782  1.6843  0.0519  2.4221
  774SOL     OW 2320   0.404   0.558   0.619  0.3484  0.4427 -0.0364
  774SOL    HW1 2321   0.308   0.548   0.583 -3.4477 -1.2382 -1.2547
  774SOL    HW2 2322   0.468   0.497   0.568  2.2754 -1.3165 -0.1975
  775SOL     OW 2323   1.599   0.285   0.787 -0.2358  0.0180  0.4400
  775SOL    HW1 2324   1.615   0.387   0.798  1.9767 -0.0270 -1.8569
  775SOL    HW2 2325   1.647   0.249   0.705  1.0057  0.2849 -1.4949
  776SOL     OW 2326   2.074   0.141   2.220  0.1839  0.2299 -0.5235
  776SOL    HW1 2327   2.161   0.129   2.169 -0.0778 -0.7600 -2.8962
  776SOL    HW2 2328   2.047   0.238   2.243 -0.6166 -3.1965  1.6723
  777SOL     OW 2329   1.183   1.616   0.222  0.2136 -0.1855 -0.5825
  777SOL    HW1 2330   1.253   1.562   0.274  0.0896  0.1214  0.7361
  777SOL    HW2 2331   1.175   1.594   0.122 -1.1647  0.6031 -0.9263
  778SOL     OW 2332   0.561   2.495   0.099  0.4416 -0.2354 -0.4976
  778SOL    HW1 2333   0.590   2.467   0.193 -0.6454  1.8800  0.3569
  778SOL    HW2 2334   0.499   2.580   0.107  2.2550 -0.6354 -0.3718
  779SOL     OW 2335   0.139   1.542   0.168 -0.0638 -0.1735  0.3443
  779SOL    HW1 2336   0.232   1.533   0.130 -0.7859  2.1970  0.8383
  779SOL    HW2 2337   0.140   1.576   0.261  1.0897  0.1076  0.7606
  780SOL     OW 2338   1.691   0.288   2.297 -0.2801  0.2582  0.4646
  780SOL    HW1 2339   1.741   0.233   2.232 -2.5827 -2.1152 -0.6311
  780SOL    HW2 2340   1.697   0.255   2.396  0.9697  0.5476  0.1162
  781SOL     OW 2341   1.813   1.858   1.066  0.0706  0.2429  0.4165
  781SOL    HW1 2342   1.716   1.830   1.062 -1.1132 -0.0646 -0.4820
  781SOL    HW2 2343   1.849   1.870   0.973 -0.7313 -0.3239 -1.6873
  782SOL     OW 2344   2.085   2.663   2.231 -0.1739 -0.1796  0.5220
  782SOL    HW1 2345   1.999   2.606   2.239  1.1821 -3.4695  1.2029
  782SOL    HW2 2346   2.167   2.601   2.243 -0.1849  1.0703  0.6303
  783SOL     OW 2347   1.442   0.487   1.995  0.3116  0.1466 -0.2295
  783SOL    HW1 2348   1.465   0.474   2.096 -1.3513  1.2966  0.7065
  783SOL    HW2 2349   1.382   0.404   1.974 -1.4467  0.7839 -1.6285
  784SOL     OW 2350   1.521   0.899   1.949  0.1720 -0.0174  0.0358
  784SOL    HW1 2351   1.469   0.950   1.882  2.8284 -2.0080  2.2356
  784SOL    HW2 2352   1.459   0.842   2.001 -0.3387  0.7976 -2.8299
  785SOL     OW 2353   1.915   0.699   0.482 -0.1443  0.3288 -0.4443
  785SOL    HW1 2354   1.956   0.778   0.530 -0.0060  0.6185  0.1300
  785SOL    HW2 2355   1.826   0.682   0.526 -0.5205  2.3609 -1.3757
  786SOL     OW 2356   3.030   1.161   0.605  0.5295  0.1230  0.3581
  786SOL    HW1 2357   3.022   1.159   0.505 -0.3265  2.2605  1.9708
  786SOL    HW2 2358   2.939   1.167   0.648 -2.2347 -1.3411 -0.9057
  787SOL     OW 2359   1.560   1.862   0.055 -0.4809  0.0907  0.5349
  787SOL    HW1 2360   1.513   1.797   3.112 -1.1192  0.2016 -2.6324
  787SOL    HW2 2361   1.533   1.955   0.045  1.8311 -3.6172 -1.0613
  788SOL     OW 2362   2.270   1.090   1.324  0.1336  0.1285  0.3772
  788SOL    HW1 2363   2.305   1.080   1.419 -0.9753  0.5581 -0.8903
  788SOL    HW2 2364   2.343   1.080   1.252 -1.4493  0.3186  2.8490
  789SOL     OW 2365   2.847   1.578   2.423  0.2217  0.3516  0.1623
  789SOL    HW1 2366   2.829   1.677   2.410 -2.4520  1.2639  1.9401
  789SOL    HW2 2367   2.786   1.525   2.358  0.0305 -0.0075 -1.8052
  790SOL     OW 2368   0.763   2.888   2.533  0.2184  0.3220  0.4423
  790SOL    HW1 2369   0.667   2.879   2.562  1.9450 -0.8674  0.7069
  790SOL    HW2 2370   0.812   2.798   2.542  2.2067 -2.7795  1.7263
  791SOL     OW 2371   0.248   2.610   2.956 -0.3583  0.4884  0.2364
  791SOL    HW1 2372   0.282   2.536   3.014 -1.0631 -0.9665 -3.1737
  791SOL    HW2 2373   0.162   2.643   3.004 -2.7739  0.1550 -0.0638
  792SOL     OW 2374   1.373   0.250   2.318 -0.1286 -0.4861 -0.1693
  792SOL    HW1 2375   1.477   0.253   2.329  0.2807 -0.7963  0.5782
  792SOL    HW2 2376   1.348   0.178   2.246  1.5540 -2.4503 -0.1523
  793SOL     OW 2377   2.682   0.215   2.397  0.1326 -0.0237  0.7351
  793SOL    HW1 2378   2.618   0.161   2.454  0.0878  0.8867 -1.1413
  793SOL    HW2 2379   2.642   0.235   2.306 -0.4060  0.1882 -2.1483
  794SOL     OW 2380   0.522   0.338   2.079 -0.2030 -0.2604 -0.2086
  794SOL    HW1 2381   0.585   0.263   2.113 -0.8042  1.6298  0.8879
  794SOL    HW2 2382   0.445   0.301   2.027  0.2477 -0.8941  1.2535
  795SOL     OW 2383   2.781   1.304   0.335 -0.0423  0.6418  0.1861
  795SOL    HW1 2384   2.865   1.241   0.330 -0.6673 -0.2749 -1.2367
  795SOL    HW2 2385   2.820   1.397   0.355 -1.5428 -1.1392 -1.0599
  796SOL     OW 2386   2.757   2.241   2.381  0.0287 -0.3466  0.2087
  796SOL    HW1 2387   2.782   2.155   2.325  1.2815 -2.1857  1.0183
  796SOL    HW2 2388   2.828   2.316   2.375 -0.8934  1.6253  1.8893
  797SOL     OW 2389   2.944   1.838   0.046 -0.0092  0.6552  0.6898
  797SOL    HW1 2390   2.891   1.870   3.080  1.4332  0.8788  0.4883
  797SOL    HW2 2391   2.985   1.911   0.108  1.0610  0.1666 -0.0323
  798SOL     OW 2392   0.481   0.654   1.873  0.1125 -0.4085  0.0293
  798SOL    HW1 2393   0.497   0.664   1.975 -1.3231 -3.5210  2.2316
  798SOL    HW2 2394   0.532   0.724   1.819  3.1660  0.5742  0.8175
  799SOL     OW 2395   2.820   0.916   2.421  0.1783  0.0753 -0.4977
  799SOL    HW1 2396   2.754   0.908   2.502 -3.8114  1.9369  0.3393
  799SOL    HW2 2397   2.774   0.922   2.332 -2.3951  2.2027  2.2167
  800SOL     OW 2398   2.927   2.058   0.622  0.7277  0.1981 -0.4601
  800SOL    HW1 2399   2.936   2.156   0.640  0.8422 -2.2235 -0.3952
  800SOL    HW2 2400   3.016   2.005   0.630 -1.4265 -0.2832  1.3594
  801SOL     OW 2401   1.232   0.956   0.801 -0.7209  0.0745 -0.5243
  801SOL    HW1 2402   1.180   0.985   0.883  0.4905  0.2158 -0.1636
  801SOL    HW2 2403   1.179   0.978   0.717 -1.9305 -2.4447 -0.0600
  802SOL     OW 2404   1.761   2.206   0.915  0.3979  0.5910 -0.4295
  802SOL    HW1 2405   1.771   2.161   1.009 -0.2848 -0.6739 -1.1484
  802SOL    HW2 2406   1.808   2.156   0.840  0.7823 -0.3056  1.3145
  803SOL     OW 2407   0.178   1.564   0.449 -0.0981  0.0864 -0.5831
  803SOL    HW1 2408   0.172   1.467   0.483  2.8147  0.2463 -0.1809
  803SOL    HW2 2409   0.163   1.629   0.522  1.1871 -2.2617 -1.0052
  804SOL     OW 2410   1.250   2.380   0.467  0.8261  0.0837  0.6891
  804SOL    HW1 2411   1.182   2.342   0.536  2.3585  0.5708  3.6503
  804SOL    HW2 2412   1.227   2.475   0.446  1.0331  1.0763 -3.5923
  805SOL     OW 2413   1.515   2.250   2.512  0.5000 -0.3164 -0.5260
  805SOL    HW1 2414   1.455   2.247   2.599 -0.6187  1.9386  0.7500
  805SOL    HW2 2415   1.602   2.195   2.519 -0.2573 -1.6561  0.1797
  806SOL     OW 2416   1.832   0.021   1.484 -0.4592 -0.0775  0.7092
  806SOL    HW1 2417   1.931   3.106   1.487  1.0366  1.3827 -1.6160
  806SOL    HW2 2418   1.825   0.112   1.444 -0.1377  0.6374  1.2631
  807SOL     OW 2419   1.887   3.048   0.440 -0.1015 -0.0056 -0.1399
  807SOL    HW1 2420   1.838   2.964   0.406 -1.4250 -1.3684  2.3618
  807SOL    HW2 2421   1.954   3.022   0.513  1.1098 -1.2368  1.6837
  808SOL     OW 2422   0.363   1.738   2.887 -0.1248 -0.0034  0.3877
  808SOL    HW1 2423   0.374   1.713   2.787  1.0655  0.1740 -0.6108
  808SOL    HW2 2424   0.264   1.725   2.908 -1.2723  0.7673  1.6688
  809SOL     OW 2425   0.018   1.085   2.898 -0.0852 -0.5506 -0.0612
  809SOL    HW1 2426   0.102   1.137   2.925 -0.6942 -1.4673 -0.0746
  809SOL    HW2 2427   3.116   1.005   2.958 -0.2620  0.0130 -0.3913
  810SOL     OW 2428   2.865   0.453   2.893 -0.0452  0.3299 -0.2864
  810SOL    HW1 2429   2.804   0.389   2.844  0.4872 -3.4189  1.6926
  810SOL    HW2 2430   2.953   0.466   2.844 -0.4483  1.5748  0.9518
  811SOL     OW 2431   2.076   2.387   1.797  0.6048 -0.6441 -0.1198
  811SOL    HW1 2432   2.054   2.487   1.807 -0.0293 -0.1960  1.7915
  811SOL    HW2 2433   2.010   2.324   1.843 -0.6478 -0.2328 -0.8385
  812SOL     OW 2434   1.062   0.496   0.294  0.2598  0.1941 -0.4305
  812SOL    HW1 2435   1.124   0.572   0.321  0.1260 -0.3822  1.1409
  812SOL    HW2 2436   1.110   0.404   0.296  0.0510  0.5879  1.6410
  813SOL     OW 2437   1.975   0.413   1.979  0.1795 -0.3889  0.1546
  813SOL    HW1 2438   1.879   0.418   1.945 -0.9253  0.1012  1.8643
  813SOL    HW2 2439   2.030   0.480   1.922  2.1725  0.4996 -0.7194
  814SOL     OW 2440   1.854   0.809   1.145 -0.5256  0.1516 -0.2072
  814SOL    HW1 2441   1.900   0.732   1.193  1.1118 -1.7970 -0.9973
  814SOL    HW2 2442   1.911   0.891   1.143 -0.0186  1.3726 -1.1922
  815SOL     OW 2443   0.577   1.166   0.456 -0.0506 -0.1353  0.1678
  815SOL    HW1 2444   0.604   1.190   0.550  0.4562 -0.4323  0.3904
  815SOL    HW2 2445   0.485   1.196   0.435 -0.1859 -0.0706  0.2189
  816SOL     OW 2446   2.361   2.263   0.159 -0.6344 -0.3732 -0.0036
  816SOL    HW1 2447   2.269   2.221   0.138 -0.6133  1.8741  0.5676
  816SOL    HW2 2448   2.353   2.330   0.236  1.7533  1.1980  0.6020
  817SOL     OW 2449   2.765   2.454   1.178  1.4910 -0.0915 -0.0444
  817SOL    HW1 2450   2.860   2.457   1.146 -1.3003  0.2156  1.5655
  817SOL    HW2 2451   2.773   2.476   1.276  0.5046  1.1129  0.9431
  818SOL     OW 2452   1.693   0.960   0.065  0.1367  0.1226  0.5734
  818SOL    HW1 2453   1.614   0.922   0.016  0.9039  0.4703  0.9580
  818SOL    HW2 2454   1.671   0.969   0.164 -1.4798 -1.9510 -1.2555
  819SOL     OW 2455   0.562   0.776   0.681 -0.0212 -0.0526  0.1686
  819SOL    HW1 2456   0.539   0.874   0.693 -2.5607 -1.2704  0.7152
  819SOL    HW2 2457   0.480   0.717   0.660 -0.8603  1.0293  1.4778
  820SOL     OW 2458   2.036   0.743   1.406  0.2898  0.1324 -0.0169
  820SOL    HW1 2459   2.025   0.845   1.409  0.6164 -0.6164 -1.5314
  820SOL    HW2 2460   1.995   0.698   1.483  0.7360 -0.2728  1.3310
  821SOL     OW 2461   2.815   3.118   0.753  0.3526  0.2840 -0.1098
  821SOL    HW1 2462   2.824   3.018   0.735  1.0934 -0.3213 -0.9089
  821SOL    HW2 2463   2.735   0.005   0.812 -2.5671  2.4418 -0.7353
  822SOL     OW 2464   0.658   2.345   2.367  0.2490  0.2444  0.1224
  822SOL    HW1 2465   0.693   2.430   2.325  0.2735  2.5597 -2.4411
  822SOL    HW2 2466   0.579   2.304   2.313 -3.0064  1.0064 -2.0926
  823SOL     OW 2467   2.919   1.157   1.640  0.3973  0.4143  0.0548
  823SOL    HW1 2468   2.916   1.069   1.591 -0.9598  0.0198 -0.1202
  823SOL    HW2 2469   3.020   1.182   1.635 -0.5805  0.7075 -1.1107
  824SOL     OW 2470   0.487   2.656   2.431  0.0097  0.1132  0.1945
  824SOL    HW1 2471   0.490   2.741   2.489 -0.8242  0.9292  1.8092
  824SOL    HW2 2472   0.575   2.625   2.396  0.9357  0.8283  0.3731
  825SOL     OW 2473   1.536   1.677   2.862 -0.5482 -0.1626 -0.2241
  825SOL    HW1 2474   1.536   1.759   2.798  0.2851  3.9758  0.6134
  825SOL    HW2 2475   1.629   1.644   2.885 -3.9747  3.1544  1.1928
  826SOL     OW 2476   1.190   2.327   3.080 -0.5816  0.7967 -0.5974
  826SOL    HW1 2477   1.189   2.321   0.064  1.8423 -2.1889  1.8562
  826SOL    HW2 2478   1.192   2.231   3.041  2.7091 -2.9491  1.2628
  827SOL     OW 2479   0.256   1.378   1.560 -0.2110  0.1567 -0.4706
  827SOL    HW1 2480   0.215   1.451   1.507 -0.8342  0.3268  3.2133
  827SOL    HW2 2481   0.181   1.328   1.608 -0.6155 -0.0517 -0.3055
  828SOL     OW 2482   0.289   1.530   1.184 -0.3541  0.0796  0.1568
  828SOL    HW1 2483   0.307   1.455   1.118 -0.5530  1.5085 -1.6373
  828SOL    HW2 2484   0.293   1.613   1.129  1.1084  0.5732 -0.1633
  829SOL     OW 2485   3.058   2.385   0.045 -0.1454  0.0067  0.0364
  829SOL    HW1 2486   0.015   2.376   0.118  0.0095  0.0066 -0.3732
  829SOL    HW2 2487   3.053   2.309   3.096  2.7606 -1.0484  0.0897
  830SOL     OW 2488   1.268   0.771   0.318  0.0828 -0.0318  0.0464
  830SOL    HW1 2489   1.306   0.856   0.280  2.0346  0.3370  1.8222
  830SOL    HW2 2490   1.211   0.782   0.402 -0.6001 -0.5530 -1.1476
  831SOL     OW 2491   2.980   2.196   2.970 -0.2688  0.3803  0.0417
  831SOL    HW1 2492   2.975   2.092   2.972  0.8898 -2.7310 -0.2538
  831SOL    HW2 2493   2.890   2.247   2.970 -1.7989 -1.6195 -4.1197
  832SOL     OW 2494   1.743   2.563   0.515 -0.2307  0.0202 -0.5087
  832SOL    HW1 2495   1.730   2.597   0.421  2.5820 -2.3352  0.3277
  832SOL    HW2 2496   1.819   2.497   0.521 -0.6692  0.5689  1.1770
  833SOL     OW 2497   0.372   1.168   2.244  0.1075 -0.0001 -0.5216
  833SOL    HW1 2498   0.362   1.249   2.310  0.5744  2.6178  1.0229
  833SOL    HW2 2499   0.324   1.085   2.278  2.8775  0.5350  1.6625
  834SOL     OW 2500   2.304   0.581   0.486  0.2874  0.5702 -0.3401
  834SOL    HW1 2501   2.236   0.570   0.561 -0.9207  0.8067  0.0288
  834SOL    HW2 2502   2.317   0.490   0.439  0.7657 -0.7044 -2.8870
  835SOL     OW 2503   2.208   0.644   2.066  0.5798 -0.0293 -0.2418
  835SOL    HW1 2504   2.139   0.680   1.999  1.4178  2.6617 -0.2654
  835SOL    HW2 2505   2.176   0.664   2.163  0.8108  1.8642  2.3258
  836SOL     OW 2506   0.779   1.989   0.758  0.2231  0.6815  0.5237
  836SOL    HW1 2507   0.688   2.006   0.723  1.7999 -0.1117  2.9063
  836SOL    HW2 2508   0.811   2.060   0.819 -0.5496 -1.1857 -2.3318
  837SOL     OW 2509   2.221   1.283   1.801 -1.0129 -0.7100 -0.4689
  837SOL    HW1 2510   2.238   1.278   1.703 -0.7525 -0.5407  2.5879
  837SOL    HW2 2511   2.227   1.380   1.835 -0.1904 -2.5144  1.6333
  838SOL     OW 2512   0.056   1.027   2.329  0.6541  0.3444  0.0037
  838SOL    HW1 2513   0.070   0.921   2.329 -1.1337 -2.3470  0.9864
  838SOL    HW2 2514   3.087   1.057   2.365  0.8120 -3.1428  2.5446
  839SOL     OW 2515   3.036   0.142   3.099  0.0440  0.2759  0.2736
  839SOL    HW1 2516   3.059   0.044   0.011  0.0271 -2.5283  1.5187
  839SOL    HW2 2517   2.944   0.172   0.013 -0.9028 -0.2499 -0.5582
  840SOL     OW 2518   2.974   1.254   2.747  0.0314  0.1473 -0.5406
  840SOL    HW1 2519   3.010   1.174   2.795  0.2169 -1.0432 -1.2247
  840SOL    HW2 2520   2.880   1.274   2.776  1.2386  1.2177  0.1067
  841SOL     OW 2521   0.431   2.117   2.617 -0.3547 -0.5316  1.0549
  841SOL    HW1 2522   0.396   2.148   2.708 -0.5141 -0.2526 -0.1300
  841SOL    HW2 2523   0.529   2.148   2.601  1.7353  3.1154  0.4905
  842SOL     OW 2524   0.576   2.984   1.012 -0.0017  0.7914 -0.4123
  842SOL    HW1 2525   0.620   3.032   1.091  2.5739  0.2226 -1.6037
  842SOL    HW2 2526   0.535   3.052   0.945 -4.1525  1.8374 -1.0128
  843SOL     OW 2527   3.055   1.319   1.904  0.2933 -0.0838  0.2949
  843SOL    HW1 2528   3.087   1.409   1.868 -1.4509 -0.6218 -1.2701
  843SOL    HW2 2529   3.099   1.302   1.996 -3.2864 -1.6489 -1.0495
  844SOL     OW 2530   1.826   2.199   2.490 -0.7733 -0.0182  0.4327
  844SOL    HW1 2531   1.871   2.237   2.405 -1.4471 -0.3279 -2.0896
  844SOL    HW2 2532   1.850   2.099   2.502 -1.9016 -0.3743  0.6645
  845SOL     OW 2533   1.627   3.041   2.537  0.3892 -0.0695  0.2979
  845SOL    HW1 2534   1.523   3.048   2.527 -2.3212  0.8405 -2.9768
  845SOL    HW2 2535   1.653   3.081   2.626  0.8800 -0.1956  0.9293
  846SOL     OW 2536   2.420   1.682   0.149  0.4069 -0.4107 -0.3874
  846SOL    HW1 2537   2.357   1.638   0.088  1.2665  2.7722 -0.1608
  846SOL    HW2 2538   2.510   1.689   0.107 -2.8745 -0.8994  0.4433
  847SOL     OW 2539   2.362   0.031   2.808  0.3210  0.1412 -0.1263
  847SOL    HW1 2540   2.326   3.051   2.807  1.5075 -1.9473 -0.9485
  847SOL    HW2 2541   2.325   0.087   2.883 -0.7958 -0.4070  1.2814
  848SOL     OW 2542   1.972   0.549   0.259 -0.2172 -0.2662 -0.0253
  848SOL    HW1 2543   1.941   0.615   0.328 -0.6691 -0.9687 -1.2047
  848SOL    HW2 2544   2.069   0.557   0.220 -2.4316 -0.6918  0.8549
  849SOL     OW 2545   1.256   3.021   2.963 -0.0120  0.2299 -0.2799
  849SOL    HW1 2546   1.334   2.976   3.006 -2.3021 -0.9519  0.2747
  849SOL    HW2 2547   1.160   2.990   2.985 -1.1988  2.3642  0.0394
  850SOL     OW 2548   0.087   0.472   0.294  0.2784 -0.2186  0.2023
  850SOL    HW1 2549   0.099   0.374   0.298  1.2854 -0.8852  0.9488
  850SOL    HW2 2550   3.110   0.502   0.261 -0.9721  3.8327 -0.3760
  851SOL     OW 2551   0.326   1.125   1.393  0.2097 -0.2330 -0.1872
  851SOL    HW1 2552   0.403   1.141   1.326 -1.3832 -1.3812 -1.2456
  851SOL    HW2 2553   0.323   1.200   1.460 -1.5412 -1.0090 -1.7298
  852SOL     OW 2554   1.235   0.858   2.307 -0.0863  0.1777 -0.5223
  852SOL    HW1 2555   1.278   0.814   2.226 -0.6383 -0.7335 -1.0687
  852SOL    HW2 2556   1.207   0.786   2.375  0.2641  0.7933  4.7526
  853SOL     OW 2557   2.187   1.333   2.843  0.2003 -0.0404  0.3537
  853SOL    HW1 2558   2.252   1.289   2.902 -1.4350  1.0446  1.4311
  853SOL    HW2 2559   2.100   1.339   2.897  0.0385 -2.5123 -0.6790
  854SOL     OW 2560   1.242   1.343   1.650 -0.0582 -0.5957  0.2215
  854SOL    HW1 2561   1.341   1.323   1.620  1.9559 -0.8934  0.9968
  854SOL    HW2 2562   1.224   1.445   1.657 -4.4678  1.1202 -0.0237
  855SOL     OW 2563   0.231   2.067   1.836 -0.1662  0.1464 -0.5860
  855SOL    HW1 2564   0.206   2.057   1.737  0.3441  1.4282 -2.1215
  855SOL    HW2 2565   0.210   1.984   1.890  1.5124  1.7899  1.8446
  856SOL     OW 2566   1.152   1.255   2.502 -0.1456 -0.3593 -0.3133
  856SOL    HW1 2567   1.234   1.200   2.473 -1.2827  1.9177 -0.8399
  856SOL    HW2 2568   1.131   1.335   2.441 -3.2400  2.2103  1.3010
  857SOL     OW 2569   1.041   0.988   2.696 -0.2985 -1.1251 -0.1712
  857SOL    HW1 2570   1.084   1.051   2.627  2.0935 -0.0310 -2.2956
  857SOL    HW2 2571   1.002   0.907   2.642 -1.2282  1.8087  0.5258
  858SOL     OW 2572   0.311   0.201   1.968 -0.4750  0.1220  0.1887
  858SOL    HW1 2573   0.340   0.147   1.886 -2.4540 -0.0737  0.5573
  858SOL    HW2 2574   0.226   0.157   2.010 -1.1688 -2.0864 -0.8812
  859SOL     OW 2575   2.367   0.365   0.926 -0.5486 -0.4807  0.1614
  859SOL    HW1 2576   2.397   0.459   0.901  1.9579 -0.8508  0.3288
  859SOL    HW2 2577   2.385   0.348   1.025  0.5961  0.3227  0.8990
  860SOL     OW 2578   0.901   0.817   1.647  0.0690 -0.4034 -0.0552
  860SOL    HW1 2579   0.837   0.736   1.636  0.5224 -1.9306 -0.2481
  860SOL    HW2 2580   0.948   0.846   1.556  1.1462  3.4037  1.7127
  861SOL     OW 2581   1.598   1.017   1.275  0.0598 -0.0720  0.2305
  861SOL    HW1 2582   1.649   0.959   1.212  0.8773  0.3005 -0.2778
  861SOL    HW2 2583   1.655   1.095   1.310  2.8450  0.5708  2.7143
  862SOL     OW 2584   0.739   2.906   2.248 -0.3629 -0.9118 -0.5301
  862SOL    HW1 2585   0.754   2.908   2.352  1.0421  2.0472  2.1819
  862SOL    HW2 2586   0.656   2.965   2.223  0.1317  4.7398  2.5917
  863SOL     OW 2587   2.862   0.148   1.239  0.1439  0.5096  0.1177
  863SOL    HW1 2588   2.815   0.220   1.296 -1.5093  0.1000  0.3592
  863SOL    HW2 2589   2.963   0.141   1.266 -0.0694 -2.7308 -5.3842
  864SOL     OW 2590   2.940   2.856   2.693 -0.0221  0.3341 -0.3467
  864SOL    HW1 2591   2.947   2.955   2.722  2.6591 -0.6084  1.2088
  864SOL    HW2 2592   2.901   2.848   2.598 -1.6692  0.4228 -0.0737
  865SOL     OW 2593   1.430   1.337   2.291  0.0960 -0.0647 -0.4329
  865SOL    HW1 2594   1.421   1.260   2.357 -0.3197 -0.6444 -2.2263
  865SOL    HW2 2595   1.339   1.382   2.279  1.2404 -0.3146 -1.6162
  866SOL     OW 2596   2.375   2.779   0.982 -0.0227 -0.1386  0.3032
  866SOL    HW1 2597   2.454   2.755   1.037 -0.5450  0.6506 -2.2276
  866SOL    HW2 2598   2.399   2.769   0.881  0.8176 -0.1680 -2.3754
  867SOL     OW 2599   2.615   2.671   1.115  0.3943 -0.1033  0.4524
  867SOL    HW1 2600   2.583   2.695   1.209 -0.1113 -1.5539 -0.2194
  867SOL    HW2 2601   2.670   2.580   1.119  1.5479 -2.3920 -0.1450
  868SOL     OW 2602   3.006   1.425   1.470 -0.5228 -1.1536 -0.8275
  868SOL    HW1 2603   3.005   1.414   1.568  0.0366  1.0536  0.9579
  868SOL    HW2 2604   2.999   1.336   1.418  2.0576 -1.1076 -1.3914
  869SOL     OW 2605   2.201   1.546   2.130 -0.2648  0.3322 -0.4010
  869SOL    HW1 2606   2.184   1.610   2.207  0.5130  1.0877 -0.7595
  869SOL    HW2 2607   2.148   1.457   2.145 -0.9681  0.2691  1.2796
  870SOL     OW 2608   1.470   1.212   0.922 -0.1386  0.3050 -0.6390
  870SOL    HW1 2609   1.500   1.124   0.880 -1.8557 -0.6899  0.1001
  870SOL    HW2 2610   1.433   1.265   0.847  0.2707 -1.3095  2.3126
  871SOL     OW 2611   2.214   1.563   1.850 -0.3681  0.0171 -0.5356
  871SOL    HW1 2612   2.158   1.641   1.814  1.0521 -0.2935  0.3714
  871SOL    HW2 2613   2.222   1.569   1.955  2.0968  0.8666  3.3962
  872SOL     OW 2614   1.573   1.544   2.413  0.0900 -0.1660 -0.0884
  872SOL    HW1 2615   1.589   1.482   2.494 -2.9557  0.8659  3.3845
  872SOL    HW2 2616   1.552   1.484   2.330 -2.4792  1.5277 -2.1978
  873SOL     OW 2617   1.423   1.565   1.437  0.1318  0.0672  0.5896
  873SOL    HW1 2618   1.401   1.512   1.353  1.7588 -1.3572  0.4908
  873SOL    HW2 2619   1.502   1.627   1.426  1.3383 -0.4884  0.3713
  874SOL     OW 2620   1.606   1.334   1.118  0.0165  0.2756 -0.4592
  874SOL    HW1 2621   1.543   1.418   1.119  0.9842  1.1876  0.1362
  874SOL    HW2 2622   1.568   1.278   1.038 -1.6085 -1.7555 -0.8953
  875SOL     OW 2623   2.628   0.491   2.478  0.1982 -0.2184 -0.8240
  875SOL    HW1 2624   2.543   0.517   2.425 -4.6069  0.1237 -0.1688
  875SOL    HW2 2625   2.640   0.391   2.481  1.7313  1.1847 -2.8678
  876SOL     OW 2626   1.083   1.029   0.584  0.8501 -0.2186  0.0821
  876SOL    HW1 2627   1.033   0.979   0.514  0.8841  0.6620 -2.7536
  876SOL    HW2 2628   1.031   1.108   0.619 -0.3670 -2.1599 -0.7528
  877SOL     OW 2629   2.100   3.070   0.802  0.3405  0.1767 -0.1627
  877SOL    HW1 2630   2.114   3.006   0.729 -0.0086  2.2546  0.7975
  877SOL    HW2 2631   2.006   3.056   0.840 -0.3781 -0.1270  1.0878
  878SOL     OW 2632   2.833   1.896   0.382 -0.1579  0.0745  0.3083
  878SOL    HW1 2633   2.876   1.848   0.461  1.4784  1.1666  1.3368
  878SOL    HW2 2634   2.745   1.856   0.352  1.6142 -0.6624  1.0877
  879SOL     OW 2635   2.803   2.128   1.852 -0.1590  0.0314 -0.1910
  879SOL    HW1 2636   2.725   2.066   1.876 -0.0549 -1.7546  0.5458
  879SOL    HW2 2637   2.886   2.106   1.916  1.3574  0.8887  1.2459
  880SOL     OW 2638   0.297   1.665   0.790 -0.3166  0.0469  0.9792
  880SOL    HW1 2639   0.364   1.701   0.721  1.9371 -1.4909 -2.3829
  880SOL    HW2 2640   0.285   1.729   0.868  0.6950  0.0557  0.9150
  881SOL     OW 2641   1.428   0.418   2.608 -0.0583 -0.0761  0.4140
  881SOL    HW1 2642   1.335   0.434   2.640  1.4773 -2.2256  2.0531
  881SOL    HW2 2643   1.444   0.314   2.612  1.5973 -0.5990 -1.0743
  882SOL     OW 2644   2.623   0.857   0.442 -0.2083 -0.6421 -0.2705
  882SOL    HW1 2645   2.538   0.875   0.391  1.8950 -0.6398 -1.6791
  882SOL    HW2 2646   2.613   0.774   0.507  0.5006  0.2607  0.4317
  883SOL     OW 2647   1.659   0.698   2.528  0.2485 -0.0645 -0.2256
  883SOL    HW1 2648   1.565   0.681   2.494 -1.0386  0.2405 -0.9298
  883SOL    HW2 2649   1.680   0.801   2.526  0.2918 -1.1924  1.9232
  884SOL     OW 2650   0.049   0.023   1.755  0.2976 -0.3164 -0.0371
  884SOL    HW1 2651   3.115   3.100   1.680  1.5438  2.3219  1.0505
  884SOL    HW2 2652   0.145   3.110   1.748  0.7702  1.2892  0.7658
  885SOL     OW 2653   1.878   0.872   2.288  0.7291 -0.4482  0.3394
  885SOL    HW1 2654   1.847   0.879   2.191 -1.8584  1.2382 -0.2144
  885SOL    HW2 2655   1.890   0.775   2.311 -1.0782  0.2321  1.4837
  886SOL     OW 2656   1.716   0.374   2.932 -0.2933 -0.4415  0.3933
  886SOL    HW1 2657   1.741   0.411   2.842  0.4449 -1.5157 -0.7031
  886SOL    HW2 2658   1.785   0.400   3.001  1.4187  0.0129  0.1417
  887SOL     OW 2659   1.324   0.164   1.710  0.1335 -0.2326  0.0570
  887SOL    HW1 2660   1.302   0.207   1.619 -0.2706  1.2856 -0.6654
  887SOL    HW2 2661   1.317   0.065   1.706 -2.7642  2.9996  0.6344
  888SOL     OW 2662   2.315   0.670   1.618 -0.0786  0.5461 -0.1920
  888SOL    HW1 2663   2.328   0.714   1.715  1.4411 -1.1569  6.2995
  888SOL    HW2 2664   2.341   0.736   1.548 -1.6096  0.4640 -0.4903
  889SOL     OW 2665   1.570   3.076   0.808 -0.0526  0.0158 -0.0034
  889SOL    HW1 2666   1.562   3.053   0.706 -1.5925  2.6749 -2.5124
  889SOL    HW2 2667   1.611   0.050   0.828 -0.0197  2.7047  0.5851
  890SOL     OW 2668   1.060   2.684   0.966 -0.1321  0.2830  0.1968
  890SOL    HW1 2669   1.128   2.609   0.972  0.0807 -3.9555 -2.0357
  890SOL    HW2 2670   1.094   2.768   1.012 -0.3563  0.1344 -1.1582
  891SOL     OW 2671   0.123   1.268   0.164 -0.1281 -0.2129 -0.5092
  891SOL    HW1 2672   0.144   1.223   0.069 -0.8575 -1.3633 -0.2709
  891SOL    HW2 2673   0.124   1.369   0.154  1.3337  2.5123  1.0036
  892SOL     OW 2674   2.268   1.448   2.475  0.3010 -0.1729 -0.5218
  892SOL    HW1 2675   2.212   1.505   2.409 -0.9828  0.3173  0.5689
  892SOL    HW2 2676   2.338   1.509   2.516 -1.4313 -2.0088 -1.1635
  893SOL     OW 2677   2.292   2.571   1.175 -0.5847 -0.0674  0.2227
  893SOL    HW1 2678   2.217   2.617   1.223  1.9074 -0.9269 -1.9291
  893SOL    HW2 2679   2.328   2.628   1.095  1.0593  2.3981  1.6152
  894SOL     OW 2680   0.348   0.594   0.876  0.2930 -0.3957 -0.0254
  894SOL    HW1 2681   0.440   0.588   0.921  1.6148  2.1072 -0.6774
  894SOL    HW2 2682   0.356   0.593   0.773 -1.8483  1.5818 -0.7827
  895SOL     OW 2683   2.833   2.031   2.254 -0.0546  0.4120  0.2242
  895SOL    HW1 2684   2.935   2.039   2.235 -0.1020  0.4205 -2.0831
  895SOL    HW2 2685   2.796   1.971   2.179  0.3906 -3.0115 -1.8336
  896SOL     OW 2686   1.343   3.067   2.480  0.5255  0.0071  0.3781
  896SOL    HW1 2687   1.326   2.984   2.536 -1.5093  2.0085  0.2279
  896SOL    HW2 2688   1.256   3.092   2.430 -2.2798 -0.7124  0.8574
  897SOL     OW 2689   0.421   1.772   1.597  0.1183  0.2464 -0.4809
  897SOL    HW1 2690   0.337   1.751   1.650  0.0122  0.4725  0.0097
  897SOL    HW2 2691   0.414   1.715   1.514 -2.3330  1.1739  1.9056
  898SOL     OW 2692   0.829   2.204   1.863 -0.1419  0.1103 -0.1864
  898SOL    HW1 2693   0.864   2.230   1.774  0.1629  0.2423  2.7830
  898SOL    HW2 2694   0.828   2.277   1.930 -1.3445  0.8906 -1.8490
  899SOL     OW 2695   1.797   0.001   1.893 -0.2254  0.1635  0.3228
  899SOL    HW1 2696   1.887   0.022   1.856 -3.7596  3.0221  2.1228
  899SOL    HW2 2697   1.726   0.068   1.865  1.7656 -0.5275  0.5605
  900SOL     OW 2698   1.460   1.327   0.442 -0.5047  0.4918  0.4722
  900SOL    HW1 2699   1.413   1.400   0.382  0.3275  0.2886 -0.0390
  900SOL    HW2 2700   1.386   1.257   0.452 -1.9981 -1.3092 -0.5774
  901SOL     OW 2701   1.343   1.071   2.431 -0.8711  0.6135 -0.3874
  901SOL    HW1 2702   1.388   1.049   2.523 -0.6350 -0.5930  2.8674
  901SOL    HW2 2703   1.307   0.985   2.389  0.8592 -0.6692  0.4970
  902SOL     OW 2704   3.092   2.132   0.966  0.3117  0.2924 -0.2434
  902SOL    HW1 2705   2.991   2.148   0.964  1.7148  0.0569  1.0561
  902SOL    HW2 2706   0.021   2.175   1.044  0.3345 -0.6290  1.7109
  903SOL     OW 2707   2.522   1.151   2.206 -0.2239  0.1668 -0.3407
  903SOL    HW1 2708   2.619   1.118   2.197 -0.9352  3.5390 -1.4174
  903SOL    HW2 2709   2.506   1.183   2.304 -0.3005 -0.2282  0.8816
  904SOL     OW 2710   1.421   2.102   0.028  0.6697  0.4544  0.7417
  904SOL    HW1 2711   1.328   2.079   3.109 -1.7204  0.0294  1.6009
  904SOL    HW2 2712   1.415   2.103   0.130 -1.1997 -2.5342 -1.9456
  905SOL     OW 2713   2.247   3.059   1.928 -0.4155 -0.4834 -0.3608
  905SOL    HW1 2714   2.221   2.959   1.948 -2.3284 -2.7757  2.4346
  905SOL    HW2 2715   2.294   3.103   2.010  0.9290 -1.4592 -1.3035
  906SOL     OW 2716   1.387   2.871   0.201  0.3246  0.4327  0.3970
  906SOL    HW1 2717   1.427   2.959   0.160  1.3320  0.5965 -1.8262
  906SOL    HW2 2718   1.445   2.791   0.173 -3.1444 -0.7975  0.9105
  907SOL     OW 2719   0.051   2.816   0.910 -0.0530  0.1632 -0.1938
  907SOL    HW1 2720   0.147   2.846   0.929  1.5706  2.2686 -1.5729
  907SOL    HW2 2721   0.037   2.734   0.853  0.2014  0.7416 -0.6540
  908SOL     OW 2722   0.822   2.568   1.562 -0.3427  0.0771  0.0706
  908SOL    HW1 2723   0.798   2.662   1.538 -0.1795 -0.4095  1.8019
  908SOL    HW2 2724   0.778   2.544   1.651  1.8645 -2.7704  0.9192
  909SOL     OW 2725   1.635   0.763   1.374 -0.1779 -0.1331  0.5583
  909SOL    HW1 2726   1.628   0.861   1.348  2.8472  1.2995  0.1480
  909SOL    HW2 2727   1.714   0.741   1.429 -2.7185  0.8321 -1.0859
  910SOL     OW 2728   0.782   0.570   0.320 -0.3192 -0.0162  0.3809
  910SOL    HW1 2729   0.878   0.531   0.318  2.4317 -1.2729  0.9378
  910SOL    HW2 2730   0.764   0.621   0.403 -2.5419 -1.9239 -2.2149
  911SOL     OW 2731   0.298   0.231   0.039 -0.1309  0.2226 -0.2555
  911SOL    HW1 2732   0.248   0.145   0.016 -4.5385  0.6120 -3.1437
  911SOL    HW2 2733   0.304   0.277   3.067 -0.2333 -0.1583 -1.3668
  912SOL     OW 2734   0.050   1.893   2.800  0.0850  0.0984  0.0856
  912SOL    HW1 2735   3.095   1.875   2.732  0.8038 -1.0036  0.2414
  912SOL    HW2 2736   0.058   1.821   2.869 -1.7080  1.4812 -0.5096
  913SOL     OW 2737   2.514   0.055   0.130 -0.0527  0.1722  0.9139
  913SOL    HW1 2738   2.525   0.019   0.223 -0.8216  0.6715 -1.9848
  913SOL    HW2 2739   2.448   0.128   0.132  1.4854 -3.0095  1.3902
  914SOL     OW 2740   1.478   1.734   2.049  0.2989 -0.7656 -0.2761
  914SOL    HW1 2741   1.548   1.667   2.057 -1.4689  1.8683 -0.6771
  914SOL    HW2 2742   1.515   1.817   2.003  0.2018 -1.5098  2.4445
  915SOL     OW 2743   2.967   2.409   2.371  0.1534 -0.5930  0.1911
  915SOL    HW1 2744   3.026   2.400   2.288 -0.3532  1.0255  2.0765
  915SOL    HW2 2745   3.021   2.403   2.458  1.3003  0.7754 -1.9534
  916SOL     OW 2746   3.069   0.784   2.376 -0.0662  0.3848 -0.3991
  916SOL    HW1 2747   3.050   0.742   2.283  1.7325  2.3445 -3.2531
  916SOL    HW2 2748   2.987   0.835   2.405  3.4222 -1.6925 -0.1397
  917SOL     OW 2749   1.456   0.124   0.319 -0.1940 -0.5688 -0.0612
  917SOL    HW1 2750   1.550   0.164   0.308  1.5141 -1.8600  2.3394
  917SOL    HW2 2751   1.448   0.056   0.243 -2.3322  0.0860  3.3789
  918SOL     OW 2752   1.809   3.027   2.360 -0.2469  0.1481  0.3766
  918SOL    HW1 2753   1.748   3.057   2.437  1.0104 -2.4349 -0.6964
  918SOL    HW2 2754   1.801   3.097   2.288 -0.2173 -2.8295  1.8819
  919SOL     OW 2755   1.720   2.217   1.694  0.0760 -0.3869  0.7124
  919SOL    HW1 2756   1.730   2.318   1.693 -0.4225 -0.1586  0.1409
  919SOL    HW2 2757   1.621   2.187   1.694 -0.3658  0.6944  0.2090
  920SOL     OW 2758   0.269   0.875   3.058 -0.1411 -0.1316 -0.0054
  920SOL    HW1 2759   0.371   0.882   3.075 -1.2545 -1.1278  0.3575
  920SOL    HW2 2760   0.245   0.795   2.999  1.2667 -0.1550  1.8062
  921SOL     OW 2761   2.438   0.798   2.430 -0.7464  0.3741  0.3923
  921SOL    HW1 2762   2.358   0.788   2.490 -0.0762  2.2833  2.6171
  921SOL    HW2 2763   2.412   0.825   2.335  0.5360 -0.9100  1.9325
  922SOL     OW 2764   1.125   1.699   2.515 -0.1632  0.7282 -0.1225
  922SOL    HW1 2765   1.106   1.793   2.546  3.1089  2.7386 -0.9032
  922SOL    HW2 2766   1.198   1.701   2.443 -0.3566  3.2070 -0.6250
  923SOL     OW 2767   0.734   1.215   2.455  0.0346 -0.4329 -0.5666
  923SOL    HW1 2768   0.643   1.182   2.489 -0.7204  1.4066  0.6657
  923SOL    HW2 2769   0.757   1.295   2.516  0.2483 -1.6556 -1.5348
  924SOL     OW 2770   0.351   2.256   2.846  0.4222 -0.6809  0.0413
  924SOL    HW1 2771   0.357   2.298   2.942  0.8196 -2.6354  0.0473
  924SOL    HW2 2772   0.318   2.327   2.782 -0.8776  0.7249 -0.3551
  925SOL     OW 2773   1.680   1.634   0.936  0.0658 -0.2283 -0.2346
  925SOL    HW1 2774   1.769   1.597   0.974  3.0276 -1.3362  1.5311
  925SOL    HW2 2775   1.689   1.665   0.841  0.7475  0.8172  0.7032
  926SOL     OW 2776   1.774   0.496   2.653 -0.0056 -0.2337  0.1397
  926SOL    HW1 2777   1.737   0.417   2.603 -0.7078 -1.5134  0.1078
  926SOL    HW2 2778   1.741   0.586   2.618  2.4961  0.5532  1.1788
  927SOL     OW 2779   2.683   2.612   1.782  0.6318  0.4095  0.3420
  927SOL    HW1 2780   2.730   2.544   1.839  2.0997 -0.2119 -2.6719
  927SOL    HW2 2781   2.613   2.670   1.831  0.4477 -0.7481 -0.0123
  928SOL     OW 2782   0.734   0.987   2.793  0.4888  0.4535 -0.2741
  928SOL    HW1 2783   0.678   0.941   2.723  2.1640  0.1729  1.7956
  928SOL    HW2 2784   0.832   0.974   2.777 -2.7833 -0.0683  0.6704
  929SOL     OW 2785   0.099   0.105   0.955  0.1696  0.0412 -0.3854
  929SOL    HW1 2786   0.121   0.056   0.866  1.2915 -0.0141 -1.8424
  929SOL    HW2 2787   0.016   0.165   0.934 -2.8145 -0.9179 -3.6787
  930SOL     OW 2788   2.791   0.278   1.989 -0.2964  0.3129  0.2152
  930SOL    HW1 2789   2.761   0.257   1.894  1.3288 -0.8551  1.7855
  930SOL    HW2 2790   2.894   0.271   2.000  1.3341  4.0038  1.3445
  931SOL     OW 2791   2.341   1.222   3.037  0.1433 -0.0710  0.0494
  931SOL    HW1 2792   2.284   1.203   0.002 -2.6874 -1.4118  1.1909
  931SOL    HW2 2793   2.424   1.167   3.039 -0.8572  0.2109  0.3309
  932SOL     OW 2794   2.782   1.168   0.744 -0.1626 -0.1885  0.3552
  932SOL    HW1 2795   2.770   1.220   0.829  0.1235 -0.7976 -2.1254
  932SOL    HW2 2796   2.711   1.179   0.672 -0.6081  1.2581 -1.9865
  933SOL     OW 2797   2.936   2.408   1.626 -0.0314 -0.2933 -0.0838
  933SOL    HW1 2798   2.900   2.308   1.618 -1.1854 -1.6990 -1.9870
  933SOL    HW2 2799   2.895   2.476   1.564  1.6654 -0.3332  0.5777
  934SOL     OW 2800   0.447   2.852   1.223  0.0114 -0.4511  0.4950
  934SOL    HW1 2801   0.440   2.750   1.240 -0.2659  0.0350  0.2859
  934SOL    HW2 2802   0.530   2.868   1.165 -1.1170  2.4402  0.4044
  935SOL     OW 2803   2.576   0.292   2.149  0.2878 -0.4405  1.0308
  935SOL    HW1 2804   2.491   0.335   2.114  1.2272  0.4389  0.6388
  935SOL    HW2 2805   2.644   0.301   2.070  0.0233  0.5116  0.3441
  936SOL     OW 2806   2.695   0.794   1.751  0.1630 -0.2451 -0.2011
  936SOL    HW1 2807   2.775   0.747   1.796  0.4383 -0.3151 -0.6406
  936SOL    HW2 2808   2.613   0.734   1.768  0.6093 -2.0048  0.9732
  937SOL     OW 2809   1.727   1.473   1.724 -0.2416  0.1786 -0.0331
  937SOL    HW1 2810   1.761   1.552   1.673 -1.3572  2.7285 -1.6383
  937SOL    HW2 2811   1.805   1.423   1.769 -2.4714  2.8755 -0.5638
  938SOL     OW 2812   0.668   2.223   0.046  0.5654 -0.5065 -0.3156
  938SOL    HW1 2813   0.615   2.312   0.043 -0.9640 -0.3226 -2.5899
  938SOL    HW2 2814   0.633   2.149   3.101 -0.2004 -0.5748 -1.0561
  939SOL     OW 2815   2.094   0.493   3.020 -0.3661  0.7267 -0.5425
  939SOL    HW1 2816   2.145   0.521   3.100  0.9847  2.5674 -2.8388
  939SOL    HW2 2817   2.064   0.396   3.039  0.3825  0.1967 -0.8606
  940SOL     OW 2818   1.257   2.502   0.924 -0.0074  0.2134  0.1367
  940SOL    HW1 2819   1.279   2.402   0.927 -2.5683 -1.2593 -4.9918
  940SOL    HW2 2820   1.325   2.549   0.865  2.9634 -2.1484  0.6815
  941SOL     OW 2821   1.209   2.186   1.822  0.5015  0.1717 -0.6923
  941SOL    HW1 2822   1.214   2.231   1.914  3.6215  0.0075  2.4550
  941SOL    HW2 2823   1.167   2.093   1.839  0.1476 -2.6472  0.0131
  942SOL     OW 2824   2.823   1.921   2.937 -0.1877  0.1170 -0.2504
  942SOL    HW1 2825   2.843   1.865   2.851  1.3064  0.3481  1.3978
  942SOL    HW2 2826   2.736   1.969   2.933  2.6965 -2.1235 -2.9718
  943SOL     OW 2827   2.421   2.970   1.720 -0.9529 -0.6053  0.5209
  943SOL    HW1 2828   2.337   3.014   1.756 -1.2990 -3.6286  0.3483
  943SOL    HW2 2829   2.503   2.983   1.780  0.6815  0.2509  0.6815
  944SOL     OW 2830   1.928   2.179   2.782  0.1356  0.4500 -0.1172
  944SOL    HW1 2831   1.841   2.117   2.790 -0.8445 -1.5782  2.8520
  944SOL    HW2 2832   1.923   2.256   2.719  0.1468  1.2573  0.6687
  945SOL     OW 2833   2.821   1.901   1.115 -0.3928  0.5185  0.1033
  945SOL    HW1 2834   2.915   1.907   1.151 -0.0939  0.9095 -0.7940
  945SOL    HW2 2835   2.815   1.825   1.043 -1.5227 -0.7146  0.4167
  946SOL     OW 2836   1.294   1.240   2.983 -0.4863  0.5267 -0.0520
  946SOL    HW1 2837   1.225   1.196   2.922 -0.2838  1.4144 -1.3224
  946SOL    HW2 2838   1.253   1.301   3.051  1.2599  0.1142  3.1525
  947SOL     OW 2839   0.209   0.826   2.121 -0.5981  0.3860 -0.2916
  947SOL    HW1 2840   0.190   0.892   2.048  1.2165 -0.2965  1.8637
  947SOL    HW2 2841   0.311   0.813   2.130  1.3171 -0.3414 -0.7943
  948SOL     OW 2842   0.317   1.259   0.372  0.4121 -0.4152  0.4327
  948SOL    HW1 2843   0.262   1.275   0.459  0.8385  2.8867 -0.6138
  948SOL    HW2 2844   0.261   1.247   0.290  3.0962 -2.6319  0.8812
  949SOL     OW 2845   0.767   0.298   2.631  0.1401  0.5551 -0.0544
  949SOL    HW1 2846   0.831   0.369   2.661  0.2767 -1.9474  0.7050
  949SOL    HW2 2847   0.799   0.236   2.559 -1.8933 -0.2997 -1.4967
  950SOL     OW 2848   0.012   0.535   1.285  0.4238 -0.1225  0.3878
  950SOL    HW1 2849   3.118   0.607   1.354  0.0828  0.8648  2.1946
  950SOL    HW2 2850   0.101   0.538   1.239  2.8773 -0.4351 -0.9440
  951SOL     OW 2851   0.233   1.087   2.552 -0.3202 -0.3843  0.1156
  951SOL    HW1 2852   0.170   1.108   2.475  0.1638  1.4019  1.2771
  951SOL    HW2 2853   0.198   1.003   2.600 -0.6410 -1.8611  1.3566
  952SOL     OW 2854   1.962   2.346   1.528 -0.1850 -0.1158  0.1318
  952SOL    HW1 2855   2.032   2.371   1.591 -2.9961  1.2931 -0.1671
  952SOL    HW2 2856   1.900   2.428   1.524  1.1156  1.1777  0.6551
  953SOL     OW 2857   0.327   2.375   3.111  0.4377  0.3361  0.5191
  953SOL    HW1 2858   0.406   2.406   0.046 -1.5310 -0.9269  2.2022
  953SOL    HW2 2859   0.244   2.381   0.055  2.8454  0.9637 -0.6036
  954SOL     OW 2860   2.735   0.657   0.866  0.0273  0.2876 -0.0650
  954SOL    HW1 2861   2.651   0.651   0.915  2.7592 -1.4483 -0.6762
  954SOL    HW2 2862   2.749   0.747   0.821 -0.8615  1.1306 -2.3894
  955SOL     OW 2863   1.528   1.535   0.107 -0.2166  0.6580  0.3447
  955SOL    HW1 2864   1.539   1.438   0.074  2.0743 -0.3514 -0.2857
  955SOL    HW2 2865   1.591   1.554   0.190  1.8577  0.4843  1.3899
  956SOL     OW 2866   1.131   0.591   2.400 -0.0893  0.0883  0.5929
  956SOL    HW1 2867   1.059   0.655   2.429 -0.5775  0.5000 -0.7699
  956SOL    HW2 2868   1.118   0.493   2.420  0.4997 -1.1809 -1.6580
  957SOL     OW 2869   0.726   0.476   1.968 -1.1300  0.0175  0.4267
  957SOL    HW1 2870   0.640   0.450   2.019 -3.1247 -1.3760  0.2031
  957SOL    HW2 2871   0.792   0.522   2.032  0.1776  0.3531 -1.0665
  958SOL     OW 2872   0.350   2.047   0.749  0.2537  0.2529 -0.5888
  958SOL    HW1 2873   0.370   2.033   0.849  1.4301 -2.0093  1.1816
  958SOL    HW2 2874   0.436   2.071   0.697  0.4416  2.9864  0.0657
  959SOL     OW 2875   2.350   0.781   1.889  0.0026  0.4484 -0.1144
  959SOL    HW1 2876   2.296   0.866   1.870  1.1806  1.6797  2.7139
  959SOL    HW2 2877   2.293   0.714   1.950  0.2704 -1.8817  1.2419
  960SOL     OW 2878   0.261   1.312   2.701 -0.2258  0.4146 -0.7713
  960SOL    HW1 2879   0.265   1.228   2.647  1.2190  1.1998 -0.1970
  960SOL    HW2 2880   0.222   1.388   2.648  0.0639 -2.0363  0.9150
  961SOL     OW 2881   0.602   1.762   0.718 -0.2148  0.0208 -0.0317
  961SOL    HW1 2882   0.696   1.802   0.715 -0.8099 -3.6097 -0.9345
  961SOL    HW2 2883   0.572   1.733   0.813 -0.5605 -2.4297  0.9031
  962SOL     OW 2884   0.538   1.450   1.078  0.3029 -0.2367 -0.3520
  962SOL    HW1 2885   0.492   1.363   1.061  0.3334  0.3610  0.0920
  962SOL    HW2 2886   0.560   1.461   1.175  0.3456 -3.3204  0.0888
  963SOL     OW 2887   1.579   2.323   2.859 -0.2307  0.2600 -0.1917
  963SOL    HW1 2888   1.497   2.289   2.806 -1.6941 -0.5127  0.8601
  963SOL    HW2 2889   1.661   2.323   2.803 -1.8867  1.1074  0.2901
  964SOL     OW 2890   0.184   2.545   2.701  0.0497  0.3914 -0.1035
  964SOL    HW1 2891   0.221   2.543   2.796  2.2502 -1.6557  2.1525
  964SOL    HW2 2892   0.257   2.504   2.642 -0.6291 -1.3758 -1.8129
  965SOL     OW 2893   2.630   2.094   2.610 -0.0781 -0.1171  0.3624
  965SOL    HW1 2894   2.667   2.008   2.569 -0.4553  1.3811  2.6052
  965SOL    HW2 2895   2.693   2.172   2.588  1.4755 -1.5910  0.6426
  966SOL     OW 2896   2.662   1.432   2.589 -0.2877  0.2930  0.1495
  966SOL    HW1 2897   2.750   1.469   2.545  2.8523  1.9670 -3.3851
  966SOL    HW2 2898   2.682   1.389   2.679 -1.0551  1.8909  0.5789
  967SOL     OW 2899   2.013   0.284   0.660  0.2184 -0.1139 -0.1065
  967SOL    HW1 2900   1.953   0.262   0.739  0.9743 -0.3067  0.0073
  967SOL    HW2 2901   2.082   0.352   0.694 -2.1549 -0.2346 -1.4619
  968SOL     OW 2902   2.575   0.037   0.411 -0.1221  0.5518 -0.1110
  968SOL    HW1 2903   2.507   0.079   0.475  4.0838  0.0041 -0.4578
  968SOL    HW2 2904   2.662   0.088   0.435  1.6581  0.6320 -0.5412
  969SOL     OW 2905   0.763   0.812   2.229 -0.3997  0.2204 -0.3984
  969SOL    HW1 2906   0.812   0.734   2.190 -2.5328 -1.0862  2.4743
  969SOL    HW2 2907   0.819   0.853   2.304  1.9111  0.4134 -1.7817
  970SOL     OW 2908   1.897   1.587   2.682 -0.2340 -0.0067 -0.3455
  970SOL    HW1 2909   1.858   1.574   2.773  0.4547 -0.3435 -0.1378
  970SOL    HW2 2910   1.988   1.640   2.675 -1.5365  0.4617 -2.8531
  971SOL     OW 2911   2.677   0.204   1.768  0.7101 -0.3286  0.4631
  971SOL    HW1 2912   2.588   0.250   1.795  0.2571  0.9006  0.1131
  971SOL    HW2 2913   2.674   0.108   1.728 -1.9216  0.3552 -1.3594
  972SOL     OW 2914   0.055   0.548   0.946 -0.3254  0.2300  0.0926
  972SOL    HW1 2915   3.113   0.469   0.929 -0.9866  2.5773  1.3141
  972SOL    HW2 2916   0.139   0.549   0.885  0.8692 -1.0149  1.0788
  973SOL     OW 2917   2.959   0.245   2.328 -0.1304 -0.0612 -0.2242
  973SOL    HW1 2918   3.010   0.164   2.365 -0.8815  1.9636 -1.5467
  973SOL    HW2 2919   2.875   0.257   2.378  1.5513 -2.8399 -0.4155
  974SOL     OW 2920   2.956   0.924   1.489  0.1641  0.1510  0.0603
  974SOL    HW1 2921   3.053   0.941   1.458  1.3472  0.8213 -1.4067
  974SOL    HW2 2922   2.923   0.849   1.424  0.1134 -2.3511 -1.0053
  975SOL     OW 2923   1.459   3.029   2.177  0.3739  0.0617  0.2268
  975SOL    HW1 2924   1.544   2.977   2.149  0.7236  0.3539  0.7225
  975SOL    HW2 2925   1.403   2.972   2.234  2.3911  1.2252 -4.4159
  976SOL     OW 2926   2.046   1.497   1.450  0.3519 -0.1082  0.0953
  976SOL    HW1 2927   2.068   1.544   1.362  0.1967  2.3264 -0.9190
  976SOL    HW2 2928   2.010   1.568   1.511  1.1054 -3.6759 -1.2796
  977SOL     OW 2929   2.798   3.029   2.989 -0.3514 -0.6027 -0.0539
  977SOL    HW1 2930   2.733   3.008   2.914 -1.9627 -3.1467 -1.8274
  977SOL    HW2 2931   2.791   0.008   3.012 -1.0352  0.4508 -1.9309
  978SOL     OW 2932   2.103   1.064   2.268 -0.3991 -0.2169  0.3592
  978SOL    HW1 2933   2.195   1.031   2.247 -0.1390  0.0419  1.4541
  978SOL    HW2 2934   2.047   1.000   2.319  0.6539  1.8207 -2.2967
  979SOL     OW 2935   0.919   0.993   2.416 -0.0868  0.3634  0.1112
  979SOL    HW1 2936   0.994   1.029   2.355  1.6083 -3.8210 -1.3110
  979SOL    HW2 2937   0.859   1.069   2.445  0.8680 -0.9293 -0.2783
  980SOL     OW 2938   1.739   2.000   2.772  0.2948  0.2590 -0.1439
  980SOL    HW1 2939   1.640   1.986   2.796  1.8804  2.3231  0.0577
  980SOL    HW2 2940   1.767   1.933   2.699 -0.7205 -1.7571  2.0765
  981SOL     OW 2941   1.330   0.731   2.082  0.2192 -0.6646  0.1000
  981SOL    HW1 2942   1.229   0.737   2.076 -0.5007  0.0130 -0.9886
  981SOL    HW2 2943   1.365   0.640   2.051 -1.0817 -1.4148 -1.5572
  982SOL     OW 2944   0.823   3.105   0.132 -0.7900 -0.2751 -0.7061
  982SOL    HW1 2945   0.739   0.044   0.117 -1.1317  0.5223  1.6683
  982SOL    HW2 2946   0.799   3.008   0.103 -0.2812 -1.1875  0.3901
  983SOL     OW 2947   2.062   0.971   0.211 -0.1307  0.1925  0.1834
  983SOL    HW1 2948   2.129   1.049   0.192  0.0311  2.8272  0.1629
  983SOL    HW2 2949   2.102   0.886   0.251 -1.4325 -0.5509  0.0655
  984SOL     OW 2950   1.340   0.283   3.115 -0.0187  0.3899 -0.1789
  984SOL    HW1 2951   1.416   0.334   0.036 -2.4759  0.9475 -2.7757
  984SOL    HW2 2952   1.251   0.333   3.106  2.4056  0.6928 -1.0739
  985SOL     OW 2953   1.088   2.716   1.868 -0.5383  0.0734  0.0159
  985SOL    HW1 2954   1.105   2.818   1.869  0.2953  5.1743 -0.5040
  985SOL    HW2 2955   1.113   2.678   1.775  0.5813 -0.4514 -3.1803
  986SOL     OW 2956   2.645   2.988   1.893 -0.3102  0.1496  0.2870
  986SOL    HW1 2957   2.657   3.027   1.985 -2.2332 -3.0340  1.5171
  986SOL    HW2 2958   2.721   3.031   1.831  0.2583  0.5026 -2.3893
  987SOL     OW 2959   2.204   1.377   1.160 -0.1219 -0.0595  0.0734
  987SOL    HW1 2960   2.271   1.374   1.082  0.0225  0.3817 -0.5597
  987SOL    HW2 2961   2.200   1.283   1.200 -2.8561  0.6811 -1.5603
  988SOL     OW 2962   2.365   1.068   1.596  0.1255 -0.0705  0.2526
  988SOL    HW1 2963   2.423   1.040   1.675 -0.0001  1.5071 -1.7320
  988SOL    HW2 2964   2.341   1.170   1.594 -1.8837  4.1429  0.9970
  989SOL     OW 2965   2.110   2.180   0.125  0.6391 -0.5333  0.0798
  989SOL    HW1 2966   2.085   2.239   0.047  2.4347 -1.1836  3.4040
  989SOL    HW2 2967   2.086   2.083   0.109  1.4152  2.4680 -2.4490
  990SOL     OW 2968   1.546   0.518   2.226  0.0571  0.4157 -0.5362
  990SOL    HW1 2969   1.495   0.553   2.305  0.3865  0.5042 -2.9654
  990SOL    HW2 2970   1.595   0.430   2.253  0.0463 -1.3994  0.3764
  991SOL     OW 2971   1.272   1.161   0.394  0.1871  0.3556 -0.3049
  991SOL    HW1 2972   1.171   1.162   0.390  2.2558  3.0560  0.1286
  991SOL    HW2 2973   1.313   1.095   0.326  0.4497  0.2464 -1.1425
  992SOL     OW 2974   0.115   0.970   1.405 -0.1110 -0.7238 -0.4120
  992SOL    HW1 2975   0.200   1.028   1.411  2.6731 -0.4871  1.9756
  992SOL    HW2 2976   0.098   0.950   1.306  0.3202  0.3706 -0.4893
  993SOL     OW 2977   2.581   0.568   1.863 -0.2468  0.2659  0.2450
  993SOL    HW1 2978   2.574   0.601   1.957  1.7836  1.1531 -0.5171
  993SOL    HW2 2979   2.533   0.482   1.846  0.2474  0.0930  1.2190
  994SOL     OW 2980   1.570   1.969   1.930 -0.0287 -0.0821  0.0126
  994SOL    HW1 2981   1.570   2.042   1.996  0.8986  1.1127 -0.3163
  994SOL    HW2 2982   1.505   1.992   1.851  2.1223 -1.5457 -0.3352
  995SOL     OW 2983   2.276   1.885   3.041 -0.1631 -0.2179 -0.1320
  995SOL    HW1 2984   2.209   1.898   3.117 -0.7695  0.1264 -1.6128
  995SOL    HW2 2985   2.274   1.786   3.027 -1.0955 -0.5094  3.4567
  996SOL     OW 2986   2.231   1.617   3.082  0.1648 -0.2330 -0.6085
  996SOL    HW1 2987   2.144   1.564   3.092  2.5529  3.5763 -0.0990
  996SOL    HW2 2988   2.267   1.614   2.984  0.8700  0.0898 -1.5313
  997SOL     OW 2989   1.867   0.607   2.365  0.2934 -0.0410  0.7389
  997SOL    HW1 2990   1.846   0.509   2.344 -1.2131 -2.0886 -1.7472
  997SOL    HW2 2991   1.784   0.647   2.408  2.0953 -0.7188 -1.9662
  998SOL     OW 2992   2.535   0.651   0.610 -0.6897  0.3814 -0.6665
  998SOL    HW1 2993   2.553   0.637   0.710  1.1406  1.8252  0.3394
  998SOL    HW2 2994   2.436   0.637   0.582 -0.9354  1.0673 -1.1954
  999SOL     OW 2995   2.624   1.232   0.547  0.0829  0.8952 -0.0457
  999SOL    HW1 2996   2.646   1.331   0.571  1.1258 -1.5602 -2.1334
  999SOL    HW2 2997   2.650   1.223   0.451  1.6541  0.5180 -0.9628
 1000SOL     OW 2998   0.471   1.451   1.721 -0.0188 -0.8932 -0.1606
 1000SOL    HW1 2999   0.537   1.379   1.744  0.0656  0.1182 -0.8370
 1000SOL    HW2 3000   0.394   1.409   1.671 -0.7784 -1.9321  0.5825
   3.11863   3.11863   3.11863
