1000 SPC/Fw water molecules t= 264.00000 step= 264000
 3000
    1SOL     OW    1   2.943   2.428   1.046  0.2751  0.0054 -0.4663
    1SOL    HW1    2   3.039   2.458   1.041 -0.8784  0.3256 -1.4205
    1SOL    HW2    3   2.881   2.499   1.004  0.7255 -1.5451 -2.2447
    2SOL     OW    4   2.011   2.103   1.263  0.2045 -0.0022  0.2808
    2SOL    HW1    5   1.928   2.045   1.270  1.4718 -0.8976 -0.5461
    2SOL    HW2    6   2.092   2.041   1.281  1.1033  0.4612 -1.3926
    3SOL     OW    7   1.086   2.668   3.059  0.6555 -0.2356  0.3659
    3SOL    HW1    8   1.046   2.585   3.013 -0.6850 -0.4116  2.6161
    3SOL    HW2    9   1.143   2.720   2.997 -1.9897 -2.4300  4.0793
    4SOL     OW   10   1.931   1.925   1.637 -0.0581 -0.4223 -0.0090
    4SOL    HW1   11   1.855   1.907   1.703  0.3910  0.0135 -0.6608
    4SOL    HW2   12   1.938   2.023   1.603 -0.4241  2.2620 -1.7656
    5SOL     OW   13   1.350   0.948   1.362 -0.1041 -0.4209 -0.4275
    5SOL    HW1   14   1.304   1.005   1.286 -0.4037  1.0698  0.7801
    5SOL    HW2   15   1.450   0.967   1.361 -1.8087  1.3338  0.5654
    6SOL     OW   16   2.446   3.006   0.243  0.3978  0.2226 -0.0979
    6SOL    HW1   17   2.397   2.951   0.172  2.5024 -1.5102 -0.6560
    6SOL    HW2   18   2.538   3.041   0.207  0.9865 -1.0891 -0.4244
    7SOL     OW   19   2.928   1.142   1.112 -0.1397 -0.5344 -0.1097
    7SOL    HW1   20   2.959   1.158   1.018  0.0623 -0.6755 -2.0326
    7SOL    HW2   21   2.886   1.230   1.144  0.1510 -0.4185  0.4454
    8SOL     OW   22   1.410   3.020   0.915 -0.0173  0.1589 -0.3672
    8SOL    HW1   23   1.434   3.043   1.010 -1.6037  0.6757  1.8922
    8SOL    HW2   24   1.460   2.939   0.889  0.4174  0.9870 -1.3409
    9SOL     OW   25   1.563   3.089   2.300  0.4010  0.3417  0.4392
    9SOL    HW1   26   1.518   3.034   2.221 -0.4915 -0.7670 -2.0373
    9SOL    HW2   27   1.646   0.037   2.272 -1.3401  1.3115  1.1506
   10SOL     OW   28   0.753   2.210   0.809  0.2874  0.3292 -0.5473
   10SOL    HW1   29   0.690   2.284   0.789  1.0701 -3.3312  0.1790
   10SOL    HW2   30   0.794   2.220   0.901 -0.7070  0.2416 -2.3376
   11SOL     OW   31   1.377   1.322   0.234 -0.0693  0.0573  0.4481
   11SOL    HW1   32   1.377   1.313   0.129 -0.2765 -0.5788 -1.1059
   11SOL    HW2   33   1.323   1.406   0.265 -0.7192  0.2192  0.4765
   12SOL     OW   34   2.803   2.822   1.784  0.3416 -0.1415  0.3898
   12SOL    HW1   35   2.811   2.722   1.778  0.3163  1.2232  0.4448
   12SOL    HW2   36   2.846   2.860   1.867 -0.9857  1.9746 -1.1696
   13SOL     OW   37   1.883   0.283   0.543  0.5044 -0.1483 -0.3701
   13SOL    HW1   38   1.850   0.378   0.567 -0.4422 -2.0588  0.8739
   13SOL    HW2   39   1.977   0.263   0.578 -2.5761 -0.7395  0.7908
   14SOL     OW   40   1.478   2.519   1.164 -0.2502  0.4327  0.0751
   14SOL    HW1   41   1.416   2.516   1.084 -0.4990 -0.1986 -0.0419
   14SOL    HW2   42   1.528   2.607   1.169 -1.2350 -0.3922  0.7142
   15SOL     OW   43   2.990   1.485   1.348  0.5583 -0.2749  0.1726
   15SOL    HW1   44   3.039   1.571   1.331  2.0493  0.4395  2.3422
   15SOL    HW2   45   3.048   1.425   1.409  0.4645 -0.3412  0.5912
   16SOL     OW   46   2.241   2.283   0.280 -0.4230 -0.0981  0.4915
   16SOL    HW1   47   2.197   2.348   0.343  2.3985  3.1920 -0.5730
   16SOL    HW2   48   2.172   2.216   0.247  2.3742 -0.9228  2.0658
   17SOL     OW   49   0.845   0.032   1.503  0.1057  0.7956  0.2105
   17SOL    HW1   50   0.832   0.131   1.500  0.7982 -2.8201  1.6321
   17SOL    HW2   51   0.753   3.085   1.491 -2.3714  0.8350 -0.2239
   18SOL     OW   52   1.293   0.834   3.038 -0.3103 -0.7747  0.3170
   18SOL    HW1   53   1.323   0.896   0.020  2.2029 -1.2771 -2.0625
   18SOL    HW2   54   1.368   0.818   2.976 -2.3601  1.9332  0.7363
   19SOL     OW   55   1.883   1.899   2.806 -0.0275 -0.1504 -0.0046
   19SOL    HW1   56   1.960   1.866   2.750 -1.5330  0.2689  2.1883
   19SOL    HW2   57   1.894   1.985   2.860  0.6449  2.4781  0.1579
   20SOL     OW   58   2.201   1.723   1.970  0.2848  0.4109  0.0463
   20SOL    HW1   59   2.188   1.786   1.890  3.5278  0.8682 -1.1897
   20SOL    HW2   60   2.236   1.636   1.936  1.1706 -0.2798  0.8451
   21SOL     OW   61   0.996   1.506   0.149  0.5822 -0.3043 -0.3122
   21SOL    HW1   62   0.987   1.410   0.164 -1.3023  3.4847 -2.7085
   21SOL    HW2   63   0.916   1.561   0.189 -2.5346  0.9152 -1.8007
   22SOL     OW   64   1.919   3.093   1.475 -0.0692 -0.2383  0.5304
   22SOL    HW1   65   1.905   0.034   1.380 -1.8092 -2.2573 -3.2168
   22SOL    HW2   66   1.957   0.063   1.535 -2.3513 -1.2316 -1.3281
   23SOL     OW   67   2.823   0.766   1.897  0.0108  0.3588 -0.3687
   23SOL    HW1   68   2.816   0.854   1.853  2.1581 -2.7999  1.2219
   23SOL    HW2   69   2.767   0.770   1.981 -1.1635 -1.1315  0.2213
   24SOL     OW   70   2.202   2.567   0.294 -0.4056  0.0874 -0.0662
   24SOL    HW1   71   2.284   2.610   0.247 -0.0393 -1.0716  0.8022
   24SOL    HW2   72   2.131   2.537   0.232  1.9000  1.3378  0.5105
   25SOL     OW   73   1.563   2.950   2.527  0.0327 -0.0380  0.0469
   25SOL    HW1   74   1.557   3.017   2.446 -1.7535  2.3340 -0.5763
   25SOL    HW2   75   1.660   2.924   2.548 -0.8908 -0.3872 -3.5246
   26SOL     OW   76   1.720   2.564   0.101 -0.0815 -0.0697  0.3561
   26SOL    HW1   77   1.646   2.636   0.113 -0.4187  0.9603  3.2555
   26SOL    HW2   78   1.683   2.470   0.090  1.1403 -3.0522  0.3649
   27SOL     OW   79   2.821   1.978   2.925 -0.4474  0.5157 -0.1292
   27SOL    HW1   80   2.758   1.968   3.001  2.2082 -1.8679  1.6895
   27SOL    HW2   81   2.828   2.073   2.895  0.4811 -0.3221 -3.7835
   28SOL     OW   82   0.233   1.036   1.921  0.2922 -0.5425  0.0005
   28SOL    HW1   83   0.252   0.938   1.933  2.2918 -0.1758 -0.0789
   28SOL    HW2   84   0.265   1.089   2.002 -1.5472  2.2196  0.6586
   29SOL     OW   85   2.566   2.243   1.277 -0.0726 -0.5232  0.1559
   29SOL    HW1   86   2.581   2.319   1.344  1.2966  3.1974  0.5546
   29SOL    HW2   87   2.636   2.173   1.280 -0.6734  2.6749 -0.4872
   30SOL     OW   88   1.526   0.246   0.420 -0.1641  0.5829  0.4472
   30SOL    HW1   89   1.484   0.251   0.516 -0.7009 -1.3923  0.2081
   30SOL    HW2   90   1.588   0.328   0.406 -2.3956  1.6587  0.7492
   31SOL     OW   91   2.560   2.412   1.706 -0.3496 -0.2599 -0.0342
   31SOL    HW1   92   2.538   2.507   1.731 -0.2274 -0.9399 -0.3182
   31SOL    HW2   93   2.580   2.400   1.607 -0.2711 -0.3162  2.2325
   32SOL     OW   94   0.859   1.853   1.059 -0.5127 -0.2691 -0.4508
   32SOL    HW1   95   0.864   1.849   0.958 -0.0916  0.5343  0.4859
   32SOL    HW2   96   0.823   1.939   1.100 -1.5596 -0.6526 -0.9248
   33SOL     OW   97   0.686   3.006   2.799 -0.5001 -0.3880  0.1105
   33SOL    HW1   98   0.771   2.973   2.848  4.0854  0.5161  1.3010
   33SOL    HW2   99   0.608   2.940   2.793 -0.8821  1.3340 -0.0490
   34SOL     OW  100   1.428   2.766   0.554  0.6591 -0.2038  0.0288
   34SOL    HW1  101   1.476   2.853   0.571  0.8865  0.3464  2.5434
   34SOL    HW2  102   1.492   2.702   0.503  2.0533 -1.1537  0.6688
   35SOL     OW  103   2.175   2.941   1.082 -0.9789 -0.3191 -0.3774
   35SOL    HW1  104   2.196   2.935   0.982 -1.3852 -2.4384 -2.8266
   35SOL    HW2  105   2.198   3.034   1.125 -0.0644 -1.6028 -1.7331
   36SOL     OW  106   1.768   2.685   2.124 -0.4362 -0.2834 -0.3434
   36SOL    HW1  107   1.806   2.747   2.054  3.3650 -1.4502  1.1016
   36SOL    HW2  108   1.671   2.674   2.116 -0.6920  0.3111  3.7921
   37SOL     OW  109   0.701   0.090   2.390  0.1970  0.4495  0.3955
   37SOL    HW1  110   0.711   0.089   2.288 -0.3496  0.5537  0.8347
   37SOL    HW2  111   0.718   0.184   2.422 -0.9279  0.8429 -1.0247
   38SOL     OW  112   0.315   2.493   2.680 -0.4418  0.4138 -0.1147
   38SOL    HW1  113   0.416   2.502   2.666  2.3552 -0.5659 -2.1519
   38SOL    HW2  114   0.266   2.444   2.605 -0.0527 -1.1248  2.4025
   39SOL     OW  115   2.210   1.041   1.743 -0.0653  0.4145  0.1025
   39SOL    HW1  116   2.260   1.101   1.674  0.4440 -0.6144  1.6853
   39SOL    HW2  117   2.172   1.100   1.821 -0.1746  1.1676 -0.2921
   40SOL     OW  118   0.783   2.912   0.320 -0.1572 -0.3479  0.8426
   40SOL    HW1  119   0.878   2.897   0.355  0.5820 -0.2721  0.6380
   40SOL    HW2  120   0.760   3.010   0.340  1.5870  1.3989  1.2831
   41SOL     OW  121   2.042   1.228   1.044  0.4461 -0.0092 -0.2065
   41SOL    HW1  122   2.129   1.266   1.086 -0.4371  1.6159  4.5868
   41SOL    HW2  123   2.029   1.274   0.952 -0.2483  2.9994 -0.9742
   42SOL     OW  124   0.627   0.565   1.069 -0.1675  0.1258  0.2242
   42SOL    HW1  125   0.563   0.641   1.042 -1.3943 -0.3633 -2.5061
   42SOL    HW2  126   0.704   0.596   1.133  2.2788  0.7865  1.5571
   43SOL     OW  127   2.255   1.616   2.746  0.2459 -0.4440 -0.0199
   43SOL    HW1  128   2.212   1.556   2.819 -2.9047 -1.2349  1.6417
   43SOL    HW2  129   2.243   1.556   2.665 -2.2624 -2.0742  1.0598
   44SOL     OW  130   2.991   3.085   1.291 -0.4873 -0.6297 -0.7146
   44SOL    HW1  131   2.992   2.998   1.351 -0.7948 -2.8783  1.8461
   44SOL    HW2  132   2.944   0.070   1.338 -1.7121  3.4176  0.3159
   45SOL     OW  133   0.343   2.832   1.223 -0.1408  0.5754 -0.2857
   45SOL    HW1  134   0.342   2.883   1.133  1.2424  0.1980 -2.2019
   45SOL    HW2  135   0.439   2.815   1.256 -0.0893 -1.9552 -1.4866
   46SOL     OW  136   2.276   0.034   2.708 -0.2007 -0.4473 -0.4541
   46SOL    HW1  137   2.291   3.069   2.625  1.1527 -1.0844 -2.3386
   46SOL    HW2  138   2.339   0.114   2.711 -0.9239 -0.4977 -1.1666
   47SOL     OW  139   2.058   1.913   0.630  0.1285 -0.5751  0.0203
   47SOL    HW1  140   2.052   1.822   0.674  1.2988 -1.4267 -2.3498
   47SOL    HW2  141   2.016   1.906   0.534  1.3230 -0.9781 -1.6494
   48SOL     OW  142   0.747   2.124   0.303 -0.0748  0.8395  0.0950
   48SOL    HW1  143   0.748   2.215   0.256 -0.4652  2.6201 -0.7312
   48SOL    HW2  144   0.835   2.077   0.274  3.8551 -2.5266 -0.0984
   49SOL     OW  145   2.683   0.430   2.656  0.1082 -0.3382 -0.4184
   49SOL    HW1  146   2.649   0.515   2.611 -4.0727  1.2507  0.7445
   49SOL    HW2  147   2.720   0.364   2.589  0.1411  1.3400  0.2866
   50SOL     OW  148   1.994   0.773   0.330 -0.8434  0.1563 -0.1113
   50SOL    HW1  149   2.082   0.742   0.285  1.0891 -1.4858  1.2598
   50SOL    HW2  150   1.921   0.757   0.260 -2.6549 -0.9389 -0.4676
   51SOL     OW  151   2.137   0.904   0.654 -0.1401  0.4448  0.0178
   51SOL    HW1  152   2.132   0.946   0.747 -0.0655 -1.0566  0.8639
   51SOL    HW2  153   2.099   0.809   0.646  0.9283  0.6383 -0.9457
   52SOL     OW  154   1.584   1.588   2.076 -0.3691 -0.0445  0.9173
   52SOL    HW1  155   1.657   1.646   2.029 -0.0459  1.4809 -0.8777
   52SOL    HW2  156   1.496   1.581   2.023  1.4792 -1.0703 -1.2989
   53SOL     OW  157   0.622   1.803   2.091  0.2500 -0.9906  0.5845
   53SOL    HW1  158   0.679   1.739   2.043 -2.5949 -2.8643  1.4172
   53SOL    HW2  159   0.602   1.890   2.042  0.0495 -1.1130  1.3961
   54SOL     OW  160   2.195   0.515   1.270 -0.3788  0.8073 -0.0107
   54SOL    HW1  161   2.233   0.439   1.212 -0.1933  1.1687 -1.1691
   54SOL    HW2  162   2.237   0.605   1.239  0.2095  1.0648  0.4761
   55SOL     OW  163   2.355   2.106   0.774 -0.4497 -0.2495 -0.0915
   55SOL    HW1  164   2.409   2.038   0.827  3.4384  0.9736 -2.0481
   55SOL    HW2  165   2.354   2.082   0.675 -0.0734  0.9637 -2.2682
   56SOL     OW  166   1.207   0.123   1.907 -0.6434  0.1164  0.7510
   56SOL    HW1  167   1.248   0.068   1.978  0.0437  1.8541  1.3483
   56SOL    HW2  168   1.241   0.219   1.906 -2.4328 -2.5988 -2.5275
   57SOL     OW  169   1.377   1.812   0.073  0.5027 -0.0511  0.2204
   57SOL    HW1  170   1.443   1.760   0.135  0.6680 -0.1430 -1.6796
   57SOL    HW2  171   1.286   1.816   0.121 -2.0297  1.4060  1.4208
   58SOL     OW  172   0.068   0.925   2.614  0.3263  0.1798 -0.1666
   58SOL    HW1  173   0.092   1.024   2.628 -1.5809 -1.2108 -0.4332
   58SOL    HW2  174   0.149   0.868   2.579 -0.3825 -1.4405 -0.4065
   59SOL     OW  175   1.157   0.251   2.702 -0.2113 -0.8897 -0.6293
   59SOL    HW1  176   1.118   0.329   2.757  0.8468  2.0195 -1.1944
   59SOL    HW2  177   1.219   0.196   2.764 -1.0968 -0.1470  1.9310
   60SOL     OW  178   2.886   1.995   0.314  0.2913 -0.0167 -0.5699
   60SOL    HW1  179   2.965   1.934   0.322 -3.6115  1.7673 -0.3870
   60SOL    HW2  180   2.843   2.017   0.405  1.2313 -1.3728  1.9591
   61SOL     OW  181   0.990   2.081   0.181 -0.1778  0.1982 -0.0306
   61SOL    HW1  182   0.984   2.107   0.083  0.4052  0.2382  2.2128
   61SOL    HW2  183   1.046   2.150   0.240  2.8945  3.2647 -0.2936
   62SOL     OW  184   1.991   2.166   2.326 -0.1292 -0.7107  0.4035
   62SOL    HW1  185   2.022   2.077   2.307  0.0879  1.4428  0.7357
   62SOL    HW2  186   1.904   2.188   2.272  0.3865  2.1783 -0.8580
   63SOL     OW  187   2.067   2.108   2.990  0.1185 -0.2278  0.4294
   63SOL    HW1  188   2.098   2.011   2.993 -0.9824 -0.1195 -1.6181
   63SOL    HW2  189   2.147   2.177   2.993  2.0913  1.5324  0.7698
   64SOL     OW  190   1.667   1.084   2.533 -0.5635 -0.5120 -0.0273
   64SOL    HW1  191   1.654   1.039   2.444  0.3731  2.5706  2.4989
   64SOL    HW2  192   1.583   1.059   2.585 -2.0209 -1.2681  0.1957
   65SOL     OW  193   1.226   2.206   2.648  0.7983  0.1553 -0.6877
   65SOL    HW1  194   1.172   2.121   2.658  1.4576 -1.3775  1.2903
   65SOL    HW2  195   1.284   2.214   2.728  1.4204 -3.1400 -1.6619
   66SOL     OW  196   0.366   1.596   1.984 -0.1206 -0.1648  0.2243
   66SOL    HW1  197   0.428   1.594   2.066 -1.5736 -0.7719  1.2410
   66SOL    HW2  198   0.334   1.504   1.957  0.1597 -1.6141  1.7997
   67SOL     OW  199   2.734   2.717   2.931 -0.0551  0.3586  0.8221
   67SOL    HW1  200   2.683   2.693   3.013  2.5553  0.0006  1.2161
   67SOL    HW2  201   2.778   2.807   2.923 -0.4952 -2.6073  1.7034
   68SOL     OW  202   0.637   2.494   1.344 -0.2055  0.2853 -0.1872
   68SOL    HW1  203   0.651   2.514   1.245 -3.8361 -2.4014  0.4678
   68SOL    HW2  204   0.717   2.516   1.403 -2.9170 -0.4892 -2.3138
   69SOL     OW  205   0.763   2.598   0.723  0.3314  0.3999 -0.3248
   69SOL    HW1  206   0.708   2.511   0.725 -1.5533  0.0738  0.1764
   69SOL    HW2  207   0.852   2.587   0.675 -1.6698  2.7899  1.0070
   70SOL     OW  208   2.501   0.989   2.977 -0.4602 -0.1364  0.2617
   70SOL    HW1  209   2.592   0.954   2.950 -0.8158  1.2032  0.8466
   70SOL    HW2  210   2.429   0.926   2.954 -0.7311  0.9923  3.0217
   71SOL     OW  211   0.731   1.014   2.215  0.2742  0.6217 -0.2130
   71SOL    HW1  212   0.800   0.939   2.241 -0.2698 -2.2472  1.5063
   71SOL    HW2  213   0.722   1.087   2.285 -1.4254 -3.2917  1.8296
   72SOL     OW  214   0.180   1.763   0.383  0.0814 -0.2202 -0.2410
   72SOL    HW1  215   0.247   1.790   0.309 -0.1464 -1.3778  1.8875
   72SOL    HW2  216   0.088   1.774   0.340 -2.3187 -0.3355  0.9655
   73SOL     OW  217   0.851   1.370   0.469  0.2264 -0.2459 -0.0831
   73SOL    HW1  218   0.841   1.383   0.372  2.1322 -0.8749  1.1079
   73SOL    HW2  219   0.766   1.344   0.520 -2.0414 -1.4067 -0.0141
   74SOL     OW  220   2.421   2.675   0.158 -0.1648  0.0814 -0.1679
   74SOL    HW1  221   2.522   2.672   0.146 -1.9886  1.8148 -2.7636
   74SOL    HW2  222   2.387   2.757   0.112 -0.4382 -2.0369 -0.8894
   75SOL     OW  223   2.197   1.470   1.873 -0.2446  0.0553  0.2642
   75SOL    HW1  224   2.139   1.387   1.852 -0.3561 -2.3019  0.5196
   75SOL    HW2  225   2.256   1.491   1.793 -0.6038 -0.7237 -1.6048
   76SOL     OW  226   1.883   2.380   1.796 -0.6524  0.5566  0.4329
   76SOL    HW1  227   1.954   2.401   1.868 -0.3285  0.7129  0.5230
   76SOL    HW2  228   1.809   2.451   1.791  0.4681  0.4988  0.3145
   77SOL     OW  229   2.540   0.160   1.752  0.5175  0.2471  0.0573
   77SOL    HW1  230   2.614   0.226   1.723 -0.5798 -0.8324  2.6161
   77SOL    HW2  231   2.449   0.210   1.747  1.7637 -0.3013  1.3209
   78SOL     OW  232   1.528   0.764   2.931 -0.4810  0.1560 -0.3359
   78SOL    HW1  233   1.522   0.694   3.006  1.6304 -0.8920 -0.0852
   78SOL    HW2  234   1.562   0.722   2.845  1.0844 -1.3699  1.9847
   79SOL     OW  235   2.582   1.476   1.949  0.1969 -0.2838  0.0768
   79SOL    HW1  236   2.547   1.492   1.853 -1.3894  2.5494  0.3311
   79SOL    HW2  237   2.667   1.416   1.952  0.1459 -0.3324  3.7317
   80SOL     OW  238   1.933   1.295   1.275 -0.2575 -0.0041  0.3917
   80SOL    HW1  239   1.962   1.258   1.183 -1.9434  0.4305  0.9011
   80SOL    HW2  240   2.008   1.352   1.312 -0.6476  2.3804  1.6841
   81SOL     OW  241   1.404   0.554   1.715 -0.1432 -0.1822  0.7430
   81SOL    HW1  242   1.419   0.657   1.719  0.4031 -2.1139  0.5997
   81SOL    HW2  243   1.475   0.511   1.659 -1.9526  0.8088  1.3996
   82SOL     OW  244   1.297   2.456   1.341  0.8569 -0.3059  0.2157
   82SOL    HW1  245   1.371   2.494   1.279  0.7562  0.4710  2.6862
   82SOL    HW2  246   1.227   2.526   1.359  3.0968 -0.5754  0.6504
   83SOL     OW  247   0.160   0.351   0.529  0.3515  0.4767 -0.2496
   83SOL    HW1  248   0.161   0.250   0.503  0.5893 -4.3318 -0.9624
   83SOL    HW2  249   0.134   0.405   0.449 -0.9398 -1.0819  1.7851
   84SOL     OW  250   0.186   0.861   2.955  0.6830  0.4406  0.0890
   84SOL    HW1  251   0.087   0.852   2.923 -3.5694  1.4970  1.7540
   84SOL    HW2  252   0.173   0.904   3.045 -0.1923 -1.0263 -2.0530
   85SOL     OW  253   2.648   1.843   1.914 -0.4667  0.2195  0.1011
   85SOL    HW1  254   2.693   1.768   1.859 -0.9256  1.7653  1.9539
   85SOL    HW2  255   2.591   1.901   1.858 -3.5808 -1.8195  0.7157
   86SOL     OW  256   2.870   2.199   1.742  0.0902  0.0001  0.6551
   86SOL    HW1  257   2.963   2.219   1.709 -2.1300  1.8873 -0.9850
   86SOL    HW2  258   2.860   2.186   1.843  0.4114  1.0995 -4.2659
   87SOL     OW  259   0.650   0.190   2.796 -0.7209 -0.1634  0.3350
   87SOL    HW1  260   0.654   0.088   2.815 -4.3296 -2.7578 -0.3883
   87SOL    HW2  261   0.592   0.243   2.864  1.0607  1.6108  0.7706
   88SOL     OW  262   0.478   2.124   0.981 -0.1246 -0.0002 -0.0259
   88SOL    HW1  263   0.435   2.123   0.891 -1.2717 -1.0360  2.2134
   88SOL    HW2  264   0.417   2.080   1.047 -0.1325  0.9919 -3.4496
   89SOL     OW  265   0.869   0.635   1.696  0.1850  0.2998  0.4978
   89SOL    HW1  266   0.932   0.669   1.625 -1.0665 -0.8613 -0.0086
   89SOL    HW2  267   0.922   0.600   1.777  1.3575 -0.7829  0.2254
   90SOL     OW  268   2.653   1.608   1.441  0.2949 -0.1090  1.1727
   90SOL    HW1  269   2.618   1.670   1.365 -1.7335  1.2528  0.3082
   90SOL    HW2  270   2.704   1.522   1.418  2.4194 -0.0385  1.5231
   91SOL     OW  271   1.310   1.459   0.582 -0.6083  0.2910 -0.1755
   91SOL    HW1  272   1.307   1.468   0.482  0.6472 -2.5524  1.6319
   91SOL    HW2  273   1.296   1.360   0.615 -0.1756 -0.4156  0.4984
   92SOL     OW  274   2.159   0.543   0.816 -0.4909  0.0167 -0.1263
   92SOL    HW1  275   2.137   0.572   0.726 -0.5614 -0.8291  5.7571
   92SOL    HW2  276   2.136   0.622   0.879 -1.7302  0.8185 -0.2120
   93SOL     OW  277   1.928   1.058   2.956 -0.4898  0.4973 -0.5194
   93SOL    HW1  278   1.832   1.089   2.959  0.0129 -0.0143 -0.3885
   93SOL    HW2  279   1.979   1.105   2.883 -1.1331 -1.4922 -1.6005
   94SOL     OW  280   2.456   2.182   2.200 -0.4697  0.2274  0.0988
   94SOL    HW1  281   2.491   2.215   2.110  2.1371 -0.8198  2.3120
   94SOL    HW2  282   2.396   2.102   2.177 -0.9417  0.1729 -0.3040
   95SOL     OW  283   2.080   0.314   0.925 -0.5082  0.1529  0.0418
   95SOL    HW1  284   2.112   0.407   0.895 -0.5572 -1.2565 -0.0106
   95SOL    HW2  285   2.131   0.235   0.878 -0.4080 -2.3492 -0.4528
   96SOL     OW  286   2.733   3.075   1.830 -0.0120  0.4100  0.3853
   96SOL    HW1  287   2.749   2.974   1.806  0.0310 -3.6469 -1.1702
   96SOL    HW2  288   2.660   0.023   1.774  0.7517 -0.7381 -1.5411
   97SOL     OW  289   2.342   0.296   1.136 -0.0052  0.1719 -0.1190
   97SOL    HW1  290   2.339   0.311   1.034 -0.0527 -0.3025 -1.8207
   97SOL    HW2  291   2.309   0.202   1.158  1.7004  2.0099  1.5026
   98SOL     OW  292   1.529   2.203   1.528 -0.0813 -0.3395  0.2601
   98SOL    HW1  293   1.596   2.263   1.476  0.5729  1.2498 -0.7519
   98SOL    HW2  294   1.432   2.211   1.500  1.6650 -0.5484  0.2272
   99SOL     OW  295   2.251   2.148   1.817  0.0192  0.2523 -0.5080
   99SOL    HW1  296   2.235   2.200   1.904 -4.1381 -2.3783 -3.6326
   99SOL    HW2  297   2.236   2.206   1.736 -1.6258 -1.0656  0.2276
  100SOL     OW  298   0.421   0.757   2.877  0.0692  0.4348  0.3773
  100SOL    HW1  299   0.483   0.814   2.815 -2.4066  1.3119  0.1067
  100SOL    HW2  300   0.336   0.801   2.911 -1.7860 -0.3126  0.4460
  101SOL     OW  301   1.816   0.474   3.073  0.3564  0.1517  0.0527
  101SOL    HW1  302   1.809   0.500   2.975  0.0901  0.6480  0.0161
  101SOL    HW2  303   1.911   0.454   0.012  3.6637  1.3962 -1.4980
  102SOL     OW  304   0.109   0.605   1.791 -0.5016  0.7156  0.9319
  102SOL    HW1  305   0.075   0.652   1.707  1.2219 -0.0114  1.2337
  102SOL    HW2  306   0.165   0.525   1.755  3.9179 -0.9374 -1.4298
  103SOL     OW  307   2.847   1.160   2.357  0.1114  0.1713  0.3753
  103SOL    HW1  308   2.837   1.236   2.424  2.3935 -1.4534 -0.1432
  103SOL    HW2  309   2.889   1.075   2.393 -0.5361  0.1716 -0.6439
  104SOL     OW  310   0.533   0.298   2.579  0.0778 -0.4685 -0.5885
  104SOL    HW1  311   0.572   0.241   2.661  1.2067 -1.4384 -0.4014
  104SOL    HW2  312   0.605   0.322   2.513 -1.8430 -2.5423  1.7461
  105SOL     OW  313   2.350   1.816   1.549  0.3875 -0.0096  0.7088
  105SOL    HW1  314   2.338   1.823   1.651 -1.0458  0.8721 -1.0402
  105SOL    HW2  315   2.419   1.885   1.522 -0.8661  0.9846  1.4204
  106SOL     OW  316   2.183   0.267   0.566 -0.1833  0.1478 -0.2893
  106SOL    HW1  317   2.196   0.218   0.481  0.1332  1.6558 -0.8263
  106SOL    HW2  318   2.231   0.219   0.641 -1.0504 -1.3395 -0.6140
  107SOL     OW  319   0.053   1.525   1.026 -0.4656 -0.0890  0.3027
  107SOL    HW1  320   0.076   1.597   1.098  1.3116  1.0223  1.1421
  107SOL    HW2  321   0.123   1.528   0.944  0.9537  2.4366  0.4943
  108SOL     OW  322   2.812   2.532   1.754 -0.7899  0.4069  0.0970
  108SOL    HW1  323   2.885   2.482   1.805  0.9092  1.3533  3.3136
  108SOL    HW2  324   2.728   2.480   1.744 -0.1129 -0.4461  2.4569
  109SOL     OW  325   2.203   0.101   0.815 -0.2933  0.0671  0.1963
  109SOL    HW1  326   2.302   0.076   0.818  0.3100 -0.7165 -0.9625
  109SOL    HW2  327   2.166   0.013   0.777  1.5931 -4.1245  0.5169
  110SOL     OW  328   0.436   2.121   2.521 -0.1372  0.0187 -0.1456
  110SOL    HW1  329   0.338   2.112   2.510  2.2211 -1.5531 -1.6203
  110SOL    HW2  330   0.479   2.057   2.453 -0.5310  2.0737 -1.0821
  111SOL     OW  331   1.230   2.325   1.753  0.2508  0.0742  0.4228
  111SOL    HW1  332   1.285   2.264   1.814  0.0525  2.3073  0.2881
  111SOL    HW2  333   1.258   2.311   1.655 -3.6492 -0.7533 -1.6083
  112SOL     OW  334   1.513   2.744   0.063 -0.0373 -0.1798  0.1511
  112SOL    HW1  335   1.482   2.726   3.066  0.1742  0.9394  0.9269
  112SOL    HW2  336   1.491   2.839   0.094 -2.6245 -0.6182  0.2364
  113SOL     OW  337   1.963   2.664   1.474  0.2188  0.0262  0.4106
  113SOL    HW1  338   1.864   2.639   1.463 -0.3492  0.1501  0.0617
  113SOL    HW2  339   2.025   2.614   1.410 -2.6000  1.1493 -0.4158
  114SOL     OW  340   2.886   1.066   0.713 -0.0433  0.1183 -0.7061
  114SOL    HW1  341   2.873   0.965   0.722 -0.7730  1.8287  0.5459
  114SOL    HW2  342   2.977   1.095   0.744 -2.4379 -0.7156  0.4969
  115SOL     OW  343   0.752   1.168   3.065 -0.0004 -0.0439 -0.4658
  115SOL    HW1  344   0.698   1.238   3.011  0.1814 -0.9404 -0.3503
  115SOL    HW2  345   0.683   1.107   0.021 -1.0946 -2.2458  0.1014
  116SOL     OW  346   2.507   1.765   2.138  0.3432  0.2943  0.2035
  116SOL    HW1  347   2.462   1.676   2.153  1.6293  0.6185 -3.3010
  116SOL    HW2  348   2.542   1.764   2.041 -0.9487 -0.2963  0.8326
  117SOL     OW  349   2.861   2.641   0.886  0.2709  0.4625  0.1691
  117SOL    HW1  350   2.801   2.588   0.832 -0.2660  2.2550  2.4132
  117SOL    HW2  351   2.836   2.738   0.864 -1.5146  2.6908  0.9646
  118SOL     OW  352   0.991   2.473   1.710  0.4680  0.4154 -0.3906
  118SOL    HW1  353   1.057   2.399   1.720  1.1682 -1.5588 -0.1022
  118SOL    HW2  354   0.991   2.534   1.790 -1.0244  2.5061  1.1146
  119SOL     OW  355   0.180   1.814   2.736  0.5693 -0.3856 -0.3377
  119SOL    HW1  356   0.266   1.814   2.790 -1.6744  0.1923  2.6634
  119SOL    HW2  357   0.097   1.828   2.803 -2.3240  1.4496  2.5354
  120SOL     OW  358   1.077   0.890   2.875  0.1299  0.0299 -0.7010
  120SOL    HW1  359   1.071   0.989   2.873 -0.8435 -1.7565  2.8044
  120SOL    HW2  360   1.140   0.860   2.950  1.3447  3.0944  0.7632
  121SOL     OW  361   1.521   2.753   0.900  0.1462 -0.8561 -0.6590
  121SOL    HW1  362   1.439   2.736   0.845  0.8208  1.0331  2.7491
  121SOL    HW2  363   1.601   2.697   0.865  0.9258  1.4986  0.0744
  122SOL     OW  364   2.207   2.561   1.588 -0.2531  0.0780 -0.2760
  122SOL    HW1  365   2.229   2.567   1.690  0.0706  0.9000 -3.1311
  122SOL    HW2  366   2.117   2.603   1.576 -1.1828  0.8221  1.1257
  123SOL     OW  367   0.336   0.064   0.797 -0.2207  0.4564 -0.2132
  123SOL    HW1  368   0.417   0.120   0.781 -1.7262 -0.7345  0.7463
  123SOL    HW2  369   0.333   0.038   0.896  1.1893 -0.6816  1.9094
  124SOL     OW  370   2.231   1.213   2.646 -0.0289  0.3114  0.1651
  124SOL    HW1  371   2.275   1.121   2.653 -1.7395 -2.8122 -1.6342
  124SOL    HW2  372   2.158   1.233   2.716 -1.0971 -1.5950 -0.1832
  125SOL     OW  373   0.650   0.914   0.501 -0.0443  0.1538  0.1251
  125SOL    HW1  374   0.591   0.974   0.563 -1.2147  0.2263 -0.1688
  125SOL    HW2  375   0.717   0.971   0.456  0.8831  1.1015  1.9351
  126SOL     OW  376   3.022   1.317   0.903  0.0914 -0.4401 -0.2217
  126SOL    HW1  377   2.923   1.328   0.898 -1.1915  1.3246  0.3982
  126SOL    HW2  378   3.068   1.403   0.938 -0.4333  2.5598 -0.3607
  127SOL     OW  379   0.319   1.774   1.774 -0.1416  0.0013  0.5353
  127SOL    HW1  380   0.360   1.717   1.852  2.5869 -1.1500  0.4889
  127SOL    HW2  381   0.394   1.833   1.732  1.0082  1.0257 -1.5204
  128SOL     OW  382   1.179   1.113   0.078  0.0349 -0.2282 -0.4336
  128SOL    HW1  383   1.245   1.071   0.143 -0.5244 -1.2969 -0.5681
  128SOL    HW2  384   1.217   1.199   0.035 -1.1604  0.8261 -1.1311
  129SOL     OW  385   2.752   1.327   0.860  0.0809  0.3536 -0.0598
  129SOL    HW1  386   2.657   1.358   0.882 -1.6789 -1.4645 -1.6493
  129SOL    HW2  387   2.750   1.229   0.830  1.4133 -3.0799  2.5647
  130SOL     OW  388   2.402   0.993   1.363 -0.2827 -0.3941 -0.6796
  130SOL    HW1  389   2.438   0.900   1.389  0.6970 -0.4692 -0.4037
  130SOL    HW2  390   2.349   0.981   1.280 -1.8006  0.6416 -1.0785
  131SOL     OW  391   2.904   2.975   2.977  0.2709  0.3219 -0.2619
  131SOL    HW1  392   2.977   2.918   2.933 -1.1629  1.0851 -1.0447
  131SOL    HW2  393   2.939   3.067   3.006  1.0017  0.7966 -2.0449
  132SOL     OW  394   0.189   1.598   1.274  0.0719  0.1622  0.0189
  132SOL    HW1  395   0.285   1.622   1.239  2.4725  0.7998 -1.4407
  132SOL    HW2  396   0.195   1.553   1.365  0.1521 -0.8332  0.7038
  133SOL     OW  397   1.170   0.110   1.465  0.8167  0.1161 -0.1531
  133SOL    HW1  398   1.097   0.096   1.531 -2.1211 -2.5287 -3.3071
  133SOL    HW2  399   1.228   0.192   1.478 -0.2128  1.4740  3.2502
  134SOL     OW  400   3.017   1.438   0.190 -0.2385 -0.5532  0.3064
  134SOL    HW1  401   3.002   1.352   0.138 -0.9137 -0.3232  1.1841
  134SOL    HW2  402   2.981   1.520   0.135 -0.2865  0.9519 -0.5747
  135SOL     OW  403   2.337   1.187   1.559 -0.1462 -0.3971 -0.1368
  135SOL    HW1  404   2.345   1.119   1.483  2.2417  1.8307  1.3821
  135SOL    HW2  405   2.367   1.280   1.531 -2.6203  2.2690 -0.9898
  136SOL     OW  406   0.179   0.954   0.371  0.1170 -0.4138 -0.5924
  136SOL    HW1  407   0.092   0.952   0.415 -1.4946 -0.5690 -0.7023
  136SOL    HW2  408   0.219   1.050   0.372  0.7120  0.4717 -1.5804
  137SOL     OW  409   2.766   0.907   1.102 -0.1805 -0.3937  0.3349
  137SOL    HW1  410   2.805   0.848   1.028  2.0410 -1.4584 -0.6774
  137SOL    HW2  411   2.828   0.986   1.114 -0.3311  0.6668 -1.8307
  138SOL     OW  412   1.603   1.062   1.050  0.5855  0.8357 -0.5221
  138SOL    HW1  413   1.542   0.984   1.061  0.0522  0.7883  1.2122
  138SOL    HW2  414   1.675   1.053   1.120  0.6631 -0.6464 -0.8717
  139SOL     OW  415   1.923   3.050   0.011 -0.6344  0.7214 -0.4080
  139SOL    HW1  416   1.960   2.981   0.074 -0.4409 -0.2939  1.2913
  139SOL    HW2  417   1.831   3.074   0.041  1.4869 -1.6553 -1.9031
  140SOL     OW  418   1.506   1.752   1.623 -0.0921 -0.4204 -0.1871
  140SOL    HW1  419   1.568   1.748   1.541  1.3486 -1.0592 -0.8111
  140SOL    HW2  420   1.414   1.786   1.596 -2.2017 -1.6720 -0.2734
  141SOL     OW  421   1.991   2.301   0.503 -0.5882  0.3119  0.3476
  141SOL    HW1  422   2.056   2.353   0.557 -0.6928 -2.3160 -0.0788
  141SOL    HW2  423   1.978   2.214   0.557 -1.0975  0.4322  1.3165
  142SOL     OW  424   0.756   0.829   0.156 -0.0578  0.1304  0.1072
  142SOL    HW1  425   0.708   0.802   0.243  1.3040  2.1668  1.2863
  142SOL    HW2  426   0.704   0.805   0.070 -1.6300 -0.3690 -2.0442
  143SOL     OW  427   0.319   2.245   0.158  0.4037  0.0905 -0.2651
  143SOL    HW1  428   0.236   2.226   0.211  2.0951  0.3558  0.7335
  143SOL    HW2  429   0.300   2.216   0.063 -1.3671 -0.5770  2.1088
  144SOL     OW  430   1.489   3.043   1.186  0.1382  0.6079  0.0864
  144SOL    HW1  431   1.544   0.026   1.210 -2.3298 -0.8258  0.0337
  144SOL    HW2  432   1.544   2.961   1.176 -1.9472  1.7795  0.8409
  145SOL     OW  433   2.286   1.267   0.551 -0.3673  0.3534  0.4442
  145SOL    HW1  434   2.372   1.210   0.539 -0.7537  3.1725 -0.1403
  145SOL    HW2  435   2.219   1.226   0.482  1.3318 -0.2265 -0.7355
  146SOL     OW  436   3.028   1.759   0.282  0.4397  0.3273  0.9703
  146SOL    HW1  437   2.995   1.750   0.183 -0.9288 -1.6829 -1.7459
  146SOL    HW2  438   2.987   1.684   0.341  1.0487 -0.3574  1.2829
  147SOL     OW  439   2.315   2.906   1.677 -0.3542  0.5589  0.5973
  147SOL    HW1  440   2.216   2.894   1.654  0.5062  2.7928 -1.5281
  147SOL    HW2  441   2.377   2.889   1.597 -0.6004  2.2437  1.0773
  148SOL     OW  442   1.474   2.952   2.086 -0.2685 -0.1215  0.2086
  148SOL    HW1  443   1.549   2.982   2.028  0.0888  1.3847 -1.2519
  148SOL    HW2  444   1.474   2.850   2.091 -0.1709  1.2481 -0.5025
  149SOL     OW  445   1.865   0.590   2.165 -0.3405  0.2366 -0.0900
  149SOL    HW1  446   1.955   0.579   2.114  2.6987  2.1599 -2.8917
  149SOL    HW2  447   1.871   0.681   2.216  0.2724  1.5280 -1.1490
  150SOL     OW  448   0.184   0.064   0.563 -0.2582  0.3924  0.6533
  150SOL    HW1  449   0.222   0.113   0.644  0.3626  0.2476 -2.2028
  150SOL    HW2  450   0.211   3.062   0.557 -0.4134  0.9636 -1.2253
  151SOL     OW  451   2.890   1.653   0.037 -0.0973  0.1007 -0.0704
  151SOL    HW1  452   2.798   1.688   0.064  1.6840 -2.6745 -1.4560
  151SOL    HW2  453   2.892   1.629   3.032  0.5614 -0.0995  3.3676
  152SOL     OW  454   2.929   0.163   0.702 -0.4640  0.3350 -0.1470
  152SOL    HW1  455   2.992   0.154   0.778 -3.1713 -0.1806 -2.4376
  152SOL    HW2  456   2.835   0.169   0.742 -0.1817  1.1307  1.3529
  153SOL     OW  457   2.596   0.028   1.189 -0.2849 -0.2532 -0.6804
  153SOL    HW1  458   2.535   0.026   1.273 -3.5374  0.5856  0.8292
  153SOL    HW2  459   2.577   3.037   1.134 -1.6956 -3.7604 -1.5461
  154SOL     OW  460   1.026   0.454   1.835  0.2346 -0.1228 -0.2605
  154SOL    HW1  461   1.117   0.411   1.830 -1.0812  2.7396 -0.4020
  154SOL    HW2  462   0.997   0.458   1.936 -1.1713 -1.6181  2.2426
  155SOL     OW  463   0.056   0.951   1.163 -0.4545  0.2565 -0.1246
  155SOL    HW1  464   0.119   1.008   1.107  0.4948  0.8219  0.9665
  155SOL    HW2  465   3.071   1.005   1.192 -1.2863  1.5224  0.3376
  156SOL     OW  466   3.086   1.881   2.934  0.5006  0.1342 -0.7687
  156SOL    HW1  467   3.096   1.951   3.008 -0.0133  4.2008  1.1603
  156SOL    HW2  468   2.986   1.885   2.907 -2.3630 -1.8137  0.1239
  157SOL     OW  469   0.828   0.504   0.342 -0.0857 -0.1188  0.1600
  157SOL    HW1  470   0.854   0.449   0.421  1.6637  0.3078 -0.3951
  157SOL    HW2  471   0.915   0.544   0.298  3.6813  2.1075  1.0315
  158SOL     OW  472   2.586   0.106   2.791 -0.0499  0.1117  0.1950
  158SOL    HW1  473   2.589   0.075   2.887 -1.0877  2.5627 -0.2424
  158SOL    HW2  474   2.673   0.084   2.746 -2.5911 -1.9196  0.5339
  159SOL     OW  475   0.697   0.068   0.318 -0.0158 -0.3975  0.2327
  159SOL    HW1  476   0.764   0.090   0.238  2.1102  0.2973 -2.3508
  159SOL    HW2  477   0.612   0.119   0.303  1.4413 -1.5351  0.7345
  160SOL     OW  478   1.159   1.978   2.923 -0.2053  0.5733 -0.2864
  160SOL    HW1  479   1.112   2.057   2.968  2.6505 -0.3809  0.6381
  160SOL    HW2  480   1.254   1.987   2.965  2.2092  0.3810  1.8377
  161SOL     OW  481   2.893   1.664   2.405 -0.4707  0.4556  0.0965
  161SOL    HW1  482   2.888   1.719   2.320  0.6532 -0.6362  1.2516
  161SOL    HW2  483   2.863   1.715   2.484  1.8742 -2.1202 -4.4129
  162SOL     OW  484   0.345   2.524   1.608 -0.0099 -1.1630  0.1009
  162SOL    HW1  485   0.438   2.566   1.602  0.3448  1.8163 -1.1598
  162SOL    HW2  486   0.283   2.587   1.552 -0.2653 -0.2458  1.4831
  163SOL     OW  487   1.976   0.378   2.804  0.0213  0.4527 -0.4697
  163SOL    HW1  488   1.890   0.430   2.807  1.4479 -1.2280  1.1089
  163SOL    HW2  489   1.994   0.345   2.706 -1.6030 -0.1855 -1.9348
  164SOL     OW  490   2.751   1.399   0.592 -0.2178 -0.4713  0.1071
  164SOL    HW1  491   2.707   1.489   0.585 -1.3760 -3.1224  0.2089
  164SOL    HW2  492   2.785   1.377   0.682 -2.4302  0.0782 -0.1720
  165SOL     OW  493   0.241   0.106   1.749 -0.3013  0.0531  0.6472
  165SOL    HW1  494   0.195   0.095   1.841 -1.1296 -0.3594 -1.0259
  165SOL    HW2  495   0.272   0.203   1.736 -2.3606  1.3616  2.3716
  166SOL     OW  496   2.034   0.676   0.580 -0.2721  0.2118 -0.1680
  166SOL    HW1  497   2.021   0.714   0.488 -1.1383 -0.6645 -1.5561
  166SOL    HW2  498   1.951   0.629   0.618  0.2181 -0.5535 -0.9195
  167SOL     OW  499   0.385   0.824   0.232  0.0223 -0.3216  0.0820
  167SOL    HW1  500   0.468   0.777   0.274  1.5797  2.4622  0.5602
  167SOL    HW2  501   0.321   0.853   0.306 -0.7369  2.8324 -1.9867
  168SOL     OW  502   2.034   2.858   1.890  0.2392 -0.1594  0.3648
  168SOL    HW1  503   2.079   2.941   1.926  1.2129 -1.9004 -1.8204
  168SOL    HW2  504   2.064   2.835   1.792  3.8774 -0.0873 -2.6808
  169SOL     OW  505   0.958   1.169   0.795  0.1443 -0.7391  0.1913
  169SOL    HW1  506   0.948   1.069   0.796  1.9654  2.1519  0.4798
  169SOL    HW2  507   0.918   1.209   0.882  0.6407 -1.1872  3.1404
  170SOL     OW  508   3.018   0.295   1.317  0.3505 -0.0809 -1.0053
  170SOL    HW1  509   3.027   0.321   1.218  1.9516  1.7017  0.6140
  170SOL    HW2  510   0.015   0.259   1.342  0.3548  0.1953 -1.5755
  171SOL     OW  511   1.160   2.832   2.409  0.2121  0.0626  0.7424
  171SOL    HW1  512   1.099   2.846   2.328 -0.7500 -0.9643 -1.0577
  171SOL    HW2  513   1.157   2.906   2.481  0.7407 -1.8227  0.4851
  172SOL     OW  514   0.373   2.462   1.324 -0.0806 -0.1763 -0.4075
  172SOL    HW1  515   0.472   2.459   1.341 -1.0737 -2.3895  3.0065
  172SOL    HW2  516   0.329   2.524   1.397  0.0467  1.3166  4.0498
  173SOL     OW  517   1.496   0.996   2.700 -0.5688  0.2604  0.2495
  173SOL    HW1  518   1.400   0.972   2.684  1.8257  0.2135 -0.9386
  173SOL    HW2  519   1.557   0.916   2.712 -0.8605  0.4065 -1.8554
  174SOL     OW  520   1.888   0.092   2.879  0.0053  0.1518 -0.1784
  174SOL    HW1  521   1.916   0.033   2.958  1.6506  1.8992 -0.0137
  174SOL    HW2  522   1.960   0.166   2.859 -0.5910  0.4209 -0.1756
  175SOL     OW  523   1.807   2.499   0.482  0.2846  0.1863  0.1750
  175SOL    HW1  524   1.714   2.456   0.482 -0.7297 -2.0892  0.2844
  175SOL    HW2  525   1.880   2.427   0.479  3.4879 -0.4931 -3.2041
  176SOL     OW  526   1.666   0.199   2.779  0.4720  0.1446  0.6680
  176SOL    HW1  527   1.624   0.247   2.860 -0.1396 -0.7072 -2.7600
  176SOL    HW2  528   1.749   0.150   2.807 -0.2315  1.2544  1.5505
  177SOL     OW  529   1.216   1.511   0.310 -0.0212 -0.2188 -0.3301
  177SOL    HW1  530   1.256   1.605   0.319 -1.2125  3.9817  0.3696
  177SOL    HW2  531   1.148   1.514   0.232 -1.3892  1.4693  1.2085
  178SOL     OW  532   2.787   2.267   2.836  0.1907  0.0981 -0.8506
  178SOL    HW1  533   2.796   2.287   2.734  1.5337 -1.0768 -1.3738
  178SOL    HW2  534   2.832   2.340   2.888 -1.6679  0.4687 -0.8090
  179SOL     OW  535   0.529   2.748   2.829 -0.1197 -0.1216  0.0526
  179SOL    HW1  536   0.520   2.687   2.747  0.6675  0.0881  0.5370
  179SOL    HW2  537   0.560   2.700   2.909 -3.4462  0.1577 -2.1767
  180SOL     OW  538   1.530   1.552   0.704 -0.1659 -0.7065 -0.2459
  180SOL    HW1  539   1.543   1.649   0.670  0.8302 -2.7871 -1.2662
  180SOL    HW2  540   1.443   1.511   0.671 -1.1683  0.4489 -1.9320
  181SOL     OW  541   2.297   0.717   2.303 -0.5834  0.3805 -0.2649
  181SOL    HW1  542   2.249   0.753   2.220  1.1782 -1.1175 -1.2217
  181SOL    HW2  543   2.249   0.743   2.392 -1.6846  2.0151  0.2629
  182SOL     OW  544   3.030   3.038   2.630 -0.5388  0.4480 -0.1086
  182SOL    HW1  545   2.939   3.074   2.609  2.1878  0.1853  2.2536
  182SOL    HW2  546   3.087   0.021   2.660 -0.7842 -0.1870  2.3726
  183SOL     OW  547   1.531   0.699   2.327 -0.3232  0.1749 -0.0383
  183SOL    HW1  548   1.613   0.647   2.342 -1.8117  2.9010 -1.0229
  183SOL    HW2  549   1.451   0.637   2.354 -0.1075 -3.2465  4.0534
  184SOL     OW  550   0.592   0.614   1.742 -0.3581  0.1406  0.1018
  184SOL    HW1  551   0.684   0.605   1.696  1.6749 -2.4614 -3.1688
  184SOL    HW2  552   0.571   0.709   1.767 -0.0719  2.2601 -0.6732
  185SOL     OW  553   1.841   0.992   0.500  0.2154  0.0062 -0.5407
  185SOL    HW1  554   1.874   1.073   0.444  0.2181  0.9752 -1.8484
  185SOL    HW2  555   1.901   0.911   0.495 -1.9079  1.1113  0.4863
  186SOL     OW  556   0.242   2.199   3.004 -0.0252  0.5149  0.2058
  186SOL    HW1  557   0.290   2.163   2.923 -0.3136  3.1181  0.6535
  186SOL    HW2  558   0.166   2.134   3.033  0.1922  0.2436  1.4668
  187SOL     OW  559   2.423   1.296   0.214 -0.3833  0.2622 -0.3882
  187SOL    HW1  560   2.330   1.337   0.210  0.2424  1.1140  0.4218
  187SOL    HW2  561   2.417   1.201   0.244 -1.4836  1.7112 -0.4531
  188SOL     OW  562   0.176   1.569   0.800 -0.3529  0.1553 -0.5244
  188SOL    HW1  563   0.245   1.644   0.813  1.2341  0.0235 -2.0050
  188SOL    HW2  564   0.100   1.596   0.740  2.5823 -2.3631 -0.9928
  189SOL     OW  565   2.379   0.270   0.254  0.0953  0.0744  0.7015
  189SOL    HW1  566   2.346   0.198   0.324  0.5511 -3.2206  1.4581
  189SOL    HW2  567   2.483   0.258   0.243  1.0907 -0.5677 -2.7228
  190SOL     OW  568   0.990   1.703   1.986 -0.0651 -0.0583  1.0114
  190SOL    HW1  569   0.903   1.649   1.991  1.4202 -2.1202  0.5581
  190SOL    HW2  570   1.063   1.644   1.941 -0.5326 -3.9242 -1.4682
  191SOL     OW  571   2.744   0.591   1.695  0.6682 -0.1907 -0.4789
  191SOL    HW1  572   2.808   0.658   1.737  1.1911 -1.5223  0.3405
  191SOL    HW2  573   2.767   0.491   1.702 -0.5676  0.8704 -0.2510
  192SOL     OW  574   1.679   1.395   1.437 -0.2814  0.1507 -0.0756
  192SOL    HW1  575   1.754   1.367   1.370 -1.7376 -0.1419 -0.2113
  192SOL    HW2  576   1.719   1.398   1.529  0.0012  2.3272  1.4684
  193SOL     OW  577   0.963   0.877   0.823  0.2523  0.6212 -0.3601
  193SOL    HW1  578   0.905   0.807   0.765 -1.1739 -1.3247 -2.7574
  193SOL    HW2  579   0.931   0.879   0.919 -2.2900 -1.8311 -0.7259
  194SOL     OW  580   0.838   2.565   1.505 -0.1668 -0.1383 -0.5134
  194SOL    HW1  581   0.893   2.644   1.468  0.5206 -0.7760 -0.1437
  194SOL    HW2  582   0.885   2.528   1.587 -0.5222  1.0190  0.0034
  195SOL     OW  583   2.220   0.431   2.918 -0.5557 -0.0012  0.7649
  195SOL    HW1  584   2.229   0.366   2.994 -1.9445 -0.7191  0.5069
  195SOL    HW2  585   2.135   0.394   2.869 -0.9542 -1.6261 -1.6770
  196SOL     OW  586   0.949   2.663   1.899  0.1356 -0.3163  0.1895
  196SOL    HW1  587   0.927   2.651   1.997 -3.5104 -1.4611 -2.2287
  196SOL    HW2  588   0.880   2.724   1.858 -0.6636 -0.7418  2.9670
  197SOL     OW  589   0.851   2.701   0.962  0.1018 -0.3050 -0.1576
  197SOL    HW1  590   0.830   2.678   0.863  0.4886  1.9406 -1.2233
  197SOL    HW2  591   0.933   2.760   0.961  0.7960  0.4126 -2.6974
  198SOL     OW  592   0.793   0.754   0.675 -0.3096  0.3825  0.5752
  198SOL    HW1  593   0.736   0.671   0.674 -0.5998  2.5723  1.6370
  198SOL    HW2  594   0.754   0.815   0.604  0.9634 -0.7704 -0.0888
  199SOL     OW  595   0.275   2.728   1.823  0.1186 -0.0073  0.6882
  199SOL    HW1  596   0.302   2.640   1.777 -0.4840 -0.5597 -2.1853
  199SOL    HW2  597   0.335   2.757   1.903  0.0732 -0.7921  2.6720
  200SOL     OW  598   2.135   1.900   2.321 -0.4083  0.0958 -0.2842
  200SOL    HW1  599   2.216   1.929   2.265  2.1713  0.4422 -0.1160
  200SOL    HW2  600   2.174   1.876   2.413  2.7456  2.6696  0.8258
  201SOL     OW  601   2.836   2.114   1.339  0.3637  0.2185 -0.4281
  201SOL    HW1  602   2.877   2.028   1.313 -0.6826  0.7056  2.6244
  201SOL    HW2  603   2.787   2.092   1.426 -2.3446  0.5688  0.0481
  202SOL     OW  604   2.815   0.006   0.352  0.1798  0.0893  0.3651
  202SOL    HW1  605   2.910   0.046   0.372  1.6239  3.1422 -0.7849
  202SOL    HW2  606   2.796   3.082   0.253 -2.8719  0.3527  1.2260
  203SOL     OW  607   1.013   2.234   2.059  0.4129  0.5093  0.1484
  203SOL    HW1  608   0.973   2.280   1.979  0.6734  0.0455 -1.3109
  203SOL    HW2  609   1.012   2.135   2.049 -5.0111  1.8667  1.2032
  204SOL     OW  610   1.295   1.930   1.508 -0.0630  0.3484 -0.6162
  204SOL    HW1  611   1.301   1.947   1.410 -2.6926  0.0669 -0.5287
  204SOL    HW2  612   1.300   2.020   1.556 -0.1019  1.6600 -0.6128
  205SOL     OW  613   0.970   1.830   1.741 -0.3988  0.7825 -0.1958
  205SOL    HW1  614   0.995   1.923   1.770 -0.0978 -0.4603 -0.4282
  205SOL    HW2  615   0.962   1.774   1.826 -2.3103  1.0811  0.9422
  206SOL     OW  616   0.445   0.495   2.832  0.2150  0.4121  0.3201
  206SOL    HW1  617   0.435   0.596   2.852  0.1768 -2.0157 -0.1949
  206SOL    HW2  618   0.462   0.477   2.730  0.7303 -2.7516 -2.9303
  207SOL     OW  619   0.942   0.056   1.909  0.1181  0.2195  0.1435
  207SOL    HW1  620   0.893   0.129   1.853  0.8544  0.9600 -0.2249
  207SOL    HW2  621   1.038   0.079   1.916 -5.3465 -1.1540 -0.4609
  208SOL     OW  622   0.560   2.585   2.142  0.5776  0.2716 -0.4345
  208SOL    HW1  623   0.509   2.595   2.227  0.6535 -1.2481  0.1331
  208SOL    HW2  624   0.635   2.658   2.136  1.0266 -0.0696 -3.4934
  209SOL     OW  625   1.484   0.546   0.001  0.1978  0.4216 -0.1933
  209SOL    HW1  626   1.523   0.453   3.079  0.4461 -0.8563  1.0993
  209SOL    HW2  627   1.440   0.558   0.094 -1.1949 -0.5335  1.1518
  210SOL     OW  628   3.060   0.508   0.856  0.0096  0.2174 -0.4331
  210SOL    HW1  629   3.062   0.583   0.917  2.2379 -1.2784 -0.9476
  210SOL    HW2  630   0.055   0.481   0.820 -1.3619  3.0574 -0.9757
  211SOL     OW  631   0.816   0.642   1.262  0.1868 -0.3473  0.3618
  211SOL    HW1  632   0.878   0.586   1.317 -0.6921  1.3727  1.2861
  211SOL    HW2  633   0.767   0.715   1.324 -2.5114  0.1482  4.2436
  212SOL     OW  634   1.549   1.821   0.644  0.1611 -0.1281 -0.3842
  212SOL    HW1  635   1.452   1.853   0.616 -1.0577  4.8681 -1.5832
  212SOL    HW2  636   1.593   1.880   0.715 -2.4992 -1.0677 -1.2046
  213SOL     OW  637   1.957   0.169   1.900  0.4217 -0.2494  0.0217
  213SOL    HW1  638   1.954   0.187   1.799 -0.9389 -0.7781  1.1326
  213SOL    HW2  639   2.029   0.102   1.925 -2.8251  1.8815 -1.1201
  214SOL     OW  640   1.057   2.759   2.680 -0.4629  0.3409  0.4421
  214SOL    HW1  641   1.141   2.778   2.729 -1.7473 -2.9608 -2.2151
  214SOL    HW2  642   1.074   2.717   2.587  1.4205  1.0797 -0.0200
  215SOL     OW  643   2.701   1.786   1.213 -0.4383  0.2843  0.1480
  215SOL    HW1  644   2.628   1.838   1.160 -1.5512  1.1992 -1.3447
  215SOL    HW2  645   2.753   1.733   1.145 -2.1492 -1.9577 -1.1411
  216SOL     OW  646   0.254   0.481   2.281  0.1508 -0.3639  0.3413
  216SOL    HW1  647   0.312   0.447   2.357  2.2576  2.0421 -0.7511
  216SOL    HW2  648   0.238   0.580   2.288 -2.3218 -0.5408  0.6098
  217SOL     OW  649   3.056   0.320   0.282 -0.4668  0.1315 -0.0348
  217SOL    HW1  650   2.959   0.358   0.281  1.2689  0.5632 -1.5232
  217SOL    HW2  651   3.059   0.240   0.349 -0.0479 -0.6222  0.3300
  218SOL     OW  652   1.686   1.861   1.799 -0.4763  0.0896  0.0251
  218SOL    HW1  653   1.735   1.790   1.857  0.8021  0.3559 -0.8301
  218SOL    HW2  654   1.612   1.820   1.744  1.6591  0.4295 -0.5503
  219SOL     OW  655   1.752   0.736   0.091  0.4951 -0.3859  0.3201
  219SOL    HW1  656   1.706   0.649   0.073 -1.6394  1.4751  2.0175
  219SOL    HW2  657   1.732   0.762   0.189 -1.2544  1.9375  0.9615
  220SOL     OW  658   1.564   1.971   0.890  0.1474 -0.2783 -0.3942
  220SOL    HW1  659   1.466   1.954   0.914  0.5014 -0.2569 -1.7292
  220SOL    HW2  660   1.628   1.914   0.935  1.7408  2.8731  0.5688
  221SOL     OW  661   0.227   0.653   0.101 -0.3077  0.3053  0.3571
  221SOL    HW1  662   0.224   0.688   0.004 -0.1168 -0.8556  0.3263
  221SOL    HW2  663   0.309   0.697   0.147 -0.5439 -0.9646 -1.4195
  222SOL     OW  664   0.894   2.982   1.712  0.1240 -0.1066 -0.5740
  222SOL    HW1  665   0.934   3.031   1.790 -2.6525 -2.1985  1.3798
  222SOL    HW2  666   0.890   3.049   1.632 -1.6099  2.7534 -2.1253
  223SOL     OW  667   1.503   0.528   2.734  0.5591  0.3469 -0.3430
  223SOL    HW1  668   1.509   0.487   2.827  0.6491 -0.6348  1.8015
  223SOL    HW2  669   1.407   0.537   2.701  1.4853  0.3772  1.2680
  224SOL     OW  670   2.890   0.569   1.267  0.1319  0.0904 -0.4649
  224SOL    HW1  671   2.918   0.508   1.345 -0.3544 -1.5212  1.6640
  224SOL    HW2  672   2.827   0.516   1.204 -4.0121  0.4941 -0.9707
  225SOL     OW  673   0.975   1.298   1.303 -0.0619 -0.2096 -0.2809
  225SOL    HW1  674   0.907   1.370   1.322  0.5236  0.6040 -0.7561
  225SOL    HW2  675   1.062   1.317   1.353 -0.9411 -1.6250  0.5402
  226SOL     OW  676   0.926   0.173   0.552  0.6550 -0.3688  0.1104
  226SOL    HW1  677   0.839   0.121   0.562  0.9503 -0.9423  1.6866
  226SOL    HW2  678   0.981   0.154   0.635 -1.1797  1.4108 -0.2319
  227SOL     OW  679   0.845   1.739   1.296  0.0128 -0.4686 -0.3758
  227SOL    HW1  680   0.852   1.780   1.203  0.3206 -1.5584  0.8403
  227SOL    HW2  681   0.908   1.783   1.368  0.6906 -0.1289 -0.7421
  228SOL     OW  682   0.590   3.008   1.497 -0.0579  0.5688 -0.4045
  228SOL    HW1  683   0.595   2.915   1.449  1.6243 -5.3211  0.6383
  228SOL    HW2  684   0.507   3.000   1.550  2.2302 -1.0303 -0.7448
  229SOL     OW  685   2.535   0.816   0.549  0.0758 -0.2606  0.2462
  229SOL    HW1  686   2.551   0.717   0.563 -1.6024  2.5773  0.8024
  229SOL    HW2  687   2.583   0.835   0.460  1.7504  0.9968 -3.6292
  230SOL     OW  688   0.473   1.228   1.755  0.5433  0.1259 -0.0562
  230SOL    HW1  689   0.439   1.140   1.704 -3.3791 -1.2392 -1.4660
  230SOL    HW2  690   0.536   1.210   1.833 -0.2055  1.1718 -0.2598
  231SOL     OW  691   1.203   2.682   1.465 -0.1708 -0.4606  0.7318
  231SOL    HW1  692   1.285   2.736   1.492  0.8236  0.1038 -0.6226
  231SOL    HW2  693   1.120   2.739   1.459 -0.9883  0.6756  3.1665
  232SOL     OW  694   2.504   2.278   0.216 -0.1001 -0.3122 -0.0686
  232SOL    HW1  695   2.403   2.279   0.222 -1.2028 -2.1997  0.8446
  232SOL    HW2  696   2.526   2.220   0.132  2.0882 -0.1159  0.1344
  233SOL     OW  697   0.879   2.669   0.174 -0.8483 -0.5176  0.1819
  233SOL    HW1  698   0.784   2.706   0.185  2.1941 -1.3608 -0.2756
  233SOL    HW2  699   0.912   2.685   0.075  1.0979  1.6158 -0.7989
  234SOL     OW  700   1.143   0.624   2.189 -0.0054 -0.4760 -0.2190
  234SOL    HW1  701   1.100   0.713   2.184 -0.0673 -1.2823 -1.0264
  234SOL    HW2  702   1.076   0.553   2.151  0.2438  0.2412  0.9363
  235SOL     OW  703   0.136   2.077   0.326  0.2183 -0.3979 -0.2905
  235SOL    HW1  704   0.140   2.158   0.389 -0.9303  0.9803  3.0505
  235SOL    HW2  705   0.165   1.995   0.375 -1.4905  1.9354 -1.8542
  236SOL     OW  706   1.976   2.804   2.394  0.2914  0.2277  0.3432
  236SOL    HW1  707   1.926   2.746   2.327  0.4038  0.8319  1.8718
  236SOL    HW2  708   2.068   2.772   2.421  3.5929  1.4677  1.1782
  237SOL     OW  709   2.038   1.265   1.633 -0.0751 -0.1417  0.3583
  237SOL    HW1  710   2.069   1.312   1.550 -2.7467 -1.8286  1.6866
  237SOL    HW2  711   2.014   1.169   1.620  2.2843  1.2519  0.1175
  238SOL     OW  712   1.853   0.091   2.461  0.3814 -0.0965 -0.4442
  238SOL    HW1  713   1.774   0.158   2.481 -1.4227  2.4401  0.1847
  238SOL    HW2  714   1.832   3.092   2.502  1.3023 -1.4576 -1.4882
  239SOL     OW  715   0.805   2.064   1.595  0.1094 -0.2226  0.8736
  239SOL    HW1  716   0.737   2.119   1.537 -1.1146  0.8855 -1.9399
  239SOL    HW2  717   0.789   1.963   1.582  0.4429 -1.6980 -1.4582
  240SOL     OW  718   0.059   2.456   0.812  0.3135  0.1115  0.3577
  240SOL    HW1  719   0.134   2.516   0.778 -1.0193  0.3153  1.0700
  240SOL    HW2  720   3.072   2.475   0.757  2.9111 -0.0542  1.4095
  241SOL     OW  721   1.633   2.316   0.075 -0.5105 -0.0984 -0.1500
  241SOL    HW1  722   1.643   2.246   0.149 -0.0273 -3.5041  1.4797
  241SOL    HW2  723   1.684   2.292   3.086 -1.2864  0.0292 -1.4679
  242SOL     OW  724   2.187   1.112   0.276 -0.3464 -0.5923  0.0283
  242SOL    HW1  725   2.238   1.045   0.339 -0.3091 -2.6943  1.9473
  242SOL    HW2  726   2.219   1.092   0.181  2.0336  0.0843 -0.6536
  243SOL     OW  727   0.649   0.375   1.892  0.0424 -0.1066 -0.7166
  243SOL    HW1  728   0.711   0.317   1.836  1.5823  1.7650 -0.8067
  243SOL    HW2  729   0.614   0.454   1.840 -2.1228  0.5376 -0.7871
  244SOL     OW  730   1.764   2.945   2.845 -0.7523  0.6609 -0.2263
  244SOL    HW1  731   1.676   2.993   2.844  0.6891 -0.6635  1.1721
  244SOL    HW2  732   1.841   3.008   2.859 -0.4425 -0.8246 -2.1819
  245SOL     OW  733   1.641   0.000   0.115 -0.3590 -0.3709  0.6378
  245SOL    HW1  734   1.655   0.093   0.144 -1.7856 -0.6190  1.6727
  245SOL    HW2  735   1.568   3.092   0.049  3.1028  0.1893  3.8174
  246SOL     OW  736   1.145   1.158   2.134 -0.0922  0.4620  0.8096
  246SOL    HW1  737   1.247   1.169   2.141  2.5800 -3.4597  0.9848
  246SOL    HW2  738   1.098   1.171   2.224 -2.7372 -1.0400 -1.6701
  247SOL     OW  739   2.975   0.701   2.206 -0.3612  0.2910 -0.2842
  247SOL    HW1  740   3.000   0.643   2.126 -1.8140  1.6338  0.3104
  247SOL    HW2  741   2.874   0.725   2.207 -2.3277  1.1765 -1.2980
  248SOL     OW  742   0.534   0.872   1.789  0.5610  0.3558 -0.4719
  248SOL    HW1  743   0.563   0.931   1.865 -0.1472  0.8105 -0.8414
  248SOL    HW2  744   0.472   0.929   1.729  1.8125  2.1870 -2.4934
  249SOL     OW  745   2.403   0.545   0.271  0.0876  0.3538 -0.4456
  249SOL    HW1  746   2.315   0.596   0.265 -0.4704 -0.8883 -0.5648
  249SOL    HW2  747   2.396   0.444   0.269  0.2498  1.0492  0.1525
  250SOL     OW  748   2.919   0.436   0.607  0.1809  0.5032 -0.1092
  250SOL    HW1  749   2.992   0.458   0.674  2.5079 -0.7132 -0.0679
  250SOL    HW2  750   2.889   0.335   0.609 -1.2239 -1.6623 -0.6938
  251SOL     OW  751   0.909   0.833   2.327 -0.0366  0.4162  0.1861
  251SOL    HW1  752   0.901   0.738   2.360  1.3898  1.1778 -0.1859
  251SOL    HW2  753   0.962   0.841   2.242  0.1853  1.2225 -0.8993
  252SOL     OW  754   1.347   1.599   1.930 -0.0313 -0.0847 -0.6226
  252SOL    HW1  755   1.343   1.698   1.905 -0.3110  0.6096 -2.9519
  252SOL    HW2  756   1.258   1.557   1.907  1.3593 -0.8109  1.5915
  253SOL     OW  757   1.410   2.562   1.760 -0.2300 -0.0325  0.1170
  253SOL    HW1  758   1.340   2.629   1.791  2.2124 -1.5836  1.0473
  253SOL    HW2  759   1.358   2.487   1.708  0.1441 -1.3333 -0.0287
  254SOL     OW  760   0.816   2.193   2.297  0.0002  0.0841 -0.3862
  254SOL    HW1  761   0.855   2.098   2.288  1.3769 -0.5778 -3.2644
  254SOL    HW2  762   0.816   2.245   2.207  0.6036 -0.8560  2.3423
  255SOL     OW  763   1.312   0.470   0.655  0.1323  0.0868  0.2611
  255SOL    HW1  764   1.262   0.412   0.718 -0.9243  2.6263  1.2107
  255SOL    HW2  765   1.251   0.507   0.580 -0.2360  0.0613 -0.4962
  256SOL     OW  766   1.921   2.332   1.184 -0.0984 -0.0894  0.2969
  256SOL    HW1  767   2.002   2.394   1.197 -0.6681  1.9595 -0.7126
  256SOL    HW2  768   1.957   2.235   1.205  2.0770 -0.2773  0.2066
  257SOL     OW  769   0.177   1.962   2.514  0.2726  0.5414  0.0899
  257SOL    HW1  770   0.177   1.900   2.602 -0.0965 -1.7275 -0.4032
  257SOL    HW2  771   0.201   1.904   2.435  0.8172  2.0071 -2.7164
  258SOL     OW  772   0.473   0.890   2.281 -0.1801 -0.2073 -0.8227
  258SOL    HW1  773   0.558   0.936   2.249  2.1605 -0.4344  0.1525
  258SOL    HW2  774   0.428   0.951   2.349 -1.7360 -0.7725  1.0817
  259SOL     OW  775   1.336   0.906   2.341 -0.3355 -0.7869 -0.5996
  259SOL    HW1  776   1.262   0.838   2.334 -0.1637  1.4507 -0.3638
  259SOL    HW2  777   1.421   0.855   2.315  0.8994 -1.7463  0.9903
  260SOL     OW  778   1.814   0.523   0.646 -0.0393  0.5719 -0.7369
  260SOL    HW1  779   1.726   0.571   0.628  0.5964  3.0129 -0.1742
  260SOL    HW2  780   1.802   0.461   0.726  0.3914 -0.8497 -0.1020
  261SOL     OW  781   1.025   0.532   2.819 -0.3716 -0.8684 -0.6669
  261SOL    HW1  782   0.981   0.450   2.855  2.1506  0.7173  1.5392
  261SOL    HW2  783   0.954   0.598   2.785 -1.7477 -0.2674 -2.0303
  262SOL     OW  784   2.404   2.874   2.804  0.4093 -0.0737  0.1288
  262SOL    HW1  785   2.368   2.963   2.778  2.5247 -0.4671  1.1543
  262SOL    HW2  786   2.481   2.849   2.745  0.3185 -0.0174  2.4797
  263SOL     OW  787   0.728   1.952   3.087  0.8362  0.0451 -0.1864
  263SOL    HW1  788   0.760   1.855   3.066  1.1073 -1.1576 -2.0174
  263SOL    HW2  789   0.758   2.015   3.018 -1.3778  0.1672  0.7784
  264SOL     OW  790   0.410   1.683   1.445  0.2541 -0.4107 -0.2906
  264SOL    HW1  791   0.423   1.604   1.510 -0.8073 -1.9158  0.7258
  264SOL    HW2  792   0.359   1.761   1.483 -0.0877  0.9601  1.4362
  265SOL     OW  793   0.632   1.184   0.306 -0.3893 -0.2551  0.1220
  265SOL    HW1  794   0.599   1.150   0.217  0.1077  1.1628  1.8542
  265SOL    HW2  795   0.722   1.141   0.333 -1.2491  1.5322 -2.8291
  266SOL     OW  796   1.958   1.631   0.150 -0.2762 -0.9367 -0.0902
  266SOL    HW1  797   1.972   1.719   0.204  1.3254  1.7695  0.0845
  266SOL    HW2  798   1.960   1.655   0.048  1.6102  2.8038 -0.4775
  267SOL     OW  799   2.807   0.254   0.009  0.3759  0.7732 -0.5761
  267SOL    HW1  800   2.900   0.217   3.083 -0.5114 -1.0262 -1.0613
  267SOL    HW2  801   2.756   0.292   3.025  1.3089  2.0682 -0.9236
  268SOL     OW  802   0.520   0.293   3.019  0.2476 -0.2945  0.4934
  268SOL    HW1  803   0.589   0.315   3.091  0.4726 -2.0686 -0.3896
  268SOL    HW2  804   0.483   0.379   2.976 -0.7765 -0.2460 -0.2669
  269SOL     OW  805   1.786   0.552   2.828  0.1479 -0.2293 -0.3191
  269SOL    HW1  806   1.809   0.646   2.863  1.6023  2.1520  1.7437
  269SOL    HW2  807   1.713   0.559   2.762  2.2423 -0.4456  1.1812
  270SOL     OW  808   1.224   0.878   2.632 -0.1654 -0.0979 -0.1155
  270SOL    HW1  809   1.244   0.955   2.570  1.6683  1.4292 -0.9324
  270SOL    HW2  810   1.136   0.889   2.687  2.2818  1.3098  3.1905
  271SOL     OW  811   2.444   0.973   0.172 -0.1261 -0.0867  0.0103
  271SOL    HW1  812   2.389   1.028   0.106  1.3975 -0.3296  2.8855
  271SOL    HW2  813   2.485   0.887   0.132  1.9297 -0.3071  0.6869
  272SOL     OW  814   2.507   2.049   2.687  0.1639  0.3231  0.4071
  272SOL    HW1  815   2.479   2.148   2.686 -0.7282 -0.5592  0.6529
  272SOL    HW2  816   2.606   2.037   2.655  0.4489  0.6818 -1.4766
  273SOL     OW  817   2.470   0.524   2.997 -0.1699 -0.6994  0.7039
  273SOL    HW1  818   2.387   0.474   2.971  1.4065  0.2458 -2.1502
  273SOL    HW2  819   2.554   0.474   2.983  0.3605  1.2994  1.0638
  274SOL     OW  820   0.246   3.031   1.381  0.7543 -0.3328  0.2161
  274SOL    HW1  821   0.271   2.947   1.329 -0.9615  0.4917  1.9594
  274SOL    HW2  822   0.249   3.019   1.482 -0.0926  1.0288 -2.0146
  275SOL     OW  823   2.056   1.646   0.704  0.1943 -0.3206 -1.0928
  275SOL    HW1  824   1.983   1.577   0.685 -0.9740  1.8406  0.2258
  275SOL    HW2  825   2.133   1.616   0.644  0.7499  0.7755  1.1545
  276SOL     OW  826   0.337   1.374   2.642 -0.0624  0.2562  0.0595
  276SOL    HW1  827   0.428   1.418   2.663  0.1708  2.0232 -0.7194
  276SOL    HW2  828   0.327   1.365   2.541 -1.7813 -1.9056 -0.3164
  277SOL     OW  829   1.681   2.578   1.767 -0.6538 -0.1597  0.1663
  277SOL    HW1  830   1.706   2.668   1.807  0.3764 -3.4030  0.7634
  277SOL    HW2  831   1.580   2.564   1.775  2.0129  2.0842  1.1948
  278SOL     OW  832   1.621   0.422   1.585  0.1901 -0.0171 -0.3965
  278SOL    HW1  833   1.605   0.335   1.542 -2.5959  0.4806  0.7308
  278SOL    HW2  834   1.680   0.485   1.529  1.8203 -0.6235  2.7206
  279SOL     OW  835   1.683   1.237   3.063  0.1091 -0.4369 -0.8729
  279SOL    HW1  836   1.659   1.145   3.091  2.4666 -0.0671  0.4242
  279SOL    HW2  837   1.730   1.294   0.041  1.3067  2.9183 -1.5660
  280SOL     OW  838   0.866   1.566   0.942  0.0360  0.0855 -0.0704
  280SOL    HW1  839   0.838   1.562   0.843 -1.5992 -0.1749  1.3716
  280SOL    HW2  840   0.819   1.646   0.982 -0.0472  0.1846  2.2136
  281SOL     OW  841   0.120   0.147   2.667  0.1875 -0.6076  0.2017
  281SOL    HW1  842   0.136   0.206   2.588 -1.3907 -2.0243  0.2167
  281SOL    HW2  843   0.200   0.083   2.679  0.9919 -0.5857 -0.5894
  282SOL     OW  844   0.353   0.957   1.330 -0.0829 -0.2143 -0.3137
  282SOL    HW1  845   0.336   1.011   1.245 -1.0249 -2.7513 -2.0831
  282SOL    HW2  846   0.273   0.904   1.361 -1.8358  1.3993  0.2428
  283SOL     OW  847   1.797   2.311   2.712 -1.0531 -0.0001 -0.2637
  283SOL    HW1  848   1.832   2.399   2.676 -0.5194  2.8081 -1.7874
  283SOL    HW2  849   1.711   2.279   2.662  0.4046 -0.5942 -1.8021
  284SOL     OW  850   1.930   1.222   0.358 -0.0421  0.5986  0.0668
  284SOL    HW1  851   1.883   1.283   0.293  0.1518  1.5073  0.1559
  284SOL    HW2  852   2.012   1.183   0.310 -0.8035  0.2873 -2.2564
  285SOL     OW  853   3.033   0.136   3.061  0.3298  0.3114  0.2432
  285SOL    HW1  854   0.006   0.172   0.029  0.1106  2.5672  2.1564
  285SOL    HW2  855   3.043   0.183   2.968 -0.1072  2.4489 -3.5845
  286SOL     OW  856   1.663   2.999   1.497  0.0449 -0.0953 -0.1020
  286SOL    HW1  857   1.633   2.914   1.452  3.2492 -0.6364  0.2705
  286SOL    HW2  858   1.766   3.000   1.497  1.2793  0.1195  0.7111
  287SOL     OW  859   0.967   1.028   1.264  0.6995 -0.1444 -0.0707
  287SOL    HW1  860   0.990   0.985   1.357  1.4144  0.9197  1.4336
  287SOL    HW2  861   0.941   1.128   1.283 -0.8526  1.6537 -0.7901
  288SOL     OW  862   1.375   2.540   0.286 -0.2612 -0.6797  0.0473
  288SOL    HW1  863   1.460   2.588   0.320  3.5085 -0.5504  1.0028
  288SOL    HW2  864   1.335   2.484   0.361 -0.8931 -1.0521 -2.7220
  289SOL     OW  865   2.882   1.491   2.850 -0.6985  0.1906  0.1085
  289SOL    HW1  866   2.880   1.578   2.795  1.8347  0.7585 -1.4336
  289SOL    HW2  867   2.939   1.419   2.813 -0.7328  3.5015  2.6199
  290SOL     OW  868   1.013   2.608   0.594 -0.0407  0.6624 -0.4482
  290SOL    HW1  869   1.030   2.699   0.634 -1.3701 -0.5832  0.4380
  290SOL    HW2  870   1.078   2.539   0.633  1.5848 -2.1676 -1.1597
  291SOL     OW  871   2.087   2.618   3.018 -0.1025 -0.2734  0.3473
  291SOL    HW1  872   2.151   2.614   2.936  0.7586 -0.6776 -3.4395
  291SOL    HW2  873   1.990   2.636   2.987  0.7473 -0.9409 -0.6408
  292SOL     OW  874   0.826   1.215   1.827  0.8585  0.1658 -0.0136
  292SOL    HW1  875   0.931   1.211   1.827  2.2366  0.1926 -2.3760
  292SOL    HW2  876   0.789   1.235   1.733  0.0278  1.7917  0.9501
  293SOL     OW  877   2.391   2.766   1.169 -0.3572 -0.8148  0.3100
  293SOL    HW1  878   2.302   2.812   1.150 -0.6373  0.4137  1.9331
  293SOL    HW2  879   2.464   2.821   1.117  2.1011  1.7785 -0.1246
  294SOL     OW  880   3.008   0.508   2.615  0.4160 -0.2345 -0.2516
  294SOL    HW1  881   2.915   0.553   2.624  0.3201 -1.4703 -2.0181
  294SOL    HW2  882   3.082   0.577   2.625 -3.0777  1.3362 -2.1468
  295SOL     OW  883   1.133   1.853   0.167  0.0553  0.0123  0.4996
  295SOL    HW1  884   1.057   1.791   0.147  1.6025 -0.7596  2.3534
  295SOL    HW2  885   1.104   1.950   0.183  0.5855 -0.6294 -0.9539
  296SOL     OW  886   2.095   1.868   2.613 -0.2421  0.0303 -0.3890
  296SOL    HW1  887   2.065   1.961   2.594  3.6572 -1.5317  0.7078
  296SOL    HW2  888   2.196   1.859   2.588  2.5055  0.3867 -1.5031
  297SOL     OW  889   2.554   0.733   0.091  0.2000 -0.0329 -0.3653
  297SOL    HW1  890   2.550   0.692   3.094  0.9713  2.9428 -1.1628
  297SOL    HW2  891   2.506   0.667   0.158 -4.0826 -3.9859  1.2116
  298SOL     OW  892   0.790   2.181   2.870  0.3398  0.0879 -0.3990
  298SOL    HW1  893   0.801   2.143   2.777 -0.9812  2.6839  1.3046
  298SOL    HW2  894   0.718   2.249   2.865  1.5238 -0.0509 -0.8206
  299SOL     OW  895   1.455   2.728   2.391  0.2275 -0.1154 -0.5258
  299SOL    HW1  896   1.493   2.809   2.434 -2.8752  0.2460  0.3369
  299SOL    HW2  897   1.352   2.730   2.409 -0.8751  0.2160 -2.2929
  300SOL     OW  898   2.803   0.424   0.220 -0.2396  0.4865  0.5611
  300SOL    HW1  899   2.809   0.525   0.199 -2.2398 -0.1519 -0.1257
  300SOL    HW2  900   2.808   0.364   0.140 -3.6513  0.1292  0.2976
  301SOL     OW  901   1.138   1.050   1.475  0.4006 -0.1592 -0.1177
  301SOL    HW1  902   1.223   1.006   1.446  0.8983  0.1936  1.1298
  301SOL    HW2  903   1.131   1.147   1.438  1.3578  1.5440  1.5196
  302SOL     OW  904   0.043   2.068   0.042  0.5656 -0.2035 -0.1228
  302SOL    HW1  905   0.067   2.038   0.136 -1.9276 -1.2543  3.0993
  302SOL    HW2  906   3.084   2.153   0.053 -0.6320  1.2263 -1.6582
  303SOL     OW  907   0.021   2.810   2.811  0.1822 -0.4256  0.0109
  303SOL    HW1  908   0.017   2.893   2.751 -0.1070  0.5906  1.9670
  303SOL    HW2  909   3.093   2.725   2.756 -2.9890 -0.9009 -0.5460
  304SOL     OW  910   2.719   0.792   2.156  0.2215 -0.0948 -0.0497
  304SOL    HW1  911   2.694   0.882   2.201  0.6834 -0.4167  1.2315
  304SOL    HW2  912   2.638   0.728   2.150  0.3044  0.0402 -2.1069
  305SOL     OW  913   0.460   2.716   2.390  0.0371 -0.1905 -0.5292
  305SOL    HW1  914   0.490   2.799   2.343  1.7773 -1.5427  1.7408
  305SOL    HW2  915   0.517   2.692   2.469  0.9534  0.8251 -3.5450
  306SOL     OW  916   2.678   0.977   1.774 -0.3955  0.9804 -0.3149
  306SOL    HW1  917   2.675   1.077   1.745 -1.0413  2.7150 -1.5270
  306SOL    HW2  918   2.585   0.937   1.790  5.8380 -1.7098  1.8311
  307SOL     OW  919   1.752   0.664   1.341  0.3796 -0.0297 -0.0405
  307SOL    HW1  920   1.829   0.720   1.303  0.7395 -1.3434 -1.1772
  307SOL    HW2  921   1.677   0.664   1.266 -2.8872  0.5529 -3.7087
  308SOL     OW  922   2.475   1.858   1.071  0.3200  0.2992  0.0556
  308SOL    HW1  923   2.402   1.857   1.143  0.0855  2.1676  1.1878
  308SOL    HW2  924   2.468   1.776   1.006 -1.6111  0.6375  3.6888
  309SOL     OW  925   2.262   1.570   1.625 -0.1803  0.0833  0.5708
  309SOL    HW1  926   2.263   1.654   1.568  0.8655  1.8705  0.1838
  309SOL    HW2  927   2.231   1.490   1.572  1.3349 -2.2667 -2.6530
  310SOL     OW  928   2.815   1.738   2.772 -0.7344 -0.1482 -0.3883
  310SOL    HW1  929   2.807   1.832   2.809  0.1556 -0.1251 -0.5589
  310SOL    HW2  930   2.728   1.693   2.774 -0.2606  1.1554 -1.5453
  311SOL     OW  931   2.251   2.279   2.717 -0.0620 -0.3125  0.0615
  311SOL    HW1  932   2.169   2.231   2.689  1.6134 -1.0658  0.2362
  311SOL    HW2  933   2.315   2.283   2.641 -1.4056 -2.0659  1.8271
  312SOL     OW  934   2.217   1.907   1.284  0.4176  0.3773  0.2540
  312SOL    HW1  935   2.193   1.808   1.286 -0.4700  1.7969 -1.7926
  312SOL    HW2  936   2.277   1.940   1.361  1.2015 -0.8913  1.7049
  313SOL     OW  937   2.322   2.381   1.140 -0.2511 -0.0936 -0.4512
  313SOL    HW1  938   2.380   2.448   1.089 -2.2911 -1.1169  0.7031
  313SOL    HW2  939   2.381   2.314   1.196  0.5945  0.6271 -0.4101
  314SOL     OW  940   0.859   2.203   0.558 -0.3386  0.1988  0.0266
  314SOL    HW1  941   0.816   2.177   0.647  2.0231  1.4679 -2.3159
  314SOL    HW2  942   0.793   2.190   0.479 -1.1494 -0.4995  0.1112
  315SOL     OW  943   0.603   2.546   2.621  0.2689 -0.1164 -0.3650
  315SOL    HW1  944   0.602   2.475   2.547 -1.5533  0.0122  0.1100
  315SOL    HW2  945   0.687   2.603   2.613  0.1457 -1.0757  0.9954
  316SOL     OW  946   0.094   0.597   0.355 -0.4361  0.0715 -0.0960
  316SOL    HW1  947   3.092   0.583   0.360  2.0001 -0.6044  1.2694
  316SOL    HW2  948   0.132   0.637   0.267  0.0207  1.2149 -1.1435
  317SOL     OW  949   1.178   0.360   0.878  0.2457  0.5849 -0.0239
  317SOL    HW1  950   1.175   0.344   0.979 -1.9066 -1.9876  1.5855
  317SOL    HW2  951   1.141   0.449   0.854  2.9382 -1.8409  0.7672
  318SOL     OW  952   2.979   2.410   0.554 -0.2693  0.4059  0.2854
  318SOL    HW1  953   2.947   2.504   0.528  1.0799  1.8145 -0.9719
  318SOL    HW2  954   2.941   2.367   0.638 -1.6634  0.6918 -1.7597
  319SOL     OW  955   0.397   1.626   2.446 -0.2734  1.0452  0.2449
  319SOL    HW1  956   0.448   1.643   2.531 -0.0656 -1.4999 -2.5504
  319SOL    HW2  957   0.299   1.647   2.449  3.0764  0.3358  0.6889
  320SOL     OW  958   0.781   2.934   2.433  0.6629  0.6597 -0.1904
  320SOL    HW1  959   0.868   2.921   2.385 -0.8943  2.2908  1.7082
  320SOL    HW2  960   0.742   3.025   2.434 -0.2151  1.6782  1.8900
  321SOL     OW  961   1.182   2.757   0.219 -0.4635  0.3894 -0.3378
  321SOL    HW1  962   1.266   2.709   0.239 -1.3758  0.1089  1.6196
  321SOL    HW2  963   1.136   2.711   0.136 -0.6361 -2.2933 -2.5308
  322SOL     OW  964   2.438   1.142   2.056  0.6746 -0.0716  0.2957
  322SOL    HW1  965   2.447   1.233   2.010 -2.0409  1.6181  1.8399
  322SOL    HW2  966   2.358   1.138   2.121  0.5687 -0.5608  0.7525
  323SOL     OW  967   2.537   0.546   0.518 -0.7476  0.0900  0.5972
  323SOL    HW1  968   2.509   0.540   0.420  1.8234 -1.1888 -3.1129
  323SOL    HW2  969   2.530   0.455   0.560 -0.3772 -3.3849  0.6258
  324SOL     OW  970   0.410   2.933   0.043 -0.8039  0.2044  0.1501
  324SOL    HW1  971   0.402   3.034   0.025  0.6665 -0.9342  1.4881
  324SOL    HW2  972   0.386   2.876   3.061 -1.5717  0.3679  1.1676
  325SOL     OW  973   1.648   0.275   2.508  0.3675  0.0552  0.0047
  325SOL    HW1  974   1.649   0.250   2.606 -1.5513  1.6873 -0.2196
  325SOL    HW2  975   1.548   0.271   2.474 -1.9700 -0.2585 -0.6843
  326SOL     OW  976   2.412   2.605   1.409 -0.5680  0.1031 -0.4261
  326SOL    HW1  977   2.331   2.602   1.465  1.5326  2.0442 -1.4863
  326SOL    HW2  978   2.389   2.669   1.329  0.0615 -0.9366  1.6628
  327SOL     OW  979   1.499   0.295   2.993  0.0585  0.5244  0.1365
  327SOL    HW1  980   1.407   0.255   3.013  0.2334  0.1159 -0.5251
  327SOL    HW2  981   1.568   0.257   3.061 -2.7137  0.3115  0.0614
  328SOL     OW  982   2.733   1.366   2.520 -0.4483 -0.9906 -0.0160
  328SOL    HW1  983   2.652   1.405   2.476  1.1376  0.8157  2.3650
  328SOL    HW2  984   2.809   1.433   2.505 -1.1807  1.6728  0.4675
  329SOL     OW  985   1.581   2.988   1.757  0.0589 -0.0725 -0.2022
  329SOL    HW1  986   1.634   2.971   1.672 -1.6165 -1.6808  0.0558
  329SOL    HW2  987   1.491   2.937   1.757  0.7505  0.4175  1.6294
  330SOL     OW  988   2.669   1.224   1.308  0.1948  0.3116 -0.2201
  330SOL    HW1  989   2.726   1.290   1.251  0.5248 -1.5331  0.1090
  330SOL    HW2  990   2.733   1.148   1.338 -1.3380 -0.8406 -0.9155
  331SOL     OW  991   0.399   1.391   1.356  0.1305  0.0527  0.2131
  331SOL    HW1  992   0.435   1.445   1.278 -1.1757  1.4685  1.7050
  331SOL    HW2  993   0.309   1.345   1.330  0.1853  2.8761 -0.2124
  332SOL     OW  994   0.841   0.289   1.430 -0.2952 -0.1702 -0.4755
  332SOL    HW1  995   0.915   0.313   1.361  0.7660  2.9342  1.4294
  332SOL    HW2  996   0.748   0.327   1.404 -0.3005  1.9339  1.6674
  333SOL     OW  997   2.228   2.548   1.861 -0.2079 -0.1680  0.0957
  333SOL    HW1  998   2.200   2.468   1.914 -2.1481  0.1687 -1.2878
  333SOL    HW2  999   2.248   2.624   1.920  0.0671  0.3655 -3.2106
  334SOL     OW 1000   1.188   1.371   1.425 -0.5846  0.0313  0.0819
  334SOL    HW1 1001   1.197   1.471   1.398  0.9883  0.7537  1.9178
  334SOL    HW2 1002   1.278   1.323   1.421 -0.3026 -0.5168  2.1689
  335SOL     OW 1003   0.880   2.886   2.979 -0.1001  0.1850 -0.1940
  335SOL    HW1 1004   0.807   2.874   3.051 -2.9330  1.2616  0.6385
  335SOL    HW2 1005   0.902   2.792   2.940 -0.5292 -4.6149 -3.5253
  336SOL     OW 1006   3.066   2.639   2.017 -0.2274 -0.5744  0.1052
  336SOL    HW1 1007   3.016   2.651   2.101 -0.0019 -1.6034  1.9638
  336SOL    HW2 1008   3.027   2.559   1.962 -1.2841 -0.9926 -0.4791
  337SOL     OW 1009   2.654   1.667   0.568 -0.3393  0.1120 -0.6578
  337SOL    HW1 1010   2.570   1.710   0.605  0.1404 -0.1034  0.4679
  337SOL    HW2 1011   2.644   1.671   0.465 -1.3258  1.3680  2.1865
  338SOL     OW 1012   1.075   2.037   1.193 -0.2389 -0.4690  0.0073
  338SOL    HW1 1013   1.169   2.039   1.225  0.6727  1.6920  0.2087
  338SOL    HW2 1014   1.052   1.950   1.147  3.3069  0.9312 -0.2201
  339SOL     OW 1015   2.952   0.927   2.419 -0.1397 -0.0927  0.0815
  339SOL    HW1 1016   2.972   0.873   2.336 -1.7397  3.4616  0.0440
  339SOL    HW2 1017   3.031   0.942   2.482 -0.4434  4.7053 -1.2384
  340SOL     OW 1018   1.632   2.803   1.143  0.0192 -0.2887 -0.3215
  340SOL    HW1 1019   1.729   2.816   1.161 -3.2708 -2.0903 -1.8035
  340SOL    HW2 1020   1.611   2.788   1.042 -0.2516  2.3580  1.3928
  341SOL     OW 1021   1.726   1.801   1.031  0.1715  0.9129  0.4343
  341SOL    HW1 1022   1.815   1.757   1.016 -2.3970 -1.0017  1.5976
  341SOL    HW2 1023   1.721   1.839   1.124 -0.2712 -1.3769 -0.6545
  342SOL     OW 1024   0.536   1.361   0.898  0.7215 -0.4312  0.2778
  342SOL    HW1 1025   0.450   1.312   0.868 -2.2325 -2.0645 -0.1400
  342SOL    HW2 1026   0.613   1.338   0.835  1.3283 -1.8290 -1.3004
  343SOL     OW 1027   2.395   0.451   1.532 -0.2195 -0.2883 -0.5850
  343SOL    HW1 1028   2.432   0.524   1.593 -1.0638 -2.7146 -2.5054
  343SOL    HW2 1029   2.335   0.502   1.468  2.2165  3.1158  1.6429
  344SOL     OW 1030   2.202   2.382   0.662  0.0032 -0.2066  0.3581
  344SOL    HW1 1031   2.188   2.323   0.742 -0.1485  1.1079  0.0930
  344SOL    HW2 1032   2.296   2.374   0.622 -2.3824  1.7098  1.5187
  345SOL     OW 1033   3.047   2.578   2.687  0.6201 -0.1533  0.5657
  345SOL    HW1 1034   2.979   2.506   2.668  0.6674  0.5301 -1.9721
  345SOL    HW2 1035   0.040   2.554   2.636  2.8191  1.0508  1.7638
  346SOL     OW 1036   0.061   1.207   0.706  0.1340  0.1139  0.1997
  346SOL    HW1 1037   0.012   1.251   0.780 -1.2310 -1.3344 -0.6143
  346SOL    HW2 1038   0.036   1.240   0.612  1.2874 -0.4670  2.7354
  347SOL     OW 1039   1.901   2.850   1.133  0.5689  0.4438  0.8525
  347SOL    HW1 1040   1.991   2.900   1.134 -1.0155  5.0455 -0.8206
  347SOL    HW2 1041   1.915   2.772   1.068  0.8031  0.0806 -1.2001
  348SOL     OW 1042   1.604   1.393   2.276 -0.4750  0.1216  0.5258
  348SOL    HW1 1043   1.528   1.337   2.308  1.3552  3.2715 -0.6992
  348SOL    HW2 1044   1.576   1.463   2.208 -2.5567 -0.8082  3.0889
  349SOL     OW 1045   2.215   1.214   2.205 -0.0361 -0.3778  0.3334
  349SOL    HW1 1046   2.158   1.189   2.290 -2.0570 -1.0235  0.9704
  349SOL    HW2 1047   2.226   1.317   2.198  0.2373 -0.5317  0.3292
  350SOL     OW 1048   3.031   1.992   0.997 -0.3605  0.9279 -0.2811
  350SOL    HW1 1049   0.017   1.927   1.015  3.5711 -2.4237  1.3092
  350SOL    HW2 1050   3.064   2.062   0.934 -1.9350  1.3266 -1.8596
  351SOL     OW 1051   0.730   0.371   2.396  0.2623  0.1318 -0.2172
  351SOL    HW1 1052   0.816   0.389   2.447  0.5210  0.5839 -1.3082
  351SOL    HW2 1053   0.726   0.425   2.311  0.9311 -3.5018  0.8311
  352SOL     OW 1054   0.694   2.805   1.831  0.3899 -0.4729 -0.0007
  352SOL    HW1 1055   0.669   2.830   1.924  3.2052  1.2034 -3.1662
  352SOL    HW2 1056   0.741   2.878   1.777 -1.7291  0.7536 -0.3320
  353SOL     OW 1057   0.575   1.323   2.167 -0.6351  0.3545  0.2739
  353SOL    HW1 1058   0.503   1.258   2.160 -2.2847  1.1125  0.1471
  353SOL    HW2 1059   0.544   1.414   2.187  0.8360 -3.2314 -1.5691
  354SOL     OW 1060   1.939   1.399   0.599  0.1717  0.2247 -0.0768
  354SOL    HW1 1061   1.838   1.382   0.616  1.7098 -0.7352  0.3470
  354SOL    HW2 1062   1.974   1.335   0.529  1.1015  0.6827  0.8812
  355SOL     OW 1063   2.498   0.017   0.810  0.2805 -0.1718 -0.5725
  355SOL    HW1 1064   2.558   3.066   0.743  0.1930  0.1164 -0.2929
  355SOL    HW2 1065   2.550   0.091   0.865  2.4174 -1.1059  3.1535
  356SOL     OW 1066   3.019   1.296   2.715 -0.2489  0.1695 -0.0002
  356SOL    HW1 1067   3.015   1.365   2.640 -1.6747  1.6686 -0.4402
  356SOL    HW2 1068   0.017   1.252   2.714  1.4020  0.6877  0.2502
  357SOL     OW 1069   0.302   2.955   1.636  0.3879 -0.1747  0.2529
  357SOL    HW1 1070   0.284   2.866   1.682  1.6756 -1.5197 -1.5064
  357SOL    HW2 1071   0.251   3.033   1.679 -2.3225  0.9839  1.2730
  358SOL     OW 1072   3.009   1.438   2.473 -0.1337  0.4980  0.3530
  358SOL    HW1 1073   3.045   1.413   2.376  2.6963 -2.6272 -4.3932
  358SOL    HW2 1074   2.971   1.535   2.464 -0.1057  0.4528 -0.8358
  359SOL     OW 1075   2.610   2.516   2.767 -0.7643 -0.3376 -0.4141
  359SOL    HW1 1076   2.641   2.610   2.802  0.4127  2.0856 -0.3508
  359SOL    HW2 1077   2.565   2.468   2.845 -1.8164  0.5913  2.4063
  360SOL     OW 1078   1.499   1.315   1.052 -0.2133  0.2338  0.0657
  360SOL    HW1 1079   1.554   1.235   1.019  0.5915 -1.6119 -0.7413
  360SOL    HW2 1080   1.540   1.401   1.020  2.7353  1.9084  1.3071
  361SOL     OW 1081   2.120   2.534   1.244 -0.0691 -0.2358 -0.1783
  361SOL    HW1 1082   2.193   2.472   1.209  0.8779 -0.1120 -2.0031
  361SOL    HW2 1083   2.085   2.592   1.165 -2.9066  0.5969  2.1018
  362SOL     OW 1084   1.537   1.569   0.964  0.7156  0.4429 -0.7850
  362SOL    HW1 1085   1.591   1.654   0.989  0.3536  2.1972  0.2743
  362SOL    HW2 1086   1.517   1.567   0.864 -1.7214  1.0694  1.5102
  363SOL     OW 1087   2.760   2.070   0.087 -0.1169  0.3728 -0.5975
  363SOL    HW1 1088   2.816   2.134   0.039  1.3250 -2.2824  1.6145
  363SOL    HW2 1089   2.807   2.038   0.172  0.5808  0.1300 -0.5730
  364SOL     OW 1090   2.281   0.260   1.728  0.3701  0.6097 -0.0746
  364SOL    HW1 1091   2.303   0.326   1.652  0.5185  1.6789  1.0558
  364SOL    HW2 1092   2.264   0.304   1.820  0.7600  1.9150  2.6505
  365SOL     OW 1093   2.888   2.587   1.454 -0.3845  0.0300  0.2704
  365SOL    HW1 1094   2.860   2.568   1.555 -0.2098 -0.2131  0.5564
  365SOL    HW2 1095   2.924   2.506   1.401  0.7330 -0.8346 -0.1223
  366SOL     OW 1096   2.958   1.236   0.021  0.2438 -0.4573  0.0965
  366SOL    HW1 1097   2.860   1.238   3.081 -0.6222  1.8544 -1.1351
  366SOL    HW2 1098   2.975   1.158   0.081 -1.5963 -0.6122 -1.8057
  367SOL     OW 1099   2.413   2.528   2.964  0.4746  0.2220 -0.5776
  367SOL    HW1 1100   2.356   2.580   2.898  1.7359 -2.4160  1.3839
  367SOL    HW2 1101   2.419   2.580   3.046 -1.5779  1.0590 -1.9934
  368SOL     OW 1102   0.070   1.890   1.415  0.6562  0.0528  0.2875
  368SOL    HW1 1103   0.138   1.964   1.400 -0.5139 -2.4343  0.5939
  368SOL    HW2 1104   3.095   1.889   1.335 -0.1170 -1.3070 -1.2836
  369SOL     OW 1105   0.548   0.247   0.785 -0.1569  0.2126  0.4700
  369SOL    HW1 1106   0.520   0.306   0.865 -0.1540  0.5530  0.0025
  369SOL    HW2 1107   0.540   0.299   0.696 -0.8580 -1.4087  0.3358
  370SOL     OW 1108   0.844   0.370   0.959  0.1204  0.0762 -0.3128
  370SOL    HW1 1109   0.769   0.436   0.980  0.2943 -0.3826  0.5771
  370SOL    HW2 1110   0.881   0.386   0.868  1.4423  2.6598  1.7334
  371SOL     OW 1111   2.377   1.692   0.198  0.5240 -0.5271  0.3830
  371SOL    HW1 1112   2.454   1.680   0.260 -1.5611  2.5598 -1.3112
  371SOL    HW2 1113   2.393   1.668   0.100 -0.4301 -2.4424  2.0645
  372SOL     OW 1114   0.175   1.168   2.704  0.0733 -0.0252  0.0377
  372SOL    HW1 1115   0.154   1.154   2.800 -0.1972  0.7778  1.0398
  372SOL    HW2 1116   0.246   1.243   2.688  0.7568 -1.8401  1.8736
  373SOL     OW 1117   2.987   0.981   0.451 -0.4721 -0.0249 -0.1172
  373SOL    HW1 1118   2.940   1.043   0.513 -1.2076 -2.4586 -2.0063
  373SOL    HW2 1119   2.942   0.892   0.464 -1.1164  0.7285  0.9279
  374SOL     OW 1120   0.608   2.373   2.848  0.1285 -0.2299  0.7359
  374SOL    HW1 1121   0.584   2.419   2.937  0.8060 -1.9971  0.3785
  374SOL    HW2 1122   0.611   2.445   2.774  2.5321  0.1756 -0.0831
  375SOL     OW 1123   1.203   0.368   0.109 -0.6423 -0.0271 -0.1085
  375SOL    HW1 1124   1.181   0.447   0.049 -0.4862  1.4710 -1.0618
  375SOL    HW2 1125   1.148   0.368   0.190  1.5948  0.8582  0.5360
  376SOL     OW 1126   0.120   2.936   1.937 -0.1738 -0.0862  0.7122
  376SOL    HW1 1127   0.074   2.929   2.031  0.1582  0.3757  0.3077
  376SOL    HW2 1128   0.152   2.844   1.905 -5.1257  2.2175  2.8598
  377SOL     OW 1129   0.012   2.178   2.540  0.1665  0.0480 -0.0177
  377SOL    HW1 1130   0.071   2.257   2.530 -0.1336 -1.6497 -1.2135
  377SOL    HW2 1131   0.065   2.095   2.539 -0.3429  1.6264 -1.2966
  378SOL     OW 1132   1.498   0.914   0.579 -0.3744  0.0326 -0.5625
  378SOL    HW1 1133   1.448   0.986   0.523 -2.6720 -2.5249 -3.3529
  378SOL    HW2 1134   1.571   0.950   0.638  2.4150  0.4050  2.3030
  379SOL     OW 1135   1.329   1.117   0.449 -0.0852 -0.1071 -0.8602
  379SOL    HW1 1136   1.364   1.156   0.363  1.9059 -0.7213  0.7447
  379SOL    HW2 1137   1.262   1.181   0.498  2.2104  0.6271  0.1914
  380SOL     OW 1138   2.126   2.297   2.002  0.0628  0.2120 -0.4063
  380SOL    HW1 1139   2.102   2.356   2.079  0.8074  0.1166 -1.3091
  380SOL    HW2 1140   2.083   2.202   2.024  1.2161 -1.7390  1.4166
  381SOL     OW 1141   0.149   0.973   2.192  0.2827  0.6079 -0.0635
  381SOL    HW1 1142   0.066   0.966   2.130  0.0188 -1.1695 -1.5637
  381SOL    HW2 1143   0.154   0.884   2.244  0.0549  0.6118  0.8625
  382SOL     OW 1144   2.962   2.272   0.034 -0.4470 -1.2763  0.1151
  382SOL    HW1 1145   2.930   2.331   3.050  1.6759 -0.3663 -2.5826
  382SOL    HW2 1146   2.933   2.318   0.121  0.8387 -1.0681  0.4728
  383SOL     OW 1147   1.500   1.146   2.090 -0.1934  0.4953  0.4827
  383SOL    HW1 1148   1.472   1.147   1.995 -0.2207 -3.2892  1.2645
  383SOL    HW2 1149   1.598   1.180   2.114  1.1592 -0.8429 -0.5597
  384SOL     OW 1150   0.841   2.147   2.599 -0.2913  0.0965 -0.0838
  384SOL    HW1 1151   0.775   2.161   2.527  0.3598  0.2835  2.4453
  384SOL    HW2 1152   0.904   2.073   2.582 -1.1262  2.6458  2.0845
  385SOL     OW 1153   2.796   2.030   0.555  0.1262 -0.2445  0.0236
  385SOL    HW1 1154   2.724   2.100   0.537 -2.1166  3.6055  2.4144
  385SOL    HW2 1155   2.801   2.012   0.655  1.4134 -0.7107  1.0682
  386SOL     OW 1156   1.395   0.971   0.162  0.1993 -0.4235  0.1675
  386SOL    HW1 1157   1.486   0.997   0.120 -0.6351 -1.1189  2.7770
  386SOL    HW2 1158   1.409   0.893   0.222  0.9766  0.7057  1.9477
  387SOL     OW 1159   3.095   0.179   1.626 -0.6216 -0.5434  0.0720
  387SOL    HW1 1160   0.065   0.195   1.549  1.1200  0.1765  0.2267
  387SOL    HW2 1161   3.065   0.080   1.640 -1.9586 -2.4569  1.3859
  388SOL     OW 1162   2.758   0.782   1.346  0.2854 -0.0228 -0.3518
  388SOL    HW1 1163   2.739   0.825   1.255  0.9598  0.5969  0.4271
  388SOL    HW2 1164   2.790   0.689   1.328  2.3113  0.4516  1.4838
  389SOL     OW 1165   1.838   1.308   2.547 -0.0258 -0.1279 -0.5181
  389SOL    HW1 1166   1.782   1.217   2.541 -1.2544 -3.8778 -1.0560
  389SOL    HW2 1167   1.793   1.382   2.596 -0.8562 -1.0142 -0.3104
  390SOL     OW 1168   1.935   2.182   0.143  0.0749 -0.0453 -0.2059
  390SOL    HW1 1169   1.953   2.282   0.139  2.2405  1.2009 -1.8421
  390SOL    HW2 1170   1.976   2.125   0.066 -0.1585 -0.3958  0.0870
  391SOL     OW 1171   1.290   2.525   0.954  0.1160  0.2871  0.8457
  391SOL    HW1 1172   1.287   2.592   0.885  0.6245 -0.5612  1.8808
  391SOL    HW2 1173   1.254   2.431   0.928 -0.6906  1.1036 -1.0014
  392SOL     OW 1174   2.613   2.444   1.438 -0.0970  0.2791  0.1635
  392SOL    HW1 1175   2.702   2.488   1.402  0.9702  1.4397 -0.1309
  392SOL    HW2 1176   2.536   2.516   1.433 -3.4263  1.7695  0.9099
  393SOL     OW 1177   1.759   2.377   2.363  0.1535  0.7477  0.0359
  393SOL    HW1 1178   1.681   2.308   2.341 -0.3251 -1.4263 -2.3620
  393SOL    HW2 1179   1.718   2.447   2.421  0.0038  2.3013 -0.5930
  394SOL     OW 1180   0.125   2.900   2.423  0.1446  0.7216 -0.1100
  394SOL    HW1 1181   0.193   2.978   2.418  2.7903 -0.8981  0.2184
  394SOL    HW2 1182   0.048   2.925   2.487  1.4093 -1.6069  1.5305
  395SOL     OW 1183   0.623   1.178   1.378  0.3278 -0.3120  0.7536
  395SOL    HW1 1184   0.553   1.244   1.389  0.4233  0.6011  2.2414
  395SOL    HW2 1185   0.628   1.145   1.284 -1.0382 -0.9463  1.7724
  396SOL     OW 1186   2.045   1.178   2.425  0.0105  0.2864  0.4735
  396SOL    HW1 1187   1.973   1.231   2.472 -0.2527 -2.2406  0.0752
  396SOL    HW2 1188   2.122   1.158   2.491 -0.9464  2.5277  0.6536
  397SOL     OW 1189   2.700   0.412   2.918  0.1777 -0.1886  0.4421
  397SOL    HW1 1190   2.762   0.480   2.965 -2.9870 -2.0773 -2.2634
  397SOL    HW2 1191   2.706   0.417   2.817 -1.7861 -1.8026 -0.4959
  398SOL     OW 1192   1.718   0.088   0.661 -0.1163 -0.4451 -0.2772
  398SOL    HW1 1193   1.769   0.003   0.673 -1.2231 -1.6661 -0.1964
  398SOL    HW2 1194   1.772   0.168   0.629  0.1272  0.7945  0.5519
  399SOL     OW 1195   2.537   2.681   1.827 -0.5281 -0.6410  0.8832
  399SOL    HW1 1196   2.450   2.723   1.800  2.9294  1.3673 -2.4579
  399SOL    HW2 1197   2.598   2.732   1.895  3.1712 -2.5290  3.7248
  400SOL     OW 1198   3.031   2.290   2.163  0.4820  0.0692 -0.1650
  400SOL    HW1 1199   2.950   2.242   2.122 -1.5313 -2.3840 -0.1299
  400SOL    HW2 1200   3.071   2.236   2.242 -1.1362 -1.6648  3.5245
  401SOL     OW 1201   0.607   0.532   0.649 -0.8314  0.1479 -0.3279
  401SOL    HW1 1202   0.570   0.463   0.585 -4.1087  0.8101  0.1222
  401SOL    HW2 1203   0.541   0.606   0.660 -1.0630 -2.6271 -1.7004
  402SOL     OW 1204   0.683   2.828   2.123  0.5658 -0.8754  0.8360
  402SOL    HW1 1205   0.754   2.866   2.178 -1.0868 -0.3398 -1.3170
  402SOL    HW2 1206   0.591   2.867   2.153 -1.0685  0.4136  0.7022
  403SOL     OW 1207   0.280   1.342   1.925  0.0761  0.2446  0.2507
  403SOL    HW1 1208   0.316   1.269   1.863  0.9864 -0.6938 -1.1191
  403SOL    HW2 1209   0.267   1.310   2.019  3.0994  1.7424 -4.3043
  404SOL     OW 1210   2.823   2.406   2.305 -0.0772 -0.1801 -0.1940
  404SOL    HW1 1211   2.887   2.351   2.250  0.9663  0.0873 -0.5665
  404SOL    HW2 1212   2.747   2.352   2.345 -1.2048 -1.9175  0.4476
  405SOL     OW 1213   2.390   0.285   2.744 -0.2296  0.5221 -0.1479
  405SOL    HW1 1214   2.360   0.351   2.818  1.4610 -0.5514 -0.5132
  405SOL    HW2 1215   2.466   0.220   2.775  0.8593 -0.6751  2.3340
  406SOL     OW 1216   1.576   2.304   0.496 -0.5199 -0.2957 -0.1553
  406SOL    HW1 1217   1.490   2.347   0.459 -0.8216 -0.7455  1.7205
  406SOL    HW2 1218   1.618   2.249   0.424  3.4613  1.3877  0.8789
  407SOL     OW 1219   1.786   1.390   0.170  0.5163 -0.3647  0.4100
  407SOL    HW1 1220   1.849   1.463   0.146 -0.1121 -0.8692  0.7654
  407SOL    HW2 1221   1.723   1.429   0.241 -0.9507 -1.7707 -1.3328
  408SOL     OW 1222   0.116   0.707   2.376 -0.5466  0.0890 -0.2345
  408SOL    HW1 1223   0.021   0.688   2.342 -0.3226 -2.3332 -1.0932
  408SOL    HW2 1224   0.146   0.656   2.457  3.5505 -1.1277  0.2490
  409SOL     OW 1225   2.636   1.474   2.992 -0.7432 -0.0582 -0.6577
  409SOL    HW1 1226   2.723   1.499   2.937  4.3090 -2.0062 -2.9907
  409SOL    HW2 1227   2.637   1.370   2.995  0.8424 -0.9013 -3.2292
  410SOL     OW 1228   2.800   1.416   1.176 -0.0572 -0.3155  0.2456
  410SOL    HW1 1229   2.798   1.500   1.112  1.3657  0.9029 -0.9550
  410SOL    HW2 1230   2.871   1.441   1.246  0.4663  0.8789  0.3031
  411SOL     OW 1231   2.870   0.710   0.493  0.0952  0.8086  0.1804
  411SOL    HW1 1232   2.899   0.616   0.506 -0.1227  2.5962 -2.0616
  411SOL    HW2 1233   2.815   0.745   0.572  2.0398  0.4596  0.2888
  412SOL     OW 1234   1.765   0.152   0.342 -0.1220  0.3843 -0.8713
  412SOL    HW1 1235   1.816   0.209   0.410 -4.2209  0.4432 -0.9738
  412SOL    HW2 1236   1.678   0.111   0.381  0.4159 -6.2289  0.5223
  413SOL     OW 1237   1.282   0.395   1.905  0.1127 -0.2385  0.1408
  413SOL    HW1 1238   1.343   0.375   1.984 -1.8861 -0.3546  0.2563
  413SOL    HW2 1239   1.330   0.446   1.831 -0.5680  3.5796  1.8913
  414SOL     OW 1240   0.527   1.068   0.087  0.3616 -0.7446 -0.7882
  414SOL    HW1 1241   0.483   0.984   0.128 -0.5265  1.0233  0.1174
  414SOL    HW2 1242   0.457   1.138   0.059 -2.9915  2.1995 -0.2768
  415SOL     OW 1243   3.096   1.286   0.472 -0.2535  0.6347  0.4039
  415SOL    HW1 1244   3.021   1.254   0.410  0.4411 -1.2743 -2.3921
  415SOL    HW2 1245   0.049   1.365   0.429 -0.9223  1.7181  0.8625
  416SOL     OW 1246   2.226   0.769   0.203  0.1830 -0.1028  0.2531
  416SOL    HW1 1247   2.191   0.776   0.107 -1.5384  0.9801 -1.2890
  416SOL    HW2 1248   2.299   0.838   0.231  1.9615 -1.8383 -1.6321
  417SOL     OW 1249   2.695   2.686   0.131  0.2283  0.4643 -0.3662
  417SOL    HW1 1250   2.782   2.733   0.145 -3.3739  1.5212  2.6366
  417SOL    HW2 1251   2.697   2.602   0.188 -0.2150  1.2353  0.6416
  418SOL     OW 1252   2.802   0.695   0.203  0.0843  0.3099 -0.2689
  418SOL    HW1 1253   2.792   0.725   0.302  0.1224 -1.9120 -2.7231
  418SOL    HW2 1254   2.718   0.718   0.148  0.2708  0.6296  0.9456
  419SOL     OW 1255   0.867   0.435   0.624 -0.1129 -0.1388  0.4876
  419SOL    HW1 1256   0.766   0.457   0.629  1.9390  2.1802  0.5011
  419SOL    HW2 1257   0.884   0.337   0.617 -3.0919  1.3597  0.6989
  420SOL     OW 1258   0.515   1.042   0.709 -1.1073 -0.9628  0.2317
  420SOL    HW1 1259   0.418   1.023   0.704  2.4606  2.6703  0.0654
  420SOL    HW2 1260   0.553   1.001   0.794 -0.4419 -0.7444 -0.4521
  421SOL     OW 1261   0.371   1.862   0.556 -0.0083 -0.4829  0.1448
  421SOL    HW1 1262   0.446   1.880   0.489  1.2771 -1.2631 -1.5904
  421SOL    HW2 1263   0.285   1.826   0.514  1.3482  1.6208  3.3517
  422SOL     OW 1264   2.775   0.297   1.707  0.8857  0.3583  0.5260
  422SOL    HW1 1265   2.861   0.327   1.752 -0.2203 -0.0874 -1.0664
  422SOL    HW2 1266   2.786   0.245   1.621  0.5618 -0.4392 -2.9441
  423SOL     OW 1267   2.081   1.914   0.159 -0.3117 -0.4943  0.6278
  423SOL    HW1 1268   2.175   1.940   0.199  0.4100  1.1983  1.7871
  423SOL    HW2 1269   2.109   1.879   0.066  1.3654 -0.6056 -0.3144
  424SOL     OW 1270   1.607   1.585   2.769 -0.2352  0.0645 -0.3415
  424SOL    HW1 1271   1.606   1.684   2.781 -0.7355 -0.7553 -3.9167
  424SOL    HW2 1272   1.622   1.562   2.668  2.3436 -2.4274 -1.0855
  425SOL     OW 1273   0.384   2.897   2.143  0.3424 -0.3996  0.3927
  425SOL    HW1 1274   0.316   2.825   2.120 -2.1012  0.6282 -0.6855
  425SOL    HW2 1275   0.387   2.960   2.065  1.6062  0.9853  0.3848
  426SOL     OW 1276   2.340   2.897   3.092  0.1637  0.2276 -0.1895
  426SOL    HW1 1277   2.395   2.907   3.006  0.5922  1.5994 -0.7669
  426SOL    HW2 1278   2.262   2.967   3.078 -0.4672  0.1352 -0.0779
  427SOL     OW 1279   0.518   1.577   2.215  0.0855  0.3536 -0.0693
  427SOL    HW1 1280   0.562   1.666   2.194 -0.7498  0.5691  2.4936
  427SOL    HW2 1281   0.487   1.581   2.308  2.1321 -0.7351  1.0304
  428SOL     OW 1282   2.241   1.454   2.528 -0.2310 -0.0659 -0.0881
  428SOL    HW1 1283   2.156   1.479   2.478  1.8575  0.9971  0.1790
  428SOL    HW2 1284   2.238   1.362   2.569 -0.0054  1.4098  0.4914
  429SOL     OW 1285   2.662   3.013   0.579  0.0422 -0.6120 -0.1758
  429SOL    HW1 1286   2.734   3.034   0.511 -0.4690  0.9958  0.0456
  429SOL    HW2 1287   2.578   2.970   0.534 -0.3626 -1.1238 -0.4175
  430SOL     OW 1288   1.707   1.949   2.174  0.1720 -0.0833 -0.8967
  430SOL    HW1 1289   1.611   1.923   2.151  1.2813 -2.0979 -1.2190
  430SOL    HW2 1290   1.753   1.994   2.095 -0.7128 -1.6636  0.2857
  431SOL     OW 1291   3.005   1.939   1.752  0.3385 -0.1460 -0.0635
  431SOL    HW1 1292   2.912   1.937   1.800 -0.3904  2.1899  1.8433
  431SOL    HW2 1293   2.991   1.909   1.659  0.4620  0.8651 -0.9274
  432SOL     OW 1294   1.067   2.272   2.318  0.1722 -0.3776  0.2619
  432SOL    HW1 1295   1.059   2.249   2.218  0.2757  0.1868  0.7641
  432SOL    HW2 1296   0.989   2.239   2.368  1.5729 -0.9870 -1.9332
  433SOL     OW 1297   1.096   2.856   1.007  0.1173  0.1644 -0.3730
  433SOL    HW1 1298   1.158   2.919   0.959 -0.7288 -2.0487  0.9780
  433SOL    HW2 1299   1.143   2.793   1.072  2.9261 -0.6217  2.1623
  434SOL     OW 1300   0.193   2.213   2.280 -0.5486  0.2725  0.3107
  434SOL    HW1 1301   0.231   2.278   2.206 -2.0770  1.8029 -2.1760
  434SOL    HW2 1302   0.208   2.115   2.260 -1.3872 -3.1696  1.4533
  435SOL     OW 1303   0.302   1.209   0.391  0.3566 -0.0128 -0.0108
  435SOL    HW1 1304   0.400   1.232   0.392 -0.5819 -3.4642 -0.7899
  435SOL    HW2 1305   0.257   1.280   0.337  3.1174 -0.7586 -1.3928
  436SOL     OW 1306   0.507   1.932   1.678  0.3771  0.1868  0.5349
  436SOL    HW1 1307   0.584   1.899   1.620  0.3000  0.0987  0.4584
  436SOL    HW2 1308   0.484   2.033   1.666 -0.6996  2.4038  0.8759
  437SOL     OW 1309   1.173   0.517   0.428 -0.0936 -0.4205 -0.0245
  437SOL    HW1 1310   1.112   0.438   0.414  0.5855  1.6022 -0.5912
  437SOL    HW2 1311   1.154   0.592   0.359 -2.6137  0.1647 -0.1430
  438SOL     OW 1312   0.921   1.839   0.798  0.0507 -0.0713 -0.4778
  438SOL    HW1 1313   0.930   1.744   0.754  0.5487 -0.9109  0.6633
  438SOL    HW2 1314   0.989   1.903   0.761 -0.8632 -2.0046 -0.7260
  439SOL     OW 1315   1.351   1.930   1.936 -0.8819  0.2512 -0.0942
  439SOL    HW1 1316   1.407   1.955   1.855  0.2573  0.3446 -0.0046
  439SOL    HW2 1317   1.412   1.894   2.012  0.2339  0.4113  2.4672
  440SOL     OW 1318   1.654   0.159   1.285 -0.7653 -0.2697  0.4119
  440SOL    HW1 1319   1.644   0.170   1.384  0.2444  1.1462 -0.3629
  440SOL    HW2 1320   1.744   0.124   1.254  1.0397  0.3643 -2.5904
  441SOL     OW 1321   0.559   0.072   1.235 -0.1614 -0.0869  0.3448
  441SOL    HW1 1322   0.603   0.161   1.232 -1.4290 -0.8340  0.9935
  441SOL    HW2 1323   0.564   0.026   1.326 -0.1946  0.1076 -0.0141
  442SOL     OW 1324   2.293   2.005   0.523 -0.5547 -0.8964  0.6934
  442SOL    HW1 1325   2.194   1.992   0.542 -4.0563  1.9386 -0.1385
  442SOL    HW2 1326   2.314   2.028   0.429 -1.0834 -0.8737  3.1301
  443SOL     OW 1327   2.741   0.182   2.233  0.0482  0.1396 -0.3784
  443SOL    HW1 1328   2.648   0.224   2.226  1.3414 -2.5175 -1.8761
  443SOL    HW2 1329   2.791   0.180   2.147 -1.4090 -2.5022 -1.2878
  444SOL     OW 1330   1.875   1.324   2.246  0.2325  0.6126  0.1961
  444SOL    HW1 1331   1.778   1.338   2.275  0.9377  0.9906 -2.5156
  444SOL    HW2 1332   1.925   1.247   2.292 -0.9714  1.5718  2.0252
  445SOL     OW 1333   2.715   2.068   1.579 -0.3065  0.5457 -0.0931
  445SOL    HW1 1334   2.639   2.046   1.643 -0.8273 -1.6724  4.0723
  445SOL    HW2 1335   2.781   2.132   1.619 -0.1204 -1.8807  0.6912
  446SOL     OW 1336   0.218   0.989   0.674  0.1914  0.0859 -0.3996
  446SOL    HW1 1337   0.211   0.911   0.614 -0.0017  1.2163  0.3423
  446SOL    HW2 1338   0.157   1.068   0.655 -0.4874 -2.7599 -0.9030
  447SOL     OW 1339   0.848   1.607   0.675 -0.3378 -0.8557  0.0303
  447SOL    HW1 1340   0.888   1.542   0.607  1.1864  2.0967 -1.0766
  447SOL    HW2 1341   0.748   1.628   0.660 -3.9791  2.1121  1.6252
  448SOL     OW 1342   1.171   1.035   1.745 -0.5626  0.2919  0.1141
  448SOL    HW1 1343   1.142   1.045   1.648  1.5569  1.2568 -1.1858
  448SOL    HW2 1344   1.177   0.937   1.769 -0.7737  0.3403 -1.4051
  449SOL     OW 1345   0.150   1.687   3.076 -0.2615  0.5879  0.0567
  449SOL    HW1 1346   0.145   1.586   3.055 -0.9943 -2.0348  0.1412
  449SOL    HW2 1347   0.080   1.742   3.024 -3.5591 -1.7754 -1.6742
  450SOL     OW 1348   2.573   2.314   1.979  0.5326 -0.2905  0.3169
  450SOL    HW1 1349   2.548   2.348   1.886  1.2489  1.0733 -0.7749
  450SOL    HW2 1350   2.585   2.390   2.055 -0.5601  1.8039  1.5656
  451SOL     OW 1351   2.238   0.284   2.193  0.3250 -0.1657  0.2944
  451SOL    HW1 1352   2.177   0.209   2.229  0.5940  2.0562 -0.1864
  451SOL    HW2 1353   2.197   0.326   2.107  0.4868  1.5111  1.4420
  452SOL     OW 1354   0.761   2.904   1.123 -0.6416 -0.3043  0.2139
  452SOL    HW1 1355   0.786   2.851   1.039  0.8381  0.8163 -0.6799
  452SOL    HW2 1356   0.832   2.960   1.159 -1.6009 -0.7062  2.3135
  453SOL     OW 1357   1.230   1.308   0.988 -0.1968 -0.2941 -0.9260
  453SOL    HW1 1358   1.328   1.311   1.020  1.1935 -0.7764 -0.0219
  453SOL    HW2 1359   1.183   1.391   1.016 -1.3412 -1.6142  2.0859
  454SOL     OW 1360   0.267   1.104   1.090 -0.5078 -0.4288 -0.5849
  454SOL    HW1 1361   0.243   1.184   1.157  1.3964  3.8365  2.0504
  454SOL    HW2 1362   0.261   1.141   0.998 -1.8553 -1.8050  2.3674
  455SOL     OW 1363   3.080   2.789   0.336 -0.8407  0.0023  0.4355
  455SOL    HW1 1364   3.031   2.792   0.247  0.3958  0.0368 -1.5814
  455SOL    HW2 1365   0.058   2.858   0.341  1.0811  1.2658 -3.5634
  456SOL     OW 1366   2.482   2.318   0.674  1.1476  0.2332  0.3228
  456SOL    HW1 1367   2.452   2.236   0.730 -2.2657 -1.5423 -0.5215
  456SOL    HW2 1368   2.534   2.288   0.596 -3.2362 -0.8902  0.4677
  457SOL     OW 1369   1.236   0.192   2.978 -0.0745  0.6142  0.2340
  457SOL    HW1 1370   1.148   0.147   2.954 -1.1932  2.2922 -0.9530
  457SOL    HW2 1371   1.222   0.248   3.061 -0.2171 -1.2756  1.9051
  458SOL     OW 1372   2.883   2.677   0.506 -0.0597  0.3578 -0.4829
  458SOL    HW1 1373   2.920   2.720   0.421  1.7171  0.2688 -1.6317
  458SOL    HW2 1374   2.783   2.684   0.519  2.4079 -0.9696 -1.9471
  459SOL     OW 1375   2.505   0.318   2.278 -0.4916 -0.0794 -0.3758
  459SOL    HW1 1376   2.507   0.381   2.359 -2.2128 -0.6224  0.7653
  459SOL    HW2 1377   2.412   0.314   2.233 -4.1338  2.2988 -0.9475
  460SOL     OW 1378   0.137   0.397   0.106  0.4610  0.1360 -0.5433
  460SOL    HW1 1379   0.179   0.485   0.140 -0.4785  1.4472  0.7964
  460SOL    HW2 1380   0.063   0.365   0.178  0.4183 -1.3511 -1.2490
  461SOL     OW 1381   0.557   1.765   1.224 -0.0708 -0.4218 -0.2931
  461SOL    HW1 1382   0.506   1.725   1.303  1.5173 -0.8227  0.6557
  461SOL    HW2 1383   0.642   1.800   1.264 -0.2477  0.4687 -1.4877
  462SOL     OW 1384   3.076   2.820   1.500  0.1440  0.1067 -0.3502
  462SOL    HW1 1385   3.065   2.886   1.579 -1.8450 -0.6438 -1.1202
  462SOL    HW2 1386   2.992   2.764   1.484 -2.7053  1.1209  1.8822
  463SOL     OW 1387   2.682   1.197   3.009  0.1091 -0.1178  0.0919
  463SOL    HW1 1388   2.602   1.138   3.011  0.3363  2.3748 -0.2906
  463SOL    HW2 1389   2.753   1.151   2.950 -2.0389 -0.0840  1.9521
  464SOL     OW 1390   0.296   2.319   1.104  0.4949  0.5508  0.5049
  464SOL    HW1 1391   0.351   2.241   1.068  0.3354 -2.6447  1.0843
  464SOL    HW2 1392   0.330   2.358   1.186 -2.1694 -0.2835 -2.8362
  465SOL     OW 1393   0.420   0.703   0.679 -0.0866  0.0335  0.3328
  465SOL    HW1 1394   0.323   0.727   0.656  0.3968 -0.6740 -1.8179
  465SOL    HW2 1395   0.448   0.717   0.778  1.8859  1.5681  1.0379
  466SOL     OW 1396   1.188   3.027   2.115  0.2510  0.0976 -0.3276
  466SOL    HW1 1397   1.282   2.986   2.116 -0.0150 -1.6554  0.8163
  466SOL    HW2 1398   1.178   3.084   2.201  3.4055 -1.8644  2.8034
  467SOL     OW 1399   0.677   0.505   2.146 -0.1050 -0.6751  0.0114
  467SOL    HW1 1400   0.673   0.475   2.048 -1.6796 -2.9868  2.9354
  467SOL    HW2 1401   0.583   0.542   2.171 -1.2296  0.9723  0.1554
  468SOL     OW 1402   0.310   1.189   2.167 -0.0353 -0.1140  0.1900
  468SOL    HW1 1403   0.260   1.103   2.177  2.5065 -1.8463  0.8593
  468SOL    HW2 1404   0.296   1.254   2.249  0.8788  0.2246 -2.6866
  469SOL     OW 1405   0.586   1.645   0.662 -0.0939 -0.0171  0.5018
  469SOL    HW1 1406   0.561   1.741   0.680 -0.3644  0.1634 -3.9793
  469SOL    HW2 1407   0.497   1.593   0.642 -2.5873 -0.4939  0.1107
  470SOL     OW 1408   2.569   1.828   2.383 -0.0494  0.3169 -0.7040
  470SOL    HW1 1409   2.492   1.828   2.451  1.7095  0.1541  1.4908
  470SOL    HW2 1410   2.541   1.811   2.284  0.9485 -0.0997 -1.6146
  471SOL     OW 1411   1.708   0.538   2.463  0.5191 -0.0949 -0.7056
  471SOL    HW1 1412   1.800   0.550   2.429 -2.5246  3.0628  1.8699
  471SOL    HW2 1413   1.690   0.444   2.497 -1.6876  0.6008 -1.4102
  472SOL     OW 1414   0.594   2.649   1.624  0.2955 -0.0005 -0.3945
  472SOL    HW1 1415   0.682   2.630   1.574 -2.5692  1.4732  0.9024
  472SOL    HW2 1416   0.617   2.719   1.697  0.2665  4.3330 -0.4426
  473SOL     OW 1417   0.304   0.236   2.438 -0.7026 -0.4685 -0.7679
  473SOL    HW1 1418   0.377   0.269   2.501 -0.2687  2.0197 -3.1266
  473SOL    HW2 1419   0.320   0.141   2.403 -1.0119 -0.4236  1.9213
  474SOL     OW 1420   1.934   0.092   1.222  0.0082  0.0657  0.3470
  474SOL    HW1 1421   1.963   0.183   1.181  1.6215  0.5525 -1.4268
  474SOL    HW2 1422   1.902   0.030   1.154  2.9185  1.7980  1.9285
  475SOL     OW 1423   2.076   0.987   0.905  0.2770 -0.4246 -0.0584
  475SOL    HW1 1424   2.001   0.989   0.832 -1.2486  1.1932 -0.4869
  475SOL    HW2 1425   2.070   1.070   0.968  3.2413 -0.7289  2.4315
  476SOL     OW 1426   0.655   0.962   0.951  0.2077 -0.5524 -0.1016
  476SOL    HW1 1427   0.635   1.041   1.010  2.5507 -0.1043 -1.3460
  476SOL    HW2 1428   0.740   0.914   0.986  1.0622 -2.5909 -2.0396
  477SOL     OW 1429   1.319   2.361   0.482  0.1946 -0.7333 -0.5389
  477SOL    HW1 1430   1.248   2.299   0.443 -1.5673  2.7482  1.2222
  477SOL    HW2 1431   1.306   2.361   0.586 -1.9164  0.3096  1.2465
  478SOL     OW 1432   0.153   2.397   2.469  0.2715 -0.3205  1.0307
  478SOL    HW1 1433   0.171   2.497   2.447  0.6108 -1.0290 -1.4278
  478SOL    HW2 1434   0.159   2.338   2.382  2.1437 -3.9161 -0.4423
  479SOL     OW 1435   2.539   0.361   1.313 -0.2516 -0.0222 -0.5313
  479SOL    HW1 1436   2.504   0.380   1.408  0.1560  1.7430  2.0699
  479SOL    HW2 1437   2.461   0.335   1.246 -0.2677 -0.5092 -0.2927
  480SOL     OW 1438   0.393   2.340   0.557  0.2495  0.0189 -0.1519
  480SOL    HW1 1439   0.440   2.345   0.466  0.3810  0.3643  2.4669
  480SOL    HW2 1440   0.293   2.334   0.541  2.9706  0.6943  1.6973
  481SOL     OW 1441   2.182   2.278   1.575 -0.3800 -0.1198  0.0491
  481SOL    HW1 1442   2.211   2.374   1.579 -1.2896 -1.4115  2.1239
  481SOL    HW2 1443   2.080   2.280   1.575  0.1851 -0.8101  1.5390
  482SOL     OW 1444   1.321   2.830   2.757  0.6049  0.2063 -0.8833
  482SOL    HW1 1445   1.398   2.783   2.806  2.6339 -1.4950  1.1229
  482SOL    HW2 1446   1.333   2.929   2.769  3.1220 -1.9942 -1.8383
  483SOL     OW 1447   0.839   2.249   1.818  0.1357 -0.1041  0.4616
  483SOL    HW1 1448   0.858   2.335   1.764  1.4938  1.7783 -2.3628
  483SOL    HW2 1449   0.796   2.181   1.750  0.7549 -0.3702 -1.1739
  484SOL     OW 1450   1.337   0.316   1.473 -0.1986 -0.0019 -0.5304
  484SOL    HW1 1451   1.354   0.418   1.473  1.0022  0.1382 -1.3115
  484SOL    HW2 1452   1.427   0.268   1.473  2.8641  0.7063  1.4050
  485SOL     OW 1453   1.679   0.772   2.650  0.4626 -0.3627 -0.3735
  485SOL    HW1 1454   1.770   0.814   2.623  0.9701  2.1626  1.0973
  485SOL    HW2 1455   1.650   0.698   2.585 -1.9920 -1.4178  2.6518
  486SOL     OW 1456   2.224   0.066   1.220  0.0166  0.4037 -0.0254
  486SOL    HW1 1457   2.134   0.090   1.252  1.7365  0.3840 -1.4305
  486SOL    HW2 1458   2.298   0.049   1.288  0.7154  0.4205 -1.0376
  487SOL     OW 1459   0.694   2.069   1.140 -0.3211 -0.1513 -0.3246
  487SOL    HW1 1460   0.758   2.138   1.101 -0.7168  0.3492  0.1649
  487SOL    HW2 1461   0.605   2.076   1.092  1.1782 -4.3987 -0.1901
  488SOL     OW 1462   2.413   2.076   0.008  0.5677 -0.3388 -0.2566
  488SOL    HW1 1463   2.359   2.155   3.058 -0.8037  0.4612 -0.7380
  488SOL    HW2 1464   2.453   2.008   3.037  2.1904 -1.5747 -0.4714
  489SOL     OW 1465   2.099   2.942   0.610  0.1059  0.6345 -0.4484
  489SOL    HW1 1466   2.142   2.855   0.583 -0.0554  1.6010 -0.6128
  489SOL    HW2 1467   2.061   2.984   0.529  2.6754 -0.6070  2.1663
  490SOL     OW 1468   0.804   1.707   3.035  0.1078 -0.2777 -0.5948
  490SOL    HW1 1469   0.891   1.703   2.988 -0.7506 -1.6729 -0.2416
  490SOL    HW2 1470   0.804   1.662   0.031  0.3718 -2.5472 -1.4144
  491SOL     OW 1471   0.243   2.123   1.422  0.0647 -0.2190 -0.1071
  491SOL    HW1 1472   0.175   2.204   1.420 -0.9556 -0.1544 -0.6467
  491SOL    HW2 1473   0.309   2.138   1.497  4.0905  0.8447  0.2605
  492SOL     OW 1474   0.711   1.506   1.706  0.0853 -0.9137  0.4760
  492SOL    HW1 1475   0.788   1.498   1.638  0.6019 -1.0193  1.2801
  492SOL    HW2 1476   0.616   1.498   1.662  0.6442 -1.2018 -2.5824
  493SOL     OW 1477   2.473   1.625   0.886 -0.1566  0.5314 -0.4140
  493SOL    HW1 1478   2.451   1.679   0.801 -1.7698  1.3372 -2.0008
  493SOL    HW2 1479   2.482   1.529   0.863  1.9448  0.9954 -0.0150
  494SOL     OW 1480   2.831   1.752   0.801  0.0956 -0.1849 -0.2858
  494SOL    HW1 1481   2.751   1.751   0.742  0.2829 -0.8543  0.6754
  494SOL    HW2 1482   2.912   1.717   0.757 -2.1057  1.4036  1.3595
  495SOL     OW 1483   2.460   2.870   0.462 -0.1716  0.1279  0.2438
  495SOL    HW1 1484   2.449   2.930   0.376 -3.6999  2.0114 -1.5531
  495SOL    HW2 1485   2.373   2.831   0.499  1.0357 -2.4988 -0.1454
  496SOL     OW 1486   2.457   0.001   1.415 -0.2858 -0.5505  0.4277
  496SOL    HW1 1487   2.469   2.998   1.426 -1.3698 -0.4854 -0.1637
  496SOL    HW2 1488   2.443   0.041   1.507 -1.8923 -0.7350 -0.3802
  497SOL     OW 1489   2.368   1.236   2.924 -0.3387  0.2755  0.0799
  497SOL    HW1 1490   2.427   1.300   2.882 -1.2283 -1.6227 -0.2282
  497SOL    HW2 1491   2.410   1.141   2.926  0.7706 -1.0709 -1.4958
  498SOL     OW 1492   2.954   1.888   1.237  0.1357 -0.1536 -0.1673
  498SOL    HW1 1493   2.860   1.845   1.232 -3.0498 -0.7493  0.8979
  498SOL    HW2 1494   2.979   1.939   1.145 -0.3451  3.3361 -3.9267
  499SOL     OW 1495   0.931   2.437   2.759  0.0515 -0.2840  0.0748
  499SOL    HW1 1496   1.028   2.460   2.723  0.6104  1.4876  2.0361
  499SOL    HW2 1497   0.916   2.337   2.757 -2.8394  0.3965  0.5513
  500SOL     OW 1498   1.622   1.438   0.370 -0.5733  1.2163  0.0397
  500SOL    HW1 1499   1.553   1.376   0.327 -0.5804 -1.6383  0.3433
  500SOL    HW2 1500   1.637   1.416   0.472  0.2650 -2.1889  2.3775
  501SOL     OW 1501   1.585   0.158   1.554 -0.7354  0.1171 -0.3407
  501SOL    HW1 1502   1.577   0.153   1.659 -0.8928 -0.7590  2.5476
  501SOL    HW2 1503   1.605   0.064   1.524 -1.5518  3.2178 -0.4149
  502SOL     OW 1504   2.489   0.667   1.687  0.1508  0.2005 -0.3159
  502SOL    HW1 1505   2.591   0.648   1.695  3.5886  0.3732 -2.6473
  502SOL    HW2 1506   2.440   0.650   1.777 -1.4407  3.0216  2.8351
  503SOL     OW 1507   2.444   1.509   2.189 -0.3187  0.2370 -0.2361
  503SOL    HW1 1508   2.347   1.481   2.174 -0.7551 -0.4342 -2.2565
  503SOL    HW2 1509   2.487   1.479   2.096 -0.1296 -1.3525 -0.2126
  504SOL     OW 1510   1.100   1.238   1.889  0.4523 -0.3627  1.2814
  504SOL    HW1 1511   1.124   1.208   1.982  0.2102 -1.3666 -0.1423
  504SOL    HW2 1512   1.130   1.160   1.829 -0.3679 -2.2106  0.1153
  505SOL     OW 1513   0.308   0.416   1.530  0.2373  0.5324  0.5847
  505SOL    HW1 1514   0.339   0.494   1.477 -0.3869  0.3778  1.8249
  505SOL    HW2 1515   0.322   0.430   1.630 -0.4858 -1.5268 -1.9563
  506SOL     OW 1516   0.186   0.124   0.143  0.3341  0.0986 -0.3009
  506SOL    HW1 1517   0.184   0.229   0.146 -0.7667  0.9333  1.7720
  506SOL    HW2 1518   0.228   0.091   0.055 -1.0896  2.7540  2.1123
  507SOL     OW 1519   0.391   2.635   3.090 -0.1757 -0.2397  0.0579
  507SOL    HW1 1520   0.391   2.631   0.096  1.1666 -0.8294  0.1881
  507SOL    HW2 1521   0.308   2.593   3.047 -1.2151 -0.4313  1.0033
  508SOL     OW 1522   0.965   0.451   2.096  0.5523  0.2600 -0.1172
  508SOL    HW1 1523   0.867   0.476   2.116 -2.3775 -0.0521 -0.0680
  508SOL    HW2 1524   0.994   0.364   2.145  1.1489 -2.1292  0.5038
  509SOL     OW 1525   1.536   2.197   1.199  0.2033 -0.6403  0.1982
  509SOL    HW1 1526   1.585   2.209   1.112  2.6217  1.2230  0.3735
  509SOL    HW2 1527   1.536   2.277   1.260 -0.7288 -1.4549  1.9304
  510SOL     OW 1528   2.886   1.148   1.493  0.4559  0.0560  0.2705
  510SOL    HW1 1529   2.824   1.188   1.562  2.5482 -0.1438 -1.8883
  510SOL    HW2 1530   2.906   1.055   1.519 -0.7434 -0.7303 -1.0384
  511SOL     OW 1531   1.341   1.972   1.235 -0.2120  0.6097  0.0339
  511SOL    HW1 1532   1.396   2.058   1.239  0.4836 -2.5095  0.6740
  511SOL    HW2 1533   1.368   1.904   1.165 -0.8277  0.0933  1.5982
  512SOL     OW 1534   2.966   1.552   0.450  0.2224 -0.3748 -0.0621
  512SOL    HW1 1535   2.885   1.511   0.494 -0.7455  0.0149 -2.6332
  512SOL    HW2 1536   2.996   1.507   0.365  1.6474  1.0305  2.5453
  513SOL     OW 1537   0.152   1.418   2.972  0.2512  0.2129 -0.6039
  513SOL    HW1 1538   0.103   1.446   2.887  1.2309  1.0630  0.9644
  513SOL    HW2 1539   0.118   1.329   3.010 -0.5458 -2.5869 -1.8046
  514SOL     OW 1540   2.267   2.275   2.400 -0.1602  0.4979 -0.7339
  514SOL    HW1 1541   2.186   2.216   2.392  0.5323 -1.2043 -3.2814
  514SOL    HW2 1542   2.345   2.234   2.349  1.6567 -1.2217  1.3742
  515SOL     OW 1543   2.438   0.904   0.789 -0.2114  0.5631 -0.2425
  515SOL    HW1 1544   2.342   0.929   0.767 -0.2191 -0.0483  0.5371
  515SOL    HW2 1545   2.474   0.878   0.695  0.1039  0.4176  2.8476
  516SOL     OW 1546   2.686   2.464   0.280  0.5825 -0.9728  0.1614
  516SOL    HW1 1547   2.610   2.402   0.246 -0.7880  0.6754  1.2634
  516SOL    HW2 1548   2.770   2.415   0.318 -0.0303 -0.4714 -2.1077
  517SOL     OW 1549   0.576   1.586   2.944 -0.3504  0.1004  0.1983
  517SOL    HW1 1550   0.648   1.625   3.002 -2.6732 -1.9770  1.7327
  517SOL    HW2 1551   0.492   1.571   3.005  2.5464 -0.3299  1.7922
  518SOL     OW 1552   2.871   0.155   2.008 -1.1141 -0.0928  0.1423
  518SOL    HW1 1553   2.818   0.083   1.955 -0.9354 -1.5965  0.9248
  518SOL    HW2 1554   2.910   0.225   1.936  2.2262  1.2912 -5.6580
  519SOL     OW 1555   1.632   0.974   3.095  0.6240  0.0544  0.1258
  519SOL    HW1 1556   1.579   0.932   3.018  0.1872  0.9136 -0.3761
  519SOL    HW2 1557   1.692   0.905   0.038 -1.6668  0.4533  0.6134
  520SOL     OW 1558   2.870   2.781   2.218  1.1928  0.0075 -0.6240
  520SOL    HW1 1559   2.942   2.843   2.178 -0.5427  0.2601 -0.1893
  520SOL    HW2 1560   2.895   2.757   2.318 -0.1913 -1.1202  1.7624
  521SOL     OW 1561   0.238   1.967   2.156 -0.1282  1.3205 -0.8891
  521SOL    HW1 1562   0.223   1.972   2.055  0.9119 -1.3378  0.3711
  521SOL    HW2 1563   0.339   1.986   2.171  2.7300 -0.6432 -0.7053
  522SOL     OW 1564   1.306   2.983   1.761 -0.3314 -0.0698 -0.2937
  522SOL    HW1 1565   1.291   3.054   1.833 -2.7616  0.2049 -0.3730
  522SOL    HW2 1566   1.246   2.902   1.778  2.0155 -0.8865 -0.6510
  523SOL     OW 1567   2.186   2.228   0.906  0.0828 -0.2590 -0.5808
  523SOL    HW1 1568   2.260   2.168   0.867  0.9586  0.1598 -1.3984
  523SOL    HW2 1569   2.224   2.274   0.986  1.1312 -0.1531 -3.0353
  524SOL     OW 1570   1.089   2.080   0.647  0.6518 -0.1759 -1.0279
  524SOL    HW1 1571   1.130   2.157   0.707 -1.3671  1.4092  2.0259
  524SOL    HW2 1572   1.002   2.118   0.608 -0.3501  0.4626  1.6346
  525SOL     OW 1573   2.694   0.462   0.765 -0.0958  0.6646 -0.0244
  525SOL    HW1 1574   2.654   0.551   0.779  2.4022 -5.9869  1.0521
  525SOL    HW2 1575   2.754   0.452   0.680 -2.3936 -1.2128 -2.5688
  526SOL     OW 1576   1.531   3.019   0.567 -0.5262 -0.3926 -0.0187
  526SOL    HW1 1577   1.586   3.088   0.622  1.1812 -0.5367  1.9704
  526SOL    HW2 1578   1.440   3.041   0.592  3.0286 -0.4760  0.0633
  527SOL     OW 1579   2.111   1.652   1.283 -0.0770 -0.0337 -0.1340
  527SOL    HW1 1580   2.043   1.687   1.352 -0.9750 -1.5347 -0.4053
  527SOL    HW2 1581   2.080   1.651   1.186  1.3050 -2.5348  0.5513
  528SOL     OW 1582   2.968   2.621   2.434 -0.3306  0.5314  0.0026
  528SOL    HW1 1583   2.978   2.624   2.535  1.6849  0.5921 -0.3016
  528SOL    HW2 1584   2.908   2.537   2.415 -1.3357  0.1786  2.2341
  529SOL     OW 1585   1.009   1.202   2.389  0.0148  0.2325 -0.6396
  529SOL    HW1 1586   1.047   1.193   2.482  0.2801 -1.4176 -0.7657
  529SOL    HW2 1587   0.919   1.156   2.389 -1.9225  0.8031 -2.3757
  530SOL     OW 1588   1.907   0.811   2.291 -0.3861  0.1127 -0.1931
  530SOL    HW1 1589   1.836   0.883   2.266 -1.0420  1.0300 -0.9609
  530SOL    HW2 1590   1.930   0.815   2.391 -0.5276 -0.8088 -1.0246
  531SOL     OW 1591   0.112   0.983   0.091 -0.4385  0.6544 -0.1443
  531SOL    HW1 1592   0.159   0.965   0.179 -0.2849 -0.7173  0.5969
  531SOL    HW2 1593   0.018   1.009   0.109  3.6259 -1.2864  2.1809
  532SOL     OW 1594   1.684   1.349   0.635 -0.2089 -0.0398 -0.4600
  532SOL    HW1 1595   1.649   1.264   0.674  0.9404 -0.5504 -0.5439
  532SOL    HW2 1596   1.633   1.435   0.667  0.6520 -0.4308  1.9548
  533SOL     OW 1597   0.161   0.631   2.626  0.1916 -0.3030  0.7471
  533SOL    HW1 1598   0.127   0.638   2.723  2.2913  0.6026 -2.2350
  533SOL    HW2 1599   0.258   0.598   2.614  2.3393  0.3461 -0.5869
  534SOL     OW 1600   1.003   0.420   2.438  0.1611 -0.4267  0.1280
  534SOL    HW1 1601   0.996   0.359   2.359 -2.3606  0.8857 -0.9459
  534SOL    HW2 1602   1.075   0.384   2.500  1.2752 -2.4273 -0.7926
  535SOL     OW 1603   0.660   0.689   3.030  0.3748 -0.0617  0.0381
  535SOL    HW1 1604   0.741   0.675   2.975 -1.7777 -1.9872  1.0197
  535SOL    HW2 1605   0.573   0.700   2.974 -1.7195 -0.4455  1.3492
  536SOL     OW 1606   0.632   0.883   2.724  0.1977  0.4423  0.1855
  536SOL    HW1 1607   0.635   0.864   2.624  1.1005 -0.2770  0.4283
  536SOL    HW2 1608   0.607   0.982   2.745  2.4318  0.9161 -1.2254
  537SOL     OW 1609   1.351   2.946   1.514  0.1508 -0.6688 -0.2613
  537SOL    HW1 1610   1.349   2.971   1.613 -1.5589  0.4406  4.8905
  537SOL    HW2 1611   1.295   3.010   1.462 -1.3513 -0.5345  0.4010
  538SOL     OW 1612   0.658   2.513   3.088  0.3940 -0.5321  0.2280
  538SOL    HW1 1613   0.577   2.580   0.014 -2.8149  1.6071 -1.1781
  538SOL    HW2 1614   0.742   2.564   3.060  0.9670 -1.0533  1.9591
  539SOL     OW 1615   2.700   1.238   1.710  0.7101  0.1443  0.1847
  539SOL    HW1 1616   2.639   1.319   1.696 -0.2985  1.4889 -0.2181
  539SOL    HW2 1617   2.776   1.261   1.774  1.0238 -0.9673 -2.6701
  540SOL     OW 1618   1.911   1.701   1.448  0.3297  0.1920 -0.1210
  540SOL    HW1 1619   1.904   1.619   1.508 -2.2237  0.5452 -0.8917
  540SOL    HW2 1620   1.923   1.786   1.504 -1.9341  0.1034 -1.3810
  541SOL     OW 1621   0.718   1.760   1.602 -0.3521  0.4431  0.6515
  541SOL    HW1 1622   0.760   1.680   1.557 -1.1365 -1.2603  0.9410
  541SOL    HW2 1623   0.755   1.775   1.696 -1.8815 -1.7096 -2.3276
  542SOL     OW 1624   1.765   1.205   1.915 -0.1533  0.0678 -0.1982
  542SOL    HW1 1625   1.718   1.202   1.823  0.9093 -0.5470  0.6795
  542SOL    HW2 1626   1.769   1.113   1.960 -0.8703  1.4602 -3.9442
  543SOL     OW 1627   1.043   0.595   0.796 -0.2310  0.0852  0.2569
  543SOL    HW1 1628   1.060   0.684   0.837 -1.0806 -0.9762 -0.0198
  543SOL    HW2 1629   0.989   0.594   0.709  1.8989 -3.1924  1.1595
  544SOL     OW 1630   2.038   1.693   2.201  0.0269 -0.6915 -0.2399
  544SOL    HW1 1631   2.069   1.689   2.101  1.0333 -1.5739 -1.7051
  544SOL    HW2 1632   2.081   1.779   2.244  1.3509  1.9328  0.9515
  545SOL     OW 1633   1.651   1.663   1.422 -0.6135  0.5670 -0.1687
  545SOL    HW1 1634   1.751   1.683   1.425  1.3329 -2.7353  1.1386
  545SOL    HW2 1635   1.633   1.565   1.419 -0.4537  1.4669  0.3721
  546SOL     OW 1636   0.348   0.091   3.035  0.1129 -0.5063  0.2117
  546SOL    HW1 1637   0.320   0.073   2.940  1.0223 -0.5521  0.9773
  546SOL    HW2 1638   0.410   0.174   3.031  0.5123 -1.0646  1.4020
  547SOL     OW 1639   2.097   0.711   3.065 -0.1874 -0.3561  0.2174
  547SOL    HW1 1640   2.012   0.732   3.015 -0.4367 -0.6840  0.2976
  547SOL    HW2 1641   2.099   0.608   3.083 -0.9336 -1.6562 -2.8372
  548SOL     OW 1642   2.326   1.959   2.127  0.3240 -0.3406 -0.1288
  548SOL    HW1 1643   2.248   1.951   2.066 -0.2641 -1.6341  0.7088
  548SOL    HW2 1644   2.400   1.892   2.115  2.7478 -0.3378  0.0921
  549SOL     OW 1645   2.296   2.926   0.840  0.1302 -0.2654 -0.5152
  549SOL    HW1 1646   2.314   2.836   0.802 -0.2730 -0.7641 -0.3845
  549SOL    HW2 1647   2.385   2.979   0.840  1.2234 -1.3180 -0.8679
  550SOL     OW 1648   2.184   1.481   0.185  0.2761 -0.2002 -0.0597
  550SOL    HW1 1649   2.091   1.517   0.187 -0.0099 -4.1097  0.0837
  550SOL    HW2 1650   2.246   1.555   0.218  2.9055  1.5469 -1.4784
  551SOL     OW 1651   1.604   0.137   1.862  0.0723 -0.2837  0.0506
  551SOL    HW1 1652   1.627   0.140   1.962 -2.7863  1.4448 -2.3899
  551SOL    HW2 1653   1.582   0.046   1.829  0.6351  1.0013  1.1973
  552SOL     OW 1654   2.905   2.504   2.987  0.1132  0.3676 -0.0255
  552SOL    HW1 1655   2.987   2.546   3.028 -2.3770  0.0537  1.2728
  552SOL    HW2 1656   2.840   2.577   2.957  2.2749  0.1589 -1.4428
  553SOL     OW 1657   0.867   3.011   0.769  0.1560  0.2975  0.2276
  553SOL    HW1 1658   0.836   3.074   0.840  0.5583 -0.3768 -0.3258
  553SOL    HW2 1659   0.782   2.988   0.710 -6.1376  0.1859 -1.4357
  554SOL     OW 1660   1.900   2.201   1.594  0.5948  0.2812  0.3100
  554SOL    HW1 1661   1.850   2.247   1.516  2.9405 -0.1441 -1.7933
  554SOL    HW2 1662   1.878   2.243   1.682 -1.7273 -2.2947 -1.2885
  555SOL     OW 1663   1.262   2.236   1.488  0.5504 -0.0728  0.5866
  555SOL    HW1 1664   1.264   2.323   1.432  0.2482 -0.9933 -0.0379
  555SOL    HW2 1665   1.167   2.198   1.478  3.5786 -1.5892 -0.3188
  556SOL     OW 1666   1.680   1.862   0.400 -0.0180  0.1084  0.0843
  556SOL    HW1 1667   1.632   1.781   0.360  0.7979 -0.7603  0.9596
  556SOL    HW2 1668   1.650   1.869   0.497  0.5110 -0.6751 -1.2278
  557SOL     OW 1669   1.317   2.197   2.008 -0.5604  0.0001 -0.5930
  557SOL    HW1 1670   1.351   2.101   1.994  1.0663  0.1964 -3.3260
  557SOL    HW2 1671   1.220   2.200   2.032  4.3073  1.0011 -1.0366
  558SOL     OW 1672   3.006   0.330   1.834  0.3045 -0.0507  0.0828
  558SOL    HW1 1673   3.055   0.415   1.864 -1.8963  3.7256 -0.0794
  558SOL    HW2 1674   3.053   0.286   1.757 -0.7003  0.5265  0.1183
  559SOL     OW 1675   2.491   2.855   1.489  0.7588  0.3587 -0.8485
  559SOL    HW1 1676   2.468   2.763   1.460 -0.8068  0.8421  2.0596
  559SOL    HW2 1677   2.588   2.875   1.504  1.0269  1.7697  2.6355
  560SOL     OW 1678   0.672   2.856   0.069 -0.0315 -0.0845 -0.3180
  560SOL    HW1 1679   0.576   2.893   0.047 -1.5747 -0.9200 -1.5850
  560SOL    HW2 1680   0.696   2.862   0.169  0.2146 -0.9136 -0.3882
  561SOL     OW 1681   1.178   0.906   0.450  0.4445  0.2400  0.2817
  561SOL    HW1 1682   1.122   0.906   0.362 -2.8825 -1.3087  0.0858
  561SOL    HW2 1683   1.256   0.967   0.438 -1.1410 -0.7674 -1.6019
  562SOL     OW 1684   0.860   0.628   2.505  0.4764  0.9312  0.1232
  562SOL    HW1 1685   0.887   0.665   2.595  1.7315  1.5223 -0.7451
  562SOL    HW2 1686   0.917   0.548   2.485 -0.7843 -0.8734  0.0273
  563SOL     OW 1687   2.134   2.559   2.531 -0.0369 -0.4101 -0.2334
  563SOL    HW1 1688   2.185   2.472   2.554  1.2016 -2.1974 -0.2998
  563SOL    HW2 1689   2.035   2.557   2.565  1.9221  2.3299 -1.3074
  564SOL     OW 1690   0.178   1.462   0.282  0.0366  0.7104  0.0553
  564SOL    HW1 1691   0.211   1.555   0.298 -0.0874 -1.6492 -1.0339
  564SOL    HW2 1692   0.087   1.457   0.241 -1.0826 -2.7017  0.2997
  565SOL     OW 1693   1.485   3.068   2.754  0.5043 -0.7702 -0.0403
  565SOL    HW1 1694   1.504   3.021   2.667 -1.3477  0.7756 -0.4730
  565SOL    HW2 1695   1.530   0.065   2.750 -0.2543 -0.5440 -1.0521
  566SOL     OW 1696   1.823   2.941   2.570 -0.0004  0.1924 -0.4445
  566SOL    HW1 1697   1.871   2.884   2.501 -2.0657 -0.5792 -1.0420
  566SOL    HW2 1698   1.843   2.921   2.664 -1.6657 -1.3392 -0.0922
  567SOL     OW 1699   2.485   1.324   0.880  0.1152 -0.7356 -0.7740
  567SOL    HW1 1700   2.515   1.231   0.904 -1.7700  0.4190  0.6185
  567SOL    HW2 1701   2.386   1.340   0.898 -1.0779 -0.6031 -0.5490
  568SOL     OW 1702   1.960   1.686   2.988  0.6289 -0.3071 -0.1114
  568SOL    HW1 1703   1.907   1.608   2.955  1.2023  1.9580 -1.9636
  568SOL    HW2 1704   1.935   1.766   2.930 -3.2596 -1.7341  0.4284
  569SOL     OW 1705   2.351   1.816   2.573  0.2400 -0.2738  0.0902
  569SOL    HW1 1706   2.406   1.898   2.602 -0.3618  0.0540  0.2348
  569SOL    HW2 1707   2.329   1.758   2.655 -1.0279  2.6784 -0.4574
  570SOL     OW 1708   3.020   2.417   1.885  0.0009 -0.5040 -0.3877
  570SOL    HW1 1709   3.058   2.372   1.971  2.0963 -2.5085  0.5301
  570SOL    HW2 1710   3.055   2.382   1.794  0.5540  0.3205 -1.6335
  571SOL     OW 1711   0.026   0.313   2.444 -0.1883  0.0243 -0.1703
  571SOL    HW1 1712   0.129   0.298   2.420  0.8319 -0.0238 -2.9079
  571SOL    HW2 1713   0.005   0.396   2.500 -4.1188  2.4395 -0.4452
  572SOL     OW 1714   1.177   1.639   0.743  0.4777  0.1459  0.1057
  572SOL    HW1 1715   1.221   1.583   0.672 -1.3545  0.9237 -1.0131
  572SOL    HW2 1716   1.137   1.581   0.812  0.7618  1.8617 -3.2498
  573SOL     OW 1717   0.887   0.148   0.147 -0.4160  0.2581 -0.1135
  573SOL    HW1 1718   0.912   0.119   0.052  1.8308  0.8021  0.6102
  573SOL    HW2 1719   0.965   0.207   0.195  1.4961  0.9805  2.8054
  574SOL     OW 1720   0.671   0.045   0.591 -0.4315  0.4424 -0.3414
  574SOL    HW1 1721   0.654   0.051   0.489  1.1398  0.9927 -0.6140
  574SOL    HW2 1722   0.624   0.116   0.649  0.6348 -0.0862 -0.0914
  575SOL     OW 1723   0.089   1.406   1.713 -0.1124 -0.1473  0.3416
  575SOL    HW1 1724   0.086   1.496   1.661  0.3390  3.5262  0.0820
  575SOL    HW2 1725   0.162   1.396   1.786 -0.9342 -1.6042 -1.5924
  576SOL     OW 1726   2.128   0.590   1.800  0.2457  0.9319 -0.1799
  576SOL    HW1 1727   2.134   0.599   1.695  0.8550  0.3203 -4.0262
  576SOL    HW2 1728   2.216   0.606   1.850  1.4097  0.8793  1.4766
  577SOL     OW 1729   2.833   1.367   1.909 -0.4504  0.5070 -0.2677
  577SOL    HW1 1730   2.885   1.324   1.983 -1.9205 -0.8224 -2.2408
  577SOL    HW2 1731   2.881   1.452   1.874  1.2481 -0.2205  0.1010
  578SOL     OW 1732   1.474   2.681   2.117 -0.8195  0.6775 -0.3456
  578SOL    HW1 1733   1.440   2.593   2.074 -0.1648  2.0928 -0.4821
  578SOL    HW2 1734   1.476   2.687   2.217  0.8431  0.1520 -2.7018
  579SOL     OW 1735   2.052   2.024   2.008  0.3909  0.0491  0.7352
  579SOL    HW1 1736   1.952   2.055   2.011 -1.3355  2.6564  0.5866
  579SOL    HW2 1737   2.089   2.028   1.911 -1.4725  0.4475  1.5667
  580SOL     OW 1738   1.866   1.433   2.006 -0.0030  0.1704 -0.0285
  580SOL    HW1 1739   1.820   1.351   1.967 -1.8954  0.6055 -0.4402
  580SOL    HW2 1740   1.865   1.414   2.108  0.9120  0.6337 -3.1428
  581SOL     OW 1741   1.393   1.189   2.330  0.2475 -0.1648  0.4619
  581SOL    HW1 1742   1.445   1.173   2.241 -1.0551 -1.3012 -0.0162
  581SOL    HW2 1743   1.367   1.101   2.368  0.0628  0.8163  2.6630
  582SOL     OW 1744   0.132   1.971   1.889  0.2090 -0.1615  0.2438
  582SOL    HW1 1745   0.194   1.897   1.854  0.7033 -1.2093  1.6189
  582SOL    HW2 1746   0.036   1.955   1.845  1.0426  0.7326  0.4580
  583SOL     OW 1747   1.596   1.126   0.785 -0.4224  0.0304  0.3112
  583SOL    HW1 1748   1.498   1.154   0.773  3.0232 -1.5678 -1.2900
  583SOL    HW2 1749   1.603   1.082   0.877  1.7456 -1.1200  1.2043
  584SOL     OW 1750   1.060   2.262   0.389 -0.9191 -0.2987  0.6787
  584SOL    HW1 1751   1.025   2.357   0.359 -0.5813  0.8982  1.4562
  584SOL    HW2 1752   0.994   2.217   0.453  0.0522  0.7808 -0.0607
  585SOL     OW 1753   0.026   2.590   0.032 -0.5030 -0.1505 -0.3658
  585SOL    HW1 1754   0.052   2.575   0.127  0.7646 -0.1268 -2.2739
  585SOL    HW2 1755   0.087   2.533   3.066  4.0698  0.3752 -1.8756
  586SOL     OW 1756   2.551   1.161   0.536 -0.1077 -0.1085  0.3873
  586SOL    HW1 1757   2.598   1.094   0.476  0.5401  1.6548  0.9247
  586SOL    HW2 1758   2.614   1.230   0.582 -2.2187 -0.0183  0.9966
  587SOL     OW 1759   0.965   1.419   2.967  0.0529 -0.6138 -0.2230
  587SOL    HW1 1760   1.034   1.477   2.923  0.0387 -0.2167  1.2288
  587SOL    HW2 1761   0.955   1.446   3.064 -0.2631  0.7734 -0.1644
  588SOL     OW 1762   0.221   0.455   0.780  0.7080  0.7936  0.6775
  588SOL    HW1 1763   0.227   0.437   0.677  1.9443  0.1234 -0.4494
  588SOL    HW2 1764   0.295   0.407   0.834 -0.8485 -2.2849 -1.0804
  589SOL     OW 1765   1.292   3.077   0.678 -0.2543 -0.0531 -0.4741
  589SOL    HW1 1766   1.198   0.025   0.682 -1.8294 -1.6395  1.6906
  589SOL    HW2 1767   1.331   3.052   0.768 -0.4902  0.4579 -2.6876
  590SOL     OW 1768   2.628   2.202   0.454  0.5652  0.4229 -0.4396
  590SOL    HW1 1769   2.717   2.240   0.423  0.1806 -0.1669  1.6857
  590SOL    HW2 1770   2.555   2.200   0.379  0.8583  0.4965 -0.0543
  591SOL     OW 1771   0.286   2.389   2.109  0.0552  0.1855 -0.2231
  591SOL    HW1 1772   0.371   2.421   2.057 -0.4711  2.1658  0.4823
  591SOL    HW2 1773   0.213   2.462   2.115 -0.9892  1.8343  0.3915
  592SOL     OW 1774   0.000   1.831   2.232  0.5253  0.1768 -0.3762
  592SOL    HW1 1775   3.024   1.808   2.166  2.4045  0.1918  0.5315
  592SOL    HW2 1776   0.074   1.880   2.194  0.5765 -3.6323  1.1948
  593SOL     OW 1777   1.434   1.304   1.319  0.2141 -0.0732  0.0805
  593SOL    HW1 1778   1.513   1.347   1.369 -1.0861  0.3676 -0.4560
  593SOL    HW2 1779   1.446   1.307   1.219  0.3199 -1.4212  1.3138
  594SOL     OW 1780   0.552   1.131   2.798  0.2122  0.0403 -0.3078
  594SOL    HW1 1781   0.480   1.129   2.870 -0.0950 -0.0364 -0.9239
  594SOL    HW2 1782   0.612   1.214   2.806  3.2194  3.8063 -1.7790
  595SOL     OW 1783   1.371   0.675   0.846  0.3599 -0.4695  0.3127
  595SOL    HW1 1784   1.361   0.584   0.808 -0.4927  1.3279 -0.0071
  595SOL    HW2 1785   1.328   0.748   0.787 -1.9146 -0.1428  2.8938
  596SOL     OW 1786   0.629   1.190   1.093  0.5591 -0.0507  0.0920
  596SOL    HW1 1787   0.718   1.238   1.087 -3.0912  1.6039 -0.4144
  596SOL    HW2 1788   0.571   1.239   1.025  1.8807 -2.4969  1.8107
  597SOL     OW 1789   0.712   2.277   2.064  0.5991  0.0004 -0.3124
  597SOL    HW1 1790   0.673   2.372   2.082 -2.3923  0.7515  1.0531
  597SOL    HW2 1791   0.743   2.254   1.970  0.0306  1.1898 -0.9207
  598SOL     OW 1792   1.902   2.466   2.149  0.3138  0.6316 -0.5054
  598SOL    HW1 1793   1.844   2.546   2.134  3.5796  1.2304 -1.1456
  598SOL    HW2 1794   1.867   2.428   2.241 -3.4274 -0.7564  1.7140
  599SOL     OW 1795   0.859   1.058   0.409  0.1820 -0.6602  0.1783
  599SOL    HW1 1796   0.909   1.128   0.458  0.2768 -2.0670 -3.3113
  599SOL    HW2 1797   0.927   1.005   0.357 -3.3296  0.8472  1.4312
  600SOL     OW 1798   1.414   0.503   0.257 -0.3553  0.5902 -0.5483
  600SOL    HW1 1799   1.330   0.448   0.240  0.8233 -0.4150 -0.9944
  600SOL    HW2 1800   1.475   0.459   0.335  2.5454 -2.1071  0.8886
  601SOL     OW 1801   0.594   0.361   1.348 -0.4371  0.0025 -0.1226
  601SOL    HW1 1802   0.519   0.399   1.406 -0.9794  0.4522 -1.0246
  601SOL    HW2 1803   0.623   0.412   1.265  3.8335 -4.0242 -0.5258
  602SOL     OW 1804   0.334   2.113   0.739  0.1142  0.1510  0.1050
  602SOL    HW1 1805   0.342   2.031   0.678  0.4074  0.3477 -1.3185
  602SOL    HW2 1806   0.364   2.194   0.688 -1.6345  0.8822  3.0168
  603SOL     OW 1807   0.790   2.733   2.627 -0.2833  0.1347  0.9325
  603SOL    HW1 1808   0.886   2.731   2.661 -2.3670  0.4449 -1.0216
  603SOL    HW2 1809   0.775   2.816   2.566 -0.5988  2.0077  0.0245
  604SOL     OW 1810   0.483   2.384   0.292  0.4262  0.9301 -0.2623
  604SOL    HW1 1811   0.418   2.323   0.240  0.5437  0.2019 -0.7980
  604SOL    HW2 1812   0.577   2.378   0.255 -2.4251  0.0332 -1.1980
  605SOL     OW 1813   1.874   1.484   1.654 -0.1505 -0.1555 -0.2613
  605SOL    HW1 1814   1.937   1.406   1.678 -0.4433  0.5103 -1.6469
  605SOL    HW2 1815   1.799   1.489   1.728 -0.0369 -2.1803  2.4306
  606SOL     OW 1816   0.973   1.151   2.907  0.9031  0.1620  0.0336
  606SOL    HW1 1817   0.892   1.138   2.969  1.7500 -2.1284 -0.7006
  606SOL    HW2 1818   1.021   1.234   2.939  0.9676  0.9881  1.8425
  607SOL     OW 1819   1.211   1.067   1.136  0.2614  0.4350  0.1079
  607SOL    HW1 1820   1.117   1.050   1.169 -3.8414 -0.2233 -4.6115
  607SOL    HW2 1821   1.223   1.154   1.089  0.8808 -2.2438 -0.0807
  608SOL     OW 1822   2.808   2.190   2.003 -0.1521 -0.1665  0.1398
  608SOL    HW1 1823   2.780   2.093   2.029  1.6358 -0.9229 -3.3565
  608SOL    HW2 1824   2.718   2.240   1.996  0.3818 -0.3235 -3.7895
  609SOL     OW 1825   2.259   0.054   0.387 -0.2569  0.2130  0.2680
  609SOL    HW1 1826   2.313   3.090   0.323 -0.0486 -2.1205 -1.5059
  609SOL    HW2 1827   2.182   3.090   0.414 -1.6454 -3.8991 -0.8315
  610SOL     OW 1828   0.104   2.342   1.430  0.3687  0.2357 -0.2055
  610SOL    HW1 1829   0.163   2.426   1.432  1.5366  0.4164  0.0090
  610SOL    HW2 1830   0.013   2.361   1.384 -1.6950 -1.2838 -1.4975
  611SOL     OW 1831   1.689   2.132   0.282  0.7901 -0.4898  0.1827
  611SOL    HW1 1832   1.780   2.155   0.249 -0.7546  2.4494 -1.6507
  611SOL    HW2 1833   1.685   2.048   0.337 -0.4656  2.2994 -2.3176
  612SOL     OW 1834   0.490   0.207   2.038  0.0143  0.0114  0.0548
  612SOL    HW1 1835   0.548   0.275   1.987 -0.6685  0.7524 -1.2788
  612SOL    HW2 1836   0.397   0.237   2.055  1.4493 -2.0931  1.7327
  613SOL     OW 1837   2.813   1.237   0.359 -0.2733 -0.6374  0.6103
  613SOL    HW1 1838   2.792   1.266   0.458 -1.0850 -0.2671  0.8081
  613SOL    HW2 1839   2.772   1.295   0.287 -0.1842  2.5806 -0.0220
  614SOL     OW 1840   2.091   0.416   2.005 -0.2843 -0.0920 -0.7420
  614SOL    HW1 1841   2.093   0.486   1.930  0.9188 -1.2309 -0.1878
  614SOL    HW2 1842   2.013   0.352   1.993 -0.1601  1.3894 -1.7342
  615SOL     OW 1843   1.137   1.548   1.056 -0.3068 -0.6629  0.3812
  615SOL    HW1 1844   1.167   1.582   1.147 -1.2263  1.6471 -1.8248
  615SOL    HW2 1845   1.037   1.558   1.052  1.0490 -1.4762  0.8263
  616SOL     OW 1846   1.633   1.862   2.842  0.0404 -0.1736 -0.0437
  616SOL    HW1 1847   1.602   1.929   2.912 -0.8221  1.3951 -0.2738
  616SOL    HW2 1848   1.736   1.858   2.831  2.5628  0.5474 -0.5487
  617SOL     OW 1849   1.963   3.033   0.397  0.0194  0.1057  0.0463
  617SOL    HW1 1850   1.910   3.095   0.340 -1.3116  0.2435  1.0363
  617SOL    HW2 1851   1.907   2.951   0.419 -2.9808  2.5897  0.3759
  618SOL     OW 1852   0.602   0.733   2.486 -0.5774  0.2939 -0.6088
  618SOL    HW1 1853   0.576   0.769   2.396 -2.1677  0.4626  0.2258
  618SOL    HW2 1854   0.687   0.676   2.481 -1.8459 -0.2582  1.9863
  619SOL     OW 1855   2.868   1.628   1.029  0.2704  0.1154  1.0400
  619SOL    HW1 1856   2.880   1.664   0.936  2.5294 -1.3005 -2.5463
  619SOL    HW2 1857   2.953   1.575   1.046 -0.0074  1.8217 -0.4927
  620SOL     OW 1858   2.168   3.067   2.992 -0.0956 -0.0177  0.1151
  620SOL    HW1 1859   2.076   3.063   3.041  2.4212  1.2804  1.8066
  620SOL    HW2 1860   2.164   3.074   2.892  1.1603  2.3384  0.6689
  621SOL     OW 1861   2.235   1.461   2.991  0.1414 -0.0503 -0.0535
  621SOL    HW1 1862   2.194   1.465   3.088 -1.6892  0.1531  3.7075
  621SOL    HW2 1863   2.277   1.365   2.985 -0.7330 -0.8010 -0.9741
  622SOL     OW 1864   1.766   2.825   1.877 -0.0413  0.1450 -0.0118
  622SOL    HW1 1865   1.733   2.920   1.869  0.8197 -1.1887  0.6732
  622SOL    HW2 1866   1.868   2.819   1.892  1.8756  0.6329 -2.0786
  623SOL     OW 1867   1.282   1.744   0.395 -0.0822  0.1014 -0.2397
  623SOL    HW1 1868   1.275   1.801   0.480 -3.1381  1.5930 -1.4398
  623SOL    HW2 1869   1.229   1.796   0.325  0.4445 -1.8251 -1.6415
  624SOL     OW 1870   0.199   2.961   0.257 -0.8946  0.5267 -0.0468
  624SOL    HW1 1871   0.273   2.919   0.199  0.6698 -0.4767  2.8188
  624SOL    HW2 1872   0.169   3.053   0.223 -0.1904 -1.2285  1.3024
  625SOL     OW 1873   0.751   1.622   0.211  0.0792 -0.1871  0.2668
  625SOL    HW1 1874   0.676   1.566   0.262 -2.5062  0.4777  2.6359
  625SOL    HW2 1875   0.736   1.722   0.223 -0.0395 -0.6037  1.0895
  626SOL     OW 1876   2.948   2.774   0.106  0.4202 -0.3574 -0.3805
  626SOL    HW1 1877   3.015   2.716   0.060 -0.8134  4.9580 -0.4554
  626SOL    HW2 1878   2.929   2.853   0.047  0.4181 -4.1799  1.7706
  627SOL     OW 1879   1.103   1.954   2.656 -0.4092  0.2120  0.3009
  627SOL    HW1 1880   1.073   1.858   2.629 -0.5484 -1.1728 -2.1610
  627SOL    HW2 1881   1.108   1.954   2.762 -0.6603  1.6411  1.8136
  628SOL     OW 1882   0.349   0.021   2.749 -0.6382 -0.1098  0.1082
  628SOL    HW1 1883   0.405   3.091   2.667  0.8718 -0.6240  2.0689
  628SOL    HW2 1884   0.325   3.030   2.801  0.3414  1.6427 -2.0873
  629SOL     OW 1885   0.338   3.056   2.369  0.4425  0.1172  0.3431
  629SOL    HW1 1886   0.401   3.044   2.447 -2.4531 -1.2009 -2.5948
  629SOL    HW2 1887   0.367   2.996   2.294 -0.4723  0.8045  3.5326
  630SOL     OW 1888   1.454   1.075   1.823 -0.4054 -0.1287 -0.2701
  630SOL    HW1 1889   1.482   0.981   1.842 -0.1614  0.6866  1.0172
  630SOL    HW2 1890   1.359   1.085   1.791 -1.3267  0.7170 -3.3990
  631SOL     OW 1891   2.313   0.957   0.452  0.2834 -0.2601 -0.0526
  631SOL    HW1 1892   2.222   0.943   0.497  1.4814 -1.1171 -1.1485
  631SOL    HW2 1893   2.390   0.921   0.506  0.5083  1.2185 -2.0933
  632SOL     OW 1894   2.498   0.589   2.172 -0.0268  0.8258 -0.5646
  632SOL    HW1 1895   2.418   0.629   2.220 -0.4288  0.0790 -2.4070
  632SOL    HW2 1896   2.505   0.492   2.207 -3.2740 -3.8842  1.5772
  633SOL     OW 1897   0.800   2.352   0.182  0.5158 -0.1716  0.2016
  633SOL    HW1 1898   0.765   2.401   0.101 -1.9722  2.1231 -0.0915
  633SOL    HW2 1899   0.892   2.389   0.204  0.1264  2.2955 -3.9476
  634SOL     OW 1900   1.638   2.561   2.518  0.4730 -0.6570  0.5212
  634SOL    HW1 1901   1.590   2.510   2.592 -1.1501 -1.6120  1.5113
  634SOL    HW2 1902   1.575   2.641   2.488  2.3219  3.7397 -0.1809
  635SOL     OW 1903   2.062   0.434   0.072  0.0433  0.6264  0.2955
  635SOL    HW1 1904   2.111   0.345   0.047 -1.3263 -2.5354  1.4636
  635SOL    HW2 1905   2.081   0.460   0.164 -1.7826  0.4901 -0.9384
  636SOL     OW 1906   0.697   1.262   0.661 -0.0312 -0.3651  0.3998
  636SOL    HW1 1907   0.630   1.185   0.658 -1.1145 -0.1261 -0.9487
  636SOL    HW2 1908   0.784   1.228   0.703  0.8603 -1.2443  2.4243
  637SOL     OW 1909   3.060   1.948   0.624 -0.4803 -0.3121  0.8304
  637SOL    HW1 1910   3.078   2.035   0.676 -2.0716  0.8965  0.1593
  637SOL    HW2 1911   2.963   1.949   0.593 -0.8172 -0.4232 -4.1422
  638SOL     OW 1912   1.001   0.027   2.993  0.3103 -0.1163 -0.6642
  638SOL    HW1 1913   0.945   3.043   2.965 -0.0018 -1.5334  1.5542
  638SOL    HW2 1914   1.068   3.089   3.060  0.8992  0.3044 -1.0163
  639SOL     OW 1915   1.481   2.023   3.019  0.0899 -0.4119 -0.1595
  639SOL    HW1 1916   1.438   1.950   3.075 -0.3363 -1.6682  0.6942
  639SOL    HW2 1917   1.551   2.076   3.071  0.5657  0.7792  1.2594
  640SOL     OW 1918   1.888   2.988   0.785  0.1539 -0.0178  0.2886
  640SOL    HW1 1919   1.978   2.991   0.726  4.3797 -0.4881 -3.1322
  640SOL    HW2 1920   1.875   2.889   0.806  3.5272 -0.4843  0.1033
  641SOL     OW 1921   0.043   2.706   0.643 -0.3987  0.1484 -0.5945
  641SOL    HW1 1922   3.047   2.696   0.609  2.8043 -0.2692  1.6549
  641SOL    HW2 1923   0.088   2.776   0.582  1.9881 -0.4320 -1.5218
  642SOL     OW 1924   0.851   0.283   1.701  0.1327  0.4361  0.1032
  642SOL    HW1 1925   0.851   0.299   1.599 -0.7939  1.2009 -1.7870
  642SOL    HW2 1926   0.910   0.357   1.741  0.9630 -1.1747 -3.1916
  643SOL     OW 1927   0.500   2.060   2.095 -0.0520 -0.2752  0.7667
  643SOL    HW1 1928   0.575   2.119   2.132 -1.6769  0.7605  0.7197
  643SOL    HW2 1929   0.451   2.111   2.020  1.5650  3.3415 -0.1485
  644SOL     OW 1930   0.494   2.788   0.497  0.7147 -0.1366  0.3697
  644SOL    HW1 1931   0.575   2.819   0.441  2.1892 -1.4539 -0.5757
  644SOL    HW2 1932   0.507   2.789   0.599  0.1040  0.0840  0.9598
  645SOL     OW 1933   1.388   2.203   2.860 -0.4559  0.0955 -0.0279
  645SOL    HW1 1934   1.396   2.292   2.910 -0.6465  1.8509  1.5650
  645SOL    HW2 1935   1.437   2.132   2.911  0.9313  0.9192 -0.9282
  646SOL     OW 1936   0.392   1.269   3.057 -0.5711  0.1897  0.1003
  646SOL    HW1 1937   0.303   1.293   3.014 -2.6875 -0.8961  0.5075
  646SOL    HW2 1938   0.441   1.356   3.094  0.1554 -0.4941  0.4442
  647SOL     OW 1939   0.798   0.077   0.960 -0.1550 -0.2478  0.5956
  647SOL    HW1 1940   0.719   0.042   1.013  1.2466  1.8178 -1.7099
  647SOL    HW2 1941   0.812   0.179   0.966 -1.9286  0.4200  0.8172
  648SOL     OW 1942   1.974   0.228   1.621 -0.0554  1.0443  0.2626
  648SOL    HW1 1943   1.928   0.313   1.600  2.5071 -1.1015  2.0707
  648SOL    HW2 1944   2.066   0.251   1.638 -2.5463 -1.2151  0.1503
  649SOL     OW 1945   0.820   1.754   2.532 -0.6778 -0.0441  0.1438
  649SOL    HW1 1946   0.900   1.707   2.569 -2.0781 -1.4459  1.2185
  649SOL    HW2 1947   0.849   1.797   2.444 -1.3109 -0.5071 -3.8007
  650SOL     OW 1948   2.774   1.728   1.627 -0.2138 -0.1146  0.4531
  650SOL    HW1 1949   2.754   1.825   1.602 -0.1251  0.2895  2.2124
  650SOL    HW2 1950   2.747   1.660   1.556  0.1817  0.5099 -0.1048
  651SOL     OW 1951   1.189   2.871   0.453 -0.0405  0.1243 -0.4128
  651SOL    HW1 1952   1.175   2.834   0.354 -0.8820 -4.2451 -1.6886
  651SOL    HW2 1953   1.265   2.827   0.503 -0.9336  0.1290  0.9488
  652SOL     OW 1954   2.662   1.796   0.089 -0.6867  1.0193  0.5668
  652SOL    HW1 1955   2.579   1.807   0.031  0.4055 -1.2901  0.2099
  652SOL    HW2 1956   2.685   1.887   0.124 -2.4267  0.7244  0.3707
  653SOL     OW 1957   0.000   0.293   1.056 -0.8458 -0.6628 -0.0020
  653SOL    HW1 1958   3.070   0.205   1.015  2.0119  0.8171 -0.0347
  653SOL    HW2 1959   3.075   0.370   0.993  2.2423 -0.3091  2.6946
  654SOL     OW 1960   2.041   0.236   2.577  0.6862 -0.0030 -0.3372
  654SOL    HW1 1961   1.961   0.195   2.536  2.5494  0.5196  0.8975
  654SOL    HW2 1962   2.106   0.170   2.612  1.8715 -2.3038 -1.3202
  655SOL     OW 1963   0.438   2.534   0.970 -0.0144 -0.1353 -0.1772
  655SOL    HW1 1964   0.393   2.605   0.919  2.3165 -1.1546 -1.3069
  655SOL    HW2 1965   0.381   2.467   1.020 -0.4202 -3.2316  3.9933
  656SOL     OW 1966   0.116   0.116   1.994  0.5999 -0.2175  0.1723
  656SOL    HW1 1967   0.068   0.134   2.083  0.3404  2.3537 -0.1251
  656SOL    HW2 1968   0.125   0.017   1.979  1.0640  2.1823  1.8784
  657SOL     OW 1969   2.429   0.484   2.530 -0.0073  0.2933  0.4791
  657SOL    HW1 1970   2.336   0.455   2.502  1.8243 -0.4658 -0.4144
  657SOL    HW2 1971   2.467   0.415   2.596  1.7623 -0.2402  0.5074
  658SOL     OW 1972   2.062   1.946   1.014  0.3025 -0.2397  0.1415
  658SOL    HW1 1973   1.999   2.012   0.971  1.9843 -2.9435 -0.5860
  658SOL    HW2 1974   2.103   1.988   1.094  0.6801  0.7965 -3.1907
  659SOL     OW 1975   2.219   0.228   0.013  0.2164 -0.0601 -0.4653
  659SOL    HW1 1976   2.268   0.216   0.100  2.4580  2.2908 -4.0803
  659SOL    HW2 1977   2.195   0.136   3.072 -4.1235 -2.7819 -0.2521
  660SOL     OW 1978   1.394   1.571   2.957 -0.3398  0.3094 -0.7571
  660SOL    HW1 1979   1.476   1.580   2.898  1.7829 -2.3219  0.0339
  660SOL    HW2 1980   1.389   1.646   3.031  1.2591  0.8864  0.4974
  661SOL     OW 1981   2.466   2.573   0.945 -0.9485  0.1625  0.1374
  661SOL    HW1 1982   2.550   2.549   0.887  2.7875  2.6473 -1.2309
  661SOL    HW2 1983   2.495   2.649   1.006  1.8738  2.2931  0.1156
  662SOL     OW 1984   0.605   0.692   0.338 -0.3206 -0.2587 -0.2518
  662SOL    HW1 1985   0.661   0.612   0.368  1.4565  1.3325  1.8828
  662SOL    HW2 1986   0.611   0.770   0.404 -0.1173  1.9210 -1.9992
  663SOL     OW 1987   1.790   2.213   2.969  0.4796 -0.1866  0.0613
  663SOL    HW1 1988   1.788   2.251   2.876 -0.7210  0.8134  2.2171
  663SOL    HW2 1989   1.885   2.192   2.993 -1.7749  0.4875 -0.1408
  664SOL     OW 1990   0.635   2.179   1.406  0.5684  0.3189 -0.1437
  664SOL    HW1 1991   0.627   2.279   1.386 -1.1798  1.9343  1.0535
  664SOL    HW2 1992   0.669   2.129   1.329 -1.5010  1.1946  3.3292
  665SOL     OW 1993   1.811   2.151   2.025 -0.3739  0.0095 -0.0362
  665SOL    HW1 1994   1.792   2.235   2.076  0.4810  3.7020 -1.4799
  665SOL    HW2 1995   1.812   2.172   1.927  2.1297  0.2041 -0.0108
  666SOL     OW 1996   0.391   2.644   0.274  0.4932 -0.4242  0.1549
  666SOL    HW1 1997   0.410   2.700   0.359  1.2362  1.7039  2.5496
  666SOL    HW2 1998   0.428   2.547   0.288 -0.6883  0.2402  0.6837
  667SOL     OW 1999   2.087   1.203   1.931  0.8023 -0.2276  0.3433
  667SOL    HW1 2000   2.148   1.200   2.012 -0.0596  0.3955 -2.3844
  667SOL    HW2 2001   1.988   1.222   1.957  0.8401  1.0272  2.3340
  668SOL     OW 2002   0.429   0.543   2.536 -0.3045  0.4044 -0.2905
  668SOL    HW1 2003   0.488   0.621   2.513 -0.2574  0.4852 -0.8082
  668SOL    HW2 2004   0.471   0.449   2.531 -1.4369  2.0663  1.1114
  669SOL     OW 2005   1.559   2.211   2.591 -0.0811  0.2341 -0.0767
  669SOL    HW1 2006   1.494   2.143   2.633 -0.2566  1.5029 -2.0585
  669SOL    HW2 2007   1.581   2.188   2.496  0.2685  1.0005  1.2738
  670SOL     OW 2008   2.295   2.286   2.980  0.2234  0.3277 -0.0671
  670SOL    HW1 2009   2.325   2.377   3.002  1.0827 -1.3376 -0.8575
  670SOL    HW2 2010   2.299   2.272   2.878  1.9032 -2.3963 -1.5145
  671SOL     OW 2011   0.859   1.302   1.030 -0.3311 -0.8248 -0.6875
  671SOL    HW1 2012   0.920   1.284   1.108  0.5188 -1.0055  1.0845
  671SOL    HW2 2013   0.851   1.407   1.010 -1.4240  2.6140 -1.0049
  672SOL     OW 2014   2.517   0.937   2.532 -0.2158  0.3455 -0.5450
  672SOL    HW1 2015   2.532   0.977   2.437 -1.7963 -0.5037 -0.3024
  672SOL    HW2 2016   2.563   0.996   2.602 -0.3695 -2.4450  2.3864
  673SOL     OW 2017   2.623   2.512   2.148  0.5842 -0.5137  0.5946
  673SOL    HW1 2018   2.704   2.504   2.217  3.9100 -1.6920  1.8607
  673SOL    HW2 2019   2.616   2.603   2.104 -1.8978 -0.8622 -0.3523
  674SOL     OW 2020   1.259   2.466   2.323 -0.2815  0.2408 -0.3020
  674SOL    HW1 2021   1.199   2.384   2.341  1.4597 -2.6477 -0.3651
  674SOL    HW2 2022   1.334   2.438   2.262 -1.1029  0.1651  0.4545
  675SOL     OW 2023   0.781   0.890   1.647  0.3996 -0.2017 -0.4031
  675SOL    HW1 2024   0.803   0.789   1.659  0.6681 -0.5029  0.5653
  675SOL    HW2 2025   0.701   0.910   1.710 -0.6555  3.2247  2.2412
  676SOL     OW 2026   1.853   1.033   0.762  0.0711  0.4841 -0.2946
  676SOL    HW1 2027   1.764   1.072   0.775  1.4836 -0.7350 -3.6019
  676SOL    HW2 2028   1.865   1.010   0.664  0.9479 -0.2450 -1.3134
  677SOL     OW 2029   2.736   1.970   2.552 -0.0454  0.1509 -0.1750
  677SOL    HW1 2030   2.832   1.978   2.518 -1.2876  0.6397  0.5794
  677SOL    HW2 2031   2.686   1.903   2.492  1.8748  0.4785  2.3829
  678SOL     OW 2032   2.570   2.086   0.943  0.2807  0.8027  0.3808
  678SOL    HW1 2033   2.639   2.142   0.994 -0.7633 -1.2070 -0.1121
  678SOL    HW2 2034   2.540   2.006   0.994  2.3714  0.1332 -3.0689
  679SOL     OW 2035   1.739   2.627   0.785  1.1153  0.4507  0.1252
  679SOL    HW1 2036   1.779   2.541   0.812 -0.6982  1.8835 -0.3191
  679SOL    HW2 2037   1.727   2.641   0.683 -0.7798 -0.6569  0.4049
  680SOL     OW 2038   0.210   2.641   2.414 -0.0582 -0.3807 -0.1572
  680SOL    HW1 2039   0.137   2.717   2.416  2.4521  0.9842  0.3870
  680SOL    HW2 2040   0.297   2.683   2.390 -0.1247  2.5001 -1.4851
  681SOL     OW 2041   0.010   1.277   1.483  0.1410  0.3401  0.0746
  681SOL    HW1 2042   0.046   1.302   1.577 -2.3842  1.2706 -4.0402
  681SOL    HW2 2043   3.028   1.214   1.488 -0.6649 -1.0725  0.0703
  682SOL     OW 2044   0.343   2.018   1.212 -0.1124  0.1932 -0.1498
  682SOL    HW1 2045   0.306   2.076   1.289 -2.3120  1.5632  0.2712
  682SOL    HW2 2046   0.410   1.950   1.246  2.0417  0.3592  2.6451
  683SOL     OW 2047   2.439   1.335   1.350  0.4919 -0.5622 -0.0357
  683SOL    HW1 2048   2.447   1.410   1.281  0.8721  1.0289  1.5100
  683SOL    HW2 2049   2.520   1.270   1.357  2.2853 -2.4427  0.0148
  684SOL     OW 2050   2.431   1.641   3.036 -0.6743 -0.0545  0.1227
  684SOL    HW1 2051   2.518   1.588   3.036 -0.0379  4.7277 -3.2081
  684SOL    HW2 2052   2.368   1.594   2.973 -0.3909  1.1263 -1.4433
  685SOL     OW 2053   1.405   1.313   3.056 -0.4578  0.7786  0.4834
  685SOL    HW1 2054   1.394   1.397   3.002  2.0233 -0.0502  1.2048
  685SOL    HW2 2055   1.503   1.287   3.045  0.5677  1.1144  2.3758
  686SOL     OW 2056   0.233   0.350   1.167 -0.1971 -0.5658  0.3908
  686SOL    HW1 2057   0.230   0.314   1.262 -0.6931 -2.3539  0.8398
  686SOL    HW2 2058   0.147   0.316   1.120 -0.5277 -1.5661 -0.8498
  687SOL     OW 2059   0.855   1.922   2.245 -0.3470 -0.4013 -0.4267
  687SOL    HW1 2060   0.924   1.851   2.270  1.3439 -0.0020  0.0022
  687SOL    HW2 2061   0.789   1.880   2.181 -2.5243  0.2726  1.3289
  688SOL     OW 2062   0.160   1.831   1.049 -0.4191 -0.2446 -0.6059
  688SOL    HW1 2063   0.208   1.884   1.119  0.6782 -0.0396  1.2161
  688SOL    HW2 2064   0.220   1.779   0.982 -0.7373  1.7359  1.2198
  689SOL     OW 2065   1.594   0.756   1.544  0.5131 -0.1736 -0.2180
  689SOL    HW1 2066   1.598   0.854   1.510  1.0342 -1.3210 -1.0285
  689SOL    HW2 2067   1.654   0.704   1.483 -4.2496  1.6579  0.6291
  690SOL     OW 2068   2.561   1.082   0.984  0.0622 -0.5441 -0.3490
  690SOL    HW1 2069   2.522   1.019   0.914 -0.2230 -0.6366  1.5275
  690SOL    HW2 2070   2.605   1.031   1.064  1.8036 -0.3300 -2.1259
  691SOL     OW 2071   0.321   2.180   1.915 -0.4076  0.5498 -0.1395
  691SOL    HW1 2072   0.302   2.262   1.979  0.9219  0.1228 -0.2021
  691SOL    HW2 2073   0.241   2.123   1.900 -0.0734 -0.1620  2.9158
  692SOL     OW 2074   1.782   3.077   1.020 -0.0314  0.0800  0.0305
  692SOL    HW1 2075   1.830   3.070   0.929 -0.2792  1.0013  0.7984
  692SOL    HW2 2076   1.808   2.999   1.079 -0.4670  1.7058  1.0120
  693SOL     OW 2077   0.294   1.383   2.359  0.5246 -0.0015  0.8169
  693SOL    HW1 2078   0.344   1.473   2.367  0.6707 -3.0104  1.0325
  693SOL    HW2 2079   0.194   1.396   2.341 -0.5632 -0.1293  0.1581
  694SOL     OW 2080   2.142   0.734   1.045  0.1336  0.6467  0.2090
  694SOL    HW1 2081   2.239   0.712   1.072  2.1904  0.8197  0.0301
  694SOL    HW2 2082   2.134   0.821   0.992 -1.5470  0.6315  0.6652
  695SOL     OW 2083   0.971   1.371   1.593  0.2022 -0.6211 -0.0993
  695SOL    HW1 2084   0.917   1.293   1.562 -1.9023 -1.4500 -1.0325
  695SOL    HW2 2085   1.061   1.374   1.549  0.4555 -0.7362  0.8899
  696SOL     OW 2086   1.180   3.009   0.101 -0.4434 -0.8397  0.4167
  696SOL    HW1 2087   1.139   2.918   0.127 -0.2779 -0.2803 -0.0081
  696SOL    HW2 2088   1.224   3.055   0.181 -1.4718 -2.2320  0.5441
  697SOL     OW 2089   0.989   0.382   1.226 -0.1276  0.0186 -0.0893
  697SOL    HW1 2090   0.948   0.405   1.134  1.7119  0.6095  0.9923
  697SOL    HW2 2091   1.080   0.337   1.215  4.8480 -1.1704  3.4956
  698SOL     OW 2092   1.275   1.436   2.384 -0.1641  0.2398 -0.1387
  698SOL    HW1 2093   1.312   1.340   2.380 -1.7361 -4.2793 -3.4577
  698SOL    HW2 2094   1.177   1.449   2.362  2.5433  0.3399  0.6947
  699SOL     OW 2095   1.408   0.883   1.058 -0.0926 -0.0982 -0.3289
  699SOL    HW1 2096   1.336   0.957   1.069  1.0380 -0.0416 -1.8726
  699SOL    HW2 2097   1.382   0.807   0.995  2.0381 -2.9399 -3.6086
  700SOL     OW 2098   1.077   2.860   0.714  0.3643 -0.3633  0.5837
  700SOL    HW1 2099   1.130   2.912   0.642 -0.6483 -2.7140  0.1053
  700SOL    HW2 2100   1.008   2.930   0.748 -0.2673  1.5169  2.0157
  701SOL     OW 2101   2.591   2.821   2.626 -0.1314  0.0481  0.5479
  701SOL    HW1 2102   2.613   2.761   2.547  0.4878 -1.0996  0.2062
  701SOL    HW2 2103   2.653   2.898   2.633  0.6113 -0.0984  1.6545
  702SOL     OW 2104   1.070   0.256   0.331 -0.1056  0.0475 -0.6666
  702SOL    HW1 2105   1.137   0.179   0.326  0.5247 -1.0005  0.6052
  702SOL    HW2 2106   0.995   0.239   0.397 -0.7585  1.8199 -1.5500
  703SOL     OW 2107   2.613   3.058   2.362 -0.1615  0.0678  0.0189
  703SOL    HW1 2108   2.544   3.011   2.302  0.6104  2.5423 -0.1885
  703SOL    HW2 2109   2.657   0.036   2.308  1.7804  0.4360  0.5905
  704SOL     OW 2110   3.073   1.679   0.647 -0.3625 -0.2650  0.4552
  704SOL    HW1 2111   3.052   1.631   0.555  0.0554 -0.5554  0.7012
  704SOL    HW2 2112   3.075   1.782   0.635  0.5078 -0.3749 -1.5985
  705SOL     OW 2113   0.001   2.958   2.183  0.2881 -0.0008 -0.2105
  705SOL    HW1 2114   3.045   3.041   2.208 -0.8099  0.0761  0.1038
  705SOL    HW2 2115   0.054   2.919   2.260  1.3959  1.2710  0.7267
  706SOL     OW 2116   2.209   2.604   0.816  0.1473 -0.1818  0.2073
  706SOL    HW1 2117   2.290   2.583   0.870 -2.7799  1.5143 -1.4630
  706SOL    HW2 2118   2.188   2.536   0.741 -2.2573 -1.2691 -1.2840
  707SOL     OW 2119   0.995   2.184   1.425 -0.0801 -0.3521 -0.2451
  707SOL    HW1 2120   0.907   2.152   1.467  0.0418 -0.6805 -0.8584
  707SOL    HW2 2121   1.009   2.138   1.333  1.5343 -0.1952  0.3229
  708SOL     OW 2122   0.039   2.267   1.693 -0.0534  0.6781 -0.4093
  708SOL    HW1 2123   0.067   2.300   1.598  1.0404  0.8295 -0.3675
  708SOL    HW2 2124   0.087   2.184   1.725 -0.1663 -0.5093 -1.6144
  709SOL     OW 2125   2.145   3.089   2.006 -0.4754 -0.1147  0.1692
  709SOL    HW1 2126   2.129   0.028   2.098 -0.0196 -0.5976 -1.0776
  709SOL    HW2 2127   2.236   0.017   1.964 -1.1914 -0.9830 -0.1054
  710SOL     OW 2128   1.959   0.825   2.565 -0.3905 -0.5877 -0.0178
  710SOL    HW1 2129   2.045   0.802   2.614 -1.0900 -0.9425  2.2784
  710SOL    HW2 2130   1.921   0.918   2.575  0.7627  1.3139 -0.8688
  711SOL     OW 2131   1.012   2.187   3.024  0.2939 -0.0822 -0.2782
  711SOL    HW1 2132   1.030   2.274   3.073 -0.4380  0.3954  0.3685
  711SOL    HW2 2133   0.941   2.196   2.951 -0.4044  2.7351  1.3440
  712SOL     OW 2134   0.597   2.344   2.438  0.2562 -0.6311  0.1649
  712SOL    HW1 2135   0.652   2.295   2.372 -0.1138 -1.8230  0.2306
  712SOL    HW2 2136   0.519   2.291   2.473  1.2886 -0.8050  0.9580
  713SOL     OW 2137   1.828   1.460   2.927 -0.1763 -0.5266 -0.0453
  713SOL    HW1 2138   1.767   1.522   2.873  0.9599  3.7590 -1.8300
  713SOL    HW2 2139   1.776   1.383   2.972 -2.8647 -1.9012 -1.3468
  714SOL     OW 2140   1.215   1.635   1.338 -0.4452  0.0550  0.3863
  714SOL    HW1 2141   1.306   1.680   1.343  0.3201  0.5755 -1.1406
  714SOL    HW2 2142   1.145   1.708   1.348 -1.5580 -0.0789 -0.1497
  715SOL     OW 2143   1.695   0.271   0.091  0.2532  0.0114 -0.1427
  715SOL    HW1 2144   1.737   0.357   0.056 -0.1210 -0.2544  0.4923
  715SOL    HW2 2145   1.721   0.258   0.188  0.6056 -1.3777  1.3934
  716SOL     OW 2146   0.203   2.688   2.117 -0.1373 -0.3047  0.4868
  716SOL    HW1 2147   0.121   2.652   2.062  0.1675 -0.2355  0.3958
  716SOL    HW2 2148   0.188   2.650   2.210  0.3807  0.2842 -1.7518
  717SOL     OW 2149   3.035   0.695   1.088 -0.2109 -0.0836  0.1594
  717SOL    HW1 2150   3.064   0.785   1.113 -1.0613 -2.9119 -1.3253
  717SOL    HW2 2151   2.995   0.646   1.170 -1.0547  0.3886  0.6309
  718SOL     OW 2152   0.675   1.222   2.397 -0.3230  0.5186 -0.2188
  718SOL    HW1 2153   0.662   1.281   2.483  2.4711 -1.6159 -0.5083
  718SOL    HW2 2154   0.644   1.270   2.314  0.4900 -1.4578  0.6939
  719SOL     OW 2155   2.234   1.081   0.015 -0.2425 -0.5960 -0.1188
  719SOL    HW1 2156   2.137   1.064   3.088 -1.0607  0.0818  0.4071
  719SOL    HW2 2157   2.271   1.135   3.031  0.9146  1.2461  1.7490
  720SOL     OW 2158   0.855   0.846   1.081 -0.4036  0.1881  0.4752
  720SOL    HW1 2159   0.903   0.922   1.134 -0.1930  0.1152  1.0994
  720SOL    HW2 2160   0.842   0.758   1.130  0.7768  2.9819 -2.5431
  721SOL     OW 2161   2.645   0.233   0.325  0.7574  0.0427 -0.0053
  721SOL    HW1 2162   2.707   0.309   0.308  0.5744  0.3903  2.2630
  721SOL    HW2 2163   2.693   0.147   0.344 -1.8244  2.0938  1.4633
  722SOL     OW 2164   2.110   0.671   2.718 -0.1602  0.2522 -0.7198
  722SOL    HW1 2165   2.202   0.649   2.755  1.8771 -0.0922  2.5468
  722SOL    HW2 2166   2.033   0.632   2.778 -3.0605  0.4610  3.3258
  723SOL     OW 2167   2.512   0.287   0.573 -0.0443  0.1683 -0.1209
  723SOL    HW1 2168   2.568   0.280   0.489 -1.5114  0.0250 -3.3133
  723SOL    HW2 2169   2.498   0.191   0.609  1.2738 -2.2824  1.1057
  724SOL     OW 2170   0.751   1.584   1.974  0.2258 -0.6790 -0.3922
  724SOL    HW1 2171   0.783   1.496   2.016 -1.6016  1.5913  1.2096
  724SOL    HW2 2172   0.712   1.573   1.880  2.1271 -0.4320  0.6220
  725SOL     OW 2173   1.885   0.419   1.429  0.0020 -0.2601 -0.3194
  725SOL    HW1 2174   1.852   0.511   1.398  0.3440  0.0075  0.3991
  725SOL    HW2 2175   1.893   0.354   1.353  1.8468 -1.1441  0.0172
  726SOL     OW 2176   1.981   2.730   0.354 -0.3874 -0.1344 -0.3844
  726SOL    HW1 2177   2.069   2.687   0.356 -0.1775  2.1912  1.9774
  726SOL    HW2 2178   1.898   2.673   0.378 -0.5169  1.4006  1.8221
  727SOL     OW 2179   1.821   1.690   1.984 -0.6928 -0.4999 -0.2976
  727SOL    HW1 2180   1.868   1.734   2.067 -1.7120  0.8560 -0.7092
  727SOL    HW2 2181   1.857   1.593   1.970 -0.4883 -0.5324 -0.6671
  728SOL     OW 2182   2.063   2.874   1.590 -0.1391 -0.1343  0.1900
  728SOL    HW1 2183   2.044   2.965   1.551  2.0461 -2.1380  0.0821
  728SOL    HW2 2184   2.011   2.797   1.546  3.5494 -1.5592  1.8605
  729SOL     OW 2185   2.229   1.455   0.978 -0.1725  0.0088  0.0637
  729SOL    HW1 2186   2.180   1.390   0.920 -2.2216 -0.2452  0.3638
  729SOL    HW2 2187   2.179   1.542   0.994  0.6272 -4.0553 -0.2762
  730SOL     OW 2188   0.460   1.082   2.493  0.5118 -0.0922  0.1556
  730SOL    HW1 2189   0.444   1.128   2.582  0.9032  0.6140 -0.7771
  730SOL    HW2 2190   0.541   1.121   2.441  0.7213 -2.7263 -1.0322
  731SOL     OW 2191   0.045   0.048   0.847  0.1323  0.5168  0.1641
  731SOL    HW1 2192   0.144   0.060   0.816  1.2456  0.7854 -0.0294
  731SOL    HW2 2193   0.047   0.006   0.937 -0.0801  1.9944 -2.7106
  732SOL     OW 2194   1.378   0.751   0.324 -0.1333  0.3279  0.0930
  732SOL    HW1 2195   1.316   0.757   0.402  2.0195 -1.6684 -1.2856
  732SOL    HW2 2196   1.405   0.654   0.307 -1.5179 -0.6846  2.1780
  733SOL     OW 2197   0.311   1.799   0.825  0.2958 -0.2045 -0.2265
  733SOL    HW1 2198   0.340   1.809   0.727  1.2789  0.6197  1.1726
  733SOL    HW2 2199   0.276   1.887   0.861  0.0682 -3.0311 -1.9463
  734SOL     OW 2200   0.136   2.326   0.441  0.3532 -0.2666  0.1044
  734SOL    HW1 2201   0.154   2.402   0.374 -0.7529  1.9285 -3.5806
  734SOL    HW2 2202   0.060   2.358   0.504  0.9877  3.0421 -1.3355
  735SOL     OW 2203   1.235   0.301   1.142  0.2077  0.8149  0.4565
  735SOL    HW1 2204   1.233   0.197   1.155 -2.3033 -0.4291 -0.4481
  735SOL    HW2 2205   1.328   0.341   1.134 -1.6811 -0.1205  1.1668
  736SOL     OW 2206   1.984   2.475   0.137  0.0563  0.7025  0.0411
  736SOL    HW1 2207   2.026   2.512   0.052 -0.9827 -1.2077 -3.8590
  736SOL    HW2 2208   1.883   2.494   0.147 -2.4948  0.1972  0.2069
  737SOL     OW 2209   0.204   0.807   0.936 -0.0821 -0.0456  0.4213
  737SOL    HW1 2210   0.138   0.858   0.993  1.5540 -1.0599  0.6133
  737SOL    HW2 2211   0.198   0.838   0.838 -1.1693  1.0804  2.8270
  738SOL     OW 2212   2.755   2.918   1.512 -0.4519 -0.6036  0.4839
  738SOL    HW1 2213   2.792   2.875   1.593 -1.8181 -0.3145 -2.7275
  738SOL    HW2 2214   2.794   3.010   1.505  3.5874 -1.1958  0.1429
  739SOL     OW 2215   1.380   2.602   2.952  0.2625 -0.0363  0.0849
  739SOL    HW1 2216   1.391   2.561   2.858 -0.8190 -0.9302  0.0012
  739SOL    HW2 2217   1.374   2.530   3.024  1.1925  0.2433 -2.5314
  740SOL     OW 2218   1.491   0.378   1.140 -0.6209 -0.0840 -0.5204
  740SOL    HW1 2219   1.553   0.326   1.204 -1.0946  0.4938  1.2175
  740SOL    HW2 2220   1.500   0.334   1.051 -0.5056 -3.5235  0.7236
  741SOL     OW 2221   2.874   0.814   0.825  0.2075  0.0810 -0.1799
  741SOL    HW1 2222   2.777   0.788   0.833  1.0119 -1.2848 -2.0119
  741SOL    HW2 2223   2.932   0.748   0.879  0.9165  0.4518  0.2230
  742SOL     OW 2224   0.606   1.427   2.609  0.1350 -0.4796 -0.1705
  742SOL    HW1 2225   0.608   1.382   2.702  0.4401  1.3430 -2.3027
  742SOL    HW2 2226   0.596   1.529   2.610 -1.7862 -1.3721  0.3328
  743SOL     OW 2227   1.359   0.694   2.055 -0.1564  0.3799 -0.7356
  743SOL    HW1 2228   1.447   0.652   2.083 -2.1161  0.2443 -1.3363
  743SOL    HW2 2229   1.284   0.649   2.098  1.0729  0.2682  1.5173
  744SOL     OW 2230   2.118   0.880   1.467 -0.1709 -0.0067 -0.0056
  744SOL    HW1 2231   2.199   0.890   1.525  2.4335 -2.3926 -0.9944
  744SOL    HW2 2232   2.056   0.958   1.471  1.0240 -1.9150 -0.4820
  745SOL     OW 2233   1.124   1.506   1.828  0.4608  0.0988 -0.2997
  745SOL    HW1 2234   1.109   1.514   1.725 -2.5300 -1.3006 -0.4979
  745SOL    HW2 2235   1.114   1.413   1.864  0.4561 -0.7232 -0.1370
  746SOL     OW 2236   2.027   1.687   0.991 -0.2398  0.1116 -0.0019
  746SOL    HW1 2237   2.040   1.786   1.011  0.0884  0.6083 -0.1297
  746SOL    HW2 2238   2.037   1.662   0.892  2.2470  0.2962 -2.0365
  747SOL     OW 2239   2.415   1.521   1.166  0.5979 -0.3436  0.0848
  747SOL    HW1 2240   2.337   1.498   1.104 -0.8598  0.3607  0.4199
  747SOL    HW2 2241   2.497   1.556   1.123  0.1879 -1.3508  1.6156
  748SOL     OW 2242   0.671   1.959   0.747 -0.2492 -0.3837  0.0682
  748SOL    HW1 2243   0.688   2.060   0.777 -2.4887  3.2607  2.7197
  748SOL    HW2 2244   0.737   1.896   0.786 -1.8977 -0.6214 -0.4260
  749SOL     OW 2245   2.263   2.772   2.323  0.0806 -1.0097  0.3806
  749SOL    HW1 2246   2.209   2.741   2.244 -1.0911  1.8149  3.3803
  749SOL    HW2 2247   2.302   2.694   2.365 -1.0214  1.6480 -1.8136
  750SOL     OW 2248   2.371   0.358   0.858  0.3977 -0.2545  0.6628
  750SOL    HW1 2249   2.431   0.334   0.779  0.7501 -1.0772  0.1678
  750SOL    HW2 2250   2.301   0.421   0.830  2.7090  0.6400  1.7158
  751SOL     OW 2251   2.625   2.646   0.504 -0.1706  0.0838  0.2902
  751SOL    HW1 2252   2.627   2.584   0.428  1.3985  1.7077 -0.0286
  751SOL    HW2 2253   2.572   2.732   0.491 -0.3665 -5.1960 -1.8698
  752SOL     OW 2254   3.007   2.923   0.810 -0.5055  0.1590  0.1525
  752SOL    HW1 2255   3.081   2.854   0.793 -0.6782 -3.2353 -1.8227
  752SOL    HW2 2256   3.042   3.020   0.822  0.8417  1.1338  0.3219
  753SOL     OW 2257   1.675   0.939   2.262 -0.0443  0.0462 -0.2011
  753SOL    HW1 2258   1.662   0.955   2.164  0.1312  1.4758 -0.8275
  753SOL    HW2 2259   1.617   0.860   2.288  1.0943 -1.3579  0.2216
  754SOL     OW 2260   1.522   2.091   1.768 -0.2242 -0.6859 -0.0098
  754SOL    HW1 2261   1.539   2.144   1.685  1.8757 -1.8793  3.8213
  754SOL    HW2 2262   1.606   2.037   1.795  2.7662 -1.1742 -0.2846
  755SOL     OW 2263   2.616   0.705   0.856  0.7060 -0.5984 -0.6142
  755SOL    HW1 2264   2.590   0.652   0.938  0.0295 -2.3307  2.8786
  755SOL    HW2 2265   2.551   0.782   0.837 -1.1789  2.7166  1.2663
  756SOL     OW 2266   0.695   1.360   2.855  0.0223 -0.2009  0.1450
  756SOL    HW1 2267   0.793   1.352   2.878 -0.7741  1.2264 -1.0620
  756SOL    HW2 2268   0.655   1.449   2.885  2.6709  0.2342  0.9867
  757SOL     OW 2269   1.281   2.716   0.779  0.5619 -0.4537  0.5062
  757SOL    HW1 2270   1.203   2.778   0.777  1.1688 -1.4171 -0.1376
  757SOL    HW2 2271   1.333   2.721   0.693  0.0966 -2.3217  0.4961
  758SOL     OW 2272   0.938   2.815   1.446  0.1905  0.1820  0.3985
  758SOL    HW1 2273   0.948   2.886   1.375 -0.2260 -1.0861  0.0171
  758SOL    HW2 2274   0.935   2.864   1.537 -1.1800  1.0014 -0.4554
  759SOL     OW 2275   0.147   0.690   0.608  0.1228  0.3005  0.3891
  759SOL    HW1 2276   0.174   0.608   0.660 -0.5646 -2.8313 -3.3878
  759SOL    HW2 2277   0.124   0.655   0.516 -0.8738 -1.2798  0.8719
  760SOL     OW 2278   2.325   1.205   1.125  0.2067  0.0410  0.2909
  760SOL    HW1 2279   2.417   1.179   1.086  2.3667  2.7102 -2.6526
  760SOL    HW2 2280   2.346   1.237   1.221  0.8809 -2.1885 -0.3800
  761SOL     OW 2281   1.760   0.360   0.842  0.6760 -0.3770  0.0061
  761SOL    HW1 2282   1.666   0.319   0.830 -3.2813 -0.3621 -1.0418
  761SOL    HW2 2283   1.784   0.357   0.939 -1.3952  1.5410  2.0443
  762SOL     OW 2284   2.340   1.963   0.246 -0.2567 -0.0883  0.5816
  762SOL    HW1 2285   2.353   1.863   0.230  1.9065 -0.0884  0.6458
  762SOL    HW2 2286   2.383   2.020   0.174 -2.0617 -2.4655  0.4649
  763SOL     OW 2287   0.769   1.488   1.342 -0.0142  0.6089 -0.0400
  763SOL    HW1 2288   0.670   1.490   1.311 -2.7468  0.0109 -1.1478
  763SOL    HW2 2289   0.801   1.586   1.359 -1.1052  2.2055 -1.8581
  764SOL     OW 2290   2.644   2.221   2.393  0.1972 -0.2100  0.1660
  764SOL    HW1 2291   2.588   2.202   2.304 -0.3749  2.3761  0.3088
  764SOL    HW2 2292   2.638   2.137   2.449 -1.6674  2.2363  2.5419
  765SOL     OW 2293   0.688   2.523   1.077 -0.7375  0.0689 -0.0652
  765SOL    HW1 2294   0.750   2.589   1.030  0.8131  3.5206 -0.1978
  765SOL    HW2 2295   0.600   2.501   1.033 -1.0165 -2.3450  3.3331
  766SOL     OW 2296   2.950   2.000   2.392 -0.4207  0.1985 -0.3394
  766SOL    HW1 2297   3.025   1.949   2.340  0.2755  0.1567  0.8571
  766SOL    HW2 2298   2.990   2.058   2.468 -3.4678  1.7095  2.1035
  767SOL     OW 2299   2.288   0.942   2.682  0.2847  0.3764 -0.2727
  767SOL    HW1 2300   2.359   0.931   2.608  1.8761  0.4802 -0.9524
  767SOL    HW2 2301   2.316   0.877   2.752  0.1970  2.3417  0.3253
  768SOL     OW 2302   1.363   0.251   2.462  0.0223 -0.4449  0.1464
  768SOL    HW1 2303   1.350   0.337   2.409 -0.6646  0.2475 -3.0702
  768SOL    HW2 2304   1.312   0.255   2.551 -0.0641  1.7134 -1.4843
  769SOL     OW 2305   0.112   2.511   1.072  0.0450  0.4998  0.1995
  769SOL    HW1 2306   0.097   2.524   0.972  1.9610  1.5962  1.3603
  769SOL    HW2 2307   0.180   2.437   1.082  0.3634 -1.2608  0.1932
  770SOL     OW 2308   0.627   0.439   0.120  0.0929  0.4706  0.4401
  770SOL    HW1 2309   0.609   0.526   0.078 -0.1437 -2.9423 -0.3421
  770SOL    HW2 2310   0.694   0.448   0.196  0.3696 -2.7158  0.1048
  771SOL     OW 2311   1.112   1.678   2.614  0.0812 -0.0128 -0.3150
  771SOL    HW1 2312   1.180   1.696   2.542  0.6124  2.7533  2.6201
  771SOL    HW2 2313   1.137   1.611   2.688 -1.0190  1.8311  1.5510
  772SOL     OW 2314   2.092   0.080   2.282 -0.5055 -0.2396  0.2420
  772SOL    HW1 2315   2.154   0.001   2.306  1.0573 -2.1490  1.9433
  772SOL    HW2 2316   2.023   0.097   2.355 -2.1755  1.6173 -2.2624
  773SOL     OW 2317   1.551   0.826   1.826  0.6626 -0.3084  0.1623
  773SOL    HW1 2318   1.579   0.794   1.733  1.1163 -0.6137  0.9742
  773SOL    HW2 2319   1.573   0.751   1.890 -0.9357  0.8580 -1.1962
  774SOL     OW 2320   1.352   0.608   1.417 -0.2927  0.1111 -0.3649
  774SOL    HW1 2321   1.405   0.608   1.335 -1.4043  0.5565  2.5295
  774SOL    HW2 2322   1.354   0.702   1.460  1.4530  2.9270 -1.2376
  775SOL     OW 2323   2.046   2.843   0.108 -0.3040 -0.0255 -0.0425
  775SOL    HW1 2324   2.031   2.810   0.208 -1.1952 -0.5616  2.8940
  775SOL    HW2 2325   2.072   2.771   0.045 -2.1694  1.1731  1.3999
  776SOL     OW 2326   1.880   1.007   1.596 -0.3367  0.3807  0.4097
  776SOL    HW1 2327   1.799   1.063   1.611  3.7202 -2.4484  0.3165
  776SOL    HW2 2328   1.900   0.941   1.670  0.8951  2.1440  1.8069
  777SOL     OW 2329   0.051   1.421   2.238 -0.2278 -0.6498  0.1845
  777SOL    HW1 2330   3.092   1.361   2.174 -1.6516  0.9121  0.5242
  777SOL    HW2 2331   0.029   1.521   2.221 -1.3323  0.3587 -1.1047
  778SOL     OW 2332   2.646   1.121   2.667  0.1330  0.0835 -0.0583
  778SOL    HW1 2333   2.735   1.094   2.712  0.9430  0.5958 -1.8220
  778SOL    HW2 2334   2.661   1.216   2.635 -0.2120 -0.6465  2.4611
  779SOL     OW 2335   2.865   0.622   3.024 -0.7096 -0.1461 -0.2457
  779SOL    HW1 2336   2.961   0.589   3.003 -3.0732  1.0914  1.6476
  779SOL    HW2 2337   2.858   0.669   0.017 -0.2451  1.2532 -3.1240
  780SOL     OW 2338   2.429   2.522   2.357 -0.1293  0.1619  0.2555
  780SOL    HW1 2339   2.461   2.487   2.267 -4.9315 -0.5187 -0.7404
  780SOL    HW2 2340   2.383   2.447   2.406  2.3051  1.8349  0.2476
  781SOL     OW 2341   3.031   0.939   2.020 -0.1360  0.2771  0.3536
  781SOL    HW1 2342   2.978   0.851   2.014  1.5153  1.0497  0.2379
  781SOL    HW2 2343   3.059   0.968   1.927 -0.0807 -2.0981  0.2881
  782SOL     OW 2344   1.446   2.462   2.726 -0.1427 -1.1779 -0.1010
  782SOL    HW1 2345   1.471   2.366   2.711 -1.5105  1.7249 -0.4449
  782SOL    HW2 2346   1.377   2.502   2.658  0.7023  3.9662 -1.4480
  783SOL     OW 2347   0.864   2.304   1.067  0.2113  0.6146  0.4367
  783SOL    HW1 2348   0.947   2.346   1.026 -0.4867  0.2372 -1.2795
  783SOL    HW2 2349   0.794   2.379   1.080 -2.4345  1.9729 -0.8897
  784SOL     OW 2350   2.192   0.405   2.440  0.1739 -1.0635 -0.5823
  784SOL    HW1 2351   2.131   0.340   2.486  1.2166  0.8474 -1.5963
  784SOL    HW2 2352   2.198   0.393   2.340  0.2042  1.9492  1.5887
  785SOL     OW 2353   0.182   0.192   1.424 -0.1619 -0.5374  0.3335
  785SOL    HW1 2354   0.222   0.101   1.405 -2.2865  1.0461 -0.0889
  785SOL    HW2 2355   0.247   0.261   1.460  0.3223 -0.9861  0.6935
  786SOL     OW 2356   1.383   2.429   0.054  0.3272 -0.3296  0.9191
  786SOL    HW1 2357   1.471   2.381   0.048  3.6013 -1.0195 -3.6333
  786SOL    HW2 2358   1.389   2.490   0.132  3.0403 -2.1419  0.2445
  787SOL     OW 2359   1.063   0.134   0.787  0.4830 -0.3566  0.5270
  787SOL    HW1 2360   0.990   0.072   0.816 -1.6993  1.0979 -2.4315
  787SOL    HW2 2361   1.107   0.194   0.856  0.8797  3.0325 -0.1877
  788SOL     OW 2362   0.158   1.287   1.255  0.2077  0.0484  0.0844
  788SOL    HW1 2363   0.117   1.370   1.214  1.6081  2.4555 -1.2955
  788SOL    HW2 2364   0.106   1.250   1.332  1.3067  0.9140 -1.7578
  789SOL     OW 2365   2.634   1.021   2.250  0.3666  0.0426 -0.4855
  789SOL    HW1 2366   2.562   1.077   2.212  1.5917 -1.7897 -0.7614
  789SOL    HW2 2367   2.705   1.082   2.293  0.1172  1.5440  1.4353
  790SOL     OW 2368   1.258   0.607   2.665 -0.3306  0.1996 -0.0564
  790SOL    HW1 2369   1.259   0.709   2.645  0.1592  1.8621 -2.8960
  790SOL    HW2 2370   1.166   0.582   2.711  0.9552 -0.3240 -0.9798
  791SOL     OW 2371   0.137   2.560   0.271  0.3164 -0.4306  0.1455
  791SOL    HW1 2372   0.079   2.644   0.283 -1.0432 -1.3243 -0.6939
  791SOL    HW2 2373   0.237   2.586   0.264  0.6258 -0.4959 -1.5171
  792SOL     OW 2374   1.153   0.779   1.902 -0.3667 -0.0901  0.1650
  792SOL    HW1 2375   1.235   0.742   1.950 -2.1021  0.3748 -2.2598
  792SOL    HW2 2376   1.138   0.729   1.816 -2.7780  1.1764  2.1693
  793SOL     OW 2377   2.744   0.359   1.150 -0.6835  0.4771 -0.0893
  793SOL    HW1 2378   2.795   0.272   1.141  1.0672 -0.5556 -1.3429
  793SOL    HW2 2379   2.661   0.349   1.211 -0.9885 -1.4918  1.4788
  794SOL     OW 2380   2.835   0.248   2.486 -0.1595 -0.2199  0.0455
  794SOL    HW1 2381   2.804   0.225   2.392 -2.2344 -3.1344 -1.0449
  794SOL    HW2 2382   2.936   0.270   2.489  1.4930  3.2983 -0.7159
  795SOL     OW 2383   0.437   1.534   0.086 -0.1559 -0.8397 -0.1384
  795SOL    HW1 2384   0.506   1.493   0.149  2.0745 -1.9163  0.6862
  795SOL    HW2 2385   0.398   1.616   0.127 -0.8921 -1.1788 -2.2621
  796SOL     OW 2386   2.679   0.816   2.894 -0.3062 -0.1582 -0.2530
  796SOL    HW1 2387   2.726   0.738   2.939  0.7377  0.7511 -1.3797
  796SOL    HW2 2388   2.704   0.801   2.796 -1.0051  0.9486  0.5596
  797SOL     OW 2389   2.345   2.948   2.513  0.1962  0.2249  0.6903
  797SOL    HW1 2390   2.436   2.977   2.481  1.5418  1.6736 -2.8865
  797SOL    HW2 2391   2.298   2.889   2.447  0.3499  0.6438  0.2431
  798SOL     OW 2392   0.071   3.029   1.073  0.1920 -0.1572  0.6279
  798SOL    HW1 2393   0.057   2.928   1.070  1.1357  0.0278  1.4655
  798SOL    HW2 2394   0.061   3.060   1.167  2.4000 -0.5466 -2.3726
  799SOL     OW 2395   2.852   0.854   1.591  0.2464 -0.2936 -0.0048
  799SOL    HW1 2396   2.817   0.825   1.500  0.8662  0.4145 -1.8197
  799SOL    HW2 2397   2.775   0.876   1.652 -0.3156 -0.9526  1.4104
  800SOL     OW 2398   0.573   1.441   0.328  0.1050 -0.6641  0.9601
  800SOL    HW1 2399   0.609   1.352   0.323 -0.4015  3.8779  0.5441
  800SOL    HW2 2400   0.504   1.449   0.403 -2.4208  0.8644  0.4193
  801SOL     OW 2401   1.944   1.885   0.393  0.2717  0.1552  0.3205
  801SOL    HW1 2402   1.987   1.899   0.301 -0.7381 -0.6741 -0.6400
  801SOL    HW2 2403   1.844   1.873   0.377 -1.0940 -0.9701 -2.3825
  802SOL     OW 2404   1.353   1.188   2.789 -0.1918 -0.4253 -0.3438
  802SOL    HW1 2405   1.428   1.124   2.764  0.9104 -0.9056 -1.1205
  802SOL    HW2 2406   1.329   1.196   2.887  0.5815  0.2917 -4.6831
  803SOL     OW 2407   1.032   1.824   1.484 -0.3708 -0.2886 -0.2067
  803SOL    HW1 2408   1.004   1.806   1.585  2.2338 -0.6077  0.0695
  803SOL    HW2 2409   1.118   1.879   1.494  0.8534  0.6347 -1.8493
  804SOL     OW 2410   1.482   2.322   0.749  0.3729  0.4125  0.0608
  804SOL    HW1 2411   1.557   2.284   0.805  0.8511  2.2075  2.0224
  804SOL    HW2 2412   1.511   2.336   0.654 -0.9131  0.2626  2.5950
  805SOL     OW 2413   2.914   2.334   2.603  0.0833  0.7710  0.2302
  805SOL    HW1 2414   2.872   2.354   2.517 -1.5637  2.0462  1.3543
  805SOL    HW2 2415   2.992   2.268   2.586 -0.0490  0.2716 -0.7783
  806SOL     OW 2416   3.038   0.111   0.462 -0.1862 -0.0600  0.6513
  806SOL    HW1 2417   2.996   0.130   0.553 -0.6119  4.3822 -2.7563
  806SOL    HW2 2418   0.034   0.074   0.487  1.4368 -0.9765  1.5290
  807SOL     OW 2419   2.335   0.756   2.928 -0.9754 -0.4903 -0.0595
  807SOL    HW1 2420   2.394   0.679   2.940  0.3177  1.2011 -0.6017
  807SOL    HW2 2421   2.240   0.744   2.961 -0.6577  0.1078  2.5588
  808SOL     OW 2422   1.219   2.297   0.786  0.5845 -0.1931  0.6599
  808SOL    HW1 2423   1.319   2.313   0.778 -1.6091  0.9933 -0.8592
  808SOL    HW2 2424   1.204   2.245   0.870  0.4005 -0.2293  1.3400
  809SOL     OW 2425   2.697   0.002   0.100 -0.2080 -0.0320  0.4781
  809SOL    HW1 2426   2.739   3.055   0.019  0.0058 -1.3395  1.2420
  809SOL    HW2 2427   2.713   0.106   0.101  3.2558  0.1866  0.2229
  810SOL     OW 2428   1.326   1.162   0.762 -0.3534  0.1466  0.0713
  810SOL    HW1 2429   1.273   1.202   0.842 -1.8396  0.2064  0.6152
  810SOL    HW2 2430   1.300   1.064   0.749 -0.2327 -0.5372  2.1053
  811SOL     OW 2431   1.705   2.599   1.481 -0.4818 -0.3730  0.2084
  811SOL    HW1 2432   1.637   2.669   1.449  1.1772  2.3014  0.3909
  811SOL    HW2 2433   1.701   2.586   1.582 -1.0604  1.7375 -1.3556
  812SOL     OW 2434   1.652   2.927   0.355 -0.2294  0.1032 -0.3254
  812SOL    HW1 2435   1.606   2.978   0.429  0.1023  3.0683  2.9461
  812SOL    HW2 2436   1.635   2.967   0.266  1.2997  1.8716  0.9969
  813SOL     OW 2437   0.987   0.216   2.242  0.7206 -0.3328  1.1463
  813SOL    HW1 2438   0.902   0.181   2.196 -1.7998 -1.9526 -1.1574
  813SOL    HW2 2439   1.049   0.143   2.279 -0.3718  0.5740  0.7404
  814SOL     OW 2440   0.348   3.089   1.077  0.7693 -0.1402  0.1606
  814SOL    HW1 2441   0.247   0.001   1.102 -1.7083 -0.1430 -0.5910
  814SOL    HW2 2442   0.414   0.034   1.144  0.7581 -0.5769  1.5711
  815SOL     OW 2443   0.268   2.678   0.803 -0.1934  0.6072  0.0964
  815SOL    HW1 2444   0.200   2.721   0.743  1.3765 -0.8059 -0.5163
  815SOL    HW2 2445   0.362   2.717   0.791  0.4964  2.2906  1.1451
  816SOL     OW 2446   2.555   1.597   2.714 -0.2991  0.1368  0.4667
  816SOL    HW1 2447   2.455   1.602   2.729 -0.2599 -0.0426 -1.0158
  816SOL    HW2 2448   2.583   1.548   2.628  2.2882 -2.5853 -2.3734
  817SOL     OW 2449   1.434   3.058   3.032 -0.2801  0.1761  0.5368
  817SOL    HW1 2450   1.343   3.029   3.058  1.8146  0.0038  2.2578
  817SOL    HW2 2451   1.458   3.061   2.932  1.6632 -1.3829 -2.1241
  818SOL     OW 2452   1.669   0.826   0.340  0.5003  0.0069  0.3541
  818SOL    HW1 2453   1.722   0.898   0.385  1.2536 -0.1107 -0.0439
  818SOL    HW2 2454   1.592   0.791   0.394  0.7411  0.8257 -1.3425
  819SOL     OW 2455   1.881   2.561   2.644 -0.2612 -0.0329  0.4748
  819SOL    HW1 2456   1.799   2.585   2.584 -2.9874  0.3994  1.3473
  819SOL    HW2 2457   1.877   2.591   2.740 -0.1266  0.5828 -0.9041
  820SOL     OW 2458   1.054   0.651   0.223  0.7997 -0.1018 -0.2848
  820SOL    HW1 2459   1.076   0.615   0.134 -1.1512 -0.6776 -0.2427
  820SOL    HW2 2460   1.038   0.752   0.215  2.7588  1.3821  0.5996
  821SOL     OW 2461   0.411   0.627   1.401  0.6092 -0.2513 -0.1131
  821SOL    HW1 2462   0.487   0.692   1.394  0.3176  1.1806 -0.9917
  821SOL    HW2 2463   0.346   0.642   1.323  2.7933 -0.8025  1.2134
  822SOL     OW 2464   1.448   2.400   2.127  0.3297  0.4050 -0.2827
  822SOL    HW1 2465   1.530   2.349   2.168  1.7855 -3.2759 -0.7932
  822SOL    HW2 2466   1.392   2.329   2.080  0.6521  0.3638 -0.4621
  823SOL     OW 2467   0.670   1.045   1.953  0.0625  0.0535 -0.3100
  823SOL    HW1 2468   0.728   1.119   1.907  2.5714  1.4968 -1.6688
  823SOL    HW2 2469   0.694   1.036   2.053 -0.1470 -0.9518 -1.1716
  824SOL     OW 2470   2.395   3.060   1.888  0.3206 -0.0140 -0.0658
  824SOL    HW1 2471   2.364   2.991   1.823  1.2825 -0.9118  0.3222
  824SOL    HW2 2472   2.471   0.023   1.849 -0.0891  2.7946 -0.4476
  825SOL     OW 2473   0.931   1.240   0.161 -0.3787  0.4306 -0.0081
  825SOL    HW1 2474   1.019   1.184   0.147  0.0665  1.2967  1.5446
  825SOL    HW2 2475   0.853   1.201   0.105  1.5460  1.2511 -0.1652
  826SOL     OW 2476   1.969   0.556   2.481 -0.9722  0.2365  0.2681
  826SOL    HW1 2477   1.965   0.635   2.540  0.2771 -1.0031  0.3422
  826SOL    HW2 2478   2.064   0.515   2.470  1.0126 -1.6041 -2.1166
  827SOL     OW 2479   0.433   2.154   2.794  0.2200  0.2272 -0.1902
  827SOL    HW1 2480   0.507   2.224   2.818  0.8296  0.9480  1.5859
  827SOL    HW2 2481   0.424   2.141   2.693  1.3831  1.1082  1.5646
  828SOL     OW 2482   2.800   0.160   1.443 -0.3239  0.5101 -0.0848
  828SOL    HW1 2483   2.728   0.136   1.375 -0.9721 -0.2513  0.0502
  828SOL    HW2 2484   2.861   0.240   1.418  0.9008 -1.7138  1.5994
  829SOL     OW 2485   1.456   1.694   1.204  0.5524 -0.2229 -0.4485
  829SOL    HW1 2486   1.543   1.720   1.237 -0.7459 -3.3928  0.9762
  829SOL    HW2 2487   1.467   1.607   1.156 -0.0156 -2.4973  2.6668
  830SOL     OW 2488   0.366   1.015   1.623  0.5646  0.2436 -0.1841
  830SOL    HW1 2489   0.348   1.005   1.524  0.1505  0.5485  2.1198
  830SOL    HW2 2490   0.286   1.067   1.668 -2.4746  3.6471  0.0252
  831SOL     OW 2491   0.346   1.789   0.150  0.2484  0.5133  0.1916
  831SOL    HW1 2492   0.288   1.769   0.072 -1.0703 -1.9736 -2.3130
  831SOL    HW2 2493   0.402   1.872   0.133 -1.6872 -1.1938  0.1449
  832SOL     OW 2494   0.913   0.288   2.833 -0.4035  0.4767 -0.7762
  832SOL    HW1 2495   0.920   0.197   2.883  2.5918 -1.4138  1.5819
  832SOL    HW2 2496   0.814   0.299   2.809 -4.5374  0.6072  0.5996
  833SOL     OW 2497   3.011   0.582   1.952  0.2940  0.8408  0.1907
  833SOL    HW1 2498   3.092   0.608   1.894 -0.2325 -0.2494 -1.9967
  833SOL    HW2 2499   2.935   0.646   1.930 -0.3261  0.1518 -0.0030
  834SOL     OW 2500   0.223   0.617   1.190  0.3195  0.0083  0.2062
  834SOL    HW1 2501   0.220   0.656   1.097  0.7195  2.0635  1.7901
  834SOL    HW2 2502   0.213   0.514   1.187  1.0390  0.3080  0.4152
  835SOL     OW 2503   2.620   2.885   1.065 -0.0469 -0.4640  0.4545
  835SOL    HW1 2504   2.667   2.905   0.980 -2.5945 -1.7882  1.7672
  835SOL    HW2 2505   2.687   2.833   1.127 -0.2651 -1.2823  1.6589
  836SOL     OW 2506   0.418   1.897   2.866 -0.8913 -0.0657 -0.0849
  836SOL    HW1 2507   0.482   1.913   2.944  1.0147  1.6280  1.9916
  836SOL    HW2 2508   0.422   1.978   2.805 -0.6555  1.8134  2.6819
  837SOL     OW 2509   2.005   2.136   2.601 -0.0253 -0.2810 -0.1723
  837SOL    HW1 2510   1.936   2.180   2.666 -0.6496  0.9991 -2.3258
  837SOL    HW2 2511   1.981   2.166   2.507 -0.0658  0.9848  2.8275
  838SOL     OW 2512   2.969   1.244   2.118  0.2870 -0.1483 -0.0154
  838SOL    HW1 2513   2.931   1.199   2.201 -1.0519  1.3110 -1.2156
  838SOL    HW2 2514   2.994   1.165   2.059 -0.7224 -0.4103 -1.3137
  839SOL     OW 2515   1.014   0.914   0.211 -0.1919  0.3189  0.0082
  839SOL    HW1 2516   0.915   0.901   0.180  0.1530 -0.6300  2.7436
  839SOL    HW2 2517   1.066   0.965   0.136  3.5982  0.7709 -1.1347
  840SOL     OW 2518   1.522   0.633   0.551 -0.6232  0.1771  0.2471
  840SOL    HW1 2519   1.495   0.729   0.563 -0.4734 -1.9151 -0.7749
  840SOL    HW2 2520   1.459   0.571   0.603  0.2192 -1.5755 -2.0234
  841SOL     OW 2521   0.515   2.772   0.774  0.5777  0.1290 -0.1550
  841SOL    HW1 2522   0.521   2.842   0.853  2.1759  1.4622  3.4552
  841SOL    HW2 2523   0.604   2.719   0.765 -2.1178 -1.5655  1.8879
  842SOL     OW 2524   0.475   0.220   0.248 -0.0283  0.2837  0.0894
  842SOL    HW1 2525   0.426   0.140   0.218 -0.6498  2.1266  1.8645
  842SOL    HW2 2526   0.500   0.292   0.180 -0.0502  1.1895  2.7492
  843SOL     OW 2527   0.339   0.443   1.791  0.6098  0.2551 -0.1637
  843SOL    HW1 2528   0.407   0.519   1.780 -1.1293  2.2660 -0.1747
  843SOL    HW2 2529   0.330   0.422   1.887 -0.4406  2.4723 -1.3254
  844SOL     OW 2530   1.844   2.653   2.910 -0.3136 -0.4864 -0.4204
  844SOL    HW1 2531   1.816   2.749   2.928 -1.4889  0.9767  1.4721
  844SOL    HW2 2532   1.777   2.588   2.944  0.7061  0.6390  0.4219
  845SOL     OW 2533   2.606   2.789   2.092  0.2786 -0.7858  0.1046
  845SOL    HW1 2534   2.558   2.874   2.108  2.4193 -1.9006  0.4152
  845SOL    HW2 2535   2.684   2.774   2.151 -4.0605 -1.3773 -0.7130
  846SOL     OW 2536   1.793   1.807   2.447  0.1968  0.5073 -0.1690
  846SOL    HW1 2537   1.875   1.785   2.503  1.3130 -1.7806  1.8156
  846SOL    HW2 2538   1.823   1.847   2.359  0.2841 -1.2849  3.1894
  847SOL     OW 2539   2.104   2.679   2.089 -0.1025 -0.0929  0.1180
  847SOL    HW1 2540   2.026   2.615   2.115 -1.9083 -1.6400 -1.0427
  847SOL    HW2 2541   2.070   2.743   2.014 -2.9273  3.4171 -1.2466
  848SOL     OW 2542   0.239   2.894   0.515 -0.3409  0.2346  0.0108
  848SOL    HW1 2543   0.322   2.849   0.537 -1.5705  2.6198 -0.5118
  848SOL    HW2 2544   0.227   2.915   0.412  0.4500  1.4656  1.4326
  849SOL     OW 2545   0.599   2.797   1.338  0.1971  0.0599 -0.2014
  849SOL    HW1 2546   0.612   2.696   1.354  3.1328  2.4233 -3.5135
  849SOL    HW2 2547   0.679   2.831   1.287 -0.4318 -0.6744  1.3997
  850SOL     OW 2548   0.264   1.284   0.856 -0.5563  0.0813  0.6865
  850SOL    HW1 2549   0.199   1.240   0.790 -0.2989 -0.7251 -0.1833
  850SOL    HW2 2550   0.244   1.379   0.880  0.4061 -1.9211  1.4957
  851SOL     OW 2551   3.091   0.502   2.970  0.2216  0.6411 -0.3100
  851SOL    HW1 2552   0.072   0.485   3.035  0.3388  1.9985  0.9761
  851SOL    HW2 2553   3.084   0.420   2.906 -2.3883 -2.4325 -1.3125
  852SOL     OW 2554   1.473   1.837   2.150 -0.6046  0.5703  0.3415
  852SOL    HW1 2555   1.503   1.740   2.140  2.3658  2.1992  2.8257
  852SOL    HW2 2556   1.488   1.857   2.250  2.0068  1.9916  2.0279
  853SOL     OW 2557   0.632   1.929   0.458 -0.4494  0.0727  0.0933
  853SOL    HW1 2558   0.675   1.964   0.544 -1.1923  3.6585 -0.1429
  853SOL    HW2 2559   0.638   1.990   0.377  1.7399  2.8780  0.4520
  854SOL     OW 2560   1.631   1.012   1.439  0.3521  0.0164  0.4688
  854SOL    HW1 2561   1.636   1.109   1.471  1.9975  0.5315  0.3804
  854SOL    HW2 2562   1.697   0.999   1.359  3.6426  1.3770 -2.8766
  855SOL     OW 2563   0.498   2.011   0.086  0.1721 -0.3181  0.0969
  855SOL    HW1 2564   0.592   1.977   0.070 -0.1707  1.9185 -0.9531
  855SOL    HW2 2565   0.498   2.105   0.113 -1.0192 -0.7766  2.1799
  856SOL     OW 2566   3.013   3.015   1.709  0.5998  0.2879 -0.3829
  856SOL    HW1 2567   0.002   2.996   1.766  0.2329  0.3167 -1.3787
  856SOL    HW2 2568   2.946   3.078   1.753 -0.4665 -1.1656 -1.4831
  857SOL     OW 2569   0.233   0.370   2.035 -0.4011 -0.2244 -0.0495
  857SOL    HW1 2570   0.181   0.286   2.023 -0.1475  0.9169  2.3186
  857SOL    HW2 2571   0.214   0.407   2.132 -1.4499 -0.0414  1.2229
  858SOL     OW 2572   2.743   1.988   2.203  0.0259 -0.6490 -0.1290
  858SOL    HW1 2573   2.653   1.943   2.225 -2.8267 -0.2667  0.2162
  858SOL    HW2 2574   2.801   1.998   2.286 -0.1788  0.3959  0.4447
  859SOL     OW 2575   2.230   2.711   0.539  0.5228 -0.3597 -0.4040
  859SOL    HW1 2576   2.210   2.637   0.469 -0.4953  0.9468 -0.3618
  859SOL    HW2 2577   2.214   2.686   0.637  1.4649 -1.1271  0.2012
  860SOL     OW 2578   1.668   0.468   0.387  0.6998 -0.4138  0.1323
  860SOL    HW1 2579   1.612   0.546   0.422  1.8989 -0.9012 -0.1057
  860SOL    HW2 2580   1.752   0.456   0.444 -1.0022 -0.1764  0.5473
  861SOL     OW 2581   0.439   0.414   0.958  0.1448 -0.0443 -0.3084
  861SOL    HW1 2582   0.512   0.480   0.982 -1.2683 -0.4622  0.9271
  861SOL    HW2 2583   0.377   0.398   1.039 -3.8589 -0.0541 -1.7558
  862SOL     OW 2584   2.160   0.620   1.515  0.0668 -0.0768 -0.0072
  862SOL    HW1 2585   2.146   0.563   1.428 -1.0772  1.9248 -0.9187
  862SOL    HW2 2586   2.142   0.721   1.493  0.4574  1.3594 -1.1161
  863SOL     OW 2587   0.499   1.510   1.146  0.0965  0.3370  0.0136
  863SOL    HW1 2588   0.506   1.462   1.058  0.0358  1.9529  2.5337
  863SOL    HW2 2589   0.522   1.610   1.146 -1.0342 -1.2218  2.6755
  864SOL     OW 2590   2.408   2.980   2.162  0.1727 -0.5203 -0.6016
  864SOL    HW1 2591   2.410   2.995   2.059  1.0694 -2.2531  1.0301
  864SOL    HW2 2592   2.329   2.922   2.193  0.8679 -0.0291 -0.7163
  865SOL     OW 2593   1.681   0.388   1.841 -0.0867 -0.1667 -0.0737
  865SOL    HW1 2594   1.650   0.394   1.745  1.1421 -0.2553  0.5306
  865SOL    HW2 2595   1.674   0.293   1.871  1.6932  1.7002  1.0900
  866SOL     OW 2596   2.744   2.883   0.818  0.5420  0.0187 -0.1781
  866SOL    HW1 2597   2.844   2.887   0.828 -1.0434 -2.7492 -0.8742
  866SOL    HW2 2598   2.717   2.912   0.725  1.3527 -0.2632 -0.3005
  867SOL     OW 2599   2.640   2.518   0.757  0.0491  0.0507  0.1309
  867SOL    HW1 2600   2.601   2.430   0.736  1.7674 -0.6309  0.6670
  867SOL    HW2 2601   2.617   2.588   0.681  1.3677  3.1376 -2.0769
  868SOL     OW 2602   1.407   1.963   2.644 -0.4151  0.2574 -0.0815
  868SOL    HW1 2603   1.306   1.960   2.654 -0.6819 -0.7933  0.3782
  868SOL    HW2 2604   1.458   1.923   2.724  0.9822  1.2038 -0.0841
  869SOL     OW 2605   2.386   1.757   0.640  0.3808 -0.6907  0.0268
  869SOL    HW1 2606   2.360   1.660   0.622 -1.2915 -0.9198 -0.0045
  869SOL    HW2 2607   2.360   1.821   0.564 -0.7127  1.5786  0.2578
  870SOL     OW 2608   2.626   1.653   0.313 -0.6629  0.1283  0.4872
  870SOL    HW1 2609   2.647   1.553   0.292  0.9689 -2.9689 -0.4577
  870SOL    HW2 2610   2.679   1.703   0.241 -0.2550 -1.2338  0.9120
  871SOL     OW 2611   3.095   0.749   1.598  0.3771 -0.2715 -0.4641
  871SOL    HW1 2612   0.039   0.759   1.506  1.1430  0.6445  3.4641
  871SOL    HW2 2613   3.003   0.794   1.602 -3.0714  2.1318  0.7712
  872SOL     OW 2614   0.480   1.879   2.345  0.4820 -0.0670 -0.0443
  872SOL    HW1 2615   0.510   1.886   2.250  0.3517  0.7377  1.7382
  872SOL    HW2 2616   0.433   1.789   2.352  1.0327 -0.6917 -0.3098
  873SOL     OW 2617   0.459   2.454   1.910  0.0607  0.4042 -0.0426
  873SOL    HW1 2618   0.460   2.478   1.808  0.6075  2.8796 -1.1486
  873SOL    HW2 2619   0.539   2.486   1.967  0.6250  1.2165  1.4280
  874SOL     OW 2620   1.089   0.880   2.131 -0.3786  0.1362  0.2750
  874SOL    HW1 2621   1.119   0.976   2.128 -0.0937 -1.7950  0.0289
  874SOL    HW2 2622   1.104   0.848   2.035 -0.5921  0.0627  0.6521
  875SOL     OW 2623   2.796   2.756   1.224  0.2154  0.2259  0.2012
  875SOL    HW1 2624   2.769   2.780   1.317  1.6698 -0.0643 -1.8840
  875SOL    HW2 2625   2.862   2.679   1.229 -1.5630 -0.1247 -1.9134
  876SOL     OW 2626   1.089   1.242   0.558 -0.0759  0.5598  0.2767
  876SOL    HW1 2627   1.072   1.211   0.655 -2.1117 -1.1954  3.1093
  876SOL    HW2 2628   1.014   1.302   0.521 -1.2147  0.4773  0.6800
  877SOL     OW 2629   1.069   0.569   1.401  0.4518  0.2856 -0.3336
  877SOL    HW1 2630   1.167   0.579   1.422  2.2579  0.9534  0.8525
  877SOL    HW2 2631   1.048   0.493   1.333 -2.4596 -0.7556 -3.6009
  878SOL     OW 2632   2.455   1.899   2.908 -0.1019  0.0525 -0.4031
  878SOL    HW1 2633   2.470   1.797   2.939 -0.8022 -2.0111  1.1457
  878SOL    HW2 2634   2.511   1.937   2.832  0.3199 -1.3623 -1.8248
  879SOL     OW 2635   2.183   1.905   1.772  0.2702  0.2763  0.1261
  879SOL    HW1 2636   2.221   2.000   1.781 -0.2042 -0.9214  0.9198
  879SOL    HW2 2637   2.094   1.904   1.717 -1.4677 -1.8246 -2.0576
  880SOL     OW 2638   1.182   2.268   1.069  0.0101 -0.4065 -0.4300
  880SOL    HW1 2639   1.243   2.338   1.117 -0.1020  0.2113 -1.6025
  880SOL    HW2 2640   1.130   2.204   1.128 -0.4440  0.0922 -2.1533
  881SOL     OW 2641   1.265   1.873   0.610 -0.6420 -0.4933 -0.0477
  881SOL    HW1 2642   1.200   1.953   0.622 -0.4047  0.9602 -0.3015
  881SOL    HW2 2643   1.229   1.779   0.637 -0.6849 -0.4964  2.7163
  882SOL     OW 2644   1.979   1.593   2.658  0.1630  0.0366  0.1173
  882SOL    HW1 2645   1.975   1.561   2.563  1.3358  0.6258  2.1186
  882SOL    HW2 2646   2.056   1.654   2.676  0.4164 -1.2692 -1.6696
  883SOL     OW 2647   1.526   0.649   1.193 -0.5769  0.0370 -0.4727
  883SOL    HW1 2648   1.488   0.721   1.132 -1.7441  0.7214 -1.7863
  883SOL    HW2 2649   1.515   0.555   1.160 -2.6527  1.7150 -0.7118
  884SOL     OW 2650   3.082   2.747   1.055 -0.1263 -0.0947 -0.2173
  884SOL    HW1 2651   3.010   2.718   0.997  0.2352  1.0323  0.6264
  884SOL    HW2 2652   0.047   2.668   1.069 -0.7536 -1.3952  0.6354
  885SOL     OW 2653   0.842   1.331   2.070  0.5395 -0.0440  0.3438
  885SOL    HW1 2654   0.756   1.328   2.130  1.7404  1.0338  1.0706
  885SOL    HW2 2655   0.833   1.279   1.979 -1.8784 -0.5585 -0.6060
  886SOL     OW 2656   1.094   1.168   2.655 -0.1888 -0.7503  0.8182
  886SOL    HW1 2657   1.022   1.172   2.726 -1.7702 -2.5738 -0.1122
  886SOL    HW2 2658   1.187   1.164   2.692 -4.1652  1.1483 -3.9621
  887SOL     OW 2659   1.546   0.216   0.920  0.1737 -0.3061 -0.6277
  887SOL    HW1 2660   1.459   0.194   0.873  1.4535 -1.2353 -1.4201
  887SOL    HW2 2661   1.601   0.133   0.931 -1.2207  0.7628 -0.7173
  888SOL     OW 2662   2.122   0.815   2.113  0.7238  0.3414 -0.0831
  888SOL    HW1 2663   2.041   0.827   2.172  0.1051 -0.0583  1.4514
  888SOL    HW2 2664   2.113   0.841   2.015 -3.0737  0.2082 -0.0341
  889SOL     OW 2665   2.790   2.045   0.820 -0.4024 -0.3459 -0.5231
  889SOL    HW1 2666   2.841   1.984   0.882 -0.1801 -0.9021  4.3687
  889SOL    HW2 2667   2.699   2.060   0.865 -1.5267 -2.8135  0.2729
  890SOL     OW 2668   1.108   2.409   0.088  0.2405 -0.3685  0.3824
  890SOL    HW1 2669   1.093   2.451   0.182 -0.8791  2.0167 -0.8709
  890SOL    HW2 2670   1.207   2.421   0.053 -0.3164  1.3783 -2.3790
  891SOL     OW 2671   2.846   0.752   2.627 -0.0466  0.3649 -0.6782
  891SOL    HW1 2672   2.894   0.799   2.550  1.8099 -2.4680 -0.9569
  891SOL    HW2 2673   2.752   0.715   2.601  0.2910  0.6063  2.2818
  892SOL     OW 2674   2.948   2.352   1.315  0.1136  0.4243  0.1498
  892SOL    HW1 2675   2.946   2.386   1.220  0.5729 -2.8689 -1.1530
  892SOL    HW2 2676   2.903   2.258   1.316 -0.2420 -0.3324 -0.0167
  893SOL     OW 2677   1.218   0.032   1.200 -0.0013  0.1086  0.1213
  893SOL    HW1 2678   1.301   3.081   1.177 -0.9007  1.2894  0.7445
  893SOL    HW2 2679   1.215   0.061   1.300  0.2532 -1.0342 -0.4658
  894SOL     OW 2680   2.838   0.106   1.094 -0.1781  0.2238  0.2085
  894SOL    HW1 2681   2.745   0.079   1.126  1.5913 -1.1718  1.7174
  894SOL    HW2 2682   2.904   0.036   1.123  1.1835 -0.7185 -1.3726
  895SOL     OW 2683   1.524   1.822   2.426 -0.6573 -0.5690  0.0487
  895SOL    HW1 2684   1.625   1.831   2.434  0.8665  2.2334 -0.7385
  895SOL    HW2 2685   1.474   1.863   2.505  0.0110 -0.7328 -1.2580
  896SOL     OW 2686   1.955   0.786   1.245  0.4836  0.0114 -0.0495
  896SOL    HW1 2687   2.000   0.823   1.327 -1.1976 -0.3909  1.9482
  896SOL    HW2 2688   2.018   0.749   1.177  0.6710  1.5266  2.5693
  897SOL     OW 2689   0.470   1.447   1.606 -0.1321 -0.2603 -0.6471
  897SOL    HW1 2690   0.454   1.423   1.507  0.3207  0.8158  1.3276
  897SOL    HW2 2691   0.469   1.359   1.665  1.4785  3.4414 -1.3544
  898SOL     OW 2692   1.576   2.179   2.313 -0.4017 -0.1560  0.0027
  898SOL    HW1 2693   1.618   2.088   2.288 -1.4793 -0.1521  0.5416
  898SOL    HW2 2694   1.480   2.172   2.286  1.5359 -2.7832 -0.9395
  899SOL     OW 2695   1.325   1.867   0.939  0.3382 -0.0511  0.2954
  899SOL    HW1 2696   1.224   1.875   0.940  0.2865  0.5459  0.1586
  899SOL    HW2 2697   1.341   1.790   0.874 -2.0332 -0.7898 -0.8934
  900SOL     OW 2698   0.539   3.051   2.558  0.5512 -0.5540  0.7458
  900SOL    HW1 2699   0.603   3.033   2.637  2.2816  3.3741 -2.1387
  900SOL    HW2 2700   0.586   0.007   2.484  1.1988  0.0791 -0.2163
  901SOL     OW 2701   1.024   1.458   2.255  0.3895  0.1795 -0.8338
  901SOL    HW1 2702   0.989   1.437   2.162  4.4827 -0.5339 -0.2238
  901SOL    HW2 2703   1.004   1.384   2.320  1.9741  0.5698  0.7162
  902SOL     OW 2704   1.867   0.788   2.929 -0.2196 -0.4800  0.4626
  902SOL    HW1 2705   1.901   0.883   2.922  2.3802  1.7126  1.7286
  902SOL    HW2 2706   1.800   0.778   3.010  0.2427  1.3235  2.7982
  903SOL     OW 2707   2.015   1.271   2.783  0.1674  0.0021 -0.2440
  903SOL    HW1 2708   2.001   1.363   2.822  0.6437 -1.1835 -0.2473
  903SOL    HW2 2709   1.974   1.272   2.690 -0.9090  0.0320 -2.6669
  904SOL     OW 2710   1.632   1.204   1.678  0.1355 -0.2117  0.7764
  904SOL    HW1 2711   1.563   1.150   1.730  1.9626 -0.4397 -2.1176
  904SOL    HW2 2712   1.598   1.298   1.649 -2.2280  1.8801 -1.3774
  905SOL     OW 2713   2.534   0.513   1.038 -0.2189  0.6424  0.1886
  905SOL    HW1 2714   2.496   0.473   0.952  1.5215 -0.0109  0.1648
  905SOL    HW2 2715   2.585   0.444   1.096 -2.2416  1.4451  0.6020
  906SOL     OW 2716   0.337   1.425   0.578  0.7578 -0.1296  0.6029
  906SOL    HW1 2717   0.311   1.350   0.522 -1.3008  0.1274  2.6488
  906SOL    HW2 2718   0.275   1.439   0.658  2.5981  0.5265 -0.6935
  907SOL     OW 2719   1.302   0.097   0.362 -0.6507 -0.2700 -0.2151
  907SOL    HW1 2720   1.265   0.030   0.431 -0.8263 -0.8371 -0.1424
  907SOL    HW2 2721   1.395   0.136   0.387  0.7623 -0.4039 -0.2411
  908SOL     OW 2722   1.184   2.742   1.784 -0.1547 -0.2983 -0.4862
  908SOL    HW1 2723   1.108   2.711   1.850 -1.3427 -0.1097  3.3912
  908SOL    HW2 2724   1.170   2.714   1.691  1.0024  0.8313  1.3284
  909SOL     OW 2725   2.353   0.669   1.937  0.1017  0.0052 -0.0294
  909SOL    HW1 2726   2.384   0.624   2.020  0.6392 -0.3606 -0.3567
  909SOL    HW2 2727   2.373   0.770   1.949 -0.3571  0.7207  1.3891
  910SOL     OW 2728   1.162   0.062   2.354  0.4372 -0.3265  0.5086
  910SOL    HW1 2729   1.232   0.134   2.374 -0.1148  1.7564 -3.3789
  910SOL    HW2 2730   1.119   0.023   2.435  0.8995  0.3635  0.2716
  911SOL     OW 2731   2.502   1.490   2.464  0.2725 -0.8260  0.2858
  911SOL    HW1 2732   2.503   1.485   2.365 -3.2405  0.5264  0.0963
  911SOL    HW2 2733   2.407   1.466   2.490 -1.7879 -0.3958 -1.4880
  912SOL     OW 2734   2.373   2.110   1.412 -0.4686 -0.1056 -0.2083
  912SOL    HW1 2735   2.451   2.150   1.352  1.5951  0.8733 -2.0100
  912SOL    HW2 2736   2.300   2.176   1.438  1.0171  0.7716  0.2101
  913SOL     OW 2737   2.539   2.075   1.804 -0.2005  0.1674 -0.3083
  913SOL    HW1 2738   2.609   2.144   1.806 -1.2769 -1.6179 -0.5776
  913SOL    HW2 2739   2.441   2.110   1.800  0.7779  1.5386  0.4479
  914SOL     OW 2740   1.972   2.111   0.800  0.9887  0.4068 -0.2177
  914SOL    HW1 2741   2.048   2.148   0.854 -0.2077 -0.9301 -0.9177
  914SOL    HW2 2742   2.001   2.044   0.731  1.7358 -0.1402  0.4027
  915SOL     OW 2743   0.959   2.599   2.190 -0.7411 -0.1714 -0.0296
  915SOL    HW1 2744   0.889   2.538   2.230  2.1200 -1.1960  0.0308
  915SOL    HW2 2745   1.056   2.558   2.206  4.5198 -0.4673 -0.1867
  916SOL     OW 2746   0.058   2.162   0.785  0.4417 -0.7505 -0.0887
  916SOL    HW1 2747   0.051   2.266   0.794 -1.6160  4.1104  0.1474
  916SOL    HW2 2748   0.148   2.117   0.787 -2.4386  0.4677  1.5428
  917SOL     OW 2749   2.880   1.092   2.850 -0.1829  0.4697  0.1074
  917SOL    HW1 2750   2.916   1.000   2.833 -0.9296  1.4194  2.2350
  917SOL    HW2 2751   2.938   1.163   2.800  2.5879  1.0625 -2.4195
  918SOL     OW 2752   1.318   2.142   2.322 -0.1894 -0.2955 -0.3552
  918SOL    HW1 2753   1.320   2.144   2.424 -0.5335 -0.3129 -0.9954
  918SOL    HW2 2754   1.219   2.169   2.304 -2.6825 -0.1635  0.7699
  919SOL     OW 2755   1.703   2.179   0.844  0.9980  0.0129 -0.2838
  919SOL    HW1 2756   1.654   2.091   0.867  0.2514 -0.7447  0.9958
  919SOL    HW2 2757   1.802   2.152   0.835  1.1379  0.0093  1.7258
  920SOL     OW 2758   1.292   0.527   2.406 -0.7286 -0.1375 -0.0950
  920SOL    HW1 2759   1.254   0.580   2.490 -0.2569  0.7628  1.6216
  920SOL    HW2 2760   1.228   0.546   2.328  0.0041  1.0361  1.2228
  921SOL     OW 2761   3.047   0.263   2.824  0.3311 -0.0905  0.0809
  921SOL    HW1 2762   2.978   0.302   2.759 -0.1905 -0.3904 -1.2522
  921SOL    HW2 2763   0.032   0.221   2.776  0.2603  0.5824 -0.0733
  922SOL     OW 2764   2.526   1.501   1.679 -0.5104  0.3910 -0.1879
  922SOL    HW1 2765   2.432   1.536   1.667 -2.0513  0.9212 -1.2327
  922SOL    HW2 2766   2.586   1.555   1.616 -2.1972 -0.8686  0.7982
  923SOL     OW 2767   0.121   1.650   2.439  0.9447  0.0918 -0.3762
  923SOL    HW1 2768   0.068   1.703   2.376  0.5790  0.5749  1.6726
  923SOL    HW2 2769   0.065   1.612   2.517  1.9534 -0.1702  1.7417
  924SOL     OW 2770   1.743   0.343   2.208  0.2792  0.8034 -0.0253
  924SOL    HW1 2771   1.705   0.326   2.301  1.3997 -0.7326  1.8473
  924SOL    HW2 2772   1.798   0.427   2.198  2.0836  0.0166  0.3190
  925SOL     OW 2773   2.961   1.014   0.167  1.0159  1.0633 -0.3745
  925SOL    HW1 2774   2.899   0.941   0.125 -1.9115 -0.0300 -1.4448
  925SOL    HW2 2775   2.975   0.998   0.267 -0.0844 -1.1278  0.6894
  926SOL     OW 2776   2.699   0.185   0.873  0.2574 -0.0219  0.3669
  926SOL    HW1 2777   2.694   0.289   0.851 -2.2577  0.5658 -0.0447
  926SOL    HW2 2778   2.760   0.164   0.950 -1.3157 -0.9883 -2.7224
  927SOL     OW 2779   1.223   0.883   0.717  0.3838 -0.0797  0.6390
  927SOL    HW1 2780   1.203   0.895   0.622 -0.1411 -0.1159  2.5098
  927SOL    HW2 2781   1.141   0.905   0.765  2.7141  0.5462 -2.0183
  928SOL     OW 2782   3.077   0.155   2.233  0.0203 -0.1494 -0.6095
  928SOL    HW1 2783   2.989   0.180   2.183 -0.8096  0.4547 -1.3610
  928SOL    HW2 2784   3.091   0.228   2.309 -1.6282  2.9021  0.1749
  929SOL     OW 2785   2.506   0.753   1.431  0.1086  0.1209  0.1270
  929SOL    HW1 2786   2.601   0.780   1.400 -0.2127 -0.3152 -0.7113
  929SOL    HW2 2787   2.500   0.727   1.529  2.4228  0.4981 -0.3643
  930SOL     OW 2788   2.003   2.633   0.993 -0.6262  0.1851  0.4752
  930SOL    HW1 2789   1.935   2.576   0.946  1.7576  0.0393  1.8292
  930SOL    HW2 2790   2.083   2.636   0.940 -0.3211 -0.1351  1.3968
  931SOL     OW 2791   2.112   1.306   0.791  0.0572 -0.1148  0.3918
  931SOL    HW1 2792   2.054   1.356   0.723 -2.2985 -1.1065  0.1476
  931SOL    HW2 2793   2.164   1.237   0.740  2.3147  0.3071  0.3268
  932SOL     OW 2794   0.120   0.808   1.368  0.2472 -0.4667 -0.3674
  932SOL    HW1 2795   0.094   0.885   1.306  1.6559 -1.4889 -1.8115
  932SOL    HW2 2796   0.152   0.728   1.310  0.7979 -0.5690 -0.0147
  933SOL     OW 2797   2.195   1.468   2.139 -0.5852  0.6264  0.1216
  933SOL    HW1 2798   2.126   1.544   2.163 -2.2824 -0.3505 -1.3979
  933SOL    HW2 2799   2.180   1.444   2.042  1.1086 -0.2196 -0.6118
  934SOL     OW 2800   1.521   2.774   1.395  0.6945 -0.1131  0.0355
  934SOL    HW1 2801   1.505   2.777   1.293 -0.8317  0.4355 -2.5486
  934SOL    HW2 2802   1.443   2.828   1.445 -1.4526  1.0005  1.8753
  935SOL     OW 2803   0.629   0.819   1.391 -0.0890 -0.5293 -0.2420
  935SOL    HW1 2804   0.551   0.884   1.393  1.3503 -2.1900  1.2488
  935SOL    HW2 2805   0.711   0.864   1.435  2.0240 -3.2599 -2.1276
  936SOL     OW 2806   2.374   0.690   1.184 -0.2774  1.0959 -0.0580
  936SOL    HW1 2807   2.440   0.622   1.145  2.1864 -0.3249 -1.0534
  936SOL    HW2 2808   2.418   0.737   1.263 -2.0682 -1.0347 -1.6226
  937SOL     OW 2809   0.972   3.002   1.252  0.7104  0.7032 -0.5891
  937SOL    HW1 2810   0.947   3.070   1.322  1.3581 -0.6308 -2.4958
  937SOL    HW2 2811   1.044   3.030   1.190  1.8305 -1.7634  0.1960
  938SOL     OW 2812   2.891   2.295   0.786  0.5687 -0.2265 -0.1074
  938SOL    HW1 2813   2.868   2.199   0.782 -0.9405 -1.6741  1.3546
  938SOL    HW2 2814   2.905   2.322   0.880 -3.3762  2.5258 -1.3123
  939SOL     OW 2815   3.071   1.634   2.659  0.2046 -0.1535 -0.2308
  939SOL    HW1 2816   2.987   1.681   2.702 -3.5066  0.9582  0.6673
  939SOL    HW2 2817   0.069   1.673   2.685  0.1925 -0.2615 -0.8563
  940SOL     OW 2818   2.256   2.655   2.769  0.0289 -0.1111  0.0570
  940SOL    HW1 2819   2.206   2.640   2.684  2.0570  0.4688  2.0449
  940SOL    HW2 2820   2.299   2.751   2.768 -1.1242  1.6447  1.0687
  941SOL     OW 2821   1.601   2.660   0.388 -0.2462  0.2864  0.0397
  941SOL    HW1 2822   1.690   2.607   0.384  0.0269 -1.5707 -1.2417
  941SOL    HW2 2823   1.597   2.746   0.337  0.7394 -1.2195  0.2146
  942SOL     OW 2824   1.728   1.978   1.239 -0.0805 -0.0398 -0.3087
  942SOL    HW1 2825   1.693   1.931   1.325  1.6537  1.1959  2.0576
  942SOL    HW2 2826   1.674   2.066   1.231 -1.5443  0.5752  0.7013
  943SOL     OW 2827   1.765   0.932   1.952 -0.4745 -0.2223 -0.4047
  943SOL    HW1 2828   1.678   0.901   1.909  1.3691 -1.2045 -1.0143
  943SOL    HW2 2829   1.843   0.902   1.893 -1.2588 -0.4985 -0.3491
  944SOL     OW 2830   1.643   0.625   1.980  0.1382 -0.5125  0.0327
  944SOL    HW1 2831   1.644   0.541   1.926  0.6875 -1.3994  2.4044
  944SOL    HW2 2832   1.724   0.617   2.042 -0.1351  1.3563 -1.4849
  945SOL     OW 2833   2.791   2.189   1.075 -0.6832 -0.4799  0.1348
  945SOL    HW1 2834   2.828   2.280   1.042  2.4317  2.9203 -1.0743
  945SOL    HW2 2835   2.856   2.133   1.128 -0.9841  2.0061  1.1041
  946SOL     OW 2836   0.861   1.123   1.531 -0.3331  0.6330 -0.5406
  946SOL    HW1 2837   0.779   1.131   1.476  1.2911  0.8003  4.4292
  946SOL    HW2 2838   0.841   1.046   1.597  0.7756 -0.2453  2.8893
  947SOL     OW 2839   0.574   2.402   0.753 -0.6956 -0.1296 -0.3441
  947SOL    HW1 2840   0.531   2.446   0.835  1.2851  1.2554 -1.3382
  947SOL    HW2 2841   0.502   2.394   0.682  1.5158 -0.6357  0.5049
  948SOL     OW 2842   2.971   1.595   1.816  0.0754  0.6403 -0.1109
  948SOL    HW1 2843   3.067   1.588   1.778 -1.9644  1.9508  0.6299
  948SOL    HW2 2844   2.917   1.660   1.760 -0.2296 -0.3439  1.1838
  949SOL     OW 2845   0.448   0.653   2.160 -0.3213 -0.6713  0.0625
  949SOL    HW1 2846   0.441   0.742   2.211 -0.6024  1.6310  1.0243
  949SOL    HW2 2847   0.419   0.665   2.063 -2.2221  2.7943  0.6856
  950SOL     OW 2848   0.472   0.759   0.957 -0.0579  0.5800 -0.5029
  950SOL    HW1 2849   0.518   0.853   0.949 -1.3515 -2.5767  0.8560
  950SOL    HW2 2850   0.373   0.774   0.947  1.0353  0.0544 -3.9971
  951SOL     OW 2851   1.035   1.738   2.293 -0.5752  0.2050  0.2205
  951SOL    HW1 2852   1.002   1.648   2.262  0.9721  2.1027 -1.0866
  951SOL    HW2 2853   1.134   1.733   2.325  0.1701  0.2596 -0.6394
  952SOL     OW 2854   1.194   1.487   2.807  0.3518 -0.0879  0.4044
  952SOL    HW1 2855   1.224   1.429   2.735 -1.2199  2.6119  3.0050
  952SOL    HW2 2856   1.270   1.515   2.868 -0.6229 -0.2087 -3.0754
  953SOL     OW 2857   1.076   3.055   2.598  0.0992 -0.5530 -0.2997
  953SOL    HW1 2858   1.071   0.045   2.643 -1.0912 -5.5336  0.3234
  953SOL    HW2 2859   1.073   2.980   2.659 -2.2789  0.3477 -0.7235
  954SOL     OW 2860   2.279   1.533   0.528  0.2225 -0.0174 -0.5563
  954SOL    HW1 2861   2.324   1.550   0.441 -1.4148 -0.2997  2.5948
  954SOL    HW2 2862   2.273   1.429   0.547 -1.1246 -3.2155  1.8613
  955SOL     OW 2863   0.224   2.462   2.939  0.3309 -0.4032  0.2419
  955SOL    HW1 2864   0.244   2.480   2.840 -1.1101  0.4682  1.1295
  955SOL    HW2 2865   0.231   2.363   2.961 -0.5793  1.1579 -0.0192
  956SOL     OW 2866   1.115   0.719   1.636  0.5783  0.2555  0.1134
  956SOL    HW1 2867   1.133   0.623   1.597  0.1016  1.5975  0.7645
  956SOL    HW2 2868   1.117   0.796   1.567  1.1418  2.0267  1.8805
  957SOL     OW 2869   1.983   1.523   2.395 -0.2424 -0.1209  0.0663
  957SOL    HW1 2870   1.938   1.440   2.354 -1.2615 -2.4378  2.3808
  957SOL    HW2 2871   2.000   1.591   2.321 -0.1882 -1.6761  0.3018
  958SOL     OW 2872   1.732   2.337   1.395 -0.1547 -0.0666 -0.0941
  958SOL    HW1 2873   1.701   2.433   1.415  2.5900  0.9780 -0.4149
  958SOL    HW2 2874   1.794   2.325   1.318 -1.5399 -1.7917  1.9618
  959SOL     OW 2875   1.576   1.465   1.714  0.2619 -0.2280 -0.0277
  959SOL    HW1 2876   1.543   1.558   1.679  0.0834 -0.4723 -2.3516
  959SOL    HW2 2877   1.543   1.445   1.807  0.4236  0.5696 -0.4343
  960SOL     OW 2878   3.028   0.850   2.837 -0.2014  0.0623  0.4293
  960SOL    HW1 2879   2.961   0.776   2.829 -3.0848 -0.2925  3.8696
  960SOL    HW2 2880   3.074   0.874   2.747  3.8135 -2.3991 -1.1335
  961SOL     OW 2881   0.302   0.761   1.941  0.1862  0.1994  0.4733
  961SOL    HW1 2882   0.225   0.703   1.910 -2.8147 -1.5428 -0.0712
  961SOL    HW2 2883   0.373   0.766   1.865  0.7787 -0.6886 -2.2147
  962SOL     OW 2884   1.521   1.683   0.294  0.3075 -0.0358  0.0755
  962SOL    HW1 2885   1.440   1.697   0.355 -0.0843 -0.1661  1.0457
  962SOL    HW2 2886   1.556   1.587   0.315 -2.6915 -0.4604  1.0082
  963SOL     OW 2887   1.221   2.478   2.578 -0.3163 -0.1300  0.2595
  963SOL    HW1 2888   1.216   2.483   2.476  1.8834  1.2344  1.2247
  963SOL    HW2 2889   1.229   2.385   2.617  1.6800  0.8399  0.2911
  964SOL     OW 2890   1.017   2.519   0.333 -0.4939 -0.2032  0.0073
  964SOL    HW1 2891   0.975   2.592   0.269  0.7285  3.7265  0.0699
  964SOL    HW2 2892   0.996   2.551   0.430 -0.0220 -0.1270 -0.5360
  965SOL     OW 2893   0.564   2.971   0.969 -0.0873  0.3520 -0.0437
  965SOL    HW1 2894   0.638   2.943   1.034 -0.2595 -0.0742 -0.8604
  965SOL    HW2 2895   0.492   3.027   1.007  0.1879 -1.9523  1.6734
  966SOL     OW 2896   0.075   1.145   2.971 -0.2913 -0.9777  0.1323
  966SOL    HW1 2897   3.084   1.185   3.011  0.8281  2.3657  2.1988
  966SOL    HW2 2898   0.122   1.084   3.036  3.2703 -0.3407  1.3744
  967SOL     OW 2899   0.964   2.898   2.220  0.0399 -0.0624 -0.0587
  967SOL    HW1 2900   1.014   2.956   2.154 -0.2186  2.2598  1.7723
  967SOL    HW2 2901   0.972   2.799   2.193 -0.1260 -0.5622  0.2134
  968SOL     OW 2902   2.116   0.453   0.378  0.5428  0.3033  0.2121
  968SOL    HW1 2903   2.156   0.392   0.449 -0.1119 -0.4436 -0.9802
  968SOL    HW2 2904   2.081   0.540   0.414 -1.5845  0.7521 -0.9676
  969SOL     OW 2905   2.892   1.749   2.054  0.0207  0.1655  0.2623
  969SOL    HW1 2906   2.800   1.792   2.064 -0.6497  0.9239  1.4326
  969SOL    HW2 2907   2.889   1.677   1.980  3.4059 -2.6863 -1.4937
  970SOL     OW 2908   2.187   1.418   1.374  0.6261 -0.3404  0.1084
  970SOL    HW1 2909   2.188   1.513   1.336  1.1665  0.3943 -0.8519
  970SOL    HW2 2910   2.277   1.371   1.367  0.3437 -0.3506 -2.2576
  971SOL     OW 2911   1.968   0.351   1.160 -0.0805 -0.2663 -0.1107
  971SOL    HW1 2912   2.026   0.421   1.197 -1.8049 -0.7084 -1.8208
  971SOL    HW2 2913   1.991   0.337   1.059 -0.8557 -1.2175 -0.3801
  972SOL     OW 2914   0.427   3.052   1.941 -0.4965 -0.0019 -0.3928
  972SOL    HW1 2915   0.425   0.046   1.992 -1.0933 -0.8664  0.2770
  972SOL    HW2 2916   0.398   3.069   1.844 -1.1846  0.8602 -2.9776
  973SOL     OW 2917   2.656   0.987   0.350  0.1180  0.1963  0.1134
  973SOL    HW1 2918   2.582   0.988   0.276 -1.6537  0.6064 -0.7309
  973SOL    HW2 2919   2.727   1.054   0.327 -0.1923 -1.0358 -0.9568
  974SOL     OW 2920   1.664   1.541   2.521 -0.5326  0.5742 -0.2067
  974SOL    HW1 2921   1.708   1.631   2.507 -3.1331 -0.7438  2.8099
  974SOL    HW2 2922   1.635   1.509   2.428 -0.2552  2.2916 -1.2160
  975SOL     OW 2923   0.209   2.664   1.412  0.1333 -0.2000 -0.0078
  975SOL    HW1 2924   0.240   2.705   1.319 -2.2518  1.0266 -1.7271
  975SOL    HW2 2925   0.127   2.709   1.456 -1.2561 -0.0091  1.7156
  976SOL     OW 2926   0.102   1.682   1.625 -0.1202 -0.2124  0.0230
  976SOL    HW1 2927   0.091   1.749   1.550  2.5519  0.1689 -0.9719
  976SOL    HW2 2928   0.185   1.694   1.684 -0.8118 -0.1710 -0.3817
  977SOL     OW 2929   0.829   2.637   2.902  0.2828 -0.2441  0.2065
  977SOL    HW1 2930   0.757   2.687   2.848 -1.7210  0.6791  0.0616
  977SOL    HW2 2931   0.858   2.555   2.844 -1.2063  0.8608  1.0733
  978SOL     OW 2932   0.559   1.678   2.643 -0.6974 -0.3500  0.4197
  978SOL    HW1 2933   0.637   1.716   2.592  2.1925  0.5585 -0.6903
  978SOL    HW2 2934   0.564   1.710   2.740  1.0973 -2.5332 -0.7002
  979SOL     OW 2935   1.852   2.403   0.912  0.3180 -0.0936  0.2917
  979SOL    HW1 2936   1.872   2.387   1.011 -0.3350  1.8208 -0.5577
  979SOL    HW2 2937   1.802   2.324   0.880 -0.2714  1.4780  0.9567
  980SOL     OW 2938   1.056   1.734   2.942 -0.0459 -0.3828 -0.3462
  980SOL    HW1 2939   1.114   1.677   2.881  0.0594 -1.3678 -0.8230
  980SOL    HW2 2940   1.088   1.833   2.938  0.8390  0.7880 -1.6277
  981SOL     OW 2941   2.783   0.011   2.576 -0.1715 -0.2598 -0.2243
  981SOL    HW1 2942   2.788   0.112   2.547  0.2141  0.5368  0.4199
  981SOL    HW2 2943   2.720   3.059   2.518  4.8492  2.2180  5.2716
  982SOL     OW 2944   0.312   2.885   2.859 -0.1350 -0.2043  0.1554
  982SOL    HW1 2945   0.232   2.835   2.889  2.0793  0.7545 -0.3833
  982SOL    HW2 2946   0.397   2.826   2.852 -2.9820 -0.3685 -2.9490
  983SOL     OW 2947   2.415   0.936   1.880  0.1355 -0.1786  0.3237
  983SOL    HW1 2948   2.432   1.002   1.949  0.0011 -1.8722  0.6670
  983SOL    HW2 2949   2.353   0.973   1.807 -0.9304 -0.3496 -0.4968
  984SOL     OW 2950   1.441   0.393   2.109 -0.1897  0.3554 -0.1573
  984SOL    HW1 2951   1.452   0.362   2.208  0.0464 -0.0006  2.2880
  984SOL    HW2 2952   1.525   0.436   2.074  0.2528 -1.1491 -0.7847
  985SOL     OW 2953   1.082   1.982   1.981 -0.1030 -0.3851 -0.2541
  985SOL    HW1 2954   1.043   1.891   2.011 -0.2024 -0.3754  1.5944
  985SOL    HW2 2955   1.182   1.981   1.961 -1.5231  1.8497 -0.4057
  986SOL     OW 2956   1.771   0.109   2.089  0.2567 -0.4757 -0.6912
  986SOL    HW1 2957   1.838   0.111   2.015  0.2249  2.0494 -2.0365
  986SOL    HW2 2958   1.765   0.203   2.142  1.5662  1.6092 -0.1171
  987SOL     OW 2959   2.011   0.862   1.796  0.7370 -0.4930  0.2128
  987SOL    HW1 2960   2.038   0.763   1.796  2.0692 -1.4262  0.8981
  987SOL    HW2 2961   2.086   0.925   1.778 -1.7201 -2.3235  0.9267
  988SOL     OW 2962   2.594   0.691   2.563  0.1347 -0.3211  0.4661
  988SOL    HW1 2963   2.571   0.787   2.539 -4.3131  0.4483  1.8891
  988SOL    HW2 2964   2.510   0.640   2.540 -2.0251  0.3381 -0.4825
  989SOL     OW 2965   2.657   2.581   2.487  0.0426 -0.0403  0.0988
  989SOL    HW1 2966   2.587   2.547   2.421 -0.0573  0.5297  0.3253
  989SOL    HW2 2967   2.640   2.551   2.577  0.6896 -1.2546 -1.6022
  990SOL     OW 2968   0.851   0.742   2.788  0.8279  0.2416 -0.0874
  990SOL    HW1 2969   0.935   0.788   2.824 -0.3093  1.2486  0.8451
  990SOL    HW2 2970   0.766   0.802   2.784  0.5475 -1.8335 -0.7428
  991SOL     OW 2971   1.137   0.613   3.073  0.7025 -0.2610 -0.2108
  991SOL    HW1 2972   1.098   0.590   2.981  1.9844  2.5932 -1.1954
  991SOL    HW2 2973   1.205   0.692   3.067  1.5579  1.4997  0.5211
  992SOL     OW 2974   2.509   2.324   2.611 -0.1992 -0.0994  0.3039
  992SOL    HW1 2975   2.578   2.324   2.536  0.2613 -0.7237  2.6459
  992SOL    HW2 2976   2.531   2.397   2.683  0.2438 -0.6751 -0.6615
  993SOL     OW 2977   0.467   0.296   0.520 -0.6733 -0.0266  0.4753
  993SOL    HW1 2978   0.486   0.283   0.419  2.0453 -0.7281 -1.5370
  993SOL    HW2 2979   0.368   0.295   0.543 -1.5225  1.4127 -0.6915
  994SOL     OW 2980   0.414   2.225   1.666  0.7432  0.2277  0.2830
  994SOL    HW1 2981   0.376   2.234   1.762 -0.4740 -0.0025  1.1527
  994SOL    HW2 2982   0.447   2.316   1.638  2.6060  1.1572  2.4037
  995SOL     OW 2983   2.198   1.863   3.004  0.1517 -0.4702  0.5499
  995SOL    HW1 2984   2.297   1.873   2.984 -0.4349  3.1162  0.4936
  995SOL    HW2 2985   2.169   1.765   3.005 -1.5461  1.8380 -0.8388
  996SOL     OW 2986   1.291   1.704   2.408  0.0564  0.1433  0.7770
  996SOL    HW1 2987   1.304   1.606   2.401 -1.5268  4.7836  0.8462
  996SOL    HW2 2988   1.376   1.752   2.373  2.8418  1.1345  1.9818
  997SOL     OW 2989   1.825   1.036   1.224 -0.7199  0.2185  0.4033
  997SOL    HW1 2990   1.864   1.125   1.253 -0.1236 -0.5403  0.4314
  997SOL    HW2 2991   1.902   0.977   1.193 -0.5989  1.5102 -1.5878
  998SOL     OW 2992   2.656   1.408   0.184 -0.1623  1.1578  0.2907
  998SOL    HW1 2993   2.567   1.362   0.195  0.0183  0.8548  3.2945
  998SOL    HW2 2994   2.688   1.411   0.089 -0.4939 -0.7962  0.4555
  999SOL     OW 2995   2.897   2.278   0.322  0.1105  0.1102 -0.5389
  999SOL    HW1 2996   2.944   2.316   0.406  1.8808 -1.0028  2.4718
  999SOL    HW2 2997   2.935   2.187   0.293  0.0013  0.1487 -1.2336
 1000SOL     OW 2998   0.732   0.104   2.127 -0.0464  0.2493  0.0806
 1000SOL    HW1 2999   0.633   0.115   2.100 -0.8920  1.4396 -2.4841
 1000SOL    HW2 3000   0.785   0.077   2.053 -0.6913 -2.4616  1.3660
   3.09596   3.09596   3.09596
