1000 SPC/Fw water molecules t=  41.00000 step= 41000
 3000
    1SOL     OW    1   2.019   2.593   0.456  0.0933  0.4034 -0.0053
    1SOL    HW1    2   2.063   2.586   0.366  1.0631  0.7011  0.3933
    1SOL    HW2    3   1.918   2.569   0.447  1.1476 -2.1709  0.4201
    2SOL     OW    4   1.261   0.654   2.173  0.0309 -0.3620 -0.3267
    2SOL    HW1    5   1.337   0.602   2.211 -3.9067  1.7323  0.5066
    2SOL    HW2    6   1.186   0.667   2.247 -1.2376 -0.4709  0.5980
    3SOL     OW    7   1.056   2.870   2.721 -0.3432 -0.0769  0.6683
    3SOL    HW1    8   1.110   2.868   2.808  1.2451  0.8929 -0.5389
    3SOL    HW2    9   0.977   2.802   2.717 -1.1044  1.7343  0.8311
    4SOL     OW   10   1.282   1.446   2.827  0.4531  0.1416 -0.3835
    4SOL    HW1   11   1.322   1.351   2.812  2.0235 -0.9712 -1.1586
    4SOL    HW2   12   1.340   1.516   2.783  0.6997  2.8188  1.9775
    5SOL     OW   13   0.709   1.176   2.148  0.2535 -0.1613  0.6284
    5SOL    HW1   14   0.804   1.153   2.169 -1.8199  0.4180 -2.1472
    5SOL    HW2   15   0.711   1.262   2.091  0.6190 -0.8609 -0.1498
    6SOL     OW   16   2.071   0.732   2.478 -0.0706  0.3012 -0.4410
    6SOL    HW1   17   2.066   0.631   2.502  1.2023 -1.2722  1.2450
    6SOL    HW2   18   2.161   0.746   2.441 -0.1703 -0.4301  0.3620
    7SOL     OW   19   0.448   0.755   1.331 -0.3837  0.0562 -0.2227
    7SOL    HW1   20   0.396   0.747   1.244  2.4457 -0.8393 -0.8167
    7SOL    HW2   21   0.547   0.731   1.311  2.1752  0.9780 -1.9324
    8SOL     OW   22   1.914   2.913   1.872  0.1289 -0.4509  0.9012
    8SOL    HW1   23   1.812   2.905   1.846 -1.9653  0.8440  2.2367
    8SOL    HW2   24   1.972   2.948   1.796  0.0061  3.2544  0.9891
    9SOL     OW   25   0.228   3.024   0.781  0.7970 -0.2753 -0.1304
    9SOL    HW1   26   0.293   0.025   0.802 -1.5702 -1.8597  0.9223
    9SOL    HW2   27   0.130   3.060   0.789 -0.3284  1.0287 -1.3886
   10SOL     OW   28   0.161   2.358   2.537  0.3043 -0.2899  0.2496
   10SOL    HW1   29   0.252   2.398   2.512  0.3113  2.0383  0.5433
   10SOL    HW2   30   0.177   2.277   2.599  1.9744 -1.9569 -1.0746
   11SOL     OW   31   0.851   1.603   2.915  0.4970 -0.2981  0.3255
   11SOL    HW1   32   0.901   1.518   2.935 -1.2619  2.1548 -1.2236
   11SOL    HW2   33   0.902   1.686   2.950  1.5846 -0.5509  0.8370
   12SOL     OW   34   2.310   2.605   1.104 -0.0989  0.1543 -0.4647
   12SOL    HW1   35   2.398   2.609   1.052  0.5828 -0.0845  1.5586
   12SOL    HW2   36   2.229   2.607   1.040  0.6056  0.4310  4.1394
   13SOL     OW   37   0.401   2.698   3.067  0.0326  0.5840  0.6872
   13SOL    HW1   38   0.437   2.783   0.041  1.4052  1.2735 -1.1251
   13SOL    HW2   39   0.470   2.668   2.997 -1.8018  0.2717  1.3704
   14SOL     OW   40   1.342   1.510   1.385 -0.3517 -0.3188 -0.5686
   14SOL    HW1   41   1.354   1.427   1.444 -0.9093 -1.1214  0.1306
   14SOL    HW2   42   1.285   1.581   1.435 -0.5657 -0.7300 -2.2977
   15SOL     OW   43   0.348   1.484   2.305 -0.0861  0.2063  0.2361
   15SOL    HW1   44   0.356   1.539   2.218 -0.0598  1.5547 -1.5249
   15SOL    HW2   45   0.261   1.437   2.306  0.9367  1.6913 -0.9350
   16SOL     OW   46   1.679   0.669   2.595 -0.4046  0.2581  0.2649
   16SOL    HW1   47   1.617   0.634   2.667 -0.3277  0.2073 -1.6499
   16SOL    HW2   48   1.690   0.768   2.613  1.3678  0.7868  2.0326
   17SOL     OW   49   2.915   2.704   2.374 -0.1608 -0.3678  0.1626
   17SOL    HW1   50   2.814   2.696   2.390 -2.7351  0.5063 -0.0491
   17SOL    HW2   51   2.978   2.647   2.431  2.7895  2.5220  1.0786
   18SOL     OW   52   1.451   1.153   0.703  0.5260  0.1609  0.3520
   18SOL    HW1   53   1.354   1.184   0.672 -1.1604  0.3283 -0.5715
   18SOL    HW2   54   1.484   1.069   0.651 -1.8604 -1.0535 -1.0446
   19SOL     OW   55   0.029   1.574   2.265 -0.0035  1.0865 -0.1149
   19SOL    HW1   56   0.077   1.486   2.250 -2.4844 -0.7197 -1.4389
   19SOL    HW2   57   0.023   1.631   2.179 -0.6372  1.8188 -0.4032
   20SOL     OW   58   2.199   2.543   2.506 -0.3184 -0.0438 -0.0772
   20SOL    HW1   59   2.128   2.497   2.567  0.9232 -1.8679 -0.4844
   20SOL    HW2   60   2.216   2.490   2.422 -0.8921  1.7894  2.7221
   21SOL     OW   61   1.729   1.989   0.775  0.0578  0.4149  0.0990
   21SOL    HW1   62   1.740   2.026   0.680  1.8367  0.9353  2.5764
   21SOL    HW2   63   1.740   2.059   0.844  0.3689  1.3149 -3.3899
   22SOL     OW   64   2.278   2.115   1.284  0.1699 -0.4050 -0.1713
   22SOL    HW1   65   2.282   2.075   1.193  0.6929 -0.9528 -1.0217
   22SOL    HW2   66   2.211   2.192   1.281 -1.2360  0.1321  2.1931
   23SOL     OW   67   3.013   1.485   1.282 -0.0403 -0.3733  0.3064
   23SOL    HW1   68   0.009   1.564   1.269  1.1390 -1.5912 -1.8575
   23SOL    HW2   69   2.915   1.517   1.271 -2.2225  0.1046  4.2615
   24SOL     OW   70   1.835   1.064   2.000 -0.6427  0.0302 -0.3861
   24SOL    HW1   71   1.765   1.001   1.948 -1.0418  1.7886 -1.0577
   24SOL    HW2   72   1.808   1.160   1.981 -3.1233  0.2031  0.6032
   25SOL     OW   73   1.721   0.062   2.191 -0.1419 -0.2429  0.0231
   25SOL    HW1   74   1.718   0.142   2.253 -0.1866 -0.8810  0.6000
   25SOL    HW2   75   1.811   0.012   2.199  3.0625 -0.3050  2.9665
   26SOL     OW   76   0.896   0.360   0.426 -0.7095  0.0840  0.1781
   26SOL    HW1   77   0.890   0.316   0.331 -0.8893 -1.2214 -2.7913
   26SOL    HW2   78   0.947   0.450   0.412  1.4989  0.1909  1.0746
   27SOL     OW   79   0.988   1.421   0.699 -0.2153 -0.4156 -0.2001
   27SOL    HW1   80   0.906   1.455   0.655  0.0018 -1.5536  0.9686
   27SOL    HW2   81   1.015   1.487   0.769  0.4341 -1.5035 -0.3740
   28SOL     OW   82   2.245   2.236   0.993 -0.7707  0.5719  0.4218
   28SOL    HW1   83   2.226   2.290   1.078 -0.2318  2.3326 -1.2314
   28SOL    HW2   84   2.292   2.296   0.928 -1.9659 -1.3673 -2.4409
   29SOL     OW   85   2.281   3.015   1.977 -0.0310  0.2288  1.0974
   29SOL    HW1   86   2.246   0.035   1.944 -2.9746  1.1644  0.2907
   29SOL    HW2   87   2.352   2.974   1.910  2.2944 -1.8402 -3.4101
   30SOL     OW   88   0.148   2.633   1.798  0.0125 -0.3811  0.0242
   30SOL    HW1   89   0.195   2.556   1.745  1.6874 -0.7864  0.6385
   30SOL    HW2   90   0.090   2.690   1.738  1.2328  1.8099  0.9335
   31SOL     OW   91   0.026   1.770   2.063  0.1954 -0.0197 -0.4980
   31SOL    HW1   92   3.062   1.865   2.066 -0.5073 -0.6891 -0.4717
   31SOL    HW2   93   0.013   1.729   1.972  2.8733 -4.7088 -0.8298
   32SOL     OW   94   1.697   2.439   2.209  0.1003  0.3960 -0.3209
   32SOL    HW1   95   1.604   2.459   2.169 -0.9395 -0.1330  0.8227
   32SOL    HW2   96   1.698   2.442   2.310  0.8269 -0.5763 -0.6234
   33SOL     OW   97   0.280   0.132   2.677  0.6308  0.6941  0.1136
   33SOL    HW1   98   0.381   0.114   2.690 -0.9722 -1.6609  0.3140
   33SOL    HW2   99   0.229   0.040   2.671 -0.9357 -0.4997  2.3437
   34SOL     OW  100   2.593   0.029   0.404  0.4499 -0.2048  0.5433
   34SOL    HW1  101   2.660   0.061   0.473  0.0224 -1.8604  1.3711
   34SOL    HW2  102   2.503   0.080   0.402 -0.2428 -1.2861 -2.0472
   35SOL     OW  103   2.804   2.757   1.625  0.4923 -0.4412 -0.7184
   35SOL    HW1  104   2.780   2.830   1.558 -0.3296  0.5864 -1.3838
   35SOL    HW2  105   2.718   2.705   1.654 -1.4586 -1.2278 -0.3203
   36SOL     OW  106   2.644   3.059   2.257 -0.0428  0.6395 -0.1674
   36SOL    HW1  107   2.665   3.052   2.358 -2.1857 -2.1394  0.9738
   36SOL    HW2  108   2.693   0.064   2.211  1.9087  1.6556 -1.5685
   37SOL     OW  109   1.447   0.111   0.118  0.4081  0.0297  0.2983
   37SOL    HW1  110   1.528   0.114   0.179 -0.6270  1.1017  0.0665
   37SOL    HW2  111   1.425   0.021   0.089 -4.6525  2.4128  2.2096
   38SOL     OW  112   0.261   0.434   0.038  0.1116 -0.4909  0.6107
   38SOL    HW1  113   0.324   0.487   0.100  2.9834 -2.6268 -0.8105
   38SOL    HW2  114   0.301   0.438   3.014 -0.7493  1.7737  1.2438
   39SOL     OW  115   1.372   1.724   2.084 -0.7511  0.3180 -0.0847
   39SOL    HW1  116   1.430   1.650   2.127 -0.6131 -3.6027  3.6158
   39SOL    HW2  117   1.326   1.777   2.157  1.2680  0.1142 -1.5745
   40SOL     OW  118   0.060   0.526   2.533 -0.3933  0.2173 -0.4613
   40SOL    HW1  119   0.116   0.607   2.508 -1.0346 -1.4273 -0.7356
   40SOL    HW2  120   0.102   0.436   2.521  0.6607  0.5941  0.7994
   41SOL     OW  121   1.547   1.023   2.127  0.7470  0.5813 -0.8550
   41SOL    HW1  122   1.594   1.007   2.038 -1.5874 -0.7947 -0.5966
   41SOL    HW2  123   1.595   0.960   2.199  2.0765 -1.8789  1.1675
   42SOL     OW  124   2.988   3.067   1.457  1.1823  0.0757 -0.2172
   42SOL    HW1  125   3.024   3.063   1.549 -2.0651 -0.1152 -0.9476
   42SOL    HW2  126   2.884   3.048   1.466 -0.9125 -0.3765  0.3981
   43SOL     OW  127   1.293   1.108   1.705 -0.1269 -0.2481  0.2394
   43SOL    HW1  128   1.354   1.120   1.788 -1.2880 -0.8029 -1.8751
   43SOL    HW2  129   1.234   1.024   1.704  3.1344 -1.2680  1.3272
   44SOL     OW  130   3.055   0.062   0.017  0.0983 -0.4793 -0.3904
   44SOL    HW1  131   0.052   0.099   0.084 -1.6165  0.9342  1.2619
   44SOL    HW2  132   2.991   3.069   0.064  1.7459  0.9421 -1.5341
   45SOL     OW  133   0.371   1.803   1.526 -0.1957  0.1430 -0.5676
   45SOL    HW1  134   0.394   1.862   1.454 -0.2346 -2.1800 -0.1814
   45SOL    HW2  135   0.408   1.710   1.510  2.3431  2.1306 -0.0450
   46SOL     OW  136   2.442   2.875   1.773  0.1345 -0.0173  0.3040
   46SOL    HW1  137   2.513   2.944   1.777 -0.1785 -0.1575 -0.8951
   46SOL    HW2  138   2.461   2.801   1.844  2.3496 -1.0087  1.8725
   47SOL     OW  139   0.573   1.896   1.199  0.4650  0.1619 -0.1597
   47SOL    HW1  140   0.599   1.804   1.235 -1.0512  0.6064  0.5512
   47SOL    HW2  141   0.491   1.888   1.141  2.0734 -0.0767  1.8774
   48SOL     OW  142   0.627   2.632   2.936  0.0058  0.5825 -0.1241
   48SOL    HW1  143   0.610   2.572   2.855  0.3762 -0.7510  0.6822
   48SOL    HW2  144   0.725   2.615   2.971  1.7539 -2.7506 -1.2979
   49SOL     OW  145   2.764   1.474   1.740  0.6722  0.5607  0.0231
   49SOL    HW1  146   2.849   1.448   1.688  0.3031  0.3279  0.2537
   49SOL    HW2  147   2.681   1.470   1.686  0.0659  0.9128 -0.0030
   50SOL     OW  148   1.369   2.815   0.537 -0.4014  0.1789 -0.1960
   50SOL    HW1  149   1.362   2.779   0.633  0.5482  0.6397 -0.8520
   50SOL    HW2  150   1.301   2.888   0.516  0.6153  1.7730 -0.4858
   51SOL     OW  151   0.991   0.017   1.069  0.2985 -0.5572 -0.1214
   51SOL    HW1  152   1.070   0.080   1.076 -0.1640 -1.4705 -0.2745
   51SOL    HW2  153   0.922   0.063   1.018 -0.6527 -1.7461  3.0288
   52SOL     OW  154   0.856   1.360   0.328 -0.3524 -0.6188 -1.0790
   52SOL    HW1  155   0.845   1.300   0.250  0.4640  2.2860  1.3692
   52SOL    HW2  156   0.803   1.316   0.407  0.3007  0.7435  3.4593
   53SOL     OW  157   1.289   2.782   2.631  0.1297 -0.1742 -0.1146
   53SOL    HW1  158   1.367   2.843   2.630 -2.8884  0.6026  2.3893
   53SOL    HW2  159   1.199   2.824   2.656 -1.5923 -0.0168  1.0718
   54SOL     OW  160   1.930   0.512   1.753 -0.0709 -0.4392 -0.1499
   54SOL    HW1  161   1.898   0.484   1.658 -0.2170 -0.1201 -1.9314
   54SOL    HW2  162   2.023   0.479   1.767 -2.4030 -0.9506 -1.2175
   55SOL     OW  163   2.991   2.370   0.552  0.1808  0.1275  0.0464
   55SOL    HW1  164   2.920   2.441   0.577 -1.6756 -0.3920  0.3772
   55SOL    HW2  165   0.003   2.423   0.530  0.8168 -1.7095  1.3834
   56SOL     OW  166   1.023   2.782   1.792 -0.2862 -0.0617 -0.2744
   56SOL    HW1  167   1.030   2.857   1.730  1.9102  1.1317 -1.4552
   56SOL    HW2  168   0.926   2.753   1.794 -1.3649 -1.4567 -1.0611
   57SOL     OW  169   1.869   0.892   2.376  0.5899  0.2201  0.0109
   57SOL    HW1  170   1.931   0.820   2.415  0.9323  3.3264 -0.8243
   57SOL    HW2  171   1.924   0.967   2.337  2.4257 -0.0612  0.5784
   58SOL     OW  172   0.171   0.869   2.069  0.3215 -0.4472  0.5926
   58SOL    HW1  173   0.110   0.784   2.080 -1.1614 -2.1941 -1.8405
   58SOL    HW2  174   0.179   0.898   1.972  2.3508  0.4720 -2.6003
   59SOL     OW  175   0.914   2.359   1.804  0.3970 -0.3593  0.0389
   59SOL    HW1  176   0.842   2.417   1.751 -3.0017  1.6618 -2.0322
   59SOL    HW2  177   1.013   2.390   1.785 -0.6191  1.0540  2.8212
   60SOL     OW  178   2.119   2.574   0.207  0.1131  0.3365 -0.3410
   60SOL    HW1  179   2.179   2.512   0.155 -0.1008 -0.6648 -0.3179
   60SOL    HW2  180   2.139   2.673   0.191  0.7476  0.4897 -0.5562
   61SOL     OW  181   1.608   2.580   0.697  0.0351 -0.5685  0.4375
   61SOL    HW1  182   1.599   2.481   0.717  0.7052  0.8302 -0.0691
   61SOL    HW2  183   1.523   2.635   0.714 -0.7816  1.4183  0.0634
   62SOL     OW  184   1.747   3.055   3.070 -0.3865  0.3971 -0.1894
   62SOL    HW1  185   1.806   2.986   0.044  0.4430  0.7912 -3.5073
   62SOL    HW2  186   1.684   0.033   0.055  1.0657  0.1383 -1.3204
   63SOL     OW  187   2.376   0.499   3.010  0.3973  0.5151 -0.0103
   63SOL    HW1  188   2.416   0.594   3.031  1.4628  3.1095  0.1047
   63SOL    HW2  189   2.449   0.438   2.968  0.7081 -2.3739 -1.4816
   64SOL     OW  190   1.383   0.972   2.873 -0.2709 -0.0122  0.3148
   64SOL    HW1  191   1.359   0.874   2.877 -0.1935 -0.2562 -1.1955
   64SOL    HW2  192   1.424   1.008   2.960  0.2559  2.6804 -0.2863
   65SOL     OW  193   0.677   2.799   1.479  0.5331  0.2056  0.0372
   65SOL    HW1  194   0.729   2.761   1.400 -0.1250 -1.6188 -0.4407
   65SOL    HW2  195   0.579   2.759   1.479 -3.4757  0.5720  1.1282
   66SOL     OW  196   1.045   1.352   1.486  0.4031  0.4464 -0.0061
   66SOL    HW1  197   1.077   1.257   1.462 -2.9102  1.1474  0.0043
   66SOL    HW2  198   1.092   1.388   1.564  0.0737  0.5417 -2.3910
   67SOL     OW  199   2.173   2.086   1.969 -0.5851  0.0689 -0.4794
   67SOL    HW1  200   2.204   2.183   1.964  1.8871  2.0152 -0.0061
   67SOL    HW2  201   2.187   2.039   1.881  1.6905  0.8665  0.6977
   68SOL     OW  202   0.815   1.421   2.024  0.1846 -0.5618  0.1067
   68SOL    HW1  203   0.761   1.505   2.013 -1.2446  0.8837  1.6079
   68SOL    HW2  204   0.836   1.388   1.929 -1.0589  0.3151  0.7650
   69SOL     OW  205   2.817   2.588   0.291 -0.9473  0.5292 -0.0355
   69SOL    HW1  206   2.912   2.567   0.264  0.6292 -0.2230  0.9194
   69SOL    HW2  207   2.804   2.681   0.327  1.0545 -0.8144 -1.0865
   70SOL     OW  208   2.327   0.807   2.401 -0.0207  0.5375  0.1077
   70SOL    HW1  209   2.406   0.741   2.399 -2.9583 -1.3204 -0.6326
   70SOL    HW2  210   2.364   0.901   2.411 -0.8234 -1.5155 -0.1025
   71SOL     OW  211   0.528   2.034   0.849 -0.0073  0.6311  0.8188
   71SOL    HW1  212   0.467   1.997   0.920 -0.9706 -2.0881  0.5629
   71SOL    HW2  213   0.517   2.132   0.834 -0.5736  1.1436 -0.9884
   72SOL     OW  214   2.497   2.068   0.781  0.1702  0.6161 -0.2031
   72SOL    HW1  215   2.458   2.138   0.719 -1.0503 -1.2411  1.6646
   72SOL    HW2  216   2.563   2.119   0.838 -1.6529  1.3528  1.0250
   73SOL     OW  217   1.170   0.638   0.608  0.2138 -0.4124  0.2284
   73SOL    HW1  218   1.139   0.608   0.518 -0.8631  1.1642 -3.1022
   73SOL    HW2  219   1.267   0.607   0.631  0.7127 -2.1811  2.8069
   74SOL     OW  220   2.510   2.177   1.876  0.7270 -0.6732  0.0649
   74SOL    HW1  221   2.490   2.088   1.849  0.7419  2.1398 -0.3422
   74SOL    HW2  222   2.422   2.231   1.893 -1.1812  1.0635  0.6729
   75SOL     OW  223   1.440   1.494   1.870 -0.0395  0.5762 -0.0120
   75SOL    HW1  224   1.346   1.523   1.870  1.3435  0.5133 -1.4763
   75SOL    HW2  225   1.474   1.503   1.965 -0.6457  2.5254  1.4482
   76SOL     OW  226   1.108   1.851   1.128 -0.0042 -0.1739  0.6951
   76SOL    HW1  227   1.193   1.891   1.089  0.2165 -0.0413 -0.2583
   76SOL    HW2  228   1.124   1.751   1.138 -0.9874  0.7704 -1.4027
   77SOL     OW  229   2.735   1.286   1.946  0.1579 -0.3192  0.0360
   77SOL    HW1  230   2.731   1.327   2.040 -2.6034 -0.3650  3.5920
   77SOL    HW2  231   2.743   1.356   1.874 -1.0033 -0.5852  1.2774
   78SOL     OW  232   1.715   0.690   0.253  0.3487  0.0767 -0.4193
   78SOL    HW1  233   1.758   0.635   0.180 -0.5429  1.9318 -1.7672
   78SOL    HW2  234   1.737   0.651   0.347  2.4819 -0.5882  0.0270
   79SOL     OW  235   1.493   1.474   2.143  0.1762 -0.9086  0.5459
   79SOL    HW1  236   1.587   1.498   2.178 -1.3032 -0.0677 -2.6086
   79SOL    HW2  237   1.447   1.392   2.180  0.8633 -0.4536 -0.6175
   80SOL     OW  238   0.960   0.432   1.699 -0.0204 -0.2626  0.3021
   80SOL    HW1  239   0.968   0.411   1.599  2.2447 -1.2470  1.1996
   80SOL    HW2  240   1.056   0.457   1.730  0.2656 -2.5746  1.0506
   81SOL     OW  241   0.661   2.260   0.364  0.0756  0.4418  0.2956
   81SOL    HW1  242   0.635   2.311   0.277 -0.6116  2.2310 -0.9878
   81SOL    HW2  243   0.763   2.248   0.375  2.7214  0.9785  1.3177
   82SOL     OW  244   1.230   0.477   1.744 -0.1336  0.2639 -0.1100
   82SOL    HW1  245   1.302   0.519   1.687  2.2225 -1.6148 -1.0093
   82SOL    HW2  246   1.268   0.433   1.827 -0.8904  3.3849  0.5898
   83SOL     OW  247   0.412   2.271   0.769 -0.3950 -0.0912 -0.1226
   83SOL    HW1  248   0.425   2.360   0.823 -0.5372 -0.1813  1.1505
   83SOL    HW2  249   0.326   2.255   0.724  1.0793  0.7360  0.3509
   84SOL     OW  250   2.737   1.564   0.635  0.0229  0.5709  0.2225
   84SOL    HW1  251   2.780   1.477   0.611 -1.4972 -0.9795 -1.2004
   84SOL    HW2  252   2.668   1.551   0.707  1.9855 -1.4567 -0.4075
   85SOL     OW  253   2.385   1.920   1.446 -0.2211  0.1700 -0.5644
   85SOL    HW1  254   2.335   1.996   1.390 -3.3488  0.3236  1.9595
   85SOL    HW2  255   2.475   1.942   1.487  1.6056  0.9996 -1.2425
   86SOL     OW  256   1.583   2.302   1.184  0.0018  0.4380  0.2156
   86SOL    HW1  257   1.618   2.388   1.146 -0.1359  0.0801  0.9462
   86SOL    HW2  258   1.634   2.272   1.262  3.0215  3.3952  1.3974
   87SOL     OW  259   2.185   1.426   0.479 -0.2917  0.1857  0.3895
   87SOL    HW1  260   2.100   1.466   0.436 -0.3976 -1.5682  0.2281
   87SOL    HW2  261   2.270   1.466   0.437  1.7594  2.8583  0.4449
   88SOL     OW  262   0.596   0.006   0.920 -0.4094  0.3399  0.2100
   88SOL    HW1  263   0.545   3.010   0.861 -1.3457  0.2488 -3.3084
   88SOL    HW2  264   0.653   0.070   0.865  1.0340  2.2018  1.9731
   89SOL     OW  265   0.879   0.127   1.730 -0.4308  0.1611 -0.1820
   89SOL    HW1  266   0.914   0.219   1.714  0.6651 -0.5576  2.6376
   89SOL    HW2  267   0.785   0.119   1.690 -0.8649 -2.4723 -1.7813
   90SOL     OW  268   3.018   1.813   0.384 -0.4607 -0.0193 -0.5189
   90SOL    HW1  269   2.950   1.867   0.333 -0.2421  0.8610 -1.1157
   90SOL    HW2  270   2.992   1.795   0.481  1.3010 -1.1181 -2.0452
   91SOL     OW  271   1.020   1.582   0.954  0.0840 -0.6722  0.5295
   91SOL    HW1  272   0.918   1.599   0.970  1.3174 -2.2564  1.8341
   91SOL    HW2  273   1.066   1.552   1.042  0.3125  2.8857  0.7799
   92SOL     OW  274   2.304   0.058   1.454 -0.0015 -0.2942 -0.4259
   92SOL    HW1  275   2.399   0.093   1.455 -2.4142  2.6522 -0.5034
   92SOL    HW2  276   2.293   3.032   1.488 -0.6506 -1.8709 -1.2434
   93SOL     OW  277   0.429   1.051   2.762  0.1952  0.1446 -0.2362
   93SOL    HW1  278   0.504   1.109   2.785 -1.8166 -2.8584 -1.5422
   93SOL    HW2  279   0.377   1.083   2.681 -0.0627 -0.5369  0.7835
   94SOL     OW  280   2.575   0.034   1.826 -0.0945 -0.2529  0.2161
   94SOL    HW1  281   2.563   0.099   1.906 -1.7001 -0.4758 -2.5812
   94SOL    HW2  282   2.663   3.062   1.841 -2.7968  0.3019 -0.2759
   95SOL     OW  283   1.974   0.795   1.729  0.0419  1.0011 -0.4390
   95SOL    HW1  284   1.996   0.860   1.650 -1.8678  1.0749  0.5564
   95SOL    HW2  285   1.923   0.709   1.708 -1.2072  0.0717  1.5159
   96SOL     OW  286   2.987   0.324   1.691 -0.2888  0.4698  0.0080
   96SOL    HW1  287   2.916   0.371   1.740 -0.4446 -2.9722 -1.8303
   96SOL    HW2  288   2.958   0.294   1.596  0.1305 -1.8251 -2.6966
   97SOL     OW  289   2.060   0.258   1.374  0.2927  0.1767 -0.5320
   97SOL    HW1  290   2.005   0.246   1.290 -1.5431 -3.8810  1.0050
   97SOL    HW2  291   2.102   0.174   1.412  0.2571  0.9878 -1.2171
   98SOL     OW  292   1.981   2.600   1.708 -0.6135  0.0057 -0.7259
   98SOL    HW1  293   2.027   2.625   1.801  1.3109 -0.1240  1.6266
   98SOL    HW2  294   1.924   2.678   1.681 -1.5677  0.2982 -0.1163
   99SOL     OW  295   0.047   0.727   0.991  0.1005 -0.4290  0.1479
   99SOL    HW1  296   3.068   0.705   1.075  1.6128  0.1807 -0.8144
   99SOL    HW2  297   0.097   0.816   1.004 -1.1558 -1.0435 -1.7276
  100SOL     OW  298   2.452   1.921   1.841 -0.2168 -0.1468 -0.0591
  100SOL    HW1  299   2.361   1.880   1.870  1.0791 -0.3899  1.6972
  100SOL    HW2  300   2.501   1.853   1.777  1.3628 -1.4945  0.3093
  101SOL     OW  301   2.207   0.131   0.132  0.0810 -0.8881 -0.2544
  101SOL    HW1  302   2.292   0.183   0.155  2.0616  0.9634 -1.9976
  101SOL    HW2  303   2.202   0.043   0.185 -1.2076 -2.0109  0.6185
  102SOL     OW  304   0.705   0.355   1.305 -0.4174  0.1407 -0.0852
  102SOL    HW1  305   0.632   0.339   1.375 -0.8683 -0.6544  0.8932
  102SOL    HW2  306   0.708   0.270   1.243  0.3012 -0.5694 -1.8354
  103SOL     OW  307   2.962   0.147   2.626 -0.2914 -0.0562  0.1890
  103SOL    HW1  308   2.983   0.051   2.610 -2.2789  0.6060  0.0208
  103SOL    HW2  309   3.039   0.204   2.589  1.9944  0.2925  1.4462
  104SOL     OW  310   0.524   2.048   1.410 -0.2870 -0.0061  0.0217
  104SOL    HW1  311   0.556   1.987   1.329 -0.5643 -1.5413 -1.4890
  104SOL    HW2  312   0.475   2.133   1.378 -0.6673  2.2436  0.3135
  105SOL     OW  313   0.698   1.685   2.050  0.5604 -0.3418 -0.1641
  105SOL    HW1  314   0.749   1.709   2.134 -1.5984  0.4090  0.8119
  105SOL    HW2  315   0.736   1.738   1.970 -0.3666  2.6317 -1.2892
  106SOL     OW  316   2.088   0.285   0.772 -0.1100 -0.0077 -0.1723
  106SOL    HW1  317   2.091   0.244   0.865 -0.2791  3.4272  1.5204
  106SOL    HW2  318   2.051   0.217   0.709  0.4247 -1.1166  2.1476
  107SOL     OW  319   0.661   1.021   1.320  0.4270 -0.0086  0.2455
  107SOL    HW1  320   0.638   0.986   1.227 -0.1254  0.0903 -2.2383
  107SOL    HW2  321   0.722   1.103   1.318 -1.4061  1.0554  2.1196
  108SOL     OW  322   2.688   0.882   2.153  0.2172  0.7709 -0.1643
  108SOL    HW1  323   2.767   0.855   2.090 -0.9961 -1.0993 -0.2809
  108SOL    HW2  324   2.640   0.801   2.197 -1.0629  2.1024  2.9365
  109SOL     OW  325   1.840   0.007   2.816 -0.4415  0.7347  0.4293
  109SOL    HW1  326   1.926   3.031   2.795 -0.5388  1.3428 -1.0760
  109SOL    HW2  327   1.809   3.058   2.911  3.4381 -0.2986 -1.0799
  110SOL     OW  328   0.227   1.887   2.935  0.5194 -0.3014 -0.1733
  110SOL    HW1  329   0.141   1.892   2.983  2.1843 -1.0947  0.8643
  110SOL    HW2  330   0.299   1.877   3.005 -0.3478 -1.3375 -1.0304
  111SOL     OW  331   2.582   0.685   2.304 -0.2524 -0.3392  0.7187
  111SOL    HW1  332   2.540   0.591   2.300 -2.3406 -1.3824  1.0262
  111SOL    HW2  333   2.616   0.712   2.397  2.4556  3.6025  2.6124
  112SOL     OW  334   2.258   2.615   1.371  0.3396  0.1803  0.1396
  112SOL    HW1  335   2.265   2.658   1.276  2.9396 -0.7916 -0.5587
  112SOL    HW2  336   2.347   2.575   1.393  0.9414 -0.1762  1.1943
  113SOL     OW  337   2.118   2.135   2.227  0.2105 -0.3371  0.0993
  113SOL    HW1  338   2.028   2.095   2.254  1.6251  0.9422 -1.9792
  113SOL    HW2  339   2.141   2.108   2.134  0.6395  1.4772  0.9976
  114SOL     OW  340   0.349   0.086   0.289 -0.3895 -0.3659 -0.4475
  114SOL    HW1  341   0.344   3.066   0.338 -1.1337  0.2820  1.1939
  114SOL    HW2  342   0.443   0.120   0.280 -2.1995  0.5920  0.5697
  115SOL     OW  343   2.723   1.529   0.139  0.4676  0.8986 -0.6215
  115SOL    HW1  344   2.800   1.561   0.090 -4.7422  0.0091 -0.4861
  115SOL    HW2  345   2.729   1.552   0.239 -0.5319 -1.5087  0.6467
  116SOL     OW  346   3.020   0.897   1.443  0.1850  0.0023  0.1732
  116SOL    HW1  347   3.025   0.847   1.531 -0.5580  2.6379 -0.7579
  116SOL    HW2  348   2.976   0.987   1.460 -1.4419  0.5783 -0.4303
  117SOL     OW  349   2.475   0.330   1.275  0.1063  0.1526  0.6702
  117SOL    HW1  350   2.560   0.306   1.223  2.3808 -3.6717 -1.0071
  117SOL    HW2  351   2.493   0.343   1.373  0.7193 -0.1224 -2.4559
  118SOL     OW  352   2.722   2.138   2.084 -0.3080  0.2357  0.8464
  118SOL    HW1  353   2.766   2.234   2.089 -1.3747 -1.6798 -0.5027
  118SOL    HW2  354   2.626   2.148   2.047 -1.6274 -1.0613 -0.1642
  119SOL     OW  355   0.764   1.638   1.038 -0.2527  0.1323  0.3689
  119SOL    HW1  356   0.745   1.717   0.978  0.5747 -1.1106  0.9880
  119SOL    HW2  357   0.713   1.640   1.125 -2.0929 -1.0084 -2.4921
  120SOL     OW  358   0.508   1.402   1.321  0.8154 -0.1236 -0.2441
  120SOL    HW1  359   0.555   1.326   1.272  0.5190 -0.4374  0.0952
  120SOL    HW2  360   0.411   1.397   1.294  3.1020  3.0982 -2.6225
  121SOL     OW  361   1.796   1.080   1.061  0.3474  0.3542 -0.2329
  121SOL    HW1  362   1.854   1.029   0.995 -0.3042  2.4417  2.2551
  121SOL    HW2  363   1.831   1.178   1.068  0.4410  0.5641  2.4831
  122SOL     OW  364   1.767   2.591   2.724 -0.1718  0.1430 -0.4688
  122SOL    HW1  365   1.791   2.564   2.817 -0.6972 -0.5783  2.8800
  122SOL    HW2  366   1.776   2.690   2.707 -1.0817 -0.0969 -1.4352
  123SOL     OW  367   2.895   0.006   0.364  0.0353  0.3831  0.2897
  123SOL    HW1  368   2.930   3.060   0.457 -0.2135  0.3555 -3.8254
  123SOL    HW2  369   2.920   0.100   0.335 -1.7956 -2.1332  0.1652
  124SOL     OW  370   1.249   1.126   0.202 -0.3923 -0.4790  0.0637
  124SOL    HW1  371   1.158   1.129   0.253 -2.6640  0.2675  0.4433
  124SOL    HW2  372   1.279   1.031   0.199  1.3149 -1.1942 -0.4686
  125SOL     OW  373   0.244   0.997   2.291 -0.1428  0.1437  0.2855
  125SOL    HW1  374   0.322   1.058   2.271 -2.9374  0.5754 -1.4912
  125SOL    HW2  375   0.204   0.954   2.206  1.1712 -0.9877 -1.0153
  126SOL     OW  376   3.027   2.444   0.087  0.0349  0.3976 -0.0260
  126SOL    HW1  377   0.018   2.370   0.123 -1.2544  0.9065  0.6424
  126SOL    HW2  378   3.042   2.538   0.130 -0.8863  1.5459  0.0600
  127SOL     OW  379   2.673   1.651   0.390  0.1528 -0.1455  0.1866
  127SOL    HW1  380   2.699   1.632   0.487 -0.1815 -3.6277  3.3961
  127SOL    HW2  381   2.663   1.752   0.378 -1.6253  1.0725 -0.5666
  128SOL     OW  382   1.325   0.820   0.852 -0.4072 -0.0121 -0.2054
  128SOL    HW1  383   1.395   0.894   0.883  1.0914  1.5770 -0.9494
  128SOL    HW2  384   1.251   0.851   0.787 -0.1591  0.6398 -1.1624
  129SOL     OW  385   2.710   1.913   1.132 -0.2881 -0.2286 -0.0639
  129SOL    HW1  386   2.809   1.896   1.122  1.2633 -0.0634  0.5321
  129SOL    HW2  387   2.705   2.014   1.141  0.3463 -0.4204 -2.5337
  130SOL     OW  388   2.058   1.129   0.726 -0.9453 -0.6958 -0.2656
  130SOL    HW1  389   2.088   1.119   0.628 -0.2166  0.5915 -2.5089
  130SOL    HW2  390   2.139   1.123   0.789 -1.8782  2.4301 -1.3477
  131SOL     OW  391   2.999   1.225   2.450 -0.5016 -0.1575 -0.0606
  131SOL    HW1  392   2.932   1.307   2.445  2.8193 -0.7551  0.5692
  131SOL    HW2  393   2.980   1.154   2.376  0.9935 -0.7347 -0.9325
  132SOL     OW  394   1.138   1.447   2.287  0.4838 -0.0427  0.1887
  132SOL    HW1  395   1.089   1.377   2.237 -0.9130  3.5113  0.5745
  132SOL    HW2  396   1.215   1.404   2.337  1.9846  1.2123  1.8181
  133SOL     OW  397   0.164   1.210   0.336  0.2732 -0.2625  0.1445
  133SOL    HW1  398   0.098   1.221   0.260  0.2755  0.8985  1.2582
  133SOL    HW2  399   0.216   1.129   0.320 -0.3678  1.9755 -1.8750
  134SOL     OW  400   2.738   0.997   0.158  0.2271 -0.3267 -0.4096
  134SOL    HW1  401   2.722   0.961   0.065  0.2408 -1.1838  1.8930
  134SOL    HW2  402   2.685   1.083   0.167 -2.0587 -0.5148  1.6209
  135SOL     OW  403   1.585   0.793   2.948 -0.2713  0.3064  0.3144
  135SOL    HW1  404   1.587   0.710   2.887  1.2900 -2.2451  1.4670
  135SOL    HW2  405   1.678   0.822   2.978  1.4608  1.4392 -0.7617
  136SOL     OW  406   1.755   1.630   1.887 -0.2483 -0.3951  0.7379
  136SOL    HW1  407   1.691   1.636   1.808 -5.1486 -1.4684  0.5421
  136SOL    HW2  408   1.853   1.617   1.857  0.5474 -0.4841  0.3412
  137SOL     OW  409   2.325   2.449   0.843 -0.6743  0.0809  0.0398
  137SOL    HW1  410   2.351   2.473   0.747  1.6429  2.8199 -1.9858
  137SOL    HW2  411   2.247   2.503   0.873  2.0521 -3.6596  1.4003
  138SOL     OW  412   2.340   0.588   1.564 -0.3545  0.2949  0.5169
  138SOL    HW1  413   2.361   0.671   1.621  2.8377  3.9858  0.9463
  138SOL    HW2  414   2.264   0.600   1.494  0.0424 -0.7775 -1.5770
  139SOL     OW  415   2.420   2.794   2.779  0.5737  0.1806 -0.1922
  139SOL    HW1  416   2.480   2.716   2.750  3.9468 -3.0202 -0.1357
  139SOL    HW2  417   2.341   2.803   2.715 -0.1839  1.4010 -2.3504
  140SOL     OW  418   1.527   1.913   2.440  0.2538 -0.3080 -0.0468
  140SOL    HW1  419   1.566   1.818   2.460  0.8553 -1.6610 -1.5768
  140SOL    HW2  420   1.451   1.911   2.371 -1.1404 -0.3232 -0.1719
  141SOL     OW  421   0.884   1.068   2.438 -0.0046  0.1664  0.1924
  141SOL    HW1  422   0.813   0.992   2.443  1.3993  1.1525  1.3791
  141SOL    HW2  423   0.846   1.155   2.468  1.0477 -0.6104 -2.0612
  142SOL     OW  424   2.506   2.709   1.986 -0.2368  0.1922 -0.4802
  142SOL    HW1  425   2.583   2.742   2.043  0.7644 -0.4714 -0.0204
  142SOL    HW2  426   2.424   2.690   2.042  1.2533 -1.4819 -0.4249
  143SOL     OW  427   1.116   2.290   0.267 -0.3638  0.0801 -0.6214
  143SOL    HW1  428   1.183   2.315   0.341  1.6048 -0.8461  0.6097
  143SOL    HW2  429   1.026   2.298   0.307  2.7631  0.7237  0.1934
  144SOL     OW  430   1.204   2.406   0.514  0.4770 -0.3135  0.2244
  144SOL    HW1  431   1.187   2.489   0.459  0.7520 -0.2640  0.4459
  144SOL    HW2  432   1.213   2.439   0.609 -1.3389  0.0348 -0.4042
  145SOL     OW  433   1.382   2.599   2.436  0.5045  0.2955  0.5007
  145SOL    HW1  434   1.483   2.580   2.441 -1.7135 -0.4088  1.4293
  145SOL    HW2  435   1.348   2.660   2.509 -3.0877  1.0532 -0.7433
  146SOL     OW  436   2.176   3.063   2.938 -0.2337 -0.3987  0.3205
  146SOL    HW1  437   2.141   0.058   2.868  0.1903 -0.3724 -0.7692
  146SOL    HW2  438   2.174   0.042   3.027 -0.2555  0.6565  2.7685
  147SOL     OW  439   2.756   1.598   1.237 -0.2299 -0.0276  0.2711
  147SOL    HW1  440   2.751   1.590   1.138 -1.5571  0.5725  2.2885
  147SOL    HW2  441   2.762   1.695   1.257 -0.7705 -0.5632 -1.0779
  148SOL     OW  442   2.163   2.840   0.216  0.4183  0.0915 -0.1527
  148SOL    HW1  443   2.205   2.821   0.307  1.0950  1.4225  1.3556
  148SOL    HW2  444   2.231   2.870   0.150 -3.2959  2.2519  2.4113
  149SOL     OW  445   0.657   1.774   2.849 -0.5162  0.4061 -0.1863
  149SOL    HW1  446   0.715   1.688   2.864 -0.1531 -2.3534 -1.3071
  149SOL    HW2  447   0.610   1.774   2.759  3.0298 -2.8762 -2.5251
  150SOL     OW  448   0.506   2.670   0.985  0.2637  0.4606  0.3668
  150SOL    HW1  449   0.487   2.733   1.066  2.0212  1.0437  1.0336
  150SOL    HW2  450   0.474   2.703   0.892 -1.7847 -1.1376 -1.6514
  151SOL     OW  451   0.062   1.027   3.058 -0.5519 -0.2837  0.0683
  151SOL    HW1  452   0.162   1.016   3.052 -2.4478  1.7040  0.7676
  151SOL    HW2  453   0.018   0.990   2.974 -0.1852 -0.2407 -1.4016
  152SOL     OW  454   2.951   1.835   1.008  0.0279  0.0331  0.0306
  152SOL    HW1  455   2.922   1.890   0.921  1.3435  1.4266 -1.6436
  152SOL    HW2  456   2.923   1.740   1.000  1.6301  2.3351  0.6672
  153SOL     OW  457   1.653   2.315   0.759 -0.1753 -0.1198  0.1548
  153SOL    HW1  458   1.687   2.264   0.675 -0.6191  0.3527 -0.3560
  153SOL    HW2  459   1.662   2.251   0.840  1.7333 -1.5030  0.8332
  154SOL     OW  460   0.498   2.823   1.198 -0.4183 -0.2249 -0.2798
  154SOL    HW1  461   0.487   2.914   1.251 -1.9144  0.3626 -0.1293
  154SOL    HW2  462   0.598   2.796   1.192 -0.7059 -0.4473 -2.4577
  155SOL     OW  463   2.871   2.035   0.746  0.1753 -0.3354  0.0776
  155SOL    HW1  464   2.964   2.071   0.764 -1.2657 -0.9276  1.0332
  155SOL    HW2  465   2.801   2.109   0.756 -0.5875 -2.2012 -0.5659
  156SOL     OW  466   2.518   2.176   0.381 -0.2418 -0.3488  0.1323
  156SOL    HW1  467   2.598   2.235   0.393  0.1409 -2.3202 -3.7016
  156SOL    HW2  468   2.547   2.081   0.383 -0.7927  1.4716 -0.5560
  157SOL     OW  469   0.317   2.305   1.764  0.3317 -0.4957 -0.1447
  157SOL    HW1  470   0.248   2.232   1.769 -3.0484  3.5394  1.4625
  157SOL    HW2  471   0.362   2.324   1.855 -0.6563  2.7070 -1.6175
  158SOL     OW  472   1.417   0.397   0.942 -0.3546 -0.2509 -0.1606
  158SOL    HW1  473   1.323   0.367   0.927 -0.1967  1.7310  0.0320
  158SOL    HW2  474   1.437   0.414   1.041  0.1775  0.8815  0.2419
  159SOL     OW  475   1.691   0.966   0.215  0.2802 -0.4714 -0.0665
  159SOL    HW1  476   1.674   0.866   0.238  0.2200 -0.7818 -0.3205
  159SOL    HW2  477   1.605   1.007   0.166 -2.7486  0.3765 -1.8602
  160SOL     OW  478   1.131   1.856   0.354 -0.1417 -0.3622  0.5374
  160SOL    HW1  479   1.169   1.920   0.281  0.0714 -0.7980 -3.6199
  160SOL    HW2  480   1.040   1.816   0.318 -2.8975 -2.2515 -2.2854
  161SOL     OW  481   2.770   2.187   2.530 -0.0548  0.0712 -0.4482
  161SOL    HW1  482   2.742   2.232   2.616  0.5975 -2.1307  2.2118
  161SOL    HW2  483   2.854   2.129   2.543 -0.1153 -1.3608 -0.5608
  162SOL     OW  484   0.132   2.147   1.304  0.3512 -0.6157  0.2983
  162SOL    HW1  485   0.096   2.113   1.391 -3.1193 -0.2000 -0.3093
  162SOL    HW2  486   0.232   2.171   1.307 -4.7992 -2.4800 -0.7709
  163SOL     OW  487   0.273   0.373   2.828 -0.2339 -0.0799 -0.9257
  163SOL    HW1  488   0.297   0.281   2.792 -2.3651 -0.8721  0.8733
  163SOL    HW2  489   0.175   0.375   2.838 -3.0223 -1.8445  1.6232
  164SOL     OW  490   0.297   2.642   2.579 -0.5171  0.1859  0.0018
  164SOL    HW1  491   0.341   2.734   2.568 -0.9179 -1.6441 -0.6019
  164SOL    HW2  492   0.194   2.646   2.548 -0.7961 -2.2164 -2.2562
  165SOL     OW  493   2.681   1.010   1.532  0.1056  0.0808  0.2714
  165SOL    HW1  494   2.643   1.045   1.619 -0.3011  2.3104 -1.8962
  165SOL    HW2  495   2.664   0.915   1.512  1.7009  2.9789 -0.6248
  166SOL     OW  496   1.976   1.917   1.590  1.1989  0.1304  0.6356
  166SOL    HW1  497   2.065   1.948   1.628 -0.6043  1.8799 -0.5982
  166SOL    HW2  498   1.962   1.814   1.599  0.5325 -2.6855  1.9143
  167SOL     OW  499   0.411   0.571   2.357 -0.1061  0.1473  0.1230
  167SOL    HW1  500   0.369   0.582   2.267  1.2779 -2.4106  2.1018
  167SOL    HW2  501   0.371   0.634   2.421 -0.7584 -2.7645  1.5320
  168SOL     OW  502   2.065   0.125   2.216 -0.3509 -0.2940 -0.1173
  168SOL    HW1  503   2.138   0.105   2.281 -0.7004 -1.5645  0.3092
  168SOL    HW2  504   2.020   0.037   2.182  1.4265 -2.2832 -2.4483
  169SOL     OW  505   0.316   0.932   3.023  0.0976  0.1602 -0.7091
  169SOL    HW1  506   0.355   0.987   2.942 -2.3158  2.0088  0.0160
  169SOL    HW2  507   0.385   0.863   3.050 -2.3913  1.1914  1.2894
  170SOL     OW  508   0.843   1.457   1.313 -0.5484  0.0703 -0.5183
  170SOL    HW1  509   0.914   1.451   1.388 -0.1689 -0.0253 -1.7175
  170SOL    HW2  510   0.827   1.367   1.269 -0.1770 -2.7191 -0.5451
  171SOL     OW  511   1.138   2.513   1.728 -0.0352  1.0083  0.4951
  171SOL    HW1  512   1.123   2.608   1.748  1.6716 -3.8050 -0.5035
  171SOL    HW2  513   1.142   2.488   1.627  2.9187 -0.7703 -3.2456
  172SOL     OW  514   1.241   0.077   1.893 -0.0088 -0.1174  0.1163
  172SOL    HW1  515   1.245   3.051   1.927  1.1833 -1.5191  0.6961
  172SOL    HW2  516   1.222   0.142   1.970 -2.7894  0.5368  1.6623
  173SOL     OW  517   1.311   2.434   0.784  0.1357  0.1337  0.2278
  173SOL    HW1  518   1.325   2.433   0.882 -0.0514 -2.4796  1.0460
  173SOL    HW2  519   1.355   2.350   0.741  1.9105  0.2815 -1.6930
  174SOL     OW  520   2.295   3.062   0.547  0.4330 -0.6450 -0.1475
  174SOL    HW1  521   2.196   3.058   0.580 -0.0923  0.5077  0.1849
  174SOL    HW2  522   2.311   0.074   0.493 -1.5779  1.1865  1.6203
  175SOL     OW  523   1.178   1.215   0.598 -0.1877  0.2044 -0.2559
  175SOL    HW1  524   1.143   1.306   0.630  0.6914 -0.4290  0.3861
  175SOL    HW2  525   1.122   1.177   0.518 -1.1179 -1.8149 -0.2346
  176SOL     OW  526   0.800   1.605   0.448  0.4065 -0.0010  0.0293
  176SOL    HW1  527   0.836   1.646   0.534 -2.0871 -0.7073 -1.3925
  176SOL    HW2  528   0.842   1.513   0.430  0.1602 -1.4636 -0.6720
  177SOL     OW  529   1.321   1.299   0.898  0.8798 -0.3034 -0.5557
  177SOL    HW1  530   1.286   1.270   0.988 -0.5323  1.7720 -1.0837
  177SOL    HW2  531   1.389   1.234   0.866  0.3055  3.3883 -0.4507
  178SOL     OW  532   2.305   1.780   0.278  0.2879 -0.1013 -0.2581
  178SOL    HW1  533   2.268   1.831   0.357  2.6125  0.1503 -0.2088
  178SOL    HW2  534   2.348   1.691   0.310 -1.2017  2.5527  0.0673
  179SOL     OW  535   1.367   2.890   0.091  0.1419 -0.5077 -0.3554
  179SOL    HW1  536   1.280   2.891   0.146  0.4739  0.3802  4.0653
  179SOL    HW2  537   1.435   2.829   0.131  0.4662  3.4334  0.2363
  180SOL     OW  538   1.909   1.433   1.645 -0.3989  0.2191 -0.3397
  180SOL    HW1  539   1.981   1.425   1.712 -0.0883  0.9427  1.1251
  180SOL    HW2  540   1.884   1.532   1.627 -1.0809  0.3373 -0.4851
  181SOL     OW  541   1.115   0.653   1.925  0.3052  0.2771 -0.7073
  181SOL    HW1  542   1.184   0.670   1.996  0.2193 -1.4608  0.8022
  181SOL    HW2  543   1.150   0.584   1.861 -1.1053 -1.5328  4.4749
  182SOL     OW  544   0.118   1.323   2.281 -0.0500  0.2936 -0.5735
  182SOL    HW1  545   0.066   1.298   2.363 -0.9472  1.3744 -0.8087
  182SOL    HW2  546   0.101   1.259   2.205 -2.0456 -0.7996  0.0296
  183SOL     OW  547   1.481   0.504   2.261 -0.5698  0.2287 -0.4589
  183SOL    HW1  548   1.579   0.494   2.232  0.6741  1.7589  1.6590
  183SOL    HW2  549   1.474   0.484   2.358  1.3198 -2.6693  0.5722
  184SOL     OW  550   0.643   0.593   1.159  0.3894 -0.0836  0.0154
  184SOL    HW1  551   0.743   0.628   1.159  1.4333 -1.3344  4.2102
  184SOL    HW2  552   0.638   0.505   1.216  0.9199 -1.7475  1.6048
  185SOL     OW  553   2.167   1.540   0.743  0.4519 -0.1326 -0.5059
  185SOL    HW1  554   2.159   1.498   0.651 -1.3297 -2.8576  0.6134
  185SOL    HW2  555   2.084   1.528   0.803  2.0475 -1.3115 -2.6148
  186SOL     OW  556   0.247   1.826   0.194  0.1800  0.4680  1.0104
  186SOL    HW1  557   0.297   1.913   0.168 -1.1025  1.8560  0.4735
  186SOL    HW2  558   0.280   1.788   0.285 -2.6509  1.9327  2.0463
  187SOL     OW  559   1.930   2.037   3.010  0.0236 -0.2668 -0.2428
  187SOL    HW1  560   1.975   2.017   0.027 -0.4859  2.2409  0.2723
  187SOL    HW2  561   1.844   1.988   3.004  1.9475  2.3882  0.8388
  188SOL     OW  562   1.112   2.253   1.145  0.0374 -0.2252 -0.2675
  188SOL    HW1  563   1.110   2.168   1.093 -1.2831  0.0045 -2.7238
  188SOL    HW2  564   1.057   2.240   1.229 -1.7315 -1.0995 -2.3734
  189SOL     OW  565   2.183   1.552   2.454 -0.1357  0.4961  0.4841
  189SOL    HW1  566   2.128   1.472   2.421 -0.3614 -2.4552  1.5756
  189SOL    HW2  567   2.119   1.624   2.479 -1.2594 -1.1110 -0.2917
  190SOL     OW  568   0.820   2.415   2.265 -0.0248 -0.0984  0.2979
  190SOL    HW1  569   0.886   2.444   2.194  1.5349  0.3833  1.0394
  190SOL    HW2  570   0.727   2.465   2.258 -0.3341  1.3321 -0.1777
  191SOL     OW  571   2.466   0.801   1.241 -0.2342 -0.5786 -0.2337
  191SOL    HW1  572   2.543   0.785   1.308 -1.2814 -1.8418 -0.6806
  191SOL    HW2  573   2.490   0.786   1.147  0.6257  0.8666  1.1198
  192SOL     OW  574   2.663   0.685   1.764  0.3718  0.5590  0.2456
  192SOL    HW1  575   2.567   0.717   1.754 -0.1201  0.4831  0.7853
  192SOL    HW2  576   2.708   0.739   1.837  0.6565  1.9473 -1.5562
  193SOL     OW  577   0.887   0.262   0.159 -0.3768  0.5364 -0.0810
  193SOL    HW1  578   0.980   0.221   0.155  0.2507 -1.0834  0.2150
  193SOL    HW2  579   0.875   0.330   0.075  0.6010  2.5735 -0.7455
  194SOL     OW  580   0.963   2.436   1.461 -0.0144  0.3807 -0.2526
  194SOL    HW1  581   0.946   2.341   1.423  3.1728  1.1534  0.9099
  194SOL    HW2  582   1.059   2.464   1.448 -0.6661 -1.6289 -2.4742
  195SOL     OW  583   2.421   1.267   0.356 -0.4720 -0.0841 -0.0435
  195SOL    HW1  584   2.405   1.268   0.455  4.0046 -1.8868  0.2055
  195SOL    HW2  585   2.335   1.261   0.294 -0.1789  1.8908 -1.0989
  196SOL     OW  586   0.538   2.298   1.582 -0.9514 -0.1016 -0.5985
  196SOL    HW1  587   0.487   2.275   1.498 -1.1397  0.0588  0.7079
  196SOL    HW2  588   0.469   2.287   1.657  0.9396  0.7376  0.1957
  197SOL     OW  589   3.040   0.648   2.109 -0.0088 -0.1867 -0.0507
  197SOL    HW1  590   0.014   0.559   2.085 -0.0513  3.9775  1.2422
  197SOL    HW2  591   3.002   0.645   2.203  1.3283  0.5970  2.1723
  198SOL     OW  592   1.792   1.068   0.476  0.6095  0.0703 -0.2043
  198SOL    HW1  593   1.753   1.012   0.402 -0.9002 -0.7743  1.9730
  198SOL    HW2  594   1.829   1.159   0.449 -1.6923 -2.9496  2.4232
  199SOL     OW  595   2.503   0.396   1.539 -0.0021  0.2469  0.2086
  199SOL    HW1  596   2.436   0.471   1.531 -0.8832  0.1367  0.9796
  199SOL    HW2  597   2.531   0.381   1.634  0.0913  0.8295 -0.9260
  200SOL     OW  598   2.114   0.210   2.781  0.1341 -0.0854 -0.0679
  200SOL    HW1  599   2.202   0.182   2.737  1.6291  0.3977 -0.0895
  200SOL    HW2  600   2.130   0.302   2.821 -0.0017 -1.5846  1.2808
  201SOL     OW  601   2.645   0.213   0.973 -0.6817  0.1123  0.2985
  201SOL    HW1  602   2.727   0.259   0.938  1.2006 -0.1900  4.2583
  201SOL    HW2  603   2.560   0.232   0.928  1.7093 -0.7931  0.3052
  202SOL     OW  604   0.100   2.584   0.520 -0.5288 -0.1834 -0.9365
  202SOL    HW1  605   0.109   2.684   0.541  1.7154 -1.2661 -1.2929
  202SOL    HW2  606   0.179   2.554   0.464 -1.6409  0.1166 -1.0905
  203SOL     OW  607   1.289   1.562   0.207 -0.2399  0.2600 -0.3948
  203SOL    HW1  608   1.252   1.578   0.305 -1.5281 -0.2473 -1.4231
  203SOL    HW2  609   1.370   1.499   0.221 -0.0497  0.6502  3.8142
  204SOL     OW  610   0.386   2.046   2.152  0.1623  0.6296  0.0146
  204SOL    HW1  611   0.449   2.040   2.070 -2.5604 -0.9363 -1.0018
  204SOL    HW2  612   0.346   1.952   2.158 -0.2092 -0.2830 -1.1161
  205SOL     OW  613   0.983   0.634   0.838  0.0647  0.9441 -0.0609
  205SOL    HW1  614   1.013   0.553   0.892 -1.8662 -1.0907  1.6030
  205SOL    HW2  615   1.059   0.664   0.779 -2.3385 -1.1278 -0.8371
  206SOL     OW  616   0.376   0.603   2.741  0.2752 -0.1404  0.0677
  206SOL    HW1  617   0.309   0.681   2.733 -0.9737  1.8586 -0.8081
  206SOL    HW2  618   0.334   0.516   2.780 -3.0317 -0.3644  1.6791
  207SOL     OW  619   1.388   2.386   1.644  0.6423 -0.2915  0.6649
  207SOL    HW1  620   1.476   2.413   1.686 -0.9328  0.8981 -2.5194
  207SOL    HW2  621   1.310   2.413   1.704  0.6830 -1.6552  0.7790
  208SOL     OW  622   0.015   2.869   1.290 -0.3610 -0.3031 -0.1174
  208SOL    HW1  623   0.071   2.897   1.212  0.9739  0.7170 -1.1937
  208SOL    HW2  624   3.048   2.952   1.338 -2.4800  1.6169 -1.0616
  209SOL     OW  625   1.573   0.940   0.590  0.1773  0.2256  0.0302
  209SOL    HW1  626   1.607   0.879   0.664  1.8121 -0.5690 -0.6308
  209SOL    HW2  627   1.649   0.999   0.556 -2.6567 -1.8894  1.9385
  210SOL     OW  628   2.578   0.883   0.370  0.6327 -0.3179 -0.1860
  210SOL    HW1  629   2.588   0.901   0.468  0.3508 -1.9748 -0.4356
  210SOL    HW2  630   2.638   0.946   0.313 -0.6304  0.8197  0.4380
  211SOL     OW  631   1.244   0.261   0.216 -0.4397 -0.8048 -0.0478
  211SOL    HW1  632   1.179   0.197   0.176  1.4319  1.1430  1.6117
  211SOL    HW2  633   1.344   0.232   0.204  3.9313 -1.2094 -2.0864
  212SOL     OW  634   1.776   2.139   0.542  0.0751  0.0090 -0.6651
  212SOL    HW1  635   1.865   2.182   0.568 -0.6740  0.0432 -1.6294
  212SOL    HW2  636   1.771   2.163   0.443 -1.9633 -1.3204 -0.8092
  213SOL     OW  637   2.366   0.156   2.666  0.1605 -0.4498  0.2152
  213SOL    HW1  638   2.413   0.084   2.724 -0.4344  3.4297  0.2736
  213SOL    HW2  639   2.427   0.232   2.635 -1.7047  1.2248  0.3171
  214SOL     OW  640   1.097   2.109   2.277 -0.0128 -0.0075 -0.0387
  214SOL    HW1  641   1.141   2.114   2.188  0.8484  1.3794  0.4112
  214SOL    HW2  642   0.998   2.129   2.271  4.2843 -0.2032  0.7545
  215SOL     OW  643   0.288   1.205   1.028  0.5561  0.2804  0.3196
  215SOL    HW1  644   0.232   1.270   1.086 -0.4548 -0.5020  2.3835
  215SOL    HW2  645   0.388   1.209   1.049 -2.5292 -2.2359 -0.1209
  216SOL     OW  646   0.176   2.194   2.739  0.0349 -0.3886  0.2622
  216SOL    HW1  647   0.103   2.133   2.775  1.2948 -0.7386 -1.4890
  216SOL    HW2  648   0.231   2.227   2.819 -0.9599  1.2031 -0.8446
  217SOL     OW  649   2.610   1.122   1.260 -0.0020  0.9873  0.0104
  217SOL    HW1  650   2.669   1.049   1.216 -1.4365 -2.4763 -0.2739
  217SOL    HW2  651   2.598   1.106   1.359  0.1168  0.8006  1.6306
  218SOL     OW  652   0.716   2.227   1.957  0.1428  0.1494 -0.0459
  218SOL    HW1  653   0.793   2.271   1.907 -0.0192  0.0109  1.0865
  218SOL    HW2  654   0.758   2.179   2.041 -0.0381 -0.6358  2.0508
  219SOL     OW  655   1.971   1.566   0.377 -0.1615 -0.4031 -0.1469
  219SOL    HW1  656   1.969   1.585   0.275 -2.2037 -0.2668 -4.2887
  219SOL    HW2  657   1.958   1.656   0.427 -0.4438 -1.7876  0.6755
  220SOL     OW  658   1.988   0.832   0.454 -0.4670 -0.6043  0.1169
  220SOL    HW1  659   1.980   0.925   0.482 -1.0257 -3.1807 -0.7686
  220SOL    HW2  660   1.906   0.777   0.486 -0.0427 -1.6674 -0.9941
  221SOL     OW  661   2.796   0.533   0.165 -0.3822  0.0538 -0.0433
  221SOL    HW1  662   2.720   0.564   0.222  3.3612 -2.4670 -1.9458
  221SOL    HW2  663   2.884   0.579   0.184 -0.2780  0.0060 -0.0167
  222SOL     OW  664   1.514   1.414   0.542 -0.1421 -0.6648  0.2859
  222SOL    HW1  665   1.570   1.353   0.594  0.4237  2.1004 -2.6082
  222SOL    HW2  666   1.433   1.444   0.598  0.1438 -1.0484  1.8435
  223SOL     OW  667   1.189   0.024   2.947  0.3419  0.3863  0.2878
  223SOL    HW1  668   1.253   0.037   2.871 -1.3948 -2.5686  0.5360
  223SOL    HW2  669   1.173   2.992   2.962 -0.7180 -1.0251 -0.6544
  224SOL     OW  670   1.044   2.854   1.211 -0.6423  0.0626 -0.0701
  224SOL    HW1  671   1.029   2.940   1.156  2.3377  0.1869  0.7256
  224SOL    HW2  672   1.073   2.870   1.306 -0.2883 -0.2869  0.9680
  225SOL     OW  673   0.434   2.623   1.845 -0.2632 -0.1011 -0.0400
  225SOL    HW1  674   0.335   2.644   1.862  2.1734 -1.3411  3.3388
  225SOL    HW2  675   0.462   2.542   1.899  1.2901 -0.6950 -2.8031
  226SOL     OW  676   1.460   1.361   0.289  0.5211 -0.6737 -0.6023
  226SOL    HW1  677   1.462   1.389   0.387 -0.7157  1.2991  1.8550
  226SOL    HW2  678   1.379   1.307   0.267  2.3045  2.5596 -0.0992
  227SOL     OW  679   0.524   1.530   0.732 -0.2038  0.5690  0.3385
  227SOL    HW1  680   0.550   1.609   0.667 -0.3532 -0.5679 -0.5561
  227SOL    HW2  681   0.497   1.449   0.670 -0.4154 -1.6043 -2.1848
  228SOL     OW  682   0.166   1.748   0.736 -0.3599 -0.5129 -0.0535
  228SOL    HW1  683   0.065   1.752   0.729 -2.9917  1.7834  1.8412
  228SOL    HW2  684   0.199   1.844   0.711  1.4077  3.0179  2.7552
  229SOL     OW  685   2.679   0.084   2.989 -0.4193  0.0898 -0.7759
  229SOL    HW1  686   2.702   0.098   0.018 -1.8819  0.2768  0.9436
  229SOL    HW2  687   2.764   0.044   2.948  1.9572  2.6114 -0.9395
  230SOL     OW  688   2.274   1.056   0.900 -0.3752 -0.5841  0.4865
  230SOL    HW1  689   2.365   1.094   0.907 -2.4838 -2.9801  0.6192
  230SOL    HW2  690   2.231   1.043   0.993  0.1208  1.8777  0.6327
  231SOL     OW  691   1.605   1.279   2.995 -0.2577  0.1129 -0.0955
  231SOL    HW1  692   1.524   1.324   2.951 -2.3002  2.1384 -0.7678
  231SOL    HW2  693   1.652   1.353   3.048  0.5123  2.0178  2.3312
  232SOL     OW  694   2.125   1.991   0.939  0.1764  0.8036  0.4002
  232SOL    HW1  695   2.177   1.912   0.897  0.5833 -0.4973 -0.2371
  232SOL    HW2  696   2.187   2.073   0.926  0.1948 -3.3211 -0.6456
  233SOL     OW  697   0.253   2.925   1.138  0.0531 -0.0797  0.4054
  233SOL    HW1  698   0.335   2.881   1.176 -1.4307 -1.5322  0.3113
  233SOL    HW2  699   0.251   3.028   1.148  1.0044 -0.9284  0.8776
  234SOL     OW  700   0.789   0.049   2.381 -0.3619 -0.4083  0.4266
  234SOL    HW1  701   0.822   3.031   2.344 -0.2209  0.4255 -2.7158
  234SOL    HW2  702   0.820   0.065   2.479  4.2466 -0.8285  1.1850
  235SOL     OW  703   3.002   1.032   2.276 -0.1219 -0.4058 -0.0683
  235SOL    HW1  704   2.988   1.073   2.181  0.7174  1.3083 -1.8718
  235SOL    HW2  705   0.026   0.999   2.286 -2.1319 -1.1008 -0.2568
  236SOL     OW  706   1.539   2.960   1.622 -0.3153 -0.4739  0.5257
  236SOL    HW1  707   1.482   3.044   1.626 -1.5209 -0.3548  1.1648
  236SOL    HW2  708   1.489   2.880   1.584 -1.0201 -1.3035 -0.6648
  237SOL     OW  709   0.805   1.337   2.514  0.1044 -0.1366 -0.0596
  237SOL    HW1  710   0.704   1.341   2.511 -0.7677 -0.3736 -2.4761
  237SOL    HW2  711   0.847   1.390   2.439 -0.1424  2.9607  0.3983
  238SOL     OW  712   1.053   0.455   2.350  0.1046 -0.0434  0.1946
  238SOL    HW1  713   1.074   0.551   2.365  0.6738 -2.7381 -1.1345
  238SOL    HW2  714   0.953   0.435   2.345 -0.1125  0.9431  0.5476
  239SOL     OW  715   0.105   2.232   2.020  0.0827 -0.5740 -0.2432
  239SOL    HW1  716   0.136   2.164   1.954 -0.9921  1.6970  0.7403
  239SOL    HW2  717   0.183   2.256   2.080 -0.7908  0.3875 -0.1915
  240SOL     OW  718   2.466   3.052   0.744 -0.1570 -0.2854  0.0539
  240SOL    HW1  719   2.443   0.065   0.797 -0.6455 -2.0957 -2.2807
  240SOL    HW2  720   2.412   3.052   0.659 -0.9331 -0.4402 -1.3077
  241SOL     OW  721   0.020   0.816   0.164 -0.4533 -0.4442  0.8824
  241SOL    HW1  722   0.027   0.744   0.093  1.3097 -2.2404  0.5385
  241SOL    HW2  723   0.006   0.910   0.123  0.2058 -1.2014 -0.5941
  242SOL     OW  724   1.622   2.494   1.723 -0.0768 -0.5184 -0.3860
  242SOL    HW1  725   1.696   2.424   1.713  0.1935 -0.7063  3.5524
  242SOL    HW2  726   1.629   2.542   1.809  0.9275  0.1527  1.3058
  243SOL     OW  727   0.465   2.369   1.974  0.0824  0.0483  0.3590
  243SOL    HW1  728   0.563   2.351   1.982 -1.4121 -0.2650 -0.2611
  243SOL    HW2  729   0.416   2.365   2.064  0.2148 -2.9055 -2.5387
  244SOL     OW  730   2.383   0.307   2.218  0.5509 -0.3445 -0.0955
  244SOL    HW1  731   2.304   0.296   2.281  1.7722  2.5576  1.6119
  244SOL    HW2  732   2.383   0.398   2.160  0.4043  3.9479 -5.2036
  245SOL     OW  733   1.414   3.005   1.018 -0.0979 -0.1333  0.0625
  245SOL    HW1  734   1.424   0.020   1.076  2.0739 -2.2441 -0.3406
  245SOL    HW2  735   1.371   3.027   0.926 -1.1402 -0.3925  0.4801
  246SOL     OW  736   1.635   2.858   0.490 -0.5094 -0.0523 -0.0929
  246SOL    HW1  737   1.648   2.847   0.394  0.0019  0.2643  2.6850
  246SOL    HW2  738   1.536   2.853   0.515  1.7908 -0.4321 -0.8833
  247SOL     OW  739   1.481   0.634   1.943  0.5823  0.0217 -0.2928
  247SOL    HW1  740   1.426   0.576   2.011 -0.0219 -2.9813  1.7689
  247SOL    HW2  741   1.581   0.604   1.944 -0.9801 -1.5935  0.0455
  248SOL     OW  742   2.975   2.036   1.710  0.4473 -0.1274  0.1793
  248SOL    HW1  743   2.930   1.945   1.732  1.9097 -0.7754  0.5453
  248SOL    HW2  744   2.935   2.116   1.764 -1.5499  0.2159 -1.1325
  249SOL     OW  745   2.937   0.249   0.259 -0.5461 -0.3196 -0.2995
  249SOL    HW1  746   2.916   0.313   0.338  0.6147 -1.1002  0.5629
  249SOL    HW2  747   3.034   0.261   0.228  1.0540 -1.3854 -1.1363
  250SOL     OW  748   2.691   3.061   2.526 -0.3496 -0.2149  0.1658
  250SOL    HW1  749   2.789   3.025   2.549  1.0430  1.8208  1.3738
  250SOL    HW2  750   2.632   3.059   2.608  2.6515 -0.2262 -2.8530
  251SOL     OW  751   1.480   0.704   0.112 -0.4001  0.3664 -0.3218
  251SOL    HW1  752   1.498   0.740   0.017 -1.3633 -1.0439 -1.1061
  251SOL    HW2  753   1.570   0.698   0.163 -4.1422  0.8705  1.0534
  252SOL     OW  754   1.252   2.392   2.079  0.0974  0.2771 -0.5975
  252SOL    HW1  755   1.269   2.292   2.083  0.5520 -1.3977  2.1730
  252SOL    HW2  756   1.343   2.440   2.079 -1.0638  1.0657 -0.3044
  253SOL     OW  757   2.084   2.577   0.962  0.0329 -0.4796 -0.5930
  253SOL    HW1  758   2.031   2.497   0.993 -0.3614  1.0518  0.3970
  253SOL    HW2  759   2.032   2.632   0.893 -2.6780 -0.1115 -0.3222
  254SOL     OW  760   2.357   1.389   0.825 -0.1626  0.4201  0.5701
  254SOL    HW1  761   2.287   1.453   0.786 -2.0260  0.8433 -0.2534
  254SOL    HW2  762   2.317   1.345   0.906  5.4630 -0.9837 -1.6888
  255SOL     OW  763   0.773   2.744   1.227  0.3947 -0.9159  0.7862
  255SOL    HW1  764   0.852   2.810   1.215 -0.4916 -0.6784  1.6567
  255SOL    HW2  765   0.791   2.651   1.189 -1.0104  0.7514  2.6435
  256SOL     OW  766   1.745   2.041   1.657  0.1679  0.1566  0.0272
  256SOL    HW1  767   1.831   1.995   1.631 -0.9182  1.9109 -0.7808
  256SOL    HW2  768   1.671   2.021   1.593 -1.0206 -2.4774  2.2395
  257SOL     OW  769   0.430   2.404   2.467 -0.4705  0.5730  0.2552
  257SOL    HW1  770   0.517   2.352   2.473  0.4646 -0.9732  0.5385
  257SOL    HW2  771   0.425   2.481   2.533  1.7032  0.9307  1.0560
  258SOL     OW  772   0.723   2.757   0.841  0.0165 -0.2236 -0.3570
  258SOL    HW1  773   0.817   2.759   0.880 -1.6906  1.3863 -0.0987
  258SOL    HW2  774   0.653   2.724   0.904  1.5867  0.9374  0.9497
  259SOL     OW  775   1.503   0.572   2.781  0.4396  0.4551  0.3594
  259SOL    HW1  776   1.547   0.490   2.828  0.3875 -2.7798  0.1881
  259SOL    HW2  777   1.413   0.601   2.813  1.1906 -2.2399 -0.8252
  260SOL     OW  778   3.068   1.099   1.177 -0.1837 -0.5342 -0.4051
  260SOL    HW1  779   0.028   1.110   1.276  0.9103 -0.6285 -1.2102
  260SOL    HW2  780   0.071   1.047   1.131  2.8423  0.2832 -0.7042
  261SOL     OW  781   0.812   0.316   2.296 -0.9580  0.1931  0.1332
  261SOL    HW1  782   0.811   0.221   2.334 -0.6167  1.8264 -0.2010
  261SOL    HW2  783   0.827   0.306   2.192  1.6100 -1.9881 -2.1377
  262SOL     OW  784   0.993   2.440   2.070 -0.2476 -0.6643 -0.2533
  262SOL    HW1  785   0.970   2.406   1.976  0.0632  2.4963 -1.4255
  262SOL    HW2  786   1.095   2.433   2.090  2.0489  2.5590  1.7339
  263SOL     OW  787   0.552   2.151   3.037  0.5505  0.5486  0.1176
  263SOL    HW1  788   0.634   2.182   0.016  2.2322 -1.3993 -0.9097
  263SOL    HW2  789   0.556   2.049   3.013 -2.4164 -3.2493 -2.1903
  264SOL     OW  790   1.170   1.587   1.205  0.0157  0.2283  0.7844
  264SOL    HW1  791   1.256   1.562   1.251 -2.8042 -2.0231  1.6505
  264SOL    HW2  792   1.089   1.543   1.248 -1.0976  0.4972  2.2156
  265SOL     OW  793   0.934   2.300   0.463  0.1908  0.4215  0.4068
  265SOL    HW1  794   0.900   2.218   0.522  0.0544  1.9343 -1.1196
  265SOL    HW2  795   1.024   2.334   0.497  0.9542 -0.6455  2.1438
  266SOL     OW  796   2.525   0.793   0.983  0.1253 -0.2492  0.1826
  266SOL    HW1  797   2.622   0.807   0.950 -0.6140 -1.1148 -0.6736
  266SOL    HW2  798   2.462   0.774   0.907  1.0351  1.1088  1.5098
  267SOL     OW  799   2.911   1.260   2.900 -0.0804  0.0754 -0.2915
  267SOL    HW1  800   2.965   1.260   2.988 -0.3485 -1.0232 -1.4399
  267SOL    HW2  801   2.967   1.221   2.822  3.3391  0.8025  1.1792
  268SOL     OW  802   1.669   0.152   0.254 -0.1361  0.3402 -0.1851
  268SOL    HW1  803   1.754   0.121   0.302 -1.4982  0.8729  3.0061
  268SOL    HW2  804   1.677   0.250   0.260 -0.3378 -1.1566 -2.2251
  269SOL     OW  805   2.841   0.886   2.460  0.3502 -0.7939  0.1603
  269SOL    HW1  806   2.755   0.942   2.483 -2.8940  2.1473  3.0433
  269SOL    HW2  807   2.899   0.939   2.398  0.4335  1.3743  0.6090
  270SOL     OW  808   3.050   1.275   0.078 -0.0055  0.1468  0.0605
  270SOL    HW1  809   2.989   1.294   0.160 -0.7115  1.6281  0.1238
  270SOL    HW2  810   3.045   1.172   0.051 -2.7819 -1.1947  0.0445
  271SOL     OW  811   2.580   1.678   2.489 -0.3255 -0.0707 -0.1437
  271SOL    HW1  812   2.605   1.665   2.586  2.1550  0.7853  1.3857
  271SOL    HW2  813   2.543   1.595   2.446 -0.8828  1.5592  0.7911
  272SOL     OW  814   2.297   2.556   1.755  0.1758 -0.1134 -0.3500
  272SOL    HW1  815   2.225   2.554   1.687 -3.1266  0.6153 -0.5886
  272SOL    HW2  816   2.289   2.635   1.818  3.3950 -2.9341  2.4679
  273SOL     OW  817   0.341   2.425   0.082 -0.6137  0.1159 -0.4469
  273SOL    HW1  818   0.337   2.525   0.060 -0.3584  1.6022  0.0540
  273SOL    HW2  819   0.430   2.406   0.125  0.8072 -0.3262  1.8164
  274SOL     OW  820   0.960   2.481   0.730  0.4980  0.0770 -0.0195
  274SOL    HW1  821   0.876   2.425   0.707 -3.3758  1.0233 -0.1955
  274SOL    HW2  822   0.959   2.576   0.686  1.6251  3.9278 -0.1598
  275SOL     OW  823   2.069   1.703   0.159  0.2535  0.3853  0.2186
  275SOL    HW1  824   2.158   1.704   0.209 -3.0146 -1.7803  0.8907
  275SOL    HW2  825   2.082   1.746   0.070  1.2262 -0.4424 -1.1202
  276SOL     OW  826   2.344   1.372   1.660 -0.6347  0.3025  0.1513
  276SOL    HW1  827   2.340   1.388   1.760  0.5825 -0.8513 -1.5429
  276SOL    HW2  828   2.418   1.429   1.613 -2.6463 -0.3818 -0.4290
  277SOL     OW  829   2.394   0.218   0.873 -0.3429  0.3654  0.1279
  277SOL    HW1  830   2.380   0.306   0.816  0.4252  3.0914 -1.9975
  277SOL    HW2  831   2.336   0.220   0.954  1.0082  0.2978 -4.2338
  278SOL     OW  832   1.794   0.581   2.366 -0.0514  0.0719 -0.5085
  278SOL    HW1  833   1.730   0.598   2.447 -0.2941  1.0846  2.1969
  278SOL    HW2  834   1.844   0.493   2.369 -0.2573  0.9434  1.1611
  279SOL     OW  835   1.277   2.698   1.259 -0.0456  0.6668  0.1295
  279SOL    HW1  836   1.345   2.695   1.183 -0.7240 -3.0819 -0.1552
  279SOL    HW2  837   1.189   2.745   1.233 -2.2423  3.1856 -0.6105
  280SOL     OW  838   1.016   0.819   0.254 -0.3562 -0.2566 -0.0127
  280SOL    HW1  839   0.966   0.793   0.170  1.3857 -0.7918 -4.4947
  280SOL    HW2  840   1.112   0.834   0.233 -4.5396  0.2338 -1.2544
  281SOL     OW  841   2.467   1.502   0.035 -0.0321  0.0008  0.2033
  281SOL    HW1  842   2.554   1.457   0.065  0.2257 -0.8252 -1.1439
  281SOL    HW2  843   2.470   1.604   0.039  0.7765  3.0321 -0.6602
  282SOL     OW  844   2.649   1.251   0.210  0.1509  0.1725  0.0281
  282SOL    HW1  845   2.562   1.269   0.257 -1.5760 -0.6003  1.5557
  282SOL    HW2  846   2.729   1.297   0.246 -3.6192  0.0743  1.8670
  283SOL     OW  847   1.526   2.954   2.585  0.2785  0.6063 -0.0917
  283SOL    HW1  848   1.519   2.967   2.483 -2.7320 -0.0151  0.8343
  283SOL    HW2  849   1.619   2.925   2.618  0.0132  0.7675 -1.1755
  284SOL     OW  850   0.923   0.109   2.916  0.0994 -0.3505  0.0562
  284SOL    HW1  851   0.899   0.200   2.950 -0.6348 -2.5465  1.6510
  284SOL    HW2  852   1.022   0.084   2.911 -2.1916 -0.4672  0.9967
  285SOL     OW  853   1.904   2.011   2.699 -0.0020  0.1690  0.1750
  285SOL    HW1  854   2.002   1.997   2.694 -0.2686  1.3811 -0.1132
  285SOL    HW2  855   1.883   2.053   2.788 -0.8483  0.5984  1.6646
  286SOL     OW  856   1.199   1.736   0.804 -0.5561 -0.2764  0.2850
  286SOL    HW1  857   1.136   1.684   0.863  0.6642  1.1878 -5.8722
  286SOL    HW2  858   1.278   1.777   0.856 -0.0094 -0.6793 -0.6170
  287SOL     OW  859   1.643   0.079   1.367 -0.4308  0.6371  0.0405
  287SOL    HW1  860   1.690   0.109   1.453  0.9495  0.3379  0.2681
  287SOL    HW2  861   1.565   0.011   1.378  1.7355  0.3419 -2.0979
  288SOL     OW  862   0.631   2.628   2.153  0.0419 -0.4128  0.3431
  288SOL    HW1  863   0.650   2.672   2.244 -0.1630 -1.0567 -0.7788
  288SOL    HW2  864   0.668   2.683   2.072  0.6845 -0.0166  1.7982
  289SOL     OW  865   0.191   1.349   0.791  0.1599 -0.3376 -0.1095
  289SOL    HW1  866   0.159   1.295   0.709 -1.5511 -3.5725  0.4142
  289SOL    HW2  867   0.215   1.288   0.869 -1.1105  0.2305 -2.2178
  290SOL     OW  868   1.142   2.035   1.596 -0.5419 -0.5188  0.4901
  290SOL    HW1  869   1.154   1.971   1.675  0.5840 -1.9571  3.6428
  290SOL    HW2  870   1.233   2.066   1.559  2.9890  0.6305 -1.6267
  291SOL     OW  871   2.040   0.032   0.623 -0.1669 -0.0023 -0.7416
  291SOL    HW1  872   1.982   0.008   0.703 -1.1227  0.9941  1.5027
  291SOL    HW2  873   1.986   0.031   0.537  0.6894  0.5850  0.4466
  292SOL     OW  874   0.238   0.393   1.463  0.1987 -0.2051  0.1756
  292SOL    HW1  875   0.225   0.460   1.388  0.9355  0.0667  2.2253
  292SOL    HW2  876   0.221   0.441   1.550 -0.9963  1.2149 -0.6981
  293SOL     OW  877   2.240   1.795   0.813  0.1337 -0.0748  0.4573
  293SOL    HW1  878   2.341   1.799   0.808  0.4439 -1.8152  1.0132
  293SOL    HW2  879   2.208   1.709   0.775 -0.4861  0.9153 -2.7348
  294SOL     OW  880   0.326   0.272   2.287  0.2321  0.0289  0.2058
  294SOL    HW1  881   0.341   0.372   2.294  1.3061 -0.1855  3.7674
  294SOL    HW2  882   0.404   0.217   2.319 -1.0635  1.6231 -1.8910
  295SOL     OW  883   1.030   1.140   0.386  0.5215 -0.6920  0.2846
  295SOL    HW1  884   1.000   1.052   0.432 -0.4589 -1.3123 -1.4559
  295SOL    HW2  885   0.962   1.219   0.375  1.2177  2.1109 -0.8285
  296SOL     OW  886   1.907   1.995   1.095  0.0549 -0.4600 -0.1445
  296SOL    HW1  887   1.866   1.900   1.113 -1.6517 -0.3672  2.2850
  296SOL    HW2  888   1.986   1.987   1.030 -0.7151 -3.9098 -1.1584
  297SOL     OW  889   1.845   0.449   2.686  0.6455 -0.4461  0.0637
  297SOL    HW1  890   1.934   0.459   2.644 -0.5200 -0.8031  2.4434
  297SOL    HW2  891   1.781   0.518   2.650  2.0473  1.4530 -0.6135
  298SOL     OW  892   1.399   0.056   2.756 -0.1699 -0.5167 -0.0863
  298SOL    HW1  893   1.467   0.002   2.706 -2.1811  1.6041  1.3446
  298SOL    HW2  894   1.445   0.117   2.825 -0.1627  1.6381 -0.1201
  299SOL     OW  895   0.934   0.138   2.060 -0.1701 -0.3867  0.8058
  299SOL    HW1  896   1.020   0.164   2.112  0.5095 -0.6286  1.9087
  299SOL    HW2  897   0.926   0.038   2.062  2.8574  3.0116  1.9522
  300SOL     OW  898   2.575   0.114   1.550  0.6738 -0.0047 -0.5129
  300SOL    HW1  899   2.586   0.080   1.646 -1.6124  1.5822 -3.8297
  300SOL    HW2  900   2.582   0.213   1.536  1.4979  0.1360  0.4922
  301SOL     OW  901   2.184   0.629   1.852 -0.6831 -0.3623  0.2878
  301SOL    HW1  902   2.263   0.674   1.809  0.7283 -1.0578  0.4783
  301SOL    HW2  903   2.094   0.668   1.826 -0.5007 -0.7269  1.3798
  302SOL     OW  904   0.650   2.759   0.363  0.0426  0.3720 -0.2723
  302SOL    HW1  905   0.674   2.699   0.443  0.3730  0.6663  1.6395
  302SOL    HW2  906   0.693   2.848   0.388  0.2296  0.2927  1.1349
  303SOL     OW  907   1.764   1.808   2.084 -0.6078 -0.3566  0.2259
  303SOL    HW1  908   1.772   1.731   2.017  0.1211 -1.4333 -1.7178
  303SOL    HW2  909   1.713   1.884   2.041  0.4583  1.1001  1.7698
  304SOL     OW  910   0.631   0.397   0.885  0.4949 -0.0491  0.3681
  304SOL    HW1  911   0.561   0.352   0.941  1.8476 -1.1803  2.7489
  304SOL    HW2  912   0.619   0.501   0.885  1.8914  0.3685 -0.2132
  305SOL     OW  913   0.701   0.794   0.583  0.3540 -0.1428  0.1197
  305SOL    HW1  914   0.603   0.798   0.563 -0.3370 -0.8384 -1.6177
  305SOL    HW2  915   0.721   0.694   0.611  0.5537 -2.9317  0.2521
  306SOL     OW  916   0.608   1.249   2.838  0.3107  0.5248 -0.2267
  306SOL    HW1  917   0.703   1.250   2.802 -2.0371  0.0171  0.1104
  306SOL    HW2  918   0.617   1.283   2.935  1.6735  0.1126  1.9067
  307SOL     OW  919   0.765   0.367   1.918 -0.8448 -0.4103  0.1641
  307SOL    HW1  920   0.825   0.416   1.851  0.0827  3.0353 -0.9687
  307SOL    HW2  921   0.816   0.282   1.944 -1.1055 -1.4252  1.7275
  308SOL     OW  922   0.819   0.201   0.833 -0.1004  0.3824  0.4088
  308SOL    HW1  923   0.743   0.274   0.832 -0.5478  2.2975  1.2233
  308SOL    HW2  924   0.870   0.211   0.742  1.6502  2.9094 -1.0830
  309SOL     OW  925   2.189   1.091   0.498  0.4528  0.4713  0.2870
  309SOL    HW1  926   2.279   1.118   0.534 -0.0939 -1.2313  0.9562
  309SOL    HW2  927   2.177   1.113   0.394  0.4967  1.4290 -2.4714
  310SOL     OW  928   1.028   1.410   2.924 -0.0886  0.9415 -0.7019
  310SOL    HW1  929   1.121   1.437   2.896 -1.1689 -0.4352  1.0763
  310SOL    HW2  930   1.036   1.344   3.002  0.0300 -1.3285 -0.9717
  311SOL     OW  931   1.906   2.598   2.144 -0.4882  0.5720  0.3786
  311SOL    HW1  932   1.819   2.554   2.169 -2.8151 -0.2267  0.6766
  311SOL    HW2  933   1.925   2.692   2.178  0.4185 -0.8973 -2.0773
  312SOL     OW  934   2.352   2.923   0.032 -0.2067  0.0272  0.5804
  312SOL    HW1  935   2.323   2.966   3.015  0.4661  1.1116  2.2629
  312SOL    HW2  936   2.452   2.912   0.030 -0.9322 -0.5624  0.1327
  313SOL     OW  937   0.479   0.206   3.031  0.6162 -0.0708 -0.2333
  313SOL    HW1  938   0.512   0.267   2.959  2.2274  0.8395 -1.5571
  313SOL    HW2  939   0.373   0.202   3.037 -0.4049 -1.8026  0.4748
  314SOL     OW  940   2.529   1.527   2.825 -0.5554 -0.2068 -0.5067
  314SOL    HW1  941   2.494   1.515   2.921  2.0007  1.1332  2.0646
  314SOL    HW2  942   2.595   1.608   2.827  1.2809  1.0270  1.0911
  315SOL     OW  943   1.925   0.678   2.170  0.8983  0.8130  0.0989
  315SOL    HW1  944   1.871   0.641   2.253 -0.1240 -2.6867  1.1371
  315SOL    HW2  945   1.996   0.745   2.190 -1.7502  0.3718  1.1110
  316SOL     OW  946   2.950   1.046   0.617 -0.0971  0.0391  0.3221
  316SOL    HW1  947   2.973   0.986   0.536 -2.4579 -0.2544  0.3793
  316SOL    HW2  948   2.949   0.993   0.706  1.2868 -3.3395 -1.3633
  317SOL     OW  949   0.474   2.880   0.191 -0.7886  0.3239  0.4336
  317SOL    HW1  950   0.472   2.971   0.235 -2.7625  0.7238 -1.9687
  317SOL    HW2  951   0.542   2.816   0.233  4.0065 -2.4162 -3.1508
  318SOL     OW  952   1.942   2.709   1.306 -0.1790 -0.0476 -0.2596
  318SOL    HW1  953   1.913   2.731   1.407 -0.0692 -0.1831  0.8774
  318SOL    HW2  954   1.955   2.605   1.292  2.0637  0.0130  0.3933
  319SOL     OW  955   1.220   1.580   0.473 -0.3952 -0.1218  0.4400
  319SOL    HW1  956   1.124   1.605   0.481  6.0135  1.2688  0.3168
  319SOL    HW2  957   1.256   1.533   0.556  0.8952  0.4113  0.3019
  320SOL     OW  958   0.721   1.850   0.870  0.4717 -0.1183 -0.4391
  320SOL    HW1  959   0.810   1.891   0.890 -0.6942 -0.2945  1.4001
  320SOL    HW2  960   0.651   1.922   0.858  0.3730  1.7110 -4.2277
  321SOL     OW  961   2.178   2.713   1.932  0.3757 -0.1673 -0.0156
  321SOL    HW1  962   2.198   2.676   2.024 -0.4224  0.6615  1.8007
  321SOL    HW2  963   2.151   2.812   1.941 -0.9254 -0.4288 -1.7215
  322SOL     OW  964   2.320   2.163   2.418 -0.3592 -0.0590  1.0336
  322SOL    HW1  965   2.250   2.140   2.343 -3.1169  2.2075 -0.8671
  322SOL    HW2  966   2.407   2.111   2.412 -0.2503  0.5066  1.3683
  323SOL     OW  967   2.561   0.503   0.846  0.1264  0.1290 -0.4077
  323SOL    HW1  968   2.463   0.501   0.865 -0.0533 -0.2757  0.3970
  323SOL    HW2  969   2.583   0.524   0.747 -0.6304 -0.6192  0.1122
  324SOL     OW  970   2.277   2.404   2.282  0.2638  0.6414 -0.5462
  324SOL    HW1  971   2.272   2.316   2.337  1.7447 -1.7447  0.3812
  324SOL    HW2  972   2.331   2.388   2.200 -0.1951 -0.8613  0.6653
  325SOL     OW  973   1.443   0.427   2.521 -0.1181 -0.0303 -0.2944
  325SOL    HW1  974   1.351   0.393   2.543  1.9736 -1.5772 -1.5491
  325SOL    HW2  975   1.481   0.493   2.590  5.1218 -1.0881  0.6986
  326SOL     OW  976   2.536   2.575   0.974 -0.2672 -0.5158  0.0410
  326SOL    HW1  977   2.629   2.600   0.943  2.3131 -1.6384 -1.6129
  326SOL    HW2  978   2.499   2.510   0.907  1.1734  1.8775  1.2998
  327SOL     OW  979   2.566   2.855   0.293  0.7636 -0.1055 -0.5171
  327SOL    HW1  980   2.587   2.833   0.197 -1.5734  0.0909 -0.5332
  327SOL    HW2  981   2.573   2.956   0.315  0.8919  1.3109 -0.5294
  328SOL     OW  982   0.783   0.544   0.635  0.2040  0.2887  0.2919
  328SOL    HW1  983   0.810   0.469   0.572 -0.2026 -2.6970  1.1633
  328SOL    HW2  984   0.836   0.540   0.721  0.3107 -0.9557  2.1417
  329SOL     OW  985   1.965   0.751   1.335 -0.3809  0.2385  0.1692
  329SOL    HW1  986   1.992   0.827   1.396 -3.0919 -0.4437 -3.0329
  329SOL    HW2  987   2.038   0.678   1.340  0.8949 -0.6199  0.5292
  330SOL     OW  988   0.625   0.523   0.395  0.2314  0.8224 -0.0867
  330SOL    HW1  989   0.665   0.594   0.326 -0.5352  0.4246 -1.0197
  330SOL    HW2  990   0.703   0.476   0.432  1.0349  0.1830 -1.1575
  331SOL     OW  991   0.776   1.904   1.864 -0.4427 -0.5308 -0.1962
  331SOL    HW1  992   0.875   1.910   1.866 -0.3713  0.8460 -0.1741
  331SOL    HW2  993   0.747   1.914   1.768 -2.3088  0.7670  1.1676
  332SOL     OW  994   2.029   2.366   2.095  0.3392  0.4903  0.3955
  332SOL    HW1  995   1.982   2.444   2.138 -1.5056  1.9157  1.5424
  332SOL    HW2  996   2.083   2.315   2.164  0.0643 -0.1776  0.0312
  333SOL     OW  997   3.015   0.028   1.074 -0.1523 -0.0614  0.4493
  333SOL    HW1  998   3.002   0.085   1.156  1.1511  1.3207 -1.1967
  333SOL    HW2  999   2.932   3.036   1.073  0.0972  1.6919  1.8912
  334SOL     OW 1000   3.013   1.430   0.814  0.4668  0.5453 -0.2637
  334SOL    HW1 1001   2.992   1.407   0.714 -1.0837 -0.1852 -2.6846
  334SOL    HW2 1002   0.040   1.426   0.838 -3.4541  2.6000  0.2393
  335SOL     OW 1003   0.476   2.524   2.738  0.0619 -0.0589 -0.1432
  335SOL    HW1 1004   0.429   2.463   2.811 -1.8657 -1.3403  3.7803
  335SOL    HW2 1005   0.403   2.591   2.706  0.4914  1.4250  0.3465
  336SOL     OW 1006   2.890   2.661   2.123  0.2785  0.6293 -0.2062
  336SOL    HW1 1007   2.917   2.688   2.214  1.5666 -3.8561  1.3115
  336SOL    HW2 1008   2.816   2.722   2.097  2.7190 -0.1582  1.2470
  337SOL     OW 1009   1.079   1.875   1.823 -0.2314 -0.1382 -0.1554
  337SOL    HW1 1010   1.076   1.776   1.799  0.2780  2.2378  1.6810
  337SOL    HW2 1011   1.169   1.903   1.862  0.8070 -0.7874 -0.0636
  338SOL     OW 1012   1.207   0.063   2.558  0.5825  0.6095  0.4484
  338SOL    HW1 1013   1.202   3.048   2.502  1.6868  1.2717 -0.1130
  338SOL    HW2 1014   1.265   0.052   2.646  1.4949 -0.4586  0.9762
  339SOL     OW 1015   0.238   0.739   2.473  0.6811 -0.3348 -0.6263
  339SOL    HW1 1016   0.227   0.824   2.420 -0.2230  0.3404  1.4002
  339SOL    HW2 1017   0.240   0.763   2.569  1.4001 -1.2410  3.2693
  340SOL     OW 1018   2.136   0.527   1.372 -0.4310 -0.1384 -0.4126
  340SOL    HW1 1019   2.220   0.541   1.313  0.0702  2.0067  1.3137
  340SOL    HW2 1020   2.107   0.426   1.382 -1.4643 -1.1040  1.3066
  341SOL     OW 1021   2.329   1.394   1.095  0.2525  0.3857  0.5502
  341SOL    HW1 1022   2.331   1.496   1.090  1.2936 -1.1209 -5.9346
  341SOL    HW2 1023   2.414   1.359   1.141  2.5704  1.7364  0.5306
  342SOL     OW 1024   2.074   2.870   2.785 -0.0188 -0.2572  0.1494
  342SOL    HW1 1025   2.131   2.941   2.836  0.8269  0.6836 -3.2916
  342SOL    HW2 1026   2.039   2.797   2.853  1.0536 -1.5958  0.8833
  343SOL     OW 1027   0.027   2.334   1.121  0.1613  0.2067  0.2145
  343SOL    HW1 1028   0.056   2.258   1.182  2.2133 -0.0879  2.9696
  343SOL    HW2 1029   0.011   2.417   1.173  0.9480 -2.1832 -1.7738
  344SOL     OW 1030   2.262   3.055   1.180  0.3548  0.0354 -0.8806
  344SOL    HW1 1031   2.181   2.986   1.178 -1.8425 -4.7401  0.7411
  344SOL    HW2 1032   2.276   0.018   1.274  0.1770 -0.3848 -2.1807
  345SOL     OW 1033   2.313   2.188   0.595 -0.5280  0.1383 -0.2436
  345SOL    HW1 1034   2.380   2.192   0.520 -1.5341  0.1195  0.8481
  345SOL    HW2 1035   2.259   2.274   0.590  0.2352 -2.8143  1.3368
  346SOL     OW 1036   1.554   2.005   1.459  0.0659 -0.3400 -0.3884
  346SOL    HW1 1037   1.507   1.927   1.508  1.6391  1.6486  0.0867
  346SOL    HW2 1038   1.490   2.087   1.447 -2.0979 -1.0327 -1.6263
  347SOL     OW 1039   1.054   1.864   1.386 -0.4341 -0.1585 -0.2177
  347SOL    HW1 1040   1.063   1.884   1.288  1.1060 -0.9877  0.4934
  347SOL    HW2 1041   1.081   1.949   1.444  0.2165 -0.7073  2.6935
  348SOL     OW 1042   0.355   1.846   1.797 -0.3670 -0.1459 -0.4662
  348SOL    HW1 1043   0.419   1.898   1.856 -0.2565 -0.2426 -0.3191
  348SOL    HW2 1044   0.393   1.837   1.703 -0.3717  1.9897  0.3691
  349SOL     OW 1045   1.580   1.627   1.670  0.4646  0.8096  0.2134
  349SOL    HW1 1046   1.515   1.562   1.712 -0.2112  1.3999  3.0445
  349SOL    HW2 1047   1.534   1.702   1.622  1.2772  0.1009 -0.7130
  350SOL     OW 1048   2.216   2.425   0.490 -0.1113 -0.5042 -0.0972
  350SOL    HW1 1049   2.244   2.393   0.395 -0.4163 -1.0697 -1.6260
  350SOL    HW2 1050   2.142   2.495   0.482 -0.6916 -1.4593 -0.5689
  351SOL     OW 1051   0.433   2.968   1.668  0.0355 -0.8189  0.6090
  351SOL    HW1 1052   0.459   2.901   1.601 -0.9574  2.3247  3.9751
  351SOL    HW2 1053   0.340   3.004   1.644 -1.7559  2.3020 -1.3392
  352SOL     OW 1054   0.750   1.026   0.700 -0.1891  0.0720  0.1805
  352SOL    HW1 1055   0.825   1.053   0.761  0.0306  0.3322  0.8110
  352SOL    HW2 1056   0.759   0.931   0.661  1.1862 -1.3322  1.4962
  353SOL     OW 1057   1.169   1.769   2.686 -0.2525  0.1842  0.1354
  353SOL    HW1 1058   1.160   1.859   2.639  1.4742  0.7329  2.0506
  353SOL    HW2 1059   1.085   1.711   2.685  1.3145 -0.4427 -0.4359
  354SOL     OW 1060   1.704   2.675   1.977  0.0004  0.1031 -0.4349
  354SOL    HW1 1061   1.792   2.658   2.027  0.7153  0.7149  0.4284
  354SOL    HW2 1062   1.696   2.768   1.937 -1.1318  1.4996 -0.9584
  355SOL     OW 1063   2.179   1.141   0.238 -0.7513 -0.2890  0.0365
  355SOL    HW1 1064   2.215   1.212   0.177  1.3513  0.4672  1.6733
  355SOL    HW2 1065   2.077   1.133   0.223 -0.9897 -0.2989  0.5009
  356SOL     OW 1066   0.350   1.848   1.040 -0.2363  0.6355  0.1392
  356SOL    HW1 1067   0.346   1.754   0.996 -0.3775 -1.5400 -0.1044
  356SOL    HW2 1068   0.257   1.884   1.074 -0.9991 -1.9427 -0.0474
  357SOL     OW 1069   0.018   2.778   1.567 -0.3053 -0.2016 -0.1373
  357SOL    HW1 1070   3.005   2.768   1.621 -0.8688  1.3897  1.0354
  357SOL    HW2 1071   0.001   2.766   1.468  0.0544 -1.2729  2.0379
  358SOL     OW 1072   2.219   1.741   1.558 -0.0132  0.2342 -0.5085
  358SOL    HW1 1073   2.292   1.806   1.523 -0.5753  0.7625 -0.5404
  358SOL    HW2 1074   2.165   1.704   1.486  1.4449  0.9305  1.2117
  359SOL     OW 1075   2.240   2.798   2.580 -0.1764  0.4376 -0.2830
  359SOL    HW1 1076   2.164   2.822   2.641  2.0366  0.6432  1.9920
  359SOL    HW2 1077   2.225   2.701   2.544  0.9670 -0.3982 -0.5034
  360SOL     OW 1078   0.995   2.776   0.915  0.1951  0.1774  0.0679
  360SOL    HW1 1079   1.021   2.688   0.957 -0.5195  0.2639  1.1215
  360SOL    HW2 1080   1.016   2.850   0.985 -3.3173 -0.4097  0.7518
  361SOL     OW 1081   1.930   0.377   0.515 -0.0745 -0.1172 -0.0014
  361SOL    HW1 1082   2.005   0.420   0.458  3.0608  2.0326 -0.6775
  361SOL    HW2 1083   1.925   0.411   0.613  0.3443  0.7393  1.4899
  362SOL     OW 1084   1.474   0.785   1.213  0.3843 -0.1452 -0.3248
  362SOL    HW1 1085   1.545   0.731   1.165  2.1960 -0.0713  1.1258
  362SOL    HW2 1086   1.389   0.771   1.163  0.2060 -1.1136  0.2297
  363SOL     OW 1087   1.985   1.502   2.174 -0.1379 -0.3969  0.0888
  363SOL    HW1 1088   1.999   1.425   2.240  0.7620 -0.0428  0.0847
  363SOL    HW2 1089   2.078   1.525   2.135  0.8666 -0.3161  0.3746
  364SOL     OW 1090   0.387   0.647   1.095  0.6443  0.2052  0.3919
  364SOL    HW1 1091   0.375   0.618   0.995  0.5763 -0.2277 -1.1566
  364SOL    HW2 1092   0.485   0.640   1.113 -1.3961 -0.2809 -2.9765
  365SOL     OW 1093   0.535   0.097   2.354  0.1316  0.2416 -0.5003
  365SOL    HW1 1094   0.635   0.079   2.356 -3.3606 -0.2831  0.6765
  365SOL    HW2 1095   0.488   0.021   2.305 -1.4798 -1.3246  1.6827
  366SOL     OW 1096   2.176   1.973   2.691  0.0216 -0.1540  0.3808
  366SOL    HW1 1097   2.273   1.937   2.676  2.1857  0.1460  1.5226
  366SOL    HW2 1098   2.180   2.072   2.716 -0.2735  0.4768  1.2738
  367SOL     OW 1099   2.616   2.541   0.075  0.3827 -0.1746 -0.3882
  367SOL    HW1 1100   2.674   2.546   0.160  0.2674  0.2290  0.3484
  367SOL    HW2 1101   2.655   2.486   3.069 -0.3047  0.5138  3.2069
  368SOL     OW 1102   2.838   1.575   0.961  0.2613 -0.5056 -0.4228
  368SOL    HW1 1103   2.742   1.562   0.929 -0.8100  1.8245  0.5363
  368SOL    HW2 1104   2.908   1.523   0.905 -0.3952  0.7407  0.1496
  369SOL     OW 1105   0.698   2.785   2.371 -0.3668 -0.2188 -0.2984
  369SOL    HW1 1106   0.686   2.750   2.463  0.9796 -1.5646 -1.7330
  369SOL    HW2 1107   0.795   2.802   2.345 -0.7426  0.3394  0.0834
  370SOL     OW 1108   2.899   0.303   0.734  0.1907 -0.1746 -0.5538
  370SOL    HW1 1109   2.952   0.331   0.651  1.0665 -1.6485 -2.3801
  370SOL    HW2 1110   2.812   0.261   0.702 -3.4777  0.8245  0.4597
  371SOL     OW 1111   1.323   2.182   1.458 -0.3966 -0.0801 -0.0597
  371SOL    HW1 1112   1.283   2.224   1.377  0.4721  0.9585  0.6448
  371SOL    HW2 1113   1.354   2.258   1.518 -0.7065  3.3575  0.8048
  372SOL     OW 1114   2.916   0.634   2.387  0.4127  0.2716 -0.0623
  372SOL    HW1 1115   2.965   0.589   2.461 -1.0569 -1.9278 -2.6193
  372SOL    HW2 1116   2.853   0.716   2.409 -1.7494 -0.8306  1.0134
  373SOL     OW 1117   0.222   1.998   0.685  0.2048  0.0606 -0.0440
  373SOL    HW1 1118   0.291   2.015   0.755  1.4596  0.6727 -2.2854
  373SOL    HW2 1119   0.164   2.075   0.661  3.2680 -3.5045 -1.3520
  374SOL     OW 1120   0.400   2.896   2.575 -0.0621  0.0124  0.3676
  374SOL    HW1 1121   0.468   2.923   2.642 -0.3524 -0.9549 -2.6765
  374SOL    HW2 1122   0.436   2.903   2.476  0.9274  0.3659 -1.8011
  375SOL     OW 1123   0.537   0.093   2.636 -0.1040  0.5003  0.0774
  375SOL    HW1 1124   0.637   0.095   2.649 -1.0624  0.5474  1.4581
  375SOL    HW2 1125   0.523   0.094   2.536  2.0270  1.3428  0.5262
  376SOL     OW 1126   2.718   2.262   1.742  0.0221  0.2914  0.0640
  376SOL    HW1 1127   2.805   2.249   1.791  0.9737  0.1129  0.7907
  376SOL    HW2 1128   2.642   2.216   1.793  2.4823 -1.0938 -0.0333
  377SOL     OW 1129   1.604   2.712   2.986  0.1997  0.0065 -0.3120
  377SOL    HW1 1130   1.624   2.797   2.932 -1.8862  0.2917 -0.5119
  377SOL    HW2 1131   1.512   2.678   2.978  4.5368  1.2703 -0.3098
  378SOL     OW 1132   3.030   0.289   2.291 -0.1267  0.1723  0.4454
  378SOL    HW1 1133   0.026   0.278   2.367 -0.3249  0.4134  2.4708
  378SOL    HW2 1134   2.942   0.320   2.326  3.2861 -0.6506 -0.4212
  379SOL     OW 1135   0.320   0.988   0.231 -0.4044 -0.0195 -0.2949
  379SOL    HW1 1136   0.294   0.945   0.145  1.2375  1.0133  1.1296
  379SOL    HW2 1137   0.331   0.917   0.300  0.5816 -0.2306  1.5143
  380SOL     OW 1138   0.319   1.583   1.836  0.4513 -0.1771 -0.3673
  380SOL    HW1 1139   0.348   1.678   1.810  1.3162 -1.9610 -0.5819
  380SOL    HW2 1140   0.330   1.572   1.939 -1.2959 -0.9797 -1.2888
  381SOL     OW 1141   0.377   1.197   2.134 -0.2002 -0.3872 -0.3126
  381SOL    HW1 1142   0.424   1.117   2.092 -0.1570 -2.2299  0.4935
  381SOL    HW2 1143   0.281   1.206   2.096 -0.3866 -1.6699 -0.5939
  382SOL     OW 1144   2.229   1.951   0.459 -0.6804  0.7395  1.2156
  382SOL    HW1 1145   2.292   2.020   0.505  2.3270 -0.8287  1.7897
  382SOL    HW2 1146   2.150   1.935   0.522  1.2154 -0.9079 -0.5442
  383SOL     OW 1147   0.500   1.862   3.048  0.0692  0.6041  0.0890
  383SOL    HW1 1148   0.537   1.844   0.071  0.7248 -1.2434  2.0055
  383SOL    HW2 1149   0.563   1.822   2.974 -2.3507 -0.1364 -0.8669
  384SOL     OW 1150   0.843   2.135   2.589  0.0572  0.4726 -0.0108
  384SOL    HW1 1151   0.745   2.127   2.604 -0.4272 -1.3724  0.4152
  384SOL    HW2 1152   0.872   2.226   2.560 -2.2035  0.5414 -0.3942
  385SOL     OW 1153   2.043   1.915   0.659  0.0778  0.4679 -0.1676
  385SOL    HW1 1154   2.118   1.870   0.716 -0.0733 -0.2325  0.1843
  385SOL    HW2 1155   1.997   1.985   0.719  0.1704 -0.9125 -0.9711
  386SOL     OW 1156   2.350   1.070   1.604  0.0016 -0.0191  0.0414
  386SOL    HW1 1157   2.344   1.054   1.503  0.8656 -0.8397  1.0824
  386SOL    HW2 1158   2.370   1.170   1.624 -0.1253 -2.5626  1.7362
  387SOL     OW 1159   2.715   1.367   2.193 -0.6870  0.6654 -0.1163
  387SOL    HW1 1160   2.675   1.458   2.172  0.8861 -3.1986 -0.1555
  387SOL    HW2 1161   2.760   1.377   2.284 -1.0957 -1.7917  2.0269
  388SOL     OW 1162   0.413   1.621   2.091  0.3640  0.2155 -0.5198
  388SOL    HW1 1163   0.501   1.638   2.052 -1.4438  0.7485  0.2072
  388SOL    HW2 1164   0.381   1.709   2.138 -0.8196 -0.1441 -0.1827
  389SOL     OW 1165   1.001   1.006   2.059  0.3723 -0.3852  0.1375
  389SOL    HW1 1166   0.950   0.915   2.037 -2.3353  1.3098 -2.1702
  389SOL    HW2 1167   1.098   1.003   2.094  3.5704 -0.7191 -0.1697
  390SOL     OW 1168   2.239   0.268   1.080 -0.3068  0.2376 -0.2235
  390SOL    HW1 1169   2.302   0.257   1.155 -0.2922  0.7130 -2.8217
  390SOL    HW2 1170   2.148   0.222   1.098  0.9963 -2.9117  1.1400
  391SOL     OW 1171   1.812   1.525   1.327 -0.0036 -0.1826 -0.0366
  391SOL    HW1 1172   1.903   1.540   1.282 -0.6507  1.4467 -0.7343
  391SOL    HW2 1173   1.787   1.426   1.330  1.8974  1.9530  0.8562
  392SOL     OW 1174   2.775   2.826   0.452  0.0900 -0.3922  0.3388
  392SOL    HW1 1175   2.695   2.839   0.385  1.0563 -1.5768  0.5390
  392SOL    HW2 1176   2.827   2.913   0.467 -0.7874  1.2950 -0.6187
  393SOL     OW 1177   1.877   2.286   2.890  0.2286  0.4151 -0.1978
  393SOL    HW1 1178   1.846   2.371   2.935  0.6201 -1.8441 -0.4783
  393SOL    HW2 1179   1.906   2.213   2.958  0.5662  0.0933 -1.3366
  394SOL     OW 1180   0.005   2.592   2.574  0.4023  0.4950 -0.0927
  394SOL    HW1 1181   3.044   2.608   2.673 -2.6828  0.3833  3.3062
  394SOL    HW2 1182   0.058   2.507   2.563  0.6472  0.7753  3.8866
  395SOL     OW 1183   0.345   0.189   0.764 -0.0700  0.4621 -0.0747
  395SOL    HW1 1184   0.284   0.256   0.718  1.7025 -0.6450 -2.7622
  395SOL    HW2 1185   0.392   0.231   0.842  2.4710 -1.9066 -4.8518
  396SOL     OW 1186   1.785   0.691   0.526  0.1393  0.5272  0.2987
  396SOL    HW1 1187   1.694   0.728   0.511 -0.9072  0.7601  1.0595
  396SOL    HW2 1188   1.792   0.642   0.615  0.3580  0.1236 -0.7464
  397SOL     OW 1189   0.339   0.565   2.094 -0.4040 -0.2197  0.0704
  397SOL    HW1 1190   0.399   0.497   2.048  0.0910 -0.1087  1.6181
  397SOL    HW2 1191   0.249   0.525   2.123 -0.6592 -1.4596  3.4763
  398SOL     OW 1192   0.842   3.047   0.595 -0.0296 -0.5881 -0.2846
  398SOL    HW1 1193   0.891   0.065   0.597  2.0088  1.6322 -1.5228
  398SOL    HW2 1194   0.897   2.970   0.632 -0.1179  1.9998 -0.2803
  399SOL     OW 1195   2.247   0.314   1.652 -0.1277  0.4292 -0.1832
  399SOL    HW1 1196   2.274   0.409   1.638 -1.9450  0.5413 -0.7474
  399SOL    HW2 1197   2.304   0.247   1.599  1.1737  1.7722 -1.0389
  400SOL     OW 1198   1.095   2.019   2.525  0.0556 -0.1167  0.3526
  400SOL    HW1 1199   1.022   2.065   2.579  1.4592 -0.0100  0.0708
  400SOL    HW2 1200   1.085   2.028   2.423 -0.1394  1.9745 -1.5703
  401SOL     OW 1201   0.664   0.918   2.509 -0.1979 -0.2170 -0.3886
  401SOL    HW1 1202   0.632   0.826   2.548 -0.4338 -3.6871  0.5436
  401SOL    HW2 1203   0.628   0.932   2.418  2.8187 -0.3804  0.0827
  402SOL     OW 1204   0.266   2.277   0.520  0.6877  0.4062  0.0441
  402SOL    HW1 1205   0.307   2.204   0.464 -0.4939 -1.9785  1.5592
  402SOL    HW2 1206   0.318   2.361   0.504 -0.6423  1.5495 -0.1589
  403SOL     OW 1207   0.146   1.237   2.013  0.6886  0.2613  0.5340
  403SOL    HW1 1208   0.192   1.250   1.924 -0.4764  1.7304 -2.4836
  403SOL    HW2 1209   0.060   1.186   1.991  2.0403  0.3058 -0.8934
  404SOL     OW 1210   2.664   2.408   2.404  0.2734 -0.0096  0.2681
  404SOL    HW1 1211   2.703   2.329   2.452 -1.4081 -2.9495 -0.1144
  404SOL    HW2 1212   2.659   2.390   2.304  0.7895 -1.7086 -1.2274
  405SOL     OW 1213   0.124   0.295   1.868 -0.0125  0.5791  0.4305
  405SOL    HW1 1214   0.174   0.208   1.872  2.1300  2.8732 -1.5351
  405SOL    HW2 1215   0.044   0.293   1.803 -0.7462  0.2899 -1.4507
  406SOL     OW 1216   1.319   1.554   2.537  0.2391 -0.5960  0.6029
  406SOL    HW1 1217   1.269   1.642   2.558 -0.1062  1.5463 -1.8643
  406SOL    HW2 1218   1.411   1.578   2.502 -0.9263 -0.5482 -1.2430
  407SOL     OW 1219   1.713   0.927   2.639  0.1605  0.5550  0.0548
  407SOL    HW1 1220   1.717   0.977   2.727 -0.0964  2.1111 -2.4189
  407SOL    HW2 1221   1.792   0.927   2.577 -1.2282 -1.2821 -1.0106
  408SOL     OW 1222   0.466   2.913   2.287  0.3670  0.0915  0.4854
  408SOL    HW1 1223   0.556   2.869   2.267 -1.2522 -0.4169  0.0963
  408SOL    HW2 1224   0.394   2.880   2.224  2.1412 -2.2822 -0.4979
  409SOL     OW 1225   0.108   1.907   1.156 -0.0570  0.1689 -0.8066
  409SOL    HW1 1226   0.020   1.895   1.108  1.8308  1.8827 -1.8916
  409SOL    HW2 1227   0.108   1.996   1.203 -2.7989 -0.8138 -0.1170
  410SOL     OW 1228   2.434   1.550   0.351  0.2974 -0.0834  0.1767
  410SOL    HW1 1229   2.525   1.594   0.357 -2.6967 -1.6194 -2.1866
  410SOL    HW2 1230   2.449   1.454   0.324 -0.0574  1.9303 -0.2603
  411SOL     OW 1231   2.950   0.220   1.276 -0.0970  0.1209 -0.3490
  411SOL    HW1 1232   2.962   0.152   1.345 -2.1731  0.9497  2.4047
  411SOL    HW2 1233   2.890   0.295   1.302  2.3587 -1.1993 -1.7927
  412SOL     OW 1234   1.803   0.402   1.483  0.1951  0.0816  0.1471
  412SOL    HW1 1235   1.763   0.488   1.448 -1.0733 -0.1611 -1.2149
  412SOL    HW2 1236   1.891   0.379   1.431  0.6629  1.3957  0.9509
  413SOL     OW 1237   0.488   0.374   1.951  0.1361 -0.1585  0.2445
  413SOL    HW1 1238   0.439   0.284   1.959 -2.1585  0.0496 -0.6850
  413SOL    HW2 1239   0.589   0.371   1.950  1.7583 -1.0274 -0.7602
  414SOL     OW 1240   2.755   1.419   2.689 -0.2314  0.0408 -0.0028
  414SOL    HW1 1241   2.834   1.376   2.730  0.4774 -0.7474  1.5862
  414SOL    HW2 1242   2.688   1.435   2.764  1.9571  0.3009 -1.1573
  415SOL     OW 1243   0.759   2.648   0.124 -0.5079 -0.0242 -0.4239
  415SOL    HW1 1244   0.820   2.705   0.062  0.2036  0.8720 -0.4695
  415SOL    HW2 1245   0.720   2.706   0.199  1.6702  1.8288  1.0220
  416SOL     OW 1246   1.708   0.203   2.675  0.5186  0.0321  0.3445
  416SOL    HW1 1247   1.760   0.134   2.727  3.3138  2.1386  1.5144
  416SOL    HW2 1248   1.748   0.296   2.686 -0.6191  1.4628 -2.9054
  417SOL     OW 1249   0.181   0.390   0.662  0.6065  0.1235  0.3112
  417SOL    HW1 1250   0.281   0.406   0.644  2.1145  0.6458 -2.1318
  417SOL    HW2 1251   0.155   0.427   0.755 -3.0180 -1.2283  0.1397
  418SOL     OW 1252   2.660   0.179   0.646 -0.5967  0.2830 -0.2735
  418SOL    HW1 1253   2.618   0.093   0.670  2.3776  2.1573 -1.6321
  418SOL    HW2 1254   2.589   0.243   0.613 -0.8404  0.6325 -0.8627
  419SOL     OW 1255   0.074   2.846   0.596 -0.1442 -0.1211  0.5873
  419SOL    HW1 1256   0.137   2.880   0.667  0.1566 -0.5143 -0.4025
  419SOL    HW2 1257   3.058   2.894   0.610  0.3675 -2.7432 -1.8476
  420SOL     OW 1258   0.285   1.320   1.789  0.0235  0.1170  0.4307
  420SOL    HW1 1259   0.296   1.424   1.794 -1.7304 -0.5489  2.6812
  420SOL    HW2 1260   0.369   1.265   1.821  1.6438 -0.2390 -0.7376
  421SOL     OW 1261   1.685   2.503   1.046 -0.7253 -0.5381 -0.2156
  421SOL    HW1 1262   1.739   2.592   1.036  2.3857  0.9247  1.0902
  421SOL    HW2 1263   1.645   2.476   0.956 -1.7362  1.4862  1.2418
  422SOL     OW 1264   0.509   0.318   1.508 -0.0485  0.0328 -0.0172
  422SOL    HW1 1265   0.534   0.386   1.584 -0.4976  2.3546  0.4140
  422SOL    HW2 1266   0.409   0.336   1.487 -1.2260 -1.2038  2.2928
  423SOL     OW 1267   0.911   1.288   1.806 -0.4100  0.0990  0.1113
  423SOL    HW1 1268   1.010   1.311   1.793  1.0180  0.7430 -0.3344
  423SOL    HW2 1269   0.906   1.188   1.783  1.5666  1.4441 -0.1188
  424SOL     OW 1270   1.777   2.222   0.294 -0.1936  0.1313  0.5336
  424SOL    HW1 1271   1.831   2.294   0.250 -0.8024  0.6792  1.1937
  424SOL    HW2 1272   1.684   2.227   0.248 -2.0267 -0.5870 -0.3418
  425SOL     OW 1273   2.788   2.931   1.848  0.2231  0.1165  0.1588
  425SOL    HW1 1274   2.876   2.949   1.897  0.8512  1.3873 -1.2913
  425SOL    HW2 1275   2.790   2.866   1.767 -1.0487  0.6787 -3.2194
  426SOL     OW 1276   2.989   2.651   2.844  0.1713  0.4461 -0.4994
  426SOL    HW1 1277   0.003   2.680   2.899  1.6019 -0.2554  3.0713
  426SOL    HW2 1278   2.974   2.550   2.857 -1.2874 -4.1172  0.8409
  427SOL     OW 1279   1.141   0.534   3.027  0.0434  0.0499 -0.2117
  427SOL    HW1 1280   1.179   0.508   0.046  0.0637 -0.3863  2.9449
  427SOL    HW2 1281   1.182   0.483   2.951 -1.5755  0.3891  0.1958
  428SOL     OW 1282   2.699   0.754   1.413 -0.3263  0.1718 -0.0003
  428SOL    HW1 1283   2.772   0.736   1.347 -1.1971 -0.4928  2.4503
  428SOL    HW2 1284   2.686   0.669   1.476 -0.3533 -1.8480 -0.1078
  429SOL     OW 1285   2.036   2.931   1.080 -0.3495  0.2477 -0.0251
  429SOL    HW1 1286   2.000   2.862   1.151 -1.4436 -2.2634  0.4541
  429SOL    HW2 1287   2.010   2.894   0.989  0.5727  1.6421  1.8215
  430SOL     OW 1288   1.091   1.691   2.373  0.3464  0.6187  0.3559
  430SOL    HW1 1289   1.028   1.695   2.455 -0.1474 -0.3515 -2.4540
  430SOL    HW2 1290   1.109   1.593   2.346  1.2886 -2.6227 -0.9458
  431SOL     OW 1291   2.491   1.743   1.249  0.5163 -0.4653 -0.8387
  431SOL    HW1 1292   2.450   1.800   1.331  1.3269  2.0371  0.1364
  431SOL    HW2 1293   2.572   1.793   1.212 -0.9476 -2.3720  3.3514
  432SOL     OW 1294   1.233   2.963   2.351  0.4161  0.0017 -0.4383
  432SOL    HW1 1295   1.265   2.883   2.299  0.5572 -0.5702 -1.8723
  432SOL    HW2 1296   1.279   3.046   2.316 -1.7047 -0.4868  2.0588
  433SOL     OW 1297   1.732   0.374   2.115  0.0451 -0.1992  0.1196
  433SOL    HW1 1298   1.744   0.350   2.214  3.4468 -0.7729 -2.1466
  433SOL    HW2 1299   1.802   0.321   2.069  0.2376  2.3637  0.3009
  434SOL     OW 1300   0.329   2.315   2.208 -0.4852  0.2262 -0.3469
  434SOL    HW1 1301   0.366   2.364   2.291 -0.7557 -0.2777 -0.3787
  434SOL    HW2 1302   0.353   2.219   2.214  0.2817  3.3164 -0.5012
  435SOL     OW 1303   0.349   2.934   0.471  0.2713 -0.0151 -0.2409
  435SOL    HW1 1304   0.289   2.860   0.438  1.6997  1.4641  0.1727
  435SOL    HW2 1305   0.304   2.986   0.547 -0.1287  1.1609  1.8093
  436SOL     OW 1306   0.449   0.800   2.018  0.1681  0.4510  0.3286
  436SOL    HW1 1307   0.388   0.719   2.044  0.2083 -1.1598  1.4316
  436SOL    HW2 1308   0.537   0.777   1.971  0.1693  3.4008 -1.3879
  437SOL     OW 1309   0.654   2.674   2.614  0.2324 -0.5536  0.3017
  437SOL    HW1 1310   0.649   2.756   2.669 -1.6270 -4.9280  0.3689
  437SOL    HW2 1311   0.572   2.624   2.647 -0.4745  3.6732  0.7366
  438SOL     OW 1312   1.091   1.042   0.939 -0.0400 -0.3255  0.5216
  438SOL    HW1 1313   1.025   1.120   0.932  0.3479  0.2949 -0.2792
  438SOL    HW2 1314   1.130   1.016   0.844  1.3750 -3.4223 -3.9110
  439SOL     OW 1315   2.539   1.334   2.549  0.2595  0.0040  0.0804
  439SOL    HW1 1316   2.635   1.336   2.591  0.8832  0.6116  0.7589
  439SOL    HW2 1317   2.460   1.343   2.616 -1.2151  0.9060 -0.1001
  440SOL     OW 1318   3.067   0.474   2.802 -0.2981  0.1994 -0.1521
  440SOL    HW1 1319   0.005   0.506   2.710 -1.6896  0.4238  3.9514
  440SOL    HW2 1320   3.010   0.393   2.813  0.3851  1.9426  0.3067
  441SOL     OW 1321   0.928   2.184   1.372 -0.6416  0.1925 -0.3118
  441SOL    HW1 1322   0.853   2.142   1.317  1.2190  0.0646  0.1558
  441SOL    HW2 1323   0.945   2.128   1.459  2.2125 -0.3650  0.2308
  442SOL     OW 1324   1.612   1.458   0.868 -0.1193  0.4399 -0.1043
  442SOL    HW1 1325   1.579   1.397   0.943  1.2399  0.1362  2.6925
  442SOL    HW2 1326   1.676   1.415   0.799  1.6863 -1.1233  2.2409
  443SOL     OW 1327   2.249   2.232   2.800  0.4533 -0.1873  0.6557
  443SOL    HW1 1328   2.286   2.198   2.889 -1.2988  2.1371 -3.4959
  443SOL    HW2 1329   2.188   2.313   2.816  1.9706  1.1276 -0.9955
  444SOL     OW 1330   2.001   1.504   2.983 -0.6575  0.5439  0.3372
  444SOL    HW1 1331   1.964   1.552   2.906  0.2459 -0.6567  2.0050
  444SOL    HW2 1332   1.967   1.535   0.006 -2.0267  0.3063  0.9406
  445SOL     OW 1333   2.909   2.553   1.829  0.1076  0.1863  0.0072
  445SOL    HW1 1334   2.909   2.618   1.905 -2.6433 -0.3252 -0.7735
  445SOL    HW2 1335   2.818   2.541   1.787  1.5659 -0.1602  0.3923
  446SOL     OW 1336   1.095   0.873   1.741 -0.4797  0.1238 -0.1021
  446SOL    HW1 1337   1.173   0.837   1.801  3.1405  1.7691  2.7387
  446SOL    HW2 1338   1.020   0.808   1.737 -0.6809  0.0614 -4.1501
  447SOL     OW 1339   0.883   0.866   0.954 -0.3948  0.6270 -0.0559
  447SOL    HW1 1340   0.899   0.779   0.904 -1.0821 -1.9529 -0.2228
  447SOL    HW2 1341   0.960   0.928   0.960  0.5184 -0.7445  3.0579
  448SOL     OW 1342   1.125   1.156   2.571 -0.3733 -0.5847  0.5925
  448SOL    HW1 1343   1.044   1.126   2.521 -4.1295 -0.6770 -1.4131
  448SOL    HW2 1344   1.114   1.256   2.595 -0.1510  2.6164 -0.9953
  449SOL     OW 1345   2.991   1.961   2.370  0.4613 -0.3757  0.4512
  449SOL    HW1 1346   0.009   1.920   2.396 -0.6117 -0.9780  0.2231
  449SOL    HW2 1347   2.972   1.963   2.272  1.3273  1.0723 -0.8087
  450SOL     OW 1348   2.224   1.572   2.095  0.3253 -0.3509 -0.1165
  450SOL    HW1 1349   2.283   1.540   2.019  2.6285  0.2822  0.8287
  450SOL    HW2 1350   2.220   1.672   2.105 -0.8374 -4.2009 -1.8730
  451SOL     OW 1351   2.550   1.521   1.569  0.0993 -0.0587  0.0337
  451SOL    HW1 1352   2.567   1.614   1.605 -0.6219 -1.1140 -0.6184
  451SOL    HW2 1353   2.531   1.516   1.469  0.9026  0.1488 -1.5052
  452SOL     OW 1354   0.460   1.028   1.507  0.5765 -0.3558  0.2044
  452SOL    HW1 1355   0.404   0.943   1.495 -2.2310 -3.3770 -0.5849
  452SOL    HW2 1356   0.536   1.016   1.435  2.1095 -1.2584 -2.4201
  453SOL     OW 1357   0.456   1.323   0.528 -0.2704 -0.0158  0.3502
  453SOL    HW1 1358   0.486   1.384   0.452  0.0552  2.1346 -1.2570
  453SOL    HW2 1359   0.367   1.281   0.514  2.3642 -0.6399  1.9624
  454SOL     OW 1360   0.923   1.768   0.200 -0.3754 -0.5960 -0.9454
  454SOL    HW1 1361   0.961   1.762   0.104 -1.4983  0.2313  0.8959
  454SOL    HW2 1362   0.865   1.693   0.224  1.6106  2.6101 -0.6643
  455SOL     OW 1363   1.660   0.552   1.136 -0.3807  0.7522  0.2893
  455SOL    HW1 1364   1.695   0.579   1.234  0.1402  0.8608 -0.9123
  455SOL    HW2 1365   1.735   0.528   1.070  0.1350 -2.1554  1.5324
  456SOL     OW 1366   1.786   2.728   0.908  0.1239  0.1396  0.1561
  456SOL    HW1 1367   1.765   2.689   0.814 -0.3302 -0.3377 -1.8684
  456SOL    HW2 1368   1.749   2.820   0.926 -1.2012  1.9027  0.6031
  457SOL     OW 1369   2.093   0.486   2.582  0.4462 -0.1081 -0.4266
  457SOL    HW1 1370   2.182   0.522   2.616  1.6748  0.2378  0.8561
  457SOL    HW2 1371   2.109   0.420   2.507 -2.1485 -1.0591 -3.2206
  458SOL     OW 1372   2.589   0.698   2.582  0.0461  0.5973 -0.2964
  458SOL    HW1 1373   2.608   0.792   2.619 -0.2588 -0.3571  1.7694
  458SOL    HW2 1374   2.648   0.621   2.618  1.0595 -3.7727  1.6235
  459SOL     OW 1375   2.524   1.586   2.123 -0.3007  0.4250 -0.1546
  459SOL    HW1 1376   2.530   1.690   2.121  0.9034  1.3353 -0.3948
  459SOL    HW2 1377   2.453   1.552   2.187  0.2198  3.4469 -0.5115
  460SOL     OW 1378   0.522   0.729   2.996  0.3544  0.5765 -0.1677
  460SOL    HW1 1379   0.598   0.788   2.970 -0.5303 -2.9204  0.3907
  460SOL    HW2 1380   0.494   0.669   2.920 -0.4934 -0.0941 -0.4354
  461SOL     OW 1381   0.126   2.241   0.201 -0.2023  0.2368  0.2124
  461SOL    HW1 1382   0.208   2.299   0.193 -1.2572  0.4788  0.0761
  461SOL    HW2 1383   0.138   2.167   0.272 -0.4186  1.0811  0.7113
  462SOL     OW 1384   0.230   2.458   1.576  0.3600  0.0598 -0.3832
  462SOL    HW1 1385   0.126   2.433   1.580 -1.6544 -1.8098  0.7212
  462SOL    HW2 1386   0.284   2.410   1.654  2.3039 -1.6145  1.1033
  463SOL     OW 1387   1.621   2.043   1.892 -0.2782  0.2454  0.3276
  463SOL    HW1 1388   1.678   2.053   1.806  1.4661 -0.1608 -1.3600
  463SOL    HW2 1389   1.653   2.111   1.962  1.1241  1.0735 -0.1941
  464SOL     OW 1390   2.753   2.654   0.842  0.1944  0.3575  0.2233
  464SOL    HW1 1391   2.740   2.748   0.811 -0.3406 -0.3603  0.7868
  464SOL    HW2 1392   2.852   2.635   0.869 -0.8455  3.0114 -0.3936
  465SOL     OW 1393   0.262   0.125   1.411 -0.4502  0.0183  0.1217
  465SOL    HW1 1394   0.227   0.062   1.479 -0.4938  0.1594 -0.8780
  465SOL    HW2 1395   0.256   0.223   1.441 -0.1757 -0.7358 -0.6058
  466SOL     OW 1396   1.195   2.364   2.409  0.4757 -0.3853 -0.6914
  466SOL    HW1 1397   1.283   2.416   2.419  1.0835 -1.2425 -0.8068
  466SOL    HW2 1398   1.207   2.279   2.356 -2.2071  4.1756  0.1696
  467SOL     OW 1399   2.929   1.794   0.635 -0.8383 -0.6492  0.5388
  467SOL    HW1 1400   2.905   1.890   0.664 -1.4592  0.7101  0.4426
  467SOL    HW2 1401   2.859   1.721   0.659 -0.0695 -1.4782  1.4395
  468SOL     OW 1402   2.114   1.812   2.981  0.4227 -0.4253  0.1962
  468SOL    HW1 1403   2.046   1.762   2.927  4.2407  1.7693  2.4590
  468SOL    HW2 1404   2.132   1.906   2.941 -0.1912  2.0435 -0.2371
  469SOL     OW 1405   1.369   2.156   0.640 -0.1927 -0.1632  0.5568
  469SOL    HW1 1406   1.398   2.217   0.562 -0.7732  1.3102 -0.9474
  469SOL    HW2 1407   1.423   2.072   0.638  1.1881  3.3172  1.1675
  470SOL     OW 1408   1.761   1.260   1.328 -0.0892 -0.3080  0.2347
  470SOL    HW1 1409   1.700   1.178   1.328 -2.2447 -1.2905  2.1033
  470SOL    HW2 1410   1.851   1.236   1.375  0.6360 -1.8256  0.4509
  471SOL     OW 1411   0.329   2.081   0.112 -0.3233  0.4682 -0.5875
  471SOL    HW1 1412   0.394   2.117   0.038 -0.9699  2.9256 -0.6900
  471SOL    HW2 1413   0.237   2.121   0.100  0.7842 -0.2912  1.4783
  472SOL     OW 1414   2.439   1.860   2.698  0.0705 -0.4075  0.1411
  472SOL    HW1 1415   2.525   1.912   2.705  1.9271 -1.2009 -0.5118
  472SOL    HW2 1416   2.446   1.781   2.634 -0.3458  0.5653  1.3052
  473SOL     OW 1417   1.173   2.143   0.844 -0.4103  0.1829 -0.2978
  473SOL    HW1 1418   1.246   2.141   0.769  0.1303 -0.4599 -1.4065
  473SOL    HW2 1419   1.121   2.226   0.829  0.8339 -1.5909 -0.0812
  474SOL     OW 1420   3.035   0.426   1.086 -0.3264 -0.2371  0.0231
  474SOL    HW1 1421   3.021   0.352   1.153 -1.0230  3.5291 -1.9160
  474SOL    HW2 1422   2.957   0.433   1.021  0.5257  1.8731  0.3079
  475SOL     OW 1423   2.292   2.866   1.545 -0.0251  0.1043  0.3941
  475SOL    HW1 1424   2.353   2.856   1.628  0.4329  0.4293  2.5976
  475SOL    HW2 1425   2.290   2.784   1.481  2.4052 -2.3426  0.6699
  476SOL     OW 1426   0.452   0.476   0.628 -0.2606  0.2198  0.6807
  476SOL    HW1 1427   0.511   0.478   0.541  1.4582  3.7397  1.0369
  476SOL    HW2 1428   0.513   0.465   0.706 -0.4487  0.5980 -3.0571
  477SOL     OW 1429   0.946   1.976   0.958 -0.1322  0.1614 -0.2094
  477SOL    HW1 1430   0.977   1.915   1.038  0.7700 -1.2618  3.6093
  477SOL    HW2 1431   1.020   2.006   0.893 -1.2914 -1.9208  2.7152
  478SOL     OW 1432   1.227   2.281   2.768 -0.0687 -0.2634  0.3443
  478SOL    HW1 1433   1.285   2.221   2.705  0.8364  0.9643  0.6276
  478SOL    HW2 1434   1.258   2.376   2.756 -1.5952 -2.1619  1.0601
  479SOL     OW 1435   2.961   1.118   2.029 -0.3656 -0.0780  0.9496
  479SOL    HW1 1436   2.869   1.165   2.027 -1.3784 -0.8599  0.2578
  479SOL    HW2 1437   2.961   1.049   1.950  1.1814 -1.0174 -2.6493
  480SOL     OW 1438   3.003   2.375   2.906 -0.1889 -0.0541 -0.2473
  480SOL    HW1 1439   3.024   2.414   3.002 -2.7912  1.6425 -0.3795
  480SOL    HW2 1440   3.017   2.273   2.910  1.9193 -1.4957 -0.0468
  481SOL     OW 1441   1.525   0.019   2.020 -0.2019  0.0983  0.3699
  481SOL    HW1 1442   1.609   0.019   2.075  1.1280  1.4384 -0.5640
  481SOL    HW2 1443   1.527   0.108   1.967  0.7410 -1.1463  0.6001
  482SOL     OW 1444   1.617   2.195   2.848 -0.2421 -0.0418 -0.0743
  482SOL    HW1 1445   1.709   2.240   2.868  1.0109 -2.3528  0.5858
  482SOL    HW2 1446   1.625   2.118   2.780  2.0498 -1.5663 -4.3964
  483SOL     OW 1447   0.888   2.589   2.688 -0.1445  0.3916 -0.0931
  483SOL    HW1 1448   0.798   2.617   2.649  1.1601  1.4443 -1.8755
  483SOL    HW2 1449   0.924   2.506   2.640 -1.0332  4.4515  0.0268
  484SOL     OW 1450   0.292   2.560   1.300  0.6255 -0.3575 -0.0142
  484SOL    HW1 1451   0.233   2.539   1.382 -3.0515 -0.5796  0.0262
  484SOL    HW2 1452   0.370   2.615   1.331 -0.6377  0.5434 -0.4889
  485SOL     OW 1453   2.191   0.668   0.588  0.0719 -0.6193  0.0603
  485SOL    HW1 1454   2.119   0.722   0.536 -0.6608 -0.0146  0.1215
  485SOL    HW2 1455   2.245   0.734   0.648 -0.1394 -1.4770  1.1495
  486SOL     OW 1456   2.405   2.817   2.383 -0.3416 -0.1666 -0.3219
  486SOL    HW1 1457   2.404   2.910   2.337 -2.8244 -0.4023  2.6355
  486SOL    HW2 1458   2.367   2.817   2.473  2.6649  0.6351 -1.5536
  487SOL     OW 1459   1.146   0.917   0.669  0.5497 -0.0396  0.0352
  487SOL    HW1 1460   1.098   0.997   0.629 -1.4235  1.3471 -2.4339
  487SOL    HW2 1461   1.101   0.830   0.645  0.2404  2.0768 -0.3806
  488SOL     OW 1462   2.556   3.042   2.762 -0.8256 -0.4592  0.0173
  488SOL    HW1 1463   2.529   2.946   2.780  0.8475  2.4747  0.5608
  488SOL    HW2 1464   2.599   0.013   2.843 -2.8840 -0.6038 -2.1626
  489SOL     OW 1465   1.901   0.151   0.382  0.0010 -0.5452  0.1379
  489SOL    HW1 1466   1.983   0.132   0.329  0.1992 -1.2934  0.9785
  489SOL    HW2 1467   1.907   0.231   0.446  0.6869 -0.1950  1.3778
  490SOL     OW 1468   1.686   0.419   2.924 -0.4114  0.2300  0.3374
  490SOL    HW1 1469   1.715   0.445   3.019 -1.6530 -1.1783  0.4891
  490SOL    HW2 1470   1.766   0.413   2.866  0.3289 -0.3401  1.9628
  491SOL     OW 1471   0.664   0.120   1.176 -0.8129  0.2954  0.3217
  491SOL    HW1 1472   0.727   0.070   1.239 -2.0940 -0.0826  1.6839
  491SOL    HW2 1473   0.657   0.072   1.088 -0.2885 -4.0334 -0.0512
  492SOL     OW 1474   1.608   0.019   0.694 -0.4598  0.4086 -0.3286
  492SOL    HW1 1475   1.681   0.056   0.759  2.4560  2.9490 -0.8896
  492SOL    HW2 1476   1.641   3.001   0.649 -0.0041 -0.8398 -2.1653
  493SOL     OW 1477   1.007   2.198   2.900 -0.0674  0.3332  0.2710
  493SOL    HW1 1478   0.955   2.125   2.847  0.2110  0.7914 -1.4606
  493SOL    HW2 1479   1.088   2.240   2.848  0.4312  1.8898  1.0536
  494SOL     OW 1480   0.632   0.950   1.039 -0.1094  0.2892 -0.1966
  494SOL    HW1 1481   0.569   0.905   0.969 -0.9312 -0.7172 -3.0336
  494SOL    HW2 1482   0.726   0.935   1.000 -1.3336 -1.8964 -1.8307
  495SOL     OW 1483   2.810   0.567   1.582 -0.3179 -0.1442 -0.3257
  495SOL    HW1 1484   2.907   0.593   1.594 -1.1189  0.2672  0.0159
  495SOL    HW2 1485   2.749   0.611   1.647 -0.0527 -2.1298 -1.3030
  496SOL     OW 1486   2.294   2.647   2.169 -0.0591 -0.4618 -0.5734
  496SOL    HW1 1487   2.316   2.718   2.239  0.0605 -2.0548 -0.2934
  496SOL    HW2 1488   2.274   2.557   2.211  3.2251  1.4087  0.3466
  497SOL     OW 1489   1.719   1.081   2.862  0.0302 -0.7811  0.3468
  497SOL    HW1 1490   1.807   1.121   2.826 -0.6103 -0.2256 -0.4101
  497SOL    HW2 1491   1.661   1.151   2.909 -1.6020  1.0202  1.1121
  498SOL     OW 1492   0.880   2.082   0.587 -0.3537 -0.4939 -0.3362
  498SOL    HW1 1493   0.948   2.007   0.609  0.0446  0.3716  1.9376
  498SOL    HW2 1494   0.788   2.042   0.604 -1.0836  1.3681  1.5626
  499SOL     OW 1495   0.325   1.597   0.917 -0.2597  0.4292  0.0642
  499SOL    HW1 1496   0.244   1.638   0.867 -3.6864 -1.8195 -0.2557
  499SOL    HW2 1497   0.401   1.571   0.852 -0.4369 -0.5864  0.4924
  500SOL     OW 1498   1.230   2.641   0.352 -0.1259 -0.0580  0.3560
  500SOL    HW1 1499   1.200   2.696   0.271  4.8670 -0.4629  4.5029
  500SOL    HW2 1500   1.266   2.703   0.428 -0.5275 -1.0717 -0.3353
  501SOL     OW 1501   1.864   2.788   0.603 -0.1181  0.1885  0.1500
  501SOL    HW1 1502   1.915   2.720   0.551 -2.2855  0.2220  0.6252
  501SOL    HW2 1503   1.774   2.816   0.562  0.9561  1.1020 -1.8202
  502SOL     OW 1504   0.164   0.551   1.244  0.2651  0.3410 -0.8149
  502SOL    HW1 1505   0.106   0.500   1.173 -0.1228  0.9293  0.9904
  502SOL    HW2 1506   0.237   0.604   1.196  2.5534 -0.1971 -3.3363
  503SOL     OW 1507   2.052   2.960   1.651  0.2007 -0.3695 -0.0606
  503SOL    HW1 1508   2.046   3.061   1.658 -0.1101  1.0994 -1.0162
  503SOL    HW2 1509   2.144   2.921   1.628  1.1725 -0.2847  1.9542
  504SOL     OW 1510   2.067   1.052   1.836  0.3684 -0.1833 -0.3056
  504SOL    HW1 1511   2.047   1.020   1.743 -1.4045 -0.3811  2.2563
  504SOL    HW2 1512   1.992   1.016   1.894 -2.7396  1.6456  0.9252
  505SOL     OW 1513   1.376   0.092   2.274 -0.1021  0.1720 -0.2013
  505SOL    HW1 1514   1.444   0.140   2.334 -1.8386  0.5375  1.2568
  505SOL    HW2 1515   1.416   0.080   2.181  1.8135  0.9577  1.8215
  506SOL     OW 1516   0.524   0.513   1.700  0.0654 -0.0294  0.3423
  506SOL    HW1 1517   0.508   0.457   1.784 -1.1873  0.0564  1.9272
  506SOL    HW2 1518   0.549   0.612   1.723  0.9532  0.5053  1.1767
  507SOL     OW 1519   1.765   0.452   0.118 -0.1535 -0.6386  0.5335
  507SOL    HW1 1520   1.723   0.451   0.214 -0.9834  0.4530  2.1259
  507SOL    HW2 1521   1.837   0.383   0.105  1.0028  0.4836  0.0194
  508SOL     OW 1522   2.130   0.527   2.093  0.4103  0.0962 -0.3727
  508SOL    HW1 1523   2.053   0.575   2.136 -0.8819  0.4446 -2.9926
  508SOL    HW2 1524   2.137   0.551   1.993  1.4988  1.1894 -1.6320
  509SOL     OW 1525   0.781   1.673   2.443  0.4861  0.2773 -0.5814
  509SOL    HW1 1526   0.684   1.638   2.452  2.1947  0.5540  1.2120
  509SOL    HW2 1527   0.791   1.740   2.371 -2.7001  0.2009  1.2466
  510SOL     OW 1528   2.897   0.717   0.568  0.1766 -0.4696 -0.4769
  510SOL    HW1 1529   2.912   0.773   0.483 -1.9092 -1.1242 -0.0349
  510SOL    HW2 1530   2.979   0.720   0.625 -2.2296  1.7336 -0.6695
  511SOL     OW 1531   1.662   1.294   1.683 -0.0292 -0.1478 -0.0228
  511SOL    HW1 1532   1.634   1.276   1.781 -1.4240  0.3973 -4.1249
  511SOL    HW2 1533   1.751   1.339   1.673 -1.1031 -2.0625  0.1810
  512SOL     OW 1534   0.566   1.725   0.545 -0.1880 -0.0765 -0.0806
  512SOL    HW1 1535   0.644   1.683   0.490 -1.4753  0.1146 -1.0506
  512SOL    HW2 1536   0.582   1.824   0.561 -1.6165 -1.2991 -0.6930
  513SOL     OW 1537   0.464   2.404   1.020 -0.4755  0.5930  0.0670
  513SOL    HW1 1538   0.477   2.502   1.007 -1.2402 -1.2046 -0.1919
  513SOL    HW2 1539   0.522   2.364   1.095 -0.8352  1.4266  0.2725
  514SOL     OW 1540   0.456   2.086   0.364  0.3269 -0.0420  0.0378
  514SOL    HW1 1541   0.395   2.063   0.284  1.0080  0.2425  2.0328
  514SOL    HW2 1542   0.530   2.150   0.345  0.2858  1.8525  1.9038
  515SOL     OW 1543   3.069   2.683   0.193  0.4816  0.4165  0.7765
  515SOL    HW1 1544   0.080   2.707   0.248 -1.7646  2.7491 -2.1670
  515SOL    HW2 1545   3.006   2.767   0.192  1.8592 -0.4033  0.2133
  516SOL     OW 1546   1.995   0.166   1.109 -0.2837 -0.6420  0.2857
  516SOL    HW1 1547   1.896   0.189   1.122 -0.1930 -0.7847 -2.8134
  516SOL    HW2 1548   2.014   0.066   1.092  0.7359 -0.9946 -0.7730
  517SOL     OW 1549   1.571   1.623   0.401  0.5494 -0.0451  0.2210
  517SOL    HW1 1550   1.495   1.689   0.411 -1.7427  1.8071  1.1419
  517SOL    HW2 1551   1.570   1.554   0.478 -1.6531  0.4265 -1.8269
  518SOL     OW 1552   1.309   0.036   0.762 -0.6336  0.0233  0.1228
  518SOL    HW1 1553   1.263   0.124   0.788  2.7896  0.0861 -0.6290
  518SOL    HW2 1554   1.405   0.051   0.732  0.9480 -0.4826  0.7899
  519SOL     OW 1555   2.752   2.344   0.381  0.3414 -0.7387  0.2081
  519SOL    HW1 1556   2.845   2.317   0.422  3.2203 -1.1877 -1.0859
  519SOL    HW2 1557   2.753   2.445   0.371 -1.8323 -1.2431  0.9818
  520SOL     OW 1558   1.757   2.228   2.066 -0.0177  0.0783 -0.1983
  520SOL    HW1 1559   1.860   2.237   2.054 -2.9816  0.7374 -1.3121
  520SOL    HW2 1560   1.727   2.315   2.107 -0.7279  1.0429  1.6008
  521SOL     OW 1561   1.311   2.903   2.004  0.1130  0.3962  0.3994
  521SOL    HW1 1562   1.316   2.828   2.071 -0.5955 -0.2420  2.3441
  521SOL    HW2 1563   1.395   2.964   2.004  1.9432  3.7203 -0.6013
  522SOL     OW 1564   0.072   2.733   2.027  0.0343  0.0793  0.2007
  522SOL    HW1 1565   0.090   2.679   1.942  0.4936  1.7134  0.6544
  522SOL    HW2 1566   0.004   2.688   2.082 -3.2080  0.9686  1.8581
  523SOL     OW 1567   0.894   2.132   1.675 -1.0745 -0.5160 -0.6648
  523SOL    HW1 1568   0.893   2.207   1.745 -0.3239  0.7670 -0.9065
  523SOL    HW2 1569   0.987   2.107   1.638  1.5020 -1.0410 -3.5145
  524SOL     OW 1570   2.309   2.272   0.251 -0.0697 -0.0232 -0.0990
  524SOL    HW1 1571   2.399   2.241   0.303  1.1345  1.8882 -0.5375
  524SOL    HW2 1572   2.282   2.195   0.189  2.1154  4.7661  2.4686
  525SOL     OW 1573   2.796   0.450   2.965 -0.2532 -0.5092 -0.0396
  525SOL    HW1 1574   2.799   0.487   3.060 -0.1804 -1.4861 -1.0376
  525SOL    HW2 1575   2.861   0.373   2.956  0.5996 -0.7194  0.0549
  526SOL     OW 1576   0.409   2.827   0.792  0.1907 -0.2421  0.6415
  526SOL    HW1 1577   0.344   2.901   0.807  2.5351  0.0780 -0.4014
  526SOL    HW2 1578   0.492   2.862   0.747 -2.0267  0.6226  2.1032
  527SOL     OW 1579   2.819   1.286   0.583 -0.2179  0.0525  0.5769
  527SOL    HW1 1580   2.881   1.202   0.585  0.4930 -0.5484  2.3004
  527SOL    HW2 1581   2.740   1.264   0.637  0.6558  0.6626 -0.3560
  528SOL     OW 1582   0.799   0.741   2.276  0.0717  0.5709  0.3386
  528SOL    HW1 1583   0.764   0.663   2.332  1.3094 -0.2681  0.4113
  528SOL    HW2 1584   0.732   0.812   2.250  1.7590 -0.7972  2.5330
  529SOL     OW 1585   0.598   1.392   3.059  0.0707 -0.2720 -0.5522
  529SOL    HW1 1586   0.640   1.449   0.065  1.3742  1.1483  1.6956
  529SOL    HW2 1587   0.506   1.429   3.034  0.5656  0.5920 -0.2745
  530SOL     OW 1588   1.261   0.942   2.132  0.2810 -0.7436  0.0480
  530SOL    HW1 1589   1.343   0.983   2.171 -1.0185  1.6786 -0.8768
  530SOL    HW2 1590   1.254   0.843   2.160  2.2433 -4.9531  0.9245
  531SOL     OW 1591   1.133   2.386   0.000  0.0364  0.6625 -0.4934
  531SOL    HW1 1592   1.100   2.310   3.017  1.9609 -0.2115 -1.2586
  531SOL    HW2 1593   1.137   2.349   0.097  1.6192 -1.2644  0.4063
  532SOL     OW 1594   2.206   1.202   2.546  0.4155 -0.2833 -0.0372
  532SOL    HW1 1595   2.196   1.138   2.624 -1.5002  1.2759 -0.7647
  532SOL    HW2 1596   2.256   1.284   2.587 -0.8272  2.1098  0.7736
  533SOL     OW 1597   3.046   0.056   1.751  0.0785  0.5633 -0.0812
  533SOL    HW1 1598   3.041   3.070   1.841 -1.1322  0.7923  0.6786
  533SOL    HW2 1599   2.998   0.148   1.752  0.7536  0.0293  0.5664
  534SOL     OW 1600   2.388   0.195   0.389  0.3976 -0.3876 -0.0008
  534SOL    HW1 1601   2.391   0.242   0.298 -1.0528 -0.3893  3.8538
  534SOL    HW2 1602   2.416   0.270   0.454 -0.6082  4.0679  1.0538
  535SOL     OW 1603   0.659   0.002   2.978  0.0401 -0.3694 -0.0085
  535SOL    HW1 1604   0.752   0.037   2.954 -0.9152 -0.7066  2.1145
  535SOL    HW2 1605   0.600   0.080   3.009  0.7342 -0.3428 -0.2166
  536SOL     OW 1606   0.827   1.776   1.507 -0.2745 -0.1739 -0.3829
  536SOL    HW1 1607   0.763   1.851   1.537 -0.2490 -0.0725  1.6421
  536SOL    HW2 1608   0.919   1.806   1.476  0.3975 -1.9963  1.9155
  537SOL     OW 1609   3.044   2.445   1.609 -0.7673  0.2244 -0.0044
  537SOL    HW1 1610   2.985   2.486   1.535 -0.4267 -0.7803 -0.4078
  537SOL    HW2 1611   3.013   2.482   1.697 -0.0912 -1.8501 -4.0117
  538SOL     OW 1612   0.128   2.034   0.391  0.3386  0.0513  0.5161
  538SOL    HW1 1613   0.167   2.042   0.483 -1.6236 -2.0376  0.6309
  538SOL    HW2 1614   0.105   1.937   0.370 -1.8618 -0.6486 -1.5276
  539SOL     OW 1615   2.409   1.075   2.422 -0.2668 -0.0466 -0.1616
  539SOL    HW1 1616   2.326   1.125   2.444  1.8269 -3.1726 -3.2431
  539SOL    HW2 1617   2.482   1.128   2.372 -0.8254 -0.2211 -0.4129
  540SOL     OW 1618   1.816   0.903   3.048  0.1991  0.5571  0.0251
  540SOL    HW1 1619   1.792   0.979   2.983 -0.2445 -0.0617  1.2919
  540SOL    HW2 1620   1.784   0.906   0.074  1.4018  0.5643 -0.9017
  541SOL     OW 1621   0.681   0.518   2.424 -0.0109  0.0735 -0.3009
  541SOL    HW1 1622   0.731   0.441   2.374 -0.2079  0.9305  0.4419
  541SOL    HW2 1623   0.578   0.520   2.414 -1.3764  0.7126  0.3806
  542SOL     OW 1624   1.474   2.542   2.061 -0.5113  0.1148  0.3981
  542SOL    HW1 1625   1.433   2.605   2.132  1.4721 -0.2817 -2.1674
  542SOL    HW2 1626   1.560   2.580   2.020  4.1581  2.4302 -1.4899
  543SOL     OW 1627   0.994   2.669   0.518 -0.1216 -0.2149  0.5765
  543SOL    HW1 1628   1.032   2.623   0.433 -0.1212  1.1885 -0.5308
  543SOL    HW2 1629   0.891   2.654   0.520 -0.6435 -0.0735 -1.5916
  544SOL     OW 1630   2.797   1.888   2.542 -0.0185  0.5306 -0.3188
  544SOL    HW1 1631   2.742   1.810   2.509 -0.6674 -0.2193 -0.0072
  544SOL    HW2 1632   2.860   1.911   2.468 -5.7375 -1.4205  2.7930
  545SOL     OW 1633   1.426   1.821   1.592  0.2718  0.7047  0.5206
  545SOL    HW1 1634   1.432   1.858   1.687  0.2665 -1.5261 -0.8512
  545SOL    HW2 1635   1.343   1.762   1.581  0.9696 -0.1436 -0.4547
  546SOL     OW 1636   0.147   0.262   2.492  0.4703 -0.3659  0.0103
  546SOL    HW1 1637   0.204   0.265   2.403  0.9390 -0.7584 -0.2532
  546SOL    HW2 1638   0.204   0.218   2.566 -2.4196 -2.5512 -1.0220
  547SOL     OW 1639   0.989   0.207   0.633  0.5539 -0.0005  0.0957
  547SOL    HW1 1640   0.949   0.258   0.554 -2.0218 -2.0427 -0.6537
  547SOL    HW2 1641   1.089   0.198   0.620 -4.2143  0.0556  0.4795
  548SOL     OW 1642   1.458   1.913   2.981 -0.3402 -0.3282 -0.4593
  548SOL    HW1 1643   1.383   1.850   3.009 -1.6099 -1.0787  1.6591
  548SOL    HW2 1644   1.427   2.009   2.975  1.7909  0.3113 -0.9043
  549SOL     OW 1645   2.349   0.901   0.221 -0.1737 -0.0037  0.2403
  549SOL    HW1 1646   2.284   0.977   0.240 -0.6551  0.0496 -1.4326
  549SOL    HW2 1647   2.419   0.895   0.294 -1.9441  0.9716  0.1409
  550SOL     OW 1648   2.687   2.255   0.880  0.2319 -0.2784  0.2579
  550SOL    HW1 1649   2.646   2.298   0.795 -0.8949  4.8420  2.1401
  550SOL    HW2 1650   2.779   2.299   0.883 -0.1327 -2.2233 -1.7455
  551SOL     OW 1651   0.972   0.397   1.406 -0.3995  0.2851  0.5246
  551SOL    HW1 1652   1.003   0.303   1.390 -0.0982  0.6147 -4.3237
  551SOL    HW2 1653   0.874   0.399   1.384  0.3318 -1.3311 -2.0063
  552SOL     OW 1654   2.952   1.656   2.804 -0.3969  0.1590  0.2217
  552SOL    HW1 1655   3.028   1.623   2.743  0.4334 -0.2594 -0.4951
  552SOL    HW2 1656   2.982   1.637   2.901 -2.4302  0.2640 -1.2657
  553SOL     OW 1657   2.793   2.572   0.585  0.2283  0.4114 -0.4800
  553SOL    HW1 1658   2.768   2.654   0.532 -0.6548  0.4869  0.5540
  553SOL    HW2 1659   2.772   2.593   0.684 -3.6547  2.0041 -0.6573
  554SOL     OW 1660   2.004   1.242   1.474  0.0613 -0.0533 -0.4397
  554SOL    HW1 1661   2.093   1.263   1.436 -0.7470  0.7776  3.3680
  554SOL    HW2 1662   1.967   1.332   1.511  2.8933  0.8032  0.3259
  555SOL     OW 1663   1.324   2.123   2.077  0.0020  0.0354 -0.2730
  555SOL    HW1 1664   1.319   2.045   2.016  1.3069  0.5005  1.5421
  555SOL    HW2 1665   1.416   2.118   2.121  2.0380 -0.6944  0.8713
  556SOL     OW 1666   1.186   1.333   1.754  0.5493 -0.2837 -0.3453
  556SOL    HW1 1667   1.228   1.390   1.829 -0.0011 -0.7644  2.3179
  556SOL    HW2 1668   1.226   1.242   1.743 -1.0210  0.5284  2.5098
  557SOL     OW 1669   1.357   0.029   1.412  0.2848 -0.6929 -0.0260
  557SOL    HW1 1670   1.296   3.017   1.422  0.0325 -0.5153  1.4963
  557SOL    HW2 1671   1.374   0.073   1.508  1.1832  0.0869  2.5833
  558SOL     OW 1672   0.928   2.952   2.015 -0.0789 -0.3070  0.3380
  558SOL    HW1 1673   0.827   2.939   2.001 -1.7768 -1.8166 -1.5466
  558SOL    HW2 1674   0.976   2.917   1.931 -0.6312  0.0051 -0.3150
  559SOL     OW 1675   1.742   2.706   0.238  0.1554 -0.4448  0.4350
  559SOL    HW1 1676   1.648   2.684   0.211 -0.0721  0.9772  0.7645
  559SOL    HW2 1677   1.775   2.646   0.316 -0.2804  0.7701 -2.3194
  560SOL     OW 1678   1.524   2.219   0.201  0.5863  0.0052  0.0482
  560SOL    HW1 1679   1.524   2.120   0.231  1.7739 -0.1918 -0.2789
  560SOL    HW2 1680   1.492   2.222   0.106 -2.1246  1.0817 -0.8158
  561SOL     OW 1681   1.499   0.180   0.491 -0.3501 -0.2828 -0.2450
  561SOL    HW1 1682   1.543   0.104   0.546 -0.2460 -1.2902 -0.1005
  561SOL    HW2 1683   1.540   0.176   0.397 -2.2147  1.7853 -1.7009
  562SOL     OW 1684   0.438   1.028   1.884  0.3095 -0.1122 -0.3686
  562SOL    HW1 1685   0.518   1.011   1.824  0.8243 -0.0188  0.2131
  562SOL    HW2 1686   0.414   0.949   1.948 -2.7439 -0.0569  3.5575
  563SOL     OW 1687   1.509   2.364   2.656 -0.2678 -0.2037  0.3263
  563SOL    HW1 1688   1.458   2.294   2.599 -0.1915  2.2890  1.3237
  563SOL    HW2 1689   1.546   2.314   2.737 -0.6233 -0.0347 -1.6121
  564SOL     OW 1690   2.957   0.947   0.857 -0.0534  0.1495  0.0558
  564SOL    HW1 1691   2.963   1.028   0.917  1.5937 -2.3479 -0.9586
  564SOL    HW2 1692   3.000   0.870   0.901 -1.0307  2.0715  1.5011
  565SOL     OW 1693   0.831   1.212   0.128  0.2086  0.8953  0.6271
  565SOL    HW1 1694   0.763   1.260   0.072  1.0027  2.1991  1.2169
  565SOL    HW2 1695   0.920   1.204   0.078  1.1341  0.3602  1.0597
  566SOL     OW 1696   2.245   2.636   2.968  0.3337  0.2402 -0.0709
  566SOL    HW1 1697   2.280   2.562   3.024 -1.8147  0.6869 -2.5263
  566SOL    HW2 1698   2.316   2.691   2.921 -1.0352  0.4642  2.0571
  567SOL     OW 1699   1.423   1.289   1.552 -0.1346  0.2702  0.1042
  567SOL    HW1 1700   1.504   1.321   1.601  0.9213  0.3358 -0.3955
  567SOL    HW2 1701   1.367   1.214   1.594  2.0011  0.8522 -1.1504
  568SOL     OW 1702   1.427   1.226   2.746 -0.3104  0.7741 -0.0639
  568SOL    HW1 1703   1.411   1.130   2.778  1.0968 -0.9366  2.1224
  568SOL    HW2 1704   1.514   1.235   2.695 -2.0963  0.3714 -0.7392
  569SOL     OW 1705   1.875   1.830   0.476  0.0919 -0.1069 -0.4012
  569SOL    HW1 1706   1.936   1.860   0.552 -0.9401 -0.7371  0.8375
  569SOL    HW2 1707   1.780   1.856   0.495  1.5424  1.9441 -1.1060
  570SOL     OW 1708   2.583   2.078   2.322 -0.1392 -0.5305 -0.0471
  570SOL    HW1 1709   2.648   2.069   2.247 -0.0571 -2.1626 -0.2424
  570SOL    HW2 1710   2.637   2.118   2.406  1.8787 -0.1996  3.4218
  571SOL     OW 1711   2.608   1.767   1.680 -0.4121 -0.0891 -0.0003
  571SOL    HW1 1712   2.608   1.850   1.626  0.1473  0.8718  1.9949
  571SOL    HW2 1713   2.697   1.748   1.732  1.2198  1.0287  2.5598
  572SOL     OW 1714   1.472   2.636   0.220  0.3333 -0.5433 -0.2773
  572SOL    HW1 1715   1.390   2.625   0.278  1.3324 -0.7558 -1.3177
  572SOL    HW2 1716   1.464   2.592   0.126  0.8409 -1.7534 -0.7389
  573SOL     OW 1717   1.492   1.868   0.695 -0.5093  0.6970  0.3113
  573SOL    HW1 1718   1.572   1.923   0.723  0.9018  0.0046 -1.1540
  573SOL    HW2 1719   1.470   1.802   0.767 -0.8649  1.1367 -0.2235
  574SOL     OW 1720   1.132   2.908   1.457 -0.3552  0.1356 -0.1579
  574SOL    HW1 1721   1.206   2.846   1.478 -2.6236  2.6290 -1.2693
  574SOL    HW2 1722   1.103   2.954   1.550 -1.3558 -1.0773  1.0946
  575SOL     OW 1723   0.891   0.698   1.178  0.0890 -0.0444  0.1075
  575SOL    HW1 1724   0.895   0.781   1.121  0.5499 -3.0520  0.7666
  575SOL    HW2 1725   0.878   0.722   1.280 -0.9154 -2.1576  0.2637
  576SOL     OW 1726   2.795   0.420   1.357 -0.2863  0.3455  0.4761
  576SOL    HW1 1727   2.718   0.445   1.302  1.4118  2.0403  0.0907
  576SOL    HW2 1728   2.810   0.481   1.439  1.9254  1.5612 -0.3307
  577SOL     OW 1729   2.319   0.618   2.637 -0.4405  0.1542  0.3382
  577SOL    HW1 1730   2.299   0.653   2.730 -2.1147 -0.5734 -0.4366
  577SOL    HW2 1731   2.393   0.674   2.594 -0.1651  3.2377  1.2549
  578SOL     OW 1732   1.723   1.583   2.226  0.0831  0.0870 -0.2463
  578SOL    HW1 1733   1.805   1.526   2.215 -2.5323  1.2201  0.1819
  578SOL    HW2 1734   1.739   1.680   2.198 -0.3716  0.8071 -1.0095
  579SOL     OW 1735   0.649   1.417   0.934 -0.4355 -0.1404  0.0527
  579SOL    HW1 1736   0.601   1.452   0.854  0.0140 -0.6089  2.0789
  579SOL    HW2 1737   0.672   1.494   0.998  1.2597 -0.2925  1.2528
  580SOL     OW 1738   1.367   2.530   3.023  0.3933  0.0624  0.5066
  580SOL    HW1 1739   1.275   2.494   3.054  1.5139  2.4272 -0.4625
  580SOL    HW2 1740   1.361   2.546   2.924  1.1792  0.8021  0.9541
  581SOL     OW 1741   0.878   0.761   2.005 -0.0889  0.0362  0.5444
  581SOL    HW1 1742   0.850   0.729   2.104 -1.3430  1.2182  3.9993
  581SOL    HW2 1743   0.969   0.719   1.986  1.0977 -0.5079 -1.0861
  582SOL     OW 1744   0.499   0.926   0.805  0.3234 -0.5222  0.0698
  582SOL    HW1 1745   0.406   0.946   0.778  0.2543  1.7250 -1.1556
  582SOL    HW2 1746   0.572   0.985   0.767  0.3569  1.1260 -2.0600
  583SOL     OW 1747   1.181   1.501   1.976  0.4933  0.2697 -0.3050
  583SOL    HW1 1748   1.201   1.591   2.022  2.5523  3.4063  2.2087
  583SOL    HW2 1749   1.142   1.431   2.038 -0.6073 -0.8823  1.7294
  584SOL     OW 1750   2.343   2.801   0.446 -0.3492 -0.3561 -0.0989
  584SOL    HW1 1751   2.429   2.795   0.391 -0.6548 -2.7542  0.5504
  584SOL    HW2 1752   2.330   2.895   0.479  1.6837 -0.8417 -1.0248
  585SOL     OW 1753   1.990   0.699   3.041  0.1381 -0.5162 -0.0366
  585SOL    HW1 1754   1.921   0.772   3.034 -3.2812 -1.5754 -2.2931
  585SOL    HW2 1755   2.034   0.701   0.061  0.0295  0.2499 -0.4101
  586SOL     OW 1756   0.345   1.695   0.405 -0.6554 -0.7527  1.2909
  586SOL    HW1 1757   0.265   1.657   0.454  0.9080 -1.8235  1.3948
  586SOL    HW2 1758   0.423   1.688   0.473  1.0999 -0.7650  1.0655
  587SOL     OW 1759   1.744   2.173   0.983 -0.8145 -0.3920 -0.6527
  587SOL    HW1 1760   1.802   2.108   1.036 -1.4526 -1.8226 -1.1069
  587SOL    HW2 1761   1.669   2.211   1.046 -3.3442  3.2715  3.2264
  588SOL     OW 1762   0.592   0.661   0.883  0.1171  0.2087  0.2567
  588SOL    HW1 1763   0.632   0.672   0.976  0.6529 -2.0025 -2.2582
  588SOL    HW2 1764   0.593   0.753   0.839  0.0785  0.2918 -0.6038
  589SOL     OW 1765   1.168   0.273   0.888 -0.2789  0.0839 -0.4856
  589SOL    HW1 1766   1.090   0.253   0.827  1.2544 -0.1254  0.4684
  589SOL    HW2 1767   1.140   0.310   0.977  0.5520 -0.9585 -1.8991
  590SOL     OW 1768   1.305   0.864   0.218  0.0885 -0.1485  0.2893
  590SOL    HW1 1769   1.321   0.850   0.317  0.0903 -1.1226  0.4564
  590SOL    HW2 1770   1.373   0.816   0.158  0.9283 -0.1979 -1.0117
  591SOL     OW 1771   2.263   2.354   1.930 -0.1795  0.1913  0.4854
  591SOL    HW1 1772   2.300   2.416   1.857 -0.3863  2.1469 -0.2257
  591SOL    HW2 1773   2.163   2.377   1.946  1.5015  0.9547  1.2251
  592SOL     OW 1774   1.332   1.985   1.037 -0.2061  0.1368 -0.3014
  592SOL    HW1 1775   1.422   1.982   1.087  2.0889 -2.0868  0.9274
  592SOL    HW2 1776   1.324   2.060   0.966  0.4328  1.5705  1.4729
  593SOL     OW 1777   1.042   2.872   0.676 -0.6014 -0.0481 -0.3602
  593SOL    HW1 1778   1.022   2.841   0.773 -0.4626  0.8814  1.3690
  593SOL    HW2 1779   1.040   2.793   0.615  2.0280 -0.3815 -2.0116
  594SOL     OW 1780   0.180   0.938   1.763  0.1265 -0.8483  0.1571
  594SOL    HW1 1781   0.186   0.921   1.660 -0.1654 -0.6072  1.7007
  594SOL    HW2 1782   0.272   0.975   1.795  1.6318  0.0631 -2.0020
  595SOL     OW 1783   3.023   2.590   0.799  0.4501  0.0451 -0.1226
  595SOL    HW1 1784   3.047   2.612   0.702  0.5780  0.4627 -1.0575
  595SOL    HW2 1785   0.016   2.640   0.861  3.6982  0.9074  1.7050
  596SOL     OW 1786   0.004   0.666   1.663  0.0292  0.6045  0.1973
  596SOL    HW1 1787   0.062   0.581   1.672  1.8974 -2.7659 -0.6795
  596SOL    HW2 1788   0.044   0.735   1.726  0.4133 -2.1014 -4.7253
  597SOL     OW 1789   1.959   1.501   0.876  0.3342  0.2518  0.1700
  597SOL    HW1 1790   1.900   1.584   0.884  1.1140 -0.4034  1.3364
  597SOL    HW2 1791   1.914   1.435   0.809  0.5101  2.4726  0.0900
  598SOL     OW 1792   0.680   2.829   1.976  0.3830  0.3110  0.4633
  598SOL    HW1 1793   0.726   2.780   1.894  1.9411 -2.3127  0.2565
  598SOL    HW2 1794   0.593   2.875   1.946 -0.6721  0.6747  1.5446
  599SOL     OW 1795   2.625   1.828   0.104 -0.1792  0.1817 -0.0901
  599SOL    HW1 1796   2.663   1.734   0.097 -2.6819 -0.5528  1.1005
  599SOL    HW2 1797   2.552   1.849   0.045  1.1863  2.1757  1.4497
  600SOL     OW 1798   0.767   0.883   2.978 -0.4871  0.4922 -0.0984
  600SOL    HW1 1799   0.789   0.934   2.892  0.2974 -0.2585 -0.5244
  600SOL    HW2 1800   0.748   0.949   3.053  0.4355  1.1743 -0.3906
  601SOL     OW 1801   1.124   1.077   2.864 -0.0879 -0.0595 -0.7479
  601SOL    HW1 1802   1.217   1.031   2.864 -0.4211 -0.2801  0.8808
  601SOL    HW2 1803   1.102   1.117   2.772  1.0561  0.6316 -0.8747
  602SOL     OW 1804   1.447   2.714   1.037 -0.5832  0.2185  0.3773
  602SOL    HW1 1805   1.540   2.693   1.002  0.3251 -1.8920 -0.0647
  602SOL    HW2 1806   1.441   2.816   1.040  0.7811 -4.1517  0.3290
  603SOL     OW 1807   0.932   2.908   2.282 -0.1519  0.1277  0.8036
  603SOL    HW1 1808   0.921   2.922   2.181 -0.0614 -1.2382  0.9683
  603SOL    HW2 1809   1.023   2.947   2.312 -0.0141  1.1530 -0.4372
  604SOL     OW 1810   3.001   0.039   2.250  0.3292 -0.9443  0.2758
  604SOL    HW1 1811   2.998   3.055   2.333  0.1023  0.3758 -0.5521
  604SOL    HW2 1812   3.019   0.140   2.265 -0.3527 -1.6124  0.5735
  605SOL     OW 1813   2.528   2.332   1.317 -0.1898 -0.6902 -0.2856
  605SOL    HW1 1814   2.436   2.284   1.310 -1.0202 -0.3549 -0.1749
  605SOL    HW2 1815   2.590   2.294   1.392  0.3946  0.2348 -0.4246
  606SOL     OW 1816   0.387   1.594   2.996 -0.1798  0.2217 -0.0512
  606SOL    HW1 1817   0.304   1.544   3.035 -0.4532 -0.5699 -2.7680
  606SOL    HW2 1818   0.375   1.692   3.019 -2.2552 -3.3817 -2.9104
  607SOL     OW 1819   1.040   0.579   0.378 -0.6459 -0.1536 -0.1451
  607SOL    HW1 1820   1.125   0.553   0.325 -1.1415 -0.5702 -2.9133
  607SOL    HW2 1821   1.013   0.672   0.352  0.3722 -1.0479 -0.2024
  608SOL     OW 1822   1.792   1.312   2.545  0.4114  0.5731  0.0189
  608SOL    HW1 1823   1.711   1.253   2.521  1.7614  0.5492  0.0640
  608SOL    HW2 1824   1.761   1.394   2.600  0.6696  0.7111  4.1227
  609SOL     OW 1825   2.817   0.457   0.926 -0.1646 -0.0903 -0.2114
  609SOL    HW1 1826   2.858   0.401   0.851  1.6024 -0.1157  1.3780
  609SOL    HW2 1827   2.725   0.488   0.907  2.3185  1.0750  0.6861
  610SOL     OW 1828   0.349   2.300   2.906 -0.3082  0.5779  0.1234
  610SOL    HW1 1829   0.435   2.258   2.936  0.3129  2.4710 -2.7237
  610SOL    HW2 1830   0.327   2.371   2.973 -0.5289 -1.5115  0.8101
  611SOL     OW 1831   1.790   1.331   0.401 -0.0476  0.1723  0.0593
  611SOL    HW1 1832   1.870   1.392   0.408 -1.3107 -2.3002  0.1086
  611SOL    HW2 1833   1.719   1.386   0.351  0.4380  0.4654 -2.5852
  612SOL     OW 1834   0.936   2.371   2.510  0.1216  0.3422  0.1169
  612SOL    HW1 1835   1.035   2.381   2.484  0.1141  1.0209 -0.5056
  612SOL    HW2 1836   0.876   2.397   2.431 -1.3600  1.4552 -2.8579
  613SOL     OW 1837   1.288   1.734   3.034  0.0600  0.0227  0.3803
  613SOL    HW1 1838   1.300   1.685   0.053 -0.4340 -0.6226 -2.9272
  613SOL    HW2 1839   1.267   1.666   2.963  0.1639  0.3485  0.7287
  614SOL     OW 1840   2.618   2.621   1.750 -0.0002 -0.6070  0.3171
  614SOL    HW1 1841   2.568   2.641   1.840 -1.1884  0.3526 -0.2295
  614SOL    HW2 1842   2.586   2.535   1.711  2.6788 -1.5232 -2.2309
  615SOL     OW 1843   2.301   1.300   0.058 -0.3263 -0.0058  0.0867
  615SOL    HW1 1844   2.240   1.300   3.046 -2.8491  0.5407  0.8832
  615SOL    HW2 1845   2.362   1.379   0.044  1.6400  1.2178 -1.8376
  616SOL     OW 1846   1.626   0.337   0.747 -0.2815 -0.1110 -0.3468
  616SOL    HW1 1847   1.542   0.337   0.803  1.7604  0.1700 -1.4994
  616SOL    HW2 1848   1.610   0.302   0.655 -0.3340 -1.9461  0.5150
  617SOL     OW 1849   0.819   0.962   2.723  0.7808  0.1673  0.2146
  617SOL    HW1 1850   0.762   0.956   2.638 -0.6821  0.0291 -1.1969
  617SOL    HW2 1851   0.842   1.058   2.747 -0.6124 -2.7175  3.6857
  618SOL     OW 1852   0.652   0.740   1.842 -0.0762 -0.0419  0.2087
  618SOL    HW1 1853   0.636   0.837   1.806 -0.9578  0.5633  0.3113
  618SOL    HW2 1854   0.733   0.733   1.904  1.6503  1.4624 -1.1251
  619SOL     OW 1855   0.220   0.860   1.509  0.3470 -0.0323  0.8916
  619SOL    HW1 1856   0.136   0.860   1.443 -1.3324 -0.0648 -0.2427
  619SOL    HW2 1857   0.286   0.794   1.475  0.2377  0.7873 -1.8344
  620SOL     OW 1858   1.902   1.168   0.212 -0.3311  0.0516 -0.2575
  620SOL    HW1 1859   1.837   1.089   0.216  0.7993  2.0511  1.6758
  620SOL    HW2 1860   1.867   1.249   0.259 -1.4959  1.0710  1.5844
  621SOL     OW 1861   2.437   2.909   1.012  0.4140 -0.5430 -0.2855
  621SOL    HW1 1862   2.460   2.965   0.931 -2.2716  0.1551  0.6229
  621SOL    HW2 1863   2.367   2.963   1.067  1.3341 -0.0910 -0.7399
  622SOL     OW 1864   1.623   0.824   2.292 -0.0744  0.9204 -1.1450
  622SOL    HW1 1865   1.712   0.857   2.323  0.3164 -1.2701  0.2279
  622SOL    HW2 1866   1.638   0.737   2.245 -1.9312 -1.1711  3.0710
  623SOL     OW 1867   0.855   0.356   2.649 -0.4224 -0.3879  0.4542
  623SOL    HW1 1868   0.911   0.381   2.570  0.6887 -3.1608  2.3301
  623SOL    HW2 1869   0.881   0.408   2.734 -0.8240 -0.3691  0.0521
  624SOL     OW 1870   1.687   0.402   0.362 -0.9335  0.0824 -0.4238
  624SOL    HW1 1871   1.612   0.458   0.405  0.2956 -0.0661 -1.6522
  624SOL    HW2 1872   1.762   0.380   0.429 -0.8760 -0.9877  0.6690
  625SOL     OW 1873   0.887   1.230   0.872  0.1070  0.3719  0.4146
  625SOL    HW1 1874   0.943   1.274   0.796  1.3433 -0.3506  1.8877
  625SOL    HW2 1875   0.798   1.275   0.891 -1.0979 -0.5853  1.8184
  626SOL     OW 1876   1.501   1.078   0.053  0.1392  0.2573 -0.0611
  626SOL    HW1 1877   1.550   1.153   0.009 -1.0389  0.1859  1.5920
  626SOL    HW2 1878   1.429   1.109   0.115 -0.2594 -1.0823  1.3400
  627SOL     OW 1879   1.086   3.038   1.688  0.3160 -0.1664 -0.3494
  627SOL    HW1 1880   1.151   0.008   1.754  0.9606  0.2399 -0.7812
  627SOL    HW2 1881   1.000   0.011   1.718  1.9130  1.9271  1.1510
  628SOL     OW 1882   2.558   0.189   2.033 -0.7301 -0.8985  0.4296
  628SOL    HW1 1883   2.651   0.173   2.078  3.8471 -2.7396  0.8288
  628SOL    HW2 1884   2.490   0.207   2.109  1.1886 -0.1924 -0.4772
  629SOL     OW 1885   0.858   1.267   2.766  0.2195  0.7156 -0.0455
  629SOL    HW1 1886   0.921   1.331   2.818  1.3255  1.0447 -0.8366
  629SOL    HW2 1887   0.845   1.296   2.667  0.2353 -0.1688  1.6907
  630SOL     OW 1888   1.179   0.255   2.186  0.4885 -0.0661 -0.3813
  630SOL    HW1 1889   1.144   0.331   2.243  1.1302  1.5482 -1.1479
  630SOL    HW2 1890   1.241   0.199   2.243  2.0138  0.6141 -0.4739
  631SOL     OW 1891   2.610   0.933   0.637 -0.2561 -0.0209  0.1848
  631SOL    HW1 1892   2.666   1.014   0.670 -0.5591 -0.7215  0.3433
  631SOL    HW2 1893   2.653   0.849   0.676  0.8906  2.3065  0.4883
  632SOL     OW 1894   2.495   1.112   1.012 -0.1371 -0.8428 -0.1140
  632SOL    HW1 1895   2.538   1.119   1.106 -2.8212  0.3834 -3.3304
  632SOL    HW2 1896   2.497   1.015   0.983 -1.5807  0.9961 -0.7282
  633SOL     OW 1897   1.478   1.009   1.003 -0.1476 -0.1063  0.2624
  633SOL    HW1 1898   1.571   1.037   0.970  1.0251 -0.3818 -3.1962
  633SOL    HW2 1899   1.458   1.047   1.093  0.1883 -2.5368  1.7598
  634SOL     OW 1900   1.844   0.108   0.816 -0.0997  0.1096 -0.1103
  634SOL    HW1 1901   1.794   0.192   0.825 -0.4547  0.6732  1.8634
  634SOL    HW2 1902   1.828   0.046   0.895 -0.7912  0.3608  0.3935
  635SOL     OW 1903   1.722   0.637   1.380 -0.3013  0.2685 -0.5128
  635SOL    HW1 1904   1.816   0.677   1.368  0.6379  1.1404 -0.3642
  635SOL    HW2 1905   1.663   0.706   1.426 -2.3392 -1.2105 -1.5170
  636SOL     OW 1906   0.917   0.908   0.491  0.4414 -0.6166 -0.1134
  636SOL    HW1 1907   0.956   0.865   0.408 -0.1708  1.2263 -0.9903
  636SOL    HW2 1908   0.839   0.848   0.522 -0.1816 -1.7617 -1.6174
  637SOL     OW 1909   1.391   2.174   3.017  0.2090 -0.5304 -1.0584
  637SOL    HW1 1910   1.314   2.175   2.958  1.1741  0.6363  2.1022
  637SOL    HW2 1911   1.471   2.216   2.977 -2.0169  2.4782  1.8116
  638SOL     OW 1912   1.157   2.817   2.985 -0.4886  0.0435  0.4770
  638SOL    HW1 1913   1.239   2.770   3.024 -0.4169 -2.4755 -0.2396
  638SOL    HW2 1914   1.078   2.756   2.964  0.2888 -1.0086 -0.8679
  639SOL     OW 1915   0.793   2.080   1.129  0.2151  0.1132 -0.1108
  639SOL    HW1 1916   0.837   2.066   1.038  2.1228 -0.8828 -1.3609
  639SOL    HW2 1917   0.736   1.999   1.148  2.1423  0.5578 -2.4455
  640SOL     OW 1918   0.270   2.728   0.285 -0.2226  0.0826  0.1579
  640SOL    HW1 1919   0.326   2.649   0.317  1.4518  1.9027 -0.3485
  640SOL    HW2 1920   0.326   2.809   0.260  0.5335  1.0439  3.3488
  641SOL     OW 1921   0.152   0.212   0.164  0.5408 -0.2038  0.0115
  641SOL    HW1 1922   0.214   0.162   0.224 -2.3777 -0.8526  0.6205
  641SOL    HW2 1923   0.200   0.287   0.112  0.5477 -0.5091  1.2053
  642SOL     OW 1924   0.253   1.431   1.187 -0.2708  0.8517 -0.4642
  642SOL    HW1 1925   0.287   1.503   1.125  1.3849  2.7211  0.2066
  642SOL    HW2 1926   0.163   1.451   1.223  0.0443  0.1745  0.6174
  643SOL     OW 1927   0.866   1.849   2.232  0.1937 -0.2148  0.3187
  643SOL    HW1 1928   0.962   1.822   2.253  2.4691  1.4101  0.2837
  643SOL    HW2 1929   0.856   1.952   2.221  0.7510 -0.5984 -2.3603
  644SOL     OW 1930   1.762   2.531   0.461  0.4929  0.3998 -0.2035
  644SOL    HW1 1931   1.738   2.440   0.432  1.4931 -0.7537  0.1495
  644SOL    HW2 1932   1.698   2.560   0.536  0.5751  0.4159 -0.0096
  645SOL     OW 1933   1.761   2.284   1.396 -0.2635  0.2910 -0.1319
  645SOL    HW1 1934   1.763   2.291   1.498 -0.4333  1.1039 -0.0557
  645SOL    HW2 1935   1.817   2.196   1.367  1.3869 -2.2685  1.4484
  646SOL     OW 1936   1.129   2.855   0.221  0.2681  0.1848  0.3350
  646SOL    HW1 1937   1.032   2.873   0.190 -0.1118  0.8801  1.6142
  646SOL    HW2 1938   1.154   2.903   0.307  1.0724  0.8266  3.0637
  647SOL     OW 1939   0.430   2.987   1.943  0.7291 -0.0580 -0.0761
  647SOL    HW1 1940   0.421   2.904   2.001 -1.0739 -2.2904  1.1673
  647SOL    HW2 1941   0.412   2.965   1.846  2.7596 -0.2598  1.2129
  648SOL     OW 1942   2.365   0.828   0.742  0.1055 -0.3672  0.2609
  648SOL    HW1 1943   2.314   0.905   0.780 -0.2288  0.4049  0.1957
  648SOL    HW2 1944   2.460   0.850   0.714 -1.5068  0.5033 -0.9769
  649SOL     OW 1945   1.800   2.526   2.994 -0.3924 -0.4626 -0.2169
  649SOL    HW1 1946   1.884   2.589   2.989  1.5722  1.6733  1.0764
  649SOL    HW2 1947   1.716   2.584   3.007 -0.5956 -0.4051  0.9915
  650SOL     OW 1948   2.404   1.414   1.937  0.0238  0.2281 -0.1453
  650SOL    HW1 1949   2.466   1.481   1.983 -0.7198 -1.2665  0.4671
  650SOL    HW2 1950   2.386   1.342   2.003  2.1193 -0.2047 -4.1244
  651SOL     OW 1951   1.558   1.554   2.896  0.2625 -0.3525 -0.5178
  651SOL    HW1 1952   1.567   1.586   2.990 -2.8509  0.8592  0.4430
  651SOL    HW2 1953   1.506   1.626   2.850 -0.1924  0.7095  1.3839
  652SOL     OW 1954   0.820   0.050   2.644  0.4821  0.3418  0.6982
  652SOL    HW1 1955   0.899   3.063   2.627  0.0121  0.1278 -0.4319
  652SOL    HW2 1956   0.833   0.101   2.728 -2.4611 -1.5827 -1.7975
  653SOL     OW 1957   1.961   2.318   0.918 -0.1740 -0.2894 -0.0323
  653SOL    HW1 1958   1.880   2.263   0.936  3.0188 -0.2547  0.5606
  653SOL    HW2 1959   2.045   2.268   0.953 -0.7562 -0.3333  1.8743
  654SOL     OW 1960   2.710   2.854   2.099  0.2265 -0.4258 -0.1282
  654SOL    HW1 1961   2.666   2.915   2.165  0.2260  1.4152 -1.9783
  654SOL    HW2 1962   2.727   2.893   2.008  1.2217 -2.0698 -0.9158
  655SOL     OW 1963   2.678   2.176   1.140 -0.0190 -0.4708 -0.1044
  655SOL    HW1 1964   2.677   2.216   1.047 -1.0803  2.3315  2.8427
  655SOL    HW2 1965   2.615   2.236   1.197  0.1111 -0.8617  1.1130
  656SOL     OW 1966   3.026   1.907   2.713 -0.2172 -0.8961 -0.1308
  656SOL    HW1 1967   3.012   1.911   2.614  0.6851 -2.9386 -0.4277
  656SOL    HW2 1968   2.980   1.828   2.756 -1.4385  0.7758 -0.1168
  657SOL     OW 1969   2.941   0.921   0.370  0.1033  0.2661 -0.3110
  657SOL    HW1 1970   2.850   0.956   0.341 -1.2161 -1.2798  2.1257
  657SOL    HW2 1971   2.979   0.880   0.287 -0.2599  0.0324  1.5175
  658SOL     OW 1972   1.528   1.639   1.197 -0.2103 -0.5327  1.0468
  658SOL    HW1 1973   1.483   1.608   1.277  0.6147  0.3985 -4.1437
  658SOL    HW2 1974   1.555   1.739   1.205 -1.5287  0.1956 -0.9371
  659SOL     OW 1975   1.132   0.241   1.184  0.2441 -0.6596 -0.7957
  659SOL    HW1 1976   1.229   0.218   1.199  2.7172 -4.1541 -1.0435
  659SOL    HW2 1977   1.071   0.199   1.252  0.5266  1.9068  0.4474
  660SOL     OW 1978   2.070   1.302   1.068  0.0447  0.7972  0.4739
  660SOL    HW1 1979   2.022   1.370   1.015  0.9585 -0.2614 -1.0965
  660SOL    HW2 1980   2.167   1.328   1.085 -0.5089 -3.1300 -1.7262
  661SOL     OW 1981   0.402   1.510   0.223  0.0417 -0.2424  0.4756
  661SOL    HW1 1982   0.371   1.577   0.289  2.1427 -2.4236 -3.0703
  661SOL    HW2 1983   0.505   1.520   0.212  2.1388  1.0812 -0.0726
  662SOL     OW 1984   2.817   0.473   1.897  0.2317  0.0451 -0.4766
  662SOL    HW1 1985   2.806   0.460   2.001 -1.2759 -0.7360  3.0839
  662SOL    HW2 1986   2.842   0.569   1.877  0.3675 -0.6704  1.4349
  663SOL     OW 1987   2.085   1.569   1.251  0.2332  0.0957  0.3154
  663SOL    HW1 1988   2.140   1.615   1.181 -4.0000  0.9438  0.1961
  663SOL    HW2 1989   2.150   1.509   1.305 -0.7032  0.7127  0.3655
  664SOL     OW 1990   0.471   3.059   1.313 -0.0290 -0.0831 -0.4217
  664SOL    HW1 1991   0.397   0.040   1.365 -1.8227  2.6395  0.8492
  664SOL    HW2 1992   0.539   0.054   1.279  0.1752  0.9434  3.1576
  665SOL     OW 1993   1.469   0.215   2.946  0.2426 -0.4548 -0.2825
  665SOL    HW1 1994   1.531   0.296   2.938 -1.1590 -1.1391 -2.4609
  665SOL    HW2 1995   1.462   0.179   3.044 -2.6392 -1.7090  0.6477
  666SOL     OW 1996   0.348   0.161   2.021 -0.1463  0.3096 -0.4891
  666SOL    HW1 1997   0.389   0.065   2.024  0.9651  0.8155  1.2460
  666SOL    HW2 1998   0.336   0.199   2.118 -0.5024 -0.7823  1.7045
  667SOL     OW 1999   1.736   1.352   1.963 -0.2002 -0.2463 -0.3005
  667SOL    HW1 2000   1.743   1.447   1.932  2.9755 -2.0244  0.6114
  667SOL    HW2 2001   1.747   1.349   2.066  1.1616 -1.5669  1.3291
  668SOL     OW 2002   0.050   1.640   2.533  0.2111  0.1443 -0.0134
  668SOL    HW1 2003   0.108   1.566   2.577  0.4540 -1.9542  1.5657
  668SOL    HW2 2004   0.042   1.628   2.432 -0.5311  1.1669 -0.0738
  669SOL     OW 2005   2.244   0.076   2.430 -0.2226  0.1246 -0.3707
  669SOL    HW1 2006   2.317   0.042   2.360  2.0454 -1.8057  0.7584
  669SOL    HW2 2007   2.297   0.095   2.520  2.0533 -1.7893 -0.8274
  670SOL     OW 2008   2.573   1.120   2.193 -0.1673  0.1613  0.1235
  670SOL    HW1 2009   2.625   1.040   2.160 -1.8612  1.2773 -0.1918
  670SOL    HW2 2010   2.635   1.202   2.186  0.5281  0.8764  3.5982
  671SOL     OW 2011   2.538   1.918   0.355  0.0375  0.2228  0.3301
  671SOL    HW1 2012   2.543   1.899   0.258  3.1373 -2.6222  1.3466
  671SOL    HW2 2013   2.449   1.885   0.395  0.1201 -1.0901 -0.1874
  672SOL     OW 2014   1.728   1.264   2.224  0.0127  0.2582 -0.2649
  672SOL    HW1 2015   1.661   1.194   2.205 -2.9283  1.8927 -0.9189
  672SOL    HW2 2016   1.746   1.284   2.324  0.8865 -0.1629 -1.3674
  673SOL     OW 2017   2.910   1.817   1.342 -0.1829  0.1163  0.4472
  673SOL    HW1 2018   2.894   1.913   1.317  0.7916 -2.8855 -0.3681
  673SOL    HW2 2019   2.997   1.805   1.389 -0.9898  0.8704 -0.5650
  674SOL     OW 2020   1.041   1.605   1.750  0.0038  0.1053  0.1247
  674SOL    HW1 2021   1.066   1.545   1.831 -0.4966 -2.1473  0.8358
  674SOL    HW2 2022   0.941   1.596   1.725 -1.2987  0.1869 -1.2768
  675SOL     OW 2023   0.031   0.690   0.729 -0.1781  0.1364 -0.7348
  675SOL    HW1 2024   0.124   0.688   0.684 -0.2391 -0.7889  3.6169
  675SOL    HW2 2025   0.058   0.697   0.827  1.8489  0.2755  0.1809
  676SOL     OW 2026   2.948   1.211   0.978 -0.6680 -0.1520  0.0590
  676SOL    HW1 2027   2.964   1.295   0.938 -1.8520 -3.0182  2.0484
  676SOL    HW2 2028   3.008   1.200   1.059 -2.6323 -2.3623 -1.5579
  677SOL     OW 2029   1.565   1.638   2.444  0.3470  0.0748 -0.3329
  677SOL    HW1 2030   1.599   1.604   2.352 -0.6310 -0.4230  2.5923
  677SOL    HW2 2031   1.627   1.599   2.517 -0.9063  1.8531  0.7931
  678SOL     OW 2032   2.568   1.554   0.842  0.4264  0.0532 -0.1769
  678SOL    HW1 2033   2.540   1.649   0.863  0.7241 -1.7350 -0.9769
  678SOL    HW2 2034   2.486   1.500   0.829  1.1212 -2.4246 -0.3748
  679SOL     OW 2035   0.714   2.626   0.579  0.4303 -0.5232  0.4089
  679SOL    HW1 2036   0.689   2.529   0.607  0.6823  0.8881  0.9592
  679SOL    HW2 2037   0.719   2.685   0.666  2.4543 -1.3901  1.6030
  680SOL     OW 2038   0.130   1.679   1.268  0.1964 -0.0795 -0.5579
  680SOL    HW1 2039   0.126   1.758   1.213  0.4174 -2.3215  3.6518
  680SOL    HW2 2040   0.123   1.696   1.369  0.7149 -2.1546  0.8671
  681SOL     OW 2041   1.059   0.485   1.068  0.0030 -0.1193 -0.2865
  681SOL    HW1 2042   1.012   0.560   1.125 -1.8217  1.7925  2.5886
  681SOL    HW2 2043   1.078   0.404   1.127 -1.1275  2.7978 -1.6543
  682SOL     OW 2044   1.825   2.831   1.560  0.7470  0.2576  0.6251
  682SOL    HW1 2045   1.891   2.898   1.602  1.9459  1.9004 -0.5366
  682SOL    HW2 2046   1.724   2.855   1.567  0.4104 -2.6416 -0.8917
  683SOL     OW 2047   2.256   1.419   1.409  0.0263 -0.4881 -0.0140
  683SOL    HW1 2048   2.283   1.403   1.503  3.1251  3.4171 -0.8120
  683SOL    HW2 2049   2.333   1.413   1.344 -3.3082  1.1154 -2.8448
  684SOL     OW 2050   0.045   1.625   1.773  0.6442  0.7316 -0.0423
  684SOL    HW1 2051   0.011   1.534   1.735 -0.7674 -0.0369  0.6017
  684SOL    HW2 2052   0.135   1.616   1.816 -0.6659  1.3528  0.1062
  685SOL     OW 2053   1.889   1.964   0.234  0.1096  0.7798 -0.2028
  685SOL    HW1 2054   1.834   2.047   0.219  1.3321  0.3373  1.2280
  685SOL    HW2 2055   1.890   1.923   0.326 -0.3773  1.6123 -1.6962
  686SOL     OW 2056   2.647   0.568   1.146 -0.1208 -0.5855  0.1119
  686SOL    HW1 2057   2.571   0.585   1.079 -0.2531  1.5690  2.1246
  686SOL    HW2 2058   2.735   0.557   1.102 -0.7571 -0.4716 -0.4246
  687SOL     OW 2059   1.799   0.290   2.379 -0.0318 -0.0239  0.3716
  687SOL    HW1 2060   1.872   0.240   2.425 -2.9813  1.9591 -1.6990
  687SOL    HW2 2061   1.704   0.259   2.409 -0.6963  0.5721 -0.6097
  688SOL     OW 2062   1.358   2.125   2.574 -0.1902  0.2373  0.2557
  688SOL    HW1 2063   1.427   2.049   2.568  0.5127 -0.1392  1.5314
  688SOL    HW2 2064   1.264   2.103   2.537 -1.8658  0.1297  0.2187
  689SOL     OW 2065   2.093   1.316   1.803  0.4410 -0.6400  0.2300
  689SOL    HW1 2066   2.170   1.318   1.737 -1.4702  1.0729  0.9105
  689SOL    HW2 2067   2.069   1.218   1.824 -1.0330  3.8766  1.6223
  690SOL     OW 2068   1.804   1.682   1.548 -0.4343  0.0149 -0.4223
  690SOL    HW1 2069   1.718   1.652   1.589  0.9875 -1.4855 -1.2341
  690SOL    HW2 2070   1.812   1.641   1.457 -0.2322 -1.7256  1.1346
  691SOL     OW 2071   0.216   1.539   0.577  0.1251  0.0174  0.5955
  691SOL    HW1 2072   0.193   1.618   0.639  0.7003  0.4196  0.8030
  691SOL    HW2 2073   0.240   1.458   0.634 -0.2147  0.7766 -3.1019
  692SOL     OW 2074   2.644   2.683   2.410  0.1237  0.1170  0.3969
  692SOL    HW1 2075   2.553   2.728   2.422 -0.2506 -0.7040 -1.4865
  692SOL    HW2 2076   2.630   2.585   2.400 -0.4580 -0.1735 -1.1388
  693SOL     OW 2077   2.855   1.454   2.427  0.0644 -0.4583 -0.7236
  693SOL    HW1 2078   2.801   1.456   2.512  0.0335  2.6876 -3.1985
  693SOL    HW2 2079   2.928   1.529   2.423  0.3540  0.0119  2.3069
  694SOL     OW 2080   2.292   0.226   1.918  0.2081  0.6742  0.0332
  694SOL    HW1 2081   2.274   0.269   1.830  0.6429 -0.3042 -0.1904
  694SOL    HW2 2082   2.385   0.243   1.956 -1.9265 -2.1898 -0.6476
  695SOL     OW 2083   1.072   0.715   2.340  0.2448  0.2451 -0.2246
  695SOL    HW1 2084   0.979   0.742   2.314  2.0351  0.5782  0.4110
  695SOL    HW2 2085   1.108   0.791   2.396 -0.4008 -0.3779  0.0845
  696SOL     OW 2086   1.777   0.123   1.593  0.0477 -0.3226  0.0494
  696SOL    HW1 2087   1.875   0.131   1.587 -2.4775 -0.6443 -0.9808
  696SOL    HW2 2088   1.755   0.051   1.659  2.1128  3.3940 -0.7578
  697SOL     OW 2089   1.561   0.287   1.935  0.3882 -0.5523 -0.0139
  697SOL    HW1 2090   1.626   0.341   1.995  2.4280 -0.9070  0.8105
  697SOL    HW2 2091   1.575   0.318   1.839  0.0331  0.5792  1.3867
  698SOL     OW 2092   2.039   1.787   2.529 -0.0220 -0.0083 -0.5766
  698SOL    HW1 2093   2.092   1.860   2.568 -0.8005 -1.1015 -0.6947
  698SOL    HW2 2094   1.996   1.817   2.438  1.8030 -1.3920 -4.4167
  699SOL     OW 2095   2.086   0.695   0.217 -0.2524  0.3671 -0.1027
  699SOL    HW1 2096   2.041   0.759   0.283 -1.0471  1.2640  1.0388
  699SOL    HW2 2097   2.177   0.730   0.206 -0.9408 -1.7707 -0.6232
  700SOL     OW 2098   1.233   0.228   0.501  0.2456 -0.2072 -0.3206
  700SOL    HW1 2099   1.337   0.234   0.530  0.9396  0.8133 -0.3484
  700SOL    HW2 2100   1.235   0.216   0.397 -0.1310 -1.9032 -1.8200
  701SOL     OW 2101   0.217   0.940   0.738  0.2748  0.5543 -0.0413
  701SOL    HW1 2102   0.240   0.851   0.686  2.4117 -0.1671  0.3081
  701SOL    HW2 2103   0.178   1.011   0.676  0.2544 -1.5654 -1.0420
  702SOL     OW 2104   2.040   0.167   1.687 -0.1066 -0.0332 -0.4616
  702SOL    HW1 2105   1.999   0.197   1.776  0.9152 -0.1957  2.6449
  702SOL    HW2 2106   2.109   0.232   1.650 -0.7123 -2.3637  0.6463
  703SOL     OW 2107   2.815   0.958   1.147 -0.3642  0.3454  0.0861
  703SOL    HW1 2108   2.891   1.022   1.142  1.3893 -0.5515  2.8816
  703SOL    HW2 2109   2.838   0.871   1.196  1.0806 -2.2659  2.6550
  704SOL     OW 2110   0.880   2.497   1.200 -0.5650 -0.0669 -0.4974
  704SOL    HW1 2111   0.941   2.489   1.119 -1.5110 -0.8758  2.9332
  704SOL    HW2 2112   0.933   2.481   1.289 -1.2691 -0.9230  1.1373
  705SOL     OW 2113   0.235   1.384   2.634  0.3341  0.7231  0.0986
  705SOL    HW1 2114   0.270   1.312   2.575 -2.0683 -0.1124  3.4021
  705SOL    HW2 2115   0.302   1.458   2.654 -2.9572  2.1380 -1.0423
  706SOL     OW 2116   2.924   2.921   0.149  0.1979 -0.1900 -0.4698
  706SOL    HW1 2117   2.836   2.875   0.134 -0.0429  3.4588  2.3056
  706SOL    HW2 2118   2.911   2.984   0.229 -0.8246  0.6506 -1.2789
  707SOL     OW 2119   1.523   2.887   2.278  0.3706 -0.0859  0.3352
  707SOL    HW1 2120   1.505   2.972   2.224 -3.0434  2.9082 -1.7732
  707SOL    HW2 2121   1.440   2.827   2.266 -0.1382  0.8640 -1.7924
  708SOL     OW 2122   0.391   2.681   1.572 -0.0922 -0.1406  0.2163
  708SOL    HW1 2123   0.424   2.682   1.669  0.5246 -0.9636  1.0788
  708SOL    HW2 2124   0.316   2.614   1.551  4.0349  0.9898  0.3017
  709SOL     OW 2125   2.867   0.772   1.957  0.5362 -0.1738  0.5080
  709SOL    HW1 2126   2.907   0.846   1.896  0.2368 -1.9444 -0.1298
  709SOL    HW2 2127   2.932   0.740   2.032  0.7909 -1.6929  1.8924
  710SOL     OW 2128   0.181   0.980   1.001 -0.1271  0.6793  0.2582
  710SOL    HW1 2129   0.218   1.073   1.022  0.2485 -0.1952  1.8721
  710SOL    HW2 2130   0.197   0.951   0.902  2.1231 -0.2663 -2.4789
  711SOL     OW 2131   2.596   2.860   1.243 -0.1846  0.0310 -0.2542
  711SOL    HW1 2132   2.580   2.764   1.280  0.9425  1.3458  0.5268
  711SOL    HW2 2133   2.524   2.879   1.168 -1.5908  0.7016 -2.9155
  712SOL     OW 2134   0.154   2.965   2.650 -0.1333 -0.4123 -0.2194
  712SOL    HW1 2135   0.119   2.947   2.745 -1.2980  0.6650  0.9699
  712SOL    HW2 2136   0.251   2.932   2.631  2.3228 -0.4165 -1.5584
  713SOL     OW 2137   2.502   0.373   0.546 -0.0805  0.2692 -0.8456
  713SOL    HW1 2138   2.421   0.425   0.518 -0.1990 -0.2997 -3.8220
  713SOL    HW2 2139   2.576   0.438   0.568 -0.3750  2.3211 -0.8755
  714SOL     OW 2140   1.734   1.840   3.009  0.3175 -0.1579  0.1348
  714SOL    HW1 2141   1.635   1.878   2.991 -2.1098  1.3468 -0.4011
  714SOL    HW2 2142   1.741   1.794   0.029 -0.2054  1.7345 -1.1034
  715SOL     OW 2143   0.195   0.432   0.928  0.1259 -0.1635 -0.0626
  715SOL    HW1 2144   0.260   0.372   0.978 -0.0930 -1.4082  1.1127
  715SOL    HW2 2145   0.111   0.451   0.981  1.7091  0.8341  2.2919
  716SOL     OW 2146   0.856   0.685   1.655  0.2429 -0.0557 -0.1133
  716SOL    HW1 2147   0.889   0.586   1.666 -0.2872 -0.2015 -2.4148
  716SOL    HW2 2148   0.778   0.710   1.711  1.6882  0.7442  0.1430
  717SOL     OW 2149   0.612   0.321   2.788  0.3930 -0.2530 -0.4909
  717SOL    HW1 2150   0.687   0.347   2.725 -1.4798 -2.2925  1.8471
  717SOL    HW2 2151   0.562   0.245   2.740 -0.4813  1.9416  0.0716
  718SOL     OW 2152   1.269   0.524   0.219  0.5973 -0.3169 -0.0466
  718SOL    HW1 2153   1.342   0.570   0.174 -0.5249  0.3870  1.1506
  718SOL    HW2 2154   1.262   0.424   0.224  0.9562 -3.6267  2.9190
  719SOL     OW 2155   2.643   2.281   2.766  0.4637 -0.2383  0.2462
  719SOL    HW1 2156   2.615   2.263   2.864 -1.3820  0.0475 -0.0493
  719SOL    HW2 2157   2.558   2.302   2.714 -2.6658  2.7487 -2.4311
  720SOL     OW 2158   1.240   0.534   1.394  0.2141  0.1067 -0.3446
  720SOL    HW1 2159   1.228   0.631   1.422  1.2536 -2.2657  1.6071
  720SOL    HW2 2160   1.147   0.485   1.401 -2.5307 -1.1133 -0.9992
  721SOL     OW 2161   2.737   3.038   1.033 -0.2808 -0.4317 -0.4384
  721SOL    HW1 2162   2.693   0.056   1.014  0.1071 -0.1469 -1.1051
  721SOL    HW2 2163   2.714   3.009   1.125 -0.8005  3.2910 -0.1121
  722SOL     OW 2164   1.083   1.408   2.627 -0.0385  0.0130 -0.5199
  722SOL    HW1 2165   1.019   1.477   2.663  2.6352 -1.8719  1.8500
  722SOL    HW2 2166   1.179   1.446   2.629 -0.1855  0.3581  0.6974
  723SOL     OW 2167   2.353   0.560   1.193  0.2760 -0.1665  0.1770
  723SOL    HW1 2168   2.406   0.475   1.215 -1.1917  0.5314 -3.0135
  723SOL    HW2 2169   2.395   0.645   1.227  0.3249  0.1357 -1.1530
  724SOL     OW 2170   0.819   2.208   0.052  0.2888  0.1708  0.3051
  724SOL    HW1 2171   0.823   2.133   0.119 -4.1933  0.6298 -1.3053
  724SOL    HW2 2172   0.887   2.202   3.043 -0.6362  0.8689  1.5223
  725SOL     OW 2173   0.244   1.214   1.512 -0.5622  0.0079 -0.4642
  725SOL    HW1 2174   0.226   1.247   1.607  0.0046  0.1258 -2.2626
  725SOL    HW2 2175   0.335   1.164   1.509  1.2374 -0.9859  1.9462
  726SOL     OW 2176   2.450   0.767   3.071  0.1004  0.1698 -0.4624
  726SOL    HW1 2177   2.419   0.779   0.098 -0.5673  1.4791 -1.4133
  726SOL    HW2 2178   2.527   0.832   3.044 -1.8387  1.8708  1.9100
  727SOL     OW 2179   1.922   1.170   2.738 -0.1367  0.5867 -0.1491
  727SOL    HW1 2180   1.882   1.232   2.661 -1.1026  0.4793 -1.1964
  727SOL    HW2 2181   1.966   1.086   2.702 -0.8671  0.4109 -2.1209
  728SOL     OW 2182   1.599   2.616   1.489 -0.2318 -0.1853  0.2252
  728SOL    HW1 2183   1.604   2.573   1.582  2.3866 -0.0786 -1.6308
  728SOL    HW2 2184   1.656   2.567   1.423  1.0024  1.8443  3.9731
  729SOL     OW 2185   2.139   0.844   2.207 -0.0305  0.1409  0.4006
  729SOL    HW1 2186   2.213   0.828   2.275  1.6377 -1.3192  2.8405
  729SOL    HW2 2187   2.110   0.939   2.209  0.3274  0.8426 -0.2894
  730SOL     OW 2188   1.254   0.742   1.084  0.8495  0.1358 -0.2642
  730SOL    HW1 2189   1.185   0.663   1.089 -2.5429 -2.7959 -1.0666
  730SOL    HW2 2190   1.267   0.775   0.988 -0.0157 -0.6013  3.2038
  731SOL     OW 2191   0.803   0.382   2.993 -0.4123 -0.4633  0.2810
  731SOL    HW1 2192   0.847   0.462   2.952  2.2284 -0.1636 -0.7451
  731SOL    HW2 2193   0.716   0.355   2.944  0.2528 -0.2535 -1.4923
  732SOL     OW 2194   0.431   0.604   0.177  0.2814 -0.2741  0.3210
  732SOL    HW1 2195   0.507   0.552   0.221 -0.2106  0.5645  0.7345
  732SOL    HW2 2196   0.465   0.663   0.097 -1.4346 -0.0224 -3.1295
  733SOL     OW 2197   1.708   1.549   2.669  0.4220 -0.5569  0.2716
  733SOL    HW1 2198   1.650   1.551   2.749 -0.3866 -1.0597 -3.1769
  733SOL    HW2 2199   1.784   1.618   2.676  0.2403 -0.5805 -1.5234
  734SOL     OW 2200   0.301   1.963   2.693 -0.1803 -0.2511 -0.0775
  734SOL    HW1 2201   0.269   1.924   2.782 -1.5960  1.5657  0.4320
  734SOL    HW2 2202   0.258   2.052   2.686  2.6679  1.3939 -0.1323
  735SOL     OW 2203   2.169   0.568   0.985  0.0790 -1.1135 -0.1037
  735SOL    HW1 2204   2.209   0.543   0.895  0.5651  0.1114  2.4394
  735SOL    HW2 2205   2.246   0.573   1.048 -1.8770  1.9026 -0.9375
  736SOL     OW 2206   1.879   1.745   2.800  0.1538  0.0341  0.5050
  736SOL    HW1 2207   1.826   1.792   2.874 -0.5362 -2.6482  0.3547
  736SOL    HW2 2208   1.898   1.814   2.729 -0.1817 -0.5325  0.5378
  737SOL     OW 2209   2.985   0.424   0.506 -0.0199 -0.7336 -0.1858
  737SOL    HW1 2210   2.957   0.522   0.523 -0.3258  3.3318  1.1225
  737SOL    HW2 2211   0.017   0.410   0.513 -3.5906  0.5673  0.0022
  738SOL     OW 2212   0.683   1.973   1.629 -0.1724  0.5371 -0.3229
  738SOL    HW1 2213   0.748   2.050   1.644 -2.6149  0.8401 -2.8540
  738SOL    HW2 2214   0.608   2.001   1.563 -2.8670 -0.5275 -0.9385
  739SOL     OW 2215   1.299   2.733   2.222 -0.0689  0.0540 -0.2043
  739SOL    HW1 2216   1.223   2.706   2.158  1.1755 -0.9166  2.1640
  739SOL    HW2 2217   1.299   2.662   2.296 -0.0694  1.5254  0.7305
  740SOL     OW 2218   2.040   2.214   1.539 -0.7526 -0.0162  0.3556
  740SOL    HW1 2219   1.998   2.184   1.451 -0.2122 -0.3337 -1.6263
  740SOL    HW2 2220   2.072   2.313   1.531 -0.5339  0.2829  0.6497
  741SOL     OW 2221   2.105   0.427   0.292 -0.3019 -0.0048  0.2266
  741SOL    HW1 2222   2.064   0.376   0.212 -1.8516  0.4658 -2.6303
  741SOL    HW2 2223   2.099   0.524   0.278  2.6093 -2.5557 -1.9640
  742SOL     OW 2224   0.980   2.626   2.940 -0.2705 -0.0787 -0.2185
  742SOL    HW1 2225   0.957   2.591   2.848 -2.5985  1.2697  0.0314
  742SOL    HW2 2226   1.018   2.552   3.001 -0.6836 -0.5109  2.4514
  743SOL     OW 2227   2.328   1.027   1.916  0.0023  0.1007 -1.0068
  743SOL    HW1 2228   2.337   1.101   1.989  1.0175  0.2671  1.4910
  743SOL    HW2 2229   2.238   1.032   1.868  1.4534 -2.5632 -1.6873
  744SOL     OW 2230   2.663   0.583   0.583 -0.3991  0.4218 -0.0794
  744SOL    HW1 2231   2.623   0.596   0.490 -0.6974 -1.2030 -0.3625
  744SOL    HW2 2232   2.744   0.645   0.586  0.9570 -0.4262 -0.5728
  745SOL     OW 2233   2.613   1.121   1.767  0.1968 -0.3237 -0.1351
  745SOL    HW1 2234   2.519   1.105   1.803  0.4294 -1.0409 -1.7842
  745SOL    HW2 2235   2.671   1.165   1.838 -1.9996  0.1162 -3.5848
  746SOL     OW 2236   1.312   1.494   0.710 -0.2140 -0.2977 -0.2480
  746SOL    HW1 2237   1.314   1.421   0.778  3.3503 -1.4536  1.6500
  746SOL    HW2 2238   1.298   1.579   0.759  1.5675 -3.5781 -0.4684
  747SOL     OW 2239   1.193   1.665   1.531  0.4584 -1.1753  0.3974
  747SOL    HW1 2240   1.125   1.646   1.607  1.3578  1.5995  0.3022
  747SOL    HW2 2241   1.157   1.732   1.459  2.8970  1.5608 -2.8328
  748SOL     OW 2242   0.123   2.702   3.016  0.6570 -0.1656  0.0997
  748SOL    HW1 2243   0.225   2.702   3.026 -0.9790 -2.1072 -0.2032
  748SOL    HW2 2244   0.079   2.641   0.016 -0.7497 -1.9641  0.1756
  749SOL     OW 2245   0.352   1.170   2.525  0.0080 -0.3359  0.5287
  749SOL    HW1 2246   0.292   1.111   2.470  0.5592 -0.1410  3.2373
  749SOL    HW2 2247   0.441   1.196   2.472  0.0398 -0.0290 -3.1349
  750SOL     OW 2248   1.657   0.894   1.913  0.1474 -0.0115  0.4497
  750SOL    HW1 2249   1.556   0.869   1.913 -3.4661 -0.5919  2.3074
  750SOL    HW2 2250   1.712   0.812   1.930 -0.1112 -0.2292 -1.3659
  751SOL     OW 2251   2.558   0.608   0.328  0.0741  0.5490  0.2793
  751SOL    HW1 2252   2.478   0.547   0.338  0.0509 -0.1064  3.0999
  751SOL    HW2 2253   2.530   0.705   0.333  0.5775 -0.8219 -1.3349
  752SOL     OW 2254   0.028   2.572   1.259 -0.0436 -0.6618 -0.1859
  752SOL    HW1 2255   0.129   2.553   1.271  1.8185  0.0681 -1.8093
  752SOL    HW2 2256   0.015   2.655   1.204 -1.0765 -1.4193 -2.7041
  753SOL     OW 2257   0.652   2.325   1.196 -0.2803  0.1633 -0.0555
  753SOL    HW1 2258   0.725   2.396   1.199 -0.4516 -1.8747  1.6612
  753SOL    HW2 2259   0.704   2.237   1.167 -0.2613  1.2448 -0.6472
  754SOL     OW 2260   0.323   2.803   2.094 -0.6187 -0.1762 -0.3469
  754SOL    HW1 2261   0.221   2.794   2.090  0.3610 -0.5429  0.7070
  754SOL    HW2 2262   0.368   2.710   2.080 -0.6053 -1.6219  3.5261
  755SOL     OW 2263   2.306   0.490   0.441  0.0268 -0.1030 -0.1603
  755SOL    HW1 2264   2.225   0.458   0.382  0.1901 -1.9286 -2.9926
  755SOL    HW2 2265   2.278   0.564   0.509  1.7966  0.4155  0.4575
  756SOL     OW 2266   2.097   2.450   2.794  0.4946  0.4202  0.0392
  756SOL    HW1 2267   2.128   2.530   2.846  0.4930 -0.8536 -0.4495
  756SOL    HW2 2268   2.001   2.418   2.816 -1.9486 -1.2450 -1.0846
  757SOL     OW 2269   2.273   0.471   0.764 -0.1304  0.2475  0.2443
  757SOL    HW1 2270   2.235   0.545   0.704 -0.3768  2.8110 -2.2295
  757SOL    HW2 2271   2.211   0.392   0.773 -3.0271  0.7537  3.2842
  758SOL     OW 2272   2.388   0.792   1.749  0.3756 -0.3993 -0.0976
  758SOL    HW1 2273   2.367   0.883   1.713  0.5458  0.0440 -1.2045
  758SOL    HW2 2274   2.428   0.803   1.843  1.1210  1.5072 -0.1952
  759SOL     OW 2275   2.764   0.766   0.849 -0.1382 -0.3604 -0.0141
  759SOL    HW1 2276   2.837   0.837   0.852 -2.3043  1.4539  0.7627
  759SOL    HW2 2277   2.800   0.670   0.839 -0.9221 -1.0191  0.5832
  760SOL     OW 2278   2.542   1.412   1.292  0.3536 -0.0025 -0.1279
  760SOL    HW1 2279   2.575   1.316   1.299  0.0612 -1.8970  0.2266
  760SOL    HW2 2280   2.617   1.482   1.268  1.2684  1.1282 -1.9183
  761SOL     OW 2281   0.711   0.711   0.227 -0.3231 -0.0431 -0.1674
  761SOL    HW1 2282   0.700   0.809   0.254 -1.8273  1.6315 -1.5138
  761SOL    HW2 2283   0.795   0.699   0.163  2.8896 -0.6693  0.8410
  762SOL     OW 2284   0.874   1.719   0.675  0.4532  0.2403 -0.6018
  762SOL    HW1 2285   0.953   1.778   0.663 -1.5517 -2.0634 -1.2912
  762SOL    HW2 2286   0.804   1.761   0.736  1.6835  0.8356 -0.4228
  763SOL     OW 2287   1.207   0.778   1.471 -0.0852  0.4615  0.4911
  763SOL    HW1 2288   1.187   0.817   1.562 -0.8125 -0.0057 -0.6072
  763SOL    HW2 2289   1.227   0.852   1.406 -2.0157 -0.9925  2.4828
  764SOL     OW 2290   0.509   1.817   2.611 -0.0633  0.1144 -1.0466
  764SOL    HW1 2291   0.509   1.734   2.554  1.9191 -2.5180 -0.1967
  764SOL    HW2 2292   0.418   1.841   2.645  1.1947  0.8613 -2.0923
  765SOL     OW 2293   0.744   2.729   1.737  0.1527 -0.0820 -0.0727
  765SOL    HW1 2294   0.698   2.639   1.720 -1.5547 -1.8382  1.0709
  765SOL    HW2 2295   0.714   2.789   1.665  0.2878 -0.4636  1.0096
  766SOL     OW 2296   2.463   1.818   2.258 -0.3148 -0.1293  0.1018
  766SOL    HW1 2297   2.504   1.909   2.270  0.0385 -2.1076  1.9087
  766SOL    HW2 2298   2.478   1.757   2.339  0.1719 -0.3726  1.2550
  767SOL     OW 2299   1.574   1.178   2.459  0.6976  0.3281  0.1601
  767SOL    HW1 2300   1.547   1.079   2.471 -0.5689  3.3539 -0.8020
  767SOL    HW2 2301   1.489   1.232   2.436 -1.2189 -1.7314 -0.4230
  768SOL     OW 2302   1.502   1.950   0.246 -0.6467  0.7329  0.4651
  768SOL    HW1 2303   1.454   1.903   0.324 -0.1485  0.1874  1.2500
  768SOL    HW2 2304   1.523   1.886   0.168  0.5649 -1.6610 -3.6467
  769SOL     OW 2305   0.556   1.191   1.072  0.0578  0.0325 -0.1789
  769SOL    HW1 2306   0.590   1.275   1.023  0.9713  0.6454 -0.9824
  769SOL    HW2 2307   0.603   1.111   1.038 -0.1005  3.5647  0.1659
  770SOL     OW 2308   1.478   0.916   2.504 -0.4514  0.5121 -0.1577
  770SOL    HW1 2309   1.550   0.911   2.580 -1.8765 -0.3859  0.4517
  770SOL    HW2 2310   1.516   0.868   2.422  0.4380  3.9309  0.0457
  771SOL     OW 2311   2.993   2.971   2.494 -0.3401 -0.6737  0.6135
  771SOL    HW1 2312   2.959   2.876   2.470 -0.4216 -0.2953 -3.0672
  771SOL    HW2 2313   0.021   2.969   2.516  0.7562 -2.2413 -0.0192
  772SOL     OW 2314   1.967   1.858   2.288 -0.1237 -0.2409  0.0040
  772SOL    HW1 2315   1.908   1.841   2.211 -0.2243 -0.2290 -1.0466
  772SOL    HW2 2316   2.067   1.866   2.256  2.8495  1.5764 -2.0047
  773SOL     OW 2317   0.527   1.572   1.548  0.0850 -0.0576  0.4856
  773SOL    HW1 2318   0.625   1.563   1.585  2.4193 -0.0560  0.0018
  773SOL    HW2 2319   0.508   1.496   1.484  0.2105 -0.4047  1.7051
  774SOL     OW 2320   1.236   0.724   2.860  0.0941 -0.2340 -0.2927
  774SOL    HW1 2321   1.158   0.768   2.817  1.0310 -2.0523 -2.4687
  774SOL    HW2 2322   1.199   0.652   2.917  0.5723 -0.2555 -0.7549
  775SOL     OW 2323   1.899   2.878   0.111 -0.0648 -0.2220  0.4745
  775SOL    HW1 2324   1.839   2.819   0.163 -0.5399  1.3165 -0.1621
  775SOL    HW2 2325   1.984   2.888   0.164  2.3559  2.3037  3.0417
  776SOL     OW 2326   0.243   0.507   1.705 -0.2037  0.3604  0.1952
  776SOL    HW1 2327   0.213   0.427   1.762  1.6210  1.1955 -1.1899
  776SOL    HW2 2328   0.343   0.517   1.700 -2.2268 -0.7128 -1.9455
  777SOL     OW 2329   2.200   1.852   2.143  0.0938  0.0142 -0.8307
  777SOL    HW1 2330   2.299   1.858   2.177  3.2527  1.3613  1.2052
  777SOL    HW2 2331   2.179   1.906   2.060 -1.7976 -0.2907  0.8195
  778SOL     OW 2332   1.988   1.083   2.238 -0.1438  0.5589  0.0437
  778SOL    HW1 2333   1.939   1.070   2.150 -0.3984  1.3470 -0.3396
  778SOL    HW2 2334   1.985   1.178   2.269  0.4628  1.5995  2.2697
  779SOL     OW 2335   2.711   0.921   2.964 -1.0573  0.2107 -0.0811
  779SOL    HW1 2336   2.756   0.863   2.895  0.5719  0.4591  0.7986
  779SOL    HW2 2337   2.687   1.014   2.930 -0.6512 -1.3882  0.0521
  780SOL     OW 2338   2.576   0.403   2.378 -0.3241 -0.5475  0.4968
  780SOL    HW1 2339   2.546   0.418   2.477 -0.4335  1.4162  0.8749
  780SOL    HW2 2340   2.499   0.377   2.316  0.3436  0.7993 -0.7528
  781SOL     OW 2341   0.069   1.796   1.507  0.7189  0.0507  0.1773
  781SOL    HW1 2342   0.147   1.858   1.514 -3.5274 -1.3118 -0.4598
  781SOL    HW2 2343   0.057   1.732   1.586 -0.9334 -1.2716 -1.3356
  782SOL     OW 2344   2.579   2.199   3.024 -1.3172  0.0843 -0.0629
  782SOL    HW1 2345   2.653   2.193   0.025 -2.3995 -1.5291  1.1340
  782SOL    HW2 2346   2.498   2.155   3.055  2.1446 -0.0087 -1.5404
  783SOL     OW 2347   0.885   1.203   1.228  0.7112  0.6303 -0.1145
  783SOL    HW1 2348   0.924   1.170   1.316  0.9336 -1.4783  2.1906
  783SOL    HW2 2349   0.937   1.176   1.144  0.1054  0.0818 -1.1575
  784SOL     OW 2350   2.222   0.763   2.891  0.0741  0.4870  0.2372
  784SOL    HW1 2351   2.312   0.789   2.922 -0.7988  1.1712 -1.1657
  784SOL    HW2 2352   2.149   0.753   2.961  2.5130 -1.0716 -0.4968
  785SOL     OW 2353   2.434   2.580   0.625 -0.1756  0.1992 -0.1596
  785SOL    HW1 2354   2.425   2.666   0.682 -0.2288  1.4189  1.6069
  785SOL    HW2 2355   2.384   2.586   0.538  0.2141 -0.5045 -0.3310
  786SOL     OW 2356   0.573   2.124   2.360  0.4524  0.1565 -0.2787
  786SOL    HW1 2357   0.499   2.080   2.302 -0.6845 -0.0223 -0.4155
  786SOL    HW2 2358   0.554   2.110   2.456 -2.0506 -3.0224 -1.2627
  787SOL     OW 2359   1.430   0.435   1.213 -0.2987 -0.2145  0.0905
  787SOL    HW1 2360   1.360   0.471   1.272  0.9515 -0.6994  0.6043
  787SOL    HW2 2361   1.512   0.502   1.204  1.1794  1.6647  0.9441
  788SOL     OW 2362   0.239   0.740   0.346  0.0548 -0.7073  0.0685
  788SOL    HW1 2363   0.301   0.679   0.291 -0.9727 -2.0123  2.1280
  788SOL    HW2 2364   0.162   0.776   0.290  0.1005 -1.0739  1.6254
  789SOL     OW 2365   2.899   2.061   1.257  0.0183  0.0810 -0.1161
  789SOL    HW1 2366   2.946   2.119   1.330 -0.1370  2.6951  0.3385
  789SOL    HW2 2367   2.829   2.115   1.206 -0.8603  1.7997 -0.1538
  790SOL     OW 2368   1.357   0.843   1.858 -0.4791 -0.6526  0.5041
  790SOL    HW1 2369   1.378   0.746   1.890  1.1272  1.0868  0.7811
  790SOL    HW2 2370   1.323   0.895   1.937 -0.4655 -0.5097 -1.3499
  791SOL     OW 2371   1.504   0.561   0.464  0.4317 -0.4178 -0.3677
  791SOL    HW1 2372   1.475   0.555   0.563  0.4085 -1.3544  0.8998
  791SOL    HW2 2373   1.464   0.643   0.419  3.7504  2.2778  1.8570
  792SOL     OW 2374   1.653   2.913   1.859 -0.2622  0.4239  0.4125
  792SOL    HW1 2375   1.607   2.972   1.929 -0.5115 -3.3154 -3.0732
  792SOL    HW2 2376   1.609   2.923   1.766  0.3167  0.8577  0.0201
  793SOL     OW 2377   0.585   2.967   0.654  0.2172 -0.2439  0.1136
  793SOL    HW1 2378   0.676   3.014   0.647  0.2185  1.2860  1.1704
  793SOL    HW2 2379   0.518   3.008   0.586 -4.6419 -0.1513 -1.1999
  794SOL     OW 2380   0.610   0.937   2.218  0.5247 -0.9739  0.3213
  794SOL    HW1 2381   0.642   1.030   2.189  1.9944  2.0567 -1.4420
  794SOL    HW2 2382   0.545   0.899   2.145  0.3604 -0.7439  1.9038
  795SOL     OW 2383   0.265   1.828   2.187  0.2626 -0.1402  0.5728
  795SOL    HW1 2384   0.186   1.807   2.121 -0.5866  0.8275  0.5818
  795SOL    HW2 2385   0.226   1.848   2.280 -0.2722 -1.3901 -0.1777
  796SOL     OW 2386   2.342   1.212   2.102 -0.1025 -0.0070 -0.1954
  796SOL    HW1 2387   2.265   1.215   2.171 -0.1772  0.5924  0.1988
  796SOL    HW2 2388   2.429   1.179   2.141  1.5291 -0.0754  0.7079
  797SOL     OW 2389   2.755   2.742   2.756 -0.1197  0.2455  0.0446
  797SOL    HW1 2390   2.840   2.694   2.790  1.2633 -0.0532 -0.8236
  797SOL    HW2 2391   2.675   2.680   2.755 -0.2065  0.7185  0.5530
  798SOL     OW 2392   2.982   2.021   2.091  0.7664 -0.1302  0.2080
  798SOL    HW1 2393   2.887   2.062   2.095  0.1317  0.2726  0.7147
  798SOL    HW2 2394   3.051   2.099   2.081  0.1346  1.1235 -0.3455
  799SOL     OW 2395   3.033   2.090   2.946 -0.1379 -0.3461 -0.1456
  799SOL    HW1 2396   3.037   2.029   3.025 -3.2589 -0.5467 -0.8345
  799SOL    HW2 2397   3.014   2.035   2.864 -2.6693  0.8998  1.7079
  800SOL     OW 2398   1.384   1.818   0.456 -0.0040 -0.1097  0.6863
  800SOL    HW1 2399   1.283   1.807   0.461 -1.6893 -0.4224  0.3131
  800SOL    HW2 2400   1.427   1.838   0.545  1.6528 -3.4792  0.4727
  801SOL     OW 2401   1.912   0.938   0.863 -0.0227  0.1345  0.6637
  801SOL    HW1 2402   1.975   0.996   0.812  2.4160 -3.6928  0.6616
  801SOL    HW2 2403   1.962   0.872   0.923 -0.4419  0.7997  0.3005
  802SOL     OW 2404   2.948   1.332   0.315  0.0499  0.3452 -0.6080
  802SOL    HW1 2405   2.909   1.301   0.408  0.1368  0.3552  0.3900
  802SOL    HW2 2406   2.974   1.432   0.323  0.4034 -1.9038 -0.6943
  803SOL     OW 2407   1.425   1.744   2.759  0.3384 -0.2781 -0.3729
  803SOL    HW1 2408   1.449   1.831   2.803  1.1300 -1.0134 -1.8925
  803SOL    HW2 2409   1.322   1.742   2.745 -1.0414 -2.3536 -0.9690
  804SOL     OW 2410   1.710   1.714   0.182 -0.0231 -0.6615 -0.1466
  804SOL    HW1 2411   1.649   1.686   0.260  0.2486 -1.9996  1.0915
  804SOL    HW2 2412   1.804   1.736   0.208 -2.1173  3.8376 -2.4833
  805SOL     OW 2413   2.413   1.813   2.975  0.0695 -0.3111 -0.4877
  805SOL    HW1 2414   2.452   1.795   2.883  2.9165  1.9623  0.8602
  805SOL    HW2 2415   2.311   1.795   2.978 -2.4984  1.7060 -2.1855
  806SOL     OW 2416   0.749   3.025   0.327 -0.1180  0.5335  0.0818
  806SOL    HW1 2417   0.685   0.027   0.302 -0.6676  0.8315 -1.4573
  806SOL    HW2 2418   0.804   3.055   0.408  1.0009  1.3842  0.1910
  807SOL     OW 2419   2.099   1.256   2.934 -0.1771 -0.6696 -0.5405
  807SOL    HW1 2420   2.070   1.342   2.975 -1.5535  0.0161  0.9579
  807SOL    HW2 2421   2.028   1.221   2.871 -0.0588 -0.5123 -1.9871
  808SOL     OW 2422   0.010   1.559   0.391  0.4499 -0.1683 -0.3916
  808SOL    HW1 2423   0.096   1.525   0.433 -0.9689  1.3557  0.3681
  808SOL    HW2 2424   3.062   1.660   0.398 -2.1297  1.4749 -0.5472
  809SOL     OW 2425   2.508   1.103   2.822  0.1187  0.2866 -0.4503
  809SOL    HW1 2426   2.405   1.107   2.802 -1.2267 -0.5112 -2.3460
  809SOL    HW2 2427   2.546   1.170   2.894  0.5954  0.0838  1.1222
  810SOL     OW 2428   0.677   1.001   0.187 -0.1488  0.0908 -0.4204
  810SOL    HW1 2429   0.755   1.069   0.175 -0.4047  0.6623 -3.0302
  810SOL    HW2 2430   0.591   1.034   0.148  0.1293 -0.8090  0.6814
  811SOL     OW 2431   1.224   2.498   1.436 -0.1486  0.5742 -0.4910
  811SOL    HW1 2432   1.240   2.573   1.369 -1.0696 -0.1693  0.3644
  811SOL    HW2 2433   1.307   2.481   1.492 -1.6104 -1.6244  2.8129
  812SOL     OW 2434   0.739   2.481   1.618  0.7102  0.0741 -0.3813
  812SOL    HW1 2435   0.798   2.476   1.532 -0.0398 -2.8939 -2.2229
  812SOL    HW2 2436   0.666   2.410   1.606  1.0402  0.8038 -0.2808
  813SOL     OW 2437   1.311   0.362   1.971  0.0623  0.2313  0.0523
  813SOL    HW1 2438   1.404   0.325   1.966 -0.3368  1.2473 -0.9671
  813SOL    HW2 2439   1.273   0.344   2.064 -0.4675  3.6116  1.0585
  814SOL     OW 2440   1.364   2.573   2.769 -0.1023 -0.0744  0.0001
  814SOL    HW1 2441   1.329   2.653   2.711 -0.8069 -0.6944  2.4881
  814SOL    HW2 2442   1.421   2.507   2.711  1.0749 -3.4127  2.4040
  815SOL     OW 2443   0.630   0.089   1.611 -0.3504 -0.0289  0.2629
  815SOL    HW1 2444   0.572   0.015   1.649  0.0786 -0.9032 -0.3987
  815SOL    HW2 2445   0.572   0.169   1.587 -0.9146 -2.3425 -1.2422
  816SOL     OW 2446   2.114   0.452   2.916  0.2625  0.2035  0.4127
  816SOL    HW1 2447   2.199   0.464   2.970  0.8282  0.7420  0.4148
  816SOL    HW2 2448   2.063   0.537   2.907 -0.1858  2.3546 -0.7954
  817SOL     OW 2449   2.113   0.367   2.334  0.7195 -0.3220 -0.2138
  817SOL    HW1 2450   2.147   0.433   2.263  2.2528 -1.1000 -1.9092
  817SOL    HW2 2451   2.070   0.286   2.285 -0.4093 -3.8254  0.2876
  818SOL     OW 2452   1.982   0.282   0.061 -0.0071  0.2139 -0.2042
  818SOL    HW1 2453   2.077   0.242   0.069  1.8796  2.3736  0.6732
  818SOL    HW2 2454   1.982   0.326   3.044  0.5379  0.1867  0.1005
  819SOL     OW 2455   2.321   2.066   3.019  0.5089  0.3265  0.1785
  819SOL    HW1 2456   2.369   1.973   3.000 -0.4440 -2.2609 -1.1575
  819SOL    HW2 2457   2.250   2.055   0.020 -0.3923 -1.3537 -1.2381
  820SOL     OW 2458   3.051   1.879   0.067  0.0492 -0.3498 -0.0691
  820SOL    HW1 2459   2.959   1.895   0.119 -0.5978  0.2392  2.0194
  820SOL    HW2 2460   0.051   1.862   0.139  0.0527 -2.5157 -1.0773
  821SOL     OW 2461   0.199   2.454   0.929 -0.0152  0.4728  0.1079
  821SOL    HW1 2462   0.121   2.414   0.983 -1.7808  0.2638  0.6519
  821SOL    HW2 2463   0.292   2.414   0.955  0.8009  0.6833  1.0317
  822SOL     OW 2464   2.749   2.475   2.928 -0.3501 -0.0323 -0.0776
  822SOL    HW1 2465   2.710   2.471   2.833  0.3891  1.0437 -2.1026
  822SOL    HW2 2466   2.835   2.419   2.926  0.1520  1.7570  0.9323
  823SOL     OW 2467   1.552   0.193   2.455  0.2171 -0.4671  0.0251
  823SOL    HW1 2468   1.611   0.172   2.538  0.3826 -0.2761  1.2459
  823SOL    HW2 2469   1.502   0.275   2.480  0.0414  1.4414 -1.0535
  824SOL     OW 2470   2.648   1.970   1.504 -0.3575 -0.3837 -0.0334
  824SOL    HW1 2471   2.656   2.073   1.504 -0.1906  0.4245 -1.0678
  824SOL    HW2 2472   2.723   1.927   1.452 -1.5205 -0.4940  0.6649
  825SOL     OW 2473   2.656   1.997   2.736  0.1719 -0.4850 -0.0378
  825SOL    HW1 2474   2.650   2.097   2.756 -0.9125  1.8872  0.6748
  825SOL    HW2 2475   2.723   1.969   2.663 -1.2033 -0.0381 -2.8042
  826SOL     OW 2476   2.423   1.476   2.353  0.4730  0.2457  0.6622
  826SOL    HW1 2477   2.332   1.503   2.394 -0.2315  0.4344 -3.0295
  826SOL    HW2 2478   2.480   1.414   2.410 -1.3248  0.2567 -0.7800
  827SOL     OW 2479   2.195   2.380   1.222  0.5995  0.1161 -0.0100
  827SOL    HW1 2480   2.104   2.403   1.256  3.4970 -1.3104 -1.5328
  827SOL    HW2 2481   2.247   2.467   1.214 -2.8099  1.6226  3.6542
  828SOL     OW 2482   2.719   2.952   1.458 -0.1208 -0.2020  0.4941
  828SOL    HW1 2483   2.682   2.922   1.364  0.2474 -0.9114  1.1920
  828SOL    HW2 2484   2.656   3.026   1.488 -1.6443  0.3065 -1.9871
  829SOL     OW 2485   1.648   2.495   2.468  0.4746  0.7978  0.0447
  829SOL    HW1 2486   1.613   2.421   2.530 -1.8169  0.6560  0.6296
  829SOL    HW2 2487   1.712   2.554   2.521 -1.4265 -1.1113  1.7576
  830SOL     OW 2488   1.419   0.587   0.724  0.2562  0.3654  0.1063
  830SOL    HW1 2489   1.449   0.678   0.759  4.1767 -1.0050 -1.2944
  830SOL    HW2 2490   1.404   0.523   0.800 -2.6147 -0.8069 -2.3411
  831SOL     OW 2491   2.663   1.235   2.998 -0.3148  0.4366  0.3473
  831SOL    HW1 2492   2.663   1.230   0.028  0.0707 -0.7541 -1.1293
  831SOL    HW2 2493   2.756   1.256   2.958  3.3624 -1.2948 -1.8727
  832SOL     OW 2494   1.364   1.910   1.890  0.4646  0.3814 -0.0789
  832SOL    HW1 2495   1.364   1.831   1.952 -2.9142  1.1307 -0.7226
  832SOL    HW2 2496   1.444   1.969   1.906 -2.8236 -1.7087  1.6364
  833SOL     OW 2497   3.024   2.982   1.981  0.0886  0.1979  0.1460
  833SOL    HW1 2498   3.068   2.882   1.977  0.0462 -2.2892 -1.4320
  833SOL    HW2 2499   3.037   3.019   2.075 -1.8950 -0.3763 -1.7651
  834SOL     OW 2500   0.899   1.045   1.695  0.1056  0.0304  0.9299
  834SOL    HW1 2501   0.918   1.082   1.598 -0.4519  0.8684 -1.4023
  834SOL    HW2 2502   0.972   0.988   1.734 -1.7094  0.8948  0.7878
  835SOL     OW 2503   2.841   0.817   2.716 -0.3335  0.6184 -0.5989
  835SOL    HW1 2504   2.858   0.863   2.622  1.9688 -0.5932 -2.4855
  835SOL    HW2 2505   2.831   0.717   2.705 -0.7043  1.8568 -1.1226
  836SOL     OW 2506   1.063   1.897   0.603  0.4076  0.1271 -0.0892
  836SOL    HW1 2507   1.143   1.876   0.657 -2.6069  0.2294 -0.3061
  836SOL    HW2 2508   1.095   1.890   0.501  0.4603 -0.5688 -3.8417
  837SOL     OW 2509   1.609   1.378   1.135 -0.0304 -0.6964 -0.7051
  837SOL    HW1 2510   1.611   1.483   1.153  0.7547  2.0483 -0.8253
  837SOL    HW2 2511   1.672   1.330   1.200  1.2292 -1.8731 -0.8735
  838SOL     OW 2512   1.287   1.896   2.299 -0.1042  0.2319 -0.5869
  838SOL    HW1 2513   1.221   1.824   2.324 -0.4795  1.7488 -1.0007
  838SOL    HW2 2514   1.252   1.994   2.305 -2.0326  1.2507  2.4157
  839SOL     OW 2515   0.571   2.105   2.636 -0.1843 -0.4825  0.1026
  839SOL    HW1 2516   0.595   2.006   2.653 -1.8064  1.2573 -0.9448
  839SOL    HW2 2517   0.500   2.137   2.702 -1.7550  1.4388  2.5951
  840SOL     OW 2518   0.647   2.396   0.133  0.4129 -0.2533  0.1990
  840SOL    HW1 2519   0.703   2.330   0.081  0.9078 -1.5777 -0.6637
  840SOL    HW2 2520   0.686   2.492   0.128 -2.2237  3.3125  0.0020
  841SOL     OW 2521   1.907   2.412   0.147 -0.6845 -0.1042 -0.4404
  841SOL    HW1 2522   1.856   2.430   0.058  0.5484  2.0834 -0.8431
  841SOL    HW2 2523   1.972   2.487   0.168  1.6693  2.9415  1.5868
  842SOL     OW 2524   0.878   0.591   2.811 -0.0215  0.3373 -0.2168
  842SOL    HW1 2525   0.790   0.637   2.800  2.7584  0.9584  1.3156
  842SOL    HW2 2526   0.954   0.653   2.778 -0.3960 -1.8039 -2.4148
  843SOL     OW 2527   1.158   2.994   0.470 -0.5848 -0.5492  0.1884
  843SOL    HW1 2528   1.207   0.011   0.489  2.3115 -1.2043 -2.9735
  843SOL    HW2 2529   1.106   2.968   0.553 -0.7701  2.2019 -1.2548
  844SOL     OW 2530   2.383   3.063   2.227 -0.3869  0.4178 -0.4390
  844SOL    HW1 2531   2.484   3.057   2.225  0.3248  2.9266 -0.3711
  844SOL    HW2 2532   2.338   3.050   2.137 -0.8033 -0.3791  4.5154
  845SOL     OW 2533   2.617   2.582   1.249 -0.0202  0.6028  0.4844
  845SOL    HW1 2534   2.599   2.482   1.261  1.6625 -0.1122 -2.4158
  845SOL    HW2 2535   2.592   2.609   1.154  2.8685  2.1975  2.0347
  846SOL     OW 2536   0.166   1.873   2.443  0.0954  0.4123  0.1037
  846SOL    HW1 2537   0.138   1.787   2.494  1.7202 -0.5435 -2.8289
  846SOL    HW2 2538   0.232   1.930   2.495  0.7563 -1.6389 -0.9209
  847SOL     OW 2539   1.529   0.796   1.491  0.2706  0.4280  0.2466
  847SOL    HW1 2540   1.471   0.792   1.406 -0.3883 -2.6981  2.0953
  847SOL    HW2 2541   1.551   0.887   1.532  0.2901 -0.8818  0.4579
  848SOL     OW 2542   2.694   0.158   0.178  0.6649 -0.3753 -0.4933
  848SOL    HW1 2543   2.687   0.103   0.265 -0.1818  0.8227  1.8050
  848SOL    HW2 2544   2.787   0.211   0.173 -1.1892  6.1778  0.5128
  849SOL     OW 2545   0.592   2.891   2.778  0.8311  0.1427  0.3012
  849SOL    HW1 2546   0.586   2.806   2.835 -0.4486  0.1310  0.3608
  849SOL    HW2 2547   0.607   2.965   2.848  0.7058 -0.6891  0.8914
  850SOL     OW 2548   1.043   2.492   0.976  0.5999  0.4439 -0.7317
  850SOL    HW1 2549   1.031   2.496   0.873  0.0945 -0.8353 -3.0462
  850SOL    HW2 2550   1.072   2.401   1.012  0.9645 -3.7307 -2.2876
  851SOL     OW 2551   2.802   0.177   2.147 -0.2172  0.0493 -0.1112
  851SOL    HW1 2552   2.881   0.117   2.180  1.3225  0.0910 -0.9432
  851SOL    HW2 2553   2.821   0.274   2.157 -1.4963 -1.6728  1.7625
  852SOL     OW 2554   2.018   1.318   2.393 -0.0237  0.3502  0.2672
  852SOL    HW1 2555   1.934   1.337   2.446 -1.2524  3.7323  0.8449
  852SOL    HW2 2556   2.079   1.272   2.457 -1.4616  0.1669 -1.0536
  853SOL     OW 2557   2.921   3.012   0.623 -0.4002 -0.1103 -0.0837
  853SOL    HW1 2558   2.963   0.008   0.684 -1.3204 -0.7601  2.9019
  853SOL    HW2 2559   2.846   2.955   0.671  0.2922 -2.2119  2.2323
  854SOL     OW 2560   2.330   1.041   1.324  0.4475  0.7133 -0.0923
  854SOL    HW1 2561   2.401   0.976   1.292 -0.4929  1.6413  0.6003
  854SOL    HW2 2562   2.249   1.039   1.261 -0.0783  0.8083 -0.2434
  855SOL     OW 2563   1.476   2.326   0.443 -0.1225 -0.1430  0.4611
  855SOL    HW1 2564   1.436   2.415   0.420  2.1483 -1.0585 -2.7394
  855SOL    HW2 2565   1.492   2.274   0.354 -0.6831  1.9758 -2.9897
  856SOL     OW 2566   2.953   0.236   2.891 -0.3148 -0.1005  0.0262
  856SOL    HW1 2567   2.929   0.192   2.805 -0.4176 -0.1866 -0.2339
  856SOL    HW2 2568   2.987   0.166   2.960 -0.6245 -2.6907  1.3044
  857SOL     OW 2569   1.398   0.114   1.659  0.0502 -0.1390  0.2613
  857SOL    HW1 2570   1.449   0.201   1.639 -3.2947  0.4057 -0.1676
  857SOL    HW2 2571   1.351   0.128   1.753 -1.3590  4.2948 -0.1274
  858SOL     OW 2572   2.198   2.059   1.689 -0.5202 -0.0883 -0.3266
  858SOL    HW1 2573   2.289   2.036   1.640  0.7825 -0.8830  0.0934
  858SOL    HW2 2574   2.149   2.137   1.644 -1.8025  3.5426  1.7164
  859SOL     OW 2575   1.345   2.352   1.044  0.2785 -0.1328  0.1084
  859SOL    HW1 2576   1.421   2.359   1.116 -1.0634 -0.2641 -1.0658
  859SOL    HW2 2577   1.252   2.336   1.091  0.9564 -0.0082  1.0855
  860SOL     OW 2578   2.356   2.471   0.080  0.0969  0.3663  0.1454
  860SOL    HW1 2579   2.456   2.485   0.062 -1.6981 -0.1824  2.0514
  860SOL    HW2 2580   2.351   2.384   0.139  0.0455 -1.1381  0.7140
  861SOL     OW 2581   1.702   2.981   0.975 -0.0941 -0.5314  0.0149
  861SOL    HW1 2582   1.605   3.008   0.999 -1.1866  1.6013  1.7567
  861SOL    HW2 2583   1.761   2.968   1.060 -0.0239 -0.0630  0.4316
  862SOL     OW 2584   1.974   2.909   2.484 -0.1786 -1.1440  0.3849
  862SOL    HW1 2585   2.064   2.862   2.494  3.0679  0.3377 -2.5393
  862SOL    HW2 2586   1.986   3.010   2.476  2.1725  0.5580  0.4754
  863SOL     OW 2587   0.298   0.721   0.611  0.1775  0.0208 -0.2248
  863SOL    HW1 2588   0.365   0.649   0.636 -2.6260  0.7138  1.8850
  863SOL    HW2 2589   0.283   0.727   0.507  1.1373  0.2777 -0.1421
  864SOL     OW 2590   2.815   2.406   2.155  0.1316  0.6868  0.4633
  864SOL    HW1 2591   2.894   2.368   2.206 -1.6044  0.2481 -0.7856
  864SOL    HW2 2592   2.819   2.507   2.157 -0.7770 -1.5967  1.3856
  865SOL     OW 2593   0.465   1.497   2.751  0.3276  0.5662  0.2707
  865SOL    HW1 2594   0.446   1.558   2.831  0.3744  0.4500 -3.4787
  865SOL    HW2 2595   0.502   1.403   2.779  0.5203  0.7485  2.6568
  866SOL     OW 2596   2.801   0.551   2.678  0.7664 -0.0715 -0.3901
  866SOL    HW1 2597   2.812   0.524   2.776 -1.6498 -0.0957  1.5687
  866SOL    HW2 2598   2.823   0.471   2.620  0.1642  3.3045 -0.8013
  867SOL     OW 2599   0.059   2.955   2.907 -0.1099  0.2392 -0.1551
  867SOL    HW1 2600   0.102   2.872   2.946 -1.9327  0.5049 -1.8083
  867SOL    HW2 2601   0.048   3.022   2.979 -0.1423  1.1245  1.4762
  868SOL     OW 2602   1.354   2.694   0.773  0.3805 -0.0044  0.0589
  868SOL    HW1 2603   1.335   2.756   0.849 -1.7411  1.7759 -1.4099
  868SOL    HW2 2604   1.315   2.599   0.793  0.7540 -3.4169 -1.4975
  869SOL     OW 2605   1.467   1.681   0.919 -0.2209  0.5203  0.4436
  869SOL    HW1 2606   1.517   1.592   0.897 -0.4749 -2.1832  1.5246
  869SOL    HW2 2607   1.443   1.691   1.019  1.4841  0.6923  1.1990
  870SOL     OW 2608   1.890   2.057   1.346 -0.4263  0.4668  0.2669
  870SOL    HW1 2609   1.900   2.018   1.251 -0.1743  0.0272  1.3451
  870SOL    HW2 2610   1.908   1.985   1.417  3.2997 -1.5709 -1.1889
  871SOL     OW 2611   0.792   1.544   1.649 -0.6377 -0.2711  0.1099
  871SOL    HW1 2612   0.800   1.630   1.592  0.5901  1.2140 -1.8213
  871SOL    HW2 2613   0.812   1.453   1.606 -1.0513 -2.8757  1.3636
  872SOL     OW 2614   1.374   1.254   1.236 -0.4099  0.1442  0.3013
  872SOL    HW1 2615   1.397   1.270   1.335  2.6318  1.5816  0.0381
  872SOL    HW2 2616   1.435   1.316   1.183  1.7210 -0.7472  1.1273
  873SOL     OW 2617   1.214   0.905   2.504 -0.3598  0.4529 -0.1310
  873SOL    HW1 2618   1.193   0.999   2.540 -1.6308  1.2869  0.9577
  873SOL    HW2 2619   1.315   0.889   2.498 -1.3743 -2.7243 -0.4882
  874SOL     OW 2620   0.002   1.284   1.442 -0.0730  0.9402  0.4575
  874SOL    HW1 2621   3.048   1.348   1.365 -1.1931 -0.8988  3.4006
  874SOL    HW2 2622   0.103   1.264   1.439  3.8643  1.4435  1.4494
  875SOL     OW 2623   2.738   2.917   0.793 -0.0405  0.3251  0.2768
  875SOL    HW1 2624   2.758   2.953   0.887  0.2508 -0.5986  0.1728
  875SOL    HW2 2625   2.646   2.946   0.758  0.8705  0.3024 -0.6634
  876SOL     OW 2626   1.205   0.338   2.557 -0.0560  0.0951 -0.3090
  876SOL    HW1 2627   1.200   0.233   2.547 -1.8673  1.0083  0.6631
  876SOL    HW2 2628   1.135   0.384   2.498 -0.7275 -0.3351  0.8827
  877SOL     OW 2629   0.205   0.148   1.108  0.0831 -0.2083 -0.2006
  877SOL    HW1 2630   0.191   0.179   1.202 -0.0110  3.0556  0.4220
  877SOL    HW2 2631   0.126   0.097   1.074 -1.1862  0.1516  2.0090
  878SOL     OW 2632   1.989   2.712   2.994 -0.1001 -0.7544 -0.6727
  878SOL    HW1 2633   1.970   2.790   3.053 -0.2908 -1.1204 -0.8303
  878SOL    HW2 2634   2.085   2.675   3.005  0.2434 -2.6263 -1.8154
  879SOL     OW 2635   2.209   1.783   1.816 -0.0006  0.2914 -0.4161
  879SOL    HW1 2636   2.216   1.770   1.711 -0.6007 -1.1076 -3.2661
  879SOL    HW2 2637   2.137   1.722   1.854 -0.2004  3.1092 -0.8725
  880SOL     OW 2638   0.841   0.830   1.425  0.1536 -0.3874  0.0672
  880SOL    HW1 2639   0.837   0.783   1.513  0.6991  4.6342 -0.4454
  880SOL    HW2 2640   0.763   0.887   1.401  0.2288  0.4303 -0.1995
  881SOL     OW 2641   1.014   1.811   3.007 -0.1514 -0.2781 -0.8501
  881SOL    HW1 2642   0.982   1.894   2.954  0.4004 -0.2836 -0.2945
  881SOL    HW2 2643   1.117   1.811   3.026  1.4846  1.7616 -2.0940
  882SOL     OW 2644   1.784   0.543   0.748 -0.1247  0.2551  0.5441
  882SOL    HW1 2645   1.717   0.468   0.740 -3.7096  0.2027 -0.9619
  882SOL    HW2 2646   1.840   0.527   0.831 -2.8350  1.0413 -0.0501
  883SOL     OW 2647   1.766   0.631   1.950 -0.0948  0.2996 -0.1646
  883SOL    HW1 2648   1.811   0.637   2.039 -2.4543 -0.5429 -3.0830
  883SOL    HW2 2649   1.830   0.589   1.881 -0.1953  1.0302 -0.6992
  884SOL     OW 2650   2.431   0.276   0.143  0.0731  0.0485 -0.1794
  884SOL    HW1 2651   2.523   0.242   0.129 -2.2181  0.7968  0.0981
  884SOL    HW2 2652   2.415   0.356   0.082 -0.6228 -0.3134  0.7670
  885SOL     OW 2653   0.610   2.006   0.570  0.4647 -0.7302  0.6828
  885SOL    HW1 2654   0.549   2.040   0.496  0.4213 -2.6565 -0.9838
  885SOL    HW2 2655   0.564   2.020   0.659 -1.1924  0.0537  0.4418
  886SOL     OW 2656   1.687   1.464   0.121  0.1117 -0.0689  0.0506
  886SOL    HW1 2657   1.610   1.426   0.177 -0.2786 -1.7707 -0.6205
  886SOL    HW2 2658   1.698   1.566   0.139  1.2235  2.4558  0.1907
  887SOL     OW 2659   1.441   0.565   1.577  0.1190  0.0350 -0.1441
  887SOL    HW1 2660   1.395   0.523   1.492 -0.2899 -0.2313  1.2884
  887SOL    HW2 2661   1.468   0.665   1.561 -0.0427  0.7906 -2.6401
  888SOL     OW 2662   2.929   1.108   1.577 -0.2238 -0.5252  0.3960
  888SOL    HW1 2663   2.962   1.191   1.528  0.5744  0.7411 -1.6189
  888SOL    HW2 2664   2.830   1.096   1.554  0.7056  1.4762  4.3625
  889SOL     OW 2665   2.951   2.345   0.892  0.4936 -0.3124  0.9281
  889SOL    HW1 2666   2.966   2.437   0.844  1.4414  0.3788 -3.3957
  889SOL    HW2 2667   2.981   2.338   0.988 -2.2911 -0.1734  1.1794
  890SOL     OW 2668   3.052   2.345   2.295  0.3228  0.2658 -0.0317
  890SOL    HW1 2669   0.042   2.335   2.375 -1.2612 -4.8691 -1.4802
  890SOL    HW2 2670   0.031   2.316   2.207  1.7183 -1.8997  0.4407
  891SOL     OW 2671   0.653   1.582   0.202 -0.2368  0.2966  0.0923
  891SOL    HW1 2672   0.638   1.682   0.173 -0.4934  1.3157  1.4174
  891SOL    HW2 2673   0.701   1.584   0.289 -0.1045  2.3148  2.6738
  892SOL     OW 2674   2.998   2.193   1.481 -0.2200 -0.4097 -0.6223
  892SOL    HW1 2675   2.967   2.131   1.557 -0.0386 -0.1738 -0.0662
  892SOL    HW2 2676   3.028   2.285   1.511  0.5299  0.8369 -1.0801
  893SOL     OW 2677   0.172   3.029   1.599 -0.0587  0.1416 -0.4592
  893SOL    HW1 2678   0.106   0.004   1.666  1.2077 -0.4216  1.5168
  893SOL    HW2 2679   0.135   2.938   1.569  1.6933 -0.5394  2.0572
  894SOL     OW 2680   2.530   1.822   0.880  0.1360  0.3186  0.3233
  894SOL    HW1 2681   2.602   1.821   0.955  2.3137  0.7641  0.4737
  894SOL    HW2 2682   2.525   1.913   0.828  1.0610  3.3573  0.9633
  895SOL     OW 2683   2.114   2.464   1.529 -0.3692  0.3200 -0.2214
  895SOL    HW1 2684   2.061   2.526   1.589  2.7663 -1.1345  1.2497
  895SOL    HW2 2685   2.177   2.513   1.461 -1.5799 -0.6854 -0.2502
  896SOL     OW 2686   0.801   3.047   1.438  0.2438  0.1051  0.3343
  896SOL    HW1 2687   0.735   0.027   1.494  0.8031  0.3253 -1.7734
  896SOL    HW2 2688   0.785   2.948   1.456 -2.5393 -0.4855 -2.7955
  897SOL     OW 2689   1.017   1.073   1.428 -0.0834 -0.1805  0.2625
  897SOL    HW1 2690   0.974   0.981   1.441 -1.4381  1.4315 -1.0937
  897SOL    HW2 2691   1.097   1.071   1.360  2.0436 -1.4420 -5.8093
  898SOL     OW 2692   1.403   2.775   1.470  0.2550 -0.3373  0.5349
  898SOL    HW1 2693   1.474   2.701   1.484 -1.6167  0.1508 -1.8427
  898SOL    HW2 2694   1.371   2.775   1.370  1.3715  0.3256 -0.2705
  899SOL     OW 2695   1.243   0.375   2.844 -0.1677  0.8287 -0.3772
  899SOL    HW1 2696   1.330   0.332   2.876 -1.7534 -2.0941 -1.0389
  899SOL    HW2 2697   1.216   0.344   2.750  0.5361 -2.2966 -3.4316
  900SOL     OW 2698   1.102   2.677   2.047  0.9607 -0.2654  0.1714
  900SOL    HW1 2699   1.055   2.593   2.068 -1.2813  3.9562  0.8913
  900SOL    HW2 2700   1.076   2.723   1.959 -1.1280  1.0203  0.0633
  901SOL     OW 2701   0.857   2.027   0.260 -0.2490  0.0121 -0.0234
  901SOL    HW1 2702   0.874   2.050   0.357  2.2672 -2.3252  1.2934
  901SOL    HW2 2703   0.900   1.939   0.236 -0.7713 -0.2071 -0.3127
  902SOL     OW 2704   1.628   1.027   1.266 -0.1961 -0.4467 -0.3636
  902SOL    HW1 2705   1.574   0.943   1.242  0.5343 -0.1999 -0.2647
  902SOL    HW2 2706   1.697   1.048   1.194 -1.3626 -1.8459  0.3450
  903SOL     OW 2707   2.595   0.975   2.609 -0.2001 -0.3797  0.1012
  903SOL    HW1 2708   2.586   1.038   2.689  0.4880 -1.0065 -0.5228
  903SOL    HW2 2709   2.523   0.991   2.539  0.5625 -1.6070  1.4350
  904SOL     OW 2710   1.071   1.205   0.020 -0.2231 -0.5358 -0.4019
  904SOL    HW1 2711   1.141   1.172   0.087 -1.9441  1.5292 -2.2380
  904SOL    HW2 2712   1.098   1.165   3.001  2.7738 -2.9592  0.7831
  905SOL     OW 2713   1.792   2.961   1.224  0.3850 -0.6166 -0.0932
  905SOL    HW1 2714   1.749   3.025   1.289  0.1908 -1.2095  0.4923
  905SOL    HW2 2715   1.829   2.880   1.270  3.7669  3.1285 -2.2045
  906SOL     OW 2716   2.323   2.786   0.777  0.2712 -0.3636  0.1103
  906SOL    HW1 2717   2.318   2.873   0.719 -2.0219  1.4883 -0.3371
  906SOL    HW2 2718   2.356   2.809   0.869  0.0710  1.0419 -1.6621
  907SOL     OW 2719   1.371   0.815   0.477 -0.6264 -0.1558  0.2100
  907SOL    HW1 2720   1.448   0.855   0.525 -1.5566  1.6667 -1.6746
  907SOL    HW2 2721   1.288   0.828   0.527  3.4128  1.5961  0.8102
  908SOL     OW 2722   1.748   0.263   1.164  0.0036  0.0874 -0.0063
  908SOL    HW1 2723   1.711   0.353   1.139  1.1610 -1.2737  0.2745
  908SOL    HW2 2724   1.689   0.212   1.231 -4.8877 -0.9022  1.4941
  909SOL     OW 2725   1.907   0.460   0.976  0.3650 -0.2598  0.5547
  909SOL    HW1 2726   1.917   0.367   1.010  1.4011  0.9231  0.5996
  909SOL    HW2 2727   2.000   0.505   0.976 -0.2921  0.2331  0.0595
  910SOL     OW 2728   2.408   0.549   2.089  0.4101 -0.5059  0.3405
  910SOL    HW1 2729   2.464   0.628   2.063 -0.7322  1.0606 -0.7405
  910SOL    HW2 2730   2.310   0.560   2.061  0.7389 -0.0727  0.7054
  911SOL     OW 2731   2.485   0.423   2.650  0.3307  0.6115 -0.4745
  911SOL    HW1 2732   2.423   0.507   2.641  1.1976  1.0178 -0.1730
  911SOL    HW2 2733   2.517   0.404   2.746  1.4553  1.8444 -0.2571
  912SOL     OW 2734   0.640   0.979   1.729 -0.6078  0.2251 -0.0968
  912SOL    HW1 2735   0.727   1.023   1.728  0.6619 -0.6136  2.6725
  912SOL    HW2 2736   0.581   0.994   1.643 -1.7037 -1.4213 -0.6379
  913SOL     OW 2737   2.717   2.247   1.484 -0.3836 -0.5826 -0.1614
  913SOL    HW1 2738   2.715   2.249   1.584 -1.7327  1.0231 -0.5642
  913SOL    HW2 2739   2.800   2.296   1.446  0.5038  1.5836  0.6893
  914SOL     OW 2740   1.948   0.976   1.521  0.3795 -0.4173  0.1211
  914SOL    HW1 2741   1.990   1.071   1.517 -1.5400 -1.3314 -0.2317
  914SOL    HW2 2742   1.847   0.981   1.540 -0.5022  0.9124  0.2054
  915SOL     OW 2743   2.698   1.167   0.801 -0.1485 -0.1794  0.2770
  915SOL    HW1 2744   2.621   1.189   0.866 -0.0466 -0.1224  1.5774
  915SOL    HW2 2745   2.786   1.160   0.849  0.1385 -0.6252 -1.2258
  916SOL     OW 2746   1.919   2.443   1.242  0.2872 -0.0111 -0.1427
  916SOL    HW1 2747   1.853   2.490   1.177 -3.0162  2.8829  0.3064
  916SOL    HW2 2748   1.867   2.381   1.301  2.5096  0.4295 -1.0679
  917SOL     OW 2749   1.815   2.811   2.298  0.5964 -0.6763  0.1540
  917SOL    HW1 2750   1.710   2.835   2.302 -0.4499  0.1776  0.4555
  917SOL    HW2 2751   1.866   2.851   2.380 -4.3343  0.8478  0.8314
  918SOL     OW 2752   1.762   2.862   2.662  0.8682 -0.2709  0.7486
  918SOL    HW1 2753   1.765   2.936   2.734  0.4109  0.1511  0.1228
  918SOL    HW2 2754   1.852   2.864   2.609  1.0773  2.5675  2.9454
  919SOL     OW 2755   1.019   0.126   1.391  0.1157 -0.0023 -0.2859
  919SOL    HW1 2756   0.939   0.066   1.390 -2.0915  1.8262 -0.3631
  919SOL    HW2 2757   1.105   0.072   1.405  2.6201 -0.7227 -2.1244
  920SOL     OW 2758   2.772   0.443   2.178 -0.3653 -0.2603 -0.5253
  920SOL    HW1 2759   2.677   0.445   2.213 -0.2733 -1.3260  1.3689
  920SOL    HW2 2760   2.827   0.508   2.234 -2.2281 -3.2235 -0.1022
  921SOL     OW 2761   2.991   0.984   1.806  0.1106  0.3767 -0.0651
  921SOL    HW1 2762   0.016   0.951   1.782 -0.3967 -0.6888 -0.5388
  921SOL    HW2 2763   2.950   1.038   1.730  0.3316  1.9853 -1.7452
  922SOL     OW 2764   2.600   2.358   0.655  0.2934 -0.0559  0.3830
  922SOL    HW1 2765   2.673   2.370   0.586  1.7912 -0.2156 -0.8531
  922SOL    HW2 2766   2.536   2.439   0.645 -1.4870 -1.9239 -3.4955
  923SOL     OW 2767   0.630   2.383   0.602  0.0551  0.5992 -0.5955
  923SOL    HW1 2768   0.633   2.320   0.521  0.2848 -0.3634  0.4758
  923SOL    HW2 2769   0.563   2.342   0.667 -0.5562 -0.2580  2.7960
  924SOL     OW 2770   1.029   0.798   2.672 -0.1965 -0.1615 -0.1779
  924SOL    HW1 2771   0.956   0.870   2.677  0.4264 -0.9439  0.6692
  924SOL    HW2 2772   1.100   0.810   2.597  3.7602  3.3719  0.6716
  925SOL     OW 2773   2.416   1.193   0.616 -0.3238  0.2207  0.0121
  925SOL    HW1 2774   2.508   1.159   0.632 -2.0396  1.4210 -2.5543
  925SOL    HW2 2775   2.390   1.259   0.684 -1.0729  0.9761 -1.0075
  926SOL     OW 2776   0.444   0.264   1.050  0.3613 -0.3558 -0.0475
  926SOL    HW1 2777   0.534   0.217   1.075 -1.5849 -0.6547 -0.7038
  926SOL    HW2 2778   0.362   0.211   1.078  1.4058  1.9921 -1.8835
  927SOL     OW 2779   0.534   1.566   2.491 -0.2931 -0.1747  0.0319
  927SOL    HW1 2780   0.519   1.520   2.582 -2.1593  1.9286 -1.7046
  927SOL    HW2 2781   0.467   1.533   2.420  2.4062 -0.9054  0.2894
  928SOL     OW 2782   0.105   0.407   2.090  0.2850  0.1837 -0.0380
  928SOL    HW1 2783   0.046   0.351   2.149  2.0422  0.4545  0.4618
  928SOL    HW2 2784   0.120   0.358   1.998 -0.2191 -1.9148 -0.4881
  929SOL     OW 2785   2.859   2.494   1.390 -0.0184  0.6725 -0.4795
  929SOL    HW1 2786   2.935   2.520   1.325 -1.7027 -1.6182  0.9707
  929SOL    HW2 2787   2.775   2.550   1.381 -2.0583  1.6403 -1.2396
  930SOL     OW 2788   1.979   0.239   1.973 -0.1459  0.2256 -0.6426
  930SOL    HW1 2789   2.027   0.329   1.968  0.3294  1.3580  0.3726
  930SOL    HW2 2790   2.014   0.194   2.058 -0.1833 -1.3745 -0.2174
  931SOL     OW 2791   2.236   1.079   2.774  0.2019  0.5313 -0.4050
  931SOL    HW1 2792   2.192   1.141   2.840 -3.2058 -3.4704  0.3452
  931SOL    HW2 2793   2.202   0.984   2.793  1.0637  0.0312  0.0865
  932SOL     OW 2794   1.807   1.335   0.682  0.5005 -0.2576 -0.3586
  932SOL    HW1 2795   1.842   1.241   0.710  1.2193 -0.4246  1.4423
  932SOL    HW2 2796   1.803   1.338   0.580 -0.9132  1.8886  0.9648
  933SOL     OW 2797   1.816   1.747   1.149 -0.1125 -0.0591  0.3271
  933SOL    HW1 2798   1.808   1.704   1.055  0.0606 -2.0103 -1.0831
  933SOL    HW2 2799   1.789   1.680   1.225 -0.8945 -0.7490 -0.2383
  934SOL     OW 2800   2.012   0.919   2.667  0.2073  0.3402 -0.1577
  934SOL    HW1 2801   2.033   0.862   2.751 -0.2366 -0.6990  1.0635
  934SOL    HW2 2802   2.046   0.870   2.583 -0.0741 -0.6410  1.6666
  935SOL     OW 2803   0.098   1.190   0.606  0.0549  0.0338  0.5510
  935SOL    HW1 2804   0.124   1.185   0.504  0.2077  0.4853 -3.9752
  935SOL    HW2 2805   0.009   1.143   0.621  1.2156  2.5107  0.6851
  936SOL     OW 2806   0.132   2.738   0.962 -0.5080 -0.0883 -0.3094
  936SOL    HW1 2807   0.187   2.811   1.013  2.5993  4.1149  1.8017
  936SOL    HW2 2808   0.168   2.646   0.983  1.3888  0.7778 -0.6629
  937SOL     OW 2809   2.952   2.282   1.852  0.2586 -0.0127  0.2020
  937SOL    HW1 2810   2.926   2.384   1.847 -0.9284  1.6108 -1.4440
  937SOL    HW2 2811   3.024   2.269   1.919 -1.0322 -0.6531 -1.6876
  938SOL     OW 2812   2.802   2.255   0.140  0.7010 -0.0101  0.5827
  938SOL    HW1 2813   2.880   2.296   0.090  4.8141  0.3080 -0.9694
  938SOL    HW2 2814   2.798   2.292   0.236  0.5140  0.3056 -2.8992
  939SOL     OW 2815   1.230   1.007   1.272  0.2235  0.3826 -0.2054
  939SOL    HW1 2816   1.289   1.090   1.267  0.6299 -0.6224  0.1031
  939SOL    HW2 2817   1.215   0.964   1.179  1.5752 -2.3108 -1.5848
  940SOL     OW 2818   2.835   0.356   2.497 -0.3670  0.2147  0.1781
  940SOL    HW1 2819   2.749   0.356   2.450  4.9100  1.3252 -0.8089
  940SOL    HW2 2820   2.854   0.265   2.545  1.4289 -1.9597  1.4894
  941SOL     OW 2821   2.544   2.585   2.668 -0.2280  0.4800  0.3108
  941SOL    HW1 2822   2.584   2.624   2.585 -0.1895  0.4344  0.6124
  941SOL    HW2 2823   2.495   2.497   2.640  0.8396 -2.3813  1.4959
  942SOL     OW 2824   1.410   0.164   1.190  0.0969 -0.3803 -0.2704
  942SOL    HW1 2825   1.405   0.120   1.285  0.9718  3.2546 -0.0231
  942SOL    HW2 2826   1.437   0.261   1.190 -1.0528 -1.8314 -1.0025
  943SOL     OW 2827   1.011   1.254   2.130 -0.3120  0.4572 -0.3096
  943SOL    HW1 2828   1.004   1.157   2.091 -3.2261 -2.0041  1.5305
  943SOL    HW2 2829   0.937   1.308   2.095  0.8774 -1.8109  0.4164
  944SOL     OW 2830   2.144   1.028   1.147  0.0156  0.1825 -0.0806
  944SOL    HW1 2831   2.086   0.947   1.135  0.7428 -0.9158 -2.5488
  944SOL    HW2 2832   2.100   1.117   1.157  0.1083 -1.3548 -1.2103
  945SOL     OW 2833   2.855   2.966   2.888  0.3782  0.2191  0.2880
  945SOL    HW1 2834   2.813   2.893   2.829  0.6267 -2.0374  0.4002
  945SOL    HW2 2835   2.953   2.954   2.898 -2.7485 -2.6199 -1.9641
  946SOL     OW 2836   3.020   1.382   1.675 -0.6612 -0.7380  0.3198
  946SOL    HW1 2837   3.046   1.360   1.581  0.8366  0.7609  1.2759
  946SOL    HW2 2838   3.019   1.303   1.732 -0.0753  1.7141  0.3208
  947SOL     OW 2839   0.894   2.944   0.107  0.1164  0.1316  0.0923
  947SOL    HW1 2840   0.852   2.957   0.198 -1.3004  2.2588  0.6161
  947SOL    HW2 2841   0.835   2.973   0.031  1.8240  0.2897 -2.4528
  948SOL     OW 2842   2.323   1.649   1.067  0.2221 -0.0591 -0.3377
  948SOL    HW1 2843   2.382   1.685   1.145 -1.1670  0.2636  0.6261
  948SOL    HW2 2844   2.303   1.721   1.001 -0.2998 -0.1059  1.3016
  949SOL     OW 2845   0.238   0.844   2.724 -0.1811 -0.4613  0.1482
  949SOL    HW1 2846   0.153   0.849   2.782 -2.4816  2.3772 -0.2614
  949SOL    HW2 2847   0.305   0.917   2.736  0.1926 -0.8743 -0.6941
  950SOL     OW 2848   0.414   2.293   1.336 -0.0230  0.4557 -0.2284
  950SOL    HW1 2849   0.375   2.387   1.330 -0.5595 -0.9618 -0.0922
  950SOL    HW2 2850   0.503   2.290   1.291 -3.3595 -0.0326 -1.0131
  951SOL     OW 2851   0.924   1.623   2.663 -0.3342 -0.1072 -0.5449
  951SOL    HW1 2852   0.884   1.623   2.755 -0.5041 -2.4287 -2.5670
  951SOL    HW2 2853   0.853   1.604   2.593  0.3325 -0.4439 -0.2644
  952SOL     OW 2854   0.718   1.253   0.522  0.0017 -0.4990 -0.7418
  952SOL    HW1 2855   0.746   1.165   0.558  2.5105 -2.2452 -1.1111
  952SOL    HW2 2856   0.622   1.277   0.551 -2.0575  0.1444  3.1389
  953SOL     OW 2857   2.416   2.354   2.603 -0.4492  0.3241 -0.4432
  953SOL    HW1 2858   2.394   2.299   2.522 -0.7778  0.1681  2.2638
  953SOL    HW2 2859   2.362   2.317   2.684  3.0472 -2.4448 -0.5833
  954SOL     OW 2860   1.673   0.787   0.792  0.3982 -0.1209  0.0256
  954SOL    HW1 2861   1.702   0.691   0.800 -1.5568 -1.1423 -1.7487
  954SOL    HW2 2862   1.757   0.843   0.814 -1.5783  0.0511 -2.3446
  955SOL     OW 2863   0.618   1.864   0.231 -0.2987  0.2355  0.3989
  955SOL    HW1 2864   0.709   1.907   0.254  0.0565 -0.9670 -2.7579
  955SOL    HW2 2865   0.545   1.916   0.280  0.0858  0.7942 -2.8252
  956SOL     OW 2866   2.601   0.356   1.792  0.2761  0.7066 -0.3979
  956SOL    HW1 2867   2.675   0.420   1.820 -1.0144 -0.0434 -0.4000
  956SOL    HW2 2868   2.571   0.308   1.876 -1.5412  0.2830 -0.6252
  957SOL     OW 2869   1.808   2.312   1.698 -0.2367 -0.4140 -0.1746
  957SOL    HW1 2870   1.897   2.343   1.729 -1.7650 -1.5101 -1.9945
  957SOL    HW2 2871   1.792   2.214   1.709  0.7865  3.4924 -1.5504
  958SOL     OW 2872   1.680   0.994   1.626 -0.1195 -0.5069 -0.8490
  958SOL    HW1 2873   1.641   0.954   1.710  0.5435  0.7861 -3.5446
  958SOL    HW2 2874   1.655   1.091   1.610 -0.8642 -0.8916  3.7099
  959SOL     OW 2875   1.554   2.112   2.235  0.4929 -0.4036 -0.2013
  959SOL    HW1 2876   1.647   2.134   2.204 -2.4876 -1.9227  0.0888
  959SOL    HW2 2877   1.562   2.069   2.326  0.1943  0.4257 -0.1608
  960SOL     OW 2878   0.628   0.658   2.677  0.4324 -0.3095  0.2656
  960SOL    HW1 2879   0.526   0.640   2.702 -0.9436  0.8167  1.4088
  960SOL    HW2 2880   0.654   0.614   2.592  0.5625  0.4887  1.2199
  961SOL     OW 2881   3.038   0.951   2.820 -0.2191  0.3262 -0.1222
  961SOL    HW1 2882   2.958   0.898   2.795 -1.6438  0.5653 -1.1145
  961SOL    HW2 2883   3.049   1.038   2.763  3.8951 -0.6829 -1.8000
  962SOL     OW 2884   0.863   1.970   2.831  0.0086 -0.3216  0.2176
  962SOL    HW1 2885   0.778   1.921   2.852 -0.7032  0.3657 -1.0339
  962SOL    HW2 2886   0.857   2.007   2.736 -0.7035 -0.2932 -0.6253
  963SOL     OW 2887   2.846   1.973   0.217  0.4965 -0.3778  0.4267
  963SOL    HW1 2888   2.756   1.945   0.180 -1.8276  0.2895 -0.1070
  963SOL    HW2 2889   2.840   2.074   0.238  0.9611 -0.0176  0.3304
  964SOL     OW 2890   0.828   2.147   2.218  0.3490  0.2693 -0.1099
  964SOL    HW1 2891   0.733   2.118   2.248 -0.9733 -1.1042  0.0189
  964SOL    HW2 2892   0.837   2.245   2.245 -0.3404 -0.0470 -0.0364
  965SOL     OW 2893   1.567   1.915   1.190 -0.0636 -0.1566  0.1041
  965SOL    HW1 2894   1.548   1.954   1.282 -0.2157  0.4033  0.1107
  965SOL    HW2 2895   1.663   1.899   1.163 -2.3701  1.1099 -1.0926
  966SOL     OW 2896   3.004   1.611   0.002  0.4070  0.1497 -0.3759
  966SOL    HW1 2897   3.024   1.709   0.005 -0.9191 -1.4203 -1.2619
  966SOL    HW2 2898   3.069   1.556   0.057 -0.4068  0.9815  2.0001
  967SOL     OW 2899   1.953   2.965   2.132  0.0992  0.4796  0.1400
  967SOL    HW1 2900   1.908   2.899   2.193  1.5239  1.6140 -0.2725
  967SOL    HW2 2901   1.962   2.937   2.033 -1.2820  0.7775 -2.2186
  968SOL     OW 2902   0.908   0.693   0.047 -0.2010 -0.3158  0.0389
  968SOL    HW1 2903   0.879   0.764   3.051 -0.3558 -1.0684 -0.9932
  968SOL    HW2 2904   0.981   0.632   0.008  3.6937 -1.7257  1.8256
  969SOL     OW 2905   0.550   1.278   2.367  0.6488 -0.3228  0.5632
  969SOL    HW1 2906   0.473   1.334   2.327 -2.6348  0.8476 -1.8303
  969SOL    HW2 2907   0.599   1.239   2.288 -2.0840  0.8682  0.6267
  970SOL     OW 2908   2.049   2.808   0.819  0.2818 -0.2924 -0.6672
  970SOL    HW1 2909   1.967   2.805   0.758 -1.2348 -2.1470 -1.1631
  970SOL    HW2 2910   2.132   2.782   0.775 -0.8455  0.6528  1.6712
  971SOL     OW 2911   1.969   2.281   0.644 -0.3368 -0.0868 -0.1518
  971SOL    HW1 2912   1.956   2.319   0.737  0.0416  1.8767  1.6994
  971SOL    HW2 2913   2.034   2.333   0.582 -1.5244 -0.9575 -0.7701
  972SOL     OW 2914   0.030   1.202   2.694  0.1684  0.4698 -0.3557
  972SOL    HW1 2915   0.001   1.186   2.597 -2.1448 -0.6418  0.8094
  972SOL    HW2 2916   0.097   1.283   2.704 -0.6218  1.4896 -0.2819
  973SOL     OW 2917   0.591   0.203   0.212  0.1495  0.1499  0.2381
  973SOL    HW1 2918   0.678   0.249   0.202 -1.8548  0.1377 -0.4771
  973SOL    HW2 2919   0.543   0.199   0.125  2.4672 -0.5834  1.0050
  974SOL     OW 2920   2.488   0.822   2.000 -0.0945 -0.5883 -0.0056
  974SOL    HW1 2921   2.568   0.855   2.051  1.2396  1.9937 -2.1667
  974SOL    HW2 2922   2.415   0.901   1.993 -0.9447  3.9003  0.1158
  975SOL     OW 2923   3.057   0.077   0.818 -0.0342  0.1072 -0.1899
  975SOL    HW1 2924   3.037   0.056   0.916 -0.5814 -0.1569  1.7452
  975SOL    HW2 2925   3.026   0.168   0.792 -0.4080 -2.2576 -1.9826
  976SOL     OW 2926   0.635   1.644   1.264  0.3834  0.0657  0.5057
  976SOL    HW1 2927   0.564   1.571   1.276  1.1117  0.1498  1.3037
  976SOL    HW2 2928   0.725   1.622   1.310  0.7749 -1.7879  0.8125
  977SOL     OW 2929   1.193   2.044   0.165  0.1746 -0.1590  0.3089
  977SOL    HW1 2930   1.272   2.067   0.106 -1.4401 -0.8340 -0.5345
  977SOL    HW2 2931   1.143   2.128   0.203 -0.9726  0.9002 -1.2749
  978SOL     OW 2932   0.045   0.616   3.051 -0.3922  0.5013 -0.1059
  978SOL    HW1 2933   3.064   0.589   2.968  1.0565 -1.7741  2.3204
  978SOL    HW2 2934   0.111   0.543   0.008 -0.3053  0.8711  1.8629
  979SOL     OW 2935   1.787   1.701   0.867  0.3548 -0.2737  0.0647
  979SOL    HW1 2936   1.708   1.642   0.835  0.6913 -0.2106 -0.0684
  979SOL    HW2 2937   1.765   1.797   0.845  0.8995 -1.6920 -1.7340
  980SOL     OW 2938   0.548   2.019   1.931  0.3137 -0.0969  0.1357
  980SOL    HW1 2939   0.625   1.957   1.914  0.9035  0.4051 -0.6398
  980SOL    HW2 2940   0.576   2.107   1.885  2.0954  1.7679 -0.7553
  981SOL     OW 2941   2.316   1.430   2.682 -0.3335 -0.5422  0.6281
  981SOL    HW1 2942   2.393   1.476   2.735  0.4477  1.4865  1.9294
  981SOL    HW2 2943   2.257   1.500   2.634 -3.0864  0.6567 -0.8906
  982SOL     OW 2944   0.177   2.076   1.794  0.3690 -0.0224 -0.4345
  982SOL    HW1 2945   0.088   2.066   1.747 -1.7872 -0.5258  3.7852
  982SOL    HW2 2946   0.236   2.000   1.777 -2.8263  3.6852 -1.7597
  983SOL     OW 2947   1.581   0.347   1.670  0.4968 -0.5098 -0.3818
  983SOL    HW1 2948   1.549   0.443   1.654 -2.0160  1.6883  1.3369
  983SOL    HW2 2949   1.673   0.334   1.624  1.9967  0.7424  0.2656
  984SOL     OW 2950   2.675   2.816   0.037 -0.3288 -0.3677  0.1358
  984SOL    HW1 2951   2.712   2.836   3.016  0.5146  2.0235  0.4919
  984SOL    HW2 2952   2.665   2.712   0.047 -1.6990 -2.1433 -1.0392
  985SOL     OW 2953   1.417   1.212   1.921 -0.5162  0.0774 -0.2346
  985SOL    HW1 2954   1.425   1.312   1.909 -0.5296 -1.0242  0.0051
  985SOL    HW2 2955   1.436   1.178   2.015  0.9273 -0.7281 -1.6048
  986SOL     OW 2956   1.985   0.157   2.528 -0.1162 -0.3146  0.0798
  986SOL    HW1 2957   2.077   0.145   2.487  0.6792  0.8144  0.2097
  986SOL    HW2 2958   2.001   0.171   2.628 -2.1147  1.9262 -0.7791
  987SOL     OW 2959   2.700   1.741   2.831 -0.4336  0.8466  0.4027
  987SOL    HW1 2960   2.797   1.711   2.820 -0.9373  2.6464 -3.8977
  987SOL    HW2 2961   2.693   1.841   2.821 -0.0522 -4.2548  1.4250
  988SOL     OW 2962   2.944   0.700   1.264  0.1875  0.8124 -0.1459
  988SOL    HW1 2963   2.964   0.599   1.277 -2.2431 -0.8556  1.7354
  988SOL    HW2 2964   2.986   0.760   1.334 -1.2866 -2.4063 -2.6884
  989SOL     OW 2965   2.031   0.789   1.041  0.8457  0.5374  0.4242
  989SOL    HW1 2966   2.092   0.707   1.015  1.0911 -0.8249 -2.1388
  989SOL    HW2 2967   1.976   0.768   1.126  2.6788 -4.3245  0.3329
  990SOL     OW 2968   2.564   0.357   2.899 -0.5901  0.3578 -0.4045
  990SOL    HW1 2969   2.654   0.403   2.923  3.0234 -2.0216 -0.3525
  990SOL    HW2 2970   2.557   0.260   2.929  0.4252  0.7348 -0.6752
  991SOL     OW 2971   0.170   1.474   0.071  0.2526 -0.4110  0.2809
  991SOL    HW1 2972   0.125   1.385   0.062 -1.3542  3.0502  1.1190
  991SOL    HW2 2973   0.243   1.469   0.136  0.1123 -0.2336 -0.4160
  992SOL     OW 2974   2.013   1.574   1.884 -0.2374 -0.4864 -0.1663
  992SOL    HW1 2975   1.986   1.600   1.981  1.5239 -1.9927 -0.3370
  992SOL    HW2 2976   2.063   1.489   1.881 -1.4222  0.1143  2.1601
  993SOL     OW 2977   0.351   2.558   0.726  0.3439 -0.1078  0.2934
  993SOL    HW1 2978   0.265   2.534   0.779 -0.9023  0.9801  1.9781
  993SOL    HW2 2979   0.390   2.648   0.757  0.5363 -0.6323  0.9030
  994SOL     OW 2980   2.877   1.736   1.807 -0.6427  0.4403 -0.0964
  994SOL    HW1 2981   2.820   1.667   1.853  0.2693  2.4043 -0.3496
  994SOL    HW2 2982   2.963   1.690   1.772  1.3644 -0.0206 -0.5477
  995SOL     OW 2983   1.641   1.992   2.677  0.3701 -0.1678  0.0870
  995SOL    HW1 2984   1.740   1.982   2.685  0.0328  1.6631 -1.2418
  995SOL    HW2 2985   1.613   1.968   2.583  1.4930 -1.0452 -0.2909
  996SOL     OW 2986   2.144   2.041   0.172 -0.0840  0.0355  0.3965
  996SOL    HW1 2987   2.055   2.010   0.209  1.5241 -2.8128 -2.2884
  996SOL    HW2 2988   2.218   1.999   0.226 -0.7283  0.9003  2.2513
  997SOL     OW 2989   1.337   1.294   2.421  0.3017 -0.0218  0.0592
  997SOL    HW1 2990   1.272   1.228   2.465 -1.5655  1.1936  0.7577
  997SOL    HW2 2991   1.329   1.383   2.469 -1.0207  0.6447 -1.2884
  998SOL     OW 2992   0.044   2.198   0.728 -0.7345  0.1059 -0.4688
  998SOL    HW1 2993   0.013   2.242   0.643  2.9665 -0.7832  0.0086
  998SOL    HW2 2994   3.066   2.237   0.812 -1.5954  0.0360  0.2528
  999SOL     OW 2995   0.386   2.552   0.463  0.4606 -0.3438 -0.2232
  999SOL    HW1 2996   0.381   2.558   0.564 -0.8722 -0.8313 -0.8121
  999SOL    HW2 2997   0.485   2.549   0.434  0.5273  0.2097 -0.2038
 1000SOL     OW 2998   1.092   0.061   0.133  0.3895  0.5643  0.7923
 1000SOL    HW1 2999   1.012   3.067   0.140 -0.8364  0.1650  1.5699
 1000SOL    HW2 3000   1.144   0.037   0.046 -0.9157 -0.9708  0.5015
   3.07102   3.07102   3.07102
