1000 SPC/Fw water molecules t= 131.00000 step= 131000
 3000
    1SOL     OW    1   2.164   2.210   0.914  0.2061 -0.4707 -0.4190
    1SOL    HW1    2   2.164   2.313   0.931 -0.9568 -0.6192  2.4813
    1SOL    HW2    3   2.086   2.163   0.962 -2.7810 -1.2749  2.5163
    2SOL     OW    4   1.341   2.030   2.147 -0.0609  0.1757 -0.2797
    2SOL    HW1    5   1.276   2.112   2.133  0.2212  1.0217 -1.9359
    2SOL    HW2    6   1.299   1.956   2.202  1.8776 -1.4858 -1.6591
    3SOL     OW    7   1.481   2.421   2.306  0.5278  0.1487  0.1129
    3SOL    HW1    8   1.524   2.509   2.328 -0.5757 -3.4755  1.7523
    3SOL    HW2    9   1.548   2.381   2.240  2.3663 -1.6345 -1.1275
    4SOL     OW   10   1.322   2.636   2.109  0.1858 -0.2888 -0.0300
    4SOL    HW1   11   1.404   2.576   2.096  0.9627 -0.1193 -2.3050
    4SOL    HW2   12   1.248   2.591   2.161  0.0343 -1.7337  0.8796
    5SOL     OW   13   0.613   0.792   1.450  0.1823  0.5711  0.3026
    5SOL    HW1   14   0.598   0.700   1.413  1.9933 -1.8648  0.4363
    5SOL    HW2   15   0.526   0.832   1.483 -0.7207 -0.6102  1.1915
    6SOL     OW   16   2.434   0.867   0.158 -0.0062  0.2124 -0.4869
    6SOL    HW1   17   2.368   0.891   0.229  0.1588 -2.8764  0.4517
    6SOL    HW2   18   2.517   0.823   0.196  3.8797 -0.1136  1.7215
    7SOL     OW   19   0.302   0.207   1.606  0.1336  0.1220 -0.4188
    7SOL    HW1   20   0.391   0.230   1.653  1.9167  2.7742 -0.5791
    7SOL    HW2   21   0.301   0.109   1.576  1.0061 -1.8010  0.7362
    8SOL     OW   22   1.173   2.952   1.478  0.4579 -0.1277  0.6257
    8SOL    HW1   23   1.094   2.890   1.467 -2.1734  0.4878 -1.4319
    8SOL    HW2   24   1.253   2.896   1.508 -2.2198 -2.1137 -2.4825
    9SOL     OW   25   0.692   0.753   0.376  0.5791  0.5525 -0.0250
    9SOL    HW1   26   0.590   0.760   0.368 -1.0964  0.9017  1.5970
    9SOL    HW2   27   0.746   0.833   0.408 -0.0035  0.0671 -2.8750
   10SOL     OW   28   0.883   2.480   2.374 -0.3599 -0.7003  0.2830
   10SOL    HW1   29   0.853   2.384   2.368  2.3408 -2.4807 -0.6863
   10SOL    HW2   30   0.814   2.553   2.371  0.1024 -0.2981  1.1217
   11SOL     OW   31   0.386   1.838   0.157 -0.1812 -0.4093  0.4292
   11SOL    HW1   32   0.292   1.811   0.137  1.1837  0.3082 -0.6476
   11SOL    HW2   33   0.396   1.817   0.260  0.1219 -0.6104  0.7009
   12SOL     OW   34   0.507   0.160   1.384  0.0609 -0.3686  0.2955
   12SOL    HW1   35   0.479   0.234   1.451 -1.9547  0.7487  1.4061
   12SOL    HW2   36   0.511   0.068   1.428 -0.8376 -1.5850  0.4177
   13SOL     OW   37   0.771   2.696   0.090  0.0305  0.3955 -0.0892
   13SOL    HW1   38   0.849   2.685   0.155  0.7622 -0.3121 -0.5780
   13SOL    HW2   39   0.752   2.793   0.079 -0.7413 -1.7814 -0.0257
   14SOL     OW   40   1.503   1.505   0.820  0.6063  0.5067  0.2124
   14SOL    HW1   41   1.599   1.491   0.850 -0.3496  0.1687  0.9625
   14SOL    HW2   42   1.474   1.606   0.817 -1.3199  0.1119  2.2250
   15SOL     OW   43   2.900   1.052   2.288 -0.4895  0.3820 -0.2523
   15SOL    HW1   44   2.929   1.077   2.381  1.3985 -0.2983 -1.0785
   15SOL    HW2   45   2.888   1.139   2.234  0.3665  0.9445  3.2072
   16SOL     OW   46   1.459   2.891   2.975 -0.0397 -0.5059  0.3383
   16SOL    HW1   47   1.426   2.801   2.947  1.2933  2.7557  0.8565
   16SOL    HW2   48   1.557   2.897   2.957 -0.0813 -2.1478 -0.8427
   17SOL     OW   49   0.739   2.422   2.038  0.5246  0.1575 -0.0551
   17SOL    HW1   50   0.729   2.318   2.050 -0.7201 -3.4479  0.7755
   17SOL    HW2   51   0.652   2.468   2.063 -1.0306 -1.4963 -1.4776
   18SOL     OW   52   1.608   0.945   0.330  0.2239  0.4299  0.0559
   18SOL    HW1   53   1.619   1.011   0.407  0.5092  0.6850  1.7918
   18SOL    HW2   54   1.561   0.867   0.368  0.3287  2.6591  0.8701
   19SOL     OW   55   2.480   2.029   2.787 -0.0384  0.1894 -0.1635
   19SOL    HW1   56   2.489   2.037   2.888 -0.9561  0.6348 -0.1916
   19SOL    HW2   57   2.566   2.053   2.743 -1.9654 -1.5329  4.0982
   20SOL     OW   58   2.323   2.072   2.370 -0.1136 -0.1262 -0.0522
   20SOL    HW1   59   2.265   2.141   2.325  0.6749  0.6415 -0.3767
   20SOL    HW2   60   2.410   2.054   2.320 -1.6712  3.7479 -0.6590
   21SOL     OW   61   0.504   2.107   0.111  0.1992  0.0096 -0.1932
   21SOL    HW1   62   0.501   2.174   0.191 -2.4349 -2.1463  1.1685
   21SOL    HW2   63   0.460   2.022   0.139  1.0159  1.5412 -0.5153
   22SOL     OW   64   2.121   2.842   1.358  0.7425  0.5119 -0.0420
   22SOL    HW1   65   2.083   2.933   1.343 -0.2640 -1.2757 -1.8008
   22SOL    HW2   66   2.121   2.813   1.457 -1.2238 -0.4038 -1.8724
   23SOL     OW   67   0.334   1.346   1.412 -0.0766 -0.3786 -0.6525
   23SOL    HW1   68   0.288   1.407   1.479  0.5627 -2.0191  1.6933
   23SOL    HW2   69   0.411   1.287   1.448  3.1228  2.6802 -0.3006
   24SOL     OW   70   2.088   1.838   1.535  0.3722 -0.2819 -0.5197
   24SOL    HW1   71   2.187   1.843   1.539 -1.7187 -0.6966  1.1031
   24SOL    HW2   72   2.038   1.830   1.622  0.2213 -1.7927 -0.2111
   25SOL     OW   73   1.852   3.079   2.776 -0.0710 -0.1560  0.5023
   25SOL    HW1   74   1.952   3.081   2.784 -1.3091 -0.1495  0.7721
   25SOL    HW2   75   1.823   3.036   2.687  0.0724 -1.5774  0.5725
   26SOL     OW   76   1.318   3.045   0.937 -0.0376  0.4142 -0.2525
   26SOL    HW1   77   1.401   3.077   0.889 -0.0522 -0.0192  0.4115
   26SOL    HW2   78   1.267   0.034   0.976  0.7811 -1.6047 -0.7653
   27SOL     OW   79   1.085   1.856   0.118 -0.5120 -0.1956 -0.0639
   27SOL    HW1   80   1.118   1.948   0.152 -2.0862  2.7974  0.3994
   27SOL    HW2   81   0.986   1.853   0.128 -0.8609 -2.2080  1.0353
   28SOL     OW   82   2.859   1.756   1.400 -0.7014  0.6494 -0.1359
   28SOL    HW1   83   2.814   1.666   1.389 -0.6906 -0.6263  0.2362
   28SOL    HW2   84   2.948   1.750   1.349 -0.2011 -2.8024 -0.5998
   29SOL     OW   85   2.317   2.540   2.082 -0.1828  0.2176 -0.0557
   29SOL    HW1   86   2.403   2.579   2.123 -0.4574  0.7227  2.0379
   29SOL    HW2   87   2.236   2.567   2.142 -1.6542  1.2646  1.3691
   30SOL     OW   88   0.904   2.706   1.136 -0.6019 -0.3720  0.0522
   30SOL    HW1   89   0.897   2.724   1.036  0.6832  3.9540  0.3847
   30SOL    HW2   90   0.965   2.627   1.150  0.4299 -2.0554 -1.5725
   31SOL     OW   91   3.060   2.027   1.961  0.0088 -0.1484  0.3889
   31SOL    HW1   92   3.021   1.935   1.998  0.4742 -0.5183 -1.9388
   31SOL    HW2   93   0.063   2.041   1.996 -0.6875  1.6816  0.0184
   32SOL     OW   94   1.506   1.177   2.124  0.5984  0.2177  0.3839
   32SOL    HW1   95   1.474   1.113   2.051  0.6729 -1.7196 -2.7116
   32SOL    HW2   96   1.430   1.212   2.179  1.5017 -0.0517 -1.7416
   33SOL     OW   97   0.497   2.913   2.594 -0.3042 -0.4926 -0.2647
   33SOL    HW1   98   0.398   2.881   2.589 -0.3606  0.1501  0.6466
   33SOL    HW2   99   0.545   2.897   2.505 -1.1812 -2.0248  1.9140
   34SOL     OW  100   1.448   0.028   1.570  0.0113 -0.3738 -0.1619
   34SOL    HW1  101   1.451   3.022   1.570 -3.0967  0.7513  1.4484
   34SOL    HW2  102   1.532   0.065   1.615 -0.8925 -1.5968 -1.0746
   35SOL     OW  103   2.036   0.361   1.219 -0.4593 -0.1225 -0.4843
   35SOL    HW1  104   1.965   0.410   1.273 -1.2223 -1.3935 -1.3925
   35SOL    HW2  105   2.009   0.277   1.177  2.1480  1.5635 -0.0945
   36SOL     OW  106   2.150   2.817   2.621 -0.0320  0.5871  0.0602
   36SOL    HW1  107   2.205   2.733   2.634 -0.5719 -0.1171 -3.2119
   36SOL    HW2  108   2.141   2.833   2.518 -0.5921 -1.0135  0.1396
   37SOL     OW  109   1.227   2.216   2.948 -0.9215 -0.3118  0.1683
   37SOL    HW1  110   1.181   2.300   2.987  1.8817  2.1211  1.4707
   37SOL    HW2  111   1.172   2.128   2.961  0.1957 -1.4983 -0.6579
   38SOL     OW  112   2.657   0.757   2.699 -0.0258 -0.0786  0.2406
   38SOL    HW1  113   2.618   0.667   2.731 -0.1130 -2.4572  0.0540
   38SOL    HW2  114   2.728   0.792   2.762  0.0562  0.8048 -0.7190
   39SOL     OW  115   2.016   2.188   2.035 -0.1960 -0.0341  0.7378
   39SOL    HW1  116   2.011   2.121   1.955  0.4798 -1.3498 -0.5852
   39SOL    HW2  117   1.962   2.272   2.008  1.5818 -1.2521 -0.1403
   40SOL     OW  118   0.210   0.333   2.924 -0.0797  0.6564  0.3922
   40SOL    HW1  119   0.264   0.281   2.988  0.0118  1.2377 -4.4590
   40SOL    HW2  120   0.129   0.277   2.890 -2.8562 -3.0886 -2.0095
   41SOL     OW  121   1.364   0.909   1.438 -0.5604 -0.2049  0.5111
   41SOL    HW1  122   1.323   0.994   1.396 -1.9562  0.1411 -1.1142
   41SOL    HW2  123   1.294   0.841   1.456 -0.1969  1.1936  0.0360
   42SOL     OW  124   0.176   0.263   1.983  0.0382  0.2628  0.6463
   42SOL    HW1  125   0.127   0.352   1.968  1.1021 -1.4583  1.0999
   42SOL    HW2  126   0.279   0.277   1.991  2.3774 -0.5159 -1.7736
   43SOL     OW  127   1.499   1.579   1.972  0.3792 -0.0337  0.0846
   43SOL    HW1  128   1.413   1.567   2.026  1.2613  1.9288  0.3375
   43SOL    HW2  129   1.562   1.501   1.990 -1.2324  1.1536  1.4013
   44SOL     OW  130   2.974   2.759   2.568  0.0338  0.0091 -0.0427
   44SOL    HW1  131   2.927   2.844   2.592  2.5926  1.2693  0.1572
   44SOL    HW2  132   3.030   2.776   2.482 -2.0365  0.9465 -0.5186
   45SOL     OW  133   0.563   2.287   1.360  0.0121  0.5138 -0.1625
   45SOL    HW1  134   0.546   2.209   1.426  2.4630  0.3112 -0.8757
   45SOL    HW2  135   0.652   2.331   1.384  0.9132 -1.0286  0.7411
   46SOL     OW  136   2.390   2.328   1.892  0.3161  0.0383 -0.1144
   46SOL    HW1  137   2.382   2.410   1.951  0.7258 -1.8465 -0.2778
   46SOL    HW2  138   2.465   2.341   1.825  0.7494  0.9006 -3.0198
   47SOL     OW  139   1.697   1.772   1.579 -0.0182  0.0998  0.2917
   47SOL    HW1  140   1.623   1.741   1.640 -0.2442  0.9325 -0.9301
   47SOL    HW2  141   1.770   1.697   1.586  3.3788 -1.6097 -1.3263
   48SOL     OW  142   0.288   1.981   0.586  0.4506  0.0044 -0.3392
   48SOL    HW1  143   0.345   1.923   0.644 -2.4820  0.7710  0.9565
   48SOL    HW2  144   0.280   2.074   0.627  1.0633 -1.9606 -1.2942
   49SOL     OW  145   3.049   0.916   2.067 -0.4016  0.4180 -0.0571
   49SOL    HW1  146   0.060   0.915   2.092  1.4672  0.9548  1.4144
   49SOL    HW2  147   2.998   0.948   2.150  1.4902 -2.1618 -0.4681
   50SOL     OW  148   2.151   0.664   0.933  0.2875  0.3963  0.5045
   50SOL    HW1  149   2.250   0.691   0.936  0.7473  1.4341  0.0100
   50SOL    HW2  150   2.103   0.705   0.858  0.7164  1.9005 -1.0990
   51SOL     OW  151   1.205   0.536   0.601 -0.1762  0.3903 -0.4067
   51SOL    HW1  152   1.165   0.602   0.667 -0.0719  2.0657  0.8681
   51SOL    HW2  153   1.249   0.451   0.645  0.3317 -1.1726  2.2354
   52SOL     OW  154   1.153   1.093   0.219  0.3004  0.1072  0.2595
   52SOL    HW1  155   1.207   1.005   0.230 -0.1710  3.1190  1.5354
   52SOL    HW2  156   1.085   1.104   0.294  0.0942 -2.1275 -1.1614
   53SOL     OW  157   1.154   2.290   2.667  0.1073  0.1275 -0.5420
   53SOL    HW1  158   1.213   2.281   2.583  2.1060 -0.3671 -1.2924
   53SOL    HW2  159   1.213   2.285   2.752  0.3755  2.4450  1.1643
   54SOL     OW  160   1.442   0.849   1.717 -0.1439 -0.1094 -0.0667
   54SOL    HW1  161   1.374   0.770   1.714 -3.1732  1.4533  1.2125
   54SOL    HW2  162   1.439   0.906   1.632 -0.0040  1.1269  1.9057
   55SOL     OW  163   1.949   2.899   0.526  0.1342  0.2624  0.0284
   55SOL    HW1  164   1.872   2.885   0.458 -0.5116 -0.1953 -2.5492
   55SOL    HW2  165   1.969   2.995   0.547 -1.5827 -1.2741  0.7693
   56SOL     OW  166   0.931   2.810   1.390  0.2813 -0.2181  0.7115
   56SOL    HW1  167   0.904   2.790   1.292 -0.8706  0.1895 -2.3763
   56SOL    HW2  168   0.927   2.909   1.403  0.9775  1.3155  0.4293
   57SOL     OW  169   1.928   0.809   2.818 -0.1857  0.2019 -0.3565
   57SOL    HW1  170   1.899   0.834   2.726  1.0216 -3.8076  0.4062
   57SOL    HW2  171   1.914   0.891   2.882 -1.0361  0.9232  1.3110
   58SOL     OW  172   0.007   1.002   1.806  0.3431 -0.0011  0.1139
   58SOL    HW1  173   3.083   0.989   1.901  2.2654 -0.3930 -3.7098
   58SOL    HW2  174   3.024   1.047   1.748 -2.2608 -0.7874  1.5010
   59SOL     OW  175   0.633   2.657   2.323  0.1176  0.4258 -0.0991
   59SOL    HW1  176   0.615   2.639   2.224 -2.1904  1.2974  0.9070
   59SOL    HW2  177   0.654   2.754   2.337  0.0118 -2.2404 -3.3683
   60SOL     OW  178   2.678   2.422   1.159 -0.2028  0.2416  0.0482
   60SOL    HW1  179   2.617   2.416   1.082  1.4538  0.9798  0.2826
   60SOL    HW2  180   2.774   2.431   1.124 -1.8804  0.1400 -0.8128
   61SOL     OW  181   1.080   2.300   0.544 -0.0796 -0.0861  0.0415
   61SOL    HW1  182   1.129   2.251   0.616 -1.1345  2.8642 -1.9320
   61SOL    HW2  183   1.027   2.224   0.492 -1.0175 -1.9268 -1.6339
   62SOL     OW  184   2.013   2.563   2.919 -0.0797  0.1797  0.2469
   62SOL    HW1  185   2.112   2.537   2.909  1.7965  0.4159  0.6426
   62SOL    HW2  186   1.967   2.532   2.835  2.2826 -1.2912 -2.1644
   63SOL     OW  187   2.259   0.128   0.115  0.4209  0.0174  0.2900
   63SOL    HW1  188   2.173   0.115   0.062 -0.9258  2.1838  0.1832
   63SOL    HW2  189   2.291   0.225   0.106  1.4101  1.1000 -0.2741
   64SOL     OW  190   1.040   1.174   2.549  0.3736  0.3696 -0.2873
   64SOL    HW1  191   0.983   1.205   2.631 -1.3607  0.4259  1.0774
   64SOL    HW2  192   1.018   1.079   2.534 -0.8756  2.0383  1.6691
   65SOL     OW  193   1.349   2.608   0.510  1.0595  0.1236  0.5151
   65SOL    HW1  194   1.370   2.511   0.515  2.6766  2.6657 -1.4531
   65SOL    HW2  195   1.436   2.651   0.528 -2.4548 -3.4996  3.2898
   66SOL     OW  196   0.515   1.478   1.652 -0.0707  0.0251 -0.1081
   66SOL    HW1  197   0.537   1.397   1.708 -1.7008 -0.2767 -0.3990
   66SOL    HW2  198   0.416   1.470   1.626 -0.9149 -1.5835 -0.8810
   67SOL     OW  199   2.366   0.111   2.184  0.4488 -0.1532  0.3143
   67SOL    HW1  200   2.420   0.061   2.247 -3.9946  4.4984 -1.2742
   67SOL    HW2  201   2.406   0.199   2.151  1.6500  0.3956 -0.8914
   68SOL     OW  202   0.944   0.809   1.457  0.1478 -0.2239  0.3912
   68SOL    HW1  203   0.873   0.730   1.457 -2.2686  0.7250 -1.7289
   68SOL    HW2  204   0.948   0.858   1.371  1.9690 -0.5500  0.5067
   69SOL     OW  205   2.035   2.891   0.182  0.0482  0.4751 -0.5745
   69SOL    HW1  206   1.945   2.845   0.199  2.0217 -1.5568 -0.2973
   69SOL    HW2  207   2.059   2.964   0.250 -1.8591 -3.6796 -1.4788
   70SOL     OW  208   2.625   1.044   2.911 -0.3809 -0.2846 -0.5795
   70SOL    HW1  209   2.621   1.129   2.860  4.0180  1.4609 -1.7718
   70SOL    HW2  210   2.707   0.986   2.887  0.8218  0.0206  1.8729
   71SOL     OW  211   2.927   1.801   0.020  0.0341  0.5633 -0.3475
   71SOL    HW1  212   2.878   1.877   3.062  2.1936  2.2667 -1.9044
   71SOL    HW2  213   3.017   1.839   0.056  0.3879  1.9407 -1.1830
   72SOL     OW  214   0.022   1.846   0.581 -0.3984 -0.1684  0.1827
   72SOL    HW1  215   0.033   1.801   0.491  1.2699 -1.6910  0.3423
   72SOL    HW2  216   0.111   1.897   0.595 -0.8635 -0.3600 -0.0525
   73SOL     OW  217   0.966   1.168   0.436  0.3960 -0.0362 -0.0590
   73SOL    HW1  218   0.962   1.132   0.532 -1.1190  0.1183 -1.1413
   73SOL    HW2  219   0.931   1.263   0.433  0.4142  2.2255  0.5377
   74SOL     OW  220   0.273   1.763   1.974  0.0892 -0.2138  0.3293
   74SOL    HW1  221   0.263   1.865   1.981 -2.4125 -1.2724  0.3516
   74SOL    HW2  222   0.370   1.737   1.948  0.5974 -1.5228 -2.4575
   75SOL     OW  223   1.749   1.368   1.625  0.2787 -0.1712 -0.2665
   75SOL    HW1  224   1.819   1.298   1.653 -0.7850  0.7444  0.6084
   75SOL    HW2  225   1.668   1.350   1.676  0.7021  3.1189 -0.6692
   76SOL     OW  226   2.301   2.406   1.345  0.2492  0.3731  0.0295
   76SOL    HW1  227   2.293   2.404   1.444 -1.0032 -1.2729  0.1555
   76SOL    HW2  228   2.247   2.326   1.305  0.0009 -0.5357  0.8261
   77SOL     OW  229   2.889   1.388   1.724  0.2207 -0.1243  0.1318
   77SOL    HW1  230   2.810   1.358   1.782 -0.7990 -0.0196  2.6362
   77SOL    HW2  231   2.887   1.489   1.712  2.1743 -1.4647 -0.8684
   78SOL     OW  232   1.506   0.475   0.452  0.5813 -0.1409  0.0604
   78SOL    HW1  233   1.460   0.563   0.468 -1.3197 -1.2632  1.3677
   78SOL    HW2  234   1.604   0.498   0.443 -0.1709 -0.3545  1.7392
   79SOL     OW  235   2.368   1.603   1.511  0.4070  0.4423  0.0026
   79SOL    HW1  236   2.417   1.548   1.446 -0.5207 -0.0756  2.7533
   79SOL    HW2  237   2.382   1.701   1.502 -1.5116 -1.4919 -3.9526
   80SOL     OW  238   0.818   0.554   1.373  0.1068 -0.5166 -0.3654
   80SOL    HW1  239   0.716   0.541   1.363 -1.2785  0.6599  1.6779
   80SOL    HW2  240   0.860   0.461   1.385  0.7913  1.6627 -0.2932
   81SOL     OW  241   0.802   2.850   0.868 -0.1768 -0.1965  0.8869
   81SOL    HW1  242   0.762   2.923   0.926  0.3549  0.5051  1.5236
   81SOL    HW2  243   0.900   2.872   0.843 -1.0211  1.7624 -1.0677
   82SOL     OW  244   1.568   3.070   2.022 -0.1935 -0.2174 -0.2974
   82SOL    HW1  245   1.500   3.003   1.989  2.3546  1.2209  1.2072
   82SOL    HW2  246   1.561   0.070   1.979  0.5656 -2.7997  0.7848
   83SOL     OW  247   1.435   1.765   0.816  0.7672 -0.5053  0.5772
   83SOL    HW1  248   1.437   1.843   0.879 -0.5903 -4.8801 -0.3121
   83SOL    HW2  249   1.500   1.777   0.737  1.2592  0.7928  0.7053
   84SOL     OW  250   3.080   1.719   2.911 -0.4887  0.0583  0.5679
   84SOL    HW1  251   2.989   1.754   2.937  1.5391 -1.2982 -0.5572
   84SOL    HW2  252   3.087   1.715   2.811 -0.4603  2.3962 -1.1574
   85SOL     OW  253   0.401   2.309   1.070 -0.0259  0.0035  0.1530
   85SOL    HW1  254   0.347   2.379   1.020  0.8258 -1.2139 -1.1236
   85SOL    HW2  255   0.463   2.332   1.148  1.7442  0.6955  0.5666
   86SOL     OW  256   2.245   2.385   1.639  0.0310  0.1874 -0.0723
   86SOL    HW1  257   2.293   2.321   1.701 -1.9246  2.2117  0.5510
   86SOL    HW2  258   2.224   2.469   1.694 -1.7552 -0.7705 -0.6101
   87SOL     OW  259   3.015   2.153   0.723  0.2765  0.0555 -0.1140
   87SOL    HW1  260   2.948   2.179   0.800 -1.5019  1.3045  2.0766
   87SOL    HW2  261   2.961   2.128   0.646 -2.0279  0.1288  1.2951
   88SOL     OW  262   0.934   1.049   1.089 -0.0645 -0.5293  0.0974
   88SOL    HW1  263   0.942   1.091   0.998 -0.2475 -0.0138  2.3450
   88SOL    HW2  264   0.831   1.029   1.096 -1.8955 -0.8450 -3.3377
   89SOL     OW  265   0.936   0.112   2.295 -0.1178 -0.3803 -0.1274
   89SOL    HW1  266   0.870   0.136   2.372 -0.0149 -0.0097 -0.1335
   89SOL    HW2  267   0.935   0.173   2.213 -1.0383 -1.8054  1.3506
   90SOL     OW  268   0.068   2.080   1.511  0.4083 -0.2324  0.3085
   90SOL    HW1  269   0.080   1.981   1.491  0.2760 -0.0191  1.7474
   90SOL    HW2  270   0.154   2.123   1.544 -0.3454  0.6966  0.2218
   91SOL     OW  271   1.494   2.219   1.426 -0.1028  0.0779  0.3490
   91SOL    HW1  272   1.494   2.164   1.510  1.4216  0.6495 -2.2265
   91SOL    HW2  273   1.533   2.166   1.347  1.2825  0.5768 -1.8438
   92SOL     OW  274   2.783   2.952   1.421  0.6592 -0.0194 -0.2250
   92SOL    HW1  275   2.729   3.031   1.393  0.7575  1.7621 -1.2174
   92SOL    HW2  276   2.779   2.943   1.523 -0.3223 -0.9359  1.0911
   93SOL     OW  277   0.069   1.153   2.729 -0.5589 -0.0127 -0.3970
   93SOL    HW1  278   0.136   1.077   2.750  2.7062 -1.3238 -1.4953
   93SOL    HW2  279   0.055   1.220   2.807 -0.2484  0.1974 -0.1861
   94SOL     OW  280   2.763   2.547   1.886 -0.3021 -0.0812 -0.1051
   94SOL    HW1  281   2.832   2.593   1.946  0.8101 -2.7320  2.9623
   94SOL    HW2  282   2.692   2.615   1.868 -0.7466 -0.3388 -1.3185
   95SOL     OW  283   1.351   0.520   2.193 -0.3356  0.5328 -0.3120
   95SOL    HW1  284   1.347   0.559   2.287  1.3330 -0.1485 -0.1916
   95SOL    HW2  285   1.445   0.517   2.156 -0.2913 -1.2541  0.1794
   96SOL     OW  286   2.681   0.634   1.703 -0.0611  0.4396 -0.0518
   96SOL    HW1  287   2.635   0.542   1.700  0.7614  1.4109 -1.5325
   96SOL    HW2  288   2.624   0.714   1.668  0.2830 -0.4812  1.6781
   97SOL     OW  289   1.824   0.384   1.840 -0.0014  0.1531 -0.1985
   97SOL    HW1  290   1.817   0.323   1.924 -0.9434  0.9903  1.1021
   97SOL    HW2  291   1.750   0.449   1.821  0.2076 -0.6769 -0.9124
   98SOL     OW  292   1.955   2.628   1.304  0.2169  0.2054 -0.0148
   98SOL    HW1  293   2.000   2.720   1.295  0.6039  0.3182  1.6429
   98SOL    HW2  294   1.930   2.608   1.398  1.3986 -1.2176 -0.0394
   99SOL     OW  295   2.823   0.254   1.977  0.1410 -0.1517  0.1681
   99SOL    HW1  296   2.803   0.243   2.073 -0.8195 -0.9909 -2.8804
   99SOL    HW2  297   2.849   0.346   1.951  1.5136 -1.0563  1.4127
  100SOL     OW  298   2.307   1.391   1.694  0.4354  0.3590  0.3221
  100SOL    HW1  299   2.343   1.462   1.633 -2.8624  0.7284  0.7568
  100SOL    HW2  300   2.336   1.409   1.788  1.1553 -1.6643 -1.0999
  101SOL     OW  301   1.535   0.020   0.804 -0.7417  0.1049  0.0119
  101SOL    HW1  302   1.573   0.113   0.823 -0.5963  1.6473 -1.5118
  101SOL    HW2  303   1.610   3.044   0.785 -0.9893 -1.9126  0.5853
  102SOL     OW  304   0.554   0.861   1.094 -0.3288 -0.7173  0.0781
  102SOL    HW1  305   0.467   0.912   1.105 -1.4975  1.7795 -0.5126
  102SOL    HW2  306   0.627   0.891   1.163  0.8518  0.3019  0.8168
  103SOL     OW  307   2.746   0.375   3.045 -0.4164  0.0709 -0.2870
  103SOL    HW1  308   2.834   0.378   2.992  0.4423  0.2553  0.9911
  103SOL    HW2  309   2.757   0.355   0.050  2.4932 -1.3303 -0.9554
  104SOL     OW  310   2.769   0.089   1.774  0.5193  0.0244  0.2727
  104SOL    HW1  311   2.853   0.042   1.735  2.4441 -0.9370 -0.4746
  104SOL    HW2  312   2.789   0.147   1.852 -2.0209  1.1447 -1.3268
  105SOL     OW  313   1.882   0.783   1.935 -0.0387 -0.1717  0.2425
  105SOL    HW1  314   1.804   0.764   1.996  0.8624  1.5910 -0.6674
  105SOL    HW2  315   1.906   0.884   1.936 -1.4998 -0.9428  4.3839
  106SOL     OW  316   1.770   2.975   0.779  0.2080  0.2061  0.0404
  106SOL    HW1  317   1.793   2.970   0.878 -2.4419  1.3269 -1.2411
  106SOL    HW2  318   1.847   3.024   0.731  2.0751 -2.9498  0.2917
  107SOL     OW  319   0.779   1.012   0.657 -0.5930 -0.0299 -0.1810
  107SOL    HW1  320   0.719   1.061   0.587  0.1738 -3.6711 -0.2655
  107SOL    HW2  321   0.713   0.959   0.719 -1.5157 -0.2497 -0.4572
  108SOL     OW  322   2.727   0.288   2.272  0.7386  0.2014 -0.0235
  108SOL    HW1  323   2.747   0.197   2.305  1.3262  1.2806  0.0751
  108SOL    HW2  324   2.650   0.327   2.327 -1.8204 -0.6876 -0.3569
  109SOL     OW  325   2.059   0.627   0.102  0.2118 -0.2503  0.9123
  109SOL    HW1  326   1.969   0.622   0.045 -2.9362 -0.3415 -1.0724
  109SOL    HW2  327   2.132   0.620   0.028 -1.9651  0.9042 -1.2801
  110SOL     OW  328   3.035   2.310   2.903  0.6189  0.1655  1.0350
  110SOL    HW1  329   3.042   2.401   2.855 -2.4770 -2.2105 -0.0857
  110SOL    HW2  330   0.008   2.306   2.977 -0.6337 -1.6425 -1.0290
  111SOL     OW  331   2.128   0.247   2.042  0.4058  0.1240 -0.2258
  111SOL    HW1  332   2.139   0.320   2.110 -0.8769  0.4885 -0.2808
  111SOL    HW2  333   2.132   0.155   2.083  0.4943 -2.1273  1.3178
  112SOL     OW  334   2.381   2.922   0.484  0.0780  0.3087  0.1504
  112SOL    HW1  335   2.362   2.999   0.420  1.1522  2.3531  0.4406
  112SOL    HW2  336   2.299   2.867   0.507 -1.3795 -1.3399  2.1715
  113SOL     OW  337   2.362   1.869   1.557  0.1090  0.2949 -0.3788
  113SOL    HW1  338   2.381   1.937   1.482  0.7498  1.0137  2.7055
  113SOL    HW2  339   2.432   1.885   1.629  0.2326 -0.1149  1.8820
  114SOL     OW  340   2.923   0.559   0.843  0.5600  0.3040  0.2679
  114SOL    HW1  341   2.911   0.530   0.750  1.7805  2.0151 -0.8931
  114SOL    HW2  342   3.011   0.594   0.869 -2.6212  0.1928  1.6693
  115SOL     OW  343   2.754   1.690   0.199 -0.1812  0.0372  0.3875
  115SOL    HW1  344   2.786   1.675   0.299  1.7118 -2.1638  2.9453
  115SOL    HW2  345   2.828   1.738   0.148 -0.6016  0.4368  1.2078
  116SOL     OW  346   3.033   1.474   1.937  0.8220 -0.1776 -0.0163
  116SOL    HW1  347   3.031   1.394   2.003  0.7325  1.6057  2.7999
  116SOL    HW2  348   2.997   1.445   1.845 -0.2120 -1.5185 -3.0089
  117SOL     OW  349   2.671   2.997   0.584 -0.1575  0.0148 -0.4362
  117SOL    HW1  350   2.571   2.979   0.607 -4.3533 -2.9223  1.2691
  117SOL    HW2  351   2.672   3.041   0.490 -1.6299  0.7153 -3.9971
  118SOL     OW  352   0.538   2.428   1.780  0.5644  0.5090 -0.0994
  118SOL    HW1  353   0.630   2.397   1.794 -1.1513  0.2209 -1.3216
  118SOL    HW2  354   0.532   2.485   1.700  2.0428  0.3738  1.1780
  119SOL     OW  355   1.753   2.256   1.305 -0.0089 -0.6452  0.4200
  119SOL    HW1  356   1.801   2.280   1.395 -0.7763  1.9264 -1.5686
  119SOL    HW2  357   1.699   2.339   1.277 -0.6151 -0.7307  1.0573
  120SOL     OW  358   0.297   1.786   2.309 -0.2625  0.4364 -0.0126
  120SOL    HW1  359   0.201   1.794   2.284 -0.1732 -0.0029  0.9616
  120SOL    HW2  360   0.327   1.870   2.352  2.0047 -0.3435  2.2081
  121SOL     OW  361   2.775   1.681   1.017  0.1373  0.0370 -0.0062
  121SOL    HW1  362   2.739   1.699   1.109  1.8794  0.3977 -0.0465
  121SOL    HW2  363   2.875   1.677   1.021  1.9598 -0.4270 -1.9268
  122SOL     OW  364   2.409   1.854   2.075  0.7574 -0.6029  0.1626
  122SOL    HW1  365   2.375   1.798   2.152 -1.5031 -0.7472  1.3076
  122SOL    HW2  366   2.457   1.937   2.115 -1.5410 -0.4164 -1.6019
  123SOL     OW  367   2.785   0.096   0.787  0.0841 -0.4959 -0.1237
  123SOL    HW1  368   2.845   0.037   0.846 -0.5826  1.4659 -1.8067
  123SOL    HW2  369   2.733   0.042   0.719 -0.1560 -0.3361 -1.0255
  124SOL     OW  370   1.411   1.086   2.728  0.5022 -0.0952  0.1924
  124SOL    HW1  371   1.392   1.099   2.630 -0.4092  0.6704  1.4265
  124SOL    HW2  372   1.420   1.178   2.773  1.5801 -0.4915  0.7621
  125SOL     OW  373   0.329   1.485   2.654 -0.4180  0.0616  0.2926
  125SOL    HW1  374   0.355   1.408   2.720 -0.0183 -0.7170  0.5718
  125SOL    HW2  375   0.255   1.450   2.598 -1.5263 -1.1891 -0.0070
  126SOL     OW  376   2.830   2.175   0.336 -0.2173 -0.5658 -0.2737
  126SOL    HW1  377   2.764   2.242   0.380 -1.2154  2.1125  2.2308
  126SOL    HW2  378   2.844   2.092   0.391 -3.2985 -2.2851  0.8797
  127SOL     OW  379   0.791   1.891   0.835 -0.2507  0.3184  0.1654
  127SOL    HW1  380   0.708   1.903   0.892 -2.0855  1.5998 -1.6081
  127SOL    HW2  381   0.756   1.856   0.746  0.6041 -2.5791 -0.9722
  128SOL     OW  382   1.462   0.928   0.093  0.0572  0.6384 -0.0097
  128SOL    HW1  383   1.501   0.906   0.182 -0.4443  1.9529 -0.5464
  128SOL    HW2  384   1.535   0.940   0.027 -0.5471 -2.9958 -0.2902
  129SOL     OW  385   2.314   1.805   1.164 -0.0919  0.1040  0.6591
  129SOL    HW1  386   2.266   1.874   1.105 -0.1082 -0.6709  0.3410
  129SOL    HW2  387   2.356   1.855   1.245  0.6588 -0.2913  1.3413
  130SOL     OW  388   1.901   1.215   0.627 -0.3357 -0.0248 -0.5032
  130SOL    HW1  389   1.876   1.281   0.555  1.1869 -2.6406  2.0168
  130SOL    HW2  390   1.870   1.250   0.717 -1.1526  1.3292  0.7649
  131SOL     OW  391   2.986   1.089   2.551 -0.6475 -0.0044 -0.4019
  131SOL    HW1  392   2.897   1.112   2.576  3.8451 -0.7642 -0.5978
  131SOL    HW2  393   3.051   1.103   2.632  0.8238 -1.7729 -0.1478
  132SOL     OW  394   2.087   1.445   1.434 -0.3514  0.6123 -0.3244
  132SOL    HW1  395   2.114   1.505   1.356 -0.9678 -0.7520 -1.3855
  132SOL    HW2  396   2.167   1.441   1.500 -0.6104  1.1307 -1.4225
  133SOL     OW  397   0.190   1.575   3.015 -0.6556 -0.4649 -0.0705
  133SOL    HW1  398   0.143   1.643   2.957  0.3241 -1.7135 -0.6293
  133SOL    HW2  399   0.257   1.524   2.955  1.4802  4.2812  0.1876
  134SOL     OW  400   3.011   1.539   0.041 -0.5700  0.1462 -0.3789
  134SOL    HW1  401   0.008   1.529   3.090 -3.0284 -0.7260  2.5465
  134SOL    HW2  402   2.960   1.629   0.024 -0.5274 -2.4531  2.1022
  135SOL     OW  403   2.290   1.384   0.473  0.6154  0.3885  0.4436
  135SOL    HW1  404   2.254   1.423   0.386 -0.6755 -0.9082  0.9273
  135SOL    HW2  405   2.383   1.425   0.488  1.5906  1.4591  1.0174
  136SOL     OW  406   1.906   1.274   1.295  0.0837 -0.2349  0.4132
  136SOL    HW1  407   1.972   1.318   1.352 -0.3090 -2.1958 -3.3396
  136SOL    HW2  408   1.814   1.305   1.324 -0.6939 -1.6553  1.2444
  137SOL     OW  409   2.573   2.314   0.748 -0.0856  0.0565  0.1376
  137SOL    HW1  410   2.501   2.241   0.762  0.3443  0.6864 -0.6549
  137SOL    HW2  411   2.591   2.318   0.643 -1.8749 -0.7484 -1.0999
  138SOL     OW  412   1.226   0.143   1.692 -0.7634  0.0887 -0.1960
  138SOL    HW1  413   1.310   0.094   1.658 -1.4004  0.5653 -0.7135
  138SOL    HW2  414   1.189   0.101   1.780  0.2326  0.0074  1.9310
  139SOL     OW  415   2.584   0.186   2.932 -0.8150  0.4182  0.4575
  139SOL    HW1  416   2.629   0.267   2.972  0.0300  2.2432 -0.1504
  139SOL    HW2  417   2.620   0.102   2.980  0.2137 -3.1693  2.0543
  140SOL     OW  418   1.519   2.165   2.602 -0.2135 -0.1686 -0.0450
  140SOL    HW1  419   1.581   2.125   2.532 -0.5452 -0.5909  0.8299
  140SOL    HW2  420   1.476   2.094   2.656  1.7931  1.2901  0.7322
  141SOL     OW  421   0.690   1.059   1.667 -0.5293 -0.5200  0.2619
  141SOL    HW1  422   0.612   1.057   1.733 -3.4599 -0.8055 -0.4280
  141SOL    HW2  423   0.765   0.994   1.694  2.5965  0.8476 -1.4012
  142SOL     OW  424   2.433   2.817   0.056  0.2444 -0.2082  0.1518
  142SOL    HW1  425   2.337   2.795   0.025 -1.2819  0.6193  0.1968
  142SOL    HW2  426   2.500   2.797   3.072  0.7718  1.5402 -1.5154
  143SOL     OW  427   0.753   2.197   0.029 -0.7146  0.2154  0.4507
  143SOL    HW1  428   0.779   2.240   3.032 -1.3689 -1.2587 -0.6394
  143SOL    HW2  429   0.659   2.164   0.028  0.4685 -0.4689 -0.2883
  144SOL     OW  430   1.000   2.688   0.248  0.4309 -0.3724 -0.4613
  144SOL    HW1  431   1.051   2.730   0.176 -0.4792 -2.1799  2.7035
  144SOL    HW2  432   1.030   2.592   0.265  0.4374 -1.2254 -2.0760
  145SOL     OW  433   2.281   1.675   0.071 -0.0450  0.1173 -0.3399
  145SOL    HW1  434   2.369   1.720   0.091 -0.8396  0.1818 -0.8278
  145SOL    HW2  435   2.207   1.747   0.072  2.8400  4.0086  1.2495
  146SOL     OW  436   2.638   2.777   2.952 -0.2254 -0.2888 -0.0500
  146SOL    HW1  437   2.617   2.831   2.865 -1.1404  4.0749 -2.6965
  146SOL    HW2  438   2.634   2.676   2.926  0.9395  0.4500 -1.3003
  147SOL     OW  439   2.713   1.980   1.453 -0.6145 -0.6872 -0.1489
  147SOL    HW1  440   2.718   2.018   1.356 -1.0638  0.2708 -3.8885
  147SOL    HW2  441   2.749   1.887   1.465  0.1816  1.9347 -1.5755
  148SOL     OW  442   1.848   3.067   0.073 -0.2808  0.2487 -0.5033
  148SOL    HW1  443   1.912   3.004   0.122  1.9779 -2.6102 -0.4915
  148SOL    HW2  444   1.778   0.003   0.141 -1.8345 -0.1271  0.6836
  149SOL     OW  445   1.138   1.447   2.721  0.1344  0.8776  0.0901
  149SOL    HW1  446   1.158   1.514   2.794  0.3137  2.8479  0.3510
  149SOL    HW2  447   1.048   1.401   2.725 -0.6980 -0.8650  0.2117
  150SOL     OW  448   0.755   2.248   0.729  0.4130  0.3034  0.0764
  150SOL    HW1  449   0.769   2.335   0.780 -2.5142  2.9044 -0.2753
  150SOL    HW2  450   0.841   2.194   0.718 -0.5098 -1.1327  0.0743
  151SOL     OW  451   0.499   1.819   2.832 -0.3688 -0.2303 -0.1073
  151SOL    HW1  452   0.507   1.811   2.936 -2.8704 -1.4124  0.5411
  151SOL    HW2  453   0.586   1.787   2.789 -0.8607 -3.2706  0.2571
  152SOL     OW  454   2.536   1.471   0.525  0.0616  0.2494  0.1994
  152SOL    HW1  455   2.571   1.442   0.432  0.8952  0.1624 -0.5580
  152SOL    HW2  456   2.603   1.439   0.592  1.4799 -0.7696 -1.5014
  153SOL     OW  457   2.145   2.516   0.609 -0.1822  0.1749 -0.3242
  153SOL    HW1  458   2.196   2.444   0.557  0.2286 -0.7149  2.3256
  153SOL    HW2  459   2.044   2.516   0.582 -0.9470  2.7223  0.0698
  154SOL     OW  460   0.491   2.879   0.643  0.7132 -0.1047 -0.3909
  154SOL    HW1  461   0.494   2.981   0.617  0.7384  0.1364 -0.9167
  154SOL    HW2  462   0.575   2.830   0.614 -2.6169  1.5817  1.2583
  155SOL     OW  463   0.511   2.159   0.876 -0.3412 -0.3306 -0.4223
  155SOL    HW1  464   0.590   2.181   0.814 -0.3394 -0.3734  0.3105
  155SOL    HW2  465   0.485   2.223   0.950 -0.0060  0.9847 -1.0826
  156SOL     OW  466   2.500   2.494   0.069  0.3523 -0.3213  0.1613
  156SOL    HW1  467   2.572   2.483   3.090  0.7731  0.5553 -1.3264
  156SOL    HW2  468   2.534   2.458   0.160  0.6079  0.2539  0.4858
  157SOL     OW  469   1.111   2.109   1.356 -0.1254  0.3404 -0.0597
  157SOL    HW1  470   1.028   2.115   1.411 -0.7273 -0.7911 -1.6422
  157SOL    HW2  471   1.160   2.024   1.386 -0.4136 -4.0794  0.2506
  158SOL     OW  472   1.811   0.661   3.019  0.3250  0.0215 -0.9801
  158SOL    HW1  473   1.713   0.657   2.992 -1.4689  0.1516 -1.4348
  158SOL    HW2  474   1.872   0.702   2.946  0.7290 -1.3492  0.4112
  159SOL     OW  475   0.981   0.375   2.906  0.1439  0.0371 -0.2492
  159SOL    HW1  476   0.982   0.477   2.935  2.7143 -0.2682 -1.1838
  159SOL    HW2  477   1.051   0.321   2.955  0.3630 -1.1523 -1.7211
  160SOL     OW  478   1.258   1.428   0.027  0.3896  0.1150 -0.3051
  160SOL    HW1  479   1.230   1.499   0.098 -0.2422  2.5090 -0.2525
  160SOL    HW2  480   1.315   1.354   0.069 -0.1605  1.3937  1.1019
  161SOL     OW  481   3.075   2.070   2.742 -0.3243 -0.4360  0.6330
  161SOL    HW1  482   3.071   2.172   2.751 -0.5711 -2.9784  2.2493
  161SOL    HW2  483   0.069   2.037   2.786 -1.2266  0.0017  0.8682
  162SOL     OW  484   0.641   2.644   0.858 -0.4421 -0.2079 -0.3462
  162SOL    HW1  485   0.715   2.718   0.857  0.7649  0.1870 -0.7002
  162SOL    HW2  486   0.574   2.657   0.934  1.2656 -4.3299  3.3033
  163SOL     OW  487   2.930   1.097   3.043  0.3695 -0.1690  0.3631
  163SOL    HW1  488   2.893   1.017   2.987 -0.4218  0.0334 -1.6171
  163SOL    HW2  489   2.939   1.065   0.050 -0.0017  0.2201  2.7426
  164SOL     OW  490   0.215   0.063   2.728 -0.2055  0.1377 -0.0624
  164SOL    HW1  491   0.164   3.079   2.771  1.3630  2.2123  0.9563
  164SOL    HW2  492   0.313   0.048   2.753  0.4866 -1.3483 -0.3959
  165SOL     OW  493   1.876   0.281   1.558 -0.2092  0.1402 -0.2505
  165SOL    HW1  494   1.975   0.258   1.543 -0.9000 -0.4853 -0.8102
  165SOL    HW2  495   1.851   0.374   1.529 -0.0351  0.6846  1.2790
  166SOL     OW  496   2.045   0.016   1.352 -0.6389  0.3927 -0.0022
  166SOL    HW1  497   1.943   0.028   1.343 -0.5122 -1.4846  1.1556
  166SOL    HW2  498   2.071   0.039   1.447  0.0691 -3.5512 -0.9667
  167SOL     OW  499   0.973   0.296   1.881 -0.1640 -0.4226 -0.1536
  167SOL    HW1  500   1.038   0.355   1.931 -1.9557 -1.6665  0.2257
  167SOL    HW2  501   0.999   0.198   1.878 -1.1742 -1.7543  2.7731
  168SOL     OW  502   2.565   0.624   1.973 -0.2407 -0.0648 -0.1757
  168SOL    HW1  503   2.643   0.657   1.919 -0.0514 -1.3814  0.6600
  168SOL    HW2  504   2.479   0.659   1.933 -1.5187  2.3478 -0.2077
  169SOL     OW  505   0.245   1.486   0.180  0.6215 -0.2170 -0.0668
  169SOL    HW1  506   0.217   1.517   0.088 -0.3735 -0.5097  0.9021
  169SOL    HW2  507   0.176   1.421   0.220 -1.7334 -1.2213 -0.0305
  170SOL     OW  508   0.238   1.440   1.657  0.0288  0.1431  0.2583
  170SOL    HW1  509   0.236   1.385   1.742 -0.7795 -0.6999  1.1864
  170SOL    HW2  510   0.197   1.529   1.670  1.7241 -2.8016 -0.0533
  171SOL     OW  511   1.110   2.512   2.239 -0.3441 -0.0374  0.1538
  171SOL    HW1  512   1.018   2.519   2.280  0.1961 -1.5434  2.5049
  171SOL    HW2  513   1.138   2.417   2.216  1.7290 -1.8407 -0.3028
  172SOL     OW  514   0.487   2.619   1.572  0.1575 -0.2321  0.1789
  172SOL    HW1  515   0.585   2.626   1.555 -1.6287  2.6305  2.3711
  172SOL    HW2  516   0.433   2.626   1.486  2.2131 -0.7295 -0.2470
  173SOL     OW  517   1.513   2.424   0.945 -0.0637 -0.1821 -0.3485
  173SOL    HW1  518   1.534   2.443   1.042 -0.2615  2.4475 -0.1621
  173SOL    HW2  519   1.530   2.508   0.888  0.7202 -1.6765 -0.1900
  174SOL     OW  520   1.194   3.042   0.475  0.1743  0.2004 -0.3268
  174SOL    HW1  521   1.245   0.026   0.528 -2.1776  1.4384  0.4803
  174SOL    HW2  522   1.135   2.990   0.542  1.2666 -0.8659 -2.0667
  175SOL     OW  523   1.063   1.253   0.031 -0.2166 -0.2056 -0.8946
  175SOL    HW1  524   1.123   1.336   0.009  0.3785  0.9867  0.2199
  175SOL    HW2  525   1.116   1.190   0.095  1.8694 -1.6613  2.1311
  176SOL     OW  526   1.774   0.585   0.417 -0.0635  0.3229  0.3506
  176SOL    HW1  527   1.830   0.595   0.498  0.4711  1.3982 -0.4564
  176SOL    HW2  528   1.788   0.647   0.334 -1.9861 -1.1373  2.3898
  177SOL     OW  529   1.257   0.659   1.012 -0.5996  0.1697  0.1326
  177SOL    HW1  530   1.239   0.671   0.912 -0.0339  1.7832 -1.0309
  177SOL    HW2  531   1.258   0.749   1.058  0.1472 -1.8223  0.7051
  178SOL     OW  532   2.786   1.563   2.896  0.2551  0.3513  0.4798
  178SOL    HW1  533   2.834   1.524   2.816 -0.4145  0.4902  1.5257
  178SOL    HW2  534   2.770   1.494   2.965 -3.3989 -0.2735 -1.4743
  179SOL     OW  535   0.669   2.631   2.947  0.0311  0.4679  0.0339
  179SOL    HW1  536   0.674   2.707   2.883 -2.5656  0.3955 -1.7021
  179SOL    HW2  537   0.721   2.650   3.037  4.9691  0.8865 -0.1893
  180SOL     OW  538   1.911   1.596   1.606  0.0133 -0.5907 -0.1157
  180SOL    HW1  539   1.967   1.562   1.528  1.4677  2.5537  2.5403
  180SOL    HW2  540   1.868   1.516   1.651 -1.3875  0.3729  0.7197
  181SOL     OW  541   1.296   1.284   2.238 -0.5580 -0.2151  0.7495
  181SOL    HW1  542   1.199   1.257   2.215 -2.0629 -0.3663  0.3867
  181SOL    HW2  543   1.310   1.386   2.234 -1.1516  2.4201  0.6932
  182SOL     OW  544   0.183   0.945   2.367 -0.2503  0.2802 -0.1286
  182SOL    HW1  545   0.223   1.037   2.380  0.5267  1.2766 -1.9718
  182SOL    HW2  546   0.120   0.917   2.445 -1.0747  0.6759  1.2534
  183SOL     OW  547   1.625   0.387   2.501  0.2015  0.0845 -0.0213
  183SOL    HW1  548   1.531   0.421   2.490  0.4933 -2.2369 -0.0883
  183SOL    HW2  549   1.672   0.405   2.593  1.0202  0.9746  1.6627
  184SOL     OW  550   0.090   0.411   1.415  0.2579  0.5178  0.2218
  184SOL    HW1  551   0.092   0.449   1.319  0.6028  0.4885  0.2046
  184SOL    HW2  552   0.025   0.333   1.414 -0.3758 -0.9699 -2.5108
  185SOL     OW  553   2.507   1.673   0.942  0.0165  0.1837  0.3909
  185SOL    HW1  554   2.487   1.777   0.939 -1.1099  1.3681 -1.7254
  185SOL    HW2  555   2.607   1.663   0.950  0.4503  0.9955 -1.0742
  186SOL     OW  556   0.576   1.885   2.483  0.6354  0.2010 -0.1866
  186SOL    HW1  557   0.533   1.791   2.479 -2.4294 -3.8539  0.5755
  186SOL    HW2  558   0.523   1.945   2.545  2.0325  0.3710 -1.8603
  187SOL     OW  559   2.527   2.057   3.037  0.1204  0.2243  0.1212
  187SOL    HW1  560   2.615   2.041   3.089 -1.0670 -0.1564  2.4084
  187SOL    HW2  561   2.467   2.113   0.006  0.1556  0.2983 -0.9762
  188SOL     OW  562   0.673   2.229   0.458 -0.2002 -0.0866 -0.1822
  188SOL    HW1  563   0.692   2.221   0.558 -2.2361  0.9050 -0.8209
  188SOL    HW2  564   0.578   2.212   0.440 -0.1471  1.7891  0.2469
  189SOL     OW  565   2.472   0.798   2.992  0.2009  0.2115 -0.0710
  189SOL    HW1  566   2.479   0.817   0.002 -1.7063 -0.8975 -0.1796
  189SOL    HW2  567   2.530   0.854   2.928  1.0318 -3.7104 -1.8940
  190SOL     OW  568   1.043   1.776   2.002 -0.1965  0.2986 -0.2029
  190SOL    HW1  569   0.961   1.823   1.965 -0.0519  1.5562 -0.1503
  190SOL    HW2  570   1.126   1.805   1.950  2.4377 -0.4265  0.9350
  191SOL     OW  571   2.200   0.744   1.351  0.1644  0.3792  0.6812
  191SOL    HW1  572   2.173   0.673   1.426 -0.7495 -2.7057  2.1979
  191SOL    HW2  573   2.124   0.734   1.283 -0.1688 -0.1873 -1.5469
  192SOL     OW  574   2.075   0.306   1.779  0.0997  0.2676 -0.1258
  192SOL    HW1  575   1.978   0.315   1.766  0.5275 -0.3658  0.2486
  192SOL    HW2  576   2.088   0.286   1.878  1.5217  2.5266  0.2145
  193SOL     OW  577   0.075   0.606   0.937  0.1875 -0.6079 -0.5396
  193SOL    HW1  578   0.047   0.546   1.019 -1.6593 -1.4075  1.3137
  193SOL    HW2  579   0.159   0.570   0.899  0.0981 -0.4027  1.7570
  194SOL     OW  580   1.721   2.489   1.677  0.3229  0.6393  0.1960
  194SOL    HW1  581   1.649   2.517   1.609  0.5428  0.7888 -1.9961
  194SOL    HW2  582   1.775   2.408   1.641  1.7859 -2.3869 -1.6689
  195SOL     OW  583   2.438   0.683   0.658 -0.5232 -0.0179 -0.1631
  195SOL    HW1  584   2.393   0.689   0.561 -2.2168 -0.1961 -2.2533
  195SOL    HW2  585   2.454   0.585   0.679  1.0629  0.6733 -0.5108
  196SOL     OW  586   1.269   1.854   1.907  0.2120 -0.8141  0.3553
  196SOL    HW1  587   1.307   1.901   1.989 -0.5295 -0.6344  1.4634
  196SOL    HW2  588   1.295   1.905   1.822 -1.8669  0.1630 -0.7654
  197SOL     OW  589   0.056   0.248   2.606  0.4166 -0.4189 -0.5708
  197SOL    HW1  590   0.112   0.175   2.653 -0.9501 -0.7228 -1.6657
  197SOL    HW2  591   0.110   0.332   2.595 -1.3707 -1.1379 -2.0974
  198SOL     OW  592   1.197   1.058   0.591 -0.0342  0.3874  0.2857
  198SOL    HW1  593   1.264   1.052   0.666  0.0344 -0.5324 -0.7946
  198SOL    HW2  594   1.157   0.970   0.563 -1.2138  2.2089  2.2957
  199SOL     OW  595   2.763   0.936   1.688 -0.7064  0.1539  0.3271
  199SOL    HW1  596   2.805   0.863   1.630  1.0845  0.8423 -0.0314
  199SOL    HW2  597   2.659   0.921   1.693  0.2889  0.7553 -0.2826
  200SOL     OW  598   2.111   2.836   2.368 -0.3859 -0.2057  0.0793
  200SOL    HW1  599   2.142   2.926   2.331  1.0559  0.7856 -1.1231
  200SOL    HW2  600   2.125   2.756   2.307  1.4567  0.3608  0.2062
  201SOL     OW  601   2.585   0.355   1.661 -0.0437  0.5063  0.0166
  201SOL    HW1  602   2.682   0.352   1.692 -0.8994 -2.1622  1.0234
  201SOL    HW2  603   2.573   0.379   1.560 -0.2062 -0.8626  1.7685
  202SOL     OW  604   2.101   0.019   0.332  0.0295 -1.0392  0.2451
  202SOL    HW1  605   2.101   0.086   0.411 -2.4855  0.5840 -1.9201
  202SOL    HW2  606   2.161   0.058   0.258  0.3875 -2.2095  2.0516
  203SOL     OW  607   1.171   2.232   2.234 -0.8842 -0.6372 -0.3700
  203SOL    HW1  608   1.079   2.198   2.246 -2.0971  0.9957 -2.2729
  203SOL    HW2  609   1.229   2.214   2.321 -0.5071 -0.7569  2.3895
  204SOL     OW  610   0.910   1.523   2.516 -0.2215  0.3050 -0.1723
  204SOL    HW1  611   1.006   1.495   2.494 -0.5523 -0.4981 -0.3909
  204SOL    HW2  612   0.847   1.471   2.457  0.0271  1.9726  1.3886
  205SOL     OW  613   1.141   1.414   1.398 -0.0487 -0.1109  0.1101
  205SOL    HW1  614   1.198   1.357   1.331 -0.0378 -2.2719 -1.1262
  205SOL    HW2  615   1.123   1.359   1.486 -0.2970 -1.4073  0.5263
  206SOL     OW  616   0.354   0.463   2.738  0.6254 -0.4635 -0.6596
  206SOL    HW1  617   0.292   0.474   2.662  0.3954  1.8812  3.7731
  206SOL    HW2  618   0.300   0.417   2.812 -1.4689  3.2762 -0.7509
  207SOL     OW  619   1.640   2.626   2.305  0.4566  0.6991  0.6589
  207SOL    HW1  620   1.680   2.682   2.376 -3.8171 -2.1363  0.0956
  207SOL    HW2  621   1.621   2.677   2.221  1.7145 -1.5186 -1.4349
  208SOL     OW  622   0.848   2.322   1.370  0.3820 -0.1186  0.3281
  208SOL    HW1  623   0.882   2.408   1.414  0.3820 -2.9126  0.8655
  208SOL    HW2  624   0.869   2.318   1.273  2.0574 -1.2369  0.8313
  209SOL     OW  625   1.317   1.137   2.482  0.1383 -0.1998 -0.2649
  209SOL    HW1  626   1.322   1.193   2.398  2.2575 -0.2773 -1.3217
  209SOL    HW2  627   1.232   1.161   2.528 -1.0230  0.6358 -2.9327
  210SOL     OW  628   1.926   0.999   0.977  0.0100 -0.5567  0.0735
  210SOL    HW1  629   1.892   0.999   1.077 -1.2769 -0.8051 -1.7508
  210SOL    HW2  630   1.852   0.963   0.917  0.1662  0.2830 -1.4558
  211SOL     OW  631   0.783   2.500   0.516  0.3496  0.2790  0.0657
  211SOL    HW1  632   0.748   2.430   0.452  3.2845 -0.0075 -2.3475
  211SOL    HW2  633   0.883   2.506   0.506 -2.1528 -1.5577 -0.9772
  212SOL     OW  634   1.897   1.810   0.285 -0.1411 -0.0014  0.1575
  212SOL    HW1  635   1.799   1.838   0.284 -3.4120  2.1612 -0.4984
  212SOL    HW2  636   1.935   1.812   0.380 -2.3444 -0.7352  1.2469
  213SOL     OW  637   1.685   0.204   2.853 -0.3237 -0.2642  0.7574
  213SOL    HW1  638   1.674   0.225   2.950 -1.1313 -0.5139 -1.8689
  213SOL    HW2  639   1.762   0.135   2.842 -2.1116 -0.5451 -0.7975
  214SOL     OW  640   1.206   1.780   2.218  0.0258 -0.2960  0.3181
  214SOL    HW1  641   1.145   1.779   2.134 -0.0847  0.2825 -2.2342
  214SOL    HW2  642   1.156   1.758   2.302 -0.2805  2.4700 -1.0929
  215SOL     OW  643   0.704   1.837   0.317 -0.0498  0.2029  0.0661
  215SOL    HW1  644   0.736   1.859   0.224 -0.6614  0.3577  1.2519
  215SOL    HW2  645   0.689   1.734   0.323 -2.5424 -2.4001 -1.9804
  216SOL     OW  646   0.256   2.759   2.562 -0.0378  0.5549 -0.4974
  216SOL    HW1  647   0.236   2.663   2.600 -0.0675  1.7499 -1.4017
  216SOL    HW2  648   0.254   2.758   2.464  2.3642  1.6902  2.2989
  217SOL     OW  649   2.413   0.732   0.910  0.9282  0.6207 -0.1565
  217SOL    HW1  650   2.419   0.705   0.813  0.8055 -1.2435  2.5885
  217SOL    HW2  651   2.451   0.653   0.963 -1.3063 -1.0944  0.1325
  218SOL     OW  652   2.093   1.588   2.028  0.2139 -0.8380  0.0946
  218SOL    HW1  653   2.150   1.551   2.097 -5.7999  1.0157 -3.1158
  218SOL    HW2  654   2.144   1.659   1.976 -0.2022  0.8521  0.3178
  219SOL     OW  655   1.940   1.529   0.224 -0.0159  0.2156 -0.0947
  219SOL    HW1  656   1.924   1.512   0.123 -1.0339 -0.7977 -2.1856
  219SOL    HW2  657   1.905   1.621   0.250  0.1000 -0.3843 -0.4156
  220SOL     OW  658   1.646   1.055   0.568  0.1442  0.3692 -0.3268
  220SOL    HW1  659   1.577   1.110   0.620 -0.9083  1.3868 -4.1927
  220SOL    HW2  660   1.740   1.073   0.606  2.7345  2.6396  0.4881
  221SOL     OW  661   0.540   0.648   2.803 -0.1033  0.5306 -0.4628
  221SOL    HW1  662   0.554   0.640   2.904 -0.3444 -0.2134 -1.0648
  221SOL    HW2  663   0.474   0.577   2.781  2.7632 -0.1700  2.9032
  222SOL     OW  664   1.383   1.252   0.210 -0.1029  0.2623  0.1075
  222SOL    HW1  665   1.409   1.297   0.294 -0.4300 -0.2996 -0.4843
  222SOL    HW2  666   1.322   1.174   0.227 -0.9458 -0.7838  0.6034
  223SOL     OW  667   1.149   0.141   0.204  0.1812 -0.2224 -0.3314
  223SOL    HW1  668   1.075   0.122   0.270 -1.4383  2.6227  1.1647
  223SOL    HW2  669   1.214   0.205   0.252 -0.5337 -0.0998  0.2305
  224SOL     OW  670   2.138   0.105   1.589  0.4799  0.1271  0.2339
  224SOL    HW1  671   2.128   0.181   1.656  0.4348  0.3368  1.7314
  224SOL    HW2  672   2.223   0.058   1.601 -1.4853  1.4830 -1.9250
  225SOL     OW  673   0.335   2.939   1.135 -0.5684  0.2779  0.4942
  225SOL    HW1  674   0.238   2.937   1.118 -0.5002 -0.7322  1.3209
  225SOL    HW2  675   0.376   2.995   1.061  0.3579  0.4077  1.7485
  226SOL     OW  676   1.178   1.634   2.950  0.1600  0.3277  0.0536
  226SOL    HW1  677   1.240   1.713   2.944 -1.9229 -3.9964  1.0611
  226SOL    HW2  678   1.206   1.566   3.018  0.4326  1.5792  0.5102
  227SOL     OW  679   1.116   1.551   0.952  0.0697 -0.2808 -0.3657
  227SOL    HW1  680   1.166   1.619   1.009 -1.1494 -0.4992 -3.9703
  227SOL    HW2  681   1.169   1.464   0.945 -0.1620  1.0117 -1.1026
  228SOL     OW  682   0.463   1.669   0.628 -0.1695 -0.3319  0.2628
  228SOL    HW1  683   0.522   1.583   0.621  1.5876  0.2714  0.1300
  228SOL    HW2  684   0.381   1.659   0.690  0.1428 -1.4156 -3.4404
  229SOL     OW  685   1.408   0.466   0.015  0.4622 -0.0933  0.1150
  229SOL    HW1  686   1.487   0.512   3.064 -0.8391 -0.7551  1.3874
  229SOL    HW2  687   1.339   0.440   3.039 -0.2418  0.0529  1.8730
  230SOL     OW  688   1.698   0.687   2.603  0.0916 -0.0667 -0.3193
  230SOL    HW1  689   1.733   0.598   2.640  0.4218  0.9139 -0.6833
  230SOL    HW2  690   1.775   0.747   2.575 -1.5504  0.4347 -1.8905
  231SOL     OW  691   1.151   1.925   2.623  0.2307 -0.8982  0.0991
  231SOL    HW1  692   1.062   1.960   2.666 -1.7418  0.5632  0.4472
  231SOL    HW2  693   1.145   1.902   2.523  0.8036 -0.1868  0.3306
  232SOL     OW  694   2.363   2.147   0.734  0.0801  0.3070 -0.0828
  232SOL    HW1  695   2.294   2.163   0.808 -0.0945  0.1677 -3.1821
  232SOL    HW2  696   2.318   2.117   0.650  0.4548  0.9413  1.0617
  233SOL     OW  697   2.503   2.742   0.317 -0.4451 -0.5484  0.1944
  233SOL    HW1  698   2.481   2.768   0.222  3.6344 -0.1106  1.5841
  233SOL    HW2  699   2.453   2.802   0.378  1.2770 -0.0047  0.2416
  234SOL     OW  700   0.762   0.643   2.648 -0.1334  0.3028 -0.0475
  234SOL    HW1  701   0.690   0.623   2.713  0.5103 -1.3778  1.8382
  234SOL    HW2  702   0.830   0.704   2.692  0.0083 -1.5308  1.7440
  235SOL     OW  703   2.722   0.346   2.646  0.0138  0.5104 -0.0901
  235SOL    HW1  704   2.657   0.321   2.575  0.2095  0.5826  0.5020
  235SOL    HW2  705   2.681   0.417   2.705  0.2082 -0.5078 -3.4993
  236SOL     OW  706   2.107   2.526   1.841 -0.1422 -0.0104  0.3544
  236SOL    HW1  707   2.015   2.516   1.884  1.0603  0.2631  1.5505
  236SOL    HW2  708   2.180   2.544   1.913  1.9132 -3.3202  3.1566
  237SOL     OW  709   0.708   1.566   2.120  0.0030  0.2230  0.1362
  237SOL    HW1  710   0.668   1.658   2.109  2.0971  1.4167  1.6064
  237SOL    HW2  711   0.668   1.511   2.195 -0.2652  4.3462 -0.4957
  238SOL     OW  712   1.453   0.132   2.730  0.2107  0.6434  0.2023
  238SOL    HW1  713   1.524   0.183   2.784  0.2716  2.7538 -0.9318
  238SOL    HW2  714   1.493   0.051   2.684  0.3474  1.0186  1.9991
  239SOL     OW  715   0.301   2.164   1.611  0.0128 -0.3048 -0.6294
  239SOL    HW1  716   0.300   2.209   1.705 -0.1421 -0.2160  0.4351
  239SOL    HW2  717   0.389   2.119   1.586 -1.7117 -0.7849  0.2529
  240SOL     OW  718   2.808   2.257   0.895 -0.3287  0.1061  0.1092
  240SOL    HW1  719   2.723   2.291   0.859  1.9593  0.7654 -2.0903
  240SOL    HW2  720   2.844   2.324   0.963 -1.6442  1.9300 -0.5612
  241SOL     OW  721   2.476   0.988   0.838 -0.0526  0.0691 -0.2004
  241SOL    HW1  722   2.426   0.923   0.899 -1.0771  0.9531  0.2485
  241SOL    HW2  723   2.410   1.044   0.789  0.4623  0.9156 -0.4006
  242SOL     OW  724   2.029   2.264   2.398  0.1459  0.3955 -0.1066
  242SOL    HW1  725   1.983   2.174   2.378  1.5114 -0.6704 -0.8664
  242SOL    HW2  726   2.102   2.275   2.331  3.2157  0.4424  1.9545
  243SOL     OW  727   0.743   2.593   1.647 -0.0244  0.6790 -0.3036
  243SOL    HW1  728   0.759   2.684   1.684  1.4803 -2.1005 -1.6877
  243SOL    HW2  729   0.814   2.567   1.573  3.5819 -2.4444  0.5347
  244SOL     OW  730   2.077   0.072   3.008  0.2560 -0.3687  0.4717
  244SOL    HW1  731   1.999   0.050   3.068  0.7819  1.6741  1.1049
  244SOL    HW2  732   2.081   0.001   2.934  0.2213  2.3094 -1.6833
  245SOL     OW  733   1.256   0.046   1.299  0.0997 -0.7156  0.5652
  245SOL    HW1  734   1.176   0.050   1.237  2.2877 -0.9320  0.1117
  245SOL    HW2  735   1.229   3.085   1.382 -0.1048 -0.0844 -2.1888
  246SOL     OW  736   1.687   2.389   0.410 -0.3268  0.7910  0.8151
  246SOL    HW1  737   1.675   2.292   0.385 -2.0420 -2.0341 -2.4385
  246SOL    HW2  738   1.772   2.423   0.362  0.5726  0.1759 -0.4913
  247SOL     OW  739   1.339   0.493   2.475 -0.7433  0.3133 -0.1171
  247SOL    HW1  740   1.255   0.535   2.444  2.4306 -0.4772 -0.9082
  247SOL    HW2  741   1.313   0.400   2.512 -0.6940 -5.0794  0.2132
  248SOL     OW  742   0.583   1.931   1.903  0.0716  0.3980  0.0957
  248SOL    HW1  743   0.481   1.962   1.907 -0.4392 -0.7199  1.8851
  248SOL    HW2  744   0.584   1.833   1.873 -1.5199  4.1224 -1.1349
  249SOL     OW  745   2.238   0.269   0.413  0.5322  0.6866 -0.5505
  249SOL    HW1  746   2.245   0.334   0.335 -1.1798 -0.1228  2.4537
  249SOL    HW2  747   2.187   0.314   0.487 -1.8168 -1.2208  0.4538
  250SOL     OW  748   0.158   0.624   0.604  0.3055  0.1189 -0.2116
  250SOL    HW1  749   0.236   0.687   0.605 -0.7649 -1.6950  0.0495
  250SOL    HW2  750   0.078   0.657   0.549  1.2012 -0.2497 -0.0945
  251SOL     OW  751   1.532   0.665   2.940 -0.0243  0.0541  0.2099
  251SOL    HW1  752   1.556   0.761   2.934  0.2068 -2.8274 -0.6197
  251SOL    HW2  753   1.468   0.636   2.866  0.8328 -0.4992  1.4153
  252SOL     OW  754   1.644   1.840   1.934 -0.0619 -1.2031 -0.2244
  252SOL    HW1  755   1.736   1.801   1.919 -0.9390  1.1575 -2.2492
  252SOL    HW2  756   1.574   1.766   1.940 -1.3499 -2.4603 -1.1505
  253SOL     OW  757   2.616   2.378   1.720 -0.3982 -0.9226 -0.1042
  253SOL    HW1  758   2.677   2.436   1.781 -0.8510  0.0558  2.2746
  253SOL    HW2  759   2.651   2.286   1.714 -0.1342  0.3010 -2.9074
  254SOL     OW  760   2.848   1.229   1.094 -0.5601  0.1224 -0.2654
  254SOL    HW1  761   2.895   1.319   1.079  0.8044 -0.4451 -1.7792
  254SOL    HW2  762   2.920   1.157   1.081  5.2056 -1.6626 -2.1817
  255SOL     OW  763   0.973   0.596   1.153 -0.0036  0.4585 -0.1549
  255SOL    HW1  764   0.920   0.602   1.236  1.6750 -1.4417 -2.1747
  255SOL    HW2  765   0.999   0.497   1.131  3.2168  0.7765  0.2619
  256SOL     OW  766   1.845   2.269   1.574 -0.7828  0.2196 -0.6821
  256SOL    HW1  767   1.943   2.259   1.542  1.6527  0.9672 -3.6022
  256SOL    HW2  768   1.797   2.178   1.580  1.3557  1.9230 -0.1125
  257SOL     OW  769   0.691   2.914   2.383  0.5645 -0.0136  0.1336
  257SOL    HW1  770   0.732   2.967   2.460 -0.3960  0.2102  1.2933
  257SOL    HW2  771   0.759   2.910   2.307  0.5529  0.2930  3.1522
  258SOL     OW  772   0.854   2.209   0.274 -0.1006 -0.3508  0.2206
  258SOL    HW1  773   0.809   2.226   0.181  0.8681 -0.1379 -0.1105
  258SOL    HW2  774   0.790   2.183   0.347  1.7837  1.6958  1.7353
  259SOL     OW  775   1.204   2.994   2.706  0.3895  0.3250  0.5222
  259SOL    HW1  776   1.137   3.030   2.638  1.5728  0.5604 -0.5034
  259SOL    HW2  777   1.303   2.999   2.676  0.3578 -0.9365  1.5168
  260SOL     OW  778   1.763   0.703   1.088  0.0070 -0.7740 -0.2066
  260SOL    HW1  779   1.666   0.725   1.114  1.1103 -0.0204  0.8932
  260SOL    HW2  780   1.777   0.602   1.073  1.3794 -1.3052 -0.9228
  261SOL     OW  781   0.524   0.315   2.418 -0.4342 -0.2693 -0.4775
  261SOL    HW1  782   0.441   0.302   2.359 -5.5827  0.9354  2.0512
  261SOL    HW2  783   0.529   0.409   2.443 -0.5956 -0.5393  0.3285
  262SOL     OW  784   0.295   2.034   1.982 -0.0366  0.2650  0.1829
  262SOL    HW1  785   0.324   2.063   2.074 -0.0517  0.2480  1.1992
  262SOL    HW2  786   0.284   2.118   1.930 -1.7034  1.3413  1.0734
  263SOL     OW  787   2.482   1.304   2.328 -0.3965  0.0563  0.3078
  263SOL    HW1  788   2.417   1.221   2.324 -0.3273  0.6560  0.3154
  263SOL    HW2  789   2.446   1.365   2.403  1.7569 -1.2394  0.5057
  264SOL     OW  790   0.969   1.113   0.814  0.2144 -0.2932  0.0684
  264SOL    HW1  791   0.899   1.061   0.761 -0.9376 -0.1817 -0.0374
  264SOL    HW2  792   1.067   1.083   0.798  4.0756 -2.1695  0.8736
  265SOL     OW  793   1.176   2.597   1.237  0.1271  0.2957 -0.3575
  265SOL    HW1  794   1.198   2.497   1.248  0.1953 -0.9748 -3.2492
  265SOL    HW2  795   1.243   2.655   1.282  0.1933 -3.0448  0.3169
  266SOL     OW  796   1.553   1.016   1.155 -0.3148  0.3972  0.6560
  266SOL    HW1  797   1.648   1.021   1.194 -1.1597 -0.6241  2.0844
  266SOL    HW2  798   1.550   1.063   1.062 -0.8090  0.9410  1.0015
  267SOL     OW  799   2.419   1.089   3.081 -0.4038  0.5550 -0.2887
  267SOL    HW1  800   2.492   1.062   3.014  1.1205 -0.2230 -1.4386
  267SOL    HW2  801   2.401   1.007   0.046 -1.6556  2.3245  2.3261
  268SOL     OW  802   1.321   0.373   0.267  0.1056  0.0729  0.3576
  268SOL    HW1  803   1.385   0.395   0.343  0.1137  0.5385  0.5591
  268SOL    HW2  804   1.344   0.414   0.179 -3.1946  0.1008  0.2295
  269SOL     OW  805   2.527   0.517   2.777 -0.1766 -0.6394  0.3160
  269SOL    HW1  806   2.471   0.473   2.849 -2.5577  0.4463 -1.0463
  269SOL    HW2  807   2.463   0.530   2.699  1.1972  3.5746 -0.8605
  270SOL     OW  808   0.234   0.952   2.800  0.2252 -0.3754  0.5863
  270SOL    HW1  809   0.317   0.907   2.761  0.6186 -0.1202  2.6202
  270SOL    HW2  810   0.255   0.980   2.893 -1.3885  2.7659 -1.0312
  271SOL     OW  811   2.889   1.103   0.258  0.6130  0.0522 -0.4817
  271SOL    HW1  812   2.820   1.042   0.302  1.6978 -0.4719  3.2112
  271SOL    HW2  813   2.904   1.191   0.308 -1.4642 -2.4158 -0.4461
  272SOL     OW  814   2.733   2.634   2.506  0.1513  0.9052  0.4861
  272SOL    HW1  815   2.809   2.694   2.534  0.5150 -1.8723 -1.6622
  272SOL    HW2  816   2.741   2.540   2.540  0.1853  0.2476 -3.3946
  273SOL     OW  817   2.846   2.977   2.678 -0.0566  0.1382 -0.2470
  273SOL    HW1  818   2.851   3.060   2.622  0.3749 -1.8572 -1.5857
  273SOL    HW2  819   2.900   2.985   2.768 -0.3048 -0.0781  0.6087
  274SOL     OW  820   0.824   2.451   0.882 -0.5961 -0.0104  0.6385
  274SOL    HW1  821   0.751   2.519   0.876  0.2250 -0.0735  2.5086
  274SOL    HW2  822   0.904   2.476   0.819 -1.7814 -0.1659 -0.8783
  275SOL     OW  823   2.262   0.928   0.363 -0.1896  0.7394  0.2913
  275SOL    HW1  824   2.198   1.008   0.368  1.7559 -0.8978 -0.3034
  275SOL    HW2  825   2.333   0.929   0.437 -2.2697  0.0914 -1.7264
  276SOL     OW  826   2.946   1.122   1.617 -0.2278  0.2935  0.5827
  276SOL    HW1  827   2.870   1.060   1.643 -0.5492  1.5343  0.8292
  276SOL    HW2  828   2.929   1.219   1.651  1.2403  2.5587  1.2116
  277SOL     OW  829   2.108   0.018   1.087  0.2686  0.3295 -0.0263
  277SOL    HW1  830   2.083   0.026   1.186 -0.9234  0.4981 -0.5931
  277SOL    HW2  831   2.204   3.086   1.080 -0.8317  0.7901  2.2305
  278SOL     OW  832   1.594   2.506   2.688 -0.2702  0.2793  0.2725
  278SOL    HW1  833   1.567   2.485   2.590  1.3918 -1.0409 -0.4698
  278SOL    HW2  834   1.523   2.479   2.761 -1.8976 -2.7298  3.0724
  279SOL     OW  835   1.612   2.024   1.215 -0.8799 -0.0104  0.1468
  279SOL    HW1  836   1.645   1.934   1.243 -1.6798 -0.8993 -1.2801
  279SOL    HW2  837   1.678   2.102   1.237 -0.3222  0.3012  0.8056
  280SOL     OW  838   0.370   1.405   0.884 -0.2260  0.1632  0.5872
  280SOL    HW1  839   0.318   1.475   0.832  0.7057 -0.2525 -0.1238
  280SOL    HW2  840   0.365   1.409   0.985 -0.9761  1.5019  0.4266
  281SOL     OW  841   2.729   1.252   2.568 -0.1022 -0.1597  0.2084
  281SOL    HW1  842   2.659   1.256   2.642 -0.1403 -0.4995  0.8971
  281SOL    HW2  843   2.684   1.234   2.478 -0.0180  0.2867 -2.0556
  282SOL     OW  844   0.467   1.437   0.004  0.1280 -0.5490 -0.9168
  282SOL    HW1  845   0.389   1.468   0.060 -0.3409 -0.6865  0.1134
  282SOL    HW2  846   0.554   1.486   0.024 -1.4877  0.0388  1.2106
  283SOL     OW  847   2.250   2.523   0.133  0.1479  0.3425 -0.2086
  283SOL    HW1  848   2.206   2.607   0.112  2.1877 -0.5207  0.6558
  283SOL    HW2  849   2.350   2.527   0.128 -0.5766  2.1830 -0.2699
  284SOL     OW  850   0.900   0.065   0.920 -0.8344  0.3116  0.0566
  284SOL    HW1  851   0.937   0.160   0.905  1.8683  0.7744  2.5275
  284SOL    HW2  852   0.952   0.001   0.860  1.0991  0.4516  1.0839
  285SOL     OW  853   2.307   1.182   2.655  0.3604  0.4634  0.2300
  285SOL    HW1  854   2.365   1.096   2.675  0.9094 -0.0694 -0.9437
  285SOL    HW2  855   2.211   1.152   2.646  0.9579 -2.6463 -1.3484
  286SOL     OW  856   1.919   2.503   1.065  0.2957  0.6199 -0.4018
  286SOL    HW1  857   1.944   2.512   1.166 -1.9896  0.7797  1.1544
  286SOL    HW2  858   1.994   2.522   1.002 -0.9424  1.2112 -0.4047
  287SOL     OW  859   1.016   0.320   0.883  0.3035 -0.4579  0.0096
  287SOL    HW1  860   1.035   0.285   0.790  0.1866  2.2724 -2.1460
  287SOL    HW2  861   0.944   0.392   0.878 -2.0929 -0.6805 -0.2916
  288SOL     OW  862   0.838   2.411   2.931  0.4070  0.3584 -0.1796
  288SOL    HW1  863   0.785   2.503   2.924 -1.1879  0.4910  0.8437
  288SOL    HW2  864   0.928   2.419   2.981  1.1062 -3.3550  3.8547
  289SOL     OW  865   3.017   1.537   0.976 -0.2811  0.3231  0.1453
  289SOL    HW1  866   3.044   1.593   0.897  1.7712 -2.0708  1.9547
  289SOL    HW2  867   0.007   1.527   1.043  1.2961 -0.2786  1.1230
  290SOL     OW  868   1.445   1.961   1.011 -0.3622  0.5126  0.1481
  290SOL    HW1  869   1.510   1.972   1.088 -0.0651  1.8032 -0.9262
  290SOL    HW2  870   1.424   2.052   0.976  3.3154 -2.0178  0.7511
  291SOL     OW  871   1.416   0.043   0.147  0.0904  0.3408  0.5171
  291SOL    HW1  872   1.334   0.070   0.205 -1.1091 -1.1591  0.9740
  291SOL    HW2  873   1.396   0.015   0.052 -2.1456  2.5085  0.7615
  292SOL     OW  874   0.436   0.298   2.007 -0.1616  0.2515 -0.1737
  292SOL    HW1  875   0.447   0.378   2.068 -3.0111  0.1588 -1.2892
  292SOL    HW2  876   0.525   0.246   2.001  1.6237 -0.0764  1.8312
  293SOL     OW  877   2.464   1.993   1.345 -0.5439  0.3393 -0.3902
  293SOL    HW1  878   2.556   1.987   1.389  2.4620 -1.5089 -0.1476
  293SOL    HW2  879   2.462   2.077   1.290  4.3525  1.5791 -0.1887
  294SOL     OW  880   0.802   0.289   2.476  0.3306  0.4891  0.2634
  294SOL    HW1  881   0.868   0.366   2.497 -1.1906  0.1988 -0.0607
  294SOL    HW2  882   0.707   0.320   2.448 -1.9750  0.6330 -0.7182
  295SOL     OW  883   1.650   1.567   1.172 -0.3767  0.0749  0.1361
  295SOL    HW1  884   1.665   1.502   1.249 -1.7216 -0.0904 -0.4973
  295SOL    HW2  885   1.671   1.660   1.202 -1.9867  2.9951 -0.5115
  296SOL     OW  886   2.509   1.799   0.202  0.2410 -0.7435  0.3245
  296SOL    HW1  887   2.509   1.898   0.225 -0.0458  2.9579  2.3649
  296SOL    HW2  888   2.604   1.761   0.204  0.4492  0.3209  0.9458
  297SOL     OW  889   2.629   0.132   0.350 -1.2357  0.0627  0.0354
  297SOL    HW1  890   2.583   0.053   0.300 -0.0926 -0.2485  0.0875
  297SOL    HW2  891   2.666   0.196   0.278  2.2037  0.1158 -3.0049
  298SOL     OW  892   0.800   3.065   2.825 -0.2437 -0.0747 -0.2022
  298SOL    HW1  893   0.749   2.980   2.805 -0.9596 -0.3501  0.1553
  298SOL    HW2  894   0.766   0.025   2.905  1.6636 -1.4324 -0.0943
  299SOL     OW  895   0.694   2.148   2.055  0.1682  0.1127 -0.9766
  299SOL    HW1  896   0.643   2.089   1.995 -1.4700 -0.6778 -1.5758
  299SOL    HW2  897   0.673   2.110   2.150  0.0573 -1.3005 -0.9433
  300SOL     OW  898   2.687   2.961   2.177 -0.0333  0.3632  0.0827
  300SOL    HW1  899   2.749   3.028   2.220 -0.9633 -0.0440 -1.1920
  300SOL    HW2  900   2.736   2.884   2.136 -2.2021 -0.2055  0.8054
  301SOL     OW  901   1.128   0.826   1.852  0.1515 -0.5005 -0.4226
  301SOL    HW1  902   1.177   0.759   1.792  2.1891 -1.0066 -1.7543
  301SOL    HW2  903   1.171   0.832   1.943  1.9769 -1.5119 -0.6933
  302SOL     OW  904   0.004   2.143   0.231 -0.0929 -0.1631 -0.2335
  302SOL    HW1  905   0.067   2.183   0.305 -1.5217  1.8268 -2.5547
  302SOL    HW2  906   2.998   2.174   0.241 -1.2219 -0.1860 -0.4470
  303SOL     OW  907   2.471   2.683   1.556  0.3805  0.9432  0.1657
  303SOL    HW1  908   2.525   2.614   1.507  1.0097  2.1350  0.1446
  303SOL    HW2  909   2.500   2.701   1.648  0.9683  0.7374 -1.0657
  304SOL     OW  910   2.877   0.733   1.544 -0.0813  0.4352 -0.4495
  304SOL    HW1  911   2.806   0.684   1.603 -2.9449 -0.5213  0.3828
  304SOL    HW2  912   2.973   0.723   1.583  0.4008 -0.4202 -0.8706
  305SOL     OW  913   0.803   1.861   1.238  0.4934  0.0520  0.7833
  305SOL    HW1  914   0.767   1.951   1.211  1.2332 -0.6346  1.4023
  305SOL    HW2  915   0.800   1.854   1.341  0.7574  0.8821 -0.5119
  306SOL     OW  916   0.390   1.332   2.243 -0.1585 -0.3172  0.0464
  306SOL    HW1  917   0.347   1.404   2.188 -1.6585 -1.1293 -1.3229
  306SOL    HW2  918   0.468   1.371   2.290 -2.3356 -1.4813 -2.5538
  307SOL     OW  919   0.775   0.402   1.720  0.0038  0.3753  0.1090
  307SOL    HW1  920   0.851   0.370   1.782  0.6497  2.1216  0.8305
  307SOL    HW2  921   0.784   0.362   1.629 -1.7755 -0.2838  0.7616
  308SOL     OW  922   0.064   1.132   1.079  0.3437 -0.3584  0.0846
  308SOL    HW1  923   0.011   1.118   1.165 -0.6080 -0.1027 -1.1420
  308SOL    HW2  924   0.104   1.053   1.035  1.0063 -1.2093  1.5701
  309SOL     OW  925   2.661   1.091   1.270  0.3710 -0.1006  0.1267
  309SOL    HW1  926   2.640   1.147   1.351 -0.5662  0.6581 -0.7300
  309SOL    HW2  927   2.734   1.130   1.210 -1.0860  1.3353  0.1265
  310SOL     OW  928   0.025   2.058   2.423  0.1656  0.1913 -0.0238
  310SOL    HW1  929   0.015   2.013   2.513 -0.5574 -1.2126 -0.8645
  310SOL    HW2  930   0.127   2.073   2.403 -0.9901  1.2604 -0.0303
  311SOL     OW  931   2.762   2.530   2.252  0.7141 -0.0670  0.0433
  311SOL    HW1  932   2.838   2.551   2.191  0.5322  1.0693 -0.9957
  311SOL    HW2  933   2.775   2.571   2.342 -2.7336 -2.3303 -0.8748
  312SOL     OW  934   2.141   2.102   3.088 -0.9281  0.1278 -0.5031
  312SOL    HW1  935   2.069   2.166   0.030 -1.2404 -0.4027 -1.6005
  312SOL    HW2  936   2.124   2.009   0.021 -3.1121  1.4405 -2.6965
  313SOL     OW  937   2.939   2.869   0.608 -0.4201 -0.5342 -0.1545
  313SOL    HW1  938   2.851   2.893   0.565 -1.1508 -0.0934 -0.1860
  313SOL    HW2  939   3.020   2.889   0.551  0.7216 -0.4215  1.9042
  314SOL     OW  940   1.850   1.045   2.941 -0.5926  0.6448 -0.4568
  314SOL    HW1  941   1.838   1.032   3.042  0.1038 -0.5959  1.8769
  314SOL    HW2  942   1.905   1.129   2.927 -2.8169  0.9128 -2.0742
  315SOL     OW  943   1.456   2.971   2.590 -0.4043  0.1900  0.0035
  315SOL    HW1  944   1.490   2.981   2.492 -1.1107  1.0667 -2.2458
  315SOL    HW2  945   1.501   2.892   2.642  2.3859 -2.0705  0.5604
  316SOL     OW  946   3.054   1.492   0.323  0.0485  0.1147  0.1056
  316SOL    HW1  947   3.051   1.404   0.361 -0.5143  3.9962 -2.4830
  316SOL    HW2  948   3.062   1.493   0.219 -1.8126 -0.6569 -2.8511
  317SOL     OW  949   0.449   2.975   2.997 -0.0684  0.6193 -0.3005
  317SOL    HW1  950   0.465   3.023   2.908  0.7356 -1.7070 -2.3142
  317SOL    HW2  951   0.490   2.883   3.001 -0.5784  1.0483 -0.7599
  318SOL     OW  952   2.502   2.466   0.937 -0.1399 -0.1673 -0.0244
  318SOL    HW1  953   2.511   2.397   0.863  1.0532  0.3296  0.8538
  318SOL    HW2  954   2.405   2.495   0.947 -4.1771  0.0521  2.5824
  319SOL     OW  955   1.099   1.975   2.960  0.1359  0.0561  0.3956
  319SOL    HW1  956   1.005   1.981   2.916 -0.8022  1.0010  4.1331
  319SOL    HW2  957   1.089   1.912   3.042  2.5800 -1.3505 -0.8897
  320SOL     OW  958   0.685   2.109   1.177  0.4996 -0.3376 -0.0751
  320SOL    HW1  959   0.763   2.160   1.131  0.3922 -1.4229 -1.0154
  320SOL    HW2  960   0.634   2.172   1.231  2.2024 -1.2046 -0.2697
  321SOL     OW  961   1.226   2.704   2.692 -0.4101 -0.6372  0.4667
  321SOL    HW1  962   1.171   2.644   2.631 -0.7323  2.1883  0.0870
  321SOL    HW2  963   1.205   2.802   2.665 -0.6835  0.3067 -1.6526
  322SOL     OW  964   2.421   1.528   1.892  0.3828 -0.1729 -0.1448
  322SOL    HW1  965   2.446   1.537   1.990 -1.1537 -2.4110  0.2509
  322SOL    HW2  966   2.381   1.617   1.854  1.5239  0.8635  0.1030
  323SOL     OW  967   2.741   0.678   1.013  0.1279 -0.2278  0.2884
  323SOL    HW1  968   2.800   0.629   0.949 -0.8694  1.6023 -2.7760
  323SOL    HW2  969   2.671   0.620   1.058 -2.4805 -0.1848  2.0384
  324SOL     OW  970   2.491   3.001   2.347  0.5099 -0.4412  0.4542
  324SOL    HW1  971   2.460   2.908   2.376 -2.2532  0.1251 -1.8831
  324SOL    HW2  972   2.550   3.001   2.266  1.0246  0.8604  1.4011
  325SOL     OW  973   1.138   0.632   2.390 -0.2153 -0.2486 -0.3117
  325SOL    HW1  974   1.075   0.582   2.459 -1.8234 -2.6762  2.4847
  325SOL    HW2  975   1.103   0.632   2.294 -0.4377 -0.0455 -1.9392
  326SOL     OW  976   2.012   2.888   2.072 -0.1571 -0.3836 -0.3247
  326SOL    HW1  977   2.052   2.972   2.113 -0.0106  2.7824  1.2803
  326SOL    HW2  978   1.930   2.914   2.015 -0.6732  0.2999 -2.4368
  327SOL     OW  979   2.365   0.366   2.949  0.1789  0.2013 -0.2354
  327SOL    HW1  980   2.427   0.293   2.983  0.0426  1.8397 -1.9528
  327SOL    HW2  981   2.298   0.334   2.880  1.7465  0.4864 -2.0283
  328SOL     OW  982   3.069   1.523   2.266 -0.2163 -0.0302 -0.4255
  328SOL    HW1  983   0.053   1.521   2.196 -1.0403  3.2192  0.8212
  328SOL    HW2  984   2.991   1.463   2.237 -0.5779  3.5058 -0.4725
  329SOL     OW  985   1.671   0.152   1.714 -0.1797  0.1025  0.2801
  329SOL    HW1  986   1.623   0.189   1.797  1.6497 -1.2448  0.4822
  329SOL    HW2  987   1.731   0.222   1.668 -0.3244  0.5152  0.5324
  330SOL     OW  988   0.248   1.190   0.766  0.0707 -0.2617 -0.1486
  330SOL    HW1  989   0.154   1.229   0.790 -1.1622  0.4361 -0.3321
  330SOL    HW2  990   0.324   1.246   0.796 -1.1643  0.1450 -1.7113
  331SOL     OW  991   0.221   1.507   2.088 -0.2113  0.0784  0.1284
  331SOL    HW1  992   0.257   1.455   2.006  0.3042 -0.8355 -2.4977
  331SOL    HW2  993   0.212   1.605   2.073 -0.4496 -1.8993 -0.6524
  332SOL     OW  994   3.007   2.666   1.648  1.2538 -0.2943  0.4674
  332SOL    HW1  995   2.984   2.672   1.548  0.8785  0.8187  1.5154
  332SOL    HW2  996   3.001   2.570   1.684 -3.0190 -1.5307 -1.0212
  333SOL     OW  997   2.432   0.040   0.880  0.3097  0.1150  0.3733
  333SOL    HW1  998   2.492   0.121   0.879 -0.1594 -1.1084  2.2357
  333SOL    HW2  999   2.418   0.004   0.973 -2.3536 -0.1568 -0.3130
  334SOL     OW 1000   0.663   1.848   0.611  0.3221  0.3939  0.1258
  334SOL    HW1 1001   0.666   1.860   0.511 -0.8754  2.1076  0.5687
  334SOL    HW2 1002   0.588   1.780   0.638  0.9842 -0.0515 -2.0180
  335SOL     OW 1003   0.195   2.503   2.667  0.0539 -0.6352 -0.7179
  335SOL    HW1 1004   0.094   2.505   2.689 -0.6519  0.3033 -1.9353
  335SOL    HW2 1005   0.245   2.501   2.756  1.0800  0.0014  0.5694
  336SOL     OW 1006   0.283   2.766   2.292  0.3736 -0.6567 -0.4925
  336SOL    HW1 1007   0.273   2.861   2.253 -1.4571 -0.0529  1.0865
  336SOL    HW2 1008   0.293   2.705   2.214  2.1557 -0.1963  0.5923
  337SOL     OW 1009   2.082   2.640   2.174  0.5921 -0.1210 -0.5615
  337SOL    HW1 1010   2.043   2.725   2.130 -0.4508  1.4343 -3.4173
  337SOL    HW2 1011   2.003   2.582   2.204  3.2024  1.1711  0.0497
  338SOL     OW 1012   0.637   0.036   0.336 -0.6171  0.3429  0.0219
  338SOL    HW1 1013   0.643   0.084   0.251 -0.9246 -3.0914  4.0141
  338SOL    HW2 1014   0.586   3.039   0.329 -2.4356  2.1451  0.6950
  339SOL     OW 1015   0.492   1.109   2.099  0.0930 -0.0550  0.5849
  339SOL    HW1 1016   0.435   1.024   2.104  1.0995  2.8016  1.7520
  339SOL    HW2 1017   0.448   1.183   2.154  0.8845 -1.7603  1.0633
  340SOL     OW 1018   1.763   2.856   0.300  0.1476 -0.0684 -0.6461
  340SOL    HW1 1019   1.743   2.959   0.295 -0.3933  1.8399  0.0711
  340SOL    HW2 1020   1.674   2.808   0.271 -4.1619 -0.2249 -2.7321
  341SOL     OW 1021   2.153   1.100   0.839  0.1033 -0.0622  0.5178
  341SOL    HW1 1022   2.066   1.065   0.874 -2.4768  1.3048  0.0443
  341SOL    HW2 1023   2.213   1.140   0.911  1.0164  0.8882 -0.2356
  342SOL     OW 1024   2.464   3.045   0.205  0.0052  0.0492 -0.3173
  342SOL    HW1 1025   2.406   0.027   0.160  0.6578  1.4108  1.2213
  342SOL    HW2 1026   2.463   2.967   0.143  0.2692  1.4853 -1.1043
  343SOL     OW 1027   1.238   2.390   1.791 -0.4031  0.6779 -1.0904
  343SOL    HW1 1028   1.195   2.470   1.835  2.0770 -0.5333  0.1831
  343SOL    HW2 1029   1.333   2.378   1.827 -1.9143 -0.1843 -0.7837
  344SOL     OW 1030   2.572   2.718   1.099 -0.5325 -0.0938 -0.1620
  344SOL    HW1 1031   2.589   2.626   1.060  3.7490  0.8532  1.3867
  344SOL    HW2 1032   2.511   2.708   1.174  3.4000  0.9295 -1.9319
  345SOL     OW 1033   2.762   2.172   0.057 -0.0813 -0.3081 -0.0875
  345SOL    HW1 1034   2.770   2.272   0.035 -1.9380  2.0747  2.6337
  345SOL    HW2 1035   2.783   2.154   0.153 -1.4737 -1.7363  1.8318
  346SOL     OW 1036   2.513   1.939   0.856 -0.2200 -0.1261 -0.1582
  346SOL    HW1 1037   2.446   2.006   0.819 -0.0356 -2.7092  0.8627
  346SOL    HW2 1038   2.584   1.994   0.906  0.7679  0.6717  0.4055
  347SOL     OW 1039   1.503   2.115   1.687 -0.4347  0.2112 -0.5200
  347SOL    HW1 1040   1.474   2.188   1.752 -0.4393 -5.0023 -2.3619
  347SOL    HW2 1041   1.433   2.041   1.686  3.0600  2.7729 -2.0073
  348SOL     OW 1042   0.445   1.649   2.478  0.0130  0.1316 -0.6900
  348SOL    HW1 1043   0.392   1.593   2.548  0.9742 -1.5629 -1.2224
  348SOL    HW2 1044   0.384   1.688   2.404  1.7413 -0.1482  0.3044
  349SOL     OW 1045   2.496   1.405   1.058  0.4791  0.2946 -0.1859
  349SOL    HW1 1046   2.558   1.352   0.998 -2.9512 -1.5508 -0.8926
  349SOL    HW2 1047   2.473   1.499   1.023 -2.4058  1.7257 -0.7356
  350SOL     OW 1048   2.940   2.432   1.081 -0.1244 -0.1623  0.2492
  350SOL    HW1 1049   2.986   2.521   1.059 -0.4031  1.7094  1.9774
  350SOL    HW2 1050   3.007   2.376   1.132  2.8372  0.3270  0.1954
  351SOL     OW 1051   0.422   3.026   1.910  0.3019 -0.1961  0.9822
  351SOL    HW1 1052   0.330   3.056   1.875 -1.4737 -0.7202  0.3699
  351SOL    HW2 1053   0.493   0.008   1.907 -0.2316 -1.0144  0.6768
  352SOL     OW 1054   0.848   1.588   0.901  0.0249 -0.1001  0.5463
  352SOL    HW1 1055   0.823   1.690   0.906 -2.7745  0.2444  0.1098
  352SOL    HW2 1056   0.944   1.577   0.946  0.6618  0.8090  1.2351
  353SOL     OW 1057   1.354   1.609   2.646  0.1371 -0.0743 -0.2972
  353SOL    HW1 1058   1.324   1.709   2.643 -0.9606  0.5813  0.2493
  353SOL    HW2 1059   1.276   1.549   2.671  0.1469 -3.0578  0.3065
  354SOL     OW 1060   1.532   3.045   1.269 -0.0877 -0.0041 -0.3546
  354SOL    HW1 1061   1.489   2.977   1.203 -3.1746  1.0805 -2.8185
  354SOL    HW2 1062   1.449   0.009   1.303 -0.5994  3.4525  1.5152
  355SOL     OW 1063   2.120   1.492   0.639  0.4346 -0.1602 -0.1611
  355SOL    HW1 1064   2.191   1.456   0.577 -2.3967 -0.9120 -0.4460
  355SOL    HW2 1065   2.030   1.473   0.603  4.8813  2.9952  1.5616
  356SOL     OW 1066   2.752   1.588   2.123  0.9135 -0.9066  0.2370
  356SOL    HW1 1067   2.734   1.677   2.069 -0.7770  2.0274 -0.4215
  356SOL    HW2 1068   2.675   1.578   2.191 -3.5524  0.1642  2.3151
  357SOL     OW 1069   0.511   2.986   1.496 -0.2361 -0.8636  0.2811
  357SOL    HW1 1070   0.419   2.988   1.540  2.5255 -2.9730 -1.6322
  357SOL    HW2 1071   0.503   2.947   1.403 -0.9585  1.0901 -0.0301
  358SOL     OW 1072   2.514   0.835   1.639 -0.2762  0.1492 -0.2040
  358SOL    HW1 1073   2.428   0.782   1.663 -1.8955  0.7223  2.9597
  358SOL    HW2 1074   2.498   0.874   1.550  1.1393 -2.5019  1.5311
  359SOL     OW 1075   2.294   2.588   2.662  0.2058 -0.3549  0.0003
  359SOL    HW1 1076   2.270   2.496   2.626 -1.0529 -2.5891  1.4316
  359SOL    HW2 1077   2.309   2.567   2.758  0.6068 -1.0327 -1.4298
  360SOL     OW 1078   0.596   0.631   0.971 -0.2214  0.0011  0.6389
  360SOL    HW1 1079   0.587   0.719   1.020 -0.5471 -1.0606 -0.5265
  360SOL    HW2 1080   0.542   0.633   0.882 -0.1467  1.1521 -2.0059
  361SOL     OW 1081   1.862   3.002   1.036 -0.3593 -0.6675  0.2372
  361SOL    HW1 1082   1.837   2.943   1.112 -2.1955  0.7937 -3.7407
  361SOL    HW2 1083   1.954   3.047   1.047  0.3334 -1.1780 -0.2521
  362SOL     OW 1084   1.311   1.060   0.861  0.3480 -0.2890 -0.6564
  362SOL    HW1 1085   1.407   1.078   0.841 -1.7801 -0.7477  0.8793
  362SOL    HW2 1086   1.300   1.002   0.944 -1.2713 -1.3357 -2.3915
  363SOL     OW 1087   2.246   1.491   2.717  0.4877 -0.3497  0.4413
  363SOL    HW1 1088   2.270   1.500   2.816 -2.2609  1.2301 -1.6782
  363SOL    HW2 1089   2.195   1.408   2.708  2.6026  0.8514  2.7150
  364SOL     OW 1090   0.078   0.200   0.969  0.3391  0.1472  0.3416
  364SOL    HW1 1091   0.127   0.215   1.059  0.2052  0.5108 -0.0715
  364SOL    HW2 1092   3.079   0.249   0.980  0.1865 -1.9819  1.9770
  365SOL     OW 1093   0.111   2.886   2.757 -0.3217  0.1847 -0.2602
  365SOL    HW1 1094   0.149   2.840   2.673 -0.6010  0.6299 -0.7676
  365SOL    HW2 1095   0.036   2.830   2.800 -1.0457  0.7550 -2.8762
  366SOL     OW 1096   2.362   2.203   0.105  0.1678  0.0613 -0.1228
  366SOL    HW1 1097   2.280   2.181   0.048 -2.3360 -0.9112 -3.3791
  366SOL    HW2 1098   2.355   2.299   0.129 -1.5300 -1.0032 -1.1827
  367SOL     OW 1099   2.660   2.511   2.920 -0.0938  0.0119  0.3635
  367SOL    HW1 1100   2.648   2.444   2.844 -0.0766  1.2611 -0.0538
  367SOL    HW2 1101   2.728   2.471   2.983  0.4055  0.2727  0.9527
  368SOL     OW 1102   0.343   1.955   0.878  0.5168  0.3920 -0.3276
  368SOL    HW1 1103   0.388   2.046   0.870  0.0391 -0.2877 -1.6582
  368SOL    HW2 1104   0.241   1.962   0.855 -1.9318 -0.8040  0.4004
  369SOL     OW 1105   0.720   2.817   2.726 -0.0542 -0.4659 -0.3152
  369SOL    HW1 1106   0.637   2.841   2.670  2.3918  0.8667  1.1979
  369SOL    HW2 1107   0.805   2.810   2.665  0.3955  0.0043  0.5786
  370SOL     OW 1108   0.110   0.895   0.948 -0.1733 -0.1608  0.1875
  370SOL    HW1 1109   0.060   0.936   0.870 -3.3418 -0.8715 -0.1519
  370SOL    HW2 1110   0.080   0.800   0.956  1.2788  5.0695  1.9732
  371SOL     OW 1111   1.846   2.257   0.985 -0.2663  0.1591  0.2831
  371SOL    HW1 1112   1.858   2.347   1.031  0.8632 -3.3053  0.2908
  371SOL    HW2 1113   1.826   2.188   1.058 -2.0067  0.8981  3.2662
  372SOL     OW 1114   0.476   0.898   2.703 -0.1298 -1.0084  0.3803
  372SOL    HW1 1115   0.516   0.989   2.714 -2.5472 -0.9176  3.5779
  372SOL    HW2 1116   0.521   0.825   2.752 -4.2306  3.1455 -0.3574
  373SOL     OW 1117   0.085   1.978   0.872  0.0509 -0.0385 -0.2565
  373SOL    HW1 1118   0.029   2.029   0.804 -3.6238  0.3971 -2.6400
  373SOL    HW2 1119   0.022   1.921   0.929 -2.2231 -0.1430 -0.9623
  374SOL     OW 1120   0.114   2.751   0.080  0.3241 -0.2499  0.4571
  374SOL    HW1 1121   0.170   2.673   0.046 -0.0602 -0.9149  2.1221
  374SOL    HW2 1122   0.137   2.836   0.023 -0.7672  0.4708 -1.1191
  375SOL     OW 1123   0.188   0.447   0.150  0.7503 -0.0001  0.2219
  375SOL    HW1 1124   0.193   0.453   0.249  1.4237 -1.9997 -2.4156
  375SOL    HW2 1125   0.107   0.503   0.116 -2.3509 -0.6750 -0.3999
  376SOL     OW 1126   0.157   2.484   1.848  0.3318 -0.0500 -0.3854
  376SOL    HW1 1127   0.069   2.483   1.795 -2.0707 -2.0484 -0.6026
  376SOL    HW2 1128   0.210   2.563   1.816 -0.5050 -0.7989  3.4780
  377SOL     OW 1129   1.679   2.373   0.022  0.6304 -0.4265  0.2660
  377SOL    HW1 1130   1.680   2.353   3.017  1.0843  1.2743  0.5961
  377SOL    HW2 1131   1.592   2.413   0.049  0.8171 -0.3696 -2.7801
  378SOL     OW 1132   0.721   0.551   0.574 -0.4749 -0.3855 -0.0021
  378SOL    HW1 1133   0.760   0.473   0.515  0.6474  0.5210 -0.5290
  378SOL    HW2 1134   0.716   0.632   0.514 -0.3788 -1.5599 -2.0802
  379SOL     OW 1135   0.720   1.562   0.305 -0.0148 -0.1885  0.2832
  379SOL    HW1 1136   0.625   1.525   0.318  0.4396  1.2719  2.3556
  379SOL    HW2 1137   0.780   1.518   0.373 -0.0137  0.5309  3.7510
  380SOL     OW 1138   0.344   1.877   1.420 -0.4390 -0.0491  0.0782
  380SOL    HW1 1139   0.423   1.813   1.424 -2.2952  0.6123 -2.2240
  380SOL    HW2 1140   0.338   1.922   1.329 -1.2016  0.0122 -1.4782
  381SOL     OW 1141   0.567   1.278   1.884  0.4130 -0.0769 -0.5129
  381SOL    HW1 1142   0.658   1.322   1.901 -1.4301  0.0598 -0.5012
  381SOL    HW2 1143   0.546   1.222   1.963  1.7059  0.2580 -3.6043
  382SOL     OW 1144   2.252   1.819   0.573  0.1945  0.0166 -0.2292
  382SOL    HW1 1145   2.333   1.793   0.516  2.3987 -0.7986 -0.9620
  382SOL    HW2 1146   2.255   1.771   0.664 -0.6297 -0.0964 -0.4107
  383SOL     OW 1147   2.642   1.700   2.570  0.0777 -0.3085 -0.1851
  383SOL    HW1 1148   2.655   1.759   2.654 -1.1164 -0.3741 -0.4441
  383SOL    HW2 1149   2.730   1.674   2.528  1.0221  2.0811  1.4557
  384SOL     OW 1150   0.277   2.070   2.404 -0.1224  0.1896  0.4934
  384SOL    HW1 1151   0.324   2.093   2.491  0.9310  1.9821  1.5872
  384SOL    HW2 1152   0.302   2.133   2.329 -2.7475 -1.3927 -3.7866
  385SOL     OW 1153   2.754   1.994   0.967  0.6408 -0.6250 -0.2492
  385SOL    HW1 1154   2.833   1.935   0.979 -2.8167  0.9281 -1.9186
  385SOL    HW2 1155   2.783   2.087   0.930 -0.7855  1.9513 -0.4312
  386SOL     OW 1156   1.739   0.857   0.870  0.1389 -0.4975 -0.0729
  386SOL    HW1 1157   1.749   0.797   0.952 -1.4296 -1.4803 -0.1334
  386SOL    HW2 1158   1.694   0.812   0.789  0.7375  0.9862 -0.2366
  387SOL     OW 1159   0.554   0.671   1.889  0.0914  0.2484 -0.2225
  387SOL    HW1 1160   0.527   0.771   1.876 -2.5379 -0.5734  1.7390
  387SOL    HW2 1161   0.636   0.646   1.836  0.8238 -4.6136  1.7161
  388SOL     OW 1162   2.355   0.823   2.117  0.3250  0.3041  0.7868
  388SOL    HW1 1163   2.262   0.860   2.135 -3.1240  1.0936  1.1754
  388SOL    HW2 1164   2.365   0.797   2.020  3.6354  1.7558 -0.2616
  389SOL     OW 1165   1.956   1.348   1.972  0.7003  0.0158 -0.1277
  389SOL    HW1 1166   2.025   1.292   1.923 -0.3196  0.6339 -0.2599
  389SOL    HW2 1167   2.003   1.434   1.998 -0.0001  0.3711  1.2854
  390SOL     OW 1168   1.857   2.558   0.274  0.3386 -0.0535 -0.5437
  390SOL    HW1 1169   1.870   2.643   0.331 -1.1458  1.9451  0.3712
  390SOL    HW2 1170   1.836   2.586   0.175 -1.8297 -0.9809  0.3910
  391SOL     OW 1171   2.002   2.017   1.122 -0.2246 -0.1785 -0.0254
  391SOL    HW1 1172   2.002   1.965   1.034  1.1797 -0.2537 -2.1226
  391SOL    HW2 1173   1.972   1.960   1.200 -1.6302 -0.2227 -3.0380
  392SOL     OW 1174   0.031   2.695   1.308  0.3069  0.4256  0.3158
  392SOL    HW1 1175   3.024   2.668   1.331  0.9252 -2.4264 -1.9891
  392SOL    HW2 1176   0.040   2.690   1.207  0.6671 -1.3858  1.7411
  393SOL     OW 1177   2.073   1.825   0.066 -0.4084  0.4546  0.2502
  393SOL    HW1 1178   2.003   1.829   0.143  1.6912  0.4458  1.6847
  393SOL    HW2 1179   2.031   1.809   3.063 -0.0534 -0.5545 -3.2704
  394SOL     OW 1180   0.201   0.447   2.515  0.1716 -0.2734 -0.0834
  394SOL    HW1 1181   0.260   0.404   2.445  0.0020 -0.0775 -0.6283
  394SOL    HW2 1182   0.125   0.498   2.469 -2.4294 -1.8589  0.8271
  395SOL     OW 1183   1.104   0.717   0.752  0.2811 -0.2276 -0.2067
  395SOL    HW1 1184   1.047   0.735   0.835  1.9682  0.2640  1.9660
  395SOL    HW2 1185   1.064   0.770   0.677 -1.5635 -2.8358  3.3428
  396SOL     OW 1186   1.246   0.804   3.022 -0.0329 -0.1757 -0.6176
  396SOL    HW1 1187   1.321   0.855   3.065 -1.6430  1.5012 -3.3926
  396SOL    HW2 1188   1.250   0.809   2.919 -0.3188 -0.4073 -2.4952
  397SOL     OW 1189   0.459   0.550   2.106  0.5455 -0.3636  0.4981
  397SOL    HW1 1190   0.370   0.586   2.144  1.2007 -1.5103  0.9091
  397SOL    HW2 1191   0.489   0.607   2.033 -0.1229  0.2967  3.4061
  398SOL     OW 1192   0.913   0.036   0.388 -0.3337  0.3716  0.6189
  398SOL    HW1 1193   0.944   3.032   0.412 -0.5698 -1.2379  0.0844
  398SOL    HW2 1194   0.816   0.040   0.366  3.1927  0.7278  0.8103
  399SOL     OW 1195   2.351   3.049   1.654  0.4934 -0.2755 -0.3186
  399SOL    HW1 1196   2.299   2.989   1.718 -2.6059 -0.7017  1.2682
  399SOL    HW2 1197   2.404   0.019   1.715 -1.3258  0.7425  1.6667
  400SOL     OW 1198   0.536   1.762   2.140 -0.5328 -0.5537  0.2656
  400SOL    HW1 1199   0.447   1.762   2.194  1.4441 -1.0969 -0.2367
  400SOL    HW2 1200   0.546   1.849   2.094  3.8577 -1.5619  3.1018
  401SOL     OW 1201   0.571   0.592   2.446  0.6118 -0.2303  0.2656
  401SOL    HW1 1202   0.627   0.627   2.523 -0.8986  0.6346 -2.7503
  401SOL    HW2 1203   0.519   0.666   2.398 -0.1166 -1.2627 -0.2675
  402SOL     OW 1204   2.968   2.145   1.708 -0.1365 -0.0697 -0.2079
  402SOL    HW1 1205   3.003   2.101   1.790 -1.3879  1.6228 -2.0564
  402SOL    HW2 1206   3.027   2.119   1.625  1.8047 -2.3246 -0.4211
  403SOL     OW 1207   0.455   0.915   1.786 -0.0268  0.2729 -1.0262
  403SOL    HW1 1208   0.440   0.884   1.692  2.5718 -0.4669 -0.4817
  403SOL    HW2 1209   0.401   0.998   1.796 -2.3218 -0.6352 -1.7703
  404SOL     OW 1210   0.082   2.818   1.816  0.4385 -0.3127 -0.2026
  404SOL    HW1 1211   0.179   2.784   1.803 -0.1218 -2.0491  1.5840
  404SOL    HW2 1212   0.016   2.770   1.757  1.7577  0.2825  2.2432
  405SOL     OW 1213   0.393   0.469   1.781 -0.0124  0.0380  0.0032
  405SOL    HW1 1214   0.449   0.549   1.819  3.1636  3.7561  1.8425
  405SOL    HW2 1215   0.412   0.381   1.836 -0.8483 -0.3783  4.0145
  406SOL     OW 1216   1.931   2.249   2.866  0.1463 -0.6198  0.0581
  406SOL    HW1 1217   1.939   2.234   2.962 -0.7971 -0.4157 -1.9956
  406SOL    HW2 1218   1.989   2.181   2.815 -1.6129 -2.2784  0.7863
  407SOL     OW 1219   1.351   1.542   2.226  0.6452 -0.0830 -0.4412
  407SOL    HW1 1220   1.305   1.633   2.221 -0.5019 -2.4518  1.0624
  407SOL    HW2 1221   1.411   1.545   2.306  0.2034  1.2582  0.8931
  408SOL     OW 1222   0.561   0.265   2.676 -0.0051  0.6772  0.2886
  408SOL    HW1 1223   0.570   0.265   2.578  0.8862 -2.8010  3.2862
  408SOL    HW2 1224   0.491   0.325   2.713  4.0053 -1.1223  0.1882
  409SOL     OW 1225   0.336   1.741   0.402  0.1260 -0.5747 -0.2255
  409SOL    HW1 1226   0.398   1.696   0.469 -0.2743 -1.3953 -1.7873
  409SOL    HW2 1227   0.271   1.818   0.441 -5.0540  3.3568 -1.3251
  410SOL     OW 1228   2.540   1.448   0.258  0.4552  0.2610  0.1790
  410SOL    HW1 1229   2.609   1.511   0.219  0.7958 -0.1198 -1.2847
  410SOL    HW2 1230   2.508   1.382   0.187 -0.5097  0.4841 -1.0971
  411SOL     OW 1231   2.925   0.335   1.020  0.1175 -0.1491 -0.0162
  411SOL    HW1 1232   2.833   0.300   1.052 -3.4413 -2.5772  0.7770
  411SOL    HW2 1233   2.922   0.397   0.938 -0.2920  2.0309 -0.6088
  412SOL     OW 1234   1.299   0.936   1.119 -0.2260  0.0094  0.4031
  412SOL    HW1 1235   1.399   0.959   1.122 -2.0169  1.3332  0.4372
  412SOL    HW2 1236   1.245   0.985   1.185 -1.8386  1.1785 -1.1284
  413SOL     OW 1237   0.567   2.875   1.257 -0.1853 -0.3459 -0.2259
  413SOL    HW1 1238   0.482   2.915   1.209 -0.1462  4.2759 -0.7350
  413SOL    HW2 1239   0.589   2.778   1.242  1.2754 -1.7246 -1.3942
  414SOL     OW 1240   3.080   1.806   2.641  0.6198 -1.0274 -0.5160
  414SOL    HW1 1241   3.063   1.895   2.691  0.3331  3.5136  2.0095
  414SOL    HW2 1242   0.078   1.773   2.660 -2.4253  1.2334 -3.3121
  415SOL     OW 1243   0.402   2.206   2.932 -0.4347  0.0379 -0.2968
  415SOL    HW1 1244   0.424   2.170   3.019 -0.2347 -0.3717 -1.2696
  415SOL    HW2 1245   0.325   2.153   2.891 -0.8243 -1.5908  0.7115
  416SOL     OW 1246   1.539   0.200   0.455  0.4661 -0.3079 -0.3807
  416SOL    HW1 1247   1.542   0.302   0.466  0.5744 -0.3658  0.4402
  416SOL    HW2 1248   1.445   0.163   0.478  0.5992  1.1100  0.7844
  417SOL     OW 1249   0.334   1.131   0.506 -0.1151 -0.1255  0.4880
  417SOL    HW1 1250   0.307   1.151   0.601 -0.4767 -1.0778  0.9067
  417SOL    HW2 1251   0.255   1.169   0.453  2.0343  1.2077  1.4497
  418SOL     OW 1252   2.156   0.951   1.900  0.8347  0.1403 -0.0895
  418SOL    HW1 1253   2.138   0.937   1.998  1.7616  0.4775  0.0064
  418SOL    HW2 1254   2.185   1.041   1.871  0.0679  4.1576 -1.3118
  419SOL     OW 1255   0.040   0.391   0.714 -0.3732  0.0389 -0.4279
  419SOL    HW1 1256   0.113   0.342   0.762 -1.2507 -0.9599 -2.5925
  419SOL    HW2 1257   0.078   0.482   0.692 -1.5368  0.8999  0.8545
  420SOL     OW 1258   0.474   1.419   0.311 -0.0825 -0.4418 -0.4034
  420SOL    HW1 1259   0.400   1.440   0.246  4.5656 -0.9630  2.2787
  420SOL    HW2 1260   0.430   1.417   0.404 -0.1621 -0.2838  1.2131
  421SOL     OW 1261   1.040   2.516   0.717  0.1867 -0.0037 -0.4063
  421SOL    HW1 1262   1.068   2.443   0.648  1.7111 -1.0115 -0.4809
  421SOL    HW2 1263   1.062   2.605   0.684 -1.2755  0.7238  1.4765
  422SOL     OW 1264   0.022   0.849   1.360  0.0012  0.2439 -0.5268
  422SOL    HW1 1265   0.011   0.828   1.459  0.9276 -0.1283 -1.1121
  422SOL    HW2 1266   0.107   0.797   1.325  3.4365 -1.8644 -0.1946
  423SOL     OW 1267   1.334   1.603   1.453 -0.6882 -0.0447 -0.0354
  423SOL    HW1 1268   1.261   1.550   1.501 -0.7303 -0.9289  2.3944
  423SOL    HW2 1269   1.360   1.567   1.359  2.3871  2.6250  1.7267
  424SOL     OW 1270   2.033   1.124   2.676  0.2316  0.0653 -0.2864
  424SOL    HW1 1271   2.039   1.170   2.769  1.9956 -2.4169 -0.1278
  424SOL    HW2 1272   1.951   1.147   2.625  0.3738 -0.1052  1.6483
  425SOL     OW 1273   0.071   0.508   1.952  0.0695  0.2561 -0.2530
  425SOL    HW1 1274   0.117   0.500   1.863  0.1783 -1.0407  1.8679
  425SOL    HW2 1275   3.059   0.510   1.947  0.4733 -2.2636  0.0662
  426SOL     OW 1276   2.479   2.770   2.514  0.7722 -0.1263 -0.1387
  426SOL    HW1 1277   2.560   2.716   2.491 -1.6603  2.0049  2.4780
  426SOL    HW2 1278   2.410   2.711   2.558 -0.1255  1.9996 -0.5348
  427SOL     OW 1279   0.956   0.611   2.123  0.3078 -0.1170 -0.3872
  427SOL    HW1 1280   0.869   0.588   2.166  1.1570 -0.0854 -1.1246
  427SOL    HW2 1281   0.938   0.678   2.043 -1.8131  0.1107 -1.2413
  428SOL     OW 1282   2.057   0.798   1.696  0.4202  0.7934  0.6220
  428SOL    HW1 1283   2.104   0.849   1.773 -0.5284  0.6564  0.0235
  428SOL    HW2 1284   2.030   0.862   1.621 -0.3895 -0.4170  3.5395
  429SOL     OW 1285   2.777   2.798   0.303  0.7829  0.4192 -0.5720
  429SOL    HW1 1286   2.804   2.898   0.289 -0.2581 -0.1091  0.2416
  429SOL    HW2 1287   2.678   2.787   0.319 -1.0295 -2.0687  0.2362
  430SOL     OW 1288   1.634   1.828   2.565  0.1676  0.4650 -0.0567
  430SOL    HW1 1289   1.670   1.868   2.481 -1.8282 -3.5164  2.0145
  430SOL    HW2 1290   1.546   1.872   2.593  1.1146  2.5901  0.4280
  431SOL     OW 1291   0.044   1.730   1.258 -0.7246  0.2691  0.2006
  431SOL    HW1 1292   0.099   1.650   1.227  0.9915 -1.0560 -1.5816
  431SOL    HW2 1293   0.060   1.751   1.355  1.4625 -2.1173 -1.1299
  432SOL     OW 1294   1.603   2.776   2.720  1.1906 -0.5690  1.1791
  432SOL    HW1 1295   1.661   2.802   2.797 -2.8079 -2.0576 -0.4282
  432SOL    HW2 1296   1.582   2.677   2.722  1.2851  0.8785 -2.5276
  433SOL     OW 1297   1.594   3.001   2.287 -0.2317  0.1657  0.5587
  433SOL    HW1 1298   1.607   3.038   2.193  0.2293  0.2939  0.0650
  433SOL    HW2 1299   1.645   2.920   2.303  0.0904  1.2423 -0.5076
  434SOL     OW 1300   0.478   2.553   2.100 -0.0649 -0.0497 -0.1647
  434SOL    HW1 1301   0.389   2.502   2.095 -0.0789 -2.3502  0.2013
  434SOL    HW2 1302   0.477   2.640   2.052 -1.1723 -4.6980  3.6000
  435SOL     OW 1303   0.105   2.361   0.011  0.6910 -0.6770  0.3253
  435SOL    HW1 1304   0.166   2.440   0.029  0.5021  1.7387  2.0632
  435SOL    HW2 1305   0.087   2.309   0.098 -0.7744 -0.0583  0.6618
  436SOL     OW 1306   0.734   0.664   1.670 -0.4688 -0.3192 -0.0624
  436SOL    HW1 1307   0.737   0.563   1.666 -1.0111  0.0068  1.2136
  436SOL    HW2 1308   0.698   0.703   1.586  1.3107 -1.3913 -0.2114
  437SOL     OW 1309   0.574   2.478   2.518 -0.5590  0.3963 -0.2626
  437SOL    HW1 1310   0.567   2.556   2.450  1.2096  2.1018 -2.6718
  437SOL    HW2 1311   0.630   2.508   2.595 -4.3631  0.9923  2.2126
  438SOL     OW 1312   0.594   1.664   1.452  0.1235 -0.0895  0.5393
  438SOL    HW1 1313   0.687   1.695   1.468  0.7665 -0.9817  1.7384
  438SOL    HW2 1314   0.574   1.585   1.520 -0.0065 -1.2707  4.4618
  439SOL     OW 1315   2.169   0.895   2.634 -0.1168  0.1514  0.0474
  439SOL    HW1 1316   2.126   0.826   2.701 -2.0107 -1.6377  2.4031
  439SOL    HW2 1317   2.112   0.981   2.634 -0.9086 -1.0219 -0.7068
  440SOL     OW 1318   0.610   0.696   3.051 -0.3219  0.0099  0.3198
  440SOL    HW1 1319   0.662   0.641   0.027  1.0029  1.2704 -0.1924
  440SOL    HW2 1320   0.660   0.779   3.022 -2.6161  0.3639  0.3351
  441SOL     OW 1321   0.855   2.090   1.542  0.0432  0.0908  0.1216
  441SOL    HW1 1322   0.912   2.111   1.626 -0.8163 -1.7836 -2.0978
  441SOL    HW2 1323   0.834   2.172   1.487 -0.7016  0.5267  0.6405
  442SOL     OW 1324   2.801   1.628   0.751  0.4147  0.3496 -0.2096
  442SOL    HW1 1325   2.755   1.709   0.708 -0.1242  1.9378 -0.0293
  442SOL    HW2 1326   2.783   1.633   0.853  0.1682 -0.5490 -0.3669
  443SOL     OW 1327   2.747   2.052   2.661  0.4549  0.3099 -0.1340
  443SOL    HW1 1328   2.808   2.056   2.580  1.9842 -2.3953 -2.5435
  443SOL    HW2 1329   2.722   1.957   2.687 -0.5855  0.1216  2.6218
  444SOL     OW 1330   1.435   1.318   2.864  0.0171 -0.2906 -0.2991
  444SOL    HW1 1331   1.389   1.339   2.953  3.2320 -0.0016 -0.3936
  444SOL    HW2 1332   1.510   1.383   2.850  1.9039 -1.5808  0.4334
  445SOL     OW 1333   2.505   0.106   1.829  0.2104 -0.0480 -0.4933
  445SOL    HW1 1334   2.597   0.106   1.787 -2.4544 -2.9429  0.9340
  445SOL    HW2 1335   2.488   0.181   1.898 -0.5758 -1.6098  3.8363
  446SOL     OW 1336   0.310   0.980   1.087  0.6131 -0.3276 -0.2225
  446SOL    HW1 1337   0.285   1.074   1.104 -3.2594 -0.5857 -2.0180
  446SOL    HW2 1338   0.233   0.938   1.031  0.0956  0.5944  2.1474
  447SOL     OW 1339   1.013   1.912   1.044  0.1343 -0.5956 -0.0133
  447SOL    HW1 1340   0.942   1.883   1.114 -3.6872  1.0182 -0.1036
  447SOL    HW2 1341   0.965   1.905   0.954  1.4217  0.0911  0.4983
  448SOL     OW 1342   0.995   1.202   1.602 -0.8874  0.0683 -0.0859
  448SOL    HW1 1343   0.919   1.263   1.580  1.0241 -3.2518 -0.9910
  448SOL    HW2 1344   0.967   1.103   1.597  0.6877 -0.2104 -0.7470
  449SOL     OW 1345   2.807   2.054   2.010 -0.4411  0.4340 -0.0074
  449SOL    HW1 1346   2.771   2.148   2.007 -0.2476 -0.6182  1.1772
  449SOL    HW2 1347   2.904   2.052   1.985 -1.9375  0.4585 -2.0550
  450SOL     OW 1348   0.122   1.667   1.762  0.4207 -0.1295  0.2413
  450SOL    HW1 1349   0.040   1.621   1.797 -1.5297 -0.0424 -0.1700
  450SOL    HW2 1350   0.175   1.712   1.841  1.5500 -0.9077  3.7493
  451SOL     OW 1351   2.021   0.735   1.159  0.2376  0.1487  0.1938
  451SOL    HW1 1352   1.935   0.788   1.139 -0.8854  0.1350  0.2283
  451SOL    HW2 1353   2.054   0.690   1.077  1.1140  2.4072  4.1377
  452SOL     OW 1354   0.588   1.430   0.650  0.6851 -0.1947 -0.9764
  452SOL    HW1 1355   0.688   1.443   0.677  0.8168 -0.0646  0.8414
  452SOL    HW2 1356   0.540   1.399   0.735  0.6260  0.3897 -0.4201
  453SOL     OW 1357   1.377   2.211   0.955  0.0767 -0.2942 -0.4782
  453SOL    HW1 1358   1.328   2.215   0.866 -0.4702  0.1872 -1.4475
  453SOL    HW2 1359   1.418   2.300   0.978 -1.2749 -2.5974  0.9703
  454SOL     OW 1360   0.568   1.804   3.077  0.2932 -0.5849 -0.3067
  454SOL    HW1 1361   0.629   1.736   0.024 -0.4022  0.3356  1.1080
  454SOL    HW2 1362   0.491   1.829   0.054 -1.3552 -1.0698  0.8902
  455SOL     OW 1363   1.400   0.729   0.489 -0.0586 -0.6421  0.5012
  455SOL    HW1 1364   1.362   0.786   0.412 -1.8272 -1.2544 -2.6904
  455SOL    HW2 1365   1.323   0.691   0.542  0.7005 -0.8098 -1.8609
  456SOL     OW 1366   2.163   2.180   1.255  0.6591  0.3422  0.1494
  456SOL    HW1 1367   2.097   2.118   1.209 -1.1786  1.7114  1.0773
  456SOL    HW2 1368   2.137   2.184   1.358 -0.3520 -1.5630  1.2126
  457SOL     OW 1369   1.732   2.918   2.957 -0.0745 -0.0934 -0.3265
  457SOL    HW1 1370   1.795   2.949   3.032 -1.7315 -0.1429  0.7776
  457SOL    HW2 1371   1.761   2.974   2.873 -1.6788  0.7831 -0.5942
  458SOL     OW 1372   2.525   0.465   0.382  0.1749 -0.8935  0.1101
  458SOL    HW1 1373   2.500   0.368   0.382  0.0636 -1.4812 -0.3905
  458SOL    HW2 1374   2.446   0.526   0.409  2.8041  1.6492  1.4135
  459SOL     OW 1375   0.025   0.597   2.380 -0.4335 -0.1148 -0.1857
  459SOL    HW1 1376   0.000   0.679   2.432 -0.1329  1.3430 -0.8969
  459SOL    HW2 1377   3.039   0.556   2.326 -1.3520 -2.1717 -0.0929
  460SOL     OW 1378   0.119   1.203   0.082 -0.1087 -0.6082  0.0671
  460SOL    HW1 1379   0.194   1.145   0.050 -0.5622 -0.5269 -1.6688
  460SOL    HW2 1380   0.057   1.232   0.003 -2.0100  1.6146 -1.0092
  461SOL     OW 1381   2.815   2.534   0.682  0.3012  0.4768 -0.1524
  461SOL    HW1 1382   2.818   2.442   0.724  2.4679 -0.8046  0.2213
  461SOL    HW2 1383   2.733   2.590   0.705 -2.6716 -2.6133 -2.9069
  462SOL     OW 1384   2.983   3.053   1.671  0.5757  0.0407 -0.1510
  462SOL    HW1 1385   3.028   0.053   1.669  0.0507 -0.6208 -0.6210
  462SOL    HW2 1386   3.036   2.991   1.614 -0.4015  0.3685 -0.5093
  463SOL     OW 1387   1.909   2.035   2.307  0.0850  0.0481 -0.2155
  463SOL    HW1 1388   1.928   2.050   2.211 -1.0425 -2.2494  2.5289
  463SOL    HW2 1389   1.926   1.941   2.335  0.0056 -0.6655  2.7693
  464SOL     OW 1390   0.921   0.001   1.451  0.1258 -0.0874  0.3337
  464SOL    HW1 1391   0.840   0.002   1.510  0.6876  1.7563 -1.9399
  464SOL    HW2 1392   0.999   0.024   1.510 -1.4885 -1.3934 -0.2917
  465SOL     OW 1393   0.569   0.202   1.725 -0.4110  0.4487 -0.8690
  465SOL    HW1 1394   0.624   0.116   1.708  1.8328 -3.5707  1.4222
  465SOL    HW2 1395   0.641   0.274   1.747  0.4118 -1.1479 -1.0884
  466SOL     OW 1396   1.642   2.789   2.076  0.5638 -0.0475 -0.1827
  466SOL    HW1 1397   1.625   2.882   2.047 -0.6486 -0.6737  0.8940
  466SOL    HW2 1398   1.696   2.741   2.008 -0.6378  3.3679 -0.6693
  467SOL     OW 1399   0.323   2.033   1.204 -0.3243 -0.0813  0.2014
  467SOL    HW1 1400   0.313   2.001   1.106  1.1965 -3.2931 -4.6866
  467SOL    HW2 1401   0.317   2.137   1.208 -0.2865  0.3216 -1.5778
  468SOL     OW 1402   2.399   1.491   2.497  0.1576  0.1247  0.0841
  468SOL    HW1 1403   2.477   1.548   2.474 -1.7740  0.7719  0.4553
  468SOL    HW2 1404   2.363   1.509   2.592  1.3345 -0.3668 -0.3000
  469SOL     OW 1405   1.260   1.753   0.623  0.3047 -0.0556  0.3135
  469SOL    HW1 1406   1.320   1.734   0.705 -1.6796  1.3076  1.0679
  469SOL    HW2 1407   1.272   1.851   0.592  2.3840 -0.2519  0.1532
  470SOL     OW 1408   2.664   1.221   1.509 -0.1229 -0.0748  0.3682
  470SOL    HW1 1409   2.702   1.252   1.602 -0.3790  0.9942  1.9046
  470SOL    HW2 1410   2.564   1.200   1.515 -2.0671 -0.1415  1.2668
  471SOL     OW 1411   0.419   2.469   2.871  0.3442  0.0397  0.4364
  471SOL    HW1 1412   0.420   2.372   2.898  2.3611  0.1356  0.8159
  471SOL    HW2 1413   0.496   2.521   2.915 -1.4650 -1.5869 -0.8289
  472SOL     OW 1414   2.958   1.798   2.022  0.0571  0.4843  0.6889
  472SOL    HW1 1415   2.965   1.697   2.007  0.8388 -1.8855  0.9114
  472SOL    HW2 1416   2.861   1.823   2.006  0.8652  0.9594 -2.1037
  473SOL     OW 1417   0.696   2.767   0.504 -0.1901 -0.7610  1.0064
  473SOL    HW1 1418   0.708   2.666   0.517 -1.3264  0.1140 -2.5118
  473SOL    HW2 1419   0.784   2.824   0.504 -0.9453 -0.4355 -0.7164
  474SOL     OW 1420   2.696   2.922   0.973 -0.3574 -0.3418  0.2754
  474SOL    HW1 1421   2.638   2.925   0.893  1.4342 -0.1806  0.2620
  474SOL    HW2 1422   2.669   2.833   1.023 -0.2947 -0.4893  0.2294
  475SOL     OW 1423   1.889   3.078   1.655  0.7024 -0.1713 -0.2780
  475SOL    HW1 1424   1.973   0.018   1.604 -0.2201  0.3892 -1.9819
  475SOL    HW2 1425   1.822   0.061   1.669  0.0567 -0.7440  0.3837
  476SOL     OW 1426   0.467   0.630   0.735  0.0180  0.3453  0.2107
  476SOL    HW1 1427   0.552   0.623   0.675  0.2384 -0.6817  1.6036
  476SOL    HW2 1428   0.418   0.717   0.708  1.3908  3.8280 -0.8399
  477SOL     OW 1429   0.882   2.290   1.106  0.1802  0.2249  0.5767
  477SOL    HW1 1430   0.861   2.356   1.028 -1.4845  1.9460 -0.5700
  477SOL    HW2 1431   0.969   2.238   1.082  1.3756 -1.0886 -2.0345
  478SOL     OW 1432   0.155   2.341   2.281  0.1148 -0.2548  0.2687
  478SOL    HW1 1433   0.061   2.313   2.311 -1.8833  1.5923  1.5249
  478SOL    HW2 1434   0.224   2.343   2.352  0.7397  1.0396 -1.9132
  479SOL     OW 1435   0.134   0.510   1.678  0.6063 -0.2039 -0.6600
  479SOL    HW1 1436   0.229   0.478   1.701  2.2973  1.5733  1.6300
  479SOL    HW2 1437   0.103   0.468   1.595  0.1545 -0.3165  2.0542
  480SOL     OW 1438   2.863   2.418   3.082 -0.2555  0.2823  0.1102
  480SOL    HW1 1439   2.888   2.508   0.025 -0.4393  1.0069  1.4142
  480SOL    HW2 1440   2.944   2.374   3.036  0.2435 -0.7140 -1.2087
  481SOL     OW 1441   1.570   2.072   2.028 -0.2461  0.1211  0.3696
  481SOL    HW1 1442   1.605   1.990   1.969  1.0393 -2.0577  1.9192
  481SOL    HW2 1443   1.483   2.046   2.078 -2.1635  0.4744  3.2958
  482SOL     OW 1444   1.654   2.220   2.867  0.3109  0.7485 -0.6411
  482SOL    HW1 1445   1.613   2.189   2.780  1.2460  0.9877 -1.9327
  482SOL    HW2 1446   1.755   2.218   2.861 -0.3368  1.5933  1.6291
  483SOL     OW 1447   0.635   2.087   2.321 -0.1483 -0.0866  0.3796
  483SOL    HW1 1448   0.611   2.013   2.385  0.1288 -1.7581  0.6502
  483SOL    HW2 1449   0.673   2.163   2.378 -0.9190  0.3864 -1.2645
  484SOL     OW 1450   0.006   0.465   1.153 -0.0210 -0.7627 -0.0767
  484SOL    HW1 1451   3.030   0.417   1.099  3.3754  1.3746  2.1713
  484SOL    HW2 1452   3.057   0.545   1.197  2.2964 -3.3259 -1.4708
  485SOL     OW 1453   2.304   0.618   0.423  0.0964  0.4874  0.3656
  485SOL    HW1 1454   2.240   0.550   0.462 -1.8162 -2.1286  0.2671
  485SOL    HW2 1455   2.256   0.702   0.391  0.6024 -1.2944 -0.8491
  486SOL     OW 1456   1.789   2.849   2.408 -0.3477 -0.2929 -0.6357
  486SOL    HW1 1457   1.879   2.876   2.361  3.9472 -0.1506 -1.3552
  486SOL    HW2 1458   1.806   2.802   2.495 -1.8194 -3.5994 -1.3423
  487SOL     OW 1459   1.288   1.362   0.914  0.6068  0.6036 -0.4427
  487SOL    HW1 1460   1.263   1.281   0.854  1.7069  2.9367  1.8057
  487SOL    HW2 1461   1.357   1.425   0.877 -0.5344 -0.7432  0.7942
  488SOL     OW 1462   2.172   1.237   0.081 -0.7437 -0.0195  0.0364
  488SOL    HW1 1463   2.261   1.227   0.032  0.0427 -2.1256  1.8470
  488SOL    HW2 1464   2.182   1.322   0.135 -4.7234 -0.2517 -1.5494
  489SOL     OW 1465   2.465   0.198   0.584 -0.6847 -0.1328 -0.7262
  489SOL    HW1 1466   2.379   0.200   0.528 -0.5624  0.7955 -1.3619
  489SOL    HW2 1467   2.541   0.167   0.524 -1.1720  1.7668  1.5234
  490SOL     OW 1468   1.530   2.828   0.165 -0.1207  0.8023 -0.3979
  490SOL    HW1 1469   1.496   2.855   0.073  0.0300  1.8837  0.4165
  490SOL    HW2 1470   1.452   2.841   0.229  1.7151 -0.5257  1.7081
  491SOL     OW 1471   1.004   0.839   0.525 -0.5550 -0.3083  0.0773
  491SOL    HW1 1472   0.911   0.884   0.525 -0.6832  2.7374 -1.2955
  491SOL    HW2 1473   1.013   0.785   0.439 -0.6162  1.4538  3.6903
  492SOL     OW 1474   1.607   0.252   0.018  0.0561 -0.6807  0.1556
  492SOL    HW1 1475   1.545   0.185   0.061 -1.6193  3.0844 -2.4171
  492SOL    HW2 1476   1.586   0.347   0.049  1.4183  0.1038  0.5382
  493SOL     OW 1477   1.945   2.274   0.043  0.5980 -0.1764  0.2354
  493SOL    HW1 1478   1.980   2.309   0.135 -2.3894 -0.5192  1.3227
  493SOL    HW2 1479   1.849   2.304   0.026  1.7117 -0.1728  1.5082
  494SOL     OW 1480   0.598   1.177   0.515 -0.0756  0.3845  0.3259
  494SOL    HW1 1481   0.503   1.152   0.477  0.8031 -0.3501 -3.2611
  494SOL    HW2 1482   0.604   1.273   0.537 -1.7518  0.2831 -1.7576
  495SOL     OW 1483   0.040   2.644   1.048 -1.2370  0.6031  0.4001
  495SOL    HW1 1484   0.037   2.673   0.951  1.1008 -0.3876  2.6983
  495SOL    HW2 1485   0.123   2.579   1.059  2.2294 -0.7583 -0.4644
  496SOL     OW 1486   2.326   0.447   1.731  0.6417  0.2963  0.3185
  496SOL    HW1 1487   2.416   0.405   1.706 -4.2244  0.0419 -0.7796
  496SOL    HW2 1488   2.248   0.379   1.735  0.6028 -1.9707  0.8841
  497SOL     OW 1489   1.885   1.873   2.678  0.2481  0.1476 -0.4188
  497SOL    HW1 1490   1.789   1.852   2.646 -3.0858  1.4002  0.2785
  497SOL    HW2 1491   1.949   1.795   2.656  0.3931 -1.1362  2.1864
  498SOL     OW 1492   0.968   2.070   0.750  0.6426 -0.1587  0.3050
  498SOL    HW1 1493   0.907   1.993   0.780  0.2138  0.9010 -1.1556
  498SOL    HW2 1494   1.013   2.120   0.830  0.0210 -0.4357 -1.8973
  499SOL     OW 1495   0.563   1.902   1.026 -0.0626 -0.2527 -0.3133
  499SOL    HW1 1496   0.587   1.985   1.082  3.6912 -2.8673  0.0493
  499SOL    HW2 1497   0.486   1.917   0.964  1.2329 -1.2252  0.3748
  500SOL     OW 1498   1.268   2.010   0.501  0.0206  0.0513  0.5155
  500SOL    HW1 1499   1.177   2.017   0.459  0.0746 -2.7084  0.7298
  500SOL    HW2 1500   1.342   2.050   0.443  1.2332 -0.7565  0.3181
  501SOL     OW 1501   2.358   2.680   1.267 -0.5095  0.0929 -0.3401
  501SOL    HW1 1502   2.343   2.587   1.302 -1.0078  0.8367 -2.7278
  501SOL    HW2 1503   2.281   2.744   1.293 -0.7825  2.7727  1.0457
  502SOL     OW 1504   0.358   0.864   1.515  0.1974 -0.3364  0.4779
  502SOL    HW1 1505   0.322   0.959   1.513 -1.1742 -2.1479 -0.6056
  502SOL    HW2 1506   0.316   0.811   1.441 -1.6214 -1.0156  1.7681
  503SOL     OW 1507   1.882   0.522   1.389 -0.0015 -0.0390  0.0683
  503SOL    HW1 1508   1.806   0.589   1.398  0.0143  0.2851 -1.1392
  503SOL    HW2 1509   1.960   0.540   1.448  1.0090 -1.0100  0.2027
  504SOL     OW 1510   1.665   0.758   2.086 -0.6983 -0.0692 -0.3547
  504SOL    HW1 1511   1.670   0.751   2.190  0.2849  0.4191  0.0960
  504SOL    HW2 1512   1.597   0.825   2.061  1.7136 -0.8554  0.2572
  505SOL     OW 1513   1.011   0.147   2.740  0.1282  0.0298 -0.4818
  505SOL    HW1 1514   0.945   0.071   2.759 -1.6227 -2.3355  1.3937
  505SOL    HW2 1515   1.004   0.222   2.811 -3.0639  1.3070  0.0869
  506SOL     OW 1516   0.372   0.462   1.505  0.0799  0.1156 -0.5770
  506SOL    HW1 1517   0.284   0.409   1.500  0.8389 -2.3961  1.3923
  506SOL    HW2 1518   0.399   0.473   1.601  2.4365  0.5153 -0.4200
  507SOL     OW 1519   1.347   0.031   2.952  0.4160 -0.3468  0.2905
  507SOL    HW1 1520   1.378   3.023   2.946 -1.1839  0.8000 -1.1152
  507SOL    HW2 1521   1.389   0.089   2.882  1.5049  1.2936 -1.4924
  508SOL     OW 1522   2.321   0.540   2.607  0.0034 -0.0187 -0.0261
  508SOL    HW1 1523   2.271   0.464   2.563 -0.5965 -0.5822 -0.3861
  508SOL    HW2 1524   2.291   0.634   2.571  1.2966  0.0877 -0.4946
  509SOL     OW 1525   0.829   1.429   1.912 -0.0506 -0.1301 -0.8581
  509SOL    HW1 1526   0.864   1.490   1.839 -0.2633  1.5571 -0.1754
  509SOL    HW2 1527   0.784   1.484   1.984 -0.4626 -1.6749  0.5505
  510SOL     OW 1528   3.079   1.275   0.851 -0.1279  0.5926 -0.1830
  510SOL    HW1 1529   3.045   1.363   0.880 -0.5975 -1.2083  1.0283
  510SOL    HW2 1530   0.031   1.229   0.928 -0.6262 -1.7543 -2.1066
  511SOL     OW 1531   1.754   1.525   0.931  0.3191 -0.0703 -0.1145
  511SOL    HW1 1532   1.710   1.543   1.025 -1.0442  0.0620 -0.1937
  511SOL    HW2 1533   1.854   1.534   0.948  0.7073 -1.5753  0.2636
  512SOL     OW 1534   0.805   0.995   0.333  0.5599 -0.2678  0.3906
  512SOL    HW1 1535   0.739   1.053   0.276 -1.2319 -0.0633 -1.3412
  512SOL    HW2 1536   0.882   1.053   0.363 -1.8086 -1.4644 -2.2675
  513SOL     OW 1537   0.295   2.246   0.656  0.2250  0.6313 -0.1211
  513SOL    HW1 1538   0.199   2.279   0.674 -1.9562 -0.2447  0.5001
  513SOL    HW2 1539   0.360   2.268   0.732  0.6926  1.3820  2.0454
  514SOL     OW 1540   2.542   2.052   2.191  0.3420  0.3807  0.4474
  514SOL    HW1 1541   2.552   2.152   2.210  3.1528 -0.0156 -2.1607
  514SOL    HW2 1542   2.623   2.008   2.151 -4.0490 -0.3793 -0.8578
  515SOL     OW 1543   2.683   0.698   0.225  0.5381 -0.6194 -0.3930
  515SOL    HW1 1544   2.721   0.766   0.292 -1.8642  0.1808 -0.1736
  515SOL    HW2 1545   2.640   0.622   0.276  2.7868  1.0279  3.5131
  516SOL     OW 1546   2.438   2.883   0.765  0.2482 -0.0365  0.0140
  516SOL    HW1 1547   2.420   2.975   0.813 -0.1030  1.3686 -1.2026
  516SOL    HW2 1548   2.391   2.883   0.679  2.0675  2.0299  3.1904
  517SOL     OW 1549   1.335   1.877   2.968 -0.3212  0.2683  0.4980
  517SOL    HW1 1550   1.381   1.939   3.038 -1.8180  1.3761  1.1080
  517SOL    HW2 1551   1.241   1.910   2.952  2.1824  1.1503 -0.2247
  518SOL     OW 1552   0.954   0.942   1.678  0.1079 -0.2996 -0.3824
  518SOL    HW1 1553   0.948   0.887   1.593  1.7516  0.8346  0.8247
  518SOL    HW2 1554   1.014   0.898   1.746 -1.1896  0.4003 -1.6241
  519SOL     OW 1555   2.851   1.617   0.442  0.7038  0.7702  0.1387
  519SOL    HW1 1556   2.857   1.594   0.540 -0.3992 -1.4534 -0.9756
  519SOL    HW2 1557   2.913   1.556   0.385  0.0725 -0.6564 -1.3733
  520SOL     OW 1558   2.291   2.077   1.860  0.2142  0.0043 -0.7473
  520SOL    HW1 1559   2.311   2.177   1.881  0.5518 -0.5880  0.0243
  520SOL    HW2 1560   2.201   2.047   1.906 -0.4618 -0.1963  1.2611
  521SOL     OW 1561   0.776   0.019   2.548  0.0053  0.4028  0.3836
  521SOL    HW1 1562   0.799   3.086   2.642 -0.6867 -3.5523 -1.6203
  521SOL    HW2 1563   0.797   0.116   2.532  2.4046 -3.3078  0.5573
  522SOL     OW 1564   2.194   0.500   2.177  0.1091 -0.2780 -0.3053
  522SOL    HW1 1565   2.289   0.537   2.180 -0.7162  0.4033 -3.8358
  522SOL    HW2 1566   2.137   0.536   2.097  0.0007 -1.4270  1.1316
  523SOL     OW 1567   1.940   2.629   1.563 -0.4866 -0.1106 -0.6038
  523SOL    HW1 1568   1.883   2.565   1.621 -0.7596 -4.5285  3.0794
  523SOL    HW2 1569   2.033   2.630   1.601 -4.6851 -1.4230  1.0418
  524SOL     OW 1570   1.619   2.061   0.086 -0.1155  0.0201  0.3312
  524SOL    HW1 1571   1.612   2.153   0.039 -0.4287  1.9288 -4.9201
  524SOL    HW2 1572   1.679   1.995   0.038 -0.0396  2.4424 -0.0039
  525SOL     OW 1573   0.074   0.759   0.030  0.3148  0.3946 -0.2722
  525SOL    HW1 1574   0.166   0.731   0.064 -1.8492 -0.8707  0.0807
  525SOL    HW2 1575   0.033   0.694   3.058  2.7296  0.9349 -0.0862
  526SOL     OW 1576   1.132   2.737   0.617  0.3778 -0.3680 -0.0022
  526SOL    HW1 1577   1.212   2.688   0.574 -0.0847  0.0819 -2.4816
  526SOL    HW2 1578   1.170   2.787   0.699  0.4256  0.9192 -0.7101
  527SOL     OW 1579   2.655   1.846   0.636  1.2013  0.0144  0.4161
  527SOL    HW1 1580   2.605   1.880   0.714  2.0695 -1.8836 -2.9147
  527SOL    HW2 1581   2.596   1.800   0.566 -2.7972 -0.0745 -2.2176
  528SOL     OW 1582   0.729   0.929   2.124  0.8247 -0.4804  0.4565
  528SOL    HW1 1583   0.638   0.980   2.121 -0.1116  0.4038  1.3706
  528SOL    HW2 1584   0.734   0.846   2.063  0.1297 -0.8834  1.4612
  529SOL     OW 1585   1.401   1.955   2.710 -0.0684  0.2633 -0.6974
  529SOL    HW1 1586   1.403   1.908   2.799  1.1342  1.2691  0.0240
  529SOL    HW2 1587   1.305   1.964   2.674  0.9832  0.5560  0.7228
  530SOL     OW 1588   1.694   1.044   2.281 -0.2403  0.4076 -0.2778
  530SOL    HW1 1589   1.617   1.099   2.245  3.7148 -0.3998  0.1193
  530SOL    HW2 1590   1.671   0.956   2.326  2.7363 -0.5621 -0.6671
  531SOL     OW 1591   0.740   2.274   2.471 -0.5605  0.0708 -0.1115
  531SOL    HW1 1592   0.667   2.341   2.493  0.0209 -2.4737  1.3982
  531SOL    HW2 1593   0.794   2.245   2.553  0.5704 -0.2174  0.6013
  532SOL     OW 1594   2.473   0.933   0.545  0.2362  0.5699  0.3243
  532SOL    HW1 1595   2.435   1.017   0.595  0.2206 -2.8576  0.9251
  532SOL    HW2 1596   2.476   0.852   0.606 -2.2795 -1.4003 -1.9471
  533SOL     OW 1597   0.026   0.187   1.642  0.4361 -0.3130 -0.0664
  533SOL    HW1 1598   0.115   0.235   1.647 -2.3294  0.7491 -0.2072
  533SOL    HW2 1599   0.005   0.169   1.544 -1.1019  0.8040  0.5105
  534SOL     OW 1600   0.560   0.100   0.075  0.0752  0.2102 -0.0201
  534SOL    HW1 1601   0.468   0.130   0.054  0.0236  0.2352  1.0150
  534SOL    HW2 1602   0.621   0.156   0.016  0.8682  0.8087  0.1672
  535SOL     OW 1603   0.153   0.003   0.136 -0.0721  0.0974 -0.7051
  535SOL    HW1 1604   0.137   3.050   0.050  3.1922  1.1930  1.2315
  535SOL    HW2 1605   0.064   0.018   0.185 -0.3571 -0.8175 -0.9037
  536SOL     OW 1606   0.504   1.669   1.203  0.3433 -0.0421  0.3610
  536SOL    HW1 1607   0.513   1.758   1.152 -1.7376  0.0487  0.4923
  536SOL    HW2 1608   0.541   1.667   1.298  1.0938 -1.9319  1.9628
  537SOL     OW 1609   0.821   2.810   1.792 -0.1906  0.2648  0.3651
  537SOL    HW1 1610   0.916   2.842   1.771 -1.2363  0.5277  0.1374
  537SOL    HW2 1611   0.828   2.744   1.868 -1.4345  0.6578 -0.3158
  538SOL     OW 1612   0.161   1.974   2.937  0.1932  0.3688  0.0713
  538SOL    HW1 1613   0.155   1.963   3.039  0.1456 -1.5283 -0.1159
  538SOL    HW2 1614   0.175   1.882   2.899  1.1323 -0.2516 -2.1128
  539SOL     OW 1615   2.455   0.957   2.618 -0.5772 -0.5438  0.7676
  539SOL    HW1 1616   2.380   0.894   2.591  1.4775 -0.2654 -4.2215
  539SOL    HW2 1617   2.533   0.896   2.648 -0.8472 -1.0824 -0.5408
  540SOL     OW 1618   1.766   0.429   2.719  0.3472  1.0716 -0.1295
  540SOL    HW1 1619   1.752   0.343   2.772 -1.6767 -2.6648 -3.9834
  540SOL    HW2 1620   1.854   0.466   2.740  0.3606 -0.1240  0.1547
  541SOL     OW 1621   0.631   0.120   2.041 -0.5059  0.3446  0.3569
  541SOL    HW1 1622   0.594   0.070   2.127 -0.2849 -2.4479  0.1121
  541SOL    HW2 1623   0.693   0.196   2.064  1.6201 -1.9064 -1.2007
  542SOL     OW 1624   1.858   2.706   0.014  0.2055 -0.1508  0.1854
  542SOL    HW1 1625   1.912   2.650   3.040  0.8388  0.1738 -1.8876
  542SOL    HW2 1626   1.782   2.753   3.055  2.6673 -1.5118  1.0739
  543SOL     OW 1627   0.985   0.200   0.631 -0.0377  0.1449  0.0570
  543SOL    HW1 1628   0.925   0.254   0.572 -0.8574 -0.0218  1.9903
  543SOL    HW2 1629   0.982   0.108   0.592 -1.6373 -0.2061 -1.2515
  544SOL     OW 1630   2.667   1.318   1.835 -0.5782 -0.2867  0.3409
  544SOL    HW1 1631   2.641   1.271   1.923  2.3625  0.9107 -1.5246
  544SOL    HW2 1632   2.590   1.378   1.806  0.5991 -2.3749  1.1308
  545SOL     OW 1633   2.089   1.596   1.209  0.0207 -0.1242 -0.6271
  545SOL    HW1 1634   2.166   1.656   1.167  2.5824  1.1124 -1.1865
  545SOL    HW2 1635   2.058   1.520   1.149 -2.4293 -0.8155  1.2981
  546SOL     OW 1636   0.018   0.066   2.117  0.3573  0.6147  0.6106
  546SOL    HW1 1637   0.035   0.143   2.047  1.0928  1.7710 -1.9712
  546SOL    HW2 1638   0.106   0.014   2.126  0.4751  1.8374  0.5336
  547SOL     OW 1639   1.514   0.584   0.948 -0.2322  0.0021  0.4901
  547SOL    HW1 1640   1.420   0.602   0.985 -0.3192  0.7661 -0.5734
  547SOL    HW2 1641   1.575   0.548   1.017 -0.9146 -0.3234 -2.6517
  548SOL     OW 1642   1.450   2.391   2.912  0.0605  0.1274  0.2916
  548SOL    HW1 1643   1.366   2.339   2.931  0.5576 -3.0894  1.5949
  548SOL    HW2 1644   1.527   2.327   2.905  0.0405 -0.6179  1.4518
  549SOL     OW 1645   2.287   0.408   0.178  0.3247  0.2933  0.0820
  549SOL    HW1 1646   2.211   0.470   0.152 -2.5333 -0.6803 -0.4678
  549SOL    HW2 1647   2.373   0.446   0.148 -0.4808  0.3842 -0.3932
  550SOL     OW 1648   2.863   1.969   0.528  0.2320  0.2590 -0.0447
  550SOL    HW1 1649   2.773   1.925   0.548 -0.8627 -1.6555  1.6418
  550SOL    HW2 1650   2.943   1.912   0.547  1.3267 -2.2776  1.8765
  551SOL     OW 1651   1.314   2.960   2.262  0.0963  0.3044  0.5937
  551SOL    HW1 1652   1.412   2.948   2.291 -1.5442  1.7494  1.0268
  551SOL    HW2 1653   1.285   3.053   2.287  3.2374 -0.3338 -1.1813
  552SOL     OW 1654   2.847   2.388   2.544  0.2773 -0.2965  0.1998
  552SOL    HW1 1655   2.867   2.343   2.452  0.9825 -1.5738 -0.4820
  552SOL    HW2 1656   2.790   2.337   2.608  0.6252  2.7820  1.3147
  553SOL     OW 1657   0.050   0.020   0.774  0.7968  0.0422  0.1637
  553SOL    HW1 1658   0.071   0.091   0.842 -2.2438 -2.8765 -1.5252
  553SOL    HW2 1659   3.050   3.069   0.795  0.4770  0.0027  2.3214
  554SOL     OW 1660   2.105   2.177   1.528  0.0723  0.4199  0.2170
  554SOL    HW1 1661   2.091   2.092   1.580 -3.1661  0.0937 -0.3314
  554SOL    HW2 1662   2.158   2.249   1.572  0.2823 -2.4374  0.0459
  555SOL     OW 1663   1.627   2.331   2.074  0.5425 -0.9287 -0.1891
  555SOL    HW1 1664   1.612   2.232   2.047 -0.2423 -3.4759  0.9047
  555SOL    HW2 1665   1.723   2.347   2.048 -0.9522 -2.7315  1.0164
  556SOL     OW 1666   1.298   1.317   1.187 -0.4715  0.2874 -0.0445
  556SOL    HW1 1667   1.288   1.268   1.096 -1.6277  0.7790 -2.0072
  556SOL    HW2 1668   1.329   1.412   1.176  0.7722 -0.1000 -2.3933
  557SOL     OW 1669   2.223   2.906   1.873 -0.1994  0.0832  0.6847
  557SOL    HW1 1670   2.292   2.948   1.938  0.5052  1.2774  1.2136
  557SOL    HW2 1671   2.143   2.878   1.931  2.0939  1.0919 -0.1587
  558SOL     OW 1672   0.178   0.015   1.860 -0.2462  0.0081  0.3983
  558SOL    HW1 1673   0.161   0.106   1.901  4.4156 -2.7047 -0.0462
  558SOL    HW2 1674   0.090   3.055   1.836 -0.7111 -2.0567  0.8758
  559SOL     OW 1675   1.988   0.065   0.623 -0.0724  0.4899  0.5037
  559SOL    HW1 1676   2.044   0.131   0.679 -0.7369  1.1011  1.2024
  559SOL    HW2 1677   1.930   0.118   0.556 -0.3851  0.4780  1.5597
  560SOL     OW 1678   1.669   2.765   0.628 -0.0998  0.4117 -0.1714
  560SOL    HW1 1679   1.723   2.840   0.678 -0.2325  2.4188  0.0685
  560SOL    HW2 1680   1.682   2.776   0.528  0.3966  0.8210  1.6626
  561SOL     OW 1681   0.662   0.380   1.055  0.2024 -0.3484  0.0282
  561SOL    HW1 1682   0.645   0.476   1.032  0.3529  0.6029  2.2759
  561SOL    HW2 1683   0.577   0.327   1.028  1.3792  0.4333  0.0103
  562SOL     OW 1684   0.534   1.149   2.566 -0.2622  0.4139  0.4286
  562SOL    HW1 1685   0.437   1.170   2.531 -2.5133  1.8400  1.5165
  562SOL    HW2 1686   0.585   1.082   2.509 -1.7865  0.8238  0.7332
  563SOL     OW 1687   1.605   2.070   2.365  0.3958 -0.3862 -0.3148
  563SOL    HW1 1688   1.687   2.092   2.312  0.7942 -0.1178  4.5206
  563SOL    HW2 1689   1.521   2.039   2.313  2.3355  0.4658  0.9745
  564SOL     OW 1690   2.752   0.888   0.842 -0.9037  0.2203 -0.0152
  564SOL    HW1 1691   2.763   0.827   0.922 -1.1283  0.5729 -0.1518
  564SOL    HW2 1692   2.653   0.897   0.817 -1.1437  0.7543  1.9526
  565SOL     OW 1693   0.908   0.815   0.116  0.4861  0.2049 -0.2738
  565SOL    HW1 1694   0.938   0.887   0.045 -0.1244 -1.0651  0.8739
  565SOL    HW2 1695   0.843   0.854   0.184  1.8656 -0.0310 -0.0270
  566SOL     OW 1696   2.199   0.318   2.554 -0.0215 -0.1029 -0.5886
  566SOL    HW1 1697   2.251   0.238   2.525  0.9623  1.5870  1.9541
  566SOL    HW2 1698   2.183   0.310   2.654 -1.8742  1.4526 -0.9251
  567SOL     OW 1699   1.643   0.774   0.619  0.0827  0.4260 -0.2588
  567SOL    HW1 1700   1.557   0.754   0.576  1.1114  0.4571  1.6289
  567SOL    HW2 1701   1.673   0.865   0.596 -1.9547 -2.0821  1.0702
  568SOL     OW 1702   1.935   1.765   2.937 -0.4942 -0.7368 -0.3460
  568SOL    HW1 1703   1.846   1.780   2.988  3.4634 -2.9240  0.3610
  568SOL    HW2 1704   1.933   1.796   2.841 -1.6606 -0.8670  0.9076
  569SOL     OW 1705   2.025   1.260   2.900 -0.1425 -0.4877  0.2918
  569SOL    HW1 1706   1.987   1.351   2.919 -0.8601 -2.5952 -0.0714
  569SOL    HW2 1707   2.101   1.240   2.962 -1.1161  1.3311  1.5858
  570SOL     OW 1708   0.326   2.281   1.863  0.6073  0.3117 -0.3539
  570SOL    HW1 1709   0.423   2.310   1.863 -1.0767  2.8794 -0.7597
  570SOL    HW2 1710   0.271   2.366   1.860  2.8104  1.1707 -0.4383
  571SOL     OW 1711   0.301   1.324   1.902 -0.2784  0.5741  0.0376
  571SOL    HW1 1712   0.400   1.312   1.895 -0.0605  0.2377  1.7410
  571SOL    HW2 1713   0.258   1.241   1.867  3.5349  0.2759  1.6162
  572SOL     OW 1714   1.564   1.773   0.572  0.5613 -0.6022  0.1924
  572SOL    HW1 1715   1.499   1.725   0.506  1.4154  1.2912  0.4685
  572SOL    HW2 1716   1.650   1.725   0.589 -2.4740 -1.1785  0.0162
  573SOL     OW 1717   1.920   2.113   0.486  0.2918 -0.2663  0.1657
  573SOL    HW1 1718   1.843   2.119   0.419 -0.2332  0.3963 -0.1766
  573SOL    HW2 1719   1.888   2.164   0.570  0.1864  2.6336  3.3144
  574SOL     OW 1720   0.755   0.175   1.245 -0.0615 -0.1808  0.3083
  574SOL    HW1 1721   0.664   0.166   1.288  1.4851  1.1165 -1.3024
  574SOL    HW2 1722   0.753   0.249   1.177 -2.7929  0.7454  0.7769
  575SOL     OW 1723   0.562   1.227   1.468 -0.3160 -0.4793  0.2543
  575SOL    HW1 1724   0.648   1.251   1.420  3.8144 -1.3945 -0.8435
  575SOL    HW2 1725   0.586   1.156   1.536 -1.8223  2.3921 -1.1186
  576SOL     OW 1726   2.778   0.025   1.152 -0.4609  0.0659 -0.2165
  576SOL    HW1 1727   2.751   3.032   1.112  1.8694  3.4989 -0.7795
  576SOL    HW2 1728   2.701   0.063   1.216 -3.0570  0.6298  0.1354
  577SOL     OW 1729   1.042   1.241   2.146  0.2450 -0.0530 -0.0204
  577SOL    HW1 1730   1.034   1.232   2.044  1.3534 -0.6079 -1.1907
  577SOL    HW2 1731   1.028   1.146   2.186  0.9837 -2.3105  0.6286
  578SOL     OW 1732   1.845   1.147   2.490  0.0177  0.1776 -0.1767
  578SOL    HW1 1733   1.866   1.243   2.466  2.4803 -1.3029 -0.6299
  578SOL    HW2 1734   1.781   1.111   2.421 -2.2471  2.9891  1.3283
  579SOL     OW 1735   1.501   2.356   1.834  0.2676 -0.7951  0.8346
  579SOL    HW1 1736   1.526   2.328   1.929 -0.9206 -2.6838 -2.4593
  579SOL    HW2 1737   1.582   2.390   1.781  1.1563  1.4353  0.4061
  580SOL     OW 1738   1.458   1.621   0.368  0.3134 -0.4286 -0.1141
  580SOL    HW1 1739   1.496   1.527   0.386  0.8130  1.9304 -0.2418
  580SOL    HW2 1740   1.358   1.624   0.336 -1.7612 -0.0738 -1.3746
  581SOL     OW 1741   1.204   0.891   2.137 -0.1713  0.5131 -0.1275
  581SOL    HW1 1742   1.105   0.891   2.164 -0.5486  0.1148  0.9556
  581SOL    HW2 1743   1.257   0.930   2.216 -0.7501 -2.4825  1.0853
  582SOL     OW 1744   0.823   1.252   1.321  0.4515  0.1134  0.0353
  582SOL    HW1 1745   0.895   1.199   1.279 -1.4762 -0.5158 -1.2605
  582SOL    HW2 1746   0.807   1.339   1.268  1.5634  2.9153  0.8956
  583SOL     OW 1747   0.976   1.211   1.869 -0.4249 -0.1349 -0.0159
  583SOL    HW1 1748   0.968   1.179   1.773 -1.3067 -2.1812  0.8071
  583SOL    HW2 1749   0.915   1.287   1.888 -0.5568 -0.3517  1.6997
  584SOL     OW 1750   2.575   2.638   0.730 -0.3533  0.7365  0.0275
  584SOL    HW1 1751   2.544   2.574   0.807 -1.7687 -0.0049  0.1156
  584SOL    HW2 1752   2.529   2.728   0.733  0.6143 -1.5933  1.7131
  585SOL     OW 1753   2.145   0.276   2.812 -0.3931  0.1466  0.4009
  585SOL    HW1 1754   2.120   0.193   2.866 -0.6558 -3.6051 -0.6229
  585SOL    HW2 1755   2.071   0.345   2.817  1.1543 -1.0919  0.3701
  586SOL     OW 1756   0.069   2.378   0.740 -0.1406 -0.8462  0.2557
  586SOL    HW1 1757   0.047   2.461   0.685  1.4556 -1.8911  0.1423
  586SOL    HW2 1758   0.015   2.296   0.721  3.3011  2.0402  1.2240
  587SOL     OW 1759   1.697   1.800   3.090 -0.4775 -0.0072 -0.2009
  587SOL    HW1 1760   1.673   1.812   0.099 -0.0892 -0.3512  0.1279
  587SOL    HW2 1761   1.659   1.712   3.050 -0.6125 -0.1947  0.1692
  588SOL     OW 1762   0.250   0.258   1.211 -0.6301 -0.2263 -0.5643
  588SOL    HW1 1763   0.331   0.197   1.235  1.4413  0.4677 -1.7111
  588SOL    HW2 1764   0.189   0.282   1.290  1.4447  0.0309  0.6076
  589SOL     OW 1765   1.350   0.335   0.777 -0.0702  0.1221 -0.6286
  589SOL    HW1 1766   1.343   0.295   0.870  0.7035  0.0666 -0.7581
  589SOL    HW2 1767   1.439   0.382   0.767 -1.4831  1.8116  1.3012
  590SOL     OW 1768   1.002   0.977   3.016  0.1392 -0.3558 -0.3655
  590SOL    HW1 1769   1.005   1.079   3.047 -0.5683  0.3243  1.1584
  590SOL    HW2 1770   1.095   0.945   2.978  0.4425 -0.8897 -0.1540
  591SOL     OW 1771   2.601   2.322   2.266 -0.2104  0.3352  0.2367
  591SOL    HW1 1772   2.540   2.323   2.346  0.5322 -0.4944 -0.3936
  591SOL    HW2 1773   2.663   2.402   2.256 -3.0430  1.8738  0.3102
  592SOL     OW 1774   1.971   1.818   1.302 -0.2343  0.5135 -0.1248
  592SOL    HW1 1775   2.023   1.836   1.391  1.8703 -0.7640  0.6990
  592SOL    HW2 1776   1.999   1.733   1.255  1.3749  1.9548  2.3456
  593SOL     OW 1777   1.183   0.695   1.452 -0.1102 -0.0287  0.1922
  593SOL    HW1 1778   1.091   0.734   1.462  2.2747 -1.8892  1.0244
  593SOL    HW2 1779   1.203   0.637   1.367 -3.0924  1.7642  0.3486
  594SOL     OW 1780   2.306   1.121   2.398 -0.0497  0.0759  0.1321
  594SOL    HW1 1781   2.301   1.168   2.487 -2.2205  0.6878 -0.3270
  594SOL    HW2 1782   2.338   1.026   2.407  0.0147 -0.3791  1.9652
  595SOL     OW 1783   0.123   0.205   0.405 -0.3665 -0.3056 -0.2272
  595SOL    HW1 1784   0.162   0.128   0.461 -1.2060 -0.0551  2.1329
  595SOL    HW2 1785   0.173   0.290   0.425 -0.0439 -4.4428 -0.2807
  596SOL     OW 1786   0.099   1.483   1.152 -0.2321 -0.1308 -0.2136
  596SOL    HW1 1787   0.184   1.434   1.158 -1.1339  2.2671 -2.0611
  596SOL    HW2 1788   0.035   1.449   1.222 -1.1308  2.5560 -0.4563
  597SOL     OW 1789   1.806   1.428   0.463 -0.6912 -0.0633  0.0168
  597SOL    HW1 1790   1.792   1.517   0.510 -0.2013 -0.0029 -0.6691
  597SOL    HW2 1791   1.862   1.440   0.384 -1.8600  1.1790  3.9863
  598SOL     OW 1792   0.326   2.701   1.800  0.6188  0.2664  0.0134
  598SOL    HW1 1793   0.368   2.698   1.707 -1.3530  0.1557 -4.9055
  598SOL    HW2 1794   0.387   2.728   1.872 -2.6594 -1.8683 -3.7304
  599SOL     OW 1795   2.551   1.287   2.765  0.6266  0.2116  0.5588
  599SOL    HW1 1796   2.525   1.364   2.819  0.6570 -2.4593 -0.4970
  599SOL    HW2 1797   2.462   1.253   2.720 -0.7573 -3.0862 -4.7287
  600SOL     OW 1798   0.455   1.028   0.241 -0.0168  0.0912  0.8294
  600SOL    HW1 1799   0.529   1.096   0.216  0.9792  1.6400 -1.1310
  600SOL    HW2 1800   0.378   1.072   0.295 -0.1787 -1.6577  0.3383
  601SOL     OW 1801   0.581   0.916   0.828 -0.2071 -0.5781  0.5369
  601SOL    HW1 1802   0.562   0.906   0.927  1.2129  0.3749 -0.8882
  601SOL    HW2 1803   0.537   0.999   0.786 -1.7961 -0.3468  1.4680
  602SOL     OW 1804   1.445   2.358   0.555  0.3813 -0.5537 -0.7138
  602SOL    HW1 1805   1.500   2.307   0.622 -0.4227 -4.7670  1.7363
  602SOL    HW2 1806   1.497   2.375   0.470  0.4504  1.1545  0.1262
  603SOL     OW 1807   0.876   2.663   2.014  0.6111  0.3656 -0.0241
  603SOL    HW1 1808   0.876   2.729   2.090 -1.3357  0.4524  1.9852
  603SOL    HW2 1809   0.843   2.570   2.042 -1.1171 -0.3136  1.9904
  604SOL     OW 1810   0.267   0.282   2.298 -0.3952 -0.2649 -0.2089
  604SOL    HW1 1811   0.257   0.191   2.342 -2.0150 -2.3212 -0.3473
  604SOL    HW2 1812   0.205   0.279   2.216  1.4780  2.5398 -0.1946
  605SOL     OW 1813   3.014   1.090   1.363  0.2163 -0.0260 -0.2145
  605SOL    HW1 1814   2.957   1.099   1.446  1.2258 -2.9631 -1.2627
  605SOL    HW2 1815   3.056   0.991   1.357  2.8334 -1.1283  0.4536
  606SOL     OW 1816   0.739   1.787   2.671 -0.2126  0.1573 -0.1468
  606SOL    HW1 1817   0.681   1.829   2.599  0.1907  1.8954 -0.2987
  606SOL    HW2 1818   0.782   1.700   2.637 -0.2543  2.4622 -0.3223
  607SOL     OW 1819   0.397   2.971   0.199 -1.0958 -0.1669  0.4440
  607SOL    HW1 1820   0.424   3.010   0.108  0.1716  0.7910 -1.6983
  607SOL    HW2 1821   0.298   2.997   0.212  0.0867  1.3643 -0.1509
  608SOL     OW 1822   2.266   1.749   1.851  0.1793  0.1218  0.2965
  608SOL    HW1 1823   2.249   1.788   1.763  0.5185 -1.5116  1.1553
  608SOL    HW2 1824   2.326   1.809   1.910  1.6299 -1.8663  1.5424
  609SOL     OW 1825   2.660   0.333   1.186  0.2702 -0.6311  0.6223
  609SOL    HW1 1826   2.633   0.283   1.099  1.1971 -1.0773 -0.3993
  609SOL    HW2 1827   2.610   0.302   1.269  1.6896  2.3841 -0.7227
  610SOL     OW 1828   0.216   2.712   0.328  0.5508 -0.0304  0.3903
  610SOL    HW1 1829   0.312   2.680   0.341 -1.7423 -2.1233  1.1876
  610SOL    HW2 1830   0.194   2.733   0.233  0.4948  0.8836 -0.9477
  611SOL     OW 1831   1.578   1.287   0.043 -0.9200  0.2943 -0.3508
  611SOL    HW1 1832   1.649   1.221   0.077  3.5333 -0.3035 -0.0166
  611SOL    HW2 1833   1.500   1.289   0.111  2.5510 -0.2115 -2.0012
  612SOL     OW 1834   0.824   2.376   1.783 -0.3905  0.3123 -0.4048
  612SOL    HW1 1835   0.809   2.400   1.883 -1.2391 -0.1457  0.4312
  612SOL    HW2 1836   0.813   2.464   1.727 -2.0098  0.7537 -1.4585
  613SOL     OW 1837   0.533   2.506   0.621 -0.9092  0.1659  0.1872
  613SOL    HW1 1838   0.569   2.563   0.695 -2.0847 -0.8825 -0.3904
  613SOL    HW2 1839   0.613   2.466   0.573 -0.4569  0.4305  1.8465
  614SOL     OW 1840   2.181   2.754   1.618 -0.2593 -0.1138  0.6656
  614SOL    HW1 1841   2.267   2.735   1.567 -0.9994 -1.3045  0.1821
  614SOL    HW2 1842   2.192   2.757   1.717  0.3350  1.8472 -0.9703
  615SOL     OW 1843   1.785   1.030   0.116  0.0413 -0.3891 -0.4097
  615SOL    HW1 1844   1.714   1.028   0.186  1.4136 -1.7227 -2.9093
  615SOL    HW2 1845   1.872   1.059   0.159 -0.0027  1.1133 -1.8042
  616SOL     OW 1846   2.034   0.743   0.351 -0.2647  0.6641  0.0623
  616SOL    HW1 1847   1.959   0.804   0.375  2.5868 -1.0445 -1.2134
  616SOL    HW2 1848   2.021   0.691   0.261  1.8933 -0.5759 -0.8754
  617SOL     OW 1849   0.961   0.787   2.774  0.4789  0.0750 -0.0291
  617SOL    HW1 1850   1.047   0.825   2.746 -3.6896 -0.8866 -2.9344
  617SOL    HW2 1851   0.975   0.724   2.855  0.9480 -0.4358 -0.5820
  618SOL     OW 1852   0.871   3.063   1.985 -0.0119 -0.4413  0.3083
  618SOL    HW1 1853   0.851   3.001   1.908 -1.5884 -0.7624 -0.3336
  618SOL    HW2 1854   0.789   0.028   2.004 -0.1931  0.0829 -1.7378
  619SOL     OW 1855   3.002   1.355   1.315 -0.0164  0.6780 -0.4421
  619SOL    HW1 1856   2.916   1.394   1.339  0.5998 -2.9402 -1.2206
  619SOL    HW2 1857   3.008   1.258   1.352 -2.7709 -1.3399 -1.4835
  620SOL     OW 1858   0.008   0.776   2.808 -0.4541  0.1968 -0.5321
  620SOL    HW1 1859   0.011   0.682   2.849  1.9462  1.9460 -2.5266
  620SOL    HW2 1860   0.098   0.831   2.817  2.3599 -0.1183  0.1912
  621SOL     OW 1861   2.201   2.284   2.199  0.5736  0.2162  0.1864
  621SOL    HW1 1862   2.120   2.269   2.135 -1.8865  1.2395 -0.7977
  621SOL    HW2 1863   2.272   2.343   2.152  0.3962  0.0038 -1.0458
  622SOL     OW 1864   1.123   0.402   2.087 -0.1852  0.2474 -0.4616
  622SOL    HW1 1865   1.049   0.470   2.075 -0.5507  3.7349 -2.4267
  622SOL    HW2 1866   1.199   0.439   2.144  0.7208  1.3711 -0.4506
  623SOL     OW 1867   0.973   0.987   2.216  0.5386  0.0938 -0.0096
  623SOL    HW1 1868   0.887   0.952   2.172 -0.7599 -2.6250 -0.3260
  623SOL    HW2 1869   0.956   0.982   2.317 -1.9144 -2.9599  0.1101
  624SOL     OW 1870   2.704   0.938   0.401  0.3347 -0.8255 -0.1847
  624SOL    HW1 1871   2.615   0.961   0.451 -0.1086  0.2101  2.5502
  624SOL    HW2 1872   2.767   0.893   0.465  0.3771 -0.7500  0.7808
  625SOL     OW 1873   0.857   1.387   0.735 -0.6685  0.7400  0.2295
  625SOL    HW1 1874   0.854   1.463   0.802  0.2713  0.0851 -1.0303
  625SOL    HW2 1875   0.892   1.300   0.773 -3.0343 -0.4556 -1.6495
  626SOL     OW 1876   1.878   0.892   2.556  0.7012 -0.3557  0.0247
  626SOL    HW1 1877   1.940   0.847   2.492  0.2567 -2.3767  1.3544
  626SOL    HW2 1878   1.868   0.990   2.534 -0.4034 -1.5370 -0.9983
  627SOL     OW 1879   1.044   2.942   2.922 -0.0778 -0.2097 -0.1303
  627SOL    HW1 1880   1.134   2.967   2.866  1.3099 -0.6876 -2.8478
  627SOL    HW2 1881   0.975   2.953   2.851  4.2705  0.8124 -0.7137
  628SOL     OW 1882   1.977   0.037   2.496 -0.0915 -0.0315  1.2606
  628SOL    HW1 1883   2.027   0.057   2.579  1.7432 -3.5984 -1.1579
  628SOL    HW2 1884   1.881   0.055   2.505  2.3257 -0.0866  0.7672
  629SOL     OW 1885   0.719   0.240   2.939  0.1461 -0.3551 -0.6256
  629SOL    HW1 1886   0.668   0.282   2.862  1.1062 -0.4859 -1.7855
  629SOL    HW2 1887   0.822   0.258   2.938  3.3518 -0.9257  0.6194
  630SOL     OW 1888   0.993   0.515   2.596  0.2612  0.3360  0.1917
  630SOL    HW1 1889   1.029   0.480   2.688  1.9697 -0.4132  2.4805
  630SOL    HW2 1890   0.908   0.572   2.610 -0.7163  1.1159 -2.1159
  631SOL     OW 1891   2.323   1.162   0.625  0.4690  0.7165  0.1083
  631SOL    HW1 1892   2.247   1.130   0.685  0.0869 -0.0167  0.3390
  631SOL    HW2 1893   2.304   1.255   0.582  0.5641 -0.8803 -2.8870
  632SOL     OW 1894   1.980   0.980   1.481 -0.0943  0.0591  0.4186
  632SOL    HW1 1895   2.073   0.970   1.440 -0.4810  0.5978 -0.4801
  632SOL    HW2 1896   1.925   0.897   1.467  0.2424 -0.8046 -0.4843
  633SOL     OW 1897   1.218   1.637   0.222  0.5602  0.0263 -0.1655
  633SOL    HW1 1898   1.170   1.713   0.172  1.3086 -1.2242  0.9847
  633SOL    HW2 1899   1.180   1.627   0.314  3.1680 -0.5052 -0.6217
  634SOL     OW 1900   2.446   2.943   1.407 -0.0204 -0.2423  0.2041
  634SOL    HW1 1901   2.404   2.982   1.488  0.2057  0.5664  1.3723
  634SOL    HW2 1902   2.464   2.841   1.417 -0.1948 -2.7559  0.9061
  635SOL     OW 1903   1.878   0.259   0.940  0.3239  0.1501 -0.0934
  635SOL    HW1 1904   1.816   0.241   0.863 -0.9601  0.7425 -1.6493
  635SOL    HW2 1905   1.870   0.179   1.000 -1.2004 -1.5949 -0.8208
  636SOL     OW 1906   0.633   1.225   0.209 -0.5565  0.0753 -0.7581
  636SOL    HW1 1907   0.577   1.288   0.263  0.1612 -2.4263 -0.3257
  636SOL    HW2 1908   0.665   1.270   0.126 -2.6525 -0.2808  1.8008
  637SOL     OW 1909   2.838   1.993   2.961 -0.2322 -0.2423  0.6854
  637SOL    HW1 1910   2.813   2.060   3.028 -0.1623 -3.5954 -3.1277
  637SOL    HW2 1911   2.888   2.040   2.886  0.9447 -1.9062  1.2003
  638SOL     OW 1912   1.385   2.650   2.900  0.6498  0.0611  0.4035
  638SOL    HW1 1913   1.342   2.660   2.806 -2.2644  1.1419  0.7524
  638SOL    HW2 1914   1.408   2.551   2.916  1.1843 -0.0009 -0.6069
  639SOL     OW 1915   1.364   1.569   1.182 -0.5247 -0.2071  0.2016
  639SOL    HW1 1916   1.326   1.657   1.147 -1.5370 -0.1361 -1.3011
  639SOL    HW2 1917   1.463   1.556   1.164 -0.0787  1.9989  0.2499
  640SOL     OW 1918   2.191   2.793   0.603  0.2632  0.1710  0.2120
  640SOL    HW1 1919   2.093   2.822   0.597  1.6686  2.9744  1.9670
  640SOL    HW2 1920   2.201   2.700   0.635  1.7636  0.1978 -0.7050
  641SOL     OW 1921   2.969   3.013   2.964  0.4194 -0.1471  0.1481
  641SOL    HW1 1922   2.873   3.023   3.000 -2.5563  1.3882  3.9609
  641SOL    HW2 1923   3.008   2.916   2.981  0.7697 -3.0118  0.1137
  642SOL     OW 1924   2.908   0.664   1.258  0.6489 -0.0717  0.3907
  642SOL    HW1 1925   2.839   0.674   1.180 -3.0895 -1.2992 -0.5664
  642SOL    HW2 1926   2.957   0.753   1.284  4.6554  2.1820  1.1377
  643SOL     OW 1927   0.831   1.833   2.258  0.0213  0.2059 -0.0384
  643SOL    HW1 1928   0.752   1.785   2.301 -3.1101 -0.4380  0.9843
  643SOL    HW2 1929   0.855   1.797   2.167  0.7819  0.1363 -2.2458
  644SOL     OW 1930   1.864   2.272   0.686 -0.1407 -0.1530 -0.0746
  644SOL    HW1 1931   1.877   2.270   0.786  1.1055 -0.7146 -1.6295
  644SOL    HW2 1932   1.848   2.363   0.656 -0.8041 -1.8877  4.0080
  645SOL     OW 1933   2.027   1.851   0.907 -0.2602  0.3895 -0.3852
  645SOL    HW1 1934   1.965   1.875   0.831  2.9464  0.8630  0.4375
  645SOL    HW2 1935   2.066   1.756   0.895  2.7258 -1.8841  1.1545
  646SOL     OW 1936   1.125   2.438   3.070  0.0402  0.2429  0.0060
  646SOL    HW1 1937   1.129   2.538   3.046  1.7613  0.3461 -0.9285
  646SOL    HW2 1938   1.104   2.421   0.077 -2.6636 -1.5324  0.4003
  647SOL     OW 1939   0.512   2.778   1.962 -0.2581 -0.1643 -0.3749
  647SOL    HW1 1940   0.483   2.874   1.961 -0.8804  0.9158 -1.6719
  647SOL    HW2 1941   0.605   2.769   1.924 -1.3368 -3.7084  1.3025
  648SOL     OW 1942   1.590   0.493   1.613 -0.0222  0.1321  0.4303
  648SOL    HW1 1943   1.607   0.578   1.663 -0.8158  0.3695  0.0179
  648SOL    HW2 1944   1.491   0.464   1.614 -0.6372  1.1682 -0.0804
  649SOL     OW 1945   1.699   2.138   0.332  0.0060  0.3384  0.0861
  649SOL    HW1 1946   1.636   2.098   0.402  0.2375 -0.5315  1.1910
  649SOL    HW2 1947   1.670   2.112   0.236 -1.9248  0.0278  1.2965
  650SOL     OW 1948   1.885   1.723   1.868 -0.6417 -0.1003 -0.8376
  650SOL    HW1 1949   1.938   1.674   1.944 -0.4362 -0.6297  0.0459
  650SOL    HW2 1950   1.906   1.688   1.770 -0.6002 -1.6250 -5.6739
  651SOL     OW 1951   1.444   2.524   0.125  0.4184 -0.2154 -0.6193
  651SOL    HW1 1952   1.346   2.551   0.131  1.1425  3.6786 -1.5651
  651SOL    HW2 1953   1.503   2.600   0.150 -4.2819 -2.2664  2.2801
  652SOL     OW 1954   0.470   2.326   0.296 -0.4021 -0.1771  0.1753
  652SOL    HW1 1955   0.374   2.342   0.326  2.7749 -1.3546  0.3601
  652SOL    HW2 1956   0.515   2.409   0.258  2.4729 -0.3425 -0.3350
  653SOL     OW 1957   2.428   2.227   1.156  0.1414 -0.2134  0.0928
  653SOL    HW1 1958   2.330   2.192   1.169  1.7224  0.9793 -2.7588
  653SOL    HW2 1959   2.431   2.326   1.176 -1.0895  0.5036 -0.9497
  654SOL     OW 1960   2.863   2.668   1.421  0.0104 -0.1292  0.2382
  654SOL    HW1 1961   2.829   2.767   1.408 -2.1982  2.4596 -1.6070
  654SOL    HW2 1962   2.786   2.613   1.453  1.6813 -1.0217 -1.0827
  655SOL     OW 1963   2.983   1.894   1.092  0.4271 -0.3947 -0.0201
  655SOL    HW1 1964   3.046   1.824   1.133 -0.9371 -2.7088  0.4872
  655SOL    HW2 1965   2.989   1.983   1.145  0.1464  0.3119 -0.8934
  656SOL     OW 1966   0.012   2.821   2.332 -0.1566 -0.0745 -0.3923
  656SOL    HW1 1967   3.073   2.866   2.249 -0.8820  0.9355  1.3602
  656SOL    HW2 1968   0.105   2.779   2.330  0.9704 -0.4016  0.9392
  657SOL     OW 1969   0.016   1.292   2.949  0.4002 -0.5522  0.0706
  657SOL    HW1 1970   3.032   1.226   2.963  1.2043  0.8327  2.0304
  657SOL    HW2 1971   3.073   1.383   2.937  0.2811 -2.7368  0.9793
  658SOL     OW 1972   1.804   1.638   0.666 -0.4581 -0.0713  0.1792
  658SOL    HW1 1973   1.857   1.723   0.652  0.4181 -1.9790  0.3415
  658SOL    HW2 1974   1.799   1.615   0.766 -0.6256  2.2412  0.2746
  659SOL     OW 1975   1.249   0.543   1.253 -0.5269  0.5139  0.0539
  659SOL    HW1 1976   1.236   0.582   1.163 -0.8506 -1.9550  4.4962
  659SOL    HW2 1977   1.281   0.444   1.253 -0.4232 -0.9583 -2.3377
  660SOL     OW 1978   1.668   1.531   3.063  1.0550  0.5207 -0.2448
  660SOL    HW1 1979   1.629   1.442   0.008 -2.7342 -2.1573  3.3081
  660SOL    HW2 1980   1.632   1.541   2.967  0.3751  1.2141 -1.5245
  661SOL     OW 1981   0.193   2.268   0.398 -0.2500  0.5219  0.0088
  661SOL    HW1 1982   0.247   2.246   0.485  2.8381  0.2657  0.6716
  661SOL    HW2 1983   0.148   2.362   0.404  2.2677 -0.7843 -0.6632
  662SOL     OW 1984   0.299   0.927   2.123  0.0211 -0.2627 -0.4368
  662SOL    HW1 1985   0.275   0.911   2.221  1.1455 -0.8990  1.5836
  662SOL    HW2 1986   0.285   0.849   2.062 -0.1407  1.3392  4.4334
  663SOL     OW 1987   1.793   1.248   0.902  0.4381  0.1502 -0.3464
  663SOL    HW1 1988   1.863   1.200   0.953 -0.4578  0.0130 -2.3643
  663SOL    HW2 1989   1.790   1.350   0.919 -0.8578 -0.3653 -2.5898
  664SOL     OW 1990   0.960   0.784   0.962 -0.1837  0.0938 -0.4093
  664SOL    HW1 1991   0.957   0.704   1.030  1.0503 -2.1304  0.8219
  664SOL    HW2 1992   0.968   0.868   1.011  0.9242  0.2785 -2.2593
  665SOL     OW 1993   0.973   3.060   0.055 -0.0593 -0.1079  0.3436
  665SOL    HW1 1994   1.045   0.021   0.099 -1.2045 -0.6034 -1.4984
  665SOL    HW2 1995   1.010   3.019   3.063 -0.7225  0.0320  1.9295
  666SOL     OW 1996   2.889   0.140   2.562  0.5432 -0.3593 -0.1621
  666SOL    HW1 1997   2.980   0.172   2.583 -3.2530 -2.3053 -1.5372
  666SOL    HW2 1998   2.821   0.205   2.602 -0.5672 -0.9004  1.1215
  667SOL     OW 1999   2.478   1.534   2.180 -0.0889 -0.5854  0.0281
  667SOL    HW1 2000   2.488   1.592   2.261  1.1558  1.9375  0.1347
  667SOL    HW2 2001   2.469   1.433   2.199 -1.6017 -0.8667 -2.7113
  668SOL     OW 2002   0.641   1.356   2.692 -0.1784 -0.4456  0.0880
  668SOL    HW1 2003   0.564   1.385   2.751 -1.7131 -0.8470 -2.3315
  668SOL    HW2 2004   0.613   1.278   2.634 -1.2819  0.6080 -0.3138
  669SOL     OW 2005   2.226   2.342   2.617 -0.0750  0.0303 -0.0232
  669SOL    HW1 2006   2.150   2.328   2.553  0.1825  1.5827  0.8276
  669SOL    HW2 2007   2.210   2.294   2.708 -1.0113  1.3693  0.2944
  670SOL     OW 2008   2.046   1.149   2.279 -0.2020 -0.3187 -0.0373
  670SOL    HW1 2009   2.128   1.121   2.336  1.0565 -0.1718  0.1540
  670SOL    HW2 2010   2.000   1.236   2.304  1.6231  0.9999  1.4014
  671SOL     OW 2011   2.529   1.327   0.012  0.0673 -0.3220 -0.4050
  671SOL    HW1 2012   2.492   1.236   3.088  0.0736 -0.8494 -0.4161
  671SOL    HW2 2013   2.631   1.321   0.019  0.5289 -0.4575 -1.0667
  672SOL     OW 2014   2.601   0.905   2.123  0.2556  0.9023 -0.0074
  672SOL    HW1 2015   2.500   0.877   2.148 -3.0522 -1.5819 -1.7433
  672SOL    HW2 2016   2.645   0.826   2.085 -1.8171 -1.7518 -2.5455
  673SOL     OW 2017   2.671   0.820   1.328 -0.1934 -0.4386 -0.0881
  673SOL    HW1 2018   2.686   0.918   1.314 -1.4344  2.2943  0.7857
  673SOL    HW2 2019   2.737   0.785   1.398 -0.8089  0.9106 -1.3431
  674SOL     OW 2020   1.959   2.002   1.814 -0.2143  0.3784 -0.0912
  674SOL    HW1 2021   1.950   1.905   1.852 -3.8417 -2.3691  1.4363
  674SOL    HW2 2022   1.879   2.025   1.754 -0.7659  1.3407  2.2340
  675SOL     OW 2023   0.290   0.466   0.842  1.1287 -0.0898 -0.1270
  675SOL    HW1 2024   0.361   0.522   0.796 -1.3124  0.3021 -0.6415
  675SOL    HW2 2025   0.321   0.368   0.833  0.5560 -0.8170  1.6388
  676SOL     OW 2026   1.817   1.011   1.254 -0.1176 -0.0823 -0.3581
  676SOL    HW1 2027   1.879   1.070   1.305  1.1194 -1.3424 -1.4517
  676SOL    HW2 2028   1.800   0.924   1.307 -1.7423  0.3193 -1.7748
  677SOL     OW 2029   2.164   1.569   2.387 -0.1478 -0.7094 -0.1545
  677SOL    HW1 2030   2.138   1.643   2.453  0.3145  4.0953  3.2014
  677SOL    HW2 2031   2.254   1.530   2.404  2.5379 -3.0712 -0.0476
  678SOL     OW 2032   3.077   1.645   0.732  0.3913  0.2082  0.4761
  678SOL    HW1 2033   3.083   1.733   0.675 -0.0629 -3.1183 -0.5817
  678SOL    HW2 2034   2.980   1.606   0.722  1.1739 -1.5743 -0.8536
  679SOL     OW 2035   2.901   2.582   0.429  0.2679 -0.1351 -0.2491
  679SOL    HW1 2036   2.840   2.651   0.385 -0.3856  1.8120 -1.7163
  679SOL    HW2 2037   2.889   2.589   0.531 -0.7605 -2.3813 -2.7427
  680SOL     OW 2038   0.081   2.332   1.217  0.5823 -0.3635 -0.2158
  680SOL    HW1 2039   0.167   2.351   1.263 -3.5640 -0.9117  2.1917
  680SOL    HW2 2040   0.052   2.243   1.253  2.5709 -1.3768  0.5401
  681SOL     OW 2041   0.644   1.239   1.053 -0.2141 -0.4235  0.2203
  681SOL    HW1 2042   0.696   1.291   1.116 -2.4956  1.7847 -1.8560
  681SOL    HW2 2043   0.551   1.274   1.037  1.1251  0.9078  0.4563
  682SOL     OW 2044   1.736   2.696   1.086 -0.0145  0.4618 -0.2485
  682SOL    HW1 2045   1.810   2.630   1.064  0.3074  1.4097 -2.4825
  682SOL    HW2 2046   1.758   2.759   1.163 -1.9393 -1.1559 -2.7203
  683SOL     OW 2047   2.287   1.185   1.058  0.3005  0.1452  0.6480
  683SOL    HW1 2048   2.349   1.264   1.050 -0.4559  1.8078 -1.7153
  683SOL    HW2 2049   2.337   1.105   1.097 -0.2656  1.2601  2.4465
  684SOL     OW 2050   0.873   1.964   1.885  0.1673 -0.0144 -0.7511
  684SOL    HW1 2051   0.931   2.045   1.858 -1.5000  1.9436  1.4125
  684SOL    HW2 2052   0.773   1.987   1.883  1.8128  1.3936  0.4421
  685SOL     OW 2053   2.199   1.456   0.219 -0.0425 -0.0620  0.0507
  685SOL    HW1 2054   2.239   1.538   0.176 -1.9957 -0.3348  0.5269
  685SOL    HW2 2055   2.102   1.477   0.235  1.2040 -3.1030  1.6605
  686SOL     OW 2056   3.036   0.672   0.452  0.1508 -1.1233 -0.3334
  686SOL    HW1 2057   3.070   0.760   0.406 -0.2160  0.2694  0.9840
  686SOL    HW2 2058   2.948   0.694   0.499  1.6612  3.4532  0.4376
  687SOL     OW 2059   0.957   2.853   0.467  0.2454 -0.1010  0.2358
  687SOL    HW1 2060   1.017   2.805   0.534 -1.5897  1.3651  0.4971
  687SOL    HW2 2061   0.967   2.803   0.379  0.4687 -0.8343  0.2989
  688SOL     OW 2062   1.696   1.780   2.232  0.4247  0.5313  0.2508
  688SOL    HW1 2063   1.719   1.683   2.261  1.3244  1.9969  1.2989
  688SOL    HW2 2064   1.708   1.795   2.131 -1.6077  0.0518 -0.6471
  689SOL     OW 2065   2.710   0.855   2.399 -0.3935  0.3185  0.4568
  689SOL    HW1 2066   2.774   0.904   2.336  3.9277 -0.3783  1.3414
  689SOL    HW2 2067   2.656   0.920   2.450  0.8171  0.6253 -1.2615
  690SOL     OW 2068   1.712   0.422   1.060 -0.1602 -0.2029 -0.5735
  690SOL    HW1 2069   1.665   0.337   1.088 -2.6507  0.4360 -2.4971
  690SOL    HW2 2070   1.791   0.396   1.002  1.5548  2.5003 -0.7736
  691SOL     OW 2071   1.052   1.673   1.456  0.0624 -0.0010  0.1870
  691SOL    HW1 2072   1.093   1.592   1.412  0.4630  0.1829  0.9900
  691SOL    HW2 2073   1.105   1.751   1.438 -2.8311 -1.6507  0.7681
  692SOL     OW 2074   1.522   0.262   1.950 -0.2155 -0.2838 -0.4757
  692SOL    HW1 2075   1.567   0.339   2.006  0.2131  2.6117  1.6252
  692SOL    HW2 2076   1.438   0.227   1.997 -0.3699  0.3261 -0.5185
  693SOL     OW 2077   0.568   1.104   2.956 -0.0428  0.1584 -0.3472
  693SOL    HW1 2078   0.624   1.182   2.982 -0.6088 -0.9350  0.8934
  693SOL    HW2 2079   0.632   1.024   2.936  2.1090  1.4572  0.4172
  694SOL     OW 2080   2.158   2.486   0.890 -0.5337  0.2221  0.2355
  694SOL    HW1 2081   2.206   2.566   0.934  0.8259  0.4808  0.9874
  694SOL    HW2 2082   2.156   2.491   0.793  0.1779  2.4081  2.9196
  695SOL     OW 2083   1.498   1.503   2.455  0.0931 -0.8728  0.1776
  695SOL    HW1 2084   1.440   1.548   2.526  1.9965  0.3394  0.6156
  695SOL    HW2 2085   1.529   1.413   2.490 -2.6318  0.8437  1.3308
  696SOL     OW 2086   1.372   0.289   1.284  0.1744 -0.2720 -0.2800
  696SOL    HW1 2087   1.334   0.192   1.282 -0.8731 -2.0643 -0.6687
  696SOL    HW2 2088   1.465   0.301   1.327 -0.0689  1.0017 -0.9836
  697SOL     OW 2089   1.122   0.047   1.926  0.4504  0.7135 -0.6008
  697SOL    HW1 2090   1.038   0.004   1.971  1.0547  0.5115  0.5386
  697SOL    HW2 2091   1.188   0.094   1.991  0.4379  1.6138 -1.5426
  698SOL     OW 2092   1.723   1.523   2.309 -0.3323  0.1811 -0.7200
  698SOL    HW1 2093   1.739   1.493   2.215 -0.4540  0.6609  0.7043
  698SOL    HW2 2094   1.621   1.521   2.334 -2.4449  3.0071 -2.2970
  699SOL     OW 2095   1.474   1.207   1.347 -0.3740  0.2068 -0.2502
  699SOL    HW1 2096   1.501   1.127   1.289 -0.4944  2.8898  0.7079
  699SOL    HW2 2097   1.401   1.256   1.293 -1.3875  3.1395 -0.7411
  700SOL     OW 2098   1.666   0.028   0.263  0.5776 -0.2666  0.4041
  700SOL    HW1 2099   1.645   0.113   0.312 -1.5966  0.1472 -0.2289
  700SOL    HW2 2100   1.577   3.083   0.235  1.2077 -0.5370  1.1004
  701SOL     OW 2101   0.258   3.044   1.562 -0.2300  0.7721 -0.4288
  701SOL    HW1 2102   0.239   3.052   1.662  1.7204 -2.1965  0.1647
  701SOL    HW2 2103   0.175   3.012   1.510 -1.4229 -2.4410 -0.9291
  702SOL     OW 2104   1.431   2.859   1.093  0.2578 -0.3316 -0.5468
  702SOL    HW1 2105   1.458   2.798   1.018 -0.9019  2.6561  2.4129
  702SOL    HW2 2106   1.368   2.930   1.061  0.5013 -1.8800  2.2642
  703SOL     OW 2107   2.489   0.310   2.028  0.0104 -0.3061 -0.5582
  703SOL    HW1 2108   2.432   0.394   2.013 -1.2166  0.4012  0.7493
  703SOL    HW2 2109   2.572   0.332   2.090  1.8355 -0.2447  2.1308
  704SOL     OW 2110   1.237   1.792   1.089 -0.3908 -0.2020  0.1558
  704SOL    HW1 2111   1.146   1.820   1.064  1.4552 -0.2179  1.1692
  704SOL    HW2 2112   1.311   1.846   1.048  4.1214  1.3362  1.2165
  705SOL     OW 2113   2.870   1.350   2.147  0.1582  0.1988  0.4556
  705SOL    HW1 2114   2.829   1.446   2.135 -5.0771  0.9268  2.6127
  705SOL    HW2 2115   2.797   1.292   2.115  0.5728  0.2586 -0.6608
  706SOL     OW 2116   1.335   0.103   0.635  0.1438 -0.0071  0.7232
  706SOL    HW1 2117   1.331   0.194   0.684 -1.7421 -0.4021 -0.6505
  706SOL    HW2 2118   1.399   0.047   0.681  2.1736  1.7338 -2.4590
  707SOL     OW 2119   1.064   2.522   2.576  0.2666  0.3393  0.4886
  707SOL    HW1 2120   1.015   2.492   2.496  1.9112  1.3472  0.1451
  707SOL    HW2 2121   1.101   2.440   2.626  0.8204  0.6206  1.5194
  708SOL     OW 2122   0.288   2.326   1.372  0.5172 -0.4396  0.5800
  708SOL    HW1 2123   0.283   2.261   1.447  1.5556  0.5396 -0.0748
  708SOL    HW2 2124   0.389   2.324   1.346 -0.5008  1.1221  0.2649
  709SOL     OW 2125   2.062   0.574   1.941 -0.1175  0.0369  0.1320
  709SOL    HW1 2126   2.004   0.657   1.945  2.0288  0.9504  0.1878
  709SOL    HW2 2127   2.020   0.496   1.894 -1.1665  2.8243 -0.8754
  710SOL     OW 2128   2.894   0.395   1.665  0.4477  0.2969  0.0314
  710SOL    HW1 2129   2.883   0.426   1.567  2.5611 -0.0977  0.8612
  710SOL    HW2 2130   2.958   0.320   1.671  0.5172  1.9926  1.9365
  711SOL     OW 2131   0.070   2.498   0.427  0.7017 -0.2821 -0.1027
  711SOL    HW1 2132   0.125   2.577   0.401 -2.0490 -0.4584 -1.1670
  711SOL    HW2 2133   3.065   2.525   0.416  0.4860 -1.8857  3.0757
  712SOL     OW 2134   0.335   2.350   2.486 -0.2932  0.2437 -0.5795
  712SOL    HW1 2135   0.430   2.382   2.496 -3.4667 -1.7333 -0.3188
  712SOL    HW2 2136   0.278   2.392   2.559 -1.1837 -0.9784 -0.8842
  713SOL     OW 2137   1.761   0.741   0.201 -0.3368 -0.4587  0.8306
  713SOL    HW1 2138   1.758   0.839   0.221  0.2477 -0.6962 -0.1088
  713SOL    HW2 2139   1.767   0.718   0.102 -2.7099 -1.6585  0.0322
  714SOL     OW 2140   1.549   2.042   0.508  0.4167  0.1364 -0.2981
  714SOL    HW1 2141   1.542   1.940   0.524  1.3120  0.4170 -0.3681
  714SOL    HW2 2142   1.554   2.095   0.594 -1.5683  0.7360 -2.1268
  715SOL     OW 2143   2.955   0.188   0.382  0.3205  0.4454 -0.3267
  715SOL    HW1 2144   2.924   0.234   0.465  3.5673 -1.3572 -2.3085
  715SOL    HW2 2145   3.054   0.159   0.386 -0.6989  1.0890 -1.5943
  716SOL     OW 2146   0.548   0.046   2.294  0.0458 -0.3570 -0.0229
  716SOL    HW1 2147   0.548   0.122   2.359 -0.7813 -3.3788 -0.4154
  716SOL    HW2 2148   0.592   3.052   2.333 -2.1103  0.4794 -0.0166
  717SOL     OW 2149   0.019   0.544   2.915 -0.3352  0.1292  0.4519
  717SOL    HW1 2150   0.095   0.480   2.904  0.2530  1.5749  2.2162
  717SOL    HW2 2151   3.025   0.494   2.893  1.0606 -0.1337 -0.5359
  718SOL     OW 2152   1.079   0.453   0.369 -0.1662  0.0887 -0.3698
  718SOL    HW1 2153   1.119   0.485   0.457 -0.9744  1.9137  0.5224
  718SOL    HW2 2154   1.146   0.417   0.303  1.4368  0.0710  0.4482
  719SOL     OW 2155   2.647   2.297   2.729  0.1727 -0.3840  0.2110
  719SOL    HW1 2156   2.585   2.315   2.650  0.7983 -0.5505  1.2472
  719SOL    HW2 2157   2.692   2.208   2.715 -0.4118  1.7683  1.3919
  720SOL     OW 2158   1.729   0.765   1.703 -0.1882  0.9323  0.1056
  720SOL    HW1 2159   1.806   0.766   1.773  1.2444  0.3269  0.6150
  720SOL    HW2 2160   1.650   0.812   1.742 -0.3282 -0.9717 -0.1992
  721SOL     OW 2161   2.599   0.256   0.912 -0.4043 -0.1603  0.3142
  721SOL    HW1 2162   2.565   0.338   0.863 -1.6732  2.5914  0.9256
  721SOL    HW2 2163   2.661   0.203   0.849  0.2678  0.5422 -0.9214
  722SOL     OW 2164   1.323   2.295   2.461  0.1487  0.3586 -0.3233
  722SOL    HW1 2165   1.387   2.349   2.400 -1.4459 -1.0737 -1.3164
  722SOL    HW2 2166   1.377   2.233   2.521 -0.0140  2.5438 -1.0013
  723SOL     OW 2167   0.662   0.203   0.808  0.0343 -0.0385 -0.1029
  723SOL    HW1 2168   0.688   0.293   0.843  0.6282 -0.7389  1.2443
  723SOL    HW2 2169   0.726   0.132   0.847  0.5472  0.7897 -0.2045
  724SOL     OW 2170   0.936   2.089   2.229 -0.1756 -0.3037  0.1030
  724SOL    HW1 2171   0.896   1.996   2.240 -1.2012  0.0590 -1.2548
  724SOL    HW2 2172   0.893   2.136   2.152  0.7412 -2.7200  0.7162
  725SOL     OW 2173   0.289   0.761   1.289  0.0877 -0.5200  0.1440
  725SOL    HW1 2174   0.317   0.837   1.231 -0.0978 -1.7302  1.1258
  725SOL    HW2 2175   0.311   0.671   1.244  0.6522  0.0646  0.5509
  726SOL     OW 2176   1.697   0.252   0.725 -0.3248  0.2739 -0.3252
  726SOL    HW1 2177   1.689   0.349   0.734 -1.3269  0.3112  0.8998
  726SOL    HW2 2178   1.731   0.224   0.635 -0.5962  1.0116  0.0081
  727SOL     OW 2179   1.847   1.043   2.035  0.4479 -0.0580  0.4263
  727SOL    HW1 2180   1.893   1.136   2.022  0.2827  1.0704  0.4697
  727SOL    HW2 2181   1.798   1.041   2.121  1.3026 -1.0081 -0.7983
  728SOL     OW 2182   1.789   2.862   1.546 -0.0046 -0.1348 -0.1538
  728SOL    HW1 2183   1.838   2.940   1.596  3.1554  1.7581  2.4565
  728SOL    HW2 2184   1.845   2.776   1.552 -2.2078 -0.6347  0.8904
  729SOL     OW 2185   1.337   0.390   1.734  0.1396 -0.1448 -0.4122
  729SOL    HW1 2186   1.284   0.306   1.715  0.2164  1.1007 -3.4703
  729SOL    HW2 2187   1.409   0.359   1.795  1.0385 -1.1521 -1.9812
  730SOL     OW 2188   0.832   1.830   1.506 -0.0029 -0.0903 -0.6352
  730SOL    HW1 2189   0.855   1.926   1.539  1.3850 -0.4707 -0.6996
  730SOL    HW2 2190   0.912   1.766   1.506 -1.8352  0.6189  1.3691
  731SOL     OW 2191   0.306   0.228   0.054 -0.5951 -0.3555 -0.3525
  731SOL    HW1 2192   0.272   0.315   0.087 -0.4350 -2.3595 -0.4141
  731SOL    HW2 2193   0.258   0.160   0.107  1.3215  0.6636  0.8054
  732SOL     OW 2194   0.416   0.783   0.336 -0.0995 -0.3641 -0.1091
  732SOL    HW1 2195   0.393   0.726   0.253  1.2818 -0.3729 -3.9056
  732SOL    HW2 2196   0.432   0.879   0.298  0.7645  0.9915  0.5249
  733SOL     OW 2197   1.476   1.657   1.712  0.1369 -0.5402  0.6542
  733SOL    HW1 2198   1.485   1.593   1.792 -0.4890 -0.0095  1.0539
  733SOL    HW2 2199   1.428   1.609   1.639  0.6543 -0.5499  0.1707
  734SOL     OW 2200   2.945   2.626   2.088  0.4746 -0.2944  0.1557
  734SOL    HW1 2201   3.037   2.597   2.116 -1.4984 -0.0461 -3.4481
  734SOL    HW2 2202   2.956   2.726   2.071 -0.4247  0.2883  2.2662
  735SOL     OW 2203   1.078   2.890   0.849 -0.4920  0.4331 -0.4157
  735SOL    HW1 2204   1.099   2.802   0.900  1.0412 -0.0738 -2.0943
  735SOL    HW2 2205   1.153   2.957   0.860 -0.7371  0.2032 -1.2878
  736SOL     OW 2206   1.263   0.835   2.764  0.6933 -0.1768 -0.0274
  736SOL    HW1 2207   1.317   0.764   2.710  1.5318  0.9399  0.4407
  736SOL    HW2 2208   1.297   0.928   2.750 -0.4107  0.1174  1.9398
  737SOL     OW 2209   3.055   0.885   0.268 -0.1599 -0.0280  0.6592
  737SOL    HW1 2210   0.016   0.843   0.190 -1.6955 -0.2900 -0.5846
  737SOL    HW2 2211   3.003   0.971   0.235 -2.0285  2.3363  0.5013
  738SOL     OW 2212   0.306   2.600   1.361  0.3827  0.0905 -0.2451
  738SOL    HW1 2213   0.294   2.496   1.373  0.2274 -2.0828  2.6230
  738SOL    HW2 2214   0.213   2.640   1.357  0.6965  1.2821  1.3282
  739SOL     OW 2215   1.309   2.833   0.318  0.3645  0.1199 -0.0523
  739SOL    HW1 2216   1.305   2.760   0.390 -0.0118 -2.0777 -0.3729
  739SOL    HW2 2217   1.253   2.908   0.362  0.1356 -0.2847  0.8116
  740SOL     OW 2218   1.775   2.907   1.267  0.5433  0.4601  0.2139
  740SOL    HW1 2219   1.690   2.964   1.249  0.0051  2.4020  0.4389
  740SOL    HW2 2220   1.790   2.885   1.362  0.4056  0.8243  0.3303
  741SOL     OW 2221   2.167   0.412   0.618  0.3954 -0.5227 -0.3042
  741SOL    HW1 2222   2.172   0.323   0.673  3.3457 -0.9359  0.5105
  741SOL    HW2 2223   2.091   0.478   0.643 -0.5159  0.2456 -0.1697
  742SOL     OW 2224   1.125   2.618   1.897  0.1430  0.0412  0.0367
  742SOL    HW1 2225   1.026   2.633   1.928 -4.5732  1.0855  0.1846
  742SOL    HW2 2226   1.191   2.647   1.971  0.1402 -0.9088  0.1110
  743SOL     OW 2227   2.315   0.668   1.865  0.4546 -0.4189  0.2402
  743SOL    HW1 2228   2.317   0.572   1.826  0.2421  1.7908  2.1348
  743SOL    HW2 2229   2.220   0.694   1.891 -1.2727  0.8536  1.5665
  744SOL     OW 2230   2.417   0.478   1.072  0.0566 -0.1046 -0.2611
  744SOL    HW1 2231   2.337   0.417   1.064  3.6748 -1.0321  1.0334
  744SOL    HW2 2232   2.462   0.474   1.168  1.8855 -1.7104  0.3478
  745SOL     OW 2233   2.125   1.213   1.781 -0.3277  0.2779  0.2475
  745SOL    HW1 2234   2.176   1.291   1.738  1.7571  2.2409 -2.7332
  745SOL    HW2 2235   2.041   1.183   1.724 -1.3180 -0.2774 -2.6555
  746SOL     OW 2236   1.442   1.301   0.653  0.3234 -0.2056  0.6159
  746SOL    HW1 2237   1.478   1.380   0.706 -0.8788  1.1149 -0.6820
  746SOL    HW2 2238   1.348   1.324   0.637  0.2353  1.9521  2.3948
  747SOL     OW 2239   2.039   1.301   1.074  0.9039  0.0038 -0.2711
  747SOL    HW1 2240   1.979   1.268   1.153  0.9257 -1.9557 -0.8331
  747SOL    HW2 2241   2.125   1.253   1.075 -1.8269  0.8045  1.3643
  748SOL     OW 2242   3.080   2.912   0.267 -0.7656  0.3524 -0.4401
  748SOL    HW1 2243   0.043   2.898   0.351  1.9092  1.9731 -0.9613
  748SOL    HW2 2244   0.030   2.854   0.196  0.1062 -2.2421 -1.5351
  749SOL     OW 2245   0.191   0.650   2.155 -0.1425  0.1094 -0.7186
  749SOL    HW1 2246   0.133   0.634   2.235 -1.7102 -0.0734 -0.2916
  749SOL    HW2 2247   0.155   0.598   2.074  0.1603  2.8707 -0.5628
  750SOL     OW 2248   1.797   2.935   1.888 -0.4394 -0.1440 -0.5162
  750SOL    HW1 2249   1.738   2.999   1.937  0.6590  0.3444  2.0653
  750SOL    HW2 2250   1.853   2.974   1.812  1.5686 -0.6434 -2.8513
  751SOL     OW 2251   2.748   0.503   0.575 -0.1384  0.1643 -0.2023
  751SOL    HW1 2252   2.669   0.467   0.528  5.2058  0.8118 -1.2616
  751SOL    HW2 2253   2.812   0.430   0.600 -2.1620  0.4566 -0.2731
  752SOL     OW 2254   0.249   2.513   0.909 -0.3866  0.4964  0.5496
  752SOL    HW1 2255   0.283   2.576   0.837 -0.6505 -0.2921  1.4398
  752SOL    HW2 2256   0.171   2.454   0.876 -2.0914  0.1678 -1.1139
  753SOL     OW 2257   0.846   0.301   1.477  0.0566  0.3623  0.6985
  753SOL    HW1 2258   0.815   0.227   1.415  0.4157 -0.7531 -0.7923
  753SOL    HW2 2259   0.948   0.285   1.490  2.6241 -0.4113  0.2062
  754SOL     OW 2260   0.897   2.851   2.201  0.2447 -0.2601  0.6090
  754SOL    HW1 2261   0.900   2.934   2.143 -2.0475  0.8706 -1.4338
  754SOL    HW2 2262   0.989   2.836   2.240 -2.0712 -0.1208 -1.8950
  755SOL     OW 2263   2.046   1.032   0.194  0.0064 -0.6268  0.2994
  755SOL    HW1 2264   2.091   0.942   0.180  0.4765 -1.1523  1.6333
  755SOL    HW2 2265   2.096   1.109   0.153 -1.9201  0.4528  0.6766
  756SOL     OW 2266   2.314   1.931   2.596 -0.5207  0.7885  0.5645
  756SOL    HW1 2267   2.382   1.969   2.661  0.6956  1.4627 -1.0428
  756SOL    HW2 2268   2.317   1.980   2.506 -1.0711  2.3278  0.9976
  757SOL     OW 2269   1.587   0.185   1.098  0.5082 -0.1611 -0.7634
  757SOL    HW1 2270   1.491   0.220   1.097 -1.8536 -0.3029 -0.7195
  757SOL    HW2 2271   1.596   0.107   1.166 -1.0374 -1.1866 -1.5795
  758SOL     OW 2272   1.537   2.683   0.879 -0.0304  0.3096 -0.0945
  758SOL    HW1 2273   1.599   2.690   0.958 -1.1353  0.2765 -0.0098
  758SOL    HW2 2274   1.570   2.740   0.800 -0.2431  2.0971  2.4388
  759SOL     OW 2275   2.467   0.651   1.360  0.1584  0.2563  0.4004
  759SOL    HW1 2276   2.383   0.704   1.342  0.7239  0.6280 -2.0310
  759SOL    HW2 2277   2.546   0.695   1.311  0.0368 -1.1784 -1.7378
  760SOL     OW 2278   2.428   0.971   1.169  0.1365  0.2713  0.0992
  760SOL    HW1 2279   2.529   0.981   1.172 -2.1037 -1.1384 -1.1486
  760SOL    HW2 2280   2.402   0.888   1.117  1.1216 -0.5692 -1.7905
  761SOL     OW 2281   0.259   0.445   0.444 -0.2670  0.2971  0.0454
  761SOL    HW1 2282   0.351   0.421   0.487  0.0691  1.2643  1.1460
  761SOL    HW2 2283   0.204   0.502   0.504  1.5237 -2.0359 -1.1571
  762SOL     OW 2284   1.707   1.796   1.318 -0.7318 -0.1524 -0.5435
  762SOL    HW1 2285   1.808   1.803   1.307  2.8925  0.9774  1.2959
  762SOL    HW2 2286   1.682   1.770   1.414  0.2154 -1.7423 -1.5024
  763SOL     OW 2287   1.220   1.353   1.680  0.6992 -0.4392 -0.3757
  763SOL    HW1 2288   1.157   1.280   1.716 -1.6588  0.8568  1.1941
  763SOL    HW2 2289   1.191   1.445   1.720  0.0693  0.5993 -0.1132
  764SOL     OW 2290   0.050   1.850   2.246 -0.3723  0.0351 -0.4011
  764SOL    HW1 2291   3.060   1.810   2.198 -1.6239 -0.6827  2.4276
  764SOL    HW2 2292   0.022   1.933   2.294  2.0818 -0.4790  3.1489
  765SOL     OW 2293   1.508   2.513   1.495 -0.1298  0.0173  0.3431
  765SOL    HW1 2294   1.496   2.412   1.475 -0.8101  2.4383  0.0983
  765SOL    HW2 2295   1.426   2.569   1.471 -0.8813 -0.0607  0.0920
  766SOL     OW 2296   3.024   2.520   2.703  0.4625  0.4179  0.1810
  766SOL    HW1 2297   3.031   2.605   2.645 -0.1185 -1.9260 -0.3228
  766SOL    HW2 2298   2.949   2.465   2.659  0.2140 -0.4848 -0.8949
  767SOL     OW 2299   1.325   0.877   2.411 -0.4948  0.7366 -0.0032
  767SOL    HW1 2300   1.333   0.971   2.440 -2.9445  0.1353 -0.5525
  767SOL    HW2 2301   1.228   0.840   2.402 -1.6543  0.9088  0.8585
  768SOL     OW 2302   1.145   2.108   0.228 -0.1011 -0.0054  0.3315
  768SOL    HW1 2303   1.057   2.142   0.265 -1.0593 -0.9341 -1.0144
  768SOL    HW2 2304   1.202   2.183   0.193 -1.3633 -0.5264  0.4324
  769SOL     OW 2305   0.447   2.692   1.028 -0.4217  0.2925  0.2262
  769SOL    HW1 2306   0.375   2.621   1.003 -1.6652 -1.4113 -0.9760
  769SOL    HW2 2307   0.398   2.760   1.082 -0.5099 -1.2944 -2.3059
  770SOL     OW 2308   1.597   0.927   2.946  0.3161 -0.5269  0.3837
  770SOL    HW1 2309   1.540   0.971   2.870 -0.3169  0.2194 -2.5385
  770SOL    HW2 2310   1.686   0.973   2.958  0.2893  0.6892  0.7954
  771SOL     OW 2311   0.270   3.011   2.172  0.3009  0.5810  0.3293
  771SOL    HW1 2312   0.320   3.047   2.250  0.4654  0.5215  1.3648
  771SOL    HW2 2313   0.332   3.027   2.088  2.0917 -0.7610  2.2431
  772SOL     OW 2314   2.118   3.082   2.227  0.5197  0.1549 -0.2254
  772SOL    HW1 2315   2.210   0.035   2.209  3.5286  0.2351 -2.2431
  772SOL    HW2 2316   2.079   0.028   2.313  0.8270  2.2286 -3.3048
  773SOL     OW 2317   1.005   2.178   1.780 -0.4386  0.4377 -0.3008
  773SOL    HW1 2318   1.107   2.205   1.782  2.7869  1.4865 -1.0501
  773SOL    HW2 2319   0.941   2.256   1.780 -0.7680 -0.0229 -1.3529
  774SOL     OW 2320   1.303   0.191   2.095 -0.4451  0.4610  0.4762
  774SOL    HW1 2321   1.291   0.163   2.192 -1.5156  0.8926 -0.1583
  774SOL    HW2 2322   1.252   0.280   2.081  0.6616 -3.4829  1.6975
  775SOL     OW 2323   2.164   2.735   0.010  0.1611 -0.2006  0.2366
  775SOL    HW1 2324   2.110   2.680   3.037  1.1307  1.7824  2.4035
  775SOL    HW2 2325   2.112   2.801   0.062  0.3748 -2.2164  0.6583
  776SOL     OW 2326   2.685   0.602   2.404 -0.2601 -0.2188 -0.7732
  776SOL    HW1 2327   2.775   0.558   2.391  1.9601 -1.7573  0.2198
  776SOL    HW2 2328   2.693   0.704   2.415 -1.6413  1.2054  0.7419
  777SOL     OW 2329   2.456   1.749   2.375  0.3375  0.0506  0.1471
  777SOL    HW1 2330   2.536   1.737   2.436  0.5703 -1.7444 -0.4710
  777SOL    HW2 2331   2.385   1.806   2.424  0.0575  0.9822  0.5171
  778SOL     OW 2332   2.111   0.908   2.163 -0.1294  0.1267 -0.1344
  778SOL    HW1 2333   2.069   0.841   2.221 -0.8301  0.8821  0.8520
  778SOL    HW2 2334   2.070   0.999   2.187 -0.6813  1.3459  1.0544
  779SOL     OW 2335   3.022   0.289   0.089  0.1129 -0.1029 -0.2382
  779SOL    HW1 2336   2.995   0.388   0.107 -0.5013 -1.6116 -1.2494
  779SOL    HW2 2337   3.012   0.243   0.180 -1.4620 -1.9093 -1.2241
  780SOL     OW 2338   2.795   0.658   3.080  0.1780  0.4958 -0.6253
  780SOL    HW1 2339   2.768   0.566   3.049  2.7907 -0.5446 -1.2960
  780SOL    HW2 2340   2.752   0.688   0.075 -0.2266  1.6858  0.6439
  781SOL     OW 2341   0.021   2.956   1.426 -0.1152 -0.3645 -0.0956
  781SOL    HW1 2342   3.068   3.014   1.362  0.6061 -2.3773  0.9674
  781SOL    HW2 2343   0.026   2.860   1.392  3.4474 -0.3154 -0.2513
  782SOL     OW 2344   1.828   2.530   0.608  0.3821 -0.0432  0.3633
  782SOL    HW1 2345   1.778   2.494   0.526 -1.1310  0.5741 -1.4075
  782SOL    HW2 2346   1.782   2.606   0.655 -0.4935 -0.7024  0.8903
  783SOL     OW 2347   0.780   1.463   1.184  0.6685  0.1350 -0.2013
  783SOL    HW1 2348   0.697   1.513   1.210  0.0447 -0.6604 -1.7619
  783SOL    HW2 2349   0.797   1.476   1.084 -0.4504  1.9372 -3.2255
  784SOL     OW 2350   1.426   0.633   2.688  0.1286 -0.7150 -1.1370
  784SOL    HW1 2351   1.397   0.563   2.617  0.2141 -1.2450 -1.5249
  784SOL    HW2 2352   1.505   0.687   2.658 -2.2729 -0.3111  0.2296
  785SOL     OW 2353   2.472   0.380   1.408  0.0262 -0.3414  0.3189
  785SOL    HW1 2354   2.471   0.483   1.389 -1.1816 -0.9321 -1.7562
  785SOL    HW2 2355   2.397   0.331   1.359 -0.1640 -2.8952 -0.7382
  786SOL     OW 2356   1.230   2.710   1.669  0.0102  0.0259 -0.0866
  786SOL    HW1 2357   1.208   2.629   1.610 -2.2547  0.3386 -1.2111
  786SOL    HW2 2358   1.186   2.688   1.760  0.8949 -1.1118  0.4750
  787SOL     OW 2359   1.772   0.089   1.349  0.3164 -0.2023  0.2622
  787SOL    HW1 2360   1.690   0.030   1.339  1.7230 -1.6375  0.9692
  787SOL    HW2 2361   1.742   0.171   1.392  1.3840 -1.7469 -1.0518
  788SOL     OW 2362   2.940   1.297   0.486  0.0306  0.0271 -0.6171
  788SOL    HW1 2363   2.888   1.320   0.566  1.0128 -0.6152 -0.2031
  788SOL    HW2 2364   2.994   1.206   0.509  1.4929 -1.4037 -0.5216
  789SOL     OW 2365   0.547   2.055   1.506 -0.2550  0.2888  0.5941
  789SOL    HW1 2366   0.497   1.970   1.489  1.6176  1.4518  1.3596
  789SOL    HW2 2367   0.645   2.030   1.518  0.1139  0.4831 -1.4273
  790SOL     OW 2368   0.728   0.524   2.216  0.1237  0.2568  0.0688
  790SOL    HW1 2369   0.720   0.530   2.317  0.6434 -0.5857 -0.3976
  790SOL    HW2 2370   0.641   0.548   2.172  0.2377 -0.1848 -0.1017
  791SOL     OW 2371   2.169   0.389   0.957  0.1999 -0.2807  0.1674
  791SOL    HW1 2372   2.070   0.373   0.981 -0.8977  1.0516  1.0423
  791SOL    HW2 2373   2.180   0.489   0.956  0.8027 -1.0887 -3.4787
  792SOL     OW 2374   1.066   2.905   1.765 -0.4224  0.4565  0.0932
  792SOL    HW1 2375   1.092   2.992   1.811  2.7897 -0.7736 -1.1155
  792SOL    HW2 2376   1.146   2.865   1.710  0.2533 -0.4593 -2.2795
  793SOL     OW 2377   0.239   0.042   0.579 -0.1337  0.2562  0.1939
  793SOL    HW1 2378   0.335   0.072   0.603 -2.0813  0.8889 -2.8823
  793SOL    HW2 2379   0.180   0.046   0.661 -0.8150  3.3851  0.4496
  794SOL     OW 2380   0.262   1.099   1.736  0.2096 -0.1293 -0.0891
  794SOL    HW1 2381   0.185   1.050   1.779  0.1380 -1.6701 -1.7776
  794SOL    HW2 2382   0.254   1.113   1.635  1.8222  0.7918 -1.5466
  795SOL     OW 2383   0.411   2.181   2.190 -0.7931  0.2344  0.1645
  795SOL    HW1 2384   0.390   2.278   2.201  0.5640 -0.8033 -0.6873
  795SOL    HW2 2385   0.507   2.169   2.221 -0.2074  0.6455 -1.8865
  796SOL     OW 2386   2.491   0.533   2.203  0.2748  0.5293 -0.3847
  796SOL    HW1 2387   2.568   0.554   2.272  3.6496 -0.9846 -0.3368
  796SOL    HW2 2388   2.519   0.566   2.110 -3.3898 -1.7300 -0.4173
  797SOL     OW 2389   2.480   2.344   2.519 -0.8282  0.3272 -0.0550
  797SOL    HW1 2390   2.402   2.283   2.545  1.3404  0.0866 -2.0399
  797SOL    HW2 2391   2.440   2.437   2.502 -0.9936 -1.1800 -0.1442
  798SOL     OW 2392   3.023   2.869   2.054 -0.8468  0.1657 -0.1967
  798SOL    HW1 2393   3.012   2.965   2.097  1.4698 -0.3149  0.4123
  798SOL    HW2 2394   3.076   2.870   1.967  0.5498  0.9308  0.8130
  799SOL     OW 2395   0.180   2.545   2.112 -0.1570 -0.0960  0.2823
  799SOL    HW1 2396   0.165   2.472   2.180 -2.4603 -0.3364 -0.5195
  799SOL    HW2 2397   0.146   2.516   2.019  0.0394  1.4606  0.7842
  800SOL     OW 2398   0.062   1.919   0.111 -0.3081 -0.0035  0.1449
  800SOL    HW1 2399   0.044   2.018   0.139  0.0780  1.0188 -0.1690
  800SOL    HW2 2400   0.071   1.862   0.197 -1.8138 -0.3833 -4.4192
  801SOL     OW 2401   1.652   1.395   1.376 -0.1057 -0.2708 -0.1688
  801SOL    HW1 2402   1.573   1.325   1.373 -0.7828 -2.0460  0.4719
  801SOL    HW2 2403   1.689   1.390   1.470 -3.0067  1.3262 -0.2212
  802SOL     OW 2404   3.066   1.059   0.509 -0.1946  0.6434  0.0983
  802SOL    HW1 2405   3.057   1.025   0.605 -0.4893 -1.0064  3.1264
  802SOL    HW2 2406   3.045   0.985   0.439  1.1403 -4.5512 -1.2466
  803SOL     OW 2407   1.199   1.600   1.777 -1.0722  0.0787  0.6718
  803SOL    HW1 2408   1.101   1.595   1.805 -2.7517 -1.8167 -0.0853
  803SOL    HW2 2409   1.250   1.675   1.823  1.0795  1.2756  0.7159
  804SOL     OW 2410   2.028   1.524   0.940 -0.2100 -0.2610  0.2153
  804SOL    HW1 2411   2.051   1.432   0.981  1.3437 -2.2961  0.1009
  804SOL    HW2 2412   2.095   1.551   0.868  0.0259 -1.3857 -0.6124
  805SOL     OW 2413   2.911   1.433   2.672 -0.1698  0.3160  0.2622
  805SOL    HW1 2414   2.918   1.511   2.603 -1.0179 -0.0233 -3.8099
  805SOL    HW2 2415   2.859   1.361   2.630  0.2260  0.5142  0.7643
  806SOL     OW 2416   0.306   2.564   0.009  0.8710 -0.0631 -0.6225
  806SOL    HW1 2417   0.334   2.530   3.009  0.5862 -1.4783 -3.1873
  806SOL    HW2 2418   0.390   2.591   0.063 -1.4569  1.4921  0.6267
  807SOL     OW 2419   2.340   1.489   2.971  0.5033  0.0185  0.5908
  807SOL    HW1 2420   2.406   1.442   3.028 -4.7294 -0.4278 -2.3262
  807SOL    HW2 2421   2.314   1.575   3.021  0.5530  1.6414  1.5066
  808SOL     OW 2422   1.249   2.330   1.292 -0.2031 -0.0694  0.4656
  808SOL    HW1 2423   1.190   2.250   1.283  0.2476  1.9020  0.8521
  808SOL    HW2 2424   1.343   2.299   1.312  0.7958 -0.5933  0.0428
  809SOL     OW 2425   2.822   0.764   0.607  0.2882  0.0430  0.3899
  809SOL    HW1 2426   2.808   0.814   0.697  0.0869  1.4678  0.1128
  809SOL    HW2 2427   2.771   0.675   0.602  0.7759  1.6389  1.4217
  810SOL     OW 2428   0.882   1.444   0.477  0.1202  0.4740  0.0754
  810SOL    HW1 2429   0.883   1.415   0.577 -0.5350 -0.9695 -1.5866
  810SOL    HW2 2430   0.956   1.516   0.456  3.6093  1.4028 -0.0369
  811SOL     OW 2431   1.607   2.493   1.225 -0.0081 -0.0220 -0.2001
  811SOL    HW1 2432   1.649   2.570   1.170 -0.9798 -0.6436 -1.3129
  811SOL    HW2 2433   1.580   2.519   1.319  1.2494 -0.6594  1.2575
  812SOL     OW 2434   1.489   2.848   1.590 -0.0634  0.5728  0.0399
  812SOL    HW1 2435   1.590   2.830   1.593  0.0363  0.9257 -0.9063
  812SOL    HW2 2436   1.437   2.795   1.667  0.6731  0.3240  3.3502
  813SOL     OW 2437   0.729   3.036   1.635 -0.5464  0.1295 -0.8739
  813SOL    HW1 2438   0.651   2.999   1.582 -1.6697 -1.5859 -0.0738
  813SOL    HW2 2439   0.769   2.961   1.691  0.1777 -0.0563  2.0161
  814SOL     OW 2440   1.106   2.788   2.333 -0.4647  0.4991 -0.6221
  814SOL    HW1 2441   1.196   2.829   2.308 -0.0834 -1.9663 -0.6621
  814SOL    HW2 2442   1.109   2.687   2.332  0.9727  1.6478  0.1951
  815SOL     OW 2443   0.499   0.008   2.767 -0.8010 -0.1198  0.0295
  815SOL    HW1 2444   0.494   3.036   2.689  1.6928 -1.1789  1.3836
  815SOL    HW2 2445   0.538   0.098   2.740  0.6779  0.4362 -1.2129
  816SOL     OW 2446   2.266   0.601   3.012  0.2632 -0.1064  0.0182
  816SOL    HW1 2447   2.304   0.506   2.986  0.1150 -3.2734 -1.6793
  816SOL    HW2 2448   2.333   0.678   3.015 -3.9504  2.6638 -1.5610
  817SOL     OW 2449   2.525   2.651   2.213  0.3448 -0.1919  0.0692
  817SOL    HW1 2450   2.618   2.614   2.221  1.4610  1.9398 -1.1051
  817SOL    HW2 2451   2.519   2.749   2.228 -1.4049 -3.0489  0.1430
  818SOL     OW 2452   1.056   0.708   0.303 -0.3763  0.0122 -0.1283
  818SOL    HW1 2453   1.027   0.610   0.317 -2.3901  2.4878 -0.0720
  818SOL    HW2 2454   1.007   0.741   0.220  1.3294  1.0824 -3.4919
  819SOL     OW 2455   1.782   1.546   2.621  0.1963 -0.1121  0.1974
  819SOL    HW1 2456   1.739   1.578   2.534 -0.9230  0.5625  0.4342
  819SOL    HW2 2457   1.848   1.472   2.600 -0.5903 -0.9101  0.6298
  820SOL     OW 2458   2.918   1.646   2.492 -0.1181  0.1799 -0.7708
  820SOL    HW1 2459   2.980   1.702   2.554  0.6892  0.3539 -0.4403
  820SOL    HW2 2460   2.975   1.613   2.412  0.7176  2.3176  1.0411
  821SOL     OW 2461   0.288   2.661   0.680  0.0991  0.0036 -0.3336
  821SOL    HW1 2462   0.327   2.756   0.663  0.5158  2.1799 -1.1279
  821SOL    HW2 2463   0.345   2.590   0.638 -1.1373  2.2175  3.1807
  822SOL     OW 2464   2.288   2.507   2.921 -0.1860 -0.0574  0.3421
  822SOL    HW1 2465   2.266   2.407   2.935  0.4106  0.0140 -0.9187
  822SOL    HW2 2466   2.332   2.544   3.003 -1.4467  0.6034 -0.7919
  823SOL     OW 2467   1.686   0.099   2.507  0.3776  0.0091  0.1835
  823SOL    HW1 2468   1.639   0.188   2.507  1.0146  1.0199 -1.8074
  823SOL    HW2 2469   1.649   0.032   2.439  0.4746 -2.8145 -1.5541
  824SOL     OW 2470   2.702   2.305   2.018 -0.4617 -0.0008  0.2068
  824SOL    HW1 2471   2.708   2.401   1.986  2.1650  1.7187 -0.5337
  824SOL    HW2 2472   2.654   2.293   2.111 -2.7988  0.5694  1.0207
  825SOL     OW 2473   2.967   2.245   2.317 -0.0218 -0.5909  0.1697
  825SOL    HW1 2474   3.022   2.178   2.362  0.8803  1.5072 -0.5884
  825SOL    HW2 2475   2.922   2.210   2.232  0.2036  1.9147 -0.4270
  826SOL     OW 2476   2.026   0.537   2.815 -0.3566 -0.0764 -0.0595
  826SOL    HW1 2477   1.975   0.627   2.816  3.2811  0.1199  2.1362
  826SOL    HW2 2478   2.116   0.549   2.851 -1.1062 -2.1320 -1.5527
  827SOL     OW 2479   2.892   1.664   1.668  0.0555 -0.4522 -0.2510
  827SOL    HW1 2480   2.855   1.746   1.718 -2.1941  2.2907 -0.4404
  827SOL    HW2 2481   2.878   1.677   1.565  1.0035 -0.1990 -3.0137
  828SOL     OW 2482   3.044   0.016   1.222  0.2835 -0.0140  0.4527
  828SOL    HW1 2483   0.003   3.040   1.164 -0.8158  1.3360  0.2031
  828SOL    HW2 2484   2.941   0.008   1.200 -2.2897  2.3053 -0.2456
  829SOL     OW 2485   0.890   1.971   2.804 -0.3150 -0.3084  0.1744
  829SOL    HW1 2486   0.853   2.055   2.762  0.2609 -4.6062  0.5389
  829SOL    HW2 2487   0.840   1.888   2.780 -3.5016 -0.9409  2.8072
  830SOL     OW 2488   0.724   0.978   1.278 -0.1005 -0.4072 -0.0220
  830SOL    HW1 2489   0.718   1.071   1.325 -0.5131 -0.2264  1.6865
  830SOL    HW2 2490   0.680   0.906   1.333  0.2693  2.7604 -0.4493
  831SOL     OW 2491   2.718   1.805   2.804 -0.7153  0.0669  0.2303
  831SOL    HW1 2492   2.741   1.711   2.834  0.8630 -2.4213 -0.3275
  831SOL    HW2 2493   2.721   1.869   2.879  0.0304  0.8817 -2.1658
  832SOL     OW 2494   1.860   2.483   2.698 -0.1296 -0.0838  0.0818
  832SOL    HW1 2495   1.905   2.400   2.741  0.1044 -1.5881  3.5152
  832SOL    HW2 2496   1.761   2.482   2.710  1.2526  1.1953 -1.6810
  833SOL     OW 2497   0.815   0.297   2.101  0.5356 -0.6464 -0.0041
  833SOL    HW1 2498   0.865   0.304   2.010  1.0787  0.9689 -0.8474
  833SOL    HW2 2499   0.792   0.392   2.139  0.4535  0.8470  1.7751
  834SOL     OW 2500   3.019   0.221   1.387 -0.0262 -0.0578 -0.0283
  834SOL    HW1 2501   3.013   0.150   1.314 -1.0071 -2.1061  0.6008
  834SOL    HW2 2502   2.953   0.299   1.373 -0.3412 -0.3189  0.3324
  835SOL     OW 2503   2.733   0.353   0.241  0.1352 -0.6150  0.4012
  835SOL    HW1 2504   2.670   0.405   0.304  1.7427  0.4787  0.6932
  835SOL    HW2 2505   2.820   0.329   0.290  0.5002  0.6502  1.8029
  836SOL     OW 2506   1.616   1.825   0.259  0.4091  0.1288 -0.0557
  836SOL    HW1 2507   1.556   1.757   0.308 -1.0364  0.1149  1.3499
  836SOL    HW2 2508   1.600   1.921   0.292 -1.0182  0.9131  0.5265
  837SOL     OW 2509   1.949   1.846   0.571 -0.5310 -0.1483 -0.1221
  837SOL    HW1 2510   2.046   1.818   0.568 -0.6300 -1.1299  0.5364
  837SOL    HW2 2511   1.942   1.947   0.546 -2.3188  2.4464 -2.7993
  838SOL     OW 2512   1.582   0.807   2.384 -0.1881  0.2947 -0.0968
  838SOL    HW1 2513   1.624   0.744   2.455 -0.3102  2.3077  2.6445
  838SOL    HW2 2514   1.480   0.820   2.396 -0.4825  0.4964 -1.3166
  839SOL     OW 2515   0.632   1.440   2.337 -0.1745 -0.5654  0.2168
  839SOL    HW1 2516   0.598   1.479   2.423 -1.9456 -1.7707  0.3887
  839SOL    HW2 2517   0.717   1.382   2.352 -0.3660 -1.5645 -0.2660
  840SOL     OW 2518   1.113   1.583   0.476  0.4270  0.0996 -0.0404
  840SOL    HW1 2519   1.182   1.651   0.510 -1.2283  3.1600  0.1922
  840SOL    HW2 2520   1.128   1.489   0.504 -2.0237 -0.5403  1.3778
  841SOL     OW 2521   1.594   2.215   0.718 -0.1259  0.1031  0.5049
  841SOL    HW1 2522   1.697   2.213   0.704 -0.3320 -1.1100  0.6360
  841SOL    HW2 2523   1.569   2.249   0.807  3.0151  0.2490 -2.4449
  842SOL     OW 2524   0.338   0.677   0.087  0.2109 -0.4860  0.5360
  842SOL    HW1 2525   0.294   0.588   0.113 -1.4585  0.2951  2.4816
  842SOL    HW2 2526   0.415   0.669   0.019  1.5712  1.5642  0.0687
  843SOL     OW 2527   0.547   0.052   0.590  0.2378 -0.3998 -0.6547
  843SOL    HW1 2528   0.590   0.046   0.497 -0.1383  1.3425 -2.7269
  843SOL    HW2 2529   0.589   0.131   0.645  0.0023  1.5112  1.4009
  844SOL     OW 2530   2.375   0.132   2.519 -0.3935 -0.1086  0.7468
  844SOL    HW1 2531   2.394   0.102   2.617  2.4968 -1.5446  1.7155
  844SOL    HW2 2532   2.401   0.060   2.454 -0.2525 -1.3398 -0.6809
  845SOL     OW 2533   2.968   2.424   1.731 -0.0378  0.2833  0.5726
  845SOL    HW1 2534   2.887   2.454   1.787 -2.5482 -0.7828  1.0429
  845SOL    HW2 2535   2.977   2.322   1.727 -1.6180 -0.2837 -1.8449
  846SOL     OW 2536   1.952   1.387   2.378  0.4070  0.2469 -0.4092
  846SOL    HW1 2537   2.033   1.445   2.391 -1.7287 -0.3513 -1.9942
  846SOL    HW2 2538   1.869   1.441   2.359  1.0234  0.1308  1.8515
  847SOL     OW 2539   0.862   0.748   1.888 -0.1722 -0.0405 -0.1613
  847SOL    HW1 2540   0.823   0.718   1.797 -0.4914  3.3025  0.5567
  847SOL    HW2 2541   0.958   0.780   1.878 -0.3506  0.0658  0.7522
  848SOL     OW 2542   2.397   0.046   2.779  0.0263 -0.3907  0.4290
  848SOL    HW1 2543   2.435   3.040   2.779  2.1262 -1.9466 -3.0233
  848SOL    HW2 2544   2.462   0.120   2.812  0.8521  2.7617  1.9839
  849SOL     OW 2545   0.175   2.943   2.996  0.1213 -0.2939  0.1001
  849SOL    HW1 2546   0.158   2.927   2.895 -0.7313  0.0013 -0.8139
  849SOL    HW2 2547   0.267   2.976   3.015  0.4140 -0.9746 -2.2889
  850SOL     OW 2548   1.169   2.672   0.958 -0.2759 -0.0780  0.0494
  850SOL    HW1 2549   1.160   2.672   1.061 -0.7008  0.3072  2.1949
  850SOL    HW2 2550   1.206   2.583   0.938 -0.3704  1.9221 -0.5220
  851SOL     OW 2551   2.019   0.462   2.362  0.3182  0.6532  1.0353
  851SOL    HW1 2552   2.099   0.478   2.298  3.7518 -2.6416  2.9889
  851SOL    HW2 2553   2.045   0.394   2.434  0.2813 -0.0851  0.1016
  852SOL     OW 2554   1.242   0.236   2.598 -0.4761 -0.5828 -0.0018
  852SOL    HW1 2555   1.312   0.198   2.659 -2.8112 -1.5062 -3.2152
  852SOL    HW2 2556   1.149   0.216   2.635 -2.3113 -1.2422 -2.8568
  853SOL     OW 2557   3.011   2.732   2.912  0.3640  0.1363  0.1119
  853SOL    HW1 2558   2.995   2.706   3.010 -2.8715 -1.4329  3.3492
  853SOL    HW2 2559   2.975   2.661   2.848 -2.4484 -0.2413  0.6753
  854SOL     OW 2560   2.054   0.741   2.388  0.1833 -0.3566 -0.0067
  854SOL    HW1 2561   2.150   0.759   2.416 -1.8278  0.7905 -0.3653
  854SOL    HW2 2562   2.036   0.645   2.370 -0.6791  0.8543 -0.2847
  855SOL     OW 2563   0.542   2.581   0.155 -0.1234 -0.0241 -0.3536
  855SOL    HW1 2564   0.528   2.633   0.247 -0.8800 -1.4024  3.6122
  855SOL    HW2 2565   0.634   2.612   0.111 -0.0406  0.0581  0.3670
  856SOL     OW 2566   0.220   0.003   2.455  0.0383 -0.2948  1.1826
  856SOL    HW1 2567   0.122   0.034   2.460 -0.2398  0.5608 -0.0439
  856SOL    HW2 2568   0.274   0.009   2.544  1.5269  0.8417 -0.1002
  857SOL     OW 2569   1.014   0.040   1.176  0.0624  0.4933 -0.3613
  857SOL    HW1 2570   0.934   0.055   1.243 -2.4414  0.2591  1.9017
  857SOL    HW2 2571   0.978   0.055   1.083 -0.1190  0.0172 -0.3151
  858SOL     OW 2572   2.512   1.972   1.775 -0.7560 -0.3868 -0.0485
  858SOL    HW1 2573   2.575   2.041   1.742 -0.8857 -1.8608  0.9284
  858SOL    HW2 2574   2.424   2.010   1.802  0.1919  1.5009 -0.6943
  859SOL     OW 2575   1.874   2.437   2.001 -0.2376 -0.2426  0.2746
  859SOL    HW1 2576   1.843   2.525   1.959  0.5615 -0.9155 -2.5019
  859SOL    HW2 2577   1.879   2.446   2.101  0.7804  0.2475 -1.2806
  860SOL     OW 2578   1.823   0.252   0.482 -0.2690 -0.2367 -0.3210
  860SOL    HW1 2579   1.835   0.350   0.455 -1.4106 -0.0828  0.2563
  860SOL    HW2 2580   1.742   0.211   0.440 -0.0267  0.7838  3.9973
  861SOL     OW 2581   2.893   0.292   0.637  0.0879 -0.2924  0.3196
  861SOL    HW1 2582   2.988   0.315   0.658 -0.8845 -0.4792  0.7039
  861SOL    HW2 2583   2.868   0.204   0.678  1.4460  0.5543  0.6687
  862SOL     OW 2584   0.923   2.788   2.557  0.0810 -0.1255 -0.3623
  862SOL    HW1 2585   0.955   2.834   2.473  0.8163 -1.7049  1.0649
  862SOL    HW2 2586   0.978   2.706   2.574 -2.7687  2.2169 -0.1368
  863SOL     OW 2587   0.555   0.547   1.320  0.2143  0.6165  0.2975
  863SOL    HW1 2588   0.484   0.501   1.375 -2.0139  2.0528  1.5738
  863SOL    HW2 2589   0.521   0.547   1.226  1.5718  1.1823  0.1895
  864SOL     OW 2590   2.783   2.863   1.684  0.0087 -0.4733  0.1739
  864SOL    HW1 2591   2.842   2.945   1.686  0.8899 -1.3138  1.1147
  864SOL    HW2 2592   2.848   2.783   1.661  2.2443  1.0972 -2.3345
  865SOL     OW 2593   0.412   1.329   2.854  0.0129  0.3356 -0.3802
  865SOL    HW1 2594   0.444   1.234   2.863  0.8928  4.5367  0.2828
  865SOL    HW2 2595   0.416   1.369   2.951 -2.7630  0.3486  1.4454
  866SOL     OW 2596   3.061   0.177   2.938  0.3831  0.1616 -0.3453
  866SOL    HW1 2597   3.053   0.214   3.035 -0.9110  2.2160 -0.5943
  866SOL    HW2 2598   3.044   0.078   2.930  0.3466  2.8113 -1.4128
  867SOL     OW 2599   2.578   2.938   2.720 -0.0306 -0.0198 -0.4880
  867SOL    HW1 2600   2.674   2.949   2.706  1.7367 -2.1152  1.8073
  867SOL    HW2 2601   2.544   2.869   2.652  2.6284 -1.5661  2.4713
  868SOL     OW 2602   1.277   0.852   0.282  0.4958  0.4528 -0.2626
  868SOL    HW1 2603   1.196   0.791   0.274 -0.1036 -0.9496 -0.7698
  868SOL    HW2 2604   1.336   0.854   0.197  0.5675 -0.1975  3.6745
  869SOL     OW 2605   2.760   1.387   0.690  0.6836  0.2665  0.0324
  869SOL    HW1 2606   2.752   1.485   0.713 -0.2895  0.4088 -0.3714
  869SOL    HW2 2607   2.714   1.330   0.760  0.0471 -0.7866 -2.3068
  870SOL     OW 2608   2.480   1.730   0.462 -0.1143 -0.3287 -0.1264
  870SOL    HW1 2609   2.487   1.750   0.367  0.7182 -0.0334  3.2126
  870SOL    HW2 2610   2.475   1.629   0.482  3.1021 -0.0575 -1.3091
  871SOL     OW 2611   1.174   1.336   0.602  0.4450 -0.4732 -0.6400
  871SOL    HW1 2612   1.162   1.238   0.566 -2.2428  1.1391 -0.1668
  871SOL    HW2 2613   1.103   1.364   0.672 -0.0371 -0.2442  1.5055
  872SOL     OW 2614   1.348   1.896   1.649 -0.2882 -0.1844  0.1525
  872SOL    HW1 2615   1.321   1.890   1.552  4.1656  0.2082  1.9415
  872SOL    HW2 2616   1.396   1.811   1.678  1.5389  1.1202  1.5075
  873SOL     OW 2617   1.019   1.770   2.434 -0.5301 -0.0062 -0.0698
  873SOL    HW1 2618   0.983   1.691   2.491  1.2032 -2.6126  1.8162
  873SOL    HW2 2619   0.955   1.799   2.358 -2.0260  0.3373 -0.9251
  874SOL     OW 2620   1.107   2.162   1.016  0.1573  0.2865  0.0729
  874SOL    HW1 2621   1.202   2.188   1.022  0.0305 -0.4529 -1.1576
  874SOL    HW2 2622   1.092   2.068   1.057 -2.7519 -2.0653  1.3350
  875SOL     OW 2623   2.289   0.292   1.242  0.0631 -0.3654  0.0687
  875SOL    HW1 2624   2.200   0.336   1.269 -0.9964  1.0286 -0.1491
  875SOL    HW2 2625   2.276   0.241   1.153 -0.2426  1.1877 -2.8727
  876SOL     OW 2626   0.732   0.575   0.177 -0.1243  0.3432  0.5623
  876SOL    HW1 2627   0.739   0.638   0.257 -0.6063  2.3546  1.4266
  876SOL    HW2 2628   0.776   0.485   0.200 -0.4872 -1.3021 -0.6641
  877SOL     OW 2629   2.823   0.446   1.382  0.2976 -0.7686  0.2547
  877SOL    HW1 2630   2.753   0.421   1.311 -2.0816 -0.3840 -1.2868
  877SOL    HW2 2631   2.851   0.541   1.375  0.9220 -0.8825  0.3244
  878SOL     OW 2632   2.242   2.330   0.424  0.4448 -0.1286 -0.4432
  878SOL    HW1 2633   2.157   2.333   0.367 -0.5609  2.1693  0.1940
  878SOL    HW2 2634   2.245   2.240   0.469  0.0869  1.2657  0.7337
  879SOL     OW 2635   2.775   1.489   1.395 -0.2238 -0.1952 -0.6108
  879SOL    HW1 2636   2.711   1.496   1.317 -2.7786  0.5197  0.7068
  879SOL    HW2 2637   2.733   1.449   1.479  0.2493  1.7696 -0.0322
  880SOL     OW 2638   1.391   2.734   1.348  0.3202  0.3870 -0.3402
  880SOL    HW1 2639   1.419   2.777   1.260  1.7296  0.4968 -1.6146
  880SOL    HW2 2640   1.433   2.789   1.424 -2.2007 -0.6757 -1.2762
  881SOL     OW 2641   1.054   2.400   0.274 -0.1868  0.0756 -0.2889
  881SOL    HW1 2642   0.967   2.344   0.279  2.8052 -1.0771  4.8027
  881SOL    HW2 2643   1.089   2.410   0.370  0.1838  1.1225 -0.5318
  882SOL     OW 2644   1.748   0.788   1.423 -0.5227 -0.0934 -0.0787
  882SOL    HW1 2645   1.737   0.766   1.522 -1.2722  0.7826  1.4782
  882SOL    HW2 2646   1.660   0.784   1.373 -0.5971  4.0466 -3.4122
  883SOL     OW 2647   1.201   0.119   2.342  0.3024 -0.0419  0.2817
  883SOL    HW1 2648   1.218   0.146   2.441 -0.3661 -0.8284 -0.8116
  883SOL    HW2 2649   1.104   0.099   2.322  0.6336  0.5529  2.0749
  884SOL     OW 2650   2.998   0.555   0.180  0.0348 -0.0963 -0.1922
  884SOL    HW1 2651   3.002   0.585   0.281 -0.3628  0.6211  2.8714
  884SOL    HW2 2652   2.925   0.602   0.129  0.6086 -2.2010  4.4172
  885SOL     OW 2653   0.799   1.295   3.051 -0.4726 -0.8133 -0.6423
  885SOL    HW1 2654   0.768   1.393   3.045 -1.7005 -0.7365  0.2025
  885SOL    HW2 2655   0.888   1.288   0.005  0.0780  0.7571  0.1297
  886SOL     OW 2656   1.582   1.576   2.800 -0.0463 -0.1025  0.3045
  886SOL    HW1 2657   1.499   1.607   2.754  0.8897 -4.5950  2.2653
  886SOL    HW2 2658   1.662   1.566   2.731  5.8700 -0.8763 -2.2921
  887SOL     OW 2659   1.254   0.645   1.706 -0.7064  0.0691  0.0141
  887SOL    HW1 2660   1.235   0.672   1.610  0.4655 -0.0549 -1.9369
  887SOL    HW2 2661   1.267   0.541   1.713 -0.8947 -2.2375  3.3430
  888SOL     OW 2662   2.905   0.505   1.902  0.2851  0.6268 -0.0688
  888SOL    HW1 2663   2.888   0.604   1.904  2.0196 -3.7020 -0.2063
  888SOL    HW2 2664   2.887   0.472   1.809 -4.4157  0.8964  1.0659
  889SOL     OW 2665   0.023   2.712   0.781 -0.2231  0.1537 -0.1236
  889SOL    HW1 2666   3.037   2.762   0.732  2.7920 -2.1688  0.7797
  889SOL    HW2 2667   0.111   2.721   0.735 -2.8361 -0.9078 -0.3325
  890SOL     OW 2668   2.938   2.672   0.077 -0.0633 -0.6728  0.7992
  890SOL    HW1 2669   3.015   2.726   0.105 -2.0164 -2.1010 -0.9948
  890SOL    HW2 2670   2.873   2.670   0.155 -0.4244  0.2938 -0.7541
  891SOL     OW 2671   0.906   1.639   2.921 -0.1093  0.1086  0.3092
  891SOL    HW1 2672   1.006   1.661   2.934  1.3968 -1.7319 -1.2560
  891SOL    HW2 2673   0.860   1.695   2.849 -1.5750  0.3387  0.0752
  892SOL     OW 2674   2.935   2.962   0.855 -0.0872  0.1485 -0.3321
  892SOL    HW1 2675   2.929   2.940   0.755  0.9003  0.6522  0.5167
  892SOL    HW2 2676   2.858   2.931   0.908 -0.3726 -0.5627  0.5892
  893SOL     OW 2677   0.675   3.036   1.028 -0.7164 -0.2214  0.2215
  893SOL    HW1 2678   0.675   2.977   1.114  0.3375  0.9567  0.7650
  893SOL    HW2 2679   0.755   0.009   1.027  0.3901  0.5323  2.1265
  894SOL     OW 2680   2.989   1.019   0.766 -0.8592  0.5451  1.0863
  894SOL    HW1 2681   2.909   0.971   0.804 -2.7899  1.4482  0.0933
  894SOL    HW2 2682   2.992   1.118   0.782 -0.7184 -2.2947 -0.9184
  895SOL     OW 2683   2.565   2.738   1.797  0.1487  0.1764 -0.3108
  895SOL    HW1 2684   2.509   2.789   1.862  1.0909 -0.7240 -1.6648
  895SOL    HW2 2685   2.643   2.797   1.769 -3.3752 -1.4935 -3.0068
  896SOL     OW 2686   1.101   0.262   1.494  0.1091 -0.0543  0.3372
  896SOL    HW1 2687   1.171   0.258   1.422  1.8479  0.9589  0.2270
  896SOL    HW2 2688   1.145   0.231   1.583  1.0262 -1.1845 -0.3079
  897SOL     OW 2689   0.918   1.625   1.719 -0.1466  0.2594  0.5678
  897SOL    HW1 2690   0.979   1.614   1.637  0.4357 -1.5237  1.4952
  897SOL    HW2 2691   0.847   1.700   1.703  0.3207  2.5732  0.4147
  898SOL     OW 2692   1.773   2.662   1.872 -0.1686  0.2057 -0.0780
  898SOL    HW1 2693   1.730   2.615   1.786 -1.6955  2.3861 -1.2255
  898SOL    HW2 2694   1.795   2.761   1.846 -0.3959  1.9128  0.8368
  899SOL     OW 2695   0.812   0.495   0.817  0.5465  0.2107  0.1350
  899SOL    HW1 2696   0.781   0.569   0.881 -1.1425 -0.9104  0.9116
  899SOL    HW2 2697   0.775   0.510   0.722 -0.6477 -4.7156 -4.2523
  900SOL     OW 2698   1.864   2.477   2.268  0.1260  0.4982 -0.3969
  900SOL    HW1 2699   1.772   2.523   2.292 -3.5998  0.1010  0.8159
  900SOL    HW2 2700   1.884   2.416   2.346  0.6599  0.6227  0.9081
  901SOL     OW 2701   0.879   2.243   2.702 -0.1749 -0.2707  0.1076
  901SOL    HW1 2702   0.980   2.248   2.691 -0.5146  0.4610 -1.9479
  901SOL    HW2 2703   0.847   2.304   2.776 -0.7245  0.7804  0.0341
  902SOL     OW 2704   2.097   0.859   0.707 -0.1542  0.2333 -0.0603
  902SOL    HW1 2705   2.030   0.902   0.648  0.9869 -0.4209  2.4070
  902SOL    HW2 2706   2.165   0.923   0.747 -0.9791 -0.2001  0.5183
  903SOL     OW 2707   2.009   0.642   0.592 -0.0827  0.0616 -0.6652
  903SOL    HW1 2708   2.008   0.677   0.496  1.1913  1.3354 -1.9944
  903SOL    HW2 2709   2.021   0.728   0.652 -0.2990  0.7164 -0.7665
  904SOL     OW 2710   0.756   0.912   2.937 -0.2495  0.1685  0.0331
  904SOL    HW1 2711   0.833   0.956   2.981 -2.6835 -2.5318  0.3643
  904SOL    HW2 2712   0.801   0.845   2.871  0.4335 -1.4382 -1.2904
  905SOL     OW 2713   2.192   0.196   0.761 -0.2392  0.6073 -0.8166
  905SOL    HW1 2714   2.259   0.116   0.769  1.2390 -0.5229  1.2355
  905SOL    HW2 2715   2.189   0.265   0.838  1.3763 -0.4566 -0.0011
  906SOL     OW 2716   2.989   2.095   1.288 -0.3873 -0.5764 -0.1859
  906SOL    HW1 2717   3.058   2.102   1.359 -1.7533  1.0544 -2.8709
  906SOL    HW2 2718   2.897   2.121   1.328 -0.9147 -1.7730  3.7332
  907SOL     OW 2719   0.999   0.635   3.011 -0.3962 -0.1398  0.1443
  907SOL    HW1 2720   0.928   0.652   3.084 -0.1561  0.7094 -0.5016
  907SOL    HW2 2721   1.086   0.681   3.040  1.8958  0.5102  0.2187
  908SOL     OW 2722   2.316   2.684   0.967  0.0671  0.4271 -0.5029
  908SOL    HW1 2723   2.343   2.697   1.068  0.8644 -2.1654  1.3395
  908SOL    HW2 2724   2.356   2.764   0.917  0.1486  0.3724  0.0777
  909SOL     OW 2725   2.300   0.969   1.420 -0.0201 -0.2820  0.2676
  909SOL    HW1 2726   2.248   0.881   1.406 -1.3244  2.3140  0.4992
  909SOL    HW2 2727   2.353   0.998   1.338  3.3046 -0.8235 -0.8581
  910SOL     OW 2728   1.370   2.874   1.983  0.0019  0.6626  0.1619
  910SOL    HW1 2729   1.309   2.915   2.053  1.7038  0.5571 -1.2735
  910SOL    HW2 2730   1.400   2.780   2.007 -0.3369  0.2055  2.5133
  911SOL     OW 2731   2.913   0.486   2.218 -0.1283 -0.2209 -0.0705
  911SOL    HW1 2732   2.920   0.505   2.118 -0.6753  1.4599 -0.3534
  911SOL    HW2 2733   2.850   0.412   2.249 -1.8478  2.3460 -1.1809
  912SOL     OW 2734   0.198   1.110   1.453 -0.0610  0.0437 -0.0561
  912SOL    HW1 2735   0.238   1.194   1.419  2.2228 -1.1103 -0.0102
  912SOL    HW2 2736   0.097   1.114   1.463 -2.2268  0.5934  0.0292
  913SOL     OW 2737   2.687   2.139   1.673 -0.3304 -0.1819 -0.3540
  913SOL    HW1 2738   2.784   2.149   1.707  0.9727 -0.9476 -1.3492
  913SOL    HW2 2739   2.685   2.079   1.595 -0.0434  0.6444  2.5064
  914SOL     OW 2740   1.528   0.736   1.245 -0.0361  0.0187  0.0031
  914SOL    HW1 2741   1.470   0.655   1.232  0.7142  0.5051  2.0280
  914SOL    HW2 2742   1.476   0.805   1.298 -0.7517  1.5802  0.5901
  915SOL     OW 2743   1.644   0.347   1.369 -0.2598  0.5107  0.6242
  915SOL    HW1 2744   1.636   0.397   1.461 -1.7551 -0.6781  2.5653
  915SOL    HW2 2745   1.702   0.394   1.305 -1.8372 -2.7325  1.9783
  916SOL     OW 2746   2.644   2.499   1.463  0.2920  0.1855  0.0056
  916SOL    HW1 2747   2.621   2.448   1.376  0.2858  1.9643 -0.1702
  916SOL    HW2 2748   2.627   2.443   1.546  1.9117 -0.4237 -2.5971
  917SOL     OW 2749   2.473   2.049   0.288  0.3213  0.1504  0.1846
  917SOL    HW1 2750   2.443   2.110   0.209 -1.4337  1.1747 -0.4886
  917SOL    HW2 2751   2.416   2.071   0.372 -4.3337  2.1704 -2.7701
  918SOL     OW 2752   1.883   2.746   2.626  0.4130  0.1412 -0.1834
  918SOL    HW1 2753   1.986   2.761   2.616  2.8967 -1.0504 -0.4505
  918SOL    HW2 2754   1.858   2.655   2.661  3.0088  1.4955  0.3323
  919SOL     OW 2755   1.187   2.456   1.540  0.1244  0.3613 -0.3196
  919SOL    HW1 2756   1.206   2.414   1.633 -1.3318  0.5307  1.2102
  919SOL    HW2 2757   1.214   2.392   1.460 -0.5321 -0.6807  0.3621
  920SOL     OW 2758   2.881   0.050   2.292 -0.3872 -0.3000 -0.0225
  920SOL    HW1 2759   2.880   0.082   2.388 -0.6438  0.3199 -1.5810
  920SOL    HW2 2760   2.964   0.074   2.239 -0.7704  1.8112 -0.8802
  921SOL     OW 2761   0.044   0.781   1.650  0.3314  0.2611 -0.2256
  921SOL    HW1 2762   0.044   0.856   1.721 -0.5006  1.1170  0.5505
  921SOL    HW2 2763   0.092   0.693   1.680  1.7873 -0.5807  0.1801
  922SOL     OW 2764   2.198   2.079   0.530 -0.1471 -0.2687  0.0882
  922SOL    HW1 2765   2.217   1.977   0.525  0.4274 -0.7253 -2.5465
  922SOL    HW2 2766   2.097   2.093   0.524 -1.9392 -2.2679  1.2659
  923SOL     OW 2767   0.812   1.909   0.076  0.2679  0.5228 -0.4762
  923SOL    HW1 2768   0.760   1.883   3.088  2.8666  0.0737  1.3515
  923SOL    HW2 2769   0.824   2.011   0.080 -0.9244  1.8294  2.0081
  924SOL     OW 2770   0.839   0.332   0.430  0.1323  0.0038  0.0172
  924SOL    HW1 2771   0.826   0.238   0.387 -1.0489 -0.6481  0.4359
  924SOL    HW2 2772   0.926   0.379   0.406 -0.7545 -1.1481 -1.1411
  925SOL     OW 2773   2.446   0.425   0.722 -0.4168  0.3188  0.2037
  925SOL    HW1 2774   2.347   0.429   0.734  2.1142  0.6454 -0.3172
  925SOL    HW2 2775   2.463   0.345   0.663  0.1209 -0.7619  1.5538
  926SOL     OW 2776   0.312   0.512   1.120 -0.4612  1.0054  0.2927
  926SOL    HW1 2777   0.296   0.504   1.019 -0.2975  1.2271 -1.9323
  926SOL    HW2 2778   0.295   0.425   1.167  0.5690  1.3828 -1.5791
  927SOL     OW 2779   0.104   1.387   2.498  0.2478 -0.0476  0.2735
  927SOL    HW1 2780   0.065   1.436   2.420 -0.6531 -0.6227  0.9099
  927SOL    HW2 2781   0.026   1.344   2.550 -1.1988  1.5908  1.2745
  928SOL     OW 2782   2.858   0.874   2.885  0.5914  0.2855 -0.1147
  928SOL    HW1 2783   2.825   0.812   2.962  0.0090  1.6323 -2.4629
  928SOL    HW2 2784   2.947   0.840   2.851  0.8826  0.1127 -0.1845
  929SOL     OW 2785   2.604   0.092   1.381  0.0751  0.0249  0.2052
  929SOL    HW1 2786   2.583   0.154   1.457 -0.2188  2.8071 -1.0964
  929SOL    HW2 2787   2.543   0.015   1.386 -0.1204  0.3281 -1.9416
  930SOL     OW 2788   1.904   1.149   1.673  0.3399  0.0242  0.1742
  930SOL    HW1 2789   1.817   1.109   1.710  0.1034  2.0092  0.4914
  930SOL    HW2 2790   1.930   1.095   1.589 -0.9985 -1.5125 -1.9475
  931SOL     OW 2791   1.956   0.991   0.500  0.3482 -0.5023  0.1758
  931SOL    HW1 2792   1.968   1.023   0.406  0.6031 -0.5335  0.4115
  931SOL    HW2 2793   1.942   1.070   0.563  0.9280 -2.2784 -2.6937
  932SOL     OW 2794   2.649   1.232   0.890 -0.3248 -0.5789 -0.2691
  932SOL    HW1 2795   2.617   1.146   0.847 -1.2116  2.3659  1.6759
  932SOL    HW2 2796   2.717   1.224   0.970 -0.0920 -0.7727  1.3383
  933SOL     OW 2797   2.575   1.736   1.229 -0.7543 -1.0142  0.0858
  933SOL    HW1 2798   2.589   1.829   1.254 -0.9196  3.1535  1.6371
  933SOL    HW2 2799   2.481   1.723   1.196  3.2014 -0.3091  0.7400
  934SOL     OW 2800   1.785   0.377   2.273  0.1120  0.5896 -0.8710
  934SOL    HW1 2801   1.730   0.369   2.356  1.9655 -1.0928 -1.6221
  934SOL    HW2 2802   1.874   0.420   2.285  1.3861 -0.8585 -0.5881
  935SOL     OW 2803   0.238   1.651   0.818  0.1884  0.3199 -0.5108
  935SOL    HW1 2804   0.150   1.639   0.772  2.3122 -0.4434  2.2560
  935SOL    HW2 2805   0.260   1.741   0.855  1.0871  0.1797 -0.4930
  936SOL     OW 2806   0.355   0.835   0.597  0.1242  0.3159  0.1715
  936SOL    HW1 2807   0.388   0.823   0.499  0.5932  0.1509 -2.4480
  936SOL    HW2 2808   0.333   0.935   0.613 -0.2660  2.1538  1.1319
  937SOL     OW 2809   2.431   2.999   1.141  0.2251  0.3653 -0.5539
  937SOL    HW1 2810   2.497   2.936   1.102 -0.8208  1.3725  2.5081
  937SOL    HW2 2811   2.437   2.977   1.240 -0.0763 -1.4195  1.5296
  938SOL     OW 2812   2.672   2.331   0.486 -0.6866 -0.6094  0.1381
  938SOL    HW1 2813   2.722   2.408   0.530 -0.5052  2.8051  0.5800
  938SOL    HW2 2814   2.592   2.360   0.437 -0.8910  2.4167  1.3144
  939SOL     OW 2815   0.999   2.016   0.457 -0.0612  0.3270 -0.1833
  939SOL    HW1 2816   0.926   1.965   0.409  0.8197  0.1763 -1.1466
  939SOL    HW2 2817   1.007   1.999   0.557  3.2800 -0.2551 -1.9913
  940SOL     OW 2818   2.918   0.381   2.834  0.4334  0.0768 -0.2430
  940SOL    HW1 2819   2.955   0.291   2.868  0.9449 -0.5758 -1.4668
  940SOL    HW2 2820   2.869   0.362   2.747  0.3540 -3.2014 -0.1293
  941SOL     OW 2821   1.179   0.232   3.030  0.0342  0.3405  0.2089
  941SOL    HW1 2822   1.234   0.158   2.981 -1.7812  0.7572 -0.1569
  941SOL    HW2 2823   1.164   0.208   0.035  0.2977  1.2549  0.1053
  942SOL     OW 2824   1.115   1.057   1.286 -0.1895  0.6586 -0.4506
  942SOL    HW1 2825   1.082   1.091   1.374 -0.9660  0.5580 -3.6133
  942SOL    HW2 2826   1.040   1.072   1.221  2.8054  1.5668  1.3876
  943SOL     OW 2827   1.450   0.976   1.959  0.1092  0.0331 -0.5846
  943SOL    HW1 2828   1.469   0.942   1.869 -1.8150  1.1896  1.3500
  943SOL    HW2 2829   1.358   0.941   1.994 -0.0090 -0.5954  2.6282
  944SOL     OW 2830   1.670   1.075   1.795  0.7898  0.0647  0.2528
  944SOL    HW1 2831   1.575   1.115   1.776 -0.7043 -0.9559  0.1254
  944SOL    HW2 2832   1.698   1.076   1.895  3.7657 -2.3490  2.2520
  945SOL     OW 2833   2.849   3.038   0.239 -0.0997 -0.6696 -0.0159
  945SOL    HW1 2834   2.942   2.996   0.249  1.7118  1.6101  1.6877
  945SOL    HW2 2835   2.843   0.042   0.277 -2.5619  2.9171  2.3098
  946SOL     OW 2836   2.852   0.785   1.918  0.0741 -0.8868 -0.0924
  946SOL    HW1 2837   2.907   0.833   1.990 -0.8966 -2.7509  0.3161
  946SOL    HW2 2838   2.837   0.851   1.840  0.5140  0.8153  1.9411
  947SOL     OW 2839   0.472   2.748   0.349 -0.4027  0.0951 -0.6998
  947SOL    HW1 2840   0.552   2.769   0.409 -0.6152 -1.7641 -0.8696
  947SOL    HW2 2841   0.450   2.835   0.301 -2.2021 -0.4766  0.4672
  948SOL     OW 2842   2.393   1.199   1.504 -0.9741 -0.0539 -0.5237
  948SOL    HW1 2843   2.330   1.252   1.563  0.2131  0.1484 -1.1393
  948SOL    HW2 2844   2.361   1.104   1.487 -0.0550  0.0917  1.6025
  949SOL     OW 2845   0.659   0.972   2.394  0.1489 -0.2722  0.0794
  949SOL    HW1 2846   0.697   0.981   2.302  3.0016  0.0160  2.3601
  949SOL    HW2 2847   0.574   0.920   2.389  0.7326  2.5953 -1.4403
  950SOL     OW 2848   0.451   3.030   0.859  0.1034  0.0328  0.3541
  950SOL    HW1 2849   0.540   3.032   0.913  0.2220 -1.8219  0.6053
  950SOL    HW2 2850   0.457   2.960   0.786  1.3310  0.4342 -0.0219
  951SOL     OW 2851   0.866   1.309   2.351  0.2805 -0.2489  0.4408
  951SOL    HW1 2852   0.908   1.298   2.259 -1.2190  0.3264 -0.1086
  951SOL    HW2 2853   0.923   1.255   2.418 -1.4574  0.2382  0.0995
  952SOL     OW 2854   0.720   1.552   0.031 -0.3766  0.0897  0.3301
  952SOL    HW1 2855   0.802   1.590   3.069 -1.2891 -0.8593 -0.3948
  952SOL    HW2 2856   0.742   1.551   0.132 -3.0735  0.7527  0.1606
  953SOL     OW 2857   2.532   0.343   2.453  0.2675  0.2245  0.2668
  953SOL    HW1 2858   2.492   0.432   2.479  3.1803 -2.2974  1.0804
  953SOL    HW2 2859   2.461   0.263   2.459 -0.7753  0.5582  0.7071
  954SOL     OW 2860   1.579   1.071   0.873 -0.5090 -0.3199 -0.0614
  954SOL    HW1 2861   1.637   0.988   0.867 -1.4834  3.0824  0.7816
  954SOL    HW2 2862   1.637   1.159   0.881 -0.4174  0.9452  1.2238
  955SOL     OW 2863   0.438   2.046   2.660  0.1817  0.0916  0.1422
  955SOL    HW1 2864   0.450   1.966   2.720 -0.7468 -0.9235 -0.4884
  955SOL    HW2 2865   0.456   2.132   2.707 -0.7991 -1.2728 -0.2496
  956SOL     OW 2866   1.626   0.469   2.087 -0.2557  0.0229  0.8807
  956SOL    HW1 2867   1.688   0.436   2.161  0.6926 -2.5785 -1.1440
  956SOL    HW2 2868   1.616   0.569   2.075 -0.2078 -0.8414  1.0779
  957SOL     OW 2869   2.075   2.079   2.720  0.5165  0.5158  0.1080
  957SOL    HW1 2870   2.163   2.033   2.691 -2.1179  1.5880 -0.2884
  957SOL    HW2 2871   1.993   2.023   2.698  2.1333  1.5579  1.3669
  958SOL     OW 2872   1.251   1.856   1.384 -1.0351  0.0986 -0.8771
  958SOL    HW1 2873   1.286   1.764   1.415  0.4778 -1.6692 -0.6877
  958SOL    HW2 2874   1.242   1.860   1.287 -0.4684 -0.1888  4.1068
  959SOL     OW 2875   2.308   2.214   2.891  0.2941 -0.0560 -0.1331
  959SOL    HW1 2876   2.368   2.141   2.857  1.9513  1.0787  1.5068
  959SOL    HW2 2877   2.215   2.183   2.921 -1.3480  0.7665 -1.7706
  960SOL     OW 2878   3.083   0.831   2.536 -0.0749  0.0816 -0.2849
  960SOL    HW1 2879   3.079   0.808   2.636  0.0018 -0.6743 -0.3790
  960SOL    HW2 2880   3.021   0.902   2.505  1.1995 -0.2692  0.3447
  961SOL     OW 2881   0.907   0.934   2.511 -0.2645 -0.0680 -0.2816
  961SOL    HW1 2882   0.815   0.941   2.470  4.1069  0.5452 -0.9972
  961SOL    HW2 2883   0.904   0.889   2.603 -3.0438  1.5831 -0.9915
  962SOL     OW 2884   0.892   1.298   2.760 -0.4740  0.2433 -0.3440
  962SOL    HW1 2885   0.873   1.286   2.860 -0.9626 -1.5713  0.9227
  962SOL    HW2 2886   0.799   1.319   2.719 -0.8017 -1.1069  0.1352
  963SOL     OW 2887   2.502   2.476   0.350  0.0887  0.5961 -0.1699
  963SOL    HW1 2888   2.509   2.576   0.348  1.4199  0.4714 -2.2356
  963SOL    HW2 2889   2.406   2.448   0.367 -1.2033  0.0747  0.5394
  964SOL     OW 2890   0.952   2.543   1.475  0.0956  0.5129 -0.1499
  964SOL    HW1 2891   1.038   2.502   1.509 -3.1307 -0.4098  0.9827
  964SOL    HW2 2892   0.965   2.632   1.429  1.4281 -2.6164  0.1248
  965SOL     OW 2893   1.549   1.370   0.418 -0.2647  0.1141 -0.1825
  965SOL    HW1 2894   1.648   1.391   0.416 -1.8952  1.0715  1.8090
  965SOL    HW2 2895   1.521   1.338   0.509 -0.3791  0.9814 -2.0218
  966SOL     OW 2896   0.082   1.739   0.335  0.7746 -0.0136  0.2609
  966SOL    HW1 2897   0.178   1.721   0.317  0.1338  0.3983 -1.0032
  966SOL    HW2 2898   0.033   1.649   0.359 -0.5741 -0.2444  1.1533
  967SOL     OW 2899   1.845   0.224   2.061 -0.4970  0.7781 -0.1007
  967SOL    HW1 2900   1.946   0.236   2.065 -0.5287 -1.3532 -0.2984
  967SOL    HW2 2901   1.796   0.258   2.145 -2.1801 -0.4930  1.9115
  968SOL     OW 2902   1.676   0.533   0.725 -0.3302  0.4824  0.0345
  968SOL    HW1 2903   1.688   0.622   0.674 -0.3994  1.9511 -0.4782
  968SOL    HW2 2904   1.637   0.544   0.814  0.6634  1.1179 -2.0415
  969SOL     OW 2905   0.287   1.194   2.448  0.2731 -0.1325 -0.3212
  969SOL    HW1 2906   0.319   1.251   2.369  0.6055 -0.1023  2.0307
  969SOL    HW2 2907   0.220   1.249   2.504 -0.5794  0.4228  2.3023
  970SOL     OW 2908   2.461   1.417   1.345 -0.2030  0.5658 -0.2891
  970SOL    HW1 2909   2.463   1.320   1.379  0.2693 -4.5398  0.1045
  970SOL    HW2 2910   2.456   1.425   1.244 -1.6565  0.6991  1.3045
  971SOL     OW 2911   0.055   2.918   1.058 -0.4035  0.3433  0.0633
  971SOL    HW1 2912   0.044   2.814   1.064 -0.2235 -0.3451  0.4897
  971SOL    HW2 2913   0.040   2.948   0.965 -1.8987  1.7552 -1.2760
  972SOL     OW 2914   0.433   0.829   2.439 -0.1057  0.0529  0.2628
  972SOL    HW1 2915   0.452   0.845   2.540  0.3429 -0.7229  0.0092
  972SOL    HW2 2916   0.332   0.840   2.412 -1.0331  1.0773  1.7668
  973SOL     OW 2917   0.327   0.199   0.875  0.0159  0.3197 -0.8740
  973SOL    HW1 2918   0.232   0.177   0.906  2.4716  0.2302  1.1666
  973SOL    HW2 2919   0.374   0.112   0.852 -2.2596  0.8626 -1.7486
  974SOL     OW 2920   2.108   0.574   1.562 -0.1725 -0.3276  0.0844
  974SOL    HW1 2921   2.079   0.650   1.628 -2.8417  0.6254 -1.2238
  974SOL    HW2 2922   2.150   0.504   1.625 -2.8751  1.3006  2.2501
  975SOL     OW 2923   2.733   2.991   3.087  0.1742 -0.1286  0.3538
  975SOL    HW1 2924   2.735   2.986   0.099 -0.4752  0.5502 -0.3086
  975SOL    HW2 2925   2.702   2.901   3.050 -0.9747 -0.9222  1.8936
  976SOL     OW 2926   0.413   1.406   1.165 -0.1320 -0.2350  0.6596
  976SOL    HW1 2927   0.373   1.378   1.255 -0.7826  0.3612 -3.2657
  976SOL    HW2 2928   0.467   1.489   1.175 -0.1766 -1.9593  1.9415
  977SOL     OW 2929   1.271   2.200   0.711 -0.1485  0.0226 -0.1194
  977SOL    HW1 2930   1.267   2.112   0.658 -1.0635  0.0956  1.4332
  977SOL    HW2 2931   1.325   2.273   0.665  0.1212 -0.0338  0.3850
  978SOL     OW 2932   0.332   1.045   3.086 -0.2378 -0.2421  0.2362
  978SOL    HW1 2933   0.359   1.011   0.087  0.2681  0.6339 -0.9150
  978SOL    HW2 2934   0.413   1.081   3.036 -1.0137  1.2325  0.4586
  979SOL     OW 2935   2.269   1.680   0.788 -0.2931  0.7451  0.2657
  979SOL    HW1 2936   2.249   1.600   0.731 -1.3765  2.1286  1.9228
  979SOL    HW2 2937   2.358   1.675   0.837  1.9126  2.4239 -1.1828
  980SOL     OW 2938   0.550   1.662   1.842 -0.4287 -0.3183  0.0396
  980SOL    HW1 2939   0.532   1.591   1.767 -0.4592  0.9677 -0.9817
  980SOL    HW2 2940   0.601   1.627   1.922  0.0546  1.1621  0.1010
  981SOL     OW 2941   2.811   1.365   0.002  0.0412  0.3886  0.2256
  981SOL    HW1 2942   2.857   1.278   3.072 -1.7744  3.8495 -2.3435
  981SOL    HW2 2943   2.877   1.437   0.033 -0.3401 -1.7809 -1.4309
  982SOL     OW 2944   2.467   2.964   1.992  0.0289 -0.8206 -0.1088
  982SOL    HW1 2945   2.471   3.052   1.942 -2.9522  0.0945 -0.3093
  982SOL    HW2 2946   2.539   2.971   2.063  1.0229  2.5411  0.8632
  983SOL     OW 2947   1.236   0.217   1.023 -0.2939 -0.1821 -0.5371
  983SOL    HW1 2948   1.234   0.238   1.124 -0.3202 -1.9557  1.2977
  983SOL    HW2 2949   1.166   0.270   0.975  0.8054  1.8441  0.8419
  984SOL     OW 2950   1.145   2.710   3.076  0.0866 -0.2988  0.3640
  984SOL    HW1 2951   1.078   2.778   3.040 -3.1685  0.7863 -1.6727
  984SOL    HW2 2952   1.232   2.724   3.026 -0.0109  0.0337 -0.1186
  985SOL     OW 2953   1.739   2.025   1.599 -0.3383 -0.2029 -0.4280
  985SOL    HW1 2954   1.655   2.058   1.645 -0.5994  0.9339  0.7382
  985SOL    HW2 2955   1.734   1.924   1.589  0.3821  0.3178  2.1014
  986SOL     OW 2956   2.126   3.047   2.769  0.0151 -0.1050  0.1616
  986SOL    HW1 2957   2.131   2.953   2.727 -2.9261 -1.9016 -1.1374
  986SOL    HW2 2958   2.218   3.085   2.770 -0.4522  0.5169  1.0421
  987SOL     OW 2959   2.632   1.176   2.067 -0.6247  0.3017 -0.0178
  987SOL    HW1 2960   2.622   1.072   2.062 -0.7125  0.9661  2.4808
  987SOL    HW2 2961   2.581   1.209   2.147  0.7175 -0.4635 -1.3515
  988SOL     OW 2962   2.382   0.756   2.395  0.3556 -0.6074  0.4388
  988SOL    HW1 2963   2.482   0.740   2.415  1.6119 -1.6015  0.3563
  988SOL    HW2 2964   2.368   0.753   2.297  0.5079 -0.8281 -0.4398
  989SOL     OW 2965   1.698   1.393   2.048  0.5238 -0.1962  0.1062
  989SOL    HW1 2966   1.628   1.318   2.053 -1.5934 -1.4086  0.3621
  989SOL    HW2 2967   1.784   1.364   2.005 -1.0549  2.3010 -0.5084
  990SOL     OW 2968   0.097   1.228   0.335  0.3252 -0.2263 -0.1806
  990SOL    HW1 2969   0.039   1.151   0.380 -3.0170 -1.1054 -1.3047
  990SOL    HW2 2970   0.094   1.209   0.232 -0.3736 -2.1810 -2.5833
  991SOL     OW 2971   0.264   1.731   2.709  0.0893  0.3486  0.2100
  991SOL    HW1 2972   0.288   1.632   2.689 -0.5783 -0.8348  0.9714
  991SOL    HW2 2973   0.340   1.767   2.762  1.1106 -0.7947  2.3153
  992SOL     OW 2974   2.694   1.807   1.996 -0.2737 -0.0799 -0.1652
  992SOL    HW1 2975   2.722   1.906   1.978 -0.1118 -0.6611 -0.1102
  992SOL    HW2 2976   2.596   1.800   1.990  4.6136 -1.1393  0.2648
  993SOL     OW 2977   0.108   2.885   0.517 -0.1589  0.4083  0.1077
  993SOL    HW1 2978   0.171   2.965   0.526  2.5437  0.9460 -0.1561
  993SOL    HW2 2979   0.160   2.803   0.485 -0.2247 -2.3239 -0.7474
  994SOL     OW 2980   0.100   1.801   1.526 -0.3540 -0.0417 -0.2253
  994SOL    HW1 2981   0.096   1.748   1.612  0.7870 -0.4928 -1.5777
  994SOL    HW2 2982   0.197   1.828   1.505  0.4336 -2.0496 -0.3592
  995SOL     OW 2983   2.137   1.725   2.636 -0.4714 -0.2549 -0.5193
  995SOL    HW1 2984   2.216   1.788   2.633 -0.9717  2.5718  2.6509
  995SOL    HW2 2985   2.158   1.643   2.687  1.1659  1.8177 -2.7647
  996SOL     OW 2986   1.924   1.509   3.005 -0.1619  0.5452 -0.2701
  996SOL    HW1 2987   1.824   1.508   3.027 -1.2757 -2.0352  2.2606
  996SOL    HW2 2988   1.955   1.600   2.976 -0.0033 -2.6514  2.0794
  997SOL     OW 2989   1.467   1.277   1.622  0.2298  0.2826  0.3172
  997SOL    HW1 2990   1.477   1.236   1.528  0.5269 -0.3778 -1.5807
  997SOL    HW2 2991   1.369   1.294   1.646  0.2691  2.2583 -0.9263
  998SOL     OW 2992   2.699   2.107   1.222 -0.2049 -0.0935  0.0674
  998SOL    HW1 2993   2.639   2.185   1.206 -1.3850 -1.6870  1.5640
  998SOL    HW2 2994   2.732   2.070   1.135 -0.9287  1.0957 -0.5660
  999SOL     OW 2995   2.057   2.384   0.257 -0.0016  0.2464 -0.5034
  999SOL    HW1 2996   1.982   2.452   0.272 -1.7334 -0.6806  1.0480
  999SOL    HW2 2997   2.134   2.423   0.204 -0.8261 -1.0862 -1.2912
 1000SOL     OW 2998   0.723   2.946   0.053 -0.2844  0.5510 -0.0152
 1000SOL    HW1 2999   0.814   2.992   0.059 -0.7859 -0.7610  1.1577
 1000SOL    HW2 3000   0.644   3.008   0.026 -2.8193 -1.9432 -1.9091
   3.09114   3.09114   3.09114
