1000 SPC/Fw water molecules t= 188.00000 step= 188000
 3000
    1SOL     OW    1   2.715   3.016   1.150 -0.2704 -0.4914  0.1176
    1SOL    HW1    2   2.660   3.103   1.154 -1.2998  0.1975 -0.5381
    1SOL    HW2    3   2.774   3.022   1.066  0.8674  0.2371  1.1212
    2SOL     OW    4   1.817   1.608   1.974 -0.1922  0.0929 -0.1036
    2SOL    HW1    5   1.853   1.588   2.072  0.8337  0.8443  1.4002
    2SOL    HW2    6   1.789   1.702   1.961  0.3369 -0.4346 -1.4066
    3SOL     OW    7   1.892   2.406   2.131 -0.8141  0.0797  0.3802
    3SOL    HW1    8   1.950   2.484   2.110  4.1856  1.0846  0.3643
    3SOL    HW2    9   1.942   2.336   2.181  1.4528  1.5350  0.1359
    4SOL     OW   10   1.890   2.057   2.092  0.5275 -0.0961  0.2028
    4SOL    HW1   11   1.963   2.109   2.141 -1.6606  3.0736  1.2822
    4SOL    HW2   12   1.908   2.073   1.992 -2.0880 -0.6886 -1.7738
    5SOL     OW   13   1.138   0.611   1.908 -0.2967  0.1586  0.0822
    5SOL    HW1   14   1.194   0.693   1.932  1.9169  0.9660 -0.0082
    5SOL    HW2   15   1.055   0.644   1.856 -0.3303  0.0142 -2.5636
    6SOL     OW   16   2.693   0.678   3.023  0.3274  0.4191 -0.0341
    6SOL    HW1   17   2.761   0.630   3.085 -0.2065  1.5893  1.1598
    6SOL    HW2   18   2.602   0.676   3.072  0.9225 -1.2903  1.8117
    7SOL     OW   19   1.099   0.859   1.652 -0.4782  1.0820 -0.5723
    7SOL    HW1   20   1.077   0.774   1.606 -0.4479  0.9808 -0.7818
    7SOL    HW2   21   1.133   0.925   1.586  1.3027 -3.9361  0.4711
    8SOL     OW   22   1.358   0.082   1.028  0.4048  0.2137  0.2643
    8SOL    HW1   23   1.377   0.119   0.936  2.1654 -0.8397 -0.5513
    8SOL    HW2   24   1.314   0.156   1.079  1.1420 -0.5138 -0.7045
    9SOL     OW   25   0.908   0.985   2.884 -0.0634 -0.2981  0.1345
    9SOL    HW1   26   0.928   1.078   2.906  1.9396  0.0429  0.6728
    9SOL    HW2   27   0.895   0.933   2.974  0.2389  1.6596  0.3018
   10SOL     OW   28   0.222   2.864   0.457 -0.2271 -0.0094 -0.3915
   10SOL    HW1   29   0.124   2.864   0.461  1.5077 -1.3852 -2.4720
   10SOL    HW2   30   0.257   2.806   0.378  3.6106 -1.1849 -1.1281
   11SOL     OW   31   0.595   1.574   3.062 -0.2222  0.3183 -0.1628
   11SOL    HW1   32   0.572   1.514   2.984 -0.2892  5.6044  2.5473
   11SOL    HW2   33   0.511   1.628   3.082 -1.3544  0.0830  0.0086
   12SOL     OW   34   0.511   0.186   1.470  0.0349  0.0435  0.4429
   12SOL    HW1   35   0.464   0.098   1.498 -2.0805  0.4839  0.6221
   12SOL    HW2   36   0.444   0.262   1.475 -2.1724  2.0815 -0.8073
   13SOL     OW   37   0.825   2.849   0.495  0.0732  0.9191 -0.4449
   13SOL    HW1   38   0.911   2.897   0.524  0.6018 -1.2740  0.5346
   13SOL    HW2   39   0.849   2.747   0.505 -0.3484 -2.7477 -2.5564
   14SOL     OW   40   1.294   2.222   1.308 -0.1781 -0.5054  0.0764
   14SOL    HW1   41   1.219   2.271   1.263  2.7342 -1.7533  2.4781
   14SOL    HW2   42   1.268   2.123   1.305 -0.9652 -1.0569  1.5490
   15SOL     OW   43   2.934   0.716   2.087 -0.0888 -0.6259 -0.0892
   15SOL    HW1   44   2.953   0.633   2.147 -2.0820 -0.6935  4.6241
   15SOL    HW2   45   2.993   0.708   2.004 -1.1181 -2.3957 -1.5475
   16SOL     OW   46   1.179   2.903   2.688 -0.0881 -0.1216 -0.1444
   16SOL    HW1   47   1.215   2.880   2.595  1.4570  1.6631  0.3942
   16SOL    HW2   48   1.236   2.849   2.754 -1.1862  2.3865 -1.7204
   17SOL     OW   49   1.051   3.018   1.238  0.0693 -0.3495 -0.5247
   17SOL    HW1   50   0.968   3.078   1.228 -2.2649  3.0695 -0.2950
   17SOL    HW2   51   1.121   3.060   1.298 -2.6735  1.4003 -3.5959
   18SOL     OW   52   0.957   0.759   0.293 -0.3535  0.1317 -0.1280
   18SOL    HW1   53   0.866   0.733   0.335 -1.2029  0.0946 -0.9911
   18SOL    HW2   54   1.024   0.687   0.302  1.2078  0.3568  0.2124
   19SOL     OW   55   2.080   1.423   2.871 -0.0250  0.1763  0.6637
   19SOL    HW1   56   2.158   1.486   2.900  3.0790  1.4525 -0.2860
   19SOL    HW2   57   2.104   1.324   2.867 -2.1558  2.0178 -1.0860
   20SOL     OW   58   1.685   1.563   1.536  0.4964  0.6294  0.0081
   20SOL    HW1   59   1.775   1.583   1.576 -0.5721 -1.2877  1.3830
   20SOL    HW2   60   1.636   1.503   1.598  0.8897  1.3851 -2.3979
   21SOL     OW   61   0.515   1.446   2.835 -0.4928 -0.0025  0.0809
   21SOL    HW1   62   0.430   1.499   2.815  0.5107  1.4842  0.4850
   21SOL    HW2   63   0.563   1.438   2.744  1.0411 -0.4131  1.9942
   22SOL     OW   64   2.393   3.005   1.321 -0.6739  0.6626 -0.3710
   22SOL    HW1   65   2.420   3.089   1.268  1.9783 -0.2956  1.2461
   22SOL    HW2   66   2.384   3.029   1.420 -1.9810 -2.0743 -2.6275
   23SOL     OW   67   3.099   0.904   1.559 -0.0102  0.4587  0.0246
   23SOL    HW1   68   0.074   0.844   1.558 -1.7293  0.9112  2.2327
   23SOL    HW2   69   3.089   0.933   1.463  1.5437 -3.7065  0.4694
   24SOL     OW   70   2.692   2.169   1.389 -0.2965  0.3125 -0.5958
   24SOL    HW1   71   2.732   2.247   1.337  1.7767 -1.3412 -0.3314
   24SOL    HW2   72   2.634   2.117   1.321  1.5406 -3.8023 -0.4826
   25SOL     OW   73   1.839   2.935   2.665 -0.1353  0.4880 -0.0787
   25SOL    HW1   74   1.870   2.961   2.568 -1.0985  0.4886  1.6237
   25SOL    HW2   75   1.739   2.914   2.680 -3.4166 -3.0845 -0.5227
   26SOL     OW   76   1.273   2.737   2.873  0.4389 -0.1330  0.3655
   26SOL    HW1   77   1.338   2.664   2.842 -0.1199  0.0773  2.8662
   26SOL    HW2   78   1.205   2.705   2.949 -1.7156 -1.5108 -0.6836
   27SOL     OW   79   0.661   2.366   2.716  0.9836 -0.2696 -0.1618
   27SOL    HW1   80   0.652   2.270   2.749 -0.2788 -0.1879  2.2248
   27SOL    HW2   81   0.565   2.403   2.692 -3.5552  2.1372  0.8167
   28SOL     OW   82   0.175   1.621   1.375  0.5443 -0.0860  0.5363
   28SOL    HW1   83   0.132   1.678   1.446  1.1878  0.9177  0.6593
   28SOL    HW2   84   0.216   1.683   1.308 -0.7478 -3.0336  0.7757
   29SOL     OW   85   2.514   2.007   2.148 -0.8693 -0.7389  0.0625
   29SOL    HW1   86   2.536   1.916   2.116 -2.2099 -0.4586  1.9362
   29SOL    HW2   87   2.601   2.058   2.176 -1.5413  0.6328  0.5902
   30SOL     OW   88   1.294   2.847   0.756 -0.8436  0.3783 -0.4184
   30SOL    HW1   89   1.251   2.754   0.771  0.6238 -0.4748  0.3820
   30SOL    HW2   90   1.333   2.880   0.844  0.5895  0.5905  0.7095
   31SOL     OW   91   0.014   2.248   1.745  0.2142  0.3048  0.8029
   31SOL    HW1   92   0.055   2.344   1.751  2.7278  1.7324  1.6046
   31SOL    HW2   93   0.072   2.189   1.809  1.7028  0.7828  0.5005
   32SOL     OW   94   1.269   0.850   1.875 -0.1639 -0.1804 -0.0511
   32SOL    HW1   95   1.205   0.861   1.796 -1.7191  0.5351  1.7884
   32SOL    HW2   96   1.270   0.926   1.942 -0.9463 -1.2997  2.3587
   33SOL     OW   97   0.233   2.786   2.560  0.6666 -0.1242  0.5312
   33SOL    HW1   98   0.247   2.710   2.624 -1.3458  2.0678 -2.1934
   33SOL    HW2   99   0.136   2.796   2.530 -0.4994 -0.9238 -2.1294
   34SOL     OW  100   2.154   0.103   0.786  0.0380 -0.5682  0.1977
   34SOL    HW1  101   2.222   0.092   0.709 -2.9502 -0.6341 -0.1784
   34SOL    HW2  102   2.070   0.045   0.774 -2.2669  0.2037 -0.9895
   35SOL     OW  103   2.281   0.757   1.438  0.0838 -0.4505  0.5748
   35SOL    HW1  104   2.273   0.839   1.383  1.7477  1.6565 -0.4567
   35SOL    HW2  105   2.351   0.776   1.513  1.3893  1.1753  0.2941
   36SOL     OW  106   2.293   2.561   2.150 -0.7369 -0.1184 -0.2873
   36SOL    HW1  107   2.315   2.512   2.062  1.4281 -0.6167 -1.2585
   36SOL    HW2  108   2.195   2.592   2.145 -2.3520 -1.4454  0.6449
   37SOL     OW  109   0.834   2.498   2.113 -0.1270 -0.2251 -0.1254
   37SOL    HW1  110   0.884   2.448   2.042 -0.0233 -3.1585  0.1578
   37SOL    HW2  111   0.879   2.491   2.204 -1.8529  0.7312  0.2494
   38SOL     OW  112   2.456   0.308   2.987  0.4068  0.4915 -0.1152
   38SOL    HW1  113   2.536   0.340   3.042  2.7498 -0.1288 -0.2330
   38SOL    HW2  114   2.372   0.352   3.021 -2.4516  0.1378  2.8954
   39SOL     OW  115   1.947   1.539   1.639  0.0270 -0.1247  0.7599
   39SOL    HW1  116   2.039   1.583   1.654  1.6412 -1.8936  0.9130
   39SOL    HW2  117   1.963   1.440   1.629 -1.6868  0.1682  1.3336
   40SOL     OW  118   0.069   0.058   2.577  0.3913 -0.2543 -0.0420
   40SOL    HW1  119   3.086   0.019   2.613 -0.2863 -0.3234  2.9302
   40SOL    HW2  120   0.145   3.104   2.595  0.3159  0.2990  4.2429
   41SOL     OW  121   1.512   0.418   1.183 -0.7074  0.5962 -0.2893
   41SOL    HW1  122   1.553   0.367   1.100  2.3241 -2.6623  0.1393
   41SOL    HW2  123   1.410   0.421   1.177  1.2067  2.3476 -1.1590
   42SOL     OW  124   0.817   0.058   1.208 -0.4852 -0.0797 -0.0934
   42SOL    HW1  125   0.795   0.129   1.276 -2.5259 -0.7298  2.4455
   42SOL    HW2  126   0.733   0.002   1.191 -1.0442 -1.8063 -1.3478
   43SOL     OW  127   2.523   0.968   2.240 -0.2569  0.0638  0.2661
   43SOL    HW1  128   2.504   0.891   2.178 -0.9359 -0.5616 -0.4280
   43SOL    HW2  129   2.626   0.988   2.229  0.9238  3.2612 -2.0269
   44SOL     OW  130   3.062   2.847   0.430 -0.2416 -0.2010  0.0768
   44SOL    HW1  131   2.993   2.889   0.490 -1.3321 -0.7392  1.9614
   44SOL    HW2  132   3.042   2.873   0.334  0.0878  0.8089 -0.4560
   45SOL     OW  133   0.151   2.519   2.085 -0.1485 -0.2881 -0.1394
   45SOL    HW1  134   0.179   2.615   2.091  1.1981  1.0530 -3.2336
   45SOL    HW2  135   0.057   2.508   2.045 -2.0294 -0.1499  0.7264
   46SOL     OW  136   2.341   2.357   1.897  0.0999 -0.2678 -0.0799
   46SOL    HW1  137   2.332   2.278   1.959  0.2089 -0.8969  0.8838
   46SOL    HW2  138   2.437   2.366   1.868  1.3636 -0.3951 -1.5515
   47SOL     OW  139   1.641   2.078   1.289  0.2812 -0.1489  0.1055
   47SOL    HW1  140   1.580   2.124   1.218  0.1141  0.0479 -1.8872
   47SOL    HW2  141   1.712   2.028   1.233 -2.1503 -0.0798  0.7397
   48SOL     OW  142   0.690   1.735   0.410  0.0190  0.0012 -0.1488
   48SOL    HW1  143   0.707   1.737   0.306  0.2426  0.4259 -1.9362
   48SOL    HW2  144   0.712   1.822   0.453  0.7119 -1.7410  3.0142
   49SOL     OW  145   2.763   0.343   2.702  0.0750  0.5179 -0.0521
   49SOL    HW1  146   2.798   0.313   2.789 -3.0846 -1.5606  0.3155
   49SOL    HW2  147   2.673   0.399   2.704 -1.8737  2.6846  1.4322
   50SOL     OW  148   2.168   0.854   0.735  0.3296 -0.0416 -0.0022
   50SOL    HW1  149   2.085   0.905   0.708  1.0895  0.5756  1.3873
   50SOL    HW2  150   2.246   0.918   0.752 -0.7995  0.8617 -0.4889
   51SOL     OW  151   1.604   0.047   0.795 -0.0917 -0.5562 -0.1686
   51SOL    HW1  152   1.616   3.057   0.819 -1.9686  1.0128  0.7903
   51SOL    HW2  153   1.551   0.090   0.872 -1.2154 -0.6077 -1.3226
   52SOL     OW  154   1.215   1.305   0.055 -0.1427 -0.2316 -0.0732
   52SOL    HW1  155   1.266   1.220   0.042 -2.6837 -0.0787  2.2406
   52SOL    HW2  156   1.252   1.387   0.009 -1.6792 -3.3883  3.3851
   53SOL     OW  157   0.711   1.683   2.634  0.2246  0.5337  0.9529
   53SOL    HW1  158   0.704   1.782   2.619 -1.3733 -2.6133  1.2272
   53SOL    HW2  159   0.640   1.631   2.579 -1.4480  2.4934 -0.7773
   54SOL     OW  160   2.175   0.341   1.164  0.2944  0.2142  0.0190
   54SOL    HW1  161   2.238   0.418   1.165 -0.6802 -0.0646 -0.1538
   54SOL    HW2  162   2.185   0.294   1.252 -0.2397  1.4238  0.7470
   55SOL     OW  163   2.337   2.782   0.749 -0.0140  0.1460 -0.7802
   55SOL    HW1  164   2.369   2.875   0.776  2.9836  0.9746 -1.4201
   55SOL    HW2  165   2.234   2.781   0.732 -2.0090 -0.1260 -0.4479
   56SOL     OW  166   0.446   3.006   1.606  0.6520  0.2425 -0.1434
   56SOL    HW1  167   0.415   3.004   1.703  0.7010 -1.2826 -0.1811
   56SOL    HW2  168   0.538   2.959   1.592  1.6697 -2.5301  0.2169
   57SOL     OW  169   1.544   1.103   0.575  0.0087  0.7188  0.3001
   57SOL    HW1  170   1.451   1.101   0.536  3.3574  1.2665  0.6288
   57SOL    HW2  171   1.602   1.170   0.526 -1.8031 -0.4231 -1.6363
   58SOL     OW  172   0.119   0.850   2.309 -0.2618  0.5553  0.1450
   58SOL    HW1  173   0.119   0.877   2.210 -1.8583 -2.4669 -1.2765
   58SOL    HW2  174   0.034   0.796   2.326 -1.2632  2.2142  0.0895
   59SOL     OW  175   0.993   2.757   2.226  0.2902  0.0498 -0.5514
   59SOL    HW1  176   0.990   2.664   2.267  0.2483 -2.2826  0.7342
   59SOL    HW2  177   0.951   2.818   2.299  0.5609  0.3600 -0.2755
   60SOL     OW  178   2.421   2.645   0.967  0.2691  0.3959 -0.1287
   60SOL    HW1  179   2.395   2.716   0.898  0.5114  1.9139 -1.5613
   60SOL    HW2  180   2.450   2.696   1.050 -1.2881  0.0449  0.5373
   61SOL     OW  181   0.951   2.307   0.471  0.3791 -0.1175  0.2376
   61SOL    HW1  182   0.905   2.399   0.475 -1.1097  0.7647  0.2842
   61SOL    HW2  183   0.955   2.268   0.561 -0.7818  0.5771 -1.0510
   62SOL     OW  184   2.138   2.391   2.732  0.5532 -0.1326  0.4581
   62SOL    HW1  185   2.218   2.372   2.787 -1.8888 -1.2964 -1.2371
   62SOL    HW2  186   2.119   2.492   2.740 -1.9244  0.0520 -1.4861
   63SOL     OW  187   2.220   0.785   2.872 -0.0547  0.5215  0.3046
   63SOL    HW1  188   2.195   0.841   2.952  1.6705 -2.5281 -4.0262
   63SOL    HW2  189   2.138   0.740   2.829 -1.9790 -2.1541 -1.1627
   64SOL     OW  190   0.978   0.568   0.031  0.8340  0.0149  0.1940
   64SOL    HW1  191   1.072   0.530   0.026  0.0997  1.5352 -0.3462
   64SOL    HW2  192   0.967   0.666   0.052  0.8027 -0.6961  0.6095
   65SOL     OW  193   1.116   2.100   0.356  0.2422 -0.5889  0.0105
   65SOL    HW1  194   1.075   2.188   0.383  0.9474  1.8048 -0.8618
   65SOL    HW2  195   1.061   2.057   0.282  1.3333  0.3703 -1.7412
   66SOL     OW  196   0.874   1.246   1.606  0.0035  0.5447  0.6127
   66SOL    HW1  197   0.904   1.209   1.700 -0.4516 -1.4651  2.3030
   66SOL    HW2  198   0.918   1.338   1.585  0.7956 -1.6206  0.3758
   67SOL     OW  199   2.260   2.785   2.570 -0.0339  0.1467  0.0296
   67SOL    HW1  200   2.203   2.828   2.643  1.9909  0.1954 -0.5859
   67SOL    HW2  201   2.265   2.850   2.494  1.5735 -0.9123 -0.7502
   68SOL     OW  202   0.821   1.482   1.308 -0.0342 -0.3738  0.4847
   68SOL    HW1  203   0.841   1.510   1.401 -0.3996  0.1337 -3.5778
   68SOL    HW2  204   0.821   1.557   1.241  0.5631 -0.4924  2.3390
   69SOL     OW  205   1.139   2.380   0.162 -0.2840 -0.3495  0.3739
   69SOL    HW1  206   1.107   2.423   0.248 -0.1290 -2.1845  1.3270
   69SOL    HW2  207   1.242   2.379   0.155  1.8550  1.9052 -0.8346
   70SOL     OW  208   2.903   1.243   2.697 -0.2042 -0.4769 -0.1579
   70SOL    HW1  209   2.962   1.231   2.617 -0.0473 -0.7277  0.2565
   70SOL    HW2  210   2.811   1.206   2.678  0.2887  0.7195  0.7193
   71SOL     OW  211   2.844   1.641   2.619 -0.4737 -0.0263  0.1440
   71SOL    HW1  212   2.927   1.590   2.590  1.2842  0.4773  2.3519
   71SOL    HW2  213   2.849   1.734   2.578 -0.7712 -0.9683  1.7150
   72SOL     OW  214   2.706   2.466   0.246 -0.1976 -0.5039 -0.1711
   72SOL    HW1  215   2.730   2.375   0.206  0.3075 -1.0320  0.4276
   72SOL    HW2  216   2.788   2.498   0.301 -0.4481  2.7178  0.6273
   73SOL     OW  217   1.024   1.652   0.096 -0.5137 -1.0677 -0.0742
   73SOL    HW1  218   1.013   1.559   0.121  0.4200  5.0281  0.1987
   73SOL    HW2  219   1.118   1.689   0.100  3.0597 -1.7449  1.1346
   74SOL     OW  220   3.004   1.384   2.920  0.7136  0.1393 -0.5694
   74SOL    HW1  221   3.033   1.315   2.991 -0.8992  0.1426 -0.2067
   74SOL    HW2  222   2.960   1.340   2.841 -0.4809  0.0122  2.0783
   75SOL     OW  223   1.685   1.410   1.867  0.0354 -0.0182 -0.6369
   75SOL    HW1  224   1.666   1.344   1.946 -0.2506 -5.3131  0.6557
   75SOL    HW2  225   1.739   1.489   1.899  0.7713 -0.0168 -2.4608
   76SOL     OW  226   2.077   2.310   1.514  0.3425 -0.2447 -0.2811
   76SOL    HW1  227   2.082   2.211   1.530  0.0711  0.7619  0.1766
   76SOL    HW2  228   2.009   2.332   1.436 -2.7282  0.0097 -2.3268
   77SOL     OW  229   2.647   0.971   1.174 -0.1929  0.3142  0.4067
   77SOL    HW1  230   2.643   0.902   1.245  0.0542  2.9395  1.7428
   77SOL    HW2  231   2.567   0.951   1.117 -0.0126  0.2257  2.3812
   78SOL     OW  232   1.378   0.878   0.346 -0.6887 -0.0008 -0.3687
   78SOL    HW1  233   1.335   0.963   0.387  0.2665  2.2243  0.0567
   78SOL    HW2  234   1.480   0.879   0.344 -0.0267 -0.7679 -1.6720
   79SOL     OW  235   0.149   1.576   1.899  0.3106  0.2771 -0.0445
   79SOL    HW1  236   0.171   1.480   1.866 -1.2437  1.3688  0.2097
   79SOL    HW2  237   0.238   1.619   1.920  0.3455 -3.0546 -0.0997
   80SOL     OW  238   1.506   1.142   1.545  0.4831  0.5155  0.1568
   80SOL    HW1  239   1.566   1.077   1.602 -1.9772  0.5052  1.2280
   80SOL    HW2  240   1.552   1.162   1.456 -0.1095 -1.0118  2.6336
   81SOL     OW  241   0.742   3.011   0.798  0.1194 -0.3178  0.6023
   81SOL    HW1  242   0.655   2.980   0.844  0.8288 -1.6409 -0.6625
   81SOL    HW2  243   0.725   3.057   0.708  3.1763  0.8954  1.7304
   82SOL     OW  244   1.763   2.669   1.474  0.0271  0.1586  0.5410
   82SOL    HW1  245   1.722   2.611   1.406  0.5369 -0.2900  0.3625
   82SOL    HW2  246   1.852   2.705   1.444  1.2024 -2.0455  1.2495
   83SOL     OW  247   0.683   2.278   1.084 -0.2226  0.2079  0.3444
   83SOL    HW1  248   0.584   2.262   1.096 -1.4431 -0.0488 -0.0838
   83SOL    HW2  249   0.749   2.228   1.152  2.9034 -1.7377  1.5001
   84SOL     OW  250   0.206   1.431   2.538 -0.1801  0.2537 -0.1980
   84SOL    HW1  251   0.166   1.336   2.531  0.7002 -0.7953  1.9841
   84SOL    HW2  252   0.242   1.454   2.446  0.1940  3.0083  2.6732
   85SOL     OW  253   0.205   2.338   1.383  0.3126  0.1385  0.4236
   85SOL    HW1  254   0.122   2.309   1.432  1.6528  0.0054 -1.7108
   85SOL    HW2  255   0.205   2.439   1.389 -1.2163  0.7062 -1.4084
   86SOL     OW  256   2.746   2.301   1.617  0.0307  0.6140  0.2392
   86SOL    HW1  257   2.811   2.377   1.589 -0.6943 -0.9691 -0.6027
   86SOL    HW2  258   2.693   2.258   1.541 -0.4790 -3.1321  0.9877
   87SOL     OW  259   2.577   2.083   0.074  0.3563 -0.1792  0.4968
   87SOL    HW1  260   2.550   2.076   0.173  0.6185 -1.0179  1.5553
   87SOL    HW2  261   2.614   1.993   0.042  0.3029 -1.1978 -0.1745
   88SOL     OW  262   0.649   1.617   1.030 -0.0695  0.4500  0.2510
   88SOL    HW1  263   0.728   1.676   1.060  0.3837 -4.7300  1.1538
   88SOL    HW2  264   0.590   1.598   1.110  1.8532  0.6044  2.0670
   89SOL     OW  265   1.162   2.896   1.732 -0.0402  0.4809  0.3693
   89SOL    HW1  266   1.253   2.925   1.694 -1.8353  1.5603 -2.4001
   89SOL    HW2  267   1.092   2.940   1.677  0.0602 -1.3012  0.3152
   90SOL     OW  268   0.041   1.808   1.556  0.2778 -0.3364 -0.4189
   90SOL    HW1  269   3.055   1.766   1.569 -1.0102 -1.9519  0.3919
   90SOL    HW2  270   0.081   1.847   1.643  2.7726 -0.2550  0.1687
   91SOL     OW  271   1.242   1.963   0.592 -0.4290  0.0356  0.0255
   91SOL    HW1  272   1.180   1.923   0.660 -0.1043 -0.5330  0.6548
   91SOL    HW2  273   1.199   2.014   0.518  2.7536  0.4237  1.6279
   92SOL     OW  274   2.520   2.764   1.478  0.3344  0.0401 -0.5642
   92SOL    HW1  275   2.479   2.743   1.573 -2.3920 -0.0956 -0.5562
   92SOL    HW2  276   2.498   2.862   1.454 -1.0873  1.3487  0.7621
   93SOL     OW  277   2.634   1.412   2.750  0.3362  0.2738  0.2183
   93SOL    HW1  278   2.649   1.316   2.735 -2.3977  2.5064  1.4105
   93SOL    HW2  279   2.707   1.467   2.701  0.9772  1.2139  0.1453
   94SOL     OW  280   2.710   2.640   2.529 -0.1614  0.1564  0.5763
   94SOL    HW1  281   2.740   2.549   2.512  1.1213  2.0523 -0.6624
   94SOL    HW2  282   2.609   2.637   2.538 -0.3527  0.2806 -1.2986
   95SOL     OW  283   1.928   0.324   1.647 -0.2648 -0.2180 -0.9547
   95SOL    HW1  284   1.908   0.342   1.548  2.7829  0.8441  0.5241
   95SOL    HW2  285   1.907   0.222   1.658  1.6839 -2.7046 -2.2914
   96SOL     OW  286   3.071   0.003   1.677  0.0101 -0.0744  0.5014
   96SOL    HW1  287   3.059   3.106   1.578  1.0483  2.9323 -1.8228
   96SOL    HW2  288   3.086   3.019   1.717 -0.9828 -1.4345 -4.2791
   97SOL     OW  289   2.271   0.320   1.642 -0.0947  0.8047  0.4218
   97SOL    HW1  290   2.368   0.343   1.645 -0.2750  0.7964 -3.0987
   97SOL    HW2  291   2.236   0.283   1.732 -4.2036 -1.4096  1.1520
   98SOL     OW  292   1.399   2.281   1.593  0.4168 -0.4029 -0.1261
   98SOL    HW1  293   1.440   2.380   1.588  0.0288  2.7972 -0.4432
   98SOL    HW2  294   1.393   2.243   1.499  0.2249 -1.0403 -1.9894
   99SOL     OW  295   0.031   2.953   2.046  0.2339  0.3827  0.4271
   99SOL    HW1  296   0.114   2.927   1.990  1.7826 -0.0528 -3.8985
   99SOL    HW2  297   0.049   2.951   2.147  1.1610 -1.7487  0.1234
  100SOL     OW  298   3.016   1.493   2.231 -0.3963 -0.3307 -0.2248
  100SOL    HW1  299   2.996   1.503   2.132 -0.7723 -2.4986 -1.3025
  100SOL    HW2  300   2.946   1.433   2.271 -1.1569  0.9464 -3.0042
  101SOL     OW  301   1.981   0.836   0.338  0.1991 -0.1070 -0.1393
  101SOL    HW1  302   2.076   0.842   0.374  2.0196 -2.7358  1.3902
  101SOL    HW2  303   1.953   0.933   0.312  1.1320 -0.7087  0.0300
  102SOL     OW  304   0.154   0.722   0.977 -0.4566  0.3908 -0.2401
  102SOL    HW1  305   0.052   0.705   0.990  0.6729  0.8180 -0.9921
  102SOL    HW2  306   0.193   0.763   1.065  1.9918  2.1378  1.2753
  103SOL     OW  307   2.465   0.683   2.774  0.1875 -0.3327  0.2862
  103SOL    HW1  308   2.368   0.696   2.782  1.2315 -1.1449  0.5586
  103SOL    HW2  309   2.513   0.771   2.802  1.0874  1.8988  1.7041
  104SOL     OW  310   0.416   0.356   2.437  1.0224 -0.6004 -0.3421
  104SOL    HW1  311   0.477   0.411   2.383  0.1406 -2.8089 -0.4432
  104SOL    HW2  312   0.444   0.356   2.532  1.8647  0.7059  3.9716
  105SOL     OW  313   2.109   0.998   1.553 -0.2486 -0.1898 -0.2669
  105SOL    HW1  314   2.040   0.926   1.573  2.7644 -2.7141 -0.0197
  105SOL    HW2  315   2.070   1.090   1.568  0.0568 -0.4950 -0.5779
  106SOL     OW  316   1.075   2.930   0.614  0.2408  0.0132 -0.1372
  106SOL    HW1  317   1.042   3.028   0.606 -0.4322  0.4222 -0.1180
  106SOL    HW2  318   1.149   2.916   0.681  1.6783 -0.0497 -0.8214
  107SOL     OW  319   0.464   1.570   1.209 -0.0501 -0.0401 -0.5672
  107SOL    HW1  320   0.412   1.653   1.193 -0.1353 -1.7305 -1.4322
  107SOL    HW2  321   0.405   1.488   1.221  0.3952  1.9077 -1.6877
  108SOL     OW  322   0.362   0.091   2.386  0.1959  0.2021 -0.4161
  108SOL    HW1  323   0.318   0.045   2.468  0.7615 -0.5334 -1.0478
  108SOL    HW2  324   0.380   0.188   2.395 -1.3994 -0.6590 -0.5064
  109SOL     OW  325   2.309   0.031   0.587 -0.1433 -0.1833 -0.1401
  109SOL    HW1  326   2.261   3.064   0.536  1.2313 -0.1515  0.4317
  109SOL    HW2  327   2.388   0.063   0.534 -0.5329  1.2850  2.3051
  110SOL     OW  328   0.354   2.183   2.498  0.1902  0.1675  0.5769
  110SOL    HW1  329   0.360   2.172   2.397 -0.4482  0.8266 -0.4304
  110SOL    HW2  330   0.375   2.277   2.531  0.2901  1.9574  3.5204
  111SOL     OW  331   1.682   2.938   2.222 -1.2614  0.1755 -0.2449
  111SOL    HW1  332   1.654   2.903   2.128 -0.3349 -2.1951 -0.9614
  111SOL    HW2  333   1.740   3.023   2.223  3.2406  2.3580  0.9146
  112SOL     OW  334   1.910   2.262   2.788  0.2127 -0.2995  0.3089
  112SOL    HW1  335   1.841   2.228   2.720  0.7644  0.4593  1.7974
  112SOL    HW2  336   1.989   2.315   2.751  0.7459 -0.1103  0.1809
  113SOL     OW  337   2.627   2.305   1.841 -0.3475 -0.4249 -0.0223
  113SOL    HW1  338   2.652   2.226   1.901  0.5016 -1.8435 -0.2719
  113SOL    HW2  339   2.660   2.291   1.747 -1.1922 -0.1069  1.1910
  114SOL     OW  340   2.460   0.937   0.979 -0.0058 -0.4393 -0.3474
  114SOL    HW1  341   2.374   0.886   0.995 -1.7887  0.0625 -0.0672
  114SOL    HW2  342   2.449   0.980   0.889 -0.5843  1.0017 -2.6987
  115SOL     OW  343   0.045   1.750   2.837 -0.1178  0.5523 -0.7469
  115SOL    HW1  344   0.123   1.687   2.812 -1.3816 -1.3110  1.5122
  115SOL    HW2  345   0.064   1.847   2.830 -0.3220 -2.8963  1.1091
  116SOL     OW  346   0.194   1.483   2.252 -0.4648  0.4647  0.2490
  116SOL    HW1  347   0.096   1.490   2.216 -0.5538  1.3826 -0.0234
  116SOL    HW2  348   0.260   1.453   2.181 -1.0809 -1.5092  2.1411
  117SOL     OW  349   2.662   0.276   0.923 -0.8533  0.2563  0.4654
  117SOL    HW1  350   2.717   0.193   0.922 -0.8789  2.8607 -1.0167
  117SOL    HW2  351   2.619   0.300   0.835 -0.4144  0.8550 -2.3191
  118SOL     OW  352   0.947   2.100   1.801  0.2652 -0.3166  0.0108
  118SOL    HW1  353   0.925   2.003   1.800 -1.2284  1.8438  0.2555
  118SOL    HW2  354   1.004   2.136   1.724 -1.2754  0.4099 -0.4455
  119SOL     OW  355   1.461   2.124   0.034 -0.1461  0.2682  0.6375
  119SOL    HW1  356   1.530   2.157   3.069  0.3651  2.6350 -1.6367
  119SOL    HW2  357   1.368   2.149   3.107 -2.3971  0.8896 -0.9314
  120SOL     OW  358   0.319   1.699   2.410  0.5654  0.5876  0.1559
  120SOL    HW1  359   0.239   1.745   2.454 -0.1049  2.0807  4.2886
  120SOL    HW2  360   0.297   1.663   2.319 -0.4951 -0.6849  0.0607
  121SOL     OW  361   2.390   2.251   1.145 -0.6042  0.0122  0.1721
  121SOL    HW1  362   2.374   2.253   1.247  2.8504 -0.1032  0.9862
  121SOL    HW2  363   2.305   2.285   1.100 -0.8145 -0.6930  1.5894
  122SOL     OW  364   2.293   2.129   2.060 -0.0756  0.5243 -0.1317
  122SOL    HW1  365   2.223   2.054   2.027 -3.8266 -0.7465  3.3830
  122SOL    HW2  366   2.378   2.085   2.100 -0.2580 -2.4640  2.1406
  123SOL     OW  367   2.848   0.054   0.945 -0.5151 -0.3183 -0.2929
  123SOL    HW1  368   2.928   0.078   0.890 -1.7147  0.6116 -1.0401
  123SOL    HW2  369   2.788   3.097   0.897  0.0698  1.3110 -0.0829
  124SOL     OW  370   1.736   0.459   2.574 -0.0183  0.2571  0.3307
  124SOL    HW1  371   1.755   0.510   2.491 -0.8036 -1.2493  0.8520
  124SOL    HW2  372   1.736   0.361   2.550 -0.5078 -0.6020 -1.5931
  125SOL     OW  373   0.530   1.397   0.196 -0.3032  0.3488  0.2923
  125SOL    HW1  374   0.578   1.436   0.119  1.0853 -0.1291  2.1994
  125SOL    HW2  375   0.448   1.349   0.161  4.4265 -0.3521 -0.0725
  126SOL     OW  376   2.468   1.869   0.227  0.1619  0.4063 -0.0464
  126SOL    HW1  377   2.537   1.906   0.290  0.8166  1.4763  1.1830
  126SOL    HW2  378   2.438   1.773   0.243  2.7907  0.9811  0.7057
  127SOL     OW  379   0.303   1.781   1.190  0.0325 -0.1294  0.3048
  127SOL    HW1  380   0.276   1.874   1.220 -1.4076 -5.5416 -3.1232
  127SOL    HW2  381   0.243   1.752   1.110  0.0005 -1.0862 -2.4925
  128SOL     OW  382   0.745   0.566   3.008  0.2075  0.0279  1.0593
  128SOL    HW1  383   0.825   0.534   3.065 -1.4359  0.5864 -1.2667
  128SOL    HW2  384   0.712   0.658   3.043 -1.4979 -0.3315 -0.2500
  129SOL     OW  385   2.302   1.633   1.039  0.6597  0.3356 -0.3282
  129SOL    HW1  386   2.224   1.604   1.104 -3.1547  1.6971  2.9248
  129SOL    HW2  387   2.267   1.687   0.960  0.8619 -0.2659 -1.8047
  130SOL     OW  388   2.471   1.765   1.194  0.3188 -0.0326 -0.2488
  130SOL    HW1  389   2.422   1.701   1.136  1.2167 -1.1868  2.6225
  130SOL    HW2  390   2.428   1.761   1.283 -1.7617  1.9940 -1.3046
  131SOL     OW  391   2.774   0.993   3.065 -0.1101 -0.0377  0.5120
  131SOL    HW1  392   2.769   0.916   0.024  3.0463  0.7354  0.8666
  131SOL    HW2  393   2.860   0.986   3.009  0.6293  1.0671  1.4112
  132SOL     OW  394   2.680   2.032   1.687 -0.2100  0.3452  0.0741
  132SOL    HW1  395   2.744   2.089   1.635  0.2193  0.5011 -0.2623
  132SOL    HW2  396   2.720   2.001   1.776 -2.7764 -0.0420  1.0450
  133SOL     OW  397   0.267   1.233   0.765  0.1603  0.1565 -0.0943
  133SOL    HW1  398   0.369   1.209   0.779  4.0241  0.1444  1.4310
  133SOL    HW2  399   0.254   1.332   0.751 -1.2173  0.4545 -2.7513
  134SOL     OW  400   0.330   0.949   3.039 -0.0385  0.5236  0.1750
  134SOL    HW1  401   0.237   0.909   3.044 -0.7373  2.3755 -0.6179
  134SOL    HW2  402   0.327   1.021   2.966  0.1688 -3.1854  2.1835
  135SOL     OW  403   2.001   1.300   1.078  0.0450  0.0288 -0.2243
  135SOL    HW1  404   1.963   1.305   1.177 -0.1744 -1.3805  2.6219
  135SOL    HW2  405   1.976   1.220   1.026 -1.0470  1.1701 -1.0371
  136SOL     OW  406   1.928   1.048   0.943 -0.0058  0.5498  0.6403
  136SOL    HW1  407   1.966   0.987   1.018 -0.7056 -0.0741 -0.1913
  136SOL    HW2  408   1.955   1.010   0.852  2.3904 -1.8498 -0.8521
  137SOL     OW  409   2.570   1.819   0.890  0.1456 -0.6777  0.7698
  137SOL    HW1  410   2.544   1.918   0.890  2.5504 -0.4225  1.2716
  137SOL    HW2  411   2.661   1.806   0.932  0.4023 -1.9992 -0.8193
  138SOL     OW  412   1.657   0.654   2.023 -0.4067 -0.3797  0.4759
  138SOL    HW1  413   1.633   0.555   2.004 -0.0123 -2.4909  0.0365
  138SOL    HW2  414   1.755   0.675   1.997  0.0090  2.3028  0.9839
  139SOL     OW  415   2.127   3.062   0.096 -0.2021 -0.8556  0.1224
  139SOL    HW1  416   2.186   3.061   0.013 -1.8376  2.2180  1.1227
  139SOL    HW2  417   2.055   0.026   0.095 -0.0500 -3.4770  3.1062
  140SOL     OW  418   1.573   2.115   2.429 -0.8534  0.2618  0.2338
  140SOL    HW1  419   1.575   2.216   2.424 -1.7858  2.3491 -1.1699
  140SOL    HW2  420   1.585   2.088   2.526  0.9422 -0.7876  0.0641
  141SOL     OW  421   1.705   1.526   1.268 -0.1546 -0.5659 -0.0598
  141SOL    HW1  422   1.693   1.538   1.369  2.1277  1.5265  1.2890
  141SOL    HW2  423   1.612   1.523   1.220 -5.3926 -1.9978  0.3455
  142SOL     OW  424   2.736   0.302   0.071  0.1769 -0.0236  0.2955
  142SOL    HW1  425   2.803   0.259   0.137  0.5509 -1.5533 -0.7653
  142SOL    HW2  426   2.642   0.304   0.119 -1.4731  1.1239  2.2455
  143SOL     OW  427   0.254   2.565   2.761 -0.3231 -0.0334 -0.2553
  143SOL    HW1  428   0.297   2.556   2.852  1.3635 -0.1045 -1.6452
  143SOL    HW2  429   0.155   2.570   2.768 -0.2990  1.0995  1.3785
  144SOL     OW  430   0.791   2.717   1.811  0.1375 -0.9258  0.4812
  144SOL    HW1  431   0.799   2.613   1.797 -1.1027 -0.1348  0.4336
  144SOL    HW2  432   0.773   2.756   1.719  0.9597  0.8706 -1.8864
  145SOL     OW  433   2.401   1.229   0.382 -0.0175 -0.6133  0.1512
  145SOL    HW1  434   2.357   1.225   0.475 -2.6034 -1.3062 -1.0270
  145SOL    HW2  435   2.331   1.255   0.309 -2.8451 -0.6504  0.8817
  146SOL     OW  436   2.704   2.985   2.914  0.0413  0.0430 -0.3047
  146SOL    HW1  437   2.620   3.033   2.936  0.4303  3.3486 -3.3996
  146SOL    HW2  438   2.745   2.955   3.006 -0.5156  0.6532  2.2852
  147SOL     OW  439   2.860   2.671   1.134  0.0746  0.4433  0.2816
  147SOL    HW1  440   2.913   2.672   1.222  1.1587  1.0475 -0.1404
  147SOL    HW2  441   2.762   2.692   1.154  3.4076  1.6311 -1.1312
  148SOL     OW  442   1.696   3.050   0.168 -0.2473  0.2130  0.0308
  148SOL    HW1  443   1.617   3.020   0.228 -0.3092 -1.2994 -0.6420
  148SOL    HW2  444   1.705   2.975   0.097 -1.4207  0.8389  3.6266
  149SOL     OW  445   1.064   0.665   2.856 -0.6641 -0.0598 -0.0278
  149SOL    HW1  446   1.059   0.602   2.933 -1.2001  0.5251  1.6553
  149SOL    HW2  447   0.975   0.653   2.806 -0.6062 -2.2028 -0.1255
  150SOL     OW  448   0.825   2.569   0.481 -0.1942 -0.0810 -0.2170
  150SOL    HW1  449   0.743   2.574   0.422 -1.1177 -1.7801 -1.9500
  150SOL    HW2  450   0.798   2.583   0.579 -0.4046  2.1640 -0.1150
  151SOL     OW  451   0.068   1.947   0.037 -0.2989  0.0564  0.1703
  151SOL    HW1  452   0.091   1.852   0.062 -1.0989  0.1078  0.8799
  151SOL    HW2  453   0.067   1.953   3.046 -1.4640 -1.4251  0.8507
  152SOL     OW  454   0.329   1.467   0.560 -0.2811 -0.0240 -0.1629
  152SOL    HW1  455   0.408   1.415   0.522  0.3080 -0.5433 -0.6620
  152SOL    HW2  456   0.341   1.568   0.536 -0.5433  3.4548 -0.5936
  153SOL     OW  457   2.324   2.682   0.166 -0.5728  0.6095  0.1065
  153SOL    HW1  458   2.338   2.648   0.260 -0.6781  1.9379 -2.1632
  153SOL    HW2  459   2.233   2.715   0.157  5.0690  0.6881 -1.1005
  154SOL     OW  460   0.783   0.413   1.171 -0.2673 -0.2202 -0.2760
  154SOL    HW1  461   0.694   0.360   1.157 -1.0429 -0.6520  0.4820
  154SOL    HW2  462   0.792   0.435   1.270  0.8934  0.1645  1.0637
  155SOL     OW  463   0.030   2.041   1.083 -0.4126  0.0496  0.1416
  155SOL    HW1  464   0.065   1.962   1.022  0.3179  0.5982 -1.1155
  155SOL    HW2  465   0.008   2.001   1.176 -1.6564  2.9764  1.4130
  156SOL     OW  466   2.116   2.068   3.086  0.5996  0.4514 -0.5270
  156SOL    HW1  467   2.133   2.010   0.060 -0.6573  1.6971  1.7834
  156SOL    HW2  468   2.203   2.095   3.040 -2.1039  2.2961  1.4035
  157SOL     OW  469   0.703   2.538   1.005  0.0524 -0.6660  0.1285
  157SOL    HW1  470   0.677   2.441   1.020 -1.3675  0.7135  0.4754
  157SOL    HW2  471   0.720   2.585   1.098  0.2782  1.0720  3.8980
  158SOL     OW  472   2.506   0.427   2.710  0.2048  0.1890 -0.0186
  158SOL    HW1  473   2.472   0.361   2.777 -2.0271 -1.4409 -0.7811
  158SOL    HW2  474   2.491   0.520   2.747  1.4555 -1.7689  1.4556
  159SOL     OW  475   0.672   0.169   2.653 -0.2177  0.5424  0.0137
  159SOL    HW1  476   0.762   0.150   2.705  1.8741  1.9837 -0.8186
  159SOL    HW2  477   0.615   0.083   2.662 -2.2432 -1.1392 -2.3781
  160SOL     OW  478   0.859   1.990   2.992 -0.2794  0.5379 -0.0888
  160SOL    HW1  479   0.823   1.892   2.987  0.9619  0.1303  0.6182
  160SOL    HW2  480   0.902   2.015   2.904 -2.1973  0.3725  1.0177
  161SOL     OW  481   3.017   2.290   2.963 -0.5349  0.4264 -0.2160
  161SOL    HW1  482   2.979   2.261   3.051  2.1139 -1.9316  2.1420
  161SOL    HW2  483   2.962   2.365   2.924  1.0276 -0.6473  1.1048
  162SOL     OW  484   0.439   2.682   0.968  0.1429 -0.2710 -0.2092
  162SOL    HW1  485   0.511   2.635   1.018 -2.9070  0.2522 -0.8134
  162SOL    HW2  486   0.364   2.624   0.937  1.1315  2.1054  0.6862
  163SOL     OW  487   2.429   0.697   3.094  0.3973 -0.0148  0.1393
  163SOL    HW1  488   2.383   0.608   0.009 -1.7875 -3.9198  1.9610
  163SOL    HW2  489   2.370   0.743   3.026  1.5249 -1.0666 -1.0393
  164SOL     OW  490   0.101   2.562   0.634 -0.4753 -0.1333 -0.3359
  164SOL    HW1  491   0.037   2.485   0.619 -1.4344  1.7220  0.2883
  164SOL    HW2  492   0.058   2.652   0.633  3.0891 -0.3335 -1.5934
  165SOL     OW  493   2.526   0.516   1.365  0.4844  0.0507  0.0871
  165SOL    HW1  494   2.511   0.460   1.450  2.2571 -0.8972 -1.5147
  165SOL    HW2  495   2.439   0.524   1.311 -2.4473  0.9029  2.6522
  166SOL     OW  496   2.073   0.325   0.906  0.1637 -0.3715  0.1644
  166SOL    HW1  497   2.112   0.241   0.864 -0.5537  0.5098  0.0099
  166SOL    HW2  498   2.097   0.332   1.004 -2.4095 -1.3616 -0.3079
  167SOL     OW  499   0.552   0.279   1.216 -0.0218 -0.0363 -0.5876
  167SOL    HW1  500   0.536   0.241   1.309  2.0085  1.4869 -0.3694
  167SOL    HW2  501   0.493   0.230   1.141 -0.6072 -2.5175 -0.8149
  168SOL     OW  502   2.707   2.925   2.397 -0.0622 -0.0703  0.2958
  168SOL    HW1  503   2.673   2.828   2.383 -0.4072 -1.5696 -1.2464
  168SOL    HW2  504   2.676   2.951   2.489 -0.2455 -1.3414 -1.2518
  169SOL     OW  505   0.042   1.736   0.632 -0.1321 -0.0908  0.3878
  169SOL    HW1  506   0.061   1.744   0.533  0.5106  0.2721 -0.3722
  169SOL    HW2  507   0.127   1.707   0.680  1.1231 -0.9856 -1.2722
  170SOL     OW  508   2.880   0.720   1.489  0.4355  0.1249  0.1232
  170SOL    HW1  509   2.919   0.634   1.454  3.7579  0.2857 -0.0872
  170SOL    HW2  510   2.952   0.774   1.537 -0.9056  2.0631 -0.2502
  171SOL     OW  511   1.118   2.196   1.627 -0.0257  0.5989 -0.0070
  171SOL    HW1  512   1.217   2.218   1.630 -0.9203  0.4842 -3.0702
  171SOL    HW2  513   1.063   2.258   1.561 -3.9707  1.5920  0.9342
  172SOL     OW  514   0.476   2.519   1.233  0.2319  0.2428 -0.3603
  172SOL    HW1  515   0.451   2.445   1.171  0.7965  0.6960  1.6504
  172SOL    HW2  516   0.393   2.572   1.270 -2.7362  1.2882 -0.7629
  173SOL     OW  517   1.215   3.018   0.231 -0.3576 -0.4952  0.0765
  173SOL    HW1  518   1.317   3.000   0.233  1.1092 -0.0460  0.8441
  173SOL    HW2  519   1.207   0.004   0.269 -1.6743  1.3768 -1.3472
  174SOL     OW  520   0.942   2.766   2.605  0.4318  0.2164 -0.2962
  174SOL    HW1  521   1.027   2.813   2.635 -0.2448  0.1122 -1.5759
  174SOL    HW2  522   0.924   2.676   2.655  1.4804  0.1130  2.0914
  175SOL     OW  523   1.511   0.593   0.323  0.3550  0.2169 -0.2372
  175SOL    HW1  524   1.582   0.533   0.358 -0.4497  2.5122 -3.2624
  175SOL    HW2  525   1.526   0.686   0.349 -2.7749 -3.9448 -0.2921
  176SOL     OW  526   1.311   0.187   0.226 -0.2937 -0.0252 -0.5301
  176SOL    HW1  527   1.410   0.209   0.207  0.0235 -0.6374 -1.2232
  176SOL    HW2  528   1.291   0.180   0.327 -0.9011 -1.2615  2.2719
  177SOL     OW  529   1.376   0.992   1.100 -0.1707 -0.0793 -0.0590
  177SOL    HW1  530   1.366   1.092   1.108 -1.4852 -0.8169  1.8192
  177SOL    HW2  531   1.289   0.952   1.063 -0.0681  1.6860 -1.0384
  178SOL     OW  532   2.154   1.718   2.054 -0.0763 -0.5785 -0.0550
  178SOL    HW1  533   2.223   1.656   2.015 -3.7260  2.1836 -0.1125
  178SOL    HW2  534   2.080   1.659   2.086 -1.1517 -0.2799 -2.0279
  179SOL     OW  535   0.662   2.831   2.639  0.3134 -0.2819 -0.1214
  179SOL    HW1  536   0.758   2.793   2.647 -0.3229 -0.5019  1.3993
  179SOL    HW2  537   0.625   2.815   2.547  0.4712 -0.8613 -4.0451
  180SOL     OW  538   1.487   1.843   1.646 -0.3597 -0.3058 -0.1298
  180SOL    HW1  539   1.516   1.755   1.686 -1.6798 -0.2398 -0.8128
  180SOL    HW2  540   1.565   1.878   1.585  1.3542  1.3555 -2.3178
  181SOL     OW  541   1.489   1.264   2.506  0.0649  0.4465 -0.1828
  181SOL    HW1  542   1.487   1.263   2.605 -0.1184  1.1994 -2.6288
  181SOL    HW2  543   1.395   1.242   2.468 -2.8262 -0.0066 -1.9456
  182SOL     OW  544   2.884   0.567   2.612 -0.2908  0.6638 -0.0370
  182SOL    HW1  545   2.848   0.475   2.630 -0.3340 -1.7417  1.6260
  182SOL    HW2  546   2.981   0.581   2.634  0.0546 -0.8584  0.0644
  183SOL     OW  547   1.228   0.214   2.533 -0.0973 -0.2537  0.3585
  183SOL    HW1  548   1.312   0.276   2.515  3.0373 -0.3180  0.8718
  183SOL    HW2  549   1.203   0.220   2.633  0.0066 -1.2406 -0.6883
  184SOL     OW  550   1.312   0.624   1.484  0.5083 -0.2775  0.0562
  184SOL    HW1  551   1.230   0.591   1.535 -0.1676  1.4888  0.9431
  184SOL    HW2  552   1.281   0.707   1.435  1.5195 -2.9113 -0.0119
  185SOL     OW  553   0.218   1.480   0.954 -0.1931 -0.0158  0.6846
  185SOL    HW1  554   0.140   1.485   1.017  0.3697 -1.2389 -2.0727
  185SOL    HW2  555   0.290   1.413   0.983  0.2762  0.5879 -4.0408
  186SOL     OW  556   0.427   1.839   2.773  0.7244  0.2356  0.3698
  186SOL    HW1  557   0.441   1.880   2.864 -0.7203  1.7076 -0.4193
  186SOL    HW2  558   0.416   1.915   2.702  1.6054  0.4818 -2.1935
  187SOL     OW  559   2.644   1.134   0.322 -0.5707  0.3212  0.1472
  187SOL    HW1  560   2.673   1.181   0.233 -0.4009  2.2589  1.5822
  187SOL    HW2  561   2.558   1.180   0.361  0.6233  2.0758  1.4540
  188SOL     OW  562   0.269   2.466   0.430 -0.5589  0.0173 -0.0629
  188SOL    HW1  563   0.223   2.382   0.403  0.8069 -0.3928  0.8606
  188SOL    HW2  564   0.195   2.528   0.472  2.6224 -3.0171 -2.5349
  189SOL     OW  565   2.534   0.806   0.206 -0.0520  0.6423 -0.0196
  189SOL    HW1  566   2.505   0.765   0.119 -2.6599  1.4473  0.6645
  189SOL    HW2  567   2.627   0.850   0.204  0.4552 -0.0729  1.3256
  190SOL     OW  568   1.423   1.549   2.072  0.2784  0.2029  0.3297
  190SOL    HW1  569   1.471   1.536   2.161  2.6140 -0.8611 -3.0659
  190SOL    HW2  570   1.425   1.644   2.046  0.0413 -0.2441  1.4711
  191SOL     OW  571   2.529   0.405   1.604  0.4538 -0.5056  0.6999
  191SOL    HW1  572   2.597   0.335   1.629 -0.2506 -0.9743  1.6260
  191SOL    HW2  573   2.539   0.489   1.661 -0.7838  1.3081  0.3436
  192SOL     OW  574   2.237   0.226   1.908 -0.4571  0.7096 -0.4667
  192SOL    HW1  575   2.236   0.146   1.971 -1.0253 -0.4976 -0.4825
  192SOL    HW2  576   2.328   0.271   1.918 -0.7826 -0.9966  0.2429
  193SOL     OW  577   0.746   0.632   0.383  0.1100  0.1251 -0.0853
  193SOL    HW1  578   0.736   0.577   0.470  1.6394  2.1386 -0.9321
  193SOL    HW2  579   0.659   0.681   0.366  1.4980 -2.3371  3.2431
  194SOL     OW  580   1.119   2.790   1.092  0.0535  0.3644  0.3925
  194SOL    HW1  581   1.044   2.776   1.018 -0.1466 -0.7569 -2.7992
  194SOL    HW2  582   1.105   2.864   1.160  0.1324 -0.1713 -0.6132
  195SOL     OW  583   2.230   0.767   0.979 -0.4248  0.2209  0.3056
  195SOL    HW1  584   2.201   0.805   0.885 -2.1517  3.9676 -4.6437
  195SOL    HW2  585   2.144   0.738   1.025  0.8515 -3.6321 -0.7897
  196SOL     OW  586   1.676   1.858   1.966  0.0929 -0.1764 -0.2490
  196SOL    HW1  587   1.737   1.918   2.021 -1.7935  1.1056  1.1043
  196SOL    HW2  588   1.587   1.863   2.013  1.2997  0.6823  1.4166
  197SOL     OW  589   0.066   0.072   0.211  0.2809  0.3837 -0.0585
  197SOL    HW1  590   0.104   0.111   0.295 -0.0806  1.8382  0.5841
  197SOL    HW2  591   0.131   0.089   0.135  0.3157 -0.6801  1.5316
  198SOL     OW  592   1.198   1.059   0.719  0.1045  0.1830 -0.1468
  198SOL    HW1  593   1.223   1.125   0.796  0.1839 -1.4958  0.2192
  198SOL    HW2  594   1.141   0.981   0.746 -0.7364  0.0923 -0.8857
  199SOL     OW  595   0.174   0.901   2.049  0.2667 -0.3590  0.3940
  199SOL    HW1  596   0.218   0.810   2.057 -1.0391  0.8652 -0.2211
  199SOL    HW2  597   0.225   0.968   1.992  0.8779 -0.7207  0.2779
  200SOL     OW  598   2.675   2.131   2.698  0.2347  0.0264 -0.5072
  200SOL    HW1  599   2.596   2.075   2.733 -0.6634 -2.5837 -1.9687
  200SOL    HW2  600   2.658   2.228   2.716 -0.4840 -3.0496 -0.4872
  201SOL     OW  601   2.515   0.117   1.109  0.5676 -0.5779  0.0646
  201SOL    HW1  602   2.564   0.185   1.056 -0.1745 -1.7565 -1.2173
  201SOL    HW2  603   2.419   0.106   1.077  2.0247 -0.3335  0.7422
  202SOL     OW  604   2.413   0.590   0.341  0.0623  0.4096 -0.5012
  202SOL    HW1  605   2.383   0.595   0.441  3.2442  0.6207  1.1169
  202SOL    HW2  606   2.457   0.678   0.308  4.6211  1.2553  2.1110
  203SOL     OW  607   1.740   1.903   2.296 -0.0604  0.7706 -0.7140
  203SOL    HW1  608   1.799   1.945   2.217  6.2433  0.9343 -3.7672
  203SOL    HW2  609   1.683   1.979   2.324  0.9616 -2.8281 -4.0517
  204SOL     OW  610   0.942   1.878   2.257 -0.1597 -0.1039  0.2370
  204SOL    HW1  611   0.945   1.808   2.332 -1.1198 -0.7703 -0.8769
  204SOL    HW2  612   1.023   1.937   2.270 -0.4653  0.5601 -0.1890
  205SOL     OW  613   1.095   1.935   1.485 -0.1155 -0.1358  0.1691
  205SOL    HW1  614   1.105   2.029   1.523  1.5032  0.5655  3.1156
  205SOL    HW2  615   1.133   1.862   1.546  0.9188 -1.2696 -1.0682
  206SOL     OW  616   0.001   0.608   0.015 -0.0242 -0.2170  0.2158
  206SOL    HW1  617   3.034   0.574   0.077 -1.0975  0.2956  0.2682
  206SOL    HW2  618   0.028   0.551   3.044  1.1622  2.5982 -0.4643
  207SOL     OW  619   1.819   2.709   2.317  0.0256  0.0792 -0.1041
  207SOL    HW1  620   1.770   2.620   2.310  0.6518  1.2286  1.5752
  207SOL    HW2  621   1.760   2.789   2.298 -1.3485  1.0282 -0.6619
  208SOL     OW  622   0.350   2.306   1.612 -0.2207 -0.0924 -0.3148
  208SOL    HW1  623   0.304   2.298   1.524 -0.8044  1.3476 -2.0930
  208SOL    HW2  624   0.349   2.396   1.649  0.4429 -0.4896  0.7965
  209SOL     OW  625   1.511   0.756   2.826 -0.6023 -0.1974 -1.3876
  209SOL    HW1  626   1.428   0.715   2.871  1.6882  2.6814 -0.2166
  209SOL    HW2  627   1.492   0.822   2.757  1.2194 -0.6428  1.0578
  210SOL     OW  628   2.033   0.953   1.170 -0.3684 -0.1412 -0.0019
  210SOL    HW1  629   2.114   0.983   1.223 -4.1826 -1.1047 -0.1193
  210SOL    HW2  630   1.996   0.875   1.217  2.0661  2.0121  1.4191
  211SOL     OW  631   0.585   0.605   0.829 -0.1280 -0.3704  0.2130
  211SOL    HW1  632   0.595   0.696   0.788  2.4593 -1.8191 -0.8470
  211SOL    HW2  633   0.491   0.572   0.843  1.4173 -1.5736 -0.3777
  212SOL     OW  634   1.699   1.378   0.115 -0.4185 -0.5924  0.1729
  212SOL    HW1  635   1.793   1.415   0.087  1.7034 -2.7371 -1.5961
  212SOL    HW2  636   1.631   1.455   0.121 -1.7908 -0.7737  2.0945
  213SOL     OW  637   1.692   0.195   2.483 -0.3285  0.4150 -0.8062
  213SOL    HW1  638   1.730   0.151   2.567 -0.2738 -0.9226 -0.6265
  213SOL    HW2  639   1.702   0.131   2.405  2.2427 -1.6760 -2.2539
  214SOL     OW  640   1.603   1.424   2.331 -0.4402 -0.0716 -0.0408
  214SOL    HW1  641   1.646   1.502   2.376 -1.0686 -1.7812 -1.8343
  214SOL    HW2  642   1.554   1.362   2.392  0.9762 -0.8222 -1.1455
  215SOL     OW  643   0.424   1.768   0.486  0.0128 -0.5686  0.7610
  215SOL    HW1  644   0.500   1.707   0.468  1.4595  2.5584  0.0013
  215SOL    HW2  645   0.396   1.814   0.400  1.5313  0.5655 -0.0839
  216SOL     OW  646   0.690   2.933   2.203  0.1268  0.1127  0.1622
  216SOL    HW1  647   0.750   2.948   2.122 -0.1987 -1.9361 -0.2211
  216SOL    HW2  648   0.741   2.934   2.293  0.9200 -2.1191  1.9642
  217SOL     OW  649   2.223   0.954   0.424  0.2909 -0.4117 -0.2534
  217SOL    HW1  650   2.318   0.932   0.450 -3.5637  2.2515  0.8074
  217SOL    HW2  651   2.183   1.024   0.484  2.3082  1.4065 -1.0858
  218SOL     OW  652   2.142   1.950   1.909  0.3051 -0.4126 -0.0057
  218SOL    HW1  653   2.060   1.968   1.853 -0.8751 -3.1653 -0.0571
  218SOL    HW2  654   2.124   1.868   1.969 -0.9463 -3.8195 -0.0488
  219SOL     OW  655   1.964   1.528   3.096  0.0203 -0.2720  0.1561
  219SOL    HW1  656   1.898   1.597   3.068  2.9591 -1.0947  1.0265
  219SOL    HW2  657   1.981   1.474   3.007 -2.5508 -1.0545 -0.9762
  220SOL     OW  658   1.366   1.544   1.121  0.2097  0.3117  0.2099
  220SOL    HW1  659   1.371   1.609   1.199 -1.0348  1.5665 -0.9537
  220SOL    HW2  660   1.420   1.583   1.040 -1.4043  2.4697  0.5973
  221SOL     OW  661   0.226   0.821   2.697 -0.6375 -0.1763  0.5919
  221SOL    HW1  662   0.160   0.894   2.717 -2.2019  0.2835  0.6901
  221SOL    HW2  663   0.327   0.838   2.731  0.3356  0.9145 -1.9441
  222SOL     OW  664   0.871   1.755   1.135 -0.1484  0.8774 -1.0434
  222SOL    HW1  665   0.879   1.812   1.222  0.0639  1.4820  3.2167
  222SOL    HW2  666   0.952   1.693   1.133  0.5765  0.0265 -2.0304
  223SOL     OW  667   1.449   0.037   2.556  0.2536  0.7412 -0.4590
  223SOL    HW1  668   1.441   0.027   2.658 -0.8131  0.1113  1.9674
  223SOL    HW2  669   1.378   0.105   2.520 -2.4535  2.5773 -0.8775
  224SOL     OW  670   2.762   0.933   0.893  0.4529 -0.3298 -0.4019
  224SOL    HW1  671   2.853   0.969   0.879 -3.6696  1.3338  0.7714
  224SOL    HW2  672   2.733   0.931   0.994  0.6386  2.3911  1.7549
  225SOL     OW  673   1.433   0.448   1.642  0.4621  0.2230 -0.4057
  225SOL    HW1  674   1.515   0.404   1.601  1.4161 -0.6311  1.6656
  225SOL    HW2  675   1.388   0.526   1.589 -0.9895 -0.5188 -3.0183
  226SOL     OW  676   1.489   1.944   2.757 -0.5969 -0.0870 -0.1569
  226SOL    HW1  677   1.467   1.884   2.680 -1.8618  1.1834  1.5776
  226SOL    HW2  678   1.501   1.897   2.850 -2.4302 -1.8958 -0.5349
  227SOL     OW  679   1.248   1.934   1.265  0.4231  0.2303  0.5037
  227SOL    HW1  680   1.319   1.860   1.278 -0.4011 -1.9451 -0.4133
  227SOL    HW2  681   1.179   1.926   1.340  3.3962  0.6239 -0.8888
  228SOL     OW  682   0.809   1.959   0.965  0.2766 -0.1423  0.2181
  228SOL    HW1  683   0.825   2.048   1.011 -0.8873 -3.0981 -1.5298
  228SOL    HW2  684   0.829   1.883   1.026  1.3435  4.3178 -0.8499
  229SOL     OW  685   1.868   0.388   0.151  0.0690  0.4064 -0.8022
  229SOL    HW1  686   1.800   0.383   0.072 -0.7564 -1.3297  0.2615
  229SOL    HW2  687   1.931   0.468   0.147 -2.2052 -2.4931  1.0412
  230SOL     OW  688   1.074   0.400   2.089  0.7609  0.4195  0.1671
  230SOL    HW1  689   1.091   0.476   2.026  0.4955 -2.1836  3.2076
  230SOL    HW2  690   1.147   0.411   2.162 -1.5334 -0.1105  1.9951
  231SOL     OW  691   1.170   1.617   2.536  0.0981 -0.9998 -0.1447
  231SOL    HW1  692   1.180   1.525   2.582 -0.6194  0.0146  0.3132
  231SOL    HW2  693   1.077   1.626   2.502  2.7307  1.1060  3.1422
  232SOL     OW  694   2.254   1.968   0.995 -0.0334 -0.0805 -0.3304
  232SOL    HW1  695   2.245   1.880   0.951 -0.0966  1.5165 -0.0892
  232SOL    HW2  696   2.326   2.025   0.947 -0.2726  0.8576 -0.9510
  233SOL     OW  697   1.796   2.802   3.098 -0.3307 -0.3085 -0.5882
  233SOL    HW1  698   1.763   2.712   0.029 -0.9559  0.3889  0.2126
  233SOL    HW2  699   1.900   2.803   3.088  1.9255  1.7809  0.2676
  234SOL     OW  700   1.088   2.900   0.012  0.3061  0.3772 -0.1737
  234SOL    HW1  701   1.107   2.941   0.105  1.1474  1.0154 -0.0626
  234SOL    HW2  702   1.066   2.803   0.014  1.3206  4.3892  1.9873
  235SOL     OW  703   2.457   0.013   0.288 -0.0915  0.2339  0.0926
  235SOL    HW1  704   2.412   0.060   0.210  1.0805  0.8564 -1.8096
  235SOL    HW2  705   2.491   3.025   0.271 -1.8051 -0.1913  0.1461
  236SOL     OW  706   2.653   2.258   2.304 -0.0181 -0.4745 -0.7324
  236SOL    HW1  707   2.731   2.262   2.234 -0.4493 -3.8991  1.9818
  236SOL    HW2  708   2.668   2.321   2.383  0.5714 -1.1318  1.6463
  237SOL     OW  709   1.298   1.229   1.823  0.1358  0.2758 -0.0559
  237SOL    HW1  710   1.374   1.279   1.776  1.4685 -2.3325 -0.4789
  237SOL    HW2  711   1.247   1.182   1.753 -0.3982  0.6753  1.1076
  238SOL     OW  712   2.211   0.165   2.506  0.3880 -0.1512  0.2802
  238SOL    HW1  713   2.256   0.186   2.416  0.7930  1.1574 -1.7234
  238SOL    HW2  714   2.141   0.238   2.531  0.2864 -1.5655  1.6764
  239SOL     OW  715   0.353   1.895   2.105  0.1785  0.7465 -0.8081
  239SOL    HW1  716   0.437   1.842   2.132 -0.2793  1.0846  0.7204
  239SOL    HW2  717   0.353   1.910   2.004  2.1837 -0.7882  0.1506
  240SOL     OW  718   2.786   2.676   0.832 -0.2551 -0.4767  0.0172
  240SOL    HW1  719   2.789   2.720   0.923  0.8866  1.4423 -1.0163
  240SOL    HW2  720   2.729   2.593   0.841 -0.5798  2.4162  0.6781
  241SOL     OW  721   1.905   2.000   0.819  0.3782  0.0023  0.0133
  241SOL    HW1  722   1.998   1.958   0.822 -0.9645  1.7474 -1.5255
  241SOL    HW2  723   1.827   1.937   0.822 -0.2898  0.7343  0.2634
  242SOL     OW  724   1.168   1.763   2.772  0.2416 -0.0826  0.2465
  242SOL    HW1  725   1.148   1.682   2.828 -0.7031 -0.9902 -1.2274
  242SOL    HW2  726   1.188   1.732   2.677  0.1307  0.2265 -1.8817
  243SOL     OW  727   0.596   2.667   2.197 -0.3881 -0.0961 -1.0680
  243SOL    HW1  728   0.620   2.762   2.177 -2.0025 -0.5329  3.3773
  243SOL    HW2  729   0.685   2.612   2.204  3.1661 -0.5702 -0.3164
  244SOL     OW  730   2.269   3.008   2.976 -0.5293  0.1682  0.1241
  244SOL    HW1  731   2.336   3.074   2.936 -0.5417 -0.9484  2.0547
  244SOL    HW2  732   2.201   2.987   2.902  0.5185  0.6086 -1.4354
  245SOL     OW  733   1.394   2.632   0.455 -0.1188 -0.0472 -0.3732
  245SOL    HW1  734   1.343   2.544   0.471 -0.5156 -0.3735  2.7038
  245SOL    HW2  735   1.338   2.705   0.413  1.4702 -1.9597 -1.7910
  246SOL     OW  736   0.871   2.965   0.228 -0.5881 -0.5665 -0.1744
  246SOL    HW1  737   0.919   3.054   0.218  1.0048  2.0307  1.3600
  246SOL    HW2  738   0.836   2.950   0.323 -3.5481 -0.2829  1.1070
  247SOL     OW  739   0.742   0.787   2.116  0.2628  0.4619 -0.7334
  247SOL    HW1  740   0.819   0.753   2.053 -0.2484 -0.4570 -1.5567
  247SOL    HW2  741   0.779   0.849   2.193  0.0438 -1.0476  1.4830
  248SOL     OW  742   1.156   1.423   2.298 -0.2598 -0.5527 -0.4248
  248SOL    HW1  743   1.186   1.436   2.204 -2.9090  0.6416 -2.3206
  248SOL    HW2  744   1.195   1.496   2.356  0.3650 -0.8601  0.3405
  249SOL     OW  745   2.060   0.373   0.487  0.5434  0.4081 -0.0697
  249SOL    HW1  746   2.134   0.387   0.552 -2.3400 -2.9778 -2.8731
  249SOL    HW2  747   1.989   0.448   0.497  1.2906  0.5414  0.9827
  250SOL     OW  748   0.642   0.074   0.579  0.4182 -0.1619  0.2119
  250SOL    HW1  749   0.582   0.023   0.512 -0.0209 -2.3223  0.5539
  250SOL    HW2  750   0.701   0.138   0.529 -2.6552  0.5033 -1.6875
  251SOL     OW  751   1.617   0.230   2.850  0.3717 -0.3138 -0.3554
  251SOL    HW1  752   1.694   0.214   2.788 -1.0716 -0.3167 -0.4994
  251SOL    HW2  753   1.551   0.151   2.851 -0.1442 -0.1419  1.2741
  252SOL     OW  754   1.716   1.279   2.139  0.7327  0.1087 -0.4376
  252SOL    HW1  755   1.677   1.342   2.211  0.6810  0.1251  0.4110
  252SOL    HW2  756   1.805   1.240   2.166 -2.1838 -0.9555  1.2894
  253SOL     OW  757   2.630   2.561   1.862 -0.1896  0.2045 -0.5031
  253SOL    HW1  758   2.677   2.574   1.954  1.0386 -2.2364  0.1063
  253SOL    HW2  759   2.623   2.458   1.843 -0.8302 -0.7153  0.0334
  254SOL     OW  760   0.659   1.244   1.201  0.5073 -0.8191  0.0867
  254SOL    HW1  761   0.701   1.195   1.119 -0.0221 -1.8104 -0.0091
  254SOL    HW2  762   0.712   1.328   1.228 -0.0163  0.9282  0.1060
  255SOL     OW  763   1.231   0.826   1.312 -0.2520 -0.0786  0.0768
  255SOL    HW1  764   1.137   0.797   1.312  0.6406 -1.0876  1.7382
  255SOL    HW2  765   1.251   0.907   1.251 -1.1499 -0.6965  0.6230
  256SOL     OW  766   1.970   2.571   1.871 -0.2953 -0.5664  0.4412
  256SOL    HW1  767   1.899   2.501   1.885  1.9969 -1.4034 -0.0325
  256SOL    HW2  768   2.041   2.550   1.799  0.1448  0.6236 -1.8790
  257SOL     OW  769   0.158   2.929   2.896 -0.6397  0.5086  0.0641
  257SOL    HW1  770   0.162   3.032   2.908 -0.5737 -0.8679 -1.1396
  257SOL    HW2  771   0.254   2.890   2.894  2.8761  1.5661  0.7315
  258SOL     OW  772   0.900   2.874   2.006  0.2614 -0.8881  0.2074
  258SOL    HW1  773   0.961   2.831   2.075 -0.1879 -1.7054  1.2090
  258SOL    HW2  774   0.860   2.797   1.957 -2.0857  0.1453  0.3443
  259SOL     OW  775   1.280   3.033   2.258  0.2719  0.2439 -0.2309
  259SOL    HW1  776   1.336   0.007   2.272 -0.0373 -0.7217  1.2704
  259SOL    HW2  777   1.281   2.992   2.165 -2.2053  2.8578  0.1559
  260SOL     OW  778   1.586   0.357   0.915 -0.0509 -0.2808  0.0160
  260SOL    HW1  779   1.522   0.299   0.860  0.3180  0.2290  1.3697
  260SOL    HW2  780   1.678   0.365   0.865 -1.8340 -0.5328 -1.0107
  261SOL     OW  781   0.035   0.599   2.665  0.1337 -1.4278  1.0302
  261SOL    HW1  782   0.073   0.511   2.692 -0.5159 -1.9560  1.7125
  261SOL    HW2  783   0.110   0.673   2.675  2.1553  2.3388 -0.4889
  262SOL     OW  784   2.991   2.467   1.978  0.4681 -0.1190 -0.4263
  262SOL    HW1  785   2.991   2.397   1.909  2.1558  1.7589  1.8039
  262SOL    HW2  786   2.990   2.558   1.933  0.7870  0.9652  1.0679
  263SOL     OW  787   2.672   1.744   2.195 -0.0399  0.4146  0.2593
  263SOL    HW1  788   2.776   1.734   2.205  1.4031 -0.3229 -0.6600
  263SOL    HW2  789   2.626   1.761   2.286  1.3826  2.4768  0.7270
  264SOL     OW  790   0.603   1.213   0.835  0.1384  0.2703 -0.2439
  264SOL    HW1  791   0.666   1.165   0.898 -0.3666  0.3240 -0.5127
  264SOL    HW2  792   0.617   1.174   0.744  0.5536 -0.8654 -0.7776
  265SOL     OW  793   0.682   2.180   0.005  0.4772  0.3793 -0.4486
  265SOL    HW1  794   0.748   2.115   3.073  0.2230 -2.2672  1.5271
  265SOL    HW2  795   0.735   2.217   0.087  0.6599  0.5301 -2.0741
  266SOL     OW  796   1.423   0.574   0.905  0.0822 -0.2098  0.2756
  266SOL    HW1  797   1.480   0.491   0.913 -0.5476  1.8483 -0.2696
  266SOL    HW2  798   1.398   0.584   0.808 -4.6798 -3.3208  2.9317
  267SOL     OW  799   3.057   1.190   3.099 -0.8405 -0.0281 -0.1655
  267SOL    HW1  800   3.089   1.187   0.094  1.9388 -1.9704  2.0382
  267SOL    HW2  801   3.041   1.099   3.054 -0.8611 -4.9314 -2.7748
  268SOL     OW  802   1.910   0.113   0.104 -0.0058  0.1451 -0.0900
  268SOL    HW1  803   1.890   0.201   0.144 -1.6904 -3.5409 -0.7464
  268SOL    HW2  804   1.852   0.043   0.146  1.9396 -0.5727 -0.4119
  269SOL     OW  805   1.754   0.661   2.757  0.0764 -1.1761  0.2390
  269SOL    HW1  806   1.736   0.575   2.701 -2.4669 -1.8808  0.1787
  269SOL    HW2  807   1.664   0.698   2.788 -1.3152 -1.1742  0.6419
  270SOL     OW  808   0.590   0.794   3.072 -0.4429 -0.0036 -0.2148
  270SOL    HW1  809   0.525   0.741   0.017  1.0732  1.2998 -1.6427
  270SOL    HW2  810   0.533   0.842   3.007 -0.7519  0.9847  0.9117
  271SOL     OW  811   3.056   0.923   0.188 -0.0991 -0.5784  0.0833
  271SOL    HW1  812   3.088   0.855   0.120 -0.5873  0.6937  0.7957
  271SOL    HW2  813   0.002   1.010   0.193  1.0687  2.0236  2.4390
  272SOL     OW  814   0.068   2.029   2.878  0.0023 -0.4626  0.2077
  272SOL    HW1  815   3.077   2.042   2.859 -1.1345  1.8490 -0.0274
  272SOL    HW2  816   0.117   2.041   2.788 -0.0328 -1.0719  1.7633
  273SOL     OW  817   2.416   3.023   0.833  0.2281 -0.2184 -0.2838
  273SOL    HW1  818   2.385   3.068   0.924  0.3418 -0.4497  1.9729
  273SOL    HW2  819   2.379   3.071   0.750 -3.7614 -3.8711  2.4090
  274SOL     OW  820   0.344   2.272   0.793 -0.3806  0.1029  0.5020
  274SOL    HW1  821   0.395   2.193   0.763  1.0654  3.1279  0.1923
  274SOL    HW2  822   0.376   2.358   0.747 -1.0712  0.9429 -2.8361
  275SOL     OW  823   2.497   1.548   0.431 -0.6002 -0.4131  0.2197
  275SOL    HW1  824   2.595   1.586   0.434  0.8350  0.5738  0.2807
  275SOL    HW2  825   2.492   1.449   0.447 -1.2232 -0.5601 -0.3589
  276SOL     OW  826   0.283   1.120   2.205  0.1265 -0.0016 -0.2666
  276SOL    HW1  827   0.242   1.038   2.161 -0.1464 -2.5844  0.1718
  276SOL    HW2  828   0.302   1.194   2.142  0.2079 -1.1685  2.0103
  277SOL     OW  829   1.990   2.782   1.346  0.0753 -0.4439 -0.2767
  277SOL    HW1  830   2.069   2.726   1.321  0.3490 -0.8117  0.3120
  277SOL    HW2  831   1.928   2.794   1.259 -1.5016  0.0977 -0.5514
  278SOL     OW  832   1.265   2.954   1.996 -0.1231 -0.0846 -0.0373
  278SOL    HW1  833   1.202   2.926   1.920  1.7331 -0.1019  1.6448
  278SOL    HW2  834   1.274   3.059   2.000  0.3061  0.2888 -1.6015
  279SOL     OW  835   1.644   2.030   0.468 -0.0648 -0.1353 -0.2090
  279SOL    HW1  836   1.544   2.040   0.453  0.4707  1.2389 -1.2811
  279SOL    HW2  837   1.691   1.962   0.407  0.9882 -0.5454 -0.0499
  280SOL     OW  838   0.094   1.780   0.993 -0.1861  0.6030  0.1702
  280SOL    HW1  839   0.139   1.761   0.902 -0.4286  0.4284 -3.0087
  280SOL    HW2  840   0.009   1.723   1.000  0.1377  0.9120 -2.4447
  281SOL     OW  841   3.025   0.634   2.368 -0.1092  0.1847 -0.6897
  281SOL    HW1  842   0.003   0.579   2.377  0.6950 -1.0446 -2.5326
  281SOL    HW2  843   2.959   0.595   2.434  2.7830 -0.7940 -2.5546
  282SOL     OW  844   0.673   1.047   0.570  0.2783  0.1455 -0.0213
  282SOL    HW1  845   0.589   1.076   0.519  1.7567  1.8733 -0.0919
  282SOL    HW2  846   0.744   1.017   0.505  0.8275 -0.3504 -1.0416
  283SOL     OW  847   1.628   2.203   2.951 -0.2216  0.2539  0.2594
  283SOL    HW1  848   1.675   2.289   2.928 -0.9917  0.5688 -0.7312
  283SOL    HW2  849   1.663   2.123   2.895  2.9294 -4.6575 -2.0084
  284SOL     OW  850   1.182   0.558   0.301  0.8320  1.0220 -0.4749
  284SOL    HW1  851   1.185   0.499   0.218  0.5607 -0.5830  2.0127
  284SOL    HW2  852   1.274   0.566   0.341  0.2003 -2.8783  1.7137
  285SOL     OW  853   2.049   1.075   2.599 -0.1796  0.1306 -0.2560
  285SOL    HW1  854   2.010   0.981   2.595 -0.0212 -1.1638 -3.3737
  285SOL    HW2  855   2.062   1.108   2.694 -0.5405  0.1689 -1.4634
  286SOL     OW  856   1.326   2.704   1.464 -0.0356  0.0801  0.0556
  286SOL    HW1  857   1.375   2.792   1.465 -1.2741 -1.0854 -1.5700
  286SOL    HW2  858   1.385   2.643   1.521 -1.1360  1.2737  0.6115
  287SOL     OW  859   1.086   0.821   0.764  0.1509  0.1712 -0.1281
  287SOL    HW1  860   1.018   0.742   0.765  2.6735  0.5839 -0.9117
  287SOL    HW2  861   1.157   0.792   0.696 -1.0948 -1.6520 -0.3369
  288SOL     OW  862   1.042   2.574   0.334 -0.3053  0.0940 -0.1387
  288SOL    HW1  863   1.087   2.662   0.363  1.1446  4.4716  0.9276
  288SOL    HW2  864   0.950   2.562   0.377 -1.1137 -0.7105  2.3667
  289SOL     OW  865   0.541   1.362   1.637  0.2268  0.0770  0.2944
  289SOL    HW1  866   0.608   1.444   1.624  2.5870 -0.7122  1.6802
  289SOL    HW2  867   0.595   1.280   1.617  2.3221 -0.5801 -1.9950
  290SOL     OW  868   1.643   2.379   0.960 -0.6100  0.1633 -0.0804
  290SOL    HW1  869   1.565   2.352   1.021  2.5066 -0.8456  4.2983
  290SOL    HW2  870   1.638   2.481   0.944  0.7327  1.0937  0.1332
  291SOL     OW  871   1.602   2.901   2.916  0.1022 -0.0001  0.3926
  291SOL    HW1  872   1.586   2.832   2.844  3.1299  0.1943 -0.0832
  291SOL    HW2  873   1.671   2.871   2.989  0.7415  0.0458 -0.1293
  292SOL     OW  874   1.094   0.203   1.774  0.1355  0.1504 -0.4020
  292SOL    HW1  875   1.167   0.264   1.814  2.5838 -1.8099 -2.7374
  292SOL    HW2  876   1.061   0.139   1.844  2.3257 -2.2598 -0.6445
  293SOL     OW  877   1.932   2.257   0.929  0.2612 -0.1818 -0.5918
  293SOL    HW1  878   1.933   2.159   0.896 -1.5428 -0.2060 -1.4492
  293SOL    HW2  879   1.848   2.277   0.985  0.2967  0.1631 -0.8344
  294SOL     OW  880   0.618   0.751   2.442 -0.1899  0.1475  0.8632
  294SOL    HW1  881   0.529   0.788   2.438  2.5496 -0.6894 -1.6680
  294SOL    HW2  882   0.677   0.790   2.514  1.9247 -0.2115 -2.2077
  295SOL     OW  883   1.553   1.679   0.980  0.1446  0.0781 -1.0132
  295SOL    HW1  884   1.654   1.681   0.991 -0.5697 -0.2256 -1.1000
  295SOL    HW2  885   1.519   1.774   0.970 -1.0906 -0.5829 -0.4513
  296SOL     OW  886   2.399   1.834   3.070 -0.2383  0.8858  0.2652
  296SOL    HW1  887   2.362   1.920   3.029 -1.1922  2.7541  1.3210
  296SOL    HW2  888   2.462   1.861   0.037 -1.4013 -0.7766  1.1904
  297SOL     OW  889   2.130   2.993   0.366 -0.0712 -0.0160 -0.3757
  297SOL    HW1  890   2.031   2.988   0.387 -2.7021 -1.5543 -1.5780
  297SOL    HW2  891   2.145   3.013   0.272  1.3460  2.7521  3.1951
  298SOL     OW  892   0.995   2.500   2.338 -0.4637  0.5803 -0.0299
  298SOL    HW1  893   0.939   2.439   2.401  0.6481 -2.2944  2.9535
  298SOL    HW2  894   1.095   2.492   2.361 -1.5982  0.6760 -0.7400
  299SOL     OW  895   1.531   2.640   2.075  0.0004  0.5061 -0.3679
  299SOL    HW1  896   1.431   2.649   2.093  0.8522  0.9179 -0.7440
  299SOL    HW2  897   1.579   2.611   2.163 -0.8455 -1.3511  1.7950
  300SOL     OW  898   2.465   0.070   2.872 -0.1046  0.1170 -0.1480
  300SOL    HW1  899   2.450   0.159   2.925 -1.4406 -3.0321  1.3925
  300SOL    HW2  900   2.514   0.083   2.780 -0.0323 -0.5534 -3.1065
  301SOL     OW  901   1.425   0.734   2.210 -0.2322  0.1987  0.2780
  301SOL    HW1  902   1.424   0.836   2.227  0.3363  0.8943 -0.2011
  301SOL    HW2  903   1.480   0.720   2.128  3.6271  2.0512 -0.6079
  302SOL     OW  904   2.341   2.587   0.442  0.1661  0.2801  0.8291
  302SOL    HW1  905   2.332   2.491   0.405  0.0724 -1.2442 -1.2282
  302SOL    HW2  906   2.412   2.599   0.511 -0.1101  1.3932  0.8467
  303SOL     OW  907   2.912   2.627   2.340  0.1933 -0.5224 -0.5780
  303SOL    HW1  908   2.977   2.566   2.394  2.9154 -2.0195 -1.5358
  303SOL    HW2  909   2.834   2.658   2.403  1.5098  0.4729  0.8110
  304SOL     OW  910   2.720   0.740   1.926  0.1878 -0.0259 -0.7355
  304SOL    HW1  911   2.724   0.841   1.898 -0.9901 -1.4075  1.1001
  304SOL    HW2  912   2.800   0.725   1.983 -1.5154  0.5631 -1.0354
  305SOL     OW  913   0.607   1.853   1.695 -0.4665  0.1090 -0.0951
  305SOL    HW1  914   0.605   1.909   1.614 -1.1455 -0.4082 -0.1008
  305SOL    HW2  915   0.634   1.900   1.781 -3.2379  0.5226  0.4980
  306SOL     OW  916   3.056   0.973   1.822  0.0826 -0.5642  0.8869
  306SOL    HW1  917   3.093   0.929   1.902 -0.3616 -0.5044 -2.6583
  306SOL    HW2  918   3.072   0.921   1.735  1.2306 -1.0610 -1.5253
  307SOL     OW  919   1.291   0.375   1.874 -0.0578  0.2590  0.6565
  307SOL    HW1  920   1.219   0.443   1.886  1.6257 -1.8669  1.6591
  307SOL    HW2  921   1.351   0.406   1.798  1.1469 -1.5323  1.1836
  308SOL     OW  922   3.063   1.221   1.130 -0.8913  0.4661  0.5415
  308SOL    HW1  923   3.073   1.135   1.181 -1.0376  1.0813 -0.2067
  308SOL    HW2  924   2.969   1.238   1.102 -0.0457  1.0249  1.8891
  309SOL     OW  925   2.329   1.302   0.758 -0.1814  0.5346 -0.4203
  309SOL    HW1  926   2.316   1.314   0.857  1.7563 -1.4883  1.5712
  309SOL    HW2  927   2.429   1.313   0.744  0.8275 -0.4161  1.8550
  310SOL     OW  928   2.913   1.995   2.721 -0.2713  0.4180  0.1820
  310SOL    HW1  929   2.931   1.942   2.633  2.1831 -1.1991 -2.0322
  310SOL    HW2  930   2.819   2.035   2.709 -1.7158  0.9448 -0.0452
  311SOL     OW  931   0.023   2.729   2.731 -0.5919 -0.1527  0.0960
  311SOL    HW1  932   3.028   2.757   2.733 -1.8117  2.1087  1.5316
  311SOL    HW2  933   0.076   2.801   2.787  0.3382  2.8057  0.4372
  312SOL     OW  934   2.148   1.858   0.181  0.4324  0.1497  0.0251
  312SOL    HW1  935   2.245   1.825   0.173 -1.1348  2.0503  0.4962
  312SOL    HW2  936   2.086   1.778   0.199  1.4098  2.3339  1.9641
  313SOL     OW  937   2.694   2.956   0.848  0.1197  0.4132  0.1574
  313SOL    HW1  938   2.719   2.868   0.807 -1.8600  1.0648 -0.1692
  313SOL    HW2  939   2.594   2.971   0.834 -0.9915 -1.6632 -1.0154
  314SOL     OW  940   1.375   1.074   0.057 -0.7738  0.0340  0.4639
  314SOL    HW1  941   1.405   1.036   3.073 -1.4105 -1.8492 -2.0175
  314SOL    HW2  942   1.449   1.068   0.126 -0.4088 -0.5286 -0.7306
  315SOL     OW  943   1.500   2.460   1.892 -0.2799  0.0493  0.4977
  315SOL    HW1  944   1.508   2.541   1.953  0.2225 -1.7096 -1.2784
  315SOL    HW2  945   1.439   2.391   1.936  0.3105  1.4840 -3.3127
  316SOL     OW  946   0.071   0.838   0.442  0.2661 -0.1028 -0.6627
  316SOL    HW1  947   0.104   0.746   0.424  1.8385 -0.7266  1.1357
  316SOL    HW2  948   0.019   0.872   0.360  1.7249 -0.1064  0.6599
  317SOL     OW  949   0.353   0.041   0.463  0.3976  0.5296  0.1113
  317SOL    HW1  950   0.252   0.036   0.463 -0.5075  0.3268  1.3438
  317SOL    HW2  951   0.397   3.058   0.470  4.5663 -1.1085  1.4066
  318SOL     OW  952   1.990   2.406   0.462  0.4893 -0.4127  0.2201
  318SOL    HW1  953   1.946   2.321   0.495 -2.5730 -1.7406  3.8950
  318SOL    HW2  954   2.021   2.394   0.366 -1.2297  1.0975 -2.7418
  319SOL     OW  955   1.058   1.572   2.935 -0.2887  0.4309 -0.6467
  319SOL    HW1  956   1.018   1.606   3.021  0.4934 -0.8731 -1.0190
  319SOL    HW2  957   0.988   1.522   2.875 -0.7707  0.2113 -0.0264
  320SOL     OW  958   0.324   2.316   2.040 -0.2231 -0.1496 -0.1674
  320SOL    HW1  959   0.276   2.249   1.984  0.8098 -0.2162 -0.3176
  320SOL    HW2  960   0.262   2.393   2.056  0.2283  1.2511  0.5230
  321SOL     OW  961   1.613   2.760   2.695  0.2298  0.4152  0.0244
  321SOL    HW1  962   1.680   2.687   2.673 -1.5894  1.0258  1.0516
  321SOL    HW2  963   1.596   2.815   2.615  3.3266  1.8765  0.1982
  322SOL     OW  964   2.818   1.313   2.259  0.7809 -0.3121 -0.0866
  322SOL    HW1  965   2.781   1.382   2.320  2.4526 -2.2582 -2.6718
  322SOL    HW2  966   2.784   1.322   2.163 -2.4520  0.1586  2.8183
  323SOL     OW  967   2.180   1.184   0.556 -0.2899  0.2391  0.7095
  323SOL    HW1  968   2.201   1.239   0.640 -1.2651 -0.5743 -3.2119
  323SOL    HW2  969   2.083   1.188   0.521 -1.4669 -2.1003  1.1307
  324SOL     OW  970   2.964   0.014   2.860  0.2630  0.5045  0.1030
  324SOL    HW1  971   2.961   0.100   2.908 -0.3509 -5.7126  0.3431
  324SOL    HW2  972   2.881   3.063   2.883 -0.8889  0.1677 -1.9691
  325SOL     OW  973   1.277   0.661   2.655  1.1744  0.1416 -0.3674
  325SOL    HW1  974   1.190   0.662   2.709  0.7546 -1.9980  0.1447
  325SOL    HW2  975   1.345   0.588   2.675  0.0316  0.4339 -2.8989
  326SOL     OW  976   2.179   2.940   1.708  0.2806 -0.0993 -0.2371
  326SOL    HW1  977   2.215   3.031   1.705 -2.7431 -1.2503 -0.9444
  326SOL    HW2  978   2.248   2.870   1.737  0.3228  1.2229 -1.0934
  327SOL     OW  979   1.972   0.202   2.952  0.5561 -0.2453  0.0178
  327SOL    HW1  980   2.027   0.143   2.891  0.1597  1.0449  0.4621
  327SOL    HW2  981   1.944   0.158   3.041  2.3413  1.5782 -2.1404
  328SOL     OW  982   0.135   1.180   2.434  0.0801  0.5254  0.2664
  328SOL    HW1  983   0.198   1.135   2.359  0.3198 -0.3586  1.9726
  328SOL    HW2  984   0.036   1.171   2.410 -2.2035  0.3942 -0.0114
  329SOL     OW  985   1.992   3.063   2.095  0.3624  0.1717  0.4133
  329SOL    HW1  986   1.971   2.998   2.020  2.1683  0.6899 -0.3083
  329SOL    HW2  987   2.088   3.092   2.078 -1.5748  1.1844  0.1704
  330SOL     OW  988   0.001   1.474   1.166  0.9905 -0.1554  0.2878
  330SOL    HW1  989   3.085   1.376   1.151  2.7245 -2.7195 -1.0252
  330SOL    HW2  990   0.046   1.494   1.255 -0.2167  0.3036 -0.2455
  331SOL     OW  991   0.560   1.729   2.157 -0.1570  0.5234 -0.1583
  331SOL    HW1  992   0.635   1.794   2.151  0.3267  0.9249 -1.0514
  331SOL    HW2  993   0.580   1.649   2.095  1.8707 -0.5272 -1.6450
  332SOL     OW  994   0.098   2.855   1.696  0.0641  0.0443  0.2258
  332SOL    HW1  995   0.178   2.881   1.757  2.2434  0.0526  1.4001
  332SOL    HW2  996   0.110   2.870   1.596 -0.2772 -1.5146  3.2544
  333SOL     OW  997   2.218   2.636   1.256 -0.2872  0.4857 -0.0412
  333SOL    HW1  998   2.300   2.608   1.306 -1.5881  0.5443 -0.7362
  333SOL    HW2  999   2.193   2.571   1.181 -0.4052  0.2381  0.1157
  334SOL     OW 1000   1.062   1.888   0.799  0.4440 -0.4156  0.1374
  334SOL    HW1 1001   1.044   1.787   0.794 -1.0632  1.2232 -0.2291
  334SOL    HW2 1002   1.054   1.927   0.893  1.9219  2.9538  0.5044
  335SOL     OW 1003   3.071   2.789   3.055 -0.5593 -0.3537 -0.4835
  335SOL    HW1 1004   0.007   2.854   2.990  1.9268 -0.3225 -1.8290
  335SOL    HW2 1005   3.069   2.698   3.011 -1.1199  0.2830  0.1540
  336SOL     OW 1006   0.519   0.050   2.180 -0.2570 -0.1551 -0.0998
  336SOL    HW1 1007   0.455   0.067   2.257 -0.0321 -0.2039  0.9186
  336SOL    HW2 1008   0.566   3.071   2.187 -2.8867  3.7545 -0.5933
  337SOL     OW 1009   2.371   2.109   3.003  0.1663 -0.2517  0.0394
  337SOL    HW1 1010   2.429   2.131   3.083 -2.4169 -2.4902  1.2659
  337SOL    HW2 1011   2.424   2.083   2.919  1.5705  0.2984 -1.8940
  338SOL     OW 1012   1.074   1.600   1.101 -0.3858  0.0334  0.4544
  338SOL    HW1 1013   1.042   1.591   1.004  0.3396  2.3324  2.2316
  338SOL    HW2 1014   1.174   1.571   1.109  1.3677  0.1644 -2.9090
  339SOL     OW 1015   0.351   1.015   1.630  0.2987  0.0828 -0.0328
  339SOL    HW1 1016   0.370   1.046   1.726  0.8683 -0.0990  0.7479
  339SOL    HW2 1017   0.425   1.041   1.565  1.9726 -1.4404  1.7401
  340SOL     OW 1018   1.403   2.400   0.202  0.0053 -0.3486 -0.1022
  340SOL    HW1 1019   1.497   2.384   0.239  1.1732 -0.4746 -0.4211
  340SOL    HW2 1020   1.407   2.486   0.144 -1.5955  3.5519 -0.0533
  341SOL     OW 1021   1.870   1.456   0.865  0.0436  0.2157 -0.2763
  341SOL    HW1 1022   1.885   1.394   0.945 -0.5880 -0.2951 -1.1361
  341SOL    HW2 1023   1.772   1.457   0.841 -0.9150 -1.0344 -1.6524
  342SOL     OW 1024   2.647   2.839   0.493 -0.1305  0.1780  0.2794
  342SOL    HW1 1025   2.653   2.744   0.528 -0.7702 -0.1501 -0.0262
  342SOL    HW2 1026   2.601   2.849   0.404 -0.5712  0.4413  2.0916
  343SOL     OW 1027   1.435   2.324   1.117  0.0311  0.0360 -0.8313
  343SOL    HW1 1028   1.388   2.285   1.037 -0.7465  0.0369  1.5377
  343SOL    HW2 1029   1.388   2.302   1.206  0.0859 -0.4806  0.8413
  344SOL     OW 1030   2.254   2.492   0.812  0.5990 -0.6338  0.0945
  344SOL    HW1 1031   2.165   2.541   0.793 -0.6970  0.7142  0.8960
  344SOL    HW2 1032   2.304   2.552   0.878 -2.2468  0.5396 -0.7740
  345SOL     OW 1033   2.663   2.296   3.054  0.1258 -0.5844 -0.6500
  345SOL    HW1 1034   2.619   2.217   3.101  0.5065  1.6275 -0.2747
  345SOL    HW2 1035   2.738   2.323   0.008 -2.0398 -3.0001  0.0904
  346SOL     OW 1036   2.923   1.686   0.749  0.2365  0.2779 -0.2457
  346SOL    HW1 1037   2.924   1.649   0.844  1.6803 -0.6685 -1.7078
  346SOL    HW2 1038   3.019   1.702   0.720  0.7422  0.9770 -0.3690
  347SOL     OW 1039   2.342   2.281   1.411 -0.3124 -0.1016  0.6396
  347SOL    HW1 1040   2.252   2.287   1.456 -0.9372  2.0813  1.6279
  347SOL    HW2 1041   2.398   2.368   1.416  0.9835  2.4990 -2.9832
  348SOL     OW 1042   0.642   2.114   2.783 -0.4160  0.0609 -0.1193
  348SOL    HW1 1043   0.681   2.049   2.716  1.0252 -1.7641 -1.8512
  348SOL    HW2 1044   0.598   2.074   2.863 -1.0878  0.7347 -1.5619
  349SOL     OW 1045   2.251   1.364   1.572  0.6777 -0.3097  0.2229
  349SOL    HW1 1046   2.163   1.313   1.565  2.3992  0.8142  1.0686
  349SOL    HW2 1047   2.233   1.457   1.613  1.4705  0.4088  2.2937
  350SOL     OW 1048   0.238   2.531   0.863  0.1283  0.0719  0.0812
  350SOL    HW1 1049   0.184   2.567   0.784  0.3579 -1.2670 -0.6649
  350SOL    HW2 1050   0.222   2.432   0.870  0.3459  0.3831 -3.4011
  351SOL     OW 1051   0.489   0.621   2.169 -0.7521 -0.1424 -0.0110
  351SOL    HW1 1052   0.544   0.700   2.195 -1.3397 -3.8614 -2.0962
  351SOL    HW2 1053   0.521   0.540   2.217 -1.0508  1.5501 -0.7533
  352SOL     OW 1054   0.676   2.038   1.496 -0.1209 -0.0610 -0.0585
  352SOL    HW1 1055   0.670   2.138   1.514  0.5562 -1.7460 -2.3611
  352SOL    HW2 1056   0.597   2.018   1.433  2.4845 -2.8823  2.3122
  353SOL     OW 1057   1.440   1.731   2.583 -0.4522  0.1996 -0.2808
  353SOL    HW1 1058   1.351   1.690   2.557  0.1536  1.8984  4.3852
  353SOL    HW2 1059   1.521   1.706   2.520  1.0900 -0.4434 -2.9606
  354SOL     OW 1060   1.224   0.596   1.100 -0.4360  0.4410  0.0827
  354SOL    HW1 1061   1.293   0.597   1.023  1.6551  1.4668 -0.8460
  354SOL    HW2 1062   1.223   0.683   1.155  2.3409  0.4511 -1.0108
  355SOL     OW 1063   2.499   0.930   0.488  0.0791 -0.2923 -0.6691
  355SOL    HW1 1064   2.549   0.858   0.546  0.6063 -0.4594 -0.3659
  355SOL    HW2 1065   2.561   0.965   0.415 -0.6340  0.0892 -2.6239
  356SOL     OW 1066   2.555   1.785   2.417  0.1644 -0.1359  0.7213
  356SOL    HW1 1067   2.574   1.885   2.435  0.2042 -0.8308 -0.6685
  356SOL    HW2 1068   2.484   1.734   2.467  0.8943 -1.4044 -0.9752
  357SOL     OW 1069   0.724   2.443   1.349  0.5208 -0.4817 -0.1775
  357SOL    HW1 1070   0.796   2.445   1.281  0.6972  0.0070 -0.6077
  357SOL    HW2 1071   0.628   2.461   1.317 -1.2433  1.6799  0.7356
  358SOL     OW 1072   2.245   0.912   1.853  0.2565  0.4779  0.2865
  358SOL    HW1 1073   2.316   0.974   1.812  0.3830  0.2162 -0.0977
  358SOL    HW2 1074   2.272   0.813   1.845 -2.2265  0.8799 -1.8175
  359SOL     OW 1075   2.344   2.385   2.919 -0.2688 -0.1678 -0.2428
  359SOL    HW1 1076   2.388   2.302   2.954  1.0969  0.8813  2.3908
  359SOL    HW2 1077   2.406   2.461   2.894 -2.3810  1.3394  0.0717
  360SOL     OW 1078   1.987   0.611   1.110  0.1369  0.2440  0.3551
  360SOL    HW1 1079   1.956   0.631   1.204  1.9234 -4.0515  2.2463
  360SOL    HW2 1080   2.032   0.518   1.106  1.1888 -2.9737 -0.0532
  361SOL     OW 1081   2.259   0.061   1.033 -0.3486 -0.2675  0.2192
  361SOL    HW1 1082   2.202   0.100   1.107 -3.5800 -0.8417  0.6711
  361SOL    HW2 1083   2.224   0.073   0.939 -0.5887  1.5780 -2.8842
  362SOL     OW 1084   1.273   1.082   0.459  0.3460 -0.6655  0.3125
  362SOL    HW1 1085   1.233   1.071   0.554  0.7637 -0.6307  0.1443
  362SOL    HW2 1086   1.235   1.161   0.405 -0.0597  1.2438 -1.4764
  363SOL     OW 1087   2.400   1.602   2.627 -0.4303 -0.5964  0.5424
  363SOL    HW1 1088   2.422   1.506   2.604 -0.4020  0.8647 -2.5031
  363SOL    HW2 1089   2.425   1.610   2.727 -0.9477  1.8163 -0.6063
  364SOL     OW 1090   0.891   0.432   1.676 -0.0090  0.5576 -0.9064
  364SOL    HW1 1091   0.961   0.373   1.722 -1.0906  0.8474 -0.4594
  364SOL    HW2 1092   0.795   0.400   1.698 -2.2416  0.0569 -0.2368
  365SOL     OW 1093   0.203   0.001   0.888  0.0744  0.5971 -0.0279
  365SOL    HW1 1094   0.197   3.022   0.832 -1.1201 -1.1686  0.6542
  365SOL    HW2 1095   0.129   0.002   0.961 -2.3326  1.0971  0.5371
  366SOL     OW 1096   2.855   1.519   0.003  0.8837  0.1896 -0.1218
  366SOL    HW1 1097   2.841   1.494   0.103 -2.1532 -1.7214  1.2720
  366SOL    HW2 1098   2.924   1.457   3.062  2.3218  2.7450  2.2883
  367SOL     OW 1099   2.875   2.543   2.945 -0.3656 -0.7626  0.0913
  367SOL    HW1 1100   2.869   2.608   2.871 -1.5498 -2.8951 -0.3912
  367SOL    HW2 1101   2.791   2.545   3.002  0.2444 -2.1598 -0.5920
  368SOL     OW 1102   0.121   2.064   0.598 -0.0412  0.2915 -0.1348
  368SOL    HW1 1103   0.222   2.070   0.608  1.8855  0.7425 -0.7202
  368SOL    HW2 1104   0.080   1.987   0.648  0.4969  0.2975  2.3960
  369SOL     OW 1105   0.522   0.187   0.270 -0.2369  0.4957  0.1520
  369SOL    HW1 1106   0.464   0.111   0.301 -0.0908 -1.0381 -0.8124
  369SOL    HW2 1107   0.464   0.272   0.281 -1.0973 -1.7551  0.5882
  370SOL     OW 1108   0.366   0.964   1.014 -0.3539 -0.1453  0.0026
  370SOL    HW1 1109   0.274   0.970   0.967 -6.1378 -1.7421  1.4858
  370SOL    HW2 1110   0.427   1.045   0.989 -1.2469 -0.6169 -1.6070
  371SOL     OW 1111   1.916   2.461   0.731 -0.0099  0.0521 -0.6614
  371SOL    HW1 1112   1.960   2.464   0.639  0.6992  1.0636 -0.0057
  371SOL    HW2 1113   1.932   2.373   0.781  1.6311 -1.8237  0.2395
  372SOL     OW 1114   0.076   1.059   2.715  0.0961  0.9557  0.7263
  372SOL    HW1 1115   0.075   1.102   2.624  0.5343  0.3322  1.6117
  372SOL    HW2 1116   0.132   1.116   2.774 -0.7025  0.2885  0.9454
  373SOL     OW 1117   2.753   1.655   0.521  0.0585 -0.5443  0.1621
  373SOL    HW1 1118   2.810   1.623   0.594 -0.7651  2.1042  0.1304
  373SOL    HW2 1119   2.767   1.756   0.501  0.2710 -1.5978  1.1548
  374SOL     OW 1120   0.372   2.652   0.253  0.2140 -0.0302  0.1413
  374SOL    HW1 1121   0.329   2.585   0.314 -0.5830  1.5653 -0.4209
  374SOL    HW2 1122   0.318   2.667   0.167 -0.9784  1.9432 -1.1064
  375SOL     OW 1123   0.388   0.419   0.389  0.6333  0.1848 -0.1756
  375SOL    HW1 1124   0.403   0.380   0.481 -0.6590  2.0746  0.3132
  375SOL    HW2 1125   0.439   0.505   0.377 -0.3380 -2.5530  0.9738
  376SOL     OW 1126   0.267   2.928   1.896 -0.0368  0.0432 -0.1221
  376SOL    HW1 1127   0.271   3.027   1.898 -0.8479 -1.4610  1.9099
  376SOL    HW2 1128   0.336   2.876   1.955  0.2247  1.2225  1.2014
  377SOL     OW 1129   0.964   2.074   2.490  0.2480  0.0247  0.0639
  377SOL    HW1 1130   1.027   2.071   2.409 -0.6388  1.6073 -1.3964
  377SOL    HW2 1131   0.932   2.172   2.500  2.8754 -0.5837  1.6193
  378SOL     OW 1132   1.233   0.717   0.519  0.1517  0.4469  0.0328
  378SOL    HW1 1133   1.189   0.673   0.433 -1.5774 -0.1380 -1.3861
  378SOL    HW2 1134   1.280   0.803   0.500  0.8411 -0.6510  1.1918
  379SOL     OW 1135   0.765   1.746   2.932 -0.3590 -0.0389 -0.6458
  379SOL    HW1 1136   0.707   1.677   2.986 -0.9439  3.1369  1.5320
  379SOL    HW2 1137   0.737   1.739   2.833 -1.8934  2.5710 -2.0782
  380SOL     OW 1138   2.899   2.099   1.879  0.1672  0.2582 -0.0016
  380SOL    HW1 1139   2.975   2.144   1.825 -0.3573  0.5470  1.7924
  380SOL    HW2 1140   2.912   2.000   1.891 -0.3199 -2.4054  4.0903
  381SOL     OW 1141   0.047   1.201   1.719  0.1246  0.2887 -0.7539
  381SOL    HW1 1142   0.100   1.170   1.644 -1.0387 -0.7115  2.0588
  381SOL    HW2 1143   3.107   1.125   1.766 -0.1664  0.1437 -0.5802
  382SOL     OW 1144   2.604   2.302   0.439  0.6700 -0.3267 -0.3052
  382SOL    HW1 1145   2.513   2.300   0.480 -0.2528  0.2118 -0.2721
  382SOL    HW2 1146   2.630   2.380   0.389 -4.0842 -4.3633 -1.2756
  383SOL     OW 1147   2.255   1.867   2.267  0.2802  0.0585  0.3685
  383SOL    HW1 1148   2.211   1.801   2.200 -1.4285 -0.2211  0.8307
  383SOL    HW2 1149   2.356   1.883   2.244  1.9778  2.6510 -0.8806
  384SOL     OW 1150   0.712   1.964   2.145  0.0154  0.7212  0.7060
  384SOL    HW1 1151   0.787   1.929   2.206  2.8422 -0.9384 -2.0425
  384SOL    HW2 1152   0.677   2.053   2.180 -0.9088  0.8277  3.0422
  385SOL     OW 1153   2.970   2.245   1.021  0.7181 -0.3899 -0.3681
  385SOL    HW1 1154   3.016   2.302   0.947 -0.4467 -1.0773  1.5247
  385SOL    HW2 1155   3.037   2.172   1.043  0.7485 -0.4739 -2.8384
  386SOL     OW 1156   1.987   0.680   0.114  0.1464 -0.1754 -0.5676
  386SOL    HW1 1157   1.905   0.696   0.056 -0.3509 -1.1699 -0.7001
  386SOL    HW2 1158   1.977   0.713   0.213 -0.6090 -2.3873  0.0690
  387SOL     OW 1159   0.641   0.826   1.493 -0.5231 -0.3443  0.6359
  387SOL    HW1 1160   0.578   0.750   1.468 -1.4618  0.5172  1.4521
  387SOL    HW2 1161   0.662   0.817   1.593 -1.2936 -1.4839 -0.8037
  388SOL     OW 1162   2.787   1.047   2.167 -0.2752 -0.2339  0.5844
  388SOL    HW1 1163   2.791   1.141   2.204 -3.1512 -0.2761  0.4723
  388SOL    HW2 1164   2.840   0.980   2.222 -4.4227 -0.6375 -2.1396
  389SOL     OW 1165   1.425   0.906   2.575  0.2590 -0.3203  0.5446
  389SOL    HW1 1166   1.413   0.922   2.475 -1.0231 -1.0815  0.1187
  389SOL    HW2 1167   1.350   0.848   2.612 -0.4392 -0.8200 -1.1537
  390SOL     OW 1168   1.963   2.457   3.024  0.2332  0.3132 -0.0652
  390SOL    HW1 1169   1.877   2.472   3.073  0.7951  0.0470  0.2528
  390SOL    HW2 1170   1.941   2.392   2.949 -1.0117  1.7876  0.8102
  391SOL     OW 1171   1.855   2.327   1.341 -0.4011  0.6446 -0.5370
  391SOL    HW1 1172   1.793   2.249   1.326  0.0807 -3.0197 -0.1461
  391SOL    HW2 1173   1.799   2.411   1.332 -0.5126  1.9492  0.2868
  392SOL     OW 1174   2.923   2.453   1.439 -0.0529 -0.2605  0.6077
  392SOL    HW1 1175   2.967   2.542   1.428  0.0362  0.8183 -3.4867
  392SOL    HW2 1176   2.885   2.414   1.354  1.3426  0.7505  2.6541
  393SOL     OW 1177   1.877   1.740   2.751  0.0623  0.3266 -0.4468
  393SOL    HW1 1178   1.931   1.822   2.781 -2.3427  0.1834 -1.1221
  393SOL    HW2 1179   1.895   1.710   2.658  0.9275 -3.9012 -1.0630
  394SOL     OW 1180   0.280   0.113   0.054  0.3088  0.1628 -0.7812
  394SOL    HW1 1181   0.287   0.108   3.060 -0.6917  0.4535  0.8355
  394SOL    HW2 1182   0.354   0.158   0.099 -0.0206 -1.1683 -1.1927
  395SOL     OW 1183   1.675   1.130   1.311 -0.1452  0.4049  0.4764
  395SOL    HW1 1184   1.644   1.157   1.221 -0.4251 -1.2647 -0.0166
  395SOL    HW2 1185   1.660   1.027   1.320 -3.4033  0.1139 -0.7358
  396SOL     OW 1186   1.725   0.844   0.039 -0.7089 -0.4095  0.2026
  396SOL    HW1 1187   1.648   0.783   0.057  0.1243  0.5999 -0.5161
  396SOL    HW2 1188   1.693   0.939   0.040  0.1814 -0.1511 -0.3983
  397SOL     OW 1189   2.967   0.938   2.869 -0.0352  0.3425  0.0950
  397SOL    HW1 1190   2.893   0.871   2.841  0.7915  0.2135  1.2972
  397SOL    HW2 1191   2.997   0.992   2.791 -0.3670  0.7647 -0.8323
  398SOL     OW 1192   1.195   0.163   3.079 -0.5678 -0.1865  0.2572
  398SOL    HW1 1193   1.241   0.158   0.062  1.7879  0.6984 -1.5285
  398SOL    HW2 1194   1.163   0.072   3.038 -0.2525 -0.1555 -0.1336
  399SOL     OW 1195   2.523   2.726   2.231  0.5181 -0.4124  0.3289
  399SOL    HW1 1196   2.598   2.701   2.172 -3.5602 -0.8759  1.8286
  399SOL    HW2 1197   2.445   2.660   2.213 -2.2811 -3.4538 -0.9935
  400SOL     OW 1198   3.089   1.598   2.472 -0.9092 -0.1202 -0.0138
  400SOL    HW1 1199   0.045   1.536   2.529 -0.2395  2.0860 -1.0180
  400SOL    HW2 1200   3.069   1.554   2.380 -2.4076  0.2939 -2.2861
  401SOL     OW 1201   0.453   0.327   2.727  0.4588  0.2424 -0.1162
  401SOL    HW1 1202   0.472   0.392   2.800  1.8173 -2.1990  0.1097
  401SOL    HW2 1203   0.536   0.270   2.712  0.3545  0.2064 -0.3497
  402SOL     OW 1204   0.382   2.561   1.689 -0.4945  0.1962  0.2657
  402SOL    HW1 1205   0.440   2.602   1.620 -1.0402 -0.0584  2.4658
  402SOL    HW2 1206   0.434   2.547   1.776  1.1540  1.4249 -1.3803
  403SOL     OW 1207   0.961   1.253   1.295  0.5437 -0.5834 -0.1001
  403SOL    HW1 1208   0.922   1.174   1.348  2.6362  2.9606 -0.6385
  403SOL    HW2 1209   0.908   1.341   1.309 -3.5429  4.3928  1.7314
  404SOL     OW 1210   2.985   2.674   1.791 -0.0873  0.0703  0.6723
  404SOL    HW1 1211   2.907   2.677   1.724 -0.7262  0.5163 -0.3528
  404SOL    HW2 1212   3.052   2.748   1.766  2.4221  0.1957 -2.1447
  405SOL     OW 1213   2.945   0.434   2.080  0.5622  0.4066 -0.3802
  405SOL    HW1 1214   2.847   0.412   2.078  0.6522 -1.1096 -0.1737
  405SOL    HW2 1215   2.993   0.344   2.086 -0.0716  1.1870  1.3301
  406SOL     OW 1216   1.549   2.379   2.515 -0.2422  0.1156 -0.6331
  406SOL    HW1 1217   1.496   2.310   2.571  0.2579 -0.3496 -2.3104
  406SOL    HW2 1218   1.610   2.427   2.577  1.6231  2.3995 -1.5514
  407SOL     OW 1219   1.820   1.695   1.074 -0.4284  0.0189 -0.3734
  407SOL    HW1 1220   1.786   1.629   1.143  1.9439  1.1265 -0.7958
  407SOL    HW2 1221   1.817   1.783   1.129  0.7843 -0.3641 -1.3175
  408SOL     OW 1222   0.690   0.263   2.057  0.3990 -0.0729  0.0211
  408SOL    HW1 1223   0.627   0.188   2.088  1.3964 -1.8444  0.3511
  408SOL    HW2 1224   0.787   0.237   2.081  1.5677 -2.7804  1.1787
  409SOL     OW 1225   2.796   2.258   0.636 -0.0961  0.1521  0.2508
  409SOL    HW1 1226   2.826   2.158   0.639  1.9979 -2.5017 -0.3357
  409SOL    HW2 1227   2.722   2.273   0.565 -1.8332  0.7503 -2.0967
  410SOL     OW 1228   2.144   1.541   0.435 -0.1414  0.5736 -0.3269
  410SOL    HW1 1229   2.236   1.561   0.478  0.6056  0.3718 -1.2148
  410SOL    HW2 1230   2.081   1.495   0.502 -2.8735  2.0548  2.3215
  411SOL     OW 1231   0.007   0.771   0.696  1.0647 -0.4576 -0.3178
  411SOL    HW1 1232   0.088   0.749   0.751 -0.3111  0.6269  0.9108
  411SOL    HW2 1233   0.032   0.807   0.605 -0.2724 -0.9920 -0.1710
  412SOL     OW 1234   1.906   0.615   0.523 -0.0480 -0.3292  0.1451
  412SOL    HW1 1235   1.884   0.639   0.620 -0.4595 -0.6119 -0.3368
  412SOL    HW2 1236   1.934   0.694   0.460  0.1327  4.2990  0.1079
  413SOL     OW 1237   0.976   0.581   1.021  0.1846  0.2065  0.9124
  413SOL    HW1 1238   0.923   0.517   1.084 -1.7917 -1.9575  2.9791
  413SOL    HW2 1239   1.080   0.578   1.035  1.0837  1.3676  0.1275
  414SOL     OW 1240   0.387   1.737   0.040 -0.4256 -0.0772  0.5226
  414SOL    HW1 1241   0.288   1.717   0.053 -0.3954  0.2351 -0.7162
  414SOL    HW2 1242   0.423   1.773   0.127  0.4775  0.9735  1.1265
  415SOL     OW 1243   0.118   2.194   0.118 -0.7976 -0.2278  0.2169
  415SOL    HW1 1244   0.168   2.223   0.030  2.1962 -0.6550 -2.8330
  415SOL    HW2 1245   0.107   2.091   0.123  1.0517 -0.1070  2.5334
  416SOL     OW 1246   1.659   0.825   0.400 -0.4997 -0.2547  0.2908
  416SOL    HW1 1247   1.756   0.839   0.360 -1.1299 -0.9910  2.6226
  416SOL    HW2 1248   1.660   0.804   0.500 -0.0208  0.9922 -3.6234
  417SOL     OW 1249   0.239   1.042   0.583  0.3447 -0.0773  0.0203
  417SOL    HW1 1250   0.148   1.023   0.541  0.3394 -0.4616  0.9939
  417SOL    HW2 1251   0.229   1.115   0.652  2.0638  1.3357 -0.7519
  418SOL     OW 1252   2.657   1.155   2.686 -0.1617  0.0279  0.0770
  418SOL    HW1 1253   2.624   1.104   2.607  0.5777  0.5949 -0.0154
  418SOL    HW2 1254   2.637   1.108   2.775 -0.5852  1.1905 -1.5698
  419SOL     OW 1255   0.228   0.383   3.107 -0.1981  0.2688 -0.4911
  419SOL    HW1 1256   0.174   0.339   0.073 -0.3473 -0.4753 -0.0495
  419SOL    HW2 1257   0.307   0.323   3.082  0.1914  1.9286 -1.6467
  420SOL     OW 1258   0.248   1.695   0.800  0.1397  0.9768 -0.0181
  420SOL    HW1 1259   0.243   1.613   0.859  0.4176  0.2422 -2.3142
  420SOL    HW2 1260   0.351   1.712   0.779 -0.2322 -1.3011 -3.2342
  421SOL     OW 1261   0.488   2.115   0.390 -0.1024  0.2474  0.3801
  421SOL    HW1 1262   0.519   2.202   0.342 -2.0248  0.9297  0.5491
  421SOL    HW2 1263   0.455   2.138   0.482 -0.1182  0.4631  0.6588
  422SOL     OW 1264   2.630   0.769   1.374 -0.4761  0.3862 -0.1060
  422SOL    HW1 1265   2.709   0.761   1.435 -2.0107  2.7298 -0.6727
  422SOL    HW2 1266   2.590   0.675   1.360 -1.4910  1.0114 -0.6359
  423SOL     OW 1267   1.986   1.696   0.734 -0.3824  0.3709 -0.3517
  423SOL    HW1 1268   1.926   1.659   0.807  0.1097 -1.6596 -2.2226
  423SOL    HW2 1269   1.978   1.641   0.651  0.5165  3.2894  2.3978
  424SOL     OW 1270   1.903   1.135   0.459 -0.2985  0.2380 -0.0945
  424SOL    HW1 1271   1.954   1.133   0.376  1.0263  1.5963  1.2861
  424SOL    HW2 1272   1.826   1.197   0.447  2.4805 -1.9910 -0.2505
  425SOL     OW 1273   0.205   2.996   2.271  0.1543  0.0365  0.3906
  425SOL    HW1 1274   0.254   3.078   2.298  1.3954  0.1292 -0.5090
  425SOL    HW2 1275   0.141   2.964   2.342  2.0213 -0.1061 -2.8905
  426SOL     OW 1276   2.369   2.751   2.998 -0.3308  0.3489  0.0031
  426SOL    HW1 1277   2.397   2.730   3.095  1.1245  0.5212  1.9163
  426SOL    HW2 1278   2.325   2.845   2.999 -0.0697  1.0576  1.0210
  427SOL     OW 1279   0.824   1.099   2.552  0.1150  0.0451 -0.0661
  427SOL    HW1 1280   0.782   1.016   2.591 -0.1978  1.5981 -0.9475
  427SOL    HW2 1281   0.923   1.107   2.578 -0.1851  0.0740  3.4615
  428SOL     OW 1282   2.117   0.705   2.495  0.1509  0.1746 -0.1163
  428SOL    HW1 1283   2.190   0.768   2.472 -2.0882  0.1858  0.8439
  428SOL    HW2 1284   2.029   0.745   2.462  0.0048  0.1845 -0.0122
  429SOL     OW 1285   2.507   0.355   0.687 -0.0214 -0.0996 -0.0752
  429SOL    HW1 1286   2.525   0.284   0.618  0.3864 -3.2787  0.6044
  429SOL    HW2 1287   2.407   0.365   0.693  0.3865  1.4597 -0.5255
  430SOL     OW 1288   1.991   1.265   2.159  0.7170  0.2170  0.3188
  430SOL    HW1 1289   2.030   1.213   2.233 -3.5084  0.2437 -3.1082
  430SOL    HW2 1290   2.032   1.235   2.068  0.3325  0.6221  0.9879
  431SOL     OW 1291   3.084   2.001   1.345 -0.4660  0.2631  0.3871
  431SOL    HW1 1292   3.107   2.089   1.389  2.6299 -0.2868  0.3561
  431SOL    HW2 1293   3.105   1.926   1.410 -1.1946  2.2057  0.3399
  432SOL     OW 1294   1.573   2.916   2.482 -0.5677 -0.5047  0.1728
  432SOL    HW1 1295   1.536   3.011   2.499  0.0768 -0.1344 -0.7675
  432SOL    HW2 1296   1.589   2.901   2.384 -4.2708 -1.2828 -0.9974
  433SOL     OW 1297   1.685   2.797   1.695 -0.5017 -0.4509  0.2612
  433SOL    HW1 1298   1.721   2.724   1.629  2.1897 -1.5958  0.0057
  433SOL    HW2 1299   1.663   2.885   1.650  1.8531 -1.6240 -0.5309
  434SOL     OW 1300   0.103   2.348   2.339 -0.2718  0.1120  0.4680
  434SOL    HW1 1301   0.073   2.374   2.431  1.4024  1.2977  1.6751
  434SOL    HW2 1302   0.147   2.423   2.287  1.5495 -0.6183  2.3514
  435SOL     OW 1303   2.931   2.010   0.212 -0.3537  0.4280  0.0710
  435SOL    HW1 1304   2.994   1.977   0.139  0.1711 -3.1056  0.3574
  435SOL    HW2 1305   2.954   1.967   0.303  1.8911 -2.2566  1.0335
  436SOL     OW 1306   0.927   1.049   1.804  0.5543  0.7848 -0.0439
  436SOL    HW1 1307   0.997   1.008   1.743 -1.5566  0.1942  0.0456
  436SOL    HW2 1308   0.950   1.055   1.904  3.2272  0.7560  0.1245
  437SOL     OW 1309   0.180   0.273   2.720  0.0629  0.1321  0.6481
  437SOL    HW1 1310   0.278   0.296   2.697  2.0385 -0.9978  0.7089
  437SOL    HW2 1311   0.144   0.202   2.659 -0.2294 -0.3361 -1.6075
  438SOL     OW 1312   0.720   1.580   1.598  0.4423  0.8523  0.4541
  438SOL    HW1 1313   0.683   1.667   1.621 -1.1841 -1.1698 -2.3722
  438SOL    HW2 1314   0.820   1.576   1.602 -1.9612 -1.8373  0.8096
  439SOL     OW 1315   1.960   1.069   3.056 -0.3691 -0.6687 -0.6208
  439SOL    HW1 1316   1.866   1.072   3.094 -0.7834  2.8153 -1.7624
  439SOL    HW2 1317   2.015   0.990   3.096  0.7710  0.1903  0.1205
  440SOL     OW 1318   0.888   0.856   3.102  0.1714  0.7747  0.6875
  440SOL    HW1 1319   0.960   0.918   0.034  0.7547  2.2354  0.7565
  440SOL    HW2 1320   0.794   0.870   0.039  0.4748 -0.0027 -1.5729
  441SOL     OW 1321   0.566   2.658   1.511 -0.3343  0.1872 -0.0050
  441SOL    HW1 1322   0.604   2.608   1.434 -0.4871  3.9006 -1.5170
  441SOL    HW2 1323   0.617   2.742   1.524 -0.9233 -1.3095  0.3126
  442SOL     OW 1324   2.441   2.308   0.694  0.9632  0.0345  0.1707
  442SOL    HW1 1325   2.523   2.356   0.719  1.1842 -0.2112 -0.1873
  442SOL    HW2 1326   2.358   2.359   0.717 -0.2651 -1.5395  1.7703
  443SOL     OW 1327   2.728   1.514   2.411 -0.4445  0.4569  0.6661
  443SOL    HW1 1328   2.627   1.516   2.402  1.2703  1.5792 -1.1029
  443SOL    HW2 1329   2.761   1.564   2.494  1.6561 -2.0110  0.4868
  444SOL     OW 1330   1.205   0.912   2.976  0.0181 -0.2221 -0.0285
  444SOL    HW1 1331   1.136   0.858   2.926  0.2969 -0.7271 -1.1604
  444SOL    HW2 1332   1.163   0.948   3.063  1.1186  0.0480  1.0169
  445SOL     OW 1333   2.409   2.630   1.712 -0.4194  0.3410 -0.0707
  445SOL    HW1 1334   2.488   2.597   1.767  0.8730 -2.4421 -1.0974
  445SOL    HW2 1335   2.325   2.577   1.731  1.8664  0.7615  1.6779
  446SOL     OW 1336   2.621   2.013   0.387 -0.1491 -0.5118 -0.2742
  446SOL    HW1 1337   2.719   1.990   0.391  0.5234  0.1927 -0.6240
  446SOL    HW2 1338   2.612   2.112   0.412 -0.1330  1.5875  1.2681
  447SOL     OW 1339   0.957   2.382   1.494  0.4057  0.2205 -0.0644
  447SOL    HW1 1340   0.989   2.463   1.546  1.9601  2.9581 -1.0247
  447SOL    HW2 1341   0.862   2.379   1.457 -0.7403  1.7928  0.6940
  448SOL     OW 1342   1.556   1.636   1.812  0.0337 -0.1475  0.0545
  448SOL    HW1 1343   1.570   1.709   1.879  2.0769  0.3586 -1.4128
  448SOL    HW2 1344   1.597   1.546   1.849  2.3710 -1.1461  2.0544
  449SOL     OW 1345   0.095   1.862   2.182  0.6833 -0.0613  0.1991
  449SOL    HW1 1346   0.061   1.961   2.188 -0.2026  0.3136 -2.2696
  449SOL    HW2 1347   0.189   1.854   2.139  0.0181  0.9058  1.9307
  450SOL     OW 1348   2.896   1.871   2.468 -0.2993 -0.7876  0.2528
  450SOL    HW1 1349   2.927   1.822   2.382  1.1343  2.8939  0.0117
  450SOL    HW2 1350   2.802   1.912   2.444 -1.9569 -0.2799 -0.3759
  451SOL     OW 1351   2.119   0.531   1.526  0.1193  0.4241 -0.6340
  451SOL    HW1 1352   2.187   0.595   1.485  0.0301  0.7437 -0.8749
  451SOL    HW2 1353   2.159   0.446   1.569 -0.9356  1.0001  0.3757
  452SOL     OW 1354   0.945   1.583   0.870  0.1536  0.2011 -0.2722
  452SOL    HW1 1355   0.849   1.562   0.874  1.4593  0.4233 -4.5650
  452SOL    HW2 1356   0.974   1.578   0.774  1.6574  0.3636  2.9306
  453SOL     OW 1357   1.274   2.255   0.913  0.3393 -0.0186  0.1571
  453SOL    HW1 1358   1.312   2.251   0.822  0.1739  1.0668  3.1986
  453SOL    HW2 1359   1.175   2.286   0.911 -1.0687 -0.4152 -2.2139
  454SOL     OW 1360   0.096   1.318   0.469 -0.3844  0.2582  0.2715
  454SOL    HW1 1361   0.031   1.279   0.539  3.3729  0.2840 -0.3066
  454SOL    HW2 1362   0.173   1.362   0.519  0.0435 -0.1127 -1.6382
  455SOL     OW 1363   0.832   1.008   0.341  0.3451 -0.2601 -0.1830
  455SOL    HW1 1364   0.908   0.944   0.329  0.3975  1.1295 -0.4566
  455SOL    HW2 1365   0.792   1.037   0.250  1.5740  0.0615 -2.4105
  456SOL     OW 1366   2.143   2.432   1.047  0.2185  0.1984  0.8534
  456SOL    HW1 1367   2.049   2.401   1.021 -1.8725 -0.4863  1.2071
  456SOL    HW2 1368   2.189   2.458   0.959 -1.2545  0.7014  1.6992
  457SOL     OW 1369   1.437   3.102   2.829  0.7266  0.0241  0.0655
  457SOL    HW1 1370   1.498   3.040   2.875 -0.4920  1.1044 -0.3136
  457SOL    HW2 1371   1.341   3.085   2.856 -1.9785  0.9922 -3.1354
  458SOL     OW 1372   2.518   0.286   0.214  0.2278  0.1896  0.0259
  458SOL    HW1 1373   2.427   0.329   0.203  2.7943 -1.3902 -2.1844
  458SOL    HW2 1374   2.537   0.252   0.309  3.1305 -0.8066 -2.2300
  459SOL     OW 1375   2.303   0.241   2.253  0.0139  0.1275 -0.1334
  459SOL    HW1 1376   2.260   0.314   2.198 -0.7229 -2.4461  1.6008
  459SOL    HW2 1377   2.373   0.279   2.319 -0.3348 -0.0117  0.7422
  460SOL     OW 1378   2.786   0.762   2.789 -0.0466  0.5275 -0.6949
  460SOL    HW1 1379   2.808   0.685   2.724 -0.4521 -0.8945 -1.1736
  460SOL    HW2 1380   2.738   0.725   2.873  0.2438  0.2250  0.2182
  461SOL     OW 1381   0.078   2.275   0.814 -0.3504 -0.5312 -0.3845
  461SOL    HW1 1382   0.171   2.252   0.794 -2.8059  0.4274 -0.6475
  461SOL    HW2 1383   0.033   2.319   0.732 -0.0200  2.3055  1.1278
  462SOL     OW 1384   2.909   0.133   1.210  0.5117  0.2016  0.0948
  462SOL    HW1 1385   2.868   0.119   1.116 -0.0863  2.8477  0.4895
  462SOL    HW2 1386   2.864   0.216   1.255  0.3235  0.7984 -1.3142
  463SOL     OW 1387   2.211   1.344   0.215  0.0569 -0.5086  0.3601
  463SOL    HW1 1388   2.185   1.416   0.275 -0.2436 -1.3677 -1.4345
  463SOL    HW2 1389   2.248   1.372   0.125 -1.3260 -0.2873 -1.1038
  464SOL     OW 1390   0.766   2.731   1.204 -0.2089  0.4091  0.5209
  464SOL    HW1 1391   0.825   2.757   1.280 -0.3403 -0.1585 -1.9646
  464SOL    HW2 1392   0.810   2.763   1.119  0.5044  1.3085  4.1643
  465SOL     OW 1393   1.253   0.311   1.429 -0.4155  0.3105  0.1613
  465SOL    HW1 1394   1.330   0.357   1.483  1.1747  0.4741  0.6705
  465SOL    HW2 1395   1.188   0.271   1.491  3.2354  0.3270 -1.5324
  466SOL     OW 1396   1.775   2.368   1.887 -0.1032  0.1660  0.1668
  466SOL    HW1 1397   1.793   2.373   1.986 -1.0646 -1.4402 -0.0265
  466SOL    HW2 1398   1.682   2.401   1.867  1.8202  0.0329  1.4127
  467SOL     OW 1399   0.615   2.287   1.557 -0.5270  0.0193 -0.7381
  467SOL    HW1 1400   0.514   2.286   1.571 -2.8743  1.5966  2.2028
  467SOL    HW2 1401   0.647   2.353   1.487 -0.1230  0.2187  0.8000
  468SOL     OW 1402   2.573   1.597   2.002  0.3268 -0.0798  0.0626
  468SOL    HW1 1403   2.600   1.658   2.074 -0.7164 -1.7023 -1.6801
  468SOL    HW2 1404   2.634   1.516   1.998  0.2201  1.2127  0.9673
  469SOL     OW 1405   0.987   2.111   0.676  0.3276 -0.5604 -0.3641
  469SOL    HW1 1406   0.920   2.162   0.734  1.1886  1.8520  0.7985
  469SOL    HW2 1407   1.007   2.021   0.721 -0.2846  1.5410 -0.4857
  470SOL     OW 1408   2.156   1.126   2.344  0.5305  0.4259  0.0631
  470SOL    HW1 1409   2.207   1.042   2.321  3.3285 -0.2809  0.5430
  470SOL    HW2 1410   2.106   1.113   2.431  1.1738  0.3885  0.4730
  471SOL     OW 1411   0.228   2.704   0.023 -0.0751  0.5872  0.7164
  471SOL    HW1 1412   0.169   2.763   3.075  0.6411 -2.6098 -1.0095
  471SOL    HW2 1413   0.257   2.622   3.080 -2.1721 -2.0089  1.2434
  472SOL     OW 1414   0.308   2.753   2.155 -0.1946  0.5034 -0.0805
  472SOL    HW1 1415   0.294   2.833   2.213  2.8937 -1.6288 -1.6266
  472SOL    HW2 1416   0.408   2.729   2.159  2.6271  1.4994 -2.2763
  473SOL     OW 1417   0.499   2.988   0.095  0.1097 -0.4401  0.0982
  473SOL    HW1 1418   0.423   2.921   0.072 -1.9567  1.4564 -1.3705
  473SOL    HW2 1419   0.498   3.068   0.035  0.9939 -0.7338  3.2482
  474SOL     OW 1420   2.008   2.990   1.050 -0.1185 -0.8557 -0.5918
  474SOL    HW1 1421   1.980   2.996   0.953  1.1196 -1.4962 -1.9017
  474SOL    HW2 1422   2.106   2.948   1.063  0.1903 -0.6313  3.3891
  475SOL     OW 1423   1.674   3.091   1.594 -0.2953 -0.3780  0.0957
  475SOL    HW1 1424   1.765   0.004   1.642  1.7403  0.8256  2.1382
  475SOL    HW2 1425   1.678   0.034   1.504 -0.6029 -1.7283  0.4646
  476SOL     OW 1426   0.663   1.476   0.793 -0.4092  0.0520  0.0650
  476SOL    HW1 1427   0.633   1.543   0.860  0.4492 -1.1486 -4.9971
  476SOL    HW2 1428   0.636   1.380   0.823 -1.0578  1.4455  0.2899
  477SOL     OW 1429   0.444   2.000   0.649 -0.4662  0.2479 -1.0283
  477SOL    HW1 1430   0.428   1.925   0.583  0.2544  1.1306  1.6655
  477SOL    HW2 1431   0.527   1.971   0.702 -1.0870 -0.7851  1.5676
  478SOL     OW 1432   3.094   2.517   2.555  0.2219 -0.1894 -0.3269
  478SOL    HW1 1433   0.028   2.596   2.597  0.2544 -2.6547 -2.3442
  478SOL    HW2 1434   0.002   2.431   2.611 -0.3147 -1.7283 -0.3916
  479SOL     OW 1435   3.003   0.470   1.404 -0.4999  0.0226  0.3476
  479SOL    HW1 1436   3.074   0.471   1.332 -2.5719 -2.1938 -1.2129
  479SOL    HW2 1437   3.052   0.455   1.496  1.3820  1.1932  0.7772
  480SOL     OW 1438   2.638   2.624   0.023 -0.9172 -0.6918 -0.5136
  480SOL    HW1 1439   2.673   2.595   0.115 -1.3052 -2.1946  1.8822
  480SOL    HW2 1440   2.586   2.548   3.095  2.6661 -0.3885  0.2689
  481SOL     OW 1441   2.366   1.902   1.785  0.5326 -0.4904  0.4989
  481SOL    HW1 1442   2.286   1.935   1.837  3.7569 -0.4950 -1.9613
  481SOL    HW2 1443   2.392   1.971   1.716  1.7489 -0.9131 -0.4970
  482SOL     OW 1444   1.933   2.028   2.495 -0.5972  0.4172 -0.0138
  482SOL    HW1 1445   2.030   1.993   2.492 -0.1667 -0.7810  0.7305
  482SOL    HW2 1446   1.866   1.974   2.438  1.6655 -3.0872  1.8003
  483SOL     OW 1447   0.874   1.331   2.198 -0.0116  0.1282 -0.0180
  483SOL    HW1 1448   0.884   1.244   2.150 -0.9777  2.4838 -1.3940
  483SOL    HW2 1449   0.964   1.365   2.230  0.5313  1.3865  0.0706
  484SOL     OW 1450   0.102   0.495   1.219  0.0622 -0.4247  0.2165
  484SOL    HW1 1451   0.137   0.429   1.152 -0.8608 -1.3692  0.8692
  484SOL    HW2 1452   0.041   0.567   1.179 -0.5308 -2.4877 -0.1277
  485SOL     OW 1453   2.341   0.991   0.174 -0.1306 -0.5941 -0.1644
  485SOL    HW1 1454   2.423   0.937   0.209  1.6187  1.2820 -0.7333
  485SOL    HW2 1455   2.276   1.005   0.248  0.0990 -2.8196 -0.7527
  486SOL     OW 1456   1.680   0.177   2.046  0.5163 -0.1346 -0.5349
  486SOL    HW1 1457   1.635   0.112   1.987  2.2008 -0.5019  2.8124
  486SOL    HW2 1458   1.722   0.137   2.130  2.1373  1.8674 -2.0356
  487SOL     OW 1459   0.853   1.910   1.360 -0.7201 -0.1669  0.1319
  487SOL    HW1 1460   0.793   1.970   1.414 -1.4309  0.0119  1.6783
  487SOL    HW2 1461   0.944   1.912   1.402 -2.8222 -0.6930  0.1004
  488SOL     OW 1462   2.356   1.442   3.090  0.1155  0.4563 -0.5206
  488SOL    HW1 1463   2.455   1.456   3.069  0.6273 -0.4097 -1.0510
  488SOL    HW2 1464   2.300   1.485   3.018 -1.1196  1.6863  0.4365
  489SOL     OW 1465   2.074   2.760   0.721 -0.5292 -0.0504 -0.1947
  489SOL    HW1 1466   2.006   2.728   0.786 -1.8008 -0.6150  0.5539
  489SOL    HW2 1467   2.068   2.717   0.630  0.2363  0.8859  2.4166
  490SOL     OW 1468   1.105   2.615   3.066  0.4041  0.4918 -0.9170
  490SOL    HW1 1469   1.005   2.612   3.041  1.0145  2.0176  0.2276
  490SOL    HW2 1470   1.127   2.544   0.026  0.7774 -1.2587 -0.9259
  491SOL     OW 1471   1.025   1.161   1.053  0.4672  0.0189  0.5667
  491SOL    HW1 1472   1.021   1.198   1.147  1.2884 -1.0651  1.6264
  491SOL    HW2 1473   1.078   1.218   0.986  2.0110  0.8572 -1.7289
  492SOL     OW 1474   1.443   0.369   2.428 -0.3248 -0.3360 -0.3039
  492SOL    HW1 1475   1.502   0.290   2.421 -1.9750  1.5990  0.6293
  492SOL    HW2 1476   1.493   0.448   2.465 -0.8233  0.4555  0.7141
  493SOL     OW 1477   1.919   2.223   0.125 -0.3297  0.5937  0.5248
  493SOL    HW1 1478   1.947   2.321   0.133  1.4228  0.3846  2.6105
  493SOL    HW2 1479   1.971   2.178   0.049  0.7691 -0.9854 -0.2046
  494SOL     OW 1480   0.758   1.513   0.548  0.1990  0.8680 -0.4315
  494SOL    HW1 1481   0.745   1.603   0.506  0.1458 -1.0916 -0.2086
  494SOL    HW2 1482   0.716   1.504   0.644 -1.2202  0.9326 -1.3955
  495SOL     OW 1483   2.659   2.418   0.803 -0.7055  0.5562  0.3750
  495SOL    HW1 1484   2.725   2.375   0.732  2.5296 -2.5261 -0.4421
  495SOL    HW2 1485   2.643   2.358   0.881  2.1773 -0.0818 -0.6488
  496SOL     OW 1486   2.566   3.065   1.565 -0.2812 -0.0156  0.1918
  496SOL    HW1 1487   2.598   3.072   1.663  2.9454 -0.7147  0.8620
  496SOL    HW2 1488   2.582   0.047   1.520 -0.7505  0.2101  1.7368
  497SOL     OW 1489   2.339   0.887   2.441 -0.3577  0.2181 -0.0185
  497SOL    HW1 1490   2.408   0.909   2.369 -2.5912  2.0631  0.2608
  497SOL    HW2 1491   2.350   0.933   2.531 -0.6989 -0.6357  0.2228
  498SOL     OW 1492   0.415   2.248   1.060 -0.1775  0.1140  0.4653
  498SOL    HW1 1493   0.368   2.263   0.971 -0.1490  1.1505 -1.5965
  498SOL    HW2 1494   0.356   2.185   1.118  2.0619 -3.0696  1.6182
  499SOL     OW 1495   1.054   2.626   1.591 -0.3131  0.5001 -0.3751
  499SOL    HW1 1496   1.069   2.641   1.689 -1.8408  0.3621 -0.3214
  499SOL    HW2 1497   1.140   2.656   1.545 -0.5978  1.7885  2.2177
  500SOL     OW 1498   0.976   1.981   0.145 -0.2707  0.2506 -0.2934
  500SOL    HW1 1499   0.960   1.976   0.045  0.2857  0.2856  3.5070
  500SOL    HW2 1500   0.998   1.891   0.190  0.5134 -1.3607 -0.6718
  501SOL     OW 1501   1.984   0.032   1.287 -0.0759 -0.3818  0.4753
  501SOL    HW1 1502   2.003   3.097   1.196 -0.3520  0.0493  1.6249
  501SOL    HW2 1503   1.996   3.076   1.368  1.5702  0.5623  0.9581
  502SOL     OW 1504   2.700   0.230   1.728  0.1117  0.0461 -1.1622
  502SOL    HW1 1505   2.663   0.138   1.745 -0.5148 -1.8330  1.3742
  502SOL    HW2 1506   2.804   0.232   1.745 -0.2822 -0.0813  0.2270
  503SOL     OW 1507   2.754   1.013   1.869 -0.2734 -0.1091 -0.0194
  503SOL    HW1 1508   2.848   1.011   1.826  1.9308 -1.2863  0.7317
  503SOL    HW2 1509   2.764   1.020   1.969 -0.7708  0.3227  2.7340
  504SOL     OW 1510   1.553   0.867   1.927  0.4905  0.1421 -0.2334
  504SOL    HW1 1511   1.581   0.771   1.959  0.6136 -6.5942  1.8982
  504SOL    HW2 1512   1.460   0.860   1.882 -0.4390 -0.7854 -0.7602
  505SOL     OW 1513   0.938   0.016   1.932  0.0881  0.0906 -0.4806
  505SOL    HW1 1514   0.944   3.025   1.956 -2.8181  1.3351  0.9372
  505SOL    HW2 1515   0.945   0.076   2.016 -2.4488  0.8735  1.1634
  506SOL     OW 1516   0.147   0.251   0.777  0.0105  0.0500 -0.2504
  506SOL    HW1 1517   0.226   0.251   0.712  1.0110 -1.7297 -0.3077
  506SOL    HW2 1518   0.152   0.165   0.833 -1.2177 -1.9875  1.4859
  507SOL     OW 1519   2.266   0.481   0.002  0.5502 -0.2194  0.5678
  507SOL    HW1 1520   2.249   0.442   0.097  1.1481 -1.0873 -0.1804
  507SOL    HW2 1521   2.180   0.524   3.081  0.3275  0.1367  2.5040
  508SOL     OW 1522   1.921   0.337   2.278  0.9669 -0.3593  0.3090
  508SOL    HW1 1523   2.003   0.384   2.247 -4.5271  0.3620 -0.9348
  508SOL    HW2 1524   1.849   0.407   2.288  4.4409 -2.4128  0.0737
  509SOL     OW 1525   1.266   1.496   1.522  0.0369 -0.6832 -0.7733
  509SOL    HW1 1526   1.345   1.468   1.583 -0.9046 -0.2478 -0.8334
  509SOL    HW2 1527   1.249   1.424   1.455 -2.2117  1.7376 -0.5825
  510SOL     OW 1528   2.601   1.390   0.700  0.2739 -0.2075  0.0035
  510SOL    HW1 1529   2.671   1.330   0.749 -2.2561  0.0236  2.2249
  510SOL    HW2 1530   2.588   1.473   0.756  0.8282 -0.6111  2.4560
  511SOL     OW 1531   1.859   1.925   1.258  1.1757  0.1466  0.3686
  511SOL    HW1 1532   1.887   1.906   1.352  1.2294  0.6315 -0.4932
  511SOL    HW2 1533   1.938   1.978   1.220 -0.8229  0.8682  0.0534
  512SOL     OW 1534   0.111   1.779   0.373  0.0626 -0.1424  0.3056
  512SOL    HW1 1535   0.069   1.691   0.347 -2.2370  0.1125  0.0410
  512SOL    HW2 1536   0.201   1.802   0.330 -0.8628  0.0963  0.8168
  513SOL     OW 1537   2.878   2.249   0.128  0.5280 -0.9691  1.0024
  513SOL    HW1 1538   2.879   2.153   0.151  1.8105  1.6809 -2.9038
  513SOL    HW2 1539   2.953   2.295   0.172 -0.9607  0.2370  2.1424
  514SOL     OW 1540   2.667   2.021   2.459  0.6449  0.1579  0.1558
  514SOL    HW1 1541   2.676   2.088   2.380  0.5762  0.7398  0.6642
  514SOL    HW2 1542   2.670   2.073   2.542  0.8975 -0.8996 -1.6269
  515SOL     OW 1543   1.926   1.445   0.601 -0.0325 -0.2901  0.5510
  515SOL    HW1 1544   1.921   1.451   0.701  1.8701 -1.1347 -2.5927
  515SOL    HW2 1545   1.842   1.416   0.560 -1.0042 -0.2222  3.0293
  516SOL     OW 1546   1.870   3.006   0.379 -0.6233  0.4337 -0.1174
  516SOL    HW1 1547   1.870   3.106   0.397  2.9493 -1.0436 -1.8959
  516SOL    HW2 1548   1.814   2.994   0.297 -1.5445  0.1698  3.1834
  517SOL     OW 1549   0.745   1.949   2.594  0.1433 -0.0284  0.2554
  517SOL    HW1 1550   0.824   1.972   2.536  1.6292 -2.2030 -1.4149
  517SOL    HW2 1551   0.656   1.954   2.541 -3.5075 -2.3260  0.1181
  518SOL     OW 1552   0.601   0.515   1.943 -0.6994 -0.0461  0.2589
  518SOL    HW1 1553   0.552   0.556   2.022 -2.5283  1.2132  1.1454
  518SOL    HW2 1554   0.649   0.430   1.976  1.2006 -0.3991  2.4983
  519SOL     OW 1555   0.059   1.220   0.227  0.4737  0.3073 -0.3767
  519SOL    HW1 1556   0.145   1.229   0.176 -1.8321 -0.1008 -0.3898
  519SOL    HW2 1557   0.057   1.269   0.314 -1.5152 -0.0512 -1.0860
  520SOL     OW 1558   2.883   1.763   1.611 -0.1398  0.0482  0.1727
  520SOL    HW1 1559   2.866   1.779   1.705  0.0687  0.8376 -2.9467
  520SOL    HW2 1560   2.799   1.788   1.554 -3.3430 -1.2187 -1.4187
  521SOL     OW 1561   0.497   2.740   2.437 -0.7326  0.4678  0.6133
  521SOL    HW1 1562   0.533   2.744   2.341  2.9528  1.7417 -0.1697
  521SOL    HW2 1563   0.401   2.764   2.435 -0.8956 -1.4167 -1.0121
  522SOL     OW 1564   1.843   0.089   2.259  0.2421  0.1067 -0.0500
  522SOL    HW1 1565   1.891   0.030   2.189 -2.2517 -1.6665 -1.7375
  522SOL    HW2 1566   1.886   0.181   2.277 -1.9685 -1.1400 -1.9499
  523SOL     OW 1567   1.905   1.787   1.767 -0.2564  0.3502 -0.2239
  523SOL    HW1 1568   1.830   1.823   1.823 -2.6462 -0.5590 -0.5371
  523SOL    HW2 1569   1.890   1.691   1.742  0.1388  1.6313 -0.7312
  524SOL     OW 1570   0.554   2.965   0.435 -0.0284 -0.2104  0.4151
  524SOL    HW1 1571   0.561   2.980   0.336 -0.7108 -1.5514  0.1078
  524SOL    HW2 1572   0.631   2.904   0.468 -2.5862  1.6735  2.2947
  525SOL     OW 1573   3.030   0.467   0.341 -0.1828 -0.0095  0.1391
  525SOL    HW1 1574   2.950   0.526   0.362 -0.9968  0.5790 -0.5699
  525SOL    HW2 1575   0.007   0.516   0.366  1.3360  1.9099  0.1721
  526SOL     OW 1576   0.737   2.637   0.744 -0.3197 -0.4171  0.2608
  526SOL    HW1 1577   0.730   2.586   0.831 -1.3179 -1.3469  0.0262
  526SOL    HW2 1578   0.663   2.706   0.733  1.7176  1.6382 -0.8285
  527SOL     OW 1579   2.727   2.087   0.999  0.2613  0.1562  0.0597
  527SOL    HW1 1580   2.703   2.045   1.088 -0.0723  1.2518 -0.7471
  527SOL    HW2 1581   2.810   2.144   1.008  1.8989 -1.7555  0.8657
  528SOL     OW 1582   2.836   0.175   2.483 -0.1986  0.0477  0.2831
  528SOL    HW1 1583   2.792   0.241   2.556 -2.5652  0.1260 -2.0424
  528SOL    HW2 1584   2.895   0.109   2.533 -1.0244  2.1303  0.2407
  529SOL     OW 1585   1.196   1.389   2.650  0.1232  1.1157 -0.4674
  529SOL    HW1 1586   1.289   1.403   2.696 -2.4139 -1.4683  1.1950
  529SOL    HW2 1587   1.136   1.346   2.719 -0.7637 -0.0142  1.2718
  530SOL     OW 1588   1.799   1.132   2.793 -0.4594 -0.6845 -0.0641
  530SOL    HW1 1589   1.762   1.089   2.709  1.0886 -2.4378  1.9896
  530SOL    HW2 1590   1.861   1.082   2.858 -3.2120  1.5079  0.5011
  531SOL     OW 1591   0.532   1.548   2.485  0.3311  0.3447  0.0260
  531SOL    HW1 1592   0.445   1.598   2.461 -0.6169  2.0777 -0.2748
  531SOL    HW2 1593   0.537   1.463   2.424  0.0671 -1.9289  0.8995
  532SOL     OW 1594   1.705   1.304   0.404  0.1477 -0.0878  0.2051
  532SOL    HW1 1595   1.737   1.328   0.311  1.2627  1.6532  1.4629
  532SOL    HW2 1596   1.668   1.395   0.436  0.6808 -2.7893 -3.5014
  533SOL     OW 1597   0.616   0.419   2.276 -0.5077  0.2713 -0.0398
  533SOL    HW1 1598   0.633   0.379   2.184 -1.0679  0.0480  0.1016
  533SOL    HW2 1599   0.699   0.407   2.334  0.1753 -0.4474 -1.7814
  534SOL     OW 1600   0.798   2.627   2.999 -0.0118  0.1208  0.1313
  534SOL    HW1 1601   0.719   2.567   3.007  1.9511 -1.5531  2.7124
  534SOL    HW2 1602   0.779   2.714   3.048  2.3516 -4.3580 -1.7311
  535SOL     OW 1603   0.151   0.245   0.391 -0.0518 -0.0372  0.0129
  535SOL    HW1 1604   0.233   0.293   0.420  0.9925  2.6719  0.1700
  535SOL    HW2 1605   0.065   0.302   0.387  1.7028 -0.1072  0.2027
  536SOL     OW 1606   0.269   1.372   1.790  0.0916 -0.2403  0.6854
  536SOL    HW1 1607   0.182   1.326   1.771 -0.4303  0.7832  1.2241
  536SOL    HW2 1608   0.325   1.383   1.701  0.8221 -2.7404 -0.0674
  537SOL     OW 1609   0.920   2.809   1.408 -0.0221  0.3358 -0.8229
  537SOL    HW1 1610   0.991   2.878   1.380 -1.5595  2.7518 -3.0966
  537SOL    HW2 1611   0.963   2.734   1.466  2.5058 -1.2324  1.4747
  538SOL     OW 1612   2.907   1.887   0.479  0.3130 -0.0117 -0.5488
  538SOL    HW1 1613   2.961   1.804   0.502 -0.2359  0.6911 -2.4977
  538SOL    HW2 1614   2.919   1.949   0.555 -1.3349 -2.6183 -0.7807
  539SOL     OW 1615   2.885   0.895   2.369 -0.5706  0.2949  0.1625
  539SOL    HW1 1616   2.801   0.876   2.424 -3.0814  0.2620 -0.8109
  539SOL    HW2 1617   2.954   0.815   2.369  4.8122 -0.1330  0.3585
  540SOL     OW 1618   1.382   0.996   2.321  0.5516  0.2826  0.2334
  540SOL    HW1 1619   1.473   1.036   2.288 -2.2409  0.4126 -0.5338
  540SOL    HW2 1620   1.315   1.066   2.352 -0.1946 -1.9199 -1.6818
  541SOL     OW 1621   0.870   0.690   1.866  0.2848  0.6574  0.3284
  541SOL    HW1 1622   0.817   0.610   1.846  0.2701  1.8311 -1.4711
  541SOL    HW2 1623   0.835   0.769   1.813  1.7048  3.3496  1.5628
  542SOL     OW 1624   2.130   0.074   2.776 -0.0512 -0.3050 -0.4536
  542SOL    HW1 1625   2.074   3.104   2.800  0.0048  0.6032  2.9390
  542SOL    HW2 1626   2.176   0.065   2.686  0.6723 -2.1674 -1.1356
  543SOL     OW 1627   0.938   0.230   0.074 -0.0359 -0.2425 -0.0724
  543SOL    HW1 1628   0.925   0.315   0.130  1.0721 -0.1040  1.3342
  543SOL    HW2 1629   1.038   0.219   0.051  1.0970  0.6701 -0.0897
  544SOL     OW 1630   2.857   1.833   1.902  0.1667 -0.0392 -0.0224
  544SOL    HW1 1631   2.896   1.748   1.940 -1.9615 -0.2890  2.5144
  544SOL    HW2 1632   2.756   1.823   1.918  1.7832 -3.8067  0.4768
  545SOL     OW 1633   2.133   2.056   1.579 -0.2666  0.4408  0.1861
  545SOL    HW1 1634   2.231   2.026   1.593  1.7781 -1.7361  1.2661
  545SOL    HW2 1635   2.081   1.983   1.532 -0.1568  2.5105  1.8696
  546SOL     OW 1636   0.299   0.080   2.887  0.0780 -0.3192  0.7357
  546SOL    HW1 1637   0.365   0.023   2.835 -0.3300  0.1787  0.8294
  546SOL    HW2 1638   0.295   0.179   2.856 -0.6433  1.7021  1.8193
  547SOL     OW 1639   1.674   0.894   0.668  0.4467 -0.2765  0.1077
  547SOL    HW1 1640   1.616   0.972   0.629  0.1148  2.6010 -1.5029
  547SOL    HW2 1641   1.631   0.858   0.756 -3.2312  1.1237  1.1039
  548SOL     OW 1642   1.940   1.554   2.201 -0.2401 -0.0575 -0.7091
  548SOL    HW1 1643   1.966   1.457   2.199  1.8697 -0.8248  0.8579
  548SOL    HW2 1644   1.917   1.593   2.296  0.9293  1.3723 -0.5075
  549SOL     OW 1645   1.727   0.449   0.387 -0.1444 -0.0826 -0.3569
  549SOL    HW1 1646   1.792   0.506   0.435 -1.9959  0.1520  0.2284
  549SOL    HW2 1647   1.778   0.404   0.307  1.8432  0.8655 -1.9209
  550SOL     OW 1648   2.238   1.767   0.814  0.1286 -0.2498 -0.2559
  550SOL    HW1 1649   2.141   1.742   0.785 -3.0605  0.2472  2.0143
  550SOL    HW2 1650   2.299   1.788   0.736 -0.5864  1.8536  1.3946
  551SOL     OW 1651   0.688   2.894   1.583 -0.1142  0.1309 -0.5218
  551SOL    HW1 1652   0.772   2.876   1.528  0.3304  0.0917 -1.1159
  551SOL    HW2 1653   0.697   2.966   1.656 -1.6412 -1.7297  0.8762
  552SOL     OW 1654   2.959   2.220   2.421  0.0015  0.2035  0.0139
  552SOL    HW1 1655   2.976   2.125   2.449 -2.5295  0.2843 -1.0667
  552SOL    HW2 1656   3.045   2.265   2.391  3.4698  1.5111 -3.9531
  553SOL     OW 1657   0.236   0.109   1.252  0.3434 -0.4255 -0.5802
  553SOL    HW1 1658   0.299   0.031   1.267  1.1067  2.2339 -1.9393
  553SOL    HW2 1659   0.161   0.082   1.189 -1.0807  0.8452 -0.2522
  554SOL     OW 1660   2.420   2.091   1.614  0.5102 -0.5115 -0.2693
  554SOL    HW1 1661   2.520   2.085   1.623 -0.1618 -0.8366  0.0832
  554SOL    HW2 1662   2.389   2.153   1.546  0.2869 -4.6956  1.1079
  555SOL     OW 1663   1.382   2.255   2.018 -0.1170 -0.2177 -0.1011
  555SOL    HW1 1664   1.392   2.194   1.934  0.9325 -1.4386  0.7280
  555SOL    HW2 1665   1.287   2.246   2.054  0.7434 -2.9841  2.2480
  556SOL     OW 1666   1.207   1.879   1.862  0.0323  0.0464  0.0680
  556SOL    HW1 1667   1.258   1.959   1.832  1.0117  2.2442  0.2664
  556SOL    HW2 1668   1.185   1.814   1.789 -0.0267 -0.4548 -2.5168
  557SOL     OW 1669   2.069   2.227   2.231 -1.4730  0.5324  0.0940
  557SOL    HW1 1670   2.160   2.203   2.182  3.9136 -0.3951 -2.3435
  557SOL    HW2 1671   2.073   2.198   2.330  0.6734 -1.2677  0.2863
  558SOL     OW 1672   0.568   2.844   1.935 -0.2860  0.1813  0.6668
  558SOL    HW1 1673   0.654   2.812   1.882  3.6523  0.5387  1.1279
  558SOL    HW2 1674   0.560   2.946   1.940 -0.0559 -1.6431 -1.8160
  559SOL     OW 1675   2.226   2.861   1.106  0.0075 -0.5347 -0.2201
  559SOL    HW1 1676   2.311   2.915   1.125  1.2499  0.8516  2.7939
  559SOL    HW2 1677   2.215   2.788   1.174 -0.2539 -2.8160 -1.7962
  560SOL     OW 1678   1.656   2.401   0.560  0.0286  0.0426 -0.8874
  560SOL    HW1 1679   1.562   2.378   0.589 -2.1266  1.1831  1.6540
  560SOL    HW2 1680   1.732   2.349   0.605  1.2398  0.2198 -1.8147
  561SOL     OW 1681   0.902   0.414   0.278 -0.0988 -0.2696 -0.1569
  561SOL    HW1 1682   0.994   0.453   0.284 -0.5965 -0.7141  0.8565
  561SOL    HW2 1683   0.834   0.488   0.294  0.3677 -0.6282 -0.1724
  562SOL     OW 1684   0.799   0.354   2.499  0.1814 -0.1388  0.1716
  562SOL    HW1 1685   0.748   0.280   2.552 -0.7905 -0.9127 -0.8235
  562SOL    HW2 1686   0.901   0.356   2.517  2.1413  0.7047 -1.9738
  563SOL     OW 1687   1.487   1.790   2.982 -0.3571  0.3377 -0.5991
  563SOL    HW1 1688   1.389   1.817   2.980 -0.4900  0.4764  0.4528
  563SOL    HW2 1689   1.530   1.835   3.065 -1.3652 -1.9698 -1.6743
  564SOL     OW 1690   2.459   1.174   1.273 -0.0125 -0.1356  0.0421
  564SOL    HW1 1691   2.475   1.227   1.356  1.1076  0.2090 -0.8721
  564SOL    HW2 1692   2.533   1.107   1.261 -1.1814 -0.1934 -0.8826
  565SOL     OW 1693   0.913   0.171   2.793  0.1731 -0.6614 -0.1016
  565SOL    HW1 1694   0.956   0.083   2.822  2.4970  0.5129  0.9580
  565SOL    HW2 1695   0.976   0.250   2.810  1.2076 -0.2710 -1.3764
  566SOL     OW 1696   1.812   0.102   2.695 -0.5399 -0.0634  0.2913
  566SOL    HW1 1697   1.907   0.130   2.685 -1.6329 -0.6313 -0.7378
  566SOL    HW2 1698   1.820   3.106   2.701 -1.6817  1.3469 -0.3570
  567SOL     OW 1699   2.451   1.784   0.609 -0.4099 -0.3752  0.2243
  567SOL    HW1 1700   2.462   1.702   0.548 -0.4771  0.3679 -1.5161
  567SOL    HW2 1701   2.529   1.796   0.678  1.3225 -0.9597  3.5134
  568SOL     OW 1702   1.798   1.855   0.308  0.1837  0.1872 -0.2217
  568SOL    HW1 1703   1.843   1.765   0.291 -1.7851  1.0812  0.5507
  568SOL    HW2 1704   1.864   1.933   0.314  0.8145 -0.8708 -2.6529
  569SOL     OW 1705   2.120   1.152   2.845 -0.2812  0.2382 -0.6453
  569SOL    HW1 1706   2.065   1.131   2.931  0.3676 -1.6237  0.3960
  569SOL    HW2 1707   2.221   1.132   2.860  3.5797 -1.2031  3.7643
  570SOL     OW 1708   0.112   2.503   1.768 -0.0272  0.0446  0.2597
  570SOL    HW1 1709   0.039   2.571   1.759  5.7406 -0.8922  0.6441
  570SOL    HW2 1710   0.205   2.548   1.760  2.0775  1.7784 -0.4342
  571SOL     OW 1711   0.700   0.883   1.754  0.2238  0.2252 -0.9278
  571SOL    HW1 1712   0.623   0.897   1.819  0.2344 -1.5128  0.8891
  571SOL    HW2 1713   0.767   0.962   1.756  0.7364 -1.2695  1.1765
  572SOL     OW 1714   1.024   1.602   0.597  0.8160  0.0688 -0.2218
  572SOL    HW1 1715   0.931   1.570   0.571 -3.3296 -3.1801 -1.6837
  572SOL    HW2 1716   1.070   1.662   0.531 -1.1675 -1.1360  2.1935
  573SOL     OW 1717   1.229   1.877   3.019  0.0303  0.1992 -0.0966
  573SOL    HW1 1718   1.223   1.978   3.041 -0.6669 -0.9107  0.7031
  573SOL    HW2 1719   1.198   1.863   2.923 -0.8310  1.3396 -2.1989
  574SOL     OW 1720   1.116   0.276   0.837  0.1071  0.5562  0.0592
  574SOL    HW1 1721   1.037   0.252   0.900  0.8359  1.9244  0.2737
  574SOL    HW2 1722   1.122   0.371   0.819 -1.0524 -2.3744  2.2780
  575SOL     OW 1723   0.540   1.078   1.431 -0.4489 -0.3794 -0.0113
  575SOL    HW1 1724   0.565   0.983   1.446 -0.5560 -1.0977  0.2537
  575SOL    HW2 1725   0.595   1.118   1.352 -0.4681  0.6326 -1.5474
  576SOL     OW 1726   2.026   2.989   1.513 -0.0889 -0.0158 -0.0207
  576SOL    HW1 1727   2.073   2.958   1.600  1.1005 -1.6093  3.7630
  576SOL    HW2 1728   2.003   2.906   1.456 -0.3565 -2.8403  1.6251
  577SOL     OW 1729   0.984   1.049   2.080 -0.2059  0.3058  0.2724
  577SOL    HW1 1730   1.086   1.035   2.060 -1.7728 -2.8573  0.1373
  577SOL    HW2 1731   0.958   1.002   2.169  0.7812  1.5687  0.9480
  578SOL     OW 1732   2.028   0.635   2.745  0.4014 -0.1775  0.3389
  578SOL    HW1 1733   1.933   0.651   2.773  0.5113 -0.3672  0.1525
  578SOL    HW2 1734   2.052   0.675   2.653  0.2077  0.6811 -2.3508
  579SOL     OW 1735   2.165   2.475   1.722 -0.0739  0.0262  0.0564
  579SOL    HW1 1736   2.240   2.422   1.774 -1.3052  0.5529 -0.7225
  579SOL    HW2 1737   2.138   2.426   1.640 -0.3284 -3.1659  2.8179
  580SOL     OW 1738   2.352   1.088   2.622  0.3587  0.3121  0.4964
  580SOL    HW1 1739   2.253   1.097   2.593 -0.1383 -0.7341 -0.8766
  580SOL    HW2 1740   2.389   1.181   2.639 -3.4412  0.1151 -0.8394
  581SOL     OW 1741   1.412   1.199   2.774  0.2008  0.2932 -0.0693
  581SOL    HW1 1742   1.466   1.270   2.817 -1.3593  0.7965 -1.7919
  581SOL    HW2 1743   1.314   1.198   2.815 -1.6305  0.9724  1.1059
  582SOL     OW 1744   0.951   1.812   1.978  0.0894  1.0308 -0.2631
  582SOL    HW1 1745   1.042   1.816   1.936 -2.1414 -0.5892 -1.9772
  582SOL    HW2 1746   0.945   1.834   2.077 -0.3923 -0.7522  2.2209
  583SOL     OW 1747   1.889   1.316   1.322  0.4627  0.1005  0.1447
  583SOL    HW1 1748   1.808   1.255   1.299  0.1294 -1.3658  2.2126
  583SOL    HW2 1749   1.871   1.413   1.305 -0.8622  1.0462 -0.9742
  584SOL     OW 1750   1.625   2.696   0.575 -0.0539  0.4864 -0.1084
  584SOL    HW1 1751   1.528   2.693   0.554  2.4266 -0.8895 -2.8910
  584SOL    HW2 1752   1.659   2.604   0.600  1.3340  0.7220  0.3139
  585SOL     OW 1753   2.086   2.897   2.777 -0.0308 -0.1507 -0.8386
  585SOL    HW1 1754   1.996   2.910   2.736  0.6980 -0.2960  0.8726
  585SOL    HW2 1755   2.095   2.802   2.818  0.6687  0.6709 -0.2495
  586SOL     OW 1756   2.796   2.344   1.215  0.1401 -0.0115  0.6305
  586SOL    HW1 1757   2.717   2.399   1.181 -1.7351 -0.6332 -0.3292
  586SOL    HW2 1758   2.859   2.324   1.138 -0.4678  0.4897 -1.3689
  587SOL     OW 1759   1.273   1.763   0.145  0.6165  0.4320 -0.4675
  587SOL    HW1 1760   1.257   1.811   0.056 -0.1855  1.5386 -0.4860
  587SOL    HW2 1761   1.368   1.718   0.151 -1.0641  0.1784 -0.8079
  588SOL     OW 1762   0.429   0.132   0.994  0.9106  0.0563 -0.0539
  588SOL    HW1 1763   0.494   0.179   0.934 -0.0627  1.1626  0.8223
  588SOL    HW2 1764   0.376   0.063   0.939  0.5731 -1.1487 -1.2527
  589SOL     OW 1765   0.827   0.242   0.485  0.1952 -0.0883  0.3126
  589SOL    HW1 1766   0.805   0.327   0.537  0.4540  0.4295 -1.2286
  589SOL    HW2 1767   0.855   0.268   0.391  0.5999 -1.1120 -1.5014
  590SOL     OW 1768   1.428   0.421   2.785 -0.3842 -0.3395 -0.1115
  590SOL    HW1 1769   1.479   0.509   2.808  0.1070  1.2599  0.2407
  590SOL    HW2 1770   1.481   0.342   2.818  1.9883  1.0536  0.3044
  591SOL     OW 1771   0.003   2.122   2.191  0.6353  0.4400 -0.0901
  591SOL    HW1 1772   3.014   2.152   2.177 -2.1834 -0.3707 -0.9256
  591SOL    HW2 1773   0.057   2.197   2.237  2.6013  2.4833 -2.5942
  592SOL     OW 1774   2.329   1.531   1.930 -0.4446 -0.1766  0.3352
  592SOL    HW1 1775   2.310   1.428   1.941 -3.1907 -0.7625 -0.4499
  592SOL    HW2 1776   2.423   1.549   1.962 -1.5633 -1.3587 -2.4078
  593SOL     OW 1777   1.479   1.375   1.663 -0.3259 -0.5247  0.8162
  593SOL    HW1 1778   1.481   1.288   1.607 -0.8773 -0.0443  0.5747
  593SOL    HW2 1779   1.553   1.371   1.732  1.2695 -0.6086  0.9746
  594SOL     OW 1780   2.654   1.204   0.060 -0.3879  0.0524 -0.2804
  594SOL    HW1 1781   2.671   1.285   3.107 -1.1694  2.1936  0.6370
  594SOL    HW2 1782   2.702   1.127   0.020  0.8576  4.6759 -0.6828
  595SOL     OW 1783   0.417   0.809   0.610 -0.5161  0.0072  0.1409
  595SOL    HW1 1784   0.343   0.881   0.606  0.4523  0.9418  0.6254
  595SOL    HW2 1785   0.491   0.842   0.669 -1.7421  2.2303 -0.3087
  596SOL     OW 1786   0.285   1.163   1.391  0.4831 -0.4219 -0.1872
  596SOL    HW1 1787   0.275   1.265   1.422 -0.5179 -0.2420 -1.2782
  596SOL    HW2 1788   0.375   1.118   1.418  0.1047 -2.3548 -0.0627
  597SOL     OW 1789   1.123   2.053   1.040 -0.4630  0.4168  0.1535
  597SOL    HW1 1790   1.193   1.992   1.085 -0.5902 -4.5498 -0.5836
  597SOL    HW2 1791   1.165   2.108   0.964  1.5945 -0.1018 -1.4476
  598SOL     OW 1792   3.001   0.244   1.795 -0.1201 -0.0001 -0.3983
  598SOL    HW1 1793   3.025   0.235   1.893  1.9012 -0.1592  1.4134
  598SOL    HW2 1794   2.990   0.153   1.750 -0.2970 -0.3289 -1.4849
  599SOL     OW 1795   0.265   1.622   2.754  0.3643  0.2617 -0.7409
  599SOL    HW1 1796   0.261   1.562   2.669  0.3035 -0.6331 -0.4973
  599SOL    HW2 1797   0.320   1.708   2.740  0.4918  1.4009 -1.6262
  600SOL     OW 1798   0.478   0.880   2.732 -0.5046  0.4082  0.0784
  600SOL    HW1 1799   0.496   0.963   2.683 -0.0528 -1.3265  2.4303
  600SOL    HW2 1800   0.566   0.833   2.756  2.9037 -1.1217 -0.7782
  601SOL     OW 1801   0.967   0.781   1.339  0.5087  0.5551 -0.6472
  601SOL    HW1 1802   0.924   0.848   1.403  0.7944 -0.6650 -2.7175
  601SOL    HW2 1803   0.970   0.828   1.252 -0.7924  1.4027  1.9272
  602SOL     OW 1804   0.690   0.132   0.067 -0.2872  0.6259 -0.5695
  602SOL    HW1 1805   0.786   0.170   0.060 -1.1457  1.2096  0.7939
  602SOL    HW2 1806   0.644   0.141   0.156 -0.2577 -1.0988 -1.9392
  603SOL     OW 1807   1.674   2.498   2.282 -0.2639  0.1406  0.1309
  603SOL    HW1 1808   1.723   2.446   2.204  0.0127  1.9554 -3.1182
  603SOL    HW2 1809   1.652   2.437   2.359  0.0010 -1.3417 -0.9554
  604SOL     OW 1810   0.424   2.853   2.928 -0.3080 -0.3384 -0.2031
  604SOL    HW1 1811   0.485   2.782   2.897 -0.8786  1.8324  0.3660
  604SOL    HW2 1812   0.459   2.943   2.898  0.5629 -1.7602  1.5929
  605SOL     OW 1813   2.488   1.243   1.566 -0.2836 -0.1165  0.5701
  605SOL    HW1 1814   2.573   1.292   1.548 -1.8060  0.5821  1.4693
  605SOL    HW2 1815   2.405   1.295   1.568  1.9055  0.3638  2.6866
  606SOL     OW 1816   0.895   1.294   2.930 -0.2651  0.2450 -0.4237
  606SOL    HW1 1817   0.906   1.323   3.030 -0.5189  2.0167  0.5184
  606SOL    HW2 1818   0.868   1.371   2.867 -0.0922 -3.0617 -1.4269
  607SOL     OW 1819   0.761   0.486   0.601 -0.2950 -0.2510  0.3205
  607SOL    HW1 1820   0.672   0.486   0.652  0.7274  0.6077 -1.7855
  607SOL    HW2 1821   0.838   0.517   0.666  1.1560 -1.7314  2.5881
  608SOL     OW 1822   2.825   1.482   1.548 -0.4203  0.3130 -0.0008
  608SOL    HW1 1823   2.851   1.580   1.558  1.7664  2.7195  0.1737
  608SOL    HW2 1824   2.752   1.461   1.476  0.1786 -1.0236 -0.1323
  609SOL     OW 1825   2.242   0.429   0.686  0.1791 -0.6175 -0.0517
  609SOL    HW1 1826   2.200   0.416   0.777 -2.1035  1.0813 -0.5360
  609SOL    HW2 1827   2.255   0.526   0.662  0.0381 -0.8686 -0.0387
  610SOL     OW 1828   0.243   2.633   1.357 -0.0617  0.1087 -0.0897
  610SOL    HW1 1829   0.206   2.707   1.418  0.2109 -0.2823 -0.8118
  610SOL    HW2 1830   0.212   2.644   1.261  0.0286  0.8550  0.2681
  611SOL     OW 1831   1.570   1.869   0.123  0.8763 -0.4066 -0.0015
  611SOL    HW1 1832   1.526   1.962   0.119  0.2840 -0.3147 -0.8435
  611SOL    HW2 1833   1.638   1.860   0.194  1.1643  0.0449 -0.0097
  612SOL     OW 1834   0.477   0.014   1.913  0.6175 -0.0819 -0.2832
  612SOL    HW1 1835   0.461   0.029   2.012  1.8218 -0.6681 -2.0479
  612SOL    HW2 1836   0.414   0.078   1.864  1.3479  0.6106  1.3254
  613SOL     OW 1837   0.661   2.299   0.594  0.4796  0.2104  0.6734
  613SOL    HW1 1838   0.599   2.380   0.604  2.0569 -0.3673 -0.5617
  613SOL    HW2 1839   0.696   2.295   0.496  1.2812  0.2660 -1.9217
  614SOL     OW 1840   2.247   0.007   2.083 -0.3801  0.1962  0.8778
  614SOL    HW1 1841   2.261   0.077   2.158  0.2359  0.1236  0.9118
  614SOL    HW2 1842   2.278   3.022   2.117  1.7001 -0.7448 -0.8689
  615SOL     OW 1843   1.355   1.518   0.443  0.6363 -0.8420 -0.1026
  615SOL    HW1 1844   1.324   1.423   0.411  3.1763 -0.8440 -3.9196
  615SOL    HW2 1845   1.284   1.592   0.428 -1.7514  1.2955 -0.5032
  616SOL     OW 1846   1.606   1.527   0.500  0.2787  0.1582 -0.0821
  616SOL    HW1 1847   1.511   1.534   0.470 -3.1002 -0.6427  1.4971
  616SOL    HW2 1848   1.640   1.622   0.512 -0.8917  1.4372 -1.6284
  617SOL     OW 1849   1.324   0.651   3.010  0.1292  0.0697  0.0066
  617SOL    HW1 1850   1.405   0.664   3.068 -1.5424  0.4187 -1.2243
  617SOL    HW2 1851   1.276   0.734   2.983 -0.5318 -2.6885  0.6987
  618SOL     OW 1852   0.706   0.241   1.771  0.3568  0.6352 -0.0607
  618SOL    HW1 1853   0.717   0.140   1.747  0.2738 -1.9204  0.9951
  618SOL    HW2 1854   0.736   0.256   1.869 -1.1337  0.7576 -1.2862
  619SOL     OW 1855   0.293   1.412   1.500  0.2126 -0.1922  0.1473
  619SOL    HW1 1856   0.271   1.496   1.449  4.5649 -2.3832  1.9928
  619SOL    HW2 1857   0.395   1.395   1.509 -0.7177 -1.1995 -1.3386
  620SOL     OW 1858   2.648   3.006   2.649  0.1768  0.0473  0.0792
  620SOL    HW1 1859   2.583   3.081   2.622  1.4289 -0.5603  0.9014
  620SOL    HW2 1860   2.662   3.008   2.750 -2.9458 -2.1456 -0.3896
  621SOL     OW 1861   2.476   1.968   2.795  0.2105 -0.6195 -0.0329
  621SOL    HW1 1862   2.550   1.898   2.792  2.3346 -1.7545  0.1236
  621SOL    HW2 1863   2.388   1.922   2.773 -1.3289 -1.9343 -1.3014
  622SOL     OW 1864   1.214   0.443   0.042 -0.2732 -0.4362 -0.3635
  622SOL    HW1 1865   1.248   0.347   0.039 -0.6552  0.6117 -1.9409
  622SOL    HW2 1866   1.263   0.502   3.087  0.5196 -0.8743  1.9132
  623SOL     OW 1867   0.983   1.512   1.854  0.1352  0.0893  0.3312
  623SOL    HW1 1868   1.051   1.477   1.926  0.2166 -0.4254  0.3042
  623SOL    HW2 1869   0.895   1.538   1.895 -0.1505  0.2139  0.2045
  624SOL     OW 1870   2.832   0.193   0.494 -0.4306 -0.0512  0.1507
  624SOL    HW1 1871   2.854   0.221   0.399 -2.0099  2.3332  0.6178
  624SOL    HW2 1872   2.887   0.239   0.562 -0.7048 -1.1542 -1.4558
  625SOL     OW 1873   0.787   2.233   0.842  0.2433 -0.4491  0.0075
  625SOL    HW1 1874   0.723   2.243   0.764 -1.0412 -2.4306 -0.4197
  625SOL    HW2 1875   0.744   2.253   0.931  1.2131 -3.1273 -1.0360
  626SOL     OW 1876   2.645   0.819   2.544  0.2486  0.0254  0.6187
  626SOL    HW1 1877   2.701   0.811   2.629 -1.8035  1.3102 -0.9664
  626SOL    HW2 1878   2.551   0.822   2.580  0.2109  0.7619  2.3924
  627SOL     OW 1879   1.033   2.010   2.750  0.0252  0.0808  0.2214
  627SOL    HW1 1880   0.992   2.011   2.652 -0.0286 -1.7936 -0.6474
  627SOL    HW2 1881   1.080   1.918   2.768 -1.6414 -1.1088  1.2288
  628SOL     OW 1882   2.854   2.761   2.740 -0.2449 -0.0156  0.2851
  628SOL    HW1 1883   2.821   2.701   2.664 -0.9361  1.4262 -0.1997
  628SOL    HW2 1884   2.784   2.825   2.776 -2.0231 -1.1086  2.6586
  629SOL     OW 1885   1.305   2.839   2.456  0.5269  0.1157 -0.8269
  629SOL    HW1 1886   1.302   2.883   2.362 -0.0087 -0.0934  0.9932
  629SOL    HW2 1887   1.398   2.852   2.500 -0.3422 -1.6841  0.1669
  630SOL     OW 1888   0.934   0.177   2.153  0.4458 -0.1940  0.0677
  630SOL    HW1 1889   0.985   0.266   2.145  2.5707 -1.8692 -0.6104
  630SOL    HW2 1890   0.961   0.143   2.242  1.6072  2.3579  0.4207
  631SOL     OW 1891   1.922   0.975   0.675 -0.0537 -0.4074  0.1084
  631SOL    HW1 1892   1.837   0.925   0.662  1.6225 -1.1561 -0.1976
  631SOL    HW2 1893   1.923   1.051   0.604 -0.2089  1.9152 -0.6112
  632SOL     OW 1894   2.680   3.057   1.805  0.7259  0.7632  0.1736
  632SOL    HW1 1895   2.665   3.067   1.902  1.2874 -1.3677 -1.5883
  632SOL    HW2 1896   2.762   2.997   1.792  2.2141  1.4200 -2.4281
  633SOL     OW 1897   1.185   1.321   0.338  0.4330  0.1948  0.6310
  633SOL    HW1 1898   1.188   1.286   0.243  0.5650  0.9593  1.4257
  633SOL    HW2 1899   1.085   1.342   0.359 -2.6280  1.8597 -2.9317
  634SOL     OW 1900   2.762   2.664   2.093  0.3286  0.1612  0.3597
  634SOL    HW1 1901   2.796   2.752   2.054  1.0612 -0.1276  0.2760
  634SOL    HW2 1902   2.833   2.625   2.154  0.5281 -2.2251 -1.4179
  635SOL     OW 1903   1.425   0.327   0.574  0.1916 -0.3522 -0.1029
  635SOL    HW1 1904   1.520   0.323   0.538 -0.5164  1.4400 -0.4441
  635SOL    HW2 1905   1.368   0.261   0.522 -0.2678 -0.0071 -0.2387
  636SOL     OW 1906   0.620   1.236   3.012  0.3299  0.5592  0.0530
  636SOL    HW1 1907   0.711   1.230   2.975  1.6913 -3.0846 -1.3570
  636SOL    HW2 1908   0.564   1.303   2.965 -2.9834  0.2900  1.1946
  637SOL     OW 1909   2.726   1.880   3.063 -0.4748 -0.0223 -0.2469
  637SOL    HW1 1910   2.731   1.799   0.013 -1.0381  0.3493 -1.6545
  637SOL    HW2 1911   2.815   1.896   3.016 -1.5025 -0.8613  0.4364
  638SOL     OW 1912   1.247   2.551   2.417 -0.5085  0.2421  0.4807
  638SOL    HW1 1913   1.256   2.639   2.468 -1.4787 -2.6439 -0.3491
  638SOL    HW2 1914   1.324   2.488   2.439  2.7555 -2.3177  0.1815
  639SOL     OW 1915   1.465   1.910   0.826 -0.0681 -0.0753 -0.1089
  639SOL    HW1 1916   1.527   1.992   0.811  2.8402 -0.2890 -0.2256
  639SOL    HW2 1917   1.377   1.914   0.778  1.1279  1.4299  2.3840
  640SOL     OW 1918   2.101   2.715   0.471  0.0266  0.7049 -0.1619
  640SOL    HW1 1919   2.181   2.647   0.467 -0.1756  0.7159 -0.1498
  640SOL    HW2 1920   2.128   2.810   0.442  0.6828 -1.7528 -1.0340
  641SOL     OW 1921   2.844   0.546   0.092 -0.3101  0.2168 -0.6748
  641SOL    HW1 1922   2.821   0.566   0.191 -2.1992 -0.7411 -0.5186
  641SOL    HW2 1923   2.806   0.454   0.074 -0.0223 -0.7507 -0.7743
  642SOL     OW 1924   0.317   0.509   0.919 -0.6958  0.1399  0.5166
  642SOL    HW1 1925   0.248   0.584   0.925  1.3395 -0.9019 -0.5737
  642SOL    HW2 1926   0.295   0.425   0.977  0.8836 -1.3346 -2.0887
  643SOL     OW 1927   0.561   1.320   2.339 -0.5403 -0.7528  0.1437
  643SOL    HW1 1928   0.631   1.330   2.264  0.4285 -1.0051 -1.8647
  643SOL    HW2 1929   0.532   1.224   2.355  1.0463 -0.9227  0.3638
  644SOL     OW 1930   1.838   2.183   0.618 -0.0090 -0.2719 -0.2185
  644SOL    HW1 1931   1.793   2.143   0.536 -2.2535  0.2000  1.4604
  644SOL    HW2 1932   1.876   2.114   0.679  0.1442 -0.4299 -0.0287
  645SOL     OW 1933   1.431   2.241   0.619  0.5278 -0.1866  0.3196
  645SOL    HW1 1934   1.393   2.164   0.564 -0.9662  0.0243  1.1993
  645SOL    HW2 1935   1.503   2.206   0.687 -0.2679 -0.7946  0.5781
  646SOL     OW 1936   0.280   2.229   3.013  0.0801 -0.6688 -0.4460
  646SOL    HW1 1937   0.321   2.136   3.009 -0.0620 -0.3493 -0.2529
  646SOL    HW2 1938   0.222   2.244   2.933  0.2843 -1.7048  0.1286
  647SOL     OW 1939   1.252   0.024   1.385 -0.4715  0.0955  0.0778
  647SOL    HW1 1940   1.183   0.057   1.452  0.5677  0.5548 -0.7933
  647SOL    HW2 1941   1.301   0.102   1.335  3.5309  0.1407  0.7393
  648SOL     OW 1942   1.372   0.221   0.810  0.0185 -0.3727  0.8253
  648SOL    HW1 1943   1.273   0.228   0.834  1.3712 -0.4347  1.9634
  648SOL    HW2 1944   1.392   0.241   0.714  0.1303 -0.0064  1.3920
  649SOL     OW 1945   1.193   1.750   0.408  0.3007 -0.0882  0.1231
  649SOL    HW1 1946   1.211   1.753   0.304  0.5736 -0.5835 -3.6059
  649SOL    HW2 1947   1.255   1.808   0.466  2.0499 -0.7355  1.2438
  650SOL     OW 1948   2.240   1.628   1.686 -0.2185  0.8931  1.0617
  650SOL    HW1 1949   2.266   1.579   1.772  0.5962 -1.9501 -0.0293
  650SOL    HW2 1950   2.253   1.726   1.686  2.3905 -2.1201 -0.0725
  651SOL     OW 1951   1.668   2.476   2.886  0.3246 -0.2913 -0.0051
  651SOL    HW1 1952   1.567   2.479   2.860 -1.8052  1.0144 -1.8750
  651SOL    HW2 1953   1.726   2.534   2.817  0.7863  0.7144 -1.1390
  652SOL     OW 1954   2.349   1.614   0.218  0.1230  0.1297  0.2834
  652SOL    HW1 1955   2.336   1.563   0.131 -2.5339  0.4227  1.2686
  652SOL    HW2 1956   2.399   1.556   0.284 -3.1445  1.0965  0.6272
  653SOL     OW 1957   0.238   0.303   1.057  0.2517 -0.0169 -0.6709
  653SOL    HW1 1958   0.296   0.225   1.088  2.3743  5.3176  1.3984
  653SOL    HW2 1959   0.205   0.281   0.967  1.9565  1.5270  4.3161
  654SOL     OW 1960   3.034   0.166   2.079 -0.0242  0.6596 -0.8919
  654SOL    HW1 1961   3.066   0.185   2.173  0.6031 -1.9810 -1.0680
  654SOL    HW2 1962   3.069   0.070   2.056  1.8055 -0.9943  1.2813
  655SOL     OW 1963   0.454   2.466   0.640  0.6594  0.2249  0.0745
  655SOL    HW1 1964   0.478   2.559   0.673 -2.0723  1.1164  0.6645
  655SOL    HW2 1965   0.383   2.475   0.566  0.2921  0.7394 -1.7540
  656SOL     OW 1966   2.945   3.035   2.617 -0.3005 -0.1051  0.5024
  656SOL    HW1 1967   2.853   2.995   2.592 -2.5630  1.1707 -4.2742
  656SOL    HW2 1968   2.954   3.056   2.719  2.0136  1.6541  1.3196
  657SOL     OW 1969   0.176   1.414   2.922  0.5797 -0.3200 -0.4582
  657SOL    HW1 1970   0.074   1.418   2.914 -3.2737  3.5268  1.7465
  657SOL    HW2 1971   0.228   1.486   2.866  0.0612 -1.8642  0.0190
  658SOL     OW 1972   2.743   1.770   1.134  0.1580  0.0689  0.7470
  658SOL    HW1 1973   2.794   1.818   1.204 -1.7931 -2.1053  1.6558
  658SOL    HW2 1974   2.643   1.755   1.155  2.8848 -2.3399  0.1790
  659SOL     OW 1975   1.468   2.641   0.074 -0.5012 -0.2088 -0.6324
  659SOL    HW1 1976   1.541   2.664   0.148  0.0188 -3.3857  0.7969
  659SOL    HW2 1977   1.455   2.717   0.008  0.7925  0.1158  0.1167
  660SOL     OW 1978   1.521   1.010   2.947 -0.2336  0.5189  0.6406
  660SOL    HW1 1979   1.544   0.915   2.922 -0.3613  0.6998 -0.3299
  660SOL    HW2 1980   1.511   1.064   2.862 -2.6802  3.5356 -1.3764
  661SOL     OW 1981   0.256   2.121   1.220  0.5289 -0.4850  0.2336
  661SOL    HW1 1982   0.176   2.101   1.156 -2.3952  0.4472 -1.4276
  661SOL    HW2 1983   0.236   2.201   1.281  2.5812 -0.6643  1.3560
  662SOL     OW 1984   0.304   0.631   3.038 -0.1138  0.0882 -0.6582
  662SOL    HW1 1985   0.270   0.725   3.057  0.5884 -0.2568 -0.4971
  662SOL    HW2 1986   0.265   0.561   3.100  2.5645  2.2130  0.6662
  663SOL     OW 1987   2.036   1.562   1.126  0.2640  0.2254 -0.3149
  663SOL    HW1 1988   1.962   1.622   1.088 -0.1260  2.1009  1.3194
  663SOL    HW2 1989   2.033   1.474   1.075 -0.5062  0.0674 -0.2510
  664SOL     OW 1990   1.234   1.274   0.882  0.0162  0.0619  0.5086
  664SOL    HW1 1991   1.295   1.264   0.963  1.7641 -1.2178  1.1072
  664SOL    HW2 1992   1.253   1.359   0.827  0.1016  2.3286 -2.2596
  665SOL     OW 1993   2.032   2.624   2.131 -0.3295 -0.0889  0.4232
  665SOL    HW1 1994   1.977   2.698   2.175  2.7350 -0.2269 -0.0339
  665SOL    HW2 1995   2.035   2.634   2.029  2.1227 -1.4863 -2.0630
  666SOL     OW 1996   2.777   2.887   0.050  0.3242 -0.3442 -0.8305
  666SOL    HW1 1997   2.785   2.787   0.022  0.3758 -2.9181 -0.8465
  666SOL    HW2 1998   2.858   2.922   0.105 -0.1890 -0.4352 -0.3875
  667SOL     OW 1999   2.509   1.233   2.128  0.0252  0.2079  0.1020
  667SOL    HW1 2000   2.501   1.146   2.186 -0.6722 -1.5338 -0.5947
  667SOL    HW2 2001   2.432   1.245   2.064 -0.6668  1.8413 -0.4315
  668SOL     OW 2002   0.357   0.831   2.438  0.2722 -0.2646  0.4185
  668SOL    HW1 2003   0.335   0.812   2.538 -0.4756 -0.0065 -0.3169
  668SOL    HW2 2004   0.270   0.850   2.380 -0.9797 -1.0605 -1.8675
  669SOL     OW 2005   2.213   2.010   2.490 -0.1331 -0.1918 -0.3444
  669SOL    HW1 2006   2.246   1.959   2.411  2.2702  0.1035  2.4843
  669SOL    HW2 2007   2.241   2.105   2.486 -0.4657 -0.7261 -1.3948
  670SOL     OW 2008   2.306   1.265   1.918 -0.5577  0.3864  0.1569
  670SOL    HW1 2009   2.374   1.208   1.871 -0.1198  0.9607  0.5507
  670SOL    HW2 2010   2.210   1.244   1.884 -0.3516 -0.4414 -0.3289
  671SOL     OW 2011   2.853   1.487   0.319  0.3925 -0.3587  0.3420
  671SOL    HW1 2012   2.824   1.562   0.385 -1.7876 -1.5824  0.7324
  671SOL    HW2 2013   2.844   1.402   0.369 -1.2407 -0.0782  1.6381
  672SOL     OW 2014   2.568   0.593   2.288  0.5448  0.2675 -0.0272
  672SOL    HW1 2015   2.542   0.656   2.210  0.0101  0.3392 -0.7146
  672SOL    HW2 2016   2.588   0.645   2.371  0.4794  0.0548 -1.4412
  673SOL     OW 2017   2.733   3.049   2.129 -0.3055 -0.0451 -0.4139
  673SOL    HW1 2018   2.795   2.997   2.068  2.8340  1.0797  1.3676
  673SOL    HW2 2019   2.729   2.999   2.218 -1.2273 -1.4976 -0.5636
  674SOL     OW 2020   1.693   1.932   1.525 -0.1228 -0.1652  0.1657
  674SOL    HW1 2021   1.793   1.893   1.534  0.6439 -1.4488  0.3870
  674SOL    HW2 2022   1.682   1.994   1.441 -3.1537  1.7218 -2.9515
  675SOL     OW 2023   0.637   0.863   0.760 -0.1528  0.2000 -0.6264
  675SOL    HW1 2024   0.706   0.871   0.832  1.0974 -0.2368 -1.1193
  675SOL    HW2 2025   0.655   0.934   0.693  0.7368 -0.4609 -0.2588
  676SOL     OW 2026   1.565   0.810   0.904 -0.3755  0.1991 -0.0438
  676SOL    HW1 2027   1.555   0.843   0.995 -2.1114 -3.6920 -2.0687
  676SOL    HW2 2028   1.504   0.728   0.886  0.9875  0.0055  0.1674
  677SOL     OW 2029   2.306   1.344   2.463  0.2773  0.0811  0.4797
  677SOL    HW1 2030   2.276   1.256   2.432 -0.1478  0.7192  2.5374
  677SOL    HW2 2031   2.229   1.401   2.461  2.8867 -0.7044 -1.7154
  678SOL     OW 2032   2.966   1.644   1.025  0.2381  0.1003  0.0177
  678SOL    HW1 2033   3.002   1.579   1.090  1.8646 -1.8250  0.0691
  678SOL    HW2 2034   2.881   1.677   1.062  1.2134 -2.3790  0.3228
  679SOL     OW 2035   2.059   2.816   0.039  0.4427  0.0930 -0.3895
  679SOL    HW1 2036   2.082   2.906   0.081 -0.1573 -1.0193  0.3626
  679SOL    HW2 2037   2.094   2.800   3.053 -3.4780  2.0885 -1.9863
  680SOL     OW 2038   0.197   2.090   1.888  0.6464 -0.0184  0.1029
  680SOL    HW1 2039   0.150   2.003   1.886 -0.5455  1.8160 -0.3037
  680SOL    HW2 2040   0.292   2.088   1.845  2.5493 -0.6179 -0.2864
  681SOL     OW 2041   0.880   1.024   1.451  0.0768  0.0364  0.0190
  681SOL    HW1 2042   0.782   0.995   1.464 -0.7585  0.9910 -0.7174
  681SOL    HW2 2043   0.902   1.097   1.511  0.8798 -0.6702 -3.5169
  682SOL     OW 2044   1.229   2.588   0.781 -0.0051 -1.2178 -0.0926
  682SOL    HW1 2045   1.235   2.533   0.697  1.7018  0.0148 -1.1867
  682SOL    HW2 2046   1.181   2.538   0.855  0.8006  0.5565  1.0192
  683SOL     OW 2047   2.516   1.559   0.897 -0.1256 -0.3181  0.1136
  683SOL    HW1 2048   2.424   1.560   0.943  2.0910  1.1564  1.9216
  683SOL    HW2 2049   2.535   1.655   0.865  1.1113 -1.9602  3.7926
  684SOL     OW 2050   0.448   2.112   1.799  0.0665 -0.2731  0.2684
  684SOL    HW1 2051   0.548   2.113   1.823  0.1368 -2.0883 -0.0989
  684SOL    HW2 2052   0.422   2.185   1.728  0.6915  0.1041 -1.6712
  685SOL     OW 2053   1.682   1.614   2.948  0.3662 -0.1919  0.0537
  685SOL    HW1 2054   1.591   1.668   2.945 -0.9155  1.0285 -0.2048
  685SOL    HW2 2055   1.741   1.643   2.871 -0.6863  2.8022 -3.6772
  686SOL     OW 2056   0.260   0.805   1.240  0.1450 -0.3412  0.1171
  686SOL    HW1 2057   0.352   0.840   1.212  1.3723 -1.9868 -1.6535
  686SOL    HW2 2058   0.254   0.783   1.339 -0.7234  0.5938 -0.2791
  687SOL     OW 2059   0.900   2.503   2.744  0.3576  0.0997  0.6639
  687SOL    HW1 2060   0.877   2.547   2.837 -0.8392 -0.1372  0.7735
  687SOL    HW2 2061   0.837   2.427   2.731 -1.6775  0.7500 -1.2543
  688SOL     OW 2062   2.592   1.845   1.911  1.1472  0.0291  0.5516
  688SOL    HW1 2063   2.589   1.747   1.932 -0.7516 -0.9373  0.8498
  688SOL    HW2 2064   2.495   1.874   1.874 -4.6387 -2.1428  0.0157
  689SOL     OW 2065   2.493   0.747   2.080  0.5902  0.1467 -0.3075
  689SOL    HW1 2066   2.576   0.739   2.025 -1.7578 -2.7805 -1.5197
  689SOL    HW2 2067   2.419   0.707   2.023  0.2673  0.0881  1.6204
  690SOL     OW 2068   2.239   1.004   1.316 -0.5729  0.1303  0.3608
  690SOL    HW1 2069   2.175   1.022   1.392  1.8355 -1.7148  0.7615
  690SOL    HW2 2070   2.331   1.045   1.333  0.6066  0.2261  1.0501
  691SOL     OW 2071   0.722   1.654   1.921  0.4490 -0.1541 -0.4004
  691SOL    HW1 2072   0.660   1.718   1.872 -2.5589  0.2237 -2.5359
  691SOL    HW2 2073   0.805   1.707   1.962  0.5911  3.1828 -0.4460
  692SOL     OW 2074   2.190   0.198   1.388  0.3648  0.1695 -0.6993
  692SOL    HW1 2075   2.213   0.221   1.485 -0.4430 -1.5734  1.6240
  692SOL    HW2 2076   2.093   0.157   1.391 -0.5644 -0.0841  0.7217
  693SOL     OW 2077   0.515   0.956   2.039  0.0983 -1.0374  0.8138
  693SOL    HW1 2078   0.518   1.003   2.129  2.3794  0.2553 -1.1543
  693SOL    HW2 2079   0.582   0.880   2.034  0.0912 -0.2704 -1.5053
  694SOL     OW 2080   1.690   2.503   1.255  0.2329 -0.0594  0.6581
  694SOL    HW1 2081   1.595   2.469   1.236  1.3880 -0.8662 -0.0856
  694SOL    HW2 2082   1.718   2.573   1.186  2.4170 -3.6639  0.0000
  695SOL     OW 2083   1.280   1.042   2.042 -0.2597 -0.5771 -0.5355
  695SOL    HW1 2084   1.314   1.033   2.142 -0.7796 -3.8716 -0.0412
  695SOL    HW2 2085   1.326   1.106   1.979  0.5621  1.5396 -1.0956
  696SOL     OW 2086   1.427   2.989   0.548  0.0430  0.1244  0.5682
  696SOL    HW1 2087   1.384   2.926   0.620  0.8157  1.8779  0.5671
  696SOL    HW2 2088   1.525   3.002   0.571 -0.1897  0.4193 -1.2183
  697SOL     OW 2089   1.010   0.119   0.631 -0.0037 -0.5379 -0.2543
  697SOL    HW1 2090   1.026   0.167   0.721  2.2514  0.1119  0.3032
  697SOL    HW2 2091   0.922   0.145   0.590 -0.3407 -1.2147  0.5232
  698SOL     OW 2092   1.660   1.042   2.555 -0.1215 -0.2251 -0.3514
  698SOL    HW1 2093   1.582   0.995   2.594 -0.7485  0.1037 -0.6313
  698SOL    HW2 2094   1.619   1.124   2.511 -2.1560 -0.4909  0.4307
  699SOL     OW 2095   1.394   1.279   1.095 -0.1090 -0.4755 -0.4125
  699SOL    HW1 2096   1.386   1.379   1.118 -0.7218 -1.4329  0.8034
  699SOL    HW2 2097   1.467   1.265   1.029  1.5156  2.7043  1.8233
  700SOL     OW 2098   1.272   0.093   0.475 -0.2924 -0.2445 -0.3255
  700SOL    HW1 2099   1.177   0.084   0.514  0.8325 -0.1795 -0.0391
  700SOL    HW2 2100   1.326   0.016   0.517 -1.3999  0.0793  0.7593
  701SOL     OW 2101   0.418   0.293   1.793  0.8072 -0.1976  0.1496
  701SOL    HW1 2102   0.397   0.393   1.803  1.4249 -1.3783 -0.8769
  701SOL    HW2 2103   0.515   0.280   1.783  0.0488  0.0658 -3.5621
  702SOL     OW 2104   1.168   2.803   0.400 -0.2290  0.2124 -0.0883
  702SOL    HW1 2105   1.187   2.871   0.327 -0.6136 -1.3732 -1.8403
  702SOL    HW2 2106   1.135   2.846   0.489  1.2069  1.6684 -0.8653
  703SOL     OW 2107   2.445   2.575   2.543  0.0972 -0.0915  0.1115
  703SOL    HW1 2108   2.369   2.644   2.541  2.7632  1.6065  1.4029
  703SOL    HW2 2109   2.435   2.506   2.467  1.1144 -1.5711 -0.5991
  704SOL     OW 2110   0.704   1.909   0.713 -0.2490 -0.3819  0.5176
  704SOL    HW1 2111   0.741   1.961   0.632  1.2520  2.8365 -0.7857
  704SOL    HW2 2112   0.745   1.934   0.802  0.0444  2.9967 -2.4090
  705SOL     OW 2113   0.021   0.569   1.927  0.5190 -0.1237  0.7348
  705SOL    HW1 2114   3.054   0.530   1.989  0.1147  0.7610  1.9581
  705SOL    HW2 2115   0.105   0.575   1.985  2.0229  0.9245  0.8277
  706SOL     OW 2116   1.490   2.948   0.300 -0.4562  0.7401  0.0146
  706SOL    HW1 2117   1.526   2.852   0.288  1.3209 -4.1058  1.3440
  706SOL    HW2 2118   1.456   2.960   0.400 -1.1438 -0.2790  4.9399
  707SOL     OW 2119   1.414   1.838   2.061  0.1952  0.2112 -0.5012
  707SOL    HW1 2120   1.350   1.828   1.986  1.2963 -1.0489 -0.9198
  707SOL    HW2 2121   1.388   1.915   2.122 -1.3453 -0.7081 -0.5440
  708SOL     OW 2122   3.086   2.244   1.485 -0.2623 -0.1557  0.8166
  708SOL    HW1 2123   3.030   2.328   1.468  1.1825 -1.0237  2.2508
  708SOL    HW2 2124   3.106   2.243   1.585 -1.4711 -2.3395  1.0088
  709SOL     OW 2125   2.090   0.458   1.836  0.0481 -0.1878 -0.3266
  709SOL    HW1 2126   2.132   0.385   1.896 -0.2631  1.9028  1.9333
  709SOL    HW2 2127   2.021   0.418   1.769 -4.0989  0.2595 -3.5626
  710SOL     OW 2128   2.647   0.140   1.369  0.4423  0.0967 -0.0483
  710SOL    HW1 2129   2.688   0.232   1.374 -1.5942 -1.1109 -0.7310
  710SOL    HW2 2130   2.591   0.133   1.281  0.6728 -0.4555 -0.0289
  711SOL     OW 2131   0.108   2.248   0.375  0.0790 -0.3591  0.3852
  711SOL    HW1 2132   0.102   2.232   0.272 -2.5117 -1.4555 -2.3732
  711SOL    HW2 2133   0.114   2.161   0.427  2.0573  1.0766  0.7240
  712SOL     OW 2134   0.664   2.299   2.249  0.1697  0.4623  0.0818
  712SOL    HW1 2135   0.588   2.236   2.244  1.0167  1.2169  3.2503
  712SOL    HW2 2136   0.675   2.343   2.162 -0.3021 -0.0489  0.4765
  713SOL     OW 2137   2.156   0.878   0.016 -0.1496  0.2635 -0.2343
  713SOL    HW1 2138   2.226   0.920   0.078 -1.2641  0.6375 -0.4096
  713SOL    HW2 2139   2.123   0.793   0.056 -0.2981  0.0999  0.7308
  714SOL     OW 2140   0.720   2.003   0.463  0.0420 -0.2859  0.2416
  714SOL    HW1 2141   0.791   2.072   0.441 -0.2257 -1.5572 -0.3088
  714SOL    HW2 2142   0.629   2.040   0.447  2.8910 -2.6193 -1.1256
  715SOL     OW 2143   1.898   0.150   0.444  0.3083  0.3172 -0.3004
  715SOL    HW1 2144   1.816   0.171   0.504 -1.3540 -0.2972  1.1495
  715SOL    HW2 2145   1.971   0.219   0.452 -0.4992  0.0633  2.0248
  716SOL     OW 2146   0.619   0.575   1.669 -0.2810  0.1324 -0.1797
  716SOL    HW1 2147   0.634   0.555   1.767  1.8986  0.2147  1.8178
  716SOL    HW2 2148   0.520   0.562   1.644 -2.0304  1.6311 -0.4877
  717SOL     OW 2149   0.082   0.858   3.043 -0.2555  0.4224 -0.1672
  717SOL    HW1 2150   0.034   0.886   2.959  1.9315  1.5246  0.9493
  717SOL    HW2 2151   0.039   0.768   3.075 -1.6545  0.6607  0.2276
  718SOL     OW 2152   1.112   0.968   0.114  0.2290  0.3158 -0.0282
  718SOL    HW1 2153   1.197   1.020   0.138 -1.0599 -1.5453 -1.0531
  718SOL    HW2 2154   1.119   0.875   0.163  2.5325 -0.9670  3.1403
  719SOL     OW 2155   2.962   1.759   3.034  0.2468 -0.2692 -0.0555
  719SOL    HW1 2156   2.927   1.668   3.067  1.2846 -1.8221 -1.6962
  719SOL    HW2 2157   3.017   1.757   2.945  3.0496  0.2639 -0.5945
  720SOL     OW 2158   1.608   0.870   1.236 -0.7596 -0.1044 -0.3542
  720SOL    HW1 2159   1.528   0.926   1.201  0.2658 -0.8058  0.1596
  720SOL    HW2 2160   1.573   0.785   1.276  0.0576  1.0340 -1.0431
  721SOL     OW 2161   2.778   0.911   0.237  0.2292 -0.1841 -0.3661
  721SOL    HW1 2162   2.880   0.905   0.231  0.5599 -0.2791  1.2864
  721SOL    HW2 2163   2.745   0.986   0.294 -1.5087 -0.6323 -0.5804
  722SOL     OW 2164   0.846   1.478   2.760 -0.0865 -0.5578 -0.0883
  722SOL    HW1 2165   0.801   1.569   2.737 -2.2781  1.5570 -0.8685
  722SOL    HW2 2166   0.791   1.412   2.706 -1.3100 -0.1474  0.1572
  723SOL     OW 2167   0.428   1.096   0.382 -0.1543 -0.0477  0.0496
  723SOL    HW1 2168   0.444   1.196   0.385  2.4748 -2.7927  3.7286
  723SOL    HW2 2169   0.356   1.069   0.445  2.3816  1.5970 -1.8150
  724SOL     OW 2170   0.986   2.439   1.877  0.5398  0.0256 -0.0138
  724SOL    HW1 2171   0.913   2.433   1.807  2.3342 -0.1251  2.0634
  724SOL    HW2 2172   1.040   2.524   1.869  2.3860  1.0447 -1.5433
  725SOL     OW 2173   2.486   1.074   1.757 -0.1271 -0.2130 -0.0493
  725SOL    HW1 2174   2.501   1.135   1.675 -0.2455 -1.1384 -2.0497
  725SOL    HW2 2175   2.581   1.048   1.789 -0.8692  0.7448 -2.2076
  726SOL     OW 2176   1.632   2.716   0.267 -0.0064 -0.4739  0.6476
  726SOL    HW1 2177   1.734   2.704   0.238  1.2151 -2.2988  0.7326
  726SOL    HW2 2178   1.622   2.667   0.357 -0.1808 -0.3740 -1.0834
  727SOL     OW 2179   1.074   1.071   2.598 -0.3767 -0.1421 -0.1957
  727SOL    HW1 2180   1.115   1.081   2.689 -2.2049 -1.5735 -0.6424
  727SOL    HW2 2181   1.073   0.973   2.558 -1.3145 -1.3203 -1.3261
  728SOL     OW 2182   1.472   2.671   1.146 -0.2323 -0.2798 -0.2295
  728SOL    HW1 2183   1.375   2.641   1.171  0.4731 -2.0015  0.5388
  728SOL    HW2 2184   1.514   2.738   1.216  0.8007  1.0656 -0.0143
  729SOL     OW 2185   1.556   0.620   1.368 -0.2266 -0.3178  0.2409
  729SOL    HW1 2186   1.552   0.551   1.294  0.9809 -0.3613 -0.1490
  729SOL    HW2 2187   1.461   0.632   1.406 -1.9446  1.1074 -0.5371
  730SOL     OW 2188   0.701   2.032   1.879  0.0350 -0.3646  0.3798
  730SOL    HW1 2189   0.782   2.090   1.851  0.2052  0.2345 -2.1822
  730SOL    HW2 2190   0.704   1.999   1.980  2.2440 -3.8945  2.5964
  731SOL     OW 2191   0.370   0.245   0.613 -0.4464 -0.2721  0.7034
  731SOL    HW1 2192   0.451   0.247   0.678 -1.2862  2.8285  1.4011
  731SOL    HW2 2193   0.368   0.164   0.546 -2.7403 -2.5843 -1.0359
  732SOL     OW 2194   0.507   0.497   2.916 -0.5836  0.3242 -0.0365
  732SOL    HW1 2195   0.603   0.530   2.944  5.0896  0.7268 -2.8274
  732SOL    HW2 2196   0.429   0.546   2.959  3.1803  0.0247  0.3479
  733SOL     OW 2197   1.019   2.389   1.225  0.4650  0.1698 -0.4818
  733SOL    HW1 2198   0.983   2.368   1.313 -1.1777  0.2575 -2.8919
  733SOL    HW2 2199   1.097   2.456   1.232 -1.1781 -2.6755 -0.1400
  734SOL     OW 2200   0.040   2.304   2.718 -0.0487 -0.1856 -0.2772
  734SOL    HW1 2201   0.062   2.208   2.695  1.5262  0.3975 -0.6943
  734SOL    HW2 2202   3.107   2.311   2.812  0.8279  0.2458 -0.4761
  735SOL     OW 2203   0.874   2.816   0.951 -0.4400 -0.4945 -0.1193
  735SOL    HW1 2204   0.870   2.909   0.908  0.0812  2.2411  0.2427
  735SOL    HW2 2205   0.866   2.741   0.882 -2.2823 -2.3959  0.6770
  736SOL     OW 2206   1.550   0.627   0.047 -0.1789 -0.4269 -0.6190
  736SOL    HW1 2207   1.623   0.578   3.106  1.5366  0.0734 -0.3826
  736SOL    HW2 2208   1.557   0.602   0.146  1.6045  0.6751 -0.1750
  737SOL     OW 2209   2.985   0.288   0.699 -0.0309 -0.6541 -0.2788
  737SOL    HW1 2210   3.085   0.265   0.720 -0.3420 -0.9376  0.2508
  737SOL    HW2 2211   2.969   0.386   0.722 -1.3446 -2.7502 -1.9059
  738SOL     OW 2212   2.606   2.773   1.200 -0.0948 -0.2045  0.1973
  738SOL    HW1 2213   2.559   2.796   1.287 -2.4159  1.3416 -2.5268
  738SOL    HW2 2214   2.636   2.864   1.162  1.8475 -1.0959  0.8256
  739SOL     OW 2215   1.674   2.357   0.277 -0.4832  0.2869 -0.1799
  739SOL    HW1 2216   1.681   2.385   0.373  1.3140 -1.9263 -2.1224
  739SOL    HW2 2217   1.749   2.293   0.252  1.0445  1.3755  0.9505
  740SOL     OW 2218   1.851   2.783   1.125 -0.4775  0.2731  0.2093
  740SOL    HW1 2219   1.885   2.874   1.091  1.9126  1.4209 -2.6340
  740SOL    HW2 2220   1.837   2.726   1.039  1.7743 -2.9963 -3.5787
  741SOL     OW 2221   1.825   0.409   0.797  0.2006  0.2855  0.0510
  741SOL    HW1 2222   1.913   0.362   0.822 -0.4708 -0.4559 -0.8702
  741SOL    HW2 2223   1.815   0.502   0.848 -1.6864  1.1563  2.7860
  742SOL     OW 2224   1.390   2.074   2.226  0.2397  0.0074  0.3730
  742SOL    HW1 2225   1.455   2.095   2.306 -0.7269  1.5566  1.4045
  742SOL    HW2 2226   1.413   2.127   2.140  0.7280  1.8441  0.0697
  743SOL     OW 2227   2.504   0.293   1.918  0.6880 -0.1264 -0.3812
  743SOL    HW1 2228   2.570   0.280   1.841  0.9220 -0.5431  1.4348
  743SOL    HW2 2229   2.559   0.334   1.996  1.1445 -0.7589 -1.8814
  744SOL     OW 2230   2.306   0.576   1.206 -0.2569 -0.0128 -0.6915
  744SOL    HW1 2231   2.275   0.631   1.284 -0.3859 -0.2164  1.1863
  744SOL    HW2 2232   2.326   0.642   1.128 -0.9825  0.0481  0.5927
  745SOL     OW 2233   1.838   1.204   1.785 -0.2429  0.4182 -0.0849
  745SOL    HW1 2234   1.796   1.106   1.783  0.0198 -2.9107 -0.7786
  745SOL    HW2 2235   1.786   1.281   1.825 -1.3803  0.7468 -0.8350
  746SOL     OW 2236   1.256   1.509   0.722  0.0025 -0.0058 -0.4720
  746SOL    HW1 2237   1.163   1.516   0.677 -1.6826  0.0413 -0.5443
  746SOL    HW2 2238   1.330   1.506   0.649  1.2961 -0.9080  0.4052
  747SOL     OW 2239   1.710   1.180   1.026  0.1102 -0.4484 -0.3291
  747SOL    HW1 2240   1.641   1.201   0.950  1.3378  0.9024  2.3208
  747SOL    HW2 2241   1.787   1.134   0.988  0.4046 -0.3482  3.3949
  748SOL     OW 2242   3.010   2.809   0.750  0.4662  0.0602 -0.4313
  748SOL    HW1 2243   2.950   2.881   0.709  0.6211  0.6534 -0.4739
  748SOL    HW2 2244   2.951   2.725   0.775 -1.0371 -0.3720 -2.1311
  749SOL     OW 2245   3.094   0.223   2.346 -0.3308  0.4614  0.3657
  749SOL    HW1 2246   2.995   0.230   2.372 -0.6228 -0.4522 -0.8213
  749SOL    HW2 2247   0.040   0.181   2.421  2.7568 -1.3168 -0.5022
  750SOL     OW 2248   1.871   0.499   1.438  0.0410  0.3147 -0.7864
  750SOL    HW1 2249   1.968   0.522   1.465  2.1155 -0.1875  1.0232
  750SOL    HW2 2250   1.836   0.565   1.374  0.3643  0.7535 -0.4708
  751SOL     OW 2251   2.925   0.538   0.773 -0.4908 -0.4983 -0.3823
  751SOL    HW1 2252   2.900   0.519   0.868  2.1846  0.8159  1.6135
  751SOL    HW2 2253   2.992   0.618   0.765  2.4928  0.2528 -0.4924
  752SOL     OW 2254   0.148   2.653   1.117 -0.1786  0.6527  0.2327
  752SOL    HW1 2255   0.078   2.721   1.095  3.2074  0.5425  3.8059
  752SOL    HW2 2256   0.171   2.603   1.036  0.6597 -1.0538  2.2801
  753SOL     OW 2257   1.279   0.108   1.987  0.2259  0.1884 -0.1672
  753SOL    HW1 2258   1.268   0.206   1.972  1.7226 -0.2646 -0.9767
  753SOL    HW2 2259   1.370   0.079   1.950 -0.2538 -1.6605 -2.7319
  754SOL     OW 2260   1.477   2.569   1.640 -0.5895 -0.1599  0.4535
  754SOL    HW1 2261   1.570   2.606   1.620 -1.6007  2.7574 -1.0158
  754SOL    HW2 2262   1.471   2.520   1.728 -1.8260  1.0913 -2.7045
  755SOL     OW 2263   2.776   1.294   0.499 -0.2909  0.3285  0.3033
  755SOL    HW1 2264   2.709   1.327   0.563  1.6498 -2.4061 -1.8380
  755SOL    HW2 2265   2.742   1.219   0.438 -1.5062 -0.0209 -0.2660
  756SOL     OW 2266   1.676   1.700   2.453  0.3430 -0.1004  0.1555
  756SOL    HW1 2267   1.680   1.778   2.389 -1.2954 -0.4693 -1.2462
  756SOL    HW2 2268   1.768   1.662   2.472  1.7430 -0.9761 -0.4841
  757SOL     OW 2269   1.708   2.945   0.611  0.2359 -0.5700  0.6795
  757SOL    HW1 2270   1.764   2.945   0.529  1.0422 -2.6260  1.9285
  757SOL    HW2 2271   1.667   2.857   0.630 -1.9354  2.3200 -1.3200
  758SOL     OW 2272   0.604   2.962   1.195  0.4757 -0.5958 -0.0978
  758SOL    HW1 2273   0.660   2.882   1.219 -0.2421  1.5652  2.1399
  758SOL    HW2 2274   0.594   2.965   1.095 -2.2921 -0.6301 -0.1867
  759SOL     OW 2275   3.008   1.008   0.819  0.0975 -0.2607  0.2700
  759SOL    HW1 2276   3.016   0.921   0.768 -0.7968  3.0947  0.4848
  759SOL    HW2 2277   3.101   1.032   0.858  1.2280 -2.3471 -2.0783
  760SOL     OW 2278   2.292   1.291   1.044 -0.3661 -0.1435 -0.1750
  760SOL    HW1 2279   2.308   1.248   1.137  0.9203 -0.9793  0.7889
  760SOL    HW2 2280   2.194   1.305   1.037  1.1934  1.4726 -1.0630
  761SOL     OW 2281   1.133   0.910   1.041 -0.0891  0.6920  0.2674
  761SOL    HW1 2282   1.073   0.991   1.034 -1.2711 -0.9109 -3.3496
  761SOL    HW2 2283   1.122   0.857   0.950 -0.7880 -3.3216 -1.6188
  762SOL     OW 2284   2.531   2.044   1.210 -0.6480 -0.3914 -0.2370
  762SOL    HW1 2285   2.509   1.952   1.172 -2.4739 -0.1414  0.1623
  762SOL    HW2 2286   2.466   2.121   1.179 -0.1537  0.3999 -1.1987
  763SOL     OW 2287   1.188   1.417   1.988 -0.3260 -0.0533 -0.0787
  763SOL    HW1 2288   1.277   1.455   2.015 -1.9651  0.0330 -1.1487
  763SOL    HW2 2289   1.214   1.340   1.923  2.5945  1.9229 -1.9336
  764SOL     OW 2290   2.936   1.761   2.206 -0.1224  0.2188  0.2314
  764SOL    HW1 2291   3.023   1.804   2.183 -0.2571 -1.4992  0.6059
  764SOL    HW2 2292   2.953   1.659   2.213  0.5060 -0.4698 -1.5887
  765SOL     OW 2293   1.214   2.601   1.250  0.0615  0.5095 -0.1383
  765SOL    HW1 2294   1.259   2.634   1.334  2.5812  0.0760 -0.5993
  765SOL    HW2 2295   1.173   2.678   1.192  0.1496  2.9637 -0.8825
  766SOL     OW 2296   0.816   2.304   2.471 -0.1477 -0.0523  0.4649
  766SOL    HW1 2297   0.770   2.344   2.552 -1.9969  1.0663  1.3995
  766SOL    HW2 2298   0.744   2.284   2.398 -2.5879  0.0090 -1.7645
  767SOL     OW 2299   1.725   0.407   3.028 -0.3586 -0.4013  0.1464
  767SOL    HW1 2300   1.701   0.330   2.968 -0.4583  3.3232  1.2423
  767SOL    HW2 2301   1.818   0.446   2.995  1.3402  0.6999  1.5670
  768SOL     OW 2302   1.387   2.464   2.800  0.4824 -0.2664  0.1428
  768SOL    HW1 2303   1.417   2.385   2.746  0.9291  1.8004 -3.0464
  768SOL    HW2 2304   1.323   2.440   2.876 -1.7614  1.7142  0.3772
  769SOL     OW 2305   2.985   2.728   1.379  0.1707  0.0972 -0.1556
  769SOL    HW1 2306   2.909   2.790   1.393  2.9877 -0.0946  2.4331
  769SOL    HW2 2307   3.073   2.767   1.408 -0.2850 -0.2636 -0.6515
  770SOL     OW 2308   0.702   3.055   2.981 -0.3347  0.7318  0.1398
  770SOL    HW1 2309   0.762   2.980   3.021 -0.5031  1.5808 -1.7514
  770SOL    HW2 2310   0.700   0.027   3.042  2.5427 -0.7266  1.6305
  771SOL     OW 2311   0.556   3.046   2.761 -0.3113  0.2207  0.1002
  771SOL    HW1 2312   0.619   3.072   2.839 -0.0680 -1.3277 -0.8940
  771SOL    HW2 2313   0.604   2.965   2.722  0.0835  0.7095  4.0650
  772SOL     OW 2314   2.442   2.997   2.260 -0.5679  0.8639 -0.3670
  772SOL    HW1 2315   2.520   3.069   2.256  0.7912  2.9164  1.2059
  772SOL    HW2 2316   2.477   2.904   2.253  1.8246 -1.2318 -2.8515
  773SOL     OW 2317   0.738   2.431   1.772  0.4368  0.1820 -0.1163
  773SOL    HW1 2318   0.716   2.342   1.722 -1.4553 -3.6062 -2.3022
  773SOL    HW2 2319   0.663   2.464   1.830 -3.2315  1.4079 -2.1738
  774SOL     OW 2320   1.554   0.418   1.985  0.0917 -0.0489 -0.0821
  774SOL    HW1 2321   1.606   0.326   1.994  0.6897  0.4859 -1.2431
  774SOL    HW2 2322   1.454   0.408   1.968  0.2465  3.1119  0.9742
  775SOL     OW 2323   2.127   2.650   2.914  0.7582 -0.1480 -0.1243
  775SOL    HW1 2324   2.085   2.577   2.974 -0.3942 -0.3817  0.8653
  775SOL    HW2 2325   2.226   2.654   2.935 -0.6448 -2.1962  0.7464
  776SOL     OW 2326   2.003   0.732   2.188  0.3641  1.1370  0.1219
  776SOL    HW1 2327   2.076   0.802   2.184 -1.2749  0.2059  1.9920
  776SOL    HW2 2328   1.960   0.714   2.095  0.2780 -0.1374  1.2370
  777SOL     OW 2329   2.972   1.155   2.408 -0.3024 -0.2944 -0.0639
  777SOL    HW1 2330   2.961   1.053   2.409  1.4500 -1.2419  2.1800
  777SOL    HW2 2331   2.897   1.205   2.355 -0.9568  2.0923 -1.5755
  778SOL     OW 2332   2.154   0.469   2.236 -0.3695 -0.6480  0.0286
  778SOL    HW1 2333   2.194   0.473   2.327  0.0715  0.4388  0.4510
  778SOL    HW2 2334   2.135   0.564   2.208 -0.5140 -0.6641  0.7539
  779SOL     OW 2335   2.932   0.234   0.228 -0.0110 -0.0437  0.7186
  779SOL    HW1 2336   2.964   0.332   0.245 -0.4990  1.2870  1.0644
  779SOL    HW2 2337   3.011   0.175   0.207 -0.2192 -2.2048 -0.0883
  780SOL     OW 2338   2.474   0.096   2.592  0.2698 -0.3332  0.2044
  780SOL    HW1 2339   2.529   0.140   2.516  1.6928 -1.0755 -0.9555
  780SOL    HW2 2340   2.374   0.116   2.585  3.3394  0.9163  1.1100
  781SOL     OW 2341   0.229   0.092   1.820 -0.1671 -0.0381 -0.1593
  781SOL    HW1 2342   0.140   0.076   1.773  0.0287 -0.1106 -1.2515
  781SOL    HW2 2343   0.278   0.161   1.766  0.3778 -3.2571 -0.3795
  782SOL     OW 2344   1.739   2.511   0.048  0.5317 -0.3511  0.1196
  782SOL    HW1 2345   1.657   2.518   3.092  0.0633 -0.6926 -1.6958
  782SOL    HW2 2346   1.714   2.464   0.133 -2.5234 -4.2230  1.4027
  783SOL     OW 2347   0.982   1.509   1.591  0.2903  0.1899 -0.0792
  783SOL    HW1 2348   1.067   1.510   1.535  0.0960  0.3699  1.2391
  783SOL    HW2 2349   0.987   1.522   1.693 -1.4822  1.3172 -1.0622
  784SOL     OW 2350   1.798   0.586   2.327 -0.0546  0.1554 -0.0641
  784SOL    HW1 2351   1.702   0.615   2.300 -2.1646  0.8215 -0.8142
  784SOL    HW2 2352   1.869   0.648   2.293 -0.9536 -0.7477  1.4943
  785SOL     OW 2353   3.013   0.675   1.072 -0.1043  0.0613  0.7894
  785SOL    HW1 2354   2.976   0.768   1.093  0.1466 -0.3974  1.2914
  785SOL    HW2 2355   2.936   0.606   1.084  1.4133 -0.6772  1.6597
  786SOL     OW 2356   1.940   3.028   0.780 -0.8417  0.2828  0.5910
  786SOL    HW1 2357   1.848   3.055   0.751  3.0227  0.5588 -0.5937
  786SOL    HW2 2358   1.974   2.944   0.731  0.4129 -0.3638  0.8908
  787SOL     OW 2359   1.357   2.910   1.019 -0.8116 -0.0062  0.0000
  787SOL    HW1 2360   1.357   3.009   1.045 -0.9709  0.2439 -1.1438
  787SOL    HW2 2361   1.276   2.863   1.049  2.5573 -2.1872  1.7106
  788SOL     OW 2362   0.122   1.085   0.941 -0.3525 -0.1154 -0.2615
  788SOL    HW1 2363   0.077   1.130   1.020  1.5225  0.8896 -2.1305
  788SOL    HW2 2364   0.170   1.155   0.883  0.0099  0.8113  1.5483
  789SOL     OW 2365   0.324   1.093   1.915 -0.1327 -0.0049  0.4067
  789SOL    HW1 2366   0.408   1.053   1.956 -1.5440 -2.3723  1.5235
  789SOL    HW2 2367   0.334   1.192   1.909 -0.1828 -0.5822 -0.7557
  790SOL     OW 2368   0.825   0.562   2.726  0.2059  0.1197  0.0231
  790SOL    HW1 2369   0.784   0.561   2.820  2.1940  2.9368 -0.2995
  790SOL    HW2 2370   0.794   0.482   2.666 -0.3856 -3.0028 -3.0873
  791SOL     OW 2371   2.259   0.394   0.253 -0.7690 -0.0514  0.3144
  791SOL    HW1 2372   2.209   0.340   0.324 -2.6107 -4.3933  3.0396
  791SOL    HW2 2373   2.303   0.475   0.301 -0.8397  0.8928 -0.6880
  792SOL     OW 2374   1.259   0.318   1.162  0.3988 -0.0424 -0.0727
  792SOL    HW1 2375   1.228   0.390   1.095 -2.5813  0.9313  0.6234
  792SOL    HW2 2376   1.237   0.340   1.262  0.4635  0.9455  0.8806
  793SOL     OW 2377   0.112   2.904   1.433 -0.3969 -0.1555 -0.0505
  793SOL    HW1 2378   0.193   2.923   1.372  1.5391  0.8216  0.6926
  793SOL    HW2 2379   0.066   2.986   1.457 -0.6236 -3.6995 -1.0104
  794SOL     OW 2380   0.223   0.619   2.099 -0.7754 -0.1710  0.0036
  794SOL    HW1 2381   0.186   0.587   2.191  0.1182 -0.6336  1.2993
  794SOL    HW2 2382   0.326   0.634   2.105  0.5954  0.5642 -1.0178
  795SOL     OW 2383   0.433   2.454   2.609 -0.3408 -0.2258  0.4218
  795SOL    HW1 2384   0.454   2.495   2.518 -0.6170  0.4453  1.1434
  795SOL    HW2 2385   0.362   2.514   2.662  0.4778  2.6138 -0.3914
  796SOL     OW 2386   2.020   0.322   2.562  0.0054 -0.2578  0.6176
  796SOL    HW1 2387   1.960   0.305   2.480  1.4026  1.1436  1.1821
  796SOL    HW2 2388   1.998   0.413   2.603 -2.6973 -0.5818  0.5546
  797SOL     OW 2389   2.676   2.380   2.798 -0.3005 -0.3819  0.2446
  797SOL    HW1 2390   2.636   2.472   2.817  0.7993  1.0246  0.7251
  797SOL    HW2 2391   2.685   2.324   2.880 -1.7309  1.8945 -1.1716
  798SOL     OW 2392   0.249   0.799   1.539 -0.1384  0.0658  0.3482
  798SOL    HW1 2393   0.323   0.729   1.559 -1.1748 -0.0951 -0.8781
  798SOL    HW2 2394   0.268   0.890   1.579 -1.3516 -2.5749 -0.2790
  799SOL     OW 2395   0.718   3.072   1.793  0.2718 -0.7552  0.2538
  799SOL    HW1 2396   0.628   3.092   1.843 -1.3248 -0.0780  0.3324
  799SOL    HW2 2397   0.806   3.088   1.850  1.0077 -0.2206 -0.0695
  800SOL     OW 2398   2.934   2.529   0.350  0.3177 -0.0132 -0.2734
  800SOL    HW1 2399   2.995   2.500   0.278 -0.2539 -0.7459  3.5367
  800SOL    HW2 2400   2.946   2.627   0.368 -0.6145 -0.5526  0.1059
  801SOL     OW 2401   1.610   1.746   0.644  0.3230 -0.7236 -0.0518
  801SOL    HW1 2402   1.652   1.831   0.604  1.7548  3.4280 -1.3725
  801SOL    HW2 2403   1.528   1.762   0.706 -2.2244 -1.7021  0.6846
  802SOL     OW 2404   0.477   0.705   0.361  0.5972 -0.1930 -0.0932
  802SOL    HW1 2405   0.444   0.735   0.452 -1.5778  0.7955 -1.1598
  802SOL    HW2 2406   0.459   0.776   0.290  1.1498  0.1195  0.2392
  803SOL     OW 2407   1.244   1.196   2.418  0.2574  0.2024 -0.4462
  803SOL    HW1 2408   1.179   1.164   2.492 -2.4074  0.8641  1.4040
  803SOL    HW2 2409   1.197   1.260   2.360 -0.3347 -0.2894  0.9491
  804SOL     OW 2410   2.080   2.040   1.188  0.3507  0.0076 -0.1515
  804SOL    HW1 2411   2.131   2.122   1.220  2.5994  0.6739 -1.5532
  804SOL    HW2 2412   2.145   1.989   1.125 -1.1652 -0.2976 -2.1543
  805SOL     OW 2413   0.160   2.042   2.630 -0.0060  0.7302  0.4409
  805SOL    HW1 2414   0.224   2.105   2.580 -0.6141 -1.5127  0.5809
  805SOL    HW2 2415   0.141   1.964   2.566  2.6400  1.1176 -1.2769
  806SOL     OW 2416   0.637   2.615   0.242  0.3902  0.8536  0.3283
  806SOL    HW1 2417   0.680   2.680   0.183 -2.3573 -1.1793  0.7069
  806SOL    HW2 2418   0.537   2.632   0.240  2.3234 -1.3627  0.8805
  807SOL     OW 2419   2.547   0.948   2.843 -0.3342 -0.0934 -0.1720
  807SOL    HW1 2420   2.611   0.925   2.920 -0.5529 -0.9445 -0.1671
  807SOL    HW2 2421   2.467   1.000   2.878 -0.3489 -1.8324  0.2629
  808SOL     OW 2422   1.626   2.166   0.804  0.4658  0.1330 -0.2517
  808SOL    HW1 2423   1.699   2.151   0.738 -1.6327 -0.4865 -1.4533
  808SOL    HW2 2424   1.648   2.244   0.870  0.2290  1.7448 -0.0052
  809SOL     OW 2425   0.247   0.596   0.673 -0.7231  0.3946  0.0160
  809SOL    HW1 2426   0.313   0.673   0.667 -0.0478 -1.6297 -0.4018
  809SOL    HW2 2427   0.276   0.531   0.745  2.3652 -0.6607  0.7516
  810SOL     OW 2428   1.510   1.581   0.084  0.2971  0.1336 -0.2062
  810SOL    HW1 2429   1.468   1.570   3.103  3.0959  1.5324 -0.7599
  810SOL    HW2 2430   1.536   1.678   0.100 -1.4176 -1.6493 -0.2795
  811SOL     OW 2431   1.400   2.996   1.595 -0.5689  0.1394  0.0977
  811SOL    HW1 2432   1.497   3.026   1.621  1.3235 -0.2572  0.7243
  811SOL    HW2 2433   1.379   3.042   1.507  0.0457  2.4429  0.9305
  812SOL     OW 2434   1.623   2.914   0.951 -0.0225  0.1091 -0.1526
  812SOL    HW1 2435   1.669   2.823   0.946 -0.9507 -0.0696  1.5270
  812SOL    HW2 2436   1.521   2.900   0.959 -4.1574 -1.9302  0.0484
  813SOL     OW 2437   1.584   2.873   1.930  0.3472 -0.4215  0.1937
  813SOL    HW1 2438   1.520   2.813   1.982  1.1650  0.0553 -0.4245
  813SOL    HW2 2439   1.634   2.819   1.855 -2.2960 -0.1595 -0.0001
  814SOL     OW 2440   1.159   2.651   1.860 -0.6478  0.2453 -0.4734
  814SOL    HW1 2441   1.213   2.646   1.949 -0.1854 -0.0861 -0.7752
  814SOL    HW2 2442   1.178   2.740   1.818 -0.6597 -1.0087 -0.5167
  815SOL     OW 2443   0.480   0.299   3.087 -0.2951 -0.4972  0.2090
  815SOL    HW1 2444   0.566   0.254   0.013  0.1735  1.9728  3.4528
  815SOL    HW2 2445   0.498   0.381   3.036  2.7039 -3.2516  0.3224
  816SOL     OW 2446   2.372   1.139   3.039  0.0898 -0.2849 -0.0369
  816SOL    HW1 2447   2.375   1.233   3.076  1.4647  1.0816 -2.9258
  816SOL    HW2 2448   2.364   1.075   0.010 -0.2352 -0.4676  0.2165
  817SOL     OW 2449   2.761   2.370   2.543  0.2688 -0.4829 -0.2296
  817SOL    HW1 2450   2.759   2.379   2.647 -0.6068 -0.0100 -0.0571
  817SOL    HW2 2451   2.835   2.315   2.508 -1.1192  1.0672  1.4733
  818SOL     OW 2452   0.919   1.349   0.368  0.0155  0.1855 -0.6873
  818SOL    HW1 2453   0.889   1.252   0.392 -0.6450 -1.4801 -0.9548
  818SOL    HW2 2454   0.850   1.413   0.407  2.2200 -3.9028  1.2836
  819SOL     OW 2455   1.623   1.352   2.852 -0.5024  0.1263  0.0905
  819SOL    HW1 2456   1.693   1.280   2.825 -0.2724 -1.7991 -2.4758
  819SOL    HW2 2457   1.649   1.418   2.927 -1.4894  2.0424  0.4124
  820SOL     OW 2458   0.535   1.350   0.454 -0.1964 -0.1705  0.2135
  820SOL    HW1 2459   0.603   1.395   0.513 -1.7480 -0.0858  1.5163
  820SOL    HW2 2460   0.552   1.364   0.352  1.7207 -2.2789 -0.8335
  821SOL     OW 2461   0.375   3.004   1.337 -0.2723 -0.1905  0.1407
  821SOL    HW1 2462   0.454   2.977   1.277  0.3848 -1.2829  2.8467
  821SOL    HW2 2463   0.395   2.988   1.436 -2.1801 -0.4984 -2.0194
  822SOL     OW 2464   1.998   1.987   2.852 -0.5095 -0.0674  0.0553
  822SOL    HW1 2465   2.013   2.016   2.946 -0.2383  0.7165 -0.5643
  822SOL    HW2 2466   1.959   2.069   2.804  0.9857  1.6993  1.7853
  823SOL     OW 2467   0.905   0.656   2.408  0.2235 -0.4152  0.0098
  823SOL    HW1 2468   0.950   0.566   2.383 -1.1091 -0.8148 -0.1900
  823SOL    HW2 2469   0.801   0.646   2.407 -2.4976 -1.0930  0.6525
  824SOL     OW 2470   2.754   2.678   1.643 -0.4361  0.2096 -0.3122
  824SOL    HW1 2471   2.691   2.648   1.716  0.8290  0.5307  0.2034
  824SOL    HW2 2472   2.703   2.686   1.557 -3.2577 -0.7361  0.4345
  825SOL     OW 2473   0.084   1.853   2.467  0.1256  0.1315 -0.2176
  825SOL    HW1 2474   0.096   1.856   2.363  2.6341 -1.4008 -4.3367
  825SOL    HW2 2475   0.019   1.780   2.493 -1.4695  1.7290  1.1117
  826SOL     OW 2476   1.575   0.208   0.208 -0.1836  0.6265 -0.2306
  826SOL    HW1 2477   1.631   0.278   0.256 -2.3962  0.2721  2.8667
  826SOL    HW2 2478   1.634   0.134   0.173 -1.9917 -0.4501 -2.1291
  827SOL     OW 2479   0.083   1.839   1.852 -0.1846  0.4051 -0.2573
  827SOL    HW1 2480   0.002   1.865   1.903  2.0175 -0.1485 -1.4335
  827SOL    HW2 2481   0.109   1.742   1.880 -0.5601  0.3692  1.5681
  828SOL     OW 2482   0.277   0.352   1.405  0.0736 -0.1668  0.2060
  828SOL    HW1 2483   0.239   0.431   1.357 -0.3748  1.3366  0.0977
  828SOL    HW2 2484   0.256   0.266   1.357 -1.6453 -2.1426  0.3209
  829SOL     OW 2485   0.932   1.662   2.417 -0.1364 -0.4688 -0.0971
  829SOL    HW1 2486   0.844   1.682   2.463  2.0152 -1.1867 -1.7577
  829SOL    HW2 2487   0.932   1.576   2.361 -0.1996  2.0327 -1.1427
  830SOL     OW 2488   1.040   0.609   1.560  0.4310  0.6129  0.8221
  830SOL    HW1 2489   0.975   0.647   1.480 -1.4826  1.4228 -3.5400
  830SOL    HW2 2490   0.982   0.573   1.638  0.1660  0.4717  0.8312
  831SOL     OW 2491   2.615   1.445   3.006  0.2662  0.0613  0.0261
  831SOL    HW1 2492   2.621   1.438   2.903 -0.3312  0.0895 -1.4382
  831SOL    HW2 2493   2.698   1.482   3.048 -1.7695 -1.3314 -3.4037
  832SOL     OW 2494   1.132   2.260   2.793 -0.1349 -0.3081  0.1807
  832SOL    HW1 2495   1.073   2.342   2.797  1.3813  0.5510 -0.3925
  832SOL    HW2 2496   1.081   2.171   2.774 -0.6581  0.0157 -1.7906
  833SOL     OW 2497   0.323   0.527   1.621 -0.0067 -0.5236 -0.5543
  833SOL    HW1 2498   0.228   0.552   1.655 -0.4491  2.1342  1.3002
  833SOL    HW2 2499   0.311   0.461   1.546 -0.5301  0.5183 -1.3050
  834SOL     OW 2500   0.067   1.010   1.299 -0.0930  0.0350  0.3018
  834SOL    HW1 2501   0.125   1.074   1.348  0.8509 -2.4817  0.2265
  834SOL    HW2 2502   0.119   0.940   1.248 -0.4801  0.8043  1.1483
  835SOL     OW 2503   2.698   0.532   0.610 -0.1746 -0.0584  0.0481
  835SOL    HW1 2504   2.795   0.522   0.649  1.4249 -0.8470  1.9503
  835SOL    HW2 2505   2.628   0.471   0.657 -2.1254  1.0136 -0.0263
  836SOL     OW 2506   0.619   2.404   2.989 -0.0575  0.1024  0.0743
  836SOL    HW1 2507   0.637   2.313   3.033 -0.5585 -3.1365  0.9306
  836SOL    HW2 2508   0.623   2.402   2.886 -0.8830  1.2093 -0.4169
  837SOL     OW 2509   1.397   2.083   0.340  0.0790 -0.2002  0.1842
  837SOL    HW1 2510   1.438   2.152   0.277  1.7102  0.1358 -0.5887
  837SOL    HW2 2511   1.292   2.085   0.328 -1.1807 -0.3118 -2.0542
  838SOL     OW 2512   2.203   0.914   2.158  0.2278 -0.3839  0.0913
  838SOL    HW1 2513   2.168   0.983   2.091  3.9238 -0.0569  0.1541
  838SOL    HW2 2514   2.278   0.868   2.116 -0.3243  3.3263  1.5842
  839SOL     OW 2515   1.177   1.171   2.890  0.1410  0.2323 -0.1357
  839SOL    HW1 2516   1.104   1.219   2.940  0.3520 -2.0961  0.6266
  839SOL    HW2 2517   1.172   1.072   2.916  2.9463  0.1287  0.4972
  840SOL     OW 2518   0.710   1.033   0.084  0.5555 -0.0195 -0.7737
  840SOL    HW1 2519   0.644   0.959   0.073 -2.7565  0.1639  0.1622
  840SOL    HW2 2520   0.687   1.119   0.035 -0.9013  1.3294 -0.4818
  841SOL     OW 2521   1.190   2.150   3.065 -0.3630  0.6530 -0.1541
  841SOL    HW1 2522   1.136   2.189   0.031  0.3318 -1.1777 -0.2302
  841SOL    HW2 2523   1.157   2.183   2.976 -1.9633 -1.4126  2.1466
  842SOL     OW 2524   0.160   0.579   0.412 -0.2734 -0.7826 -0.3223
  842SOL    HW1 2525   0.175   0.575   0.512 -2.7635  1.0634 -1.6888
  842SOL    HW2 2526   0.241   0.542   0.362  2.9348 -1.0586  1.5782
  843SOL     OW 2527   0.560   0.717   1.073  0.3714 -0.6214  0.0583
  843SOL    HW1 2528   0.473   0.768   1.067 -2.8941  2.2702 -0.2430
  843SOL    HW2 2529   0.560   0.637   1.007  0.9100 -0.5039 -0.4102
  844SOL     OW 2530   2.010   2.653   2.520 -0.0927 -0.3338  0.3835
  844SOL    HW1 2531   2.107   2.673   2.514 -2.2088 -0.6142 -0.0239
  844SOL    HW2 2532   1.955   2.691   2.444 -0.0025 -0.0108  1.2255
  845SOL     OW 2533   2.888   2.876   1.976 -0.4714 -0.0232  0.2034
  845SOL    HW1 2534   2.982   2.904   2.004 -2.1647  3.7369 -1.6652
  845SOL    HW2 2535   2.901   2.802   1.904  0.8783  1.6497  0.6279
  846SOL     OW 2536   1.857   0.853   2.564 -0.5547  0.4776  0.1880
  846SOL    HW1 2537   1.806   0.789   2.626  0.2373 -0.6641 -0.0981
  846SOL    HW2 2538   1.795   0.925   2.529  0.6572 -1.1772 -0.8442
  847SOL     OW 2539   0.022   0.453   1.684 -0.3000 -0.0585 -0.3402
  847SOL    HW1 2540   0.044   0.513   1.764 -0.3092  1.4071 -1.4296
  847SOL    HW2 2541   3.099   0.359   1.718  0.2382 -2.1898  0.9493
  848SOL     OW 2542   2.553   2.861   0.197  0.2382 -0.0892  0.2461
  848SOL    HW1 2543   2.632   2.869   0.136  0.8959  1.1798  1.3559
  848SOL    HW2 2544   2.479   2.800   0.151 -1.5637 -1.7600 -0.6165
  849SOL     OW 2545   0.484   2.942   0.898  0.0599  0.3766  0.1461
  849SOL    HW1 2546   0.464   2.845   0.934  1.6264 -1.3353  2.1623
  849SOL    HW2 2547   0.395   2.997   0.893 -0.1708  2.6183 -1.2018
  850SOL     OW 2548   0.648   2.351   0.304 -0.1588  0.5870  0.0432
  850SOL    HW1 2549   0.654   2.454   0.287 -1.6792 -0.6239  1.7144
  850SOL    HW2 2550   0.729   2.307   0.260  0.2888  1.0121 -0.2040
  851SOL     OW 2551   1.981   0.475   2.954  0.1727  0.5877  0.5305
  851SOL    HW1 2552   2.018   0.530   2.880 -1.7620  0.6011  4.3758
  851SOL    HW2 2553   1.993   0.377   2.935  1.8403  0.7054 -2.2903
  852SOL     OW 2554   1.816   2.550   2.666 -0.0679  0.6529 -0.0424
  852SOL    HW1 2555   1.891   2.610   2.635  0.6518 -0.6592  1.6608
  852SOL    HW2 2556   1.820   2.460   2.615  1.3882 -1.5391  0.9265
  853SOL     OW 2557   3.103   2.471   0.153  0.2675 -0.0485  0.2237
  853SOL    HW1 2558   0.045   2.558   0.131 -0.7246 -0.1878 -1.2956
  853SOL    HW2 2559   0.039   2.389   0.112  3.2400 -0.9952 -2.2376
  854SOL     OW 2560   1.252   0.519   2.274 -0.0323  0.2155  0.3049
  854SOL    HW1 2561   1.318   0.457   2.325  0.2864  0.2268 -1.5717
  854SOL    HW2 2562   1.304   0.593   2.228  1.1965  0.4060 -1.8168
  855SOL     OW 2563   0.176   2.899   0.720 -0.4465  0.0927  0.1360
  855SOL    HW1 2564   0.084   2.861   0.731 -0.2834 -0.3597  1.8218
  855SOL    HW2 2565   0.206   2.888   0.623 -1.1352 -1.0773  0.8005
  856SOL     OW 2566   0.312   3.038   2.617  0.3343  0.0405 -0.4907
  856SOL    HW1 2567   0.277   2.948   2.587 -1.8880 -0.5300  1.4795
  856SOL    HW2 2568   0.411   3.033   2.631 -1.6017  1.9387  1.1761
  857SOL     OW 2569   1.035   0.096   1.544  0.6584  0.3781  0.2697
  857SOL    HW1 2570   1.051   0.126   1.640 -0.9952 -1.3600 -0.4619
  857SOL    HW2 2571   0.949   0.131   1.514  2.2734  2.0478  0.7092
  858SOL     OW 2572   0.379   1.781   1.838  0.1521 -0.1767  0.1404
  858SOL    HW1 2573   0.282   1.782   1.797 -1.1083  2.1912 -0.3073
  858SOL    HW2 2574   0.452   1.797   1.771 -0.2833  0.1043 -1.3553
  859SOL     OW 2575   1.963   2.864   1.885 -0.2950 -0.8298  0.0988
  859SOL    HW1 2576   2.038   2.852   1.821 -1.8668 -0.5860 -1.1562
  859SOL    HW2 2577   1.910   2.779   1.883  0.9083  4.5812  0.7479
  860SOL     OW 2578   1.714   0.230   0.624 -0.9068  0.7348 -0.8950
  860SOL    HW1 2579   1.676   0.149   0.677  1.0183 -2.1435 -0.3683
  860SOL    HW2 2580   1.759   0.290   0.690  1.1046 -1.3602 -3.2518
  861SOL     OW 2581   2.614   0.787   0.688  0.4894  0.2330 -0.5899
  861SOL    HW1 2582   2.659   0.699   0.669 -1.4106  0.8414  0.5352
  861SOL    HW2 2583   2.656   0.820   0.777  0.0740 -0.6274 -0.0950
  862SOL     OW 2584   1.928   0.668   1.925  0.1709  0.2902  0.7837
  862SOL    HW1 2585   1.989   0.583   1.910  1.3778 -1.4288 -1.8493
  862SOL    HW2 2586   1.959   0.738   1.855  1.2484  1.6145  0.0304
  863SOL     OW 2587   0.792   0.834   0.992 -0.5683  0.1212 -0.0285
  863SOL    HW1 2588   0.710   0.790   1.032  3.3245  0.2209  1.0369
  863SOL    HW2 2589   0.876   0.782   1.012 -1.8225 -0.2085 -1.2466
  864SOL     OW 2590   3.098   2.852   2.433  0.3193 -0.6109 -0.0502
  864SOL    HW1 2591   3.030   2.780   2.411  0.0676  0.6165  2.1259
  864SOL    HW2 2592   3.049   2.922   2.486 -0.6517  0.5085  2.5686
  865SOL     OW 2593   1.086   0.818   2.503  0.8701 -0.4361 -0.6289
  865SOL    HW1 2594   1.020   0.754   2.458 -1.1228  0.3452  1.4885
  865SOL    HW2 2595   1.180   0.779   2.513 -0.5108 -1.2878 -1.0615
  866SOL     OW 2596   2.535   2.615   0.632  0.5435  0.7390  0.2025
  866SOL    HW1 2597   2.474   2.675   0.684 -0.5534  0.5538 -4.3756
  866SOL    HW2 2598   2.569   2.532   0.682  0.8518 -1.7345  0.2395
  867SOL     OW 2599   2.869   2.976   0.597 -0.3157 -0.1414  0.0758
  867SOL    HW1 2600   2.773   2.936   0.582  0.1629  1.0558  0.3417
  867SOL    HW2 2601   2.875   3.072   0.555 -0.2934  2.5352 -1.0859
  868SOL     OW 2602   1.670   1.111   0.044 -0.2812  0.7305  0.3254
  868SOL    HW1 2603   1.600   1.099   3.075  1.1668  3.1073  0.9948
  868SOL    HW2 2604   1.672   1.210   0.073  0.0077  1.2885  2.1178
  869SOL     OW 2605   3.063   2.344   0.589 -1.0566 -0.6689 -0.3081
  869SOL    HW1 2606   2.964   2.333   0.586  0.6295  0.4833  0.7423
  869SOL    HW2 2607   3.104   2.309   0.501  0.4105 -1.7017 -1.0353
  870SOL     OW 2608   2.239   2.048   0.354  0.0659  0.4035  0.4957
  870SOL    HW1 2609   2.309   1.992   0.398 -0.5340  0.1070 -2.5011
  870SOL    HW2 2610   2.201   1.988   0.282  3.6787 -2.0202 -0.1566
  871SOL     OW 2611   0.766   1.095   1.003 -0.3595  0.3103 -0.3220
  871SOL    HW1 2612   0.766   0.997   0.980 -0.6276 -0.8884 -1.0385
  871SOL    HW2 2613   0.867   1.123   1.013  1.2351 -1.7392  0.7844
  872SOL     OW 2614   1.126   2.073   2.245  0.7357  0.4980  0.0280
  872SOL    HW1 2615   1.228   2.051   2.261  1.7763 -1.5172 -0.9346
  872SOL    HW2 2616   1.112   2.140   2.171  0.6161 -1.1538 -0.4373
  873SOL     OW 2617   0.522   2.518   1.932  0.0032  0.1643  0.0501
  873SOL    HW1 2618   0.514   2.597   1.995 -0.3267  0.7947  0.1027
  873SOL    HW2 2619   0.458   2.447   1.958  1.4930  1.3254  1.1239
  874SOL     OW 2620   0.889   0.230   0.995  0.3282  0.2406 -0.2854
  874SOL    HW1 2621   0.855   0.305   1.057 -2.5282 -0.7650  0.8212
  874SOL    HW2 2622   0.877   0.135   1.037 -0.3558 -1.0088  0.0995
  875SOL     OW 2623   2.769   0.380   1.305 -0.0429  0.5064  0.0739
  875SOL    HW1 2624   2.698   0.455   1.321  1.9111  1.3084 -0.8697
  875SOL    HW2 2625   2.857   0.409   1.350  1.8050 -0.0268 -3.7800
  876SOL     OW 2626   0.417   0.900   0.195 -0.5471 -0.3546 -0.3525
  876SOL    HW1 2627   0.422   0.986   0.249  0.9136 -3.6781 -0.0451
  876SOL    HW2 2628   0.390   0.920   0.105  0.6998 -0.7232  3.8038
  877SOL     OW 2629   0.781   0.498   1.421 -0.2945 -0.4126 -0.0673
  877SOL    HW1 2630   0.822   0.490   1.513 -0.7164 -0.0170 -2.1253
  877SOL    HW2 2631   0.731   0.584   1.396  0.6224  1.9490 -3.3449
  878SOL     OW 2632   1.908   2.684   0.249  0.1315 -0.0665  0.2231
  878SOL    HW1 2633   1.964   2.747   0.192  0.4073  2.4242  1.6031
  878SOL    HW2 2634   1.949   2.683   0.343  1.0889 -0.2098 -0.9129
  879SOL     OW 2635   2.629   1.442   1.368  0.1744 -0.2381 -0.5095
  879SOL    HW1 2636   2.666   1.426   1.273  2.5854  1.1375 -0.8137
  879SOL    HW2 2637   2.541   1.484   1.370  1.2111 -2.8210  2.7385
  880SOL     OW 2638   1.237   2.407   0.572 -0.0165 -0.5036 -0.7266
  880SOL    HW1 2639   1.323   2.352   0.590  0.9505 -1.8245 -1.5567
  880SOL    HW2 2640   1.169   2.368   0.509  2.7446  1.0460  0.7173
  881SOL     OW 2641   0.869   2.231   0.180  0.0240 -0.0620  0.2957
  881SOL    HW1 2642   0.935   2.301   0.215 -2.3172  0.6285  2.3021
  881SOL    HW2 2643   0.909   2.135   0.189 -2.6360 -0.1405 -2.2606
  882SOL     OW 2644   1.875   0.761   1.334 -0.3404  0.2330  0.1200
  882SOL    HW1 2645   1.875   0.753   1.433  0.3936  1.1418  1.0138
  882SOL    HW2 2646   1.787   0.791   1.292 -1.2709  3.0056  0.2795
  883SOL     OW 2647   1.682   1.002   1.715  0.4043  0.2337  0.6922
  883SOL    HW1 2648   1.718   0.930   1.654 -0.6895 -1.5443  3.2924
  883SOL    HW2 2649   1.627   0.958   1.792 -2.4604 -2.4747  0.3089
  884SOL     OW 2650   2.786   0.625   0.376 -0.2860  0.4055  0.2875
  884SOL    HW1 2651   2.775   0.724   0.361 -0.6050 -0.8068  0.6629
  884SOL    HW2 2652   2.731   0.598   0.453  3.1324 -2.5997 -1.2332
  885SOL     OW 2653   1.311   1.519   2.990 -0.3445 -0.4388  0.4901
  885SOL    HW1 2654   1.216   1.549   2.978  4.2247  0.1333  0.9149
  885SOL    HW2 2655   1.359   1.538   2.903  0.2455 -1.3524  1.8738
  886SOL     OW 2656   1.429   1.511   2.754  0.2787  0.4196  0.0962
  886SOL    HW1 2657   1.457   1.587   2.692 -3.2390 -2.0778  1.2972
  886SOL    HW2 2658   1.508   1.451   2.778  0.5346 -1.9573 -0.6614
  887SOL     OW 2659   1.730   0.122   1.371  0.0609 -0.1761  0.3734
  887SOL    HW1 2660   1.671   0.085   1.294 -1.7095 -1.0439 -1.6392
  887SOL    HW2 2661   1.827   0.120   1.338 -0.1294 -0.2409 -0.6746
  888SOL     OW 2662   2.533   0.646   1.752  0.2158  0.8361 -0.3699
  888SOL    HW1 2663   2.607   0.671   1.818 -2.5131  0.8651  0.4691
  888SOL    HW2 2664   2.504   0.717   1.685  0.5949 -1.3296 -1.1921
  889SOL     OW 2665   3.062   2.814   1.013 -0.0262  0.0762  0.5038
  889SOL    HW1 2666   3.060   2.820   0.912 -0.5895 -0.1263  1.6006
  889SOL    HW2 2667   2.990   2.750   1.046  0.7207  0.0050 -0.3997
  890SOL     OW 2668   2.049   2.459   0.185 -0.1501 -0.2990 -0.4140
  890SOL    HW1 2669   1.994   2.537   0.212  1.7857 -1.1560  3.1409
  890SOL    HW2 2670   2.046   2.457   0.083 -0.4361  0.9674  0.2891
  891SOL     OW 2671   0.498   1.120   2.649  0.2514 -0.6675 -0.8400
  891SOL    HW1 2672   0.466   1.141   2.555 -1.4911  0.2276 -0.3010
  891SOL    HW2 2673   0.578   1.181   2.668  1.9224  0.2227  0.1546
  892SOL     OW 2674   3.105   0.039   1.395  0.2614 -0.4024 -0.0831
  892SOL    HW1 2675   0.077   0.070   1.339 -4.0355  1.0497 -0.2838
  892SOL    HW2 2676   3.020   0.052   1.342  1.3848 -2.9800  2.2562
  893SOL     OW 2677   1.611   3.101   1.168 -0.1402 -0.4385 -0.3568
  893SOL    HW1 2678   1.661   3.046   1.098  0.0221  2.9551 -1.9106
  893SOL    HW2 2679   1.521   0.018   1.135  1.8469  1.1119  1.6670
  894SOL     OW 2680   2.349   0.681   0.607 -0.7562 -0.3821 -0.2697
  894SOL    HW1 2681   2.265   0.738   0.618 -1.0866  3.5404  1.1687
  894SOL    HW2 2682   2.423   0.722   0.659  0.2823 -0.1374  0.2562
  895SOL     OW 2683   1.920   1.593   2.480  0.1792 -0.5558  0.3470
  895SOL    HW1 2684   1.912   1.521   2.552  0.4678  0.0937 -1.4378
  895SOL    HW2 2685   2.011   1.633   2.481 -1.6349  1.7106 -1.3121
  896SOL     OW 2686   1.721   0.496   1.761 -0.1431 -0.6904 -0.0452
  896SOL    HW1 2687   1.669   0.475   1.843 -2.2420  1.1754 -1.2949
  896SOL    HW2 2688   1.798   0.427   1.745 -0.1613  1.3189 -1.0659
  897SOL     OW 2689   0.668   1.432   2.056 -0.1663  0.1662 -0.3366
  897SOL    HW1 2690   0.760   1.396   2.084  2.9696 -1.2297  1.5088
  897SOL    HW2 2691   0.676   1.504   1.982 -0.5172  0.9745 -1.4258
  898SOL     OW 2692   2.407   2.383   2.348 -0.2739 -0.1496  0.2173
  898SOL    HW1 2693   2.377   2.418   2.258  0.5620  0.4180  0.6687
  898SOL    HW2 2694   2.484   2.318   2.331  0.8249  1.7939 -1.0306
  899SOL     OW 2695   1.220   1.115   1.579 -0.0268 -0.2388 -0.3483
  899SOL    HW1 2696   1.191   1.185   1.511 -0.5796 -1.2068  1.3255
  899SOL    HW2 2697   1.318   1.090   1.568  0.1430  0.0194  1.9274
  900SOL     OW 2698   1.388   2.201   2.674  0.3019  0.0731 -0.0063
  900SOL    HW1 2699   1.430   2.114   2.708  0.8664  0.3180 -1.4059
  900SOL    HW2 2700   1.295   2.218   2.709  1.1884  3.4819  0.8282
  901SOL     OW 2701   0.485   1.938   2.486 -0.1243  0.3905 -0.1655
  901SOL    HW1 2702   0.432   1.859   2.465  1.0177  1.7847  1.4321
  901SOL    HW2 2703   0.435   2.031   2.493 -1.2608  5.2702 -2.0299
  902SOL     OW 2704   1.982   1.626   0.243 -0.2655  0.5200 -0.1200
  902SOL    HW1 2705   1.996   1.563   0.163  0.1039  1.7855  3.1250
  902SOL    HW2 2706   2.034   1.601   0.332  0.2694 -2.6108  2.7066
  903SOL     OW 2707   2.001   1.170   0.205 -0.5040  0.4458 -0.0270
  903SOL    HW1 2708   1.979   1.150   0.108  0.3726 -0.5738  0.2571
  903SOL    HW2 2709   2.082   1.229   0.209 -1.3985 -2.6265 -2.6961
  904SOL     OW 2710   0.763   0.852   2.686 -0.0618  0.5960  0.1087
  904SOL    HW1 2711   0.800   0.760   2.680 -1.2907  2.5208  0.6016
  904SOL    HW2 2712   0.817   0.900   2.754  1.9386 -0.7717 -1.2948
  905SOL     OW 2713   2.823   0.493   1.044  0.3632  0.0195  0.1011
  905SOL    HW1 2714   2.750   0.439   0.997  2.0541 -1.6840  1.6392
  905SOL    HW2 2715   2.853   0.440   1.122 -0.0828  1.0635  0.7785
  906SOL     OW 2716   2.937   2.057   0.719  0.2123  0.2773  0.1860
  906SOL    HW1 2717   2.919   2.001   0.801 -0.2530 -1.4202 -2.1844
  906SOL    HW2 2718   3.026   2.107   0.722 -1.5684  0.3142  1.3548
  907SOL     OW 2719   1.256   0.526   0.689 -0.2025 -0.4886 -0.8465
  907SOL    HW1 2720   1.324   0.467   0.650 -0.3519  3.1683 -0.4500
  907SOL    HW2 2721   1.258   0.610   0.634  1.0776 -2.4541 -1.4073
  908SOL     OW 2722   1.911   0.061   1.713  0.0495  0.1359  0.3385
  908SOL    HW1 2723   1.949   0.003   1.636 -0.3572  0.1993 -0.8619
  908SOL    HW2 2724   1.940   0.033   1.806 -1.7098  0.8151 -0.2825
  909SOL     OW 2725   2.490   0.852   1.595  0.1120 -0.1655  0.2337
  909SOL    HW1 2726   2.547   0.841   1.510 -0.2415 -0.8899 -1.7384
  909SOL    HW2 2727   2.487   0.953   1.623  2.5302  2.7199  0.2117
  910SOL     OW 2728   1.270   2.695   2.116 -0.0337 -0.3820 -0.1515
  910SOL    HW1 2729   1.237   2.670   2.203  2.1468  1.8433  0.5249
  910SOL    HW2 2730   1.235   2.789   2.097 -0.7205 -1.7759 -0.9411
  911SOL     OW 2731   2.276   0.643   1.830  0.1612  0.1644 -0.6777
  911SOL    HW1 2732   2.367   0.631   1.785  1.4827 -0.3348  1.2768
  911SOL    HW2 2733   2.217   0.560   1.806  0.4759 -1.5410  2.4936
  912SOL     OW 2734   2.623   1.807   1.509  0.4702  0.3467  0.4013
  912SOL    HW1 2735   2.661   1.850   1.425  1.3239 -2.1811  2.1967
  912SOL    HW2 2736   2.609   1.877   1.580  1.1966  0.2117 -5.2574
  913SOL     OW 2737   2.810   1.938   1.333 -0.0642  0.1466 -0.4484
  913SOL    HW1 2738   2.765   2.027   1.366  1.3239 -0.0726 -0.7038
  913SOL    HW2 2739   2.908   1.955   1.332 -1.7770 -1.2099 -0.2368
  914SOL     OW 2740   2.112   1.652   1.371  0.1822 -0.6231  1.0079
  914SOL    HW1 2741   2.206   1.622   1.391 -1.6007  0.6499 -0.9029
  914SOL    HW2 2742   2.079   1.612   1.281  2.0417 -0.0035 -0.5692
  915SOL     OW 2743   1.225   1.299   1.350  0.1339 -0.5526 -0.3999
  915SOL    HW1 2744   1.131   1.264   1.329  0.5554 -1.0935  0.3306
  915SOL    HW2 2745   1.281   1.300   1.269  1.2520 -1.0800 -0.0599
  916SOL     OW 2746   2.473   2.520   1.369  0.1110 -0.0118  0.3987
  916SOL    HW1 2747   2.535   2.519   1.288  0.7405 -0.5410  1.7866
  916SOL    HW2 2748   2.481   2.606   1.421 -0.3057 -3.5054 -0.7216
  917SOL     OW 2749   2.647   1.729   2.797  0.5584  0.0484 -0.0611
  917SOL    HW1 2750   2.687   1.742   2.888 -0.2753  0.7448 -0.5138
  917SOL    HW2 2751   2.706   1.678   2.729  0.7910 -0.5042 -2.6004
  918SOL     OW 2752   1.893   2.318   2.486  0.7280 -0.3451 -0.4907
  918SOL    HW1 2753   1.948   2.235   2.484 -3.6686  1.9068 -3.9119
  918SOL    HW2 2754   1.930   2.380   2.419 -2.2481 -0.6523  0.5210
  919SOL     OW 2755   1.408   2.095   1.790 -0.4179  0.9581  0.0139
  919SOL    HW1 2756   1.445   2.020   1.731  2.3322  0.3913  1.5425
  919SOL    HW2 2757   1.403   2.179   1.737  2.4123  0.3916  2.1839
  920SOL     OW 2758   2.873   0.277   2.938 -0.3053  0.2206 -0.1804
  920SOL    HW1 2759   2.951   0.347   2.937 -1.3128 -0.2842 -0.5466
  920SOL    HW2 2760   2.810   0.288   3.020 -1.4356  1.6948  2.7631
  921SOL     OW 2761   2.653   0.167   2.288  0.3129  0.2798 -0.0776
  921SOL    HW1 2762   2.692   0.129   2.201 -2.2866  1.6019 -2.9468
  921SOL    HW2 2763   2.724   0.156   2.359 -1.4759 -1.0316 -1.8939
  922SOL     OW 2764   1.952   2.079   0.360  0.6334 -0.4537 -0.0967
  922SOL    HW1 2765   1.953   2.145   0.279  1.5955 -1.3600 -0.1366
  922SOL    HW2 2766   2.041   2.062   0.404 -5.5496  0.0944  0.1166
  923SOL     OW 2767   0.333   1.924   0.259 -0.5271 -0.4311 -0.0778
  923SOL    HW1 2768   0.278   1.976   0.193  1.0512  1.3325  0.3626
  923SOL    HW2 2769   0.399   1.988   0.304  1.3554 -0.2590  1.1156
  924SOL     OW 2770   1.189   0.253   2.806  0.6074 -0.0023  0.1047
  924SOL    HW1 2771   1.187   0.225   2.899 -5.0732  0.8393 -0.2842
  924SOL    HW2 2772   1.269   0.315   2.794  3.1698 -1.6383  1.8939
  925SOL     OW 2773   2.385   1.017   0.734  0.3278  0.0998 -0.4407
  925SOL    HW1 2774   2.376   1.119   0.758  0.0766  0.8826 -0.4447
  925SOL    HW2 2775   2.440   0.996   0.654 -0.9564 -3.4816 -0.0724
  926SOL     OW 2776   2.755   1.197   0.819 -0.1843 -0.3328 -0.1853
  926SOL    HW1 2777   2.765   1.107   0.772  0.2091  0.9501 -2.8258
  926SOL    HW2 2778   2.784   1.190   0.917 -2.0770  1.0050  0.8567
  927SOL     OW 2779   0.317   1.281   0.055  0.0475 -0.7211 -0.0515
  927SOL    HW1 2780   0.353   1.201   3.106  0.2739 -0.4972 -1.4844
  927SOL    HW2 2781   0.248   1.329   3.105 -1.2118  0.8360  0.6080
  928SOL     OW 2782   0.129   0.465   2.308  0.2135 -0.1819  0.8468
  928SOL    HW1 2783   0.096   0.369   2.301 -0.5568 -1.7502 -2.1915
  928SOL    HW2 2784   0.211   0.467   2.360 -3.3584  2.6619 -1.6540
  929SOL     OW 2785   2.803   2.940   1.416  0.0057 -0.2344 -0.3786
  929SOL    HW1 2786   2.772   2.982   1.328 -2.4323 -1.5421  1.5638
  929SOL    HW2 2787   2.745   2.969   1.497  0.9873  2.2605 -2.0849
  930SOL     OW 2788   1.975   1.841   1.509  0.4934 -0.5281  0.4514
  930SOL    HW1 2789   2.029   1.760   1.474  0.9793  0.4526  1.2401
  930SOL    HW2 2790   1.955   1.828   1.607 -1.4133 -0.8515 -0.2487
  931SOL     OW 2791   1.619   1.478   0.776  0.7442 -0.3578  0.1189
  931SOL    HW1 2792   1.590   1.555   0.838  0.9463  2.2615 -0.8396
  931SOL    HW2 2793   1.619   1.497   0.677 -0.8357  1.0044 -0.4173
  932SOL     OW 2794   2.789   1.197   1.089 -0.1575 -0.6256 -0.0081
  932SOL    HW1 2795   2.743   1.108   1.113  1.1972 -0.6324 -1.1112
  932SOL    HW2 2796   2.728   1.281   1.105 -2.2741 -1.6677 -0.2026
  933SOL     OW 2797   2.417   1.629   1.455 -0.4714 -0.3462 -0.0147
  933SOL    HW1 2798   2.364   1.610   1.540  1.0557 -1.5168 -0.1390
  933SOL    HW2 2799   2.488   1.698   1.480  0.7012  0.2089  1.0487
  934SOL     OW 2800   1.563   2.878   1.351 -0.5838 -0.0849 -0.4719
  934SOL    HW1 2801   1.566   2.964   1.293  1.4999 -0.0448 -1.1628
  934SOL    HW2 2802   1.647   2.874   1.407 -1.8411  0.0917  0.8272
  935SOL     OW 2803   0.520   1.726   0.804  0.5709  0.2583  0.2185
  935SOL    HW1 2804   0.557   1.711   0.899  0.6886 -0.4289  1.6306
  935SOL    HW2 2805   0.581   1.798   0.757 -0.3428 -1.5195 -1.9986
  936SOL     OW 2806   3.006   1.233   0.659  0.3794  0.2560 -0.2954
  936SOL    HW1 2807   2.914   1.270   0.630 -0.8675  0.8776  0.6404
  936SOL    HW2 2808   3.004   1.180   0.744 -0.9581 -0.6131 -1.0322
  937SOL     OW 2809   1.794   2.687   0.877 -0.2352 -0.2416 -0.7370
  937SOL    HW1 2810   1.695   2.676   0.857 -1.8918  0.6143 -3.4631
  937SOL    HW2 2811   1.850   2.604   0.847  1.2588  0.6297 -1.1655
  938SOL     OW 2812   2.566   2.463   1.104  0.0806  0.0226 -0.2354
  938SOL    HW1 2813   2.515   2.529   1.046  0.8514 -0.0782 -0.8211
  938SOL    HW2 2814   2.508   2.382   1.136  1.4621 -1.8830 -1.6012
  939SOL     OW 2815   0.342   2.494   2.994 -0.1039 -0.6160  0.1021
  939SOL    HW1 2816   0.432   2.512   3.035 -1.5915 -1.9074  2.3138
  939SOL    HW2 2817   0.334   2.391   2.988  0.6657 -2.0384 -0.8179
  940SOL     OW 2818   3.035   2.941   0.188  0.0290 -0.2833  0.0257
  940SOL    HW1 2819   3.072   3.038   0.177 -1.5378  1.5045  1.5052
  940SOL    HW2 2820   3.073   2.875   0.121 -1.1415 -0.2592 -1.6022
  941SOL     OW 2821   1.076   3.074   2.898 -0.3636 -0.2579 -0.0921
  941SOL    HW1 2822   1.083   3.004   2.970  0.5842 -0.6043 -1.2542
  941SOL    HW2 2823   1.099   3.029   2.814 -0.4167  0.7830  2.0970
  942SOL     OW 2824   1.238   1.745   1.612  0.6904 -0.9373 -0.7637
  942SOL    HW1 2825   1.339   1.771   1.620  2.5546 -0.2556 -1.4773
  942SOL    HW2 2826   1.223   1.642   1.606  1.2828  0.1907  0.9739
  943SOL     OW 2827   1.996   1.247   1.572 -0.5662 -0.2533  0.1916
  943SOL    HW1 2828   1.975   1.277   1.482  0.8205 -1.2755  1.8850
  943SOL    HW2 2829   1.919   1.240   1.640  1.5215  1.2480  0.1082
  944SOL     OW 2830   1.963   0.734   1.616  0.0669 -0.0293  0.4038
  944SOL    HW1 2831   1.883   0.699   1.668  2.1762  0.4936  0.4250
  944SOL    HW2 2832   2.027   0.656   1.592  0.1986 -0.1322 -0.9197
  945SOL     OW 2833   0.022   3.092   1.096  0.4244 -0.4398  0.0367
  945SOL    HW1 2834   3.089   3.001   1.076 -1.7151  1.1157  1.9418
  945SOL    HW2 2835   3.062   0.050   1.137  1.4170  0.6548  1.3866
  946SOL     OW 2836   0.544   0.618   1.331 -0.1820  0.0152  0.1514
  946SOL    HW1 2837   0.554   0.517   1.338 -0.5312  0.3102 -1.0379
  946SOL    HW2 2838   0.548   0.652   1.237 -0.5582 -0.1967  0.4221
  947SOL     OW 2839   0.474   2.784   0.650  0.2852  0.5309  0.4037
  947SOL    HW1 2840   0.461   2.821   0.554 -1.1172 -0.2382 -1.2296
  947SOL    HW2 2841   0.462   2.857   0.718  1.4874  1.3506 -4.0658
  948SOL     OW 2842   2.711   1.364   2.014  0.3972 -0.1785 -0.8846
  948SOL    HW1 2843   2.635   1.302   2.048 -0.9566 -0.0204 -2.1274
  948SOL    HW2 2844   2.744   1.327   1.927 -0.4674  0.7575  1.4824
  949SOL     OW 2845   0.471   1.068   2.384  0.3655  0.0761  0.7393
  949SOL    HW1 2846   0.395   1.107   2.320 -1.4185  1.2157  1.0713
  949SOL    HW2 2847   0.446   0.975   2.412 -1.2376  1.7571 -1.5250
  950SOL     OW 2848   0.964   0.573   0.754  0.1656 -0.1418 -0.9174
  950SOL    HW1 2849   0.957   0.567   0.857 -1.7331  3.4458  1.8753
  950SOL    HW2 2850   1.055   0.539   0.720 -2.5299 -0.2205  0.5789
  951SOL     OW 2851   1.087   2.215   2.002 -0.0643 -0.0576  0.0658
  951SOL    HW1 2852   1.042   2.154   1.937 -0.9557  0.9055 -0.7933
  951SOL    HW2 2853   1.055   2.310   1.984  0.5066 -2.1451  0.8574
  952SOL     OW 2854   0.468   2.010   3.018  0.5246  0.2659  0.5864
  952SOL    HW1 2855   0.535   2.069   3.072  0.3087 -0.6837  0.1598
  952SOL    HW2 2856   0.445   1.923   3.066  0.4450  2.1889 -0.9483
  953SOL     OW 2857   1.942   3.030   2.452 -0.4191  0.0552  0.9602
  953SOL    HW1 2858   2.038   3.000   2.432 -2.3116  0.8523  1.4975
  953SOL    HW2 2859   1.911   3.102   2.391  1.0961 -4.7388 -1.2249
  954SOL     OW 2860   1.532   1.231   0.822 -0.0058 -0.0429  0.3372
  954SOL    HW1 2861   1.529   1.171   0.735 -0.0515 -2.0274 -0.4864
  954SOL    HW2 2862   1.569   1.325   0.797 -0.0639 -0.8795  1.6959
  955SOL     OW 2863   0.426   2.135   2.195  0.1790  0.2593  0.3793
  955SOL    HW1 2864   0.396   2.042   2.158 -0.0421 -1.1646  0.9223
  955SOL    HW2 2865   0.383   2.211   2.135 -0.6521  0.1919 -1.3150
  956SOL     OW 2866   1.669   0.715   1.603  0.1154 -0.0066  0.1233
  956SOL    HW1 2867   1.616   0.679   1.519 -1.0528  1.7481 -0.3399
  956SOL    HW2 2868   1.686   0.639   1.669 -1.0656 -0.8885  0.3331
  957SOL     OW 2869   2.209   1.860   2.716 -0.5865  0.4650  0.5582
  957SOL    HW1 2870   2.203   1.920   2.631 -0.9842  0.0548 -3.2584
  957SOL    HW2 2871   2.126   1.880   2.772 -0.6015 -1.1819 -0.2430
  958SOL     OW 2872   1.029   2.370   0.953 -0.0434  0.1563 -0.1204
  958SOL    HW1 2873   0.942   2.377   0.904 -1.2908 -2.5511  0.1273
  958SOL    HW2 2874   1.017   2.368   1.058 -0.4766  1.2469 -1.7451
  959SOL     OW 2875   1.730   2.083   2.670  0.4925 -0.5764  0.2197
  959SOL    HW1 2876   1.691   2.002   2.715 -0.4718  1.6442 -1.5996
  959SOL    HW2 2877   1.800   2.059   2.600  1.9230 -0.7479 -0.2543
  960SOL     OW 2878   0.045   0.403   2.911 -0.2699  0.4512 -0.8900
  960SOL    HW1 2879   0.078   0.356   2.827  0.0756 -1.6829  0.4182
  960SOL    HW2 2880   0.108   0.383   2.994  2.9674  0.7005 -1.3570
  961SOL     OW 2881   0.884   0.937   2.289  0.3965  0.5561 -0.5076
  961SOL    HW1 2882   0.833   1.003   2.345  0.7063  0.4916  2.4461
  961SOL    HW2 2883   0.907   0.852   2.340 -1.4706  0.5641 -1.5601
  962SOL     OW 2884   0.940   1.337   0.083 -0.3849  0.7462  0.3330
  962SOL    HW1 2885   1.041   1.315   0.087 -1.9908  2.5026 -0.5179
  962SOL    HW2 2886   0.901   1.347   0.174  1.1289 -2.3708 -0.9124
  963SOL     OW 2887   2.245   1.651   2.909  0.2665  0.3932 -0.0008
  963SOL    HW1 2888   2.204   1.703   2.832 -0.8444 -1.4682  0.2630
  963SOL    HW2 2889   2.301   1.710   2.967 -1.1491 -1.4067  0.0333
  964SOL     OW 2890   1.518   2.622   0.877  0.0219 -0.4079  0.3888
  964SOL    HW1 2891   1.432   2.590   0.839 -0.1618  0.6445  2.2404
  964SOL    HW2 2892   1.501   2.648   0.977 -1.3402  0.7182 -1.4118
  965SOL     OW 2893   0.884   2.097   1.177  0.2401  0.2644 -0.1593
  965SOL    HW1 2894   0.869   2.012   1.230  3.2662  1.8097  2.8558
  965SOL    HW2 2895   0.962   2.096   1.108 -1.2283 -0.3082 -0.7740
  966SOL     OW 2896   0.118   1.683   0.059 -0.1187  0.3761  0.6147
  966SOL    HW1 2897   0.043   1.699   3.103  1.2457 -0.5483 -1.0747
  966SOL    HW2 2898   0.114   1.584   0.087 -0.5724  0.1688  0.8285
  967SOL     OW 2899   1.546   0.019   1.879 -0.2414 -0.3276 -0.2962
  967SOL    HW1 2900   1.572   3.028   1.885  0.7010 -2.8908  0.7662
  967SOL    HW2 2901   1.561   0.057   1.790 -0.0061 -1.8550  1.0809
  968SOL     OW 2902   1.807   0.666   0.917  0.2635 -0.1040 -0.1957
  968SOL    HW1 2903   1.875   0.652   0.991  0.2796  0.2077 -1.9289
  968SOL    HW2 2904   1.753   0.747   0.939  1.5108  0.3265  0.9333
  969SOL     OW 2905   2.995   1.585   1.968  0.3178 -0.5759 -0.0026
  969SOL    HW1 2906   3.096   1.590   1.955 -0.1758 -1.3845 -0.4731
  969SOL    HW2 2907   2.952   1.502   1.913 -1.0481 -2.6866  0.0380
  970SOL     OW 2908   2.603   1.394   1.090  0.1390 -0.0701  0.7036
  970SOL    HW1 2909   2.528   1.328   1.100  1.3768 -1.3698  0.1941
  970SOL    HW2 2910   2.589   1.462   1.017  0.9703  1.9597  2.4686
  971SOL     OW 2911   0.776   0.234   1.434  0.4215  0.0460  0.3562
  971SOL    HW1 2912   0.776   0.335   1.415  1.9359  4.6482 -0.8400
  971SOL    HW2 2913   0.678   0.205   1.462  1.5673 -0.7048  2.3578
  972SOL     OW 2914   1.067   0.428   2.449  0.8293  0.3412  0.7096
  972SOL    HW1 2915   1.125   0.356   2.484 -0.7641  0.5093 -1.3559
  972SOL    HW2 2916   1.115   0.473   2.371  0.8107 -0.6346 -1.9966
  973SOL     OW 2917   0.392   1.297   1.149 -0.0802  0.1530 -0.2221
  973SOL    HW1 2918   0.334   1.238   1.206 -1.4441 -3.2796  0.7899
  973SOL    HW2 2919   0.491   1.271   1.149 -1.0330 -3.2877 -0.2387
  974SOL     OW 2920   2.056   1.138   1.907 -0.7166 -0.1827 -0.4821
  974SOL    HW1 2921   1.966   1.143   1.857  0.8117  0.6421  2.1402
  974SOL    HW2 2922   2.108   1.058   1.871 -0.0079 -0.7340 -0.7634
  975SOL     OW 2923   2.548   0.180   0.473 -0.6418  0.1982  0.1767
  975SOL    HW1 2924   2.525   0.107   0.400 -0.1258  0.0950 -1.4933
  975SOL    HW2 2925   2.647   0.188   0.475 -0.7998  0.9560  1.1413
  976SOL     OW 2926   2.925   1.358   1.779  0.8574 -0.2677  0.4816
  976SOL    HW1 2927   2.900   1.382   1.681  1.1702  1.8945 -0.4645
  976SOL    HW2 2928   3.019   1.320   1.769 -1.1132  1.4648  0.5252
  977SOL     OW 2929   0.706   2.826   0.060 -0.2415  0.0339  0.1204
  977SOL    HW1 2930   0.613   2.873   0.068  2.8409  1.6624  1.5977
  977SOL    HW2 2931   0.778   2.876   0.106 -2.1626 -2.7010 -1.8623
  978SOL     OW 2932   0.738   1.711   0.117 -0.0966  0.3710 -0.0374
  978SOL    HW1 2933   0.664   1.667   0.065  2.2146  2.6045 -0.3316
  978SOL    HW2 2934   0.826   1.710   0.063  4.2130  0.8776 -2.9766
  979SOL     OW 2935   1.409   1.678   1.359 -0.0037 -0.0177 -0.7451
  979SOL    HW1 2936   1.496   1.682   1.409 -0.4123 -0.5924  0.4849
  979SOL    HW2 2937   1.335   1.636   1.418 -1.5750 -0.7262  2.9129
  980SOL     OW 2938   0.375   1.387   2.044  0.1771 -0.1373  0.4714
  980SOL    HW1 2939   0.474   1.406   2.047 -1.2967 -0.7405 -2.0677
  980SOL    HW2 2940   0.333   1.388   1.953  0.5343  0.6266 -0.0751
  981SOL     OW 2941   0.027   1.537   0.313 -0.3903  0.0939 -0.7343
  981SOL    HW1 2942   3.035   1.535   0.302  2.7546 -2.2263 -0.7133
  981SOL    HW2 2943   0.050   1.455   0.368  0.0169  3.5546 -0.6718
  982SOL     OW 2944   2.504   2.614   2.815 -0.1289 -0.0223  0.2248
  982SOL    HW1 2945   2.458   2.583   2.730 -1.7100  1.5348  0.5101
  982SOL    HW2 2946   2.447   2.684   2.866 -1.1139  0.8844  0.1362
  983SOL     OW 2947   1.625   0.340   1.490 -0.5590  0.0834  0.5279
  983SOL    HW1 2948   1.664   0.258   1.442 -0.1622 -0.2596  0.2336
  983SOL    HW2 2949   1.687   0.420   1.504 -2.7928 -0.5339 -0.9636
  984SOL     OW 2950   1.040   0.051   2.382 -0.2886  0.1502  0.5966
  984SOL    HW1 2951   1.106   3.091   2.339  0.5417  0.2532  0.4087
  984SOL    HW2 2952   1.088   0.108   2.454  1.8046 -1.3362  2.6690
  985SOL     OW 2953   1.928   2.133   1.831  0.3027  0.2737 -0.1367
  985SOL    HW1 2954   1.869   2.216   1.848 -3.9414 -1.6057 -0.3573
  985SOL    HW2 2955   1.994   2.151   1.757  0.9634 -0.9329  1.1531
  986SOL     OW 2956   2.218   3.002   2.405 -0.4069 -0.0054  0.3050
  986SOL    HW1 2957   2.297   2.985   2.342 -1.0517 -0.7021 -0.9898
  986SOL    HW2 2958   2.217   3.092   2.456  1.9488  0.1608  0.4421
  987SOL     OW 2959   2.665   0.381   2.129 -0.3522  0.6492 -0.0846
  987SOL    HW1 2960   2.655   0.308   2.202  0.1454 -1.4646 -0.5439
  987SOL    HW2 2961   2.620   0.464   2.167 -0.6598  0.7276  1.8354
  988SOL     OW 2962   2.444   0.374   2.432 -0.5733 -0.0519 -0.0104
  988SOL    HW1 2963   2.452   0.385   2.534 -0.7662 -0.7914 -0.3959
  988SOL    HW2 2964   2.508   0.440   2.389  0.3372 -0.8627 -1.5596
  989SOL     OW 2965   2.190   2.277   2.480  0.0668 -0.4025 -0.7727
  989SOL    HW1 2966   2.272   2.328   2.440  1.4074  1.8834 -1.0865
  989SOL    HW2 2967   2.163   2.316   2.573  2.3277  0.6953 -0.5778
  990SOL     OW 2968   0.334   1.143   2.869 -0.0469  0.1762  0.2529
  990SOL    HW1 2969   0.321   1.240   2.864  2.5380 -2.3894  1.1607
  990SOL    HW2 2970   0.395   1.118   2.794 -3.2214  1.0188 -0.0093
  991SOL     OW 2971   0.674   1.325   2.636 -0.7557 -0.4601  0.1827
  991SOL    HW1 2972   0.728   1.247   2.607  2.4567  3.0478  1.6974
  991SOL    HW2 2973   0.646   1.375   2.554 -2.0506  0.7489  0.8132
  992SOL     OW 2974   2.873   2.243   2.112  0.1306 -0.0483 -0.1830
  992SOL    HW1 2975   2.928   2.319   2.077  2.5023  2.3506  0.7797
  992SOL    HW2 2976   2.858   2.170   2.035 -0.2141  0.6169  0.6404
  993SOL     OW 2977   0.621   0.268   0.783 -0.1529  0.4380 -0.3300
  993SOL    HW1 2978   0.693   0.296   0.847 -0.1340 -0.1189 -0.1813
  993SOL    HW2 2979   0.648   0.206   0.711  0.2233 -0.1551 -1.1679
  994SOL     OW 2980   0.493   2.018   1.316 -0.5531 -0.0257  0.1620
  994SOL    HW1 2981   0.526   1.949   1.244  0.0154 -1.2032 -0.7438
  994SOL    HW2 2982   0.412   2.067   1.291 -1.1136 -2.7510  1.6835
  995SOL     OW 2983   2.176   1.695   2.455  0.2285  0.1834  0.5269
  995SOL    HW1 2984   2.234   1.679   2.533  0.3384 -0.0096  0.8655
  995SOL    HW2 2985   2.200   1.771   2.394  0.7087  0.3135  0.0131
  996SOL     OW 2986   1.907   1.381   2.654  0.1529  0.2798 -0.6079
  996SOL    HW1 2987   1.964   1.411   2.734  0.3275  1.2384  0.5912
  996SOL    HW2 2988   1.880   1.284   2.659  1.2003 -1.0943 -1.7052
  997SOL     OW 2989   1.589   1.023   2.137 -0.2574  0.1195 -0.1336
  997SOL    HW1 2990   1.589   0.954   2.064 -1.8769  1.3062  2.3843
  997SOL    HW2 2991   1.638   1.110   2.113 -4.6557  1.6327  1.2231
  998SOL     OW 2992   2.497   2.098   0.875  0.0174 -0.1335 -0.2763
  998SOL    HW1 2993   2.473   2.170   0.799  1.2129  2.2632 -1.0071
  998SOL    HW2 2994   2.585   2.113   0.928 -0.2760  0.6938 -3.4627
  999SOL     OW 2995   2.289   2.361   0.288 -0.0705  0.0792 -0.1179
  999SOL    HW1 2996   2.296   2.260   0.284  3.4064  0.9095 -0.6334
  999SOL    HW2 2997   2.198   2.407   0.258 -2.8093  0.5546  1.3016
 1000SOL     OW 2998   0.865   2.938   2.412 -0.3189 -0.3680  0.0632
 1000SOL    HW1 2999   0.910   3.029   2.421 -1.6895 -2.0998  1.5657
 1000SOL    HW2 3000   0.889   2.871   2.490 -0.5745 -1.7479  0.2483
   3.10802   3.10802   3.10802
