1000 SPC/Fw water molecules t= 189.00000 step= 189000
 3000
    1SOL     OW    1   2.645   2.994   1.129 -0.0095  0.8417 -1.0831
    1SOL    HW1    2   2.597   3.082   1.131 -2.1472 -2.3442 -0.6055
    1SOL    HW2    3   2.714   2.988   1.055  1.1211  0.6961 -0.4980
    2SOL     OW    4   1.812   1.562   2.046 -0.3569  0.1147  0.0376
    2SOL    HW1    5   1.901   1.547   2.092 -0.9974 -2.2373  0.6392
    2SOL    HW2    6   1.745   1.592   2.111  0.0729 -0.7789 -2.9706
    3SOL     OW    7   1.826   2.383   2.186  0.0175  0.1320  0.1885
    3SOL    HW1    8   1.877   2.476   2.196  0.0996 -0.1011 -2.2934
    3SOL    HW2    9   1.884   2.306   2.159  0.4085  0.8569 -2.5434
    4SOL     OW   10   1.894   2.082   2.084  0.2825  0.2344 -0.3193
    4SOL    HW1   11   1.952   2.153   2.125 -0.9125 -2.8289 -0.1336
    4SOL    HW2   12   1.868   2.114   1.991 -0.0325  2.4587  2.5293
    5SOL     OW   13   1.142   0.543   1.764 -0.0014 -0.2656  0.3068
    5SOL    HW1   14   1.150   0.634   1.806  0.1803 -0.0665  1.9876
    5SOL    HW2   15   1.122   0.553   1.661  0.4243 -0.8667 -0.1887
    6SOL     OW   16   2.724   0.676   2.968  0.0990  0.7540 -0.1355
    6SOL    HW1   17   2.770   0.605   3.025 -3.4730  2.5054 -0.9699
    6SOL    HW2   18   2.623   0.672   2.984  2.8265 -2.0603 -2.0840
    7SOL     OW   19   1.097   0.917   1.597 -0.2709  0.4879  0.1800
    7SOL    HW1   20   1.004   0.900   1.562  1.2344 -0.8036 -0.4085
    7SOL    HW2   21   1.145   0.991   1.539 -0.0865  0.3399 -2.5012
    8SOL     OW   22   1.217   0.273   0.953  0.3163 -0.0175  0.2563
    8SOL    HW1   23   1.291   0.244   0.893 -0.6688  2.8112  0.9948
    8SOL    HW2   24   1.257   0.323   1.033 -0.0844 -0.5426  2.3357
    9SOL     OW   25   0.917   1.027   2.803 -0.1895  0.2161 -0.1220
    9SOL    HW1   26   0.958   1.117   2.785 -0.6039 -0.9073  0.3486
    9SOL    HW2   27   0.937   0.987   2.897  2.4676 -0.1863  1.6188
   10SOL     OW   28   0.244   2.716   0.465  0.2043 -0.1119  0.0544
   10SOL    HW1   29   0.143   2.726   0.437 -2.1400  1.5385  0.8126
   10SOL    HW2   30   0.289   2.687   0.383 -2.6614  0.4546  1.4427
   11SOL     OW   31   0.575   1.654   3.040  0.2477 -0.3539 -0.5815
   11SOL    HW1   32   0.583   1.557   3.008 -1.4194 -0.3133 -0.0675
   11SOL    HW2   33   0.483   1.671   3.072  0.5108 -3.3089 -0.5469
   12SOL     OW   34   0.528   0.245   1.538  0.3536  0.2578  0.3510
   12SOL    HW1   35   0.476   0.169   1.572  1.0962  1.7631 -1.7391
   12SOL    HW2   36   0.485   0.336   1.558  0.1057  1.7192  1.7414
   13SOL     OW   37   0.819   2.905   0.585 -0.1390 -0.1470  0.1646
   13SOL    HW1   38   0.920   2.921   0.577  0.8517  0.6103 -0.0512
   13SOL    HW2   39   0.800   2.869   0.677 -2.5669  3.0445  1.2881
   14SOL     OW   40   1.387   2.168   1.205 -0.4529 -0.0698 -0.3258
   14SOL    HW1   41   1.332   2.248   1.206  2.1672 -4.2795  0.7474
   14SOL    HW2   42   1.340   2.084   1.241 -1.4314 -0.4673 -1.2530
   15SOL     OW   43   2.830   0.691   2.099 -0.1634  0.1262  0.6779
   15SOL    HW1   44   2.841   0.734   2.188  1.5319 -0.6564 -0.8291
   15SOL    HW2   45   2.920   0.666   2.070  1.7850 -0.6825  2.4858
   16SOL     OW   46   1.026   2.866   2.735 -0.0686  0.4311  0.3420
   16SOL    HW1   47   1.075   2.863   2.644  0.3362 -1.1061  1.1006
   16SOL    HW2   48   1.074   2.801   2.802  2.6322 -0.0626  2.2391
   17SOL     OW   49   1.000   2.984   1.296 -0.3188 -0.2062  0.2019
   17SOL    HW1   50   0.904   3.015   1.305  0.4998  1.7492 -0.5659
   17SOL    HW2   51   1.064   3.061   1.281 -0.3251  0.9717 -0.1786
   18SOL     OW   52   0.984   0.687   0.352 -0.1631 -0.5998 -0.9090
   18SOL    HW1   53   0.880   0.701   0.345 -2.8151 -0.7362 -0.9488
   18SOL    HW2   54   1.028   0.597   0.321 -0.4436 -2.7453 -2.3890
   19SOL     OW   55   2.125   1.447   2.986 -0.0972  0.3236 -0.0306
   19SOL    HW1   56   2.182   1.530   2.959  1.4327  1.4185 -0.4662
   19SOL    HW2   57   2.171   1.358   2.960  1.1142 -2.8516  1.7535
   20SOL     OW   58   1.814   1.531   1.616 -0.3365  0.0457  0.4470
   20SOL    HW1   59   1.907   1.511   1.656 -1.4557  1.4948  0.0809
   20SOL    HW2   60   1.748   1.575   1.677  3.5036 -2.6938 -2.6059
   21SOL     OW   61   0.590   1.360   3.028  1.1686  0.6126  0.2245
   21SOL    HW1   62   0.523   1.372   0.019  0.8485 -3.5070  4.4509
   21SOL    HW2   63   0.643   1.276   3.048 -2.2935 -1.4464  0.3928
   22SOL     OW   64   2.247   3.055   1.290  0.2252 -0.0977  0.1375
   22SOL    HW1   65   2.329   0.020   1.326  1.0906  1.8179  0.1626
   22SOL    HW2   66   2.163   0.011   1.328 -1.2279  0.4138 -0.8466
   23SOL     OW   67   0.113   0.927   1.675 -0.0656  0.3551 -0.6224
   23SOL    HW1   68   0.214   0.909   1.672  2.3035 -1.3766 -0.2579
   23SOL    HW2   69   0.075   0.948   1.584 -0.7433 -1.2252  1.3018
   24SOL     OW   70   2.660   2.114   1.239 -0.5054 -0.1830 -0.2046
   24SOL    HW1   71   2.672   2.209   1.200 -1.3741 -0.0873  1.7911
   24SOL    HW2   72   2.587   2.069   1.181 -1.4188 -3.3098 -0.5467
   25SOL     OW   73   1.751   2.886   2.633  0.7029  0.5038 -0.0647
   25SOL    HW1   74   1.786   2.924   2.547  0.1919 -1.7896  2.6675
   25SOL    HW2   75   1.664   2.840   2.621 -1.4078 -2.5394 -0.4227
   26SOL     OW   76   1.138   2.674   2.878  0.2576 -0.1407  0.3553
   26SOL    HW1   77   1.226   2.628   2.861 -1.6456 -0.6439  0.3348
   26SOL    HW2   78   1.098   2.637   2.964  1.7256  1.4633  2.3316
   27SOL     OW   79   0.681   2.222   2.683  0.3122  0.2989 -0.1400
   27SOL    HW1   80   0.668   2.119   2.671  4.0301  1.6092 -0.4615
   27SOL    HW2   81   0.604   2.277   2.648  2.6541 -0.0587 -2.2459
   28SOL     OW   82   0.081   1.456   1.436 -0.2423  0.2429  0.3120
   28SOL    HW1   83   3.074   1.449   1.472  0.0947  2.7816  2.0451
   28SOL    HW2   84   0.116   1.542   1.468 -2.7832 -0.5436 -2.3368
   29SOL     OW   85   2.462   2.056   2.219 -0.1405 -0.2080  0.0750
   29SOL    HW1   86   2.514   1.986   2.164 -2.7122 -2.9209 -0.6456
   29SOL    HW2   87   2.506   2.144   2.221 -2.8872 -3.8924 -1.3880
   30SOL     OW   88   1.396   2.787   0.780 -0.2800 -0.6445 -0.4015
   30SOL    HW1   89   1.381   2.687   0.758 -2.6933 -2.4783  1.5781
   30SOL    HW2   90   1.315   2.828   0.832  2.0416 -0.4329  0.3482
   31SOL     OW   91   2.991   2.334   1.751 -0.1986  0.2257 -0.1092
   31SOL    HW1   92   3.038   2.424   1.765  0.2429 -1.7407 -1.1959
   31SOL    HW2   93   3.057   2.259   1.768  0.4522  0.6445 -0.7301
   32SOL     OW   94   1.200   0.794   1.812 -0.1454 -0.2711  0.3369
   32SOL    HW1   95   1.154   0.832   1.726 -1.7753  0.4129  0.1534
   32SOL    HW2   96   1.205   0.858   1.891 -0.7202  0.7750  3.0055
   33SOL     OW   97   0.266   2.807   2.391  0.0834 -0.1146 -0.1488
   33SOL    HW1   98   0.182   2.771   2.435  2.4313  2.9839 -1.7476
   33SOL    HW2   99   0.256   2.795   2.288  1.0581 -2.7790 -3.4281
   34SOL     OW  100   2.160   0.055   0.766  0.1853  0.4033 -0.0819
   34SOL    HW1  101   2.187   0.079   0.670 -0.0957 -1.6257  0.2356
   34SOL    HW2  102   2.095   3.066   0.771 -0.9773 -1.0250  3.3844
   35SOL     OW  103   2.246   0.700   1.378 -0.5070 -0.0627 -0.3434
   35SOL    HW1  104   2.195   0.781   1.349  0.8661 -0.1435  0.4834
   35SOL    HW2  105   2.338   0.733   1.411  0.2205 -1.8801 -1.8986
   36SOL     OW  106   2.277   2.472   2.091 -1.2679 -0.1588 -0.6507
   36SOL    HW1  107   2.309   2.431   2.007 -0.5113  1.7703  3.5111
   36SOL    HW2  108   2.178   2.453   2.110 -0.6585  1.1807  1.1600
   37SOL     OW  109   0.822   2.606   2.140  0.0601  0.0896 -0.1589
   37SOL    HW1  110   0.868   2.567   2.054 -1.8518 -0.6635  1.6348
   37SOL    HW2  111   0.860   2.558   2.225 -0.2816 -2.1148  1.4181
   38SOL     OW  112   2.515   0.348   3.004 -0.2677  0.0503 -0.5760
   38SOL    HW1  113   2.555   0.306   3.087  0.2606 -0.7947  0.6051
   38SOL    HW2  114   2.430   0.395   3.025 -1.1006 -2.0399 -4.1491
   39SOL     OW  115   2.009   1.448   1.816 -0.3350  0.6569  0.5735
   39SOL    HW1  116   2.043   1.400   1.898  1.2337  0.0940 -1.3820
   39SOL    HW2  117   2.055   1.413   1.733  1.4643  1.2982 -0.0762
   40SOL     OW  118   0.164   0.090   2.683  0.8095  0.7590 -0.3010
   40SOL    HW1  119   0.073   0.040   2.677 -2.1083  0.1681 -1.0828
   40SOL    HW2  120   0.220   0.034   2.617 -1.2552  0.1456  4.5786
   41SOL     OW  121   1.563   0.595   1.215  0.5760 -0.3178  0.2272
   41SOL    HW1  122   1.658   0.559   1.210  0.3475 -0.4654 -2.6863
   41SOL    HW2  123   1.509   0.526   1.164  1.1345 -2.0271  1.3264
   42SOL     OW  124   0.778   0.052   1.294 -1.2401 -0.2224 -0.0143
   42SOL    HW1  125   0.785   0.142   1.348  1.2710 -0.0213 -0.1712
   42SOL    HW2  126   0.709   3.080   1.330  4.0229  2.6987  0.8149
   43SOL     OW  127   2.526   1.002   2.084 -0.2480  1.0090  0.2531
   43SOL    HW1  128   2.492   0.910   2.106  0.9946  1.9426  1.3769
   43SOL    HW2  129   2.630   1.008   2.082  1.9371 -0.0843 -0.7806
   44SOL     OW  130   3.074   2.744   0.374  0.8614  0.1594 -0.1172
   44SOL    HW1  131   2.977   2.775   0.389 -0.6153 -0.5538  0.3156
   44SOL    HW2  132   0.036   2.808   0.310 -1.5158 -0.5893  0.4075
   45SOL     OW  133   0.059   2.599   2.054  0.1142 -0.0297  0.0775
   45SOL    HW1  134   0.140   2.651   2.086 -2.6389 -2.5632  0.2347
   45SOL    HW2  135   0.038   2.625   1.959  0.4808  2.1392  0.3980
   46SOL     OW  136   2.333   2.323   1.857  0.3723  0.4018 -1.1397
   46SOL    HW1  137   2.323   2.241   1.918  2.0289  1.1750  1.7143
   46SOL    HW2  138   2.401   2.309   1.786  1.6301 -1.6010  2.0373
   47SOL     OW  139   1.771   2.077   1.337  0.3606 -0.0765  0.0242
   47SOL    HW1  140   1.684   2.054   1.283 -0.8354  0.1940 -1.2212
   47SOL    HW2  141   1.850   2.035   1.290 -0.7091 -2.3611  0.7202
   48SOL     OW  142   0.736   1.766   0.391 -0.8067  0.1782  0.2855
   48SOL    HW1  143   0.741   1.767   0.288  1.5004 -1.6484 -2.0778
   48SOL    HW2  144   0.771   1.849   0.435 -1.0799 -0.9473  1.0034
   49SOL     OW  145   2.833   0.397   2.760 -0.2124  0.1373 -0.2628
   49SOL    HW1  146   2.851   0.333   2.837 -3.3897 -0.0973  0.6362
   49SOL    HW2  147   2.734   0.417   2.756 -0.1895 -0.2680  3.7675
   50SOL     OW  148   2.068   0.738   0.704  0.0286 -0.3008 -0.7392
   50SOL    HW1  149   1.981   0.762   0.751 -0.6759  0.3749  1.1326
   50SOL    HW2  150   2.128   0.819   0.688 -0.1700  1.6928  1.3821
   51SOL     OW  151   1.608   0.121   0.914  0.1971  0.2628 -0.1105
   51SOL    HW1  152   1.611   0.021   0.885 -0.8625 -0.3922 -0.4032
   51SOL    HW2  153   1.528   0.164   0.862 -1.1335 -0.7740 -1.0529
   52SOL     OW  154   1.262   1.325   3.070  0.1781 -0.0980 -0.1522
   52SOL    HW1  155   1.291   1.232   3.048  0.3687 -1.3655  0.7611
   52SOL    HW2  156   1.306   1.397   3.006  1.2492  0.1721 -1.2738
   53SOL     OW  157   0.840   1.709   2.577  0.4757  0.1923 -0.0971
   53SOL    HW1  158   0.888   1.797   2.601  0.4804  1.3054  1.4004
   53SOL    HW2  159   0.740   1.713   2.574  3.0012  2.1833  0.8958
   54SOL     OW  160   2.206   0.311   1.108  0.3019 -0.0652 -0.0477
   54SOL    HW1  161   2.275   0.382   1.135 -2.2275  1.7445 -1.8006
   54SOL    HW2  162   2.225   0.215   1.137  0.1370 -0.0579  0.9162
   55SOL     OW  163   2.340   2.647   0.817  0.7064  0.4258  0.2363
   55SOL    HW1  164   2.401   2.726   0.808 -0.0719 -2.4032  1.2842
   55SOL    HW2  165   2.262   2.661   0.755  3.9086 -0.1729  0.0980
   56SOL     OW  166   0.588   3.058   1.644  0.4844  0.3179  0.2031
   56SOL    HW1  167   0.561   0.017   1.730 -0.6004  3.4006  3.8279
   56SOL    HW2  168   0.663   2.987   1.659  0.1938 -0.5326  1.9381
   57SOL     OW  169   1.461   1.131   0.598  0.3154  0.2726 -0.0699
   57SOL    HW1  170   1.381   1.118   0.536  1.8744  0.0956  0.5261
   57SOL    HW2  171   1.539   1.162   0.539 -1.6159 -0.9278  0.1749
   58SOL     OW  172   0.124   0.877   2.323 -0.2160  0.3591 -0.1160
   58SOL    HW1  173   0.095   0.890   2.226  2.6612  0.8945 -0.6543
   58SOL    HW2  174   0.054   0.835   2.384  0.4137  0.1864 -0.5290
   59SOL     OW  175   0.978   2.777   2.309  0.2353  0.0226  1.0557
   59SOL    HW1  176   0.969   2.677   2.333 -1.8956  1.4356  1.7326
   59SOL    HW2  177   0.890   2.828   2.295 -4.5250  1.5184  1.5780
   60SOL     OW  178   2.447   2.635   1.081 -0.0100  0.0305 -0.0163
   60SOL    HW1  179   2.403   2.637   0.994  0.5549 -0.1328  2.9616
   60SOL    HW2  180   2.432   2.721   1.130  2.1693 -2.9154 -1.3007
   61SOL     OW  181   1.125   2.338   0.568  0.3445  0.0550  0.5366
   61SOL    HW1  182   1.067   2.419   0.565  0.0817 -1.2129  0.0290
   61SOL    HW2  183   1.089   2.251   0.615 -0.3427 -1.6407 -0.0702
   62SOL     OW  184   2.024   2.411   2.721  0.4834  0.3931 -0.7210
   62SOL    HW1  185   2.119   2.381   2.734 -1.4221 -0.3210  0.4542
   62SOL    HW2  186   2.010   2.452   2.627  1.6967 -0.9030 -0.0462
   63SOL     OW  187   2.228   0.866   2.919 -0.0740  0.1242 -0.0861
   63SOL    HW1  188   2.179   0.874   3.010 -3.3930 -0.2217  1.2318
   63SOL    HW2  189   2.175   0.812   2.853  1.3599 -0.7654  0.7440
   64SOL     OW  190   0.918   0.640   3.076 -0.7198 -0.4696 -0.5286
   64SOL    HW1  191   1.020   0.630   3.081  1.0744 -0.7104 -0.4926
   64SOL    HW2  192   0.874   0.663   0.076 -2.3144  0.1294 -2.2123
   65SOL     OW  193   1.263   2.049   0.340 -0.4383 -0.0676  0.1103
   65SOL    HW1  194   1.271   2.127   0.273  1.6708  1.4166  0.2481
   65SOL    HW2  195   1.168   2.052   0.372  3.4014  1.0339  2.3833
   66SOL     OW  196   0.750   1.295   1.687 -0.1835  0.0035  0.5711
   66SOL    HW1  197   0.834   1.251   1.717  0.0700  0.3741 -1.4514
   66SOL    HW2  198   0.768   1.395   1.676  1.8532  1.1016  1.1595
   67SOL     OW  199   2.178   2.773   2.522  0.2221  0.2539 -0.5785
   67SOL    HW1  200   2.142   2.775   2.617 -2.0393  2.8088  0.0970
   67SOL    HW2  201   2.158   2.865   2.481  0.6159  0.1586  1.3307
   68SOL     OW  202   0.610   1.442   1.352 -0.1393 -0.1210  0.1354
   68SOL    HW1  203   0.516   1.449   1.319  1.8257  2.0501  1.1729
   68SOL    HW2  204   0.622   1.467   1.449  0.6110  1.7225 -0.1699
   69SOL     OW  205   1.264   2.313   0.207  0.0150  0.6330 -0.5801
   69SOL    HW1  206   1.188   2.367   0.244  3.1997 -2.2979  0.1225
   69SOL    HW2  207   1.325   2.358   0.147 -3.1513 -2.2221  1.9379
   70SOL     OW  208   2.846   1.296   2.672 -0.7927  0.2944  0.2086
   70SOL    HW1  209   2.881   1.249   2.589 -0.4221  0.5070 -2.6229
   70SOL    HW2  210   2.749   1.272   2.695  0.3525 -1.3073  0.5090
   71SOL     OW  211   2.846   1.565   2.837 -0.0406 -0.2071  0.0129
   71SOL    HW1  212   2.902   1.483   2.803  2.3828 -0.1633 -1.9381
   71SOL    HW2  213   2.835   1.629   2.761 -1.0633 -0.1460  0.2652
   72SOL     OW  214   2.741   2.482   0.162 -0.0687 -0.0758 -0.5007
   72SOL    HW1  215   2.843   2.466   0.174  2.4807  1.2533 -0.4085
   72SOL    HW2  216   2.718   2.564   0.216  2.3941  2.0690  1.6688
   73SOL     OW  217   0.983   1.598   0.196  0.5525 -0.2121  0.1919
   73SOL    HW1  218   0.977   1.504   0.230 -1.8926 -0.3666  0.0678
   73SOL    HW2  219   1.075   1.643   0.217  2.0756 -1.0134  0.1054
   74SOL     OW  220   3.042   1.332   2.859  0.3271  0.5602  0.1684
   74SOL    HW1  221   2.970   1.302   2.790  0.8162  0.1095 -2.2005
   74SOL    HW2  222   0.044   1.305   2.825 -0.4887  0.5159  0.3906
   75SOL     OW  223   1.699   1.360   1.879 -0.4792  0.7339  0.4465
   75SOL    HW1  224   1.673   1.308   1.964  2.4829  0.0457  1.6256
   75SOL    HW2  225   1.738   1.448   1.912  3.4312 -1.7993  1.4944
   76SOL     OW  226   2.092   2.318   1.538 -0.3532 -0.6363 -0.0484
   76SOL    HW1  227   2.095   2.234   1.598 -1.1211  0.7682 -4.1797
   76SOL    HW2  228   2.006   2.320   1.480  0.8614 -1.4727  0.1295
   77SOL     OW  229   2.557   0.948   1.198  0.0218  0.2316 -0.1822
   77SOL    HW1  230   2.634   0.879   1.212  1.9762 -2.3275  1.5766
   77SOL    HW2  231   2.494   0.915   1.119 -1.3195 -2.1319 -3.1576
   78SOL     OW  232   1.363   0.960   0.223 -0.1151  0.4205  0.4993
   78SOL    HW1  233   1.314   1.018   0.288  1.8721 -1.1100 -2.5401
   78SOL    HW2  234   1.449   0.924   0.261 -2.1518  0.0021  1.2170
   79SOL     OW  235   0.329   1.674   1.882  0.3934 -0.2145 -0.7693
   79SOL    HW1  236   0.414   1.661   1.828  0.2274  1.8485 -1.0676
   79SOL    HW2  237   0.280   1.761   1.861 -3.8780  3.6045 -2.1396
   80SOL     OW  238   1.522   1.077   1.539 -0.2688  0.4259  0.2465
   80SOL    HW1  239   1.574   1.014   1.597 -3.9247 -0.2619 -0.8640
   80SOL    HW2  240   1.576   1.113   1.463 -1.1265 -1.8808 -1.3816
   81SOL     OW  241   0.620   3.010   0.961 -0.4936 -0.0978 -0.1931
   81SOL    HW1  242   0.539   2.952   0.928 -1.1137 -0.8847 -2.2172
   81SOL    HW2  243   0.614   0.018   0.924 -1.5235  1.2750  0.4873
   82SOL     OW  244   1.749   2.630   1.598  0.1203 -1.0711 -0.2959
   82SOL    HW1  245   1.751   2.603   1.503 -1.3937  1.7411  4.1601
   82SOL    HW2  246   1.842   2.661   1.626  1.1624 -1.5811 -0.5289
   83SOL     OW  247   0.740   2.276   1.086  0.0789 -0.1712  0.1576
   83SOL    HW1  248   0.643   2.271   1.103  4.7388  2.0538  0.1569
   83SOL    HW2  249   0.785   2.185   1.079 -0.1371  1.3896 -0.1145
   84SOL     OW  250   0.303   1.431   2.547 -0.1320 -0.3954  0.1939
   84SOL    HW1  251   0.290   1.330   2.547 -0.2109 -0.2037  0.7067
   84SOL    HW2  252   0.355   1.448   2.460  0.4052 -2.2809 -1.9365
   85SOL     OW  253   0.200   2.390   1.390 -0.4031  0.1394 -0.1817
   85SOL    HW1  254   0.110   2.352   1.426 -2.5553  1.2724 -1.8988
   85SOL    HW2  255   0.190   2.485   1.356 -1.0707 -0.5024  1.3601
   86SOL     OW  256   2.730   2.287   1.491 -0.2868  0.1281 -0.0224
   86SOL    HW1  257   2.757   2.368   1.436 -0.4496 -0.0256  0.6693
   86SOL    HW2  258   2.703   2.215   1.422  0.8627 -3.6436 -0.3966
   87SOL     OW  259   2.594   2.071   3.082  0.8071  0.4092 -0.3576
   87SOL    HW1  260   2.606   2.124   0.077  1.5457  0.3894  1.0308
   87SOL    HW2  261   2.596   1.965   0.004 -0.1691 -1.5499  0.6628
   88SOL     OW  262   0.698   1.639   1.134 -0.3859  0.3699  0.0020
   88SOL    HW1  263   0.756   1.699   1.195 -1.2676  1.1921 -0.3638
   88SOL    HW2  264   0.642   1.574   1.191 -1.2631 -0.3372 -0.0722
   89SOL     OW  265   1.141   2.977   1.604  0.3662  0.3547 -0.7079
   89SOL    HW1  266   1.192   2.946   1.521 -1.1342  0.9573 -0.2213
   89SOL    HW2  267   1.136   3.079   1.590 -0.8782 -1.2255 -0.5431
   90SOL     OW  268   0.092   1.706   1.524  0.1979 -0.1640 -0.2109
   90SOL    HW1  269   0.005   1.757   1.547  0.3416 -0.1858  2.2625
   90SOL    HW2  270   0.165   1.737   1.581  1.0670 -0.5752 -1.1173
   91SOL     OW  271   1.216   1.899   0.659 -0.1854 -0.2050 -0.4895
   91SOL    HW1  272   1.163   1.863   0.738 -0.9760 -1.1207  2.2615
   91SOL    HW2  273   1.245   1.997   0.680  1.9732  0.0008 -0.5254
   92SOL     OW  274   2.471   2.803   1.629 -0.1045 -0.0234  0.1618
   92SOL    HW1  275   2.389   2.808   1.690 -0.5310 -0.0094  4.2534
   92SOL    HW2  276   2.509   2.895   1.604 -1.6926  0.8747 -0.9322
   93SOL     OW  277   2.610   1.452   2.914  0.7748  0.1373  0.0772
   93SOL    HW1  278   2.586   1.369   2.866  2.5577  0.3586  1.6674
   93SOL    HW2  279   2.703   1.494   2.885 -1.5639  0.6369  1.3642
   94SOL     OW  280   2.720   2.642   2.479 -0.1225  0.5730 -0.5889
   94SOL    HW1  281   2.730   2.541   2.469 -0.2349 -0.3279 -1.1331
   94SOL    HW2  282   2.626   2.674   2.473  2.5366 -0.8636  0.0853
   95SOL     OW  283   1.832   0.227   1.695 -0.3435  0.4069  0.2690
   95SOL    HW1  284   1.814   0.258   1.602  0.2250 -3.2694  1.6008
   95SOL    HW2  285   1.792   0.133   1.708 -1.2903 -3.7921  0.0519
   96SOL     OW  286   2.952   0.002   1.699 -0.3422 -0.0293  0.2398
   96SOL    HW1  287   2.968   0.030   1.603  2.6809 -1.1288 -1.1196
   96SOL    HW2  288   3.024   3.027   1.727  0.7022  2.6075  1.0042
   97SOL     OW  289   2.197   0.311   1.575 -0.5458 -0.4624  0.4168
   97SOL    HW1  290   2.280   0.315   1.520 -1.9285  0.5289  0.1591
   97SOL    HW2  291   2.209   0.319   1.676 -0.2525 -2.6573 -1.9561
   98SOL     OW  292   1.389   2.268   1.499  0.3640  0.0269  0.3005
   98SOL    HW1  293   1.452   2.313   1.565  0.8948  0.3582  0.9193
   98SOL    HW2  294   1.429   2.267   1.409 -1.2701  4.3422  0.5826
   99SOL     OW  295   3.074   2.917   1.914 -0.1438 -0.7964 -0.0925
   99SOL    HW1  296   0.067   2.912   1.857  2.6124  0.6480 -0.1234
   99SOL    HW2  297   0.004   2.931   2.010 -1.8268  0.6059 -2.1878
  100SOL     OW  298   0.058   1.582   2.267  0.1223  0.3831 -0.3917
  100SOL    HW1  299   0.083   1.600   2.170  0.2839 -1.9531 -2.8924
  100SOL    HW2  300   0.069   1.480   2.274 -2.1932  1.2788 -0.0140
  101SOL     OW  301   1.876   0.788   0.497 -0.8435 -0.1467  0.1875
  101SOL    HW1  302   1.959   0.760   0.554  2.7552 -0.7287  1.8417
  101SOL    HW2  303   1.882   0.886   0.478 -1.6193 -5.2506 -1.0707
  102SOL     OW  304   0.057   0.731   1.032  0.2101 -0.3239 -0.5152
  102SOL    HW1  305   3.044   0.746   1.038 -0.1250 -2.8842 -1.2309
  102SOL    HW2  306   0.108   0.741   1.123  0.8907 -0.3198  4.1477
  103SOL     OW  307   2.432   0.685   2.718 -0.1677 -0.1137  0.2287
  103SOL    HW1  308   2.391   0.719   2.633  1.2313  2.3336 -0.4337
  103SOL    HW2  309   2.439   0.763   2.786 -0.7838  3.0170  0.9033
  104SOL     OW  310   0.311   0.424   2.474 -0.6898 -0.0576  0.2340
  104SOL    HW1  311   0.402   0.444   2.434  0.0036  0.1641  0.9378
  104SOL    HW2  312   0.303   0.428   2.575 -2.2929  2.2615  1.2473
  105SOL     OW  313   1.962   0.982   1.536 -0.6111 -0.6724 -0.5089
  105SOL    HW1  314   1.968   0.902   1.604  1.2927 -0.1363  0.8907
  105SOL    HW2  315   1.971   1.069   1.591  1.8899 -1.3721 -0.8966
  106SOL     OW  316   1.093   2.940   0.590 -0.0819  0.2826 -0.2575
  106SOL    HW1  317   1.114   3.026   0.541  1.2123 -0.5046  2.3008
  106SOL    HW2  318   1.084   2.949   0.687  0.3419 -0.2098 -4.2192
  107SOL     OW  319   0.386   1.496   1.235 -0.4055  0.1412 -0.8341
  107SOL    HW1  320   0.361   1.462   1.142 -1.0245 -1.0495 -3.9429
  107SOL    HW2  321   0.340   1.584   1.254  2.0740  2.9221 -1.5240
  108SOL     OW  322   0.276   0.179   2.371 -0.2959 -0.3358  0.3182
  108SOL    HW1  323   0.279   0.111   2.446  2.7228  2.5448 -0.2350
  108SOL    HW2  324   0.308   0.267   2.402 -3.4298 -4.3158 -4.2647
  109SOL     OW  325   2.258   0.163   0.543  0.4201 -1.0954  0.7135
  109SOL    HW1  326   2.299   0.126   0.455  1.2100  1.2608 -0.9831
  109SOL    HW2  327   2.231   0.263   0.530 -0.5160  2.3726 -1.8422
  110SOL     OW  328   0.311   2.235   2.458 -0.0714 -0.4037  0.0464
  110SOL    HW1  329   0.288   2.242   2.360  0.1986  2.0551 -0.0781
  110SOL    HW2  330   0.388   2.295   2.488 -1.0381  2.1783  1.3452
  111SOL     OW  331   1.660   2.889   2.286 -0.0115 -0.4685  0.3492
  111SOL    HW1  332   1.639   2.896   2.189 -0.4316 -2.2105  1.3343
  111SOL    HW2  333   1.734   2.952   2.302 -0.9719  0.5643 -3.2115
  112SOL     OW  334   1.882   2.193   2.806 -0.3743 -0.2851  0.6064
  112SOL    HW1  335   1.791   2.207   2.757  1.2572 -0.3604 -0.2433
  112SOL    HW2  336   1.954   2.255   2.768  1.1574  0.4840 -0.8131
  113SOL     OW  337   2.544   2.343   1.699 -0.1107 -0.9298 -0.3015
  113SOL    HW1  338   2.600   2.398   1.759 -0.0791  1.9250 -0.2263
  113SOL    HW2  339   2.591   2.321   1.610  0.1595 -0.0420 -0.1676
  114SOL     OW  340   2.418   0.825   1.001  0.2607 -0.0492 -0.2050
  114SOL    HW1  341   2.349   0.762   0.966  3.5139 -0.3300 -0.0744
  114SOL    HW2  342   2.440   0.890   0.926 -0.8688  0.8581 -1.1185
  115SOL     OW  343   0.056   1.736   2.678  0.7771 -0.4714  0.3084
  115SOL    HW1  344   0.140   1.696   2.708 -2.8127  1.2299  1.3912
  115SOL    HW2  345   0.022   1.809   2.745 -1.6816  4.6732 -1.2820
  116SOL     OW  346   0.402   1.566   2.136  0.1426  0.1190  0.1196
  116SOL    HW1  347   0.359   1.599   2.049 -0.0177 -1.3677 -0.2899
  116SOL    HW2  348   0.422   1.468   2.134  1.6398 -3.7611 -2.3319
  117SOL     OW  349   2.645   0.281   0.896 -0.1946  0.0030 -0.0810
  117SOL    HW1  350   2.740   0.243   0.891  0.0406  0.2705 -2.5109
  117SOL    HW2  351   2.598   0.265   0.808 -1.1164 -3.2042  1.0269
  118SOL     OW  352   0.999   2.047   1.757 -0.3669 -0.2446  0.2256
  118SOL    HW1  353   0.906   2.003   1.737 -3.4527  1.9469 -0.3558
  118SOL    HW2  354   1.044   2.091   1.678  0.9319 -1.9753 -0.4239
  119SOL     OW  355   1.471   2.090   3.083 -0.1376 -0.4596 -0.0954
  119SOL    HW1  356   1.489   2.173   3.025 -0.9516 -0.0586 -2.0216
  119SOL    HW2  357   1.377   2.097   0.023  0.1843 -0.2823 -1.6390
  120SOL     OW  358   0.367   1.760   2.361 -0.3814  0.2481 -0.1079
  120SOL    HW1  359   0.269   1.756   2.394 -0.5568  0.2773  2.5358
  120SOL    HW2  360   0.385   1.701   2.285 -1.4941  0.3136  0.8101
  121SOL     OW  361   2.367   2.233   1.136 -0.3351 -0.3810 -0.3901
  121SOL    HW1  362   2.429   2.299   1.180 -0.9348 -0.8175  0.2823
  121SOL    HW2  363   2.285   2.232   1.195  0.2260 -0.5352 -1.8667
  122SOL     OW  364   2.267   2.096   2.027 -0.3438 -0.4370  0.2984
  122SOL    HW1  365   2.223   2.022   1.975 -0.2897 -0.6884 -1.4042
  122SOL    HW2  366   2.335   2.063   2.100  2.8364 -3.0264  0.2360
  123SOL     OW  367   2.879   0.124   0.878  0.4967  0.4085 -0.2672
  123SOL    HW1  368   2.935   0.150   0.797  0.8106  0.8863 -0.5677
  123SOL    HW2  369   2.840   0.029   0.866  0.2298 -0.1398  2.3134
  124SOL     OW  370   1.722   0.420   2.528 -0.0196  0.5621 -0.0550
  124SOL    HW1  371   1.727   0.499   2.463 -2.2681  1.4329  0.4027
  124SOL    HW2  372   1.654   0.347   2.509 -3.1070 -0.9615  3.1812
  125SOL     OW  373   0.516   1.554   0.297 -0.0548 -0.1478  0.2122
  125SOL    HW1  374   0.576   1.625   0.256  1.6096  1.1545 -0.0431
  125SOL    HW2  375   0.439   1.526   0.239  1.4173 -0.5143  1.2490
  126SOL     OW  376   2.487   1.907   0.406 -0.2145 -0.2460 -0.1354
  126SOL    HW1  377   2.579   1.903   0.373 -0.7636  1.1660  1.3619
  126SOL    HW2  378   2.470   1.822   0.461 -1.0527 -0.0497 -1.0976
  127SOL     OW  379   0.229   1.709   1.286  0.2749 -0.1793  0.8409
  127SOL    HW1  380   0.181   1.710   1.377 -1.0676  0.6682  2.1706
  127SOL    HW2  381   0.177   1.746   1.204  0.1622  1.6486  2.5072
  128SOL     OW  382   0.667   0.567   2.991  0.2458 -0.0315 -0.2461
  128SOL    HW1  383   0.770   0.571   3.015 -0.0079  0.7533  2.6995
  128SOL    HW2  384   0.617   0.657   2.984 -1.8937 -1.3077 -0.0739
  129SOL     OW  385   2.320   1.667   1.037 -0.5160  0.2171 -0.2983
  129SOL    HW1  386   2.256   1.603   1.088  0.0329 -0.2042  0.6177
  129SOL    HW2  387   2.261   1.737   1.000  1.0967 -1.6876  1.2023
  130SOL     OW  388   2.510   1.740   1.231 -0.5579  0.0655 -0.3834
  130SOL    HW1  389   2.442   1.698   1.171  1.0693  0.7714  1.7501
  130SOL    HW2  390   2.498   1.701   1.324  0.0655  0.9493 -0.7194
  131SOL     OW  391   2.761   0.936   2.982 -0.1540  0.5517  0.0318
  131SOL    HW1  392   2.764   0.836   2.986  1.6362 -0.5682 -3.5138
  131SOL    HW2  393   2.836   0.972   2.925 -2.3576  1.5249  0.8654
  132SOL     OW  394   2.793   2.055   1.626  0.0839  0.4541  0.0110
  132SOL    HW1  395   2.810   2.146   1.583 -0.9693  1.3649 -2.6563
  132SOL    HW2  396   2.787   2.068   1.727  1.2028 -0.1938 -1.3317
  133SOL     OW  397   0.403   1.095   0.754  0.2318 -0.3456 -0.8723
  133SOL    HW1  398   0.484   1.144   0.791  2.7894  0.9880 -0.1121
  133SOL    HW2  399   0.336   1.159   0.712  0.3993  0.6268 -2.1593
  134SOL     OW  400   0.237   1.069   0.055  0.2370 -0.6572  0.1097
  134SOL    HW1  401   0.156   1.008   0.049  0.4544  1.3602 -2.2823
  134SOL    HW2  402   0.272   1.102   3.050  3.3049 -0.4461 -2.1235
  135SOL     OW  403   2.013   1.293   1.097 -0.0313 -0.1391  0.5329
  135SOL    HW1  404   1.971   1.293   1.191  0.6637  0.2269 -0.6621
  135SOL    HW2  405   1.991   1.207   1.057  0.2127  1.4561  1.4952
  136SOL     OW  406   1.969   1.060   0.990 -0.4484 -0.2371  0.0725
  136SOL    HW1  407   2.005   0.975   1.028 -1.4182  0.5668  0.9177
  136SOL    HW2  408   1.958   1.052   0.889  0.3760  1.5644  1.0254
  137SOL     OW  409   2.751   1.716   0.860  0.7928 -0.1519  0.3707
  137SOL    HW1  410   2.770   1.745   0.954  1.5856 -1.5949 -2.3003
  137SOL    HW2  411   2.826   1.739   0.798 -0.9609  1.1449  3.2990
  138SOL     OW  412   1.640   0.645   2.090  0.9234 -0.1382  0.0193
  138SOL    HW1  413   1.626   0.546   2.069 -0.6523 -2.7703 -1.6670
  138SOL    HW2  414   1.730   0.670   2.059 -3.0054 -2.3336 -0.3422
  139SOL     OW  415   2.171   3.048   0.091 -0.1459 -0.1068 -0.4914
  139SOL    HW1  416   2.264   3.026   0.054  4.0284 -0.7598 -0.7024
  139SOL    HW2  417   2.132   0.045   0.049 -1.2851  2.2485 -1.9592
  140SOL     OW  418   1.469   2.231   2.336 -0.6751  0.8913 -0.2521
  140SOL    HW1  419   1.559   2.240   2.382  0.2096 -0.2379  0.8500
  140SOL    HW2  420   1.405   2.225   2.413  0.3778 -1.2091 -0.5956
  141SOL     OW  421   1.728   1.558   1.355  0.0612 -0.1755  0.0986
  141SOL    HW1  422   1.756   1.541   1.453  3.2238 -1.4073  0.3060
  141SOL    HW2  423   1.637   1.609   1.347 -0.3936 -3.4547 -1.4129
  142SOL     OW  424   2.746   0.179   0.106  0.1091 -0.4507  0.5295
  142SOL    HW1  425   2.813   0.146   0.177 -2.7543  1.3608  1.8430
  142SOL    HW2  426   2.646   0.171   0.123  0.2556  3.8690 -0.8147
  143SOL     OW  427   0.276   2.507   2.765  0.1700 -0.2576 -0.2017
  143SOL    HW1  428   0.341   2.472   2.835 -3.5563 -3.3921  0.4739
  143SOL    HW2  429   0.191   2.453   2.771  1.5244 -1.8494 -0.5755
  144SOL     OW  430   0.647   2.771   1.745 -0.4236 -0.7029  0.0137
  144SOL    HW1  431   0.574   2.729   1.689 -0.8872 -0.9773  3.5814
  144SOL    HW2  432   0.726   2.818   1.694  2.6322  4.1468 -2.8250
  145SOL     OW  433   2.390   1.246   0.369  0.6751 -0.2516  0.0047
  145SOL    HW1  434   2.353   1.247   0.466 -0.4771  1.8111 -0.2284
  145SOL    HW2  435   2.316   1.279   0.308  0.8298 -0.3222  1.3789
  146SOL     OW  436   2.667   2.952   2.807 -0.3970 -0.1893  0.1397
  146SOL    HW1  437   2.630   3.047   2.812 -0.7922  1.0628 -0.0614
  146SOL    HW2  438   2.716   2.930   2.896  0.5606 -1.2097  4.3410
  147SOL     OW  439   2.711   2.714   1.038  0.4038  0.0625  0.0998
  147SOL    HW1  440   2.771   2.713   1.122  0.0954 -1.0741  3.0234
  147SOL    HW2  441   2.623   2.672   1.061 -2.1732  0.2531  2.2308
  148SOL     OW  442   1.833   0.028   3.035 -0.6969  0.1703 -0.7005
  148SOL    HW1  443   1.794   3.031   3.084  0.9556  1.1224  1.2617
  148SOL    HW2  444   1.816   0.034   2.931 -2.9767  0.7091 -1.6309
  149SOL     OW  445   1.048   0.650   2.800 -0.0234 -0.1704 -0.5153
  149SOL    HW1  446   0.998   0.663   2.889 -2.7042  0.2329  1.6355
  149SOL    HW2  447   0.992   0.593   2.733 -2.6671  1.8431  1.6672
  150SOL     OW  448   0.912   2.542   0.529  0.7545 -0.1157  0.0021
  150SOL    HW1  449   0.849   2.579   0.462 -0.2653 -1.2450  1.9154
  150SOL    HW2  450   0.881   2.586   0.617 -0.5148 -1.0766  1.8648
  151SOL     OW  451   0.024   1.881   3.063 -0.1517  0.1493  0.2986
  151SOL    HW1  452   3.049   1.802   3.073 -1.3697  0.5650  0.9882
  151SOL    HW2  453   0.007   1.922   2.973 -0.7333 -1.5239 -0.8957
  152SOL     OW  454   0.210   1.316   0.627  0.3547 -0.3643 -0.4125
  152SOL    HW1  455   0.284   1.360   0.579  1.1808  0.1008  0.5750
  152SOL    HW2  456   0.148   1.387   0.664  0.8681 -1.1810 -1.4307
  153SOL     OW  457   2.332   2.723   0.124 -0.0135 -0.5147 -0.5772
  153SOL    HW1  458   2.314   2.663   0.206  0.4743 -2.1384  3.1938
  153SOL    HW2  459   2.307   2.679   0.036 -0.2667  0.5943  1.0362
  154SOL     OW  460   0.829   0.448   1.134 -0.2252 -0.1162 -0.2749
  154SOL    HW1  461   0.743   0.495   1.117  0.7975 -1.5344 -1.6075
  154SOL    HW2  462   0.850   0.462   1.238 -1.2508 -0.4518  4.0343
  155SOL     OW  463   0.054   2.026   1.177  0.7417  0.5885 -0.5054
  155SOL    HW1  464   0.041   1.946   1.117 -1.9645 -1.2988  2.9032
  155SOL    HW2  465   3.086   2.018   1.260 -3.0117  2.6781  3.4067
  156SOL     OW  466   2.134   1.942   3.051 -0.0318 -0.5202 -0.1885
  156SOL    HW1  467   2.172   1.856   3.087 -1.3009  0.1001  0.9209
  156SOL    HW2  468   2.203   2.014   3.040  0.7637 -3.7467 -0.1344
  157SOL     OW  469   0.714   2.549   1.001  0.0988  0.5906  0.3237
  157SOL    HW1  470   0.724   2.446   1.015 -1.2716 -1.2984 -2.1938
  157SOL    HW2  471   0.733   2.596   1.087  1.0489 -2.3474 -1.7860
  158SOL     OW  472   2.508   0.428   2.750  0.4918  0.5652 -0.0039
  158SOL    HW1  473   2.513   0.398   2.850 -0.3519 -2.2909 -0.8922
  158SOL    HW2  474   2.468   0.522   2.743  0.0145 -1.6281  2.8195
  159SOL     OW  475   0.677   0.231   2.698  0.3230  0.1790  0.2772
  159SOL    HW1  476   0.776   0.222   2.724  0.5465  0.7609 -0.0716
  159SOL    HW2  477   0.639   0.140   2.681 -1.5958  0.3281  1.2467
  160SOL     OW  478   0.961   1.927   2.901  0.2073  0.0302  0.1004
  160SOL    HW1  479   0.897   1.850   2.901 -1.3493 -0.6587 -0.0361
  160SOL    HW2  480   0.989   1.944   2.804 -0.0049 -1.1086  0.0040
  161SOL     OW  481   2.968   2.318   2.898 -0.1283  0.0016 -0.1988
  161SOL    HW1  482   2.970   2.315   3.001  2.7779  0.4134  1.8156
  161SOL    HW2  483   2.946   2.413   2.870  0.0431  0.0623  1.0476
  162SOL     OW  484   0.414   2.629   0.966 -0.3141  0.6590 -0.3349
  162SOL    HW1  485   0.508   2.591   0.966 -0.3669  1.6516 -0.2393
  162SOL    HW2  486   0.342   2.556   0.949  2.3645  0.9786 -1.3745
  163SOL     OW  487   2.451   0.738   3.050 -0.4950 -0.3044 -0.4250
  163SOL    HW1  488   2.436   0.649   0.013 -1.1932 -1.7616  1.0600
  163SOL    HW2  489   2.368   0.778   3.016  0.4412 -1.6828 -1.8465
  164SOL     OW  490   3.081   2.470   0.715 -0.6186 -0.5732 -0.2458
  164SOL    HW1  491   3.053   2.388   0.664 -0.0999  0.3960 -0.2960
  164SOL    HW2  492   3.015   2.547   0.696 -1.0247  0.6159  0.4445
  165SOL     OW  493   2.605   0.453   1.321  0.0343 -0.0154  0.4717
  165SOL    HW1  494   2.576   0.410   1.405 -0.5171  0.9268 -0.8115
  165SOL    HW2  495   2.529   0.496   1.272 -0.8819  0.2520 -1.5432
  166SOL     OW  496   2.099   0.321   0.850  0.4197 -0.4385  0.4382
  166SOL    HW1  497   2.102   0.222   0.829  0.9232 -1.3129 -1.0607
  166SOL    HW2  498   2.141   0.337   0.938 -0.7705 -0.2573 -0.0294
  167SOL     OW  499   0.517   0.315   1.268  0.0441  0.5831  0.0948
  167SOL    HW1  500   0.531   0.267   1.357 -1.9746  1.8630  1.3368
  167SOL    HW2  501   0.448   0.268   1.207  2.7660  1.8824  4.0977
  168SOL     OW  502   2.674   3.001   2.274  0.2748  0.2904 -0.1229
  168SOL    HW1  503   2.664   2.907   2.238  0.7504 -2.5282  0.3503
  168SOL    HW2  504   2.665   3.005   2.373 -0.6061  1.2160 -1.3069
  169SOL     OW  505   0.132   1.589   0.679  0.1992  0.1218 -0.3013
  169SOL    HW1  506   0.168   1.645   0.606 -1.6130 -0.2924  0.7863
  169SOL    HW2  507   0.206   1.597   0.752  1.2085 -2.5436  1.9773
  170SOL     OW  508   2.887   0.739   1.479 -0.0392  0.5026  0.1669
  170SOL    HW1  509   2.940   0.653   1.459 -0.3590 -1.6414  2.4885
  170SOL    HW2  510   2.886   0.761   1.576 -0.3114  0.9945 -2.3598
  171SOL     OW  511   1.149   2.152   1.550  0.7739 -0.6182  1.0005
  171SOL    HW1  512   1.245   2.184   1.561  0.9154 -2.0288 -0.5053
  171SOL    HW2  513   1.094   2.219   1.490 -0.2660 -0.5971 -0.0869
  172SOL     OW  514   0.458   2.524   1.332 -0.0200  0.0489  0.1002
  172SOL    HW1  515   0.485   2.437   1.283 -0.0286  1.2603 -2.3321
  172SOL    HW2  516   0.381   2.575   1.291  0.6937 -3.0325  0.5638
  173SOL     OW  517   1.264   2.925   0.172  0.0373  0.1761  0.1448
  173SOL    HW1  518   1.335   2.853   0.148 -0.4006  0.2639  0.2007
  173SOL    HW2  519   1.310   3.014   0.178 -1.0811 -0.7568  1.4843
  174SOL     OW  520   0.899   2.610   2.696 -0.1782 -0.4410  0.4137
  174SOL    HW1  521   0.977   2.660   2.736  2.1057  0.1250  0.3829
  174SOL    HW2  522   0.912   2.510   2.716  0.2830 -0.0680  0.2967
  175SOL     OW  523   1.350   0.678   0.401 -0.0277  0.1310  0.1441
  175SOL    HW1  524   1.408   0.606   0.437 -1.1025  2.0514 -0.6838
  175SOL    HW2  525   1.413   0.748   0.362  0.0216 -1.4847  1.3146
  176SOL     OW  526   1.398   0.075   0.213 -0.1222  0.3400  0.4649
  176SOL    HW1  527   1.465   0.117   0.147 -0.6199 -0.0317 -1.4021
  176SOL    HW2  528   1.396   0.112   0.307 -2.6718 -1.1705 -0.9697
  177SOL     OW  529   1.383   0.930   0.955  0.1484  0.0301  0.0883
  177SOL    HW1  530   1.429   1.011   0.915 -4.3646 -0.9714 -0.2621
  177SOL    HW2  531   1.284   0.936   0.932 -0.0724  0.6679 -0.4144
  178SOL     OW  532   2.230   1.701   2.100 -0.2379 -0.1861  0.8678
  178SOL    HW1  533   2.297   1.630   2.063  1.6238 -2.7466 -1.2605
  178SOL    HW2  534   2.149   1.649   2.120  1.5338 -0.1663 -2.1159
  179SOL     OW  535   0.672   2.815   2.603  0.3395 -0.0879  0.7309
  179SOL    HW1  536   0.754   2.776   2.643 -0.5631  2.3920  1.3532
  179SOL    HW2  537   0.619   2.744   2.551 -2.5309 -2.0604 -2.0678
  180SOL     OW  538   1.557   1.821   1.546  1.1406  0.0733  0.5618
  180SOL    HW1  539   1.580   1.763   1.626 -0.1018  0.1986 -0.6239
  180SOL    HW2  540   1.632   1.887   1.531  0.6217 -0.4752  4.2202
  181SOL     OW  541   1.503   1.268   2.415 -0.5494  0.3333 -0.6066
  181SOL    HW1  542   1.539   1.232   2.508  0.3794  2.8704  2.1051
  181SOL    HW2  543   1.408   1.238   2.393 -1.6146  1.9203  2.5120
  182SOL     OW  544   2.981   0.606   2.667  0.1092 -0.2672  0.3710
  182SOL    HW1  545   2.924   0.525   2.690  1.4569  1.9922 -1.7660
  182SOL    HW2  546   3.064   0.608   2.727 -1.1771 -0.3049  0.1119
  183SOL     OW  547   1.086   0.222   2.540 -0.1410 -0.2420  0.9482
  183SOL    HW1  548   1.141   0.297   2.506 -2.0923  2.4753  4.1999
  183SOL    HW2  549   1.076   0.228   2.640 -2.4170  1.7763  1.9752
  184SOL     OW  550   1.257   0.790   1.385 -0.3654  0.3504  0.1361
  184SOL    HW1  551   1.201   0.845   1.451 -2.1541  2.2956 -2.3026
  184SOL    HW2  552   1.283   0.855   1.310 -2.6169 -0.8033 -0.3287
  185SOL     OW  553   0.211   1.411   0.996 -0.2353  0.0021 -0.4061
  185SOL    HW1  554   0.113   1.419   1.020 -1.0613 -0.1339  0.8021
  185SOL    HW2  555   0.251   1.325   1.032  0.5737 -0.9386  0.9130
  186SOL     OW  556   0.413   1.923   2.738 -0.0685  0.3552 -0.6125
  186SOL    HW1  557   0.436   1.934   2.835  1.6043  0.8276  0.4825
  186SOL    HW2  558   0.499   1.930   2.685 -1.9236 -1.0807 -0.2601
  187SOL     OW  559   2.644   1.161   0.355  0.2200 -0.4307 -0.0638
  187SOL    HW1  560   2.686   1.145   0.262 -0.8258 -0.2160 -2.0880
  187SOL    HW2  561   2.549   1.202   0.341 -1.0990  0.1368  0.4138
  188SOL     OW  562   0.251   2.412   0.552  0.5588  0.0903 -0.5347
  188SOL    HW1  563   0.230   2.330   0.488  3.1329 -2.3259 -2.5102
  188SOL    HW2  564   0.171   2.477   0.552 -0.4278 -0.8459  0.3490
  189SOL     OW  565   2.531   0.895   0.191 -0.1858  0.1380 -0.4170
  189SOL    HW1  566   2.493   0.841   0.112  0.2677 -1.0139 -0.7405
  189SOL    HW2  567   2.612   0.846   0.230 -0.7512  0.6873 -1.3110
  190SOL     OW  568   1.445   1.558   2.034  0.2764 -0.5808 -0.0268
  190SOL    HW1  569   1.499   1.504   2.098 -3.4746  1.8737 -2.3368
  190SOL    HW2  570   1.431   1.649   2.081 -0.1452 -0.6524  1.4716
  191SOL     OW  571   2.515   0.361   1.570  0.5561 -0.1363  0.0393
  191SOL    HW1  572   2.586   0.327   1.638 -1.1358 -2.4132  0.5418
  191SOL    HW2  573   2.475   0.450   1.599 -1.0084 -2.4803 -2.0798
  192SOL     OW  574   2.257   0.362   1.828  0.1199 -0.2203 -0.0657
  192SOL    HW1  575   2.211   0.307   1.898  0.0691 -0.4443 -0.7662
  192SOL    HW2  576   2.350   0.382   1.870 -1.1361 -0.7049  0.7466
  193SOL     OW  577   0.727   0.645   0.250  0.0187  0.3119 -0.2846
  193SOL    HW1  578   0.711   0.552   0.291 -1.1274  2.2068  1.8737
  193SOL    HW2  579   0.642   0.676   0.200  1.1491  5.9477 -1.0999
  194SOL     OW  580   1.100   2.765   1.110  0.4900  0.2638  0.2179
  194SOL    HW1  581   1.084   2.803   1.018 -0.5323 -1.9930  0.5775
  194SOL    HW2  582   1.040   2.807   1.180 -0.4453  0.8332 -0.5630
  195SOL     OW  583   2.181   0.641   0.965  0.1836  0.0005  1.0804
  195SOL    HW1  584   2.139   0.647   0.874  1.3419  1.4151  1.4160
  195SOL    HW2  585   2.123   0.616   1.039  5.2314  3.1065 -0.8470
  196SOL     OW  586   1.715   1.883   1.963  0.0312  0.7283  0.0270
  196SOL    HW1  587   1.778   1.934   2.016 -6.3936 -3.4938 -0.8654
  196SOL    HW2  588   1.623   1.917   1.988 -2.5946  0.2987  0.0865
  197SOL     OW  589   0.081   2.983   0.254 -0.0408 -0.2270 -0.0322
  197SOL    HW1  590   0.091   3.016   0.351  1.0121 -1.7371  0.1296
  197SOL    HW2  591   0.162   3.011   0.196 -2.1358 -1.3506  0.3576
  198SOL     OW  592   1.055   1.177   0.609 -0.1505  0.0903  0.5263
  198SOL    HW1  593   1.057   1.206   0.703 -1.0958 -0.5461  0.0443
  198SOL    HW2  594   1.011   1.088   0.603  0.4082  1.8142 -1.2961
  199SOL     OW  595   3.085   0.932   2.062  0.0499  0.3988  0.3318
  199SOL    HW1  596   0.063   0.888   1.991  2.4447 -2.2105 -1.9127
  199SOL    HW2  597   3.002   0.978   2.021 -0.7559  0.3330  2.3378
  200SOL     OW  598   2.482   2.107   2.591 -0.1112 -0.3429 -0.1612
  200SOL    HW1  599   2.433   2.056   2.661  1.9593 -0.6309  0.6657
  200SOL    HW2  600   2.504   2.203   2.622  1.3422  1.4814 -0.7426
  201SOL     OW  601   2.486   0.143   1.132 -0.2722  0.1701 -0.0727
  201SOL    HW1  602   2.532   0.213   1.079  0.2951 -1.8895 -0.8113
  201SOL    HW2  603   2.444   0.077   1.071  4.1376  1.4806  1.8040
  202SOL     OW  604   2.353   0.705   0.358  0.8282 -0.4865 -0.1753
  202SOL    HW1  605   2.377   0.676   0.452 -2.8821  2.1252 -1.8505
  202SOL    HW2  606   2.334   0.806   0.357  1.1481  2.8855 -0.2890
  203SOL     OW  607   1.727   1.935   2.267  0.2194  0.4437 -0.3752
  203SOL    HW1  608   1.783   1.986   2.200  1.4830 -0.8248  0.8839
  203SOL    HW2  609   1.653   1.891   2.215 -1.0428  1.5892 -0.0940
  204SOL     OW  610   0.919   1.915   2.239 -0.2174 -0.3961 -0.1092
  204SOL    HW1  611   0.941   1.822   2.269 -3.1401  3.7719  0.6904
  204SOL    HW2  612   1.003   1.969   2.214 -0.6805  0.3002  3.0861
  205SOL     OW  613   1.071   1.878   1.463 -0.1733  0.3128  0.1181
  205SOL    HW1  614   1.102   1.976   1.472  0.1003  0.8044 -1.3513
  205SOL    HW2  615   1.113   1.828   1.543 -0.3517  0.0890 -0.7466
  206SOL     OW  616   3.050   0.668   3.082 -0.2131  0.4135 -0.4272
  206SOL    HW1  617   2.967   0.612   0.007  0.0615 -1.3191 -1.3636
  206SOL    HW2  618   0.006   0.657   2.991 -0.9842 -0.8039 -1.6092
  207SOL     OW  619   1.787   2.629   2.365 -0.0675  0.9580  0.6912
  207SOL    HW1  620   1.723   2.549   2.339  0.7899 -0.2880  1.0186
  207SOL    HW2  621   1.749   2.713   2.328  1.2315 -0.5327 -0.4509
  208SOL     OW  622   0.390   2.316   1.573 -0.8737 -0.4834 -0.6030
  208SOL    HW1  623   0.334   2.336   1.493 -2.4015 -0.8041  1.1014
  208SOL    HW2  624   0.375   2.393   1.640 -0.1389 -1.1740 -1.4644
  209SOL     OW  625   1.581   0.798   2.727 -0.0022 -0.4292  0.0519
  209SOL    HW1  626   1.526   0.763   2.804 -0.2677  0.7200 -0.3741
  209SOL    HW2  627   1.537   0.784   2.635  0.7726 -2.1690 -2.0719
  210SOL     OW  628   1.986   0.799   1.082  0.4910  0.3602  0.8641
  210SOL    HW1  629   1.946   0.831   1.170  1.3765 -0.3084 -1.5456
  210SOL    HW2  630   2.076   0.762   1.088 -1.4971 -0.4906  0.6824
  211SOL     OW  631   0.589   0.553   0.637 -0.4393 -0.3876 -0.6563
  211SOL    HW1  632   0.622   0.643   0.601  0.9542  0.5092 -1.3644
  211SOL    HW2  633   0.526   0.563   0.717  0.0763  1.3471 -1.3245
  212SOL     OW  634   1.654   1.353   0.154  0.0893  0.0240 -0.1778
  212SOL    HW1  635   1.738   1.401   0.137 -1.8167  0.4166  1.1495
  212SOL    HW2  636   1.581   1.416   0.165  3.5376 -0.7020  1.6447
  213SOL     OW  637   1.602   0.162   2.482 -0.5995 -0.1586  0.2351
  213SOL    HW1  638   1.505   0.136   2.472  2.6469 -2.8328  0.9929
  213SOL    HW2  639   1.632   0.141   2.575 -1.7594  0.4490 -0.2678
  214SOL     OW  640   1.644   1.422   2.250  0.4822 -0.0032  0.2932
  214SOL    HW1  641   1.671   1.491   2.322 -0.6443 -0.3363  0.6794
  214SOL    HW2  642   1.595   1.351   2.303  0.7231  1.2571  1.8370
  215SOL     OW  643   0.470   1.736   0.559  0.6106 -0.3472  0.3371
  215SOL    HW1  644   0.538   1.766   0.491  0.9058 -3.2355  0.2470
  215SOL    HW2  645   0.406   1.667   0.525  0.9888  1.1575  0.5663
  216SOL     OW  646   0.559   2.916   2.177 -0.1794 -0.2173  0.3155
  216SOL    HW1  647   0.601   2.882   2.094 -0.5062  2.2086 -0.0893
  216SOL    HW2  648   0.620   2.931   2.257  1.6302  0.3677 -0.0169
  217SOL     OW  649   2.236   0.954   0.614  0.0030  0.3073 -0.0223
  217SOL    HW1  650   2.326   0.971   0.564  1.6053 -1.0731 -2.1973
  217SOL    HW2  651   2.176   1.035   0.608 -0.0178 -1.1057 -0.1777
  218SOL     OW  652   2.157   1.853   1.877 -0.0692 -0.3280  0.5211
  218SOL    HW1  653   2.068   1.819   1.846  0.1764  1.4258 -0.1834
  218SOL    HW2  654   2.183   1.794   1.956 -0.9753  0.8499  0.1805
  219SOL     OW  655   1.874   1.507   0.073  0.4912 -0.1439  0.9176
  219SOL    HW1  656   1.823   1.551   0.001  0.0989  0.6968 -0.6565
  219SOL    HW2  657   1.961   1.467   0.034  1.4274  1.7037  0.0879
  220SOL     OW  658   1.400   1.523   1.120  0.4232  0.1416 -0.3168
  220SOL    HW1  659   1.434   1.578   1.198 -1.0648  1.5592 -0.5177
  220SOL    HW2  660   1.438   1.565   1.036  0.0874 -1.5101 -3.6033
  221SOL     OW  661   0.267   0.840   2.722 -0.4003 -0.1733 -0.5940
  221SOL    HW1  662   0.205   0.921   2.744 -2.8217  2.7116 -0.2382
  221SOL    HW2  663   0.366   0.863   2.746  0.7991  0.8631  0.9631
  222SOL     OW  664   0.972   1.630   1.374 -0.3840 -0.2182 -0.2134
  222SOL    HW1  665   1.030   1.711   1.395  1.2110  0.4689  0.1290
  222SOL    HW2  666   1.013   1.566   1.306 -0.3687  0.7027  2.5859
  223SOL     OW  667   1.314   0.037   2.534 -0.1916  0.1036 -0.4527
  223SOL    HW1  668   1.307   0.005   2.630  1.2867  0.1392 -2.0291
  223SOL    HW2  669   1.224   0.049   2.493  0.5992  0.6110 -1.1216
  224SOL     OW  670   2.829   0.822   0.835  0.6810  0.3055 -0.4555
  224SOL    HW1  671   2.925   0.845   0.810  4.8942  2.8612  1.2237
  224SOL    HW2  672   2.824   0.794   0.932 -0.5641  3.4734  0.3664
  225SOL     OW  673   1.447   0.368   1.598  0.0252  0.0671 -0.6710
  225SOL    HW1  674   1.460   0.464   1.557  0.6065  3.9537 -2.2947
  225SOL    HW2  675   1.520   0.348   1.667  1.4888 -0.2962 -3.2937
  226SOL     OW  676   1.403   1.973   2.579  0.3510 -0.5134 -0.5213
  226SOL    HW1  677   1.414   1.889   2.531 -0.1468  1.6348 -1.0321
  226SOL    HW2  678   1.398   1.951   2.682  1.6317  0.4397  2.3527
  227SOL     OW  679   1.257   1.878   1.251 -0.3558  0.2611  0.2530
  227SOL    HW1  680   1.335   1.809   1.249  2.9882 -1.9524 -2.0010
  227SOL    HW2  681   1.186   1.856   1.320  1.3565 -1.4570 -1.3373
  228SOL     OW  682   0.781   1.894   0.882 -0.3317  0.2056  0.2804
  228SOL    HW1  683   0.822   1.951   0.962  0.7934 -1.4721 -1.9773
  228SOL    HW2  684   0.856   1.840   0.838  2.0799  1.9884  0.5936
  229SOL     OW  685   1.943   0.434   0.128  0.4138 -0.0711 -0.0641
  229SOL    HW1  686   1.980   0.445   0.034  2.9202  3.4752  0.8001
  229SOL    HW2  687   1.959   0.521   0.179 -2.3798  1.3136 -0.1076
  230SOL     OW  688   0.943   0.479   2.147 -0.1193  0.1467  0.4480
  230SOL    HW1  689   0.891   0.512   2.067  0.6806 -1.1181 -2.3459
  230SOL    HW2  690   1.026   0.532   2.157  2.0505 -2.9713 -2.1666
  231SOL     OW  691   1.242   1.556   2.404  0.3548 -0.5068  0.6249
  231SOL    HW1  692   1.260   1.517   2.496  0.0687  1.8587  0.6043
  231SOL    HW2  693   1.154   1.602   2.405  1.5397 -2.0038  2.0201
  232SOL     OW  694   2.201   2.022   1.066  0.5455 -0.2058  0.5797
  232SOL    HW1  695   2.170   1.986   0.974 -4.4499 -3.0644 -1.2290
  232SOL    HW2  696   2.237   2.112   1.056 -3.1717 -1.9574 -0.4823
  233SOL     OW  697   1.783   2.812   3.028  1.0263  0.4315 -0.1749
  233SOL    HW1  698   1.755   2.715   3.046 -0.5035  2.7105 -1.8491
  233SOL    HW2  699   1.884   2.830   3.039 -0.4656  0.8713 -2.7407
  234SOL     OW  700   1.195   2.990   3.005  0.1334  0.0279 -0.1215
  234SOL    HW1  701   1.217   2.952   0.011  0.4169 -0.8190  1.2203
  234SOL    HW2  702   1.144   2.921   2.955  1.8033  0.4609  0.2663
  235SOL     OW  703   2.409   3.066   0.318  0.7589 -0.2634 -0.5046
  235SOL    HW1  704   2.311   3.042   0.326  2.1580  0.7567  2.3829
  235SOL    HW2  705   2.463   2.998   0.266  2.5224  2.2432  0.4982
  236SOL     OW  706   2.609   2.310   2.231 -0.6911 -0.0405  0.1051
  236SOL    HW1  707   2.662   2.288   2.145  1.4872 -0.7279 -1.3216
  236SOL    HW2  708   2.673   2.319   2.307  0.5107 -1.7495  1.3294
  237SOL     OW  709   1.252   1.206   1.723 -0.0418 -0.0801 -0.2520
  237SOL    HW1  710   1.327   1.271   1.706 -2.1665  0.6120  2.1148
  237SOL    HW2  711   1.223   1.164   1.635 -0.8178  1.0300 -0.7297
  238SOL     OW  712   2.152   0.157   2.487  0.4773  0.0517 -0.1955
  238SOL    HW1  713   2.204   0.211   2.420  1.3162 -1.6346  0.2410
  238SOL    HW2  714   2.060   0.196   2.499  0.1447 -0.1889 -2.0631
  239SOL     OW  715   0.302   1.974   1.975  0.2928 -0.9294  0.3164
  239SOL    HW1  716   0.367   1.901   2.009  0.5169 -2.5404  0.6303
  239SOL    HW2  717   0.348   2.014   1.893  0.1063 -1.6685  3.1576
  240SOL     OW  718   2.739   2.637   0.780  0.1237 -0.1136 -0.0277
  240SOL    HW1  719   2.718   2.643   0.879  0.5917  2.2043 -0.3197
  240SOL    HW2  720   2.698   2.550   0.745 -0.6996 -1.8506  1.0658
  241SOL     OW  721   2.042   2.055   0.780  0.4636  0.3513 -0.4018
  241SOL    HW1  722   2.091   1.967   0.766  0.7716 -0.5426 -1.5385
  241SOL    HW2  723   2.093   2.136   0.752 -1.5859 -0.6819  0.6820
  242SOL     OW  724   1.193   1.724   2.766 -0.2700 -0.2672  0.6089
  242SOL    HW1  725   1.147   1.669   2.837  0.6595 -1.7381 -2.7848
  242SOL    HW2  726   1.293   1.716   2.776  2.7810 -0.5692 -0.0094
  243SOL     OW  727   0.543   2.574   2.179  0.0928 -0.0567 -0.0956
  243SOL    HW1  728   0.504   2.663   2.163  0.6285  0.3809  2.9771
  243SOL    HW2  729   0.646   2.577   2.173  0.5856  0.2409 -0.7632
  244SOL     OW  730   2.292   3.038   2.908  0.2101 -0.0296  0.2445
  244SOL    HW1  731   2.379   3.082   2.909  0.2788 -1.6540  0.5572
  244SOL    HW2  732   2.229   3.072   2.835  0.7173  0.3958  0.4550
  245SOL     OW  733   1.421   2.672   0.441 -0.2147 -0.1587  0.0508
  245SOL    HW1  734   1.412   2.572   0.458 -0.5220 -2.7185 -2.5590
  245SOL    HW2  735   1.330   2.713   0.439  0.8136  0.4492  1.1449
  246SOL     OW  736   0.908   2.866   0.127  0.0109  0.4105  0.5460
  246SOL    HW1  737   0.939   2.936   0.196  1.1498 -1.2379 -2.9375
  246SOL    HW2  738   0.984   2.798   0.114  2.6876 -2.8460 -2.3588
  247SOL     OW  739   0.715   0.894   1.913  0.0081  0.1219  0.0137
  247SOL    HW1  740   0.713   0.814   1.845  1.2828 -2.0222 -1.1616
  247SOL    HW2  741   0.814   0.921   1.912  1.1809 -2.9554  0.5234
  248SOL     OW  742   1.143   1.385   2.162 -0.8505 -0.0670 -0.1675
  248SOL    HW1  743   1.170   1.410   2.065  0.4423  0.1664 -0.4596
  248SOL    HW2  744   1.192   1.449   2.223  3.5490  3.0682 -0.2189
  249SOL     OW  745   2.055   0.500   0.432  0.3529 -0.5032  0.2146
  249SOL    HW1  746   2.123   0.468   0.504  0.6213  2.1031 -5.3873
  249SOL    HW2  747   1.961   0.503   0.467 -1.3512 -1.4975 -1.3391
  250SOL     OW  748   0.731   0.065   0.662 -0.0608 -0.2511  0.5983
  250SOL    HW1  749   0.766   3.082   0.601  0.4240  1.1188  0.8972
  250SOL    HW2  750   0.742   0.160   0.627 -0.1075  1.0578  0.0328
  251SOL     OW  751   1.546   0.201   2.871 -0.3472  0.7611 -0.2442
  251SOL    HW1  752   1.626   0.157   2.823  0.3124  0.0542  2.1786
  251SOL    HW2  753   1.464   0.138   2.862 -1.9966  1.9555 -2.1905
  252SOL     OW  754   1.711   1.205   2.094  0.0038 -0.1099 -0.3264
  252SOL    HW1  755   1.679   1.272   2.159 -0.3333 -2.3485  1.0150
  252SOL    HW2  756   1.817   1.195   2.098 -1.1549  1.1933  0.7689
  253SOL     OW  757   2.395   2.708   2.106  0.3937  0.1032  0.2000
  253SOL    HW1  758   2.492   2.676   2.087  2.5894  0.2132 -2.7473
  253SOL    HW2  759   2.339   2.624   2.115  3.8626  1.3407 -1.9717
  254SOL     OW  760   0.575   1.203   1.132  0.5458  0.2030 -0.7845
  254SOL    HW1  761   0.636   1.145   1.077 -4.0010  2.2229  0.3773
  254SOL    HW2  762   0.627   1.278   1.189  2.7803  1.7833  0.1768
  255SOL     OW  763   1.235   1.003   1.190  0.1266  0.6447 -0.4404
  255SOL    HW1  764   1.142   1.021   1.165 -1.0557  2.4157  1.2458
  255SOL    HW2  765   1.301   1.068   1.153  0.7540 -2.1002  0.7482
  256SOL     OW  766   1.920   2.655   1.868 -0.1157 -0.8962  0.2470
  256SOL    HW1  767   1.840   2.600   1.884  2.6587 -1.0262 -2.2798
  256SOL    HW2  768   1.987   2.594   1.830 -1.1783  2.5022 -0.0782
  257SOL     OW  769   0.188   2.866   2.780  0.1153  0.5755  0.6076
  257SOL    HW1  770   0.183   2.955   2.828  0.5670 -2.7359 -0.2621
  257SOL    HW2  771   0.281   2.830   2.802  0.7442 -0.3812  3.9312
  258SOL     OW  772   0.742   2.834   1.992 -0.0118 -0.2609 -0.0444
  258SOL    HW1  773   0.781   2.775   2.059  0.0844  0.8054 -0.1578
  258SOL    HW2  774   0.723   2.793   1.905 -1.2961 -0.0165  2.3642
  259SOL     OW  775   1.135   3.048   2.238 -0.4526  0.0529  0.1112
  259SOL    HW1  776   1.166   0.011   2.157 -1.5764  0.2521  0.6095
  259SOL    HW2  777   1.173   2.955   2.235  2.4883  0.0660 -0.9508
  260SOL     OW  778   1.650   0.373   1.007 -0.0646 -0.7053 -0.6842
  260SOL    HW1  779   1.634   0.279   0.981 -0.3216  4.4510 -0.6523
  260SOL    HW2  780   1.727   0.415   0.954  2.5198 -1.6516  1.9128
  261SOL     OW  781   0.107   0.614   2.844  0.3709  0.5431 -0.2898
  261SOL    HW1  782   0.158   0.528   2.816  1.1205  0.0408  2.2288
  261SOL    HW2  783   0.164   0.692   2.811  0.6406 -1.8224  0.4634
  262SOL     OW  784   2.766   2.495   1.815  0.3792  0.1845 -0.0285
  262SOL    HW1  785   2.843   2.432   1.790 -1.7217  0.6794 -2.2492
  262SOL    HW2  786   2.783   2.584   1.774 -1.2648 -1.3219  1.2954
  263SOL     OW  787   2.685   1.887   2.185  0.2549  0.1913 -0.1691
  263SOL    HW1  788   2.770   1.837   2.192 -2.1562  1.5776 -2.2264
  263SOL    HW2  789   2.658   1.919   2.280 -2.4334  0.0106  1.2034
  264SOL     OW  790   0.647   1.200   0.774 -0.1666 -0.3209 -0.3372
  264SOL    HW1  791   0.681   1.128   0.841  3.4682 -2.9813  1.2587
  264SOL    HW2  792   0.661   1.167   0.680 -1.3284 -0.6076  0.3026
  265SOL     OW  793   0.624   2.120   0.107 -0.0341 -0.1954 -0.1819
  265SOL    HW1  794   0.702   2.060   0.134  0.4193 -1.2306 -0.0491
  265SOL    HW2  795   0.590   2.168   0.185  1.3124 -0.2208 -2.0729
  266SOL     OW  796   1.430   0.501   0.937 -0.0135 -0.0424 -0.1358
  266SOL    HW1  797   1.505   0.440   0.967  3.2388  2.0925  1.5221
  266SOL    HW2  798   1.398   0.478   0.844  1.8698  1.1695 -0.4074
  267SOL     OW  799   2.986   1.284   0.038  1.1412  0.6732 -0.3183
  267SOL    HW1  800   3.058   1.281   0.107 -0.0845 -2.3493 -2.3096
  267SOL    HW2  801   3.016   1.310   3.035 -0.6440  3.7433  0.2747
  268SOL     OW  802   2.033   0.186   0.041  0.1909 -0.3102  0.4924
  268SOL    HW1  803   2.017   0.263   0.106  0.4851  1.1108  0.4486
  268SOL    HW2  804   1.952   0.122   0.029 -1.1868 -1.2220 -0.5079
  269SOL     OW  805   1.789   0.617   2.704 -0.1264 -0.2013 -0.1062
  269SOL    HW1  806   1.762   0.559   2.624 -2.0642  0.2282 -1.9386
  269SOL    HW2  807   1.717   0.687   2.712  3.2475  0.0635  0.2939
  270SOL     OW  808   0.547   0.809   3.007  0.1769 -0.4607  0.4647
  270SOL    HW1  809   0.501   0.850   0.004 -4.7931  1.7486  3.1660
  270SOL    HW2  810   0.560   0.882   2.935  1.7885  4.5525 -3.1777
  271SOL     OW  811   2.951   0.996   0.221 -0.0143 -0.2476 -0.0417
  271SOL    HW1  812   3.031   0.968   0.166  1.1986  0.9855  1.0183
  271SOL    HW2  813   2.884   1.050   0.172 -0.8813 -1.4588  1.0870
  272SOL     OW  814   3.065   1.984   2.824  0.0183 -0.7050 -0.2952
  272SOL    HW1  815   2.965   2.005   2.820 -1.4317 -0.7680 -1.8514
  272SOL    HW2  816   0.036   2.032   2.759  0.5836  0.4564 -0.1366
  273SOL     OW  817   2.467   2.916   0.803  0.1471 -0.0235  0.2051
  273SOL    HW1  818   2.421   2.982   0.868  0.7433  0.8065  1.2462
  273SOL    HW2  819   2.487   2.948   0.707 -0.2048 -0.7843 -1.6605
  274SOL     OW  820   0.415   2.309   0.890  0.1252 -0.2690 -0.6390
  274SOL    HW1  821   0.356   2.234   0.850 -0.5212  1.4543 -0.9752
  274SOL    HW2  822   0.457   2.348   0.811  0.3802 -2.8358  2.3121
  275SOL     OW  823   2.485   1.551   0.550 -0.4398  0.1782 -0.5323
  275SOL    HW1  824   2.573   1.609   0.542 -1.9007  0.6123  2.5627
  275SOL    HW2  825   2.496   1.454   0.584 -0.8980 -2.7622 -0.0126
  276SOL     OW  826   0.165   1.332   2.189  0.1626 -0.1896  0.2298
  276SOL    HW1  827   0.184   1.233   2.183 -0.3025  1.5173  1.3027
  276SOL    HW2  828   0.169   1.377   2.100 -1.4795  0.9067 -0.0470
  277SOL     OW  829   1.977   2.749   1.415  0.0616  0.2084  0.0208
  277SOL    HW1  830   2.059   2.699   1.441  0.6766 -1.2089 -0.1541
  277SOL    HW2  831   1.964   2.751   1.313 -1.8718 -0.7228  0.6528
  278SOL     OW  832   1.180   2.966   1.916  0.1202 -0.1271  0.3565
  278SOL    HW1  833   1.208   2.936   1.823  0.1720  0.4245 -2.2022
  278SOL    HW2  834   1.231   3.052   1.936  1.2147  0.0090  2.6382
  279SOL     OW  835   1.737   1.879   0.398  0.0483 -0.6344  0.5663
  279SOL    HW1  836   1.639   1.888   0.370  0.6921 -1.9851 -0.8592
  279SOL    HW2  837   1.782   1.799   0.354 -1.8288 -1.4137 -1.2275
  280SOL     OW  838   0.079   1.777   1.031 -0.4471 -0.0612 -0.1597
  280SOL    HW1  839   0.133   1.733   0.960  0.6294 -0.4573 -0.1252
  280SOL    HW2  840   3.074   1.747   1.027  1.1151 -0.8770 -0.3772
  281SOL     OW  841   3.019   0.707   2.415 -0.2423  0.2091 -0.1431
  281SOL    HW1  842   3.080   0.639   2.372 -1.4932  0.4784  0.2599
  281SOL    HW2  843   2.996   0.672   2.508  0.9930  0.8434  0.5262
  282SOL     OW  844   0.698   1.089   0.521  0.3244  0.2272 -0.5461
  282SOL    HW1  845   0.610   1.123   0.475  2.5144 -0.2174 -0.6403
  282SOL    HW2  846   0.776   1.109   0.461 -0.2837  0.8979  1.0111
  283SOL     OW  847   1.842   2.200   3.078 -0.5189 -0.3093 -0.4108
  283SOL    HW1  848   1.870   2.217   2.982  0.7935 -1.4366  0.2258
  283SOL    HW2  849   1.876   2.105   0.017  1.9942 -0.9550  2.2781
  284SOL     OW  850   1.196   0.503   0.258  0.5100  0.3846 -0.3182
  284SOL    HW1  851   1.211   0.531   0.160  0.3292  0.2671  2.0386
  284SOL    HW2  852   1.258   0.556   0.321  1.8769  0.6297  1.1244
  285SOL     OW  853   2.105   1.024   2.671  0.2473 -0.2177 -0.0897
  285SOL    HW1  854   2.041   0.951   2.636  1.9575  1.9040 -0.4606
  285SOL    HW2  855   2.130   1.006   2.769 -1.6661  0.0118  1.2808
  286SOL     OW  856   1.416   2.619   1.567  0.1938  0.2617 -0.1317
  286SOL    HW1  857   1.441   2.707   1.616 -0.1990  1.6449  0.1341
  286SOL    HW2  858   1.503   2.561   1.556  1.0236  0.4582 -0.3157
  287SOL     OW  859   0.982   0.915   0.632  0.0164  0.2751 -0.0235
  287SOL    HW1  860   0.885   0.896   0.644  2.2774 -1.3086  0.2085
  287SOL    HW2  861   1.036   0.829   0.612 -0.6218  0.6877 -0.3307
  288SOL     OW  862   1.084   2.538   0.291  0.1457  0.1388  0.0694
  288SOL    HW1  863   1.133   2.625   0.311 -1.4979  0.9024  3.4051
  288SOL    HW2  864   1.023   2.516   0.367  0.2857 -0.4173 -5.0232
  289SOL     OW  865   0.485   1.423   1.636 -0.3773  0.0657 -0.2256
  289SOL    HW1  866   0.488   1.516   1.675  0.4238 -0.4661  0.0315
  289SOL    HW2  867   0.541   1.363   1.690  2.1895  1.2456  0.2907
  290SOL     OW  868   1.676   2.187   0.970  0.0635  0.0355 -0.2010
  290SOL    HW1  869   1.662   2.143   1.059  1.1049  3.2121 -2.8038
  290SOL    HW2  870   1.622   2.275   0.969 -0.7760  2.6201  1.3003
  291SOL     OW  871   1.529   2.867   2.905  0.6936 -0.2237  0.2657
  291SOL    HW1  872   1.522   2.804   2.829  0.6208  2.3594 -0.4792
  291SOL    HW2  873   1.614   2.857   2.951 -1.6338 -0.4177 -1.5673
  292SOL     OW  874   1.042   0.155   1.818  0.2953  0.1290 -0.1368
  292SOL    HW1  875   1.071   0.228   1.880  0.7723 -0.1557  0.2274
  292SOL    HW2  876   0.988   0.082   1.862 -1.4112 -0.9748  0.1371
  293SOL     OW  877   1.915   2.229   0.932 -0.5647  0.3338  0.1394
  293SOL    HW1  878   1.952   2.152   0.879 -0.9070  0.7873 -1.0015
  293SOL    HW2  879   1.818   2.212   0.961  3.1938  1.5936 -0.5692
  294SOL     OW  880   0.619   0.888   2.413 -0.0212  0.4153 -0.4509
  294SOL    HW1  881   0.518   0.897   2.436 -0.8828 -0.5162  2.6344
  294SOL    HW2  882   0.671   0.890   2.502  1.2221  0.3134 -0.4490
  295SOL     OW  883   1.561   1.676   0.943 -0.4063 -0.3062 -0.3324
  295SOL    HW1  884   1.656   1.713   0.964  1.9317  0.9321 -0.1862
  295SOL    HW2  885   1.516   1.732   0.871  1.2005 -0.7577 -0.5635
  296SOL     OW  886   2.376   1.824   0.118 -0.1772  0.0326  0.6257
  296SOL    HW1  887   2.477   1.811   0.104  1.2801  0.8305  0.6263
  296SOL    HW2  888   2.368   1.875   0.202  0.9251  1.2574 -0.5837
  297SOL     OW  889   2.141   3.036   0.356  0.3218  0.1253  0.1322
  297SOL    HW1  890   2.047   3.060   0.376  1.2086  0.2230 -0.5884
  297SOL    HW2  891   2.149   3.035   0.256  2.9007  1.1935  1.8677
  298SOL     OW  892   0.931   2.497   2.359 -0.4046 -0.7494  0.0111
  298SOL    HW1  893   0.883   2.417   2.401  2.2089 -0.9007 -2.1693
  298SOL    HW2  894   1.031   2.498   2.388  0.4461  0.0296 -0.6076
  299SOL     OW  895   1.439   2.706   2.110 -0.3341 -0.0748 -0.2271
  299SOL    HW1  896   1.339   2.736   2.106 -1.3270 -0.7079  1.0704
  299SOL    HW2  897   1.459   2.650   2.191 -1.4287  0.0627  1.5519
  300SOL     OW  898   2.554   0.100   2.845 -0.4112 -0.0193  0.1582
  300SOL    HW1  899   2.545   0.188   2.897 -0.3254 -0.6933 -3.5592
  300SOL    HW2  900   2.530   0.125   2.749 -0.1899  1.6632  1.8307
  301SOL     OW  901   1.410   0.744   2.202 -0.2707  0.1170 -0.1818
  301SOL    HW1  902   1.436   0.841   2.211  0.7040 -1.9533 -0.5646
  301SOL    HW2  903   1.478   0.698   2.143 -1.4501  0.9264  2.8102
  302SOL     OW  904   2.284   2.567   0.361  0.0857 -0.4927  0.6215
  302SOL    HW1  905   2.336   2.500   0.305 -1.2328  0.7869  0.5849
  302SOL    HW2  906   2.338   2.578   0.447  0.6479  1.7654 -1.2563
  303SOL     OW  907   2.887   2.684   2.265 -0.1697 -0.4038  0.1947
  303SOL    HW1  908   2.954   2.625   2.220 -3.2934 -1.5711 -0.8997
  303SOL    HW2  909   2.841   2.645   2.347 -0.4595  0.4866  0.2383
  304SOL     OW  910   2.621   0.740   1.919  0.0039  0.2567 -0.5752
  304SOL    HW1  911   2.639   0.834   1.888  0.2648 -2.5157  0.9020
  304SOL    HW2  912   2.699   0.703   1.975  0.0704  0.2331  0.8331
  305SOL     OW  913   0.759   1.962   1.725  0.4282  0.0775 -0.4473
  305SOL    HW1  914   0.723   1.972   1.627  0.3468  0.9375  0.1121
  305SOL    HW2  915   0.708   2.023   1.787 -0.2307 -0.4315 -1.0497
  306SOL     OW  916   2.953   0.793   1.735 -0.8837  0.2618  0.1341
  306SOL    HW1  917   2.956   0.723   1.809 -0.6781  0.0648  0.7100
  306SOL    HW2  918   3.042   0.843   1.727  0.9863 -1.0497  0.6414
  307SOL     OW  919   1.294   0.329   1.836  0.0140 -0.1538  0.1452
  307SOL    HW1  920   1.227   0.407   1.828 -1.8787 -0.1585 -0.3541
  307SOL    HW2  921   1.363   0.328   1.763 -1.1134  0.4393  3.1618
  308SOL     OW  922   2.963   1.157   1.320  0.3567 -0.0381 -0.4332
  308SOL    HW1  923   3.004   1.087   1.387  1.3926  0.3116  2.9155
  308SOL    HW2  924   2.878   1.127   1.273  1.8748 -0.8388 -0.4421
  309SOL     OW  925   2.367   1.250   0.858  0.5643  0.4209 -0.3134
  309SOL    HW1  926   2.333   1.263   0.952  0.0418  1.5287 -2.3954
  309SOL    HW2  927   2.450   1.306   0.839  0.9140 -0.0866 -0.2827
  310SOL     OW  928   2.783   2.018   2.745  0.6353 -0.5620  0.4403
  310SOL    HW1  929   2.715   1.945   2.756 -0.3313 -0.0954 -1.0540
  310SOL    HW2  930   2.749   2.104   2.790 -1.8773 -0.9652  1.7961
  311SOL     OW  931   0.044   2.758   2.577 -0.0374 -0.1567  0.3704
  311SOL    HW1  932   3.032   2.755   2.598 -1.8950  0.8919 -1.1064
  311SOL    HW2  933   0.097   2.814   2.640  1.0177 -0.5861 -3.9486
  312SOL     OW  934   2.126   1.855   0.379 -0.1936  0.0625  0.2372
  312SOL    HW1  935   2.190   1.776   0.388  3.1238  0.4137 -1.3923
  312SOL    HW2  936   2.045   1.817   0.333 -1.2110  0.3545  0.5731
  313SOL     OW  937   2.746   2.980   0.857  0.2094  0.1844 -0.2388
  313SOL    HW1  938   2.785   2.889   0.833 -0.9721  0.5539 -1.3588
  313SOL    HW2  939   2.643   2.969   0.856  0.3851 -1.0742 -0.3482
  314SOL     OW  940   1.352   1.071   3.040  0.6182  0.4657 -0.5853
  314SOL    HW1  941   1.446   1.067   3.007 -0.1958 -0.0815  0.6170
  314SOL    HW2  942   1.343   1.051   0.055 -0.3683 -2.7362  1.3342
  315SOL     OW  943   1.434   2.481   1.909 -0.2177  0.3371 -0.1116
  315SOL    HW1  944   1.412   2.536   1.992 -0.5012  0.8992  0.1732
  315SOL    HW2  945   1.373   2.402   1.910  0.1421  2.9410  1.0390
  316SOL     OW  946   3.012   0.933   0.506  0.6664 -0.0788  0.5846
  316SOL    HW1  947   2.988   0.942   0.408 -1.5725  0.8076  0.1637
  316SOL    HW2  948   2.998   1.022   0.552 -1.1035 -2.5613 -4.8698
  317SOL     OW  949   0.394   0.039   0.459  0.0191 -0.1056 -0.8596
  317SOL    HW1  950   0.291   0.038   0.466 -0.0413  2.4110  0.8862
  317SOL    HW2  951   0.428   3.037   0.447 -1.6076  1.8708  0.7728
  318SOL     OW  952   1.960   2.352   0.473  0.3907 -0.7320 -0.2876
  318SOL    HW1  953   1.986   2.254   0.476  0.3660 -1.0265 -0.5210
  318SOL    HW2  954   2.040   2.409   0.467  1.1719 -0.6513  0.2714
  319SOL     OW  955   1.032   1.589   2.953 -0.2051 -0.2922 -0.4172
  319SOL    HW1  956   1.078   1.584   3.046  0.5199 -1.4998  1.2637
  319SOL    HW2  957   0.951   1.531   2.945 -2.2127 -2.4155  0.1626
  320SOL     OW  958   0.176   2.353   2.009 -0.1306  0.3495  0.3616
  320SOL    HW1  959   0.120   2.291   1.949  1.3898  0.5215  2.2677
  320SOL    HW2  960   0.134   2.449   2.011 -0.8578  0.9631  0.3987
  321SOL     OW  961   1.508   2.755   2.618 -0.0126 -0.1654 -0.1078
  321SOL    HW1  962   1.504   2.657   2.594  0.5961  1.2395  1.2783
  321SOL    HW2  963   1.470   2.818   2.548  1.8251  0.8124  0.7961
  322SOL     OW  964   2.799   1.277   2.198 -0.1824 -0.1890 -0.1726
  322SOL    HW1  965   2.771   1.348   2.267 -0.1898  2.7027 -1.1482
  322SOL    HW2  966   2.823   1.324   2.110  0.8024  1.7870  1.5278
  323SOL     OW  967   2.261   1.256   0.606  0.3172 -0.0858 -0.4932
  323SOL    HW1  968   2.305   1.248   0.701  1.3927  1.1582 -1.0700
  323SOL    HW2  969   2.157   1.260   0.609  0.3722  1.0702 -0.1458
  324SOL     OW  970   2.928   3.039   2.896  0.1137  0.0850  0.1365
  324SOL    HW1  971   2.891   0.040   2.925  0.5238 -0.2515  0.9328
  324SOL    HW2  972   2.984   2.995   2.970 -4.7640 -0.3739 -2.2033
  325SOL     OW  973   1.279   0.583   2.651 -0.1030 -0.4259  0.1120
  325SOL    HW1  974   1.196   0.623   2.693 -1.2378  0.0206 -0.3085
  325SOL    HW2  975   1.346   0.568   2.725 -1.7100 -0.0996  0.5969
  326SOL     OW  976   2.190   2.991   1.739 -0.3327 -0.9671  0.0366
  326SOL    HW1  977   2.233   3.061   1.802  0.8692  1.1281  0.3543
  326SOL    HW2  978   2.221   2.898   1.770 -0.0953  0.0612  3.0440
  327SOL     OW  979   2.055   0.248   2.846 -0.1828 -0.5310  0.0086
  327SOL    HW1  980   2.089   0.179   2.780 -1.4342 -1.6502 -0.1525
  327SOL    HW2  981   2.050   0.210   2.941  1.3483 -0.2496  1.0777
  328SOL     OW  982   0.096   1.202   2.469  0.8035 -0.0064  0.1373
  328SOL    HW1  983   0.156   1.261   2.410 -1.0887  0.0252 -2.1678
  328SOL    HW2  984   0.003   1.193   2.433 -0.3836 -2.0017 -1.7942
  329SOL     OW  985   1.946   0.077   2.037 -0.6370  0.0450 -0.7195
  329SOL    HW1  986   1.950   0.005   1.964  0.3414  2.3356  0.1947
  329SOL    HW2  987   2.032   0.133   2.033 -0.6769 -0.1438  0.3550
  330SOL     OW  988   3.044   1.370   1.149  0.2762 -0.5064  0.1681
  330SOL    HW1  989   3.015   1.285   1.195 -2.1958 -0.6961 -1.3340
  330SOL    HW2  990   3.081   1.428   1.222 -2.6322  0.4383 -0.3337
  331SOL     OW  991   0.530   1.834   2.008 -0.0336  0.8882 -0.1284
  331SOL    HW1  992   0.580   1.909   2.057  0.3812  0.6579 -1.9366
  331SOL    HW2  993   0.578   1.743   2.012 -2.5220 -0.8716 -0.9398
  332SOL     OW  994   0.007   2.797   1.616  0.5541  0.0437  0.4123
  332SOL    HW1  995   0.095   2.826   1.662  2.7360  2.9381 -1.9699
  332SOL    HW2  996   0.019   2.825   1.516 -1.0600 -0.4508  0.2762
  333SOL     OW  997   2.205   2.558   1.424 -0.2180  0.2379 -0.1085
  333SOL    HW1  998   2.296   2.545   1.389  1.0297 -0.5807 -1.4154
  333SOL    HW2  999   2.157   2.473   1.456 -0.0460 -1.0243  0.4192
  334SOL     OW 1000   1.065   1.818   0.850 -0.1359 -0.2097  0.0601
  334SOL    HW1 1001   1.048   1.725   0.887  0.9734  1.7319 -1.7628
  334SOL    HW2 1002   1.095   1.878   0.926  1.4392 -0.0715 -0.3993
  335SOL     OW 1003   0.085   2.698   2.988 -0.4609  0.2428 -0.2881
  335SOL    HW1 1004   0.145   2.739   2.917  0.7790  2.1271 -0.9080
  335SOL    HW2 1005   0.004   2.656   2.950  1.4644  2.2133  2.3790
  336SOL     OW 1006   0.468   0.102   2.157 -0.0493 -0.8399 -0.0494
  336SOL    HW1 1007   0.393   0.137   2.221 -0.7838 -0.0590  1.9961
  336SOL    HW2 1008   0.481   0.003   2.174  1.8268  4.0989 -0.3301
  337SOL     OW 1009   2.350   2.112   2.963 -0.9808  0.4021 -0.4607
  337SOL    HW1 1010   2.432   2.113   3.019 -2.8696  0.3517 -3.0184
  337SOL    HW2 1011   2.360   2.034   2.894 -1.4434 -0.8074  0.4777
  338SOL     OW 1012   1.132   1.504   1.171 -0.2921  0.5278  0.3453
  338SOL    HW1 1013   1.067   1.543   1.103  3.7094 -0.0214 -3.3963
  338SOL    HW2 1014   1.224   1.517   1.128 -0.5605 -0.6425 -0.0345
  339SOL     OW 1015   0.385   0.875   1.702  0.4120 -0.0089  0.4166
  339SOL    HW1 1016   0.338   0.831   1.777  2.3761  1.4571 -2.1604
  339SOL    HW2 1017   0.441   0.954   1.734 -0.5543  0.9231 -2.7206
  340SOL     OW 1018   1.413   2.459   0.032  0.2380  0.0165  0.4024
  340SOL    HW1 1019   1.509   2.427   0.040 -0.9008  2.4852  0.0555
  340SOL    HW2 1020   1.408   2.554   0.066 -1.6463 -0.3441 -2.0135
  341SOL     OW 1021   1.850   1.411   0.886  0.1729 -0.1976 -0.4674
  341SOL    HW1 1022   1.892   1.392   0.980  0.7743 -0.6164  0.6966
  341SOL    HW2 1023   1.757   1.380   0.892  0.7213 -1.3011 -1.9898
  342SOL     OW 1024   2.627   2.671   0.331 -0.2070  0.2911  0.6064
  342SOL    HW1 1025   2.574   2.634   0.411 -1.4374  0.8170  1.1255
  342SOL    HW2 1026   2.558   2.702   0.262  1.9164  1.8455 -1.4161
  343SOL     OW 1027   1.601   2.002   1.161  0.1660  0.2313  0.1152
  343SOL    HW1 1028   1.619   1.941   1.086 -1.2366  1.7589  0.1567
  343SOL    HW2 1029   1.518   2.065   1.158 -0.4007 -0.3390  0.8306
  344SOL     OW 1030   2.190   2.345   0.775  0.0968  0.3154  0.1633
  344SOL    HW1 1031   2.090   2.367   0.766 -1.1471  1.9660 -1.5727
  344SOL    HW2 1032   2.232   2.373   0.867  0.7684  1.7871  2.3838
  345SOL     OW 1033   2.718   2.253   2.900  0.1194  0.4939 -0.5179
  345SOL    HW1 1034   2.691   2.191   2.976  1.7797 -1.7049 -0.4019
  345SOL    HW2 1035   2.818   2.281   2.914 -0.7950  2.2044  0.3310
  346SOL     OW 1036   2.993   1.687   0.766 -0.4931 -0.0166 -0.4819
  346SOL    HW1 1037   2.952   1.628   0.838 -0.6107 -0.8737 -1.5173
  346SOL    HW2 1038   3.084   1.653   0.738 -0.4009 -1.0427  0.4400
  347SOL     OW 1039   2.346   2.280   1.436 -0.0514 -1.0309 -0.0766
  347SOL    HW1 1040   2.260   2.314   1.479  0.6587 -0.0271  0.1472
  347SOL    HW2 1041   2.408   2.357   1.408 -0.6228  0.2821  0.8225
  348SOL     OW 1042   0.667   1.950   2.685  0.0074  0.2685  0.1084
  348SOL    HW1 1043   0.704   1.951   2.588 -3.5743 -0.3206  0.3552
  348SOL    HW2 1044   0.720   1.888   2.751  1.7226  0.4884  0.4977
  349SOL     OW 1045   2.311   1.358   1.567 -0.0905  0.1120  0.1711
  349SOL    HW1 1046   2.238   1.285   1.548 -1.7169 -0.9450 -1.9471
  349SOL    HW2 1047   2.300   1.439   1.506 -1.3490 -2.7307 -0.3089
  350SOL     OW 1048   0.178   2.457   0.910 -0.2178  0.4755 -0.7221
  350SOL    HW1 1049   0.109   2.475   0.836  0.5623  0.9802 -0.5900
  350SOL    HW2 1050   0.241   2.376   0.901  1.9367 -2.1751  1.2677
  351SOL     OW 1051   0.432   0.645   2.101  0.1416  0.0827  0.3781
  351SOL    HW1 1052   0.476   0.738   2.111  0.4076 -2.0349 -1.4268
  351SOL    HW2 1053   0.469   0.586   2.169 -4.9325 -0.9773 -2.4548
  352SOL     OW 1054   0.618   1.996   1.490  0.3975  0.1132  0.1442
  352SOL    HW1 1055   0.604   2.096   1.511 -2.5284  0.3515 -2.5351
  352SOL    HW2 1056   0.530   1.963   1.442 -2.0704 -0.9360 -3.3417
  353SOL     OW 1057   1.453   1.721   2.465 -0.0510  0.2065  0.0727
  353SOL    HW1 1058   1.378   1.668   2.421 -0.9225 -0.4015 -0.1429
  353SOL    HW2 1059   1.539   1.704   2.415  0.3125 -0.8971 -2.0876
  354SOL     OW 1060   1.232   0.649   1.060 -0.0881 -0.0296 -0.0900
  354SOL    HW1 1061   1.317   0.604   1.017 -3.3687  1.3395 -1.7906
  354SOL    HW2 1062   1.245   0.748   1.076 -0.0835  1.3624  2.4289
  355SOL     OW 1063   2.497   0.988   0.525 -0.2849 -0.1311  0.2163
  355SOL    HW1 1064   2.558   0.913   0.494 -0.8392 -0.9545  0.2897
  355SOL    HW2 1065   2.529   1.075   0.483  0.0065 -0.1647 -0.8100
  356SOL     OW 1066   2.473   1.511   2.546 -0.7803 -0.3728  0.5509
  356SOL    HW1 1067   2.421   1.513   2.633  0.3923  2.2054 -0.6975
  356SOL    HW2 1068   2.423   1.454   2.478  1.7567  0.7966 -0.9166
  357SOL     OW 1069   0.761   2.398   1.331  0.4016 -0.2444 -0.3053
  357SOL    HW1 1070   0.741   2.354   1.240 -0.3793  1.5682 -0.3450
  357SOL    HW2 1071   0.746   2.500   1.325 -2.6861  0.0604  0.5838
  358SOL     OW 1072   2.279   0.953   1.775  0.3399 -0.3819 -0.0950
  358SOL    HW1 1073   2.378   0.950   1.760 -0.5635 -0.4366 -0.1555
  358SOL    HW2 1074   2.232   0.870   1.805  0.6579 -1.2958 -0.7919
  359SOL     OW 1075   2.250   2.316   2.803 -0.1722 -0.5862 -0.3072
  359SOL    HW1 1076   2.272   2.240   2.865  1.6707 -0.4705 -0.8533
  359SOL    HW2 1077   2.333   2.378   2.784  0.0413  2.5937 -1.6128
  360SOL     OW 1078   2.035   0.517   1.136  0.1429 -0.5381 -0.2577
  360SOL    HW1 1079   1.949   0.532   1.188  1.4116  0.0633 -0.0256
  360SOL    HW2 1080   2.065   0.421   1.140 -0.5487 -0.4200  0.1895
  361SOL     OW 1081   2.317   3.057   0.987 -0.1610 -0.1513 -0.4261
  361SOL    HW1 1082   2.265   3.012   1.057  1.1910  0.8603 -1.9364
  361SOL    HW2 1083   2.249   0.004   0.917 -0.1666 -0.5413 -3.4817
  362SOL     OW 1084   1.235   1.108   0.415  0.2966 -0.3211 -0.8760
  362SOL    HW1 1085   1.164   1.120   0.494 -1.4944  4.9334  4.0857
  362SOL    HW2 1086   1.239   1.193   0.362  1.5326 -1.9998  1.6575
  363SOL     OW 1087   2.306   1.378   2.377 -0.9148 -0.4565  0.0594
  363SOL    HW1 1088   2.362   1.334   2.303 -2.1177 -0.8622  0.9302
  363SOL    HW2 1089   2.248   1.303   2.418  1.6962  0.6476  1.1582
  364SOL     OW 1090   1.133   0.549   1.476 -0.8054 -0.2821 -0.0408
  364SOL    HW1 1091   1.207   0.610   1.440  0.0782  0.3239  0.2193
  364SOL    HW2 1092   1.160   0.448   1.467  2.3520  1.6724  2.1406
  365SOL     OW 1093   0.177   3.009   0.871  0.8225  0.3833 -0.3762
  365SOL    HW1 1094   0.153   2.958   0.787  1.6952  1.9611  2.6951
  365SOL    HW2 1095   0.107   2.989   0.942  0.6674 -2.1011 -2.2278
  366SOL     OW 1096   2.822   1.442   0.212 -0.8362  0.2206 -0.2424
  366SOL    HW1 1097   2.867   1.452   0.302 -1.4014 -1.8127  0.4755
  366SOL    HW2 1098   2.884   1.394   0.143  2.2020  1.3459 -2.3726
  367SOL     OW 1099   2.892   2.585   2.853  0.0354 -0.1080  0.5542
  367SOL    HW1 1100   2.891   2.655   2.777  3.6454  0.3630 -1.1255
  367SOL    HW2 1101   2.800   2.582   2.898  2.4365 -0.5185 -1.9750
  368SOL     OW 1102   0.261   2.104   0.805  0.2429 -0.0190  0.4283
  368SOL    HW1 1103   0.300   2.062   0.721  1.6550 -1.1115  2.2315
  368SOL    HW2 1104   0.252   2.032   0.872  0.2952  3.7268  1.9999
  369SOL     OW 1105   0.583   0.184   0.310  0.0434 -0.1919  0.4175
  369SOL    HW1 1106   0.566   0.120   0.389  1.2398 -1.0625  1.2769
  369SOL    HW2 1107   0.589   0.281   0.349  0.5361  2.8564  1.2243
  370SOL     OW 1108   0.450   0.937   1.040 -0.4507 -0.8249 -0.4049
  370SOL    HW1 1109   0.430   0.988   0.952 -1.7958 -1.4679 -0.0847
  370SOL    HW2 1110   0.480   1.008   1.108  0.8938  6.0437 -0.5223
  371SOL     OW 1111   1.936   2.454   0.756 -0.4118  0.3269 -0.1771
  371SOL    HW1 1112   1.885   2.431   0.671 -1.0676 -0.1249 -0.8040
  371SOL    HW2 1113   1.925   2.382   0.827  0.3885 -2.9533 -1.3035
  372SOL     OW 1114   0.122   1.109   2.719  0.4238  0.3515 -0.0205
  372SOL    HW1 1115   0.120   1.114   2.615  1.2209 -0.1135 -1.4686
  372SOL    HW2 1116   0.189   1.167   2.760 -0.9291 -0.5477 -0.2539
  373SOL     OW 1117   2.693   1.721   0.549 -0.5674  0.6948  0.0462
  373SOL    HW1 1118   2.721   1.741   0.643 -2.5919  1.9226 -2.0074
  373SOL    HW2 1119   2.731   1.787   0.477 -0.1168  0.3601  0.0700
  374SOL     OW 1120   0.420   2.479   0.314  0.2329 -0.1190 -0.2213
  374SOL    HW1 1121   0.362   2.454   0.394  3.6291 -1.6169 -0.3722
  374SOL    HW2 1122   0.373   2.512   0.231  0.4950  2.0013 -0.3026
  375SOL     OW 1123   0.567   0.448   0.382 -0.7768 -0.3555  0.2701
  375SOL    HW1 1124   0.585   0.472   0.480 -1.2227  2.1695  1.7957
  375SOL    HW2 1125   0.490   0.502   0.346  0.3800  0.6546  0.1476
  376SOL     OW 1126   0.222   2.954   1.726  0.4164  0.5018  0.3624
  376SOL    HW1 1127   0.236   3.049   1.698 -1.0834 -0.6919  0.2044
  376SOL    HW2 1128   0.308   2.928   1.775  0.5993 -0.7140 -3.6035
  377SOL     OW 1129   1.043   2.127   2.433 -0.2451 -0.1489  0.2741
  377SOL    HW1 1130   1.082   2.107   2.341  0.7992 -0.2442  1.4320
  377SOL    HW2 1131   0.959   2.184   2.423  1.3893  0.1978 -2.0192
  378SOL     OW 1132   1.140   0.696   0.563 -0.2810 -0.1533 -0.4646
  378SOL    HW1 1133   1.070   0.671   0.493  2.5752  0.1668  0.5075
  378SOL    HW2 1134   1.234   0.703   0.519  2.8526  2.3841  0.0713
  379SOL     OW 1135   0.760   1.770   2.884 -0.4924 -0.2307 -0.6024
  379SOL    HW1 1136   0.690   1.776   2.956 -0.8052 -1.9624  0.0382
  379SOL    HW2 1137   0.769   1.670   2.854  0.4830  0.1018  0.4774
  380SOL     OW 1138   2.877   2.057   1.923  0.2205  0.4063 -0.3107
  380SOL    HW1 1139   2.810   1.987   1.947  3.0223  2.9537 -0.5554
  380SOL    HW2 1140   2.943   2.067   2.005 -2.0561  1.5428 -0.3687
  381SOL     OW 1141   0.157   1.184   1.773 -0.2476  0.3802 -0.8567
  381SOL    HW1 1142   0.200   1.228   1.692 -3.7980 -0.5028 -0.3104
  381SOL    HW2 1143   0.142   1.088   1.744  0.7395  2.5410 -0.2756
  382SOL     OW 1144   2.631   2.251   0.218  0.2159 -0.0449 -0.3018
  382SOL    HW1 1145   2.527   2.258   0.204 -1.4327 -0.2704  0.5495
  382SOL    HW2 1146   2.671   2.338   0.193 -0.5198 -1.0322 -1.0414
  383SOL     OW 1147   2.317   1.848   2.335 -0.4709  0.2017  0.0144
  383SOL    HW1 1148   2.299   1.819   2.237  0.7677  1.3577  0.6043
  383SOL    HW2 1149   2.396   1.922   2.340  1.1777  3.0022  0.0988
  384SOL     OW 1150   0.713   2.075   2.101  0.3110  0.5940  0.7357
  384SOL    HW1 1151   0.789   2.024   2.150  0.5822 -0.9702 -0.2622
  384SOL    HW2 1152   0.698   2.154   2.159  0.7233  0.5920 -0.4350
  385SOL     OW 1153   2.932   2.182   1.033  0.4039 -0.4016 -0.2091
  385SOL    HW1 1154   3.006   2.171   0.968 -0.0286 -0.6631 -0.4382
  385SOL    HW2 1155   2.976   2.182   1.125  1.2702 -1.3872  1.1589
  386SOL     OW 1156   2.002   0.688   0.220 -0.1111  0.4620  0.5752
  386SOL    HW1 1157   1.912   0.728   0.224 -2.1524  0.7614 -0.5913
  386SOL    HW2 1158   2.034   0.674   0.319 -0.5477 -0.0593  1.8264
  387SOL     OW 1159   0.618   0.654   1.444 -0.5746  0.2790  0.3511
  387SOL    HW1 1160   0.595   0.628   1.352  1.1699 -0.0728  2.7802
  387SOL    HW2 1161   0.569   0.595   1.508  0.3420  0.2450 -0.1410
  388SOL     OW 1162   2.799   1.029   2.092 -0.1638  0.3251 -0.1313
  388SOL    HW1 1163   2.821   1.126   2.114 -2.1017 -0.3416 -2.8432
  388SOL    HW2 1164   2.826   0.971   2.174 -2.7311 -1.3009  2.3000
  389SOL     OW 1165   1.445   0.745   2.493  0.3543 -0.0488  0.3152
  389SOL    HW1 1166   1.423   0.751   2.395  0.4480  1.6321 -0.8293
  389SOL    HW2 1167   1.360   0.706   2.539  0.1117 -1.5274  0.1202
  390SOL     OW 1168   1.993   2.505   2.959 -0.3604 -0.2999 -0.0130
  390SOL    HW1 1169   1.897   2.520   2.983 -0.1720  1.9022 -1.1086
  390SOL    HW2 1170   2.003   2.462   2.866 -0.6591  1.6050  0.5533
  391SOL     OW 1171   1.873   2.326   1.373 -0.4046 -0.3803 -0.2998
  391SOL    HW1 1172   1.833   2.240   1.340 -0.2170 -1.4587 -1.4893
  391SOL    HW2 1173   1.808   2.405   1.370  0.5529  2.9384 -1.6303
  392SOL     OW 1174   2.876   2.453   1.309  0.2003  0.3388  0.5205
  392SOL    HW1 1175   2.886   2.553   1.305 -3.0197 -0.6345 -0.6370
  392SOL    HW2 1176   2.816   2.423   1.230  1.0366  0.1906 -0.9309
  393SOL     OW 1177   1.761   1.745   2.696  0.1641  0.4381 -0.0841
  393SOL    HW1 1178   1.833   1.811   2.730  1.6234  3.9094  2.2877
  393SOL    HW2 1179   1.809   1.685   2.627  0.9291 -0.3401 -2.3288
  394SOL     OW 1180   0.282   3.052   0.102 -0.5993 -0.5147 -0.4423
  394SOL    HW1 1181   0.286   3.022   0.005 -1.1072  0.1511  1.5425
  394SOL    HW2 1182   0.300   0.063   0.107  0.3465 -1.8590 -1.1144
  395SOL     OW 1183   1.629   1.094   1.282  0.2321 -0.5361 -0.2332
  395SOL    HW1 1184   1.667   1.124   1.191 -0.0954 -1.3620 -1.4632
  395SOL    HW2 1185   1.573   1.011   1.271 -1.2780 -0.9248 -2.2212
  396SOL     OW 1186   1.790   0.829   0.143 -0.2536  0.0365  0.5787
  396SOL    HW1 1187   1.721   0.778   0.090  0.2458 -1.2380  0.7965
  396SOL    HW2 1188   1.801   0.923   0.105  1.0957  2.0175  0.5627
  397SOL     OW 1189   2.997   0.989   2.831 -0.2775 -0.0832  0.2403
  397SOL    HW1 1190   2.940   0.964   2.753  2.9226 -1.8647  3.0335
  397SOL    HW2 1191   3.084   1.025   2.800 -0.1185 -1.3694  1.3957
  398SOL     OW 1192   1.194   0.156   0.016 -0.0079  0.0925 -0.3991
  398SOL    HW1 1193   1.266   0.160   0.086 -1.2224 -1.1416  0.1415
  398SOL    HW2 1194   1.189   0.065   3.062  2.8951  0.5822  2.2253
  399SOL     OW 1195   2.214   2.935   2.144 -0.3066  0.3851  0.2438
  399SOL    HW1 1196   2.285   2.865   2.132 -1.4847 -1.4119 -1.2077
  399SOL    HW2 1197   2.151   2.931   2.063  0.2538 -1.5888  0.0901
  400SOL     OW 1198   2.982   1.574   2.493 -0.1704 -0.1058 -0.2615
  400SOL    HW1 1199   3.046   1.581   2.571  0.4889 -1.0806  3.2396
  400SOL    HW2 1200   3.032   1.580   2.404  0.5955 -0.7286 -0.0979
  401SOL     OW 1201   0.451   0.317   2.820 -0.3922  0.0583  0.3111
  401SOL    HW1 1202   0.462   0.369   2.905 -0.0529 -1.4537  2.2540
  401SOL    HW2 1203   0.542   0.294   2.783  1.1160 -0.2984  0.1323
  402SOL     OW 1204   0.305   2.523   1.749 -0.6026 -0.6393 -0.4974
  402SOL    HW1 1205   0.356   2.594   1.699 -1.4436 -1.0002  1.0339
  402SOL    HW2 1206   0.355   2.509   1.841 -0.2111 -1.7226  1.8535
  403SOL     OW 1207   0.807   1.282   1.274 -0.0521  0.3468 -0.4251
  403SOL    HW1 1208   0.799   1.208   1.341 -1.3040 -0.2357  1.9740
  403SOL    HW2 1209   0.755   1.366   1.307 -0.2824  2.3001 -1.0785
  404SOL     OW 1210   2.813   2.731   1.662  0.4599  0.3058  0.0096
  404SOL    HW1 1211   2.758   2.713   1.577  0.6610 -1.3502  0.1703
  404SOL    HW2 1212   2.899   2.764   1.635 -2.8586 -1.4302  2.3519
  405SOL     OW 1213   2.849   0.382   2.000 -0.0194  0.4872 -0.2656
  405SOL    HW1 1214   2.779   0.386   2.075 -0.1901 -0.5538 -1.2130
  405SOL    HW2 1215   2.898   0.293   2.009 -0.8637  1.8030 -0.3132
  406SOL     OW 1216   1.447   2.505   2.569  0.4541 -0.6036  0.6538
  406SOL    HW1 1217   1.390   2.541   2.650  0.1620 -0.3236  2.1968
  406SOL    HW2 1218   1.540   2.483   2.597 -4.9210  1.9096 -0.9416
  407SOL     OW 1219   1.798   1.788   0.978 -0.1892 -0.0845  0.1317
  407SOL    HW1 1220   1.843   1.754   1.064  0.7528  0.2469 -0.4136
  407SOL    HW2 1221   1.862   1.799   0.896 -0.0148  0.3329  0.1561
  408SOL     OW 1222   0.606   0.342   2.094 -0.0635  0.5221 -0.4107
  408SOL    HW1 1223   0.527   0.283   2.126  1.2413 -2.5966 -0.4934
  408SOL    HW2 1224   0.697   0.293   2.111 -0.9044  2.2390 -0.6812
  409SOL     OW 1225   2.743   2.201   0.482 -0.0079 -0.1049  0.0048
  409SOL    HW1 1226   2.696   2.140   0.546  1.8229  1.1273 -2.1328
  409SOL    HW2 1227   2.694   2.196   0.394 -0.4880  1.1662 -0.3373
  410SOL     OW 1228   2.019   1.506   0.472 -0.5107  0.8250  0.2891
  410SOL    HW1 1229   2.107   1.558   0.462  2.8694 -0.9324 -3.3565
  410SOL    HW2 1230   2.015   1.446   0.554  1.1736  2.0414 -2.8269
  411SOL     OW 1231   3.021   0.653   0.547 -0.4402 -0.2856  0.4458
  411SOL    HW1 1232   0.018   0.638   0.600 -1.3456  1.5911 -0.8658
  411SOL    HW2 1233   3.001   0.752   0.527 -0.3144  0.5037  1.0236
  412SOL     OW 1234   1.772   0.526   0.463 -0.0527  0.2874 -0.3461
  412SOL    HW1 1235   1.740   0.469   0.544 -1.0919 -0.7276  2.5645
  412SOL    HW2 1236   1.780   0.629   0.480  0.0288  0.5215 -1.2160
  413SOL     OW 1237   0.959   0.690   1.031 -0.4209  0.1195  0.0603
  413SOL    HW1 1238   0.941   0.591   1.053 -0.0961 -2.3373  1.6059
  413SOL    HW2 1239   1.064   0.704   1.033  2.0844  2.6619  2.0604
  414SOL     OW 1240   0.339   1.724   0.053  0.4423  0.1981  0.0735
  414SOL    HW1 1241   0.259   1.659   0.036 -0.5458  0.8881  0.6504
  414SOL    HW2 1242   0.315   1.775   0.137 -0.8995 -0.0978 -2.5446
  415SOL     OW 1243   0.140   2.090   0.086 -0.4003  0.2026  0.6169
  415SOL    HW1 1244   0.184   2.129   0.004 -1.1952  1.2752 -0.3582
  415SOL    HW2 1245   0.097   2.001   0.057  0.9167 -1.9210 -3.5799
  416SOL     OW 1246   1.567   0.831   0.350 -0.0404  0.5946 -0.5728
  416SOL    HW1 1247   1.660   0.827   0.307 -1.0711 -1.6623  0.0833
  416SOL    HW2 1248   1.576   0.863   0.445  0.3527  0.1951 -1.3290
  417SOL     OW 1249   0.276   0.889   0.646  0.6912 -0.0763 -0.5591
  417SOL    HW1 1250   0.181   0.900   0.673 -2.4005  0.0819 -2.3658
  417SOL    HW2 1251   0.330   0.964   0.692 -0.6161 -0.1791  1.3463
  418SOL     OW 1252   2.562   1.230   2.745 -0.1700 -0.4951  0.2863
  418SOL    HW1 1253   2.469   1.256   2.721  2.6430  0.0307 -1.4392
  418SOL    HW2 1254   2.567   1.128   2.758  1.7782  1.9624 -0.2143
  419SOL     OW 1255   0.122   0.294   0.230  0.3607  0.0666 -0.1985
  419SOL    HW1 1256   0.131   0.343   0.318  2.6006  1.3116  2.0588
  419SOL    HW2 1257   0.211   0.258   0.205 -0.2067 -1.3759 -0.5972
  420SOL     OW 1258   0.293   1.647   0.888  0.3322 -0.9998  0.2629
  420SOL    HW1 1259   0.276   1.550   0.920 -1.7514  0.2698 -0.3113
  420SOL    HW2 1260   0.391   1.673   0.876  1.9203  1.3758 -0.5691
  421SOL     OW 1261   0.468   2.068   0.374  0.3538 -0.1596  0.3742
  421SOL    HW1 1262   0.563   2.109   0.383  2.5390  1.2057 -1.3495
  421SOL    HW2 1263   0.435   2.038   0.467  2.3626  1.7248  4.2190
  422SOL     OW 1264   2.687   0.735   1.307 -0.4028  0.1432 -0.1287
  422SOL    HW1 1265   2.761   0.745   1.376 -0.5461  0.2269  0.1227
  422SOL    HW2 1266   2.659   0.636   1.299 -1.4737 -0.5139  1.9281
  423SOL     OW 1267   1.961   1.644   0.764 -0.5319  0.3790  0.0967
  423SOL    HW1 1268   1.955   1.561   0.821  0.4753  1.2559  1.6348
  423SOL    HW2 1269   1.894   1.646   0.690  1.1715  1.6211  3.3553
  424SOL     OW 1270   1.838   1.091   0.473  0.6331  0.2102  0.2444
  424SOL    HW1 1271   1.910   1.085   0.403 -3.3788 -0.4496  3.5303
  424SOL    HW2 1272   1.752   1.148   0.434 -2.9398  0.2535  2.5548
  425SOL     OW 1273   0.105   3.041   2.186  0.0768 -0.2750 -0.3649
  425SOL    HW1 1274   0.127   0.032   2.249  0.9429  0.4667  1.5195
  425SOL    HW2 1275   0.001   3.019   2.180  0.1273 -2.0581 -0.4516
  426SOL     OW 1276   2.445   2.803   2.915  0.8644  0.6940  0.2646
  426SOL    HW1 1277   2.515   2.834   2.850  2.2941 -3.0742 -1.1422
  426SOL    HW2 1278   2.370   2.872   2.928 -0.9397  3.8309  0.3143
  427SOL     OW 1279   0.901   1.084   2.475 -0.0850  0.2120  0.7493
  427SOL    HW1 1280   0.842   1.038   2.537  3.0650 -1.4350 -3.1892
  427SOL    HW2 1281   1.002   1.057   2.491  0.2877  0.2735  0.0138
  428SOL     OW 1282   2.151   0.662   2.505 -0.0091 -0.2149  0.2266
  428SOL    HW1 1283   2.210   0.744   2.520 -1.0120  0.0522 -2.2214
  428SOL    HW2 1284   2.056   0.681   2.471 -0.3062 -0.0402 -2.6733
  429SOL     OW 1285   2.527   0.240   0.634 -0.0357 -0.4440 -0.1896
  429SOL    HW1 1286   2.529   0.135   0.625 -1.8921 -2.7187 -0.4768
  429SOL    HW2 1287   2.437   0.281   0.622  2.4353 -1.6473  1.2458
  430SOL     OW 1288   1.984   1.220   2.159  0.5538  0.0114 -0.2388
  430SOL    HW1 1289   1.980   1.189   2.255  0.9521 -1.6094  0.4122
  430SOL    HW2 1290   2.054   1.172   2.104 -0.8681  0.8812 -1.8114
  431SOL     OW 1291   3.065   2.025   1.455 -0.2063  0.1645 -0.0510
  431SOL    HW1 1292   3.065   2.127   1.466  1.6602 -0.8126 -1.1900
  431SOL    HW2 1293   3.076   1.978   1.548 -1.8976  2.3559  1.0236
  432SOL     OW 1294   1.405   2.911   2.386 -0.9973 -0.2644  0.6045
  432SOL    HW1 1295   1.381   3.003   2.423  0.9099 -1.3045 -0.7607
  432SOL    HW2 1296   1.500   2.906   2.355 -1.5274 -0.9237 -0.7937
  433SOL     OW 1297   1.548   2.829   1.707 -0.0406  0.2962  0.4185
  433SOL    HW1 1298   1.627   2.769   1.689 -1.9853 -1.0193 -0.3443
  433SOL    HW2 1299   1.558   2.919   1.672 -1.1135 -2.5854  0.2513
  434SOL     OW 1300   3.031   2.425   2.217  0.2883 -0.4605 -0.3740
  434SOL    HW1 1301   3.079   2.447   2.302  0.1204  0.2619 -0.8122
  434SOL    HW2 1302   3.063   2.484   2.140 -0.3655  1.6597  1.0538
  435SOL     OW 1303   2.967   1.917   0.207  0.2718 -0.0169 -0.1095
  435SOL    HW1 1304   3.015   1.912   0.117  3.2079 -1.2803 -0.8826
  435SOL    HW2 1305   3.038   1.941   0.277  0.0885  1.3001  0.9646
  436SOL     OW 1306   0.913   1.109   1.749  0.1240 -0.1999 -0.3922
  436SOL    HW1 1307   0.986   1.090   1.682 -2.9824 -0.6904  0.6273
  436SOL    HW2 1308   0.937   1.065   1.838  4.2357 -1.3057  1.0470
  437SOL     OW 1309   0.186   0.375   2.752  0.3743  0.0080 -0.9114
  437SOL    HW1 1310   0.270   0.345   2.803  2.0810  0.8377 -1.1420
  437SOL    HW2 1311   0.129   0.298   2.722  2.2407  1.9014  1.9127
  438SOL     OW 1312   0.574   1.668   1.727 -0.1838  0.3850 -0.5388
  438SOL    HW1 1313   0.581   1.761   1.774 -0.1483  3.0860  2.3031
  438SOL    HW2 1314   0.643   1.647   1.658 -1.9380  1.4434  2.2228
  439SOL     OW 1315   2.020   1.098   2.998 -0.3329  0.2032 -0.1725
  439SOL    HW1 1316   1.918   1.097   3.019 -2.5358 -0.1112  2.7786
  439SOL    HW2 1317   2.060   1.030   3.062 -0.6523 -0.3237 -0.5475
  440SOL     OW 1318   0.979   0.943   3.052 -0.1639  0.1565 -0.1084
  440SOL    HW1 1319   1.036   0.888   0.025 -2.0754 -0.3238 -0.7353
  440SOL    HW2 1320   0.911   0.994   0.021 -1.7114  0.3744  0.6662
  441SOL     OW 1321   0.436   2.676   1.576  0.1247 -0.1027  0.3360
  441SOL    HW1 1322   0.451   2.605   1.506  0.0825  1.3711  1.5321
  441SOL    HW2 1323   0.429   2.772   1.539  2.1630 -1.4657 -0.8437
  442SOL     OW 1324   2.384   2.218   0.608 -0.4809 -0.1040  0.0603
  442SOL    HW1 1325   2.350   2.164   0.529 -0.5918  1.6641 -1.9888
  442SOL    HW2 1326   2.304   2.259   0.657 -1.7336  0.6084  0.2308
  443SOL     OW 1327   2.734   1.486   2.392  0.1094  0.0259  0.0748
  443SOL    HW1 1328   2.655   1.522   2.447 -0.8024  0.9041  0.4336
  443SOL    HW2 1329   2.820   1.508   2.444 -0.3984 -0.6895 -0.7469
  444SOL     OW 1330   1.192   0.873   2.839  0.6809  0.0984 -0.3144
  444SOL    HW1 1331   1.138   0.787   2.812 -0.4216 -1.3152  0.6655
  444SOL    HW2 1332   1.132   0.918   2.907  1.4388 -2.0628  1.0021
  445SOL     OW 1333   2.275   2.746   1.831  0.3251 -0.4980 -0.0181
  445SOL    HW1 1334   2.335   2.735   1.906  1.4790 -0.7529  1.1025
  445SOL    HW2 1335   2.226   2.660   1.813 -0.0341  0.3111 -0.4835
  446SOL     OW 1336   2.773   1.908   0.376 -0.1788  0.3537 -0.0960
  446SOL    HW1 1337   2.848   1.923   0.306  0.2949 -0.4482 -0.1735
  446SOL    HW2 1338   2.778   1.970   0.457  0.1866 -0.7792  1.5162
  447SOL     OW 1339   1.010   2.356   1.398 -0.2280 -0.2298  0.4485
  447SOL    HW1 1340   1.055   2.429   1.449 -1.1500 -0.9789 -0.3146
  447SOL    HW2 1341   0.913   2.372   1.369  0.5509  0.2916  1.0076
  448SOL     OW 1342   1.587   1.675   1.775 -0.0222  0.1849 -0.2889
  448SOL    HW1 1343   1.650   1.719   1.840  0.1921 -4.5537 -0.1991
  448SOL    HW2 1344   1.512   1.630   1.825  2.3009  1.7579  0.5013
  449SOL     OW 1345   0.048   1.941   2.070 -0.4772  0.3080  0.0490
  449SOL    HW1 1346   0.023   2.023   2.127  2.5042 -2.3028 -1.4039
  449SOL    HW2 1347   0.139   1.961   2.026  1.2832 -0.1418  0.7145
  450SOL     OW 1348   2.771   1.709   2.607  0.8475 -0.5071  0.0515
  450SOL    HW1 1349   2.856   1.670   2.565 -1.0297  2.4921 -1.7132
  450SOL    HW2 1350   2.735   1.792   2.554 -2.0617 -0.4807 -0.6439
  451SOL     OW 1351   2.071   0.537   1.500  0.9204 -0.1669 -0.4670
  451SOL    HW1 1352   2.138   0.593   1.443  0.9728  0.5330 -2.6051
  451SOL    HW2 1353   2.119   0.451   1.527 -2.4145 -0.1669  1.2521
  452SOL     OW 1354   0.947   1.599   0.982 -0.1931 -0.5342 -0.0990
  452SOL    HW1 1355   0.858   1.596   1.030  0.5938  0.5472 -1.4300
  452SOL    HW2 1356   0.933   1.576   0.889  0.5440  4.1190 -0.1806
  453SOL     OW 1357   1.279   2.147   0.805  0.2649  0.0938  0.4851
  453SOL    HW1 1358   1.377   2.172   0.800  0.0344 -1.9141  0.4776
  453SOL    HW2 1359   1.219   2.232   0.821  1.5529  4.6084  1.6484
  454SOL     OW 1360   0.178   1.133   0.433  0.4827  0.2294 -0.3545
  454SOL    HW1 1361   0.132   1.049   0.459  0.2586  2.0469 -0.7115
  454SOL    HW2 1362   0.173   1.204   0.507 -0.7696  1.5994  2.0353
  455SOL     OW 1363   0.932   1.083   0.348 -0.0706  0.1361 -0.2406
  455SOL    HW1 1364   1.029   1.063   0.336  3.1976  1.1592 -4.5068
  455SOL    HW2 1365   0.876   1.049   0.265 -1.2612  0.8414 -4.1820
  456SOL     OW 1366   2.081   2.305   1.165 -0.4856 -0.5616  0.3504
  456SOL    HW1 1367   2.029   2.364   1.233 -0.2165  0.0283 -0.9680
  456SOL    HW2 1368   2.019   2.287   1.086  2.7154 -0.2275 -1.7012
  457SOL     OW 1369   1.370   0.002   2.821 -0.3807 -0.3018  0.4043
  457SOL    HW1 1370   1.435   3.011   2.821 -0.4863  0.6441 -2.6114
  457SOL    HW2 1371   1.295   3.069   2.886  1.1356  0.6305 -2.2987
  458SOL     OW 1372   2.486   0.212   0.215 -0.1524  0.0750 -0.2510
  458SOL    HW1 1373   2.413   0.282   0.223 -0.7291  3.1776  1.0355
  458SOL    HW2 1374   2.466   0.129   0.275 -0.8475 -0.5909  2.6143
  459SOL     OW 1375   2.303   0.296   2.280 -0.4918  0.4156 -0.2755
  459SOL    HW1 1376   2.257   0.385   2.267  0.8190 -1.4195 -1.0210
  459SOL    HW2 1377   2.404   0.315   2.293  2.5949  0.2867  1.3626
  460SOL     OW 1378   2.791   0.787   2.726 -0.1028  0.0119  0.4417
  460SOL    HW1 1379   2.876   0.740   2.696  1.0025  0.7453  1.8150
  460SOL    HW2 1380   2.743   0.740   2.805 -0.1319 -2.5617  1.6507
  461SOL     OW 1381   3.080   2.143   0.781  0.1311 -0.2396 -0.0153
  461SOL    HW1 1382   0.094   2.131   0.775 -0.9669 -1.9158  1.3237
  461SOL    HW2 1383   3.050   2.191   0.696 -2.1826  1.8700 -1.6142
  462SOL     OW 1384   2.966   0.145   1.137 -0.3597  0.2626 -0.4446
  462SOL    HW1 1385   2.950   0.162   1.038 -1.3441 -2.1237  1.3471
  462SOL    HW2 1386   2.936   0.226   1.194  0.5838  3.2799  1.7259
  463SOL     OW 1387   2.152   1.348   0.235  0.4452 -0.7271  0.2178
  463SOL    HW1 1388   2.109   1.394   0.319 -3.6739  2.1173  0.8856
  463SOL    HW2 1389   2.188   1.413   0.163 -0.4649  0.4052 -1.6899
  464SOL     OW 1390   0.757   2.711   1.228 -0.0417 -0.3780  0.2802
  464SOL    HW1 1391   0.827   2.717   1.304  3.0331 -0.7419  2.4102
  464SOL    HW2 1392   0.792   2.764   1.148 -2.3278 -0.8678  1.0976
  465SOL     OW 1393   1.236   0.301   1.450  0.2405  0.2380 -0.5759
  465SOL    HW1 1394   1.334   0.300   1.490 -0.0091  1.2429  2.2709
  465SOL    HW2 1395   1.173   0.242   1.505 -0.8710  0.3278 -0.6477
  466SOL     OW 1396   1.709   2.479   1.930  0.4919  0.1564  0.0729
  466SOL    HW1 1397   1.713   2.424   2.016  0.2052 -1.5225 -0.2403
  466SOL    HW2 1398   1.615   2.506   1.907 -1.8666 -2.3323  2.1352
  467SOL     OW 1399   0.656   2.294   1.552  0.0184  0.3429 -0.2602
  467SOL    HW1 1400   0.552   2.302   1.549 -0.4501  0.6251  0.5023
  467SOL    HW2 1401   0.701   2.332   1.466  1.3674  0.1643 -0.5210
  468SOL     OW 1402   2.612   1.559   2.145 -0.0713 -0.0736  0.2144
  468SOL    HW1 1403   2.630   1.559   2.245  0.0395 -0.4309  0.0526
  468SOL    HW2 1404   2.686   1.607   2.096 -0.3038  0.5150  3.8476
  469SOL     OW 1405   0.984   2.098   0.700  0.2328 -0.0901 -0.6231
  469SOL    HW1 1406   0.950   2.170   0.761  2.6965  1.4786  2.5853
  469SOL    HW2 1407   1.022   2.020   0.754  0.6097  3.6248  0.7167
  470SOL     OW 1408   2.098   1.150   2.410 -0.0401 -0.2379  0.5930
  470SOL    HW1 1409   2.177   1.106   2.363 -0.1098 -0.8126  0.1572
  470SOL    HW2 1410   2.077   1.097   2.497  2.2989 -1.5625  0.8846
  471SOL     OW 1411   0.287   2.558   0.069 -0.1578  0.0574  0.1796
  471SOL    HW1 1412   0.201   2.596   0.026 -0.6928 -2.1069 -0.2600
  471SOL    HW2 1413   0.355   2.546   3.079 -1.6635  0.1076 -1.5080
  472SOL     OW 1414   0.254   2.796   2.112 -0.4558 -0.3033 -0.3629
  472SOL    HW1 1415   0.227   2.894   2.137 -0.0260 -0.3238  4.8131
  472SOL    HW2 1416   0.321   2.809   2.033  0.3524 -1.5814  1.1107
  473SOL     OW 1417   0.513   2.934   0.168  0.3872 -0.1005  0.2148
  473SOL    HW1 1418   0.424   2.979   0.155  0.8995  0.2749  2.5753
  473SOL    HW2 1419   0.588   3.001   0.158  1.0615 -0.4279  1.1124
  474SOL     OW 1420   2.054   2.956   1.034  0.2884 -0.7000 -0.1050
  474SOL    HW1 1421   2.028   2.962   0.934 -2.2931  3.2524  0.6261
  474SOL    HW2 1422   2.119   2.879   1.051 -0.5672  1.4308 -1.3668
  475SOL     OW 1423   1.533   3.054   1.523 -0.4052 -0.3809 -0.2976
  475SOL    HW1 1424   1.612   3.079   1.584 -1.8565 -0.3231  1.8916
  475SOL    HW2 1425   1.551   0.005   1.430 -2.4568 -0.3021 -1.1843
  476SOL     OW 1426   0.606   1.460   0.677 -0.7553  0.5910 -0.2085
  476SOL    HW1 1427   0.590   1.537   0.745 -2.0192  1.1099  2.3780
  476SOL    HW2 1428   0.618   1.370   0.728 -0.8079 -1.9142 -1.2688
  477SOL     OW 1429   0.402   1.985   0.615 -0.3273  0.4341  0.1037
  477SOL    HW1 1430   0.413   1.887   0.587 -5.4882  2.0834 -0.9083
  477SOL    HW2 1431   0.484   2.023   0.662  0.8744  1.1121 -0.2034
  478SOL     OW 1432   0.060   2.506   2.474 -0.0268  0.1810  0.1210
  478SOL    HW1 1433   0.058   2.604   2.503  0.6194  0.5947 -0.0505
  478SOL    HW2 1434   0.065   2.439   2.552  1.1197 -1.7654 -0.3852
  479SOL     OW 1435   3.024   0.506   1.424 -0.1497 -0.6292  0.3968
  479SOL    HW1 1436   0.012   0.485   1.360  0.2302  2.1693 -1.5741
  479SOL    HW2 1437   3.051   0.490   1.522  2.7873  2.0724 -0.5045
  480SOL     OW 1438   2.675   2.618   3.011 -0.1422  0.3818  0.0072
  480SOL    HW1 1439   2.686   2.561   0.006 -0.8761  2.6518 -1.5742
  480SOL    HW2 1440   2.580   2.641   2.997  2.4693  0.8337  0.7513
  481SOL     OW 1441   2.415   1.908   1.787 -0.1477 -0.1370 -0.2939
  481SOL    HW1 1442   2.322   1.881   1.814  1.4839 -0.4874  2.6629
  481SOL    HW2 1443   2.412   1.963   1.698  0.0526  1.3560 -1.6504
  482SOL     OW 1444   1.842   2.069   2.498 -0.1174 -0.1577 -0.5514
  482SOL    HW1 1445   1.943   2.058   2.505 -1.3759 -1.4249 -0.1779
  482SOL    HW2 1446   1.808   2.022   2.416 -0.1118  0.7601 -0.9913
  483SOL     OW 1447   0.913   1.264   2.122 -0.4815 -0.4076  0.2523
  483SOL    HW1 1448   0.926   1.166   2.139  1.2734  0.2241 -2.2461
  483SOL    HW2 1449   1.001   1.318   2.130  4.0651  1.6187 -1.0208
  484SOL     OW 1450   0.161   0.450   1.292 -0.7232 -0.2482  0.1778
  484SOL    HW1 1451   0.122   0.384   1.229 -0.7968  1.5242 -0.1077
  484SOL    HW2 1452   0.225   0.512   1.241 -0.2040 -0.6044 -3.1990
  485SOL     OW 1453   2.302   1.009   0.280  0.2960  0.5198 -0.0774
  485SOL    HW1 1454   2.384   0.970   0.234 -0.5334 -0.3144  0.2804
  485SOL    HW2 1455   2.326   1.092   0.333  0.4098 -0.6865  0.3446
  486SOL     OW 1456   1.527   0.185   2.217 -0.1348  0.1311 -0.1413
  486SOL    HW1 1457   1.579   0.133   2.149 -3.1170  0.6360 -2.8031
  486SOL    HW2 1458   1.570   0.165   2.307  0.3518  0.3544 -1.1658
  487SOL     OW 1459   0.825   1.916   1.319  0.6856 -0.0020  0.0360
  487SOL    HW1 1460   0.742   1.927   1.378  2.1629  4.7590  1.0793
  487SOL    HW2 1461   0.911   1.916   1.373 -3.9352  0.4331 -1.4264
  488SOL     OW 1462   2.310   1.540   0.123  0.3061  0.0906 -0.1023
  488SOL    HW1 1463   2.407   1.514   0.112  2.4571 -1.2139  0.3241
  488SOL    HW2 1464   2.294   1.623   0.069  0.2395 -2.2669 -0.0658
  489SOL     OW 1465   2.082   2.681   0.690 -0.2176  0.1602 -0.0037
  489SOL    HW1 1466   2.028   2.603   0.726  1.0339  0.1977  0.2261
  489SOL    HW2 1467   2.048   2.708   0.597  2.4586  0.6336  1.5676
  490SOL     OW 1468   1.039   2.605   0.030 -0.3196  0.4459 -0.2153
  490SOL    HW1 1469   0.946   2.571   0.000 -0.3152  1.9400  2.2531
  490SOL    HW2 1470   1.065   2.571   0.126  1.1293 -2.7021  0.8681
  491SOL     OW 1471   0.994   1.143   1.014 -0.0050 -0.6016  0.6955
  491SOL    HW1 1472   0.967   1.203   1.090  1.1309 -0.5483 -1.1108
  491SOL    HW2 1473   1.069   1.189   0.963 -0.4791 -2.4696  2.8114
  492SOL     OW 1474   1.265   0.408   2.443  0.0810 -0.0047 -0.4573
  492SOL    HW1 1475   1.343   0.352   2.417 -2.3262  1.8612  0.7628
  492SOL    HW2 1476   1.277   0.470   2.519  0.4782 -1.6113 -3.7564
  493SOL     OW 1477   2.042   2.146   0.230 -0.7805 -0.4463 -0.3714
  493SOL    HW1 1478   2.057   2.232   0.181 -0.3018 -1.7740  0.2538
  493SOL    HW2 1479   1.962   2.101   0.189  3.0106 -1.1159  1.6206
  494SOL     OW 1480   0.774   1.495   0.453  0.3960  0.2862 -0.2547
  494SOL    HW1 1481   0.779   1.592   0.427  1.1292 -0.0377  0.1923
  494SOL    HW2 1482   0.700   1.479   0.524 -0.6304 -0.9662  2.0159
  495SOL     OW 1483   2.619   2.414   0.659 -0.1786  0.2099 -0.6714
  495SOL    HW1 1484   2.684   2.343   0.625  1.8021 -1.7817  0.0605
  495SOL    HW2 1485   2.563   2.374   0.732  1.3736  0.9681 -1.2723
  496SOL     OW 1486   2.590   3.032   1.537 -0.0263  0.7867 -1.1177
  496SOL    HW1 1487   2.638   3.079   1.619 -1.0110 -0.3287  0.8741
  496SOL    HW2 1488   2.534   0.003   1.477  0.7026 -0.3420 -1.4248
  497SOL     OW 1489   2.311   0.859   2.565 -0.5696 -0.3250 -0.4491
  497SOL    HW1 1490   2.341   0.884   2.472  0.8698 -0.7648 -1.4230
  497SOL    HW2 1491   2.266   0.940   2.611  0.2993  2.6438  1.3099
  498SOL     OW 1492   0.474   2.301   1.150 -0.2507  0.5415  0.0856
  498SOL    HW1 1493   0.447   2.304   1.047  2.2566  0.4596 -0.2228
  498SOL    HW2 1494   0.405   2.248   1.201 -2.2253  0.4335 -0.4782
  499SOL     OW 1495   1.131   2.622   1.547 -0.3661 -0.0002 -0.4860
  499SOL    HW1 1496   1.085   2.654   1.635 -0.8859  3.4486 -1.7660
  499SOL    HW2 1497   1.227   2.629   1.560 -4.7603 -1.2903 -1.3687
  500SOL     OW 1498   0.921   1.972   0.067 -0.5055  0.3706  0.3951
  500SOL    HW1 1499   0.928   1.979   3.057 -1.9843  1.8446 -2.0185
  500SOL    HW2 1500   0.875   1.888   0.093 -1.3539  1.6677 -1.6132
  501SOL     OW 1501   1.871   3.064   1.240  0.5632 -0.1194 -0.0146
  501SOL    HW1 1502   1.941   3.040   1.172  0.8317  0.7887 -2.4595
  501SOL    HW2 1503   1.927   3.080   1.325 -1.4610  2.5615  2.0869
  502SOL     OW 1504   2.689   0.309   1.759  0.0828  0.0525  0.8943
  502SOL    HW1 1505   2.696   0.209   1.737 -1.7376 -1.8388  0.3209
  502SOL    HW2 1506   2.759   0.339   1.823  0.5654  0.2464 -1.1530
  503SOL     OW 1507   2.759   0.979   1.820  0.0362  0.2447  0.0476
  503SOL    HW1 1508   2.837   0.918   1.798  2.3516  1.5183 -1.6118
  503SOL    HW2 1509   2.767   1.004   1.920 -1.2703 -1.6236 -0.6526
  504SOL     OW 1510   1.473   0.823   1.882 -0.2515  0.2464 -0.1844
  504SOL    HW1 1511   1.525   0.738   1.908  0.6989 -1.0375  0.9388
  504SOL    HW2 1512   1.389   0.805   1.828 -1.1953  0.5105  0.8406
  505SOL     OW 1513   0.789   0.035   1.944 -0.5937 -0.0603  0.0180
  505SOL    HW1 1514   0.793   3.026   1.952 -0.9490  2.1091  0.9425
  505SOL    HW2 1515   0.804   0.083   2.033  0.2049  0.5245 -1.3113
  506SOL     OW 1516   0.168   0.197   0.794 -0.0536 -0.4293  0.0440
  506SOL    HW1 1517   0.241   0.216   0.724  0.1412  1.9852  0.3622
  506SOL    HW2 1518   0.170   0.103   0.819  1.4192  4.2248  0.7952
  507SOL     OW 1519   2.319   0.506   3.078  0.0376 -0.2990 -0.0570
  507SOL    HW1 1520   2.305   0.466   0.083 -2.5003 -1.7563 -1.6152
  507SOL    HW2 1521   2.225   0.529   3.043  0.4794  2.9825  1.4875
  508SOL     OW 1522   1.946   0.439   2.269  0.1787  0.7473 -0.2268
  508SOL    HW1 1523   2.044   0.443   2.244 -0.0643 -0.0150 -0.9003
  508SOL    HW2 1524   1.912   0.528   2.294 -1.5094 -1.9849 -1.4217
  509SOL     OW 1525   1.306   1.501   1.510  0.1219 -0.3237 -0.3603
  509SOL    HW1 1526   1.376   1.461   1.568 -0.2582 -1.5952 -1.4404
  509SOL    HW2 1527   1.263   1.430   1.450 -0.8347  1.5198  1.8104
  510SOL     OW 1528   2.650   1.390   0.762  0.6414  0.4864  0.3526
  510SOL    HW1 1529   2.686   1.305   0.806  0.9325 -1.6432  1.8566
  510SOL    HW2 1530   2.617   1.452   0.837 -0.4775  0.7153 -0.0404
  511SOL     OW 1531   1.916   1.709   1.196 -0.1388  0.3065 -0.5093
  511SOL    HW1 1532   1.835   1.686   1.253 -1.0051  1.7901  0.1291
  511SOL    HW2 1533   1.975   1.784   1.236  2.2902 -2.6472 -1.3831
  512SOL     OW 1534   0.193   1.727   0.429 -0.2882  0.8514 -0.2823
  512SOL    HW1 1535   0.162   1.642   0.388 -0.3488  0.4744  0.6903
  512SOL    HW2 1536   0.233   1.789   0.360  0.3552  1.2074  0.0999
  513SOL     OW 1537   2.953   2.271   0.085  0.0537 -0.1331 -0.2936
  513SOL    HW1 1538   2.934   2.180   0.127 -1.6658 -0.9634 -0.5428
  513SOL    HW2 1539   3.035   2.313   0.122 -2.4124  1.4359  0.4903
  514SOL     OW 1540   2.673   1.959   2.445  0.0642  0.2099  0.4693
  514SOL    HW1 1541   2.757   2.022   2.451  1.1179  2.4026 -0.9297
  514SOL    HW2 1542   2.589   1.993   2.495 -1.4204  1.1147 -1.5212
  515SOL     OW 1543   1.998   1.274   0.665 -0.2815  0.6552  0.0285
  515SOL    HW1 1544   1.966   1.314   0.752  1.6886 -1.2477 -0.0125
  515SOL    HW2 1545   1.933   1.210   0.629  1.7984 -1.4583 -0.1932
  516SOL     OW 1546   1.878   3.064   0.428 -1.2112 -0.4967 -0.4000
  516SOL    HW1 1547   1.871   0.079   0.419  2.4536  2.5215  0.5320
  516SOL    HW2 1548   1.805   3.016   0.370 -2.5743 -1.7987 -2.0114
  517SOL     OW 1549   0.740   1.985   2.438 -0.5640 -0.0974 -0.7068
  517SOL    HW1 1550   0.808   1.962   2.368 -2.6583  0.8761  1.1846
  517SOL    HW2 1551   0.651   1.995   2.390  0.1582  1.0092  0.3747
  518SOL     OW 1552   0.515   0.508   1.889 -0.3716  0.3392 -0.4844
  518SOL    HW1 1553   0.485   0.579   1.960  1.7833  2.1192  2.6101
  518SOL    HW2 1554   0.562   0.429   1.938  0.3760 -2.5423 -2.3176
  519SOL     OW 1555   0.122   1.249   0.208  0.3369 -0.4131  0.1656
  519SOL    HW1 1556   0.160   1.189   0.135 -1.5119 -1.1070  0.5716
  519SOL    HW2 1557   0.152   1.210   0.300  0.7750 -0.4885  2.7812
  520SOL     OW 1558   2.921   1.777   1.557 -0.2093 -0.2731  0.1108
  520SOL    HW1 1559   2.902   1.768   1.656 -0.5042  0.6830  0.0903
  520SOL    HW2 1560   2.842   1.829   1.515  1.1710 -1.5572  1.0145
  521SOL     OW 1561   0.521   2.661   2.456 -0.0190 -0.0482 -0.8023
  521SOL    HW1 1562   0.530   2.618   2.367 -3.8628  2.3319  0.4553
  521SOL    HW2 1563   0.434   2.715   2.454 -1.8393 -0.7533  1.0103
  522SOL     OW 1564   1.853   0.189   2.282  0.4554  0.1701  0.3383
  522SOL    HW1 1565   1.866   0.157   2.187  1.0376  2.0360  0.6092
  522SOL    HW2 1566   1.874   0.289   2.284 -2.7972  1.6302  2.0566
  523SOL     OW 1567   1.914   1.729   1.826 -0.2670 -0.3010  0.2930
  523SOL    HW1 1568   1.851   1.790   1.879  1.9618 -2.6860  0.2620
  523SOL    HW2 1569   1.919   1.641   1.874  0.6495  1.0334  0.7137
  524SOL     OW 1570   0.570   2.920   0.430  0.0481  0.4694 -0.7843
  524SOL    HW1 1571   0.577   2.916   0.326 -0.4216 -0.1883 -1.0204
  524SOL    HW2 1572   0.664   2.899   0.468  1.2334 -1.7688 -1.1198
  525SOL     OW 1573   2.980   0.331   0.419  0.0161 -0.1820  0.4938
  525SOL    HW1 1574   2.900   0.393   0.416 -0.1466  0.5859  3.0193
  525SOL    HW2 1575   3.063   0.387   0.422 -0.0305 -1.6714 -0.2392
  526SOL     OW 1576   0.754   2.678   0.766 -0.2939 -0.0854  0.5174
  526SOL    HW1 1577   0.763   2.607   0.838  0.1389  0.0178  0.1904
  526SOL    HW2 1578   0.656   2.686   0.736  4.7308  1.7895 -1.2816
  527SOL     OW 1579   2.692   2.046   0.898 -0.0893 -0.2041 -0.4832
  527SOL    HW1 1580   2.639   1.986   0.961  1.9425  4.5468  0.2471
  527SOL    HW2 1581   2.784   2.059   0.937  0.2586 -1.0385  2.4345
  528SOL     OW 1582   2.917   0.212   2.563  0.2118  0.0521  0.1563
  528SOL    HW1 1583   2.899   0.281   2.636  1.1951  1.2971 -1.0007
  528SOL    HW2 1584   2.944   0.121   2.602 -0.7295  2.1489  0.7606
  529SOL     OW 1585   1.307   1.443   2.644 -0.6889 -0.2752  0.2916
  529SOL    HW1 1586   1.321   1.515   2.712  0.6939 -0.3187  3.2120
  529SOL    HW2 1587   1.293   1.352   2.697 -3.6086 -1.9756  1.8338
  530SOL     OW 1588   1.851   1.189   2.799 -0.9131 -0.1820 -0.0194
  530SOL    HW1 1589   1.821   1.111   2.739  1.5118  2.7210 -0.9633
  530SOL    HW2 1590   1.927   1.156   2.863 -0.6515  1.5996  1.0825
  531SOL     OW 1591   0.570   1.667   2.546 -0.0721  0.0521 -0.0304
  531SOL    HW1 1592   0.507   1.730   2.495 -2.9370  0.9241 -2.0597
  531SOL    HW2 1593   0.569   1.570   2.508  3.5400 -0.4526 -0.5682
  532SOL     OW 1594   1.639   1.251   0.396  0.1410  0.7024  0.1057
  532SOL    HW1 1595   1.629   1.276   0.297  0.1052  3.7095  0.6578
  532SOL    HW2 1596   1.623   1.336   0.452  0.9092 -0.6917  0.2449
  533SOL     OW 1597   0.538   0.485   2.315 -0.1366 -0.0531  0.4270
  533SOL    HW1 1598   0.583   0.458   2.230  0.4326  1.2883  0.6652
  533SOL    HW2 1599   0.600   0.479   2.397 -0.2064 -2.5950  1.1941
  534SOL     OW 1600   0.794   2.472   3.087  0.5987 -0.3250  0.3697
  534SOL    HW1 1601   0.737   2.388   3.073 -0.1140 -0.7888 -1.1081
  534SOL    HW2 1602   0.733   2.549   0.037 -1.5856  1.3186  3.2694
  535SOL     OW 1603   0.097   0.005   0.524 -0.3434 -0.4350 -0.4630
  535SOL    HW1 1604   0.082   3.004   0.566  0.8167  3.9607  0.6610
  535SOL    HW2 1605   0.025   0.067   0.560  0.9217 -0.4395 -1.2541
  536SOL     OW 1606   0.335   1.136   1.959  0.0741  0.0779 -0.3572
  536SOL    HW1 1607   0.259   1.152   1.897  1.7180 -2.5149 -2.1660
  536SOL    HW2 1608   0.420   1.139   1.902  1.9932 -0.9456  1.4674
  537SOL     OW 1609   0.934   2.762   1.402 -0.3836  0.1949 -0.3030
  537SOL    HW1 1610   0.971   2.852   1.374 -0.3115 -3.2015 -0.2611
  537SOL    HW2 1611   1.007   2.708   1.450 -0.7329  1.1658  0.2551
  538SOL     OW 1612   0.036   1.969   0.423 -0.2832  0.0206  0.0466
  538SOL    HW1 1613   0.094   1.881   0.437  1.3444 -3.1863  1.9154
  538SOL    HW2 1614   3.051   1.981   0.498 -2.7429  2.1021  1.8074
  539SOL     OW 1615   2.810   0.860   2.332 -0.4787 -0.1074 -0.5700
  539SOL    HW1 1616   2.735   0.856   2.401  1.4159  0.9706 -0.4229
  539SOL    HW2 1617   2.897   0.814   2.372  0.6769 -1.5082 -0.4591
  540SOL     OW 1618   1.408   1.002   2.286  0.4905  0.2332  0.5244
  540SOL    HW1 1619   1.448   1.017   2.194  0.9144  0.5678 -1.3836
  540SOL    HW2 1620   1.334   1.075   2.301 -2.0347  1.8350  0.7304
  541SOL     OW 1621   0.698   0.712   1.702 -0.1742  0.3475 -0.2488
  541SOL    HW1 1622   0.766   0.642   1.741 -0.6209  3.5422 -0.4262
  541SOL    HW2 1623   0.639   0.678   1.627  0.8825  0.8631  2.1724
  542SOL     OW 1624   2.133   3.082   2.712  0.4639  0.0466  0.4033
  542SOL    HW1 1625   2.093   2.990   2.719 -0.5969  1.5664 -0.9263
  542SOL    HW2 1626   2.139   0.013   2.612  0.4453  0.1168 -1.8243
  543SOL     OW 1627   0.965   0.049   0.226 -0.5144  0.0839 -0.3000
  543SOL    HW1 1628   0.929   0.101   0.310  0.1954 -0.1554  0.1143
  543SOL    HW2 1629   1.041   0.097   0.174 -1.4050 -3.4922 -0.1406
  544SOL     OW 1630   2.856   1.723   1.822  0.0821 -0.3410  0.5016
  544SOL    HW1 1631   2.857   1.634   1.871 -1.3854  3.6883 -1.6537
  544SOL    HW2 1632   2.775   1.782   1.837  2.3212  1.3849 -2.0025
  545SOL     OW 1633   2.126   2.051   1.617 -0.2518 -0.1825  0.9068
  545SOL    HW1 1634   2.228   2.042   1.614  0.1288 -0.2455 -2.1474
  545SOL    HW2 1635   2.084   1.960   1.603  2.7972 -1.4277 -1.5527
  546SOL     OW 1636   0.273   0.008   2.920 -0.0643 -0.4566  0.2765
  546SOL    HW1 1637   0.371   3.088   2.920 -0.0798  2.2644  2.1884
  546SOL    HW2 1638   0.231   0.062   2.844 -1.3789 -1.6515  1.3530
  547SOL     OW 1639   1.572   0.897   0.611 -0.1944 -0.0382 -0.6939
  547SOL    HW1 1640   1.523   0.991   0.609  0.8194  1.7243  2.3931
  547SOL    HW2 1641   1.552   0.843   0.695 -2.8531  2.3570 -1.1481
  548SOL     OW 1642   2.050   1.489   2.152 -0.3733  0.3667 -0.0128
  548SOL    HW1 1643   2.024   1.389   2.142  1.3451 -4.6998 -0.6795
  548SOL    HW2 1644   2.059   1.513   2.247 -0.2444  3.6647 -3.3358
  549SOL     OW 1645   1.691   0.426   0.216 -0.0231 -0.0739  0.4347
  549SOL    HW1 1646   1.706   0.470   0.305 -0.9889  2.0277 -3.1703
  549SOL    HW2 1647   1.775   0.410   0.162  1.8554 -1.6340 -3.0493
  550SOL     OW 1648   2.149   1.816   0.833  0.1607  0.0547 -0.4870
  550SOL    HW1 1649   2.075   1.749   0.806  1.3974 -2.7830  0.4292
  550SOL    HW2 1650   2.235   1.796   0.778  0.7953  1.3538  1.5990
  551SOL     OW 1651   0.849   2.903   1.630 -0.5218  0.7008  0.5182
  551SOL    HW1 1652   0.876   2.849   1.547  1.3918 -0.3224  1.8413
  551SOL    HW2 1653   0.921   2.972   1.653  0.3154 -2.7573  0.2504
  552SOL     OW 1654   2.889   2.108   2.510  0.3940 -0.0506 -0.2759
  552SOL    HW1 1655   2.864   2.067   2.602 -2.0473  0.0370  2.7749
  552SOL    HW2 1656   2.991   2.109   2.512 -1.3066 -0.2233  0.5688
  553SOL     OW 1657   0.304   3.006   1.175 -0.1074 -0.0742  0.1749
  553SOL    HW1 1658   0.364   2.925   1.188 -1.3000 -0.5933  3.2856
  553SOL    HW2 1659   0.207   2.971   1.168 -1.6410 -0.0966  0.7914
  554SOL     OW 1660   2.394   2.024   1.539  0.5074 -0.2096 -0.8675
  554SOL    HW1 1661   2.448   1.968   1.474 -1.3132 -0.2313 -0.8798
  554SOL    HW2 1662   2.395   2.119   1.504 -0.6058  0.8512 -1.2010
  555SOL     OW 1663   1.306   2.243   1.907 -0.2678 -0.2190 -0.2053
  555SOL    HW1 1664   1.349   2.184   1.838  0.2889  0.0334 -1.5976
  555SOL    HW2 1665   1.211   2.221   1.923  1.0835  0.8278  0.4775
  556SOL     OW 1666   1.211   1.847   1.888  0.0458  0.3272 -0.1167
  556SOL    HW1 1667   1.132   1.910   1.890  0.9499 -0.4886  0.2433
  556SOL    HW2 1668   1.215   1.796   1.802  0.6034  1.8980  1.9620
  557SOL     OW 1669   2.079   2.242   2.178  0.3368 -0.4445 -0.0678
  557SOL    HW1 1670   2.162   2.218   2.122  0.4920 -2.6465 -1.2759
  557SOL    HW2 1671   2.100   2.269   2.275 -1.0540  0.8963 -1.2334
  558SOL     OW 1672   0.413   2.850   1.913 -0.1212 -0.5902 -0.4653
  558SOL    HW1 1673   0.489   2.795   1.881  1.1879  2.6515 -0.3691
  558SOL    HW2 1674   0.438   2.950   1.921  0.7845  0.3751  1.1855
  559SOL     OW 1675   2.202   2.795   1.189  0.0415  0.2703  0.5247
  559SOL    HW1 1676   2.215   2.881   1.240 -3.9243 -0.0526 -2.5043
  559SOL    HW2 1677   2.215   2.715   1.250  1.0134 -1.9030 -0.8354
  560SOL     OW 1678   1.734   2.416   0.355 -0.8313 -0.4133  0.3489
  560SOL    HW1 1679   1.667   2.360   0.409 -0.1000 -1.3045 -0.7081
  560SOL    HW2 1680   1.824   2.404   0.397 -0.0077  3.4365 -3.1146
  561SOL     OW 1681   0.961   0.372   0.167 -0.3903 -0.0277 -0.4231
  561SOL    HW1 1682   1.047   0.412   0.206  2.0129  0.2240  1.4103
  561SOL    HW2 1683   0.943   0.396   0.072  3.6428 -2.1102 -1.4092
  562SOL     OW 1684   0.699   0.439   2.521 -0.1346  0.0966  0.6486
  562SOL    HW1 1685   0.696   0.366   2.596  0.8000 -3.4525  1.0833
  562SOL    HW2 1686   0.785   0.418   2.467 -1.5379 -1.6550 -0.2667
  563SOL     OW 1687   1.362   1.984   2.854  0.2809  0.1261  0.5463
  563SOL    HW1 1688   1.306   1.916   2.909  2.4823 -1.4285 -1.2599
  563SOL    HW2 1689   1.424   2.030   2.914  0.1636 -1.4694 -3.0073
  564SOL     OW 1690   2.359   1.085   1.334 -0.0658 -1.0693 -0.1787
  564SOL    HW1 1691   2.394   1.137   1.416 -0.5394 -0.4498  0.3990
  564SOL    HW2 1692   2.431   1.020   1.303 -1.1630 -3.2148 -0.1975
  565SOL     OW 1693   0.929   0.240   2.770 -0.1981  0.0792  0.3293
  565SOL    HW1 1694   0.921   0.140   2.796 -0.9261 -1.1571 -1.4615
  565SOL    HW2 1695   0.996   0.288   2.831 -0.7137  0.3045 -1.4948
  566SOL     OW 1696   1.745   0.067   2.757 -0.0021 -0.2432 -0.2271
  566SOL    HW1 1697   1.820   0.114   2.712 -0.9334 -0.5001 -0.1811
  566SOL    HW2 1698   1.726   3.068   2.705  1.3880 -0.8800 -0.1032
  567SOL     OW 1699   2.409   1.794   0.716  0.6918  0.0484  0.2880
  567SOL    HW1 1700   2.427   1.711   0.660 -0.1680 -1.8552 -0.5752
  567SOL    HW2 1701   2.473   1.870   0.698 -1.5281 -0.8617  2.5892
  568SOL     OW 1702   1.896   1.950   0.092 -0.6163 -0.3916  0.1306
  568SOL    HW1 1703   1.877   1.868   0.147 -1.7030 -0.3200 -1.3367
  568SOL    HW2 1704   1.988   1.935   0.045  0.0327  2.4316  0.4936
  569SOL     OW 1705   2.245   1.227   2.912  0.0824  0.9178  0.3155
  569SOL    HW1 1706   2.156   1.182   2.933 -1.8069  2.2501 -0.4910
  569SOL    HW2 1707   2.316   1.216   2.986  0.0760 -2.3696  1.9786
  570SOL     OW 1708   0.045   2.563   1.769  0.1453  0.9214 -0.0296
  570SOL    HW1 1709   0.009   2.640   1.710  2.8366 -1.0549 -2.1487
  570SOL    HW2 1710   0.144   2.556   1.747 -0.4315 -0.2929 -0.8693
  571SOL     OW 1711   0.575   1.083   1.798 -0.0767 -0.4518 -0.2978
  571SOL    HW1 1712   0.613   1.002   1.847 -1.7913  1.5364  0.6329
  571SOL    HW2 1713   0.650   1.136   1.759  1.2334  0.4489  0.3254
  572SOL     OW 1714   0.962   1.573   0.692  0.3543  0.8472 -0.0516
  572SOL    HW1 1715   0.878   1.526   0.657 -1.3933 -2.1386  0.8991
  572SOL    HW2 1716   0.992   1.631   0.617 -0.9108 -1.0285  0.5160
  573SOL     OW 1717   1.206   1.874   3.045  0.2708  0.5231 -0.3632
  573SOL    HW1 1718   1.197   1.972   3.067  0.0260 -2.2081 -0.5041
  573SOL    HW2 1719   1.133   1.848   2.983  1.6835  0.1301  2.2762
  574SOL     OW 1720   1.031   0.086   0.863  0.0150  0.0918  0.1556
  574SOL    HW1 1721   0.944   0.124   0.903 -0.2253 -2.7732  3.6863
  574SOL    HW2 1722   1.106   0.152   0.883  0.6157  1.0281  3.7594
  575SOL     OW 1723   0.527   0.974   1.349  1.2685 -0.4510 -0.0472
  575SOL    HW1 1724   0.554   0.880   1.374 -1.8378  2.0512 -0.4201
  575SOL    HW2 1725   0.605   1.038   1.368  0.7918  0.2959 -2.3175
  576SOL     OW 1726   1.909   2.950   1.566  0.1400 -0.6968  0.2647
  576SOL    HW1 1727   1.997   3.001   1.575 -3.2917 -0.1305  0.1617
  576SOL    HW2 1728   1.921   2.871   1.505 -2.0504  1.1344 -0.1633
  577SOL     OW 1729   0.974   0.985   1.971  0.0723 -0.3733  0.0757
  577SOL    HW1 1730   1.067   1.027   1.969  2.7469 -0.0925  1.2248
  577SOL    HW2 1731   0.951   0.958   2.063 -0.4654 -1.4256 -2.1264
  578SOL     OW 1732   2.056   0.684   2.776 -0.1703  0.3607  0.0868
  578SOL    HW1 1733   1.961   0.654   2.754  1.9483  0.9990  3.3207
  578SOL    HW2 1734   2.119   0.666   2.696  1.4730  0.1857  0.9932
  579SOL     OW 1735   2.126   2.503   1.773 -0.1377  0.2404 -0.6842
  579SOL    HW1 1736   2.191   2.440   1.832  0.4905 -1.1967  1.2046
  579SOL    HW2 1737   2.127   2.465   1.678 -0.0801 -0.4522  0.4420
  580SOL     OW 1738   2.268   1.271   2.647  0.0052  0.2077  0.5720
  580SOL    HW1 1739   2.272   1.265   2.748  0.4894  0.3271  3.2724
  580SOL    HW2 1740   2.177   1.246   2.610  2.6292 -0.4915  1.2429
  581SOL     OW 1741   1.528   1.219   2.703 -0.2731 -0.2707  0.0637
  581SOL    HW1 1742   1.558   1.304   2.746 -2.4655 -2.6259 -0.9185
  581SOL    HW2 1743   1.428   1.224   2.683  0.8188  0.8798  1.4594
  582SOL     OW 1744   0.958   1.709   2.025 -0.5418 -0.1700  0.0196
  582SOL    HW1 1745   1.004   1.648   2.094  1.4318  0.6213  0.7677
  582SOL    HW2 1746   0.942   1.801   2.068  2.7501 -2.1008 -1.0596
  583SOL     OW 1747   1.840   1.291   1.337  0.4059  1.2122  0.3967
  583SOL    HW1 1748   1.770   1.216   1.322  0.3657 -1.5645 -0.0585
  583SOL    HW2 1749   1.800   1.383   1.338  1.7790  2.4232 -0.0618
  584SOL     OW 1750   1.670   2.639   0.536 -0.2639  0.3166  0.2996
  584SOL    HW1 1751   1.575   2.667   0.510  3.9416 -1.0213 -0.5492
  584SOL    HW2 1752   1.691   2.548   0.495  1.3738  4.5530  1.7923
  585SOL     OW 1753   2.003   2.827   2.757 -0.3826  0.1699  0.1524
  585SOL    HW1 1754   1.905   2.833   2.732 -1.6664 -2.6801  2.2811
  585SOL    HW2 1755   2.014   2.832   2.859 -0.0576  0.6392  0.5066
  586SOL     OW 1756   2.734   2.348   1.102  0.2629  0.2747 -0.2241
  586SOL    HW1 1757   2.670   2.369   1.028  0.7135 -3.6888  2.1248
  586SOL    HW2 1758   2.817   2.300   1.064 -0.6119  1.9472  0.9296
  587SOL     OW 1759   1.218   1.721   0.181 -0.0619 -0.4578  0.0219
  587SOL    HW1 1760   1.211   1.783   0.099 -0.4482  2.3266  0.9435
  587SOL    HW2 1761   1.294   1.651   0.164 -0.1049 -1.1337  1.3879
  588SOL     OW 1762   0.396   0.151   1.083 -0.1177 -0.4993  0.1618
  588SOL    HW1 1763   0.467   0.166   1.014 -1.0993 -0.6138  0.8579
  588SOL    HW2 1764   0.375   0.049   1.091  1.1912  1.7171 -0.8330
  589SOL     OW 1765   0.907   0.245   0.406 -0.1517 -0.1159  0.5798
  589SOL    HW1 1766   0.832   0.285   0.464 -1.6312  2.6963  1.7539
  589SOL    HW2 1767   0.918   0.297   0.323  1.4061 -0.8118 -0.7359
  590SOL     OW 1768   1.405   0.458   2.869  0.2717  0.0757  0.1224
  590SOL    HW1 1769   1.456   0.504   2.944  1.0743  2.0995 -1.9610
  590SOL    HW2 1770   1.450   0.371   2.844 -0.1395 -1.3552  0.2123
  591SOL     OW 1771   3.029   2.154   2.197 -0.1972  0.6610  0.0557
  591SOL    HW1 1772   3.021   2.105   2.283  1.7701 -3.8954 -2.6621
  591SOL    HW2 1773   3.001   2.250   2.204  0.6667 -0.7825  2.2474
  592SOL     OW 1774   2.400   1.511   1.997 -0.8595 -0.1398  0.2192
  592SOL    HW1 1775   2.435   1.426   1.943  3.0680 -3.0531 -2.5641
  592SOL    HW2 1776   2.480   1.532   2.059  2.0871  1.5324  2.1460
  593SOL     OW 1777   1.491   1.341   1.654  0.2028  0.2285 -0.5132
  593SOL    HW1 1778   1.495   1.248   1.614 -0.3603 -1.1706  1.3214
  593SOL    HW2 1779   1.564   1.360   1.720  1.1944 -1.7604  0.7935
  594SOL     OW 1780   2.770   1.131   0.068  0.0776  0.1976 -0.2884
  594SOL    HW1 1781   2.853   1.189   0.068 -3.0427  0.4607 -1.1645
  594SOL    HW2 1782   2.768   1.069   3.080  0.3152  4.7744  1.1127
  595SOL     OW 1783   0.440   0.879   0.439 -0.0619 -0.1115 -0.0478
  595SOL    HW1 1784   0.368   0.878   0.514 -0.4237 -1.0340 -0.7082
  595SOL    HW2 1785   0.534   0.861   0.477 -0.8749  0.3530 -1.4177
  596SOL     OW 1786   0.250   1.068   1.363  0.4361 -0.0722 -0.1304
  596SOL    HW1 1787   0.251   1.157   1.420 -2.1833  3.9993  1.2936
  596SOL    HW2 1788   0.332   1.013   1.382 -2.1273 -1.5742  1.5487
  597SOL     OW 1789   1.140   2.028   1.043 -0.0280  0.3160  0.6673
  597SOL    HW1 1790   1.205   1.986   1.118 -0.6652  2.0655  2.0733
  597SOL    HW2 1791   1.196   2.070   0.973 -0.7736 -0.4436  0.1575
  598SOL     OW 1792   3.033   0.237   1.767  0.0631  0.0139 -0.4371
  598SOL    HW1 1793   3.057   0.234   1.863 -0.4647 -0.2193 -0.9777
  598SOL    HW2 1794   3.007   0.145   1.729  0.3729  1.1220  0.4117
  599SOL     OW 1795   0.291   1.635   2.720 -0.0934 -0.2614 -0.4136
  599SOL    HW1 1796   0.293   1.575   2.637  0.7433  1.3930 -0.5679
  599SOL    HW2 1797   0.366   1.704   2.716 -0.1977  1.1786  2.6289
  600SOL     OW 1798   0.518   0.955   2.758  0.3665  0.0664 -0.5468
  600SOL    HW1 1799   0.519   1.054   2.728  1.3854 -0.2450 -0.9375
  600SOL    HW2 1800   0.589   0.904   2.704  0.3743 -0.5208  2.1957
  601SOL     OW 1801   0.803   0.819   1.236 -0.4143 -0.1697  0.4923
  601SOL    HW1 1802   0.749   0.886   1.185 -0.7188  0.6185  0.7384
  601SOL    HW2 1803   0.854   0.767   1.166 -4.0978  2.3331  1.8936
  602SOL     OW 1804   0.688   0.028   0.112 -0.4938  0.2180 -0.2301
  602SOL    HW1 1805   0.789   0.006   0.132  0.4212 -2.9212  0.4943
  602SOL    HW2 1806   0.654   0.116   0.156  1.1052  0.5756 -2.2095
  603SOL     OW 1807   1.524   2.515   2.303 -0.0892 -0.2703 -0.1791
  603SOL    HW1 1808   1.509   2.415   2.304 -0.6454 -1.5113  1.6016
  603SOL    HW2 1809   1.493   2.548   2.397 -1.1094  1.1572  0.8585
  604SOL     OW 1810   0.420   2.747   2.850 -0.1414  0.0105 -0.1578
  604SOL    HW1 1811   0.373   2.674   2.799 -1.6991 -0.8827 -0.1817
  604SOL    HW2 1812   0.521   2.723   2.856  0.1574  1.0713  1.2555
  605SOL     OW 1813   2.528   1.219   1.541  0.3822  0.2006  0.3273
  605SOL    HW1 1814   2.605   1.255   1.489 -1.3335 -1.7561  1.5970
  605SOL    HW2 1815   2.452   1.289   1.548  0.5221  2.7172 -2.1878
  606SOL     OW 1816   1.000   1.304   2.810  0.0228  0.3853  0.1846
  606SOL    HW1 1817   0.960   1.320   2.903 -1.6337  2.1974  3.9598
  606SOL    HW2 1818   0.946   1.363   2.741 -0.6747  1.0185  0.1404
  607SOL     OW 1819   0.773   0.328   0.617  0.2792  0.2063  0.1531
  607SOL    HW1 1820   0.709   0.406   0.642  2.1852  2.2087  1.0366
  607SOL    HW2 1821   0.860   0.336   0.668  0.4888 -1.6163  0.2600
  608SOL     OW 1822   2.939   1.502   1.542  0.2081 -0.9204  0.3602
  608SOL    HW1 1823   2.943   1.603   1.542  1.9668 -0.4867 -2.8363
  608SOL    HW2 1824   2.852   1.468   1.506 -0.1018  0.8943 -0.4641
  609SOL     OW 1825   2.222   0.422   0.627  0.6078  0.0278 -0.0942
  609SOL    HW1 1826   2.172   0.385   0.708  1.0930  1.0578 -0.1142
  609SOL    HW2 1827   2.270   0.512   0.647 -0.1674 -0.8361  3.5650
  610SOL     OW 1828   0.214   2.651   1.303 -0.7720  0.2443  0.6711
  610SOL    HW1 1829   0.201   2.732   1.362  0.0055 -1.7363 -0.6575
  610SOL    HW2 1830   0.162   2.657   1.211 -0.0566  0.7858 -1.6520
  611SOL     OW 1831   1.632   1.880   0.015  0.1890  0.2772 -0.2076
  611SOL    HW1 1832   1.570   1.953   3.080 -0.3103 -0.7153 -0.1305
  611SOL    HW2 1833   1.726   1.908   0.031 -2.2330 -2.0510  0.7662
  612SOL     OW 1834   0.456   0.036   1.884 -0.2361 -0.2182 -0.2972
  612SOL    HW1 1835   0.505   0.061   1.970 -1.2477  1.0683  0.8980
  612SOL    HW2 1836   0.400   0.119   1.858 -0.3018  2.6905 -2.5679
  613SOL     OW 1837   0.693   2.303   0.618  0.4512  0.6864 -0.2156
  613SOL    HW1 1838   0.616   2.367   0.648  3.0897  0.3576  0.6050
  613SOL    HW2 1839   0.712   2.330   0.520  0.5719  0.3947 -2.9774
  614SOL     OW 1840   2.179   0.190   2.043 -0.6894 -0.9020 -0.1149
  614SOL    HW1 1841   2.217   0.228   2.126 -0.3451 -2.3960  2.1717
  614SOL    HW2 1842   2.239   0.114   2.012 -0.1881 -1.4984 -0.6003
  615SOL     OW 1843   1.319   1.524   0.464 -0.2736 -0.6039  0.3100
  615SOL    HW1 1844   1.317   1.448   0.392 -1.0038  0.1366 -1.8384
  615SOL    HW2 1845   1.264   1.600   0.434  4.0628 -2.1490  1.2919
  616SOL     OW 1846   1.582   1.466   0.566 -0.9347 -0.7360 -0.4789
  616SOL    HW1 1847   1.493   1.496   0.526  0.3157  0.4248 -0.3555
  616SOL    HW2 1848   1.642   1.547   0.597  0.8465  1.0938  3.9641
  617SOL     OW 1849   1.412   0.747   2.941 -0.4828 -0.1156  0.0441
  617SOL    HW1 1850   1.440   0.751   3.038 -2.0471 -1.3631 -0.4552
  617SOL    HW2 1851   1.339   0.813   2.922  0.7810 -0.1735 -3.8366
  618SOL     OW 1852   0.830   0.495   1.791 -0.1269  0.5980  0.0054
  618SOL    HW1 1853   0.758   0.426   1.827 -1.5310  1.1290 -0.6800
  618SOL    HW2 1854   0.925   0.469   1.817 -1.0690  0.6853  3.0326
  619SOL     OW 1855   0.263   1.292   1.550 -0.2054  0.1583 -0.2748
  619SOL    HW1 1856   0.206   1.351   1.489  3.4317  1.4836  0.8921
  619SOL    HW2 1857   0.356   1.336   1.553  2.3394 -0.0730 -0.9427
  620SOL     OW 1858   2.630   2.993   2.548  0.1202  0.3268  0.1734
  620SOL    HW1 1859   2.561   3.069   2.540  0.9752  0.7653 -1.9222
  620SOL    HW2 1860   2.652   2.976   2.644  2.7264  1.1867 -0.5445
  621SOL     OW 1861   2.378   1.923   2.778 -0.0231  0.3582  0.3220
  621SOL    HW1 1862   2.465   1.872   2.771  0.0559 -1.4824  0.6036
  621SOL    HW2 1863   2.309   1.873   2.726  0.1115  0.8484 -1.6870
  622SOL     OW 1864   1.206   0.551   3.079 -0.0635 -0.6038  0.1207
  622SOL    HW1 1865   1.221   0.461   3.031  1.7089  0.6527 -0.2064
  622SOL    HW2 1866   1.266   0.622   3.040  2.1959  0.6541 -0.8942
  623SOL     OW 1867   0.990   1.551   1.805 -0.3093 -0.5053  0.0958
  623SOL    HW1 1868   1.057   1.476   1.822  1.2170  0.2575  0.3380
  623SOL    HW2 1869   0.991   1.622   1.877  1.3096 -0.1503 -1.1018
  624SOL     OW 1870   2.816   0.005   0.527 -0.0112 -0.0019 -0.5946
  624SOL    HW1 1871   2.832   0.041   0.433 -1.5725  0.2243 -1.7994
  624SOL    HW2 1872   2.886   0.047   0.592  1.2964  0.2029 -0.3122
  625SOL     OW 1873   0.889   2.311   0.852 -0.6225  0.0043 -0.9768
  625SOL    HW1 1874   0.827   2.339   0.774  2.1283  2.0357  0.9876
  625SOL    HW2 1875   0.838   2.296   0.941  0.1157 -0.1533  0.4751
  626SOL     OW 1876   2.608   0.832   2.533  0.1157 -0.5257  0.3906
  626SOL    HW1 1877   2.669   0.795   2.607 -3.6194  0.6686  1.2994
  626SOL    HW2 1878   2.531   0.890   2.578 -1.5141  1.0483  0.7664
  627SOL     OW 1879   1.041   1.924   2.663 -0.6760 -0.5599  0.0598
  627SOL    HW1 1880   1.066   1.988   2.588  5.0733  1.0450 -1.8243
  627SOL    HW2 1881   1.123   1.871   2.690  1.8919 -1.7714 -0.6049
  628SOL     OW 1882   2.840   2.785   2.658 -0.1066 -0.1552 -0.3659
  628SOL    HW1 1883   2.778   2.734   2.596  2.3687  2.0899 -0.5626
  628SOL    HW2 1884   2.781   2.852   2.701 -1.4993 -0.9429 -2.9385
  629SOL     OW 1885   1.171   2.834   2.493  0.6961 -0.0455  0.8352
  629SOL    HW1 1886   1.096   2.821   2.429 -0.9293 -0.3804  1.5049
  629SOL    HW2 1887   1.247   2.884   2.441  2.2048  1.6791 -0.3461
  630SOL     OW 1888   0.822   0.206   2.160  0.1889  0.5341 -0.3438
  630SOL    HW1 1889   0.863   0.302   2.179 -2.2637  1.1190 -0.2487
  630SOL    HW2 1890   0.836   0.139   2.237 -0.2667  1.2976 -0.0777
  631SOL     OW 1891   1.889   0.998   0.741  0.3842  0.0717 -0.0809
  631SOL    HW1 1892   1.848   0.909   0.776 -1.7996  0.0510 -0.4933
  631SOL    HW2 1893   1.838   1.033   0.656 -2.5921 -0.2961  0.0260
  632SOL     OW 1894   2.700   0.036   1.755 -0.0473  0.1334  0.0726
  632SOL    HW1 1895   2.653   3.078   1.831  2.0907 -0.8656  0.8547
  632SOL    HW2 1896   2.796   0.003   1.749 -0.2214  0.0361  0.9383
  633SOL     OW 1897   1.235   1.327   0.265  0.3329 -0.0661  0.0073
  633SOL    HW1 1898   1.238   1.339   0.163  1.2922  1.6112  1.3936
  633SOL    HW2 1899   1.142   1.354   0.297 -0.0834  2.1273 -3.1770
  634SOL     OW 1900   2.648   2.622   2.066 -0.5831  0.3335  0.5512
  634SOL    HW1 1901   2.723   2.670   2.022 -1.4019 -3.7398  1.4658
  634SOL    HW2 1902   2.685   2.541   2.115 -0.2273  1.4239  1.1773
  635SOL     OW 1903   1.452   0.426   0.417  0.2376 -0.3222  0.3368
  635SOL    HW1 1904   1.521   0.434   0.342 -0.7087 -1.8722 -0.2365
  635SOL    HW2 1905   1.407   0.332   0.421  0.7922 -0.5850  2.8392
  636SOL     OW 1906   0.678   1.276   0.228 -0.3955  0.1007  0.7127
  636SOL    HW1 1907   0.717   1.347   0.283  0.4801 -2.9350 -0.8172
  636SOL    HW2 1908   0.586   1.244   0.255 -3.1074  0.0963  0.4793
  637SOL     OW 1909   2.653   1.815   0.084 -0.3654  0.0705  0.2144
  637SOL    HW1 1910   2.639   1.717   0.061  1.4122  0.3170 -0.4339
  637SOL    HW2 1911   2.736   1.828   0.142  1.0440 -0.0674 -0.1521
  638SOL     OW 1912   1.198   2.548   2.384  0.0200  0.0979 -0.4803
  638SOL    HW1 1913   1.246   2.635   2.371  0.0588 -3.0443 -1.7551
  638SOL    HW2 1914   1.230   2.492   2.466 -1.3178 -0.8407  0.0026
  639SOL     OW 1915   1.455   1.850   0.757  0.6588  0.1309 -0.2239
  639SOL    HW1 1916   1.484   1.947   0.765 -0.9861  0.3300 -2.8949
  639SOL    HW2 1917   1.361   1.853   0.718 -1.0014 -1.8894  1.5085
  640SOL     OW 1918   2.052   2.757   0.404 -0.2081  0.2536  0.4571
  640SOL    HW1 1919   2.131   2.697   0.381  0.9090  1.3947 -2.2038
  640SOL    HW2 1920   2.071   2.850   0.365 -0.9400 -0.5840 -0.7251
  641SOL     OW 1921   2.833   0.487   0.029 -0.2762  0.1236  0.5572
  641SOL    HW1 1922   2.812   0.487   0.128 -1.2417 -0.4262 -0.4431
  641SOL    HW2 1923   2.847   0.394   3.078  0.3586 -1.9250 -0.2698
  642SOL     OW 1924   0.217   0.532   0.926 -0.3317 -0.7579 -0.3889
  642SOL    HW1 1925   0.164   0.611   0.968 -1.5727  2.0155  0.8966
  642SOL    HW2 1926   0.192   0.437   0.956 -0.3028 -0.4605 -0.0751
  643SOL     OW 1927   0.626   1.443   2.401  0.2179  0.3237  0.3298
  643SOL    HW1 1928   0.698   1.461   2.328  1.3828  0.2345  0.2329
  643SOL    HW2 1929   0.561   1.369   2.370  0.2131 -1.7649 -3.6012
  644SOL     OW 1930   1.793   2.033   0.611  0.2058  0.1165 -0.1629
  644SOL    HW1 1931   1.798   1.984   0.525  0.5792  0.4593 -2.8751
  644SOL    HW2 1932   1.884   2.031   0.661  3.4823  0.6461  2.9586
  645SOL     OW 1933   1.569   2.224   0.461 -0.0978  0.7656  0.5472
  645SOL    HW1 1934   1.545   2.166   0.383  0.2981  2.8112  1.7394
  645SOL    HW2 1935   1.591   2.171   0.543  1.4758  1.7813 -1.4751
  646SOL     OW 1936   0.250   2.208   2.940  0.5497 -0.5558 -0.2519
  646SOL    HW1 1937   0.267   2.113   2.911  2.1525  1.5184 -2.2156
  646SOL    HW2 1938   0.189   2.261   2.884  2.3323 -1.4962  2.0968
  647SOL     OW 1939   1.192   0.138   1.251 -0.0345  0.3852 -0.1417
  647SOL    HW1 1940   1.210   0.196   1.333 -1.6168  1.9183 -0.0013
  647SOL    HW2 1941   1.129   0.188   1.188  0.1651  3.7294 -0.5928
  648SOL     OW 1942   1.403   0.183   0.776  0.2738 -0.6485  0.0212
  648SOL    HW1 1943   1.417   0.112   0.706  2.9126  2.2837 -0.7462
  648SOL    HW2 1944   1.371   0.271   0.730 -0.7649  1.3187 -2.1827
  649SOL     OW 1945   1.129   1.731   0.457  0.2038 -0.2862  0.0365
  649SOL    HW1 1946   1.147   1.781   0.369  2.5532 -3.0308  1.7667
  649SOL    HW2 1947   1.176   1.779   0.532  2.1463 -0.4013  0.7741
  650SOL     OW 1948   2.404   1.629   1.760  0.6030  1.2188 -0.0559
  650SOL    HW1 1949   2.409   1.572   1.846  1.0588  2.3763  2.8166
  650SOL    HW2 1950   2.418   1.727   1.782 -0.1932 -0.9790  0.7016
  651SOL     OW 1951   1.543   2.296   2.879  0.4682  0.0992  0.0249
  651SOL    HW1 1952   1.472   2.360   2.851 -1.9293  1.2606 -0.2223
  651SOL    HW2 1953   1.553   2.233   2.800 -1.7304  2.3550 -0.8714
  652SOL     OW 1954   2.269   1.595   0.383 -0.4081 -0.3365 -0.5267
  652SOL    HW1 1955   2.286   1.571   0.284  1.3184 -2.5964  1.1369
  652SOL    HW2 1956   2.352   1.571   0.437 -0.0901 -0.0058 -1.4360
  653SOL     OW 1957   0.159   0.276   1.064  0.9942 -0.4805  0.0643
  653SOL    HW1 1958   0.251   0.250   1.057 -1.9096  4.5733  1.7644
  653SOL    HW2 1959   0.103   0.215   1.003  0.0710 -2.1544 -0.1727
  654SOL     OW 1960   0.049   0.255   2.023  0.4602  0.9780 -0.2121
  654SOL    HW1 1961   0.056   0.348   2.067 -3.7238 -0.2270 -2.4799
  654SOL    HW2 1962   0.027   0.187   2.097 -0.1125  1.0553  0.3331
  655SOL     OW 1963   0.484   2.461   0.660  0.0164  0.0927 -0.4146
  655SOL    HW1 1964   0.494   2.560   0.671  0.9823  1.3174 -0.3971
  655SOL    HW2 1965   0.392   2.441   0.621 -0.8229  0.3947 -2.0314
  656SOL     OW 1966   2.998   3.063   2.654  0.4913 -0.1577  0.1386
  656SOL    HW1 1967   2.973   2.989   2.590 -1.8230 -1.0556 -0.9241
  656SOL    HW2 1968   2.972   3.033   2.748  0.2007 -0.6909 -1.6206
  657SOL     OW 1969   0.269   1.472   2.949 -0.1200  0.1757  0.4096
  657SOL    HW1 1970   0.174   1.500   2.966 -0.7945  0.3288  0.2274
  657SOL    HW2 1971   0.301   1.522   2.868 -2.2729  1.0529  1.3343
  658SOL     OW 1972   2.777   1.760   1.126 -0.5214 -0.2037  0.4639
  658SOL    HW1 1973   2.822   1.837   1.180  0.2574  0.2212  3.1301
  658SOL    HW2 1974   2.679   1.746   1.157 -2.7974  1.0556  0.1693
  659SOL     OW 1975   1.461   2.781   0.067  0.3449  0.0188 -0.2644
  659SOL    HW1 1976   1.542   2.730   0.105 -1.6581  0.2659  0.0459
  659SOL    HW2 1977   1.474   2.804   3.059  1.8204  0.4323  0.3065
  660SOL     OW 1978   1.595   1.037   2.894  0.2889  0.2706 -0.2954
  660SOL    HW1 1979   1.576   0.949   2.848  0.1049  0.6895 -4.0010
  660SOL    HW2 1980   1.573   1.102   2.818 -0.7429 -0.0782 -1.0349
  661SOL     OW 1981   0.269   2.159   1.267 -0.2709 -0.1243 -0.7467
  661SOL    HW1 1982   0.190   2.115   1.221  0.2650  0.3764  1.0929
  661SOL    HW2 1983   0.237   2.254   1.301 -4.1782 -0.2485  1.2787
  662SOL     OW 1984   0.192   0.541   0.079  0.6599 -0.4395  0.2131
  662SOL    HW1 1985   0.105   0.594   0.056  0.0018  1.0391 -2.5331
  662SOL    HW2 1986   0.165   0.452   0.122  0.4248 -1.0675 -1.5812
  663SOL     OW 1987   2.115   1.549   1.197 -0.2829  0.4416 -0.4728
  663SOL    HW1 1988   2.049   1.625   1.187  1.0898 -0.7987 -0.9609
  663SOL    HW2 1989   2.075   1.462   1.167  2.7106 -0.5028  1.7597
  664SOL     OW 1990   1.200   1.258   0.888 -0.0003 -0.1400  0.2150
  664SOL    HW1 1991   1.290   1.217   0.873 -2.6563 -0.8554  1.6502
  664SOL    HW2 1992   1.198   1.346   0.835 -0.7659 -0.4981  1.0979
  665SOL     OW 1993   1.995   2.597   2.141  0.0094 -0.3762  0.0046
  665SOL    HW1 1994   2.001   2.679   2.203 -0.3016 -3.9461  0.2958
  665SOL    HW2 1995   1.980   2.619   2.043  0.8605  1.5740  1.1005
  666SOL     OW 1996   2.757   2.877   3.065  0.3611  0.4033  1.0469
  666SOL    HW1 1997   2.740   2.779   3.031 -0.3804 -0.2150 -0.6446
  666SOL    HW2 1998   2.857   2.894   3.074 -0.7645  1.1308  1.2295
  667SOL     OW 1999   2.674   1.265   1.824  0.8901 -0.1723  0.0559
  667SOL    HW1 2000   2.698   1.193   1.757 -1.5910  1.6366 -3.5499
  667SOL    HW2 2001   2.568   1.272   1.826 -0.7734 -0.3686 -1.4453
  668SOL     OW 2002   0.335   0.962   2.464 -0.0228 -0.5665 -0.2478
  668SOL    HW1 2003   0.314   0.944   2.563  3.3019  0.3856  0.3934
  668SOL    HW2 2004   0.254   0.928   2.401  0.1005  2.0812 -3.7087
  669SOL     OW 2005   2.133   2.054   2.455  0.2399  0.8994 -0.4217
  669SOL    HW1 2006   2.213   2.003   2.418  0.8079 -1.9108  0.8611
  669SOL    HW2 2007   2.141   2.153   2.461 -3.3841 -1.2939 -1.0077
  670SOL     OW 2008   2.405   1.294   1.823  0.1807 -0.1512 -0.1483
  670SOL    HW1 2009   2.368   1.336   1.735 -1.0735 -2.2451 -0.4973
  670SOL    HW2 2010   2.329   1.238   1.857 -0.9114  2.6681  0.4235
  671SOL     OW 2011   2.951   1.508   0.504 -0.5228 -0.1186  0.1819
  671SOL    HW1 2012   2.945   1.585   0.569  2.3756  0.9672 -0.1685
  671SOL    HW2 2013   2.883   1.435   0.522 -0.5949  1.8715 -0.3943
  672SOL     OW 2014   2.560   0.625   2.346 -0.0053 -0.5150  0.3472
  672SOL    HW1 2015   2.524   0.667   2.260 -2.2458 -4.3890 -0.7684
  672SOL    HW2 2016   2.551   0.692   2.421 -0.7946  1.2426 -0.8917
  673SOL     OW 2017   2.619   3.016   1.980  0.2923  0.7201  0.0783
  673SOL    HW1 2018   2.675   2.929   1.975 -0.5185 -0.9037  2.6537
  673SOL    HW2 2019   2.600   3.038   2.076 -4.3292  2.3960 -0.3478
  674SOL     OW 2020   1.754   2.019   1.598 -0.5056 -0.0709  0.3898
  674SOL    HW1 2021   1.837   1.967   1.590  0.4100 -2.6816 -0.5611
  674SOL    HW2 2022   1.739   2.062   1.507 -0.2946  1.3629  0.6178
  675SOL     OW 2023   0.669   0.832   0.625 -0.4487 -0.1796 -0.5259
  675SOL    HW1 2024   0.664   0.844   0.726 -0.4589  0.7200  0.5730
  675SOL    HW2 2025   0.683   0.924   0.583  1.8321 -2.9848  2.3881
  676SOL     OW 2026   1.556   0.731   0.866  0.3124  0.3092 -0.7350
  676SOL    HW1 2027   1.510   0.817   0.884  0.3595 -4.0633 -0.8759
  676SOL    HW2 2028   1.503   0.647   0.902 -0.8953 -2.6896  0.6591
  677SOL     OW 2029   2.465   1.254   2.180  0.1631 -0.4140  0.5991
  677SOL    HW1 2030   2.455   1.171   2.125  1.3609 -0.5052  2.8588
  677SOL    HW2 2031   2.558   1.300   2.179 -0.0252 -0.4611 -0.4551
  678SOL     OW 2032   2.948   1.564   1.018  0.5111  0.3433 -0.2638
  678SOL    HW1 2033   2.971   1.481   1.074 -1.5350 -0.8285 -0.5124
  678SOL    HW2 2034   2.872   1.617   1.063  2.5280 -0.7989 -0.2840
  679SOL     OW 2035   2.051   2.829   3.068  0.6154 -0.3874  0.0968
  679SOL    HW1 2036   2.082   2.919   0.016 -0.4176  1.2615 -1.2686
  679SOL    HW2 2037   2.130   2.764   3.060 -2.6238 -0.1549 -2.3649
  680SOL     OW 2038   0.085   2.140   1.804  0.0940  0.2950  0.4980
  680SOL    HW1 2039   0.036   2.055   1.777 -1.1223 -0.7070  0.5522
  680SOL    HW2 2040   0.184   2.133   1.784  1.4411 -1.2919 -0.0597
  681SOL     OW 2041   0.735   1.110   1.479 -0.7376 -0.0116  0.0722
  681SOL    HW1 2042   0.782   1.024   1.513  1.9279  1.9802 -1.0683
  681SOL    HW2 2043   0.753   1.181   1.546  0.0698 -0.6083  1.8343
  682SOL     OW 2044   1.322   2.515   0.761  0.4213 -0.1201  0.3124
  682SOL    HW1 2045   1.322   2.486   0.665 -2.9817  0.2460 -1.0121
  682SOL    HW2 2046   1.259   2.467   0.822  1.5721 -0.0373 -1.0470
  683SOL     OW 2047   2.541   1.553   0.948  0.3673  0.2427  0.7476
  683SOL    HW1 2048   2.450   1.588   0.977  0.8128 -1.6874 -0.0248
  683SOL    HW2 2049   2.600   1.632   0.920 -0.3201  0.2131 -1.0081
  684SOL     OW 2050   0.386   2.125   1.765 -0.1212  0.2612  0.2504
  684SOL    HW1 2051   0.474   2.144   1.808 -0.8541 -3.1813 -0.2576
  684SOL    HW2 2052   0.368   2.175   1.675  1.5903 -0.6333 -2.3956
  685SOL     OW 2053   1.727   1.672   2.946  0.7793 -0.3094 -0.0241
  685SOL    HW1 2054   1.673   1.728   3.012 -1.8290 -0.7630 -0.5698
  685SOL    HW2 2055   1.753   1.723   2.865 -2.8356  1.0848  1.2238
  686SOL     OW 2056   0.282   0.772   1.209 -0.0979  0.3279 -0.2496
  686SOL    HW1 2057   0.352   0.823   1.150 -1.2952 -0.5531 -2.2491
  686SOL    HW2 2058   0.305   0.759   1.310 -1.4809  3.1795 -1.4801
  687SOL     OW 2059   0.909   2.362   2.833 -0.1230  0.1812 -0.1954
  687SOL    HW1 2060   0.874   2.406   2.917 -0.4241 -0.4056  1.3135
  687SOL    HW2 2061   0.834   2.313   2.786  0.6268  0.4920  1.6621
  688SOL     OW 2062   2.657   1.876   1.917 -0.0792  0.1413 -0.0658
  688SOL    HW1 2063   2.643   1.880   2.019 -0.8350  0.7509 -1.8720
  688SOL    HW2 2064   2.565   1.881   1.875  0.8608  2.0142  1.9768
  689SOL     OW 2065   2.377   0.733   2.090 -0.2015 -0.3510  0.3222
  689SOL    HW1 2066   2.472   0.710   2.055  0.5664 -0.1715  1.2486
  689SOL    HW2 2067   2.309   0.747   2.017  2.0221  1.5354 -2.8747
  690SOL     OW 2068   2.132   0.939   1.327 -0.4702 -0.0332 -0.2424
  690SOL    HW1 2069   2.067   0.974   1.401 -3.3855 -1.5936 -1.1112
  690SOL    HW2 2070   2.219   0.997   1.321 -1.2368 -0.2849 -2.1429
  691SOL     OW 2071   0.704   1.612   1.974 -0.8078  0.0411  0.1322
  691SOL    HW1 2072   0.654   1.599   1.891  4.3074 -1.3280  0.8113
  691SOL    HW2 2073   0.803   1.634   1.960  1.3826 -2.4996  2.2437
  692SOL     OW 2074   2.045   0.112   1.428 -0.3821  0.0918  0.0913
  692SOL    HW1 2075   2.090   0.183   1.479 -1.5289 -3.0504 -4.9122
  692SOL    HW2 2076   1.957   0.146   1.393  1.7784  3.2585 -0.6581
  693SOL     OW 2077   0.571   0.865   2.129 -0.3211  0.0829  0.7754
  693SOL    HW1 2078   0.630   0.911   2.197 -1.3459  1.3470 -1.3682
  693SOL    HW2 2079   0.614   0.873   2.037  0.1753 -2.2064  0.3012
  694SOL     OW 2080   1.730   2.564   1.331  0.0739  0.0591  0.3606
  694SOL    HW1 2081   1.639   2.565   1.282  1.0758  1.5555 -0.5478
  694SOL    HW2 2082   1.786   2.641   1.292 -1.0339  1.4717 -0.7931
  695SOL     OW 2083   1.234   1.047   1.927  0.2796 -0.6866 -0.3139
  695SOL    HW1 2084   1.318   1.062   1.980  1.0664  2.4646  1.4996
  695SOL    HW2 2085   1.230   1.105   1.841 -0.5530  2.0271  1.4971
  696SOL     OW 2086   1.466   3.027   0.566 -0.0826 -0.6992  0.5074
  696SOL    HW1 2087   1.420   2.961   0.629  1.0759 -0.3364 -0.3385
  696SOL    HW2 2088   1.565   3.003   0.566 -1.0179  0.0265  0.5479
  697SOL     OW 2089   1.113   0.128   0.545  0.5347  0.0294 -0.5260
  697SOL    HW1 2090   1.093   0.113   0.646 -1.0028  1.0256 -1.0089
  697SOL    HW2 2091   1.029   0.160   0.493  0.8291 -0.2458 -0.2358
  698SOL     OW 2092   1.681   0.877   2.424  0.7190 -0.0588  0.6246
  698SOL    HW1 2093   1.585   0.852   2.444  2.3694 -1.0450  2.4954
  698SOL    HW2 2094   1.689   0.927   2.338 -2.0207 -1.1319  2.1146
  699SOL     OW 2095   1.403   1.212   1.134 -0.2276 -0.2353 -0.3829
  699SOL    HW1 2096   1.417   1.313   1.154 -2.5945  1.5028 -0.3830
  699SOL    HW2 2097   1.492   1.163   1.121  4.3297 -1.5619 -1.9378
  700SOL     OW 2098   1.365   0.174   0.460 -0.4739 -0.1579  0.4018
  700SOL    HW1 2099   1.267   0.159   0.490  0.8399 -1.6784 -0.4449
  700SOL    HW2 2100   1.421   0.093   0.493  0.9147 -0.4357 -0.0770
  701SOL     OW 2101   0.294   0.242   1.848  0.1529 -0.3422  0.3990
  701SOL    HW1 2102   0.334   0.335   1.848 -0.2637  1.1739 -2.5731
  701SOL    HW2 2103   0.248   0.235   1.934 -0.0265 -1.5663  0.3492
  702SOL     OW 2104   1.170   2.788   0.385  0.1774 -0.0331  0.4903
  702SOL    HW1 2105   1.207   2.854   0.311 -1.9443  1.5236 -2.0564
  702SOL    HW2 2106   1.141   2.845   0.464  1.2848  3.9882  1.1209
  703SOL     OW 2107   2.409   2.575   2.535 -0.3080  0.0942 -0.0465
  703SOL    HW1 2108   2.353   2.655   2.506  0.3968 -0.6559  1.1395
  703SOL    HW2 2109   2.402   2.497   2.469  1.3508 -2.1034 -2.5260
  704SOL     OW 2110   0.622   2.067   0.724  0.4874 -0.2096 -0.0656
  704SOL    HW1 2111   0.666   2.151   0.688  0.7197  2.8560  0.7756
  704SOL    HW2 2112   0.690   2.008   0.772  0.0122  0.2547 -0.2656
  705SOL     OW 2113   3.023   0.604   1.912  0.3073  0.2739  0.4117
  705SOL    HW1 2114   2.938   0.544   1.911 -3.1845  1.4305 -0.4355
  705SOL    HW2 2115   0.012   0.558   1.960  0.7217 -0.3584  0.1928
  706SOL     OW 2116   1.663   2.942   0.322 -0.0481  0.3831  0.3758
  706SOL    HW1 2117   1.671   2.876   0.249  1.3643 -0.0610  0.5364
  706SOL    HW2 2118   1.567   2.975   0.331 -0.3963  1.0244 -2.0247
  707SOL     OW 2119   1.416   1.831   2.074 -0.1613  0.5131  0.1490
  707SOL    HW1 2120   1.354   1.816   1.996  1.1261  0.9616  0.5954
  707SOL    HW2 2121   1.396   1.926   2.112 -0.0885 -1.2455  0.9707
  708SOL     OW 2122   3.041   2.294   1.483 -0.2350 -0.2127 -0.3602
  708SOL    HW1 2123   3.004   2.366   1.417  2.1405  2.6142 -1.4207
  708SOL    HW2 2124   2.994   2.303   1.573 -0.2482  1.3827  2.1719
  709SOL     OW 2125   1.984   0.418   1.821 -0.5398 -0.1015  0.0951
  709SOL    HW1 2126   2.078   0.421   1.779 -0.4448 -2.8652 -0.3597
  709SOL    HW2 2127   1.937   0.337   1.784  2.3526 -0.1027 -3.6470
  710SOL     OW 2128   2.448   0.123   1.394  0.3265  0.2194 -0.0655
  710SOL    HW1 2129   2.461   0.205   1.454  1.6451  2.0590  1.8021
  710SOL    HW2 2130   2.451   0.149   1.294 -2.4826  1.9931 -1.6863
  711SOL     OW 2131   0.199   2.191   0.379 -0.0127  0.1714 -0.0839
  711SOL    HW1 2132   0.284   2.136   0.376 -1.4520 -1.1310  0.7716
  711SOL    HW2 2133   0.126   2.130   0.413 -1.0611  0.9133  0.2539
  712SOL     OW 2134   0.581   2.322   2.265  0.1804  0.0801  0.3851
  712SOL    HW1 2135   0.507   2.264   2.232  0.0145  0.6209 -2.8948
  712SOL    HW2 2136   0.551   2.420   2.250 -1.2829 -2.2776  0.3402
  713SOL     OW 2137   2.109   0.882   0.065  0.0455 -0.0092  0.8622
  713SOL    HW1 2138   2.175   0.929   0.131  2.3155 -0.8095 -0.5651
  713SOL    HW2 2139   2.072   0.798   0.107  0.1028  1.9695  0.4229
  714SOL     OW 2140   0.835   2.008   0.466  0.1246 -0.8679  0.6476
  714SOL    HW1 2141   0.891   2.032   0.547 -1.6563  0.1004  1.2004
  714SOL    HW2 2142   0.839   2.083   0.403  2.5454 -0.5307  1.8229
  715SOL     OW 2143   1.891   0.244   0.428  0.0621 -0.5165  0.7547
  715SOL    HW1 2144   1.852   0.255   0.520  0.7969 -0.5707  0.6281
  715SOL    HW2 2145   1.912   0.333   0.384 -1.7274 -0.2764 -3.3594
  716SOL     OW 2146   0.488   0.499   1.616  0.3890  0.0719  0.5598
  716SOL    HW1 2147   0.508   0.494   1.716  0.6366  0.2343 -2.7033
  716SOL    HW2 2148   0.394   0.468   1.585  0.7584 -1.4503  2.0874
  717SOL     OW 2149   0.014   0.929   3.074 -0.5880 -0.1203 -0.0647
  717SOL    HW1 2150   3.064   0.954   2.979 -0.3545  0.1956 -1.8292
  717SOL    HW2 2151   3.084   0.827   0.003  1.0568 -1.3394 -0.6585
  718SOL     OW 2152   1.151   0.838   0.125  0.1689 -0.0883  0.2708
  718SOL    HW1 2153   1.242   0.871   0.164  1.9636  1.4134  1.3957
  718SOL    HW2 2154   1.107   0.769   0.187  0.1232  1.5868 -0.4899
  719SOL     OW 2155   2.934   1.653   3.082  0.2895  0.3223 -0.4243
  719SOL    HW1 2156   2.873   1.634   0.069  0.1959  0.9215  0.2923
  719SOL    HW2 2157   2.893   1.636   2.989  1.5963  0.1541 -1.0585
  720SOL     OW 2158   1.506   0.889   1.201 -0.1815 -0.0365 -0.0102
  720SOL    HW1 2159   1.454   0.886   1.113 -1.6328  0.7085 -0.0814
  720SOL    HW2 2160   1.533   0.796   1.226 -1.1091  0.6005  0.5048
  721SOL     OW 2161   2.747   0.804   0.338 -0.3262  0.8912 -0.1655
  721SOL    HW1 2162   2.805   0.875   0.293  0.5756  1.3703 -1.1495
  721SOL    HW2 2163   2.736   0.823   0.437 -1.0093 -0.7822  0.4575
  722SOL     OW 2164   0.815   1.538   2.778 -0.0169 -0.6989  0.4408
  722SOL    HW1 2165   0.865   1.583   2.700  0.7505  3.0405 -0.1764
  722SOL    HW2 2166   0.753   1.463   2.748 -0.8912  1.2241  3.2349
  723SOL     OW 2167   0.481   1.179   0.410  0.4960 -0.4108 -0.8746
  723SOL    HW1 2168   0.448   1.274   0.425 -2.0344  0.7555 -1.0176
  723SOL    HW2 2169   0.406   1.111   0.417 -0.0298  1.4266  1.1399
  724SOL     OW 2170   0.930   2.481   1.909  0.4438  0.2874  0.9573
  724SOL    HW1 2171   0.843   2.447   1.872  1.9880 -2.1215  0.9342
  724SOL    HW2 2172   0.973   2.546   1.848 -0.6747  1.0815  0.6729
  725SOL     OW 2173   2.539   0.972   1.655  0.2072  0.3435  0.6026
  725SOL    HW1 2174   2.515   1.050   1.601  0.6169 -0.9954 -0.0899
  725SOL    HW2 2175   2.617   0.992   1.715 -2.0692 -0.4870 -0.1283
  726SOL     OW 2176   1.656   2.673   0.214 -0.1570  0.6493 -0.8254
  726SOL    HW1 2177   1.755   2.638   0.212  1.5405 -0.4879  0.2545
  726SOL    HW2 2178   1.605   2.645   0.299  1.9507 -1.2806 -0.6685
  727SOL     OW 2179   1.163   1.020   2.554  0.0478 -0.5857 -0.6055
  727SOL    HW1 2180   1.224   1.022   2.635  0.9042 -0.8629  1.2728
  727SOL    HW2 2181   1.152   0.926   2.520  2.4253 -1.1230  0.2752
  728SOL     OW 2182   1.507   2.598   1.161 -0.3310 -0.2543 -0.4218
  728SOL    HW1 2183   1.423   2.609   1.218  5.6340  1.8720  1.0353
  728SOL    HW2 2184   1.528   2.691   1.130 -1.1391 -1.2026 -0.9761
  729SOL     OW 2185   1.481   0.623   1.481  1.2742  0.2446 -0.2694
  729SOL    HW1 2186   1.514   0.626   1.387  1.1034  0.7058 -0.8452
  729SOL    HW2 2187   1.401   0.688   1.486 -1.4479  2.2621  1.3726
  730SOL     OW 2188   0.629   2.154   1.875  0.0345 -0.7954 -0.0500
  730SOL    HW1 2189   0.672   2.243   1.859  0.1797 -1.8527  1.0747
  730SOL    HW2 2190   0.664   2.121   1.968 -1.9451  0.1040  1.5342
  731SOL     OW 2191   0.402   0.237   0.643 -0.0386  0.1916  0.2219
  731SOL    HW1 2192   0.477   0.209   0.710  1.9132 -0.2781  1.8052
  731SOL    HW2 2193   0.392   0.169   0.564  0.7534 -0.4645 -1.4279
  732SOL     OW 2194   0.433   0.431   3.064 -0.1695 -0.4888 -0.1606
  732SOL    HW1 2195   0.514   0.486   3.042 -1.1278 -1.5979  0.2523
  732SOL    HW2 2196   0.353   0.498   3.082 -0.6541  0.9595  1.6328
  733SOL     OW 2197   1.211   2.373   1.195  0.1118  0.6189 -0.1418
  733SOL    HW1 2198   1.124   2.335   1.232  0.7993  0.2376 -0.7365
  733SOL    HW2 2199   1.225   2.471   1.220  0.5933 -1.8897  1.3042
  734SOL     OW 2200   0.080   2.326   2.730  0.1512 -0.5688 -0.9410
  734SOL    HW1 2201   0.096   2.247   2.666  0.9055  0.6632  0.3340
  734SOL    HW2 2202   0.005   2.302   2.795  1.5732  0.1544  2.6680
  735SOL     OW 2203   0.810   2.835   0.981  0.5861 -0.1453 -0.2223
  735SOL    HW1 2204   0.746   2.912   0.974 -0.2743  0.2013 -2.0980
  735SOL    HW2 2205   0.794   2.770   0.902 -1.3054 -1.0422  1.3022
  736SOL     OW 2206   1.618   0.628   0.047 -0.0162  0.5722  0.7310
  736SOL    HW1 2207   1.634   0.586   3.043  1.3009 -0.5345  0.2272
  736SOL    HW2 2208   1.634   0.556   0.121  2.1013 -2.8333 -0.2448
  737SOL     OW 2209   3.028   0.182   0.657  0.3169  0.7492  0.1382
  737SOL    HW1 2210   0.022   0.208   0.715  0.1770  1.1163  2.2845
  737SOL    HW2 2211   2.997   0.259   0.597  1.7757  1.2927 -0.1740
  738SOL     OW 2212   2.470   2.824   1.275 -0.3517 -0.2203  0.1936
  738SOL    HW1 2213   2.470   2.850   1.373 -0.9146  0.6162 -1.0907
  738SOL    HW2 2214   2.543   2.878   1.228  2.2155 -1.6460 -2.1478
  739SOL     OW 2215   1.662   2.359   0.072 -0.1334 -0.2066 -0.0840
  739SOL    HW1 2216   1.691   2.382   0.164  0.5576  0.7649  1.2931
  739SOL    HW2 2217   1.720   2.282   0.036 -0.9383 -4.3511  0.1664
  740SOL     OW 2218   1.861   2.786   1.172  0.4439  0.5448 -0.6004
  740SOL    HW1 2219   1.931   2.851   1.149  0.2516 -3.1008  0.6150
  740SOL    HW2 2220   1.846   2.729   1.093  1.0450  1.7411  0.8284
  741SOL     OW 2221   1.852   0.472   0.827  0.1431 -0.0875  0.2530
  741SOL    HW1 2222   1.937   0.419   0.841 -1.3573 -2.4081 -0.4325
  741SOL    HW2 2223   1.874   0.569   0.814  1.4285 -0.9741 -0.2352
  742SOL     OW 2224   1.400   2.088   2.120  0.8627  0.5364 -0.0317
  742SOL    HW1 2225   1.431   2.148   2.194 -0.6953  0.6341 -0.4004
  742SOL    HW2 2226   1.373   2.148   2.039  2.4542  0.0688  0.2229
  743SOL     OW 2227   2.486   0.433   1.933 -0.2561  0.2693  0.5491
  743SOL    HW1 2228   2.556   0.451   1.870 -3.6094  2.6700  1.8289
  743SOL    HW2 2229   2.527   0.415   2.025  0.6917  1.0237  0.8698
  744SOL     OW 2230   2.370   0.520   1.168  0.3004  0.1436  0.5727
  744SOL    HW1 2231   2.316   0.563   1.247 -3.4514 -0.1680  2.4166
  744SOL    HW2 2232   2.354   0.563   1.079 -0.8893  0.0857  1.6445
  745SOL     OW 2233   1.799   1.159   1.723  0.3444  0.9601 -0.0061
  745SOL    HW1 2234   1.732   1.082   1.733 -0.0553  1.9495  0.3853
  745SOL    HW2 2235   1.763   1.239   1.767 -3.0328 -1.6079 -0.0463
  746SOL     OW 2236   1.198   1.464   0.731  0.0743 -0.5333 -0.1981
  746SOL    HW1 2237   1.105   1.508   0.719  0.0983 -1.6737  2.2458
  746SOL    HW2 2238   1.261   1.500   0.660 -1.4764  1.0382  1.0953
  747SOL     OW 2239   1.710   1.136   1.045 -0.2712  0.1776  0.2627
  747SOL    HW1 2240   1.643   1.106   0.968  1.4704  2.2142 -0.5453
  747SOL    HW2 2241   1.805   1.124   1.016  0.4527 -0.0548  0.2324
  748SOL     OW 2242   2.950   2.730   0.660  0.0292  0.3397 -0.3138
  748SOL    HW1 2243   2.934   2.736   0.556  0.7213 -0.5032 -2.0541
  748SOL    HW2 2244   2.862   2.697   0.696  1.0929  0.0875  0.7825
  749SOL     OW 2245   3.084   0.202   2.356 -0.1702  0.0145 -0.1604
  749SOL    HW1 2246   3.020   0.215   2.434  1.6500  1.8419 -3.3271
  749SOL    HW2 2247   0.091   0.186   2.385  1.8066 -2.4671 -1.7577
  750SOL     OW 2248   1.834   0.551   1.333 -0.4922 -0.0004 -0.4499
  750SOL    HW1 2249   1.909   0.532   1.399 -2.5253  1.3155 -0.1790
  750SOL    HW2 2250   1.805   0.645   1.347 -0.3227 -3.0335 -0.8690
  751SOL     OW 2251   2.909   0.487   0.744  0.3081  0.2263  0.1930
  751SOL    HW1 2252   2.962   0.519   0.820 -0.0975 -1.2746 -0.7879
  751SOL    HW2 2253   2.958   0.512   0.658  0.1583  1.1353 -0.2351
  752SOL     OW 2254   0.087   2.646   1.079 -0.0566 -0.1536 -0.5615
  752SOL    HW1 2255   0.011   2.695   1.032  1.6408  0.9018 -0.1882
  752SOL    HW2 2256   0.132   2.570   1.024  2.6226  0.3741 -0.3706
  753SOL     OW 2257   1.272   0.111   2.024  0.0220 -0.1972  0.7387
  753SOL    HW1 2258   1.278   0.189   1.957  0.2244 -1.0249 -0.4787
  753SOL    HW2 2259   1.355   0.094   2.078 -1.7805  0.3633 -1.1988
  754SOL     OW 2260   1.572   2.408   1.643 -0.0803 -0.4366  0.1658
  754SOL    HW1 2261   1.659   2.457   1.623 -1.7039 -1.9828 -0.9344
  754SOL    HW2 2262   1.530   2.428   1.735 -1.0528  1.2646  0.0177
  755SOL     OW 2263   2.771   1.329   0.541 -0.4762 -0.4483  0.3714
  755SOL    HW1 2264   2.708   1.358   0.620  0.5780 -1.3781 -1.8044
  755SOL    HW2 2265   2.721   1.263   0.479 -2.3554 -2.6299 -3.3535
  756SOL     OW 2266   1.720   1.680   2.360 -0.0333 -0.5999 -0.2624
  756SOL    HW1 2267   1.740   1.776   2.333  0.9218  1.8961 -0.6002
  756SOL    HW2 2268   1.786   1.639   2.426 -0.5050  2.2555 -0.0358
  757SOL     OW 2269   1.759   2.900   0.610  0.3450  0.7312 -0.3055
  757SOL    HW1 2270   1.798   2.958   0.536  0.9630  0.9557 -0.4536
  757SOL    HW2 2271   1.723   2.810   0.586 -1.6798  3.4250  1.7189
  758SOL     OW 2272   0.598   2.932   1.251 -0.2721 -0.2736  0.1059
  758SOL    HW1 2273   0.651   2.842   1.258  2.6031 -1.5539  1.0093
  758SOL    HW2 2274   0.616   2.969   1.157  0.2982  0.2835 -2.4701
  759SOL     OW 2275   0.056   0.887   0.835  0.3166  0.1156 -0.4989
  759SOL    HW1 2276   0.069   0.810   0.899 -0.3932 -0.2072  1.8663
  759SOL    HW2 2277   0.058   0.977   0.886  0.5558  0.3636  1.9081
  760SOL     OW 2278   2.287   1.232   1.114  0.0849  0.1966  0.2786
  760SOL    HW1 2279   2.318   1.174   1.197 -0.6670  1.0414  2.1012
  760SOL    HW2 2280   2.186   1.254   1.121  0.7049  2.8310 -1.1458
  761SOL     OW 2281   1.124   0.936   0.876 -0.4397  0.0247  0.4371
  761SOL    HW1 2282   1.092   1.012   0.930 -2.6303 -0.5443 -0.9661
  761SOL    HW2 2283   1.096   0.938   0.775  1.9245 -0.2830 -0.6029
  762SOL     OW 2284   2.493   1.955   1.083  0.4936 -0.3363  0.2510
  762SOL    HW1 2285   2.504   1.872   1.142  0.0312 -0.8426  2.1565
  762SOL    HW2 2286   2.398   1.995   1.083 -2.0004  3.3138 -0.7479
  763SOL     OW 2287   1.240   1.445   1.929 -0.3301  0.4539  0.5722
  763SOL    HW1 2288   1.321   1.481   1.980 -0.0081 -0.7094 -4.1558
  763SOL    HW2 2289   1.281   1.402   1.842  2.2856  0.9621 -0.4314
  764SOL     OW 2290   2.941   1.778   2.207 -0.1613  0.0241 -0.4657
  764SOL    HW1 2291   2.988   1.834   2.138  0.6230 -2.8168  0.9844
  764SOL    HW2 2292   2.990   1.686   2.205  3.6053 -1.5811  0.3324
  765SOL     OW 2293   1.274   2.638   1.269 -0.4336  0.2578  0.0912
  765SOL    HW1 2294   1.294   2.683   1.359 -0.1832 -0.9997 -1.2865
  765SOL    HW2 2295   1.202   2.691   1.215  2.7633 -0.8419 -0.2336
  766SOL     OW 2296   0.788   2.273   2.425 -0.1253 -0.6137 -0.6945
  766SOL    HW1 2297   0.752   2.251   2.517 -1.1541 -0.6545 -0.8047
  766SOL    HW2 2298   0.713   2.303   2.360 -1.3537 -2.4736  2.0626
  767SOL     OW 2299   1.694   0.455   2.920 -0.2349 -0.0296  0.4226
  767SOL    HW1 2300   1.639   0.374   2.894 -1.9202  1.7259 -0.8020
  767SOL    HW2 2301   1.757   0.493   2.851  2.3268 -1.7184  1.4470
  768SOL     OW 2302   1.342   2.497   2.856 -0.0884 -0.2280 -0.1460
  768SOL    HW1 2303   1.278   2.425   2.829 -1.1865  2.8043 -1.2800
  768SOL    HW2 2304   1.354   2.504   2.958  0.3114  0.5719  0.0317
  769SOL     OW 2305   2.903   2.721   1.253 -0.0715 -0.0531  0.4221
  769SOL    HW1 2306   2.872   2.808   1.304 -2.7216  0.1917  0.2969
  769SOL    HW2 2307   2.994   2.733   1.213 -3.1670 -0.2842  2.1002
  770SOL     OW 2308   0.563   3.035   2.952  0.3410  0.0251  0.6784
  770SOL    HW1 2309   0.552   2.936   2.959 -1.1530  1.0476  0.8535
  770SOL    HW2 2310   0.614   3.077   3.032  0.1814  0.5705  1.3254
  771SOL     OW 2311   0.578   3.069   2.674  0.3610  0.0409 -0.0681
  771SOL    HW1 2312   0.553   3.061   2.773  0.1094 -0.8202 -0.4317
  771SOL    HW2 2313   0.622   2.981   2.647  0.7695  0.2846  0.6937
  772SOL     OW 2314   2.343   3.073   1.953 -0.6901 -0.5581  0.4831
  772SOL    HW1 2315   2.443   3.056   1.942 -1.9720 -0.5170  0.9923
  772SOL    HW2 2316   2.306   3.043   2.035 -1.2286 -1.4677 -1.5497
  773SOL     OW 2317   0.694   2.413   1.805 -0.3536  0.6657  0.5100
  773SOL    HW1 2318   0.697   2.376   1.707  0.2757  0.6076 -3.2474
  773SOL    HW2 2319   0.606   2.456   1.833  1.6787 -1.4167  0.0804
  774SOL     OW 2320   1.493   0.411   2.062 -0.0995  0.2351 -0.2501
  774SOL    HW1 2321   1.491   0.342   2.134  1.3751  0.9451  0.6090
  774SOL    HW2 2322   1.404   0.411   2.016 -0.6534  0.0118 -2.9718
  775SOL     OW 2323   2.231   2.603   2.987  0.7446 -0.2587  0.7425
  775SOL    HW1 2324   2.138   2.570   2.973  0.5940  1.7765  0.3394
  775SOL    HW2 2325   2.295   2.561   2.920  2.1798 -0.2176  0.3272
  776SOL     OW 2326   2.095   0.876   2.071 -0.1509  0.6073  0.2871
  776SOL    HW1 2327   2.085   0.957   2.010 -0.9934  1.5588  2.3817
  776SOL    HW2 2328   2.064   0.794   2.020  0.3895 -0.9815 -0.8642
  777SOL     OW 2329   2.916   1.158   2.427 -0.3991 -0.4864  0.2364
  777SOL    HW1 2330   2.874   1.068   2.430 -1.2551  0.9485  1.5652
  777SOL    HW2 2331   2.900   1.203   2.335  0.2436 -1.9683 -0.1055
  778SOL     OW 2332   2.206   0.539   2.263 -0.0922  0.5556  0.3473
  778SOL    HW1 2333   2.194   0.567   2.361  0.7124  0.5655  1.7601
  778SOL    HW2 2334   2.251   0.604   2.205 -0.7980 -1.8603 -0.9018
  779SOL     OW 2335   2.923   0.088   0.299  0.4409 -0.1378 -0.2612
  779SOL    HW1 2336   2.948   0.177   0.342  1.8294 -0.8189  0.5964
  779SOL    HW2 2337   2.997   0.044   0.248 -1.5897  1.1493  0.8578
  780SOL     OW 2338   2.439   0.129   2.585 -0.5437 -0.7034  0.4381
  780SOL    HW1 2339   2.342   0.146   2.561  1.5002 -1.7244 -0.4413
  780SOL    HW2 2340   2.492   0.203   2.538 -2.1068 -0.4709 -0.0028
  781SOL     OW 2341   0.288   0.082   1.606 -0.3742  0.4658  0.0982
  781SOL    HW1 2342   0.263   0.109   1.514  1.4702 -2.4780  1.9960
  781SOL    HW2 2343   0.269   0.156   1.672 -0.6711  1.7571  1.1367
  782SOL     OW 2344   1.700   2.564   2.934 -0.2857 -0.2292  0.1619
  782SOL    HW1 2345   1.686   2.551   2.835 -0.9817 -0.0829 -1.2779
  782SOL    HW2 2346   1.680   2.474   2.978 -1.0370 -0.0091  0.5135
  783SOL     OW 2347   0.823   1.547   1.592  0.0584  0.3719 -0.3741
  783SOL    HW1 2348   0.869   1.574   1.505 -0.1227 -0.1762  0.7099
  783SOL    HW2 2349   0.881   1.556   1.673  0.9881 -0.3775 -1.0597
  784SOL     OW 2350   1.744   0.621   2.370 -0.7414 -0.3585 -0.4264
  784SOL    HW1 2351   1.672   0.577   2.315  1.5822  0.6089 -1.8289
  784SOL    HW2 2352   1.724   0.722   2.383  0.9290  5.0482 -1.0961
  785SOL     OW 2353   2.879   0.718   1.079 -0.3536  0.4380  0.1061
  785SOL    HW1 2354   2.825   0.737   1.161 -1.1756  2.1660  0.8623
  785SOL    HW2 2355   2.857   0.624   1.048  0.3223 -2.4963  0.1278
  786SOL     OW 2356   1.955   2.925   0.785  0.1028  0.2645 -0.5631
  786SOL    HW1 2357   1.880   2.908   0.717 -1.3680  0.1639  2.9984
  786SOL    HW2 2358   2.014   2.841   0.785 -0.7326 -1.7378  1.0989
  787SOL     OW 2359   1.198   2.934   0.915 -0.0436  0.3346  0.1296
  787SOL    HW1 2360   1.127   3.005   0.899 -1.5795 -1.8717  2.1565
  787SOL    HW2 2361   1.269   2.969   0.977 -0.5341  0.3173  1.0586
  788SOL     OW 2362   0.028   1.146   0.946  0.8849 -0.1906  0.0332
  788SOL    HW1 2363   3.077   1.226   0.993  0.7685  0.6519 -0.8486
  788SOL    HW2 2364   0.122   1.144   0.976 -1.5821 -1.4173  0.8839
  789SOL     OW 2365   0.266   0.857   1.951 -0.4141 -0.1872  0.3493
  789SOL    HW1 2366   0.262   0.787   2.022  2.6314  1.7878  1.3328
  789SOL    HW2 2367   0.282   0.947   1.998  4.7688 -1.1688  2.4686
  790SOL     OW 2368   0.749   0.598   2.723  0.4965 -0.3277 -0.2277
  790SOL    HW1 2369   0.695   0.575   2.803  0.5775 -1.2104  0.2956
  790SOL    HW2 2370   0.725   0.534   2.647  1.9548  1.1425 -0.1731
  791SOL     OW 2371   2.306   0.456   0.260 -0.0769 -0.2709 -0.3394
  791SOL    HW1 2372   2.217   0.464   0.296 -1.4109  1.8876  0.9083
  791SOL    HW2 2373   2.358   0.539   0.284  1.2740 -0.9029 -0.6485
  792SOL     OW 2374   1.311   0.424   1.198  0.0128  0.1910 -0.4224
  792SOL    HW1 2375   1.283   0.515   1.166 -0.9467 -0.0904  0.6420
  792SOL    HW2 2376   1.293   0.403   1.300 -1.5934  0.0802  0.4298
  793SOL     OW 2377   0.121   2.918   1.402  0.6451 -0.2104  0.2045
  793SOL    HW1 2378   0.215   2.940   1.434  1.0266  1.0016 -0.4170
  793SOL    HW2 2379   0.057   3.000   1.402  0.7503 -1.1434 -0.7124
  794SOL     OW 2380   0.218   0.478   2.078  0.4186 -1.4478  0.0758
  794SOL    HW1 2381   0.175   0.479   2.173  0.9320  0.9600  0.3413
  794SOL    HW2 2382   0.308   0.521   2.076 -1.5184 -0.9373 -1.8131
  795SOL     OW 2383   0.475   2.406   2.609  1.1276  0.2928 -0.1801
  795SOL    HW1 2384   0.521   2.490   2.567  1.5038  3.2709  0.1854
  795SOL    HW2 2385   0.394   2.432   2.670  1.3806 -0.0837 -0.0650
  796SOL     OW 2386   1.910   0.248   2.621 -0.4641 -0.1380 -0.0232
  796SOL    HW1 2387   1.853   0.322   2.589  1.2186 -2.1646  2.1983
  796SOL    HW2 2388   1.951   0.272   2.711  0.2812  0.6403  3.4487
  797SOL     OW 2389   2.582   2.337   2.684 -0.2690 -0.7909  0.3197
  797SOL    HW1 2390   2.550   2.430   2.693  1.8773 -2.0993  0.1845
  797SOL    HW2 2391   2.638   2.310   2.767 -1.1167 -2.0464  1.7548
  798SOL     OW 2392   0.307   0.763   1.478 -0.0068 -0.2124 -0.5472
  798SOL    HW1 2393   0.215   0.742   1.516 -0.8451  0.7931 -3.2540
  798SOL    HW2 2394   0.373   0.810   1.545  1.0276  2.9716  0.9306
  799SOL     OW 2395   0.663   0.248   1.807 -0.1486  0.0493 -0.2509
  799SOL    HW1 2396   0.646   0.249   1.708  1.1340 -2.3746 -3.0946
  799SOL    HW2 2397   0.700   0.160   1.844 -1.4995 -2.1341  0.3228
  800SOL     OW 2398   0.003   2.478   0.386 -0.1704 -0.9130 -0.5188
  800SOL    HW1 2399   0.049   2.453   0.297  1.9169 -0.8762  0.1904
  800SOL    HW2 2400   3.085   2.580   0.391  0.7198  2.8389 -0.0629
  801SOL     OW 2401   1.668   1.738   0.624 -0.3055  0.3239 -0.0727
  801SOL    HW1 2402   1.697   1.810   0.560 -1.8511 -0.7451  1.6669
  801SOL    HW2 2403   1.574   1.754   0.662  0.3713  1.4683 -2.6982
  802SOL     OW 2404   0.348   0.622   0.300 -0.6008  0.2575 -0.2968
  802SOL    HW1 2405   0.348   0.719   0.322  1.6316 -2.8971  0.9873
  802SOL    HW2 2406   0.284   0.595   0.225  0.2960 -0.9716 -1.2307
  803SOL     OW 2407   1.254   1.194   2.367 -0.0588 -0.8507  0.0748
  803SOL    HW1 2408   1.202   1.152   2.447  0.6260  1.0240  0.4666
  803SOL    HW2 2409   1.201   1.273   2.334 -2.0309  1.6193 -1.6503
  804SOL     OW 2410   2.032   1.950   1.279 -0.0734  0.0572 -0.3713
  804SOL    HW1 2411   2.047   1.985   1.371 -2.7560  1.0171 -1.7280
  804SOL    HW2 2412   2.086   1.998   1.207 -0.1249 -0.6835  0.4421
  805SOL     OW 2413   0.097   2.104   2.575  0.0648 -0.5852 -0.1394
  805SOL    HW1 2414   0.171   2.155   2.516 -0.0280 -0.7913 -1.8743
  805SOL    HW2 2415   0.088   2.013   2.533 -1.2213 -0.9441  1.2488
  806SOL     OW 2416   0.681   2.574   0.354  0.1680 -0.5386 -0.0433
  806SOL    HW1 2417   0.679   2.624   0.264  0.1932 -0.4626 -2.3537
  806SOL    HW2 2418   0.583   2.552   0.383 -1.5408 -1.4323 -1.6775
  807SOL     OW 2419   2.549   0.971   2.808  0.0351 -0.3651  0.3529
  807SOL    HW1 2420   2.622   0.910   2.844 -1.4062 -2.1703 -0.4213
  807SOL    HW2 2421   2.492   1.002   2.886  0.8768 -2.4834  1.8575
  808SOL     OW 2422   1.577   2.083   0.756 -0.0909  0.2745  0.2498
  808SOL    HW1 2423   1.656   2.042   0.705  1.7575 -0.1646  2.6742
  808SOL    HW2 2424   1.609   2.145   0.830  2.3528 -0.2065  0.2897
  809SOL     OW 2425   0.204   0.623   0.664  0.0077 -0.0495  0.6088
  809SOL    HW1 2426   0.262   0.707   0.652  2.2162 -0.4050 -0.3162
  809SOL    HW2 2427   0.222   0.576   0.751  1.1484 -0.0431 -0.9611
  810SOL     OW 2428   1.449   1.582   0.117 -0.2805  0.0487 -0.0578
  810SOL    HW1 2429   1.434   1.546   0.020  0.6000 -0.0170  0.2701
  810SOL    HW2 2430   1.494   1.675   0.112 -3.9040 -0.6457 -2.0115
  811SOL     OW 2431   1.331   2.891   1.422 -0.1909 -0.5715  0.6372
  811SOL    HW1 2432   1.391   2.938   1.490 -0.9919  1.8065 -0.6769
  811SOL    HW2 2433   1.384   2.885   1.334  2.1395  0.0275  0.1302
  812SOL     OW 2434   1.608   2.929   0.859  0.0425  0.5139  0.2127
  812SOL    HW1 2435   1.531   2.870   0.836  0.6883  2.0912  0.7316
  812SOL    HW2 2436   1.698   2.902   0.810  2.1028  0.5825 -3.7724
  813SOL     OW 2437   1.597   2.867   1.997 -0.3919 -0.0102 -0.4142
  813SOL    HW1 2438   1.541   2.799   2.048 -0.5060  1.6516 -0.2148
  813SOL    HW2 2439   1.593   2.844   1.895 -0.3091  2.0444 -1.6789
  814SOL     OW 2440   1.041   2.729   1.779 -0.1914 -0.0914 -0.1328
  814SOL    HW1 2441   1.111   2.748   1.851  0.2570 -1.1686 -1.2103
  814SOL    HW2 2442   1.040   2.809   1.718 -2.1270 -0.1148  1.0510
  815SOL     OW 2443   0.364   0.207   0.137  0.1057  0.6010  0.0957
  815SOL    HW1 2444   0.443   0.202   0.203 -1.5002 -1.1767  0.7438
  815SOL    HW2 2445   0.394   0.264   0.058  0.5219  0.1393 -1.2147
  816SOL     OW 2446   2.468   1.157   3.061 -0.3190  0.1005 -0.1513
  816SOL    HW1 2447   2.556   1.194   3.014  1.6776  1.2345 -0.7312
  816SOL    HW2 2448   2.502   1.101   0.052  1.5333  1.2443  0.5979
  817SOL     OW 2449   2.738   2.364   2.482  0.5036 -0.3203 -0.5614
  817SOL    HW1 2450   2.675   2.351   2.568 -1.6375  1.8713  5.2429
  817SOL    HW2 2451   2.810   2.290   2.476  0.7194  0.4446  0.4389
  818SOL     OW 2452   0.989   1.359   0.352  0.6633  0.8165  0.2349
  818SOL    HW1 2453   1.008   1.273   0.405 -2.8180  2.1041  2.8033
  818SOL    HW2 2454   0.907   1.403   0.394  2.5311 -1.2472 -0.0574
  819SOL     OW 2455   1.666   1.385   2.905 -0.3662 -0.0377  0.2876
  819SOL    HW1 2456   1.732   1.310   2.890 -2.6783  3.0617 -1.2378
  819SOL    HW2 2457   1.709   1.474   2.904 -2.1178 -1.3397 -0.2185
  820SOL     OW 2458   0.411   1.430   0.500 -0.5928  0.0795 -0.0819
  820SOL    HW1 2459   0.477   1.439   0.582  1.4818  1.8453  0.4998
  820SOL    HW2 2460   0.440   1.495   0.427  2.2636 -2.2045 -2.6469
  821SOL     OW 2461   0.416   2.919   1.457 -0.1996  0.1991  0.1868
  821SOL    HW1 2462   0.462   2.928   1.369 -1.9503  0.7479  0.1881
  821SOL    HW2 2463   0.452   2.990   1.522  2.5275  1.1405 -1.0165
  822SOL     OW 2464   1.962   1.921   2.787  0.0751 -0.4730 -0.3829
  822SOL    HW1 2465   2.023   1.912   2.871 -1.0893 -0.9597  1.3475
  822SOL    HW2 2466   1.942   2.019   2.767 -0.4575 -1.3969 -3.7442
  823SOL     OW 2467   0.811   0.723   2.354 -0.2691  0.0329  0.4736
  823SOL    HW1 2468   0.815   0.638   2.405 -1.9364  0.2624 -1.4199
  823SOL    HW2 2469   0.728   0.780   2.378 -0.2925  4.2080 -1.3662
  824SOL     OW 2470   2.589   2.597   1.522  0.2555  0.4510  0.4864
  824SOL    HW1 2471   2.601   2.521   1.587  1.3773 -0.4381 -2.2440
  824SOL    HW2 2472   2.539   2.675   1.566 -0.0694 -2.1584  0.1001
  825SOL     OW 2473   0.067   1.852   2.420  0.3355 -0.6481 -0.0838
  825SOL    HW1 2474   0.024   1.820   2.336  2.9103  0.5730 -1.0263
  825SOL    HW2 2475   0.050   1.790   2.493 -0.4774 -1.0509 -2.5060
  826SOL     OW 2476   1.589   0.206   0.075 -0.0519 -0.5638  0.5973
  826SOL    HW1 2477   1.649   0.227   0.151 -1.1381 -0.6479  1.7610
  826SOL    HW2 2478   1.631   0.216   3.071  0.3650 -2.3117 -3.5859
  827SOL     OW 2479   0.018   1.873   1.790  0.5941  0.6874 -0.1560
  827SOL    HW1 2480   3.023   1.816   1.796 -0.8344 -0.3970 -1.1492
  827SOL    HW2 2481   0.053   1.892   1.881 -3.6067  1.3177 -2.3235
  828SOL     OW 2482   0.194   0.115   1.331 -0.2654  0.3054  0.4065
  828SOL    HW1 2483   0.196   0.183   1.255  0.3034  0.7010 -0.7860
  828SOL    HW2 2484   0.240   0.033   1.299  0.1356  1.2402  2.7543
  829SOL     OW 2485   0.982   1.676   2.348 -0.0069 -0.5119 -0.0822
  829SOL    HW1 2486   0.931   1.688   2.437  0.7038  1.2249  1.0616
  829SOL    HW2 2487   0.954   1.586   2.308 -1.2162  0.8922  0.3906
  830SOL     OW 2488   0.854   0.848   1.502 -0.1978  0.2930 -0.0121
  830SOL    HW1 2489   0.849   0.844   1.401 -0.4919  0.0519  2.2069
  830SOL    HW2 2490   0.774   0.810   1.547 -0.8981  0.3304 -1.7687
  831SOL     OW 2491   2.603   1.561   0.078  0.1831  0.4083  0.0641
  831SOL    HW1 2492   2.582   1.515   3.079 -1.5022  1.0990 -1.6195
  831SOL    HW2 2493   2.682   1.517   0.128  1.1341 -0.6074  1.1326
  832SOL     OW 2494   1.192   2.291   2.817 -0.3581  0.0888 -0.4008
  832SOL    HW1 2495   1.091   2.300   2.818  1.4385  0.1552 -0.1151
  832SOL    HW2 2496   1.238   2.240   2.741  1.9762  0.1719  1.6647
  833SOL     OW 2497   0.244   0.400   1.557 -0.0605 -0.1693  0.4352
  833SOL    HW1 2498   0.163   0.421   1.609  2.0694 -0.4189 -3.6908
  833SOL    HW2 2499   0.209   0.399   1.462  2.4306  2.6424  1.2140
  834SOL     OW 2500   3.078   0.963   1.449 -0.2433  0.0388  0.2006
  834SOL    HW1 2501   0.062   0.991   1.381 -0.2407  3.7665  0.6855
  834SOL    HW2 2502   3.038   0.874   1.434 -1.7770  1.0331  1.8044
  835SOL     OW 2503   2.657   0.496   0.614 -0.1371  0.3656  0.9915
  835SOL    HW1 2504   2.738   0.497   0.673 -0.5229  0.5348  2.1679
  835SOL    HW2 2505   2.626   0.399   0.602  0.0040  0.3946 -0.9939
  836SOL     OW 2506   0.661   2.258   2.964  0.1396 -0.0880  0.1548
  836SOL    HW1 2507   0.642   2.193   3.040  0.1799 -0.7894 -0.6649
  836SOL    HW2 2508   0.659   2.215   2.871 -2.1096 -0.6235  1.2557
  837SOL     OW 2509   1.527   2.002   0.297 -0.2893  0.6041 -0.3405
  837SOL    HW1 2510   1.548   2.009   0.198 -1.5113  0.0368  2.6906
  837SOL    HW2 2511   1.428   1.984   0.313 -0.9819 -0.9998  3.4944
  838SOL     OW 2512   2.311   0.993   2.315 -0.3823 -0.3617  0.1478
  838SOL    HW1 2513   2.395   1.031   2.274 -1.8209 -2.6282  3.7226
  838SOL    HW2 2514   2.250   0.944   2.249 -1.2181 -1.3107 -2.4689
  839SOL     OW 2515   1.238   1.210   2.779  0.2540  0.3954  0.1480
  839SOL    HW1 2516   1.142   1.247   2.784 -3.5623 -0.9335 -0.2253
  839SOL    HW2 2517   1.253   1.150   2.858 -0.0129  0.8213  1.7284
  840SOL     OW 2518   0.737   1.042   0.161  0.3472 -0.1004  0.2814
  840SOL    HW1 2519   0.648   0.990   0.161 -3.4390  1.1065 -1.0188
  840SOL    HW2 2520   0.722   1.142   0.185  0.8876  3.2436  1.2535
  841SOL     OW 2521   1.196   2.160   3.069 -0.0253 -0.6394  0.5567
  841SOL    HW1 2522   1.210   2.218   0.061  2.4998 -0.6898 -3.4924
  841SOL    HW2 2523   1.200   2.216   2.986 -1.3817 -0.3607  0.7749
  842SOL     OW 2524   0.171   0.409   0.476  0.3208 -0.2948 -0.0544
  842SOL    HW1 2525   0.174   0.508   0.494  1.3806 -0.8378  1.4242
  842SOL    HW2 2526   0.245   0.363   0.523 -0.9007  1.4287 -0.8135
  843SOL     OW 2527   0.466   0.667   0.956  0.3143 -0.5699  0.9579
  843SOL    HW1 2528   0.447   0.766   0.957 -0.7573 -0.5739  0.3277
  843SOL    HW2 2529   0.383   0.606   0.944  0.4213  0.5251 -2.3318
  844SOL     OW 2530   2.023   2.556   2.484 -0.1989 -0.1173 -0.0734
  844SOL    HW1 2531   2.086   2.638   2.477  1.6800 -0.5446 -1.9142
  844SOL    HW2 2532   1.930   2.581   2.439 -1.4941  1.0390 -0.4861
  845SOL     OW 2533   2.798   2.809   1.913 -0.9461 -0.3260  0.1487
  845SOL    HW1 2534   2.890   2.855   1.919  0.3064 -0.9884  0.5552
  845SOL    HW2 2535   2.784   2.770   1.817  1.1127  0.1943 -0.8615
  846SOL     OW 2536   1.918   0.828   2.555  0.0474 -0.5193  0.5261
  846SOL    HW1 2537   1.889   0.759   2.621  0.9549 -0.6623  1.1726
  846SOL    HW2 2538   1.827   0.863   2.509 -1.6065 -0.2949 -1.5204
  847SOL     OW 2539   0.020   0.480   1.695 -0.3064 -0.4716  0.4919
  847SOL    HW1 2540   3.055   0.531   1.765 -0.9021  1.0087 -1.9510
  847SOL    HW2 2541   3.084   0.381   1.711 -0.6026 -0.2649  1.2407
  848SOL     OW 2542   2.556   2.875   0.150  0.9658 -0.3042  0.2406
  848SOL    HW1 2543   2.635   2.872   0.092 -1.3332  0.0771 -0.2370
  848SOL    HW2 2544   2.472   2.828   0.116 -0.3526 -0.2278  1.5620
  849SOL     OW 2545   0.416   2.867   0.868  0.1210 -0.2877 -0.0872
  849SOL    HW1 2546   0.415   2.781   0.917 -0.8296 -0.6769  0.9703
  849SOL    HW2 2547   0.327   2.921   0.874 -0.4817 -0.6861  0.6036
  850SOL     OW 2548   0.713   2.264   0.348  0.1799  0.0398  0.2564
  850SOL    HW1 2549   0.682   2.362   0.372 -1.1759  1.0820 -1.4581
  850SOL    HW2 2550   0.794   2.267   0.281  1.1483 -0.7268 -1.2988
  851SOL     OW 2551   2.054   0.501   2.982 -0.3630 -0.0750 -0.0227
  851SOL    HW1 2552   2.026   0.579   2.917  1.8256  2.4647 -3.9566
  851SOL    HW2 2553   2.084   0.420   2.933 -1.1952  2.5852  1.6695
  852SOL     OW 2554   1.710   2.524   2.630  0.2307  0.0928 -0.0095
  852SOL    HW1 2555   1.756   2.607   2.602 -0.5051 -3.8050  0.4735
  852SOL    HW2 2556   1.748   2.442   2.585  2.1472 -0.2052 -0.6506
  853SOL     OW 2557   0.105   2.372   0.144 -0.1029  0.1042  0.4502
  853SOL    HW1 2558   0.185   2.431   0.119  0.1538 -0.5987  1.4167
  853SOL    HW2 2559   0.135   2.285   0.190 -0.5937 -3.0120  1.0010
  854SOL     OW 2560   1.180   0.585   2.253  0.0358  0.3405 -0.1380
  854SOL    HW1 2561   1.207   0.522   2.330  0.7501 -1.2125 -1.4894
  854SOL    HW2 2562   1.250   0.652   2.224  0.8854  2.5766 -1.4430
  855SOL     OW 2563   0.103   2.868   0.664  0.4094 -0.2522 -0.2621
  855SOL    HW1 2564   0.012   2.821   0.661 -1.9079 -2.6422  1.4078
  855SOL    HW2 2565   0.172   2.809   0.621 -0.1917  1.8397  0.0836
  856SOL     OW 2566   0.329   3.041   2.512  0.1149 -0.1427  0.0016
  856SOL    HW1 2567   0.283   2.952   2.494  0.9544 -0.5502  2.6014
  856SOL    HW2 2568   0.427   3.036   2.530 -0.1537 -0.8758 -1.2205
  857SOL     OW 2569   1.038   0.152   1.551  0.1032  0.1477  0.2832
  857SOL    HW1 2570   1.042   0.156   1.653 -0.0315  0.6270  0.2623
  857SOL    HW2 2571   0.951   0.193   1.511 -0.0727  1.6890 -0.3413
  858SOL     OW 2572   0.313   1.869   1.636 -0.2083  0.5604 -0.9439
  858SOL    HW1 2573   0.345   1.948   1.694 -1.2720  1.3111 -0.1230
  858SOL    HW2 2574   0.340   1.888   1.539  2.7379 -0.8993  0.4003
  859SOL     OW 2575   1.960   2.939   1.881  0.4647  0.2969 -0.8189
  859SOL    HW1 2576   2.029   2.958   1.807  2.2992  3.3767 -0.8053
  859SOL    HW2 2577   1.920   2.844   1.874  1.2575  0.3907  0.6903
  860SOL     OW 2578   1.768   0.258   0.673  0.4305  0.3661  0.2381
  860SOL    HW1 2579   1.743   0.188   0.741  1.6812  0.9320 -1.2835
  860SOL    HW2 2580   1.783   0.351   0.717 -1.3787  0.5708  0.5216
  861SOL     OW 2581   2.699   0.780   0.596  0.0500  0.0129 -0.3595
  861SOL    HW1 2582   2.670   0.683   0.581 -0.7825  0.7940  1.6032
  861SOL    HW2 2583   2.754   0.785   0.683  0.6278 -2.5788 -2.0080
  862SOL     OW 2584   1.894   0.645   1.932  0.0413  0.3375 -0.2224
  862SOL    HW1 2585   1.903   0.544   1.939 -1.2352  0.0226  2.0923
  862SOL    HW2 2586   1.890   0.666   1.832 -1.1816  0.1176 -0.7131
  863SOL     OW 2587   0.729   0.766   0.889 -0.2040 -0.0667  0.3281
  863SOL    HW1 2588   0.644   0.714   0.914 -2.1949 -0.6283  0.3503
  863SOL    HW2 2589   0.815   0.732   0.935 -1.3196 -0.8623  0.5959
  864SOL     OW 2590   2.933   2.947   2.174 -0.2923 -0.3775 -0.7295
  864SOL    HW1 2591   2.929   2.853   2.209  0.5750  0.6768  0.2009
  864SOL    HW2 2592   2.851   3.004   2.203 -1.4057 -0.3715  1.7922
  865SOL     OW 2593   1.062   0.750   2.475 -0.4421 -0.3096 -0.0648
  865SOL    HW1 2594   0.971   0.768   2.433 -1.1856 -0.5330  0.6378
  865SOL    HW2 2595   1.121   0.699   2.413 -0.4454  0.8320  0.6456
  866SOL     OW 2596   2.462   2.587   0.559  0.1420  0.3102 -0.3635
  866SOL    HW1 2597   2.432   2.633   0.647  2.0467 -0.9190  0.3132
  866SOL    HW2 2598   2.529   2.514   0.587 -0.6002 -0.6016 -1.0439
  867SOL     OW 2599   2.814   2.827   0.442 -0.2662 -0.6958 -0.5279
  867SOL    HW1 2600   2.736   2.779   0.396  1.5557  2.0231  0.2094
  867SOL    HW2 2601   2.777   2.917   0.472 -0.8082  0.6558 -2.9580
  868SOL     OW 2602   1.763   1.125   0.018 -0.0801 -0.2950  0.1030
  868SOL    HW1 2603   1.693   1.103   3.035  1.5086  0.6314 -0.0923
  868SOL    HW2 2604   1.734   1.209   0.070  1.2800 -0.7175  0.4390
  869SOL     OW 2605   3.008   2.267   0.542  0.0236 -0.6899  0.0652
  869SOL    HW1 2606   2.907   2.252   0.535  3.5915  0.5613  0.9228
  869SOL    HW2 2607   3.045   2.330   0.466 -0.7389  2.6931 -4.1974
  870SOL     OW 2608   2.318   2.125   0.323 -0.5801 -0.3588  0.0166
  870SOL    HW1 2609   2.225   2.092   0.308  1.0869  0.6128 -0.5900
  870SOL    HW2 2610   2.379   2.053   0.365  0.7691 -1.6465  1.1873
  871SOL     OW 2611   0.737   1.027   0.958  0.6380 -0.5131  0.2074
  871SOL    HW1 2612   0.732   0.930   0.928  1.5103  5.7229  1.9370
  871SOL    HW2 2613   0.830   1.053   0.960 -5.2957 -0.7321 -1.1005
  872SOL     OW 2614   1.126   2.084   2.165 -0.1021 -0.1369 -0.4853
  872SOL    HW1 2615   1.229   2.074   2.152 -0.3245 -0.7061  0.3939
  872SOL    HW2 2616   1.084   2.158   2.111 -1.8117 -1.4969 -0.6264
  873SOL     OW 2617   0.454   2.439   1.959 -0.3375  0.2903  0.1462
  873SOL    HW1 2618   0.483   2.493   2.046  2.8496  0.9823  2.6335
  873SOL    HW2 2619   0.370   2.383   1.982  0.5055 -0.0004  2.4907
  874SOL     OW 2620   0.818   0.206   1.027 -0.4816  0.3660  0.2160
  874SOL    HW1 2621   0.840   0.301   1.054  1.1244  1.9451 -0.0657
  874SOL    HW2 2622   0.802   0.144   1.105  1.6958  0.1533 -0.4482
  875SOL     OW 2623   2.869   0.358   1.273 -0.2948 -0.1425 -0.0122
  875SOL    HW1 2624   2.773   0.384   1.293  0.2738  0.1486 -1.0554
  875SOL    HW2 2625   2.932   0.407   1.335 -0.2843 -0.5474 -1.7491
  876SOL     OW 2626   0.453   0.939   0.170  0.4620  0.0319 -0.0193
  876SOL    HW1 2627   0.442   0.932   0.274  0.1341  1.8642  1.3882
  876SOL    HW2 2628   0.373   0.983   0.130 -0.8382 -0.3380  2.8446
  877SOL     OW 2629   0.868   0.513   1.396 -0.0156  0.0907 -0.2126
  877SOL    HW1 2630   0.965   0.535   1.426 -2.2693 -0.9498 -3.6366
  877SOL    HW2 2631   0.809   0.597   1.403 -0.2058 -0.0612 -0.5847
  878SOL     OW 2632   1.959   2.621   0.167  0.2305 -0.7026 -0.0886
  878SOL    HW1 2633   1.983   2.681   0.086 -1.6699  0.5166 -3.6275
  878SOL    HW2 2634   1.969   2.660   0.260 -0.6796 -1.9431  2.4474
  879SOL     OW 2635   2.699   1.377   1.378 -0.2391 -0.0903 -0.2792
  879SOL    HW1 2636   2.749   1.315   1.312  0.9474  0.5200 -0.6186
  879SOL    HW2 2637   2.616   1.423   1.338  0.0651 -0.0820  1.5439
  880SOL     OW 2638   1.374   2.397   0.501 -1.0643 -0.5688  0.3043
  880SOL    HW1 2639   1.436   2.316   0.476  0.0126 -2.1827 -0.1078
  880SOL    HW2 2640   1.280   2.354   0.507  0.8804 -1.7642 -1.6462
  881SOL     OW 2641   0.927   2.213   0.182 -0.0194  0.3732  0.4745
  881SOL    HW1 2642   0.956   2.295   0.131 -2.4887  0.8241  0.3913
  881SOL    HW2 2643   0.941   2.125   0.142 -2.1535  1.6280  2.0465
  882SOL     OW 2644   1.807   0.825   1.353  0.3165 -0.3518 -0.3692
  882SOL    HW1 2645   1.861   0.881   1.422 -0.0649 -0.8473  0.2579
  882SOL    HW2 2646   1.717   0.870   1.337  1.3202 -2.0679 -0.1047
  883SOL     OW 2647   1.673   0.926   1.720  0.2484  0.9186  0.0030
  883SOL    HW1 2648   1.752   0.865   1.705  0.3815 -0.8931 -1.7816
  883SOL    HW2 2649   1.606   0.887   1.783 -1.1872 -1.6310 -0.2516
  884SOL     OW 2650   2.798   0.528   0.335  0.4242 -0.2359 -0.0210
  884SOL    HW1 2651   2.804   0.629   0.348 -3.5379 -0.7671  0.0549
  884SOL    HW2 2652   2.709   0.494   0.363  0.6132 -2.3340 -0.2961
  885SOL     OW 2653   1.437   1.529   2.940  0.6024  0.6780 -0.0710
  885SOL    HW1 2654   1.460   1.614   2.886 -0.0671 -0.3335  0.9546
  885SOL    HW2 2655   1.516   1.472   2.935 -1.3740 -1.2135  0.3810
  886SOL     OW 2656   1.488   1.703   2.725  0.1315  0.4481  0.1067
  886SOL    HW1 2657   1.466   1.706   2.625 -0.6027  0.9423 -0.2575
  886SOL    HW2 2658   1.591   1.711   2.732  3.6546 -1.5954  1.4126
  887SOL     OW 2659   1.601   0.064   1.287 -0.1585  0.1774  0.1313
  887SOL    HW1 2660   1.527   0.038   1.224  1.6639  0.3998 -1.2214
  887SOL    HW2 2661   1.686   0.023   1.254 -2.6342 -0.5110  0.7142
  888SOL     OW 2662   2.433   0.620   1.686  0.1652  0.0624 -0.3555
  888SOL    HW1 2663   2.503   0.644   1.756  1.2926  2.2883  1.4136
  888SOL    HW2 2664   2.431   0.688   1.615  0.8989 -2.5991  3.9726
  889SOL     OW 2665   2.946   2.798   0.943  0.1035 -0.0802  0.2045
  889SOL    HW1 2666   2.956   2.775   0.844 -1.4155  0.3443 -0.6806
  889SOL    HW2 2667   2.863   2.757   0.984 -2.9178 -0.0997  0.6953
  890SOL     OW 2668   2.074   2.379   0.100 -0.2774 -0.0728 -0.2725
  890SOL    HW1 2669   2.017   2.449   0.145  0.7671 -1.2169  0.3977
  890SOL    HW2 2670   2.073   2.387   3.086 -2.2891 -2.2243 -0.0752
  891SOL     OW 2671   0.523   1.227   2.681  0.5433  0.0280  0.2963
  891SOL    HW1 2672   0.506   1.244   2.581 -0.1896  0.3648  0.2441
  891SOL    HW2 2673   0.618   1.247   2.706 -1.7869 -1.1135 -0.8715
  892SOL     OW 2674   3.025   0.047   1.435  0.6180  0.3911  0.2928
  892SOL    HW1 2675   0.027   0.077   1.391  1.5767 -1.9403 -1.3990
  892SOL    HW2 2676   2.943   0.091   1.389 -0.8636  0.7906 -1.7633
  893SOL     OW 2677   1.385   0.052   1.091 -0.7481  0.1687  0.0008
  893SOL    HW1 2678   1.443   0.127   1.046  1.0176 -0.8336 -1.0979
  893SOL    HW2 2679   1.315   0.090   1.157 -0.3968 -1.3030  2.6553
  894SOL     OW 2680   2.400   0.650   0.613  0.4714 -0.1175 -0.0972
  894SOL    HW1 2681   2.370   0.727   0.670  1.3227 -2.8190  0.7093
  894SOL    HW2 2682   2.491   0.607   0.635  1.9797  0.1531 -0.7100
  895SOL     OW 2683   1.927   1.581   2.542  0.2263 -0.2209  0.2827
  895SOL    HW1 2684   1.950   1.525   2.620  1.3430  0.8888  1.4552
  895SOL    HW2 2685   2.004   1.585   2.477 -2.6012 -1.7204  2.2071
  896SOL     OW 2686   1.654   0.400   1.825 -0.2019 -0.0672  0.2452
  896SOL    HW1 2687   1.598   0.377   1.902  2.8920 -0.3704 -3.4631
  896SOL    HW2 2688   1.723   0.330   1.797 -0.4819  0.0351  0.9902
  897SOL     OW 2689   0.810   1.510   2.213 -0.2677 -0.2192 -0.3137
  897SOL    HW1 2690   0.844   1.425   2.175  2.9986  0.7277  0.7184
  897SOL    HW2 2691   0.736   1.553   2.158 -0.3182  0.3375  2.0653
  898SOL     OW 2692   2.378   2.395   2.327  1.0268  0.3460 -0.0842
  898SOL    HW1 2693   2.334   2.415   2.234  1.1275 -0.4889  1.1357
  898SOL    HW2 2694   2.462   2.349   2.303 -2.5554  2.5885  1.7103
  899SOL     OW 2695   1.239   1.097   1.479 -0.2865  0.0157 -0.0317
  899SOL    HW1 2696   1.227   1.174   1.409  0.4090  0.3892  0.3229
  899SOL    HW2 2697   1.324   1.045   1.456 -2.4443  1.3484  0.1416
  900SOL     OW 2698   1.280   2.216   2.546 -0.4293 -0.4323  0.4782
  900SOL    HW1 2699   1.308   2.120   2.550 -0.6920  1.0954  0.1858
  900SOL    HW2 2700   1.187   2.216   2.498 -2.2990 -0.8204 -1.4236
  901SOL     OW 2701   0.483   2.028   2.367  0.2299  0.1537  0.2669
  901SOL    HW1 2702   0.442   1.934   2.375 -1.6805  1.3758  0.2665
  901SOL    HW2 2703   0.427   2.098   2.419 -0.2905  0.1446 -2.9842
  902SOL     OW 2704   1.886   1.683   0.285 -0.4710 -0.3715 -0.2217
  902SOL    HW1 2705   1.863   1.652   0.189 -0.1839  2.7184 -0.0731
  902SOL    HW2 2706   1.919   1.601   0.336  0.1251 -2.5222  2.1224
  903SOL     OW 2707   1.995   1.130   0.265 -0.1772 -0.0220 -0.1662
  903SOL    HW1 2708   1.932   1.148   0.190 -0.1646 -2.5274 -2.6454
  903SOL    HW2 2709   2.073   1.193   0.252 -0.7446  1.8649  0.6369
  904SOL     OW 2710   0.754   0.868   2.654  0.7423 -0.1473 -0.7951
  904SOL    HW1 2711   0.756   0.773   2.689  0.7769  0.0589  2.0046
  904SOL    HW2 2712   0.812   0.922   2.711 -0.1028 -1.9868 -2.4151
  905SOL     OW 2713   2.783   0.479   1.032  0.3018 -0.0809  0.1747
  905SOL    HW1 2714   2.701   0.434   0.990 -0.7180 -0.4779 -0.7603
  905SOL    HW2 2715   2.810   0.422   1.109 -0.7303 -0.0370 -1.6777
  906SOL     OW 2716   2.952   1.931   0.649 -0.0715  0.4184  0.1034
  906SOL    HW1 2717   2.972   1.831   0.670  1.3370 -2.3288 -1.6964
  906SOL    HW2 2718   3.004   1.987   0.713 -0.0030 -1.6243 -0.6972
  907SOL     OW 2719   1.360   0.437   0.669  0.0631 -0.0262  0.1881
  907SOL    HW1 2720   1.385   0.441   0.571 -0.1198 -1.6243 -1.0382
  907SOL    HW2 2721   1.268   0.470   0.689  1.6562 -1.0982  1.3048
  908SOL     OW 2722   1.730   3.061   1.721  0.3886 -0.5666  0.3051
  908SOL    HW1 2723   1.805   3.012   1.675  1.7759  0.1519  0.9198
  908SOL    HW2 2724   1.736   3.040   1.818 -0.7392  1.4763  1.0018
  909SOL     OW 2725   2.477   0.783   1.490  0.2767  0.1254 -0.2922
  909SOL    HW1 2726   2.561   0.763   1.440  2.1862  0.2879 -0.0187
  909SOL    HW2 2727   2.489   0.864   1.552 -0.7511 -2.7500  0.0446
  910SOL     OW 2728   1.185   2.769   2.091 -0.4763  0.0696  0.3378
  910SOL    HW1 2729   1.106   2.748   2.148  0.3680  2.2858 -1.2493
  910SOL    HW2 2730   1.169   2.849   2.028  1.2011 -0.5855 -1.2225
  911SOL     OW 2731   2.209   0.687   1.825  0.9485  0.0371 -0.7660
  911SOL    HW1 2732   2.273   0.673   1.746  0.3276  0.7883 -0.6283
  911SOL    HW2 2733   2.190   0.602   1.876  0.4910  2.0574  0.0536
  912SOL     OW 2734   2.628   1.896   1.453 -0.2538  0.0367  0.1072
  912SOL    HW1 2735   2.664   1.907   1.360  1.5184  0.1528 -1.7963
  912SOL    HW2 2736   2.661   1.961   1.528  0.3290 -0.3108 -0.7437
  913SOL     OW 2737   2.881   1.940   1.273  0.0652  0.0116 -0.0629
  913SOL    HW1 2738   2.819   2.020   1.268  0.5641 -3.9472 -1.0526
  913SOL    HW2 2739   2.947   1.945   1.350  3.4624 -1.5929  0.7451
  914SOL     OW 2740   2.172   1.631   1.450 -1.0572 -0.0838  0.2943
  914SOL    HW1 2741   2.268   1.652   1.462 -1.3183  1.0191 -0.6322
  914SOL    HW2 2742   2.156   1.604   1.351 -0.6392 -1.4803 -1.9030
  915SOL     OW 2743   1.215   1.296   1.308  0.0929 -0.0415 -0.0403
  915SOL    HW1 2744   1.164   1.374   1.265  1.5522 -1.3128 -1.7742
  915SOL    HW2 2745   1.271   1.252   1.240 -1.6119  1.5676  4.0908
  916SOL     OW 2746   2.473   2.481   1.299 -0.0892 -0.3276 -0.3508
  916SOL    HW1 2747   2.462   2.540   1.215  1.6893  1.5527 -1.7060
  916SOL    HW2 2748   2.539   2.524   1.364  1.2361 -1.0977 -3.2750
  917SOL     OW 2749   2.549   1.735   2.745  0.0273  0.5805  0.4482
  917SOL    HW1 2750   2.497   1.667   2.803 -0.7514 -0.4186 -0.0770
  917SOL    HW2 2751   2.633   1.700   2.697 -3.3325 -1.8314  0.5096
  918SOL     OW 2752   1.709   2.309   2.419  0.3301 -0.0521 -0.3216
  918SOL    HW1 2753   1.763   2.238   2.464 -3.5494  2.5770 -1.1500
  918SOL    HW2 2754   1.738   2.321   2.325  0.9512  0.6585  3.4084
  919SOL     OW 2755   1.443   2.084   1.719 -0.5589  0.2431  0.5030
  919SOL    HW1 2756   1.514   2.005   1.713  1.4977  2.1175 -1.6386
  919SOL    HW2 2757   1.450   2.147   1.639 -0.0693  3.0011 -2.9051
  920SOL     OW 2758   2.874   0.231   2.973  0.0684 -0.1323  0.4331
  920SOL    HW1 2759   2.972   0.218   2.996 -3.5615 -1.7842  0.4402
  920SOL    HW2 2760   2.809   0.205   3.046  1.2673 -0.5530 -1.9046
  921SOL     OW 2761   2.763   0.168   2.273  0.0198  0.2125  0.3459
  921SOL    HW1 2762   2.744   0.066   2.264  1.4285  0.4868 -0.7735
  921SOL    HW2 2763   2.833   0.189   2.342  1.1776 -1.0782  0.7279
  922SOL     OW 2764   2.047   2.087   0.481  0.0279  0.7206  0.3125
  922SOL    HW1 2765   2.016   2.116   0.389  2.0272 -1.0776  1.5351
  922SOL    HW2 2766   2.076   1.988   0.476 -2.4889  3.9998  1.3400
  923SOL     OW 2767   0.292   1.909   0.254 -0.1776 -0.5906 -0.4348
  923SOL    HW1 2768   0.216   1.971   0.223 -1.9814  1.0247  0.7684
  923SOL    HW2 2769   0.381   1.956   0.255  1.4078  1.1909 -2.3937
  924SOL     OW 2770   1.174   0.314   2.853 -0.2640 -0.2010  0.1764
  924SOL    HW1 2771   1.183   0.249   2.929 -1.3842  1.4862 -2.3421
  924SOL    HW2 2772   1.265   0.361   2.841 -0.1690 -1.7851  0.2773
  925SOL     OW 2773   2.517   1.019   0.794  0.5789 -0.0214 -0.2756
  925SOL    HW1 2774   2.440   1.085   0.783 -1.7717  0.2515 -0.6722
  925SOL    HW2 2775   2.549   0.985   0.703  2.0272 -3.0707  0.3576
  926SOL     OW 2776   2.743   1.161   0.872  0.6703 -0.3854  0.5843
  926SOL    HW1 2777   2.656   1.112   0.866  2.9280  3.5239 -0.7687
  926SOL    HW2 2778   2.816   1.101   0.846 -1.7881  3.2757  0.6009
  927SOL     OW 2779   0.347   1.415   0.127  0.2224 -0.2340  0.5817
  927SOL    HW1 2780   0.286   1.350   0.170 -0.1392 -1.6184  3.1229
  927SOL    HW2 2781   0.325   1.433   0.031  3.2192 -0.3431 -1.8495
  928SOL     OW 2782   0.095   0.459   2.326  0.1868  0.5147  0.1581
  928SOL    HW1 2783   0.047   0.368   2.331  2.3944  0.9297  0.3056
  928SOL    HW2 2784   0.173   0.464   2.393 -4.2952  0.7956 -0.9915
  929SOL     OW 2785   2.784   2.945   1.355  0.5342  0.4801  0.2083
  929SOL    HW1 2786   2.753   2.983   1.264  2.8839  1.4408 -1.4209
  929SOL    HW2 2787   2.718   2.972   1.432  1.6801  1.9664  1.2157
  930SOL     OW 2788   1.995   1.803   1.582  0.0535  0.2255 -0.2735
  930SOL    HW1 2789   2.042   1.729   1.522  1.2475 -0.0398 -2.4515
  930SOL    HW2 2790   1.968   1.759   1.670  1.6308  0.1603 -1.0453
  931SOL     OW 2791   1.577   1.410   0.841 -0.0481 -0.4535 -0.4862
  931SOL    HW1 2792   1.576   1.504   0.882  1.2050  0.3507 -1.2758
  931SOL    HW2 2793   1.576   1.416   0.741  0.7059  0.0239  1.9365
  932SOL     OW 2794   2.734   1.196   1.177  0.5166 -0.4972 -0.6484
  932SOL    HW1 2795   2.666   1.122   1.203 -1.3043 -3.4343 -0.3024
  932SOL    HW2 2796   2.727   1.227   1.078 -2.0221  2.1432  1.5212
  933SOL     OW 2797   2.444   1.682   1.502 -0.1122  0.5337  0.4684
  933SOL    HW1 2798   2.422   1.633   1.586 -1.6105  0.1404 -0.9080
  933SOL    HW2 2799   2.512   1.757   1.509 -1.4796  1.1828 -0.3947
  934SOL     OW 2800   1.586   2.867   1.133  0.4245  0.6598  0.5662
  934SOL    HW1 2801   1.570   2.907   1.038  1.0760 -0.9936  0.6305
  934SOL    HW2 2802   1.681   2.856   1.156 -3.3009  2.1628 -1.5543
  935SOL     OW 2803   0.555   1.706   0.876  0.1806  0.1641  0.6380
  935SOL    HW1 2804   0.583   1.653   0.958  0.1448 -3.5660  0.6933
  935SOL    HW2 2805   0.596   1.797   0.872 -0.3769  0.3775  2.4443
  936SOL     OW 2806   3.005   1.165   0.638  0.0937 -0.5395  0.4706
  936SOL    HW1 2807   2.943   1.240   0.609  0.2965  0.1104  0.7979
  936SOL    HW2 2808   3.074   1.201   0.699  0.9943 -2.6469 -1.0357
  937SOL     OW 2809   1.786   2.635   0.959 -0.0774 -0.3036  0.3044
  937SOL    HW1 2810   1.695   2.595   0.972 -1.3849  1.3288  0.1739
  937SOL    HW2 2811   1.827   2.594   0.875  0.1286  0.0845 -1.0827
  938SOL     OW 2812   2.527   2.378   0.924  0.1735  0.3911 -0.1368
  938SOL    HW1 2813   2.482   2.468   0.919 -1.3596 -0.0033 -2.4185
  938SOL    HW2 2814   2.465   2.313   0.974 -0.0396 -0.1219  0.1544
  939SOL     OW 2815   0.430   2.402   2.968 -0.1025  0.5732 -0.3641
  939SOL    HW1 2816   0.518   2.351   2.955  0.7612 -1.4787 -3.8629
  939SOL    HW2 2817   0.353   2.330   2.977 -2.2039 -0.4861  2.9548
  940SOL     OW 2818   3.043   2.904   0.011 -0.0665  0.1752 -0.3454
  940SOL    HW1 2819   3.074   2.953   0.093 -1.3505 -0.9064  1.3839
  940SOL    HW2 2820   0.023   2.838   3.066 -2.6121 -0.7253 -2.8251
  941SOL     OW 2821   0.895   3.076   2.830 -0.0809  0.0286  0.0449
  941SOL    HW1 2822   0.804   3.034   2.848 -0.4067 -0.8782 -2.0434
  941SOL    HW2 2823   0.964   3.007   2.798  0.4889 -1.9984 -0.7257
  942SOL     OW 2824   1.268   1.741   1.641  0.3604 -0.5268  0.3820
  942SOL    HW1 2825   1.354   1.785   1.618 -2.8382 -2.6178 -0.3897
  942SOL    HW2 2826   1.261   1.650   1.596  1.7318  2.5186 -0.2765
  943SOL     OW 2827   2.044   1.265   1.595 -0.0936 -0.0487 -0.0257
  943SOL    HW1 2828   2.011   1.274   1.502  1.6468 -1.9573 -0.0432
  943SOL    HW2 2829   1.975   1.253   1.661  1.4712  0.3928  0.4370
  944SOL     OW 2830   1.910   0.718   1.655  0.0985 -0.2370 -0.2073
  944SOL    HW1 2831   1.823   0.671   1.651  0.9128  1.7840 -0.5095
  944SOL    HW2 2832   1.984   0.668   1.606  0.1863  2.3694  1.5602
  945SOL     OW 2833   0.006   2.996   1.112  0.1545 -0.5325 -0.1688
  945SOL    HW1 2834   3.026   2.939   1.064  1.2398  1.9816 -2.6482
  945SOL    HW2 2835   3.046   3.077   1.148  1.9912  2.0573  0.3290
  946SOL     OW 2836   0.570   0.564   1.194  0.0307 -0.0744  0.0286
  946SOL    HW1 2837   0.550   0.467   1.220 -1.2153  1.2783 -1.5320
  946SOL    HW2 2838   0.528   0.586   1.102  1.5727  2.0521 -0.3119
  947SOL     OW 2839   0.511   2.737   0.642  0.3858 -0.3538 -0.1430
  947SOL    HW1 2840   0.518   2.771   0.546  0.6081 -0.0424 -0.4316
  947SOL    HW2 2841   0.483   2.811   0.707 -0.9829  2.1863  0.5908
  948SOL     OW 2842   2.848   1.394   1.969  0.3727  0.3052 -0.0067
  948SOL    HW1 2843   2.775   1.345   1.923 -1.4903  2.0329 -0.8734
  948SOL    HW2 2844   2.933   1.381   1.912 -1.0149  0.4118  1.7453
  949SOL     OW 2845   0.422   1.220   2.390 -0.2445  0.1216 -0.1360
  949SOL    HW1 2846   0.452   1.221   2.291 -0.1310 -1.1218  3.7490
  949SOL    HW2 2847   0.401   1.124   2.422  0.6047 -3.5181  0.1981
  950SOL     OW 2848   0.949   0.414   0.823 -0.3955 -0.4762 -0.7227
  950SOL    HW1 2849   0.938   0.515   0.831 -2.1613 -1.2263 -2.1563
  950SOL    HW2 2850   0.956   0.368   0.911  3.5538 -0.8621  0.1726
  951SOL     OW 2851   1.044   2.217   1.950 -0.1768  0.2035 -0.3369
  951SOL    HW1 2852   1.012   2.154   1.876 -1.5737  0.2941  0.4030
  951SOL    HW2 2853   1.012   2.314   1.950  1.5916  2.3957  2.7569
  952SOL     OW 2854   0.398   1.982   3.007  0.2763 -0.2457  0.4263
  952SOL    HW1 2855   0.458   2.015   3.080  0.0450 -1.6522  1.3585
  952SOL    HW2 2856   0.354   1.892   3.038  0.4397  0.7111  1.3119
  953SOL     OW 2857   1.848   3.037   2.420  0.0976  0.3635  0.2790
  953SOL    HW1 2858   1.946   3.016   2.391  1.2809 -0.3353 -0.8781
  953SOL    HW2 2859   1.821   0.044   2.396 -2.9821 -0.2173 -0.2646
  954SOL     OW 2860   1.482   1.155   0.856 -0.1193  0.6495  0.1366
  954SOL    HW1 2861   1.461   1.141   0.757 -1.3344 -0.6833  1.6250
  954SOL    HW2 2862   1.516   1.247   0.874  0.7080 -3.2496  2.0094
  955SOL     OW 2863   0.339   2.208   2.184 -0.5808  0.1220  0.3900
  955SOL    HW1 2864   0.346   2.116   2.136  0.2513 -2.6554  0.5707
  955SOL    HW2 2865   0.270   2.273   2.145  0.1108  1.0565  0.0528
  956SOL     OW 2866   1.654   0.634   1.693 -0.0228 -0.3553 -0.3181
  956SOL    HW1 2867   1.597   0.623   1.611 -0.9854 -2.0533 -2.9199
  956SOL    HW2 2868   1.653   0.546   1.746 -1.3397 -0.2192  1.2347
  957SOL     OW 2869   2.167   1.734   2.707  0.0347  0.3150 -0.3399
  957SOL    HW1 2870   2.164   1.662   2.634  0.9157  0.7294  2.9218
  957SOL    HW2 2871   2.085   1.795   2.702  0.8036  0.2116  1.6921
  958SOL     OW 2872   1.147   2.352   0.928  0.2316 -0.2118  0.3521
  958SOL    HW1 2873   1.047   2.360   0.917 -0.5204 -1.7382 -1.9581
  958SOL    HW2 2874   1.185   2.369   1.017  0.1513  0.1016 -1.5141
  959SOL     OW 2875   1.630   2.110   2.674  0.2727  0.0233 -0.1934
  959SOL    HW1 2876   1.546   2.068   2.629  1.2745  1.0828  1.8062
  959SOL    HW2 2877   1.716   2.068   2.638 -0.9288  0.8813 -1.1620
  960SOL     OW 2878   0.030   0.156   3.063 -0.4703 -0.1312 -0.7171
  960SOL    HW1 2879   0.118   0.101   3.057  0.1419  0.0673  0.1545
  960SOL    HW2 2880   0.036   0.220   0.053  0.8511  0.3530 -1.5078
  961SOL     OW 2881   0.879   0.986   2.223 -0.1965  0.1350 -0.0501
  961SOL    HW1 2882   0.888   1.041   2.312  0.7440 -0.5645  1.2075
  961SOL    HW2 2883   0.855   0.890   2.244 -0.9217  2.3308  3.3849
  962SOL     OW 2884   0.909   1.352   3.075  0.1035  0.1226 -0.4871
  962SOL    HW1 2885   1.008   1.334   0.001  2.9945 -0.1222  0.2897
  962SOL    HW2 2886   0.853   1.364   0.069  2.7083 -0.7312  0.6027
  963SOL     OW 2887   2.276   1.687   2.978  0.5387  0.2725  0.0535
  963SOL    HW1 2888   2.268   1.721   2.884  0.3059  0.9158 -0.4979
  963SOL    HW2 2889   2.339   1.750   3.029  2.1956  1.2553 -1.6153
  964SOL     OW 2890   1.560   2.436   0.930  0.2535  0.4973 -0.1832
  964SOL    HW1 2891   1.505   2.482   0.858  0.9194  1.5527 -0.2211
  964SOL    HW2 2892   1.533   2.464   1.027  0.6050  0.8297  3.6993
  965SOL     OW 2893   0.879   2.042   1.091 -0.2573 -0.3250  0.3193
  965SOL    HW1 2894   0.850   2.004   1.180  1.1214 -0.0617  4.4130
  965SOL    HW2 2895   0.981   2.044   1.079  1.6220  0.1222  0.1856
  966SOL     OW 2896   0.092   1.599   0.083 -0.3321 -0.8511 -0.3451
  966SOL    HW1 2897   3.084   1.600   0.049  1.0672  0.1765  1.8538
  966SOL    HW2 2898   0.090   1.587   0.186 -0.9888  2.5542  2.0131
  967SOL     OW 2899   1.675   0.037   2.065 -1.2338  0.3793  0.4042
  967SOL    HW1 2900   1.660   3.029   2.024  0.6558 -1.8809  0.3042
  967SOL    HW2 2901   1.771   0.069   2.061 -1.8758 -0.3086  3.7215
  968SOL     OW 2902   1.845   0.759   0.861  0.5210  0.2033  0.3068
  968SOL    HW1 2903   1.890   0.758   0.948 -0.1577  1.4984  0.6095
  968SOL    HW2 2904   1.747   0.739   0.869  0.0511  1.5177 -0.0071
  969SOL     OW 2905   0.105   1.559   1.989 -0.1066  0.6875  0.1734
  969SOL    HW1 2906   0.188   1.586   1.942  0.5108  1.4692  2.6892
  969SOL    HW2 2907   0.031   1.532   1.924 -3.0678  0.7387 -2.4509
  970SOL     OW 2908   2.485   1.422   1.200 -0.2153  0.2881  0.6009
  970SOL    HW1 2909   2.402   1.368   1.179  0.4426 -0.3514 -0.1526
  970SOL    HW2 2910   2.518   1.462   1.113  0.7721  1.1987 -1.9764
  971SOL     OW 2911   0.801   0.263   1.462  0.1928 -0.3550 -0.0688
  971SOL    HW1 2912   0.818   0.364   1.459  0.4843  1.8011 -0.1346
  971SOL    HW2 2913   0.703   0.250   1.489 -0.3433  1.5227 -0.4213
  972SOL     OW 2914   0.927   0.375   2.401  0.5848 -0.2012 -0.5941
  972SOL    HW1 2915   0.994   0.301   2.428 -1.5765 -3.5477 -0.3803
  972SOL    HW2 2916   0.947   0.426   2.315 -2.3931  0.1032 -2.0878
  973SOL     OW 2917   0.296   1.189   1.126  0.4691  0.3371 -0.6880
  973SOL    HW1 2918   0.281   1.142   1.216  1.4496  0.6527 -0.3216
  973SOL    HW2 2919   0.395   1.212   1.131 -2.8148  1.9261 -0.1352
  974SOL     OW 2920   2.051   1.089   1.910 -0.0845 -0.7473  0.3537
  974SOL    HW1 2921   1.952   1.094   1.884 -2.3458 -1.3867  2.0370
  974SOL    HW2 2922   2.105   1.074   1.827  0.4738 -3.1448 -1.1878
  975SOL     OW 2923   2.530   3.063   0.572  0.2583 -0.1426 -0.0121
  975SOL    HW1 2924   2.490   3.070   0.478  2.1771  1.0750  2.2023
  975SOL    HW2 2925   2.633   3.061   0.560  1.3804  0.6853 -0.2075
  976SOL     OW 2926   3.036   1.383   1.781 -0.2069  0.0827 -0.4350
  976SOL    HW1 2927   3.004   1.413   1.693  1.8133 -0.7173  2.2423
  976SOL    HW2 2928   0.026   1.322   1.771 -1.8378  1.4701  0.1867
  977SOL     OW 2929   0.685   2.700   0.113 -0.2289 -0.1105  0.6103
  977SOL    HW1 2930   0.601   2.761   0.112 -4.3037  2.1179  1.7011
  977SOL    HW2 2931   0.773   2.753   0.122  0.4522  2.4093 -3.9192
  978SOL     OW 2932   0.745   1.735   0.121 -0.3370 -0.3785  0.0998
  978SOL    HW1 2933   0.673   1.710   0.055 -0.7967  1.5614  2.1287
  978SOL    HW2 2934   0.820   1.667   0.120  0.0062  0.7294 -0.8572
  979SOL     OW 2935   1.442   1.664   1.348  0.5758 -0.6323 -0.3437
  979SOL    HW1 2936   1.487   1.741   1.404 -1.3387  0.9066  0.6315
  979SOL    HW2 2937   1.376   1.609   1.401 -0.3000  0.0911 -1.5087
  980SOL     OW 2938   0.530   1.241   2.132  0.2850 -0.2242 -0.5986
  980SOL    HW1 2939   0.612   1.253   2.079 -1.6271 -0.1635  2.2230
  980SOL    HW2 2940   0.472   1.170   2.098  2.0537  3.1519  2.7085
  981SOL     OW 2941   0.087   1.520   0.324 -0.9618 -0.4459  0.3779
  981SOL    HW1 2942   0.009   1.514   0.391 -0.5974 -0.3488 -1.6470
  981SOL    HW2 2943   0.101   1.431   0.280  1.2554  3.2597  0.6072
  982SOL     OW 2944   2.409   2.551   2.792 -0.2629  0.2549  0.4605
  982SOL    HW1 2945   2.408   2.576   2.693 -1.7122  0.6054  1.5311
  982SOL    HW2 2946   2.426   2.631   2.850 -1.4219 -0.9489  0.0099
  983SOL     OW 2947   1.768   0.244   1.417 -0.3676  0.5841 -0.3200
  983SOL    HW1 2948   1.705   0.170   1.393  1.4018  0.7062  0.4794
  983SOL    HW2 2949   1.750   0.328   1.361 -0.2109  1.7170  1.3702
  984SOL     OW 2950   0.893   0.054   2.393 -0.1982  0.2609 -0.1349
  984SOL    HW1 2951   0.980   0.014   2.355 -0.2413  0.8723 -0.3750
  984SOL    HW2 2952   0.919   0.094   2.484 -0.5402 -0.2638  0.3032
  985SOL     OW 2953   1.828   2.158   1.851 -0.1122  0.4189  0.8925
  985SOL    HW1 2954   1.803   2.253   1.833  0.7767  0.4339  1.0026
  985SOL    HW2 2955   1.799   2.094   1.776 -3.2013  0.7574  0.0944
  986SOL     OW 2956   2.112   3.000   2.385  0.2310  0.0325  0.7047
  986SOL    HW1 2957   2.133   2.978   2.284  0.9310  0.4847 -3.4962
  986SOL    HW2 2958   2.132   0.008   2.405  0.5373 -0.8239  2.0846
  987SOL     OW 2959   2.606   0.385   2.160  0.5453 -0.0528 -0.3496
  987SOL    HW1 2960   2.637   0.292   2.182 -1.4874  0.9973  0.6704
  987SOL    HW2 2961   2.618   0.447   2.238  0.6086 -1.1400 -1.0131
  988SOL     OW 2962   2.561   0.376   2.479 -0.1129 -0.3316  0.4577
  988SOL    HW1 2963   2.558   0.403   2.575 -2.0371 -1.1241 -3.7163
  988SOL    HW2 2964   2.558   0.457   2.417  1.1148  1.1599 -1.9276
  989SOL     OW 2965   2.142   2.322   2.436  0.3485 -0.7053 -0.2835
  989SOL    HW1 2966   2.242   2.344   2.413  1.3058  1.6797 -2.1264
  989SOL    HW2 2967   2.090   2.404   2.469 -2.4225 -1.2206 -1.3696
  990SOL     OW 2968   0.319   1.208   2.876 -0.1028  0.2892  0.1997
  990SOL    HW1 2969   0.297   1.305   2.905 -0.1479 -1.7293 -0.1316
  990SOL    HW2 2970   0.403   1.206   2.824  1.3096  0.0271  1.4968
  991SOL     OW 2971   0.790   1.320   2.607  0.0922  0.4902 -0.0804
  991SOL    HW1 2972   0.828   1.248   2.548  1.1183  2.0106  0.5534
  991SOL    HW2 2973   0.767   1.398   2.552 -0.4542 -1.2670  0.8258
  992SOL     OW 2974   2.750   2.301   1.998 -0.0104  0.0999 -0.0620
  992SOL    HW1 2975   2.762   2.380   1.943  0.9928 -1.6705 -0.3590
  992SOL    HW2 2976   2.797   2.219   1.952  2.4846 -2.4512  0.5067
  993SOL     OW 2977   0.596   0.166   0.871 -0.3443 -0.2885  0.1045
  993SOL    HW1 2978   0.682   0.194   0.926 -2.6728  0.4543  1.0640
  993SOL    HW2 2979   0.628   0.125   0.784 -0.1628  0.6522  0.3817
  994SOL     OW 2980   0.380   1.933   1.365 -0.3646 -0.1493 -0.3876
  994SOL    HW1 2981   0.347   1.846   1.320  0.8219  2.6913  0.9384
  994SOL    HW2 2982   0.358   2.023   1.318  2.9909 -0.0953 -0.7302
  995SOL     OW 2983   2.173   1.612   2.393  0.6306  0.2820 -0.3407
  995SOL    HW1 2984   2.228   1.528   2.374  0.3185 -1.1418 -0.2039
  995SOL    HW2 2985   2.224   1.697   2.385  0.4376 -4.2272  0.5835
  996SOL     OW 2986   1.994   1.414   2.754 -0.2001 -0.2802 -0.3027
  996SOL    HW1 2987   2.018   1.447   2.847 -1.7031 -1.4396 -1.9952
  996SOL    HW2 2988   1.959   1.322   2.761 -2.8262  0.8811 -0.1248
  997SOL     OW 2989   1.498   1.066   2.026 -0.1152 -0.6502  0.4325
  997SOL    HW1 2990   1.513   0.992   1.961 -1.1245  2.0075 -0.0807
  997SOL    HW2 2991   1.583   1.117   2.042 -1.8154 -1.0710 -0.7893
  998SOL     OW 2992   2.601   2.059   0.658 -0.3336  0.1880 -0.2480
  998SOL    HW1 2993   2.527   2.126   0.666 -0.1267  0.3063 -1.5103
  998SOL    HW2 2994   2.650   2.054   0.750 -0.3893  0.7916 -1.0185
  999SOL     OW 2995   2.339   2.359   0.194  0.5278  0.2783 -0.1140
  999SOL    HW1 2996   2.334   2.267   0.239  0.5232 -0.0931 -4.1170
  999SOL    HW2 2997   2.252   2.384   0.141 -1.9281  2.1573  0.1402
 1000SOL     OW 2998   0.747   2.919   2.362 -0.4451  0.0518 -0.1766
 1000SOL    HW1 2999   0.806   3.000   2.373 -0.5086 -0.9929 -1.0705
 1000SOL    HW2 3000   0.715   2.893   2.450  0.8624 -1.7482 -2.0411
   3.08843   3.08843   3.08843
