1000 SPC/Fw water molecules t= 440.00000 step= 440000
 3000
    1SOL     OW    1   0.076   0.141   1.556 -0.1542  0.1380 -0.1192
    1SOL    HW1    2   0.094   0.136   1.456  2.1638 -1.9249  0.0303
    1SOL    HW2    3   0.157   0.158   1.613 -1.9476  1.1583  1.1978
    2SOL     OW    4   2.828   3.027   0.040  0.2294  0.0050  0.0223
    2SOL    HW1    5   2.913   2.982   0.069 -0.0701  0.4849  1.6171
    2SOL    HW2    6   2.741   2.981   0.074 -0.4608  0.2587  1.6710
    3SOL     OW    7   1.183   2.713   3.062 -0.3855  0.6613  0.7968
    3SOL    HW1    8   1.176   2.630   3.005 -0.3611  0.5457  0.2593
    3SOL    HW2    9   1.277   2.722   3.099 -0.7395  1.5575 -1.1451
    4SOL     OW   10   1.107   2.696   2.306  0.2928  0.0029  0.0332
    4SOL    HW1   11   1.162   2.616   2.323 -0.8652  1.9206  1.6271
    4SOL    HW2   12   1.011   2.672   2.285  4.0108  2.9681 -0.3369
    5SOL     OW   13   2.306   0.364   1.645 -0.1665  0.6274 -0.0984
    5SOL    HW1   14   2.372   0.308   1.700  1.2225  2.3340  0.4087
    5SOL    HW2   15   2.332   0.462   1.643  0.8484  0.5397 -2.4165
    6SOL     OW   16   2.807   2.445   0.844  0.0026  0.0287 -0.0368
    6SOL    HW1   17   2.880   2.502   0.886 -1.1417  2.8192 -1.5471
    6SOL    HW2   18   2.794   2.354   0.891 -0.3718 -1.3781 -1.6152
    7SOL     OW   19   1.526   1.854   0.621  0.2526  0.0715  0.2337
    7SOL    HW1   20   1.451   1.818   0.560 -0.1487 -1.5294 -2.6929
    7SOL    HW2   21   1.504   1.836   0.720 -2.2051  0.6622  2.3774
    8SOL     OW   22   0.398   1.297   0.811 -0.0905  0.5887 -0.1529
    8SOL    HW1   23   0.337   1.311   0.732 -2.1227 -2.2338  2.0968
    8SOL    HW2   24   0.465   1.374   0.821 -0.5561  1.3944 -3.0730
    9SOL     OW   25   0.104   2.952   1.540  0.1212 -0.2936  0.6004
    9SOL    HW1   26   0.067   3.047   1.560  0.2845 -0.4659  0.0302
    9SOL    HW2   27   0.152   2.908   1.614 -3.5119  1.3225 -0.9598
   10SOL     OW   28   1.111   2.340   0.439  0.1180 -0.3804 -0.1164
   10SOL    HW1   29   1.196   2.339   0.496  1.5268 -0.5906 -0.5208
   10SOL    HW2   30   1.074   2.435   0.444 -2.7307  0.0164  1.1449
   11SOL     OW   31   1.861   1.558   1.186 -0.6831  0.2397 -0.8067
   11SOL    HW1   32   1.910   1.475   1.158 -0.3266  0.4327 -0.3337
   11SOL    HW2   33   1.770   1.532   1.216  3.4652 -1.0607  0.5333
   12SOL     OW   34   0.237   0.872   2.066  0.0686  0.1999 -0.0829
   12SOL    HW1   35   0.268   0.881   1.972  0.1245 -0.2921  0.9861
   12SOL    HW2   36   0.180   0.796   2.090 -0.6847 -0.0630  2.2046
   13SOL     OW   37   2.334   2.968   3.026 -0.3118  0.1474 -0.2439
   13SOL    HW1   38   2.293   2.873   3.020  0.5781 -0.3333  1.2481
   13SOL    HW2   39   2.263   3.035   2.993  1.1307 -1.1826  3.2865
   14SOL     OW   40   1.409   1.920   0.166 -0.0998  0.3513  0.2348
   14SOL    HW1   41   1.383   1.886   0.260 -1.2588  0.1985  0.8489
   14SOL    HW2   42   1.398   2.019   0.147  1.2155  0.9177 -0.3357
   15SOL     OW   43   3.086   2.705   1.745  0.5888  0.6478  0.1617
   15SOL    HW1   44   0.013   2.678   1.652  0.1062  1.0304  0.6535
   15SOL    HW2   45   3.015   2.782   1.738 -2.5120 -1.8264  1.6134
   16SOL     OW   46   2.898   0.585   0.823 -0.0502 -0.7202  0.6095
   16SOL    HW1   47   2.926   0.493   0.782 -1.8751  0.3200 -1.3933
   16SOL    HW2   48   2.819   0.578   0.881  0.7672 -0.9343  1.5435
   17SOL     OW   49   0.780   0.443   0.689 -0.2828  0.3483  0.0067
   17SOL    HW1   50   0.811   0.521   0.745 -2.1791  0.4138  1.9686
   17SOL    HW2   51   0.859   0.380   0.659  2.0710 -0.7540  0.4227
   18SOL     OW   52   0.974   0.132   0.855  0.1801 -0.0750  0.2106
   18SOL    HW1   53   0.997   0.164   0.761 -0.0645  0.7762 -0.0995
   18SOL    HW2   54   0.882   0.094   0.871  0.6358 -0.9641  1.7647
   19SOL     OW   55   1.621   1.006   1.014  0.2086 -0.1094  0.0298
   19SOL    HW1   56   1.532   1.060   1.006 -3.2756  0.6134  1.8019
   19SOL    HW2   57   1.599   0.908   1.009 -1.5946  0.2472 -2.3914
   20SOL     OW   58   2.222   1.738   2.809  0.3065 -0.0869  0.4741
   20SOL    HW1   59   2.175   1.717   2.724 -0.9492  0.9901  2.9504
   20SOL    HW2   60   2.264   1.828   2.793 -1.0092  0.0837 -0.1570
   21SOL     OW   61   1.477   2.988   0.285  0.0719 -0.2651  0.1224
   21SOL    HW1   62   1.401   2.977   0.219  2.4229  0.6854  1.5227
   21SOL    HW2   63   1.517   3.083   0.285 -1.1008 -0.7564  1.1361
   22SOL     OW   64   2.661   0.881   0.583 -0.0241  0.2199  0.4890
   22SOL    HW1   65   2.599   0.961   0.597 -0.5865  1.2264 -2.4409
   22SOL    HW2   66   2.609   0.790   0.594  1.3444 -0.0690  2.5872
   23SOL     OW   67   0.756   0.150   1.806 -0.5946  0.5629  0.1971
   23SOL    HW1   68   0.856   0.171   1.800  0.1117  0.4195  0.0498
   23SOL    HW2   69   0.699   0.232   1.783 -1.0644  0.8221  1.0593
   24SOL     OW   70   1.795   2.415   0.591 -0.0551  0.1795  0.2900
   24SOL    HW1   71   1.891   2.435   0.608 -0.0431 -1.0319 -1.3125
   24SOL    HW2   72   1.751   2.368   0.668  0.2937 -1.1529 -1.7008
   25SOL     OW   73   1.916   0.149   2.299  0.4474 -0.0267 -0.2895
   25SOL    HW1   74   1.876   0.056   2.314 -1.4151 -0.4375  0.9111
   25SOL    HW2   75   1.868   0.197   2.223 -2.5330 -1.3260 -0.7539
   26SOL     OW   76   1.576   2.702   2.603  0.1212 -0.5666 -0.0368
   26SOL    HW1   77   1.563   2.740   2.697 -0.8497  1.8773  0.0434
   26SOL    HW2   78   1.528   2.611   2.600 -1.9430  0.8921 -0.7245
   27SOL     OW   79   1.279   0.453   1.062 -0.7991  0.2309 -0.2815
   27SOL    HW1   80   1.333   0.376   1.109  1.8182 -0.1219  1.6136
   27SOL    HW2   81   1.194   0.416   1.018 -3.0004 -1.5083 -0.2274
   28SOL     OW   82   0.531   1.788   0.925 -0.3416 -0.5029 -0.1030
   28SOL    HW1   83   0.562   1.778   1.019 -0.5489 -0.9792 -2.2195
   28SOL    HW2   84   0.436   1.818   0.927  0.8916  3.6238 -2.1404
   29SOL     OW   85   2.556   0.612   1.410 -0.0068 -0.6575  0.2952
   29SOL    HW1   86   2.543   0.667   1.323  0.5485 -0.7809 -2.3498
   29SOL    HW2   87   2.574   0.513   1.389 -1.4780  3.0551  0.6350
   30SOL     OW   88   1.633   2.441   1.358  0.2895  0.1893 -0.1496
   30SOL    HW1   89   1.699   2.367   1.325  2.4482  0.7723 -0.2652
   30SOL    HW2   90   1.563   2.468   1.288  0.9584 -2.5458  0.6631
   31SOL     OW   91   1.872   2.833   1.426  0.3158 -0.1480 -0.1674
   31SOL    HW1   92   1.887   2.735   1.418 -0.9486 -1.4090  1.8822
   31SOL    HW2   93   1.923   2.885   1.352 -0.1261  0.5319 -1.8255
   32SOL     OW   94   2.033   1.622   2.035  0.0780  0.0858  0.3612
   32SOL    HW1   95   2.047   1.525   2.064  0.5835 -3.6934 -2.5231
   32SOL    HW2   96   2.123   1.665   2.028 -0.7288 -1.5924 -1.3419
   33SOL     OW   97   2.434   3.059   2.468 -0.0929  0.2491  0.7500
   33SOL    HW1   98   2.366   3.091   2.539 -3.8795  1.0730  1.4896
   33SOL    HW2   99   2.388   3.016   2.389  0.3907  0.6397 -2.6639
   34SOL     OW  100   2.001   0.504   0.733  0.1028  0.1054  0.1372
   34SOL    HW1  101   2.018   0.459   0.644  0.2979 -1.2677  0.0834
   34SOL    HW2  102   1.905   0.482   0.773 -3.3630  0.0344 -0.6931
   35SOL     OW  103   0.242   1.849   1.947  0.2513 -0.5615  0.8391
   35SOL    HW1  104   0.212   1.929   2.005 -0.0179 -1.6492 -0.2342
   35SOL    HW2  105   0.176   1.771   1.960 -1.7044  1.1410  1.3908
   36SOL     OW  106   2.548   2.005   2.805 -0.1879  0.2086  0.0722
   36SOL    HW1  107   2.590   1.910   2.822  2.8008 -0.6791  0.4522
   36SOL    HW2  108   2.620   2.068   2.772 -0.0198 -1.4842 -2.8133
   37SOL     OW  109   1.381   3.036   1.820  0.0131 -0.6082 -0.0737
   37SOL    HW1  110   1.445   3.104   1.870  1.8639  1.1282  2.4644
   37SOL    HW2  111   1.432   2.955   1.812  0.5422  0.8321 -0.9072
   38SOL     OW  112   1.037   0.436   2.492  0.1205  0.4741 -0.5162
   38SOL    HW1  113   1.113   0.505   2.484  0.1544  1.3711  1.5151
   38SOL    HW2  114   1.050   0.367   2.569 -1.6103  4.1842  0.7125
   39SOL     OW  115   1.811   0.921   1.632  0.2740  0.8640  0.1886
   39SOL    HW1  116   1.900   0.969   1.644 -2.3443 -0.7005  0.8991
   39SOL    HW2  117   1.770   0.934   1.540  1.2713  1.4231  0.7058
   40SOL     OW  118   1.001   2.317   0.767  0.2055  0.0313 -0.6471
   40SOL    HW1  119   0.961   2.233   0.804 -0.2566  1.2552 -0.0538
   40SOL    HW2  120   1.101   2.302   0.760  0.9176  0.0910 -1.2557
   41SOL     OW  121   2.242   2.222   1.182 -0.9638  0.2097 -0.1966
   41SOL    HW1  122   2.196   2.299   1.234 -0.3309 -0.0425  1.0490
   41SOL    HW2  123   2.186   2.173   1.114 -0.9918 -1.2485 -0.0861
   42SOL     OW  124   2.662   0.260   0.367  0.6281  0.1877 -0.5725
   42SOL    HW1  125   2.588   0.276   0.433  0.1308  0.5957 -0.9873
   42SOL    HW2  126   2.622   0.235   0.274  0.6746 -0.8206 -2.6774
   43SOL     OW  127   0.946   1.043   2.580 -0.3886 -0.0746  0.9091
   43SOL    HW1  128   0.882   0.986   2.636 -0.3339  0.2791 -3.1529
   43SOL    HW2  129   0.894   1.127   2.554 -0.1976 -1.4506  0.2512
   44SOL     OW  130   1.876   2.546   1.435  0.4388  0.4604  0.4774
   44SOL    HW1  131   1.782   2.500   1.425  0.5542 -0.4978 -0.6840
   44SOL    HW2  132   1.941   2.507   1.364  2.2075  0.4502 -0.9337
   45SOL     OW  133   0.812   2.492   2.776 -0.0101 -0.9112  0.1179
   45SOL    HW1  134   0.793   2.555   2.854 -2.0036 -0.0713 -0.3820
   45SOL    HW2  135   0.872   2.538   2.707 -0.0766  1.2602 -2.0067
   46SOL     OW  136   0.497   2.617   2.128  0.3441 -0.0732 -0.4336
   46SOL    HW1  137   0.501   2.705   2.078  0.0254  2.0433 -1.3727
   46SOL    HW2  138   0.489   2.622   2.232  0.3996 -0.4460  3.5767
   47SOL     OW  139   0.523   2.035   0.521  0.2639 -0.0232 -0.6960
   47SOL    HW1  140   0.550   1.936   0.519 -0.6528 -1.5604  0.0454
   47SOL    HW2  141   0.434   2.035   0.576  0.6347  0.9215 -0.2157
   48SOL     OW  142   0.795   2.927   1.080 -0.0944  0.6035  0.3673
   48SOL    HW1  143   0.733   2.983   1.138  0.5738 -0.1760  0.8423
   48SOL    HW2  144   0.751   2.836   1.070  2.4144 -1.5420 -0.4862
   49SOL     OW  145   2.987   2.735   2.733 -0.0177  0.0084  0.3970
   49SOL    HW1  146   2.932   2.750   2.650 -0.9394  1.0361 -1.1174
   49SOL    HW2  147   2.972   2.808   2.800 -0.6830 -0.8124  0.0572
   50SOL     OW  148   1.495   1.200   0.379  0.6522  0.1115 -0.3168
   50SOL    HW1  149   1.396   1.207   0.403  0.8460  0.0309  0.3632
   50SOL    HW2  150   1.541   1.133   0.440 -1.2034 -0.1819 -0.1858
   51SOL     OW  151   2.130   0.139   0.563  0.3786 -0.2850 -0.3260
   51SOL    HW1  152   2.087   0.183   0.483  0.2199 -1.2310 -0.1213
   51SOL    HW2  153   2.063   0.139   0.636 -1.1033  0.3021 -1.0694
   52SOL     OW  154   0.634   1.775   0.660  0.2054  0.1073  0.2052
   52SOL    HW1  155   0.632   1.794   0.762 -0.0567 -2.0817 -1.8326
   52SOL    HW2  156   0.721   1.727   0.632  1.6738 -1.1805 -1.5768
   53SOL     OW  157   0.385   1.100   2.896 -0.5261  0.5393 -0.2411
   53SOL    HW1  158   0.288   1.065   2.886 -0.5833  0.9770  0.6955
   53SOL    HW2  159   0.400   1.120   2.995  0.9897 -0.3614 -1.6324
   54SOL     OW  160   2.524   2.034   0.228 -0.2210 -0.0333 -0.2893
   54SOL    HW1  161   2.517   2.094   0.307 -2.4787 -1.2545 -1.4099
   54SOL    HW2  162   2.479   1.942   0.250  0.2427 -1.4999  1.6283
   55SOL     OW  163   2.540   2.376   1.253  0.0416  0.3229  0.3428
   55SOL    HW1  164   2.599   2.430   1.319  0.2626 -2.2602 -2.4422
   55SOL    HW2  165   2.441   2.395   1.270 -0.5063  1.2147 -1.0584
   56SOL     OW  166   1.482   3.030   1.438 -0.3220  0.4365  0.3205
   56SOL    HW1  167   1.425   2.962   1.496 -1.7775  1.9443  5.4820
   56SOL    HW2  168   1.541   3.081   1.503  2.9318  3.3554  2.2658
   57SOL     OW  169   1.689   1.698   0.963  0.0711  0.0365 -0.4119
   57SOL    HW1  170   1.648   1.723   1.047  0.0593 -0.2021 -3.1139
   57SOL    HW2  171   1.664   1.602   0.943  3.1365 -0.3146  2.7761
   58SOL     OW  172   2.509   0.302   1.828  0.5572  0.3728  0.2060
   58SOL    HW1  173   2.536   0.381   1.886  0.4478 -0.4952  0.4177
   58SOL    HW2  174   2.590   0.255   1.788 -1.3118  1.3812  0.4848
   59SOL     OW  175   1.121   2.385   2.083 -0.1209  0.1484 -0.1064
   59SOL    HW1  176   1.153   2.439   2.165 -0.4599 -3.3156  1.5285
   59SOL    HW2  177   1.019   2.399   2.067 -1.0818  1.2565 -0.8312
   60SOL     OW  178   0.855   3.105   2.699  0.2824  0.0056 -0.4645
   60SOL    HW1  179   0.766   0.051   2.709  0.1473  0.4125 -0.2929
   60SOL    HW2  180   0.862   3.031   2.767  0.2608  0.3022  0.2585
   61SOL     OW  181   0.761   2.147   0.637 -0.3446  0.0852  0.5126
   61SOL    HW1  182   0.819   2.167   0.554  0.6227  1.6041  0.6777
   61SOL    HW2  183   0.681   2.091   0.602 -0.4622  0.5200 -0.9230
   62SOL     OW  184   1.165   1.654   1.842  0.3645 -0.0535 -1.1385
   62SOL    HW1  185   1.095   1.640   1.769 -0.0914  3.1902  0.6656
   62SOL    HW2  186   1.135   1.735   1.904 -1.3861  1.1657  2.5736
   63SOL     OW  187   1.007   1.861   0.865 -0.3171  0.7070  0.4033
   63SOL    HW1  188   0.979   1.829   0.959  1.7685  0.7191  0.0758
   63SOL    HW2  189   1.057   1.786   0.817 -1.7369  1.1832  0.7699
   64SOL     OW  190   1.470   1.525   2.924 -0.3283  0.6758 -0.1753
   64SOL    HW1  191   1.373   1.558   2.931  2.2957  0.5392 -0.2848
   64SOL    HW2  192   1.473   1.423   2.904  1.2166  0.0174 -0.4933
   65SOL     OW  193   1.683   2.167   2.271 -0.0252 -0.0678  0.2185
   65SOL    HW1  194   1.662   2.083   2.227  0.3253  1.5599  0.5616
   65SOL    HW2  195   1.786   2.180   2.285  1.0389  0.9414 -1.6734
   66SOL     OW  196   0.066   0.922   1.048  0.3184  0.6041  0.1866
   66SOL    HW1  197   0.159   0.926   1.088 -2.1009 -0.3048 -0.9549
   66SOL    HW2  198   0.067   0.863   0.966  0.9350  0.7298 -0.7655
   67SOL     OW  199   2.301   2.494   0.429  0.0447  0.0062  0.3372
   67SOL    HW1  200   2.286   2.451   0.520 -1.2986 -0.0527 -1.9631
   67SOL    HW2  201   2.267   2.426   0.358 -0.2990  1.9637  0.4973
   68SOL     OW  202   2.654   2.542   1.448  0.1386  0.1537 -0.0070
   68SOL    HW1  203   2.712   2.630   1.430 -0.2931  2.5898 -0.7487
   68SOL    HW2  204   2.653   2.525   1.549  0.2736  3.6345  1.5141
   69SOL     OW  205   2.660   2.622   2.827 -0.1942 -0.3569  0.5920
   69SOL    HW1  206   2.720   2.567   2.768 -0.3660 -0.1262 -0.1375
   69SOL    HW2  207   2.583   2.657   2.773  3.6183  1.3917 -0.5016
   70SOL     OW  208   0.405   1.314   2.727  0.6929  0.4984  0.5976
   70SOL    HW1  209   0.466   1.284   2.649  0.2241  1.4767 -0.0424
   70SOL    HW2  210   0.383   1.235   2.785 -0.9122 -0.0428  0.2169
   71SOL     OW  211   0.915   1.206   2.054 -0.0264  0.0118  0.2535
   71SOL    HW1  212   0.836   1.144   2.042  2.6011  1.5805  0.7345
   71SOL    HW2  213   0.898   1.287   1.993 -3.1046 -2.6459 -0.6743
   72SOL     OW  214   2.555   1.270   2.007  0.1866  0.5391 -0.0385
   72SOL    HW1  215   2.547   1.171   2.025 -2.6380 -2.7889  0.3176
   72SOL    HW2  216   2.584   1.324   2.092 -0.2228  2.7685  1.1418
   73SOL     OW  217   0.568   1.845   2.891  0.3947 -0.0079  0.4342
   73SOL    HW1  218   0.544   1.917   2.822  0.4770  1.0357 -4.4522
   73SOL    HW2  219   0.639   1.786   2.850 -3.4459 -0.3939  3.9085
   74SOL     OW  220   1.461   2.791   1.747  0.1107  0.4546 -0.4277
   74SOL    HW1  221   1.420   2.740   1.829 -4.3272 -1.2813  0.2665
   74SOL    HW2  222   1.541   2.742   1.702  0.7078 -1.0976 -1.7542
   75SOL     OW  223   1.072   2.853   0.599 -0.1597 -0.4803  0.4578
   75SOL    HW1  224   1.094   2.798   0.681 -1.3849 -0.1967  0.3409
   75SOL    HW2  225   1.144   2.923   0.591 -0.1292  1.0547 -2.3198
   76SOL     OW  226   0.253   1.631   2.832  0.3799 -0.2219 -0.2006
   76SOL    HW1  227   0.340   1.590   2.867  0.2401  0.1312  0.8973
   76SOL    HW2  228   0.169   1.574   2.823 -0.9224  0.3334  0.4990
   77SOL     OW  229   0.436   2.406   1.258 -0.0564  0.4514  0.3221
   77SOL    HW1  230   0.440   2.477   1.186  1.3440 -0.0435  0.6033
   77SOL    HW2  231   0.498   2.441   1.335  0.8875  3.0887 -0.2578
   78SOL     OW  232   2.567   1.159   0.178 -0.4035 -0.4895 -0.8923
   78SOL    HW1  233   2.581   1.061   0.206  0.9268  0.7597 -0.1192
   78SOL    HW2  234   2.627   1.218   0.233 -0.3575 -2.3972 -0.4647
   79SOL     OW  235   0.537   1.733   0.072  0.1082 -0.2352 -0.4937
   79SOL    HW1  236   0.520   1.640   0.046  0.6589  1.5126 -3.4041
   79SOL    HW2  237   0.532   1.788   3.092  1.0191 -2.0455  0.6195
   80SOL     OW  238   1.836   1.605   1.593  0.1953 -0.3968  0.3029
   80SOL    HW1  239   1.856   1.658   1.674  0.1489 -1.1782  0.2491
   80SOL    HW2  240   1.737   1.579   1.588  1.8519 -0.6136  0.8553
   81SOL     OW  241   2.296   0.850   2.199 -0.1395  1.0087 -0.2279
   81SOL    HW1  242   2.236   0.771   2.176 -1.6812 -1.9903 -2.4767
   81SOL    HW2  243   2.272   0.896   2.287 -1.9593  0.3794 -2.6803
   82SOL     OW  244   1.543   1.588   1.577 -0.3453 -0.3108 -0.5480
   82SOL    HW1  245   1.495   1.498   1.590  0.5380 -1.7008  1.3221
   82SOL    HW2  246   1.496   1.654   1.638 -0.4172 -1.1423  0.3825
   83SOL     OW  247   0.250   0.156   2.986 -0.2554  0.3241 -0.3597
   83SOL    HW1  248   0.192   0.095   2.928  0.5594  0.1640  0.3632
   83SOL    HW2  249   0.300   0.099   3.058 -1.0504  0.6918  1.4832
   84SOL     OW  250   0.739   1.197   0.321 -0.0392 -0.5255  0.3639
   84SOL    HW1  251   0.760   1.152   0.230 -2.5173  0.5891 -1.1766
   84SOL    HW2  252   0.658   1.264   0.315  1.0979 -0.7466 -0.0434
   85SOL     OW  253   2.413   1.843   1.749  0.6503  0.1236  0.1430
   85SOL    HW1  254   2.410   1.740   1.729  1.2329 -3.2189  0.3910
   85SOL    HW2  255   2.463   1.897   1.679 -1.0755 -1.4098  0.3859
   86SOL     OW  256   0.518   0.504   1.119 -0.5076 -0.3495  0.1438
   86SOL    HW1  257   0.600   0.564   1.102  0.8720  4.6274 -0.0659
   86SOL    HW2  258   0.508   0.475   1.223 -1.6560  0.5551 -1.8509
   87SOL     OW  259   2.555   2.360   2.591  0.3701  0.1141 -0.6237
   87SOL    HW1  260   2.641   2.419   2.598  1.3179 -1.6082  0.0058
   87SOL    HW2  261   2.470   2.422   2.589 -4.1887  2.5095 -0.0913
   88SOL     OW  262   0.175   2.957   0.063  0.0478 -0.0847  0.5382
   88SOL    HW1  263   0.212   2.863   0.075  0.8231 -0.5555  0.6112
   88SOL    HW2  264   0.245   3.028   0.042 -1.6745 -1.4854  2.3144
   89SOL     OW  265   1.487   0.088   3.008  0.0296 -0.0852  0.4501
   89SOL    HW1  266   1.432   0.035   2.943  1.3143 -0.6707 -3.0612
   89SOL    HW2  267   1.434   0.175   3.031  2.1020  0.9852 -2.7925
   90SOL     OW  268   3.065   1.552   2.382  0.1739  0.3996  0.1853
   90SOL    HW1  269   3.034   1.552   2.479 -3.1100  0.1427 -0.3927
   90SOL    HW2  270   3.052   1.460   2.337 -0.2781 -2.1538 -1.3730
   91SOL     OW  271   2.053   2.947   1.269  0.2856 -0.3140 -0.1965
   91SOL    HW1  272   2.122   3.016   1.297 -0.0223  0.7650  0.1592
   91SOL    HW2  273   2.080   2.907   1.174  1.1135 -2.0814 -1.1487
   92SOL     OW  274   1.832   1.371   0.796  0.1222  0.2948  0.1508
   92SOL    HW1  275   1.813   1.274   0.771  1.9358  2.0028 -1.3907
   92SOL    HW2  276   1.763   1.404   0.864 -0.0890 -0.0313  0.5863
   93SOL     OW  277   0.262   1.500   0.386  0.3215 -0.1771 -0.5413
   93SOL    HW1  278   0.299   1.579   0.432  1.6497 -0.4495 -1.3236
   93SOL    HW2  279   0.214   1.523   0.298 -3.5779  0.7585 -0.7072
   94SOL     OW  280   1.032   2.599   1.320  0.0696 -0.0704  0.0537
   94SOL    HW1  281   1.108   2.568   1.377 -0.0829 -0.2155 -2.8712
   94SOL    HW2  282   0.970   2.659   1.373  1.2982  1.9843  0.6224
   95SOL     OW  283   0.257   0.634   0.623 -0.1840 -0.5591  0.0387
   95SOL    HW1  284   0.318   0.712   0.594  0.1946 -1.5285 -1.5778
   95SOL    HW2  285   0.219   0.653   0.714  0.4607  2.5289 -0.5860
   96SOL     OW  286   0.459   3.057   1.677 -0.1220 -0.5041  0.1332
   96SOL    HW1  287   0.558   3.040   1.696  1.2346 -0.6517 -0.6909
   96SOL    HW2  288   0.407   2.966   1.675 -0.8699  1.0240 -1.0250
   97SOL     OW  289   2.157   0.712   0.829  0.1558 -0.2095 -0.2067
   97SOL    HW1  290   2.106   0.636   0.781 -1.6668  0.8724  2.4999
   97SOL    HW2  291   2.201   0.763   0.753  0.0152  1.5975 -1.6420
   98SOL     OW  292   2.878   2.248   1.711  0.0754  0.4061 -0.3661
   98SOL    HW1  293   2.914   2.326   1.770  2.0666 -1.1911  1.7541
   98SOL    HW2  294   2.867   2.280   1.612  1.3823 -0.2003 -3.4152
   99SOL     OW  295   2.893   0.392   1.477 -1.0817  0.1674 -0.0057
   99SOL    HW1  296   2.926   0.324   1.549  1.3350  1.4607  2.5475
   99SOL    HW2  297   2.920   0.484   1.514  0.2661 -2.2748 -0.3919
  100SOL     OW  298   2.105   0.402   2.709  0.2549 -0.3296  0.9492
  100SOL    HW1  299   2.095   0.489   2.652  1.3987  0.3326 -2.6985
  100SOL    HW2  300   2.048   0.328   2.662 -0.3252 -3.3058 -1.1243
  101SOL     OW  301   0.807   0.070   2.273  0.5352 -0.3484 -0.1263
  101SOL    HW1  302   0.796   3.091   2.223 -1.2409  1.1368  1.6880
  101SOL    HW2  303   0.904   0.069   2.304 -0.1948 -1.4621  0.7058
  102SOL     OW  304   0.824   0.490   1.500 -0.1242 -0.8173 -0.8958
  102SOL    HW1  305   0.803   0.417   1.430 -1.0269 -0.0364 -0.3599
  102SOL    HW2  306   0.760   0.571   1.486 -2.7274  1.4017  1.2195
  103SOL     OW  307   1.102   0.833   2.634 -0.2865  0.2113  0.4410
  103SOL    HW1  308   1.128   0.775   2.552 -3.6918 -0.3654 -4.3317
  103SOL    HW2  309   1.047   0.916   2.601 -1.7184 -0.0593 -0.1180
  104SOL     OW  310   0.373   0.206   2.019 -0.4350  0.1883  0.3756
  104SOL    HW1  311   0.466   0.214   2.067 -0.4584 -1.6823 -0.2454
  104SOL    HW2  312   0.359   0.139   1.944  0.1066  1.6394  0.1841
  105SOL     OW  313   2.497   2.074   1.555 -0.3100 -0.5390 -0.4044
  105SOL    HW1  314   2.590   2.032   1.548 -0.6707 -0.3544  0.3887
  105SOL    HW2  315   2.493   2.121   1.648  0.3698  0.1046 -0.5453
  106SOL     OW  316   1.150   3.075   0.381 -0.1717  0.0225  0.3264
  106SOL    HW1  317   1.191   3.040   0.299 -0.4020  3.4112 -2.4620
  106SOL    HW2  318   1.217   3.092   0.457  1.7444 -0.2124  0.9303
  107SOL     OW  319   2.588   1.950   1.290 -0.8341 -0.0385 -0.0039
  107SOL    HW1  320   2.495   1.977   1.267  0.5331  1.0533 -2.8238
  107SOL    HW2  321   2.660   1.996   1.232 -1.6687  1.4237 -1.2184
  108SOL     OW  322   3.055   2.310   0.483  0.2246  0.2341 -0.7013
  108SOL    HW1  323   0.045   2.274   0.479 -1.3093 -0.4683 -3.2571
  108SOL    HW2  324   3.058   2.397   0.539  0.5981  0.4080 -2.5337
  109SOL     OW  325   1.549   2.983   0.641  0.1156 -0.1602  0.1867
  109SOL    HW1  326   1.572   2.905   0.573  0.3963 -0.6958  1.5873
  109SOL    HW2  327   1.624   3.050   0.640 -2.6930 -2.7041 -1.9200
  110SOL     OW  328   1.607   1.391   0.941  0.2391  0.3133  0.2326
  110SOL    HW1  329   1.561   1.375   1.027 -1.0330 -1.3821 -1.5836
  110SOL    HW2  330   1.545   1.399   0.862  2.1100  1.5448  1.8485
  111SOL     OW  331   1.696   2.510   1.888 -0.1996 -0.2140  0.2075
  111SOL    HW1  332   1.606   2.532   1.931  1.2268  0.6952  0.1427
  111SOL    HW2  333   1.709   2.408   1.876  1.0677 -0.8161 -1.3623
  112SOL     OW  334   1.920   2.283   2.785  0.3305 -0.2651 -0.1516
  112SOL    HW1  335   1.926   2.264   2.884  0.3918  3.6754 -0.4601
  112SOL    HW2  336   1.920   2.383   2.769  2.2049 -0.3833 -1.1997
  113SOL     OW  337   2.109   1.979   1.839 -0.3354  0.2488 -0.2154
  113SOL    HW1  338   2.186   1.908   1.843  0.9463 -0.2588  1.9915
  113SOL    HW2  339   2.072   1.972   1.743 -1.2373 -1.5221 -0.0583
  114SOL     OW  340   0.111   1.114   1.558  0.4044 -0.2923  0.3997
  114SOL    HW1  341   0.026   1.167   1.590 -2.0157  1.3285  0.7467
  114SOL    HW2  342   0.169   1.176   1.494 -0.4023  2.1347 -2.6587
  115SOL     OW  343   3.002   0.812   2.892  0.0074  0.0477 -0.3627
  115SOL    HW1  344   3.071   0.851   2.829  1.4073  0.4248 -1.1410
  115SOL    HW2  345   2.914   0.813   2.832 -1.6646  0.6530 -2.2088
  116SOL     OW  346   2.741   0.415   2.820 -0.7119  0.0916  0.0233
  116SOL    HW1  347   2.823   0.447   2.871 -2.8236 -0.4054  0.5040
  116SOL    HW2  348   2.755   0.403   2.717 -0.7956 -2.1319 -4.6537
  117SOL     OW  349   2.611   2.859   0.277 -0.2289  0.1782 -0.0196
  117SOL    HW1  350   2.700   2.865   0.319 -1.6467 -1.4020  0.3440
  117SOL    HW2  351   2.595   2.766   0.232 -1.8905 -0.0575 -0.0251
  118SOL     OW  352   0.466   1.954   2.225 -0.1247  0.1259 -0.4958
  118SOL    HW1  353   0.427   2.020   2.290 -0.9017 -0.5955 -1.9171
  118SOL    HW2  354   0.557   1.977   2.180  2.2514  2.4941  1.0894
  119SOL     OW  355   0.686   2.690   0.218 -0.4912  0.2355  0.4855
  119SOL    HW1  356   0.707   2.639   0.304  1.5205 -1.4075  0.1249
  119SOL    HW2  357   0.723   2.785   0.211 -0.6983 -0.6960 -2.2620
  120SOL     OW  358   1.476   0.886   0.419  0.0051  0.2940  0.4026
  120SOL    HW1  359   1.408   0.835   0.476  1.0327  0.9771 -2.9893
  120SOL    HW2  360   1.535   0.949   0.469 -0.6104 -0.6573 -1.8181
  121SOL     OW  361   1.778   0.373   0.824  0.4414 -0.0834 -0.3320
  121SOL    HW1  362   1.761   0.389   0.928 -1.2599 -1.4790  4.1025
  121SOL    HW2  363   1.695   0.385   0.773  2.9812 -0.6641  1.8570
  122SOL     OW  364   2.104   1.333   2.291  0.0303  0.0607 -0.0557
  122SOL    HW1  365   2.014   1.373   2.317  0.4729 -0.5348 -1.4486
  122SOL    HW2  366   2.118   1.325   2.191  2.5295  1.1547 -0.7360
  123SOL     OW  367   1.069   1.036   0.953 -0.4139 -0.6847 -0.3733
  123SOL    HW1  368   1.100   0.939   0.976 -0.7180 -2.8565 -3.1587
  123SOL    HW2  369   0.975   1.056   0.981  3.3019 -1.4875  1.0864
  124SOL     OW  370   0.658   0.656   2.747  0.1454 -0.7580 -0.1794
  124SOL    HW1  371   0.618   0.626   2.659 -0.5332 -1.3381 -1.4747
  124SOL    HW2  372   0.733   0.591   2.778  0.1025 -1.0142 -2.3401
  125SOL     OW  373   1.098   0.270   0.154  0.0545 -0.3567 -0.3673
  125SOL    HW1  374   1.003   0.231   0.143 -3.6194  0.5403 -2.2684
  125SOL    HW2  375   1.112   0.325   0.245  2.0859  2.2880  1.3091
  126SOL     OW  376   0.404   1.727   0.520  0.3749 -0.2640 -0.1505
  126SOL    HW1  377   0.315   1.769   0.557 -1.2220 -0.9927  1.4460
  126SOL    HW2  378   0.484   1.737   0.579 -0.9748  0.4241 -0.6873
  127SOL     OW  379   0.931   2.544   1.694 -0.4987  0.1240 -0.7318
  127SOL    HW1  380   0.844   2.585   1.660 -0.1670 -2.4741  0.7132
  127SOL    HW2  381   1.001   2.610   1.727 -5.2203  1.5189 -1.1275
  128SOL     OW  382   1.018   1.788   0.385 -0.2727 -0.1125  0.5016
  128SOL    HW1  383   1.034   1.728   0.302 -2.4049 -0.2461 -3.5089
  128SOL    HW2  384   0.995   1.885   0.356  2.7842  0.4153 -0.6014
  129SOL     OW  385   1.746   1.564   2.050  0.0344  0.0376 -0.0455
  129SOL    HW1  386   1.685   1.592   1.975  2.0867 -2.9385  0.2426
  129SOL    HW2  387   1.848   1.580   2.029 -0.2445 -0.4258 -2.3884
  130SOL     OW  388   2.047   1.947   1.564 -0.0795  0.5938 -0.3843
  130SOL    HW1  389   2.131   1.959   1.500  2.6498  2.2014 -0.9743
  130SOL    HW2  390   1.985   1.878   1.524 -2.0982 -0.0548 -0.5921
  131SOL     OW  391   0.234   2.278   2.013  0.2375 -0.1054  0.1121
  131SOL    HW1  392   0.233   2.181   2.051  3.2723 -0.5653 -0.4110
  131SOL    HW2  393   0.227   2.273   1.911 -0.9406 -0.0376 -0.3166
  132SOL     OW  394   2.678   1.788   0.762  0.0544 -0.4755  0.2744
  132SOL    HW1  395   2.709   1.689   0.768  3.1252 -0.5361  0.7760
  132SOL    HW2  396   2.759   1.843   0.739 -0.4071 -1.8644 -0.6952
  133SOL     OW  397   0.665   0.889   1.660  0.1683 -0.2876  0.3708
  133SOL    HW1  398   0.692   0.983   1.648 -2.2076 -1.8375  0.7629
  133SOL    HW2  399   0.738   0.837   1.710 -0.7594  0.0922 -1.4773
  134SOL     OW  400   2.667   1.320   0.396  0.2571  0.1026  0.1890
  134SOL    HW1  401   2.766   1.344   0.377 -0.9793 -0.6244 -0.8868
  134SOL    HW2  402   2.637   1.391   0.464 -0.0632 -1.5861 -0.1289
  135SOL     OW  403   1.837   1.056   2.981  0.4612  0.6998 -0.1250
  135SOL    HW1  404   1.847   1.154   3.012  0.5724 -2.6198  2.7017
  135SOL    HW2  405   1.867   1.047   2.885  2.3652  1.1410  0.0651
  136SOL     OW  406   2.768   1.480   1.070  0.0054 -0.0663  0.3128
  136SOL    HW1  407   2.674   1.463   1.104  1.6434  2.1820  0.6061
  136SOL    HW2  408   2.827   1.417   1.118 -2.7148  2.8453  0.1162
  137SOL     OW  409   2.316   1.858   0.531  0.5685  0.4150  0.0437
  137SOL    HW1  410   2.299   1.768   0.573 -1.9010  3.4837 -2.7684
  137SOL    HW2  411   2.371   1.922   0.597  1.6248  2.6004  3.4146
  138SOL     OW  412   2.523   0.666   0.671  0.5549 -0.0227  0.1627
  138SOL    HW1  413   2.607   0.623   0.623  3.3177 -0.9164 -0.8465
  138SOL    HW2  414   2.441   0.623   0.625  1.0245  0.6227 -0.9911
  139SOL     OW  415   2.910   2.976   2.856 -0.0583  0.0099  0.0827
  139SOL    HW1  416   2.864   2.977   2.947 -0.0485 -0.1685 -0.6304
  139SOL    HW2  417   2.864   3.032   2.784 -2.2597 -2.7269 -0.4766
  140SOL     OW  418   0.704   1.194   1.726 -0.2700  0.8523 -0.2694
  140SOL    HW1  419   0.670   1.184   1.823 -0.4567  0.3367 -1.6278
  140SOL    HW2  420   0.653   1.268   1.685  1.0898  2.3159  1.7061
  141SOL     OW  421   1.315   1.601   0.886 -0.1549 -0.1975  0.0648
  141SOL    HW1  422   1.339   1.554   0.974  2.1475 -0.5391  0.5804
  141SOL    HW2  423   1.348   1.700   0.899  2.4150  1.9769  0.6229
  142SOL     OW  424   1.330   0.930   1.193 -0.3738  0.0740  0.7803
  142SOL    HW1  425   1.309   0.851   1.130 -2.1439 -0.6354  0.2796
  142SOL    HW2  426   1.353   1.013   1.141 -1.7962  0.7978  0.3217
  143SOL     OW  427   0.750   0.924   2.750 -0.2102  0.1178 -0.3758
  143SOL    HW1  428   0.750   0.988   2.828 -0.0558 -1.0545 -0.9770
  143SOL    HW2  429   0.729   0.826   2.784 -0.9620 -3.8679  0.4380
  144SOL     OW  430   2.479   3.063   0.146 -0.0458 -0.9071 -0.2917
  144SOL    HW1  431   2.531   2.989   0.185  0.2216  2.1296 -1.9990
  144SOL    HW2  432   2.422   3.024   0.072 -0.8880  0.1272  0.4226
  145SOL     OW  433   2.332   0.256   2.798 -0.7375  0.6476 -0.1015
  145SOL    HW1  434   2.262   0.313   2.757  1.2887 -0.7619  0.6809
  145SOL    HW2  435   2.385   0.312   2.866  0.3968  2.8788  3.0157
  146SOL     OW  436   3.040   3.039   0.401 -0.1509  0.1382 -0.0562
  146SOL    HW1  437   3.034   2.991   0.313  0.4803  0.0019 -0.1478
  146SOL    HW2  438   2.949   3.076   0.429  0.3206  0.1363  1.6461
  147SOL     OW  439   1.442   1.268   2.822 -0.3900 -0.7458  0.1709
  147SOL    HW1  440   1.480   1.204   2.889  0.4919  1.3873  1.9005
  147SOL    HW2  441   1.355   1.239   2.776 -0.3798 -1.0566 -0.1385
  148SOL     OW  442   1.240   2.958   0.147  0.3375  0.1673  0.2433
  148SOL    HW1  443   1.290   2.928   0.064 -0.4720 -0.2625  0.2155
  148SOL    HW2  444   1.151   2.994   0.117 -0.1463  1.4463  0.0577
  149SOL     OW  445   1.366   0.814   2.184  0.1615  0.5543  0.3767
  149SOL    HW1  446   1.445   0.785   2.240  0.6155  1.4897  0.2016
  149SOL    HW2  447   1.378   0.905   2.135 -3.8311 -0.5083 -2.7825
  150SOL     OW  448   1.819   3.012   2.877  0.2895  0.4155  0.3561
  150SOL    HW1  449   1.829   3.058   2.967 -1.3433  0.1190  0.2724
  150SOL    HW2  450   1.915   2.992   2.844  1.3499  1.2974 -0.2757
  151SOL     OW  451   0.507   1.369   0.322  0.6004  0.4693  0.0785
  151SOL    HW1  452   0.509   1.423   0.237  0.5154  2.8448 -0.5576
  151SOL    HW2  453   0.423   1.388   0.376 -1.0324 -2.1088 -1.7989
  152SOL     OW  454   0.479   0.372   1.340 -0.2032  0.4815  0.1073
  152SOL    HW1  455   0.446   0.437   1.408 -1.8106  1.1662 -0.9745
  152SOL    HW2  456   0.539   0.303   1.383  1.3913  1.5895 -1.0332
  153SOL     OW  457   2.429   2.957   2.004 -0.3479  0.5975  0.3989
  153SOL    HW1  458   2.377   3.038   1.975  2.5513 -2.1961  1.0024
  153SOL    HW2  459   2.402   2.921   2.098  0.5380  0.9185 -0.2471
  154SOL     OW  460   2.065   2.967   2.135 -0.0548 -0.0243  0.2869
  154SOL    HW1  461   2.086   3.066   2.119 -2.2349  1.2714  0.0284
  154SOL    HW2  462   2.091   2.915   2.051  0.6730 -0.9391  0.5240
  155SOL     OW  463   0.395   1.023   0.714 -0.5302  0.0242  0.0483
  155SOL    HW1  464   0.301   1.036   0.680  2.2236 -2.4523 -1.2612
  155SOL    HW2  465   0.435   1.103   0.765  0.6335  0.3853 -1.0451
  156SOL     OW  466   2.259   1.599   0.639  0.1611 -0.3078  0.2648
  156SOL    HW1  467   2.333   1.537   0.653 -2.2964  4.8351 -0.2319
  156SOL    HW2  468   2.182   1.550   0.592  0.4406 -1.5974 -0.5758
  157SOL     OW  469   0.921   0.219   2.920 -0.4558 -0.0950  0.2382
  157SOL    HW1  470   0.942   0.134   2.966 -1.2948  0.9503 -1.6829
  157SOL    HW2  471   0.827   0.242   2.944 -0.9640 -1.0464  1.9591
  158SOL     OW  472   1.688   1.265   1.339 -0.2424  0.5901  0.4059
  158SOL    HW1  473   1.749   1.268   1.426  0.1190  2.5804 -1.7913
  158SOL    HW2  474   1.742   1.226   1.260  0.8228  1.8199  0.2627
  159SOL     OW  475   2.884   0.386   0.293 -0.1809  0.3326 -0.1036
  159SOL    HW1  476   2.967   0.350   0.337  1.7376  3.1554  0.9391
  159SOL    HW2  477   2.803   0.338   0.330  0.3499 -1.0620 -1.8081
  160SOL     OW  478   2.507   2.222   1.785  0.2147  0.0856  0.7208
  160SOL    HW1  479   2.608   2.233   1.802 -2.3860  1.8184 -0.6738
  160SOL    HW2  480   2.460   2.311   1.802  0.7392 -1.1943 -1.3327
  161SOL     OW  481   0.482   0.733   3.012 -0.5620 -0.5524  0.0453
  161SOL    HW1  482   0.493   0.767   2.914 -0.8155  3.4877 -1.7185
  161SOL    HW2  483   0.392   0.682   3.019 -0.8744 -3.3484 -1.0691
  162SOL     OW  484   0.624   0.388   1.720  0.0695  0.0520 -0.1541
  162SOL    HW1  485   0.547   0.454   1.707 -0.0989  0.9024  1.0345
  162SOL    HW2  486   0.701   0.395   1.651  1.5623  0.0291  1.4425
  163SOL     OW  487   2.652   0.178   2.408  0.3863  0.3753 -0.1293
  163SOL    HW1  488   2.590   0.101   2.428 -1.8170 -2.6297 -0.7109
  163SOL    HW2  489   2.711   0.146   2.331  0.7923 -0.4280  2.4397
  164SOL     OW  490   2.338   1.808   0.269 -0.1622 -0.5483  0.2203
  164SOL    HW1  491   2.262   1.850   0.222  2.5717 -0.3694  0.4502
  164SOL    HW2  492   2.330   1.825   0.374 -0.2842  2.5699  1.3724
  165SOL     OW  493   0.274   0.066   0.981  0.7735  0.0405  0.3771
  165SOL    HW1  494   0.281   0.095   0.885  1.2083 -0.6786  2.1624
  165SOL    HW2  495   0.344   0.113   1.039  0.1167 -1.6958  3.3970
  166SOL     OW  496   2.790   0.163   3.034 -0.5828 -0.2988  0.4949
  166SOL    HW1  497   2.798   0.158   2.934 -0.7913  0.0630  0.9087
  166SOL    HW2  498   2.805   0.066   3.071  1.9108 -2.6527 -0.9003
  167SOL     OW  499   2.218   0.649   0.334  0.2092  0.4270  0.2183
  167SOL    HW1  500   2.158   0.713   0.282 -3.0184 -2.1341 -2.0549
  167SOL    HW2  501   2.276   0.587   0.270 -0.6899 -3.9748  1.2467
  168SOL     OW  502   1.489   2.943   2.120  0.4657 -0.0763 -0.0240
  168SOL    HW1  503   1.456   3.034   2.152 -2.3631  0.4998 -2.1659
  168SOL    HW2  504   1.417   2.894   2.067  1.2844  2.1198  1.7445
  169SOL     OW  505   0.305   2.056   0.662  0.6703 -0.2133  0.0974
  169SOL    HW1  506   0.252   1.971   0.677  1.4071 -0.6229  2.1661
  169SOL    HW2  507   0.351   2.087   0.745 -2.2464 -0.1611 -4.9507
  170SOL     OW  508   0.132   0.425   1.502 -0.1001  0.7446  0.0756
  170SOL    HW1  509   0.080   0.423   1.589  1.1837  2.0392 -0.1379
  170SOL    HW2  510   0.112   0.341   1.446  0.0231 -2.9432 -1.5058
  171SOL     OW  511   2.757   1.403   2.579  0.9412  0.6213 -0.5011
  171SOL    HW1  512   2.747   1.365   2.487  0.1705  0.2431  2.1697
  171SOL    HW2  513   2.664   1.420   2.617  0.1088 -1.4659 -0.6593
  172SOL     OW  514   0.690   1.780   1.172 -0.2772 -0.0953  0.4040
  172SOL    HW1  515   0.709   1.679   1.178  0.8054  0.6636 -0.0149
  172SOL    HW2  516   0.779   1.829   1.147  0.0969  0.0214 -1.6950
  173SOL     OW  517   1.943   2.138   3.043  0.2882 -0.2356 -0.2099
  173SOL    HW1  518   1.918   2.040   3.019 -0.0716  0.4537  1.7745
  173SOL    HW2  519   1.899   2.164   0.025  0.2131  1.5858  1.5234
  174SOL     OW  520   1.916   0.720   2.947  0.0970 -0.6455 -0.0626
  174SOL    HW1  521   1.855   0.710   2.865  1.4466 -0.0759 -0.6106
  174SOL    HW2  522   1.868   0.756   3.032  1.0429  1.1103  0.4393
  175SOL     OW  523   0.539   1.780   1.892 -0.3736 -0.2004 -0.3138
  175SOL    HW1  524   0.568   1.872   1.914  1.1696 -3.1052 -0.8641
  175SOL    HW2  525   0.440   1.779   1.874  2.3541 -0.4609 -1.8834
  176SOL     OW  526   0.590   0.456   0.490 -0.0936  0.5870  0.3095
  176SOL    HW1  527   0.662   0.446   0.559  0.3240  1.1177 -1.0781
  176SOL    HW2  528   0.516   0.383   0.499 -1.6222 -0.3331 -1.7924
  177SOL     OW  529   0.181   1.560   0.108 -0.0058 -0.2631 -0.1946
  177SOL    HW1  530   0.111   1.503   0.067  2.0137 -1.3874 -0.9379
  177SOL    HW2  531   0.279   1.537   0.080  0.1878 -1.3733  0.6557
  178SOL     OW  532   3.071   2.181   2.459  0.1715  0.6544 -0.2121
  178SOL    HW1  533   0.028   2.219   2.530 -0.7077  0.8499  0.2476
  178SOL    HW2  534   0.008   2.108   2.403  0.1048  0.6979  1.4850
  179SOL     OW  535   2.599   3.040   2.907  0.2397  0.0543 -0.0541
  179SOL    HW1  536   2.597   0.010   2.839 -0.2915  0.1741 -0.5572
  179SOL    HW2  537   2.504   3.022   2.948 -1.4769 -0.7781 -0.2864
  180SOL     OW  538   2.458   0.804   0.911  0.0068  0.5082  0.4179
  180SOL    HW1  539   2.357   0.799   0.902  1.5113  0.5729  1.0564
  180SOL    HW2  540   2.499   0.760   0.831 -2.1122  1.9407  1.7315
  181SOL     OW  541   2.977   0.029   2.417  0.5777  0.1673  0.0968
  181SOL    HW1  542   2.940   0.075   2.337 -1.2011 -2.4304  3.1460
  181SOL    HW2  543   3.032   3.056   2.396 -0.9898  0.3514  0.3242
  182SOL     OW  544   2.319   2.503   2.579 -0.2908  0.2087 -0.0916
  182SOL    HW1  545   2.269   2.462   2.658  2.8195 -0.2475 -0.5919
  182SOL    HW2  546   2.264   2.492   2.493 -3.1247  0.4039  0.7573
  183SOL     OW  547   2.680   1.173   1.756 -0.9244  0.1318 -0.0045
  183SOL    HW1  548   2.622   1.181   1.835 -0.6003 -2.7656 -0.9661
  183SOL    HW2  549   2.781   1.186   1.782  1.9767 -0.0005 -0.7459
  184SOL     OW  550   2.789   1.553   0.787  0.1684  1.1998  0.0587
  184SOL    HW1  551   2.778   1.521   0.886  2.6445  3.3258  1.1348
  184SOL    HW2  552   2.878   1.525   0.745  1.0790  0.1498 -0.3590
  185SOL     OW  553   2.962   0.362   0.666  0.1098  0.0045  0.5544
  185SOL    HW1  554   2.993   0.335   0.574 -0.3086 -3.7190  1.8808
  185SOL    HW2  555   3.022   0.321   0.730 -4.5191  2.1396 -1.3757
  186SOL     OW  556   2.198   2.514   2.339 -0.1821  0.3673  0.1633
  186SOL    HW1  557   2.103   2.519   2.378 -0.6562 -1.5917  0.9869
  186SOL    HW2  558   2.224   2.416   2.315 -1.1766 -1.4791  1.3563
  187SOL     OW  559   0.491   1.538   0.794  0.1074  0.3094 -0.3492
  187SOL    HW1  560   0.568   1.502   0.737 -1.8610 -3.7318 -0.2194
  187SOL    HW2  561   0.520   1.618   0.855  1.3944  0.9833  1.3141
  188SOL     OW  562   1.785   1.788   0.560 -0.5736 -0.3661 -0.0541
  188SOL    HW1  563   1.814   1.693   0.573 -2.0970  4.6152  0.7545
  188SOL    HW2  564   1.692   1.812   0.586  0.2302  2.7243 -0.6522
  189SOL     OW  565   3.043   1.498   3.022  0.2234 -0.5233  0.3575
  189SOL    HW1  566   3.098   1.477   2.940 -0.0177  4.2408 -1.3094
  189SOL    HW2  567   2.948   1.465   3.018  2.1531  0.9554  1.0683
  190SOL     OW  568   2.497   0.398   2.273  0.4005  0.0005 -0.0995
  190SOL    HW1  569   2.399   0.427   2.302 -3.2293 -3.7188 -1.1649
  190SOL    HW2  570   2.524   0.319   2.330 -0.6470  0.6305 -1.5073
  191SOL     OW  571   0.959   0.769   2.220  0.2029  0.3449  0.2305
  191SOL    HW1  572   0.895   0.786   2.292  0.2479 -1.9619  1.3194
  191SOL    HW2  573   0.945   0.823   2.135  1.3452 -0.5080  0.9975
  192SOL     OW  574   1.554   1.452   2.208 -0.2213  0.1394  0.4726
  192SOL    HW1  575   1.633   1.499   2.167 -1.4355  0.4064  0.1700
  192SOL    HW2  576   1.568   1.354   2.192 -3.2827  0.7181 -0.6376
  193SOL     OW  577   1.392   2.796   1.129 -0.4695 -0.2991  0.3547
  193SOL    HW1  578   1.451   2.852   1.193  0.6071 -1.0803  0.2937
  193SOL    HW2  579   1.407   2.815   1.030 -2.0654 -2.1395  1.7455
  194SOL     OW  580   1.470   1.605   1.914  0.1326 -0.3629  0.1881
  194SOL    HW1  581   1.513   1.519   1.873 -1.2381  2.5956 -0.3877
  194SOL    HW2  582   1.405   1.579   1.984  3.2881 -1.3259 -0.6361
  195SOL     OW  583   1.944   0.162   0.762 -0.0157  0.0929 -0.1907
  195SOL    HW1  584   2.010   0.150   0.836 -1.4797 -3.4769 -1.3230
  195SOL    HW2  585   1.895   0.253   0.762 -1.6380  0.1784  1.8175
  196SOL     OW  586   1.212   1.460   2.488  0.0437  0.5588 -0.4464
  196SOL    HW1  587   1.122   1.510   2.502  1.2980 -0.4460 -0.4887
  196SOL    HW2  588   1.212   1.368   2.535  1.3955 -2.2907  1.3690
  197SOL     OW  589   0.154   0.224   2.256  0.2074 -0.2412  0.0402
  197SOL    HW1  590   0.219   0.254   2.183 -1.1028  0.3718  1.6726
  197SOL    HW2  591   0.153   0.125   2.271  0.9526  1.8043  0.2014
  198SOL     OW  592   3.101   1.187   1.008  0.7798  0.0154 -0.0523
  198SOL    HW1  593   0.010   1.090   1.020 -1.3567 -0.8867  1.4139
  198SOL    HW2  594   3.078   1.213   0.909  0.3144 -1.1890 -2.7614
  199SOL     OW  595   0.448   2.148   0.870  0.3159 -0.0684 -0.0030
  199SOL    HW1  596   0.518   2.223   0.855  0.2831  0.9951  1.5403
  199SOL    HW2  597   0.433   2.117   0.965  1.1712  0.5146  0.7079
  200SOL     OW  598   2.694   1.776   2.848  0.4003 -0.0752 -0.6374
  200SOL    HW1  599   2.761   1.809   2.918 -0.8082 -0.2426 -3.0085
  200SOL    HW2  600   2.653   1.691   2.887 -0.9453  0.1364  0.8988
  201SOL     OW  601   0.672   2.180   1.478 -0.2261  0.1260  0.0372
  201SOL    HW1  602   0.637   2.090   1.476  4.0459  0.5239  1.0035
  201SOL    HW2  603   0.617   2.245   1.430  1.5840  0.9620 -0.2169
  202SOL     OW  604   1.036   2.343   0.026 -0.8439  0.4218  0.4683
  202SOL    HW1  605   0.943   2.354   0.062 -2.0718 -0.7211 -0.3368
  202SOL    HW2  606   1.044   2.404   3.057 -2.2050  0.5844  0.9902
  203SOL     OW  607   1.760   0.257   2.114  0.0652 -0.4859  0.1605
  203SOL    HW1  608   1.802   0.295   2.032  0.1779 -1.5961  1.2110
  203SOL    HW2  609   1.659   0.273   2.123  1.1494  0.6241  0.8702
  204SOL     OW  610   0.265   1.274   1.407  0.1493 -0.0468 -0.0677
  204SOL    HW1  611   0.232   1.283   1.310 -0.7028  0.2734 -0.2216
  204SOL    HW2  612   0.347   1.334   1.411 -3.8024 -0.2317  0.2135
  205SOL     OW  613   2.582   1.523   2.853  0.3741 -0.0258  0.8177
  205SOL    HW1  614   2.553   1.506   2.756  0.3395  0.1973 -1.3107
  205SOL    HW2  615   2.513   1.494   2.920  1.3388  0.6496 -2.2975
  206SOL     OW  616   0.110   1.800   2.482 -0.0811 -0.1583  0.2192
  206SOL    HW1  617   0.021   1.799   2.537 -0.7074  0.4611  2.6276
  206SOL    HW2  618   0.103   1.857   2.399  0.6829  1.3766  1.0939
  207SOL     OW  619   0.723   2.999   1.717 -0.1393 -0.4190  0.3731
  207SOL    HW1  620   0.762   2.929   1.776 -2.7933  1.1311  0.0305
  207SOL    HW2  621   0.744   3.092   1.749  1.9741 -3.3318  0.1545
  208SOL     OW  622   0.602   2.448   1.473 -0.1320  0.2011 -0.4987
  208SOL    HW1  623   0.619   2.403   1.565  0.5404  2.5605  1.4855
  208SOL    HW2  624   0.691   2.443   1.420  2.5066 -1.3983 -0.1451
  209SOL     OW  625   0.969   2.631   2.604  0.3048  0.0018  0.8887
  209SOL    HW1  626   0.933   2.661   2.514  1.1014  0.4919 -0.6804
  209SOL    HW2  627   1.021   2.710   2.645 -0.8875 -0.5108 -2.3985
  210SOL     OW  628   2.803   1.371   2.129 -0.0292  0.0256 -0.1911
  210SOL    HW1  629   2.880   1.378   2.057  1.6480 -2.2248 -1.4079
  210SOL    HW2  630   2.781   1.463   2.174 -2.0293 -0.7884  0.8295
  211SOL     OW  631   1.142   3.100   1.922 -0.4872  0.0676 -0.8231
  211SOL    HW1  632   1.134   0.094   1.934  0.2246  1.1304 -2.0474
  211SOL    HW2  633   1.230   3.074   1.872 -0.3778 -0.4141 -0.7334
  212SOL     OW  634   1.343   2.432   1.711 -0.1358  0.1004  0.1082
  212SOL    HW1  635   1.355   2.422   1.810 -1.6297 -0.3848 -0.9995
  212SOL    HW2  636   1.429   2.392   1.662  2.4817 -0.4283  0.9115
  213SOL     OW  637   2.530   0.783   1.822  0.0470 -0.8059  0.5584
  213SOL    HW1  638   2.475   0.865   1.803  0.4419 -0.4911 -4.3739
  213SOL    HW2  639   2.492   0.702   1.768 -1.7957 -1.1998  0.7818
  214SOL     OW  640   1.018   1.795   1.536  0.0212 -0.1082  0.0309
  214SOL    HW1  641   1.085   1.823   1.461  2.5105 -0.4118 -0.0277
  214SOL    HW2  642   1.015   1.864   1.612 -0.6303  0.9367 -0.6965
  215SOL     OW  643   2.651   2.293   1.026  0.2919  0.6551  0.1658
  215SOL    HW1  644   2.591   2.292   0.944  2.8885  0.7426  0.2719
  215SOL    HW2  645   2.603   2.309   1.117  0.0581 -1.8333  0.2991
  216SOL     OW  646   3.080   0.842   1.519 -0.3812 -0.4155 -0.6969
  216SOL    HW1  647   0.004   0.783   1.441 -0.9379 -0.7624  2.2909
  216SOL    HW2  648   3.010   0.914   1.487 -1.1630  1.1225 -0.1428
  217SOL     OW  649   1.943   0.328   1.392  0.4084 -0.1787  0.2779
  217SOL    HW1  650   1.996   0.336   1.303  1.4132  0.4412 -2.0457
  217SOL    HW2  651   1.879   0.247   1.391  1.0563  2.5345 -1.0276
  218SOL     OW  652   1.694   2.486   1.003 -0.2914 -0.4464  0.5476
  218SOL    HW1  653   1.739   2.578   0.984  0.6926 -0.5409  1.2488
  218SOL    HW2  654   1.607   2.501   1.054 -1.3651  0.1615 -1.0034
  219SOL     OW  655   1.371   2.136   3.080  0.3003  0.1374 -0.2504
  219SOL    HW1  656   1.416   2.222   3.053 -1.9615 -1.3485 -0.3185
  219SOL    HW2  657   1.267   2.141   3.080 -0.5864 -2.6260  0.2246
  220SOL     OW  658   1.656   2.431   2.820  0.1842  0.5821  0.5827
  220SOL    HW1  659   1.593   2.442   2.739  0.5020  2.1335 -0.1160
  220SOL    HW2  660   1.746   2.384   2.802  2.2186 -0.1285 -2.5108
  221SOL     OW  661   0.165   2.465   1.287 -0.2805 -0.5352  0.1573
  221SOL    HW1  662   0.264   2.430   1.290  2.2512 -0.6079  0.8944
  221SOL    HW2  663   0.094   2.390   1.289  2.8164  2.3456 -1.2349
  222SOL     OW  664   2.027   2.663   0.869 -0.1414  0.3666 -0.4207
  222SOL    HW1  665   1.928   2.680   0.874  3.6521  1.3940 -0.1140
  222SOL    HW2  666   2.074   2.709   0.943 -1.8453 -0.4591 -2.4377
  223SOL     OW  667   0.685   2.287   2.134  0.1917  0.1619  0.0632
  223SOL    HW1  668   0.690   2.189   2.129  1.1609  0.5679  0.6532
  223SOL    HW2  669   0.606   2.326   2.078 -2.2310  1.5657 -0.1072
  224SOL     OW  670   2.889   2.384   1.444 -0.5963 -0.7695  0.4329
  224SOL    HW1  671   2.805   2.437   1.446  3.1152 -0.9943  2.6280
  224SOL    HW2  672   2.878   2.300   1.388 -0.9078 -2.1571  1.1570
  225SOL     OW  673   2.314   2.334   0.645 -0.4897 -0.1691 -0.2659
  225SOL    HW1  674   2.343   2.346   0.744 -2.5753  0.2706 -0.2362
  225SOL    HW2  675   2.273   2.245   0.624  2.9644 -0.8310 -0.5388
  226SOL     OW  676   1.444   2.347   0.332 -0.2406 -0.0701 -0.4437
  226SOL    HW1  677   1.377   2.297   0.270 -0.4203  1.1128 -0.3523
  226SOL    HW2  678   1.431   2.326   0.434 -2.7731 -1.8778  2.3860
  227SOL     OW  679   1.859   0.774   0.861 -0.0623  0.3448 -0.3814
  227SOL    HW1  680   1.940   0.830   0.884  1.6496 -1.3278 -0.2746
  227SOL    HW2  681   1.852   0.697   0.925 -1.3472  1.8205  0.1158
  228SOL     OW  682   1.054   0.562   2.074 -0.2683 -0.3868  0.0723
  228SOL    HW1  683   1.010   0.633   2.137  0.5496  3.3467  0.8446
  228SOL    HW2  684   1.036   0.467   2.111 -0.2061 -2.6912 -0.2419
  229SOL     OW  685   0.135   0.997   2.933  0.5992  0.5291 -0.8320
  229SOL    HW1  686   0.051   1.046   2.891  2.3639  0.0568 -1.5281
  229SOL    HW2  687   0.143   1.006   3.037  1.6370  0.5295  0.5193
  230SOL     OW  688   0.732   1.345   1.318  0.2912  0.2901 -0.1747
  230SOL    HW1  689   0.662   1.276   1.301  0.3342  2.9886 -2.7212
  230SOL    HW2  690   0.810   1.318   1.368 -0.1350  0.5251 -1.8950
  231SOL     OW  691   2.644   2.890   2.518 -0.0033  0.5778 -0.0056
  231SOL    HW1  692   2.720   2.933   2.570  3.1041 -1.6798 -2.6486
  231SOL    HW2  693   2.567   2.958   2.498 -0.7348  2.7992  1.3197
  232SOL     OW  694   0.370   2.358   0.146 -0.9510  0.2526 -0.4049
  232SOL    HW1  695   0.348   2.411   0.233 -1.7453  1.0915 -0.3208
  232SOL    HW2  696   0.392   2.259   0.173  0.3880 -0.6348  0.7231
  233SOL     OW  697   1.156   2.123   2.240  0.6249 -0.2011  0.4755
  233SOL    HW1  698   1.152   2.194   2.163 -1.7795  1.6668 -2.2724
  233SOL    HW2  699   1.196   2.152   2.326 -2.5097 -2.5702 -2.7948
  234SOL     OW  700   1.244   1.409   1.960  0.1052  0.5058 -0.4975
  234SOL    HW1  701   1.184   1.330   1.985  0.1216  3.4681  2.6316
  234SOL    HW2  702   1.190   1.480   1.912  1.8080 -1.5616 -1.5422
  235SOL     OW  703   1.024   1.961   1.748 -0.0858  0.2103  0.8519
  235SOL    HW1  704   1.123   1.992   1.732  5.6246 -0.6346  1.0124
  235SOL    HW2  705   1.004   1.920   1.838  0.0954 -2.5077 -0.3964
  236SOL     OW  706   1.435   2.970   2.507 -0.1421  0.2107  0.3085
  236SOL    HW1  707   1.478   3.060   2.506  1.9702  2.1610  0.3315
  236SOL    HW2  708   1.504   2.900   2.543  2.5131 -1.4103  2.2668
  237SOL     OW  709   1.326   0.278   1.276  0.0574  0.4477  0.3880
  237SOL    HW1  710   1.325   0.181   1.246  3.4879  0.4050  0.4355
  237SOL    HW2  711   1.422   0.304   1.293 -1.2571  0.3655  1.0544
  238SOL     OW  712   1.353   0.653   2.750 -0.0150  0.1837  0.5303
  238SOL    HW1  713   1.354   0.720   2.672 -0.0413  2.2683 -2.1291
  238SOL    HW2  714   1.265   0.609   2.777  1.2351 -0.6993  0.2114
  239SOL     OW  715   0.006   0.952   2.585  0.3824  0.1286  0.5707
  239SOL    HW1  716   3.032   1.008   2.557  2.7235 -0.5379 -1.8372
  239SOL    HW2  717   0.084   0.966   2.525  0.1477  0.6557 -0.9073
  240SOL     OW  718   2.216   2.699   0.622 -0.0006  0.1470 -0.3942
  240SOL    HW1  719   2.145   2.672   0.692  0.7068  2.7095 -0.1006
  240SOL    HW2  720   2.296   2.647   0.635 -1.3548  0.8756 -2.5960
  241SOL     OW  721   1.072   1.292   1.088  0.4739 -0.1893  0.4633
  241SOL    HW1  722   1.095   1.214   1.027 -3.2433  1.2509  1.7716
  241SOL    HW2  723   1.061   1.271   1.188  1.2609  0.6118  0.4954
  242SOL     OW  724   0.494   0.830   0.910 -0.1083 -0.1547  0.5384
  242SOL    HW1  725   0.488   0.927   0.890 -1.6421 -4.2641  1.7506
  242SOL    HW2  726   0.520   0.773   0.828 -2.2850  0.1272  0.9755
  243SOL     OW  727   0.220   0.504   0.981 -0.1828 -0.1230  0.0105
  243SOL    HW1  728   0.315   0.521   1.014  0.9481 -0.4232 -2.1746
  243SOL    HW2  729   0.225   0.470   0.890  3.6567  1.7753  1.6772
  244SOL     OW  730   0.865   0.130   0.196  0.5143  0.2046  0.2974
  244SOL    HW1  731   0.793   0.206   0.186  0.1180  0.7166 -2.7095
  244SOL    HW2  732   0.872   0.107   0.292  0.7393  3.0030 -2.9818
  245SOL     OW  733   2.075   0.821   0.207  0.2421  0.0378  0.0422
  245SOL    HW1  734   2.000   0.856   0.143 -1.8767 -0.5354 -0.6978
  245SOL    HW2  735   2.139   0.896   0.240 -1.1060  5.5677 -0.9993
  246SOL     OW  736   0.020   0.867   1.782  0.1708 -0.2512 -0.3639
  246SOL    HW1  737   0.090   0.926   1.823 -0.5136  0.5150 -0.4107
  246SOL    HW2  738   0.009   0.873   1.681 -0.7941 -0.5377 -0.7804
  247SOL     OW  739   0.539   2.984   2.119  0.0277 -0.1687 -0.0494
  247SOL    HW1  740   0.554   3.084   2.104  2.2062  2.1050 -0.7414
  247SOL    HW2  741   0.629   2.944   2.092  3.9113 -2.3122  0.8393
  248SOL     OW  742   0.557   1.221   2.537 -0.0362  0.1462 -0.3072
  248SOL    HW1  743   0.658   1.228   2.562  0.7299  0.3244 -1.8802
  248SOL    HW2  744   0.541   1.136   2.490  0.6749 -0.1475  2.3160
  249SOL     OW  745   0.787   2.903   2.892  0.4397 -0.5063 -0.8918
  249SOL    HW1  746   0.700   2.956   2.883  0.6149 -0.4285 -2.7807
  249SOL    HW2  747   0.767   2.813   2.930 -1.5146  1.2978 -1.7470
  250SOL     OW  748   0.465   0.316   2.361 -0.1385 -0.8509  0.1068
  250SOL    HW1  749   0.519   0.244   2.409  0.6676 -1.0006  0.5495
  250SOL    HW2  750   0.379   0.270   2.330  1.4273 -1.3394 -0.4170
  251SOL     OW  751   2.973   1.654   1.167 -0.4302 -0.3677  0.1507
  251SOL    HW1  752   2.897   1.603   1.124  1.3579  1.8161  1.6675
  251SOL    HW2  753   3.008   1.600   1.247  0.3387 -2.6575  1.7906
  252SOL     OW  754   1.838   2.840   1.891  0.3173 -0.1315  0.0492
  252SOL    HW1  755   1.794   2.812   1.801  0.5768 -1.2333  1.3124
  252SOL    HW2  756   1.942   2.832   1.887  3.4961 -1.0610 -0.7301
  253SOL     OW  757   2.211   1.446   2.769  0.2011 -0.1359 -0.3556
  253SOL    HW1  758   2.274   1.397   2.836  1.4643 -1.0172  2.1474
  253SOL    HW2  759   2.170   1.527   2.816  1.5413 -0.0807 -1.4676
  254SOL     OW  760   0.659   1.579   2.046  0.1962 -0.0545 -0.0936
  254SOL    HW1  761   0.596   1.641   1.990 -2.7529  1.4209  0.9613
  254SOL    HW2  762   0.617   1.488   2.066  2.0651 -1.2658  2.1459
  255SOL     OW  763   0.760   0.009   1.458 -0.2863  0.3407  0.6399
  255SOL    HW1  764   0.860   3.106   1.448 -1.0491 -0.7803  1.9748
  255SOL    HW2  765   0.725   3.094   1.552 -0.2659  0.4053  0.9931
  256SOL     OW  766   0.247   2.302   0.917 -0.3186 -0.2871  0.4657
  256SOL    HW1  767   0.319   2.234   0.895 -1.4606  1.5996  1.6214
  256SOL    HW2  768   0.171   2.260   0.973 -0.4126  1.1010 -1.0692
  257SOL     OW  769   0.199   2.495   2.376 -0.0688  0.1490  0.0025
  257SOL    HW1  770   0.195   2.441   2.462 -0.7988 -0.3559 -2.3415
  257SOL    HW2  771   0.288   2.539   2.369  2.2497 -1.7482 -0.6078
  258SOL     OW  772   1.519   1.869   1.975 -0.4077 -0.0855  0.0177
  258SOL    HW1  773   1.511   1.772   1.943 -0.9627  2.2778  0.3780
  258SOL    HW2  774   1.534   1.925   1.892 -1.3876 -1.5552 -1.7852
  259SOL     OW  775   1.064   1.512   2.212 -0.4507 -0.0616 -0.2082
  259SOL    HW1  776   1.102   1.566   2.135 -0.4486  0.9261 -3.1446
  259SOL    HW2  777   1.104   1.549   2.300  1.6487  0.2862 -1.5982
  260SOL     OW  778   2.565   0.842   2.217  0.2611 -0.1046  0.6124
  260SOL    HW1  779   2.476   0.805   2.188 -0.8946  1.1865  2.5449
  260SOL    HW2  780   2.617   0.877   2.134 -1.3837 -0.7195 -0.3623
  261SOL     OW  781   1.093   1.012   0.671 -0.3211 -0.2212 -0.0595
  261SOL    HW1  782   1.119   1.018   0.768 -1.7321  0.6658 -3.1643
  261SOL    HW2  783   0.991   0.995   0.660 -0.4278 -0.5720  0.5331
  262SOL     OW  784   2.408   2.145   2.540  0.1523 -0.2322 -0.4133
  262SOL    HW1  785   2.463   2.222   2.577 -0.5840 -0.4972  1.3583
  262SOL    HW2  786   2.370   2.094   2.623 -0.5474 -0.5364  2.4777
  263SOL     OW  787   1.032   2.233   1.117 -0.2580  0.7063  0.0435
  263SOL    HW1  788   1.059   2.208   1.216 -1.2464  0.4054 -1.8576
  263SOL    HW2  789   0.935   2.269   1.115 -3.3727 -1.0146  0.0790
  264SOL     OW  790   0.324   2.446   0.397  0.3749  0.0550  0.4589
  264SOL    HW1  791   0.372   2.478   0.476 -0.7558  1.8433  0.8374
  264SOL    HW2  792   0.282   2.352   0.427  0.2568 -1.4485  0.3990
  265SOL     OW  793   1.210   1.407   0.170  0.2517  0.2432 -0.2842
  265SOL    HW1  794   1.287   1.356   0.128 -1.4453  0.2083  0.2375
  265SOL    HW2  795   1.163   1.338   0.230  2.5734 -2.6078 -0.3308
  266SOL     OW  796   0.655   1.868   2.408  0.6571 -0.1219 -0.1913
  266SOL    HW1  797   0.721   1.921   2.349 -0.9536  2.1116 -0.5611
  266SOL    HW2  798   0.571   1.852   2.358  1.1740  0.7414 -0.5448
  267SOL     OW  799   2.234   1.075   2.409  0.9872  0.0830  0.4696
  267SOL    HW1  800   2.221   1.051   2.507  1.4354  2.9972  1.1935
  267SOL    HW2  801   2.191   1.169   2.397  2.0512  1.5009 -1.3874
  268SOL     OW  802   0.910   1.399   0.355 -0.2816  0.4810 -0.0666
  268SOL    HW1  803   0.854   1.310   0.351 -1.8272 -0.5218  0.2085
  268SOL    HW2  804   0.849   1.478   0.337 -3.0709 -4.0094  0.2382
  269SOL     OW  805   2.639   1.741   2.593 -0.2215  0.6059 -0.7845
  269SOL    HW1  806   2.654   1.753   2.691 -2.9989 -3.1663 -0.1821
  269SOL    HW2  807   2.714   1.780   2.537  1.7310 -1.4959  0.1562
  270SOL     OW  808   0.775   2.028   2.883  0.3259 -0.2952  0.0862
  270SOL    HW1  809   0.690   1.973   2.898 -1.1879  3.2747  1.6127
  270SOL    HW2  810   0.763   2.126   2.911  0.7240  1.9385  2.0896
  271SOL     OW  811   0.259   0.545   0.191  0.3641  0.3195  0.6388
  271SOL    HW1  812   0.355   0.558   0.213 -0.5420  0.3528 -1.2723
  271SOL    HW2  813   0.249   0.563   0.090  1.4710  1.0199  2.8698
  272SOL     OW  814   2.777   0.004   0.453  0.0354  0.4453  0.0364
  272SOL    HW1  815   2.796   0.049   0.543 -0.4773 -1.8567 -2.9070
  272SOL    HW2  816   2.739   0.073   0.389  1.2000 -0.1344 -1.7407
  273SOL     OW  817   0.203   3.089   1.881 -0.4731  0.0662 -0.0787
  273SOL    HW1  818   0.234   3.088   1.786  1.7846 -0.1703  1.4169
  273SOL    HW2  819   0.207   2.998   1.923 -0.7408  0.3461  0.5826
  274SOL     OW  820   2.985   0.557   1.274 -0.4542 -0.2361  0.8991
  274SOL    HW1  821   2.956   0.476   1.329  1.7386 -2.7574 -3.1561
  274SOL    HW2  822   3.074   0.593   1.309  1.4473 -1.9660  3.6568
  275SOL     OW  823   0.737   1.516   1.124  1.2579  1.1444 -0.2523
  275SOL    HW1  824   0.801   1.485   1.053 -1.6332 -1.7295 -3.0361
  275SOL    HW2  825   0.737   1.448   1.201  0.7192  4.2964 -1.7228
  276SOL     OW  826   0.619   1.173   1.984 -0.5496 -0.4938 -0.3184
  276SOL    HW1  827   0.570   1.252   2.032 -1.5059  0.3233  2.1335
  276SOL    HW2  828   0.586   1.082   2.012 -0.6626 -0.6692  0.2152
  277SOL     OW  829   1.313   2.042   1.806 -0.1816  0.1977 -0.1109
  277SOL    HW1  830   1.302   2.018   1.909  0.9621 -1.1144  0.1608
  277SOL    HW2  831   1.273   2.132   1.780 -0.7432  0.1179 -2.2233
  278SOL     OW  832   2.383   2.677   2.212  0.3666  0.7082 -0.1041
  278SOL    HW1  833   2.308   2.626   2.251 -1.1265  3.1291 -0.2522
  278SOL    HW2  834   2.462   2.623   2.184 -0.7317 -1.4883  0.1549
  279SOL     OW  835   1.183   1.820   3.086 -0.0171  0.2637  0.0358
  279SOL    HW1  836   1.274   1.861   0.002  0.5565  1.5628  0.4716
  279SOL    HW2  837   1.117   1.896   3.069 -2.0400  1.0597 -1.3107
  280SOL     OW  838   1.424   0.376   0.418 -0.0821 -0.0477  0.3754
  280SOL    HW1  839   1.481   0.335   0.488 -4.0787  0.2222 -1.0948
  280SOL    HW2  840   1.469   0.415   0.339 -5.2578 -1.0758  0.4984
  281SOL     OW  841   0.373   0.502   1.552 -0.0721 -0.1281 -0.6115
  281SOL    HW1  842   0.365   0.566   1.633  2.5071  1.5671  0.5610
  281SOL    HW2  843   0.283   0.456   1.536  3.6743 -1.3428 -0.3860
  282SOL     OW  844   0.252   2.504   0.707 -0.6689 -0.1791 -0.4263
  282SOL    HW1  845   0.232   2.446   0.787  0.4321  2.4456  1.2572
  282SOL    HW2  846   0.163   2.541   0.676 -1.0541 -0.5184  1.9481
  283SOL     OW  847   1.381   1.789   1.682  0.3556 -0.4568  0.2093
  283SOL    HW1  848   1.322   1.730   1.741 -0.6152 -0.0933 -1.6276
  283SOL    HW2  849   1.368   1.886   1.703  1.1540  1.3761  0.9132
  284SOL     OW  850   2.688   2.880   1.446 -0.0644  0.4942  0.2600
  284SOL    HW1  851   2.691   2.952   1.375  1.0720  1.3279  2.2593
  284SOL    HW2  852   2.772   2.819   1.435  1.1902  0.4263 -0.3500
  285SOL     OW  853   0.212   2.649   0.280  0.6103 -0.3264  1.0282
  285SOL    HW1  854   0.113   2.649   0.263  1.2134  0.9345 -0.9740
  285SOL    HW2  855   0.242   2.567   0.329 -3.3563  0.4104 -1.8797
  286SOL     OW  856   0.411   2.650   1.127 -0.2141 -0.7192  0.1297
  286SOL    HW1  857   0.452   2.721   1.192  0.4171  2.6630 -2.6885
  286SOL    HW2  858   0.324   2.693   1.091 -1.4188 -1.4826 -0.9167
  287SOL     OW  859   0.674   1.442   0.620 -0.1727  0.0153 -0.4636
  287SOL    HW1  860   0.623   1.413   0.537  2.7066  1.7381 -0.9946
  287SOL    HW2  861   0.739   1.518   0.599 -1.5756  0.2657  4.1277
  288SOL     OW  862   1.963   2.121   2.564  0.4449 -0.2240 -0.3070
  288SOL    HW1  863   1.883   2.054   2.557 -1.3601 -1.0499  1.0981
  288SOL    HW2  864   1.954   2.181   2.649  0.3435  2.2265 -0.6950
  289SOL     OW  865   2.578   1.705   0.323  0.1134 -0.1103  0.4762
  289SOL    HW1  866   2.487   1.744   0.303  4.9599 -0.8049  2.2634
  289SOL    HW2  867   2.619   1.648   0.246 -0.9842  0.5513  0.1867
  290SOL     OW  868   1.333   1.425   1.095  0.1177  0.0925  0.0613
  290SOL    HW1  869   1.332   1.479   1.179  0.3136  2.4947  0.2061
  290SOL    HW2  870   1.243   1.383   1.088 -1.7532  1.1512  3.5666
  291SOL     OW  871   1.359   1.210   0.081 -0.2020  0.3968  0.0297
  291SOL    HW1  872   1.338   1.128   0.142  0.0804  1.3214  0.1524
  291SOL    HW2  873   1.410   1.178   0.001  0.1148  1.0367  1.4257
  292SOL     OW  874   1.389   1.593   0.285  0.3956 -0.2353 -0.1895
  292SOL    HW1  875   1.313   1.539   0.243  2.6632  0.4895  3.6457
  292SOL    HW2  876   1.467   1.597   0.219  0.1031  0.1203  2.4836
  293SOL     OW  877   1.254   0.018   0.930 -0.4791  0.0158 -0.2136
  293SOL    HW1  878   1.277   0.015   1.031 -3.3713  0.7133 -1.5950
  293SOL    HW2  879   1.163   3.083   0.908  2.8644 -0.7930  1.8795
  294SOL     OW  880   2.216   0.876   2.618 -0.3351 -1.0372 -0.4424
  294SOL    HW1  881   2.318   0.888   2.610  1.4203  0.2732  0.6544
  294SOL    HW2  882   2.189   0.881   2.717  0.7770 -0.2050  1.1312
  295SOL     OW  883   1.843   1.884   2.959 -0.0635 -0.6854  0.5860
  295SOL    HW1  884   1.759   1.883   3.017  0.7670 -0.1368 -1.6755
  295SOL    HW2  885   1.819   1.834   2.876  1.8232 -1.0129 -0.8444
  296SOL     OW  886   1.057   1.003   1.250  0.1658 -0.2092  0.4717
  296SOL    HW1  887   1.022   0.996   1.347 -1.1356  1.6188  0.6256
  296SOL    HW2  888   1.143   0.952   1.235  1.6371 -1.6327 -0.8153
  297SOL     OW  889   0.093   0.669   2.163  0.6233  0.6266  0.4675
  297SOL    HW1  890   0.107   0.572   2.132  0.4314 -0.3246 -0.7752
  297SOL    HW2  891   0.160   0.687   2.239 -0.0118 -0.4615 -0.8480
  298SOL     OW  892   1.528   1.748   1.183  0.3991 -0.9528  0.3065
  298SOL    HW1  893   1.491   1.818   1.253  0.1775 -0.6536  0.7901
  298SOL    HW2  894   1.558   1.663   1.233 -0.7238  0.5952 -1.5535
  299SOL     OW  895   1.008   0.033   2.472 -0.1699  0.0241 -0.3898
  299SOL    HW1  896   1.078   3.068   2.476 -0.0190  2.4849  1.3010
  299SOL    HW2  897   0.939   0.017   2.543 -0.9759 -1.2383 -0.1570
  300SOL     OW  898   2.572   2.177   0.499  0.4944 -0.7527  0.2835
  300SOL    HW1  899   2.672   2.165   0.484  1.4030  2.8520 -0.0163
  300SOL    HW2  900   2.538   2.274   0.477 -3.9230  1.0688 -1.1292
  301SOL     OW  901   2.120   0.627   2.547  0.4316  0.2999  0.0956
  301SOL    HW1  902   2.177   0.576   2.476 -0.0360  0.1260  0.7304
  301SOL    HW2  903   2.161   0.712   2.584  2.8898 -3.5273  1.2623
  302SOL     OW  904   2.402   2.241   0.072 -0.5406 -0.3696  0.8440
  302SOL    HW1  905   2.455   2.159   0.111 -1.5202 -0.7617 -1.7473
  302SOL    HW2  906   2.467   2.297   0.014  1.7810  0.4628 -0.6214
  303SOL     OW  907   3.097   2.205   2.911 -0.4600  0.4931 -0.4138
  303SOL    HW1  908   0.020   2.282   2.849  0.2316  0.6631 -0.9493
  303SOL    HW2  909   3.067   2.236   3.002 -0.3806  1.1150 -0.3476
  304SOL     OW  910   0.139   1.633   1.071 -0.4683  0.1326  0.1557
  304SOL    HW1  911   0.044   1.674   1.084 -0.4269  1.3747 -1.0786
  304SOL    HW2  912   0.204   1.710   1.077  0.0104 -2.0012 -0.6979
  305SOL     OW  913   2.957   0.675   1.775 -0.0241  0.0967  0.2708
  305SOL    HW1  914   3.028   0.745   1.773  0.1243 -0.5294 -0.1142
  305SOL    HW2  915   2.897   0.686   1.697 -1.1102 -0.2275  2.4745
  306SOL     OW  916   1.431   1.390   0.708 -0.2195 -0.4199 -0.1961
  306SOL    HW1  917   1.383   1.472   0.751 -1.8105  1.3422 -1.1312
  306SOL    HW2  918   1.487   1.417   0.624  2.4217  1.1890 -3.7771
  307SOL     OW  919   0.271   0.141   0.703  0.1225 -0.0456 -1.1091
  307SOL    HW1  920   0.210   0.099   0.635 -0.9799  0.1417  0.2951
  307SOL    HW2  921   0.258   0.242   0.714  1.3405 -0.3165  1.4666
  308SOL     OW  922   0.064   1.054   2.208  0.2936  0.6720  0.4125
  308SOL    HW1  923   0.111   1.063   2.297 -0.7296  0.0954 -1.9095
  308SOL    HW2  924   0.107   0.987   2.145  0.5329  0.2504 -0.6273
  309SOL     OW  925   2.728   1.833   2.322  0.3004 -0.1874  0.3132
  309SOL    HW1  926   2.706   1.933   2.328  0.5760 -1.0606 -1.7317
  309SOL    HW2  927   2.822   1.813   2.291 -1.1727  0.4334 -0.7424
  310SOL     OW  928   2.423   0.619   0.160 -0.0822 -0.1170 -0.4875
  310SOL    HW1  929   2.523   0.631   0.179  0.9986  1.4246  0.8704
  310SOL    HW2  930   2.404   0.657   0.063 -1.3395 -0.2832 -2.2238
  311SOL     OW  931   2.110   0.906   2.861 -0.0155 -0.1424 -0.3168
  311SOL    HW1  932   2.158   0.974   2.924  4.0872  0.8924  0.8258
  311SOL    HW2  933   2.046   0.837   2.904  3.3624 -0.6850  2.1312
  312SOL     OW  934   1.558   2.217   2.497 -0.0942 -0.2224  0.1304
  312SOL    HW1  935   1.612   2.208   2.408  1.1360 -1.6660 -0.0448
  312SOL    HW2  936   1.582   2.145   2.562  0.8989  0.0784 -2.4070
  313SOL     OW  937   0.116   0.511   0.414  0.1732 -0.4084  0.1127
  313SOL    HW1  938   0.174   0.514   0.330  0.4330  0.3236  1.7066
  313SOL    HW2  939   0.179   0.541   0.488 -1.8326 -1.5528  0.7200
  314SOL     OW  940   0.750   1.822   1.450 -0.8182  0.1906 -0.6242
  314SOL    HW1  941   0.733   1.802   1.355  1.3825  0.2265  3.9507
  314SOL    HW2  942   0.847   1.847   1.470 -0.0375 -0.2228 -0.6534
  315SOL     OW  943   0.814   1.754   2.178  0.2652  0.0904 -0.0236
  315SOL    HW1  944   0.753   1.683   2.126  1.9747 -0.5332  0.8985
  315SOL    HW2  945   0.839   1.720   2.270 -1.9697 -0.3796 -2.9838
  316SOL     OW  946   0.531   2.546   0.677  0.0351  0.4196  0.5548
  316SOL    HW1  947   0.425   2.542   0.685  2.7156  0.3200 -1.8648
  316SOL    HW2  948   0.557   2.643   0.676  1.5768  0.0009 -0.0695
  317SOL     OW  949   2.167   0.366   1.167 -0.4545  0.1237  0.1242
  317SOL    HW1  950   2.239   0.342   1.239 -0.2967 -1.0970  2.2879
  317SOL    HW2  951   2.184   0.458   1.126 -1.4454  0.3106 -1.4186
  318SOL     OW  952   1.817   0.102   0.364 -0.2683 -0.5743  0.0199
  318SOL    HW1  953   1.802   0.190   0.312 -1.9840 -1.8356  3.6731
  318SOL    HW2  954   1.872   0.038   0.308  1.6174 -1.0503 -3.3961
  319SOL     OW  955   1.723   0.673   2.747  0.1752  0.4000  0.4546
  319SOL    HW1  956   1.649   0.603   2.764 -0.4117  0.7769  1.2148
  319SOL    HW2  957   1.749   0.671   2.646 -2.7088  0.6733  0.5146
  320SOL     OW  958   3.042   2.067   1.835  0.6957  0.6189  0.4483
  320SOL    HW1  959   2.976   2.121   1.779 -1.8501 -1.5524 -0.7217
  320SOL    HW2  960   3.019   2.088   1.938  1.6875  3.1864  2.1108
  321SOL     OW  961   0.484   2.356   2.858  0.4924 -0.4408  0.2675
  321SOL    HW1  962   0.563   2.308   2.903  1.0113  1.1833 -0.5990
  321SOL    HW2  963   0.398   2.358   2.909  0.9595 -0.0487  0.3014
  322SOL     OW  964   2.569   0.591   2.589  0.1588  0.4150  0.0422
  322SOL    HW1  965   2.569   0.631   2.494  1.1798 -0.2032  1.1229
  322SOL    HW2  966   2.615   0.497   2.591  2.3077 -2.2226  0.7928
  323SOL     OW  967   2.323   1.150   0.767  0.1671  0.3887  0.0697
  323SOL    HW1  968   2.415   1.159   0.731 -1.0337 -1.4600  1.9442
  323SOL    HW2  969   2.293   1.056   0.726 -2.4090 -3.3624 -0.8575
  324SOL     OW  970   0.003   0.387   1.108  0.6245 -0.1304  0.2382
  324SOL    HW1  971   0.085   0.439   1.075  0.8821  1.1024 -2.2853
  324SOL    HW2  972   3.044   0.449   1.151 -1.0843 -1.3191  0.3905
  325SOL     OW  973   2.554   0.078   1.483 -0.6464 -0.3882 -0.4843
  325SOL    HW1  974   2.604   0.082   1.574  0.2684 -0.9968 -1.0755
  325SOL    HW2  975   2.554   0.166   1.430 -1.5894 -0.9869 -2.0186
  326SOL     OW  976   1.492   2.781   3.103 -0.3806  0.3333  0.3897
  326SOL    HW1  977   1.498   2.696   0.050 -1.7029  2.1119  1.8062
  326SOL    HW2  978   1.567   2.845   0.021 -2.4783  0.4809 -0.1849
  327SOL     OW  979   1.827   1.893   0.279 -0.6030  0.6003 -0.2248
  327SOL    HW1  980   1.773   1.982   0.295 -0.6167  1.0543 -1.5330
  327SOL    HW2  981   1.830   1.831   0.363 -1.1780  0.0407 -0.9212
  328SOL     OW  982   3.099   1.974   2.268  0.1998 -0.3455 -0.2337
  328SOL    HW1  983   3.057   1.884   2.237 -2.6060 -2.1653 -0.3413
  328SOL    HW2  984   3.037   2.045   2.227  1.1720 -0.1920  0.9504
  329SOL     OW  985   0.015   2.216   1.270 -0.2324  0.3398  0.5137
  329SOL    HW1  986   3.026   2.180   1.283  1.6234 -0.2524  1.6029
  329SOL    HW2  987   0.068   2.173   1.345 -1.1580 -0.3798 -1.6396
  330SOL     OW  988   2.757   0.780   2.688 -0.2476 -0.6804  0.5285
  330SOL    HW1  989   2.681   0.719   2.662  2.3899  1.9003  0.0777
  330SOL    HW2  990   2.762   0.853   2.621 -0.2847  0.8810  3.1318
  331SOL     OW  991   2.366   1.949   0.962  0.2384 -0.4624 -0.2944
  331SOL    HW1  992   2.269   1.981   0.961 -1.4358  0.6687 -1.8090
  331SOL    HW2  993   2.414   1.971   0.873  0.1874 -2.3902  0.1317
  332SOL     OW  994   0.391   2.915   0.809 -0.6485  0.0410 -0.5535
  332SOL    HW1  995   0.440   3.000   0.829  3.5761 -1.7849 -0.2658
  332SOL    HW2  996   0.323   2.890   0.880  3.4482 -0.8231 -1.9409
  333SOL     OW  997   2.410   1.867   2.484  0.1845 -0.5995 -0.5905
  333SOL    HW1  998   2.405   1.968   2.513  0.9233  0.6070  0.7336
  333SOL    HW2  999   2.500   1.824   2.512  3.2564  1.3024 -0.1331
  334SOL     OW 1000   0.635   1.080   0.896  0.4090 -0.2336 -0.4577
  334SOL    HW1 1001   0.702   1.051   0.966  1.7383 -0.8166  0.4962
  334SOL    HW2 1002   0.667   1.173   0.865  2.6567 -0.2582  0.5611
  335SOL     OW 1003   2.969   1.742   2.199 -0.5885  0.2829  0.4748
  335SOL    HW1 1004   2.997   1.684   2.275 -1.7047  0.4833 -0.1448
  335SOL    HW2 1005   2.980   1.693   2.109 -2.1709  0.6229  0.2131
  336SOL     OW 1006   2.318   2.925   2.267  0.2301 -0.1498  0.3516
  336SOL    HW1 1007   2.339   2.822   2.267 -1.4097 -0.6445 -0.0253
  336SOL    HW2 1008   2.219   2.939   2.251 -1.2827 -3.6122  0.2130
  337SOL     OW 1009   0.922   0.714   0.755 -0.1133 -0.2451  0.2364
  337SOL    HW1 1010   0.863   0.794   0.740 -0.5322  1.8755 -1.6562
  337SOL    HW2 1011   1.012   0.748   0.785 -2.6384  0.6579 -0.7275
  338SOL     OW 1012   1.558   2.005   1.023  0.1108 -0.6764  0.0785
  338SOL    HW1 1013   1.599   1.937   1.089 -1.4473  0.1433  0.6065
  338SOL    HW2 1014   1.603   2.097   1.032 -0.5787  3.4980 -1.7937
  339SOL     OW 1015   0.435   1.694   1.304 -0.3437 -0.0036 -0.3957
  339SOL    HW1 1016   0.494   1.748   1.235  2.4375  0.1463 -2.7993
  339SOL    HW2 1017   0.440   1.743   1.398 -0.8490  2.1414  1.1888
  340SOL     OW 1018   0.944   2.906   1.875 -0.5095 -0.0290  0.1914
  340SOL    HW1 1019   0.988   2.844   1.811 -1.8409  1.6832  1.7687
  340SOL    HW2 1020   0.999   2.988   1.892  1.1204 -0.6232 -0.2307
  341SOL     OW 1021   2.214   1.659   0.909  0.0375 -0.3222 -0.0048
  341SOL    HW1 1022   2.210   1.567   0.956 -2.9064 -0.1485 -0.6391
  341SOL    HW2 1023   2.222   1.646   0.807  0.8281  0.5457  2.5651
  342SOL     OW 1024   2.234   1.043   0.250  0.3172  0.2894 -0.2561
  342SOL    HW1 1025   2.318   0.994   0.283 -2.4070 -1.2350  0.7846
  342SOL    HW2 1026   2.245   1.085   0.156 -2.1635  0.0685 -2.1001
  343SOL     OW 1027   2.098   0.079   1.001 -0.0813  0.2059 -0.1316
  343SOL    HW1 1028   2.140   0.158   1.053  1.3068  0.2182 -1.0742
  343SOL    HW2 1029   2.172   0.010   0.980 -0.9074  3.6937  1.1900
  344SOL     OW 1030   2.573   0.215   0.105 -0.1736 -0.3053 -0.3934
  344SOL    HW1 1031   2.643   0.213   0.027  0.1817 -1.1846 -1.4111
  344SOL    HW2 1032   2.536   0.124   0.130 -1.0423 -1.4357  2.4839
  345SOL     OW 1033   0.874   2.486   2.081  0.0299  0.4547 -0.0603
  345SOL    HW1 1034   0.871   2.567   2.138 -1.7161 -3.0836 -0.6728
  345SOL    HW2 1035   0.783   2.439   2.082 -0.1732  2.7819  0.2763
  346SOL     OW 1036   2.376   2.343   0.914 -0.4195 -0.4005 -0.2124
  346SOL    HW1 1037   2.370   2.276   0.996 -1.4701 -3.1737  0.6116
  346SOL    HW2 1038   2.394   2.438   0.942  0.0050  1.3846  0.6423
  347SOL     OW 1039   2.241   0.038   1.295 -0.2452 -0.2443 -0.0403
  347SOL    HW1 1040   2.312   3.105   1.233 -0.2568  2.1401  0.9876
  347SOL    HW2 1041   2.273   0.132   1.317  0.3083  1.4690  2.6579
  348SOL     OW 1042   0.710   0.719   1.345  0.0269 -0.5001  0.1512
  348SOL    HW1 1043   0.651   0.796   1.382 -0.1812  0.3110 -2.4448
  348SOL    HW2 1044   0.688   0.708   1.246  0.8060  0.4227  0.3359
  349SOL     OW 1045   2.475   0.508   2.857  0.3520  0.1626  0.3868
  349SOL    HW1 1046   2.451   0.533   2.765 -1.9330  0.5018 -0.9189
  349SOL    HW2 1047   2.576   0.494   2.869  0.4719 -1.3617  1.9767
  350SOL     OW 1048   2.217   2.179   2.965  0.6977 -0.4619  0.1193
  350SOL    HW1 1049   2.115   2.185   2.973  0.1626  1.7706 -1.8006
  350SOL    HW2 1050   2.265   2.187   3.055 -1.0317 -0.3758 -1.0417
  351SOL     OW 1051   1.141   0.413   0.378 -0.5569  0.2556 -0.6314
  351SOL    HW1 1052   1.090   0.491   0.423  0.7692 -1.8442 -1.2921
  351SOL    HW2 1053   1.239   0.403   0.386 -1.1013 -0.2152 -1.2350
  352SOL     OW 1054   1.644   2.019   2.665  0.1515 -0.3833 -0.3491
  352SOL    HW1 1055   1.593   1.930   2.666  0.2786 -1.8571 -0.0069
  352SOL    HW2 1056   1.696   2.032   2.751  0.3203  1.0719  0.6458
  353SOL     OW 1057   0.665   1.144   2.938 -0.1257  0.3025  0.2084
  353SOL    HW1 1058   0.568   1.157   2.902 -0.6151  2.3470  0.4691
  353SOL    HW2 1059   0.711   1.230   2.952 -0.4892 -1.0393 -0.4672
  354SOL     OW 1060   0.498   2.627   2.833  0.3262 -0.3511  0.2275
  354SOL    HW1 1061   0.483   2.525   2.824 -0.3538  0.1875 -1.4820
  354SOL    HW2 1062   0.583   2.648   2.884  0.5436 -1.2751 -1.0841
  355SOL     OW 1063   2.492   2.856   1.611 -0.3823 -0.1743  0.4723
  355SOL    HW1 1064   2.449   2.948   1.607 -1.9228  1.0133 -0.8360
  355SOL    HW2 1065   2.576   2.847   1.547  1.1530 -0.7849 -1.1469
  356SOL     OW 1066   2.701   1.233   1.249  0.5467 -0.2685  0.1874
  356SOL    HW1 1067   2.797   1.253   1.222  1.6725 -1.4771 -0.5086
  356SOL    HW2 1068   2.663   1.161   1.188 -1.7889 -0.1736  1.9216
  357SOL     OW 1069   2.611   0.319   1.355  0.4720  0.3505  0.2104
  357SOL    HW1 1070   2.707   0.340   1.381 -0.0401  1.4516  0.3385
  357SOL    HW2 1071   2.605   0.312   1.256  0.8374 -0.2856 -0.7132
  358SOL     OW 1072   0.194   1.755   1.619 -1.3013 -0.2927  0.8339
  358SOL    HW1 1073   0.281   1.805   1.656  2.0696  0.6697  1.2805
  358SOL    HW2 1074   0.103   1.772   1.667  2.8276 -1.5988 -0.4835
  359SOL     OW 1075   2.850   2.728   2.430 -0.1906 -0.0438  0.3266
  359SOL    HW1 1076   2.786   2.797   2.443  2.2166 -0.3807 -0.6531
  359SOL    HW2 1077   2.914   2.748   2.349  1.6431 -2.6656 -1.5310
  360SOL     OW 1078   1.046   0.642   1.545 -0.2721  0.1339 -0.1766
  360SOL    HW1 1079   0.967   0.581   1.531  0.8202  1.8124 -2.2885
  360SOL    HW2 1080   1.105   0.613   1.628 -0.9390  0.2920  1.4528
  361SOL     OW 1081   2.275   2.918   0.827  0.0909  0.6282  0.4099
  361SOL    HW1 1082   2.282   2.834   0.769 -1.6263  2.0125 -1.0042
  361SOL    HW2 1083   2.299   3.002   0.766  0.0713  1.7090 -4.3085
  362SOL     OW 1084   0.903   0.036   0.441  0.1377  0.0481  0.0025
  362SOL    HW1 1085   0.862   3.087   0.512 -0.0272 -1.5201 -2.0332
  362SOL    HW2 1086   0.998   0.012   0.420  0.4121 -1.4271  1.6411
  363SOL     OW 1087   1.088   1.550   0.743 -0.0190 -0.1756 -0.4044
  363SOL    HW1 1088   1.117   1.501   0.659 -1.4860  0.2304 -0.9705
  363SOL    HW2 1089   1.166   1.577   0.805  2.0432 -2.5268 -0.4445
  364SOL     OW 1090   0.426   0.874   1.756 -0.3947 -0.0019 -0.4585
  364SOL    HW1 1091   0.425   0.774   1.785  0.1757 -2.0285  0.6291
  364SOL    HW2 1092   0.521   0.899   1.729 -0.9695  0.2919 -0.0583
  365SOL     OW 1093   2.896   0.902   1.005 -0.4107 -0.6208  0.6234
  365SOL    HW1 1094   2.992   0.901   1.042 -1.7104  1.9903  3.9803
  365SOL    HW2 1095   2.895   0.900   0.904 -1.8746 -1.2595 -0.8227
  366SOL     OW 1096   2.590   1.534   0.546 -0.6710 -0.1742  0.0092
  366SOL    HW1 1097   2.660   1.595   0.592  3.5887 -1.6780  2.2696
  366SOL    HW2 1098   2.552   1.587   0.465  1.3358  0.8357 -0.6126
  367SOL     OW 1099   2.263   2.051   2.113  0.3446  0.3866 -0.2717
  367SOL    HW1 1100   2.271   1.955   2.138 -0.2689  1.2106  0.0801
  367SOL    HW2 1101   2.230   2.069   2.015 -0.6962  0.5284 -0.2376
  368SOL     OW 1102   2.610   1.842   1.018 -0.2317 -0.2455  0.1053
  368SOL    HW1 1103   2.638   1.834   0.918  0.6112 -0.1373 -2.2037
  368SOL    HW2 1104   2.521   1.890   1.026 -1.2103  0.2291 -0.9605
  369SOL     OW 1105   1.932   2.546   2.719  0.0798  0.0912 -0.2511
  369SOL    HW1 1106   1.889   2.597   2.639  2.6288  1.3044 -0.0371
  369SOL    HW2 1107   1.963   2.614   2.787 -1.6751 -1.4586 -0.7221
  370SOL     OW 1108   0.182   0.219   1.287 -0.4309 -0.1661  0.6120
  370SOL    HW1 1109   0.125   0.275   1.222 -2.3547 -1.3460  2.3515
  370SOL    HW2 1110   0.281   0.218   1.260 -1.7202  2.5377 -0.2278
  371SOL     OW 1111   0.669   1.999   0.166  0.1649 -0.1712  0.2221
  371SOL    HW1 1112   0.615   2.016   0.079 -1.8896  0.4607 -0.4769
  371SOL    HW2 1113   0.605   2.004   0.244  0.3157  1.0125 -1.0312
  372SOL     OW 1114   0.986   1.200   0.089  0.8020  0.0978  0.2933
  372SOL    HW1 1115   1.036   1.131   0.151  0.4202 -2.6783 -1.3124
  372SOL    HW2 1116   1.009   1.185   3.099  0.1977  1.8918  1.6157
  373SOL     OW 1117   1.239   2.468   2.313  0.1108 -0.0534  0.5140
  373SOL    HW1 1118   1.250   2.387   2.374  0.0206 -2.1644 -3.3121
  373SOL    HW2 1119   1.329   2.508   2.301 -2.1170 -0.2959 -0.7006
  374SOL     OW 1120   0.496   2.043   3.071  0.7415 -0.0114 -0.0510
  374SOL    HW1 1121   0.486   1.957   3.013 -1.4354 -2.2990 -0.4720
  374SOL    HW2 1122   0.406   2.096   3.066 -0.2620  0.4468  0.8246
  375SOL     OW 1123   0.865   0.756   1.811  0.1525  0.6627  0.1815
  375SOL    HW1 1124   0.923   0.794   1.887 -1.6661 -1.6632  1.0209
  375SOL    HW2 1125   0.891   0.659   1.786  0.5466  1.2852 -0.6420
  376SOL     OW 1126   0.623   2.330   1.734 -0.9419  0.3440 -0.1603
  376SOL    HW1 1127   0.660   2.236   1.720  2.6446  1.2288 -0.0214
  376SOL    HW2 1128   0.575   2.332   1.824 -0.2171 -1.5897  0.3786
  377SOL     OW 1129   2.964   1.540   2.650 -0.0879  0.2219 -0.3846
  377SOL    HW1 1130   2.874   1.496   2.625 -2.0257  0.0685  0.2266
  377SOL    HW2 1131   3.014   1.479   2.716  3.5034 -3.0648  0.1464
  378SOL     OW 1132   1.329   3.083   2.791  0.1302 -0.2710 -0.4092
  378SOL    HW1 1133   1.401   3.024   2.748  0.3501  2.9620  1.1406
  378SOL    HW2 1134   1.250   3.037   2.832  0.3470 -2.2703 -1.0125
  379SOL     OW 1135   1.755   0.738   0.629  0.1024  0.2899 -0.0797
  379SOL    HW1 1136   1.791   0.759   0.721  0.5977 -0.0840  1.4294
  379SOL    HW2 1137   1.824   0.691   0.575 -0.0692 -1.0821  3.1493
  380SOL     OW 1138   0.316   1.994   1.295 -0.4083  0.3271 -0.0948
  380SOL    HW1 1139   0.235   2.041   1.340 -3.6634  1.1199 -4.8666
  380SOL    HW2 1140   0.376   1.946   1.362  5.9297  0.5520  0.1922
  381SOL     OW 1141   2.494   1.494   2.597  0.5864 -0.2774  0.2727
  381SOL    HW1 1142   2.542   1.583   2.580  3.3433  0.4261  0.1304
  381SOL    HW2 1143   2.404   1.484   2.541  0.9564  1.8680 -3.1935
  382SOL     OW 1144   0.010   0.185   2.610 -0.1723 -1.1735  0.3927
  382SOL    HW1 1145   3.043   0.131   2.565 -0.9570 -1.4271 -1.4079
  382SOL    HW2 1146   0.049   0.254   2.549 -0.8178  2.4211  1.3207
  383SOL     OW 1147   1.944   1.307   3.084  0.1388  0.2410  0.4599
  383SOL    HW1 1148   2.002   1.387   3.090  1.1210  0.4976 -0.7017
  383SOL    HW2 1149   1.873   1.303   0.048  3.1083  0.9453  2.2852
  384SOL     OW 1150   1.097   2.175   1.366  0.5975  0.3778  0.0831
  384SOL    HW1 1151   1.034   2.214   1.435 -0.4964 -1.8042 -2.1191
  384SOL    HW2 1152   1.193   2.186   1.398 -1.8183 -0.3230 -1.5317
  385SOL     OW 1153   1.783   2.727   0.889  0.6603  0.1402 -0.0384
  385SOL    HW1 1154   1.753   2.821   0.912 -1.5768 -0.2321  0.2147
  385SOL    HW2 1155   1.740   2.694   0.801 -1.2598 -1.9172 -2.5466
  386SOL     OW 1156   1.766   2.220   1.042 -0.0365 -0.4122  0.4220
  386SOL    HW1 1157   1.817   2.195   0.959 -2.4418  0.3115 -3.0634
  386SOL    HW2 1158   1.733   2.319   1.043 -2.2485  0.1516  0.0356
  387SOL     OW 1159   2.865   2.127   1.310  0.2515  0.2868 -0.1125
  387SOL    HW1 1160   2.866   2.035   1.264 -1.2783 -0.5088 -0.0763
  387SOL    HW2 1161   2.814   2.100   1.393 -3.3069 -2.0310  1.5265
  388SOL     OW 1162   2.639   0.999   1.541 -0.0183 -0.3604 -0.5817
  388SOL    HW1 1163   2.650   1.057   1.624 -0.3272 -1.1500 -1.5810
  388SOL    HW2 1164   2.541   0.995   1.518  0.4544  0.0704 -0.6989
  389SOL     OW 1165   1.906   0.669   0.385 -0.3497 -0.0728  0.1506
  389SOL    HW1 1166   1.963   0.724   0.322 -0.2862 -0.7527  4.1569
  389SOL    HW2 1167   1.811   0.681   0.353  1.6618  0.5399  1.3785
  390SOL     OW 1168   1.447   1.818   2.696  0.1352  0.1009 -0.0060
  390SOL    HW1 1169   1.390   1.836   2.617  2.2733 -0.8209 -0.0907
  390SOL    HW2 1170   1.491   1.727   2.690  1.7314 -0.4209 -2.2321
  391SOL     OW 1171   1.038   2.074   3.007 -0.6617 -0.2242 -0.1281
  391SOL    HW1 1172   1.024   2.165   3.047  0.4080  0.3921  0.6492
  391SOL    HW2 1173   0.961   2.049   2.948  1.5088 -0.8343 -2.8148
  392SOL     OW 1174   0.275   2.847   1.726 -0.3688  0.0737 -0.2163
  392SOL    HW1 1175   0.344   2.781   1.687  2.7731  1.0142  0.5137
  392SOL    HW2 1176   0.223   2.804   1.801 -0.1807  3.4361  1.9643
  393SOL     OW 1177   1.550   2.507   0.127 -0.5578 -0.1068  0.2529
  393SOL    HW1 1178   1.651   2.516   0.129  1.6740  0.3660  0.7599
  393SOL    HW2 1179   1.518   2.469   0.218 -2.0794 -1.5629  3.0726
  394SOL     OW 1180   0.369   0.551   2.265 -0.0404 -0.7414  0.3277
  394SOL    HW1 1181   0.333   0.624   2.331 -0.4992  0.6377  0.3952
  394SOL    HW2 1182   0.414   0.473   2.309  1.4604  3.3083 -2.2775
  395SOL     OW 1183   0.422   1.267   1.089  0.4369 -0.1692  0.3086
  395SOL    HW1 1184   0.341   1.318   1.126 -0.8706 -1.3751  0.0902
  395SOL    HW2 1185   0.425   1.289   0.990  0.4887 -0.8374  0.9422
  396SOL     OW 1186   1.718   1.193   2.233 -0.4727 -0.3360 -0.4707
  396SOL    HW1 1187   1.771   1.251   2.298 -3.0949 -0.1801  1.4539
  396SOL    HW2 1188   1.709   1.100   2.270  1.6763 -0.1854  1.3468
  397SOL     OW 1189   0.686   0.311   0.208  0.1066 -0.2143  0.1311
  397SOL    HW1 1190   0.683   0.321   0.107 -0.4909  0.1473 -2.9418
  397SOL    HW2 1191   0.662   0.397   0.257  0.4967  0.0949  0.1255
  398SOL     OW 1192   0.949   2.070   2.690 -0.5181 -0.0603  0.3102
  398SOL    HW1 1193   0.878   2.031   2.752  2.2253  0.0331 -3.1333
  398SOL    HW2 1194   0.997   2.001   2.631  1.6840  1.5683 -3.1190
  399SOL     OW 1195   2.250   1.454   2.480 -0.0283 -0.0417 -0.0118
  399SOL    HW1 1196   2.220   1.464   2.574 -0.1907 -1.1189 -0.7500
  399SOL    HW2 1197   2.193   1.392   2.425  2.7564 -0.0877  0.9139
  400SOL     OW 1198   2.166   1.335   1.491  0.6882  0.2717  1.3359
  400SOL    HW1 1199   2.211   1.294   1.409  1.1594  1.5866 -3.3090
  400SOL    HW2 1200   2.168   1.438   1.484  1.5878  0.0561 -1.6525
  401SOL     OW 1201   0.987   1.551   1.318 -0.2783 -0.3438  0.0407
  401SOL    HW1 1202   1.078   1.551   1.358 -1.5546 -0.6665 -0.8090
  401SOL    HW2 1203   0.927   1.479   1.361  2.5661 -0.7556  1.7543
  402SOL     OW 1204   0.169   2.413   1.647  0.0755  0.7031 -0.1369
  402SOL    HW1 1205   0.095   2.463   1.601 -0.1081  2.9173 -2.2259
  402SOL    HW2 1206   0.258   2.464   1.666  0.9471 -0.5879  0.7643
  403SOL     OW 1207   0.231   1.115   2.413  0.0075 -0.0973 -0.8537
  403SOL    HW1 1208   0.204   1.212   2.434 -1.6116 -0.7795 -0.3282
  403SOL    HW2 1209   0.327   1.080   2.422  0.0824 -0.8388 -1.1273
  404SOL     OW 1210   2.200   1.764   1.331  0.1265  0.0068  0.1894
  404SOL    HW1 1211   2.228   1.856   1.366  3.0244 -1.0085 -2.3609
  404SOL    HW2 1212   2.264   1.728   1.258  1.0829 -0.1363 -0.4697
  405SOL     OW 1213   2.748   0.378   2.558  0.4107  0.0710 -0.1976
  405SOL    HW1 1214   2.814   0.442   2.517 -1.4213 -2.5662 -1.3238
  405SOL    HW2 1215   2.713   0.311   2.488 -2.5153 -2.2848 -0.7055
  406SOL     OW 1216   0.820   1.376   3.088 -0.3099  0.2194 -0.0905
  406SOL    HW1 1217   0.791   1.458   0.036  0.2116  0.6026 -1.9215
  406SOL    HW2 1218   0.865   1.307   0.044 -1.0378  1.7350  0.0583
  407SOL     OW 1219   1.780   2.617   2.975 -0.0135 -0.4718  0.0823
  407SOL    HW1 1220   1.729   2.551   2.922 -2.9592  1.5355  0.2168
  407SOL    HW2 1221   1.754   2.710   2.946 -0.6678 -1.8110 -1.6063
  408SOL     OW 1222   0.393   0.009   0.026  0.0986 -0.2373  0.1211
  408SOL    HW1 1223   0.445   3.102   0.111 -1.0820 -0.4662 -0.8145
  408SOL    HW2 1224   0.448   3.091   3.055 -0.5945 -0.9376  1.5345
  409SOL     OW 1225   2.367   1.706   1.125 -0.2375 -0.0421  0.2794
  409SOL    HW1 1226   2.314   1.701   1.036  0.0935  1.9413 -1.7317
  409SOL    HW2 1227   2.456   1.753   1.107  1.6282 -1.9802 -1.0355
  410SOL     OW 1228   2.294   2.000   2.740 -0.0815 -0.3636  0.1746
  410SOL    HW1 1229   2.391   1.979   2.764  3.3609 -0.3007  0.3478
  410SOL    HW2 1230   2.259   2.063   2.810 -0.3098 -1.3341  1.8775
  411SOL     OW 1231   3.024   1.231   0.749 -0.0122 -0.2539  0.1668
  411SOL    HW1 1232   3.060   1.152   0.697  0.0746 -1.6652  2.0470
  411SOL    HW2 1233   3.067   1.316   0.711 -1.5337 -1.4709  2.0421
  412SOL     OW 1234   1.609   2.797   0.444  0.7368 -0.2021  0.3171
  412SOL    HW1 1235   1.688   2.756   0.400  0.1652  0.9600 -1.0448
  412SOL    HW2 1236   1.554   2.842   0.367 -1.0630  1.5708 -3.7298
  413SOL     OW 1237   1.738   0.497   2.302  0.2555 -0.1580 -0.0743
  413SOL    HW1 1238   1.648   0.446   2.296  0.9231 -1.8959  1.8273
  413SOL    HW2 1239   1.814   0.447   2.254  0.4010  0.2233 -0.9790
  414SOL     OW 1240   2.728   0.541   0.539  0.0032  0.5795 -0.5339
  414SOL    HW1 1241   2.701   0.482   0.464  1.5917  1.0298  1.7664
  414SOL    HW2 1242   2.815   0.511   0.584 -0.9361  0.8142 -0.0981
  415SOL     OW 1243   0.932   1.558   1.644 -0.0267  0.1551  0.3610
  415SOL    HW1 1244   0.954   1.638   1.586  1.6527  0.0969  0.2191
  415SOL    HW2 1245   0.833   1.567   1.665  1.6695  2.2331 -3.0975
  416SOL     OW 1246   0.504   3.008   2.896  0.2602  0.3244 -0.4892
  416SOL    HW1 1247   0.518   3.089   2.835  1.1128 -2.0353  1.5205
  416SOL    HW2 1248   0.424   2.956   2.861  3.4273  0.7731  1.5095
  417SOL     OW 1249   2.622   2.898   1.127  0.2258  0.5815 -0.3011
  417SOL    HW1 1250   2.672   2.811   1.108 -2.4734  2.2952  1.3046
  417SOL    HW2 1251   2.681   2.966   1.172 -1.6232  3.0174  0.9074
  418SOL     OW 1252   0.528   0.523   2.544 -0.0089  0.6998 -0.2578
  418SOL    HW1 1253   0.433   0.508   2.579 -2.7781  0.2725  0.1542
  418SOL    HW2 1254   0.529   0.515   2.444 -0.8700 -2.1500  2.6952
  419SOL     OW 1255   0.168   1.358   1.134 -0.2999 -0.3877 -0.0601
  419SOL    HW1 1256   0.155   1.459   1.121 -0.0775 -0.9967  0.7058
  419SOL    HW2 1257   0.089   1.307   1.103  3.2046  0.8291  0.6017
  420SOL     OW 1258   0.746   2.254   1.075  0.2528 -0.0990  0.1209
  420SOL    HW1 1259   0.799   2.216   0.996 -1.9599 -0.0217  0.0484
  420SOL    HW2 1260   0.654   2.210   1.087  0.7672  0.6236 -1.1182
  421SOL     OW 1261   1.917   2.355   2.022  0.1378 -0.3719 -0.0112
  421SOL    HW1 1262   1.856   2.309   1.954 -0.7885  0.8782  0.1500
  421SOL    HW2 1263   1.934   2.296   2.104 -0.8074  1.2872 -1.2555
  422SOL     OW 1264   3.098   0.451   2.708 -0.6908 -0.2454 -0.0189
  422SOL    HW1 1265   0.004   0.351   2.694  0.5374  0.5016  2.3292
  422SOL    HW2 1266   3.024   0.470   2.774 -1.6227  1.6839  1.2907
  423SOL     OW 1267   1.361   2.261   0.869 -0.1384 -0.6669 -0.4443
  423SOL    HW1 1268   1.312   2.171   0.876 -1.1271 -0.7883  0.4385
  423SOL    HW2 1269   1.336   2.324   0.946  0.9817 -2.0752  1.4224
  424SOL     OW 1270   0.694   1.655   1.690  0.0832 -0.3115  0.3059
  424SOL    HW1 1271   0.610   1.683   1.741  0.7637  0.3678  0.3099
  424SOL    HW2 1272   0.704   1.707   1.602  1.6125 -0.8276  0.7565
  425SOL     OW 1273   0.010   2.635   2.023 -0.1008 -0.1909 -0.5312
  425SOL    HW1 1274   0.038   2.544   2.059 -0.9330  2.2300 -3.0028
  425SOL    HW2 1275   0.004   2.634   1.921 -1.9695 -0.9661 -0.1288
  426SOL     OW 1276   1.722   0.112   0.608 -0.5155 -0.1309 -0.1806
  426SOL    HW1 1277   1.728   0.084   0.509  3.5063 -0.6213  0.3122
  426SOL    HW2 1278   1.812   0.100   0.644 -4.3468  1.3300  0.1252
  427SOL     OW 1279   1.097   0.626   2.829 -0.3896  0.0197  0.0706
  427SOL    HW1 1280   1.067   0.611   2.922  2.2934  2.1047 -1.3739
  427SOL    HW2 1281   1.074   0.712   2.786 -1.6466 -0.6739  0.0910
  428SOL     OW 1282   1.780   1.133   0.322 -0.9326  0.4692  0.3965
  428SOL    HW1 1283   1.734   1.213   0.276 -1.3059  1.4619  2.5580
  428SOL    HW2 1284   1.798   1.047   0.264  2.2938 -1.1551 -1.5800
  429SOL     OW 1285   3.100   2.923   0.644  0.3567  0.5350  0.6479
  429SOL    HW1 1286   0.090   2.942   0.657 -3.5420  0.8949 -1.7102
  429SOL    HW2 1287   3.072   2.958   0.552  1.7510 -0.0175 -0.5356
  430SOL     OW 1288   0.297   3.082   2.302 -0.5147 -0.2831 -0.4496
  430SOL    HW1 1289   0.332   3.079   2.399 -2.9442  2.9940 -0.2480
  430SOL    HW2 1290   0.357   3.039   2.235  0.1822  1.2811  1.0871
  431SOL     OW 1291   2.359   0.944   1.482 -0.8525  0.1152 -0.7638
  431SOL    HW1 1292   2.276   0.905   1.439  3.9223  0.6277  0.8137
  431SOL    HW2 1293   2.345   0.965   1.581 -1.5365 -2.6558  2.9431
  432SOL     OW 1294   2.060   2.580   2.097  0.0247 -0.1231 -0.0576
  432SOL    HW1 1295   2.102   2.556   2.186  0.3686 -0.6791 -2.1364
  432SOL    HW2 1296   2.005   2.501   2.062  0.0093 -0.9132  1.3499
  433SOL     OW 1297   1.367   2.374   0.581  0.6859  0.1339  0.6028
  433SOL    HW1 1298   1.376   2.284   0.625 -1.8657 -0.6787 -0.8049
  433SOL    HW2 1299   1.401   2.454   0.630  0.9716 -1.3608 -0.8930
  434SOL     OW 1300   0.216   2.046   2.127 -0.1477 -0.5436  0.2284
  434SOL    HW1 1301   0.309   2.031   2.167  0.6747 -2.9095  1.0926
  434SOL    HW2 1302   0.140   2.017   2.192 -0.8102 -2.3477 -1.5196
  435SOL     OW 1303   0.316   0.906   0.278 -0.0412  0.2188 -0.5013
  435SOL    HW1 1304   0.238   0.868   0.226 -2.0727 -1.1738 -3.5678
  435SOL    HW2 1305   0.403   0.903   0.230 -1.2164 -0.6041  1.2412
  436SOL     OW 1306   0.375   2.545   1.775 -1.0898  0.3160  0.1106
  436SOL    HW1 1307   0.441   2.517   1.848  2.4383  0.0655 -2.0506
  436SOL    HW2 1308   0.415   2.578   1.685 -1.4444 -2.7300 -3.6085
  437SOL     OW 1309   1.550   2.331   1.579  0.0652  0.0971  0.3569
  437SOL    HW1 1310   1.595   2.374   1.498 -1.1212 -1.2826 -0.4796
  437SOL    HW2 1311   1.616   2.319   1.657  0.7547 -2.4781 -1.5529
  438SOL     OW 1312   0.188   1.801   0.695 -0.2752 -0.0392 -0.2968
  438SOL    HW1 1313   0.211   1.717   0.743  0.8256 -0.3351 -0.3745
  438SOL    HW2 1314   0.086   1.817   0.679 -1.1953  3.8417  2.3806
  439SOL     OW 1315   0.039   0.707   0.865 -0.2643 -0.1815  0.2989
  439SOL    HW1 1316   0.083   0.649   0.937  0.1201  0.2395 -0.2772
  439SOL    HW2 1317   3.054   0.676   0.844 -0.4715 -0.6584 -0.1779
  440SOL     OW 1318   0.045   2.697   2.516 -0.4369 -0.4276 -0.1451
  440SOL    HW1 1319   3.089   2.700   2.595 -0.1496  2.5785 -0.0149
  440SOL    HW2 1320   0.076   2.603   2.490 -0.0208 -1.2248 -0.1110
  441SOL     OW 1321   2.825   0.126   0.678  0.0536  0.0002 -0.5793
  441SOL    HW1 1322   2.889   0.204   0.658 -1.0958 -0.4677  1.5981
  441SOL    HW2 1323   2.744   0.157   0.730  0.3768  1.5223  0.8292
  442SOL     OW 1324   1.292   2.231   2.443 -0.3174  0.3799  0.4089
  442SOL    HW1 1325   1.262   2.213   2.537  1.5334  0.4046 -0.2437
  442SOL    HW2 1326   1.392   2.228   2.431  0.9229  1.1088 -0.7349
  443SOL     OW 1327   0.753   1.046   0.069 -0.3117 -0.1716  0.3285
  443SOL    HW1 1328   0.721   1.064   3.079 -1.6876  1.6879 -2.7180
  443SOL    HW2 1329   0.848   1.088   0.075 -0.0889  1.3243 -1.8162
  444SOL     OW 1330   1.664   1.455   2.455  0.5932 -0.6893  1.1290
  444SOL    HW1 1331   1.609   1.454   2.366 -1.5664  1.2352  0.8906
  444SOL    HW2 1332   1.647   1.370   2.500  0.6462 -0.5629 -0.3597
  445SOL     OW 1333   0.031   3.091   1.070 -0.1288  0.3036 -0.0953
  445SOL    HW1 1334   0.127   0.014   1.051  0.8772  1.3655  0.1549
  445SOL    HW2 1335   3.096   3.060   0.982  3.0408 -0.7678 -0.5697
  446SOL     OW 1336   2.114   0.631   1.083  0.1943  0.4393  0.0538
  446SOL    HW1 1337   2.138   0.675   0.994  2.3584  2.0436 -0.5376
  446SOL    HW2 1338   2.014   0.600   1.081 -0.6684 -2.1249  1.7804
  447SOL     OW 1339   0.238   0.606   3.034  0.2277  0.0784  0.2463
  447SOL    HW1 1340   0.191   0.512   3.024 -0.6943 -0.3445 -0.4488
  447SOL    HW2 1341   0.217   0.668   2.958 -0.7701 -1.3629 -0.1578
  448SOL     OW 1342   1.441   1.873   1.404  0.1732 -0.5965 -0.1453
  448SOL    HW1 1343   1.508   1.954   1.412 -0.3308 -1.5319 -1.2964
  448SOL    HW2 1344   1.439   1.818   1.489 -0.8477 -1.1730  1.5478
  449SOL     OW 1345   0.918   1.475   0.938  0.0253  0.7908 -0.3152
  449SOL    HW1 1346   0.995   1.432   0.993 -4.4962 -1.8122 -1.6568
  449SOL    HW2 1347   0.966   1.515   0.861 -0.7791 -0.2316  1.7182
  450SOL     OW 1348   2.919   2.164   2.053  0.3786  0.3149  0.1029
  450SOL    HW1 1349   2.906   2.266   2.066 -0.8582  1.1310  4.1041
  450SOL    HW2 1350   2.826   2.125   2.060  1.0761  1.8352 -0.3806
  451SOL     OW 1351   2.421   1.239   2.614  0.1007  0.0970 -0.3276
  451SOL    HW1 1352   2.319   1.245   2.626 -2.0856  1.4249 -0.6862
  451SOL    HW2 1353   2.461   1.333   2.612  0.9645 -1.7555  0.0885
  452SOL     OW 1354   1.715   0.963   1.385 -0.1242 -0.7531  0.6881
  452SOL    HW1 1355   1.632   1.020   1.404 -2.6612 -0.4941 -0.7726
  452SOL    HW2 1356   1.777   1.014   1.320  0.3048 -0.8500 -0.0550
  453SOL     OW 1357   2.077   1.004   1.612  0.3377  0.1477  0.4991
  453SOL    HW1 1358   2.127   1.087   1.645  0.6237 -0.0372 -0.7683
  453SOL    HW2 1359   2.057   1.009   1.515  2.6560 -0.3788  2.1000
  454SOL     OW 1360   3.019   1.055   0.231  0.1972 -0.8759  0.2571
  454SOL    HW1 1361   3.011   0.993   0.156 -1.2466  0.5787  1.7944
  454SOL    HW2 1362   2.968   1.013   0.306  1.2149  1.5688 -0.7373
  455SOL     OW 1363   2.513   1.475   1.127  0.1901  0.6719  0.0634
  455SOL    HW1 1364   2.512   1.435   1.030  3.8918 -0.5988 -0.6085
  455SOL    HW2 1365   2.440   1.550   1.126 -1.1188  0.1216  1.4184
  456SOL     OW 1366   0.759   0.272   1.353  0.4045  0.3247 -0.2903
  456SOL    HW1 1367   0.743   0.174   1.383 -2.3813  1.1375 -3.3937
  456SOL    HW2 1368   0.819   0.271   1.271 -0.3586 -2.4885 -0.0398
  457SOL     OW 1369   1.686   2.953   0.993  0.9239  0.3053 -0.3119
  457SOL    HW1 1370   1.665   2.923   1.085 -0.2434 -0.5447 -2.6226
  457SOL    HW2 1371   1.598   2.954   0.938  0.0732 -0.2177 -1.6804
  458SOL     OW 1372   2.444   0.313   0.532 -0.1136 -0.3272 -0.1809
  458SOL    HW1 1373   2.396   0.402   0.539  0.3582 -1.2922 -0.3309
  458SOL    HW2 1374   2.376   0.244   0.501  1.2684  3.0628 -0.0672
  459SOL     OW 1375   1.636   0.701   0.002  0.4645 -0.3443 -0.3206
  459SOL    HW1 1376   1.668   0.617   3.061  0.4389  0.4170 -0.8807
  459SOL    HW2 1377   1.538   0.717   3.084 -0.3428 -1.4149 -2.1113
  460SOL     OW 1378   0.033   2.516   2.791  0.5361  0.0429  0.5042
  460SOL    HW1 1379   3.047   2.564   2.775 -2.6272  0.7098 -2.4704
  460SOL    HW2 1380   0.106   2.583   2.804 -0.5674 -2.8989 -0.3333
  461SOL     OW 1381   0.418   1.863   0.285 -0.3299  0.2948 -1.0253
  461SOL    HW1 1382   0.399   1.806   0.369 -1.5886 -1.8537  1.1581
  461SOL    HW2 1383   0.484   1.811   0.223  0.1227  0.2643 -1.0133
  462SOL     OW 1384   2.047   2.429   0.724 -0.3694  0.4598  0.1667
  462SOL    HW1 1385   2.139   2.405   0.687  0.3571  0.1082  1.6473
  462SOL    HW2 1386   2.047   2.508   0.782 -1.3341  2.0148 -1.2680
  463SOL     OW 1387   2.978   0.652   0.408  0.0592  0.7007  0.5519
  463SOL    HW1 1388   3.071   0.608   0.411  2.1189 -0.7108 -1.2493
  463SOL    HW2 1389   2.914   0.580   0.380 -0.3953 -0.2886  0.4620
  464SOL     OW 1390   0.717   2.522   0.443 -0.5005 -0.0987 -0.3718
  464SOL    HW1 1391   0.670   2.546   0.531  1.4988 -0.0328 -0.9842
  464SOL    HW2 1392   0.702   2.420   0.424 -1.8380 -0.3431 -1.0999
  465SOL     OW 1393   2.318   0.540   0.565 -0.1613 -0.3995 -0.1413
  465SOL    HW1 1394   2.252   0.504   0.632  1.5833  0.2937 -0.4322
  465SOL    HW2 1395   2.264   0.566   0.480 -3.3092  2.0186  1.4578
  466SOL     OW 1396   2.158   0.283   0.265 -0.0761  0.1162  0.7714
  466SOL    HW1 1397   2.234   0.329   0.205 -0.9535  1.7645 -2.4657
  466SOL    HW2 1398   2.167   0.184   0.261  3.2192 -2.2447  2.5910
  467SOL     OW 1399   1.170   0.298   2.003 -0.1312 -0.1714  0.1836
  467SOL    HW1 1400   1.192   0.262   2.095  1.0988 -0.1944 -2.3388
  467SOL    HW2 1401   1.198   0.393   1.998 -0.0470 -0.6594  2.6055
  468SOL     OW 1402   2.907   0.681   2.172 -0.0064  0.1956 -0.2723
  468SOL    HW1 1403   3.003   0.681   2.142 -0.2049 -1.9656  0.4338
  468SOL    HW2 1404   2.844   0.695   2.092  4.5695 -3.1654  1.0607
  469SOL     OW 1405   0.701   2.427   2.356  0.4187 -0.0904 -0.0529
  469SOL    HW1 1406   0.744   2.395   2.444  0.7641 -1.7459 -0.0566
  469SOL    HW2 1407   0.672   2.352   2.294  2.0696 -1.9974 -2.1574
  470SOL     OW 1408   2.135   1.343   2.014 -0.1315 -0.0908  0.4581
  470SOL    HW1 1409   2.181   1.382   1.932 -0.1444 -0.8818  1.1292
  470SOL    HW2 1410   2.151   1.247   2.025 -3.4009  3.2302 -0.7891
  471SOL     OW 1411   2.800   0.836   0.085 -0.0316 -0.3913 -0.0310
  471SOL    HW1 1412   2.747   0.830   3.102  0.9599  0.3980 -0.4296
  471SOL    HW2 1413   2.900   0.850   0.063  0.5489 -1.4829  3.1602
  472SOL     OW 1414   0.430   2.793   0.361  0.1578  0.0605 -0.4983
  472SOL    HW1 1415   0.347   2.752   0.329 -0.0470 -0.5231  1.0411
  472SOL    HW2 1416   0.507   2.752   0.312 -2.7548  1.3893  1.9810
  473SOL     OW 1417   0.827   2.662   2.279  0.6101 -0.2895 -0.4975
  473SOL    HW1 1418   0.773   2.582   2.303 -0.8342 -1.2905 -1.3205
  473SOL    HW2 1419   0.820   2.726   2.355  0.9826 -2.1111 -0.3085
  474SOL     OW 1420   1.427   0.093   2.227  0.7372 -0.0199 -0.2789
  474SOL    HW1 1421   1.322   0.106   2.243 -2.3330  0.5550  1.0185
  474SOL    HW2 1422   1.473   0.110   2.313  2.5528  0.7135 -0.4718
  475SOL     OW 1423   0.782   2.376   0.134 -0.3539 -0.0298 -0.3726
  475SOL    HW1 1424   0.812   2.465   0.171  1.8974 -3.5229 -0.3858
  475SOL    HW2 1425   0.696   2.347   0.180  1.3600  1.0376 -1.6088
  476SOL     OW 1426   0.575   0.349   0.857  0.3979 -0.5915 -0.6391
  476SOL    HW1 1427   0.577   0.427   0.926 -1.5446  1.3895 -1.2745
  476SOL    HW2 1428   0.661   0.354   0.802  0.8099 -1.5178 -0.3128
  477SOL     OW 1429   1.830   1.817   1.325  0.1226 -0.3012  0.0397
  477SOL    HW1 1430   1.813   1.741   1.386  0.5767  1.4793 -2.8245
  477SOL    HW2 1431   1.871   1.778   1.241  2.1060  1.4363  0.7126
  478SOL     OW 1432   0.221   0.767   2.823  0.3134 -0.2095 -0.3909
  478SOL    HW1 1433   0.293   0.806   2.756  3.8655  1.3824 -1.4411
  478SOL    HW2 1434   0.178   0.839   2.875  1.7420 -4.2094 -1.0347
  479SOL     OW 1435   0.524   0.046   0.761 -0.4866  0.0410  0.6704
  479SOL    HW1 1436   0.553   0.027   0.665  1.2845  0.2908 -2.5679
  479SOL    HW2 1437   0.455   0.115   0.759  2.0116  2.5378  1.6432
  480SOL     OW 1438   2.547   2.661   0.094  0.1527 -0.3653 -0.3159
  480SOL    HW1 1439   2.593   2.719   0.024  0.8469  0.2214  1.7987
  480SOL    HW2 1440   2.565   2.558   0.081  0.1429 -2.7433  0.1645
  481SOL     OW 1441   2.798   0.659   1.101  0.0378 -0.1415 -0.4197
  481SOL    HW1 1442   2.820   0.748   1.060 -3.3704  0.0168  0.4008
  481SOL    HW2 1443   2.864   0.626   1.173  0.4196 -0.6318 -0.2255
  482SOL     OW 1444   1.263   2.478   1.435 -0.4901  0.3816 -0.0700
  482SOL    HW1 1445   1.305   2.398   1.385 -2.2084 -0.7085 -1.7579
  482SOL    HW2 1446   1.254   2.457   1.531  0.2235  0.9151 -0.0865
  483SOL     OW 1447   0.431   1.441   0.046 -0.0745  0.2857  0.2411
  483SOL    HW1 1448   0.459   1.449   3.054 -2.7992 -0.4628 -1.7453
  483SOL    HW2 1449   0.408   1.341   0.058 -0.2291 -0.7285 -0.9099
  484SOL     OW 1450   1.331   1.629   2.323 -0.2539  0.8677  0.5206
  484SOL    HW1 1451   1.279   1.578   2.398 -0.1419 -1.9621  2.6498
  484SOL    HW2 1452   1.412   1.573   2.298  0.6179 -4.1311  0.9097
  485SOL     OW 1453   0.128   0.384   2.460  0.1127  0.6510 -0.3440
  485SOL    HW1 1454   0.079   0.470   2.439  0.8190 -1.7331  1.9916
  485SOL    HW2 1455   0.120   0.316   2.384  1.0389 -1.7232  1.5459
  486SOL     OW 1456   1.322   0.035   0.581 -0.0548 -0.0706  0.3909
  486SOL    HW1 1457   1.314   0.099   0.656 -2.3033 -1.5896 -3.9192
  486SOL    HW2 1458   1.405   3.085   0.593  0.2031  3.5220 -1.3754
  487SOL     OW 1459   1.435   2.924   0.868  0.4071 -0.4763  0.5405
  487SOL    HW1 1460   1.363   2.993   0.898 -2.3026  1.1386 -0.2699
  487SOL    HW2 1461   1.469   2.948   0.773 -3.0494  0.4670 -1.4304
  488SOL     OW 1462   2.015   1.004   0.903 -0.0437 -0.3716 -0.1625
  488SOL    HW1 1463   2.102   1.043   0.948  0.8893  1.4709 -2.3251
  488SOL    HW2 1464   2.044   0.990   0.803  0.4871  1.4333 -2.4355
  489SOL     OW 1465   1.159   2.915   1.285  0.5215 -0.2319 -0.0109
  489SOL    HW1 1466   1.201   2.823   1.284  0.7375  0.8930  1.5266
  489SOL    HW2 1467   1.102   2.923   1.199  0.3190 -2.6876  1.2760
  490SOL     OW 1468   0.901   0.847   0.367  0.4381 -0.1202  0.1575
  490SOL    HW1 1469   0.805   0.876   0.396  0.2021 -2.1749  1.4738
  490SOL    HW2 1470   0.940   0.790   0.443  3.0812 -0.7459  0.5362
  491SOL     OW 1471   0.934   2.757   0.044 -0.4302 -0.7170 -0.6907
  491SOL    HW1 1472   0.928   2.682   0.115 -0.8733 -2.5230 -0.2672
  491SOL    HW2 1473   1.029   2.771   0.013 -0.7590  1.1140  3.1332
  492SOL     OW 1474   1.146   1.228   2.176  0.6601  0.2761 -0.0651
  492SOL    HW1 1475   1.132   1.330   2.183 -2.3881  3.5897  2.2864
  492SOL    HW2 1476   1.062   1.185   2.136  1.7595 -1.9007 -0.8622
  493SOL     OW 1477   2.929   2.053   0.206  0.1048 -0.6607 -0.1644
  493SOL    HW1 1478   2.947   2.140   0.156  1.1008 -1.1826 -1.9231
  493SOL    HW2 1479   2.878   1.990   0.143 -0.3077  1.2761  1.0812
  494SOL     OW 1480   2.099   1.434   0.480 -0.3128 -0.5119  0.6689
  494SOL    HW1 1481   2.007   1.459   0.515  2.1470  0.1156 -1.2110
  494SOL    HW2 1482   2.088   1.337   0.451 -0.7139  0.6745  2.8377
  495SOL     OW 1483   0.471   0.985   2.393 -0.2192 -0.1013 -0.1345
  495SOL    HW1 1484   0.464   0.976   2.294 -1.3152 -2.8048  0.2408
  495SOL    HW2 1485   0.538   0.919   2.430  1.0920 -0.3217 -2.9190
  496SOL     OW 1486   2.899   2.993   2.094  0.5276 -0.7334  0.7767
  496SOL    HW1 1487   2.971   3.045   2.050  0.6564 -1.4602  1.2617
  496SOL    HW2 1488   2.923   2.907   2.146 -2.1322 -1.2669  1.7831
  497SOL     OW 1489   2.256   0.901   0.644 -0.2873 -0.5342 -0.0123
  497SOL    HW1 1490   2.308   0.878   0.558  1.8601  2.4917 -1.0604
  497SOL    HW2 1491   2.158   0.886   0.632  2.2543 -1.5101 -1.6741
  498SOL     OW 1492   2.951   2.673   3.083  0.3382 -0.5571 -0.3744
  498SOL    HW1 1493   2.858   2.713   3.080 -1.3883 -0.6034 -1.3443
  498SOL    HW2 1494   2.993   2.662   2.992  2.8816  0.6671 -3.6798
  499SOL     OW 1495   1.645   2.642   0.668  0.1495  0.0240 -0.3164
  499SOL    HW1 1496   1.639   2.705   0.587  0.0352 -0.8821  1.5214
  499SOL    HW2 1497   1.680   2.549   0.635  2.7039 -0.6759  1.4729
  500SOL     OW 1498   1.401   0.835   2.525  0.4537 -1.0472 -0.2222
  500SOL    HW1 1499   1.463   0.780   2.466  0.9129  1.3882 -1.5193
  500SOL    HW2 1500   1.442   0.927   2.544 -1.1223  1.6766  0.4897
  501SOL     OW 1501   1.042   0.202   1.242  0.1578  0.1298 -0.4707
  501SOL    HW1 1502   1.116   0.267   1.243  0.2878  0.9494  0.4317
  501SOL    HW2 1503   1.057   0.130   1.319 -2.0334  2.0908  1.0741
  502SOL     OW 1504   3.069   0.046   1.983 -0.5186 -0.1503 -0.4117
  502SOL    HW1 1505   0.054   0.008   1.958  0.0987 -2.2950  1.8897
  502SOL    HW2 1506   3.022   0.105   1.914  0.0798  1.1821  0.4997
  503SOL     OW 1507   1.505   2.375   2.228 -0.3631  0.1984  0.2481
  503SOL    HW1 1508   1.574   2.450   2.237  2.0080 -0.1223 -2.7000
  503SOL    HW2 1509   1.559   2.292   2.234 -2.2058  2.5656 -2.1666
  504SOL     OW 1510   1.897   0.193   1.817 -0.0881  0.1434  0.4975
  504SOL    HW1 1511   1.964   0.173   1.737 -0.5767 -1.4261  0.7711
  504SOL    HW2 1512   1.841   0.109   1.829 -0.9735  2.0902 -1.8587
  505SOL     OW 1513   2.691   1.333   1.508 -0.2772 -0.1696  0.4286
  505SOL    HW1 1514   2.694   1.271   1.428  2.1887  0.9977 -1.6803
  505SOL    HW2 1515   2.642   1.290   1.587 -0.0714  1.4111 -1.1762
  506SOL     OW 1516   0.281   1.229   2.123 -0.0503 -0.2973 -0.2284
  506SOL    HW1 1517   0.221   1.157   2.166 -3.4499 -1.8496 -1.4272
  506SOL    HW2 1518   0.275   1.231   2.025 -0.0676 -1.8390  0.0313
  507SOL     OW 1519   0.110   2.894   1.274 -0.4364  0.2800  0.1613
  507SOL    HW1 1520   0.100   2.981   1.228 -1.7734 -3.1005  1.0732
  507SOL    HW2 1521   0.098   2.899   1.371 -0.0641 -0.4580 -2.2216
  508SOL     OW 1522   1.305   0.671   1.425 -0.0013  1.0236  0.7227
  508SOL    HW1 1523   1.342   0.715   1.341 -1.0308  3.4295 -1.6769
  508SOL    HW2 1524   1.207   0.674   1.432  2.3202 -0.8462  2.3533
  509SOL     OW 1525   1.379   2.208   1.402  0.3885 -0.2532  0.8439
  509SOL    HW1 1526   1.453   2.234   1.468 -1.5881  0.4861  1.9363
  509SOL    HW2 1527   1.395   2.116   1.358  2.3773  0.0133 -0.3133
  510SOL     OW 1528   2.635   1.533   0.103 -0.1642  0.2824 -0.5129
  510SOL    HW1 1529   2.539   1.498   0.098  0.5562  0.3343  2.2675
  510SOL    HW2 1530   2.690   1.501   0.020  2.6912  1.3114 -1.3834
  511SOL     OW 1531   0.475   1.443   1.414  0.5596  0.2306  0.1645
  511SOL    HW1 1532   0.571   1.426   1.386  1.5392 -1.9548 -0.1809
  511SOL    HW2 1533   0.447   1.542   1.394  1.3154  1.4634  1.8333
  512SOL     OW 1534   2.887   2.441   0.298 -0.1014 -0.2178  0.0294
  512SOL    HW1 1535   2.947   2.398   0.368 -0.9574  0.9586  3.3316
  512SOL    HW2 1536   2.791   2.433   0.323  2.3423  0.4797 -3.3239
  513SOL     OW 1537   0.726   1.645   2.788 -0.4198 -0.4302  0.6747
  513SOL    HW1 1538   0.818   1.621   2.824  0.0902  1.4238 -1.9691
  513SOL    HW2 1539   0.722   1.637   2.684 -1.8556 -0.6268 -0.8220
  514SOL     OW 1540   0.170   2.346   2.591 -0.0778 -0.2450  0.9068
  514SOL    HW1 1541   0.251   2.296   2.631  0.3354  0.0019 -0.0086
  514SOL    HW2 1542   0.112   2.399   2.652 -1.4265 -0.6017 -2.2912
  515SOL     OW 1543   1.817   1.296   1.814  0.0206 -0.6417 -0.0302
  515SOL    HW1 1544   1.899   1.332   1.855 -0.4393 -1.8105  3.0703
  515SOL    HW2 1545   1.840   1.283   1.718  2.0876  3.1015  3.1329
  516SOL     OW 1546   1.823   2.499   0.108 -0.2123 -0.1163  0.0797
  516SOL    HW1 1547   1.816   2.538   0.011 -1.7932  0.0638 -1.0333
  516SOL    HW2 1548   1.838   2.399   0.111 -0.7425  1.1253  0.7630
  517SOL     OW 1549   0.880   1.652   0.581  0.1831 -0.1660  0.3973
  517SOL    HW1 1550   0.916   1.694   0.494  2.4606  0.4063  4.1179
  517SOL    HW2 1551   0.955   1.620   0.643  2.0908  2.5108 -2.0064
  518SOL     OW 1552   2.126   2.431   1.833  0.4990  0.6179 -0.0532
  518SOL    HW1 1553   2.083   2.478   1.755  0.9020  1.4189 -1.2614
  518SOL    HW2 1554   2.058   2.416   1.902 -0.5970 -2.1114 -0.2369
  519SOL     OW 1555   2.050   2.447   1.255  0.4023  0.0681  0.7733
  519SOL    HW1 1556   2.135   2.460   1.312 -0.9006 -0.8501  1.3412
  519SOL    HW2 1557   2.061   2.489   1.162  0.9415  0.1580  1.0497
  520SOL     OW 1558   2.817   2.239   2.417  0.1044 -0.0198 -0.1541
  520SOL    HW1 1559   2.786   2.325   2.372 -0.5582 -1.8327  1.1694
  520SOL    HW2 1560   2.921   2.229   2.425 -0.6314 -0.7959  0.1961
  521SOL     OW 1561   2.912   1.143   2.555 -0.4416 -0.3344  0.1799
  521SOL    HW1 1562   2.934   1.206   2.479 -3.1227 -0.5386  0.4370
  521SOL    HW2 1563   2.811   1.122   2.545 -1.4971  0.6529 -0.7421
  522SOL     OW 1564   0.713   0.470   1.954  0.7135  0.4564 -0.3471
  522SOL    HW1 1565   0.813   0.476   1.962 -0.9807  0.9395  0.0005
  522SOL    HW2 1566   0.690   0.434   1.859 -1.2981  2.9277 -2.0418
  523SOL     OW 1567   0.310   1.874   1.046  0.8296 -0.3797 -0.1582
  523SOL    HW1 1568   0.324   1.906   1.141 -0.0340  2.6201 -2.4677
  523SOL    HW2 1569   0.247   1.938   1.000 -0.8962 -1.2683 -0.4337
  524SOL     OW 1570   1.887   2.872   0.298  0.3428  0.5120  0.1932
  524SOL    HW1 1571   1.945   2.914   0.373 -0.4734 -2.9000 -1.7259
  524SOL    HW2 1572   1.871   2.776   0.328 -1.3022  3.2496  0.4752
  525SOL     OW 1573   2.046   1.029   1.338 -0.0717 -1.0086 -0.4435
  525SOL    HW1 1574   2.091   0.949   1.305 -0.2273  1.2082  2.5728
  525SOL    HW2 1575   1.974   1.066   1.279  0.0783  1.2120  0.6620
  526SOL     OW 1576   1.031   2.587   0.475  0.2979 -0.2621  0.3248
  526SOL    HW1 1577   1.065   2.684   0.501  2.1985  5.7250 -1.9595
  526SOL    HW2 1578   0.950   2.568   0.532  0.3209  0.0115  1.9827
  527SOL     OW 1579   2.214   2.783   0.363 -0.4095  0.1937 -0.1419
  527SOL    HW1 1580   2.216   2.718   0.440 -0.5691 -3.7622 -0.2314
  527SOL    HW2 1581   2.216   2.731   0.276 -1.0326 -1.1503 -1.8588
  528SOL     OW 1582   1.637   0.656   0.288  0.0373 -0.5908  0.3036
  528SOL    HW1 1583   1.570   0.722   0.326  0.7216 -0.8637  2.4838
  528SOL    HW2 1584   1.608   0.624   0.190  0.7551 -1.1190 -3.0496
  529SOL     OW 1585   1.614   1.604   2.702 -0.1965  0.2882 -0.4400
  529SOL    HW1 1586   1.574   1.563   2.789 -2.2136  1.7463  1.6477
  529SOL    HW2 1587   1.620   1.538   2.624  1.3696 -0.3943 -2.3154
  530SOL     OW 1588   2.369   0.374   0.089  0.0622 -0.3914  0.3876
  530SOL    HW1 1589   2.401   0.470   0.096  3.5828 -1.8630 -2.7918
  530SOL    HW2 1590   2.450   0.312   0.085  0.5542  0.0992  2.0276
  531SOL     OW 1591   1.521   1.064   2.980 -0.2647  0.3657  0.6373
  531SOL    HW1 1592   1.621   1.041   2.987 -0.1915  0.7466 -1.3454
  531SOL    HW2 1593   1.461   0.983   2.985 -2.3218 -1.1581  0.5723
  532SOL     OW 1594   1.493   0.609   0.623 -0.1704  0.0886  0.2396
  532SOL    HW1 1595   1.483   0.505   0.634  1.5634  0.2080  1.3257
  532SOL    HW2 1596   1.581   0.636   0.579  1.7820 -0.2775 -0.5991
  533SOL     OW 1597   0.646   0.820   2.502 -0.6722 -0.4774 -0.5167
  533SOL    HW1 1598   0.685   0.728   2.482  1.4323 -1.5334  1.4205
  533SOL    HW2 1599   0.701   0.865   2.575  1.3368  2.7541 -0.6145
  534SOL     OW 1600   1.539   0.126   2.498  0.1681  0.4911 -0.0217
  534SOL    HW1 1601   1.637   0.127   2.511 -0.4216  2.2137  3.2298
  534SOL    HW2 1602   1.495   0.183   2.570  2.7779  1.3468 -0.4936
  535SOL     OW 1603   0.289   2.932   2.762  0.1647 -0.0422 -0.2519
  535SOL    HW1 1604   0.266   2.840   2.793 -1.4502  0.0225  0.5431
  535SOL    HW2 1605   0.208   2.992   2.764  2.1980  1.9659  0.2559
  536SOL     OW 1606   0.315   0.403   0.753  0.0669  0.1079 -0.4335
  536SOL    HW1 1607   0.302   0.480   0.687 -0.7775  1.1731 -0.7350
  536SOL    HW2 1608   0.416   0.390   0.771 -1.3305  1.3694 -0.3989
  537SOL     OW 1609   1.554   0.430   0.117  0.0992 -0.6758 -0.0203
  537SOL    HW1 1610   1.605   0.453   0.030  1.6720 -0.2444 -1.8941
  537SOL    HW2 1611   1.481   0.365   0.093 -2.2349  0.6253 -0.4870
  538SOL     OW 1612   2.745   2.202   2.989  0.0235 -0.0388  0.4000
  538SOL    HW1 1613   2.751   2.180   2.889  0.4285 -0.8372  0.7588
  538SOL    HW2 1614   2.720   2.120   3.044  0.1993 -0.4183  2.1371
  539SOL     OW 1615   2.079   1.871   0.172 -0.5021 -0.3125 -0.5682
  539SOL    HW1 1616   1.981   1.850   0.203  1.1354 -0.3029  2.0368
  539SOL    HW2 1617   2.095   1.825   0.085  1.0002 -3.6135 -1.1558
  540SOL     OW 1618   0.445   2.657   1.517  0.2615 -0.2191  0.3363
  540SOL    HW1 1619   0.504   2.579   1.496  0.3764 -0.8698  3.4127
  540SOL    HW2 1620   0.438   2.722   1.438 -1.6917 -1.0145 -1.3441
  541SOL     OW 1621   2.114   0.106   2.010 -0.4148 -0.0491 -0.1881
  541SOL    HW1 1622   2.194   0.111   1.944  1.2028  0.3394 -0.7783
  541SOL    HW2 1623   2.035   0.145   1.964  1.5652  0.4038 -0.7506
  542SOL     OW 1624   0.287   0.474   2.705 -0.0378 -0.4143  0.5358
  542SOL    HW1 1625   0.230   0.462   2.624 -1.4103  1.7766 -0.8877
  542SOL    HW2 1626   0.234   0.523   2.774 -1.7762 -3.5708 -2.7103
  543SOL     OW 1627   0.233   0.909   1.386 -0.3822 -0.3198 -0.4392
  543SOL    HW1 1628   0.253   0.982   1.318 -2.2681  0.7462 -0.8441
  543SOL    HW2 1629   0.174   0.958   1.454  1.5125  1.1900  0.1690
  544SOL     OW 1630   2.544   0.725   1.145 -0.6104 -0.0898  0.4909
  544SOL    HW1 1631   2.635   0.692   1.121 -0.3225  1.5627 -3.6637
  544SOL    HW2 1632   2.494   0.742   1.057  1.0330 -3.0452  0.6858
  545SOL     OW 1633   1.624   2.114   0.584  0.9422  0.5668  0.3915
  545SOL    HW1 1634   1.582   2.022   0.590  0.4859  2.0202  0.8217
  545SOL    HW2 1635   1.649   2.161   0.670  1.8124 -0.8033 -2.4441
  546SOL     OW 1636   2.139   2.851   1.564 -0.5183  0.5803 -0.5994
  546SOL    HW1 1637   2.198   2.925   1.601 -1.5364  0.8443 -0.3255
  546SOL    HW2 1638   2.057   2.887   1.521  0.9422 -1.2275 -1.7390
  547SOL     OW 1639   0.419   3.013   2.549 -0.2397 -0.0791  0.3662
  547SOL    HW1 1640   0.352   3.005   2.621 -0.5286 -1.5203 -2.1565
  547SOL    HW2 1641   0.505   3.050   2.587  1.6487  0.2746 -0.4620
  548SOL     OW 1642   1.837   0.898   0.098  0.3245 -0.8145 -0.2976
  548SOL    HW1 1643   1.846   0.964   0.015  0.5426 -0.1673 -1.2961
  548SOL    HW2 1644   1.751   0.847   0.092  0.9281 -2.4300  0.4922
  549SOL     OW 1645   2.941   0.912   0.442  0.3295 -0.5057  0.3147
  549SOL    HW1 1646   2.950   0.813   0.446  3.7401  0.7261 -1.5487
  549SOL    HW2 1647   2.885   0.937   0.520  1.8995 -2.7339 -0.1449
  550SOL     OW 1648   1.935   1.967   0.686 -0.2290  0.0230  0.0277
  550SOL    HW1 1649   1.879   1.898   0.633 -0.5858  0.4934  0.2697
  550SOL    HW2 1650   1.964   1.935   0.784  0.4129 -2.6655  1.6298
  551SOL     OW 1651   1.344   0.237   0.804  0.2238  0.0234  0.6945
  551SOL    HW1 1652   1.308   0.166   0.866 -1.1833  2.4003  1.3261
  551SOL    HW2 1653   1.264   0.287   0.767 -1.0408 -0.6366  1.0360
  552SOL     OW 1654   3.020   2.777   2.237 -0.3575 -1.1361 -0.1941
  552SOL    HW1 1655   3.090   2.833   2.291  0.1338  2.3927  1.4207
  552SOL    HW2 1656   3.055   2.735   2.152  1.8303 -1.0492  0.4451
  553SOL     OW 1657   0.065   2.940   2.389 -0.3179 -0.6442  0.1637
  553SOL    HW1 1658   0.077   2.856   2.441  0.5453  0.1347 -2.4852
  553SOL    HW2 1659   0.152   2.984   2.362 -0.0158  1.1805 -0.5699
  554SOL     OW 1660   0.612   3.067   1.250 -0.0162 -0.6406 -0.2248
  554SOL    HW1 1661   0.566   0.041   1.212  2.2001  0.4054 -0.8095
  554SOL    HW2 1662   0.676   3.092   1.327  1.5497  0.9088 -1.6347
  555SOL     OW 1663   2.671   2.457   2.309 -0.0027 -0.3625 -0.1600
  555SOL    HW1 1664   2.644   2.549   2.349 -0.2510  0.5425  0.9043
  555SOL    HW2 1665   2.609   2.413   2.240 -1.7283 -0.6828  1.8252
  556SOL     OW 1666   1.072   0.249   2.678  0.2501  0.4298 -0.6287
  556SOL    HW1 1667   1.040   0.223   2.774  0.1751 -0.5212  1.2429
  556SOL    HW2 1668   1.060   0.173   2.616  2.1766 -0.2638  1.3841
  557SOL     OW 1669   0.514   1.466   2.415  0.2211  0.0103 -0.0516
  557SOL    HW1 1670   0.430   1.506   2.462  0.2528 -1.9566  2.2308
  557SOL    HW2 1671   0.530   1.372   2.454  1.2152  0.7241  2.2147
  558SOL     OW 1672   2.437   0.939   2.900  0.2546  0.4332 -0.0065
  558SOL    HW1 1673   2.429   0.951   2.797  1.1715  0.8918 -1.8017
  558SOL    HW2 1674   2.366   0.873   2.941  0.9557 -2.5937 -1.6203
  559SOL     OW 1675   2.642   2.163   2.075 -0.6030  0.4933  0.2961
  559SOL    HW1 1676   2.633   2.127   2.172  0.9733 -1.9332  2.2068
  559SOL    HW2 1677   2.575   2.237   2.049 -1.4296  0.5552 -1.6749
  560SOL     OW 1678   2.679   1.008   2.020 -0.1892  0.1701  0.2022
  560SOL    HW1 1679   2.668   0.983   1.922  2.7254 -3.1381 -0.3307
  560SOL    HW2 1680   2.779   1.031   2.039  3.6361 -3.0545  0.5664
  561SOL     OW 1681   0.085   3.094   2.814 -0.0607 -0.1394 -0.6290
  561SOL    HW1 1682   0.060   0.070   2.762  2.8591 -3.4277  2.4886
  561SOL    HW2 1683   0.006   3.042   2.847  1.7799  0.0879  0.9838
  562SOL     OW 1684   0.940   1.084   1.635  0.1585  0.4900  0.1796
  562SOL    HW1 1685   0.922   0.986   1.605  1.1416 -0.7174  2.7791
  562SOL    HW2 1686   0.854   1.124   1.665  0.9112 -3.3359 -3.2606
  563SOL     OW 1687   1.342   0.234   2.701  0.6403 -0.3248 -0.0828
  563SOL    HW1 1688   1.340   0.135   2.731 -0.3002 -3.1358  2.0994
  563SOL    HW2 1689   1.244   0.260   2.696 -0.6900  1.9743  0.0580
  564SOL     OW 1690   3.105   2.222   1.010  0.4129  0.4381 -0.0125
  564SOL    HW1 1691   0.008   2.242   1.109  0.3086 -1.8985  1.1073
  564SOL    HW2 1692   3.008   2.212   0.985 -0.3094  2.3877 -0.8955
  565SOL     OW 1693   0.803   2.128   1.856 -0.2731 -0.1116 -0.2102
  565SOL    HW1 1694   0.838   2.221   1.883  1.0947  0.2511 -1.4696
  565SOL    HW2 1695   0.862   2.082   1.785  2.4637  0.4628  0.1610
  566SOL     OW 1696   1.382   2.390   1.986  0.0621 -0.0323  0.1142
  566SOL    HW1 1697   1.286   2.376   2.023 -1.9711 -1.7859 -0.8384
  566SOL    HW2 1698   1.442   2.394   2.062 -4.4688  0.2386 -2.4895
  567SOL     OW 1699   2.159   2.726   1.115  0.5152  0.2277 -0.3112
  567SOL    HW1 1700   2.166   2.744   1.216 -2.2132 -1.1944  3.0271
  567SOL    HW2 1701   2.249   2.703   1.077 -0.0333 -1.1971  1.5196
  568SOL     OW 1702   1.993   0.913   0.607  0.0924  0.3393 -0.4788
  568SOL    HW1 1703   1.915   0.854   0.581 -1.9166 -2.0933 -1.3889
  568SOL    HW2 1704   1.993   0.997   0.553 -1.0275 -0.8972 -2.2706
  569SOL     OW 1705   2.980   1.813   2.626  0.2435 -0.5768  0.2537
  569SOL    HW1 1706   2.948   1.864   2.707 -0.4343 -3.6702 -3.4413
  569SOL    HW2 1707   2.963   1.713   2.636 -2.0049 -0.7827 -0.8850
  570SOL     OW 1708   2.911   0.159   1.152  0.1255  0.6678  0.0356
  570SOL    HW1 1709   3.007   0.145   1.137  1.2925 -0.6640 -1.2922
  570SOL    HW2 1710   2.884   0.246   1.108  0.1341  0.7591  1.3863
  571SOL     OW 1711   3.097   0.439   1.722  0.8245 -0.3218  0.9713
  571SOL    HW1 1712   0.063   0.447   1.790  0.1241 -0.9150 -1.7341
  571SOL    HW2 1713   3.035   0.522   1.724 -1.5618 -1.4989  1.4776
  572SOL     OW 1714   0.139   2.538   1.012  0.1185  0.1166 -0.4712
  572SOL    HW1 1715   0.158   2.454   0.961 -2.8389  1.2458 -0.8706
  572SOL    HW2 1716   0.154   2.522   1.111  1.7511  0.3679  2.7103
  573SOL     OW 1717   1.092   0.485   3.093  0.4951 -0.1415 -0.7613
  573SOL    HW1 1718   1.024   0.556   0.008 -0.6842  0.0212  2.9517
  573SOL    HW2 1719   1.072   0.400   0.043 -0.2266  2.1442 -0.0555
  574SOL     OW 1720   2.689   2.803   3.019 -0.0806 -0.3012 -0.1690
  574SOL    HW1 1721   2.674   2.732   2.949  2.3842 -0.4339 -1.8128
  574SOL    HW2 1722   2.671   2.895   2.975 -0.1784 -0.4437  2.8169
  575SOL     OW 1723   1.465   2.517   1.168 -0.5426  0.0266 -0.2483
  575SOL    HW1 1724   1.396   2.455   1.128  0.6574 -2.0428  0.8992
  575SOL    HW2 1725   1.437   2.613   1.185 -1.2383  0.9674  0.4073
  576SOL     OW 1726   1.055   2.901   1.014 -0.2511 -0.4147 -0.4183
  576SOL    HW1 1727   1.082   2.810   0.978 -1.2592 -0.3190 -1.8212
  576SOL    HW2 1728   0.960   2.915   1.000  3.8357 -1.3056  0.4727
  577SOL     OW 1729   2.516   1.384   0.887  0.1457  0.4139  0.0507
  577SOL    HW1 1730   2.552   1.457   0.826 -0.4514  1.9326 -1.2385
  577SOL    HW2 1731   2.581   1.307   0.865 -2.1786 -0.9063 -1.1503
  578SOL     OW 1732   1.559   0.312   0.666 -0.1103 -0.2233 -0.3579
  578SOL    HW1 1733   1.625   0.242   0.635 -0.5397  1.0887  0.3226
  578SOL    HW2 1734   1.484   0.274   0.721  2.3845 -0.6392  1.5755
  579SOL     OW 1735   2.342   0.683   3.020  0.0305  0.0531 -0.3317
  579SOL    HW1 1736   2.396   0.616   2.966  1.0290 -0.6085  0.5805
  579SOL    HW2 1737   2.243   0.661   2.998 -1.0295 -2.4048 -0.9761
  580SOL     OW 1738   1.806   0.926   2.272 -0.5089 -0.3186 -0.4536
  580SOL    HW1 1739   1.847   0.928   2.361  1.8628  1.4153 -3.5551
  580SOL    HW2 1740   1.880   0.921   2.201 -0.9159 -2.9733 -1.5869
  581SOL     OW 1741   0.332   0.969   1.101  0.1192 -0.0415  0.3863
  581SOL    HW1 1742   0.358   1.065   1.075 -2.0583 -0.6193 -0.0571
  581SOL    HW2 1743   0.391   0.903   1.054 -1.0641 -1.5148 -3.2540
  582SOL     OW 1744   2.688   0.098   1.742 -0.4299 -0.7103 -0.3762
  582SOL    HW1 1745   2.706   0.031   1.812  2.3275  0.7219 -1.7519
  582SOL    HW2 1746   2.775   0.148   1.722  0.2028  0.6714 -0.6253
  583SOL     OW 1747   0.216   0.412   1.926  0.1164 -0.6809 -0.5901
  583SOL    HW1 1748   0.139   0.408   1.997 -0.2824 -0.9079  0.1469
  583SOL    HW2 1749   0.298   0.356   1.947 -2.1099  0.1132 -1.3261
  584SOL     OW 1750   1.367   2.059   2.827 -0.0730  0.2410  0.1698
  584SOL    HW1 1751   1.433   1.986   2.796 -0.0604 -0.4308  1.6570
  584SOL    HW2 1752   1.377   2.076   2.927  1.3853 -0.5455 -0.3055
  585SOL     OW 1753   0.224   2.693   2.859  0.2124 -0.5961 -0.1325
  585SOL    HW1 1754   0.187   2.719   2.951  3.2836 -0.3363  1.3192
  585SOL    HW2 1755   0.322   2.661   2.854  2.0998  0.9741 -1.4688
  586SOL     OW 1756   2.045   1.664   2.564 -0.1697 -0.2146  0.1094
  586SOL    HW1 1757   2.078   1.751   2.514  0.9263  0.7414 -2.4227
  586SOL    HW2 1758   2.051   1.583   2.506  2.3299  0.2192  2.1875
  587SOL     OW 1759   2.210   2.347   0.219 -0.3915  0.5934 -0.1689
  587SOL    HW1 1760   2.277   2.317   0.148 -4.1148 -1.0381  0.7571
  587SOL    HW2 1761   2.160   2.257   0.236  0.1850 -1.8158 -2.5166
  588SOL     OW 1762   2.618   0.462   0.853 -0.1094  0.0142 -0.3219
  588SOL    HW1 1763   2.574   0.543   0.808 -0.8315  2.0926 -0.7652
  588SOL    HW2 1764   2.591   0.372   0.811  0.1868 -0.0739 -2.8829
  589SOL     OW 1765   0.584   0.673   0.704 -0.3782  0.7168 -0.2457
  589SOL    HW1 1766   0.551   0.714   0.618  1.3480  1.7229  1.0920
  589SOL    HW2 1767   0.615   0.576   0.689 -1.1214 -2.6864  1.7394
  590SOL     OW 1768   2.076   2.132   0.277  0.0711 -0.1919 -0.1422
  590SOL    HW1 1769   2.109   2.123   0.373  0.8177  0.2896 -1.7153
  590SOL    HW2 1770   2.069   2.041   0.230  0.7763  1.6329  1.5248
  591SOL     OW 1771   0.487   2.155   1.146  0.0282  0.1021 -0.0985
  591SOL    HW1 1772   0.425   2.101   1.208  0.4521 -1.2706 -2.6542
  591SOL    HW2 1773   0.489   2.254   1.173 -1.8998  0.7745  1.3597
  592SOL     OW 1774   1.031   0.676   1.264 -0.3439 -0.3810 -0.0080
  592SOL    HW1 1775   1.028   0.650   1.362  0.4753  0.4579  0.3557
  592SOL    HW2 1776   0.951   0.640   1.215  0.1244 -1.5384 -0.4437
  593SOL     OW 1777   0.962   1.298   1.456  0.3907  0.3122  0.5104
  593SOL    HW1 1778   0.960   1.205   1.502 -0.1912 -3.1413 -0.4642
  593SOL    HW2 1779   0.983   1.375   1.518  2.6722 -0.4817  0.9176
  594SOL     OW 1780   0.883   2.174   0.404 -0.5154  0.6171 -0.3721
  594SOL    HW1 1781   0.907   2.098   0.338  0.8955  1.0146 -0.1442
  594SOL    HW2 1782   0.973   2.223   0.420  1.1731  0.4320 -0.2134
  595SOL     OW 1783   1.529   0.543   1.559  0.4089 -0.4832 -0.4299
  595SOL    HW1 1784   1.610   0.588   1.599 -0.4721 -1.9833 -0.6729
  595SOL    HW2 1785   1.467   0.599   1.498 -0.3554  1.0909 -1.3003
  596SOL     OW 1786   2.891   1.014   1.431 -0.4103 -0.0636  0.1006
  596SOL    HW1 1787   2.897   1.096   1.368 -2.7094 -0.2015  1.6554
  596SOL    HW2 1788   2.797   1.000   1.464 -2.0285 -1.7629 -1.0919
  597SOL     OW 1789   0.483   2.564   2.416 -0.1627 -0.0316  0.0993
  597SOL    HW1 1790   0.498   2.642   2.482  0.8691  0.0302 -1.8935
  597SOL    HW2 1791   0.564   2.502   2.413 -1.7565  1.1001  0.6790
  598SOL     OW 1792   2.634   1.931   1.877  0.2476 -0.0368  0.0622
  598SOL    HW1 1793   2.633   2.017   1.927 -0.3893  1.0260 -1.4229
  598SOL    HW2 1794   2.544   1.902   1.846  0.5387  0.1836  1.1342
  599SOL     OW 1795   0.943   3.093   3.075 -0.0755 -0.1922 -0.2117
  599SOL    HW1 1796   0.862   3.040   3.045  2.6005  1.9067  1.5476
  599SOL    HW2 1797   0.924   0.044   0.052  0.7964  4.6190 -0.6965
  600SOL     OW 1798   0.136   2.034   2.695 -0.5198 -0.7104  0.7120
  600SOL    HW1 1799   0.038   2.023   2.677 -2.1012  2.1008  1.4022
  600SOL    HW2 1800   0.186   2.006   2.612 -1.4895  1.1881 -1.9830
  601SOL     OW 1801   0.519   0.917   1.424  0.3626  0.2589  0.2536
  601SOL    HW1 1802   0.421   0.896   1.425 -0.1830 -1.1498  2.3638
  601SOL    HW2 1803   0.552   0.921   1.518  0.5248  0.8977 -2.1917
  602SOL     OW 1804   0.811   2.929   0.590 -0.1531 -0.2450 -0.1666
  602SOL    HW1 1805   0.910   2.909   0.583 -0.4856  0.5086  1.8446
  602SOL    HW2 1806   0.765   2.881   0.668  0.3515  3.7425 -1.3640
  603SOL     OW 1807   0.445   0.334   2.871 -0.1059 -0.3155 -0.1441
  603SOL    HW1 1808   0.389   0.399   2.809 -0.0550  0.4431 -1.6300
  603SOL    HW2 1809   0.378   0.276   2.920 -1.0505 -2.4027 -1.1406
  604SOL     OW 1810   0.758   2.720   1.571  0.5147 -0.3605  0.2686
  604SOL    HW1 1811   0.788   2.814   1.582  2.5920 -1.9005  1.0881
  604SOL    HW2 1812   0.664   2.708   1.545  1.0799  0.2836  1.8292
  605SOL     OW 1813   1.376   1.092   2.121  0.7839 -0.4048  0.0066
  605SOL    HW1 1814   1.296   1.152   2.142 -1.4280  0.7013 -0.1324
  605SOL    HW2 1815   1.406   1.113   2.028 -2.0215 -0.6726  1.2400
  606SOL     OW 1816   2.184   2.786   2.828  0.0790 -0.2289  0.1080
  606SOL    HW1 1817   2.205   2.753   2.922 -2.1170 -3.7117 -0.4545
  606SOL    HW2 1818   2.257   2.754   2.769 -2.6342  1.6000  0.0819
  607SOL     OW 1819   0.848   0.287   1.100  0.8283  0.2650  0.8069
  607SOL    HW1 1820   0.935   0.251   1.144  0.1122 -2.5501 -0.2310
  607SOL    HW2 1821   0.811   0.223   1.031  0.5824 -0.5876 -2.6785
  608SOL     OW 1822   0.256   1.575   2.405 -0.1192  0.4706 -0.2718
  608SOL    HW1 1823   0.308   1.617   2.329 -2.8511  2.2609  0.8321
  608SOL    HW2 1824   0.169   1.623   2.421  0.4085 -1.4130  0.3715
  609SOL     OW 1825   1.555   1.444   0.478  0.6547  0.0591  0.5014
  609SOL    HW1 1826   1.496   1.518   0.436 -0.8417  0.3740 -0.2259
  609SOL    HW2 1827   1.538   1.355   0.433 -1.5887 -0.0853  0.2122
  610SOL     OW 1828   0.046   0.257   0.866 -0.7257  0.0842  0.6970
  610SOL    HW1 1829   0.145   0.285   0.871  2.1770  4.2332 -1.4764
  610SOL    HW2 1830   0.005   0.280   0.957  0.8498 -1.2322  0.3636
  611SOL     OW 1831   1.427   1.118   0.708 -0.5000 -0.3090 -0.1956
  611SOL    HW1 1832   1.439   1.222   0.703  1.7311  2.0765  0.0221
  611SOL    HW2 1833   1.481   1.064   0.643 -1.6020 -0.8646 -0.4026
  612SOL     OW 1834   2.208   1.561   0.241  0.4671  0.7612 -0.0930
  612SOL    HW1 1835   2.160   1.522   0.329 -1.7623  0.4608  2.2447
  612SOL    HW2 1836   2.218   1.660   0.254  0.1361 -1.4992  0.5646
  613SOL     OW 1837   1.651   1.050   0.554 -0.2047  0.0969 -0.1929
  613SOL    HW1 1838   1.699   1.056   0.645  4.0727  2.8418 -0.5097
  613SOL    HW2 1839   1.721   1.068   0.482  0.2718  1.3878 -0.1416
  614SOL     OW 1840   2.807   0.126   2.170 -0.0571  0.6210 -0.5711
  614SOL    HW1 1841   2.854   0.055   2.113 -0.6533 -1.6627 -0.4504
  614SOL    HW2 1842   2.824   0.219   2.128  0.1336 -1.6252  1.3499
  615SOL     OW 1843   0.895   2.095   0.873  0.4778  0.0608  0.1241
  615SOL    HW1 1844   0.940   2.007   0.866 -1.1162  2.6598  1.3624
  615SOL    HW2 1845   0.832   2.107   0.794  1.0700 -0.0264  0.0527
  616SOL     OW 1846   1.858   1.089   2.705 -0.6845 -0.0540 -0.6813
  616SOL    HW1 1847   1.760   1.128   2.708 -2.8006  1.5068 -1.3633
  616SOL    HW2 1848   1.876   1.032   2.628  1.3156  0.9622  1.1974
  617SOL     OW 1849   1.332   0.300   0.016  0.3721  0.0529  0.2326
  617SOL    HW1 1850   1.267   0.274   0.093 -1.4022  0.2649  0.0350
  617SOL    HW2 1851   1.295   0.375   3.065 -1.9014  1.1438 -0.5878
  618SOL     OW 1852   2.309   2.262   2.263 -0.6364  0.0822 -0.6318
  618SOL    HW1 1853   2.277   2.195   2.192  0.3241 -0.5179  0.1008
  618SOL    HW2 1854   2.350   2.213   2.344 -1.3057 -1.8846 -0.1456
  619SOL     OW 1855   2.105   2.042   1.002  0.8305  0.0148  0.5302
  619SOL    HW1 1856   2.049   2.114   0.950 -0.4079  0.3276  0.1763
  619SOL    HW2 1857   2.053   1.957   0.998 -0.4634 -0.3760  0.8861
  620SOL     OW 1858   2.112   2.800   1.926  0.0955 -0.1876  0.2153
  620SOL    HW1 1859   2.210   2.794   1.895  1.7099 -0.9307 -2.0729
  620SOL    HW2 1860   2.087   2.719   1.985  1.2691  0.2734  1.5751
  621SOL     OW 1861   3.047   1.504   0.676  0.0721 -0.2545  0.3710
  621SOL    HW1 1862   0.034   1.512   0.714 -1.5003  1.3054 -1.2749
  621SOL    HW2 1863   3.019   1.595   0.639 -1.0475  0.6894 -1.1482
  622SOL     OW 1864   1.224   1.625   2.908 -0.2908 -0.1192 -0.4630
  622SOL    HW1 1865   1.210   1.673   2.820 -1.4707 -0.5237  1.0375
  622SOL    HW2 1866   1.229   1.693   2.987 -1.9546 -0.2182  2.5296
  623SOL     OW 1867   2.902   2.460   2.108  0.1320  0.0123 -0.5422
  623SOL    HW1 1868   2.824   2.478   2.173  0.8780  1.7300 -1.3820
  623SOL    HW2 1869   2.989   2.466   2.160  1.5819  2.9731 -1.6053
  624SOL     OW 1870   0.633   2.273   0.363 -1.0602 -0.5247  0.3721
  624SOL    HW1 1871   0.727   2.247   0.375  0.1237 -0.2690 -0.0427
  624SOL    HW2 1872   0.567   2.210   0.413  0.5406  0.4457  0.0096
  625SOL     OW 1873   0.347   1.713   2.199  0.0787  0.2143  0.0215
  625SOL    HW1 1874   0.363   1.658   2.116 -2.4241  3.8468 -0.8662
  625SOL    HW2 1875   0.395   1.805   2.192  1.2849  2.1403  0.4812
  626SOL     OW 1876   0.734   2.645   3.006 -0.2157  0.2650  0.2928
  626SOL    HW1 1877   0.821   2.679   3.043  0.3037 -1.3572 -0.7095
  626SOL    HW2 1878   0.674   2.611   3.081 -1.1956 -0.9248  1.9405
  627SOL     OW 1879   1.584   1.564   0.063 -0.4678 -0.1655  0.4773
  627SOL    HW1 1880   1.516   1.559   3.092 -0.4668 -1.4205 -1.4648
  627SOL    HW2 1881   1.652   1.641   0.043  0.5542  0.3987  2.1947
  628SOL     OW 1882   1.609   2.309   0.789  0.5478  0.4615  0.2865
  628SOL    HW1 1883   1.510   2.281   0.811  1.1458 -0.7051  0.2243
  628SOL    HW2 1884   1.645   2.372   0.860 -1.4173 -1.1256 -0.3956
  629SOL     OW 1885   0.326   0.190   1.634  0.7374 -0.0092  0.2876
  629SOL    HW1 1886   0.372   0.099   1.645  0.7860  2.4704  2.7708
  629SOL    HW2 1887   0.388   0.264   1.671  1.0622  1.4937 -0.5942
  630SOL     OW 1888   2.401   0.620   1.633  0.5316 -0.2275  0.0263
  630SOL    HW1 1889   2.317   0.684   1.635 -4.8582 -1.1127  0.1842
  630SOL    HW2 1890   2.467   0.634   1.555  0.0527  2.4642  2.1723
  631SOL     OW 1891   1.430   0.671   1.131  0.4210 -0.3755  0.6367
  631SOL    HW1 1892   1.478   0.689   1.044  2.0582 -1.3026 -0.2806
  631SOL    HW2 1893   1.357   0.593   1.120 -0.3366  0.4450  0.5154
  632SOL     OW 1894   2.904   0.978   2.207 -0.1421 -0.0565 -0.4543
  632SOL    HW1 1895   2.996   1.012   2.228 -1.8336  2.0069 -1.5689
  632SOL    HW2 1896   2.888   0.879   2.223  1.1744  1.2193 -0.1585
  633SOL     OW 1897   1.347   0.763   2.992  0.5019 -0.0881 -0.1333
  633SOL    HW1 1898   1.332   0.701   3.069  0.7603 -0.4868 -2.2884
  633SOL    HW2 1899   1.363   0.712   2.902 -1.5089  0.8200  2.4691
  634SOL     OW 1900   0.535   2.554   0.051  0.5625 -0.0815 -0.1056
  634SOL    HW1 1901   0.588   2.606   0.123 -0.6432 -1.7341 -0.5798
  634SOL    HW2 1902   0.480   2.487   0.093  1.3421  0.9915 -0.9453
  635SOL     OW 1903   2.878   1.533   1.565  0.1506  0.1726 -0.3589
  635SOL    HW1 1904   2.800   1.470   1.545 -1.9620 -1.6117  0.9138
  635SOL    HW2 1905   2.860   1.603   1.636 -1.0225  1.8792  0.0024
  636SOL     OW 1906   0.173   1.762   0.280  0.3999 -0.0968 -0.5217
  636SOL    HW1 1907   0.157   1.677   0.221 -0.4249 -1.4039 -1.7482
  636SOL    HW2 1908   0.255   1.813   0.243  2.9053  0.2239 -1.1965
  637SOL     OW 1909   0.027   2.575   0.570  0.0620  0.3775 -0.0433
  637SOL    HW1 1910   3.072   2.637   0.624  1.0863 -3.2567  0.7962
  637SOL    HW2 1911   0.055   2.613   0.482  1.9728  0.1504  0.1025
  638SOL     OW 1912   3.043   2.916   0.169 -0.4675  0.5564  0.5373
  638SOL    HW1 1913   3.019   2.819   0.193 -0.9787 -1.3637 -1.2612
  638SOL    HW2 1914   0.020   2.927   0.113  1.7234  2.2471 -1.9836
  639SOL     OW 1915   1.544   0.425   2.705  0.2703 -0.2430 -0.0925
  639SOL    HW1 1916   1.481   0.503   2.691  1.7755 -1.2326  0.3444
  639SOL    HW2 1917   1.489   0.340   2.725 -4.1807 -0.8563  0.3673
  640SOL     OW 1918   2.279   2.007   1.400 -0.1949 -0.0857 -0.9242
  640SOL    HW1 1919   2.260   2.071   1.324  0.0719 -0.8395  1.3229
  640SOL    HW2 1920   2.357   2.034   1.463 -2.1603 -1.4546 -0.2178
  641SOL     OW 1921   2.955   2.855   1.137  0.4458  0.0392 -0.0144
  641SOL    HW1 1922   3.044   2.881   1.177 -0.4273 -0.4334 -0.7607
  641SOL    HW2 1923   2.929   2.929   1.070  0.4861  2.0060  0.4598
  642SOL     OW 1924   1.394   1.140   1.847 -0.9157  0.2716 -0.0946
  642SOL    HW1 1925   1.308   1.141   1.789 -0.8688  1.9295  1.1291
  642SOL    HW2 1926   1.455   1.063   1.823 -0.6894 -0.4746 -0.5659
  643SOL     OW 1927   0.700   1.621   2.515 -0.0493  0.2094  0.4068
  643SOL    HW1 1928   0.632   1.550   2.473 -2.2332 -0.7601 -1.9304
  643SOL    HW2 1929   0.684   1.717   2.488  1.0300 -1.6736  0.3369
  644SOL     OW 1930   1.884   2.923   2.329  0.4807 -0.3453 -0.2752
  644SOL    HW1 1931   1.959   2.925   2.267 -2.6451  1.5284  1.0820
  644SOL    HW2 1932   1.804   2.894   2.277  1.4725 -0.3129  1.3657
  645SOL     OW 1933   1.429   0.729   1.806  0.1527 -0.4208 -0.2645
  645SOL    HW1 1934   1.409   0.778   1.720 -0.8833 -2.4319  4.0789
  645SOL    HW2 1935   1.514   0.770   1.844  2.2753  0.5021 -1.3280
  646SOL     OW 1936   1.184   2.476   2.931 -0.1373 -0.3968  0.2209
  646SOL    HW1 1937   1.168   2.475   2.831  0.2498 -0.5966  0.9412
  646SOL    HW2 1938   1.281   2.452   2.954 -2.4559  2.6444 -0.0279
  647SOL     OW 1939   1.145   2.700   0.808 -0.8544  0.3832  0.0894
  647SOL    HW1 1940   1.117   2.647   0.888  1.5935  0.1654 -0.3677
  647SOL    HW2 1941   1.245   2.678   0.788 -0.9200  0.4300  1.4086
  648SOL     OW 1942   2.874   2.713   1.355 -0.0971 -0.3179  0.3045
  648SOL    HW1 1943   2.964   2.686   1.400 -1.0215 -0.5165  0.6987
  648SOL    HW2 1944   2.887   2.764   1.264 -1.6537  1.7710 -1.2043
  649SOL     OW 1945   0.817   2.271   2.566  0.2389  0.3072  0.4893
  649SOL    HW1 1946   0.873   2.191   2.596 -2.0273 -2.6111  1.7951
  649SOL    HW2 1947   0.807   2.341   2.642  0.7942  0.4997 -2.0283
  650SOL     OW 1948   2.733   2.167   2.718  0.3834  0.2639  0.3911
  650SOL    HW1 1949   2.782   2.133   2.638  0.3081 -1.2456  3.3177
  650SOL    HW2 1950   2.669   2.240   2.682 -1.1034 -1.6932 -2.5027
  651SOL     OW 1951   2.484   2.384   2.112 -0.4723  0.1322  0.2777
  651SOL    HW1 1952   2.414   2.348   2.180 -0.0025  0.8442  3.2991
  651SOL    HW2 1953   2.437   2.384   2.017 -1.6945 -0.7756  0.9687
  652SOL     OW 1954   2.715   2.644   1.064 -0.4628 -0.2580  0.7213
  652SOL    HW1 1955   2.709   2.542   1.084  0.0264 -0.0262 -0.2950
  652SOL    HW2 1956   2.774   2.663   0.984  0.0638 -0.7767  1.8241
  653SOL     OW 1957   2.723   1.205   0.802  0.3592  0.5717 -0.7859
  653SOL    HW1 1958   2.704   1.140   0.882  0.1463  2.8780 -0.8206
  653SOL    HW2 1959   2.821   1.222   0.793  0.2046 -0.7727  0.7829
  654SOL     OW 1960   0.861   0.474   2.822 -0.0575 -0.2360  0.9108
  654SOL    HW1 1961   0.954   0.509   2.788  2.7120 -3.8103 -2.3554
  654SOL    HW2 1962   0.872   0.380   2.861  1.1776  3.5563 -0.9323
  655SOL     OW 1963   0.898   0.541   1.043  0.6440 -0.1075 -0.4079
  655SOL    HW1 1964   0.825   0.614   1.045  1.3908 -1.1925  1.8158
  655SOL    HW2 1965   0.870   0.447   1.066 -1.6093  0.3250 -3.6947
  656SOL     OW 1966   0.474   2.383   1.996 -0.1895 -0.5347 -0.1567
  656SOL    HW1 1967   0.376   2.359   2.010  1.1280  0.1986 -0.2395
  656SOL    HW2 1968   0.494   2.475   2.046 -1.1849  1.1099 -0.6607
  657SOL     OW 1969   2.381   0.850   0.406  0.2946 -0.2755 -0.2189
  657SOL    HW1 1970   2.339   0.757   0.379  1.7213 -0.5095  2.2675
  657SOL    HW2 1971   2.469   0.866   0.358  0.0334 -3.4093 -1.8400
  658SOL     OW 1972   1.662   2.037   1.399  0.6766 -0.3119 -0.0216
  658SOL    HW1 1973   1.735   2.107   1.432  3.9698 -0.3565 -1.0017
  658SOL    HW2 1974   1.712   1.963   1.354 -1.0534  0.6245  0.1368
  659SOL     OW 1975   2.815   1.764   3.099 -0.0363 -0.3436 -0.0102
  659SOL    HW1 1976   2.913   1.771   3.064  1.3532  2.0161 -0.5833
  659SOL    HW2 1977   2.794   1.669   0.026  1.1284  1.2328 -1.3074
  660SOL     OW 1978   1.022   0.273   0.584  0.2123  0.2001 -0.1364
  660SOL    HW1 1979   0.959   0.203   0.554 -1.2021 -1.2981  0.3517
  660SOL    HW2 1980   1.065   0.320   0.504 -0.0929  2.4919  0.2442
  661SOL     OW 1981   1.811   0.366   0.242  0.0541 -0.0794 -0.0696
  661SOL    HW1 1982   1.728   0.417   0.213  1.7343 -1.0901 -1.0651
  661SOL    HW2 1983   1.869   0.426   0.303 -1.4048  3.3859  0.5274
  662SOL     OW 1984   0.604   3.075   0.503  0.0399 -0.2450  0.1110
  662SOL    HW1 1985   0.579   3.064   0.404  0.7621 -1.4182  0.6805
  662SOL    HW2 1986   0.662   3.003   0.536 -1.6541 -0.0353 -1.3456
  663SOL     OW 1987   1.223   2.854   2.102  0.4194  0.4533 -0.1320
  663SOL    HW1 1988   1.191   2.929   2.041 -0.4733 -1.9615 -1.2514
  663SOL    HW2 1989   1.160   2.842   2.185 -0.7654 -1.4947 -1.0223
  664SOL     OW 1990   0.905   2.301   1.551 -0.3240  0.3904  0.3621
  664SOL    HW1 1991   0.815   2.256   1.530  0.0349 -1.3627 -0.0306
  664SOL    HW2 1992   0.897   2.392   1.586 -0.7108 -2.5360 -1.9960
  665SOL     OW 1993   1.133   2.238   1.720  0.8521 -0.4050 -0.0764
  665SOL    HW1 1994   1.197   2.318   1.717  2.1852 -0.4961 -1.9486
  665SOL    HW2 1995   1.041   2.259   1.680 -1.8485  1.6084 -0.3005
  666SOL     OW 1996   0.792   2.826   2.485 -0.4215 -0.8761 -0.6520
  666SOL    HW1 1997   0.859   2.866   2.552 -0.2494  1.4654  1.7579
  666SOL    HW2 1998   0.704   2.804   2.534 -0.2749  1.1192  0.4311
  667SOL     OW 1999   2.264   1.239   1.720  0.3723 -0.5523 -0.0832
  667SOL    HW1 2000   2.239   1.269   1.628  0.0113 -0.8027  0.8238
  667SOL    HW2 2001   2.324   1.312   1.769  0.3282  1.3565 -0.0176
  668SOL     OW 2002   1.717   3.083   1.838 -0.4436  0.0919 -0.0050
  668SOL    HW1 2003   1.755   2.998   1.880  1.7520  0.8214 -0.5499
  668SOL    HW2 2004   1.658   0.030   1.901  0.5374 -0.0207 -0.7799
  669SOL     OW 2005   2.449   2.606   0.960  0.0654 -0.3858  0.3737
  669SOL    HW1 2006   2.510   2.643   1.030 -0.3209  2.3546  2.4969
  669SOL    HW2 2007   2.453   2.659   0.875  1.2444 -0.6595  0.6567
  670SOL     OW 2008   1.480   2.452   2.608 -0.1818 -0.0094  0.0589
  670SOL    HW1 2009   1.377   2.454   2.606 -1.8135 -0.5251  0.9000
  670SOL    HW2 2010   1.513   2.368   2.561  0.7390 -1.6966 -1.4698
  671SOL     OW 2011   0.672   0.973   0.468 -0.4502 -0.0967 -0.1277
  671SOL    HW1 2012   0.704   1.058   0.426  1.6661 -1.5712  2.8281
  671SOL    HW2 2013   0.572   0.967   0.475  1.1476  0.1274 -1.9041
  672SOL     OW 2014   2.873   1.119   3.049  0.1038  0.3675  0.6037
  672SOL    HW1 2015   2.779   1.079   3.051 -2.2755  0.3208 -0.5160
  672SOL    HW2 2016   2.940   1.053   3.087  0.1052 -0.2547  0.7621
  673SOL     OW 2017   0.124   2.085   1.473 -0.7566 -0.1663 -0.1131
  673SOL    HW1 2018   0.114   2.123   1.566 -0.2091 -1.3492 -1.3249
  673SOL    HW2 2019   0.042   2.027   1.450 -2.5379 -0.2774  0.4775
  674SOL     OW 2020   0.896   2.080   2.312  0.1339  0.0001  0.2669
  674SOL    HW1 2021   0.988   2.113   2.274  1.8402 -1.0351  0.6148
  674SOL    HW2 2022   0.851   2.154   2.364 -0.0065 -0.8341 -0.0842
  675SOL     OW 2023   0.903   0.872   1.475 -0.0552  0.3649 -0.0618
  675SOL    HW1 2024   0.971   0.803   1.509  0.7198 -0.3562 -0.0742
  675SOL    HW2 2025   0.833   0.820   1.418 -2.2620 -0.9301  0.6141
  676SOL     OW 2026   1.770   0.126   1.379  0.0615 -0.0308  0.0800
  676SOL    HW1 2027   1.803   0.077   1.299 -2.4078  2.9220  1.6951
  676SOL    HW2 2028   1.745   0.060   1.452  0.7852 -0.8439  1.5605
  677SOL     OW 2029   2.640   0.908   0.302 -0.0602 -0.0405  0.3766
  677SOL    HW1 2030   2.665   0.894   0.401  0.9497 -2.3557 -0.2417
  677SOL    HW2 2031   2.718   0.894   0.236  0.0561 -0.0724  0.4373
  678SOL     OW 2032   2.262   1.276   1.238  0.1658  0.0389 -0.2869
  678SOL    HW1 2033   2.355   1.309   1.212  1.6528 -0.9521 -0.7234
  678SOL    HW2 2034   2.233   1.201   1.175 -2.1291  1.0176  0.5214
  679SOL     OW 2035   2.960   0.524   2.941 -0.1038 -0.1267  0.1617
  679SOL    HW1 2036   2.946   0.620   2.973 -0.2497  0.3096 -0.9774
  679SOL    HW2 2037   2.965   0.461   3.024  1.1595 -0.6531  1.2018
  680SOL     OW 2038   0.492   1.396   2.130 -0.3130  0.1508 -0.7066
  680SOL    HW1 2039   0.521   1.411   2.226  1.9786  0.1343 -2.3917
  680SOL    HW2 2040   0.396   1.352   2.130 -2.1502  0.7395  0.8520
  681SOL     OW 2041   2.770   2.042   1.572 -0.2467  0.9631 -0.3296
  681SOL    HW1 2042   2.800   2.114   1.634 -0.4081  0.0362 -1.7470
  681SOL    HW2 2043   2.807   1.953   1.598 -2.2224  1.6518 -6.7030
  682SOL     OW 2044   0.222   2.111   3.080 -0.0575 -0.1190  0.3321
  682SOL    HW1 2045   0.218   2.030   3.014 -0.2906  0.2393 -2.4745
  682SOL    HW2 2046   0.197   2.190   3.024 -0.4355 -4.3480 -1.3791
  683SOL     OW 2047   2.854   2.102   0.944  0.9787 -0.4050 -0.5569
  683SOL    HW1 2048   2.869   2.021   1.004  0.3049  5.3107  0.4428
  683SOL    HW2 2049   2.776   2.158   0.974  1.1147 -1.9603 -0.8184
  684SOL     OW 2050   3.002   1.298   2.310 -0.1473 -0.0247  0.1412
  684SOL    HW1 2051   3.061   1.228   2.270 -2.2409  0.5854 -0.2126
  684SOL    HW2 2052   2.917   1.301   2.257  3.0780 -1.0709 -1.2642
  685SOL     OW 2053   1.240   0.628   0.787 -0.0433  0.5469  0.4019
  685SOL    HW1 2054   1.175   0.549   0.793 -0.2186  0.8387  0.7584
  685SOL    HW2 2055   1.336   0.601   0.759 -1.0336 -1.3470  0.6520
  686SOL     OW 2056   0.551   0.664   0.277  0.6307  0.3188  0.1860
  686SOL    HW1 2057   0.570   0.587   0.342  1.1577 -1.2692  1.0647
  686SOL    HW2 2058   0.519   0.742   0.331  0.6844 -0.5593  1.6644
  687SOL     OW 2059   0.536   1.981   2.623  0.9387 -0.1335 -0.3841
  687SOL    HW1 2060   0.600   1.947   2.551 -0.6596  0.6897  0.6963
  687SOL    HW2 2061   0.460   1.915   2.610 -0.2615  0.6859 -1.2640
  688SOL     OW 2062   1.988   0.590   1.490 -0.1026  0.4503  0.0994
  688SOL    HW1 2063   1.988   0.492   1.463 -0.8702 -0.7774 -1.1163
  688SOL    HW2 2064   1.993   0.647   1.409  3.2137  0.4695  0.2346
  689SOL     OW 2065   1.569   0.751   0.899 -0.5538 -0.1441  0.5447
  689SOL    HW1 2066   1.672   0.750   0.879  0.0666  1.6416 -0.0483
  689SOL    HW2 2067   1.516   0.748   0.810 -2.3313 -1.5652 -0.5322
  690SOL     OW 2068   2.972   1.258   1.246 -0.1515  0.3959 -0.6356
  690SOL    HW1 2069   3.013   1.341   1.287  1.5401 -1.2914 -0.0401
  690SOL    HW2 2070   3.025   1.233   1.165  1.6101  1.5240  0.2940
  691SOL     OW 2071   3.062   1.500   1.376  0.0122 -0.0797 -0.4803
  691SOL    HW1 2072   0.037   1.565   1.364 -1.8388  2.5730 -0.7020
  691SOL    HW2 2073   3.017   1.529   1.465  0.8587  1.4319  2.5631
  692SOL     OW 2074   1.222   0.100   1.635  0.2112 -0.2300 -0.0280
  692SOL    HW1 2075   1.274   0.036   1.699 -0.1675  0.4507  2.2978
  692SOL    HW2 2076   1.255   0.195   1.640 -3.0564 -1.1781 -3.2419
  693SOL     OW 2077   0.872   1.330   2.316 -0.6011  0.1706  0.5318
  693SOL    HW1 2078   0.949   1.402   2.301 -1.6069 -0.0961 -1.8675
  693SOL    HW2 2079   0.860   1.287   2.224 -0.9283  1.7296 -0.6912
  694SOL     OW 2080   1.830   1.484   0.561  0.3107  0.3784 -0.0799
  694SOL    HW1 2081   1.825   1.453   0.658 -0.7763  1.4833  0.1772
  694SOL    HW2 2082   1.738   1.495   0.521 -2.3815  0.0631  2.7296
  695SOL     OW 2083   0.600   1.119   1.233 -0.7373 -1.0343 -0.8028
  695SOL    HW1 2084   0.541   1.172   1.170  0.5072 -2.8836 -0.4928
  695SOL    HW2 2085   0.548   1.058   1.293  1.1460  3.6189 -1.7370
  696SOL     OW 2086   0.165   0.072   0.462 -0.4064 -0.3881 -0.0112
  696SOL    HW1 2087   0.074   0.026   0.460  1.8983  2.4065  0.3923
  696SOL    HW2 2088   0.237   3.105   0.444 -0.1520 -1.2096 -2.9145
  697SOL     OW 2089   1.850   0.598   1.069  0.0624 -0.1109 -0.1607
  697SOL    HW1 2090   1.782   0.645   1.136  0.4041  0.7286 -0.3611
  697SOL    HW2 2091   1.836   0.498   1.072 -3.0541 -1.6083 -0.9651
  698SOL     OW 2092   1.558   1.370   1.803  0.2657  0.6308 -0.5141
  698SOL    HW1 2093   1.653   1.338   1.800 -1.3921 -0.7035 -2.3073
  698SOL    HW2 2094   1.495   1.292   1.833 -4.1497  0.1157 -1.6613
  699SOL     OW 2095   0.021   0.396   2.099 -0.8834  0.2382  0.0185
  699SOL    HW1 2096   0.047   0.313   2.153 -2.3906 -0.3502  1.6228
  699SOL    HW2 2097   3.028   0.405   2.099  0.6976  1.4414  2.0551
  700SOL     OW 2098   1.419   2.656   0.804  0.3363 -0.1517 -0.4825
  700SOL    HW1 2099   1.501   2.646   0.753 -1.6216  0.2133 -2.6010
  700SOL    HW2 2100   1.412   2.755   0.838  0.9901  1.4953  0.2725
  701SOL     OW 2101   0.202   1.359   2.560  0.1177 -0.0361  0.1159
  701SOL    HW1 2102   0.203   1.443   2.501  2.0585  0.2962  0.7865
  701SOL    HW2 2103   0.285   1.344   2.620  1.2528 -0.3852  0.7999
  702SOL     OW 2104   0.403   0.233   0.457 -0.1978  0.1465  0.2898
  702SOL    HW1 2105   0.316   0.179   0.455 -1.2930 -0.9887 -1.4359
  702SOL    HW2 2106   0.470   0.181   0.398  1.2085  0.0881  2.5079
  703SOL     OW 2107   1.798   3.079   2.594 -0.2933 -0.3362 -0.2962
  703SOL    HW1 2108   1.812   3.048   2.691 -1.7812 -0.1261  3.8311
  703SOL    HW2 2109   1.819   3.009   2.524  2.3812  1.1785 -3.4349
  704SOL     OW 2110   2.474   1.985   0.708 -0.2376 -0.2150  0.6778
  704SOL    HW1 2111   2.517   2.063   0.660 -1.9755  0.8446 -0.8970
  704SOL    HW2 2112   2.551   1.926   0.740 -1.2052 -0.7997 -0.3498
  705SOL     OW 2113   2.611   2.108   2.344  0.0323  0.2049 -0.7418
  705SOL    HW1 2114   2.533   2.111   2.411 -2.1878 -0.0412 -1.2667
  705SOL    HW2 2115   2.688   2.162   2.383 -1.9556  3.1393 -0.5473
  706SOL     OW 2116   2.978   2.694   0.737  0.9777 -0.5609 -0.9067
  706SOL    HW1 2117   2.985   2.665   0.836 -0.1003 -0.6687 -0.6273
  706SOL    HW2 2118   3.001   2.793   0.726 -0.9621 -1.3630 -0.8469
  707SOL     OW 2119   0.782   2.946   0.218  0.1882  0.0214 -0.5113
  707SOL    HW1 2120   0.862   2.907   0.178 -1.6549  0.4556 -0.6342
  707SOL    HW2 2121   0.803   3.035   0.268 -1.5227  0.1515 -0.6700
  708SOL     OW 2122   0.351   1.971   1.719  0.4558  0.0823 -0.1231
  708SOL    HW1 2123   0.313   2.066   1.701  0.9339 -0.5875  1.1034
  708SOL    HW2 2124   0.301   1.925   1.794  0.8734 -1.0199 -1.8546
  709SOL     OW 2125   1.320   2.664   1.956  0.2387 -0.2424  0.7989
  709SOL    HW1 2126   1.326   2.570   1.985  1.2414 -0.8635 -3.0799
  709SOL    HW2 2127   1.277   2.733   2.018  1.0307 -0.3690  0.0558
  710SOL     OW 2128   1.931   2.520   2.401  0.6381 -0.2605  0.2119
  710SOL    HW1 2129   1.911   2.607   2.449  1.5114  2.0469  0.9097
  710SOL    HW2 2130   1.865   2.497   2.326 -0.3671  0.9879  2.0674
  711SOL     OW 2131   1.194   2.479   2.650 -0.4848  0.3729  0.1381
  711SOL    HW1 2132   1.113   2.535   2.622  0.3534  0.2791 -0.4447
  711SOL    HW2 2133   1.163   2.382   2.649 -0.6864  1.3421 -1.1125
  712SOL     OW 2134   1.165   2.219   2.690 -0.4229 -0.4761  0.1480
  712SOL    HW1 2135   1.234   2.195   2.759 -1.6849  2.1640 -2.9206
  712SOL    HW2 2136   1.098   2.146   2.679 -1.3455 -0.3276 -2.4913
  713SOL     OW 2137   1.346   0.875   1.582 -0.0568  0.0085 -0.0230
  713SOL    HW1 2138   1.314   0.787   1.545  2.3666 -0.0539  0.1773
  713SOL    HW2 2139   1.397   0.927   1.515  0.0795  2.1661 -0.4222
  714SOL     OW 2140   1.318   1.419   1.627  0.2431 -0.2882 -0.0532
  714SOL    HW1 2141   1.362   1.434   1.716  0.4001  0.5823 -1.6491
  714SOL    HW2 2142   1.273   1.326   1.628  0.3254 -1.1008 -0.0867
  715SOL     OW 2143   2.524   2.945   0.526 -0.2177 -0.6142  0.3922
  715SOL    HW1 2144   2.612   3.005   0.519  1.7687  3.1937  1.6517
  715SOL    HW2 2145   2.495   2.907   0.434 -4.2085 -0.4223  0.5744
  716SOL     OW 2146   0.656   2.693   1.007  0.9596 -0.5049 -0.0376
  716SOL    HW1 2147   0.728   2.619   1.011  2.3342  0.3614 -2.0049
  716SOL    HW2 2148   0.567   2.685   1.061 -2.7984 -0.5473 -2.5002
  717SOL     OW 2149   2.958   0.346   0.050 -0.0207  0.2808  0.0718
  717SOL    HW1 2150   2.894   0.273   0.015  0.7032  0.8710 -0.3858
  717SOL    HW2 2151   2.935   0.358   0.148  1.6833 -0.2524 -0.9334
  718SOL     OW 2152   1.619   1.524   1.325  0.1144  0.1227  0.1436
  718SOL    HW1 2153   1.602   1.565   1.420 -0.5922 -1.5667  3.0860
  718SOL    HW2 2154   1.641   1.423   1.331  0.5549  0.1697  0.7480
  719SOL     OW 2155   3.060   2.629   0.214 -0.3442  0.0991 -0.6060
  719SOL    HW1 2156   3.041   2.621   0.113  0.3835  0.7812 -0.4960
  719SOL    HW2 2157   2.989   2.583   0.268 -2.2785 -0.9439 -1.0631
  720SOL     OW 2158   1.135   0.771   1.004 -0.0926  0.0335  0.0646
  720SOL    HW1 2159   1.188   0.707   0.945 -0.0395 -0.2309  2.5497
  720SOL    HW2 2160   1.100   0.720   1.084 -0.4528  0.1755  0.2695
  721SOL     OW 2161   1.754   0.331   1.106  0.3780 -0.2930  0.3085
  721SOL    HW1 2162   1.758   0.229   1.086 -1.2978 -3.9129  1.0482
  721SOL    HW2 2163   1.684   0.342   1.177 -1.3752 -0.9520 -0.1946
  722SOL     OW 2164   1.046   1.852   1.999 -0.0139 -0.1377 -0.9975
  722SOL    HW1 2165   0.972   1.829   2.071 -2.0775 -1.9480  2.3078
  722SOL    HW2 2166   1.115   1.925   2.021  0.5105 -0.8757 -1.8427
  723SOL     OW 2167   1.030   0.010   1.455 -0.1689 -0.1527  0.2093
  723SOL    HW1 2168   1.083   3.043   1.406  0.6096  0.6222 -0.4398
  723SOL    HW2 2169   1.089   0.052   1.525  0.4068 -1.6833 -1.2686
  724SOL     OW 2170   1.846   2.016   1.942  0.3744  0.5876 -0.1819
  724SOL    HW1 2171   1.826   2.006   2.040 -1.8901  1.7835  1.3233
  724SOL    HW2 2172   1.946   2.020   1.922  0.2861  0.7879  1.1511
  725SOL     OW 2173   1.285   2.766   1.525  0.3139  0.1907  0.1456
  725SOL    HW1 2174   1.342   2.775   1.608 -0.6263 -3.1484  0.9575
  725SOL    HW2 2175   1.286   2.672   1.482 -0.2519 -2.2923  0.7421
  726SOL     OW 2176   1.718   2.932   0.080  0.1085  0.2879 -0.1175
  726SOL    HW1 2177   1.714   3.026   0.054  1.3314 -1.8947  0.1413
  726SOL    HW2 2178   1.782   2.915   0.155 -3.0375 -1.3879 -2.8802
  727SOL     OW 2179   1.390   1.874   0.892  0.0670 -0.7558 -0.2431
  727SOL    HW1 2180   1.319   1.946   0.911 -2.1363 -2.0371  2.1191
  727SOL    HW2 2181   1.476   1.910   0.937  0.8762 -0.8191  1.1106
  728SOL     OW 2182   1.851   2.744   2.526 -0.1008 -0.5532 -0.0374
  728SOL    HW1 2183   1.864   2.820   2.457  0.5956  0.8440  1.6428
  728SOL    HW2 2184   1.753   2.753   2.560 -0.4788 -0.8351 -1.9421
  729SOL     OW 2185   2.287   2.330   1.571  0.4651 -0.0155 -0.0673
  729SOL    HW1 2186   2.254   2.356   1.661  2.1202 -1.6443 -2.9391
  729SOL    HW2 2187   2.369   2.265   1.580  2.7230  0.0350 -0.8945
  730SOL     OW 2188   1.849   0.652   2.497 -0.0333 -0.4934 -0.6852
  730SOL    HW1 2189   1.809   0.589   2.424  0.4566 -2.1943 -1.4068
  730SOL    HW2 2190   1.948   0.638   2.501 -0.5432 -1.3816 -1.6456
  731SOL     OW 2191   0.514   0.186   1.139  0.1009  0.3404 -0.1509
  731SOL    HW1 2192   0.602   0.193   1.089  0.1485  0.6851  2.1094
  731SOL    HW2 2193   0.495   0.272   1.195 -1.2133 -1.3361 -0.0448
  732SOL     OW 2194   1.837   0.042   1.101 -0.2444 -0.3301 -0.0442
  732SOL    HW1 2195   1.779   3.086   1.045  2.4127  0.1571  0.6447
  732SOL    HW2 2196   1.937   0.030   1.074 -0.5648 -3.9451 -0.8520
  733SOL     OW 2197   0.821   1.001   1.111 -0.1800  0.1667 -0.3465
  733SOL    HW1 2198   0.746   1.035   1.170 -0.7911  1.3730  0.8267
  733SOL    HW2 2199   0.911   0.996   1.162  2.0152  1.1839 -2.2435
  734SOL     OW 2200   2.591   2.453   0.416  0.0428  0.4309 -0.7465
  734SOL    HW1 2201   2.499   2.489   0.398  2.4097 -1.3917 -1.9986
  734SOL    HW2 2202   2.635   2.501   0.494  1.7589 -1.7142  0.0817
  735SOL     OW 2203   0.676   0.607   0.054 -0.3724  0.2245  0.4753
  735SOL    HW1 2204   0.612   0.631   3.086  3.4151 -0.4806 -2.4527
  735SOL    HW2 2205   0.644   0.643   0.145  0.5767  0.4985  1.2062
  736SOL     OW 2206   1.959   2.261   2.296 -0.5810 -0.2133  0.2662
  736SOL    HW1 2207   1.944   2.350   2.343 -1.0441  0.6898 -1.0254
  736SOL    HW2 2208   2.009   2.192   2.354 -0.7343  1.6877  0.1463
  737SOL     OW 2209   1.236   2.405   1.072 -0.2617  0.0576 -0.3958
  737SOL    HW1 2210   1.197   2.485   1.025 -0.4234 -1.0686  2.0400
  737SOL    HW2 2211   1.165   2.333   1.093  1.7842 -0.1913 -2.2854
  738SOL     OW 2212   1.728   2.821   2.134 -0.5211 -0.2449 -0.0001
  738SOL    HW1 2213   1.635   2.868   2.130 -0.7804  0.3763 -0.1155
  738SOL    HW2 2214   1.763   2.819   2.035 -0.9511 -4.7606 -1.3629
  739SOL     OW 2215   1.302   1.964   2.063  0.0236 -0.5539 -0.0838
  739SOL    HW1 2216   1.376   1.901   2.048 -5.4152  1.1528 -0.7255
  739SOL    HW2 2217   1.294   2.002   2.158 -1.9850  3.2418  6.5578
  740SOL     OW 2218   1.900   2.175   1.546 -0.5829  0.2119 -0.1318
  740SOL    HW1 2219   1.964   2.090   1.553  1.4776 -1.2208 -0.1640
  740SOL    HW2 2220   1.889   2.210   1.450  0.8623  0.2517  0.5196
  741SOL     OW 2221   2.085   1.780   3.029 -0.3953  0.2947  0.1911
  741SOL    HW1 2222   1.999   1.808   2.991  2.6488  0.9261 -2.0503
  741SOL    HW2 2223   2.155   1.760   2.958 -1.7408 -3.0487  1.6604
  742SOL     OW 2224   0.997   1.091   2.948 -0.2013  0.4959 -0.2137
  742SOL    HW1 2225   0.973   1.138   2.864 -1.2685  0.9333  0.5553
  742SOL    HW2 2226   1.069   1.022   2.929 -0.2705  1.4277  1.6895
  743SOL     OW 2227   2.482   0.962   2.626  0.6039 -0.3466 -0.1446
  743SOL    HW1 2228   2.545   0.930   2.558 -0.9441  1.8906 -0.0594
  743SOL    HW2 2229   2.477   1.062   2.621  1.5351 -1.4835  2.4745
  744SOL     OW 2230   2.050   2.606   1.641  0.3151  0.1918 -0.5654
  744SOL    HW1 2231   1.982   2.587   1.564 -2.4828  0.0529 -0.9989
  744SOL    HW2 2232   2.099   2.695   1.625  0.8453 -1.0935 -1.3333
  745SOL     OW 2233   2.586   1.784   1.506 -0.0839 -0.2410  0.7256
  745SOL    HW1 2234   2.571   1.854   1.430 -1.8253  2.6345  0.6704
  745SOL    HW2 2235   2.565   1.686   1.468 -1.6342  0.0302  1.5735
  746SOL     OW 2236   2.833   1.884   1.161 -0.2262  0.2086  0.2544
  746SOL    HW1 2237   2.739   1.851   1.132 -2.3436 -0.7730 -0.3402
  746SOL    HW2 2238   2.893   1.811   1.196  1.3889  0.1001  4.7670
  747SOL     OW 2239   1.781   2.584   0.355  0.6341  0.6613 -0.2282
  747SOL    HW1 2240   1.781   2.573   0.255 -3.5201 -0.8696  0.1842
  747SOL    HW2 2241   1.785   2.496   0.401  2.0056  0.8020 -1.0894
  748SOL     OW 2242   0.934   2.012   0.203  0.0043 -0.1594  0.2440
  748SOL    HW1 2243   0.991   2.018   0.118 -0.2304 -1.4470  0.6478
  748SOL    HW2 2244   0.833   2.015   0.177 -1.2891  0.5021 -0.4046
  749SOL     OW 2245   2.869   0.400   2.106 -0.1859 -0.3382 -0.0805
  749SOL    HW1 2246   2.850   0.476   2.168  2.1502 -2.1522 -0.1213
  749SOL    HW2 2247   2.791   0.389   2.039 -1.2657  1.1743  0.4377
  750SOL     OW 2248   1.225   0.555   1.738 -0.0516  0.5153 -0.0129
  750SOL    HW1 2249   1.285   0.628   1.770  2.6178 -2.7037 -1.0904
  750SOL    HW2 2250   1.293   0.496   1.685  1.5446 -1.6469 -1.7109
  751SOL     OW 2251   2.383   2.440   1.860 -0.2959 -0.4617 -0.3737
  751SOL    HW1 2252   2.281   2.446   1.845 -2.0890 -0.4368  0.8205
  751SOL    HW2 2253   2.431   2.528   1.862 -1.4057 -0.8809 -0.5229
  752SOL     OW 2254   1.949   1.829   0.940 -0.1681  0.0360  0.3231
  752SOL    HW1 2255   1.861   1.781   0.936  3.1552 -1.0151  0.3136
  752SOL    HW2 2256   2.024   1.770   0.958 -2.6934 -0.8361 -0.1140
  753SOL     OW 2257   1.447   1.123   2.398 -0.1350 -0.1386 -0.5718
  753SOL    HW1 2258   1.453   1.063   2.317  0.2918 -0.1434  0.1991
  753SOL    HW2 2259   1.361   1.172   2.415  1.8149  0.8357  1.2760
  754SOL     OW 2260   0.184   2.821   0.996 -0.0780 -0.4821 -0.2292
  754SOL    HW1 2261   0.144   2.883   1.067 -0.6052  0.9886 -0.0033
  754SOL    HW2 2262   0.132   2.731   0.990  1.3062 -1.2183  0.0253
  755SOL     OW 2263   2.072   0.202   1.603  0.1785 -0.2256 -0.3354
  755SOL    HW1 2264   2.154   0.263   1.631  2.4695 -0.2798  0.3839
  755SOL    HW2 2265   2.017   0.247   1.531  0.9025 -3.7082  2.9853
  756SOL     OW 2266   1.624   1.226   2.581 -0.4766  0.1566 -0.4241
  756SOL    HW1 2267   1.559   1.264   2.653 -0.7317  0.8455  1.8392
  756SOL    HW2 2268   1.572   1.180   2.508  0.3056 -1.6633 -3.1108
  757SOL     OW 2269   2.845   2.862   1.730  1.0685 -0.4488  0.4123
  757SOL    HW1 2270   2.792   2.900   1.812  2.2897  0.1871 -0.1016
  757SOL    HW2 2271   2.796   2.907   1.647 -3.7407 -0.5895 -0.9478
  758SOL     OW 2272   0.442   2.837   1.314 -0.8547  0.3648  0.1669
  758SOL    HW1 2273   0.349   2.870   1.305  1.7778  3.9496 -0.2398
  758SOL    HW2 2274   0.498   2.918   1.291  0.9032  1.7319  3.3853
  759SOL     OW 2275   2.256   1.358   0.944 -0.2027  0.0084  0.2473
  759SOL    HW1 2276   2.356   1.380   0.951  4.1430  0.0219  2.0300
  759SOL    HW2 2277   2.233   1.278   0.887 -1.4034 -0.1396 -1.2113
  760SOL     OW 2278   1.542   0.117   1.969 -0.2630 -0.5896  0.1931
  760SOL    HW1 2279   1.530   0.214   1.938  0.1024 -0.4134 -0.5166
  760SOL    HW2 2280   1.512   0.104   2.063  0.7581 -1.2576 -1.8461
  761SOL     OW 2281   2.053   0.448   0.472 -0.1051 -0.0481  0.6230
  761SOL    HW1 2282   2.109   0.393   0.409  2.7175  0.9659 -2.0213
  761SOL    HW2 2283   2.026   0.543   0.437 -1.2255 -2.6318 -0.0026
  762SOL     OW 2284   2.283   2.713   3.099 -0.6440 -0.1213  0.2694
  762SOL    HW1 2285   2.375   2.723   0.044  1.3916  2.3595  3.0127
  762SOL    HW2 2286   2.214   2.650   0.036 -1.5915  1.4336  1.4567
  763SOL     OW 2287   0.711   0.737   1.075  0.8855 -0.5056 -0.1507
  763SOL    HW1 2288   0.775   0.817   1.082 -0.8534 -1.4018  0.8660
  763SOL    HW2 2289   0.632   0.766   1.018  2.9918  0.1724 -1.3003
  764SOL     OW 2290   2.217   2.419   2.814 -0.2219 -0.5056  0.7650
  764SOL    HW1 2291   2.248   2.341   2.878  2.0774 -0.5815  1.3834
  764SOL    HW2 2292   2.121   2.443   2.825 -1.8753 -1.9022  1.1559
  765SOL     OW 2293   0.253   0.713   2.439  0.0900 -0.4243  0.0260
  765SOL    HW1 2294   0.162   0.691   2.480  0.7825 -0.2747 -0.3305
  765SOL    HW2 2295   0.307   0.778   2.498  0.1384  2.0701 -0.3681
  766SOL     OW 2296   2.786   1.402   2.989 -0.0559 -0.2086 -0.6515
  766SOL    HW1 2297   2.707   1.441   2.935 -1.2992 -0.2279  0.6098
  766SOL    HW2 2298   2.776   1.300   2.997 -2.6236  1.0275 -0.3154
  767SOL     OW 2299   2.970   1.658   1.933  0.0537 -0.2149  0.2168
  767SOL    HW1 2300   2.870   1.642   1.931  1.5738 -0.0039  0.9760
  767SOL    HW2 2301   3.030   1.577   1.940  0.2990  0.4857 -2.4466
  768SOL     OW 2302   1.076   1.023   0.251  0.1983 -0.1110  0.2797
  768SOL    HW1 2303   1.017   0.953   0.293  0.3806  0.3233  2.3440
  768SOL    HW2 2304   1.160   0.985   0.211 -1.3341  0.9954 -1.3694
  769SOL     OW 2305   1.577   2.855   2.844 -0.0398  0.1002  0.3154
  769SOL    HW1 2306   1.651   2.920   2.871 -2.1160 -2.3788  0.7085
  769SOL    HW2 2307   1.533   2.817   2.924  3.3948  0.5168  0.6170
  770SOL     OW 2308   0.651   0.151   2.474 -0.0355 -0.0538 -0.4529
  770SOL    HW1 2309   0.707   0.115   2.393 -0.8567  3.4457 -1.7496
  770SOL    HW2 2310   0.707   0.228   2.519  0.2529  4.4933  1.2284
  771SOL     OW 2311   0.840   2.486   0.908  0.2808  0.2735  0.3013
  771SOL    HW1 2312   0.751   2.445   0.886  0.7435 -0.0400  1.0621
  771SOL    HW2 2313   0.911   2.441   0.856 -0.4304  3.4515 -0.9292
  772SOL     OW 2314   0.061   0.740   0.195 -0.3445  0.1044  0.0168
  772SOL    HW1 2315   0.126   0.661   0.193 -1.9443 -0.9029 -1.7103
  772SOL    HW2 2316   3.094   0.722   0.257  3.2860 -0.9181 -2.2931
  773SOL     OW 2317   1.937   0.958   2.030  1.0342 -0.0427 -0.1360
  773SOL    HW1 2318   1.945   0.872   1.978 -0.8971  0.0119 -0.5654
  773SOL    HW2 2319   1.852   1.014   2.013  0.3951  2.7790  0.0640
  774SOL     OW 2320   0.800   0.958   0.706  0.2344 -0.0997  0.7271
  774SOL    HW1 2321   0.762   0.981   0.614  2.2301 -1.9038 -1.1522
  774SOL    HW2 2322   0.740   0.987   0.784  0.8114  1.0180  1.4463
  775SOL     OW 2323   1.738   0.086   0.001 -0.2010 -0.7721  0.0394
  775SOL    HW1 2324   1.651   0.074   3.051 -1.2950 -3.6916  0.3615
  775SOL    HW2 2325   1.746   0.185   0.029 -0.0400 -1.1570  0.8885
  776SOL     OW 2326   2.218   0.227   2.309 -0.1120 -0.2102  0.1123
  776SOL    HW1 2327   2.121   0.199   2.318 -1.6648  0.7334  1.7646
  776SOL    HW2 2328   2.269   0.144   2.290  0.7379 -2.1085 -0.6970
  777SOL     OW 2329   0.755   1.591   0.144  0.4098 -0.1207 -0.2338
  777SOL    HW1 2330   0.850   1.632   0.148  2.2101  1.7188 -1.7097
  777SOL    HW2 2331   0.684   1.666   0.137  0.9916 -0.6364 -1.7352
  778SOL     OW 2332   0.285   2.692   0.022 -0.1082 -0.4734 -0.5455
  778SOL    HW1 2333   0.256   2.672   0.117 -2.3425  0.4659  0.0331
  778SOL    HW2 2334   0.372   2.651   3.105 -0.8002 -1.0725  3.1541
  779SOL     OW 2335   0.418   1.160   0.047 -0.1782 -0.0361 -0.2755
  779SOL    HW1 2336   0.343   1.192   0.115 -1.6838 -0.2716 -0.7050
  779SOL    HW2 2337   0.465   1.078   0.087  1.7463  0.3572 -1.4047
  780SOL     OW 2338   2.227   0.491   2.318 -0.3251 -0.1520  0.0743
  780SOL    HW1 2339   2.175   0.545   2.250 -0.7636  0.6826 -1.2621
  780SOL    HW2 2340   2.213   0.389   2.304  0.5082 -2.2698  2.7027
  781SOL     OW 2341   1.643   0.894   1.848 -0.2118  1.1117 -0.3702
  781SOL    HW1 2342   1.667   0.977   1.902 -0.0682 -0.3884 -1.4790
  781SOL    HW2 2343   1.694   0.895   1.761  2.9595  1.2057  0.3808
  782SOL     OW 2344   1.943   1.756   2.265 -0.1297  0.3051 -0.3722
  782SOL    HW1 2345   2.020   1.812   2.304 -0.0824  0.8856  0.4589
  782SOL    HW2 2346   1.960   1.722   2.171  0.0812 -2.5746  0.0050
  783SOL     OW 2347   1.341   3.093   1.203  0.1168 -0.4988  0.8486
  783SOL    HW1 2348   1.397   3.092   1.288 -2.0642 -3.9999  3.5042
  783SOL    HW2 2349   1.271   3.025   1.221  0.4008  0.7111 -2.0707
  784SOL     OW 2350   1.942   0.901   2.510 -0.0883 -0.3773  0.8283
  784SOL    HW1 2351   2.037   0.920   2.539 -3.5400  0.7945  0.3071
  784SOL    HW2 2352   1.915   0.801   2.525  0.1376  0.8270  1.0621
  785SOL     OW 2353   1.881   0.367   3.086  0.0225 -0.2610  0.0738
  785SOL    HW1 2354   1.879   0.344   0.078 -0.3549  0.2645  0.2006
  785SOL    HW2 2355   1.976   0.377   3.053  0.4894 -1.7306  1.0332
  786SOL     OW 2356   3.033   1.854   0.647  0.5611  0.3847  0.3534
  786SOL    HW1 2357   3.045   1.834   0.545 -0.5495  1.1046 -2.0985
  786SOL    HW2 2358   2.946   1.900   0.665  3.1707 -1.4197  1.0350
  787SOL     OW 2359   1.663   2.154   0.330 -0.2851 -0.1243 -0.0784
  787SOL    HW1 2360   1.668   2.140   0.431  1.4154  0.5266 -2.4105
  787SOL    HW2 2361   1.591   2.224   0.306 -0.5361  0.9748  0.6703
  788SOL     OW 2362   2.118   1.599   1.549 -0.2287 -0.4203  0.3495
  788SOL    HW1 2363   2.137   1.654   1.465  1.2766 -1.0103 -0.1512
  788SOL    HW2 2364   2.017   1.587   1.572 -1.9951  0.7546  3.5357
  789SOL     OW 2365   0.076   1.385   2.809 -0.4460  0.2027  0.7771
  789SOL    HW1 2366   0.128   1.380   2.717 -0.3574  1.2522  0.7998
  789SOL    HW2 2367   0.031   1.299   2.816  1.0961  2.2488 -2.2152
  790SOL     OW 2368   0.571   0.123   2.736 -0.0017  0.1711 -0.3080
  790SOL    HW1 2369   0.537   0.207   2.781 -0.2217 -0.5742 -0.8682
  790SOL    HW2 2370   0.594   0.135   2.635 -0.0413  2.3321  1.8750
  791SOL     OW 2371   0.757   0.352   2.589 -0.3683 -0.2417  1.1321
  791SOL    HW1 2372   0.851   0.364   2.619 -0.2884  1.7382  0.6476
  791SOL    HW2 2373   0.700   0.432   2.616  0.2296 -0.7272 -0.9031
  792SOL     OW 2374   1.605   0.756   2.325 -0.1485  0.6117  0.2085
  792SOL    HW1 2375   1.647   0.660   2.331  2.7810 -1.3532 -0.7187
  792SOL    HW2 2376   1.679   0.819   2.288 -0.7803  0.5341 -0.5421
  793SOL     OW 2377   2.757   0.706   1.563 -0.3907 -0.1414 -0.1018
  793SOL    HW1 2378   2.757   0.808   1.557  0.5930 -0.2484 -1.4242
  793SOL    HW2 2379   2.680   0.658   1.520 -1.6212 -1.5447  1.5205
  794SOL     OW 2380   0.407   0.594   1.828 -0.2307 -0.2660 -0.3855
  794SOL    HW1 2381   0.481   0.591   1.903  2.1240  2.7072  3.8959
  794SOL    HW2 2382   0.320   0.569   1.868  0.1845  1.1117  1.9351
  795SOL     OW 2383   2.904   1.434   0.435  0.1942 -0.1811  0.3204
  795SOL    HW1 2384   2.883   1.533   0.432  1.0604 -1.4871  0.7064
  795SOL    HW2 2385   2.953   1.399   0.521 -0.3967 -1.8691  0.7264
  796SOL     OW 2386   0.228   2.383   3.023  0.2756  0.4501  0.3776
  796SOL    HW1 2387   0.262   2.379   0.010  0.9085 -1.0116  0.5678
  796SOL    HW2 2388   0.183   2.470   3.000  1.2499 -1.0686  4.8754
  797SOL     OW 2389   2.105   2.583   0.127  0.5352  0.1078  0.8692
  797SOL    HW1 2390   2.007   2.570   0.148  0.1177  0.2315  2.4668
  797SOL    HW2 2391   2.156   2.502   0.156 -0.2448  0.0319 -0.4210
  798SOL     OW 2392   0.242   1.053   1.786 -0.2258 -0.2349  0.2626
  798SOL    HW1 2393   0.318   0.979   1.778 -0.3348  0.7727  0.2245
  798SOL    HW2 2394   0.193   1.071   1.697 -1.2050 -0.0741 -0.3421
  799SOL     OW 2395   2.888   0.590   2.448  0.3763 -0.2012  0.1271
  799SOL    HW1 2396   2.949   0.654   2.497 -1.9975 -0.2616  0.8955
  799SOL    HW2 2397   2.893   0.606   2.349 -0.3469  1.6838  2.7593
  800SOL     OW 2398   2.810   2.007   0.687 -0.1407 -0.0172 -0.6022
  800SOL    HW1 2399   2.812   2.042   0.591  1.2344 -0.5166 -2.6853
  800SOL    HW2 2400   2.845   2.074   0.763  2.2995  2.4229  2.0811
  801SOL     OW 2401   1.363   1.100   0.980 -0.5511 -0.2331 -0.1831
  801SOL    HW1 2402   1.387   1.110   0.881 -2.0745 -0.0174  0.0913
  801SOL    HW2 2403   1.271   1.061   0.988 -1.1493  0.6559 -1.6827
  802SOL     OW 2404   1.121   1.895   1.293  0.3274 -0.3724 -0.5373
  802SOL    HW1 2405   1.216   1.886   1.264 -1.6572  0.8909  1.0395
  802SOL    HW2 2406   1.096   1.996   1.311 -1.6020  3.5105 -0.8340
  803SOL     OW 2407   3.016   1.856   0.370  0.0432  0.1613 -0.1301
  803SOL    HW1 2408   3.103   1.810   0.334  0.7168  0.0305 -0.7990
  803SOL    HW2 2409   2.993   1.937   0.320 -0.1108 -1.8556  0.7260
  804SOL     OW 2410   1.035   2.602   1.044 -0.1281 -0.2123  0.5326
  804SOL    HW1 2411   1.029   2.618   1.144  0.3383  0.2128  0.9326
  804SOL    HW2 2412   0.950   2.552   1.015 -0.3940 -1.2255 -0.3577
  805SOL     OW 2413   1.652   1.302   0.156  0.5523  0.0486 -0.3160
  805SOL    HW1 2414   1.658   1.395   0.119  0.1681 -1.0788  0.5988
  805SOL    HW2 2415   1.560   1.278   0.197 -2.9744 -0.7631  0.7057
  806SOL     OW 2416   1.634   2.900   1.259  0.5904 -0.3354  0.1896
  806SOL    HW1 2417   1.570   2.956   1.323 -0.1337 -1.7666  0.3648
  806SOL    HW2 2418   1.713   2.862   1.309  0.0242  1.6896  1.1086
  807SOL     OW 2419   2.067   3.027   2.774  0.2625  0.1025 -0.5383
  807SOL    HW1 2420   2.113   3.071   2.697 -0.8199 -0.3950  0.8381
  807SOL    HW2 2421   2.092   2.929   2.776  1.4047  0.6915  1.5051
  808SOL     OW 2422   0.234   1.234   0.224  0.8139  0.1599  0.1923
  808SOL    HW1 2423   0.147   1.288   0.203 -3.8759 -1.2984 -1.1288
  808SOL    HW2 2424   0.259   1.253   0.319 -1.7204 -3.2347  1.3734
  809SOL     OW 2425   2.706   0.936   2.423  0.0387  0.3457 -0.0933
  809SOL    HW1 2426   2.797   0.963   2.385 -0.6243  3.6667  3.1036
  809SOL    HW2 2427   2.643   0.917   2.346 -2.8693  0.2438 -0.3600
  810SOL     OW 2428   2.335   0.074   1.825  0.6715 -0.3281 -0.6722
  810SOL    HW1 2429   2.422   0.120   1.823 -3.4128  1.9595 -0.2345
  810SOL    HW2 2430   2.314   0.038   1.731 -4.3095 -0.5520  0.3199
  811SOL     OW 2431   2.683   2.513   1.711 -0.1262  0.0934 -0.2839
  811SOL    HW1 2432   2.619   2.582   1.753 -1.5944  0.4018 -2.0062
  811SOL    HW2 2433   2.763   2.498   1.773  1.5945 -0.6580  0.0928
  812SOL     OW 2434   1.648   0.456   2.971  0.1655  0.3912 -0.1092
  812SOL    HW1 2435   1.615   0.438   2.879  2.7026  1.2202  2.3455
  812SOL    HW2 2436   1.741   0.418   2.989  0.6937 -2.2125  1.6238
  813SOL     OW 2437   1.798   0.439   1.873 -0.4019  0.1406 -0.3565
  813SOL    HW1 2438   1.845   0.350   1.850 -0.6686 -0.6114  0.6442
  813SOL    HW2 2439   1.789   0.495   1.788  1.4027 -0.6139 -1.2036
  814SOL     OW 2440   1.886   1.307   1.562  0.6132 -0.2210  0.1826
  814SOL    HW1 2441   1.989   1.304   1.549  1.5818 -0.8220 -1.9060
  814SOL    HW2 2442   1.858   1.401   1.540  2.8088 -1.6020  1.4491
  815SOL     OW 2443   0.421   0.825   0.511  0.4384  0.2573  0.1641
  815SOL    HW1 2444   0.365   0.860   0.428  2.9637  1.5099 -3.2463
  815SOL    HW2 2445   0.413   0.890   0.591 -1.6855  2.3502 -1.6615
  816SOL     OW 2446   1.834   1.755   2.737  0.1792 -0.0132  0.7858
  816SOL    HW1 2447   1.916   1.721   2.688  1.2297  0.0989 -2.2983
  816SOL    HW2 2448   1.753   1.696   2.715  2.5184 -0.7913 -0.6134
  817SOL     OW 2449   0.312   2.941   0.549  0.6588  0.1015  0.0970
  817SOL    HW1 2450   0.351   2.913   0.637 -0.9681 -1.1217  0.6789
  817SOL    HW2 2451   0.364   2.900   0.471  2.4176 -1.6055  0.9986
  818SOL     OW 2452   1.947   0.212   2.571 -0.1141  0.5940  0.2129
  818SOL    HW1 2453   1.899   0.140   2.624 -2.5166 -1.3309  0.5162
  818SOL    HW2 2454   1.928   0.202   2.471 -1.1630 -0.8675  0.5236
  819SOL     OW 2455   1.212   1.162   0.456 -0.0928  0.7927 -0.6608
  819SOL    HW1 2456   1.144   1.106   0.397 -1.2896  0.1067  0.8024
  819SOL    HW2 2457   1.196   1.127   0.550 -0.2903  1.9958 -0.6523
  820SOL     OW 2458   2.254   1.081   1.009 -0.4685  0.2648 -0.3921
  820SOL    HW1 2459   2.311   1.046   1.083  0.7854 -2.1076 -1.4531
  820SOL    HW2 2460   2.307   1.092   0.923  2.1720 -0.3247  1.9942
  821SOL     OW 2461   2.364   0.050   0.382  0.1082 -0.1824  0.0156
  821SOL    HW1 2462   2.380   0.005   0.293 -1.4883  0.2335 -0.0643
  821SOL    HW2 2463   2.266   0.050   0.407 -0.6943  0.2453 -0.0525
  822SOL     OW 2464   0.545   2.759   2.584  0.2760  0.2004 -0.3482
  822SOL    HW1 2465   0.531   2.719   2.679  0.1665 -1.7984  1.4950
  822SOL    HW2 2466   0.485   2.833   2.557  2.7286  1.2669 -1.4814
  823SOL     OW 2467   0.170   2.171   1.745 -0.3444 -0.3155 -0.7816
  823SOL    HW1 2468   0.088   2.123   1.780 -0.8651 -0.3561  0.6662
  823SOL    HW2 2469   0.161   2.267   1.707 -0.3033  1.0029 -2.3265
  824SOL     OW 2470   0.820   2.899   2.136 -0.5383  0.2764  0.1479
  824SOL    HW1 2471   0.871   2.873   2.051  0.4584 -2.1645 -1.3143
  824SOL    HW2 2472   0.825   2.830   2.204 -0.9956  2.9077 -3.3183
  825SOL     OW 2473   1.327   1.821   0.429  0.1389  0.0534  0.4373
  825SOL    HW1 2474   1.362   1.745   0.373 -1.2425 -0.6816  0.6099
  825SOL    HW2 2475   1.225   1.824   0.430  2.3842  0.1219 -0.5313
  826SOL     OW 2476   1.138   2.959   2.939  0.6656 -0.2289 -0.3209
  826SOL    HW1 2477   1.079   3.022   3.000 -3.6054  2.8681  1.4205
  826SOL    HW2 2478   1.134   2.867   2.974  2.7637  2.2604 -0.8019
  827SOL     OW 2479   0.167   1.674   1.368  0.2725 -0.0338 -0.2226
  827SOL    HW1 2480   0.248   1.685   1.308 -2.7039  1.3960  1.2331
  827SOL    HW2 2481   0.194   1.678   1.467  1.1146 -3.0542 -3.0841
  828SOL     OW 2482   2.526   1.526   1.407  0.1677 -0.2565 -0.1017
  828SOL    HW1 2483   2.505   1.512   1.309 -3.2576  3.6099  1.7827
  828SOL    HW2 2484   2.581   1.450   1.450  0.2615 -0.1328 -4.0529
  829SOL     OW 2485   2.835   2.131   0.444 -0.1273 -0.6898 -0.4825
  829SOL    HW1 2486   2.905   2.199   0.468 -1.9564 -1.1043 -0.0210
  829SOL    HW2 2487   2.856   2.087   0.353  0.9393 -1.1194  2.3814
  830SOL     OW 2488   1.039   0.629   0.506  0.4265  0.0736  0.4242
  830SOL    HW1 2489   1.106   0.704   0.485 -0.5881 -2.3730 -1.6125
  830SOL    HW2 2490   0.987   0.652   0.590  1.1648  1.5134  0.5091
  831SOL     OW 2491   2.715   1.999   0.049 -0.0916 -0.2704 -0.5467
  831SOL    HW1 2492   2.755   1.906   0.026  2.4074 -0.4558  1.6951
  831SOL    HW2 2493   2.625   1.998   0.109 -4.0799 -1.2516  0.7018
  832SOL     OW 2494   0.979   2.573   0.216  0.3240 -0.0424  0.1255
  832SOL    HW1 2495   0.993   2.604   0.313 -0.7342 -0.1671  5.8254
  832SOL    HW2 2496   1.039   2.495   0.202 -1.6226 -0.0522 -0.6014
  833SOL     OW 2497   1.138   0.666   2.399 -0.5473  0.1304  0.8787
  833SOL    HW1 2498   1.056   0.696   2.348 -1.8992 -0.3551  2.9141
  833SOL    HW2 2499   1.224   0.708   2.360  2.6165  2.5237  0.1508
  834SOL     OW 2500   2.889   0.863   0.747  0.3169  0.0995 -0.5283
  834SOL    HW1 2501   2.806   0.900   0.701 -0.6334  0.3031  2.3313
  834SOL    HW2 2502   2.898   0.760   0.737 -0.0307 -0.1583 -0.2706
  835SOL     OW 2503   2.596   0.473   2.026 -0.4124 -0.1299 -0.3420
  835SOL    HW1 2504   2.622   0.568   2.008  1.1898 -2.6752 -0.5541
  835SOL    HW2 2505   2.559   0.453   2.118 -0.2278  1.0868  1.8411
  836SOL     OW 2506   0.647   2.333   0.805 -0.7341  0.3723 -0.0785
  836SOL    HW1 2507   0.605   2.413   0.753 -1.1322 -2.3229 -0.5563
  836SOL    HW2 2508   0.698   2.268   0.744  2.0785 -0.3116  1.2933
  837SOL     OW 2509   2.357   1.766   2.208 -0.4687  0.0550 -0.0790
  837SOL    HW1 2510   2.382   1.667   2.216 -0.8542  0.4424  1.0328
  837SOL    HW2 2511   2.411   1.820   2.281  2.6213 -0.9438  3.1324
  838SOL     OW 2512   0.191   1.472   1.639 -0.0545  0.2839  0.1168
  838SOL    HW1 2513   0.232   1.444   1.551  1.4781 -0.4744  1.2835
  838SOL    HW2 2514   0.196   1.575   1.653  0.9013  1.1107 -0.8172
  839SOL     OW 2515   3.095   0.283   0.451  0.6293 -0.5908  0.1920
  839SOL    HW1 2516   0.046   0.362   0.445 -2.0420 -0.7839 -1.9787
  839SOL    HW2 2517   0.048   0.202   0.465  2.9265  0.7610 -1.2465
  840SOL     OW 2518   0.013   0.677   2.555 -0.2777  0.0243 -0.1935
  840SOL    HW1 2519   0.003   0.779   2.574 -2.7083  0.1524  0.5111
  840SOL    HW2 2520   0.031   0.621   2.639  1.8559  1.4757 -0.4222
  841SOL     OW 2521   0.425   2.221   2.634 -0.1767 -0.4128  0.7120
  841SOL    HW1 2522   0.461   2.125   2.654  0.3825 -0.6373 -2.3380
  841SOL    HW2 2523   0.459   2.290   2.701 -0.2592  3.7228  1.3644
  842SOL     OW 2524   0.726   0.059   0.944  0.6807  0.4328  0.4728
  842SOL    HW1 2525   0.749   3.081   1.005  0.0297 -2.8690  2.2342
  842SOL    HW2 2526   0.644   0.043   0.885  1.9552  0.1091 -0.9843
  843SOL     OW 2527   0.487   1.510   2.885  0.2903 -0.3264  0.2305
  843SOL    HW1 2528   0.580   1.549   2.865  2.1119 -0.6211 -1.4553
  843SOL    HW2 2529   0.459   1.441   2.814 -0.6519  2.9805 -0.7689
  844SOL     OW 2530   1.024   1.890   2.484 -0.2440 -0.1974  0.0076
  844SOL    HW1 2531   0.974   1.959   2.428  0.2671 -1.0360  0.1383
  844SOL    HW2 2532   1.123   1.893   2.463  0.0169  0.7733  1.6941
  845SOL     OW 2533   2.490   2.700   2.658 -0.2611 -0.1176 -0.5206
  845SOL    HW1 2534   2.537   2.778   2.616 -1.9472 -1.2227  0.1388
  845SOL    HW2 2535   2.426   2.647   2.600  0.1172 -0.3636 -1.0112
  846SOL     OW 2536   2.130   1.503   3.089 -0.7906 -0.3648 -0.7131
  846SOL    HW1 2537   2.130   1.597   3.044 -1.0218 -2.2828  2.2084
  846SOL    HW2 2538   2.162   1.509   0.078 -0.7568  0.1573  0.1114
  847SOL     OW 2539   2.585   0.154   2.744 -0.3697 -0.1673  0.1873
  847SOL    HW1 2540   2.652   0.223   2.775 -0.4252  1.2120 -0.9685
  847SOL    HW2 2541   2.493   0.203   2.726 -1.6658 -0.4960 -0.7062
  848SOL     OW 2542   3.046   0.900   0.018 -0.4802  0.0808  0.3102
  848SOL    HW1 2543   3.041   0.849   3.033 -1.3199 -0.4137 -1.1434
  848SOL    HW2 2544   0.004   0.839   0.074 -0.9960  0.1912  1.8745
  849SOL     OW 2545   1.505   0.396   2.245  0.7216  0.0281 -0.3756
  849SOL    HW1 2546   1.457   0.324   2.297 -0.6495 -2.1462 -1.1020
  849SOL    HW2 2547   1.437   0.441   2.179 -2.9144  0.0678  0.4164
  850SOL     OW 2548   0.118   1.058   0.539  0.2955  0.2267  0.4375
  850SOL    HW1 2549   0.112   1.042   0.439 -1.2254 -0.4733 -0.0359
  850SOL    HW2 2550   0.044   0.999   0.583 -1.1725  0.7751 -2.6064
  851SOL     OW 2551   0.244   1.289   0.573  0.0410 -0.1529 -0.2508
  851SOL    HW1 2552   0.228   1.371   0.516 -1.3021  0.2465 -1.1846
  851SOL    HW2 2553   0.180   1.213   0.547  1.9226  2.2896 -0.9743
  852SOL     OW 2554   1.201   1.118   1.670  0.1918  0.3436  0.1870
  852SOL    HW1 2555   1.098   1.108   1.664 -1.8652 -1.7845  0.7409
  852SOL    HW2 2556   1.238   1.031   1.635  0.8925  3.0482 -0.8964
  853SOL     OW 2557   2.389   1.370   0.115  0.3478  0.0881  0.6659
  853SOL    HW1 2558   2.448   1.301   0.164  1.4362 -1.3945 -0.8809
  853SOL    HW2 2559   2.339   1.422   0.186 -1.8531 -0.5889 -0.6472
  854SOL     OW 2560   1.719   1.100   1.987  0.0137  0.3597  0.2594
  854SOL    HW1 2561   1.698   1.120   2.082 -3.1264 -1.4160 -0.3305
  854SOL    HW2 2562   1.735   1.193   1.947  1.3365  2.4834 -0.3035
  855SOL     OW 2563   0.336   2.158   2.380 -0.0528 -0.5468  0.0974
  855SOL    HW1 2564   0.268   2.229   2.353 -0.7403  0.1555 -2.4521
  855SOL    HW2 2565   0.392   2.183   2.462 -3.9346  2.9637 -0.2313
  856SOL     OW 2566   1.027   0.896   1.958 -0.1985  0.3547 -0.5121
  856SOL    HW1 2567   1.034   0.998   1.944 -0.3864  4.3060  0.7664
  856SOL    HW2 2568   1.119   0.867   1.992  0.0570 -0.2515  1.5124
  857SOL     OW 2569   1.156   1.146   2.436 -0.4626  0.4202 -0.2460
  857SOL    HW1 2570   1.083   1.082   2.461  1.5215 -3.0129 -3.8239
  857SOL    HW2 2571   1.156   1.153   2.337  0.0103 -1.5305  0.2920
  858SOL     OW 2572   2.963   1.130   1.793  0.0218 -0.0343 -0.0903
  858SOL    HW1 2573   3.006   1.207   1.737  2.3662  3.8039 -1.5518
  858SOL    HW2 2574   2.971   1.043   1.742  0.8746  3.2840  0.2128
  859SOL     OW 2575   2.648   3.018   0.843  0.2577 -0.2005 -0.3229
  859SOL    HW1 2576   2.588   2.979   0.773  1.7033 -0.6838  0.8743
  859SOL    HW2 2577   2.651   2.962   0.933 -1.5014 -0.2101  4.6185
  860SOL     OW 2578   1.574   0.343   1.321 -0.0339  0.3998  0.2370
  860SOL    HW1 2579   1.564   0.422   1.387  1.1683 -0.0349 -0.2511
  860SOL    HW2 2580   1.641   0.276   1.358  0.5222 -0.5954  1.2725
  861SOL     OW 2581   1.697   0.736   1.245  0.2687  0.6086  0.4232
  861SOL    HW1 2582   1.711   0.824   1.291 -2.6352  1.2419 -0.5733
  861SOL    HW2 2583   1.595   0.720   1.222 -3.4414  0.6241 -0.1889
  862SOL     OW 2584   1.182   2.942   2.457 -0.0798  0.0543 -0.6767
  862SOL    HW1 2585   1.172   2.868   2.392  0.3466  3.2046  2.4250
  862SOL    HW2 2586   1.281   2.959   2.473  0.1905 -1.0294  1.4036
  863SOL     OW 2587   2.747   3.079   1.275 -0.4755  0.7743 -0.5555
  863SOL    HW1 2588   2.681   0.022   1.333  2.7353 -2.4424 -3.3988
  863SOL    HW2 2589   2.814   0.040   1.241 -2.4261 -1.6558  0.8336
  864SOL     OW 2590   2.682   2.993   1.917  0.0319  0.3184  0.0073
  864SOL    HW1 2591   2.748   2.969   1.990 -0.7404 -1.0820 -3.7014
  864SOL    HW2 2592   2.582   2.980   1.951 -3.0878 -1.0318  0.0444
  865SOL     OW 2593   1.200   1.171   2.715 -0.5519  0.0249  0.2851
  865SOL    HW1 2594   1.191   1.090   2.783 -0.2796  1.2172  0.9223
  865SOL    HW2 2595   1.178   1.141   2.621  0.5560 -0.1353  2.4540
  866SOL     OW 2596   2.367   3.049   1.064  0.3853  0.4810 -0.1411
  866SOL    HW1 2597   2.321   2.972   1.015  0.6129 -0.5703  0.0184
  866SOL    HW2 2598   2.464   3.036   1.075 -3.5171  0.2627 -3.0058
  867SOL     OW 2599   2.994   2.637   0.997 -0.1611  0.3241 -0.1546
  867SOL    HW1 2600   2.983   2.713   1.067  1.3067  0.8655  0.0078
  867SOL    HW2 2601   3.081   2.587   1.013  1.5442 -2.9125 -1.3405
  868SOL     OW 2602   3.042   1.904   1.467  0.1964 -0.0238 -0.0149
  868SOL    HW1 2603   3.058   1.832   1.399 -0.7787  1.3847  1.1661
  868SOL    HW2 2604   3.017   1.866   1.561 -2.8449 -0.9881  1.6189
  869SOL     OW 2605   2.131   1.889   2.462  0.0186  0.1104 -0.2858
  869SOL    HW1 2606   2.079   1.968   2.511 -0.9372 -1.9980  0.9331
  869SOL    HW2 2607   2.231   1.891   2.483  1.4538  2.3137  0.9779
  870SOL     OW 2608   1.247   0.801   0.555 -0.1000  0.3095 -0.2403
  870SOL    HW1 2609   1.218   0.878   0.618  1.5492 -1.6834 -1.3509
  870SOL    HW2 2610   1.280   0.716   0.600  1.7829  0.9882 -0.3561
  871SOL     OW 2611   2.695   1.664   1.949 -0.1184 -0.1143 -0.3199
  871SOL    HW1 2612   2.651   1.753   1.923  0.6557 -0.1223  1.7335
  871SOL    HW2 2613   2.682   1.655   2.049  0.3334 -0.2440  0.5111
  872SOL     OW 2614   0.958   1.550   2.924 -0.1376  0.0673 -0.0757
  872SOL    HW1 2615   1.060   1.570   2.944  2.4617 -1.2140  1.6725
  872SOL    HW2 2616   0.916   1.488   2.996  0.1751 -0.3165  3.0318
  873SOL     OW 2617   0.861   1.411   1.886  0.0486  0.6616  0.0074
  873SOL    HW1 2618   0.793   1.482   1.911  1.0949 -0.0301 -4.1538
  873SOL    HW2 2619   0.907   1.428   1.797  2.3490 -1.0837 -3.3060
  874SOL     OW 2620   1.460   1.060   1.405 -0.0008 -0.1455  0.0861
  874SOL    HW1 2621   1.478   1.151   1.368  1.7726  0.0705  0.5961
  874SOL    HW2 2622   1.405   1.001   1.337 -0.5340 -4.0357 -4.5397
  875SOL     OW 2623   2.819   3.102   2.632 -0.9229  0.0088  0.2283
  875SOL    HW1 2624   2.741   0.057   2.632  2.6623 -1.3982 -0.2185
  875SOL    HW2 2625   2.882   0.014   2.554 -1.0221  1.9048  1.7736
  876SOL     OW 2626   1.134   1.429   0.520 -0.6847 -0.2657 -0.2589
  876SOL    HW1 2627   1.046   1.428   0.473  2.2131 -1.7119 -2.8499
  876SOL    HW2 2628   1.187   1.345   0.496  1.5235  0.3850 -1.0721
  877SOL     OW 2629   2.056   2.975   0.464  0.4758  0.1305  0.0646
  877SOL    HW1 2630   2.075   3.038   0.544  0.2069  0.6577  1.2830
  877SOL    HW2 2631   2.121   2.898   0.460 -2.1182  0.5216  1.1414
  878SOL     OW 2632   1.864   2.252   0.159 -0.3243 -0.0343 -0.3605
  878SOL    HW1 2633   1.950   2.237   0.216  1.5591 -2.3553  2.0500
  878SOL    HW2 2634   1.782   2.219   0.210  0.2727  2.0922  1.6530
  879SOL     OW 2635   3.068   1.812   1.752  0.7264  0.3863 -0.1087
  879SOL    HW1 2636   3.022   1.749   1.820 -0.0900 -1.8435  0.9036
  879SOL    HW2 2637   3.054   1.905   1.789 -0.8394 -1.2563 -1.5694
  880SOL     OW 2638   0.083   1.980   0.931 -0.3457 -0.5091 -0.3533
  880SOL    HW1 2639   0.054   2.077   0.925 -0.6887 -0.5657  1.0942
  880SOL    HW2 2640   0.054   1.924   0.854 -2.1645  2.0932 -0.2916
  881SOL     OW 2641   1.169   0.153   2.283  0.1435  0.0036  0.2265
  881SOL    HW1 2642   1.141   0.099   2.366  1.4674 -0.3057  0.6007
  881SOL    HW2 2643   1.110   0.233   2.259  1.8116 -2.3172 -3.4509
  882SOL     OW 2644   2.649   1.046   1.003  0.1304 -0.0491 -0.2265
  882SOL    HW1 2645   2.735   0.999   1.030 -0.5372  0.3780  0.0441
  882SOL    HW2 2646   2.568   1.010   1.058 -2.0674 -1.4593  2.0793
  883SOL     OW 2647   1.492   0.393   1.921  0.4703  0.0353 -0.9870
  883SOL    HW1 2648   1.434   0.474   1.938  1.7756  2.3007 -1.9948
  883SOL    HW2 2649   1.585   0.426   1.893  1.9015  2.7757 -0.2449
  884SOL     OW 2650   2.976   0.190   1.704 -0.3107  0.0268  0.1304
  884SOL    HW1 2651   3.047   0.149   1.638  0.8043  0.2120 -1.6193
  884SOL    HW2 2652   3.021   0.275   1.747  0.2645  0.7173  0.3838
  885SOL     OW 2653   2.135   1.197   2.668 -0.3345  0.2475  0.3963
  885SOL    HW1 2654   2.147   1.292   2.703  1.6566  0.7959  0.6499
  885SOL    HW2 2655   2.043   1.166   2.692 -1.4748  1.3003 -1.8681
  886SOL     OW 2656   2.160   0.364   3.029  0.4794  0.0070 -0.2843
  886SOL    HW1 2657   2.245   0.342   3.082  3.3419 -1.1933 -0.8075
  886SOL    HW2 2658   2.157   0.456   2.987  0.0177 -0.8747 -0.0270
  887SOL     OW 2659   1.115   2.736   1.736  0.6312  0.5283 -0.7335
  887SOL    HW1 2660   1.167   2.703   1.820  1.8589 -1.0999 -0.5578
  887SOL    HW2 2661   1.179   2.740   1.659  1.5756  0.6303  1.3183
  888SOL     OW 2662   2.251   1.750   1.979  0.0133 -0.9118 -0.2381
  888SOL    HW1 2663   2.303   1.767   2.065 -0.7427 -0.8740 -0.2439
  888SOL    HW2 2664   2.308   1.775   1.898  0.8945  0.5102  0.5242
  889SOL     OW 2665   1.858   2.255   1.293 -0.1210  0.2298 -0.9740
  889SOL    HW1 2666   1.938   2.316   1.271  0.4521  0.3604 -2.3289
  889SOL    HW2 2667   1.850   2.188   1.214  0.9845  0.2360 -3.5216
  890SOL     OW 2668   1.189   2.053   0.920 -0.0703 -0.4007  0.1064
  890SOL    HW1 2669   1.122   2.112   0.971 -2.5011  0.0258  4.3764
  890SOL    HW2 2670   1.138   1.975   0.886  1.8711 -0.6006 -1.6651
  891SOL     OW 2671   3.045   1.312   0.230 -0.5016 -0.1647 -0.2913
  891SOL    HW1 2672   3.022   1.210   0.229 -3.8976 -1.8705  1.4085
  891SOL    HW2 2673   2.978   1.362   0.295 -0.5421  0.9946 -1.0026
  892SOL     OW 2674   2.402   1.343   2.959 -0.2327  0.3424  0.0799
  892SOL    HW1 2675   2.473   1.268   2.947  0.9614 -0.8329 -1.4564
  892SOL    HW2 2676   2.393   1.364   3.058  0.7024 -1.5546 -2.0258
  893SOL     OW 2677   2.304   2.476   1.356 -0.0507  0.4781 -0.2273
  893SOL    HW1 2678   2.313   2.575   1.376  1.7874  0.9067 -2.0982
  893SOL    HW2 2679   2.294   2.424   1.443  1.4921  1.6741  1.0296
  894SOL     OW 2680   2.572   0.172   0.798 -0.2289  0.1731 -0.0479
  894SOL    HW1 2681   2.492   0.174   0.735 -1.5964  2.3562 -0.0305
  894SOL    HW2 2682   2.593   0.083   0.838  0.0528  0.4474 -2.5702
  895SOL     OW 2683   2.782   2.520   2.590 -0.1387 -0.0331 -0.1627
  895SOL    HW1 2684   2.792   2.606   2.529  3.6403  1.1922  0.2217
  895SOL    HW2 2685   2.864   2.461   2.576  0.8462 -2.1366  1.0222
  896SOL     OW 2686   2.212   0.073   2.590  0.2298  0.1249  0.0856
  896SOL    HW1 2687   2.163   0.146   2.533  0.0676 -0.7942 -0.1593
  896SOL    HW2 2688   2.248   0.116   2.675  1.1413 -1.3130  1.4690
  897SOL     OW 2689   0.154   1.506   2.049 -0.6671 -0.2856  0.1923
  897SOL    HW1 2690   0.195   1.442   1.982  3.0268  2.4847  0.6307
  897SOL    HW2 2691   0.185   1.477   2.138 -0.0736  0.1593  0.2482
  898SOL     OW 2692   2.793   1.789   1.671 -0.2588  0.0788  0.3618
  898SOL    HW1 2693   2.761   1.835   1.756 -0.5940 -0.1279  0.6638
  898SOL    HW2 2694   2.720   1.766   1.601 -0.2533  0.9593 -2.0002
  899SOL     OW 2695   1.746   3.053   1.565 -0.4170  0.4280  0.1115
  899SOL    HW1 2696   1.742   3.075   1.663  0.0474 -0.3969  0.0058
  899SOL    HW2 2697   1.796   2.966   1.551 -3.3532  0.6138 -0.4775
  900SOL     OW 2698   1.311   0.945   0.166  0.0999 -0.5206  0.3428
  900SOL    HW1 2699   1.313   0.860   0.106 -1.8534  1.3214 -2.9137
  900SOL    HW2 2700   1.352   0.919   0.258  1.7477  1.9117  2.4103
  901SOL     OW 2701   1.197   0.946   2.858 -0.6943  0.2149 -0.4497
  901SOL    HW1 2702   1.260   0.886   2.912 -1.7935  3.6546 -0.5238
  901SOL    HW2 2703   1.173   0.901   2.768 -4.2070 -1.1294 -1.9286
  902SOL     OW 2704   2.730   2.583   0.625 -0.6295  0.2088  0.1479
  902SOL    HW1 2705   2.816   2.635   0.619 -0.4770 -1.2968 -0.9080
  902SOL    HW2 2706   2.736   2.513   0.700  0.4213  0.4726  1.0217
  903SOL     OW 2707   3.035   1.368   1.959  0.1089  0.0277 -0.1318
  903SOL    HW1 2708   0.019   1.416   1.956  3.4727 -1.0939  1.1224
  903SOL    HW2 2709   3.039   1.276   1.923  1.2788  1.1523 -0.0525
  904SOL     OW 2710   1.784   1.109   0.808  0.8581 -0.8709 -0.2680
  904SOL    HW1 2711   1.717   1.096   0.880  0.2978 -3.1864 -0.6500
  904SOL    HW2 2712   1.867   1.058   0.840 -1.3736 -0.6640  0.1355
  905SOL     OW 2713   2.318   2.759   1.376  0.1540 -0.5465  0.0401
  905SOL    HW1 2714   2.255   2.795   1.452 -3.3145  1.5769  0.4036
  905SOL    HW2 2715   2.411   2.738   1.411 -1.1023  0.6042  0.3477
  906SOL     OW 2716   1.430   2.407   3.004 -0.4362  0.3266  0.2151
  906SOL    HW1 2717   1.452   2.444   3.098 -0.8183 -0.2328 -0.0978
  906SOL    HW2 2718   1.507   2.420   2.941  1.0535  1.4056 -1.0078
  907SOL     OW 2719   0.638   2.804   0.755 -0.8083 -0.0530  0.0216
  907SOL    HW1 2720   0.667   2.766   0.846 -0.2828 -0.3242  1.2246
  907SOL    HW2 2721   0.553   2.861   0.777  4.1892 -1.2534 -1.0568
  908SOL     OW 2722   0.644   0.137   2.048 -0.1320  0.2144  0.1787
  908SOL    HW1 2723   0.726   0.146   2.102 -0.8039  2.5090  0.5688
  908SOL    HW2 2724   0.667   0.131   1.948  1.9246 -1.3394  0.1106
  909SOL     OW 2725   2.158   0.742   1.669  0.5539 -0.6967  0.4930
  909SOL    HW1 2726   2.079   0.689   1.637  0.8296  1.5621  2.2010
  909SOL    HW2 2727   2.135   0.837   1.653  0.0765 -2.3028  3.5603
  910SOL     OW 2728   1.351   0.601   0.085  0.1105 -0.2244  0.1112
  910SOL    HW1 2729   1.271   0.543   0.087  2.3677  1.9259 -2.5339
  910SOL    HW2 2730   1.435   0.547   0.112 -0.4499 -0.9494 -1.5608
  911SOL     OW 2731   0.107   0.377   3.034 -0.0287  0.6176 -0.3226
  911SOL    HW1 2732   0.014   0.353   3.065  1.0483 -2.7902 -0.1009
  911SOL    HW2 2733   0.167   0.292   3.024  0.9566 -2.5524 -2.4884
  912SOL     OW 2734   2.938   2.308   0.060  0.0111 -0.6042 -0.4428
  912SOL    HW1 2735   2.916   2.377   0.135  2.1792  2.9255 -3.3353
  912SOL    HW2 2736   2.855   2.283   0.001 -2.4843  0.1620  1.3437
  913SOL     OW 2737   2.561   2.412   3.041  0.8935  0.9552  0.1139
  913SOL    HW1 2738   2.648   2.361   3.023 -2.4682  0.6725 -1.6680
  913SOL    HW2 2739   2.551   2.491   2.981 -0.7212  0.9335  0.9170
  914SOL     OW 2740   1.860   1.766   1.810  0.3433 -0.1001  0.3702
  914SOL    HW1 2741   1.812   1.848   1.850  1.9678 -0.1342 -1.0140
  914SOL    HW2 2742   1.943   1.743   1.865 -1.2050  0.6682 -1.5056
  915SOL     OW 2743   0.055   2.410   2.182 -0.6222 -0.1288 -0.3061
  915SOL    HW1 2744   0.115   2.457   2.253  3.6119  0.6372 -0.2070
  915SOL    HW2 2745   0.112   2.358   2.121 -1.1073  1.8257  2.8596
  916SOL     OW 2746   3.076   1.331   1.648  0.6513  0.7541  0.5114
  916SOL    HW1 2747   0.048   1.392   1.647 -2.3611  0.9122  0.6335
  916SOL    HW2 2748   2.993   1.374   1.605 -0.8445  1.3661  1.1937
  917SOL     OW 2749   2.117   0.069   3.020  0.0172  0.5813 -0.1283
  917SOL    HW1 2750   2.100   0.037   2.923  2.0015 -1.4086 -1.8254
  917SOL    HW2 2751   2.114   0.170   3.025  0.7097  0.2273  0.3932
  918SOL     OW 2752   1.725   2.534   2.201 -0.0355  0.0996  0.1316
  918SOL    HW1 2753   1.772   2.512   2.112  0.7585 -1.2486 -2.0857
  918SOL    HW2 2754   1.708   2.634   2.208 -1.6757 -0.8714  1.8128
  919SOL     OW 2755   1.772   2.251   1.788 -0.0236  0.0933  0.0855
  919SOL    HW1 2756   1.807   2.244   1.689 -0.6742 -0.2068 -1.4804
  919SOL    HW2 2757   1.795   2.161   1.834 -1.4750 -0.5111  2.3949
  920SOL     OW 2758   0.519   0.904   0.107 -0.4003  0.0947 -0.3221
  920SOL    HW1 2759   0.605   0.958   0.112 -0.6754 -0.1427  1.7314
  920SOL    HW2 2760   0.525   0.825   0.039 -0.7088  1.1352 -0.8583
  921SOL     OW 2761   3.042   1.145   2.835  0.3487 -0.2498  0.3641
  921SOL    HW1 2762   2.973   1.148   2.908  1.0699  0.2063 -1.9598
  921SOL    HW2 2763   3.006   1.138   2.737  0.0523  1.3944 -1.4995
  922SOL     OW 2764   0.317   2.105   0.225  0.1831  0.0756  0.0801
  922SOL    HW1 2765   0.266   2.106   0.138  1.3123  0.7073 -0.9458
  922SOL    HW2 2766   0.354   2.014   0.249 -0.6646 -1.3017 -1.9063
  923SOL     OW 2767   0.511   0.920   2.101 -0.1854  0.6305  0.5804
  923SOL    HW1 2768   0.414   0.894   2.110 -0.8686  0.5527  2.3378
  923SOL    HW2 2769   0.571   0.835   2.105 -0.6611 -0.3323 -1.0650
  924SOL     OW 2770   1.046   2.894   2.689  0.1424 -0.2303  0.0550
  924SOL    HW1 2771   1.103   2.924   2.612  0.6557 -3.5712  2.8984
  924SOL    HW2 2772   1.059   2.948   2.774  0.6491 -0.0487 -0.4693
  925SOL     OW 2773   1.949   1.305   1.064  0.6766 -0.4793  0.0576
  925SOL    HW1 2774   1.915   1.291   0.967  2.1543 -2.0230  1.8092
  925SOL    HW2 2775   2.053   1.321   1.057  3.0996 -1.5861 -2.1279
  926SOL     OW 2776   1.865   0.716   1.941  0.0309  0.4757  0.6562
  926SOL    HW1 2777   1.869   0.617   1.935  0.9015  1.2460 -3.6968
  926SOL    HW2 2778   1.773   0.745   1.916  3.0496 -3.7015  1.8571
  927SOL     OW 2779   2.938   2.488   1.827  0.1217  0.2026 -0.0272
  927SOL    HW1 2780   2.978   2.560   1.772 -4.0500 -4.4208  2.4775
  927SOL    HW2 2781   2.932   2.509   1.927 -0.3449 -0.2268  2.2861
  928SOL     OW 2782   0.431   0.870   2.698 -0.3084  0.3888 -0.2078
  928SOL    HW1 2783   0.436   0.958   2.746  0.9112  1.6739  1.8604
  928SOL    HW2 2784   0.502   0.852   2.627 -1.0702  0.2186 -1.5907
  929SOL     OW 2785   2.967   3.025   0.886 -0.2367 -0.2564  0.0199
  929SOL    HW1 2786   2.879   3.077   0.876 -2.7492  0.7755  0.4260
  929SOL    HW2 2787   3.012   3.008   0.795 -1.0736 -2.3158 -2.9813
  930SOL     OW 2788   2.339   0.302   1.365 -0.7521 -0.5879 -0.2240
  930SOL    HW1 2789   2.306   0.313   1.460 -1.1953  0.9102  1.3464
  930SOL    HW2 2790   2.443   0.306   1.364 -3.0024 -0.4501  0.7768
  931SOL     OW 2791   2.577   1.153   2.989  0.2302  0.6800  0.8358
  931SOL    HW1 2792   2.523   1.080   2.941  2.7324 -0.8944 -2.7868
  931SOL    HW2 2793   2.564   1.158   3.088  0.8105 -1.1547  0.5392
  932SOL     OW 2794   2.361   1.578   1.628  0.5044 -0.3370  0.3824
  932SOL    HW1 2795   2.414   1.570   1.540  2.7252 -3.7207  1.6234
  932SOL    HW2 2796   2.263   1.600   1.611  0.9475 -4.0248  0.3142
  933SOL     OW 2797   3.088   2.573   1.498  0.3156 -0.1823  0.4748
  933SOL    HW1 2798   0.054   2.545   1.434 -0.3334  0.6425 -2.6681
  933SOL    HW2 2799   3.003   2.519   1.481  0.5900 -0.6553 -2.5492
  934SOL     OW 2800   0.782   2.476   1.253 -0.3260  1.2864  0.3732
  934SOL    HW1 2801   0.798   2.435   1.158  1.4421  1.9374  0.3498
  934SOL    HW2 2802   0.866   2.517   1.292 -0.3137 -0.2380  0.9292
  935SOL     OW 2803   2.393   1.495   2.238  0.1230  0.3164 -0.0335
  935SOL    HW1 2804   2.333   1.480   2.320 -1.5429 -1.1244  4.0210
  935SOL    HW2 2805   2.372   1.431   2.163  3.0199  0.7084  2.9953
  936SOL     OW 2806   2.374   1.435   1.874  0.0388 -0.6559 -0.1831
  936SOL    HW1 2807   2.395   1.506   1.800  0.4987 -1.4210  0.9230
  936SOL    HW2 2808   2.457   1.380   1.908  0.7137 -1.4332 -0.9881
  937SOL     OW 2809   2.211   1.051   2.026 -0.4038  0.7219  0.3232
  937SOL    HW1 2810   2.113   1.023   2.019  0.6557 -1.8916 -0.0241
  937SOL    HW2 2811   2.266   0.980   2.077 -1.8194  0.5991 -0.2830
  938SOL     OW 2812   0.739   2.284   2.946 -0.0778  0.4343  0.0400
  938SOL    HW1 2813   0.739   2.323   3.040 -2.3129  0.9823  0.7348
  938SOL    HW2 2814   0.782   2.354   2.888 -2.1501 -0.8117  2.9977
  939SOL     OW 2815   2.671   0.820   2.968  0.4267  0.1492  0.4760
  939SOL    HW1 2816   2.702   0.764   2.889  0.2924  3.7659 -1.4071
  939SOL    HW2 2817   2.580   0.861   2.941 -1.5583 -0.8216 -3.2611
  940SOL     OW 2818   0.955   1.777   1.123 -0.5300  0.2197  0.0185
  940SOL    HW1 2819   0.923   1.689   1.162  0.2733 -1.4899  2.4230
  940SOL    HW2 2820   1.025   1.817   1.184  0.8960  1.2105 -1.5890
  941SOL     OW 2821   0.694   2.008   2.080  0.2500 -0.3622 -0.5527
  941SOL    HW1 2822   0.746   1.924   2.108 -1.5957 -0.6809 -0.7894
  941SOL    HW2 2823   0.729   2.050   1.994  0.2518  0.3858  0.9617
  942SOL     OW 2824   0.276   1.906   2.908  0.1773 -0.4141  0.0433
  942SOL    HW1 2825   0.208   1.943   2.845  0.1016 -1.1582 -1.2869
  942SOL    HW2 2826   0.305   1.808   2.894 -1.3884  1.4912  1.7228
  943SOL     OW 2827   1.699   2.675   1.673 -0.5772  0.3910  0.1652
  943SOL    HW1 2828   1.713   2.586   1.724  0.2535 -0.8827 -0.0082
  943SOL    HW2 2829   1.775   2.692   1.607  2.4036 -0.7741 -2.4033
  944SOL     OW 2830   1.041   1.634   0.173 -0.3414  0.0944 -0.1169
  944SOL    HW1 2831   1.094   1.697   0.107  1.4589  0.4972 -1.2198
  944SOL    HW2 2832   1.074   1.538   0.166 -1.5942 -2.2464  2.1035
  945SOL     OW 2833   2.509   2.753   0.724  0.6081 -0.1882 -0.0296
  945SOL    HW1 2834   2.591   2.722   0.678 -0.4775  3.7462  1.8794
  945SOL    HW2 2835   2.477   2.830   0.667  2.7773  2.6747  0.5872
  946SOL     OW 2836   0.978   1.328   2.782  0.6841  0.7739  0.4365
  946SOL    HW1 2837   1.074   1.294   2.764 -0.1600  0.1980  0.8538
  946SOL    HW2 2838   0.976   1.419   2.832 -1.5481  1.6881  1.7371
  947SOL     OW 2839   2.745   0.688   1.934  0.0940  0.0145 -0.0395
  947SOL    HW1 2840   2.673   0.741   1.881 -0.2487  2.5982  0.0268
  947SOL    HW2 2841   2.820   0.675   1.871 -3.7904  0.6042  1.7032
  948SOL     OW 2842   0.222   1.539   0.793  0.4451  0.6220  0.3292
  948SOL    HW1 2843   0.323   1.519   0.764  0.2937  0.4353 -0.8498
  948SOL    HW2 2844   0.224   1.553   0.894 -1.4072  0.8317 -2.1102
  949SOL     OW 2845   0.809   0.611   2.460  0.0646 -0.2263 -0.2245
  949SOL    HW1 2846   0.734   0.556   2.413 -1.0909 -0.9544  1.0714
  949SOL    HW2 2847   0.897   0.562   2.475  1.2107  0.2930  2.0368
  950SOL     OW 2848   0.117   0.656   1.350 -0.7330 -0.3817  0.4603
  950SOL    HW1 2849   0.178   0.739   1.357  0.7367 -1.5477 -1.8143
  950SOL    HW2 2850   0.142   0.580   1.411 -0.4221  2.0863 -0.0683
  951SOL     OW 2851   0.807   1.260   2.573  0.4450 -0.0179  0.0974
  951SOL    HW1 2852   0.856   1.279   2.662 -0.3010  1.1801  0.1468
  951SOL    HW2 2853   0.843   1.313   2.496  3.0423  3.0685  0.1386
  952SOL     OW 2854   1.958   2.193   0.837 -0.4372  0.1290  0.1048
  952SOL    HW1 2855   1.940   2.125   0.765  0.0466  0.7079  0.9662
  952SOL    HW2 2856   2.007   2.276   0.802  1.4991  1.1239  0.4669
  953SOL     OW 2857   0.918   0.696   0.033  0.2210  0.2740  0.1094
  953SOL    HW1 2858   0.913   0.800   0.033  2.0610  2.3064 -0.4261
  953SOL    HW2 2859   0.824   0.656   0.042 -1.4485  0.5947 -0.5639
  954SOL     OW 2860   2.178   0.755   1.322  0.5412  0.2623 -0.5625
  954SOL    HW1 2861   2.214   0.675   1.378 -0.2436 -1.5883 -0.7461
  954SOL    HW2 2862   2.158   0.726   1.227  1.9207 -0.8597  0.7156
  955SOL     OW 2863   2.038   1.165   0.418  0.1949  0.1378 -0.2447
  955SOL    HW1 2864   2.104   1.142   0.348 -0.7398  1.5549 -1.6765
  955SOL    HW2 2865   1.947   1.188   0.374 -2.1244 -1.7186  0.3948
  956SOL     OW 2866   0.958   0.485   1.805 -0.2321  0.5780  0.2878
  956SOL    HW1 2867   0.957   0.386   1.781  1.6084 -1.2776  2.2859
  956SOL    HW2 2868   1.054   0.511   1.824 -3.5509  1.6955  0.7791
  957SOL     OW 2869   1.368   0.314   1.597 -1.1050 -0.2725  0.0268
  957SOL    HW1 2870   1.439   0.390   1.607 -0.0974  2.1649  1.3657
  957SOL    HW2 2871   1.326   0.334   1.506 -1.1076 -1.4717 -0.7918
  958SOL     OW 2872   0.209   2.206   0.464  0.5090  0.4995 -0.1296
  958SOL    HW1 2873   0.267   2.161   0.391 -1.1789 -1.3925 -1.1785
  958SOL    HW2 2874   0.233   2.153   0.549 -2.7719  0.7761  1.0382
  959SOL     OW 2875   2.364   0.991   1.762 -0.4713  0.4718 -0.5401
  959SOL    HW1 2876   2.314   0.974   1.850  0.7402  2.1692 -0.0321
  959SOL    HW2 2877   2.351   1.083   1.730 -0.9611 -0.2499  0.8178
  960SOL     OW 2878   2.952   1.946   2.867 -0.1840 -0.3741 -0.1460
  960SOL    HW1 2879   2.993   2.037   2.894  0.0677  1.1268 -0.9218
  960SOL    HW2 2880   2.996   1.866   2.910 -0.7197  1.2312 -0.9485
  961SOL     OW 2881   0.481   1.880   1.478  0.0553  0.7193 -0.4762
  961SOL    HW1 2882   0.578   1.893   1.461 -0.9612  0.8254  2.6813
  961SOL    HW2 2883   0.455   1.913   1.570  4.2938 -0.9792 -1.6692
  962SOL     OW 2884   0.759   1.292   0.808 -0.3817  0.2470  0.2688
  962SOL    HW1 2885   0.727   1.357   0.736 -1.2037  1.2848  1.4883
  962SOL    HW2 2886   0.833   1.334   0.859  0.1019  1.9749  0.8331
  963SOL     OW 2887   1.320   1.886   2.426 -0.2452  0.4704  0.0818
  963SOL    HW1 2888   1.337   1.798   2.380 -1.0960  1.3958 -0.0862
  963SOL    HW2 2889   1.333   1.964   2.358  1.5184 -1.4048  0.9989
  964SOL     OW 2890   0.152   2.862   2.034 -0.6055 -0.3636 -0.4915
  964SOL    HW1 2891   0.088   2.781   2.022 -0.6116  1.2050  0.7727
  964SOL    HW2 2892   0.182   2.870   2.130  0.4933  0.5073  0.2177
  965SOL     OW 2893   0.364   1.781   2.606  0.2708 -0.6628 -0.2355
  965SOL    HW1 2894   0.346   1.741   2.698  0.3637  0.2382 -0.4030
  965SOL    HW2 2895   0.273   1.779   2.555 -0.3479  0.3044 -2.4836
  966SOL     OW 2896   3.070   1.767   3.015  0.5910  0.0280  0.4622
  966SOL    HW1 2897   3.071   1.665   3.026  0.7902 -2.4747 -0.1619
  966SOL    HW2 2898   0.043   1.813   3.056 -0.4861 -0.0417 -2.0788
  967SOL     OW 2899   2.111   0.006   0.201  0.3647  1.0642 -0.2110
  967SOL    HW1 2900   2.094   3.015   0.228 -0.9456 -0.1418  1.8430
  967SOL    HW2 2901   2.091   0.022   0.100 -1.2291 -0.6489  0.8890
  968SOL     OW 2902   2.335   0.010   0.677 -0.6717  0.0625  0.5089
  968SOL    HW1 2903   2.399   3.085   0.604  4.4995 -0.8020 -0.4286
  968SOL    HW2 2904   2.261   0.069   0.640 -1.0813  1.5744  0.4471
  969SOL     OW 2905   0.206   1.317   1.875  0.3805  0.0037 -0.2448
  969SOL    HW1 2906   0.201   1.378   1.790 -0.1434  1.3207 -1.6795
  969SOL    HW2 2907   0.230   1.225   1.845 -0.3039 -0.3161 -1.5297
  970SOL     OW 2908   1.654   1.859   0.057  0.6487 -0.0600 -0.4835
  970SOL    HW1 2909   1.712   1.858   0.143 -0.8184 -0.5904 -1.5336
  970SOL    HW2 2910   1.556   1.888   0.084 -1.3689  0.0123 -1.9144
  971SOL     OW 2911   2.327   3.083   1.551 -0.1741  0.6236  0.1375
  971SOL    HW1 2912   2.410   0.015   1.510  1.0769  0.0963 -2.4929
  971SOL    HW2 2913   2.257   3.095   1.476 -2.5818 -0.0357 -0.8138
  972SOL     OW 2914   2.609   0.267   1.081 -0.6348  0.0105 -0.1679
  972SOL    HW1 2915   2.660   0.300   0.994  3.3026  1.6298 -1.4148
  972SOL    HW2 2916   2.527   0.212   1.049  0.4364 -1.2009 -1.0814
  973SOL     OW 2917   0.734   0.408   2.221 -0.2524  0.2602  0.3450
  973SOL    HW1 2918   0.691   0.329   2.268  0.7126  1.4574  2.4086
  973SOL    HW2 2919   0.704   0.415   2.120  0.3830  2.1750 -0.9188
  974SOL     OW 2920   2.731   1.231   2.342 -0.5260 -0.1158 -0.2367
  974SOL    HW1 2921   2.649   1.172   2.342  1.0728  1.6063  0.5892
  974SOL    HW2 2922   2.750   1.275   2.251 -0.7649  1.8885 -0.0045
  975SOL     OW 2923   1.022   0.224   1.780  0.1354 -0.0046  0.0170
  975SOL    HW1 2924   1.089   0.263   1.843 -1.1861  2.6660 -2.1444
  975SOL    HW2 2925   1.070   0.159   1.716 -0.5624 -1.4304 -3.2290
  976SOL     OW 2926   1.242   1.580   1.412 -0.1957  0.3796 -0.1018
  976SOL    HW1 2927   1.274   1.676   1.415 -0.5197  0.7734  0.0255
  976SOL    HW2 2928   1.282   1.526   1.487  1.3881 -3.1507 -1.5227
  977SOL     OW 2929   0.515   3.035   0.247  0.2217  0.3694  0.4850
  977SOL    HW1 2930   0.461   2.956   0.289 -4.1764  0.5362  1.4220
  977SOL    HW2 2931   0.608   3.002   0.216 -0.2722  0.2945 -2.6442
  978SOL     OW 2932   2.480   1.132   2.257 -0.6910  0.7116 -0.1844
  978SOL    HW1 2933   2.511   1.046   2.212 -2.7120 -1.9983  0.4616
  978SOL    HW2 2934   2.395   1.116   2.316 -1.2967 -1.8062  0.2583
  979SOL     OW 2935   1.325   0.555   2.100 -0.3889  0.3985 -0.2514
  979SOL    HW1 2936   1.368   0.644   2.127 -0.3967  1.4955  0.7528
  979SOL    HW2 2937   1.225   0.569   2.088 -0.4988  0.6769 -2.2049
  980SOL     OW 2938   1.908   1.516   2.381 -0.5054  0.5973  0.1047
  980SOL    HW1 2939   1.919   1.607   2.339  1.3516 -0.0285 -0.2729
  980SOL    HW2 2940   1.812   1.498   2.406  0.3333 -1.0141 -2.9987
  981SOL     OW 2941   1.760   0.647   1.621 -0.0227  0.3133 -0.5850
  981SOL    HW1 2942   1.741   0.744   1.639  0.5794 -0.7926 -1.0081
  981SOL    HW2 2943   1.840   0.637   1.561 -1.9207 -1.0011  1.4592
  982SOL     OW 2944   0.677   0.369   3.039 -0.0008 -0.4828  0.1373
  982SOL    HW1 2945   0.704   0.461   3.076 -0.6999 -0.5159 -0.9405
  982SOL    HW2 2946   0.592   0.378   2.983 -2.8023 -1.4948 -0.5322
  983SOL     OW 2947   2.699   0.601   0.208 -0.3429 -0.0436 -0.1212
  983SOL    HW1 2948   2.738   0.690   0.173 -1.0828  1.0886 -1.2674
  983SOL    HW2 2949   2.762   0.522   0.199  1.1466 -1.3727 -0.6938
  984SOL     OW 2950   0.999   0.368   2.254  0.4881  0.2384  0.1766
  984SOL    HW1 2951   1.014   0.400   2.351  1.5870  1.0771  0.7295
  984SOL    HW2 2952   0.902   0.372   2.221  1.2544 -1.8495 -0.2599
  985SOL     OW 2953   1.684   1.911   2.180  0.0128  0.5714 -0.6450
  985SOL    HW1 2954   1.635   1.881   2.094  1.1730  2.2373 -0.5297
  985SOL    HW2 2955   1.699   1.827   2.236  1.1174 -0.1824  0.1161
  986SOL     OW 2956   2.446   2.698   1.831  0.0929  0.1209 -0.6578
  986SOL    HW1 2957   2.462   2.742   1.741  0.6088  0.1581  0.6071
  986SOL    HW2 2958   2.471   2.768   1.899 -1.0544  0.1779 -1.9021
  987SOL     OW 2959   1.841   1.108   1.181 -0.1477  0.0299  0.0432
  987SOL    HW1 2960   1.898   1.180   1.137  1.1498  1.3477 -0.0131
  987SOL    HW2 2961   1.785   1.061   1.109 -1.1238  1.9780 -0.9986
  988SOL     OW 2962   2.665   1.582   2.245  0.3525  0.7341 -0.6728
  988SOL    HW1 2963   2.658   1.679   2.271 -4.3493 -2.6522  0.8432
  988SOL    HW2 2964   2.576   1.535   2.264 -2.2675 -3.0581 -2.1400
  989SOL     OW 2965   1.229   2.237   0.204 -0.0443  0.3805 -0.3037
  989SOL    HW1 2966   1.170   2.289   0.134  0.8900  2.3507 -2.9531
  989SOL    HW2 2967   1.185   2.242   0.298  2.3436  1.3643  1.8857
  990SOL     OW 2968   2.128   0.590   2.889 -0.0675  0.0673 -0.4807
  990SOL    HW1 2969   2.044   0.639   2.905  1.8592 -2.8466  1.2660
  990SOL    HW2 2970   2.105   0.510   2.823 -0.5449 -3.6762  0.9668
  991SOL     OW 2971   1.048   0.446   0.827  0.0975 -0.1156  0.6707
  991SOL    HW1 2972   1.023   0.349   0.843 -0.5711  1.6461 -0.7051
  991SOL    HW2 2973   1.001   0.505   0.898 -1.2639  0.7493  1.8985
  992SOL     OW 2974   2.444   0.981   1.197 -0.6007 -0.1525 -0.2230
  992SOL    HW1 2975   2.433   1.002   1.298  1.9592 -1.0623  1.2036
  992SOL    HW2 2976   2.479   0.886   1.186  0.5838  1.6466 -1.8338
  993SOL     OW 2977   2.236   0.590   1.897 -0.1450 -0.1736  0.4639
  993SOL    HW1 2978   2.305   0.521   1.870 -1.5655  0.8310  1.4108
  993SOL    HW2 2979   2.215   0.659   1.821 -2.1328  1.3400 -1.2848
  994SOL     OW 2980   0.987   1.618   2.479 -0.8700 -0.3034 -0.1358
  994SOL    HW1 2981   1.002   1.722   2.486 -2.3809  0.3096 -1.3762
  994SOL    HW2 2982   0.889   1.593   2.493  1.8067  0.4620 -0.8462
  995SOL     OW 2983   2.228   1.114   3.065 -0.0630  0.1953  0.0378
  995SOL    HW1 2984   2.141   1.159   3.055  1.4365  0.3261 -2.1289
  995SOL    HW2 2985   2.295   1.166   3.010 -0.2468  1.4717  2.2550
  996SOL     OW 2986   2.148   2.098   0.549 -0.1376 -0.2387  0.0655
  996SOL    HW1 2987   2.064   2.045   0.584  0.1616 -2.6138 -0.8742
  996SOL    HW2 2988   2.233   2.040   0.557  1.4095 -1.0967 -0.6919
  997SOL     OW 2989   2.074   0.631   2.118  0.1824 -0.5026  0.0643
  997SOL    HW1 2990   1.987   0.679   2.089 -1.6679  0.9065  0.0227
  997SOL    HW2 2991   2.134   0.611   2.040 -0.2138  0.4754 -0.3567
  998SOL     OW 2992   2.540   1.153   0.610 -0.5884 -0.0824 -0.1132
  998SOL    HW1 2993   2.612   1.185   0.669 -0.8065 -1.5413 -3.7287
  998SOL    HW2 2994   2.541   1.201   0.519 -3.1142 -1.3940 -0.8096
  999SOL     OW 2995   2.822   1.688   0.458 -0.0368  1.1681  0.0630
  999SOL    HW1 2996   2.735   1.705   0.408 -0.0609 -1.3218 -1.7227
  999SOL    HW2 2997   2.897   1.743   0.419 -0.0494  0.8751 -0.1529
 1000SOL     OW 2998   0.576   0.648   2.093  1.0104 -0.2212  0.4255
 1000SOL    HW1 2999   0.620   0.567   2.051 -1.7967  0.2756  1.6959
 1000SOL    HW2 3000   0.503   0.612   2.155 -0.1932 -2.5821 -0.3197
   3.10712   3.10712   3.10712
