1000 SPC/Fw water molecules t=  80.00000 step= 80000
 3000
    1SOL     OW    1   1.903   2.801   0.811  0.1591 -0.4039 -0.3944
    1SOL    HW1    2   1.889   2.704   0.803  1.8995 -1.1907  1.1128
    1SOL    HW2    3   1.910   2.848   0.721  0.4158 -1.3484  3.1244
    2SOL     OW    4   0.841   1.219   2.297  0.1916  0.1462  0.0680
    2SOL    HW1    5   0.745   1.201   2.334 -2.7981  1.0297 -1.9378
    2SOL    HW2    6   0.851   1.319   2.281 -1.2447  1.0027 -2.0126
    3SOL     OW    7   1.411   2.856   2.432 -0.1157 -0.1447 -0.4453
    3SOL    HW1    8   1.406   2.929   2.501 -0.0367 -1.5996 -2.4458
    3SOL    HW2    9   1.418   2.766   2.472  1.4860  2.6546 -1.8592
    4SOL     OW   10   1.131   1.862   2.711 -0.1433  0.5678  0.2829
    4SOL    HW1   11   1.181   1.929   2.660 -2.3867 -2.3874 -1.2698
    4SOL    HW2   12   1.192   1.803   2.772  0.1110  1.3193  4.0626
    5SOL     OW   13   0.556   0.870   1.840 -0.1621 -0.2181 -0.4167
    5SOL    HW1   14   0.585   0.876   1.743 -1.7483  3.1604 -1.4331
    5SOL    HW2   15   0.581   0.952   1.897  0.4977 -0.7661 -1.3004
    6SOL     OW   16   1.947   0.568   2.700 -0.5436  0.0408  0.2923
    6SOL    HW1   17   1.991   0.625   2.623  1.8217  1.6369 -1.6868
    6SOL    HW2   18   1.854   0.595   2.733 -1.5716  1.4171 -0.0976
    7SOL     OW   19   0.351   0.197   1.576  0.0367  0.1700  0.5763
    7SOL    HW1   20   0.333   0.299   1.565  0.2177  1.6694 -0.0877
    7SOL    HW2   21   0.377   0.173   1.673 -1.1975 -0.7012  2.3057
    8SOL     OW   22   1.804   3.041   1.793  0.0537 -0.3833 -0.1067
    8SOL    HW1   23   1.853   0.013   1.862 -1.2846 -0.0151  1.6961
    8SOL    HW2   24   1.864   3.015   1.715 -0.4453  2.0930 -1.1079
    9SOL     OW   25   0.455   0.051   0.591 -0.3816 -0.4395 -0.1464
    9SOL    HW1   26   0.504   0.037   0.679 -0.4061 -0.0316 -1.1778
    9SOL    HW2   27   0.371   3.080   0.585 -0.0677 -3.3069  1.8178
   10SOL     OW   28   0.447   2.366   2.407  0.0472 -0.1870  0.1650
   10SOL    HW1   29   0.505   2.406   2.480 -0.4737  0.0838 -0.1213
   10SOL    HW2   30   0.449   2.414   2.317  1.0270  0.4100 -1.3723
   11SOL     OW   31   0.531   1.499   0.237 -0.2801 -0.1845  0.2142
   11SOL    HW1   32   0.567   1.444   0.157 -0.7483 -1.4293 -1.2983
   11SOL    HW2   33   0.601   1.512   0.309  0.5398 -0.6589 -2.5195
   12SOL     OW   34   3.027   2.825   1.292 -0.0337 -0.3100  0.4111
   12SOL    HW1   35   2.988   2.886   1.218 -1.2053  2.5706 -1.4002
   12SOL    HW2   36   0.034   2.801   1.263 -1.5531 -0.0214  0.7416
   13SOL     OW   37   0.840   2.771   0.423  0.2288  0.2876 -0.0497
   13SOL    HW1   38   0.851   2.715   0.337  0.8797  1.6966 -2.4883
   13SOL    HW2   39   0.881   2.865   0.419 -1.4649 -0.2538 -0.4990
   14SOL     OW   40   1.508   1.653   1.368  0.8430  0.0649 -0.2442
   14SOL    HW1   41   1.453   1.715   1.303 -1.7354  1.2901 -3.7565
   14SOL    HW2   42   1.473   1.557   1.367  0.8623  1.1343 -2.7033
   15SOL     OW   43   0.083   1.682   2.393 -0.0835 -0.3342 -0.2373
   15SOL    HW1   44   3.086   1.733   2.376  0.6204 -1.4967  0.2025
   15SOL    HW2   45   0.132   1.724   2.472  1.2993  2.2967  2.1185
   16SOL     OW   46   1.595   0.561   2.591 -0.4932 -0.8000 -0.1350
   16SOL    HW1   47   1.635   0.649   2.572 -0.0500 -2.3147 -1.7308
   16SOL    HW2   48   1.583   0.551   2.692  0.3460  2.9379 -0.9467
   17SOL     OW   49   0.034   2.224   2.467  0.4202 -0.3870 -0.4104
   17SOL    HW1   50   0.116   2.244   2.528  0.3893  2.2095 -0.6240
   17SOL    HW2   51   0.001   2.127   2.476  0.8087 -1.7991  0.1885
   18SOL     OW   52   1.056   1.276   0.637 -0.1100 -0.3991  0.0491
   18SOL    HW1   53   1.061   1.369   0.683 -3.4754  1.3713  2.4948
   18SOL    HW2   54   1.084   1.200   0.703  0.3504 -2.2504  0.0308
   19SOL     OW   55   2.887   1.822   2.439 -0.4259 -0.3950  0.2227
   19SOL    HW1   56   2.858   1.737   2.469 -1.6231  2.4097 -1.0616
   19SOL    HW2   57   2.809   1.877   2.402 -0.6024 -0.0316  0.4169
   20SOL     OW   58   2.399   2.308   2.386  0.1385  0.2302  0.0641
   20SOL    HW1   59   2.381   2.212   2.355  0.0181 -0.0432 -0.8856
   20SOL    HW2   60   2.318   2.366   2.389  3.1523  0.0023 -1.0227
   21SOL     OW   61   1.293   1.776   0.175  0.2237 -0.3720 -0.1231
   21SOL    HW1   62   1.307   1.674   0.151  1.2117 -3.1464 -1.2217
   21SOL    HW2   63   1.322   1.794   0.268 -3.3512 -0.4142 -1.4487
   22SOL     OW   64   2.228   2.199   1.420 -0.0496 -0.2465 -0.3618
   22SOL    HW1   65   2.219   2.273   1.492 -0.9910  3.0313 -0.1673
   22SOL    HW2   66   2.168   2.120   1.446 -0.9388  0.6013 -0.0262
   23SOL     OW   67   0.199   1.147   1.202  0.1381  0.3051  0.2326
   23SOL    HW1   68   0.217   1.054   1.154  3.6897 -1.5631 -2.2026
   23SOL    HW2   69   0.234   1.141   1.299 -0.6755  0.3413  3.6270
   24SOL     OW   70   2.546   1.508   2.254 -0.3821 -0.6169  0.4293
   24SOL    HW1   71   2.459   1.521   2.310 -1.0801  0.3056  0.9330
   24SOL    HW2   72   2.586   1.597   2.228  0.0661 -1.7621 -1.2011
   25SOL     OW   73   2.013   0.332   2.266  0.2395 -0.0940 -0.0025
   25SOL    HW1   74   2.103   0.354   2.297  0.5240 -0.4304 -3.1382
   25SOL    HW2   75   1.983   0.388   2.184 -2.5366  0.5094 -2.5374
   26SOL     OW   76   1.366   0.038   0.388  0.1854  0.2905 -0.1112
   26SOL    HW1   77   1.341   0.077   0.297  0.0630  3.1623  0.6111
   26SOL    HW2   78   1.368   0.116   0.460  0.2623  1.3770  1.1294
   27SOL     OW   79   0.676   1.548   0.467 -0.4454 -0.1305 -0.2403
   27SOL    HW1   80   0.602   1.534   0.536 -0.0602  1.4885 -1.9901
   27SOL    HW2   81   0.738   1.465   0.475  0.1582 -2.1769  0.0169
   28SOL     OW   82   2.459   1.999   1.037 -0.2706 -0.7100  0.2650
   28SOL    HW1   83   2.452   1.970   1.135  1.5387 -1.3915  4.6427
   28SOL    HW2   84   2.386   2.071   1.020 -0.4334 -1.6312 -0.2085
   29SOL     OW   85   2.249   2.925   1.671 -0.4115 -0.3416 -0.5414
   29SOL    HW1   86   2.171   2.858   1.668  0.3681 -2.6498 -0.8049
   29SOL    HW2   87   2.284   2.923   1.771  1.3085  0.3844  1.4954
   30SOL     OW   88   0.801   2.996   1.218 -0.0502  0.2347  0.1622
   30SOL    HW1   89   0.811   2.920   1.153  0.8916  2.5499  1.2192
   30SOL    HW2   90   0.707   3.004   1.259 -1.0752 -0.2107 -0.6620
   31SOL     OW   91   0.022   2.134   1.781 -0.0852  0.1001  0.0849
   31SOL    HW1   92   0.014   2.040   1.820  0.0730 -1.3128  0.7027
   31SOL    HW2   93   0.032   2.198   1.862 -2.0128  2.1102  3.4431
   32SOL     OW   94   1.362   1.477   1.821 -0.0708  0.4092  0.7491
   32SOL    HW1   95   1.312   1.525   1.746  2.8098 -1.4133 -2.2913
   32SOL    HW2   96   1.388   1.542   1.892 -3.2797 -1.9571 -0.1276
   33SOL     OW   97   0.387   0.158   3.017  0.2313 -0.1432  0.0157
   33SOL    HW1   98   0.477   0.190   2.982  1.7960 -0.5475 -0.1942
   33SOL    HW2   99   0.334   0.106   2.947  0.0840  0.6847 -2.5822
   34SOL     OW  100   2.470   0.002   0.534 -0.1273  0.0550  0.2564
   34SOL    HW1  101   2.428   3.084   0.626  3.9151 -0.1465  0.7050
   34SOL    HW2  102   2.455   2.997   0.487 -0.9295  0.5508 -2.5083
   35SOL     OW  103   2.662   0.035   1.488 -0.2329 -0.1367  0.7593
   35SOL    HW1  104   2.636   0.119   1.539 -3.3998  1.8722  0.5740
   35SOL    HW2  105   2.574   3.071   1.469  1.0701 -0.3576  0.5074
   36SOL     OW  106   2.706   2.723   2.720 -0.4537  0.2185 -0.0478
   36SOL    HW1  107   2.745   2.758   2.808  0.5485  0.5988  1.5577
   36SOL    HW2  108   2.780   2.722   2.651 -1.3781  1.4392 -1.0428
   37SOL     OW  109   1.525   2.569   2.773  0.0282 -0.9796 -0.2218
   37SOL    HW1  110   1.610   2.596   2.818 -1.7574  0.5999 -0.1406
   37SOL    HW2  111   1.445   2.546   2.837 -2.3022 -0.7513  0.3508
   38SOL     OW  112   2.922   0.895   3.060  0.0423  0.2841  0.1811
   38SOL    HW1  113   2.835   0.929   0.008 -0.1862  1.2442 -2.9630
   38SOL    HW2  114   3.002   0.929   0.026 -0.4646  0.9063 -1.7298
   39SOL     OW  115   1.688   1.702   2.101  0.1144  0.3311  0.5764
   39SOL    HW1  116   1.695   1.798   2.134 -1.7305 -1.7539  0.9873
   39SOL    HW2  117   1.782   1.662   2.109  0.2882  1.1352 -0.5448
   40SOL     OW  118   0.269   0.304   2.715 -0.0540  1.0341 -0.4570
   40SOL    HW1  119   0.271   0.214   2.758  1.3740 -0.8868  0.0359
   40SOL    HW2  120   0.366   0.343   2.728  4.5574  0.1237 -3.4904
   41SOL     OW  121   1.750   1.480   1.863  0.4806  0.0224  0.3275
   41SOL    HW1  122   1.748   1.424   1.949 -3.5190 -2.0127 -0.5440
   41SOL    HW2  123   1.670   1.446   1.805 -1.6563 -1.4499 -2.8494
   42SOL     OW  124   0.114   0.099   1.772  0.7954 -0.0011 -0.4835
   42SOL    HW1  125   0.187   0.155   1.813  0.4650  0.5579  1.6867
   42SOL    HW2  126   0.119   3.085   1.790  0.6946 -2.5167  0.4057
   43SOL     OW  127   1.325   1.278   2.004  0.1956  0.7123  0.1870
   43SOL    HW1  128   1.361   1.181   2.004  1.1087  1.0361  0.2587
   43SOL    HW2  129   1.333   1.325   1.913 -2.5535  0.6628  2.8855
   44SOL     OW  130   3.033   0.128   3.017 -0.3870  0.3367  0.5852
   44SOL    HW1  131   3.018   0.079   2.929 -0.8152  0.7471  0.9959
   44SOL    HW2  132   2.951   0.184   3.042  0.1798 -0.2850 -2.0333
   45SOL     OW  133   0.260   2.109   1.151  0.1073  0.1353  0.4305
   45SOL    HW1  134   0.292   2.146   1.236 -1.1661  2.3267 -1.1690
   45SOL    HW2  135   0.275   2.006   1.158  0.1873 -2.9624  1.7792
   46SOL     OW  136   2.400   2.702   1.627  0.1021 -0.0233  0.8061
   46SOL    HW1  137   2.364   2.793   1.659  0.3711 -0.6540 -0.0767
   46SOL    HW2  138   2.499   2.688   1.645  1.5657 -1.2332 -1.8021
   47SOL     OW  139   0.670   1.665   1.165 -0.4824  0.1707 -0.3682
   47SOL    HW1  140   0.706   1.572   1.123  2.2622 -3.4732 -3.8396
   47SOL    HW2  141   0.641   1.731   1.094  0.7229  1.8350  0.8568
   48SOL     OW  142   0.587   2.702   0.189 -0.2659  0.3690 -0.2911
   48SOL    HW1  143   0.642   2.707   0.274 -1.6150 -2.0127  2.2032
   48SOL    HW2  144   0.492   2.735   0.214 -1.5012 -0.1665 -1.1619
   49SOL     OW  145   2.898   1.667   1.805 -0.3820 -0.5087  0.8313
   49SOL    HW1  146   2.813   1.639   1.856  0.1068  0.1064  2.6786
   49SOL    HW2  147   2.901   1.637   1.709 -1.8551  2.7706 -0.0015
   50SOL     OW  148   1.514   0.866   0.709  0.5034 -0.2751 -0.3109
   50SOL    HW1  149   1.518   0.781   0.654 -2.3326  1.3542 -1.2010
   50SOL    HW2  150   1.589   0.876   0.777  0.4521  0.6777 -2.4305
   51SOL     OW  151   1.161   0.639   0.971 -0.3348  0.2985  0.3260
   51SOL    HW1  152   1.258   0.635   0.943 -0.8011 -3.5354  0.2098
   51SOL    HW2  153   1.144   0.630   1.071  0.7343  0.4555 -0.0479
   52SOL     OW  154   1.026   1.385   0.202 -0.4364 -0.2998 -1.0349
   52SOL    HW1  155   1.075   1.329   0.272 -0.4182 -1.4117  0.2051
   52SOL    HW2  156   0.986   1.320   0.132  0.0291 -1.0599  0.6104
   53SOL     OW  157   1.347   0.124   2.462  0.2819 -0.2092  0.0695
   53SOL    HW1  158   1.390   0.162   2.548  2.9678  0.1604 -0.2162
   53SOL    HW2  159   1.281   0.049   2.478  1.8617 -1.5785 -0.8643
   54SOL     OW  160   1.791   0.822   1.685  0.0685  0.5224 -0.1297
   54SOL    HW1  161   1.709   0.860   1.638 -0.6939 -1.0340  1.4042
   54SOL    HW2  162   1.872   0.832   1.619  2.0462 -2.8792  1.2395
   55SOL     OW  163   2.675   2.707   0.346  0.2534 -0.0658  0.3170
   55SOL    HW1  164   2.735   2.705   0.433  1.9482  0.3254 -1.9222
   55SOL    HW2  165   2.590   2.754   0.373  0.5224  0.3368 -1.3819
   56SOL     OW  166   0.874   2.541   1.950  0.2156 -0.0697  0.1625
   56SOL    HW1  167   0.850   2.638   1.919 -4.1339 -0.8365 -0.0367
   56SOL    HW2  168   0.861   2.472   1.875  2.9287 -2.9062 -0.7071
   57SOL     OW  169   1.718   0.822   2.584  0.7600  0.0656  0.5406
   57SOL    HW1  170   1.733   0.842   2.685  2.0608  2.0814  1.3389
   57SOL    HW2  171   1.628   0.867   2.557 -0.8975 -0.2337  1.0064
   58SOL     OW  172   0.328   1.339   1.978  0.3149  0.1107 -0.2335
   58SOL    HW1  173   0.285   1.257   1.930  2.1024  2.1338  2.3446
   58SOL    HW2  174   0.423   1.359   1.940  1.4664 -0.1545 -0.6209
   59SOL     OW  175   0.633   2.651   2.272 -0.2552 -0.0684 -0.0887
   59SOL    HW1  176   0.635   2.719   2.194  1.6387  0.2392  0.4096
   59SOL    HW2  177   0.661   2.563   2.236  3.1663  0.6710 -2.1759
   60SOL     OW  178   2.524   2.467   0.229 -0.1142 -0.7341  0.0459
   60SOL    HW1  179   2.569   2.557   0.248 -0.0566  1.0078  0.5912
   60SOL    HW2  180   2.451   2.467   0.154 -1.7436 -2.6964 -1.6623
   61SOL     OW  181   0.870   2.541   0.546 -0.5195  0.3105 -0.0070
   61SOL    HW1  182   0.965   2.521   0.507  1.6448 -1.1021 -0.2964
   61SOL    HW2  183   0.857   2.639   0.530 -2.1292  0.0477  1.6327
   62SOL     OW  184   1.780   2.402   2.616 -0.2189  0.3421 -0.1465
   62SOL    HW1  185   1.817   2.385   2.523 -1.6323  0.6952 -0.2384
   62SOL    HW2  186   1.686   2.435   2.611 -1.3997 -0.6470  0.0911
   63SOL     OW  187   2.097   0.584   0.126  0.1151 -0.2262 -0.2812
   63SOL    HW1  188   2.105   0.558   0.028 -2.0762  1.5852 -1.7505
   63SOL    HW2  189   2.188   0.626   0.139  0.8293  0.9930 -2.8241
   64SOL     OW  190   0.881   1.484   2.789  0.0016 -0.0722 -0.0850
   64SOL    HW1  191   0.854   1.541   2.867 -0.0552 -1.0545  0.0899
   64SOL    HW2  192   0.909   1.393   2.825 -1.8249  1.2631  1.1916
   65SOL     OW  193   1.116   2.918   1.224  0.5532 -0.3465 -0.0258
   65SOL    HW1  194   1.187   2.918   1.152 -0.7052  2.4376 -0.6838
   65SOL    HW2  195   1.074   3.011   1.236  0.7563 -2.1141  1.3656
   66SOL     OW  196   0.605   1.657   1.598 -0.4130 -0.0885  0.3823
   66SOL    HW1  197   0.686   1.608   1.557 -1.9924  1.1418  0.1661
   66SOL    HW2  198   0.624   1.688   1.690  2.4977 -3.1831 -1.6225
   67SOL     OW  199   2.287   2.658   2.064  0.2026 -0.1748  0.4104
   67SOL    HW1  200   2.351   2.685   2.141  1.5043  2.3605  0.8039
   67SOL    HW2  201   2.280   2.743   2.006  0.7352 -0.3104  0.6208
   68SOL     OW  202   0.909   0.984   1.760 -0.1044  0.3447  0.3065
   68SOL    HW1  203   0.879   0.984   1.855 -0.1801 -1.4181 -1.7174
   68SOL    HW2  204   0.846   0.924   1.702  0.1165 -1.2128  0.3353
   69SOL     OW  205   2.314   2.427   0.049  0.2269  0.4663 -0.0179
   69SOL    HW1  206   2.229   2.476   0.065  1.2929 -0.9489  0.2353
   69SOL    HW2  207   2.288   2.338   0.009 -1.9235  0.1447 -3.9084
   70SOL     OW  208   2.294   0.781   2.786 -0.0425 -0.6354  0.0804
   70SOL    HW1  209   2.311   0.746   2.695 -0.1841 -0.6546 -0.4386
   70SOL    HW2  210   2.380   0.801   2.833  1.1339 -1.3909  0.4550
   71SOL     OW  211   3.080   2.347   0.475  0.3995  0.2002 -0.2826
   71SOL    HW1  212   2.985   2.325   0.439 -1.6072  0.9003  1.3119
   71SOL    HW2  213   0.066   2.288   0.428 -0.4763 -1.9495  0.6498
   72SOL     OW  214   2.809   1.858   0.536  0.6842 -0.3311 -0.3745
   72SOL    HW1  215   2.867   1.876   0.619 -1.2999 -3.0015  0.5499
   72SOL    HW2  216   2.835   1.759   0.506 -0.8123 -3.0729  1.4655
   73SOL     OW  217   1.034   0.454   0.606 -0.1467  0.2624  0.3648
   73SOL    HW1  218   1.132   0.482   0.619  0.9763  0.5140  0.6107
   73SOL    HW2  219   0.968   0.500   0.666 -2.9136  3.1651 -0.6886
   74SOL     OW  220   0.028   2.295   2.011  0.1332 -0.1785 -0.2119
   74SOL    HW1  221   0.050   2.228   2.083  1.1296  0.2158  0.2607
   74SOL    HW2  222   0.052   2.386   2.049 -3.8705  0.4534 -0.0617
   75SOL     OW  223   1.765   1.720   1.697 -0.1471  0.3222 -0.0675
   75SOL    HW1  224   1.765   1.646   1.765  2.3337  1.0626 -2.3022
   75SOL    HW2  225   1.671   1.751   1.668 -0.3334 -0.3086  2.6222
   76SOL     OW  226   1.422   2.075   1.234 -0.1324 -0.3956 -0.1532
   76SOL    HW1  227   1.498   2.093   1.167  0.4735 -0.7955 -0.4777
   76SOL    HW2  228   1.327   2.107   1.221  0.5825 -0.3879  3.3193
   77SOL     OW  229   2.677   1.581   1.946  0.1494 -0.2841  0.0811
   77SOL    HW1  230   2.719   1.488   1.939  1.6100  1.7021 -2.2704
   77SOL    HW2  231   2.674   1.611   2.045 -1.5339 -2.1198 -0.4015
   78SOL     OW  232   1.524   0.480   0.822  0.0859 -0.2096 -0.2972
   78SOL    HW1  233   1.576   0.398   0.856 -0.4997  0.0253 -1.7476
   78SOL    HW2  234   1.523   0.551   0.898 -1.5484  1.6021 -1.6996
   79SOL     OW  235   2.020   1.453   1.933  0.1364  0.8169  0.3949
   79SOL    HW1  236   2.068   1.365   1.951 -1.7246  0.4059  2.3510
   79SOL    HW2  237   1.934   1.438   1.879 -0.7676 -3.9607  1.1257
   80SOL     OW  238   1.346   0.328   1.229 -0.3425 -0.0539 -0.1356
   80SOL    HW1  239   1.376   0.235   1.239 -4.2804  2.4237 -0.5919
   80SOL    HW2  240   1.262   0.332   1.279  4.1802 -1.9616 -4.7590
   81SOL     OW  241   0.680   2.358   0.527  0.0418  0.0766  0.4270
   81SOL    HW1  242   0.756   2.429   0.539  0.6956  0.4778  0.0102
   81SOL    HW2  243   0.696   2.284   0.592 -1.6232 -2.1064  0.0648
   82SOL     OW  244   1.534   0.434   1.721  0.1830 -0.2655  0.1772
   82SOL    HW1  245   1.460   0.453   1.655  0.5000 -0.0836  0.3795
   82SOL    HW2  246   1.564   0.335   1.720 -1.4929 -0.2587  1.1528
   83SOL     OW  247   0.442   1.998   0.781 -0.0664  0.6447  0.3155
   83SOL    HW1  248   0.437   2.097   0.800  2.4383 -1.3662 -0.3982
   83SOL    HW2  249   0.484   1.977   0.684 -0.9499  0.1159 -3.9268
   84SOL     OW  250   2.554   1.376   2.992 -0.1454  0.2221  0.4295
   84SOL    HW1  251   2.589   1.402   2.898  0.4372  1.7865 -2.2639
   84SOL    HW2  252   2.457   1.349   2.990  0.6549  0.7588 -1.5633
   85SOL     OW  253   0.072   2.678   1.516 -0.0251  0.4044  0.2977
   85SOL    HW1  254   0.085   2.775   1.541  0.3867 -2.8724  0.4821
   85SOL    HW2  255   0.012   2.670   1.436  1.2418 -0.1689  3.5422
   86SOL     OW  256   1.756   2.893   1.020  0.4669  0.0100  0.3796
   86SOL    HW1  257   1.781   2.823   1.088  1.5283  0.9820 -0.7665
   86SOL    HW2  258   1.817   2.887   0.935 -0.0380 -0.3358 -0.6593
   87SOL     OW  259   2.644   1.383   0.486 -0.3385 -0.1972 -0.3767
   87SOL    HW1  260   2.546   1.363   0.460 -3.1640 -0.1048 -0.9070
   87SOL    HW2  261   2.642   1.454   0.561  2.4246  1.2552  0.8878
   88SOL     OW  262   1.044   0.553   1.200 -0.1415  0.1931  0.4294
   88SOL    HW1  263   1.046   0.573   1.301  1.7987 -0.8897 -1.1442
   88SOL    HW2  264   0.959   0.502   1.167  0.9141 -0.5124 -1.5200
   89SOL     OW  265   0.852   2.809   1.874  0.2928  0.0846  0.4600
   89SOL    HW1  266   0.850   2.880   1.796  0.6681  1.7356 -1.7985
   89SOL    HW2  267   0.952   2.798   1.895  0.2083  0.6297  0.8000
   90SOL     OW  268   2.943   1.832   1.260  0.4113 -0.3818  0.2269
   90SOL    HW1  269   2.890   1.779   1.191 -1.4454 -0.1317  2.1938
   90SOL    HW2  270   2.900   1.835   1.348  0.0477  0.6687 -0.7260
   91SOL     OW  271   1.108   1.656   1.182  0.3207  1.0418  0.5226
   91SOL    HW1  272   1.113   1.639   1.283 -1.4022 -0.9063  1.7810
   91SOL    HW2  273   1.156   1.580   1.129  0.5443 -2.5600  1.3634
   92SOL     OW  274   2.773   2.788   1.826  0.4659 -0.3042 -0.3519
   92SOL    HW1  275   2.727   2.740   1.752  3.1837  0.1065  2.2066
   92SOL    HW2  276   2.713   2.828   1.894 -0.7006  0.4618 -0.8607
   93SOL     OW  277   3.015   1.293   2.881  0.1712 -0.0395  0.1761
   93SOL    HW1  278   2.940   1.236   2.846  1.2818  1.5708  0.0695
   93SOL    HW2  279   0.021   1.278   2.834  3.2911 -1.2557  1.2049
   94SOL     OW  280   2.336   2.890   1.915  0.2421 -0.1699 -0.0183
   94SOL    HW1  281   2.286   2.934   1.994  1.0992 -0.4834  0.4106
   94SOL    HW2  282   2.433   2.924   1.910 -0.9917  1.1617 -0.1140
   95SOL     OW  283   1.666   0.750   2.080  0.2296 -0.4501 -0.4650
   95SOL    HW1  284   1.609   0.780   2.160 -1.9794 -1.1473 -0.5590
   95SOL    HW2  285   1.695   0.832   2.025  1.8489 -0.3309 -1.0764
   96SOL     OW  286   2.587   0.741   1.540 -1.2819 -0.2774 -0.0641
   96SOL    HW1  287   2.655   0.777   1.603 -1.2210  0.2234  2.1902
   96SOL    HW2  288   2.635   0.704   1.456 -1.9389 -2.6689  1.3377
   97SOL     OW  289   2.396   3.006   1.459 -0.2360 -0.0697 -0.1954
   97SOL    HW1  290   2.423   2.933   1.395 -0.8918 -1.3861  2.4124
   97SOL    HW2  291   2.319   2.982   1.516  0.4166  1.7190 -2.5922
   98SOL     OW  292   2.060   2.663   1.387 -0.6183  0.4679 -0.2173
   98SOL    HW1  293   2.154   2.628   1.381  0.5964  0.6166  1.5500
   98SOL    HW2  294   1.997   2.590   1.422  2.6472 -1.9417  0.1671
   99SOL     OW  295   2.729   0.278   1.604 -0.4507  0.2537 -0.2593
   99SOL    HW1  296   2.670   0.333   1.666  2.0293 -1.4052 -0.0638
   99SOL    HW2  297   2.818   0.246   1.642 -2.6072  0.4810 -1.5972
  100SOL     OW  298   2.298   1.736   2.203  0.2594  0.0173  0.6531
  100SOL    HW1  299   2.295   1.676   2.285 -1.9716  1.7715  1.1517
  100SOL    HW2  300   2.231   1.811   2.224 -1.5398  1.0449 -0.5870
  101SOL     OW  301   2.108   0.031   0.174 -0.0012 -0.4193  0.4687
  101SOL    HW1  302   2.208   0.023   0.209  6.0992  0.7213  4.1111
  101SOL    HW2  303   2.090   0.132   0.185 -0.8440  0.9461  0.5018
  102SOL     OW  304   0.403   0.607   1.358  0.4415 -0.6226  0.0283
  102SOL    HW1  305   0.378   0.563   1.445  0.3913  0.6172 -1.0228
  102SOL    HW2  306   0.358   0.559   1.288 -1.0566  0.1554  2.9131
  103SOL     OW  307   2.633   3.044   2.579 -0.1752 -0.1522 -0.2128
  103SOL    HW1  308   2.666   3.067   2.675  0.2521 -1.7696 -0.8044
  103SOL    HW2  309   2.577   2.958   2.574 -0.1261  2.6424 -4.6031
  104SOL     OW  310   3.046   2.825   1.786  0.2145  0.6760 -0.3354
  104SOL    HW1  311   0.021   2.778   1.850  0.8291  1.8867  0.5855
  104SOL    HW2  312   2.952   2.789   1.803  1.3412  0.9687  0.1119
  105SOL     OW  313   1.270   0.947   2.163  0.3636  0.0705 -0.0176
  105SOL    HW1  314   1.195   1.016   2.185 -1.5109  3.4143  0.0062
  105SOL    HW2  315   1.233   0.879   2.097  0.5488  2.2767  4.4255
  106SOL     OW  316   1.843   0.653   0.935 -0.0224 -0.2803 -0.4544
  106SOL    HW1  317   1.865   0.565   0.983 -2.8636 -0.3129  2.0800
  106SOL    HW2  318   1.873   0.646   0.841 -0.6648 -0.1863  1.1415
  107SOL     OW  319   0.670   1.041   1.166  0.0686 -0.0569  0.4034
  107SOL    HW1  320   0.595   0.977   1.170 -0.0270 -1.2345  3.0928
  107SOL    HW2  321   0.727   1.040   1.248 -2.2351 -0.5761  0.6206
  108SOL     OW  322   2.952   0.353   2.349  0.0378 -0.4271 -0.1967
  108SOL    HW1  323   2.983   0.281   2.280  0.6859 -0.8592 -2.3103
  108SOL    HW2  324   3.031   0.375   2.412  0.2118 -1.6946 -1.8946
  109SOL     OW  325   2.033   3.047   3.025  0.4689  1.4393 -0.5847
  109SOL    HW1  326   2.067   3.077   0.025 -1.8040  1.1848  0.8396
  109SOL    HW2  327   1.979   0.035   2.985  0.6747  1.1208 -0.6476
  110SOL     OW  328   3.005   1.733   2.803  0.3680 -0.0686  0.0236
  110SOL    HW1  329   2.944   1.655   2.821  3.3726  0.2460  0.5258
  110SOL    HW2  330   2.963   1.820   2.830  0.1746 -2.6561 -0.7948
  111SOL     OW  331   2.645   0.203   2.461 -0.3536  0.0226 -0.2483
  111SOL    HW1  332   2.646   0.270   2.536  1.0000 -1.2960  0.6573
  111SOL    HW2  333   2.655   0.109   2.499 -1.4590 -1.5938  0.4236
  112SOL     OW  334   2.596   2.822   1.006  0.3074  0.0512  0.5580
  112SOL    HW1  335   2.691   2.797   1.024  0.1854  1.8949 -0.7121
  112SOL    HW2  336   2.588   2.925   0.978  1.5060  0.2430 -0.1699
  113SOL     OW  337   2.340   2.086   2.039 -0.2716 -0.9126 -0.0644
  113SOL    HW1  338   2.411   2.053   1.977  1.8455 -0.7197  1.6926
  113SOL    HW2  339   2.254   2.083   1.993  2.3618 -5.5089 -1.3158
  114SOL     OW  340   2.730   0.069   0.514 -0.3822  0.4849 -0.5189
  114SOL    HW1  341   2.632   0.048   0.536 -3.1842 -0.1316 -1.1379
  114SOL    HW2  342   2.790   0.064   0.595  1.1364  1.2812 -0.6954
  115SOL     OW  343   2.669   1.877   0.275 -0.5405 -0.2492  0.5075
  115SOL    HW1  344   2.752   1.843   0.323  1.8906  3.1362 -0.3736
  115SOL    HW2  345   2.591   1.812   0.273 -0.7218  3.3731 -0.7454
  116SOL     OW  346   3.025   1.295   2.094 -0.4139 -0.1836  0.0459
  116SOL    HW1  347   3.051   1.368   2.025  0.5855 -0.7536  0.8346
  116SOL    HW2  348   3.054   1.327   2.185 -0.5124  1.3816 -3.4520
  117SOL     OW  349   2.174   0.089   0.960 -0.0170  0.4378 -0.0560
  117SOL    HW1  350   2.159   0.018   1.029  0.4788  2.5167 -0.6480
  117SOL    HW2  351   2.211   0.170   1.006 -1.4650 -1.1342 -1.2182
  118SOL     OW  352   0.256   2.258   1.656 -0.2290 -0.3664 -0.2660
  118SOL    HW1  353   0.158   2.251   1.686  1.4801 -2.9685 -2.6980
  118SOL    HW2  354   0.317   2.234   1.736 -1.9806  1.0381 -0.9883
  119SOL     OW  355   1.141   1.979   1.379 -0.2412  0.3374 -0.4865
  119SOL    HW1  356   1.140   2.051   1.309 -1.4059  2.4176  1.7993
  119SOL    HW2  357   1.058   1.973   1.437  3.0740 -2.0320  0.3442
  120SOL     OW  358   0.190   1.695   1.380 -0.5674 -0.1587  0.0849
  120SOL    HW1  359   0.117   1.751   1.419  0.0478 -2.4043 -1.4473
  120SOL    HW2  360   0.281   1.715   1.415 -2.0356 -1.2873  0.0258
  121SOL     OW  361   1.885   1.286   1.026 -0.1972 -0.1508 -1.0877
  121SOL    HW1  362   1.809   1.356   1.005  1.2763  0.8861  4.7829
  121SOL    HW2  363   1.923   1.305   1.120  1.5909  2.6846  0.8431
  122SOL     OW  364   2.208   1.977   2.877 -0.4122 -0.2998  0.0711
  122SOL    HW1  365   2.112   1.945   2.875  1.0539  1.5336 -0.7275
  122SOL    HW2  366   2.235   2.028   2.792  0.9177  0.5670 -2.3583
  123SOL     OW  367   2.916   2.892   0.636 -0.0161  0.6739  0.4162
  123SOL    HW1  368   2.946   2.891   0.732  2.1153 -0.1339  1.4800
  123SOL    HW2  369   2.868   2.804   0.614  1.3828  1.4456  0.6126
  124SOL     OW  370   1.047   1.009   0.022 -0.1765 -0.8184 -0.4099
  124SOL    HW1  371   0.945   1.034   0.010 -1.6431 -0.8993 -1.5811
  124SOL    HW2  372   1.077   0.952   3.034  0.8846 -2.3257  2.8980
  125SOL     OW  373   0.054   1.419   2.320  0.3986 -0.9327 -0.3207
  125SOL    HW1  374   0.061   1.520   2.325 -0.7462 -2.0478  0.7494
  125SOL    HW2  375   0.123   1.362   2.369  0.8152  2.3417 -0.8377
  126SOL     OW  376   0.004   2.621   0.470 -0.3302  1.0334  0.6688
  126SOL    HW1  377   3.083   2.670   0.382  2.6245 -0.0356  0.9055
  126SOL    HW2  378   0.023   2.520   0.452 -0.0163 -1.0335  0.4702
  127SOL     OW  379   2.863   1.590   0.485  0.3673 -0.1968  0.0189
  127SOL    HW1  380   2.788   1.525   0.492  0.8697 -1.1450 -0.5484
  127SOL    HW2  381   2.951   1.540   0.498  0.8884  0.5355  0.5697
  128SOL     OW  382   1.213   1.207   0.352 -0.5746  0.2389  0.5222
  128SOL    HW1  383   1.131   1.206   0.414  0.5638  2.4690 -0.4052
  128SOL    HW2  384   1.232   1.117   0.303  1.5331  0.1218  1.3627
  129SOL     OW  385   2.022   2.027   1.487  0.2851 -0.0127 -0.2075
  129SOL    HW1  386   1.971   2.064   1.567  0.1198 -0.7780  1.5956
  129SOL    HW2  387   1.961   2.031   1.402  1.1890 -0.6724  0.0142
  130SOL     OW  388   1.946   0.907   0.751 -0.3251 -0.6297  0.2866
  130SOL    HW1  389   1.843   0.890   0.761 -0.9797  1.2672 -2.5380
  130SOL    HW2  390   1.969   1.000   0.775  0.3785 -0.1051  1.0154
  131SOL     OW  391   2.957   0.932   2.784  0.3928  0.7046 -0.1304
  131SOL    HW1  392   2.943   0.908   2.882  0.7801 -2.0157  0.2383
  131SOL    HW2  393   2.896   1.007   2.768 -0.6261  0.0065  1.8317
  132SOL     OW  394   1.681   1.294   2.045  0.0208 -0.4536 -0.0553
  132SOL    HW1  395   1.694   1.250   1.955 -0.9190 -2.8811  1.8305
  132SOL    HW2  396   1.595   1.272   2.091  1.3284  0.0497  1.9816
  133SOL     OW  397   0.009   1.237   0.049 -0.2582 -0.1080  0.4046
  133SOL    HW1  398   3.042   1.245   3.045 -2.1666 -1.3826 -0.9571
  133SOL    HW2  399   3.035   1.278   0.124 -1.3048 -2.1240  0.1422
  134SOL     OW  400   2.803   0.841   0.695 -0.0345 -0.1962  0.1080
  134SOL    HW1  401   2.878   0.904   0.718 -0.7118  0.5183  0.2634
  134SOL    HW2  402   2.845   0.757   0.649 -1.0174 -3.7233  0.2247
  135SOL     OW  403   1.919   1.119   2.901  0.1501 -0.1680 -0.4572
  135SOL    HW1  404   2.012   1.116   2.949  2.1290  1.5380 -0.0774
  135SOL    HW2  405   1.854   1.181   2.952 -1.1485  0.9325 -1.7076
  136SOL     OW  406   1.869   2.001   1.721 -0.3211 -0.3985  0.1684
  136SOL    HW1  407   1.857   1.900   1.704  0.9537 -0.0797  3.0089
  136SOL    HW2  408   1.782   2.051   1.717 -0.1471 -1.6264 -2.9403
  137SOL     OW  409   2.263   2.604   0.535 -0.0280  0.7132 -0.0383
  137SOL    HW1  410   2.362   2.595   0.552  0.7332 -0.3256 -2.1225
  137SOL    HW2  411   2.211   2.512   0.538 -2.3052 -1.6065  0.3831
  138SOL     OW  412   2.365   0.378   1.548 -0.3542 -0.0203 -0.2227
  138SOL    HW1  413   2.284   0.333   1.593  0.2429 -1.3698  0.4393
  138SOL    HW2  414   2.405   0.435   1.625 -1.5635  0.6636  2.7799
  139SOL     OW  415   2.706   0.023   2.824  0.2717  0.0590 -0.3540
  139SOL    HW1  416   2.623   0.016   2.887 -0.8501  0.2627  1.1792
  139SOL    HW2  417   2.748   0.116   2.827 -0.1469  2.1846  0.9043
  140SOL     OW  418   1.119   1.353   2.381  0.3460 -0.2028 -0.7080
  140SOL    HW1  419   1.059   1.428   2.421 -2.4464  2.2512 -0.3373
  140SOL    HW2  420   1.210   1.353   2.427 -2.9287 -1.1127  0.1615
  141SOL     OW  421   0.742   0.507   2.234 -0.1931  0.3819  0.3716
  141SOL    HW1  422   0.656   0.514   2.180 -2.4709  2.5644 -1.5436
  141SOL    HW2  423   0.820   0.548   2.183  2.2330  1.7114 -1.5421
  142SOL     OW  424   2.624   2.470   2.795  0.0879 -0.1016 -0.7199
  142SOL    HW1  425   2.693   2.436   2.863 -0.7291 -1.4729  0.5949
  142SOL    HW2  426   2.658   2.562   2.770  0.5288  0.3363 -2.3213
  143SOL     OW  427   0.730   2.030   0.336 -0.4532 -0.7442 -0.0298
  143SOL    HW1  428   0.689   2.118   0.297 -2.0824  1.9423 -1.6707
  143SOL    HW2  429   0.832   2.042   0.352 -0.3980  0.2783 -1.5170
  144SOL     OW  430   1.329   2.501   2.949  0.0981 -0.2661 -0.4381
  144SOL    HW1  431   1.291   2.403   2.936 -0.1081 -2.6153 -1.2468
  144SOL    HW2  432   1.364   2.524   3.041 -0.7923 -0.8254 -2.7730
  145SOL     OW  433   1.524   1.887   2.579  0.0353 -0.0980  0.2584
  145SOL    HW1  434   1.593   1.927   2.639 -2.1844  1.6886 -1.0838
  145SOL    HW2  435   1.559   1.853   2.487 -1.1752 -1.3226 -0.1295
  146SOL     OW  436   2.819   2.850   2.967  0.6033 -0.5443  0.1307
  146SOL    HW1  437   2.872   2.894   3.042 -1.6299  0.6802 -0.4208
  146SOL    HW2  438   2.790   2.921   2.899  0.6399  1.5625 -0.8836
  147SOL     OW  439   2.943   1.422   1.010 -0.4849 -0.2857 -0.0778
  147SOL    HW1  440   3.040   1.457   1.002 -0.4804 -0.9353 -0.7772
  147SOL    HW2  441   2.879   1.497   1.031 -0.1173  1.4062  0.9485
  148SOL     OW  442   1.818   2.725   0.144 -0.7646  0.5236  0.6176
  148SOL    HW1  443   1.725   2.760   0.141  1.8619 -0.8779 -1.3828
  148SOL    HW2  444   1.874   2.757   0.063 -0.1753  2.8270 -1.9929
  149SOL     OW  445   0.423   1.889   2.662 -0.0984 -0.2364  0.0840
  149SOL    HW1  446   0.513   1.858   2.702  1.0251 -0.8713 -0.1748
  149SOL    HW2  447   0.391   1.969   2.716  3.5084 -0.1650  2.7389
  150SOL     OW  448   0.326   2.467   0.328  0.5358  0.0582  0.1051
  150SOL    HW1  449   0.242   2.513   0.293 -1.9894 -0.0171 -0.7071
  150SOL    HW2  450   0.398   2.461   0.255  1.5715 -5.1893  1.7330
  151SOL     OW  451   0.478   1.089   0.340 -0.2475  0.2298  0.3031
  151SOL    HW1  452   0.435   0.996   0.351 -1.1934 -0.5958 -0.9316
  151SOL    HW2  453   0.444   1.146   0.417 -1.8697 -0.4561 -2.6074
  152SOL     OW  454   2.582   2.044   0.529  0.8284  0.2969 -0.0541
  152SOL    HW1  455   2.674   1.996   0.520  0.8557  1.1002  2.4370
  152SOL    HW2  456   2.517   2.020   0.454 -2.2948  1.6646 -0.5717
  153SOL     OW  457   1.777   2.049   0.648 -0.7021 -0.0012 -0.7482
  153SOL    HW1  458   1.871   2.070   0.686  0.8611  1.9338 -0.3584
  153SOL    HW2  459   1.747   2.124   0.585  1.1132 -0.1879 -0.2801
  154SOL     OW  460   0.863   2.515   0.871  0.6701 -0.0755 -0.5015
  154SOL    HW1  461   0.833   2.510   0.777 -0.1467  0.2748  0.6706
  154SOL    HW2  462   0.783   2.535   0.934 -3.2127  0.6556  2.4332
  155SOL     OW  463   2.808   1.701   0.803 -0.1329  0.2363  0.2303
  155SOL    HW1  464   2.736   1.665   0.748  1.2124  2.1420 -0.8019
  155SOL    HW2  465   2.902   1.673   0.769  0.7722 -2.1090  0.6023
  156SOL     OW  466   2.673   2.261   0.122 -0.6641 -0.6609 -0.5355
  156SOL    HW1  467   2.612   2.188   0.080  0.7246 -2.1259 -0.2301
  156SOL    HW2  468   2.622   2.328   0.179  0.0473 -0.7043 -0.0319
  157SOL     OW  469   0.507   2.017   1.372 -0.2857  0.1642 -0.3326
  157SOL    HW1  470   0.606   2.027   1.352 -1.8315  1.8852 -1.3086
  157SOL    HW2  471   0.476   1.919   1.369  0.4858 -2.8073 -3.6359
  158SOL     OW  472   1.510   0.560   0.332  0.2387 -0.5046 -0.2436
  158SOL    HW1  473   1.552   0.600   0.418  1.2321  2.4464  1.0079
  158SOL    HW2  474   1.584   0.549   0.264 -1.5123  1.7764 -1.2783
  159SOL     OW  475   1.297   0.706   0.262 -0.1049  0.6007 -0.0596
  159SOL    HW1  476   1.381   0.666   0.301 -3.5270  2.1534 -0.1600
  159SOL    HW2  477   1.264   0.653   0.180  0.2198 -1.3380 -2.4082
  160SOL     OW  478   0.790   1.304   0.536 -0.5500  0.5085 -0.1310
  160SOL    HW1  479   0.724   1.301   0.616 -1.4828 -0.4748  2.8889
  160SOL    HW2  480   0.884   1.299   0.574  0.2429  0.0956 -0.6055
  161SOL     OW  481   0.127   2.464   2.739  0.2457 -0.2086 -0.5629
  161SOL    HW1  482   0.058   2.428   2.807  2.4770  3.0402  1.6061
  161SOL    HW2  483   0.173   2.387   2.701 -2.6475  4.6901  4.3130
  162SOL     OW  484   0.252   2.483   0.929 -0.1283 -0.4568 -0.0829
  162SOL    HW1  485   0.211   2.461   1.019 -1.4609  1.0543 -2.6313
  162SOL    HW2  486   0.185   2.462   0.855  2.8042  1.4774 -0.4264
  163SOL     OW  487   2.977   0.454   2.779  0.4396 -0.1953  0.2499
  163SOL    HW1  488   2.976   0.540   2.723  2.0648  0.2320 -0.0683
  163SOL    HW2  489   3.058   0.457   2.838 -0.8882  1.5046 -1.9644
  164SOL     OW  490   0.573   0.000   2.750 -0.0600 -0.0038 -0.6202
  164SOL    HW1  491   0.482   3.039   2.766 -1.9935 -1.2611 -0.0729
  164SOL    HW2  492   0.615   3.036   2.674 -0.9151 -0.9483  0.9794
  165SOL     OW  493   2.437   0.580   1.700  0.3937 -0.1527 -0.2651
  165SOL    HW1  494   2.361   0.642   1.737 -1.7024  2.0613  0.9036
  165SOL    HW2  495   2.502   0.637   1.641 -0.5539  3.4638 -0.2109
  166SOL     OW  496   1.852   2.278   1.698 -0.3679 -0.1320 -0.0896
  166SOL    HW1  497   1.827   2.328   1.780 -1.9187 -1.8420 -1.0485
  166SOL    HW2  498   1.932   2.214   1.718 -0.0853  0.9380 -0.1785
  167SOL     OW  499   0.577   1.143   2.369 -0.0748  0.3403 -0.2819
  167SOL    HW1  500   0.565   1.178   2.466 -2.9908  2.6574  1.2961
  167SOL    HW2  501   0.594   1.042   2.363 -1.1662  2.9441 -0.8933
  168SOL     OW  502   2.154   0.056   2.342  0.2965  0.9048 -0.4200
  168SOL    HW1  503   2.093   0.127   2.312  1.9631 -2.3613  1.3176
  168SOL    HW2  504   2.247   0.074   2.312 -1.1980 -0.7092  3.8875
  169SOL     OW  505   0.252   0.886   0.301  0.3496  0.2406 -0.0309
  169SOL    HW1  506   0.315   0.817   0.252  2.2838 -0.0544  0.9384
  169SOL    HW2  507   0.199   0.939   0.227 -0.2714 -2.2580 -2.1726
  170SOL     OW  508   3.058   1.454   1.872  0.8717  0.4343 -0.0781
  170SOL    HW1  509   0.010   1.397   1.796  0.4390  0.1461 -0.5337
  170SOL    HW2  510   2.989   1.523   1.838 -0.3055 -0.1407  2.6911
  171SOL     OW  511   1.086   2.285   2.140 -0.2478  0.0105  0.2049
  171SOL    HW1  512   1.062   2.378   2.170  2.6588  0.5092 -0.5837
  171SOL    HW2  513   1.176   2.292   2.094  1.0111  0.4888  1.3746
  172SOL     OW  514   1.029   2.572   2.194 -0.3366 -1.0193 -0.1393
  172SOL    HW1  515   0.953   2.616   2.136 -0.1959  0.0225  0.6413
  172SOL    HW2  516   1.110   2.636   2.194  2.8658  2.0635  0.1013
  173SOL     OW  517   1.448   2.367   0.667  0.0232 -0.5655  0.4989
  173SOL    HW1  518   1.428   2.276   0.707  3.5271 -1.0212 -3.9178
  173SOL    HW2  519   1.371   2.434   0.699 -1.6508  1.5481 -0.6658
  174SOL     OW  520   2.341   0.110   0.308 -0.0384  0.1990  0.4606
  174SOL    HW1  521   2.369   0.073   0.397  0.1324 -1.6308 -2.1403
  174SOL    HW2  522   2.347   0.208   0.302 -1.1844 -1.5265 -1.2541
  175SOL     OW  523   0.913   1.715   0.538 -0.1245 -0.1294 -0.1521
  175SOL    HW1  524   0.957   1.730   0.450  0.1171  0.8532  2.4863
  175SOL    HW2  525   0.818   1.674   0.527 -0.6715 -0.2251  0.6769
  176SOL     OW  526   0.499   1.543   0.682  0.4343  0.0230 -0.3590
  176SOL    HW1  527   0.554   1.613   0.733 -0.7970  1.5325  1.8046
  176SOL    HW2  528   0.412   1.584   0.641 -3.2600 -1.9073  0.4164
  177SOL     OW  529   1.272   1.235   1.574  0.1358 -0.4520 -0.2512
  177SOL    HW1  530   1.176   1.229   1.610 -0.6238 -0.3134  0.8468
  177SOL    HW2  531   1.337   1.175   1.622 -0.1386  1.0063 -1.5511
  178SOL     OW  532   2.373   1.694   0.545 -0.0103  0.2553  0.3938
  178SOL    HW1  533   2.404   1.783   0.582  0.9723  2.2436 -0.2855
  178SOL    HW2  534   2.394   1.684   0.443  0.5395 -1.6592 -3.1607
  179SOL     OW  535   0.893   2.403   2.711  0.3727 -0.6811 -0.7667
  179SOL    HW1  536   0.909   2.423   2.609 -0.8193  0.6226 -4.4213
  179SOL    HW2  537   0.926   2.477   2.773 -0.9125 -0.5329  0.3861
  180SOL     OW  538   1.930   1.620   2.144 -0.4048 -0.0558  0.0255
  180SOL    HW1  539   1.970   1.716   2.127  3.4953  1.6440 -1.0117
  180SOL    HW2  540   1.954   1.563   2.064 -1.8947 -1.3142  0.5394
  181SOL     OW  541   0.628   0.879   2.353 -0.5329 -0.7874 -0.0509
  181SOL    HW1  542   0.593   0.840   2.267 -3.3053 -0.2599 -1.8749
  181SOL    HW2  543   0.720   0.841   2.373 -0.7201  0.0526 -0.0258
  182SOL     OW  544   2.924   1.041   2.421  0.0371  0.4821 -0.1178
  182SOL    HW1  545   2.851   0.982   2.456  2.9641 -2.7246 -0.8503
  182SOL    HW2  546   3.016   1.022   2.469 -0.7032 -0.7718  0.0559
  183SOL     OW  547   1.471   0.840   2.274 -0.3220 -0.1569  0.2139
  183SOL    HW1  548   1.454   0.746   2.305  2.2026 -0.9932 -2.4949
  183SOL    HW2  549   1.387   0.875   2.229  1.4187  1.4071 -0.8384
  184SOL     OW  550   0.361   0.664   1.763 -0.6590 -0.0573 -0.6098
  184SOL    HW1  551   0.458   0.701   1.782  1.3180 -0.1392  1.7874
  184SOL    HW2  552   0.337   0.590   1.829 -1.2243 -1.5879  2.1438
  185SOL     OW  553   2.044   1.823   0.875 -0.0778 -0.0412  0.0314
  185SOL    HW1  554   2.110   1.863   0.805  3.3624  0.0136  0.6570
  185SOL    HW2  555   2.091   1.817   0.964  2.5551 -0.2914 -1.2785
  186SOL     OW  556   0.308   1.930   0.388  0.5052  0.0665 -0.1647
  186SOL    HW1  557   0.336   1.887   0.301 -1.8791 -0.2095  1.7641
  186SOL    HW2  558   0.218   1.896   0.416  1.3659  0.1384 -0.4130
  187SOL     OW  559   1.888   2.028   0.272  0.5399  0.2075  0.3341
  187SOL    HW1  560   1.983   2.020   0.305  1.9220  2.7193  1.6351
  187SOL    HW2  561   1.870   2.031   0.169 -0.7194 -2.9955 -2.4664
  188SOL     OW  562   0.890   2.229   0.941 -0.2202  0.3152  0.1698
  188SOL    HW1  563   0.971   2.166   0.946  2.0462 -0.0912 -0.2103
  188SOL    HW2  564   0.910   2.326   0.936 -0.1092 -2.8738  0.2442
  189SOL     OW  565   1.922   1.511   2.661 -0.1219  0.3836 -0.4640
  189SOL    HW1  566   2.004   1.456   2.633 -1.8754  1.4412  0.7989
  189SOL    HW2  567   1.840   1.480   2.609  1.0213  4.2153  1.1665
  190SOL     OW  568   1.035   2.045   2.304  0.4682  0.3715  0.3567
  190SOL    HW1  569   1.033   2.062   2.405  0.1516  1.3781  0.5834
  190SOL    HW2  570   1.034   2.124   2.240 -1.7270 -0.4929 -0.7020
  191SOL     OW  571   2.279   0.727   1.284  0.1745  0.0727 -0.0167
  191SOL    HW1  572   2.227   0.750   1.370 -1.6429  1.3730  0.5974
  191SOL    HW2  573   2.362   0.665   1.300 -0.3000 -2.2629 -1.6662
  192SOL     OW  574   2.602   0.400   1.814 -0.2623 -0.3371  0.1184
  192SOL    HW1  575   2.533   0.463   1.780  0.6733  0.5237 -1.8799
  192SOL    HW2  576   2.654   0.438   1.893  2.1339 -2.5606 -0.4642
  193SOL     OW  577   0.833   0.122   0.586 -0.4056 -0.3117  0.5332
  193SOL    HW1  578   0.851   0.060   0.503  1.3866 -2.3815 -3.0623
  193SOL    HW2  579   0.831   0.067   0.672 -0.8281 -2.0879  1.5608
  194SOL     OW  580   1.230   2.412   1.565 -0.3657  0.1171 -0.7597
  194SOL    HW1  581   1.177   2.401   1.478  1.1701  0.0241  1.4429
  194SOL    HW2  582   1.181   2.473   1.630 -0.4376  0.9340 -0.5975
  195SOL     OW  583   2.688   1.056   0.858  0.4525  0.3523  0.3043
  195SOL    HW1  584   2.623   1.120   0.821  0.6735 -0.0265 -0.5648
  195SOL    HW2  585   2.698   0.977   0.795  0.4811 -0.3865 -0.4980
  196SOL     OW  586   1.110   2.158   1.746 -0.5149  0.0449 -0.2384
  196SOL    HW1  587   1.046   2.224   1.703  0.7999  0.5462  0.2673
  196SOL    HW2  588   1.081   2.108   1.831  1.0141  0.9916 -1.1758
  197SOL     OW  589   0.255   0.759   2.398 -0.0230  0.4185 -0.4819
  197SOL    HW1  590   0.240   0.804   2.305  1.0099 -1.2574  0.7245
  197SOL    HW2  591   0.246   0.657   2.393  2.3466  1.6813 -1.1229
  198SOL     OW  592   1.469   0.887   0.099  0.5458 -0.4329 -0.1914
  198SOL    HW1  593   1.418   0.826   0.163 -2.4700 -1.1846 -2.0987
  198SOL    HW2  594   1.428   0.980   0.077  0.9598 -1.5605 -1.9463
  199SOL     OW  595   2.656   0.533   2.041 -0.2324  0.3575 -0.2437
  199SOL    HW1  596   2.654   0.496   2.138  1.9035  0.1217  1.3036
  199SOL    HW2  597   2.607   0.621   2.030 -1.1724 -2.5302  0.1739
  200SOL     OW  598   2.168   2.487   2.416  0.2073 -0.1410 -0.4711
  200SOL    HW1  599   2.213   2.582   2.413 -0.0516  2.8622 -2.9385
  200SOL    HW2  600   2.158   2.451   2.515  1.5026 -0.1052  3.1446
  201SOL     OW  601   2.340   0.162   1.366 -0.0072 -0.0722  0.0212
  201SOL    HW1  602   2.376   0.234   1.429 -1.2030  1.2842  0.8381
  201SOL    HW2  603   2.358   0.064   1.400 -1.6039 -1.9406  0.3177
  202SOL     OW  604   3.020   2.796   0.276 -0.1767 -0.4379 -0.2086
  202SOL    HW1  605   3.017   2.839   0.187  0.4127 -3.4953 -0.2973
  202SOL    HW2  606   3.011   2.864   0.351 -1.4126 -0.4748 -0.9848
  203SOL     OW  607   1.032   2.126   2.799  0.5870 -0.1893  0.2436
  203SOL    HW1  608   0.943   2.172   2.787 -0.9211  0.0535  1.2724
  203SOL    HW2  609   1.046   2.043   2.741 -0.1917  0.2009  0.2482
  204SOL     OW  610   0.505   1.946   2.400  0.3713 -1.3895  0.3618
  204SOL    HW1  611   0.605   1.927   2.412 -0.3520 -1.7101 -1.5409
  204SOL    HW2  612   0.449   1.934   2.484  1.8975  0.7565  2.0715
  205SOL     OW  613   0.931   1.011   1.290  0.0538  0.0334 -0.3899
  205SOL    HW1  614   0.904   0.927   1.244 -1.9593  0.4315  1.9119
  205SOL    HW2  615   1.009   0.992   1.354  2.1564 -0.0807 -1.5762
  206SOL     OW  616   0.163   0.633   2.720 -0.1476 -0.3128 -0.2434
  206SOL    HW1  617   0.065   0.650   2.692 -0.3337  3.6416 -0.2964
  206SOL    HW2  618   0.222   0.602   2.642  0.5720  0.3090 -0.7765
  207SOL     OW  619   1.778   2.198   2.009 -0.2286  0.2287 -0.0152
  207SOL    HW1  620   1.845   2.274   1.988 -0.9904 -0.5673  0.0918
  207SOL    HW2  621   1.718   2.172   1.931 -1.3273  0.5553 -0.0514
  208SOL     OW  622   0.986   2.681   1.320  0.5495 -0.8192 -0.4518
  208SOL    HW1  623   0.888   2.687   1.289 -0.5004  1.3282  1.1102
  208SOL    HW2  624   1.041   2.758   1.278 -0.4405 -0.0901  0.5286
  209SOL     OW  625   1.231   1.339   2.988  0.8624 -0.1392  0.4503
  209SOL    HW1  626   1.266   1.403   3.065  0.0912  2.7103  1.5702
  209SOL    HW2  627   1.210   1.390   2.905  0.3699  3.0076  0.2096
  210SOL     OW  628   2.314   0.632   0.921  0.1794  0.1812  0.0010
  210SOL    HW1  629   2.416   0.633   0.930 -1.5010  1.7282  1.1344
  210SOL    HW2  630   2.281   0.685   0.840  0.1155  2.5949 -1.6646
  211SOL     OW  631   1.447   2.513   0.446  0.0688  0.0404  0.2056
  211SOL    HW1  632   1.366   2.548   0.398 -1.7870 -2.1549 -1.2475
  211SOL    HW2  633   1.437   2.474   0.538 -0.4628  2.0835 -2.5797
  212SOL     OW  634   2.027   2.139   0.809 -0.4660 -0.7724  0.6448
  212SOL    HW1  635   2.090   2.216   0.802  1.3078  2.4717 -0.3588
  212SOL    HW2  636   2.002   2.119   0.900  3.3464  1.3903 -2.1491
  213SOL     OW  637   1.722   0.611   2.843 -0.3191 -0.3737 -0.3120
  213SOL    HW1  638   1.659   0.575   2.910  1.5978 -1.9461 -0.5833
  213SOL    HW2  639   1.723   0.712   2.858 -2.8795 -0.8206  0.7475
  214SOL     OW  640   0.639   1.755   1.854  0.2471  0.0037 -0.0238
  214SOL    HW1  641   0.613   1.834   1.796  2.2844  3.7345 -0.6154
  214SOL    HW2  642   0.669   1.783   1.945  1.6740  0.8874 -0.2571
  215SOL     OW  643   0.034   1.453   0.458 -0.3583  0.3182  0.6812
  215SOL    HW1  644   0.101   1.478   0.383  0.9843  3.0692 -1.4039
  215SOL    HW2  645   0.084   1.397   0.531 -0.1287  1.2388  3.1537
  216SOL     OW  646   0.165   2.867   2.459  0.0268  0.0790  0.3489
  216SOL    HW1  647   0.265   2.842   2.460 -1.8834 -2.5948  1.1848
  216SOL    HW2  648   0.114   2.796   2.512  0.6876 -0.4205  0.1996
  217SOL     OW  649   2.545   1.088   1.284  0.2566 -0.1364 -0.2157
  217SOL    HW1  650   2.497   1.067   1.372 -0.0997  1.3049  3.5408
  217SOL    HW2  651   2.647   1.086   1.299  1.3611 -2.3704 -0.5244
  218SOL     OW  652   1.232   1.618   2.182  0.7129  0.0223  0.2352
  218SOL    HW1  653   1.304   1.627   2.113 -1.9174  0.4422  5.4523
  218SOL    HW2  654   1.168   1.536   2.164 -1.6060 -1.9820 -1.1011
  219SOL     OW  655   2.113   1.484   0.207 -0.2592 -0.0591 -0.4249
  219SOL    HW1  656   2.214   1.467   0.199  1.7090  1.7323 -0.6814
  219SOL    HW2  657   2.065   1.399   0.234 -0.0930 -2.1064 -0.8802
  220SOL     OW  658   2.039   0.974   0.249 -0.4205 -0.4426  0.4680
  220SOL    HW1  659   2.124   0.937   0.210 -0.6319  2.2675 -4.1627
  220SOL    HW2  660   1.984   0.910   0.308  0.2011  0.6705 -0.0836
  221SOL     OW  661   0.105   0.246   0.102  0.3135 -0.0806 -0.3744
  221SOL    HW1  662   0.190   0.189   0.125  1.5458 -3.4884  0.5052
  221SOL    HW2  663   0.039   0.208   0.032 -3.3974 -0.9279 -3.2225
  222SOL     OW  664   1.335   1.511   0.665 -0.1576  0.1817  0.4018
  222SOL    HW1  665   1.411   1.570   0.708  4.3058  4.0207  0.0141
  222SOL    HW2  666   1.240   1.543   0.689 -0.1723 -2.2068  1.1376
  223SOL     OW  667   0.703   0.241   0.059  0.4004 -0.0964 -0.2310
  223SOL    HW1  668   0.701   0.157   0.125  0.2292 -0.9791 -0.4300
  223SOL    HW2  669   0.717   0.217   3.048  0.2830  0.8157  2.9323
  224SOL     OW  670   1.775   0.136   1.425  0.0726  0.1168 -0.0911
  224SOL    HW1  671   1.686   0.103   1.446 -0.5518 -1.3296 -1.5466
  224SOL    HW2  672   1.808   0.113   1.326  2.0512  1.8162 -2.1275
  225SOL     OW  673   0.548   2.489   1.350 -0.3738 -0.5361  0.1840
  225SOL    HW1  674   0.513   2.437   1.269 -0.3576 -1.2367 -1.7283
  225SOL    HW2  675   0.475   2.498   1.424 -1.1400 -2.6762 -2.8537
  226SOL     OW  676   0.880   1.608   0.185 -0.3991  0.5857  0.2880
  226SOL    HW1  677   0.927   1.518   0.194  0.3660  1.5247 -2.3135
  226SOL    HW2  678   0.936   1.682   0.232  2.5830 -0.8976 -0.4198
  227SOL     OW  679   0.876   1.579   0.925  0.1182 -0.4657 -0.1920
  227SOL    HW1  680   0.792   1.626   0.885 -0.8867  2.0186 -1.1982
  227SOL    HW2  681   0.852   1.519   1.002 -0.3830  1.9100  2.2745
  228SOL     OW  682   0.272   1.633   0.569 -0.3117 -0.3078  0.3035
  228SOL    HW1  683   0.207   1.710   0.554 -1.3905 -3.2140  2.2612
  228SOL    HW2  684   0.239   1.551   0.520  0.5627  1.0039  2.0642
  229SOL     OW  685   2.370   0.371   2.729  0.2515 -1.0686 -0.2621
  229SOL    HW1  686   2.276   0.354   2.701  0.7799  1.4378  0.6160
  229SOL    HW2  687   2.389   0.340   2.823 -0.0162  1.1151 -3.6226
  230SOL     OW  688   1.777   1.188   0.496  0.1415  0.2810  0.0709
  230SOL    HW1  689   1.766   1.262   0.564 -0.8414 -2.1812  1.8563
  230SOL    HW2  690   1.695   1.130   0.490  2.1359 -0.4040  0.0983
  231SOL     OW  691   1.311   1.420   2.558 -0.4078 -0.5324 -0.2790
  231SOL    HW1  692   1.373   1.471   2.499 -2.0564 -1.4771  4.0750
  231SOL    HW2  693   1.375   1.357   2.616  2.6755 -2.5505 -0.6665
  232SOL     OW  694   2.437   2.177   0.733 -0.7528  0.1023 -0.0161
  232SOL    HW1  695   2.486   2.158   0.819  1.8004  0.1027 -1.8140
  232SOL    HW2  696   2.485   2.115   0.666 -0.3717 -1.4946 -0.4575
  233SOL     OW  697   0.416   2.430   0.581  1.0968  0.3877 -0.9134
  233SOL    HW1  698   0.504   2.396   0.549 -2.4476  1.0211  1.1727
  233SOL    HW2  699   0.355   2.437   0.500  0.5241  3.4797  0.4112
  234SOL     OW  700   0.557   0.649   2.710  0.3388  0.1205  0.1363
  234SOL    HW1  701   0.506   0.725   2.664  0.7126  0.6728 -1.6138
  234SOL    HW2  702   0.644   0.689   2.745 -0.2986 -0.9139  0.1758
  235SOL     OW  703   2.695   0.413   2.296  0.2886  0.2002  0.8437
  235SOL    HW1  704   2.655   0.323   2.331 -0.8410 -0.8712  3.1123
  235SOL    HW2  705   2.797   0.413   2.312  2.5223 -0.9661 -0.3913
  236SOL     OW  706   1.796   2.677   1.184  0.2271 -0.4289  0.2070
  236SOL    HW1  707   1.864   2.647   1.117  0.3113  0.4219 -1.2459
  236SOL    HW2  708   1.742   2.606   1.235 -1.3927  0.3682 -1.1089
  237SOL     OW  709   0.847   1.842   2.268 -0.0268  0.2128 -0.4762
  237SOL    HW1  710   0.900   1.916   2.318  1.7291 -2.6949 -0.8323
  237SOL    HW2  711   0.815   1.775   2.338 -0.4872  1.2998 -1.6659
  238SOL     OW  712   1.130   0.309   2.067 -0.6332  0.1799 -0.6171
  238SOL    HW1  713   1.136   0.342   2.168  0.8822  0.8546  0.8401
  238SOL    HW2  714   1.184   0.225   2.047  0.0751  0.2940 -0.9408
  239SOL     OW  715   0.424   2.407   2.144  0.0812 -0.2946  0.6271
  239SOL    HW1  716   0.524   2.409   2.145 -2.2363 -0.5067  3.1941
  239SOL    HW2  717   0.392   2.427   2.050 -0.2579 -1.1859  1.8888
  240SOL     OW  718   2.432   2.826   0.387  0.2584 -0.0250 -0.7167
  240SOL    HW1  719   2.375   2.794   0.468  2.2461 -1.9387  2.2062
  240SOL    HW2  720   2.372   2.819   0.305 -1.9481  0.5156  1.4353
  241SOL     OW  721   2.563   1.215   0.716  0.0223 -0.3136  0.1106
  241SOL    HW1  722   2.541   1.302   0.769 -0.8805 -0.0120  1.6516
  241SOL    HW2  723   2.575   1.235   0.618  0.0682 -0.0108 -1.2940
  242SOL     OW  724   1.916   2.439   1.980  0.2113 -0.5517  0.6911
  242SOL    HW1  725   1.970   2.448   2.067  1.0691 -0.2305  0.6984
  242SOL    HW2  726   1.914   2.527   1.929  1.3923 -0.6001 -0.6232
  243SOL     OW  727   0.857   2.669   1.577  0.4158  0.0132  0.4765
  243SOL    HW1  728   0.881   2.658   1.475  0.0058 -0.1349 -0.5759
  243SOL    HW2  729   0.838   2.766   1.603 -0.5544 -1.1599 -1.0678
  244SOL     OW  730   2.155   0.595   2.930 -0.0165  0.3185 -0.1517
  244SOL    HW1  731   2.070   0.606   2.877  0.5641  0.3985 -0.2948
  244SOL    HW2  732   2.232   0.656   2.894 -0.9404  0.4283 -0.1023
  245SOL     OW  733   1.539   0.509   1.245 -0.4817 -0.1223  0.0341
  245SOL    HW1  734   1.537   0.567   1.163 -0.0796 -0.7118  0.5802
  245SOL    HW2  735   1.464   0.442   1.239  0.7381 -0.8507  0.4850
  246SOL     OW  736   1.775   2.439   0.029 -0.2716 -0.0187  0.8595
  246SOL    HW1  737   1.863   2.388   0.021 -0.2627  0.2939 -0.0527
  246SOL    HW2  738   1.774   2.517   3.052 -0.5073 -0.2444 -0.8234
  247SOL     OW  739   0.857   0.762   2.401 -0.4355 -0.5510 -0.0438
  247SOL    HW1  740   0.848   0.695   2.479 -2.3420  2.2336 -1.4454
  247SOL    HW2  741   0.922   0.836   2.421  0.3114 -0.3239  0.4007
  248SOL     OW  742   0.436   2.175   1.858  0.6602 -0.0867 -0.0838
  248SOL    HW1  743   0.404   2.111   1.934 -0.2323 -1.3246  1.7334
  248SOL    HW2  744   0.535   2.159   1.838  2.8751  0.1275  1.0256
  249SOL     OW  745   2.554   0.347   0.483 -0.1132 -0.6413  0.4851
  249SOL    HW1  746   2.495   0.350   0.400 -1.2158  2.8329  0.1420
  249SOL    HW2  747   2.579   0.254   0.507 -2.4181  1.0445 -1.8973
  250SOL     OW  748   2.800   0.281   2.877  0.1061 -0.4205  0.0146
  250SOL    HW1  749   2.775   0.316   2.964  0.4075 -0.5529 -1.2687
  250SOL    HW2  750   2.882   0.334   2.842  0.2138  0.4389 -0.7351
  251SOL     OW  751   1.387   0.729   2.899 -0.1065 -0.3043  0.0299
  251SOL    HW1  752   1.421   0.658   2.963  1.0434  0.9048  0.2072
  251SOL    HW2  753   1.443   0.813   2.906 -1.6185  1.4633 -0.1159
  252SOL     OW  754   1.414   1.917   1.875  0.0686  0.1662  0.5082
  252SOL    HW1  755   1.354   1.938   1.793  1.5936 -0.7485  0.2432
  252SOL    HW2  756   1.393   1.984   1.951  0.5531 -0.8027 -0.9994
  253SOL     OW  757   2.275   2.584   0.922 -0.1160 -0.4416  0.4118
  253SOL    HW1  758   2.326   2.654   0.871 -0.7404  1.2969 -0.9038
  253SOL    HW2  759   2.331   2.521   0.980  0.9288 -1.6032  0.7396
  254SOL     OW  760   2.161   1.244   0.573 -0.0355 -0.1432 -0.1156
  254SOL    HW1  761   2.101   1.229   0.495  0.6082 -0.7365 -0.2361
  254SOL    HW2  762   2.202   1.154   0.598  0.7212  1.2747  0.7376
  255SOL     OW  763   1.411   0.074   1.227 -0.3476 -0.0804  0.3800
  255SOL    HW1  764   1.368   0.003   1.165 -0.3858 -0.1960  0.7216
  255SOL    HW2  765   1.482   0.038   1.286 -4.0376 -2.4390 -3.1468
  256SOL     OW  766   1.482   2.475   1.462 -0.2551  0.5714  0.1106
  256SOL    HW1  767   1.541   2.390   1.441 -0.2815 -0.2027  0.5880
  256SOL    HW2  768   1.392   2.455   1.506 -1.9689 -0.1459  0.1953
  257SOL     OW  769   0.654   2.868   2.603  0.2180 -0.1848 -0.0956
  257SOL    HW1  770   0.708   2.906   2.523 -0.3586 -2.2753 -2.9536
  257SOL    HW2  771   0.714   2.811   2.656 -1.3088  3.9391 -0.6421
  258SOL     OW  772   1.091   2.469   0.387  0.1256  0.1899  0.0356
  258SOL    HW1  773   1.025   2.422   0.322  0.3368 -1.5265  0.5930
  258SOL    HW2  774   1.128   2.403   0.457  1.3016 -0.7931 -3.1224
  259SOL     OW  775   1.532   0.151   2.777  0.6389 -0.7580  0.2695
  259SOL    HW1  776   1.600   0.107   2.836 -1.6270 -0.6309  0.1267
  259SOL    HW2  777   1.577   0.203   2.699  2.0488  1.2696 -0.0000
  260SOL     OW  778   2.466   0.508   1.317  0.1641 -0.1462 -0.5743
  260SOL    HW1  779   2.562   0.491   1.330 -2.8401 -0.3753 -0.9335
  260SOL    HW2  780   2.420   0.481   1.405  0.0935 -0.5175  0.1487
  261SOL     OW  781   0.757   0.552   2.530 -0.2137 -0.4052 -0.4117
  261SOL    HW1  782   0.696   0.602   2.593 -1.8567 -0.9340  3.1611
  261SOL    HW2  783   0.722   0.547   2.435  0.2006  0.1718 -1.1458
  262SOL     OW  784   0.994   2.375   2.443 -0.4052  0.2987  0.0963
  262SOL    HW1  785   0.907   2.333   2.420 -2.6798  0.4632 -0.6316
  262SOL    HW2  786   1.004   2.454   2.380 -0.8413 -3.2988 -0.9021
  263SOL     OW  787   0.149   1.852   2.961  0.3250  0.4264 -0.3778
  263SOL    HW1  788   0.088   1.828   2.879 -0.7766  0.8953 -2.7548
  263SOL    HW2  789   0.160   1.954   2.968 -1.5978 -2.0120  0.0983
  264SOL     OW  790   1.054   1.544   0.703  0.1469  0.1615 -0.1263
  264SOL    HW1  791   1.006   1.555   0.795 -1.0354  0.4793  2.9365
  264SOL    HW2  792   1.005   1.600   0.628 -2.4748  0.3744  0.1760
  265SOL     OW  793   1.134   2.282   0.570 -0.3062 -0.3670  0.0314
  265SOL    HW1  794   1.189   2.210   0.529  2.6144  0.3335  1.1382
  265SOL    HW2  795   1.115   2.263   0.667 -1.5232 -1.2390 -1.7263
  266SOL     OW  796   1.899   0.883   1.066 -0.3065  0.2547  0.1388
  266SOL    HW1  797   1.875   0.792   1.025  2.1713 -1.8162 -0.9315
  266SOL    HW2  798   1.999   0.885   1.085 -2.5274  1.8817  0.6216
  267SOL     OW  799   2.832   1.173   2.701  0.4761 -0.1069 -1.0078
  267SOL    HW1  800   2.871   1.199   2.612 -1.1471 -3.7944 -0.9856
  267SOL    HW2  801   2.733   1.187   2.717 -4.9899 -1.1512  0.1652
  268SOL     OW  802   1.485   3.068   3.068  0.1660  0.5475 -0.0615
  268SOL    HW1  803   1.484   2.962   3.071  0.5432 -3.5077 -0.5813
  268SOL    HW2  804   1.416   0.021   0.043 -2.1197  0.8027  3.3305
  269SOL     OW  805   2.727   0.638   2.575 -0.3517 -0.4070 -0.2292
  269SOL    HW1  806   2.693   0.550   2.613  0.5991 -0.5514  0.1101
  269SOL    HW2  807   2.773   0.625   2.485  0.0809 -0.6986 -1.8202
  270SOL     OW  808   2.896   1.582   0.119 -0.0736  0.3036 -0.3059
  270SOL    HW1  809   2.903   1.488   0.154  2.5460  2.0940  1.1327
  270SOL    HW2  810   2.989   1.612   0.096 -0.5073 -0.5525  0.9059
  271SOL     OW  811   2.571   1.048   2.684 -0.0892  0.6772  0.3027
  271SOL    HW1  812   2.490   1.095   2.652 -0.0899  0.0045 -0.7218
  271SOL    HW2  813   2.552   1.005   2.773  1.7713  3.4607 -2.6242
  272SOL     OW  814   2.909   2.424   2.404  0.2928  0.2946  0.4896
  272SOL    HW1  815   2.988   2.368   2.407 -2.4254  1.6296 -0.0578
  272SOL    HW2  816   2.822   2.368   2.387 -1.2486 -0.1674  0.2460
  273SOL     OW  817   0.357   2.703   0.579  0.4763  0.7863 -0.2850
  273SOL    HW1  818   0.449   2.744   0.591 -1.0034 -0.9731 -1.3349
  273SOL    HW2  819   0.362   2.602   0.582 -0.6144 -0.6935 -2.0555
  274SOL     OW  820   0.805   2.170   0.697  0.0556 -0.6233  0.2252
  274SOL    HW1  821   0.825   2.080   0.665 -2.4025 -0.6280 -0.4667
  274SOL    HW2  822   0.842   2.191   0.788  0.2834  0.6496  1.5582
  275SOL     OW  823   2.400   1.339   0.427  0.5110 -0.1392  0.0803
  275SOL    HW1  824   2.333   1.290   0.488 -2.1027 -2.4412 -0.6937
  275SOL    HW2  825   2.362   1.362   0.337  1.5216  0.6023  3.6313
  276SOL     OW  826   2.580   1.690   1.270 -0.1126  0.1050 -0.2819
  276SOL    HW1  827   2.613   1.660   1.363  0.1331 -2.6309  1.2678
  276SOL    HW2  828   2.501   1.634   1.249  2.1588 -0.7144 -0.9359
  277SOL     OW  829   2.799   0.071   0.772 -0.4372 -0.5918 -0.0070
  277SOL    HW1  830   2.730   0.062   0.841  1.3919  0.1784 -3.6575
  277SOL    HW2  831   2.879   0.014   0.794 -0.2008 -1.2334 -0.9539
  278SOL     OW  832   1.445   0.298   2.263 -0.0136  0.0843 -0.1364
  278SOL    HW1  833   1.411   0.226   2.328 -2.0208 -1.8267  0.9073
  278SOL    HW2  834   1.540   0.284   2.223  2.0597 -2.6387  1.9631
  279SOL     OW  835   1.613   2.690   0.844  0.0414  0.0318 -0.0116
  279SOL    HW1  836   1.648   2.773   0.892  2.6076  3.3004  0.4180
  279SOL    HW2  837   1.525   2.710   0.799  0.5603  1.3014  2.3967
  280SOL     OW  838   0.928   0.904   0.694  0.2202  0.2060 -0.1098
  280SOL    HW1  839   0.876   0.950   0.765 -3.1487 -2.4270  0.6301
  280SOL    HW2  840   0.983   0.968   0.631 -2.3244 -0.5516  0.4362
  281SOL     OW  841   2.512   1.333   2.683 -0.0523  0.7391  0.4404
  281SOL    HW1  842   2.570   1.418   2.678 -0.3008  1.7901 -3.2907
  281SOL    HW2  843   2.491   1.288   2.587 -0.2632 -0.9624 -4.7416
  282SOL     OW  844   2.958   1.342   0.244  0.6676  0.0280  0.0925
  282SOL    HW1  845   2.884   1.273   0.242 -3.1859 -0.6398  0.0096
  282SOL    HW2  846   2.983   1.361   0.341 -0.1892  1.5590  0.2369
  283SOL     OW  847   1.886   2.732   2.526 -0.0665  0.2569 -1.0540
  283SOL    HW1  848   1.949   2.800   2.482  1.2683  0.4811 -1.4547
  283SOL    HW2  849   1.842   2.675   2.455 -0.5827  2.5204 -0.8255
  284SOL     OW  850   0.984   3.054   0.033  0.1676  0.4692  0.3454
  284SOL    HW1  851   1.002   2.962   0.073  1.0568 -2.5203 -0.1900
  284SOL    HW2  852   0.961   0.036   0.103  1.6950  0.5870  1.5883
  285SOL     OW  853   2.332   1.571   2.432 -0.3516 -0.7872 -0.2195
  285SOL    HW1  854   2.276   1.502   2.479 -0.3291  2.0534  0.6882
  285SOL    HW2  855   2.348   1.652   2.495  1.8460  0.4353  0.1930
  286SOL     OW  856   1.393   2.131   0.840 -0.4212 -0.1602 -0.5003
  286SOL    HW1  857   1.400   2.059   0.770 -0.6880 -0.8931  1.3254
  286SOL    HW2  858   1.466   2.134   0.913 -0.0111  2.6505 -0.6845
  287SOL     OW  859   1.699   0.232   0.936 -0.4726  0.3722  0.3913
  287SOL    HW1  860   1.750   0.242   1.021 -0.1646  0.3892 -0.3335
  287SOL    HW2  861   1.755   0.178   0.870  1.2941 -1.6652 -0.4262
  288SOL     OW  862   0.815   2.950   2.394 -0.1894  0.0267  0.0828
  288SOL    HW1  863   0.909   2.923   2.356  1.3767 -2.1668  1.6155
  288SOL    HW2  864   0.741   2.951   2.324 -1.4378  0.2367  1.0197
  289SOL     OW  865   0.175   1.303   0.669  1.1099  0.3834  0.4195
  289SOL    HW1  866   0.172   1.358   0.753  3.1808  0.5090 -0.3831
  289SOL    HW2  867   0.104   1.230   0.669  0.0352 -1.1895  1.4371
  290SOL     OW  868   1.131   2.098   0.913 -0.6492 -0.4291 -0.5091
  290SOL    HW1  869   1.233   2.111   0.886  2.4718  0.1429 -2.7221
  290SOL    HW2  870   1.100   2.004   0.900  0.1302  1.5759 -2.5708
  291SOL     OW  871   1.618   2.781   0.442 -0.2011  0.3759  0.2810
  291SOL    HW1  872   1.698   2.776   0.501 -4.5402  0.8885  1.5499
  291SOL    HW2  873   1.550   2.712   0.460  0.2566  1.2552 -0.8024
  292SOL     OW  874   0.549   0.233   2.286  0.4206  0.1910 -0.5541
  292SOL    HW1  875   0.635   0.272   2.324  0.4178 -0.3442 -0.1135
  292SOL    HW2  876   0.486   0.215   2.367 -0.4641  1.4184  1.6340
  293SOL     OW  877   2.561   1.826   0.851 -0.6945 -0.3615 -0.3163
  293SOL    HW1  878   2.661   1.814   0.830  1.4533 -0.0767  0.4810
  293SOL    HW2  879   2.550   1.892   0.926  0.0720 -0.2490 -0.2562
  294SOL     OW  880   0.791   0.065   2.024 -0.1709 -0.3645 -0.1186
  294SOL    HW1  881   0.883   0.072   2.067  1.4376  0.2544 -1.1291
  294SOL    HW2  882   0.719   0.036   2.083  1.6055 -1.0031 -0.6846
  295SOL     OW  883   1.296   1.490   1.021  0.0198  0.8641 -0.7346
  295SOL    HW1  884   1.379   1.445   1.066  1.7159 -1.7936 -0.2136
  295SOL    HW2  885   1.234   1.413   1.002  1.6769  2.4802 -0.1726
  296SOL     OW  886   2.262   1.953   0.718 -0.2880 -0.4007  0.0191
  296SOL    HW1  887   2.318   1.878   0.756  0.2183 -0.9414 -2.5459
  296SOL    HW2  888   2.317   2.041   0.719  2.8666  0.8201  1.4091
  297SOL     OW  889   2.460   0.008   2.963  0.5197  0.2262 -0.1598
  297SOL    HW1  890   2.401   3.029   2.911  2.8934  1.2579  1.2069
  297SOL    HW2  891   2.482   3.069   3.061 -2.2773  0.6731 -0.0688
  298SOL     OW  892   1.135   0.261   2.366 -0.0013  0.2766  0.5764
  298SOL    HW1  893   1.068   0.301   2.438 -0.5517  2.5440  1.1319
  298SOL    HW2  894   1.223   0.225   2.405  2.4504 -0.8697  0.4031
  299SOL     OW  895   1.120   2.787   1.947  0.3257 -1.3783  0.0097
  299SOL    HW1  896   1.168   2.853   1.886 -1.3947 -0.5073  1.6074
  299SOL    HW2  897   1.186   2.729   1.992 -2.0029  2.4648  0.8485
  300SOL     OW  898   2.619   2.935   1.992 -1.0813 -0.6863 -0.3480
  300SOL    HW1  899   2.628   2.922   2.093  1.2312 -3.6104  1.0682
  300SOL    HW2  900   2.687   3.005   1.959  0.5138  2.8678 -0.9628
  301SOL     OW  901   2.156   0.449   1.886 -0.1678 -0.1322 -0.0823
  301SOL    HW1  902   2.203   0.386   1.958 -1.1798 -2.3930 -0.8739
  301SOL    HW2  903   2.155   0.403   1.796 -1.0663  0.8638  3.2983
  302SOL     OW  904   0.349   2.370   3.010  0.6076  0.2786 -0.0721
  302SOL    HW1  905   0.341   2.272   2.985  0.5228  0.2430 -1.7925
  302SOL    HW2  906   0.260   2.411   3.016  4.5649  1.9316 -0.3826
  303SOL     OW  907   1.658   2.261   1.489  1.0201  0.2819  0.4121
  303SOL    HW1  908   1.601   2.175   1.492 -0.7328 -0.0594  1.2254
  303SOL    HW2  909   1.711   2.268   1.576 -0.7951 -0.2956 -1.3127
  304SOL     OW  910   3.018   0.944   1.236  0.6381  0.2906 -0.0200
  304SOL    HW1  911   3.033   0.859   1.174  0.7114 -1.0138 -1.1798
  304SOL    HW2  912   2.918   0.966   1.251  0.8961  0.8896 -3.0663
  305SOL     OW  913   0.597   0.918   0.834  0.4771 -0.0781 -0.4382
  305SOL    HW1  914   0.605   0.832   0.888  0.8308 -1.7780 -1.1909
  305SOL    HW2  915   0.686   0.966   0.851 -0.4596 -1.3718  1.6106
  306SOL     OW  916   0.214   1.213   2.837  0.0422  0.0604  0.3101
  306SOL    HW1  917   0.255   1.120   2.815  0.8001 -2.6555 -1.3999
  306SOL    HW2  918   0.281   1.276   2.875 -1.2557  0.6276 -2.5384
  307SOL     OW  919   1.128   0.351   1.584  0.0181 -0.1597  0.0226
  307SOL    HW1  920   1.143   0.379   1.683 -2.1351  1.2730  0.5653
  307SOL    HW2  921   1.050   0.285   1.572 -1.0793 -0.1974 -0.1227
  308SOL     OW  922   0.448   0.884   1.189  0.4023  0.4478  0.2295
  308SOL    HW1  923   0.390   0.910   1.111  0.7217  0.0361  1.3962
  308SOL    HW2  924   0.427   0.789   1.220 -0.5967  0.0445  1.5059
  309SOL     OW  925   2.408   0.936   0.903 -0.2166 -0.0308 -0.1193
  309SOL    HW1  926   2.451   0.873   0.832  0.4370  0.7017  1.4915
  309SOL    HW2  927   2.380   1.024   0.856 -1.7495  0.6734  2.4756
  310SOL     OW  928   0.773   1.583   3.030 -0.0002  0.2231  0.3814
  310SOL    HW1  929   0.794   1.608   0.041  0.6341  0.5823 -0.8058
  310SOL    HW2  930   0.694   1.516   3.025 -3.8430 -1.3841  1.4486
  311SOL     OW  931   2.306   2.716   2.403 -0.4137 -0.0016  0.2309
  311SOL    HW1  932   2.378   2.706   2.332  0.8608  1.6012 -1.3237
  311SOL    HW2  933   2.349   2.755   2.487  1.6549  0.5028 -2.3105
  312SOL     OW  934   1.835   2.059   3.086 -0.3401  0.4217  0.4062
  312SOL    HW1  935   1.883   2.002   3.017 -2.3338  0.6710  2.1118
  312SOL    HW2  936   1.884   2.149   0.021 -2.0346  1.1208  3.3159
  313SOL     OW  937   0.696   0.005   0.182 -0.5274  0.7331 -0.6395
  313SOL    HW1  938   0.709   3.029   0.100  0.9608  0.0272 -0.8966
  313SOL    HW2  939   0.627   3.051   0.249 -0.1552  0.6186 -0.3023
  314SOL     OW  940   2.298   1.158   2.773  0.3979  0.3322 -0.0773
  314SOL    HW1  941   2.249   1.129   2.688  1.6374  1.3895  2.2392
  314SOL    HW2  942   2.366   1.233   2.754 -2.4974  0.0381  1.2978
  315SOL     OW  943   1.675   0.293   2.603 -0.2381 -0.3564 -0.1390
  315SOL    HW1  944   1.700   0.242   2.515  0.2160 -2.9491 -1.6022
  315SOL    HW2  945   1.664   0.390   2.578 -2.7018 -0.7207 -2.0026
  316SOL     OW  946   3.038   1.072   0.627  0.4383  0.2534  0.2430
  316SOL    HW1  947   3.004   1.107   0.718  2.2528  2.7502  2.8593
  316SOL    HW2  948   2.968   1.030   0.566  0.5240  2.8685  0.9214
  317SOL     OW  949   0.779   2.708   3.036  0.6564 -0.2101  0.4173
  317SOL    HW1  950   0.696   2.663   3.006 -0.3454  1.0373 -1.4032
  317SOL    HW2  951   0.764   2.809   3.039  1.8911  0.2548  0.4400
  318SOL     OW  952   2.438   2.760   0.803 -0.0708 -0.1201 -0.0124
  318SOL    HW1  953   2.407   2.848   0.767 -1.2630 -0.2774  1.4764
  318SOL    HW2  954   2.508   2.779   0.872  0.4866 -1.3941 -2.7778
  319SOL     OW  955   1.142   1.497   2.777  0.1881 -0.9186 -0.5083
  319SOL    HW1  956   1.043   1.490   2.768  0.5801  1.8155  1.2593
  319SOL    HW2  957   1.183   1.463   2.690  1.7031 -1.3617 -0.6261
  320SOL     OW  958   0.564   1.856   1.019  0.0671  0.1642  0.5369
  320SOL    HW1  959   0.470   1.851   1.056 -1.8402  0.2542 -0.5193
  320SOL    HW2  960   0.594   1.958   1.009  2.8741 -1.0590 -2.7893
  321SOL     OW  961   1.326   2.632   2.107  0.2885 -0.0705  0.1214
  321SOL    HW1  962   1.383   2.575   2.165 -1.4770 -1.5972 -0.6217
  321SOL    HW2  963   1.331   2.732   2.121 -1.8145 -0.0568  0.7542
  322SOL     OW  964   2.371   2.066   2.311 -0.6245  0.0828  0.0330
  322SOL    HW1  965   2.295   2.006   2.333  3.7449  2.5758  3.2006
  322SOL    HW2  966   2.376   2.075   2.209 -0.0916  0.8248 -1.5365
  323SOL     OW  967   2.855   0.337   0.721 -0.7710  0.0986  0.3200
  323SOL    HW1  968   2.818   0.241   0.728 -2.4106  1.3273  3.6892
  323SOL    HW2  969   2.794   0.411   0.758  0.8004  2.8817 -2.0239
  324SOL     OW  970   2.892   2.673   2.505  0.4140 -0.3526 -0.1534
  324SOL    HW1  971   2.976   2.684   2.560 -0.6086  0.0240  0.2849
  324SOL    HW2  972   2.878   2.578   2.474  2.4592 -2.1209  0.0642
  325SOL     OW  973   1.130   0.591   2.494  0.6875  0.0599 -0.6418
  325SOL    HW1  974   1.154   0.590   2.396  0.2616 -0.0732 -0.3940
  325SOL    HW2  975   1.088   0.499   2.515 -1.3269 -1.1341  1.0487
  326SOL     OW  976   2.201   2.394   1.628  0.0473  0.5921  0.0333
  326SOL    HW1  977   2.271   2.432   1.695 -1.4724  4.2935  1.0078
  326SOL    HW2  978   2.142   2.465   1.587 -0.1791 -2.6334  1.2113
  327SOL     OW  979   2.505   3.044   0.146 -0.0263  0.3290 -0.8119
  327SOL    HW1  980   2.475   0.036   0.206  0.1367  1.3671  2.4108
  327SOL    HW2  981   2.435   2.968   0.143  2.9168 -0.5512  0.1874
  328SOL     OW  982   0.328   1.130   1.441  0.1367 -0.2641  0.1629
  328SOL    HW1  983   0.346   1.042   1.496 -1.6497 -0.2571 -1.6243
  328SOL    HW2  984   0.385   1.206   1.483  0.7056  0.6574 -0.2780
  329SOL     OW  985   2.130   0.683   1.514 -0.0050 -0.1908 -0.4913
  329SOL    HW1  986   2.181   0.691   1.604 -3.5732  2.2202  0.9634
  329SOL    HW2  987   2.099   0.587   1.498 -0.0301 -2.6161 -2.2613
  330SOL     OW  988   0.225   0.922   1.024 -0.7509 -0.0710  0.1536
  330SOL    HW1  989   0.257   0.934   0.927  2.0320 -0.0902 -0.2261
  330SOL    HW2  990   0.129   0.896   1.027  0.1698  1.8230  0.9507
  331SOL     OW  991   0.582   1.249   1.838 -0.8724 -0.2130 -0.0326
  331SOL    HW1  992   0.652   1.323   1.841  0.9256  2.3132  1.2417
  331SOL    HW2  993   0.547   1.226   1.744 -1.3705  0.6717 -1.0085
  332SOL     OW  994   0.306   2.504   1.522 -0.4426  0.6238  0.1355
  332SOL    HW1  995   0.233   2.574   1.528  2.4906 -1.9562 -1.4059
  332SOL    HW2  996   0.266   2.410   1.535 -0.1949  2.4768  2.4970
  333SOL     OW  997   3.020   3.050   0.884 -0.1630  0.1041 -0.3619
  333SOL    HW1  998   3.071   0.055   0.901  1.8185 -0.3218  2.9531
  333SOL    HW2  999   0.001   2.975   0.897  1.7444  2.6302  2.5837
  334SOL     OW 1000   0.417   1.231   0.551  0.5418 -0.3308 -0.2942
  334SOL    HW1 1001   0.330   1.275   0.581  1.4053  0.9821 -2.4039
  334SOL    HW2 1002   0.490   1.265   0.614  2.2879  0.1705  1.0667
  335SOL     OW 1003   0.528   2.610   2.922  0.3203  0.2401 -0.1674
  335SOL    HW1 1004   0.518   2.521   2.971 -1.9838  0.8965 -0.1723
  335SOL    HW2 1005   0.456   2.626   2.850 -0.2189  2.8752  0.3077
  336SOL     OW 1006   2.996   2.579   2.166  0.0824  0.7596 -0.0843
  336SOL    HW1 1007   3.002   2.509   2.238 -0.9230 -0.9284  0.2721
  336SOL    HW2 1008   2.932   2.552   2.092  1.7290  3.4040  0.3426
  337SOL     OW 1009   1.624   2.114   1.804  0.2235  0.0849  0.1555
  337SOL    HW1 1010   1.553   2.186   1.781 -1.6424  0.7599 -1.0358
  337SOL    HW2 1011   1.591   2.021   1.811  1.9753  1.9908 -0.3505
  338SOL     OW 1012   0.978   0.371   2.561  0.0039  0.0350 -0.1933
  338SOL    HW1 1013   0.889   0.417   2.544  2.7735 -0.2105  1.8323
  338SOL    HW2 1014   0.981   0.326   2.654  1.9282 -2.0403 -0.0623
  339SOL     OW 1015   0.345   1.175   2.218  0.0274 -0.0198  0.0432
  339SOL    HW1 1016   0.329   1.258   2.155 -0.3211  1.4494  1.1295
  339SOL    HW2 1017   0.438   1.173   2.261  3.4525  0.4075  2.2818
  340SOL     OW 1018   1.989   0.269   0.865 -0.1770 -0.3234  0.0171
  340SOL    HW1 1019   2.054   0.196   0.897  2.0363  2.4486 -0.3347
  340SOL    HW2 1020   1.980   0.341   0.938  0.7426 -2.6690 -0.2946
  341SOL     OW 1021   2.011   1.186   0.815 -0.1929 -0.3888 -0.2618
  341SOL    HW1 1022   1.949   1.227   0.886 -0.3217  1.4096 -1.1205
  341SOL    HW2 1023   2.039   1.256   0.743 -2.0633 -1.0541 -1.1160
  342SOL     OW 1024   2.202   2.684   2.907  0.1223 -0.1589  0.6402
  342SOL    HW1 1025   2.275   2.606   2.899  1.4566  0.7069  2.0315
  342SOL    HW2 1026   2.116   2.655   2.855  0.3923 -2.2447 -1.6598
  343SOL     OW 1027   0.887   2.346   1.726  0.2057 -0.3254 -0.3370
  343SOL    HW1 1028   0.952   2.424   1.739 -0.7934  1.0587 -1.4083
  343SOL    HW2 1029   0.843   2.356   1.637  0.9287 -1.8038 -0.1279
  344SOL     OW 1030   2.321   2.588   1.364 -0.0421 -0.1883 -0.4018
  344SOL    HW1 1031   2.359   2.598   1.462 -1.1822  1.1671  1.1844
  344SOL    HW2 1032   2.371   2.662   1.315 -1.0481  1.0108  1.0554
  345SOL     OW 1033   2.462   2.078   0.093 -0.0403 -0.3494 -0.0228
  345SOL    HW1 1034   2.449   1.993   0.037  0.4150  0.2009 -0.6384
  345SOL    HW2 1035   2.455   2.051   0.195 -0.4234 -2.3199  1.3363
  346SOL     OW 1036   1.702   2.443   1.274  0.3549 -0.2544 -0.7323
  346SOL    HW1 1037   1.730   2.398   1.186 -2.0046  0.1538 -0.2608
  346SOL    HW2 1038   1.702   2.374   1.352  0.3321 -0.1448  2.1549
  347SOL     OW 1039   1.225   1.721   1.703 -0.2475  0.0426  0.2192
  347SOL    HW1 1040   1.229   1.820   1.674 -2.0121 -1.0276 -0.0665
  347SOL    HW2 1041   1.143   1.704   1.761  0.0544  0.4666 -0.2824
  348SOL     OW 1042   0.437   1.959   2.038  0.6310  0.0135  0.3860
  348SOL    HW1 1043   0.393   2.011   2.114  2.3465  0.9204 -0.1831
  348SOL    HW2 1044   0.541   1.950   2.035 -0.4787  0.5883 -3.1257
  349SOL     OW 1045   1.799   1.703   1.356  0.5458  0.1236  0.1052
  349SOL    HW1 1046   1.713   1.658   1.374  0.2407  1.5668 -1.1461
  349SOL    HW2 1047   1.882   1.671   1.408  0.8530  2.8165 -2.0401
  350SOL     OW 1048   2.370   2.307   0.415  0.2171  0.0480  0.2409
  350SOL    HW1 1049   2.384   2.372   0.340 -1.1344 -0.0591  1.6393
  350SOL    HW2 1050   2.445   2.309   0.485  1.7407  2.0846  1.3247
  351SOL     OW 1051   0.948   0.009   1.432  0.0796  0.0505  0.0765
  351SOL    HW1 1052   0.939   0.101   1.473 -0.1919 -0.6187 -2.1690
  351SOL    HW2 1053   0.889   3.079   1.352 -0.1583 -0.5906 -1.4097
  352SOL     OW 1054   0.127   1.502   0.929 -0.3015 -0.2419 -0.1568
  352SOL    HW1 1055   0.197   1.443   0.976 -0.5534  3.3497 -0.2578
  352SOL    HW2 1056   0.097   1.578   0.991  0.4747 -0.4531  1.8317
  353SOL     OW 1057   1.112   1.379   2.118  0.2024  0.6173  0.1036
  353SOL    HW1 1058   1.194   1.339   2.071  1.4151  0.1067 -1.1867
  353SOL    HW2 1059   1.089   1.330   2.204  0.7140  1.3070 -0.1510
  354SOL     OW 1060   1.614   2.761   1.849 -0.1273 -0.2471  0.1796
  354SOL    HW1 1061   1.622   2.839   1.915 -0.0074  2.1120  0.9942
  354SOL    HW2 1062   1.539   2.706   1.875 -0.6447  0.3985  0.8187
  355SOL     OW 1063   2.348   1.380   0.157  0.2994  0.2181 -0.2448
  355SOL    HW1 1064   2.302   1.363   0.070 -1.1628  0.3526  0.1609
  355SOL    HW2 1065   2.417   1.450   0.143 -1.3834  1.1802  1.5397
  356SOL     OW 1066   2.810   1.867   1.516  0.1592  0.2489  0.1083
  356SOL    HW1 1067   2.822   1.891   1.613  0.7951 -1.7478  1.5652
  356SOL    HW2 1068   2.752   1.784   1.516  1.3416  1.3389  0.8475
  357SOL     OW 1069   0.367   2.848   1.432  0.3940 -0.2275 -0.0130
  357SOL    HW1 1070   0.317   2.781   1.372 -0.4319  1.9288  0.5368
  357SOL    HW2 1071   0.304   2.922   1.468  0.3544 -1.1822 -0.9414
  358SOL     OW 1072   2.693   1.619   1.516  0.6360 -0.1656 -0.1988
  358SOL    HW1 1073   2.617   1.595   1.584 -0.6522  2.6771  3.2043
  358SOL    HW2 1074   2.766   1.553   1.515 -0.8891  0.8930  2.1409
  359SOL     OW 1075   2.299   2.936   2.810 -0.3850  0.2740 -0.3795
  359SOL    HW1 1076   2.260   2.854   2.854  1.3846  1.9783 -1.3036
  359SOL    HW2 1077   2.232   3.007   2.796  1.5859  0.2619 -0.7144
  360SOL     OW 1078   1.016   0.002   0.873  0.1203  0.9060 -0.0653
  360SOL    HW1 1079   1.052   0.088   0.830  0.8825 -1.1306  1.9428
  360SOL    HW2 1080   1.045   3.004   0.820  0.5537  1.1803  0.6885
  361SOL     OW 1081   2.142   0.460   0.423  0.3577 -0.2610 -0.0946
  361SOL    HW1 1082   2.094   0.425   0.509 -0.6041  0.8085  1.0244
  361SOL    HW2 1083   2.162   0.563   0.431 -0.2294  4.3072  0.4041
  362SOL     OW 1084   1.618   1.228   0.814 -0.3661 -0.3406  0.0058
  362SOL    HW1 1085   1.659   1.296   0.748  0.1419 -0.3766  2.3328
  362SOL    HW2 1086   1.617   1.269   0.906  1.6168 -0.4869 -1.3278
  363SOL     OW 1087   2.325   1.044   2.246 -0.3503 -0.0416  0.1202
  363SOL    HW1 1088   2.227   1.053   2.233  2.4236 -2.3396  1.6016
  363SOL    HW2 1089   2.377   1.057   2.161  0.3960 -0.3027  1.4974
  364SOL     OW 1090   0.269   0.442   1.178  0.6566  0.1065  0.1029
  364SOL    HW1 1091   0.194   0.509   1.184 -0.7290  1.8709 -1.7851
  364SOL    HW2 1092   0.242   0.346   1.186  0.2755 -0.2890  0.1969
  365SOL     OW 1093   0.678   0.209   2.869 -0.8463 -0.3355  0.5051
  365SOL    HW1 1094   0.641   0.127   2.823 -2.7652  0.8367 -1.5829
  365SOL    HW2 1095   0.779   0.221   2.840  4.4989  1.3670  1.9314
  366SOL     OW 1096   2.003   2.558   2.760  0.3362 -0.4352  0.0508
  366SOL    HW1 1097   1.944   2.597   2.689 -1.8759  0.6536  2.0904
  366SOL    HW2 1098   2.044   2.471   2.730 -0.0217 -0.0947  1.0271
  367SOL     OW 1099   3.033   2.503   0.215 -0.0155 -0.1136  0.1866
  367SOL    HW1 1100   2.989   2.596   0.236 -0.8536 -1.0809  1.5445
  367SOL    HW2 1101   2.990   2.428   0.265  1.9881 -0.5221 -1.1152
  368SOL     OW 1102   3.013   1.262   1.240 -0.5718  0.2986 -0.5170
  368SOL    HW1 1103   2.969   1.312   1.165  1.4552  0.3316 -1.2364
  368SOL    HW2 1104   0.009   1.207   1.212 -0.9410 -1.7753 -0.1232
  369SOL     OW 1105   0.939   0.200   2.759 -0.3337  0.4354  0.2309
  369SOL    HW1 1106   0.940   0.165   2.662  2.0801  0.5825  1.9733
  369SOL    HW2 1107   1.010   0.154   2.812  0.6724  0.8069  3.2774
  370SOL     OW 1108   2.802   0.511   0.404  0.3053 -0.2080 -0.0732
  370SOL    HW1 1109   2.725   0.452   0.429 -2.4105  0.6326 -0.1048
  370SOL    HW2 1110   2.869   0.456   0.352  1.2182  3.8686  2.5139
  371SOL     OW 1111   1.611   2.108   1.025  0.2841  0.2860 -0.1149
  371SOL    HW1 1112   1.674   2.032   0.999 -2.3558  1.3587  1.1609
  371SOL    HW2 1113   1.667   2.195   1.037 -1.2124  2.5807  0.3875
  372SOL     OW 1114   3.001   0.708   2.643 -0.5708 -0.0740  0.1456
  372SOL    HW1 1115   2.939   0.697   2.560 -3.0386 -2.0982 -0.6982
  372SOL    HW2 1116   2.974   0.794   2.691 -2.6163  1.2500 -0.1398
  373SOL     OW 1117   2.807   1.677   1.070  0.0940  0.0412  1.0136
  373SOL    HW1 1118   2.815   1.681   0.967  1.1176  0.1872  2.7972
  373SOL    HW2 1119   2.716   1.650   1.099  1.7719  2.3192  1.7041
  374SOL     OW 1120   0.968   2.586   2.880 -0.2139  0.1811  0.3160
  374SOL    HW1 1121   0.894   2.626   2.932 -2.0666 -0.3793  1.8684
  374SOL    HW2 1122   1.057   2.631   2.912  0.0702 -3.1200  1.3431
  375SOL     OW 1123   0.143   2.830   3.071  0.4631 -0.5199 -0.1359
  375SOL    HW1 1124   0.122   2.890   0.064  2.0916 -0.5435 -1.9241
  375SOL    HW2 1125   0.227   2.848   3.020 -0.6648 -1.0850 -0.5472
  376SOL     OW 1126   3.049   2.210   1.505 -0.0128  0.0746  0.0974
  376SOL    HW1 1127   3.072   2.191   1.600 -0.5315 -0.6547  0.7484
  376SOL    HW2 1128   0.002   2.136   1.451  0.6852  1.1383 -0.1987
  377SOL     OW 1129   1.672   2.170   2.442  0.1841 -0.3326  0.1716
  377SOL    HW1 1130   1.671   2.118   2.534 -0.8683 -1.4947  3.0515
  377SOL    HW2 1131   1.603   2.127   2.380  0.1546 -0.3987 -0.2160
  378SOL     OW 1132   0.496   0.427   2.829 -0.2434  0.3970  0.0686
  378SOL    HW1 1133   0.534   0.506   2.773  1.8500  0.2061  2.8163
  378SOL    HW2 1134   0.569   0.359   2.841 -0.2207 -1.8084 -1.8309
  379SOL     OW 1135   0.600   0.742   0.401  0.2598  0.0018  0.1883
  379SOL    HW1 1136   0.546   0.758   0.487 -0.9209  1.8352  3.4534
  379SOL    HW2 1137   0.692   0.788   0.407  0.1042 -0.4833 -0.9243
  380SOL     OW 1138   3.045   1.865   1.858 -0.0744 -0.3211  0.2994
  380SOL    HW1 1139   2.986   1.784   1.843  2.8038  0.1262 -0.1948
  380SOL    HW2 1140   0.026   1.850   1.938 -0.1820  0.4452  1.0886
  381SOL     OW 1141   0.271   1.124   1.802  0.3525  0.9094 -0.4263
  381SOL    HW1 1142   0.329   1.045   1.771 -0.3547 -1.4947 -0.1149
  381SOL    HW2 1143   0.228   1.163   1.720  1.0657  2.6288 -0.8434
  382SOL     OW 1144   2.153   1.941   0.449 -0.0262 -0.5931 -0.2073
  382SOL    HW1 1145   2.131   1.843   0.445 -2.3728 -0.0540 -1.6630
  382SOL    HW2 1146   2.161   1.955   0.549  0.5370  0.2823 -1.7223
  383SOL     OW 1147   2.849   1.930   2.913  0.2957 -0.0567 -0.3588
  383SOL    HW1 1148   2.845   1.969   3.010 -0.6428  1.0353 -2.0632
  383SOL    HW2 1149   2.840   2.000   2.839  2.0533 -0.5244 -1.2875
  384SOL     OW 1150   0.762   2.175   2.727  0.4227  0.4540  0.0172
  384SOL    HW1 1151   0.690   2.183   2.800  2.4667 -0.8562  1.2181
  384SOL    HW2 1152   0.812   2.262   2.715 -4.3145 -1.1715 -1.5309
  385SOL     OW 1153   2.586   1.540   0.681  0.1415 -0.4645 -0.0383
  385SOL    HW1 1154   2.561   1.508   0.773  0.9836 -2.6235  0.8294
  385SOL    HW2 1155   2.509   1.597   0.639 -1.8911  2.3530 -0.5965
  386SOL     OW 1156   2.165   1.397   1.549  0.6417 -0.1671  0.3105
  386SOL    HW1 1157   2.191   1.359   1.456  0.2214 -2.8556 -0.2416
  386SOL    HW2 1158   2.124   1.493   1.538 -1.5823  0.6869  0.2409
  387SOL     OW 1159   2.625   1.128   2.101 -0.0809 -0.7769  0.2065
  387SOL    HW1 1160   2.559   1.204   2.075  0.5495 -2.7392  2.6902
  387SOL    HW2 1161   2.647   1.130   2.202  0.5144  0.8925  0.7087
  388SOL     OW 1162   2.781   1.340   1.962 -0.3255 -0.4190  0.2779
  388SOL    HW1 1163   2.724   1.260   1.986  1.2669 -1.9777  0.5358
  388SOL    HW2 1164   2.879   1.324   1.996  0.3588 -3.6280 -0.3260
  389SOL     OW 1165   1.948   1.150   1.900 -0.5707 -0.1000  0.2256
  389SOL    HW1 1166   2.034   1.163   1.949 -0.6968  0.7554 -1.1571
  389SOL    HW2 1167   1.952   1.168   1.798 -1.0137  2.5946  0.2086
  390SOL     OW 1168   1.857   0.055   0.741 -0.0310 -0.3039  0.1401
  390SOL    HW1 1169   1.920   0.126   0.777  0.9530 -0.6295  1.3337
  390SOL    HW2 1170   1.796   0.083   0.668  3.2950 -2.6594  1.1720
  391SOL     OW 1171   2.294   1.633   1.330  0.7204 -0.4115 -0.3296
  391SOL    HW1 1172   2.283   1.715   1.389  1.6484  1.1209  0.7407
  391SOL    HW2 1173   2.331   1.555   1.388 -0.3193 -1.5279 -0.5292
  392SOL     OW 1174   2.524   2.559   0.618 -0.5093 -0.0218 -0.1430
  392SOL    HW1 1175   2.501   2.609   0.706 -0.5348 -1.8675  0.8002
  392SOL    HW2 1176   2.621   2.527   0.607  4.7182 -1.6108  0.5422
  393SOL     OW 1177   1.521   1.641   2.711  0.6212  0.2417  0.0640
  393SOL    HW1 1178   1.551   1.547   2.676  0.7071 -1.5010 -2.2233
  393SOL    HW2 1179   1.528   1.712   2.638  1.0738  0.3272  0.6105
  394SOL     OW 1180   0.233   0.057   2.798  0.1091  0.3691 -0.3413
  394SOL    HW1 1181   0.131   0.072   2.804  0.0124  1.0779  0.8480
  394SOL    HW2 1182   0.266   3.062   2.751 -0.4498  1.9971 -2.3185
  395SOL     OW 1183   0.721   0.686   0.958 -0.3686 -0.4675  0.0841
  395SOL    HW1 1184   0.670   0.599   0.948 -1.4448  0.2990 -0.5016
  395SOL    HW2 1185   0.805   0.677   0.898  2.5550 -0.1832  0.6834
  396SOL     OW 1186   1.239   0.730   0.552  0.0507  0.1055 -0.4950
  396SOL    HW1 1187   1.252   0.826   0.591 -0.5142  1.4359 -0.0713
  396SOL    HW2 1188   1.257   0.724   0.450  1.1374  0.1453 -1.2490
  397SOL     OW 1189   0.529   0.567   2.074  0.0864  0.2382  0.3273
  397SOL    HW1 1190   0.454   0.522   2.023 -1.0170  1.3842 -0.0770
  397SOL    HW2 1191   0.500   0.662   2.098  1.7599  3.4649 -1.4027
  398SOL     OW 1192   1.054   0.179   0.255  0.2445  0.0763  0.4842
  398SOL    HW1 1193   1.039   0.276   0.284 -0.3885 -2.7443  1.8712
  398SOL    HW2 1194   1.142   0.164   0.207  0.0976  1.9535  0.3277
  399SOL     OW 1195   2.051   2.740   1.643  0.0701  0.1744 -0.5391
  399SOL    HW1 1196   1.997   2.701   1.720 -0.4157 -1.3893  0.3015
  399SOL    HW2 1197   2.035   2.699   1.548 -2.4619 -1.4833  3.3650
  400SOL     OW 1198   1.005   1.795   2.052 -0.2413 -0.5207 -0.0561
  400SOL    HW1 1199   0.952   1.813   2.137  0.4433 -3.3936  1.7869
  400SOL    HW2 1200   1.085   1.739   2.079 -0.2063  3.1999 -2.5383
  401SOL     OW 1201   0.585   1.164   2.644  0.4094 -0.0600  0.1429
  401SOL    HW1 1202   0.684   1.151   2.672  2.8612  0.7671  0.9173
  401SOL    HW2 1203   0.524   1.104   2.692  2.8782  0.8893  2.5687
  402SOL     OW 1204   2.873   1.993   0.831 -0.5967 -0.1163  0.3076
  402SOL    HW1 1205   2.884   1.894   0.826 -1.0068 -0.2373  2.7773
  402SOL    HW2 1206   2.856   2.011   0.928  1.5652 -2.7325 -0.4160
  403SOL     OW 1207   0.234   0.901   2.160  0.1268  0.3636  0.3443
  403SOL    HW1 1208   0.166   0.874   2.087 -1.7195  0.7390 -1.6149
  403SOL    HW2 1209   0.252   1.000   2.159  2.0732 -2.5455  2.0878
  404SOL     OW 1210   0.304   2.486   1.883  0.2829  0.0055  0.2081
  404SOL    HW1 1211   0.309   2.419   1.810 -2.2193  0.8956 -0.7024
  404SOL    HW2 1212   0.381   2.552   1.876 -1.0179 -0.9271  1.0424
  405SOL     OW 1213   0.357   0.247   2.088  0.0653 -0.1729 -0.5103
  405SOL    HW1 1214   0.447   0.242   2.138  0.8596  0.7270 -1.0602
  405SOL    HW2 1215   0.286   0.192   2.135  1.9480 -0.2525 -3.4050
  406SOL     OW 1216   1.435   1.560   2.353  0.4245  0.2661  0.2077
  406SOL    HW1 1217   1.508   1.635   2.360  0.7856  1.0417 -2.0128
  406SOL    HW2 1218   1.358   1.582   2.289  1.0000  1.1670 -0.2827
  407SOL     OW 1219   1.098   0.911   2.436 -0.3887  0.6765 -0.3743
  407SOL    HW1 1220   1.059   0.954   2.350  0.5363 -2.3917 -1.3414
  407SOL    HW2 1221   1.170   0.843   2.416  0.6976 -0.7961 -2.7636
  408SOL     OW 1222   0.915   0.096   2.505  0.0160  0.1220 -0.4669
  408SOL    HW1 1223   0.912   0.176   2.439 -1.0550  2.4272 -0.4606
  408SOL    HW2 1224   0.879   0.010   2.464  0.4050 -1.3286 -1.7607
  409SOL     OW 1225   0.302   1.753   0.841  0.2225 -0.3731  0.2079
  409SOL    HW1 1226   0.336   1.846   0.819  0.4824 -2.5628 -0.8102
  409SOL    HW2 1227   0.292   1.699   0.758 -0.0285  2.0805  1.2179
  410SOL     OW 1228   2.487   1.137   0.183 -0.6841  0.0125  0.3001
  410SOL    HW1 1229   2.568   1.179   0.234  0.9293 -0.0258 -1.6703
  410SOL    HW2 1230   2.418   1.203   0.157 -0.6288 -1.9402 -0.8897
  411SOL     OW 1231   0.193   0.181   1.233  0.1000 -0.0579  0.0292
  411SOL    HW1 1232   0.106   0.199   1.292 -2.4000 -0.0552 -2.0462
  411SOL    HW2 1233   0.242   0.101   1.268 -2.1080  1.5842  0.5347
  412SOL     OW 1234   1.565   0.894   1.509  0.0047 -0.4095 -0.0961
  412SOL    HW1 1235   1.621   0.909   1.426  1.0809  1.8797  1.5737
  412SOL    HW2 1236   1.538   0.797   1.519  0.2522  1.0317  0.8541
  413SOL     OW 1237   0.810   2.946   1.629 -0.1399  0.1354  0.0937
  413SOL    HW1 1238   0.720   2.910   1.603  2.8175  2.8507  1.4970
  413SOL    HW2 1239   0.856   2.993   1.551  0.1113  0.4386  0.6011
  414SOL     OW 1240   2.776   1.561   2.483  0.0599  0.1265  0.0832
  414SOL    HW1 1241   2.719   1.562   2.568  1.9824  0.7765 -3.5142
  414SOL    HW2 1242   2.824   1.471   2.479  1.7475 -2.3454 -0.1627
  415SOL     OW 1243   0.780   2.343   3.012  0.5137  0.4235 -0.3906
  415SOL    HW1 1244   0.821   2.383   2.931 -0.4517 -1.3678  0.4252
  415SOL    HW2 1245   0.795   2.405   0.009  0.2799  2.6558  0.2307
  416SOL     OW 1246   1.946   2.920   0.302  0.4163 -0.1420  0.5378
  416SOL    HW1 1247   1.933   2.826   0.256  0.6237 -2.4040 -0.8953
  416SOL    HW2 1248   2.011   2.980   0.254  0.8083  0.5596  1.3638
  417SOL     OW 1249   0.295   0.582   0.707 -0.0254 -0.5941 -0.0664
  417SOL    HW1 1250   0.362   0.661   0.702  2.3917  1.7044  1.4141
  417SOL    HW2 1251   0.295   0.531   0.621  3.3102  1.4156 -0.3770
  418SOL     OW 1252   2.525   0.256   0.986  0.0144 -0.2055 -1.2948
  418SOL    HW1 1253   2.427   0.252   1.012 -2.1015  1.6344 -0.7457
  418SOL    HW2 1254   2.551   0.357   0.975  2.2726  0.8404  0.4051
  419SOL     OW 1255   0.244   2.961   0.549  0.3858  0.1647 -0.0572
  419SOL    HW1 1256   0.150   2.985   0.519  1.1415  1.7301  0.0486
  419SOL    HW2 1257   0.274   2.865   0.531 -2.6244 -0.5433  1.4221
  420SOL     OW 1258   0.158   1.388   1.662  0.0031 -0.2342 -0.0602
  420SOL    HW1 1259   0.242   1.442   1.686 -0.7410  0.4865 -1.5068
  420SOL    HW2 1260   0.112   1.422   1.578  1.0562  0.5434  1.4359
  421SOL     OW 1261   1.290   2.863   0.491  0.2699 -0.0065 -0.0788
  421SOL    HW1 1262   1.287   2.962   0.463  1.5872  1.6875 -1.3567
  421SOL    HW2 1263   1.283   2.798   0.415  0.4097 -1.0728 -2.0582
  422SOL     OW 1264   0.242   0.484   1.575  0.4398  0.1529 -0.0747
  422SOL    HW1 1265   0.264   0.564   1.638  0.7683  2.6383 -1.4122
  422SOL    HW2 1266   0.144   0.471   1.567  2.8830 -2.0792  0.0558
  423SOL     OW 1267   1.034   1.237   1.684  0.0412  0.3967  0.0120
  423SOL    HW1 1268   1.020   1.314   1.749 -0.1047 -1.9042 -0.4637
  423SOL    HW2 1269   0.974   1.156   1.711 -0.2985 -0.8687 -0.6434
  424SOL     OW 1270   2.039   1.670   0.016  0.1009 -0.5316 -0.2539
  424SOL    HW1 1271   2.051   1.621   0.103 -0.4826  0.3141 -0.8339
  424SOL    HW2 1272   1.994   1.603   3.036 -4.1050 -2.1531 -0.0140
  425SOL     OW 1273   0.188   0.024   2.140  0.2274 -0.2818  0.0904
  425SOL    HW1 1274   0.117   3.071   2.082  2.0745 -2.4691 -0.0956
  425SOL    HW2 1275   0.150   0.034   2.235 -0.2590  2.9633 -0.3188
  426SOL     OW 1276   0.357   2.911   2.761 -0.3048  0.0227 -0.3460
  426SOL    HW1 1277   0.376   2.900   2.862 -1.5910 -0.5798  3.3152
  426SOL    HW2 1278   0.330   2.823   2.723  0.6750  1.5689 -0.0718
  427SOL     OW 1279   0.999   0.927   2.692  0.1501  0.3014 -0.2374
  427SOL    HW1 1280   0.970   1.024   2.697 -0.0377 -0.4152 -0.8836
  427SOL    HW2 1281   1.040   0.901   2.600  2.0754 -0.0092  0.2256
  428SOL     OW 1282   2.789   1.167   1.644  0.2170 -0.0367 -0.4523
  428SOL    HW1 1283   2.692   1.161   1.684 -3.1868 -0.9074  1.8876
  428SOL    HW2 1284   2.859   1.131   1.710  3.1180  0.0991 -0.0385
  429SOL     OW 1285   2.327   3.036   0.777  0.2244 -0.5620  0.2599
  429SOL    HW1 1286   2.260   3.075   0.841  3.0527 -0.1656  0.2281
  429SOL    HW2 1287   2.286   2.983   0.706  1.3713  1.3813  1.5346
  430SOL     OW 1288   0.740   1.502   2.239 -0.2164  0.3002 -0.1090
  430SOL    HW1 1289   0.651   1.495   2.288  2.3171  0.2055 -0.9703
  430SOL    HW2 1290   0.807   1.546   2.304  1.6416  3.1157  0.8313
  431SOL     OW 1291   2.901   1.458   1.587 -0.5458  0.3110  0.3077
  431SOL    HW1 1292   2.985   1.454   1.529 -0.9052 -2.6065  3.0211
  431SOL    HW2 1293   2.874   1.365   1.616 -0.5886 -0.8455  2.8413
  432SOL     OW 1294   1.058   2.846   2.338  0.0362  0.3463 -0.0089
  432SOL    HW1 1295   1.112   2.919   2.380 -2.1390 -1.0396 -2.0927
  432SOL    HW2 1296   1.061   2.763   2.400 -0.1948  2.4056  2.3353
  433SOL     OW 1297   1.834   0.122   2.055 -0.4763  0.0157 -0.2822
  433SOL    HW1 1298   1.927   0.125   2.018 -2.4769  0.9328  0.9099
  433SOL    HW2 1299   1.797   0.214   2.074  0.5686  0.0942  1.2506
  434SOL     OW 1300   0.635   2.516   2.507 -0.6819 -0.2023  0.2036
  434SOL    HW1 1301   0.652   2.578   2.431 -1.2517 -0.5050 -0.0628
  434SOL    HW2 1302   0.686   2.544   2.589  0.3988 -1.9973 -2.7458
  435SOL     OW 1303   0.372   2.871   0.220  0.0572 -0.2038  0.0543
  435SOL    HW1 1304   0.276   2.905   0.209 -1.2393 -2.0811 -0.6677
  435SOL    HW2 1305   0.424   2.926   0.288  0.0358 -1.1411 -1.8571
  436SOL     OW 1306   0.659   0.480   1.847  0.0189 -0.2134 -0.0310
  436SOL    HW1 1307   0.627   0.558   1.903  2.6198  0.4591 -1.3404
  436SOL    HW2 1308   0.712   0.406   1.892 -0.6416  0.3669 -1.4699
  437SOL     OW 1309   0.270   2.266   2.605  0.7191  0.2375  0.1522
  437SOL    HW1 1310   0.339   2.283   2.529 -0.4914  0.2517  0.6476
  437SOL    HW2 1311   0.314   2.216   2.682 -0.8541  0.9039 -0.6509
  438SOL     OW 1312   0.917   1.366   1.467  0.5146 -0.3514  0.5838
  438SOL    HW1 1313   0.904   1.457   1.516  1.9289  0.8631 -1.0672
  438SOL    HW2 1314   0.959   1.301   1.530  1.8182  1.9757 -0.7460
  439SOL     OW 1315   2.505   0.831   2.363 -0.4359  0.1409  0.2029
  439SOL    HW1 1316   2.564   0.871   2.429 -1.7007 -3.2680 -1.1320
  439SOL    HW2 1317   2.451   0.906   2.320  0.4081  1.2007 -0.6998
  440SOL     OW 1318   0.488   0.742   0.138  0.0754 -0.4692  0.6517
  440SOL    HW1 1319   0.442   0.648   0.129 -0.7789 -1.1362 -0.4782
  440SOL    HW2 1320   0.537   0.755   0.225  0.3660  2.7846 -0.5535
  441SOL     OW 1321   1.053   2.420   1.349  0.2472  0.0292  0.2115
  441SOL    HW1 1322   1.021   2.517   1.340 -0.4609  0.8645 -2.8888
  441SOL    HW2 1323   0.970   2.360   1.360 -1.4800  0.1313  1.7951
  442SOL     OW 1324   1.971   1.602   0.701  0.4203  0.0880 -0.1905
  442SOL    HW1 1325   1.957   1.681   0.762  0.6184 -0.4750 -1.7959
  442SOL    HW2 1326   2.067   1.573   0.693 -3.3266 -0.1415 -0.4587
  443SOL     OW 1327   2.565   2.001   2.635 -0.0485  0.3833 -0.0657
  443SOL    HW1 1328   2.612   2.093   2.637  2.6085 -0.1038 -3.2729
  443SOL    HW2 1329   2.566   1.955   2.541 -0.1299 -2.1300  0.0631
  444SOL     OW 1330   1.527   1.335   2.799  0.1886 -0.3380  0.3649
  444SOL    HW1 1331   1.555   1.344   2.892 -0.7684  2.2423  0.0146
  444SOL    HW2 1332   1.451   1.268   2.780  1.6167 -1.0285  1.7138
  445SOL     OW 1333   2.506   2.689   2.224  0.6155 -0.4720  0.3829
  445SOL    HW1 1334   2.578   2.615   2.209  0.1671 -2.0602  0.1118
  445SOL    HW2 1335   2.551   2.780   2.230 -0.7524 -1.7206  1.8999
  446SOL     OW 1336   0.715   0.851   1.608  0.1680 -0.3049  0.0870
  446SOL    HW1 1337   0.681   0.941   1.573  1.4078  1.2412 -2.6874
  446SOL    HW2 1338   0.721   0.788   1.528  1.9799  0.0802  1.4591
  447SOL     OW 1339   0.833   1.050   0.933 -0.4150 -1.2972  0.0652
  447SOL    HW1 1340   0.780   1.052   1.021 -2.5914  3.7279 -0.0435
  447SOL    HW2 1341   0.936   1.055   0.943  1.8062 -0.0831  1.7562
  448SOL     OW 1342   0.861   0.907   2.035  0.0046 -0.3424  0.4255
  448SOL    HW1 1343   0.762   0.920   2.057  3.1888  0.0495 -1.3394
  448SOL    HW2 1344   0.884   0.809   2.053 -0.6635  0.6782  1.5866
  449SOL     OW 1345   3.057   1.988   2.583  0.5660 -0.1384  0.3440
  449SOL    HW1 1346   2.992   1.926   2.536 -2.0532  1.8213  0.0672
  449SOL    HW2 1347   0.067   1.953   2.580  1.7010 -2.4361  0.0628
  450SOL     OW 1348   2.552   1.873   1.955 -0.0266  0.0622  0.5090
  450SOL    HW1 1349   2.643   1.834   1.951  0.7640 -0.8046 -1.0714
  450SOL    HW2 1350   2.493   1.818   2.018  3.1373 -0.4577  1.0908
  451SOL     OW 1351   2.462   1.239   1.085  0.0901  0.5612  0.2926
  451SOL    HW1 1352   2.395   1.172   1.043  0.8855 -2.0890 -2.6763
  451SOL    HW2 1353   2.516   1.191   1.159  1.6904 -1.5304 -0.6781
  452SOL     OW 1354   0.457   1.343   1.556 -0.0571  0.0124  1.0713
  452SOL    HW1 1355   0.405   1.430   1.574 -2.4939  2.7612  0.5826
  452SOL    HW2 1356   0.547   1.356   1.508  0.4591  1.7846 -0.1741
  453SOL     OW 1357   0.251   1.265   0.961  0.4361 -0.5619  0.0903
  453SOL    HW1 1358   0.309   1.196   0.907  1.6356  1.6140 -0.8755
  453SOL    HW2 1359   0.220   1.231   1.048 -1.1277  2.7386 -1.6820
  454SOL     OW 1360   0.255   1.461   0.294 -0.6402 -0.3031 -0.7799
  454SOL    HW1 1361   0.355   1.459   0.282  1.4032 -3.8200 -0.3271
  454SOL    HW2 1362   0.214   1.457   0.200  0.4411 -1.8215  0.7205
  455SOL     OW 1363   1.696   0.973   0.882  0.3362  0.2668  0.3598
  455SOL    HW1 1364   1.673   1.069   0.862  1.0490  0.0209  0.0444
  455SOL    HW2 1365   1.756   0.968   0.960 -2.3806  0.5079 -1.3277
  456SOL     OW 1366   1.658   2.416   0.813  0.2854  0.4644  0.2428
  456SOL    HW1 1367   1.647   2.516   0.833  0.9493 -0.6817 -0.0769
  456SOL    HW2 1368   1.575   2.383   0.761 -0.3116 -0.1951  1.9170
  457SOL     OW 1369   1.927   0.187   2.627 -0.3597 -0.1572  0.0454
  457SOL    HW1 1370   1.913   0.099   2.586 -1.9157  2.6021 -1.4358
  457SOL    HW2 1371   1.844   0.245   2.624 -0.1619 -0.9740  0.8934
  458SOL     OW 1372   2.472   0.499   3.069  0.4192  0.4912 -0.6620
  458SOL    HW1 1373   2.433   0.418   3.020 -1.5575 -0.7009 -0.9061
  458SOL    HW2 1374   2.575   0.493   3.084 -0.8666  0.5876  2.0224
  459SOL     OW 1375   3.024   1.042   2.159  0.1154 -0.1375  0.9580
  459SOL    HW1 1376   3.025   1.143   2.128  2.4513  3.6471 -2.3623
  459SOL    HW2 1377   2.989   1.035   2.255  3.7384  0.0344  2.3730
  460SOL     OW 1378   0.267   0.828   3.038  0.5728  0.8646 -0.5182
  460SOL    HW1 1379   0.261   0.751   2.971 -0.5534  0.0915  1.6655
  460SOL    HW2 1380   0.346   0.810   0.017  4.0446 -0.2755  1.4040
  461SOL     OW 1381   0.070   2.387   0.751 -0.1115  0.0479  1.1625
  461SOL    HW1 1382   0.112   2.291   0.773 -1.7867 -0.5553 -0.5678
  461SOL    HW2 1383   0.063   2.400   0.651  1.6821 -1.5317 -2.3857
  462SOL     OW 1384   0.019   2.956   1.571  0.7043 -0.1609 -0.1713
  462SOL    HW1 1385   3.071   2.917   1.657  1.0910  1.4291  0.6876
  462SOL    HW2 1386   3.042   2.940   1.492  1.2350 -0.6690  1.6215
  463SOL     OW 1387   2.107   2.007   1.903 -0.1293  0.5758  1.0459
  463SOL    HW1 1388   2.130   2.099   1.867 -2.6911 -1.8734  0.5233
  463SOL    HW2 1389   2.059   1.957   1.835 -0.6790  2.0288 -1.8632
  464SOL     OW 1390   0.313   2.948   1.099 -0.4996 -0.2084  0.3440
  464SOL    HW1 1391   0.383   3.006   1.146  1.1069  0.1798 -0.8946
  464SOL    HW2 1392   0.286   2.983   1.008  1.1274 -0.4019  2.2049
  465SOL     OW 1393   0.566   0.195   1.413 -0.1265  0.0688  0.0676
  465SOL    HW1 1394   0.644   0.167   1.473 -0.8171 -1.9201 -0.3145
  465SOL    HW2 1395   0.476   0.197   1.459  3.5206 -0.8054 -4.3157
  466SOL     OW 1396   1.251   1.886   2.302  0.0403 -0.3093 -0.1919
  466SOL    HW1 1397   1.230   1.790   2.269 -1.1300 -1.3157 -0.1202
  466SOL    HW2 1398   1.168   1.945   2.290 -0.9329  1.1539 -1.0306
  467SOL     OW 1399   3.063   1.644   0.736  0.4336 -0.3291 -0.5494
  467SOL    HW1 1400   0.017   1.560   0.773 -2.4110  0.6200  0.0508
  467SOL    HW2 1401   0.038   1.692   0.672 -0.5928  2.6343  2.0216
  468SOL     OW 1402   2.324   2.122   2.641  0.2455  0.0904 -0.1736
  468SOL    HW1 1403   2.417   2.086   2.656  1.6091 -2.7712 -2.3605
  468SOL    HW2 1404   2.294   2.113   2.544  0.1111  0.3660 -2.1454
  469SOL     OW 1405   0.992   2.045   0.406  0.3064  0.3972 -0.0588
  469SOL    HW1 1406   1.032   2.135   0.369  0.8703  0.5786 -2.3144
  469SOL    HW2 1407   0.999   2.034   0.506 -2.6995  3.3620 -2.4331
  470SOL     OW 1408   2.028   1.652   1.546 -0.0419 -0.0017  0.1492
  470SOL    HW1 1409   2.114   1.701   1.563  0.5024  0.3030 -1.3055
  470SOL    HW2 1410   1.943   1.675   1.603  0.2408  0.3211 -0.3960
  471SOL     OW 1411   0.519   2.456   0.136  0.1380 -0.3424  0.1866
  471SOL    HW1 1412   0.536   2.559   0.138  3.7564  2.3024  0.8657
  471SOL    HW2 1413   0.448   2.422   0.068  0.3349 -1.8966 -0.3525
  472SOL     OW 1414   2.595   1.926   2.364 -0.6153  0.4595  0.5078
  472SOL    HW1 1415   2.517   1.991   2.339  0.5869  2.0585 -3.1741
  472SOL    HW2 1416   2.627   1.878   2.278 -2.6505 -1.5023 -1.9369
  473SOL     OW 1417   1.292   2.541   0.776  0.3426 -0.7799  0.4370
  473SOL    HW1 1418   1.237   2.513   0.857  0.4062 -2.2973 -4.2312
  473SOL    HW2 1419   1.319   2.635   0.781 -1.5229  0.4990 -2.0999
  474SOL     OW 1420   2.921   3.086   1.394  0.3816  0.6770  0.3595
  474SOL    HW1 1421   2.919   3.053   1.295  2.2729  0.5016  1.1038
  474SOL    HW2 1422   2.831   3.077   1.445 -3.6445 -0.2213  1.3647
  475SOL     OW 1423   1.651   2.649   1.568 -0.2565 -0.2085 -0.0819
  475SOL    HW1 1424   1.593   2.569   1.537  0.2973  0.5190 -1.1791
  475SOL    HW2 1425   1.634   2.677   1.661  0.9509 -1.5295  0.6586
  476SOL     OW 1426   0.344   0.395   0.915 -0.2050 -0.5658  0.3435
  476SOL    HW1 1427   0.327   0.446   1.000  2.5646  0.6468 -2.0164
  476SOL    HW2 1428   0.302   0.446   0.839 -1.4733 -0.6883  0.2432
  477SOL     OW 1429   0.650   2.125   1.007  0.2406 -0.1068  0.0082
  477SOL    HW1 1430   0.607   2.144   0.917  0.0075 -2.2508  2.5270
  477SOL    HW2 1431   0.747   2.152   1.007 -4.2166 -0.2014  2.9610
  478SOL     OW 1432   0.854   2.707   2.665 -0.4325  0.1513  0.2181
  478SOL    HW1 1433   0.925   2.685   2.593  1.2390 -2.2071  0.2871
  478SOL    HW2 1434   0.878   2.661   2.752  1.2116 -0.9233 -0.1479
  479SOL     OW 1435   0.273   0.489   1.954 -0.0464 -0.0073 -0.0491
  479SOL    HW1 1436   0.176   0.485   1.916 -1.2852  0.5145 -0.2503
  479SOL    HW2 1437   0.275   0.420   2.025 -0.6303 -2.2445 -1.7770
  480SOL     OW 1438   0.127   2.124   2.980  0.1918  0.7821 -0.5408
  480SOL    HW1 1439   0.122   2.112   3.078 -0.8379 -0.7452 -2.1140
  480SOL    HW2 1440   0.057   2.189   2.951  1.1433  1.2781 -2.0944
  481SOL     OW 1441   1.657   2.999   2.093 -0.2969  0.1303 -0.5455
  481SOL    HW1 1442   1.677   2.950   2.182  3.0899 -0.7439  1.9016
  481SOL    HW2 1443   1.719   3.079   2.092 -0.4405  0.9647  0.5361
  482SOL     OW 1444   1.676   1.792   2.873  0.2382 -0.0936  0.5699
  482SOL    HW1 1445   1.647   1.791   2.970  1.7972 -0.8669  0.2574
  482SOL    HW2 1446   1.616   1.734   2.815  1.5629 -0.3465  1.5649
  483SOL     OW 1447   1.103   2.656   2.542 -0.0693  0.3855 -0.4291
  483SOL    HW1 1448   1.123   2.561   2.583  0.9143 -0.7923 -0.4068
  483SOL    HW2 1449   1.154   2.731   2.584 -1.8491  0.9170  0.5617
  484SOL     OW 1450   0.615   2.875   0.851  0.0486  0.0381  0.1277
  484SOL    HW1 1451   0.601   2.961   0.910  0.6444 -2.5033 -0.8972
  484SOL    HW2 1452   0.557   2.796   0.881  0.4064 -0.7507 -0.1444
  485SOL     OW 1453   2.160   0.749   0.732 -0.6636 -0.0991  0.1909
  485SOL    HW1 1454   2.080   0.808   0.737  3.0094 -0.9805 -0.2623
  485SOL    HW2 1455   2.179   0.712   0.641  1.1248  1.6276 -1.1240
  486SOL     OW 1456   1.892   2.685   1.876 -0.7111 -0.4617 -0.2867
  486SOL    HW1 1457   1.917   2.718   1.970  1.4424  0.6441  0.2129
  486SOL    HW2 1458   1.804   2.724   1.844  2.1472  0.4192  1.2428
  487SOL     OW 1459   1.283   1.904   0.680 -0.3956  0.4212  0.0250
  487SOL    HW1 1460   1.191   1.926   0.655  0.6601 -1.9575 -0.5713
  487SOL    HW2 1461   1.287   1.826   0.747  1.4245  2.3553 -0.9622
  488SOL     OW 1462   2.077   0.297   0.224 -0.4088  0.3007 -0.7062
  488SOL    HW1 1463   2.091   0.362   0.300  2.9987 -1.6927 -1.8122
  488SOL    HW2 1464   2.081   0.338   0.130 -0.5659 -3.5144 -0.8783
  489SOL     OW 1465   1.947   2.915   0.567  0.5692  0.4112 -0.4065
  489SOL    HW1 1466   1.924   3.003   0.615 -0.6589 -0.4994 -0.5835
  489SOL    HW2 1467   1.945   2.920   0.467 -1.5642  1.1625 -0.0582
  490SOL     OW 1468   1.719   2.694   2.908 -0.0509 -0.4667  0.3866
  490SOL    HW1 1469   1.818   2.720   2.929  3.1871 -2.4788  0.8560
  490SOL    HW2 1470   1.667   2.712   2.992 -0.4199  1.1473 -2.4395
  491SOL     OW 1471   0.834   0.354   1.181  0.3743  0.5355  0.1821
  491SOL    HW1 1472   0.822   0.268   1.130 -1.8857  1.7649 -0.6747
  491SOL    HW2 1473   0.744   0.385   1.212 -0.5673  0.2685 -2.1219
  492SOL     OW 1474   1.712   3.083   0.319  0.6592  0.0524  0.5115
  492SOL    HW1 1475   1.620   3.041   0.292  2.1390 -1.9933 -0.2518
  492SOL    HW2 1476   1.789   3.018   0.303 -3.2368 -0.7194 -0.4217
  493SOL     OW 1477   1.907   2.236   2.806  0.4582 -0.2948  0.1089
  493SOL    HW1 1478   1.872   2.306   2.740  1.0180 -0.4165 -2.9710
  493SOL    HW2 1479   1.961   2.272   2.879 -2.5171 -0.4201 -3.6191
  494SOL     OW 1480   0.375   1.079   0.816  0.3914 -0.2593  0.0136
  494SOL    HW1 1481   0.462   1.032   0.830 -1.8421 -2.0773  2.0165
  494SOL    HW2 1482   0.364   1.118   0.724 -1.4205  2.4942  1.1134
  495SOL     OW 1483   2.937   0.109   1.681 -0.7579 -0.1923  0.7966
  495SOL    HW1 1484   3.033   0.112   1.717  2.3744 -1.9415  2.8372
  495SOL    HW2 1485   2.934   0.049   1.599 -0.0368 -0.2228 -1.2816
  496SOL     OW 1486   2.687   2.463   2.147 -0.7420  0.3656 -0.1786
  496SOL    HW1 1487   2.750   2.499   2.079 -0.3634 -0.8333  2.7261
  496SOL    HW2 1488   2.609   2.431   2.090 -1.2397  0.1935  1.6581
  497SOL     OW 1489   1.608   1.142   2.438  0.2512  0.1489 -0.1237
  497SOL    HW1 1490   1.565   1.198   2.361  2.1429 -1.0467 -1.0152
  497SOL    HW2 1491   1.548   1.063   2.467 -0.3359 -2.0015  1.0665
  498SOL     OW 1492   0.665   1.755   0.778 -0.0081  0.0102  0.5079
  498SOL    HW1 1493   0.623   1.798   0.864 -3.7783  1.1936  0.3106
  498SOL    HW2 1494   0.642   1.814   0.698 -2.2390 -0.2528 -0.6808
  499SOL     OW 1495   0.070   1.650   1.147 -0.0090  0.3982 -0.1776
  499SOL    HW1 1496   3.070   1.703   1.147  1.2389 -1.7310  1.0181
  499SOL    HW2 1497   0.113   1.660   1.239 -0.4025 -1.2104  0.6590
  500SOL     OW 1498   1.404   2.554   0.116  0.6565  0.9639 -0.2267
  500SOL    HW1 1499   1.472   2.491   0.160  0.8139 -2.3796 -0.0977
  500SOL    HW2 1500   1.323   2.561   0.178  2.1315  2.5270 -0.2575
  501SOL     OW 1501   2.069   2.746   1.000 -0.5183  0.8152  0.2304
  501SOL    HW1 1502   2.146   2.691   0.972 -1.3015  0.1044 -1.1945
  501SOL    HW2 1503   2.013   2.776   0.922  0.3293 -0.0840  1.4897
  502SOL     OW 1504   0.321   0.907   1.590 -0.4434  0.2564  0.4746
  502SOL    HW1 1505   0.258   0.894   1.510 -0.2113  1.9951 -0.0075
  502SOL    HW2 1506   0.333   0.819   1.634 -0.2765  1.3975 -2.3488
  503SOL     OW 1507   2.101   0.049   1.709  0.3257  0.6150  0.2210
  503SOL    HW1 1508   2.031   0.030   1.635  0.6169  0.9848 -1.4818
  503SOL    HW2 1509   2.172   3.064   1.687 -2.2995  1.0727  0.2633
  504SOL     OW 1510   2.087   0.836   1.965 -0.2953  0.3770 -0.6479
  504SOL    HW1 1511   2.045   0.826   2.054  0.4780  0.0188  1.7471
  504SOL    HW2 1512   2.020   0.880   1.905  2.0503  1.0984  2.6545
  505SOL     OW 1513   1.255   0.046   2.020 -0.4218  0.0556  0.3617
  505SOL    HW1 1514   1.252   0.005   1.928 -1.2470  1.6558  1.6069
  505SOL    HW2 1515   1.337   0.008   2.073 -2.1658 -0.4826  1.1977
  506SOL     OW 1516   0.416   0.137   1.836  0.1955 -0.2596 -0.0298
  506SOL    HW1 1517   0.397   0.193   1.920 -2.8403 -0.4568 -2.1676
  506SOL    HW2 1518   0.416   0.037   1.864 -0.4220  1.4712 -1.8519
  507SOL     OW 1519   1.691   0.175   3.038  0.3816  0.1047  0.1844
  507SOL    HW1 1520   1.740   0.214   0.032 -1.7814 -0.5162 -0.1498
  507SOL    HW2 1521   1.620   0.106   3.068  2.3554  2.1557  0.9623
  508SOL     OW 1522   2.339   0.601   2.591 -0.6110 -0.0785 -0.3821
  508SOL    HW1 1523   2.369   0.520   2.642  1.3227 -1.0379  1.1475
  508SOL    HW2 1524   2.375   0.588   2.498 -0.8696  0.4700 -0.0379
  509SOL     OW 1525   0.706   1.487   1.950  0.6241  0.4922 -0.2216
  509SOL    HW1 1526   0.700   1.492   2.051  0.2592 -1.2628 -2.4536
  509SOL    HW2 1527   0.650   1.560   1.908 -1.2647  0.3726  0.4332
  510SOL     OW 1528   3.034   0.407   0.909  0.6446  0.1929 -0.2826
  510SOL    HW1 1529   0.008   0.476   0.870 -2.2870 -0.8509  0.8949
  510SOL    HW2 1530   2.952   0.395   0.848  1.2528  0.3508 -1.4155
  511SOL     OW 1531   1.689   1.487   0.978 -0.1522  0.1116  0.1064
  511SOL    HW1 1532   1.634   1.514   0.896 -0.5107 -0.1932 -0.4866
  511SOL    HW2 1533   1.737   1.567   1.013 -1.3454 -2.5230 -0.3353
  512SOL     OW 1534   0.740   1.138   0.331  0.0673  0.4431  0.1781
  512SOL    HW1 1535   0.639   1.114   0.331  0.5445  2.1764  0.3150
  512SOL    HW2 1536   0.755   1.214   0.393 -0.3320 -0.5279 -2.2372
  513SOL     OW 1537   0.417   2.274   0.824  0.0156  0.0328 -0.1452
  513SOL    HW1 1538   0.345   2.318   0.873  1.4775 -1.8014 -0.6327
  513SOL    HW2 1539   0.446   2.336   0.748  0.9989  0.8686  2.5201
  514SOL     OW 1540   0.131   2.107   0.160 -0.0421 -0.3531  0.0101
  514SOL    HW1 1541   0.082   2.021   0.184  0.7138 -0.7919 -0.3218
  514SOL    HW2 1542   0.163   2.142   0.257 -0.0878 -0.3188  1.9336
  515SOL     OW 1543   2.840   0.235   0.101  0.2249  0.1822  0.0302
  515SOL    HW1 1544   2.803   0.152   0.154 -0.6202 -4.6836  1.2318
  515SOL    HW2 1545   2.914   0.280   0.159  1.1031  0.3925 -0.1564
  516SOL     OW 1546   2.084   2.975   1.114 -0.1812 -0.4701 -0.2647
  516SOL    HW1 1547   2.099   2.972   1.216 -1.7078 -1.1081  0.1594
  516SOL    HW2 1548   2.079   2.885   1.069  0.2587  0.5069  2.6593
  517SOL     OW 1549   1.263   1.489   0.147  0.6654  0.0282  0.6601
  517SOL    HW1 1550   1.301   1.462   0.237 -0.9760 -0.9598  0.1160
  517SOL    HW2 1551   1.161   1.486   0.155 -1.4018  1.8362 -1.2534
  518SOL     OW 1552   1.453   0.666   1.540 -0.2738  0.1499  0.0065
  518SOL    HW1 1553   1.495   0.606   1.473 -0.5075  2.3030 -2.3146
  518SOL    HW2 1554   1.353   0.674   1.526 -1.0747  0.3271  1.9904
  519SOL     OW 1555   2.840   2.334   0.340  0.0576  0.1214  0.6023
  519SOL    HW1 1556   2.790   2.299   0.256  1.0621  0.4586 -1.3762
  519SOL    HW2 1557   2.793   2.312   0.431 -0.7534  2.0830  0.2975
  520SOL     OW 1558   2.104   2.276   1.839 -0.5132  0.1543  0.3233
  520SOL    HW1 1559   2.131   2.309   1.744  2.5469 -0.4570 -1.8118
  520SOL    HW2 1560   2.094   2.351   1.902  1.1645 -0.8637  0.8126
  521SOL     OW 1561   1.416   2.888   2.130 -0.3278  0.4722 -0.3088
  521SOL    HW1 1562   1.403   2.882   2.232 -0.5175  2.7480 -0.4441
  521SOL    HW2 1563   1.503   2.935   2.103 -0.6492  0.9170 -4.3718
  522SOL     OW 1564   2.763   0.068   1.922  0.1664  0.2504 -0.2830
  522SOL    HW1 1565   2.804   0.113   2.002 -0.2997  1.0224 -2.0773
  522SOL    HW2 1566   2.814   0.094   1.841 -3.8961 -0.3708  0.5592
  523SOL     OW 1567   1.263   1.975   1.643 -0.2395  0.2380  0.1073
  523SOL    HW1 1568   1.208   2.052   1.681 -2.5107  2.8857  0.6146
  523SOL    HW2 1569   1.261   1.983   1.541 -2.5828  2.2775 -1.7605
  524SOL     OW 1570   2.002   2.269   0.058 -0.0982 -0.2268  0.3993
  524SOL    HW1 1571   2.098   2.255   0.021  5.0853  0.5300  0.0776
  524SOL    HW2 1572   2.014   2.335   0.138  0.0083  1.9842 -0.5228
  525SOL     OW 1573   2.853   0.952   0.410 -0.3135 -0.4054  0.3357
  525SOL    HW1 1574   2.913   0.886   0.366  0.5355  0.0753 -0.4135
  525SOL    HW2 1575   2.770   0.908   0.452  0.7952  0.4241 -4.2249
  526SOL     OW 1576   1.118   2.825   0.871  0.2139  0.0022 -0.2967
  526SOL    HW1 1577   1.203   2.848   0.814  1.4943 -0.1122 -0.9005
  526SOL    HW2 1578   1.131   2.728   0.895  1.9702  3.5538 -2.9921
  527SOL     OW 1579   2.216   1.501   0.677  0.4109 -0.0960  0.1601
  527SOL    HW1 1580   2.221   1.404   0.640 -0.1082  0.8265 -2.1209
  527SOL    HW2 1581   2.263   1.564   0.612 -0.9731 -1.3502 -2.0476
  528SOL     OW 1582   0.440   0.872   2.563  0.1253  0.5624 -0.3993
  528SOL    HW1 1583   0.510   0.901   2.499 -1.1501  1.7975  1.5096
  528SOL    HW2 1584   0.353   0.849   2.507 -1.4211 -1.3381 -3.4634
  529SOL     OW 1585   0.567   1.389   3.050 -0.1098  0.2816  0.3724
  529SOL    HW1 1586   0.478   1.421   3.019 -0.8372  2.3503  1.4601
  529SOL    HW2 1587   0.581   1.293   3.023  2.2248  0.2865 -0.0154
  530SOL     OW 1588   1.475   1.039   1.996  0.2956  0.1483 -0.2192
  530SOL    HW1 1589   1.568   1.001   1.966  2.7693 -3.2092  0.7106
  530SOL    HW2 1590   1.442   1.003   2.087 -2.0586  1.8251  0.5940
  531SOL     OW 1591   1.259   2.258   2.821 -0.0954  0.0323  0.2923
  531SOL    HW1 1592   1.175   2.205   2.819  1.4827  1.3807  1.0894
  531SOL    HW2 1593   1.337   2.200   2.852 -2.3383  0.9941  3.5666
  532SOL     OW 1594   2.359   0.676   0.176  0.2037  0.2281 -0.0311
  532SOL    HW1 1595   2.361   0.775   0.155 -0.0766  0.7302  2.3787
  532SOL    HW2 1596   2.387   0.616   0.100 -2.8777  0.3382 -0.4385
  533SOL     OW 1597   0.026   0.498   1.852  0.2870 -0.0542 -0.3367
  533SOL    HW1 1598   0.010   0.476   1.754 -1.0806  1.3808 -1.8879
  533SOL    HW2 1599   3.035   0.552   1.888  0.1142 -2.0121  1.2220
  534SOL     OW 1600   1.814   0.229   0.199 -0.0213  0.3084 -0.2218
  534SOL    HW1 1601   1.761   0.156   0.243 -2.1351 -1.7492  1.1456
  534SOL    HW2 1602   1.913   0.234   0.224 -1.9225  1.4117 -1.0855
  535SOL     OW 1603   0.511   0.349   0.199  0.5657 -0.0038 -0.1466
  535SOL    HW1 1604   0.578   0.306   0.136 -2.7389  0.6099  1.4269
  535SOL    HW2 1605   0.549   0.399   0.280  0.7631 -1.1476  1.2913
  536SOL     OW 1606   0.360   1.583   1.644 -0.2856 -0.5453  0.0251
  536SOL    HW1 1607   0.285   1.648   1.653  0.4787 -2.5422 -2.6879
  536SOL    HW2 1608   0.457   1.626   1.622  2.7653  2.4516  2.0385
  537SOL     OW 1609   0.510   2.672   1.874 -0.2489  0.2478 -0.2032
  537SOL    HW1 1610   0.570   2.628   1.800  0.5326 -1.6159 -1.8803
  537SOL    HW2 1611   0.559   2.743   1.930  3.1599  1.0730  0.3617
  538SOL     OW 1612   3.031   1.923   0.206  0.0699  0.4219 -0.5010
  538SOL    HW1 1613   3.078   1.835   0.179  0.2015 -1.7868  3.2981
  538SOL    HW2 1614   2.951   1.937   0.148 -0.2726 -0.7020 -1.2320
  539SOL     OW 1615   2.751   0.730   2.860 -0.0476  0.3196 -0.1849
  539SOL    HW1 1616   2.765   0.671   2.780 -1.0983  1.0016  1.2400
  539SOL    HW2 1617   2.809   0.696   2.940  1.7951 -1.9929  2.5794
  540SOL     OW 1618   1.738   0.861   0.087 -0.1370  0.3069 -0.0562
  540SOL    HW1 1619   1.761   0.870   3.079  0.0390  0.6083  0.6270
  540SOL    HW2 1620   1.635   0.871   0.089 -2.2082 -0.3249  1.4116
  541SOL     OW 1621   0.756   0.506   1.581  0.1536  0.1173  0.0866
  541SOL    HW1 1622   0.686   0.510   1.660  1.0391 -1.2077 -0.6103
  541SOL    HW2 1623   0.717   0.558   1.501 -0.0358 -0.5275  0.9028
  542SOL     OW 1624   1.748   2.345   2.241  0.0216 -0.3007 -0.4023
  542SOL    HW1 1625   1.765   2.290   2.153  1.5069  0.7577 -2.0444
  542SOL    HW2 1626   1.721   2.284   2.317 -1.3663  1.6866 -1.8792
  543SOL     OW 1627   0.876   2.852   1.006  0.2517  0.1369  0.0418
  543SOL    HW1 1628   0.803   2.856   0.941  0.7269 -1.0449  0.1805
  543SOL    HW2 1629   0.961   2.830   0.958 -3.9662  0.2823  2.1173
  544SOL     OW 1630   2.859   1.518   2.214 -0.0664 -0.2607 -0.0951
  544SOL    HW1 1631   2.898   1.426   2.214 -0.7052  1.3619  0.1890
  544SOL    HW2 1632   2.813   1.532   2.304 -0.3782  1.1859 -1.1631
  545SOL     OW 1633   1.582   1.998   1.472 -0.6350 -0.2729  0.0376
  545SOL    HW1 1634   1.518   2.013   1.396  1.2093 -1.5520  1.8788
  545SOL    HW2 1635   1.543   1.923   1.533 -0.5037 -0.1527 -0.2605
  546SOL     OW 1636   0.354   0.203   2.453 -0.2186 -0.0844 -0.0126
  546SOL    HW1 1637   0.277   0.149   2.422  2.1933  1.8258 -0.2058
  546SOL    HW2 1638   0.331   0.258   2.536 -1.6401  0.3383  0.2495
  547SOL     OW 1639   1.374   0.215   0.599 -0.4180 -0.4985  0.0890
  547SOL    HW1 1640   1.276   0.232   0.617 -0.2646  1.1551 -0.6460
  547SOL    HW2 1641   1.420   0.206   0.689 -2.2550 -0.2408 -2.4724
  548SOL     OW 1642   1.461   2.069   2.916  0.0417  0.4455 -0.6319
  548SOL    HW1 1643   1.410   1.988   2.948  0.0468  1.8815 -2.4220
  548SOL    HW2 1644   1.517   2.119   2.990  1.1086  2.7813  0.2961
  549SOL     OW 1645   1.792   1.156   0.199 -0.0719  0.7423  0.4917
  549SOL    HW1 1646   1.813   1.061   0.165 -0.5860 -3.1359  0.3169
  549SOL    HW2 1647   1.811   1.163   0.298  0.9944 -0.1706 -0.6593
  550SOL     OW 1648   2.380   2.050   0.348 -0.1117  0.5311  0.0338
  550SOL    HW1 1649   2.291   2.023   0.394 -0.8173  0.4000  0.0765
  550SOL    HW2 1650   2.397   2.151   0.356 -1.9868 -3.7797 -2.8699
  551SOL     OW 1651   1.618   0.165   1.753 -0.4291 -0.7425  0.4349
  551SOL    HW1 1652   1.681   0.129   1.824  1.5719 -0.8080 -2.6892
  551SOL    HW2 1653   1.567   0.088   1.715  1.6828  0.0138  1.5058
  552SOL     OW 1654   3.016   2.350   2.870  0.1058 -0.2291 -0.3637
  552SOL    HW1 1655   2.961   2.285   2.808  0.0013 -0.8543  0.0677
  552SOL    HW2 1656   2.959   2.395   2.939  2.4375  0.8283  0.3185
  553SOL     OW 1657   2.893   2.495   0.827  0.3014 -0.0280  0.1591
  553SOL    HW1 1658   2.996   2.485   0.816 -0.3945 -1.7548 -0.8664
  553SOL    HW2 1659   2.850   2.404   0.845 -1.3446 -0.6350  0.2617
  554SOL     OW 1660   2.192   1.680   1.884 -0.6961  0.3462  0.4713
  554SOL    HW1 1661   2.218   1.705   1.980  0.8289  0.3427  0.4665
  554SOL    HW2 1662   2.135   1.598   1.894 -0.5116  0.6274 -0.9467
  555SOL     OW 1663   1.481   2.063   2.241 -0.1458 -0.2518  0.6218
  555SOL    HW1 1664   1.413   2.006   2.284  1.3661 -0.5778  0.2985
  555SOL    HW2 1665   1.439   2.147   2.205  0.5249 -1.6072  2.5114
  556SOL     OW 1666   1.132   1.602   1.465 -0.3481 -0.2296 -0.6911
  556SOL    HW1 1667   1.154   1.618   1.560 -0.4789  3.6494 -0.2465
  556SOL    HW2 1668   1.211   1.549   1.420 -0.5698  0.0990 -0.8009
  557SOL     OW 1669   1.503   2.986   1.662 -0.4431  0.8219 -0.2934
  557SOL    HW1 1670   1.593   2.979   1.705  1.8983  0.2848  0.1155
  557SOL    HW2 1671   1.427   2.956   1.725 -3.2239 -0.0205  1.6969
  558SOL     OW 1672   0.600   3.078   2.202 -0.8444 -0.1658  0.3947
  558SOL    HW1 1673   0.511   3.032   2.218  1.7571 -2.6087 -0.8540
  558SOL    HW2 1674   0.597   0.091   2.235  3.3954 -1.3553 -0.6277
  559SOL     OW 1675   1.990   2.502   0.210  0.0548 -0.0517  0.9827
  559SOL    HW1 1676   1.919   2.563   0.163 -3.0932 -0.1478  0.4960
  559SOL    HW2 1677   1.955   2.470   0.303 -0.0807  0.2542 -0.2828
  560SOL     OW 1678   1.300   2.106   0.459  0.0908  0.7479 -0.3108
  560SOL    HW1 1679   1.354   2.032   0.503  0.1700 -1.1471  1.2590
  560SOL    HW2 1680   1.330   2.118   0.361 -2.8920 -1.0996 -0.1442
  561SOL     OW 1681   1.341   0.255   2.956 -0.8615 -0.3211  0.8210
  561SOL    HW1 1682   1.297   0.329   2.899  0.7519  0.3103 -1.7969
  561SOL    HW2 1683   1.416   0.216   2.902 -0.7778  1.1958  1.6528
  562SOL     OW 1684   0.184   1.563   1.980 -0.5376 -0.0727 -0.1371
  562SOL    HW1 1685   0.103   1.527   1.936  2.2730  0.1992  0.3385
  562SOL    HW2 1686   0.251   1.489   2.000  2.1639  2.6259 -2.2830
  563SOL     OW 1687   1.278   2.015   2.545 -0.2596 -0.1186  0.0085
  563SOL    HW1 1688   1.364   2.004   2.598  1.1064  1.2819 -0.7466
  563SOL    HW2 1689   1.282   1.979   2.452  0.3216  2.4889 -2.1157
  564SOL     OW 1690   2.899   1.217   0.841 -0.1953 -0.2895  0.9318
  564SOL    HW1 1691   2.814   1.166   0.857 -0.6733 -2.3817  0.4832
  564SOL    HW2 1692   2.907   1.293   0.913  4.1313  0.4633 -0.0694
  565SOL     OW 1693   0.356   1.171   0.098  0.5835 -0.0315  0.0404
  565SOL    HW1 1694   0.259   1.159   0.095  0.4782  0.3682 -1.9882
  565SOL    HW2 1695   0.395   1.149   0.191 -0.0981 -1.6130  0.2123
  566SOL     OW 1696   2.459   2.805   2.634 -0.3887 -0.2019  0.1431
  566SOL    HW1 1697   2.544   2.759   2.677  2.3778  1.5326  1.7620
  566SOL    HW2 1698   2.403   2.841   2.710 -0.3750  0.0263 -0.0869
  567SOL     OW 1699   1.498   1.381   1.153 -0.2565 -0.1064  0.7804
  567SOL    HW1 1700   1.566   1.431   1.094  0.3128  0.6149 -2.7321
  567SOL    HW2 1701   1.545   1.297   1.195 -0.1018  1.6155  1.0224
  568SOL     OW 1702   1.365   1.135   2.669  0.5303 -0.3154 -0.6066
  568SOL    HW1 1703   1.270   1.155   2.643  3.7386  0.8330 -0.5302
  568SOL    HW2 1704   1.395   1.060   2.610 -1.7433  0.9443 -0.3934
  569SOL     OW 1705   2.267   1.769   0.129 -0.0965  0.2376  0.2463
  569SOL    HW1 1706   2.335   1.806   0.063 -1.9348  1.3773 -1.6386
  569SOL    HW2 1707   2.183   1.757   0.070 -3.5581 -1.1368  1.6715
  570SOL     OW 1708   0.001   2.479   1.690  0.3189  0.1760  0.0572
  570SOL    HW1 1709   0.022   2.546   1.612 -0.8018 -0.1187  0.5027
  570SOL    HW2 1710   0.051   2.508   1.775 -1.2832 -1.1707  0.5214
  571SOL     OW 1711   2.811   1.992   1.774  0.0296 -0.5176 -0.1467
  571SOL    HW1 1712   2.905   1.975   1.811  0.3010 -0.4196  0.5096
  571SOL    HW2 1713   2.748   2.050   1.832 -2.0225  0.1486  3.0353
  572SOL     OW 1714   1.734   2.207   0.412 -0.3533 -0.2921  0.3795
  572SOL    HW1 1715   1.668   2.259   0.351  1.2154  1.8597 -1.3341
  572SOL    HW2 1716   1.774   2.125   0.367  1.0371 -0.0692  0.7463
  573SOL     OW 1717   1.402   1.785   0.421 -0.5372  0.4594  0.5331
  573SOL    HW1 1718   1.499   1.808   0.449  3.3349  3.8774 -0.4839
  573SOL    HW2 1719   1.335   1.778   0.491  2.9489  2.6579  0.3150
  574SOL     OW 1720   1.557   2.988   1.391  0.1974  0.1479 -0.2494
  574SOL    HW1 1721   1.651   2.965   1.373 -0.7806 -0.7245 -0.4398
  574SOL    HW2 1722   1.540   2.990   1.497 -2.0285 -1.1966  1.0311
  575SOL     OW 1723   0.666   1.314   1.393 -0.1782  0.7853 -0.0560
  575SOL    HW1 1724   0.737   1.337   1.460 -0.2471 -0.5029  2.1640
  575SOL    HW2 1725   0.690   1.338   1.299 -2.3700  0.2287  1.4506
  576SOL     OW 1726   2.736   0.684   1.315  0.1627 -0.1671  0.2340
  576SOL    HW1 1727   2.726   0.589   1.282  0.1868  1.8059 -0.4714
  576SOL    HW2 1728   2.739   0.748   1.241  0.8712  3.8833 -3.0195
  577SOL     OW 1729   1.474   0.918   2.526 -0.5333 -0.4562 -0.2057
  577SOL    HW1 1730   1.410   0.865   2.584  2.0062  1.2224 -0.9087
  577SOL    HW2 1731   1.463   0.891   2.426 -0.9474  0.1487 -2.1109
  578SOL     OW 1732   2.151   1.337   2.531 -0.1530 -0.0916  0.9020
  578SOL    HW1 1733   2.108   1.257   2.580  1.2469  1.6287 -0.0677
  578SOL    HW2 1734   2.074   1.384   2.476  0.4483 -0.0068  0.6494
  579SOL     OW 1735   0.882   1.966   1.510  0.0840  0.0124 -0.4574
  579SOL    HW1 1736   0.815   1.933   1.578 -0.4336  0.4436 -0.0181
  579SOL    HW2 1737   0.885   1.907   1.426 -1.7152 -2.1251  0.1506
  580SOL     OW 1738   1.369   2.083   0.173 -0.0919  0.0640  0.6038
  580SOL    HW1 1739   1.450   2.130   0.132  1.0308  1.9389 -0.4787
  580SOL    HW2 1740   1.355   1.985   0.145  1.2124 -0.6147 -1.3615
  581SOL     OW 1741   0.938   0.560   1.812 -0.5783  0.2540 -0.0662
  581SOL    HW1 1742   0.865   0.551   1.741  0.1253  3.0924  2.4632
  581SOL    HW2 1743   0.926   0.477   1.869  1.1775  2.4712  3.2287
  582SOL     OW 1744   0.953   1.292   1.215 -0.8198  0.1639  0.5586
  582SOL    HW1 1745   0.949   1.189   1.229  0.2214 -1.9479 -2.0717
  582SOL    HW2 1746   0.960   1.335   1.309 -1.9337 -1.1925  0.9634
  583SOL     OW 1747   0.627   1.063   2.020  0.0501  0.1178 -0.0859
  583SOL    HW1 1748   0.602   1.133   1.954  1.9633 -2.1849  1.6325
  583SOL    HW2 1749   0.600   1.095   2.113  1.0760  0.8367 -1.4744
  584SOL     OW 1750   1.904   2.420   0.464  0.1515  0.0586  0.1276
  584SOL    HW1 1751   1.993   2.389   0.499 -0.4507 -0.2237  1.6675
  584SOL    HW2 1752   1.830   2.348   0.449 -0.8596 -2.4907 -1.0199
  585SOL     OW 1753   1.931   0.177   2.897  0.2583 -0.2808  0.2906
  585SOL    HW1 1754   1.830   0.179   2.921 -3.7959  0.4168  2.1877
  585SOL    HW2 1755   1.945   0.184   2.797 -1.9287 -1.0129  0.2078
  586SOL     OW 1756   3.068   2.068   0.629  0.2568 -0.4346 -0.1530
  586SOL    HW1 1757   3.061   2.169   0.596  1.1870  1.0734 -1.7404
  586SOL    HW2 1758   2.991   2.043   0.695  0.5533 -1.2052  3.7025
  587SOL     OW 1759   1.766   1.793   0.290 -0.1637 -0.7332  0.0864
  587SOL    HW1 1760   1.836   1.725   0.326  3.0578  3.1857  2.2394
  587SOL    HW2 1761   1.802   1.890   0.288 -0.6381 -0.5568  0.4592
  588SOL     OW 1762   0.169   0.239   0.707  0.1251 -0.2565 -0.5216
  588SOL    HW1 1763   0.160   0.222   0.808  1.4791  0.6667  1.1290
  588SOL    HW2 1764   0.242   0.305   0.699 -1.5316 -1.5427 -2.2137
  589SOL     OW 1765   1.126   1.024   0.956 -0.0253 -0.0493  0.0422
  589SOL    HW1 1766   1.161   0.984   0.872 -1.7969 -0.2633  2.5516
  589SOL    HW2 1767   1.170   0.969   1.029  1.0850  0.3316 -1.6078
  590SOL     OW 1768   1.400   1.155   0.001 -0.5540  0.4225  0.8105
  590SOL    HW1 1769   1.445   1.199   0.084 -1.9743 -0.7225  1.8952
  590SOL    HW2 1770   1.344   1.228   3.044 -0.6177 -1.2207  3.8475
  591SOL     OW 1771   2.656   2.325   2.360 -0.1539  0.2222  0.0446
  591SOL    HW1 1772   2.557   2.335   2.384 -0.1231 -1.2727  1.9728
  591SOL    HW2 1773   2.678   2.360   2.267 -1.0003  2.1109  0.2762
  592SOL     OW 1774   1.815   1.994   1.315  0.1590 -0.0943 -0.0899
  592SOL    HW1 1775   1.812   1.890   1.326 -3.0858 -5.8090  0.8859
  592SOL    HW2 1776   1.746   2.040   1.378  0.0603  2.0514  1.6912
  593SOL     OW 1777   0.841   0.107   1.045  0.1522 -0.0971  0.5838
  593SOL    HW1 1778   0.829   0.027   1.105  1.9192  2.1383 -0.9778
  593SOL    HW2 1779   0.920   0.090   0.983 -2.0927 -1.0711 -1.1923
  594SOL     OW 1780   2.933   0.626   2.385  0.5273 -0.2671  0.4550
  594SOL    HW1 1781   2.961   0.674   2.298 -1.7261  0.2797  0.3678
  594SOL    HW2 1782   2.939   0.522   2.374  1.0725 -3.1870 -0.6222
  595SOL     OW 1783   0.731   2.657   1.246 -0.2475 -0.2051  0.2935
  595SOL    HW1 1784   0.727   2.648   1.144 -0.8484 -2.4401  1.1679
  595SOL    HW2 1785   0.667   2.595   1.292 -0.6261  1.0992  1.2328
  596SOL     OW 1786   0.136   0.886   1.390 -0.1579  0.2806 -0.1508
  596SOL    HW1 1787   0.171   0.794   1.355 -2.7699 -3.1013 -0.6507
  596SOL    HW2 1788   0.061   0.918   1.327 -0.9867  0.6809  1.1738
  597SOL     OW 1789   1.601   1.758   0.062  0.3233  0.0096  0.5470
  597SOL    HW1 1790   1.509   1.809   0.066  2.2907 -1.3317  1.6052
  597SOL    HW2 1791   1.654   1.765   0.148  1.7942 -0.9321  0.7172
  598SOL     OW 1792   0.546   2.813   1.624 -0.6059  0.2430  0.0372
  598SOL    HW1 1793   0.492   2.829   1.538 -1.6980 -0.1393 -1.1925
  598SOL    HW2 1794   0.540   2.717   1.647 -0.2147  1.7383 -1.8586
  599SOL     OW 1795   2.415   1.877   3.005  0.2567  0.2844  0.6779
  599SOL    HW1 1796   2.337   1.925   2.957 -2.2929  0.7707 -0.0071
  599SOL    HW2 1797   2.467   1.820   2.937 -0.2524  0.8740 -2.2865
  600SOL     OW 1798   0.901   0.794   0.185  0.2366  0.1730 -0.0805
  600SOL    HW1 1799   0.972   0.863   0.212 -1.0837  1.3085 -1.5441
  600SOL    HW2 1800   0.889   0.714   0.244 -0.3240 -0.7005  0.3962
  601SOL     OW 1801   0.882   0.719   0.483 -0.1477 -0.1706 -0.2486
  601SOL    HW1 1802   0.884   0.806   0.540  1.1139  0.3584  4.2272
  601SOL    HW2 1803   0.936   0.645   0.526  0.5606  3.1951  0.6303
  602SOL     OW 1804   1.368   2.798   0.751 -0.7423  0.7066  0.3635
  602SOL    HW1 1805   1.440   2.866   0.778 -0.4496  2.0027 -1.6787
  602SOL    HW2 1806   1.347   2.807   0.652 -0.3744 -0.9556  1.5286
  603SOL     OW 1807   0.633   2.829   2.043 -0.6798  0.0087  0.3331
  603SOL    HW1 1808   0.634   2.925   2.079 -0.3045 -3.2234  0.3219
  603SOL    HW2 1809   0.712   2.821   1.979  1.5840  0.9885  1.6298
  604SOL     OW 1810   2.867   2.919   2.386  0.1749  0.0696 -0.4478
  604SOL    HW1 1811   2.940   2.898   2.315 -0.4122  2.8402  0.3335
  604SOL    HW2 1812   2.855   2.837   2.448 -1.0405  3.8171 -0.2010
  605SOL     OW 1813   2.656   2.116   1.313  0.3220  0.0640 -0.1984
  605SOL    HW1 1814   2.689   2.144   1.407  3.2744 -1.5901 -1.1596
  605SOL    HW2 1815   2.581   2.043   1.332 -2.4734 -0.5379 -0.2001
  606SOL     OW 1816   0.344   1.497   2.877 -0.4890  0.3570 -0.1860
  606SOL    HW1 1817   0.376   1.572   2.937 -1.7198 -0.2592 -2.1473
  606SOL    HW2 1818   0.254   1.521   2.833  2.2111 -0.6911  0.8033
  607SOL     OW 1819   0.892   3.031   0.365 -0.5360  0.2245 -0.0406
  607SOL    HW1 1820   0.810   3.045   0.311  2.1802 -0.2932  1.0503
  607SOL    HW2 1821   0.963   0.010   0.335  1.4739 -0.9602 -0.2568
  608SOL     OW 1822   1.813   1.246   2.288  0.0104  0.0559 -0.0303
  608SOL    HW1 1823   1.741   1.197   2.342 -2.6592  0.5357  0.2437
  608SOL    HW2 1824   1.782   1.287   2.197  0.2776  1.1125 -1.2057
  609SOL     OW 1825   0.085   0.184   0.962  0.5963 -0.2126  0.0384
  609SOL    HW1 1826   0.123   0.185   1.054  0.0706  2.8856  2.5364
  609SOL    HW2 1827   0.036   0.274   0.945 -3.1743 -1.1479  0.2948
  610SOL     OW 1828   0.622   2.820   0.572 -0.6695  0.7321 -0.2041
  610SOL    HW1 1829   0.715   2.796   0.534  0.0151  1.2866 -0.4389
  610SOL    HW2 1830   0.627   2.843   0.671 -0.0557 -1.6156 -3.0614
  611SOL     OW 1831   1.750   0.889   2.892 -0.2355 -0.5157  0.2839
  611SOL    HW1 1832   1.827   0.952   2.886 -0.9809  1.4694  0.6944
  611SOL    HW2 1833   1.663   0.936   2.873  0.5436 -2.7322  2.3092
  612SOL     OW 1834   0.754   2.259   2.376  0.5959 -0.3778 -0.1766
  612SOL    HW1 1835   0.777   2.161   2.395  0.8937  1.6211 -0.7439
  612SOL    HW2 1836   0.659   2.281   2.405  0.4306 -2.0300 -1.8778
  613SOL     OW 1837   0.920   2.351   0.224  0.1206 -0.4262  0.2995
  613SOL    HW1 1838   0.824   2.329   0.252 -1.8419 -2.8969  0.2661
  613SOL    HW2 1839   0.955   2.288   0.154  0.4489 -0.1448 -2.5927
  614SOL     OW 1840   2.765   2.729   1.382  0.1632 -0.1422  0.2652
  614SOL    HW1 1841   2.849   2.787   1.382 -2.9716  0.8578  0.4794
  614SOL    HW2 1842   2.777   2.643   1.326 -2.1062 -1.2622 -1.6381
  615SOL     OW 1843   2.268   1.388   2.982 -0.0780 -0.2089  0.5764
  615SOL    HW1 1844   2.209   1.470   2.965  0.7018  0.0058 -2.0939
  615SOL    HW2 1845   2.225   1.299   2.968 -2.2981  1.8424 -1.5574
  616SOL     OW 1846   1.714   0.166   0.535 -0.0611  0.1704  0.0906
  616SOL    HW1 1847   1.712   0.110   0.449  0.7366  1.6070  0.2914
  616SOL    HW2 1848   1.627   0.211   0.544  3.1070 -1.7142  0.8134
  617SOL     OW 1849   1.151   0.851   2.930  0.1832 -0.3073  0.3272
  617SOL    HW1 1850   1.244   0.809   2.926  1.2341 -3.3634 -1.3038
  617SOL    HW2 1851   1.116   0.866   2.833  0.0686 -2.0079  0.0937
  618SOL     OW 1852   0.700   0.121   1.784 -0.0988  0.1598 -0.5532
  618SOL    HW1 1853   0.749   0.085   1.870  2.3535 -0.1782  0.8512
  618SOL    HW2 1854   0.599   0.114   1.797  0.6935 -3.3936  2.0464
  619SOL     OW 1855   2.801   1.125   1.369  0.0674  0.6999  0.1047
  619SOL    HW1 1856   2.874   1.178   1.317 -1.7792  3.0942  0.4020
  619SOL    HW2 1857   2.809   1.141   1.467 -1.0106 -1.0566 -0.4600
  620SOL     OW 1858   2.032   1.140   2.659  0.1510 -0.2641 -0.1636
  620SOL    HW1 1859   2.011   1.055   2.604  0.3787 -0.9633 -0.0325
  620SOL    HW2 1860   1.994   1.138   2.756 -1.1535  3.1074 -0.1344
  621SOL     OW 1861   2.509   2.778   1.299 -0.1309  0.7521  0.2455
  621SOL    HW1 1862   2.518   2.790   1.198  2.1351 -1.8726 -0.9236
  621SOL    HW2 1863   2.598   2.759   1.338 -2.2185 -1.6590 -1.5563
  622SOL     OW 1864   1.291   0.765   2.639  0.3665 -0.1501  0.0844
  622SOL    HW1 1865   1.224   0.702   2.599  1.0005  1.8282  1.3066
  622SOL    HW2 1866   1.302   0.739   2.743 -1.8084 -5.0558  4.2286
  623SOL     OW 1867   1.166   0.483   2.883  0.0978 -0.1881  0.3232
  623SOL    HW1 1868   1.183   0.546   2.957  0.4696 -1.1266 -0.2217
  623SOL    HW2 1869   1.087   0.420   2.898 -0.2846 -1.0391 -1.9009
  624SOL     OW 1870   1.880   0.678   0.245 -0.2835 -0.1905 -0.5224
  624SOL    HW1 1871   1.847   0.757   0.192  2.6901 -0.0835 -0.9262
  624SOL    HW2 1872   1.962   0.636   0.197 -0.0375 -2.7894  0.1433
  625SOL     OW 1873   1.126   1.282   0.993  0.4801  0.1236  0.5443
  625SOL    HW1 1874   1.120   1.185   0.964 -0.2526  3.7937 -2.3992
  625SOL    HW2 1875   1.060   1.288   1.064  1.7275 -1.8498 -1.3198
  626SOL     OW 1876   1.512   0.998   2.853 -0.2716 -0.0570  0.2344
  626SOL    HW1 1877   1.500   1.045   2.945 -0.6893  0.7771  0.7139
  626SOL    HW2 1878   1.450   1.033   2.785 -0.0262  0.1591 -0.2081
  627SOL     OW 1879   1.037   0.054   2.209 -0.3290 -0.2239 -0.4893
  627SOL    HW1 1880   1.097   0.035   2.129  1.6369  2.6091 -2.0577
  627SOL    HW2 1881   1.088   0.123   2.270  0.0150  0.3413  1.0125
  628SOL     OW 1882   2.446   0.086   2.294  0.3976  0.0874 -0.2302
  628SOL    HW1 1883   2.445   0.130   2.200 -0.8586 -2.5485 -0.6491
  628SOL    HW2 1884   2.503   0.140   2.359 -0.3166  1.7865  0.0051
  629SOL     OW 1885   0.789   0.761   2.784  0.1202 -0.2369 -0.5203
  629SOL    HW1 1886   0.867   0.816   2.743 -0.1308  0.7582 -0.5604
  629SOL    HW2 1887   0.818   0.722   2.873 -1.5386  1.0419 -1.6486
  630SOL     OW 1888   1.248   0.364   1.817 -0.5917 -0.6225 -0.0007
  630SOL    HW1 1889   1.205   0.365   1.910  0.0426  1.8695  1.8233
  630SOL    HW2 1890   1.351   0.375   1.826  0.2389  1.6225  0.4497
  631SOL     OW 1891   2.931   0.639   0.593  0.0306  0.2387 -0.3104
  631SOL    HW1 1892   2.873   0.578   0.535  1.4056  0.1634  0.1355
  631SOL    HW2 1893   3.018   0.647   0.541 -1.4149 -1.1881  2.9998
  632SOL     OW 1894   2.174   1.150   1.043  0.4685  0.4994 -0.4035
  632SOL    HW1 1895   2.137   1.189   0.955  0.8285 -1.4036 -3.2855
  632SOL    HW2 1896   2.143   1.052   1.065  0.1307  0.7311 -0.3735
  633SOL     OW 1897   1.574   0.658   1.018  0.2628  0.2556 -0.0607
  633SOL    HW1 1898   1.553   0.733   1.085 -0.0164  4.5987  2.4730
  633SOL    HW2 1899   1.664   0.673   0.970 -1.6421  0.2226  0.2466
  634SOL     OW 1900   1.847   0.028   1.185  0.3432 -0.1017 -0.2773
  634SOL    HW1 1901   1.946   0.010   1.163  0.7453  0.0567 -2.2169
  634SOL    HW2 1902   1.794   3.054   1.125 -1.7766  1.7316  3.3638
  635SOL     OW 1903   1.522   0.895   1.155 -0.0153  0.1029  0.1776
  635SOL    HW1 1904   1.506   0.977   1.102 -2.0941 -0.6957 -0.3698
  635SOL    HW2 1905   1.595   0.908   1.228 -0.8364  0.3850  1.8803
  636SOL     OW 1906   0.935   0.644   0.802  0.0026  0.2246 -0.5349
  636SOL    HW1 1907   1.023   0.651   0.856  0.7432  0.6225 -2.3792
  636SOL    HW2 1908   0.921   0.717   0.736 -1.3350 -1.6805  2.5130
  637SOL     OW 1909   2.143   2.342   0.534 -0.2736 -0.1773 -0.3149
  637SOL    HW1 1910   2.222   2.333   0.463  2.9997 -0.2213 -3.8852
  637SOL    HW2 1911   2.174   2.336   0.631 -0.0305 -1.2303 -2.0810
  638SOL     OW 1912   1.724   2.847   2.691 -0.1757 -0.0401  0.2459
  638SOL    HW1 1913   1.702   2.799   2.781 -0.3368 -0.8358  0.3043
  638SOL    HW2 1914   1.779   2.782   2.634  1.6484 -0.6781  3.6004
  639SOL     OW 1915   0.762   2.098   1.262 -0.2912  0.4121 -0.5201
  639SOL    HW1 1916   0.704   2.108   1.178  1.7065  2.0488 -0.7820
  639SOL    HW2 1917   0.837   2.033   1.240 -0.7038  1.6522 -0.8005
  640SOL     OW 1918   2.844   2.636   0.573  0.3381  0.5257  0.1305
  640SOL    HW1 1919   2.852   2.577   0.654 -0.7383  0.1003  0.7081
  640SOL    HW2 1920   2.937   2.643   0.531  0.0609  0.8763 -0.0263
  641SOL     OW 1921   0.328   0.533   0.198 -0.2031 -0.4086  0.4706
  641SOL    HW1 1922   0.398   0.459   0.215  2.0931  1.5441  1.2643
  641SOL    HW2 1923   0.277   0.518   0.114 -1.0658  2.9178  1.5677
  642SOL     OW 1924   2.756   0.884   1.081  0.6053 -0.2788  0.4809
  642SOL    HW1 1925   2.659   0.867   1.109 -2.0639 -1.4000 -0.4659
  642SOL    HW2 1926   2.752   0.952   1.006  0.4062 -0.8043 -0.6149
  643SOL     OW 1927   0.705   1.945   2.054 -0.1757  0.4632 -0.0363
  643SOL    HW1 1928   0.779   2.000   2.012  0.7179 -1.2388 -0.9352
  643SOL    HW2 1929   0.737   1.907   2.147  0.2518 -1.2863  0.2308
  644SOL     OW 1930   1.886   2.529   0.708  0.0903  0.0398 -0.0106
  644SOL    HW1 1931   1.818   2.467   0.749  2.3416  0.3281  0.4439
  644SOL    HW2 1932   1.912   2.497   0.616  0.2770  2.6061  0.6452
  645SOL     OW 1933   1.780   2.318   1.032 -0.4439  0.6741  0.0089
  645SOL    HW1 1934   1.860   2.381   1.025  1.3964  1.0882 -3.2296
  645SOL    HW2 1935   1.715   2.338   0.957 -1.5780 -0.6052  1.6348
  646SOL     OW 1936   1.232   2.671   0.299 -0.0735  0.5902 -0.2279
  646SOL    HW1 1937   1.158   2.605   0.325  0.7401 -1.0744 -1.9496
  646SOL    HW2 1938   1.192   2.744   0.239  0.7933 -0.9868  0.3950
  647SOL     OW 1939   0.412   2.958   1.888 -0.3516  0.0562  0.3198
  647SOL    HW1 1940   0.399   2.942   1.988 -1.4575  0.4656 -1.4714
  647SOL    HW2 1941   0.439   2.878   1.831  0.5954 -1.1853 -2.6977
  648SOL     OW 1942   1.767   0.932   1.294 -1.2684 -0.5791 -0.2727
  648SOL    HW1 1943   1.836   0.918   1.366 -4.0684  0.6676 -3.4973
  648SOL    HW2 1944   1.810   0.910   1.207 -0.8637 -2.3233 -1.7433
  649SOL     OW 1945   1.695   2.056   2.717 -0.1523  0.3199  0.1982
  649SOL    HW1 1946   1.773   2.109   2.762 -1.0988 -1.9189 -0.9137
  649SOL    HW2 1947   1.626   2.041   2.789  0.5632 -1.6631  0.8639
  650SOL     OW 1948   2.519   1.584   1.717 -0.5544 -0.1625 -0.1945
  650SOL    HW1 1949   2.586   1.586   1.795 -1.0392  1.5316  0.6712
  650SOL    HW2 1950   2.466   1.677   1.709 -0.7983  4.4687 -0.8446
  651SOL     OW 1951   1.301   1.684   2.849  0.3745  0.4499  0.6845
  651SOL    HW1 1952   1.231   1.611   2.841 -2.9902  1.5633 -0.4151
  651SOL    HW2 1953   1.388   1.659   2.800 -0.1467 -0.8297 -1.6484
  652SOL     OW 1954   1.177   2.739   2.944 -0.5542  0.2218 -0.6564
  652SOL    HW1 1955   1.240   2.660   2.918  2.6067 -1.0109 -0.6891
  652SOL    HW2 1956   1.205   2.821   2.893  1.0082  0.1319 -1.0519
  653SOL     OW 1957   2.242   2.181   1.142 -0.1107 -0.0070 -0.0951
  653SOL    HW1 1958   2.148   2.153   1.112  0.4325  2.2418  0.1613
  653SOL    HW2 1959   2.243   2.181   1.244 -2.2667 -2.0015  2.1716
  654SOL     OW 1960   2.845   2.549   1.946 -0.0831  0.2347 -0.2321
  654SOL    HW1 1961   2.823   2.637   1.896  1.4337 -2.1040  1.6055
  654SOL    HW2 1962   2.860   2.476   1.875 -0.1480 -0.2026 -0.3735
  655SOL     OW 1963   2.733   2.231   0.832  0.2045 -0.1219  0.3384
  655SOL    HW1 1964   2.802   2.160   0.821 -0.7520  1.7144 -1.5097
  655SOL    HW2 1965   2.700   2.228   0.927  2.1541 -2.1219 -1.4524
  656SOL     OW 1966   0.339   2.627   2.737  0.0997 -0.2745 -1.0835
  656SOL    HW1 1967   0.361   2.631   2.644 -1.1882 -0.6400  3.3134
  656SOL    HW2 1968   0.263   2.562   2.749 -0.3942 -2.3398 -1.2011
  657SOL     OW 1969   3.027   0.764   0.238 -0.0812 -0.2064 -0.0695
  657SOL    HW1 1970   0.001   0.725   0.310 -0.4809  2.4353  2.6854
  657SOL    HW2 1971   3.080   0.787   0.158 -1.3852 -0.7588  0.1584
  658SOL     OW 1972   1.316   1.792   1.236  0.4642 -0.2859 -0.0706
  658SOL    HW1 1973   1.229   1.754   1.197  1.3663  2.8842 -0.7785
  658SOL    HW2 1974   1.310   1.883   1.275  2.4051 -0.9651  2.8154
  659SOL     OW 1975   1.782   0.385   1.314  0.0759 -0.2337  0.4182
  659SOL    HW1 1976   1.759   0.307   1.376  0.6033 -0.5355  4.3256
  659SOL    HW2 1977   1.698   0.447   1.300  1.1107  0.5400  2.0196
  660SOL     OW 1978   1.342   1.446   0.383  0.1020 -0.8200 -0.2748
  660SOL    HW1 1979   1.299   1.355   0.402  1.0096 -3.0009  1.8824
  660SOL    HW2 1980   1.351   1.499   0.470 -0.8792  1.4793 -4.1588
  661SOL     OW 1981   0.044   1.824   0.528  0.2074  0.4113 -0.0509
  661SOL    HW1 1982   3.077   1.835   0.444  0.5837  1.3414  0.9076
  661SOL    HW2 1983   0.054   1.912   0.577  1.2350  0.1403 -0.4495
  662SOL     OW 1984   3.014   0.776   2.162 -0.3429  0.4910  0.2549
  662SOL    HW1 1985   2.995   0.725   2.073 -2.0568 -1.8309  0.1357
  662SOL    HW2 1986   3.014   0.875   2.148  0.4063 -2.9285 -1.4899
  663SOL     OW 1987   1.943   1.424   1.268  0.5239 -0.4103 -0.2654
  663SOL    HW1 1988   1.904   1.503   1.221 -1.9407 -2.7676 -0.8153
  663SOL    HW2 1989   1.891   1.399   1.348  2.0724  0.2282 -3.7507
  664SOL     OW 1990   0.671   0.408   0.917  0.2715 -0.0252  1.2076
  664SOL    HW1 1991   0.572   0.395   0.904  2.7463 -0.2926  0.4636
  664SOL    HW2 1992   0.697   0.367   1.007  0.9955 -0.5694  2.8046
  665SOL     OW 1993   1.232   2.939   2.765 -0.1484  0.4780  0.0057
  665SOL    HW1 1994   1.324   2.940   2.722 -0.4874 -4.1043  2.3969
  665SOL    HW2 1995   1.207   3.017   2.822  2.5798  0.8150 -2.9577
  666SOL     OW 1996   0.245   0.481   2.383  0.0936 -0.1740 -0.3108
  666SOL    HW1 1997   0.291   0.399   2.353 -1.5959 -1.0271  1.3772
  666SOL    HW2 1998   0.162   0.458   2.443 -3.0418 -0.4422  2.6239
  667SOL     OW 1999   1.988   1.450   2.364  0.2515  1.2487 -0.1589
  667SOL    HW1 2000   1.979   1.496   2.270 -0.1690 -2.8155 -2.0227
  667SOL    HW2 2001   1.936   1.362   2.360  0.4278  2.1183  0.1560
  668SOL     OW 2002   0.111   1.544   2.761  0.3177  0.3855  0.3042
  668SOL    HW1 2003   0.108   1.464   2.700  1.4653 -2.3783  0.5631
  668SOL    HW2 2004   0.035   1.607   2.739 -1.1128 -1.3322 -0.7817
  669SOL     OW 2005   2.068   2.871   2.366 -0.9150  0.4051  0.5591
  669SOL    HW1 2006   2.064   2.974   2.384 -1.9657  1.2342 -0.9977
  669SOL    HW2 2007   2.156   2.823   2.401 -0.9429 -2.4112  2.0697
  670SOL     OW 2008   2.720   0.898   2.520  0.1492  0.0058  0.1939
  670SOL    HW1 2009   2.734   0.809   2.561 -0.1580  0.7150  3.0597
  670SOL    HW2 2010   2.671   0.956   2.591  3.4145  0.4186 -0.6004
  671SOL     OW 2011   2.480   1.701   0.287 -0.3850  0.7403 -0.3769
  671SOL    HW1 2012   2.528   1.619   0.239  0.7951 -3.8800 -0.3805
  671SOL    HW2 2013   2.398   1.725   0.236  0.6227  2.0499 -0.1762
  672SOL     OW 2014   2.660   1.183   2.363 -0.3372 -0.4850  0.1212
  672SOL    HW1 2015   2.680   1.103   2.424  0.8907  0.1974  0.4963
  672SOL    HW2 2016   2.702   1.267   2.404  1.4905  1.6691 -1.1593
  673SOL     OW 2017   0.026   1.446   1.428  0.1406 -0.2565  0.0907
  673SOL    HW1 2018   0.051   1.535   1.381  1.8550  1.5100  0.8676
  673SOL    HW2 2019   0.013   1.374   1.357 -0.5090 -1.8257  0.5324
  674SOL     OW 2020   1.437   1.669   1.994  0.1725 -0.2282  0.2160
  674SOL    HW1 2021   1.411   1.756   1.948  0.6488 -3.4488  1.4207
  674SOL    HW2 2022   1.533   1.676   2.027 -0.2380 -0.0104  0.0155
  675SOL     OW 2023   2.904   0.361   1.145 -0.1161 -0.3041 -0.0872
  675SOL    HW1 2024   2.947   0.385   1.054  2.3822 -1.8422  0.9751
  675SOL    HW2 2025   2.834   0.285   1.139 -0.7670  0.7210  2.3177
  676SOL     OW 2026   2.283   0.995   0.634 -0.0688  0.8735  0.1469
  676SOL    HW1 2027   2.335   0.976   0.550  0.2400 -1.1170  2.8659
  676SOL    HW2 2028   2.237   0.906   0.677 -1.7208 -1.1835  4.7209
  677SOL     OW 2029   1.476   1.312   2.253 -0.5794 -0.4404  0.4696
  677SOL    HW1 2030   1.482   1.402   2.292  0.6820 -0.8053 -1.0161
  677SOL    HW2 2031   1.399   1.303   2.193  1.4484  1.0016  4.3566
  678SOL     OW 2032   2.563   1.441   0.958  0.9924 -0.1432  0.9896
  678SOL    HW1 2033   2.526   1.355   1.002 -1.1068  2.8107 -0.8323
  678SOL    HW2 2034   2.501   1.519   0.961  2.8821 -0.3267  1.4448
  679SOL     OW 2035   0.418   2.687   0.931 -0.5046  0.0170 -0.5218
  679SOL    HW1 2036   0.349   2.610   0.927  2.9474 -0.5207  0.7006
  679SOL    HW2 2037   0.364   2.771   0.940  1.5756 -0.3641 -0.8629
  680SOL     OW 2038   2.817   2.052   1.076  0.0834  0.0529 -0.5000
  680SOL    HW1 2039   2.854   1.989   1.150 -0.4434 -0.5348 -1.6914
  680SOL    HW2 2040   2.751   2.115   1.117 -1.7589  2.4870 -1.5526
  681SOL     OW 2041   0.863   0.757   1.165 -0.1836 -0.0025  0.7574
  681SOL    HW1 2042   0.946   0.693   1.166  0.7090  0.6824  0.4236
  681SOL    HW2 2043   0.805   0.742   1.085  3.0836  1.0964 -0.8083
  682SOL     OW 2044   1.527   2.964   0.881  0.1462 -0.6636 -0.8838
  682SOL    HW1 2045   1.542   3.047   0.823 -0.3600 -2.9199  0.7596
  682SOL    HW2 2046   1.611   2.948   0.937 -0.4467 -1.1818  1.0527
  683SOL     OW 2047   2.384   1.347   1.720 -0.0547  0.3717 -0.1121
  683SOL    HW1 2048   2.434   1.435   1.716 -2.7894  0.1904 -0.3140
  683SOL    HW2 2049   2.309   1.358   1.652 -0.7037 -1.0828 -2.2138
  684SOL     OW 2050   0.174   1.812   1.683  0.0966 -0.1041  0.1133
  684SOL    HW1 2051   0.236   1.857   1.752  0.1473 -0.4397 -1.0416
  684SOL    HW2 2052   0.079   1.805   1.723 -1.1364 -3.0201  2.6482
  685SOL     OW 2053   1.960   1.629   0.415 -0.4575 -0.0237 -0.1118
  685SOL    HW1 2054   1.953   1.580   0.503 -0.7517  2.5183  1.3740
  685SOL    HW2 2055   2.024   1.578   0.357 -2.1764 -0.6878 -2.0972
  686SOL     OW 2056   3.049   0.217   0.550 -0.0694 -0.3823  0.0833
  686SOL    HW1 2057   0.046   0.214   0.608  2.3314 -1.3992  1.4173
  686SOL    HW2 2058   2.978   0.271   0.596 -0.3922  0.9439 -1.0130
  687SOL     OW 2059   1.488   3.003   2.662  0.3985 -0.1917 -0.0795
  687SOL    HW1 2060   1.505   0.000   2.711 -0.2760  0.3724 -1.5387
  687SOL    HW2 2061   1.564   2.939   2.668 -2.5845  1.2911 -0.0427
  688SOL     OW 2062   1.634   1.740   2.385 -0.0141 -0.4839 -0.2866
  688SOL    HW1 2063   1.722   1.750   2.433 -1.8130  0.2337 -2.2164
  688SOL    HW2 2064   1.656   1.737   2.287 -0.8009 -0.5771  1.5204
  689SOL     OW 2065   2.789   0.960   1.967  0.0890 -0.1859 -0.7116
  689SOL    HW1 2066   2.724   1.033   1.996 -2.0105 -0.7931  2.0116
  689SOL    HW2 2067   2.881   0.990   1.997  0.9203 -1.2812  2.0447
  690SOL     OW 2068   1.868   1.663   1.107 -0.2544 -0.0975  0.2365
  690SOL    HW1 2069   1.965   1.683   1.083 -0.9725  0.8930 -2.6167
  690SOL    HW2 2070   1.837   1.710   1.191  1.6765 -2.7817 -1.0778
  691SOL     OW 2071   0.752   1.406   1.092 -1.0984  0.2810 -0.4312
  691SOL    HW1 2072   0.828   1.351   1.129 -2.2110 -2.1944 -0.7363
  691SOL    HW2 2073   0.666   1.349   1.081  1.8107  1.1129 -1.3899
  692SOL     OW 2074   2.183   2.984   2.107 -0.5851 -0.4309  0.5212
  692SOL    HW1 2075   2.119   3.048   2.062  2.0598 -0.4292  0.7701
  692SOL    HW2 2076   2.169   2.995   2.208 -0.2211 -1.2252  0.2385
  693SOL     OW 2077   2.910   1.320   2.463 -0.0156 -0.2903 -0.4407
  693SOL    HW1 2078   3.010   1.342   2.460 -0.3572 -0.6264  0.6660
  693SOL    HW2 2079   2.904   1.226   2.425  1.9285  1.5152  1.0787
  694SOL     OW 2080   2.274   0.258   1.123 -0.0603 -0.4869 -0.6031
  694SOL    HW1 2081   2.284   0.214   1.216 -1.1843  1.5907  0.9827
  694SOL    HW2 2082   2.236   0.351   1.141  1.6722 -3.0223 -0.6430
  695SOL     OW 2083   0.857   1.164   2.717 -0.0945  0.3821 -0.1538
  695SOL    HW1 2084   0.888   1.200   2.810  0.9044  2.0022  2.3801
  695SOL    HW2 2085   0.870   1.230   2.642  0.4309  0.8835  1.8980
  696SOL     OW 2086   2.144   0.300   1.680  0.0430  0.2458 -0.0601
  696SOL    HW1 2087   2.073   0.337   1.618 -1.1003  2.0808  1.4169
  696SOL    HW2 2088   2.128   0.199   1.685 -0.0221  1.1912 -0.6353
  697SOL     OW 2089   1.451   0.584   2.335  0.5390 -0.0661 -0.6228
  697SOL    HW1 2090   1.481   0.583   2.431 -1.6258 -1.1698  0.3341
  697SOL    HW2 2091   1.471   0.493   2.294 -2.9419 -0.8687 -1.9651
  698SOL     OW 2092   1.912   1.724   2.441 -0.2218  0.6747 -0.1746
  698SOL    HW1 2093   1.984   1.746   2.508 -1.3475 -1.7391  0.7091
  698SOL    HW2 2094   1.924   1.628   2.408 -0.1054 -2.9367  2.8987
  699SOL     OW 2095   1.533   1.074   0.491 -0.1384 -0.5896  0.1142
  699SOL    HW1 2096   1.464   1.145   0.509 -2.0194  0.1274  0.2657
  699SOL    HW2 2097   1.533   1.003   0.563  1.2545  1.8984  0.6526
  700SOL     OW 2098   1.540   2.792   0.040 -0.4351 -0.6554  0.2057
  700SOL    HW1 2099   1.521   2.857   0.118  2.0596  1.7912 -0.2094
  700SOL    HW2 2100   1.481   2.711   0.051 -0.8683  3.2514 -2.0392
  701SOL     OW 2101   0.106   0.635   1.237  0.1261 -0.7946 -0.3400
  701SOL    HW1 2102   0.057   0.675   1.157 -2.3779  0.1268  0.0402
  701SOL    HW2 2103   0.058   0.648   1.317  2.5548  0.5210 -1.8815
  702SOL     OW 2104   1.913   3.026   1.542 -0.3126  0.0518  0.3880
  702SOL    HW1 2105   1.856   0.014   1.510  0.8568 -4.6778  1.4841
  702SOL    HW2 2106   1.878   2.933   1.509 -0.2147 -1.4530 -2.3370
  703SOL     OW 2107   2.710   0.403   1.346 -0.1074 -0.1728  0.0639
  703SOL    HW1 2108   2.716   0.369   1.444  1.8063 -2.2621  1.6054
  703SOL    HW2 2109   2.798   0.398   1.293 -2.2474 -1.7312 -0.9487
  704SOL     OW 2110   1.180   2.160   1.171  0.1834  0.2668 -0.4730
  704SOL    HW1 2111   1.191   2.259   1.195  1.0040  2.2862  1.4532
  704SOL    HW2 2112   1.181   2.147   1.069  0.9096 -1.1529  2.3862
  705SOL     OW 2113   0.117   2.067   2.165  0.2508  0.1721  0.2982
  705SOL    HW1 2114   0.200   2.107   2.213  2.6965 -0.4527 -0.1984
  705SOL    HW2 2115   0.138   1.973   2.129  3.7918  0.7332  0.3928
  706SOL     OW 2116   2.646   0.393   2.657 -0.0085  0.3210  0.5970
  706SOL    HW1 2117   2.546   0.375   2.663  0.7759  0.6233  1.2255
  706SOL    HW2 2118   2.699   0.359   2.736  2.5159  2.3114 -6.0653
  707SOL     OW 2119   1.656   2.869   2.326 -0.6894 -0.2091  0.0910
  707SOL    HW1 2120   1.701   2.778   2.322  2.1434  0.3753  2.7252
  707SOL    HW2 2121   1.570   2.868   2.379  0.9237  0.4690  2.1631
  708SOL     OW 2122   0.779   2.331   1.409  0.1081  0.3834 -0.0406
  708SOL    HW1 2123   0.691   2.373   1.386  1.5037 -1.3973  0.7683
  708SOL    HW2 2124   0.776   2.225   1.404  1.3884 -4.2590  1.6471
  709SOL     OW 2125   2.777   0.839   1.710  0.4494  0.4425 -0.2696
  709SOL    HW1 2126   2.778   0.896   1.793 -0.6238  0.7672  1.3780
  709SOL    HW2 2127   2.836   0.884   1.638 -0.5772 -2.0566  0.4041
  710SOL     OW 2128   3.063   0.437   1.568 -0.5332  0.2859  0.2618
  710SOL    HW1 2129   3.073   0.351   1.511 -1.3207  2.9889  1.4257
  710SOL    HW2 2130   3.020   0.505   1.512 -0.5834  0.6959  0.8067
  711SOL     OW 2131   0.019   2.759   0.939  0.7731  0.2458  0.3274
  711SOL    HW1 2132   0.073   2.731   1.018 -1.2354 -2.5060 -0.7392
  711SOL    HW2 2133   0.050   2.730   0.845  1.6441  3.7687  2.4344
  712SOL     OW 2134   0.421   2.773   2.495 -0.5132  0.0292  0.3825
  712SOL    HW1 2135   0.503   2.803   2.547 -2.1853  0.9378 -0.5588
  712SOL    HW2 2136   0.442   2.756   2.397 -2.0916 -1.6086  1.7294
  713SOL     OW 2137   2.390   0.377   0.284 -0.0552 -0.4695 -0.3904
  713SOL    HW1 2138   2.293   0.390   0.307  0.8836 -1.6112 -0.6139
  713SOL    HW2 2139   2.427   0.435   0.209 -0.0350  1.8779  2.0102
  714SOL     OW 2140   1.570   1.494   3.060 -0.3513  0.1562  0.5947
  714SOL    HW1 2141   1.576   1.600   3.076  0.6758  2.7070 -0.7014
  714SOL    HW2 2142   1.505   1.452   0.040 -1.3179 -0.3319  0.3536
  715SOL     OW 2143   0.251   0.471   0.443 -0.0480  0.0191  0.0828
  715SOL    HW1 2144   0.263   0.502   0.349  2.0694  2.2045  1.0781
  715SOL    HW2 2145   0.304   0.389   0.466 -0.0318  1.6655 -1.7844
  716SOL     OW 2146   1.080   0.111   1.757 -0.3108 -0.2139 -0.0064
  716SOL    HW1 2147   1.122   0.202   1.767  1.0276 -1.3122 -2.5519
  716SOL    HW2 2148   1.008   0.105   1.685 -0.0039 -1.7154 -2.9548
  717SOL     OW 2149   0.283   0.558   2.949  0.2105  0.0971  0.0682
  717SOL    HW1 2150   0.376   0.527   2.924 -2.0200 -0.6916  0.7149
  717SOL    HW2 2151   0.231   0.579   2.863  1.0977 -1.9868 -0.0519
  718SOL     OW 2152   1.368   0.339   0.363 -0.0819 -0.1580  0.1521
  718SOL    HW1 2153   1.425   0.420   0.350  1.2700 -2.2188  0.8528
  718SOL    HW2 2154   1.360   0.319   0.465 -0.4511  0.2206 -1.5126
  719SOL     OW 2155   2.242   2.180   3.073  0.2801  0.8476  0.1576
  719SOL    HW1 2156   2.231   2.104   3.010  2.3407  1.8554  0.4883
  719SOL    HW2 2157   2.310   2.155   0.055 -0.1771  0.8190  1.2265
  720SOL     OW 2158   1.162   1.000   1.419 -0.0572 -0.0555  0.0361
  720SOL    HW1 2159   1.215   1.083   1.445 -0.4845  1.0600 -0.7122
  720SOL    HW2 2160   1.185   0.924   1.481 -4.1585  0.1701 -4.0906
  721SOL     OW 2161   0.206   2.719   1.234  0.0386 -0.5923 -0.1186
  721SOL    HW1 2162   0.220   2.624   1.215  0.3128  1.8228  3.4916
  721SOL    HW2 2163   0.266   2.784   1.190 -0.9358 -2.4410  1.3291
  722SOL     OW 2164   0.620   1.825   2.836  0.3370  0.0012  0.9916
  722SOL    HW1 2165   0.671   1.870   2.904 -1.2036  1.4164  0.1999
  722SOL    HW2 2166   0.562   1.750   2.872 -0.8474 -0.5872 -1.0618
  723SOL     OW 2167   1.963   0.334   0.604 -0.1215  0.1815  0.1568
  723SOL    HW1 2168   1.905   0.262   0.562 -1.2956 -1.4245 -1.8506
  723SOL    HW2 2169   1.981   0.312   0.704 -0.3725  2.3689  1.2515
  724SOL     OW 2170   0.583   2.156   2.940 -0.7184  0.5437 -0.5593
  724SOL    HW1 2171   0.613   2.069   2.983 -1.8199 -1.0237  0.6994
  724SOL    HW2 2172   0.629   2.236   2.979 -1.1894  2.7260 -0.5520
  725SOL     OW 2173   3.020   0.749   1.063  0.2433 -0.2243 -0.4519
  725SOL    HW1 2174   2.927   0.785   1.065  0.6632 -3.1289  1.0216
  725SOL    HW2 2175   3.051   0.710   0.971  0.5983 -0.9426  0.1011
  726SOL     OW 2176   2.467   0.586   0.537 -0.2297  0.6967 -0.1837
  726SOL    HW1 2177   2.484   0.486   0.522  1.4624 -0.1370 -0.3697
  726SOL    HW2 2178   2.377   0.619   0.501 -0.0088 -0.2444 -1.9623
  727SOL     OW 2179   2.041   1.051   2.276  1.0523 -0.0708 -0.6455
  727SOL    HW1 2180   1.963   1.119   2.264  0.8619  0.9292 -1.0879
  727SOL    HW2 2181   2.051   1.031   2.377  1.0490  2.9960  2.5389
  728SOL     OW 2182   1.788   2.812   1.420  0.6974 -0.2343 -0.3912
  728SOL    HW1 2183   1.724   2.754   1.476 -0.1105 -0.1718  2.8093
  728SOL    HW2 2184   1.812   2.768   1.330  0.5322 -2.5013 -2.0127
  729SOL     OW 2185   2.455   0.572   2.334 -0.1949  0.2235 -0.0554
  729SOL    HW1 2186   2.549   0.535   2.325 -1.4825 -0.5701 -1.1442
  729SOL    HW2 2187   2.454   0.674   2.329  1.1368  0.3576 -2.0162
  730SOL     OW 2188   0.658   0.686   1.374  0.2797 -0.2183 -0.1681
  730SOL    HW1 2189   0.558   0.679   1.354  0.2512  0.5875 -1.3562
  730SOL    HW2 2190   0.702   0.700   1.287 -0.7642 -3.1590  1.0930
  731SOL     OW 2191   0.323   0.115   0.182  0.1100 -0.0676 -0.0728
  731SOL    HW1 2192   0.386   0.176   0.231 -0.9069  1.4036  1.8356
  731SOL    HW2 2193   0.341   0.123   0.078  1.3105  1.7712 -0.6038
  732SOL     OW 2194   0.656   0.491   0.376  0.1668 -0.4451 -0.1799
  732SOL    HW1 2195   0.684   0.466   0.473 -2.1593  1.8976 -1.0117
  732SOL    HW2 2196   0.645   0.592   0.364  2.0532  0.7687 -2.9845
  733SOL     OW 2197   1.713   1.351   2.606 -0.3554  0.0923 -0.3387
  733SOL    HW1 2198   1.680   1.268   2.552 -0.1453  2.8119  0.1517
  733SOL    HW2 2199   1.659   1.366   2.691  0.5844 -2.2466  3.1621
  734SOL     OW 2200   2.849   2.028   2.075  0.0478  0.0469 -0.4293
  734SOL    HW1 2201   2.933   2.070   2.112  2.6244 -2.2712 -1.5996
  734SOL    HW2 2202   2.797   2.100   2.024 -0.3390  0.0689  1.8333
  735SOL     OW 2203   1.924   0.435   1.067 -0.2308  0.3579  0.0367
  735SOL    HW1 2204   2.019   0.458   1.098 -1.7181 -0.1988 -1.3223
  735SOL    HW2 2205   1.864   0.411   1.148  1.9835 -0.9063 -0.1793
  736SOL     OW 2206   0.963   1.263   2.938  0.1662  0.3801  0.3653
  736SOL    HW1 2207   0.921   1.233   3.028  1.2888  1.2370  0.5994
  736SOL    HW2 2208   1.064   1.265   2.952 -0.3749 -0.7610  0.5675
  737SOL     OW 2209   3.004   0.353   0.288 -0.0516 -0.0305 -0.2881
  737SOL    HW1 2210   0.005   0.359   0.240 -3.0181  0.6671 -1.5692
  737SOL    HW2 2211   3.012   0.297   0.368 -1.8658 -0.1345 -2.3780
  738SOL     OW 2212   0.639   2.536   1.678 -0.4009 -0.1383  0.1459
  738SOL    HW1 2213   0.720   2.565   1.626 -1.5448  0.7127  3.5609
  738SOL    HW2 2214   0.573   2.493   1.618  2.1455  0.1696  0.8247
  739SOL     OW 2215   1.142   3.050   2.530  0.4729 -0.1366  0.5721
  739SOL    HW1 2216   1.104   3.021   2.615 -0.0410  0.7970 -1.1079
  739SOL    HW2 2217   1.073   0.035   2.497  1.1093 -0.3221  0.5480
  740SOL     OW 2218   1.902   2.504   1.521 -0.1313  0.4964 -0.0002
  740SOL    HW1 2219   1.810   2.545   1.514 -0.0294  1.3462  1.3807
  740SOL    HW2 2220   1.894   2.410   1.569 -0.4645  0.3014  1.2644
  741SOL     OW 2221   2.256   0.718   0.445  0.3271 -0.1299 -0.2916
  741SOL    HW1 2222   2.296   0.707   0.350  1.0752  1.7271  0.6547
  741SOL    HW2 2223   2.175   0.783   0.441  1.2705  0.0744 -0.9382
  742SOL     OW 2224   1.423   2.566   2.528 -0.1015  0.0247  0.1051
  742SOL    HW1 2225   1.346   2.501   2.546  0.2567 -0.7576 -0.7962
  742SOL    HW2 2226   1.484   2.556   2.612 -0.2296  0.2089 -0.9799
  743SOL     OW 2227   2.423   0.973   1.538 -0.0361 -0.1457 -0.0804
  743SOL    HW1 2228   2.436   1.017   1.634  3.2813  1.9725  2.3870
  743SOL    HW2 2229   2.484   0.894   1.530  1.6680  0.5410 -0.2577
  744SOL     OW 2230   2.702   0.519   0.837 -0.1816 -0.4385  0.2916
  744SOL    HW1 2231   2.671   0.582   0.762 -0.9080  1.4428  0.3449
  744SOL    HW2 2232   2.658   0.536   0.923  2.4662 -2.1396 -2.1914
  745SOL     OW 2233   2.533   1.089   1.782 -0.6887 -0.3594  0.8059
  745SOL    HW1 2234   2.486   1.183   1.765 -1.6533  0.9662 -2.0149
  745SOL    HW2 2235   2.486   1.033   1.852  2.1650  2.2512 -1.7605
  746SOL     OW 2236   1.289   1.727   0.886 -0.6101  0.5239  0.1520
  746SOL    HW1 2237   1.356   1.763   0.956  2.0373  1.1026  2.0900
  746SOL    HW2 2238   1.292   1.624   0.898  0.8090 -0.4880 -3.5425
  747SOL     OW 2239   1.512   1.776   1.615  0.1973 -0.0309 -0.0067
  747SOL    HW1 2240   1.430   1.733   1.657 -0.2703  0.3356 -0.6465
  747SOL    HW2 2241   1.522   1.736   1.518 -0.4197 -0.0676  0.1798
  748SOL     OW 2242   0.408   2.846   3.022  1.1161  0.5408 -0.0837
  748SOL    HW1 2243   0.412   2.863   0.037 -0.0078  0.1423  2.1941
  748SOL    HW2 2244   0.478   2.784   2.996 -1.3452 -0.2933  2.0747
  749SOL     OW 2245   0.145   1.169   2.408 -0.3098 -0.2623  0.0168
  749SOL    HW1 2246   0.219   1.172   2.339 -0.7208 -0.9521 -0.5962
  749SOL    HW2 2247   0.130   1.076   2.447  1.3341  3.5729  1.4681
  750SOL     OW 2248   1.692   0.362   2.044 -0.0560 -0.4008 -0.0910
  750SOL    HW1 2249   1.611   0.418   2.006 -1.4213  1.4351 -1.4952
  750SOL    HW2 2250   1.763   0.428   2.078 -0.1674  3.1921 -1.2755
  751SOL     OW 2251   2.635   0.774   0.444  0.7009  0.1967  0.0933
  751SOL    HW1 2252   2.690   0.745   0.362 -0.9591 -0.0043  1.7471
  751SOL    HW2 2253   2.580   0.691   0.478 -3.9726 -1.1883  2.7938
  752SOL     OW 2254   0.144   2.128   0.907  0.7415  0.0255  0.2072
  752SOL    HW1 2255   0.063   2.073   0.929  1.5746  0.6201 -2.4922
  752SOL    HW2 2256   0.208   2.125   0.982 -0.7542  0.7421 -1.2611
  753SOL     OW 2257   1.126   2.551   0.975  0.6167 -0.0052 -0.3275
  753SOL    HW1 2258   1.162   2.512   1.063 -0.8681  1.0683 -0.1985
  753SOL    HW2 2259   1.027   2.532   0.958  1.4081  0.4660 -2.8814
  754SOL     OW 2260   0.372   2.928   2.202  0.1710 -0.3028 -0.9785
  754SOL    HW1 2261   0.339   2.829   2.193 -3.4435 -1.2143  0.6711
  754SOL    HW2 2262   0.292   2.991   2.195 -0.4253 -1.4760  0.6447
  755SOL     OW 2263   1.998   0.830   0.489 -0.2852  0.4656 -0.4009
  755SOL    HW1 2264   1.960   0.734   0.504  2.7349 -2.3631  1.8132
  755SOL    HW2 2265   1.967   0.890   0.568 -0.8328  0.0657  0.7018
  756SOL     OW 2266   2.207   2.376   2.649  0.6993 -0.0275  0.7202
  756SOL    HW1 2267   2.236   2.281   2.647  0.6908 -2.2886 -0.3544
  756SOL    HW2 2268   2.290   2.434   2.672  2.2996  0.7330  0.8718
  757SOL     OW 2269   1.870   0.594   0.482 -0.5698 -0.1813 -0.3620
  757SOL    HW1 2270   1.860   0.615   0.383  2.6949  1.7808  1.0344
  757SOL    HW2 2271   1.914   0.498   0.495  1.4920 -2.6358  2.9023
  758SOL     OW 2272   2.154   0.527   1.134 -0.1919 -0.2643  0.2422
  758SOL    HW1 2273   2.179   0.600   1.198  1.3504 -2.1950 -1.0587
  758SOL    HW2 2274   2.199   0.539   1.041  0.0023  0.2328  0.6264
  759SOL     OW 2275   2.579   0.541   1.076 -0.1354 -0.0168 -0.3299
  759SOL    HW1 2276   2.507   0.477   1.111  0.6914 -0.1249  0.8272
  759SOL    HW2 2277   2.571   0.632   1.125  0.2535  3.1639  1.1398
  760SOL     OW 2278   2.186   1.283   1.297  0.7098 -0.1830 -0.1178
  760SOL    HW1 2279   2.099   1.337   1.292  1.5991  0.5295  1.7932
  760SOL    HW2 2280   2.211   1.238   1.210 -0.2427 -1.3085 -0.5264
  761SOL     OW 2281   0.428   0.324   0.616 -0.4236 -0.2218  0.5133
  761SOL    HW1 2282   0.522   0.360   0.624 -1.9711 -0.2751  1.3729
  761SOL    HW2 2283   0.431   0.222   0.605 -0.5539 -2.0585 -0.9090
  762SOL     OW 2284   0.873   1.830   1.258 -0.0344 -0.6421  0.3269
  762SOL    HW1 2285   0.948   1.780   1.214 -1.8097  1.5014  1.1182
  762SOL    HW2 2286   0.784   1.782   1.247 -0.5332 -0.6033  1.0672
  763SOL     OW 2287   1.446   1.069   1.717  0.3425 -0.3951 -0.3952
  763SOL    HW1 2288   1.425   1.036   1.810 -0.5394 -0.9748  1.6931
  763SOL    HW2 2289   1.500   1.005   1.665 -0.4907  0.4903  1.6926
  764SOL     OW 2290   0.190   1.787   2.605 -0.4054 -0.0124 -0.1678
  764SOL    HW1 2291   0.164   1.718   2.677 -0.1851 -0.8163 -2.3360
  764SOL    HW2 2292   0.286   1.810   2.620 -3.0034 -2.5172  0.1629
  765SOL     OW 2293   1.247   2.425   1.169 -0.2296 -0.5845 -0.1922
  765SOL    HW1 2294   1.175   2.423   1.240 -1.4396 -2.5584  1.8602
  765SOL    HW2 2295   1.324   2.492   1.190 -1.2062  0.7697  2.0596
  766SOL     OW 2296   2.689   2.252   2.631 -0.3693 -0.3501  0.0529
  766SOL    HW1 2297   2.671   2.336   2.689 -0.1451  2.1261  0.5814
  766SOL    HW2 2298   2.685   2.280   2.531 -0.7211 -0.9205 -0.8193
  767SOL     OW 2299   0.825   1.390   2.549  0.5528  0.1761  0.5228
  767SOL    HW1 2300   0.841   1.432   2.642  3.0603 -0.9467  0.5715
  767SOL    HW2 2301   0.728   1.366   2.536 -3.1997 -1.6638 -0.0273
  768SOL     OW 2302   1.319   1.883   3.020 -0.1628  0.0014 -0.5080
  768SOL    HW1 2303   1.313   1.818   2.938  0.8040  0.4189 -0.3096
  768SOL    HW2 2304   1.280   1.836   0.016 -0.8394 -2.4921  0.5409
  769SOL     OW 2305   0.494   2.339   1.118 -0.0246  0.4944 -0.3187
  769SOL    HW1 2306   0.527   2.239   1.107 -0.5337 -2.6530 -2.8971
  769SOL    HW2 2307   0.407   2.348   1.076 -0.1766 -1.6491  2.5616
  770SOL     OW 2308   1.140   1.149   2.544 -0.6788  0.4230  0.5169
  770SOL    HW1 2309   1.116   1.209   2.468  1.3342 -1.2241 -3.0049
  770SOL    HW2 2310   1.114   1.049   2.519 -0.4325 -3.0444 -1.1811
  771SOL     OW 2311   3.083   2.839   2.226  0.1268 -0.2575 -0.5422
  771SOL    HW1 2312   0.077   2.866   2.280 -0.4367 -1.2351 -0.4960
  771SOL    HW2 2313   3.078   2.737   2.210 -0.7209  2.3167 -1.3607
  772SOL     OW 2314   2.318   2.521   1.835 -0.4674  0.1550 -0.0281
  772SOL    HW1 2315   2.310   2.568   1.924 -0.9153 -2.1967 -3.0506
  772SOL    HW2 2316   2.311   2.580   1.756 -1.9884  0.2404 -0.3765
  773SOL     OW 2317   0.620   1.998   1.670 -0.2111  0.6297  0.6802
  773SOL    HW1 2318   0.578   2.063   1.603 -0.4391 -0.1426 -3.0870
  773SOL    HW2 2319   0.675   2.041   1.742 -2.3948 -1.0333  0.6012
  774SOL     OW 2320   1.489   0.544   1.955 -0.0652  0.1619 -0.1650
  774SOL    HW1 2321   1.498   0.528   1.856 -0.3959 -2.1119  0.4447
  774SOL    HW2 2322   1.559   0.611   1.990 -0.2873 -1.3233 -0.3662
  775SOL     OW 2323   1.951   2.795   3.001  0.2578  0.4200 -0.3609
  775SOL    HW1 2324   1.964   2.900   3.004 -0.4912 -1.0510  1.0291
  775SOL    HW2 2325   2.041   2.754   2.974 -2.0720  0.9357 -0.9458
  776SOL     OW 2326   3.044   0.227   2.063  0.2222 -0.3129 -0.2109
  776SOL    HW1 2327   3.034   0.299   1.998 -1.1171  1.3816 -1.5180
  776SOL    HW2 2328   0.025   0.161   2.022 -0.2761  0.5494 -0.1623
  777SOL     OW 2329   2.483   2.337   1.980 -0.1732 -0.2628 -0.0565
  777SOL    HW1 2330   2.460   2.249   2.021  1.1056  0.2766  1.2112
  777SOL    HW2 2331   2.399   2.373   1.936 -1.0419  2.8244  0.7972
  778SOL     OW 2332   1.939   0.793   2.193 -0.1871 -0.2311 -0.3189
  778SOL    HW1 2333   1.947   0.886   2.243 -0.9553  0.0013 -0.6031
  778SOL    HW2 2334   1.851   0.753   2.203 -0.6064  2.8568 -0.7670
  779SOL     OW 2335   2.532   0.782   0.742 -0.0238  0.1809 -0.1466
  779SOL    HW1 2336   2.486   0.718   0.677  3.4912  2.1912  0.3954
  779SOL    HW2 2337   2.626   0.797   0.717 -3.0649  0.6841  1.0143
  780SOL     OW 2338   2.350   0.266   2.969 -0.4350  0.0423 -0.6244
  780SOL    HW1 2339   2.255   0.292   2.997 -1.9255 -0.9087 -0.2787
  780SOL    HW2 2340   2.375   0.166   2.971  1.6550 -0.8166 -1.3417
  781SOL     OW 2341   0.339   2.242   1.399 -0.5837  0.0934  0.4468
  781SOL    HW1 2342   0.425   2.187   1.399 -0.7991  0.6427 -1.0082
  781SOL    HW2 2343   0.298   2.248   1.490 -0.8385  1.9602 -0.7846
  782SOL     OW 2344   2.378   2.491   2.863 -0.1012 -0.2398 -0.0939
  782SOL    HW1 2345   2.477   2.482   2.832  3.4603 -0.5031 -0.1385
  782SOL    HW2 2346   2.382   2.465   2.961  0.1854 -1.4885 -0.4875
  783SOL     OW 2347   0.482   1.747   1.380 -0.2927  0.6147  0.2519
  783SOL    HW1 2348   0.538   1.716   1.464 -0.1424 -1.0992  3.2259
  783SOL    HW2 2349   0.510   1.711   1.290 -0.7268 -2.9265 -0.0107
  784SOL     OW 2350   1.526   0.520   3.027  0.2260  0.0317  0.3428
  784SOL    HW1 2351   1.500   0.426   2.997  0.5245 -2.0240 -1.8936
  784SOL    HW2 2352   1.575   0.515   0.033  1.3999 -2.3435 -0.9759
  785SOL     OW 2353   2.562   3.076   0.934 -0.3101  0.2369  0.0914
  785SOL    HW1 2354   2.474   3.064   0.885 -0.9224  1.0141  1.0679
  785SOL    HW2 2355   2.565   0.084   0.963  0.4930 -0.2040  0.0522
  786SOL     OW 2356   1.037   2.060   1.981  0.8575  0.1517  0.3929
  786SOL    HW1 2357   1.033   1.976   2.041 -0.4527 -0.9384  1.2321
  786SOL    HW2 2358   1.065   2.148   2.028 -2.0657  0.6394  3.6903
  787SOL     OW 2359   1.253   0.886   1.173  0.4289  0.1228 -0.5386
  787SOL    HW1 2360   1.234   0.932   1.263  0.0728  4.1459 -0.5203
  787SOL    HW2 2361   1.350   0.849   1.166  1.6050 -2.1325  1.6506
  788SOL     OW 2362   0.101   0.683   0.477 -0.2492 -0.0355 -0.2176
  788SOL    HW1 2363   0.147   0.772   0.500  2.9339  1.2880  1.9643
  788SOL    HW2 2364   0.165   0.614   0.446  0.1760  1.5280  1.4312
  789SOL     OW 2365   0.057   2.024   1.346 -0.0375  0.1725  0.2548
  789SOL    HW1 2366   0.119   2.052   1.270  1.4154  0.2913 -1.5284
  789SOL    HW2 2367   3.074   1.962   1.308 -0.7826  0.3352  0.7080
  790SOL     OW 2368   0.942   0.656   2.166  0.3178 -0.3959  0.0454
  790SOL    HW1 2369   1.031   0.626   2.204  3.0286 -2.6896  0.7405
  790SOL    HW2 2370   0.897   0.720   2.233  1.2438  0.0664 -1.3323
  791SOL     OW 2371   1.616   0.630   0.581  0.0724 -0.3133  0.2668
  791SOL    HW1 2372   1.710   0.626   0.540 -2.9110  1.6896  1.1104
  791SOL    HW2 2373   1.600   0.562   0.659 -1.2292 -2.0605  1.2373
  792SOL     OW 2374   1.417   2.554   1.882 -0.2591 -0.0217 -0.2422
  792SOL    HW1 2375   1.369   2.583   1.971 -1.0158  0.4298 -0.5652
  792SOL    HW2 2376   1.374   2.600   1.802 -1.2223  2.4810  1.9675
  793SOL     OW 2377   1.295   0.482   0.644  0.0384 -0.2287 -0.1738
  793SOL    HW1 2378   1.283   0.584   0.632  0.3443  3.3073  0.8718
  793SOL    HW2 2379   1.366   0.470   0.713  1.5593 -0.6319  1.5577
  794SOL     OW 2380   0.480   0.823   2.116  0.3342 -0.0646  0.1975
  794SOL    HW1 2381   0.386   0.851   2.146 -1.4605 -1.7018  2.3840
  794SOL    HW2 2382   0.497   0.840   2.017  0.7013 -1.1869 -0.5075
  795SOL     OW 2383   0.368   2.126   2.246  0.2265  0.1238 -0.6193
  795SOL    HW1 2384   0.421   2.216   2.250  2.0718  2.7271  0.5955
  795SOL    HW2 2385   0.403   2.057   2.314 -1.0139  0.9059 -1.0910
  796SOL     OW 2386   2.566   0.780   2.105  0.1142 -0.1013 -0.1509
  796SOL    HW1 2387   2.557   0.776   2.206  1.0430 -0.6981 -1.4400
  796SOL    HW2 2388   2.635   0.848   2.069  1.8454 -0.6672  1.2950
  797SOL     OW 2389   2.803   2.431   3.025 -0.3751 -0.9262 -0.5301
  797SOL    HW1 2390   2.806   2.532   3.060  0.6184 -0.5495  0.8363
  797SOL    HW2 2391   2.752   2.375   0.007 -0.0367  0.7598 -0.7374
  798SOL     OW 2392   0.144   2.391   2.256  0.6295  0.1202 -0.8206
  798SOL    HW1 2393   0.244   2.377   2.252 -0.9445 -1.2421 -1.9943
  798SOL    HW2 2394   0.101   2.325   2.322  0.8114 -0.9915  0.3336
  799SOL     OW 2395   0.342   2.102   2.816 -0.3507  0.4158  0.0260
  799SOL    HW1 2396   0.431   2.120   2.861  1.2310  0.2279 -0.6313
  799SOL    HW2 2397   0.265   2.100   2.887  0.4682 -0.2322  2.1885
  800SOL     OW 2398   0.704   1.939   3.074 -0.4570  0.2651 -0.1642
  800SOL    HW1 2399   0.702   1.865   0.062  3.7418 -1.5287  1.4199
  800SOL    HW2 2400   0.796   1.983   3.076 -1.0344 -1.8482 -2.4356
  801SOL     OW 2401   1.797   1.343   1.484 -0.0984  0.6326 -0.5039
  801SOL    HW1 2402   1.849   1.281   1.551  0.0158 -3.8755  5.1836
  801SOL    HW2 2403   1.722   1.392   1.524  0.6622  0.0343 -0.5954
  802SOL     OW 2404   2.730   1.198   0.307  0.5986 -0.3908 -0.2268
  802SOL    HW1 2405   2.713   1.276   0.373  1.3567  3.4719  1.2024
  802SOL    HW2 2406   2.769   1.115   0.351 -1.3392 -1.7172  0.4285
  803SOL     OW 2407   0.861   1.783   2.654 -0.0452  0.0678 -0.2845
  803SOL    HW1 2408   0.790   1.795   2.725  0.6519  0.5936  0.0770
  803SOL    HW2 2409   0.957   1.798   2.693 -0.5391  1.7273 -0.3039
  804SOL     OW 2410   1.510   1.288   0.215 -0.3304 -0.3461  0.1252
  804SOL    HW1 2411   1.467   1.332   0.301  0.2619  0.6877  1.0762
  804SOL    HW2 2412   1.607   1.261   0.233 -0.7565  2.0597 -1.4513
  805SOL     OW 2413   2.684   1.537   2.747 -0.0129  0.5945 -0.8074
  805SOL    HW1 2414   2.637   1.625   2.765 -1.5952 -0.6387  0.0969
  805SOL    HW2 2415   2.750   1.517   2.822  1.3430 -1.0388  1.2832
  806SOL     OW 2416   0.555   2.993   0.383 -0.1848  0.1638 -0.2390
  806SOL    HW1 2417   0.523   3.079   0.433  1.0166  2.2199 -0.0733
  806SOL    HW2 2418   0.571   2.923   0.453  0.0278  0.3384  0.5879
  807SOL     OW 2419   2.058   1.752   2.691  0.3593 -0.0377  0.2644
  807SOL    HW1 2420   1.998   1.816   2.740 -2.2991  0.6476  2.3174
  807SOL    HW2 2421   2.027   1.658   2.705  2.0646  1.3496 -1.8644
  808SOL     OW 2422   0.637   1.314   0.762 -0.0059 -0.3797 -0.1616
  808SOL    HW1 2423   0.606   1.410   0.751 -0.5443  0.2289 -0.2693
  808SOL    HW2 2424   0.624   1.273   0.852  0.0177  1.2625 -4.4241
  809SOL     OW 2425   2.432   0.953   0.412 -0.3385  0.1361 -0.3435
  809SOL    HW1 2426   2.466   1.007   0.331  0.4967  1.2805  0.5288
  809SOL    HW2 2427   2.508   0.892   0.447 -1.1328 -3.0127  1.5564
  810SOL     OW 2428   0.985   1.037   0.451  0.6094  0.0245 -0.0102
  810SOL    HW1 2429   0.889   1.065   0.423  0.1992  0.2601 -2.2633
  810SOL    HW2 2430   1.039   1.007   0.368 -2.4961  0.6670  0.4749
  811SOL     OW 2431   1.461   2.611   1.194  0.4662  0.2519 -0.6739
  811SOL    HW1 2432   1.518   2.630   1.108  0.1699 -3.1968 -1.8097
  811SOL    HW2 2433   1.522   2.566   1.263 -1.1516 -0.7151  4.6203
  812SOL     OW 2434   1.061   2.577   1.721 -0.3611 -0.4714  0.5535
  812SOL    HW1 2435   1.070   2.649   1.791  0.6555 -0.8540  1.2547
  812SOL    HW2 2436   0.997   2.606   1.646  2.7312 -0.8272 -0.1135
  813SOL     OW 2437   1.239   2.986   1.782 -0.0313 -1.2592 -0.5479
  813SOL    HW1 2438   1.178   3.073   1.786 -2.5108  5.0071  0.5996
  813SOL    HW2 2439   1.236   2.945   1.686  0.5958 -2.2187 -1.0422
  814SOL     OW 2440   1.212   2.399   2.594  0.2167 -0.8851  0.1829
  814SOL    HW1 2441   1.127   2.376   2.539  1.5623  1.1212  0.1660
  814SOL    HW2 2442   1.220   2.332   2.676 -1.1464 -1.6425  1.2449
  815SOL     OW 2443   0.831   0.269   2.313  0.0562  0.1807 -0.6376
  815SOL    HW1 2444   0.904   0.228   2.254  0.6750 -3.5313 -0.5973
  815SOL    HW2 2445   0.806   0.362   2.283 -1.6601 -2.3822  0.2797
  816SOL     OW 2446   2.093   0.338   3.034 -0.7948 -0.0022 -0.3400
  816SOL    HW1 2447   2.106   0.424   2.980  1.9359  0.5246 -0.0016
  816SOL    HW2 2448   2.020   0.279   2.989 -0.3311  0.0253  2.3968
  817SOL     OW 2449   2.265   0.361   2.362  0.3755 -0.6432  0.0306
  817SOL    HW1 2450   2.246   0.365   2.460  0.9123  0.3040 -2.5427
  817SOL    HW2 2451   2.351   0.415   2.352 -1.0943  1.8075  2.2402
  818SOL     OW 2452   1.694   0.504   0.153 -0.1237  0.0995 -0.0929
  818SOL    HW1 2453   1.759   0.580   0.162 -1.5695  1.6943 -1.8876
  818SOL    HW2 2454   1.732   0.414   0.177 -0.8900 -0.2130 -0.0019
  819SOL     OW 2455   2.339   1.736   2.651  0.1655 -0.2779  0.0856
  819SOL    HW1 2456   2.236   1.752   2.669 -0.5688 -0.2574 -1.4852
  819SOL    HW2 2457   2.397   1.786   2.714 -0.2693  0.5121 -2.3831
  820SOL     OW 2458   0.071   1.710   0.097 -0.3800  0.0991  0.6723
  820SOL    HW1 2459   0.085   1.772   0.020  0.1023 -0.6225  0.9463
  820SOL    HW2 2460   0.136   1.631   0.084  1.3213 -1.1090 -0.3386
  821SOL     OW 2461   0.262   2.992   0.844 -0.4849 -0.9488  0.0001
  821SOL    HW1 2462   0.304   0.001   0.842 -0.1423 -1.1002  1.7584
  821SOL    HW2 2463   0.266   2.949   0.758  2.2151 -0.2022  2.6940
  822SOL     OW 2464   2.742   2.672   0.070 -1.1606  0.8254  0.3990
  822SOL    HW1 2465   2.739   2.691   0.169 -0.1243 -0.4508  1.6894
  822SOL    HW2 2466   2.751   2.757   0.011 -0.2939 -0.1492 -1.8649
  823SOL     OW 2467   1.204   0.631   2.235  0.3295 -0.4806  0.0578
  823SOL    HW1 2468   1.214   0.657   2.136 -1.3874 -0.9946 -1.7432
  823SOL    HW2 2469   1.296   0.607   2.268  0.6419  0.3540 -1.0354
  824SOL     OW 2470   2.707   2.216   1.902  0.0304  0.1951 -0.2430
  824SOL    HW1 2471   2.609   2.247   1.900 -2.9275  1.2327 -1.9239
  824SOL    HW2 2472   2.773   2.285   1.862  2.1203  0.0990 -0.1565
  825SOL     OW 2473   2.915   2.142   2.757 -0.2797 -0.1445  0.2240
  825SOL    HW1 2474   2.847   2.198   2.706  3.8791  1.4077  0.5046
  825SOL    HW2 2475   2.977   2.088   2.702  1.1824  1.6803  1.2284
  826SOL     OW 2476   2.370   1.180   2.486 -0.0439 -0.3870 -0.0293
  826SOL    HW1 2477   2.357   1.146   2.391  0.0514 -2.1918 -0.3776
  826SOL    HW2 2478   2.292   1.241   2.514 -2.1946 -0.5627 -0.1992
  827SOL     OW 2479   2.385   2.414   1.113 -0.3406  0.1729 -0.4584
  827SOL    HW1 2480   2.352   2.320   1.137  0.5512  2.8100  2.3783
  827SOL    HW2 2481   2.400   2.466   1.203  0.3662  4.0999  3.6989
  828SOL     OW 2482   0.223   3.069   1.465 -0.1660  0.2857  0.6570
  828SOL    HW1 2483   0.139   3.031   1.514  1.6561 -2.0799  0.3909
  828SOL    HW2 2484   0.237   0.072   1.507 -0.1038 -0.5926  0.4054
  829SOL     OW 2485   1.497   2.464   2.269  0.1185  0.1583 -0.3255
  829SOL    HW1 2486   1.459   2.485   2.361 -0.9778  0.9636 -0.8212
  829SOL    HW2 2487   1.594   2.432   2.275  2.1362 -0.3524  1.6724
  830SOL     OW 2488   0.920   0.391   0.365 -0.0378  0.1626 -0.0578
  830SOL    HW1 2489   0.818   0.394   0.370 -0.0205  0.2879  0.9722
  830SOL    HW2 2490   0.963   0.393   0.461  0.2279  0.2713  0.1015
  831SOL     OW 2491   2.863   1.509   2.933  0.1893  0.2187 -0.0764
  831SOL    HW1 2492   2.880   1.564   3.015  2.0803 -3.7663 -2.6924
  831SOL    HW2 2493   2.929   1.431   2.928 -0.5291  0.7203 -1.9177
  832SOL     OW 2494   1.733   1.993   2.174 -0.1465  0.3502 -0.1047
  832SOL    HW1 2495   1.634   1.991   2.205 -1.4100  0.8969  1.7944
  832SOL    HW2 2496   1.740   2.082   2.123 -3.7821 -1.3831 -3.6800
  833SOL     OW 2497   0.889   0.317   1.949  0.0809  1.0923  0.3200
  833SOL    HW1 2498   0.978   0.307   2.001  1.3112  1.3214 -1.7335
  833SOL    HW2 2499   0.851   0.226   1.926  0.6528  1.8418 -0.2754
  834SOL     OW 2500   0.602   1.047   1.448 -0.2529 -0.0987  0.7447
  834SOL    HW1 2501   0.528   1.016   1.384  0.1582 -2.2437 -1.0151
  834SOL    HW2 2502   0.636   1.139   1.420 -0.8185  0.1696  0.3903
  835SOL     OW 2503   2.678   0.963   0.051 -0.1631 -0.4410 -0.0293
  835SOL    HW1 2504   2.696   0.888   0.117 -3.4057 -0.3020 -1.0573
  835SOL    HW2 2505   2.632   1.050   0.089  0.2414  1.6888  0.8591
  836SOL     OW 2506   1.056   1.803   0.301 -0.6098  0.6338  0.5867
  836SOL    HW1 2507   1.019   1.890   0.327  3.0388 -2.3699 -3.8676
  836SOL    HW2 2508   1.135   1.817   0.240  1.1880  4.8140 -0.6739
  837SOL     OW 2509   1.550   1.776   1.021  0.3748  0.2700 -0.2403
  837SOL    HW1 2510   1.636   1.824   0.989 -2.9300  0.3706 -1.0398
  837SOL    HW2 2511   1.514   1.812   1.108 -0.9894  1.4710  1.5586
  838SOL     OW 2512   1.031   1.072   2.205  0.8009 -0.1580 -0.0761
  838SOL    HW1 2513   0.981   1.046   2.120  1.5526 -0.8246 -1.3073
  838SOL    HW2 2514   0.965   1.131   2.264 -2.0195  3.2156  1.5341
  839SOL     OW 2515   0.793   2.012   2.522 -0.0152 -0.7572  0.3599
  839SOL    HW1 2516   0.842   1.929   2.555 -0.1718 -0.0384  0.6236
  839SOL    HW2 2517   0.776   2.068   2.604  0.3701  0.8606  0.1369
  840SOL     OW 2518   0.659   2.267   0.274  0.6762  0.6578 -0.3440
  840SOL    HW1 2519   0.604   2.328   0.216  2.2137 -0.4677  0.6710
  840SOL    HW2 2520   0.669   2.303   0.368  2.2304  0.4277 -0.6356
  841SOL     OW 2521   1.588   2.396   0.243 -0.1145  0.2504  0.0836
  841SOL    HW1 2522   1.565   2.433   0.337 -3.7739 -0.0939  1.0336
  841SOL    HW2 2523   1.665   2.445   0.193  0.1500 -0.5489  2.4738
  842SOL     OW 2524   0.579   0.851   2.993 -0.0898 -0.0169 -0.3804
  842SOL    HW1 2525   0.574   0.789   3.072 -1.3699 -1.7206  0.4218
  842SOL    HW2 2526   0.658   0.841   2.934 -1.6200  1.0378  2.6293
  843SOL     OW 2527   1.134   0.232   0.722  0.1001  0.5993  0.2022
  843SOL    HW1 2528   1.077   0.302   0.671 -0.4365  0.2887  0.6277
  843SOL    HW2 2529   1.170   0.271   0.805 -1.4262  0.4255  0.8791
  844SOL     OW 2530   2.937   0.065   2.536  0.3249  0.1520 -0.0610
  844SOL    HW1 2531   2.866   0.138   2.527 -2.9057  1.2541 -0.4084
  844SOL    HW2 2532   2.903   3.064   2.501  0.0560 -1.4644  1.2214
  845SOL     OW 2533   2.629   2.306   1.122 -0.3185  0.0422 -0.4006
  845SOL    HW1 2534   2.535   2.346   1.110  0.6261 -2.7959  2.1553
  845SOL    HW2 2535   2.635   2.236   1.195 -0.8714 -0.6664  0.0358
  846SOL     OW 2536   2.744   1.779   2.159 -0.0568 -0.5014 -0.1879
  846SOL    HW1 2537   2.801   1.854   2.133 -1.6767  0.1961  2.7764
  846SOL    HW2 2538   2.800   1.695   2.168 -1.9746  0.7731 -1.3244
  847SOL     OW 2539   1.172   0.741   1.547  0.5926 -0.1025 -0.0507
  847SOL    HW1 2540   1.148   0.768   1.642  0.8592  0.1008 -3.9413
  847SOL    HW2 2541   1.110   0.673   1.507 -1.0686 -0.5749  0.9332
  848SOL     OW 2542   2.933   2.986   0.077 -0.0180  0.1764  0.4032
  848SOL    HW1 2543   2.867   3.030   0.139  2.6702  0.4753  2.6263
  848SOL    HW2 2544   2.994   3.052   0.029  0.6910  0.3690 -1.3582
  849SOL     OW 2545   0.733   2.978   3.011 -0.7047 -0.1466  0.4350
  849SOL    HW1 2546   0.666   2.996   2.936 -0.6220 -0.1372 -0.8356
  849SOL    HW2 2547   0.819   3.030   3.002 -1.2163  0.5274  0.2313
  850SOL     OW 2548   1.289   3.016   1.027  0.9197  0.2545  0.0297
  850SOL    HW1 2549   1.380   3.009   0.974  1.2517 -1.2258 -2.3964
  850SOL    HW2 2550   1.198   2.990   0.984  0.2263 -0.5815  0.4769
  851SOL     OW 2551   2.520   0.167   1.986  0.0386  0.1894  0.2943
  851SOL    HW1 2552   2.516   0.247   1.925  1.1562  1.0460  1.2630
  851SOL    HW2 2553   2.598   0.106   1.960  0.2312  0.0975  0.5504
  852SOL     OW 2554   2.104   0.704   2.510  0.7168  0.3648  0.3356
  852SOL    HW1 2555   2.094   0.671   2.417 -1.5778 -0.4742  2.4888
  852SOL    HW2 2556   2.192   0.663   2.551  2.4758  0.0576  2.2214
  853SOL     OW 2557   3.057   3.040   0.463 -0.1985  0.2096  0.0146
  853SOL    HW1 2558   3.025   0.051   0.471 -2.2527  2.5803  0.2805
  853SOL    HW2 2559   3.001   2.982   0.525  0.9333  0.6563  0.5315
  854SOL     OW 2560   2.475   1.341   2.033  0.4526  0.3379  0.1912
  854SOL    HW1 2561   2.488   1.392   2.116  1.4867 -0.1494 -0.7553
  854SOL    HW2 2562   2.500   1.398   1.955 -0.7742  0.9470  1.1207
  855SOL     OW 2563   0.874   2.617   0.200  0.1339 -0.1898 -0.5308
  855SOL    HW1 2564   0.820   2.636   0.121  1.3436 -2.7089  0.8834
  855SOL    HW2 2565   0.902   2.522   0.224 -0.9923 -0.0682  0.4875
  856SOL     OW 2566   3.057   0.007   2.770  0.0057 -0.0437  0.0758
  856SOL    HW1 2567   3.020   0.035   2.677 -0.3639 -0.5115  0.3556
  856SOL    HW2 2568   3.073   2.991   2.768 -0.4228 -0.1847 -2.6839
  857SOL     OW 2569   1.169   2.906   1.539 -0.2830 -0.4702  0.7945
  857SOL    HW1 2570   1.248   2.859   1.495 -2.4644  0.0485 -2.4116
  857SOL    HW2 2571   1.096   2.920   1.465 -2.3667 -1.6899 -3.1832
  858SOL     OW 2572   2.829   2.412   1.702  0.4363  0.7865 -0.0818
  858SOL    HW1 2573   2.786   2.331   1.655 -2.5532 -2.2619 -1.2306
  858SOL    HW2 2574   2.933   2.423   1.677  2.3599  0.1238 -1.7256
  859SOL     OW 2575   1.429   2.293   1.778  0.4720 -0.0654 -0.3670
  859SOL    HW1 2576   1.348   2.297   1.713 -0.1635 -0.1552 -0.3903
  859SOL    HW2 2577   1.440   2.380   1.824  0.1383 -2.3558 -1.0064
  860SOL     OW 2578   2.313   2.863   0.111  0.3369  0.3356 -0.2608
  860SOL    HW1 2579   2.282   2.868   0.015  1.8522 -0.6111  0.0449
  860SOL    HW2 2580   2.257   2.799   0.166 -0.2084 -1.0263 -1.0818
  861SOL     OW 2581   2.228   2.853   0.599 -0.3881  0.2870 -0.4787
  861SOL    HW1 2582   2.129   2.878   0.599  0.4738  1.9311 -0.5897
  861SOL    HW2 2583   2.236   2.750   0.599 -2.2329 -1.6518 -1.1726
  862SOL     OW 2584   1.764   0.229   2.339 -0.3560  0.0029  0.2902
  862SOL    HW1 2585   1.760   0.142   2.292 -0.8857 -0.1454  2.0105
  862SOL    HW2 2586   1.853   0.277   2.317  2.7415  2.8055  3.1044
  863SOL     OW 2587   0.043   0.632   0.805  0.2741  0.1672  0.2315
  863SOL    HW1 2588   0.139   0.623   0.770  1.6249  1.2939  0.4387
  863SOL    HW2 2589   3.058   0.630   0.728 -0.0174  0.1953  0.8115
  864SOL     OW 2590   0.294   2.677   2.199  0.0904  0.2204  0.0913
  864SOL    HW1 2591   0.370   2.611   2.194 -0.0205 -0.2928 -1.7943
  864SOL    HW2 2592   0.205   2.628   2.203  1.1455 -0.1649  1.6293
  865SOL     OW 2593   0.590   1.113   3.047 -0.2159 -0.0729 -0.4848
  865SOL    HW1 2594   0.592   1.017   3.010 -2.0197  2.1757  0.5811
  865SOL    HW2 2595   0.501   1.124   0.006  0.4770 -0.8497 -0.6220
  866SOL     OW 2596   2.768   0.731   0.211  0.2925 -0.7161 -0.0259
  866SOL    HW1 2597   2.868   0.739   0.221 -2.5064 -0.1595 -1.4817
  866SOL    HW2 2598   2.743   0.637   0.172 -1.8526 -0.7714 -2.3685
  867SOL     OW 2599   3.080   2.820   2.838 -0.6362  0.3350  0.3100
  867SOL    HW1 2600   0.060   2.828   2.915 -1.4100 -0.2302 -1.1096
  867SOL    HW2 2601   3.019   2.748   2.869 -1.1183 -2.4820  0.4771
  868SOL     OW 2602   1.500   2.949   0.272  0.3601  0.5054  0.5033
  868SOL    HW1 2603   1.447   3.015   0.320 -0.0593 -1.9371 -1.4753
  868SOL    HW2 2604   1.537   2.885   0.340 -0.9164  0.0316  0.5355
  869SOL     OW 2605   1.572   1.639   0.783 -0.2832  0.4284 -0.3453
  869SOL    HW1 2606   1.535   1.673   0.872  0.6361  2.8346  2.8309
  869SOL    HW2 2607   1.623   1.711   0.736  1.3805 -0.2870  2.4877
  870SOL     OW 2608   1.753   1.877   0.873  0.0152 -0.6745 -0.3514
  870SOL    HW1 2609   1.842   1.853   0.918 -2.4370 -0.8202  0.7247
  870SOL    HW2 2610   1.772   1.936   0.789 -1.0569 -0.3463 -0.4228
  871SOL     OW 2611   1.323   1.440   1.385 -0.5325  0.0944  0.0382
  871SOL    HW1 2612   1.291   1.372   1.456 -0.4225 -1.2421 -2.1668
  871SOL    HW2 2613   1.347   1.393   1.297  3.2879 -1.0870 -1.1653
  872SOL     OW 2614   1.010   1.667   1.814  0.1749  0.2863 -0.4315
  872SOL    HW1 2615   1.010   1.570   1.837 -0.2543  0.2017  0.7410
  872SOL    HW2 2616   0.990   1.726   1.894  1.7363 -1.3695  0.4853
  873SOL     OW 2617   0.912   1.612   2.444 -0.3675  0.1646 -0.5009
  873SOL    HW1 2618   0.883   1.518   2.468 -0.3883  0.0125  0.0700
  873SOL    HW2 2619   0.908   1.671   2.528  1.1080  0.3829  0.1898
  874SOL     OW 2620   0.539   1.248   1.055 -0.0974 -0.7630 -0.1236
  874SOL    HW1 2621   0.442   1.268   1.068 -0.8437 -0.2164  0.7736
  874SOL    HW2 2622   0.572   1.166   1.106 -1.3327  0.1210  1.5238
  875SOL     OW 2623   2.690   0.154   1.199 -0.0528  0.3093  0.3342
  875SOL    HW1 2624   2.610   0.194   1.150  2.8988 -0.3947  1.5012
  875SOL    HW2 2625   2.676   0.156   1.304 -1.2188 -0.7939  1.7450
  876SOL     OW 2626   0.800   0.647   3.053 -0.1369 -0.9168 -0.1238
  876SOL    HW1 2627   0.806   0.546   3.079  2.4135 -2.0158 -1.2934
  876SOL    HW2 2628   0.818   0.712   0.045 -2.3113  2.1029  0.6714
  877SOL     OW 2629   3.041   0.245   1.338  0.6308  0.2940  0.1876
  877SOL    HW1 2630   2.994   0.298   1.262 -0.1903  3.8312  0.4344
  877SOL    HW2 2631   2.977   0.171   1.375  1.9912 -1.9585 -1.1866
  878SOL     OW 2632   1.585   2.187   0.028  0.1119  0.2525  0.6823
  878SOL    HW1 2633   1.598   2.275   0.078 -2.2507 -0.1178  1.7904
  878SOL    HW2 2634   1.669   2.133   0.028 -3.0161  1.6351  1.7621
  879SOL     OW 2635   2.255   1.835   1.501 -0.1073  0.5791 -0.3794
  879SOL    HW1 2636   2.174   1.895   1.499  1.7292 -1.3465  0.5371
  879SOL    HW2 2637   2.306   1.852   1.593 -0.2858  1.3439 -1.2612
  880SOL     OW 2638   0.858   0.222   1.601 -0.1088  0.4624  0.3177
  880SOL    HW1 2639   0.794   0.179   1.673 -1.2218 -2.3361  2.8874
  880SOL    HW2 2640   0.832   0.316   1.582  1.5218 -1.6061 -1.9924
  881SOL     OW 2641   1.000   1.960   3.029 -0.0785 -0.2109  0.0013
  881SOL    HW1 2642   1.003   2.021   2.950 -0.2850  0.3589  2.4189
  881SOL    HW2 2643   0.985   1.866   3.004  2.2058 -1.8869 -0.7340
  882SOL     OW 2644   2.212   1.218   1.970 -0.1585  0.0286 -0.8785
  882SOL    HW1 2645   2.233   1.120   1.982  0.1808  1.1279 -0.8228
  882SOL    HW2 2646   2.296   1.273   1.959 -0.4108 -1.0088 -3.0288
  883SOL     OW 2647   1.266   0.720   1.984 -0.0405  0.0612 -0.1770
  883SOL    HW1 2648   1.196   0.734   1.909  1.4716  0.5811  0.0532
  883SOL    HW2 2649   1.330   0.642   1.954 -0.8373  0.9752  1.0656
  884SOL     OW 2650   2.722   0.473   0.057 -0.0561 -0.5963  0.2183
  884SOL    HW1 2651   2.769   0.392   0.094  0.3451  2.9352  2.4265
  884SOL    HW2 2652   2.788   0.519   3.074  1.8050  0.1065 -0.1473
  885SOL     OW 2653   0.233   2.204   0.384 -0.0916 -0.0581 -0.4405
  885SOL    HW1 2654   0.290   2.121   0.395 -2.3268  2.3341  2.1792
  885SOL    HW2 2655   0.289   2.285   0.365 -3.6882 -3.5949  1.1488
  886SOL     OW 2656   1.988   1.454   2.926  0.2317  0.1923 -0.4408
  886SOL    HW1 2657   1.936   1.454   2.838 -2.5443 -2.4980 -1.5633
  886SOL    HW2 2658   1.944   1.387   2.987  1.5112 -0.9973 -0.7382
  887SOL     OW 2659   1.782   0.539   1.675  0.0716 -0.2349  0.3205
  887SOL    HW1 2660   1.697   0.484   1.688  0.3362  0.6540 -0.0137
  887SOL    HW2 2661   1.767   0.640   1.695 -2.3351  4.8554  0.1086
  888SOL     OW 2662   3.072   1.074   1.817  0.1545  0.1812 -0.7446
  888SOL    HW1 2663   0.004   1.056   1.719  1.1552  0.0433  1.7711
  888SOL    HW2 2664   0.066   1.109   1.865 -0.9085 -1.7080  0.1148
  889SOL     OW 2665   2.857   2.690   1.002  0.1670 -0.3127 -0.3566
  889SOL    HW1 2666   2.943   2.739   0.987 -1.4965  0.6102 -2.4884
  889SOL    HW2 2667   2.867   2.614   0.934  0.9356 -1.0089 -0.3197
  890SOL     OW 2668   0.050   2.692   2.616 -0.1524  0.2994 -0.1610
  890SOL    HW1 2669   0.082   2.602   2.655 -1.0053  3.5248 -1.0811
  890SOL    HW2 2670   0.041   2.757   2.695 -0.7937  1.8304  1.4535
  891SOL     OW 2671   0.416   1.785   0.185  0.4260 -0.3318  0.6258
  891SOL    HW1 2672   0.513   1.807   0.186  0.6185 -0.1675  1.1714
  891SOL    HW2 2673   0.413   1.693   0.230 -1.2924  1.5432 -1.2524
  892SOL     OW 2674   0.215   2.453   1.192 -0.3406 -0.1929 -0.3537
  892SOL    HW1 2675   0.278   2.415   1.263  4.4489 -3.1947  1.2427
  892SOL    HW2 2676   0.119   2.459   1.223 -2.2868  0.3474  1.6504
  893SOL     OW 2677   0.500   3.062   1.273 -0.4475  0.3783 -0.5451
  893SOL    HW1 2678   0.506   0.055   1.335  0.7940 -0.7607 -1.0271
  893SOL    HW2 2679   0.471   2.976   1.326 -1.3711 -2.3197  1.5473
  894SOL     OW 2680   2.314   1.661   0.879  0.2722 -0.4033 -0.4082
  894SOL    HW1 2681   2.398   1.707   0.858 -1.1241  0.6695 -2.5203
  894SOL    HW2 2682   2.274   1.619   0.795 -0.6090 -2.5183 -0.7166
  895SOL     OW 2683   2.671   2.637   1.627 -0.2211  0.0533 -0.1811
  895SOL    HW1 2684   2.741   2.562   1.652  2.7482 -2.4985  1.8107
  895SOL    HW2 2685   2.688   2.666   1.530 -0.4801  0.1748 -0.0067
  896SOL     OW 2686   0.993   0.550   1.478  0.2822 -0.0779  0.0202
  896SOL    HW1 2687   1.050   0.474   1.521 -0.6126 -0.5547  1.0783
  896SOL    HW2 2688   0.896   0.539   1.509 -0.4193 -2.3993  0.1027
  897SOL     OW 2689   0.895   1.605   1.578 -0.2419  0.4571  0.0452
  897SOL    HW1 2690   0.906   1.653   1.671 -0.5037  1.7198  0.3359
  897SOL    HW2 2691   0.986   1.607   1.525  3.2819  1.1103 -1.3361
  898SOL     OW 2692   1.336   2.672   1.656 -0.1492 -0.0204 -0.1240
  898SOL    HW1 2693   1.363   2.702   1.566 -1.4295 -0.6480  5.2743
  898SOL    HW2 2694   1.235   2.659   1.655 -0.1316 -1.3212 -0.6652
  899SOL     OW 2695   0.895   0.443   0.098  0.2817  0.1574  0.1363
  899SOL    HW1 2696   0.938   0.429   0.186  0.4345 -0.3211 -4.9791
  899SOL    HW2 2697   0.828   0.368   0.073 -0.0483 -2.9615 -1.5329
  900SOL     OW 2698   1.380   2.287   2.096  0.2936  0.1990  0.3260
  900SOL    HW1 2699   1.410   2.361   2.159  1.3050 -1.7350  1.9631
  900SOL    HW2 2700   1.408   2.295   1.998 -1.3374 -0.6394 -1.1508
  901SOL     OW 2701   1.101   2.148   0.103  0.2916  0.0670 -0.2135
  901SOL    HW1 2702   1.080   2.067   0.044  0.7980 -0.4898  3.0204
  901SOL    HW2 2703   1.199   2.155   0.128 -0.5538 -0.1818  0.6080
  902SOL     OW 2704   1.364   1.245   0.667  0.0621  0.1469  0.4784
  902SOL    HW1 2705   1.337   1.343   0.649 -0.0701 -0.0575  4.5750
  902SOL    HW2 2706   1.433   1.242   0.740  0.2735 -0.1834  1.4165
  903SOL     OW 2707   2.287   0.947   0.117  0.0116  0.2309  0.3901
  903SOL    HW1 2708   2.253   1.007   0.040 -0.0008  1.5888  1.1702
  903SOL    HW2 2709   2.371   0.990   0.150 -3.6816  1.9880 -0.9545
  904SOL     OW 2710   0.827   1.205   0.075  0.1350 -0.6225 -0.3346
  904SOL    HW1 2711   0.743   1.179   0.026  1.3494  0.2794 -0.0902
  904SOL    HW2 2712   0.828   1.183   0.174 -0.9199  0.1962  0.1675
  905SOL     OW 2713   2.117   2.957   1.384 -0.2264  0.4505  0.1538
  905SOL    HW1 2714   2.120   2.856   1.379 -0.9455  2.4152  1.0807
  905SOL    HW2 2715   2.042   3.000   1.438  2.5915  2.4730  1.2360
  906SOL     OW 2716   2.819   2.512   1.214 -0.1220 -0.3072 -0.4100
  906SOL    HW1 2717   2.836   2.564   1.130 -1.0419 -1.9916  1.9306
  906SOL    HW2 2718   2.760   2.435   1.189 -2.2830  4.5708  1.6400
  907SOL     OW 2719   1.135   0.953   0.257  0.2962  0.7965  0.2468
  907SOL    HW1 2720   1.191   0.862   0.249 -0.3773 -3.1384  1.5865
  907SOL    HW2 2721   1.111   0.987   0.162  3.2410 -0.3409  3.4849
  908SOL     OW 2722   1.466   0.155   0.830 -0.3176  0.6684 -0.2671
  908SOL    HW1 2723   1.378   0.146   0.880  0.2985  0.1380  3.5903
  908SOL    HW2 2724   1.542   0.182   0.894 -0.2576  0.5658 -1.5967
  909SOL     OW 2725   2.173   1.080   1.474 -0.5979  0.3334  0.2025
  909SOL    HW1 2726   2.269   1.063   1.507 -0.7083  0.6293 -0.1996
  909SOL    HW2 2727   2.168   1.150   1.401  1.8144 -0.8634  2.6565
  910SOL     OW 2728   1.935   0.524   2.086 -0.3497 -0.3301 -0.2584
  910SOL    HW1 2729   1.953   0.620   2.125 -0.9400  1.9979  0.2754
  910SOL    HW2 2730   1.981   0.515   1.987  1.9543  0.7176 -2.2782
  911SOL     OW 2731   2.516   0.851   2.918  0.4607 -0.4586 -0.4232
  911SOL    HW1 2732   2.598   0.811   2.881 -1.9876  1.3222  0.0388
  911SOL    HW2 2733   2.535   0.914   2.996 -0.0267 -2.0110 -4.6066
  912SOL     OW 2734   0.083   1.145   1.565 -0.4156 -0.0618  0.0996
  912SOL    HW1 2735   0.170   1.121   1.514 -1.2611  1.6032 -0.4043
  912SOL    HW2 2736   0.090   1.244   1.599  1.6361  0.3906 -1.2960
  913SOL     OW 2737   3.050   2.464   1.357 -0.1979 -0.4546  0.1694
  913SOL    HW1 2738   3.054   2.386   1.420  1.3982  0.8624 -2.6271
  913SOL    HW2 2739   2.963   2.477   1.307  2.0192 -0.0649  3.4620
  914SOL     OW 2740   1.724   0.961   1.907 -0.0979 -0.4641  0.2371
  914SOL    HW1 2741   1.808   1.003   1.935 -0.6871 -1.0511 -1.8367
  914SOL    HW2 2742   1.740   0.923   1.816 -5.2412  0.9307 -0.5004
  915SOL     OW 2743   2.166   0.885   1.096 -0.4476 -0.0358 -0.7812
  915SOL    HW1 2744   2.199   0.830   1.170 -1.4138  1.2340  2.7396
  915SOL    HW2 2745   2.229   0.883   1.015  0.7237  2.0126  0.9205
  916SOL     OW 2746   1.963   2.122   1.119 -0.2636 -0.0703  0.0580
  916SOL    HW1 2747   1.911   2.203   1.083 -0.0249 -0.8342 -1.5689
  916SOL    HW2 2748   1.912   2.087   1.200  0.3294  2.6310 -2.4289
  917SOL     OW 2749   1.961   2.075   2.575  0.0376 -0.3925 -0.0024
  917SOL    HW1 2750   1.936   2.135   2.656  1.3191  1.8221  0.4610
  917SOL    HW2 2751   1.884   2.029   2.533  2.5758 -2.4858  1.7611
  918SOL     OW 2752   1.793   2.632   2.298  0.5171  0.1002 -0.1927
  918SOL    HW1 2753   1.851   2.653   2.215 -1.1657  0.7387 -0.7525
  918SOL    HW2 2754   1.788   2.531   2.302  0.4785  1.3572 -0.1342
  919SOL     OW 2755   1.377   2.783   1.414 -0.2226  0.8011 -0.1964
  919SOL    HW1 2756   1.426   2.868   1.389  2.1105  0.9515 -1.5324
  919SOL    HW2 2757   1.385   2.717   1.336  1.9840  2.6560 -2.4039
  920SOL     OW 2758   0.118   0.033   2.420 -0.4272  0.0096 -0.0625
  920SOL    HW1 2759   0.142   3.023   2.455  0.9448  1.1395 -1.9870
  920SOL    HW2 2760   0.039   0.074   2.467  3.7159 -1.7387 -1.0076
  921SOL     OW 2761   2.963   0.936   1.525  0.7026 -0.3433  0.4641
  921SOL    HW1 2762   2.900   0.981   1.455  0.3595 -1.5762 -3.7156
  921SOL    HW2 2763   3.051   0.985   1.530 -1.0753  0.5680 -1.3847
  922SOL     OW 2764   2.201   2.666   0.269  0.4509 -0.5834  0.5022
  922SOL    HW1 2765   2.132   2.604   0.233  0.7402  1.8912  2.1824
  922SOL    HW2 2766   2.213   2.654   0.366  1.8882  1.1179 -2.7422
  923SOL     OW 2767   0.560   1.926   0.537  0.0930  0.0687  0.0911
  923SOL    HW1 2768   0.476   1.911   0.479  1.3133 -1.9137 -1.6632
  923SOL    HW2 2769   0.625   1.974   0.469  0.9511  1.7528 -1.6152
  924SOL     OW 2770   1.140   0.610   0.076 -0.7486  0.0313 -0.2365
  924SOL    HW1 2771   1.091   0.524   0.108 -2.3411 -1.0257 -4.0120
  924SOL    HW2 2772   1.074   0.686   0.054  2.4730  0.8902 -0.4534
  925SOL     OW 2773   2.527   0.815   1.153 -0.3730  0.1880  0.2878
  925SOL    HW1 2774   2.486   0.868   1.229  0.9009  1.2129 -1.2415
  925SOL    HW2 2775   2.478   0.828   1.063 -1.9280  0.0171  1.5045
  926SOL     OW 2776   0.550   0.352   1.199  0.5657  0.8911  0.0565
  926SOL    HW1 2777   0.451   0.368   1.177 -3.7872  1.5334  2.8305
  926SOL    HW2 2778   0.561   0.279   1.269  1.4739 -1.5412  1.3040
  927SOL     OW 2779   0.349   1.701   2.287  0.2176  0.3439 -0.5462
  927SOL    HW1 2780   0.252   1.688   2.307  3.8382  4.7186 -0.9208
  927SOL    HW2 2781   0.368   1.798   2.272  0.2842  0.7793  3.2095
  928SOL     OW 2782   0.059   0.374   2.545 -0.6506 -0.5425 -0.0619
  928SOL    HW1 2783   3.065   0.402   2.602  1.9421  0.7409 -0.8482
  928SOL    HW2 2784   0.123   0.324   2.606 -0.2115 -1.1000 -0.2507
  929SOL     OW 2785   2.901   3.031   1.134 -0.0792  0.3285  0.4475
  929SOL    HW1 2786   2.927   3.021   1.037  1.2214 -0.9795  1.4607
  929SOL    HW2 2787   2.821   0.007   1.138  2.5773  1.4077  0.3267
  930SOL     OW 2788   2.210   0.693   1.783  0.2053  0.2656  0.2992
  930SOL    HW1 2789   2.204   0.597   1.816 -0.3708 -0.0031  0.4403
  930SOL    HW2 2790   2.146   0.752   1.836  0.4656 -2.8854  0.9052
  931SOL     OW 2791   1.788   1.304   3.057  0.3828  0.3687  0.1571
  931SOL    HW1 2792   1.710   1.370   3.046  1.4903 -0.1991  0.1510
  931SOL    HW2 2793   1.784   1.259   0.062 -2.1962 -2.0391  0.8316
  932SOL     OW 2794   2.014   1.256   0.344 -0.2516  0.7132  0.3030
  932SOL    HW1 2795   2.026   1.169   0.291  1.2701 -1.4765 -3.7480
  932SOL    HW2 2796   1.919   1.266   0.373  4.3340 -1.7343  0.9430
  933SOL     OW 2797   2.138   1.698   1.091 -0.0097  0.0883  0.2868
  933SOL    HW1 2798   2.208   1.664   1.022  0.8726  0.7657 -0.1168
  933SOL    HW2 2799   2.176   1.686   1.186  0.1549 -0.2308  0.6345
  934SOL     OW 2800   1.972   0.923   2.517  0.6121 -0.1355  0.1401
  934SOL    HW1 2801   2.040   0.842   2.522 -0.4034 -0.4049 -0.8251
  934SOL    HW2 2802   1.875   0.885   2.526 -0.0071  2.5418  0.1886
  935SOL     OW 2803   0.220   0.921   0.564  0.0581  0.3046 -0.5617
  935SOL    HW1 2804   0.250   0.920   0.465  1.3638  0.3930 -0.4274
  935SOL    HW2 2805   0.130   0.970   0.580 -0.6840  0.4865 -2.4427
  936SOL     OW 2806   0.404   0.140   0.868  0.6448  0.1803  0.8406
  936SOL    HW1 2807   0.470   0.089   0.925  1.6660  0.4295 -0.3730
  936SOL    HW2 2808   0.386   0.234   0.900 -0.0782  1.7797 -2.5203
  937SOL     OW 2809   3.064   2.995   2.002 -0.2552  0.6591 -0.1457
  937SOL    HW1 2810   3.050   2.932   2.080 -0.2965 -0.4518 -0.5024
  937SOL    HW2 2811   3.040   2.952   1.908 -0.5072 -0.8544 -2.9792
  938SOL     OW 2812   0.114   2.558   3.082 -0.2406 -0.3447 -0.3590
  938SOL    HW1 2813   0.037   2.531   0.057  0.1995 -0.8831  1.5291
  938SOL    HW2 2814   0.118   2.662   3.081 -0.8080  0.2952 -0.3649
  939SOL     OW 2815   1.050   1.840   0.923  0.3456  0.4753  0.0345
  939SOL    HW1 2816   0.998   1.754   0.935 -0.2356 -2.3644 -3.3438
  939SOL    HW2 2817   1.149   1.819   0.926  0.4161  0.4259 -0.7469
  940SOL     OW 2818   0.058   0.465   3.041  0.0056  0.6184 -0.1149
  940SOL    HW1 2819   0.082   0.379   0.003  1.0309  0.3274  2.1716
  940SOL    HW2 2820   0.139   0.506   2.997  0.3986 -0.0833  1.7278
  941SOL     OW 2821   2.127   0.355   2.603  0.4724  0.2399 -0.2523
  941SOL    HW1 2822   2.077   0.441   2.638 -0.1200  1.8015 -0.1911
  941SOL    HW2 2823   2.058   0.278   2.593 -0.1164  0.5486 -0.4110
  942SOL     OW 2824   1.205   0.303   0.973  0.2721 -0.2392 -0.2769
  942SOL    HW1 2825   1.274   0.297   1.046 -1.1213  0.9436 -0.1319
  942SOL    HW2 2826   1.154   0.392   0.979  0.4293  0.7492  0.5532
  943SOL     OW 2827   1.087   0.765   1.791 -0.2887 -1.1370  0.1059
  943SOL    HW1 2828   1.026   0.687   1.809 -0.9219 -0.5161 -0.5844
  943SOL    HW2 2829   1.033   0.846   1.779  3.9451 -0.7549  1.3049
  944SOL     OW 2830   1.966   0.904   1.498  0.0345 -0.3737  0.1746
  944SOL    HW1 2831   2.005   0.811   1.496 -0.6068  0.8125  0.9819
  944SOL    HW2 2832   2.036   0.979   1.475 -0.6729  2.2011 -0.1784
  945SOL     OW 2833   2.778   0.028   0.241  0.2556  0.0269 -0.3084
  945SOL    HW1 2834   2.789   0.038   0.342 -1.5340  0.8467 -0.7766
  945SOL    HW2 2835   2.690   3.068   0.212 -1.1659 -0.6774 -0.5599
  946SOL     OW 2836   2.897   0.654   1.933  0.2429 -0.1919  0.5578
  946SOL    HW1 2837   2.820   0.602   1.977  1.2531  1.6889  1.6878
  946SOL    HW2 2838   2.862   0.717   1.862  3.2147 -1.8269 -3.3454
  947SOL     OW 2839   1.056   2.813   0.116 -0.3201  0.1689 -0.0384
  947SOL    HW1 2840   1.091   2.791   0.022  1.8575  1.2321 -2.0234
  947SOL    HW2 2841   0.994   2.739   0.154  0.4134 -5.0315  0.1129
  948SOL     OW 2842   2.449   1.919   1.316  0.0229  0.2062 -0.0371
  948SOL    HW1 2843   2.387   1.902   1.395  0.5127  0.4155 -0.3347
  948SOL    HW2 2844   2.503   1.833   1.307 -0.0540 -1.1147 -0.5839
  949SOL     OW 2845   0.179   1.470   0.031  0.4630 -0.6442 -0.5595
  949SOL    HW1 2846   0.119   1.393   0.015  0.8907  2.1460 -2.0485
  949SOL    HW2 2847   0.229   1.498   3.035 -0.7013  0.9033 -0.5366
  950SOL     OW 2848   0.632   2.534   0.991  1.0561  0.1728 -0.0659
  950SOL    HW1 2849   0.558   2.588   0.955 -0.5170 -0.4306  1.9852
  950SOL    HW2 2850   0.598   2.444   1.027 -0.1561  1.6593  0.8050
  951SOL     OW 2851   0.491   1.409   2.665 -0.5596 -0.5807 -0.1489
  951SOL    HW1 2852   0.440   1.449   2.750 -2.6470  2.4803  1.6309
  951SOL    HW2 2853   0.545   1.328   2.686  0.2361 -0.2923  1.2346
  952SOL     OW 2854   0.449   0.803   0.647 -0.0784  0.4232 -0.3093
  952SOL    HW1 2855   0.509   0.837   0.721  0.6025 -2.8549  0.1922
  952SOL    HW2 2856   0.356   0.848   0.633 -3.8889  0.9556 -0.1732
  953SOL     OW 2857   2.631   2.926   2.252 -0.1998 -0.6154  0.2061
  953SOL    HW1 2858   2.560   2.989   2.290  1.6776  1.7777 -0.2397
  953SOL    HW2 2859   2.718   2.923   2.310  2.3519  0.2263  2.7548
  954SOL     OW 2860   1.255   0.977   0.718 -0.2671 -0.1792 -0.4171
  954SOL    HW1 2861   1.267   1.059   0.660 -0.8002 -1.2465  1.1461
  954SOL    HW2 2862   1.347   0.938   0.736 -1.8498  0.3093  1.0595
  955SOL     OW 2863   0.680   1.801   0.213  0.2203 -0.1708 -0.3011
  955SOL    HW1 2864   0.742   1.723   0.205 -1.0077  0.6197 -1.2864
  955SOL    HW2 2865   0.707   1.874   0.277  0.6944  0.0690 -0.1133
  956SOL     OW 2866   2.277   0.259   2.087 -0.4002  0.1961 -0.0651
  956SOL    HW1 2867   2.263   0.275   2.187 -0.0539  1.2264  0.1767
  956SOL    HW2 2868   2.373   0.246   2.053  0.9572 -0.7341  0.1060
  957SOL     OW 2869   2.136   2.418   2.135 -0.7078 -0.3961  0.0923
  957SOL    HW1 2870   2.214   2.475   2.097  0.0269 -3.4510 -1.3481
  957SOL    HW2 2871   2.124   2.425   2.238  1.8116 -0.2093 -0.1289
  958SOL     OW 2872   1.657   1.196   1.281 -0.2772  0.1347  0.2010
  958SOL    HW1 2873   1.694   1.259   1.359 -0.0312  2.3898  3.3504
  958SOL    HW2 2874   1.697   1.103   1.290  0.0020 -0.2784  2.7224
  959SOL     OW 2875   1.960   1.875   2.095  0.1589  0.0334 -0.4514
  959SOL    HW1 2876   2.003   1.919   2.011  0.4195  1.4516  0.9397
  959SOL    HW2 2877   1.875   1.927   2.120 -3.2428  2.1082  1.0825
  960SOL     OW 2878   0.415   0.992   2.800 -0.7289 -0.5053 -0.0327
  960SOL    HW1 2879   0.413   0.941   2.712 -0.4617 -0.0861  0.5512
  960SOL    HW2 2880   0.438   0.932   2.881 -2.3555 -1.0999 -0.1539
  961SOL     OW 2881   0.098   1.319   2.625  0.0227  0.5933 -0.4676
  961SOL    HW1 2882   0.132   1.276   2.710 -1.6295 -1.0589 -0.5073
  961SOL    HW2 2883   0.120   1.255   2.550  0.6143  1.7580  2.7922
  962SOL     OW 2884   0.516   1.486   2.382 -0.4774 -0.2164  0.5705
  962SOL    HW1 2885   0.453   1.556   2.334 -1.0188 -1.2040 -0.1863
  962SOL    HW2 2886   0.488   1.472   2.479 -0.2509  1.0954 -2.4374
  963SOL     OW 2887   2.802   2.030   0.078  0.3564  0.0361  0.5673
  963SOL    HW1 2888   2.781   2.131   0.100 -0.5199 -0.3121  0.6598
  963SOL    HW2 2889   2.749   1.975   0.142  0.7456  0.6510 -3.1446
  964SOL     OW 2890   0.768   2.122   1.839 -0.6984 -0.4860 -0.2828
  964SOL    HW1 2891   0.787   2.220   1.835  0.6555 -0.8959  0.3136
  964SOL    HW2 2892   0.857   2.069   1.836  4.1917  0.5354  0.5121
  965SOL     OW 2893   1.655   1.820   0.576 -0.2802  0.2770 -0.4048
  965SOL    HW1 2894   1.717   1.896   0.600 -1.9596  1.7783  0.4885
  965SOL    HW2 2895   1.684   1.769   0.492  0.4683  0.6108 -0.5806
  966SOL     OW 2896   2.616   1.514   0.143  0.0696 -0.1448 -0.6656
  966SOL    HW1 2897   2.599   1.481   0.054  2.8638  2.6370  3.3919
  966SOL    HW2 2898   2.716   1.531   0.154  2.6523 -0.2744  0.0492
  967SOL     OW 2899   2.085   0.115   1.964  0.5024  0.1185 -0.4522
  967SOL    HW1 2900   2.163   0.142   2.016  1.1365  0.4306 -2.0846
  967SOL    HW2 2901   2.097   0.107   1.860  1.3775 -3.0449 -0.9057
  968SOL     OW 2902   1.326   0.166   0.155 -0.2310 -0.2898  0.1172
  968SOL    HW1 2903   1.351   0.182   0.057  1.6040 -0.7212  0.9691
  968SOL    HW2 2904   1.346   0.245   0.220 -1.2013 -1.2721  1.3222
  969SOL     OW 2905   0.177   1.844   2.008 -0.1887  0.2092 -0.4664
  969SOL    HW1 2906   0.271   1.877   1.993 -0.4138  0.2548  1.5334
  969SOL    HW2 2907   0.176   1.740   2.025  0.8267 -0.8117  3.1421
  970SOL     OW 2908   1.993   2.503   1.078  0.3079  0.1594  0.0483
  970SOL    HW1 2909   2.074   2.479   1.140  3.2621  0.8173  0.1224
  970SOL    HW2 2910   2.013   2.588   1.023  1.8262 -1.3250  0.0292
  971SOL     OW 2911   2.227   2.348   0.789 -0.4731  0.1433  0.3293
  971SOL    HW1 2912   2.248   2.437   0.839 -0.9564  1.4229  0.4618
  971SOL    HW2 2913   2.308   2.285   0.798  3.2370 -0.9270  2.7191
  972SOL     OW 2914   0.100   0.940   2.534  0.2742 -0.2528  0.2269
  972SOL    HW1 2915   0.150   0.858   2.498  0.8986 -1.0161  1.7160
  972SOL    HW2 2916   0.036   0.906   2.610 -1.1667  1.7371  2.0986
  973SOL     OW 2917   0.710   0.373   0.631  0.3852  0.3305 -0.1077
  973SOL    HW1 2918   0.704   0.393   0.735 -0.2908  0.7927  2.4335
  973SOL    HW2 2919   0.750   0.285   0.614 -0.3570  0.3102  1.7355
  974SOL     OW 2920   2.372   0.957   1.970  0.2551  0.1420  0.2572
  974SOL    HW1 2921   2.446   0.908   2.012 -3.3758  4.5360 -2.0556
  974SOL    HW2 2922   2.284   0.909   1.958 -2.1068 -0.6615  1.0204
  975SOL     OW 2923   0.148   3.003   0.208  0.0131 -0.3558  0.3072
  975SOL    HW1 2924   0.077   3.032   0.277 -2.8222  1.4033  0.1785
  975SOL    HW2 2925   0.212   3.083   0.205 -0.4840  1.3300 -0.7668
  976SOL     OW 2926   0.302   1.838   1.106  0.3956  0.2548  0.5200
  976SOL    HW1 2927   0.247   1.786   1.176 -2.1351  0.1411  1.8671
  976SOL    HW2 2928   0.280   1.794   1.012 -4.1290  0.0995 -2.7620
  977SOL     OW 2929   0.982   1.932   0.662 -0.1476 -0.3836  0.2297
  977SOL    HW1 2930   0.953   1.844   0.617  0.0096 -1.0741  1.2306
  977SOL    HW2 2931   0.988   1.919   0.764 -1.1947  1.8193 -1.2490
  978SOL     OW 2932   0.082   0.977   0.070  0.5183 -0.4234 -0.1210
  978SOL    HW1 2933   0.142   0.924   0.003  2.2417 -2.9824 -2.4526
  978SOL    HW2 2934   0.079   1.077   0.049 -0.0052 -0.5143  0.4131
  979SOL     OW 2935   1.734   1.411   0.656 -0.2889  0.5455  0.1443
  979SOL    HW1 2936   1.822   1.452   0.676 -1.4424  0.4343  0.8043
  979SOL    HW2 2937   1.665   1.483   0.666  2.7299  0.1669 -0.1533
  980SOL     OW 2938   0.701   2.415   2.182  0.2308 -0.2226 -0.7592
  980SOL    HW1 2939   0.773   2.437   2.112 -3.1608  0.3780  1.8127
  980SOL    HW2 2940   0.726   2.348   2.258 -1.4161  3.8493 -1.2382
  981SOL     OW 2941   2.166   1.006   2.962  0.1068  0.1842  0.0718
  981SOL    HW1 2942   2.205   1.044   2.874  1.2714 -1.4217 -1.7271
  981SOL    HW2 2943   2.157   0.904   2.955 -2.8794  0.5700  1.0561
  982SOL     OW 2944   0.085   2.611   1.944  0.2988  0.3360 -0.8407
  982SOL    HW1 2945   0.041   2.589   2.034 -0.2702  0.5082 -1.1509
  982SOL    HW2 2946   0.162   2.547   1.927  0.5015  1.4093 -0.9174
  983SOL     OW 2947   1.970   0.455   1.510 -0.1157 -0.1916 -0.4878
  983SOL    HW1 2948   1.916   0.430   1.426 -2.2417  0.7014 -2.9604
  983SOL    HW2 2949   1.906   0.490   1.582 -1.2470 -1.0371  1.0045
  984SOL     OW 2950   1.807   3.034   2.514 -0.4355 -0.2516  0.3017
  984SOL    HW1 2951   1.741   2.985   2.456  0.5109  0.3115  1.3106
  984SOL    HW2 2952   1.806   3.004   2.613 -2.1137 -1.1019  2.5927
  985SOL     OW 2953   1.567   1.340   1.710  0.2167 -0.2978 -0.3469
  985SOL    HW1 2954   1.553   1.239   1.697 -0.0934 -2.0803  1.2263
  985SOL    HW2 2955   1.481   1.384   1.747 -0.0951  0.9080 -0.6821
  986SOL     OW 2956   2.019   2.715   2.137 -0.5018 -0.1562 -0.2455
  986SOL    HW1 2957   2.102   2.687   2.080 -0.7708 -0.9182 -0.4230
  986SOL    HW2 2958   2.041   2.774   2.217 -3.1010 -2.6772 -0.9880
  987SOL     OW 2959   2.630   1.794   2.809  0.3441  0.1533 -0.4394
  987SOL    HW1 2960   2.710   1.814   2.870 -1.8705  0.2601  1.1556
  987SOL    HW2 2961   2.619   1.870   2.742 -2.9924 -0.7124  0.7730
  988SOL     OW 2962   2.990   0.674   1.430  0.4719  0.1949  0.8397
  988SOL    HW1 2963   3.012   0.765   1.464  0.1250 -0.8014  0.3524
  988SOL    HW2 2964   2.891   0.666   1.401 -0.7484 -0.9173 -0.7105
  989SOL     OW 2965   1.974   1.211   1.642 -0.3822 -0.0552 -0.4294
  989SOL    HW1 2966   2.022   1.137   1.598 -0.0161 -1.5290  3.5937
  989SOL    HW2 2967   2.030   1.296   1.631  1.5581 -0.7960 -0.9212
  990SOL     OW 2968   2.917   0.628   3.048 -0.3008  0.0666  0.0896
  990SOL    HW1 2969   2.993   0.563   3.068 -0.5280 -2.2696  1.4609
  990SOL    HW2 2970   2.931   0.725   3.075 -2.1705  2.1230 -0.0363
  991SOL     OW 2971   0.384   1.724   3.007 -0.6092 -0.3486  0.2682
  991SOL    HW1 2972   0.310   1.778   2.971  2.0779  0.8858 -0.2662
  991SOL    HW2 2973   0.394   1.746   0.018  1.4881 -1.4352  0.7999
  992SOL     OW 2974   2.377   1.833   1.749  0.2112  0.0729 -0.2201
  992SOL    HW1 2975   2.302   1.793   1.807 -0.2195  0.1794  0.9352
  992SOL    HW2 2976   2.449   1.874   1.810  2.9969 -0.4628  0.1751
  993SOL     OW 2977   0.596   0.013   1.013 -0.1491 -0.2187 -0.5619
  993SOL    HW1 2978   0.575   0.002   1.117  0.6521  0.5508  1.2224
  993SOL    HW2 2979   0.689   0.059   1.005  1.5711  1.6463  1.7411
  994SOL     OW 2980   2.767   2.179   1.556 -0.0231 -0.1535 -0.0028
  994SOL    HW1 2981   2.850   2.210   1.514 -0.2518 -0.4774 -0.3683
  994SOL    HW2 2982   2.783   2.112   1.628  3.2407  1.2056 -0.8512
  995SOL     OW 2983   2.142   1.954   2.374 -0.1935  0.2965  0.2042
  995SOL    HW1 2984   2.099   1.964   2.467 -0.6663  0.5699  0.8826
  995SOL    HW2 2985   2.075   1.931   2.305  2.1181 -0.5589  1.5912
  996SOL     OW 2986   1.945   1.876   2.910  0.0623 -0.1353 -0.0065
  996SOL    HW1 2987   1.848   1.859   2.888 -0.1228 -0.8529  0.5825
  996SOL    HW2 2988   1.983   1.805   2.972 -0.8490 -0.6451 -1.2030
  997SOL     OW 2989   0.961   1.414   1.887 -0.5126 -0.4035 -0.3725
  997SOL    HW1 2990   0.870   1.446   1.918  0.0285 -0.2392  1.8503
  997SOL    HW2 2991   1.021   1.389   1.967  1.5722 -2.1280  0.6380
  998SOL     OW 2992   2.726   2.261   0.563 -0.6990  0.3864  0.0336
  998SOL    HW1 2993   2.662   2.184   0.540  1.4941  0.5900  0.3994
  998SOL    HW2 2994   2.733   2.265   0.663 -1.2951 -1.2871 -1.1114
  999SOL     OW 2995   0.129   2.686   0.705  0.0782 -0.3237  0.1794
  999SOL    HW1 2996   0.079   2.682   0.618  1.0656  1.9961  1.0136
  999SOL    HW2 2997   0.228   2.677   0.683 -2.0204 -1.4004 -0.6929
 1000SOL     OW 2998   1.122   0.093   2.919  0.8377  0.4743  0.1793
 1000SOL    HW1 2999   1.081   0.045   3.004  0.4287 -3.0254  1.6299
 1000SOL    HW2 3000   1.202   0.155   2.940  2.1731 -0.6050  0.7858
   3.08690   3.08690   3.08690
