1000 SPC/Fw water molecules t= 224.00000 step= 224000
 3000
    1SOL     OW    1   3.096   2.836   0.845 -0.5631 -0.4114 -0.3189
    1SOL    HW1    2   0.075   2.772   0.881  3.0377 -0.1115  2.0528
    1SOL    HW2    3   3.096   2.924   0.895 -2.2102  0.3151 -2.0738
    2SOL     OW    4   1.867   1.783   1.922  0.4112 -0.1163  0.9633
    2SOL    HW1    5   1.877   1.735   2.009 -0.5761  2.3632  0.3438
    2SOL    HW2    6   1.782   1.757   1.877  0.8405  2.5061 -1.4246
    3SOL     OW    7   1.532   2.143   2.439 -0.8128 -0.0848  0.0631
    3SOL    HW1    8   1.456   2.162   2.504 -0.2895  0.1146 -0.8663
    3SOL    HW2    9   1.617   2.195   2.463  0.6818  0.5128 -1.5096
    4SOL     OW   10   2.148   2.095   2.363 -0.0649 -0.0845 -0.3063
    4SOL    HW1   11   2.133   2.150   2.451 -0.8226  1.9057  3.6528
    4SOL    HW2   12   2.197   2.006   2.389  1.9009 -0.8729  0.3323
    5SOL     OW   13   1.517   0.970   1.739  0.3736  0.4751  0.0278
    5SOL    HW1   14   1.511   0.981   1.639 -2.2984 -0.5198  1.5044
    5SOL    HW2   15   1.441   0.916   1.788 -2.7607 -0.4084  0.3171
    6SOL     OW   16   2.759   0.277   3.066  0.0466 -0.2308  0.3395
    6SOL    HW1   17   2.833   0.235   0.021  0.6732 -0.4058  0.5719
    6SOL    HW2   18   2.713   0.202   3.013  0.7068  0.0145  0.4344
    7SOL     OW   19   0.221   1.591   1.329  0.5127 -0.0826 -0.7115
    7SOL    HW1   20   0.275   1.504   1.325 -1.2104  1.9348  1.1028
    7SOL    HW2   21   0.273   1.665   1.284  3.7117 -1.1654  1.1373
    8SOL     OW   22   1.004   0.532   0.864 -0.3000 -1.0268  0.0350
    8SOL    HW1   23   1.043   0.517   0.956  0.8879 -1.0436  2.2105
    8SOL    HW2   24   0.905   0.552   0.868  2.8691 -2.9054 -1.8107
    9SOL     OW   25   1.160   0.533   2.303  0.1387 -0.3937 -0.2204
    9SOL    HW1   26   1.174   0.619   2.254 -0.7329  1.6078  1.1487
    9SOL    HW2   27   1.245   0.475   2.314  0.5235 -3.6827 -3.5463
   10SOL     OW   28   0.734   2.383   2.934  0.1405  0.4399 -0.2117
   10SOL    HW1   29   0.832   2.391   2.901  1.4938  1.5102  0.0465
   10SOL    HW2   30   0.733   2.383   3.035  0.1833 -0.0218  1.7299
   11SOL     OW   31   0.713   1.092   0.100 -0.3519 -0.0021  0.4584
   11SOL    HW1   32   0.743   1.149   0.021 -1.2255  1.6346  1.0657
   11SOL    HW2   33   0.614   1.064   0.083 -2.5061  1.6900 -3.5026
   12SOL     OW   34   0.049   0.200   1.739  0.6157 -0.4686 -0.3526
   12SOL    HW1   35   0.047   0.300   1.766  0.9721 -1.0263  1.3698
   12SOL    HW2   36   0.149   0.172   1.729 -0.7325 -2.9866 -0.0832
   13SOL     OW   37   1.199   0.167   0.263  0.2565 -0.3827  0.5101
   13SOL    HW1   38   1.136   0.190   0.192  2.7224 -1.2342  2.0956
   13SOL    HW2   39   1.209   0.242   0.329 -1.2666 -3.4234 -1.6567
   14SOL     OW   40   1.227   2.600   1.229 -0.0127 -0.2403  0.0899
   14SOL    HW1   41   1.218   2.521   1.297  0.8472  2.4623  2.9852
   14SOL    HW2   42   1.314   2.650   1.249  0.0354 -1.8725 -1.9806
   15SOL     OW   43   2.729   1.204   1.710 -0.0135 -0.3643 -0.4821
   15SOL    HW1   44   2.753   1.196   1.811 -0.1624  0.3240  0.5982
   15SOL    HW2   45   2.681   1.119   1.675  0.8795  0.8407  0.5211
   16SOL     OW   46   1.858   3.031   3.005  0.3363  0.1897  0.3944
   16SOL    HW1   47   1.936   3.092   3.023 -0.8767 -0.9669  0.6129
   16SOL    HW2   48   1.842   2.972   3.082  0.4292 -0.8824 -1.8827
   17SOL     OW   49   0.872   0.112   1.255  0.2593 -0.4516  0.4077
   17SOL    HW1   50   0.778   0.121   1.209 -1.9642 -1.0113  0.3476
   17SOL    HW2   51   0.881   0.020   1.299 -0.5483 -0.8995 -1.4054
   18SOL     OW   52   1.395   0.638   3.050 -0.1164  0.1138 -0.4885
   18SOL    HW1   53   1.408   0.578   0.037  0.3714  0.0796  1.6841
   18SOL    HW2   54   1.429   0.731   3.064  2.4027 -1.7529  0.6366
   19SOL     OW   55   2.234   1.861   0.175 -0.7892  0.1495  0.4219
   19SOL    HW1   56   2.200   1.769   0.210 -0.3420 -1.1677 -0.6315
   19SOL    HW2   57   2.186   1.940   0.222  4.7263  0.3186  0.6149
   20SOL     OW   58   2.081   1.523   1.574  0.0929 -0.7695  0.0905
   20SOL    HW1   59   2.104   1.617   1.612  1.4704 -1.8472  0.9891
   20SOL    HW2   60   2.003   1.486   1.626  0.3733 -0.0520 -2.5900
   21SOL     OW   61   0.784   1.226   2.978 -0.6512  0.1747 -0.3981
   21SOL    HW1   62   0.843   1.197   2.898  0.3835 -0.2179 -2.2153
   21SOL    HW2   63   0.773   1.327   2.968  1.5202 -1.5949 -0.3755
   22SOL     OW   64   2.032   3.009   1.288 -0.0055 -0.3817 -0.5191
   22SOL    HW1   65   1.932   3.003   1.308 -1.1666 -0.6381 -0.8977
   22SOL    HW2   66   2.060   3.099   1.246 -1.3756  1.3272  2.2984
   23SOL     OW   67   3.063   0.472   1.756  0.1660  0.2063 -0.3499
   23SOL    HW1   68   0.014   0.506   1.671 -0.4208 -0.2643 -1.7842
   23SOL    HW2   69   2.961   0.473   1.737  1.4573  2.1887 -1.3335
   24SOL     OW   70   2.278   2.464   1.152 -0.1656  0.3096  1.0285
   24SOL    HW1   71   2.348   2.456   1.223 -0.4238 -2.2288 -0.3097
   24SOL    HW2   72   2.251   2.560   1.134  0.0832  3.2828  0.5083
   25SOL     OW   73   1.615   2.858   2.367  0.9351  0.0479  0.2126
   25SOL    HW1   74   1.662   2.809   2.291  1.0110 -0.2151 -1.5003
   25SOL    HW2   75   1.542   2.795   2.402  0.2034 -2.3939 -3.0285
   26SOL     OW   76   1.691   2.724   2.997  0.4769 -0.9463  0.3961
   26SOL    HW1   77   1.642   2.726   2.905 -0.9602 -0.0730  1.2500
   26SOL    HW2   78   1.732   2.635   3.023  1.4499 -1.2832 -1.0538
   27SOL     OW   79   0.330   1.506   2.621 -0.2074 -0.3138  0.0225
   27SOL    HW1   80   0.265   1.562   2.676  0.5344  0.3234  0.3839
   27SOL    HW2   81   0.405   1.564   2.584  1.5593 -1.3518  3.9995
   28SOL     OW   82   2.896   1.150   1.367  0.6196 -0.2109  0.0672
   28SOL    HW1   83   2.971   1.171   1.302  0.4165  1.9051 -0.6872
   28SOL    HW2   84   2.914   1.207   1.453  1.0650  0.6785  0.9075
   29SOL     OW   85   2.647   2.442   2.106  0.1478  0.3222  0.4639
   29SOL    HW1   86   2.729   2.409   2.151 -0.5769  2.2636 -1.0356
   29SOL    HW2   87   2.671   2.491   2.020  1.6841  1.5588 -2.6818
   30SOL     OW   88   1.587   0.106   0.060 -0.1969  0.0412 -0.0050
   30SOL    HW1   89   1.567   0.052   3.074 -1.8919 -0.8039  0.5856
   30SOL    HW2   90   1.644   0.187   0.031  2.1403 -4.7606 -0.3555
   31SOL     OW   91   2.723   2.621   1.905  0.1784 -0.3361 -0.4272
   31SOL    HW1   92   2.805   2.660   1.952  0.2413 -0.6435  0.4963
   31SOL    HW2   93   2.696   2.662   1.814 -1.1482 -1.4246  0.5412
   32SOL     OW   94   1.228   1.446   1.456 -0.1841 -0.7277 -0.9457
   32SOL    HW1   95   1.303   1.448   1.384  3.0400  2.6618 -2.2550
   32SOL    HW2   96   1.142   1.405   1.428  1.5245  0.2429  0.7326
   33SOL     OW   97   0.336   2.790   2.499  0.6510  0.4519  0.1478
   33SOL    HW1   98   0.385   2.757   2.413  0.3787 -1.4524  0.8437
   33SOL    HW2   99   0.259   2.726   2.524  1.8630  3.0246  0.3052
   34SOL     OW  100   1.713   2.994   0.768 -0.4480  0.0758 -0.4602
   34SOL    HW1  101   1.660   3.024   0.685  1.1220  0.4268 -3.1597
   34SOL    HW2  102   1.812   2.983   0.743  4.0404  1.1799  1.7349
   35SOL     OW  103   1.974   3.065   0.683  0.0786  0.1352  0.0518
   35SOL    HW1  104   2.042   3.074   0.612 -1.4207  0.6582 -0.1676
   35SOL    HW2  105   1.950   0.050   0.729  1.3275  2.8655  2.0878
   36SOL     OW  106   1.781   2.679   2.164 -0.1484 -1.1345 -0.4747
   36SOL    HW1  107   1.881   2.655   2.163  2.4208 -2.0262 -0.1152
   36SOL    HW2  108   1.730   2.594   2.156 -1.7786  1.5456 -1.9204
   37SOL     OW  109   0.947   2.847   2.188 -0.2598  0.1123 -0.1704
   37SOL    HW1  110   0.901   2.796   2.116  1.9896  1.0767  0.9204
   37SOL    HW2  111   1.003   2.782   2.250 -0.7286 -1.3449  0.7081
   38SOL     OW  112   3.014   2.916   2.611 -0.3996 -0.1161  0.0139
   38SOL    HW1  113   3.043   2.824   2.631  0.4722  0.5711 -1.4989
   38SOL    HW2  114   3.089   2.981   2.590  0.0929 -0.3578  1.0760
   39SOL     OW  115   2.359   1.407   2.001 -0.0489  0.0753 -0.5658
   39SOL    HW1  116   2.432   1.476   2.010 -0.3742 -0.2386 -0.2436
   39SOL    HW2  117   2.266   1.445   2.024 -0.7574  0.2110 -1.3196
   40SOL     OW  118   0.333   3.095   2.729 -0.3821  0.2160 -1.0014
   40SOL    HW1  119   0.333   0.052   2.812  1.9934  0.0884 -0.7117
   40SOL    HW2  120   0.428   3.088   2.696 -2.6889 -0.9790 -0.1051
   41SOL     OW  121   1.637   0.512   0.961 -0.3177  0.2051 -0.1039
   41SOL    HW1  122   1.653   0.608   0.941  1.0500 -0.9202  2.4637
   41SOL    HW2  123   1.560   0.462   0.920 -1.8085 -1.8854  1.3420
   42SOL     OW  124   0.562   0.728   1.414 -0.1024 -0.6082 -0.0786
   42SOL    HW1  125   0.660   0.760   1.396  3.1568 -1.5586  0.4827
   42SOL    HW2  126   0.520   0.695   1.331  1.3900  1.1846  1.1217
   43SOL     OW  127   2.676   1.512   2.669  0.0068  0.3711  0.2108
   43SOL    HW1  128   2.701   1.455   2.752  0.6987  3.5496  0.0273
   43SOL    HW2  129   2.636   1.598   2.692  0.0203 -1.1973 -0.9366
   44SOL     OW  130   0.022   2.663   0.416  0.5856 -0.1930  0.7730
   44SOL    HW1  131   0.022   2.743   0.477 -0.4607 -1.4528  0.6387
   44SOL    HW2  132   0.061   2.578   0.469 -0.0885 -4.0013  1.9948
   45SOL     OW  133   0.375   2.514   1.628 -0.1130 -0.5461 -0.3530
   45SOL    HW1  134   0.315   2.434   1.635  1.2894 -2.0573 -0.0277
   45SOL    HW2  135   0.328   2.597   1.670 -1.8538  0.2236 -0.1439
   46SOL     OW  136   2.266   2.377   2.383 -0.6987 -0.8346  0.1607
   46SOL    HW1  137   2.338   2.380   2.457 -1.2521  0.7445  1.2277
   46SOL    HW2  138   2.299   2.383   2.288  0.6050 -1.6149 -0.6056
   47SOL     OW  139   2.253   1.934   1.436 -0.6351 -0.0500  0.0862
   47SOL    HW1  140   2.229   2.001   1.367  1.1763 -2.7567  5.6735
   47SOL    HW2  141   2.173   1.911   1.497  0.8894  1.4798  2.0158
   48SOL     OW  142   0.507   1.670   0.313  0.3212  0.9967  0.1917
   48SOL    HW1  143   0.518   1.621   0.399 -1.7772  1.8643 -1.4556
   48SOL    HW2  144   0.424   1.633   0.266 -1.1470 -1.2313 -0.6356
   49SOL     OW  145   2.866   0.451   2.667  0.1692  0.1099  0.1189
   49SOL    HW1  146   2.784   0.407   2.623 -0.0318  0.6052 -0.5984
   49SOL    HW2  147   2.938   0.448   2.595 -3.5211 -0.0370  0.4416
   50SOL     OW  148   2.252   0.811   0.223  0.2832  0.4686  0.0328
   50SOL    HW1  149   2.206   0.866   0.296 -1.2643 -0.9665  0.6792
   50SOL    HW2  150   2.202   0.725   0.204 -1.2474  1.3937 -0.2082
   51SOL     OW  151   2.096   0.720   1.009  0.8535  0.1680  0.0080
   51SOL    HW1  152   2.107   0.751   0.915 -0.8183  2.5477 -1.4076
   51SOL    HW2  153   2.018   0.653   1.022  1.7839 -2.3687 -0.0996
   52SOL     OW  154   1.297   1.360   2.819 -0.1961 -0.8126 -0.1107
   52SOL    HW1  155   1.306   1.442   2.884 -0.5107  1.1964 -2.0666
   52SOL    HW2  156   1.319   1.273   2.863  1.5856 -0.1952  0.4524
   53SOL     OW  157   0.853   1.649   1.776 -0.1614  0.0612 -0.3163
   53SOL    HW1  158   0.755   1.648   1.807 -0.2820  2.1999  0.0719
   53SOL    HW2  159   0.855   1.622   1.678  1.4942 -0.7598  1.8683
   54SOL     OW  160   1.928   0.269   0.800  0.4794  0.5393 -0.4464
   54SOL    HW1  161   2.025   0.276   0.809 -2.4547  1.6689  1.0245
   54SOL    HW2  162   1.902   0.297   0.706  0.3752  1.1918  3.3698
   55SOL     OW  163   2.645   2.131   1.349 -0.4901 -0.0500 -0.4996
   55SOL    HW1  164   2.642   2.204   1.283 -1.6346 -2.9209  1.7949
   55SOL    HW2  165   2.633   2.038   1.307  2.4189  1.9966 -0.6905
   56SOL     OW  166   0.903   2.985   1.422 -0.0358 -0.2333  0.3186
   56SOL    HW1  167   0.951   2.901   1.384  0.5773 -0.7940  1.5144
   56SOL    HW2  168   0.965   3.039   1.486  2.1810  1.7460  0.7706
   57SOL     OW  169   1.559   1.434   0.375  0.7335  0.2095  0.2160
   57SOL    HW1  170   1.612   1.353   0.398 -1.1498  2.9446 -1.1787
   57SOL    HW2  171   1.571   1.505   0.445  2.1596 -2.6293  0.9801
   58SOL     OW  172   3.051   0.437   2.445  0.0154  0.3781  0.2635
   58SOL    HW1  173   3.050   0.377   2.367  1.0422  3.5457  2.2129
   58SOL    HW2  174   3.064   0.532   2.408  0.1921 -0.3978 -0.0309
   59SOL     OW  175   1.091   2.705   2.361 -0.3517 -0.2222  0.3719
   59SOL    HW1  176   1.147   2.750   2.433  0.7127  0.3720 -1.2109
   59SOL    HW2  177   1.040   2.627   2.398 -0.5156 -1.3430 -1.0032
   60SOL     OW  178   2.686   2.643   0.701 -0.2323 -0.3247  0.0588
   60SOL    HW1  179   2.664   2.569   0.768 -1.3937  2.0756 -1.6211
   60SOL    HW2  180   2.599   2.677   0.656 -1.2000  1.1558  0.0181
   61SOL     OW  181   1.344   2.316   0.691  0.0463 -0.0680 -0.0658
   61SOL    HW1  182   1.409   2.305   0.616 -0.4865 -0.4825 -0.3267
   61SOL    HW2  183   1.282   2.396   0.663 -0.9603 -0.9113 -1.3864
   62SOL     OW  184   2.402   2.083   2.625  0.2223 -0.4359  0.3336
   62SOL    HW1  185   2.354   2.048   2.706 -2.0852  1.5988 -0.5785
   62SOL    HW2  186   2.371   2.035   2.541 -2.3113  0.6893  1.2403
   63SOL     OW  187   2.269   0.108   2.878 -0.0546 -0.6603  0.4405
   63SOL    HW1  188   2.299   0.204   2.879 -0.7054 -2.0267  1.3524
   63SOL    HW2  189   2.353   0.058   2.912  0.4350 -0.5780  1.8473
   64SOL     OW  190   1.087   0.927   2.644 -0.4701  0.2649 -0.2702
   64SOL    HW1  191   1.051   0.947   2.737  0.5338 -1.9321  0.2136
   64SOL    HW2  192   1.061   0.833   2.613  1.5075 -0.3044 -1.1474
   65SOL     OW  193   1.422   2.209   0.342  0.0902  0.4475  0.0521
   65SOL    HW1  194   1.387   2.296   0.377  1.0931 -2.3510  1.3667
   65SOL    HW2  195   1.523   2.212   0.324  1.6970  2.1359 -1.7326
   66SOL     OW  196   0.044   1.315   1.754 -0.1122  0.1816 -0.0958
   66SOL    HW1  197   0.067   1.321   1.850  0.8293 -0.1985 -0.3068
   66SOL    HW2  198   0.092   1.376   1.695 -0.5789 -1.0412  1.8033
   67SOL     OW  199   2.441   0.295   2.615  0.3317  0.0034 -0.3953
   67SOL    HW1  200   2.540   0.300   2.589  1.3702 -0.0288 -1.6022
   67SOL    HW2  201   2.386   0.254   2.543  0.9672 -0.8589 -0.3298
   68SOL     OW  202   0.461   2.304   1.082 -0.0045  0.2569 -0.2732
   68SOL    HW1  203   0.509   2.327   1.171  1.1535  2.8434 -1.0378
   68SOL    HW2  204   0.400   2.229   1.101  1.8363  0.6811  2.1340
   69SOL     OW  205   0.854   2.571   0.231 -0.4758  0.5559  0.4139
   69SOL    HW1  206   0.830   2.630   0.151  0.7576  0.0945  1.7179
   69SOL    HW2  207   0.934   2.604   0.278 -4.6519 -0.1873 -3.1135
   70SOL     OW  208   2.885   1.110   2.952  0.3069 -0.7480 -0.5450
   70SOL    HW1  209   2.877   1.032   3.018  2.6697  0.0130  0.6410
   70SOL    HW2  210   2.885   1.069   2.859  0.1267  2.8349  1.3324
   71SOL     OW  211   0.393   1.097   2.599  0.1477  0.2386 -0.4457
   71SOL    HW1  212   0.430   1.130   2.511 -2.1479 -2.4230  0.7271
   71SOL    HW2  213   0.401   1.171   2.674  0.8936  1.3354  1.9119
   72SOL     OW  214   0.043   2.271   0.319 -0.3214 -0.1284 -0.0987
   72SOL    HW1  215   3.043   2.258   0.306  2.0827 -1.5130 -1.8557
   72SOL    HW2  216   0.070   2.347   0.259 -0.2156  1.3378 -0.7360
   73SOL     OW  217   0.672   1.314   0.234  0.0759  0.4100 -0.1462
   73SOL    HW1  218   0.724   1.391   0.194  0.3540 -0.4732  1.1229
   73SOL    HW2  219   0.709   1.224   0.199 -0.0142 -0.0214 -0.8407
   74SOL     OW  220   3.014   0.153   0.269  0.4553 -0.6356  0.1669
   74SOL    HW1  221   2.953   0.098   0.208  0.6292 -0.8414  1.8430
   74SOL    HW2  222   0.016   0.145   0.256 -2.6363  1.9491 -1.7992
   75SOL     OW  223   2.290   1.628   2.307  0.5096  0.0114 -0.5661
   75SOL    HW1  224   2.373   1.584   2.264  1.7299 -4.9351 -0.4986
   75SOL    HW2  225   2.225   1.640   2.228  0.8434 -1.2275  1.6931
   76SOL     OW  226   2.209   2.570   1.466 -0.2988  0.0190 -0.0426
   76SOL    HW1  227   2.275   2.595   1.540 -3.2268 -0.1034  2.1630
   76SOL    HW2  228   2.222   2.623   1.384 -0.1048 -4.6525  3.0220
   77SOL     OW  229   2.701   0.276   1.522  0.7230  0.4031  0.4746
   77SOL    HW1  230   2.687   0.377   1.520  0.3233  0.3149  2.2589
   77SOL    HW2  231   2.758   0.247   1.599  0.0877  1.2519  0.7235
   78SOL     OW  232   1.828   1.407   0.090  0.1269  0.1483  0.2405
   78SOL    HW1  233   1.849   1.457   0.002  1.6473  1.7281  0.6004
   78SOL    HW2  234   1.905   1.409   0.154 -1.5029 -0.2274 -0.6765
   79SOL     OW  235   0.669   1.892   1.970 -0.2730 -0.2817 -0.1011
   79SOL    HW1  236   0.734   1.912   1.896 -0.7086  2.0585  0.8666
   79SOL    HW2  237   0.609   1.812   1.957  0.6109  0.7480  1.3242
   80SOL     OW  238   1.521   0.942   1.124  0.1730  0.2849 -0.1789
   80SOL    HW1  239   1.463   1.020   1.117  0.9220  0.4061 -2.0365
   80SOL    HW2  240   1.620   0.967   1.120 -1.3855  1.8321 -2.8119
   81SOL     OW  241   0.620   0.341   1.301 -0.2939  0.0814  0.5514
   81SOL    HW1  242   0.574   0.257   1.262  0.7230  0.0606  2.4105
   81SOL    HW2  243   0.630   0.414   1.226  0.0109 -0.6509  1.7824
   82SOL     OW  244   1.529   2.404   1.719 -0.5348 -0.0682 -0.2505
   82SOL    HW1  245   1.480   2.321   1.749  0.3145  1.9694 -1.0805
   82SOL    HW2  246   1.545   2.383   1.622 -0.2712 -1.3573  0.2317
   83SOL     OW  247   0.618   0.092   1.153  0.6353  0.4290 -0.1584
   83SOL    HW1  248   0.518   0.113   1.167  0.0024  2.4867 -1.1931
   83SOL    HW2  249   0.637   3.092   1.145  0.8467  0.8517 -2.1128
   84SOL     OW  250   0.147   0.834   3.080  0.2315 -0.0706  0.9067
   84SOL    HW1  251   0.162   0.896   3.005 -1.1591 -1.8899  1.6584
   84SOL    HW2  252   0.062   0.776   3.058 -1.2065 -0.4723 -0.8952
   85SOL     OW  253   2.920   2.305   1.589  0.2446  0.0181  0.0404
   85SOL    HW1  254   2.914   2.352   1.498 -0.6207 -1.9215  1.3307
   85SOL    HW2  255   2.849   2.343   1.654  2.4806  0.3286  1.0389
   86SOL     OW  256   0.076   2.420   1.635 -0.1871  0.5842 -0.3678
   86SOL    HW1  257   3.094   2.361   1.636  2.2656 -0.8638  0.2629
   86SOL    HW2  258   0.073   2.497   1.565  0.0458  1.2027 -1.1511
   87SOL     OW  259   2.870   2.603   2.886 -0.4422  0.0337 -0.2128
   87SOL    HW1  260   2.794   2.620   2.823  2.4966  0.5787  1.6368
   87SOL    HW2  261   2.839   2.583   2.980 -1.7538  1.6210 -0.4425
   88SOL     OW  262   0.001   1.935   1.307  0.3544  0.0669 -0.0559
   88SOL    HW1  263   3.079   1.986   1.219 -2.0559  1.6719 -0.3796
   88SOL    HW2  264   0.091   1.887   1.290  0.1563  1.1181  0.6823
   89SOL     OW  265   1.131   0.675   1.889  0.0177 -0.0404  0.4319
   89SOL    HW1  266   1.034   0.698   1.909  0.3647  0.4321  1.4156
   89SOL    HW2  267   1.132   0.594   1.826  1.0928 -3.2079 -1.4064
   90SOL     OW  268   2.899   1.546   1.929 -0.3003 -0.2754 -0.0253
   90SOL    HW1  269   2.951   1.489   1.997 -1.4756  0.5591  1.6327
   90SOL    HW2  270   2.961   1.618   1.892 -0.4024 -1.1086 -0.8375
   91SOL     OW  271   0.981   2.051   0.587 -0.3233  0.0776 -0.2434
   91SOL    HW1  272   1.012   2.114   0.510 -0.5120  2.8622  2.9419
   91SOL    HW2  273   1.050   1.985   0.624  0.3716  1.1881 -1.7696
   92SOL     OW  274   2.383   0.333   0.961  0.2004  0.4430  0.1114
   92SOL    HW1  275   2.478   0.319   0.931 -0.0293 -1.0710 -1.0566
   92SOL    HW2  276   2.380   0.398   1.036 -1.2105 -1.8618 -1.5400
   93SOL     OW  277   2.441   1.523   0.062  0.1036 -0.2000  0.2104
   93SOL    HW1  278   2.396   1.458   3.097 -1.0795  0.0629 -0.5526
   93SOL    HW2  279   2.445   1.617   0.021 -0.6598  1.2675  0.7255
   94SOL     OW  280   2.444   2.340   2.586  0.5473 -0.5509 -0.1926
   94SOL    HW1  281   2.446   2.239   2.588 -0.6290  0.8948  2.6262
   94SOL    HW2  282   2.535   2.375   2.554  1.5651 -0.9786 -2.5325
   95SOL     OW  283   1.859   0.381   1.027  0.1716 -0.0074 -0.2622
   95SOL    HW1  284   1.775   0.431   1.004  3.6455  1.7475  1.4336
   95SOL    HW2  285   1.892   0.322   0.947 -0.0879 -0.2865 -2.4091
   96SOL     OW  286   2.801   3.013   1.759  0.1577 -0.3920  0.1443
   96SOL    HW1  287   2.790   2.964   1.845 -0.3674  2.3251 -3.2100
   96SOL    HW2  288   2.875   2.963   1.703 -0.1416 -0.5588 -1.4692
   97SOL     OW  289   2.255   0.096   1.185 -0.1571  0.0893  0.4838
   97SOL    HW1  290   2.243   0.123   1.088  0.3709 -1.5702 -1.1951
   97SOL    HW2  291   2.337   0.141   1.231  1.7511  0.4516  1.0890
   98SOL     OW  292   1.541   2.300   1.457 -0.1061  0.3719 -0.0363
   98SOL    HW1  293   1.579   2.319   1.365  2.3620 -0.8695 -0.1777
   98SOL    HW2  294   1.568   2.205   1.489 -1.9963 -0.7099  0.7975
   99SOL     OW  295   2.935   2.701   2.042 -0.6337 -0.0679 -0.3239
   99SOL    HW1  296   3.016   2.718   1.981 -2.7860 -1.5886 -0.3665
   99SOL    HW2  297   2.966   2.710   2.137 -1.8643  0.5089  0.2875
  100SOL     OW  298   0.103   0.724   2.733 -1.0487  0.0493  0.3105
  100SOL    HW1  299   0.138   0.806   2.781 -0.0410 -0.4005 -0.0181
  100SOL    HW2  300   0.182   0.696   2.676  0.3456  0.3952 -1.2546
  101SOL     OW  301   1.699   1.142   0.102 -0.1056 -0.4687  0.5097
  101SOL    HW1  302   1.710   1.086   0.186  0.7377  3.6278 -2.8953
  101SOL    HW2  303   1.712   1.242   0.120 -1.3418  2.0832 -1.2255
  102SOL     OW  304   0.296   0.499   1.300 -0.6658 -1.0442 -0.2686
  102SOL    HW1  305   0.316   0.533   1.395  1.3518  0.9956  2.1766
  102SOL    HW2  306   0.364   0.540   1.239  0.1214  5.3215  1.5141
  103SOL     OW  307   2.780   0.835   1.981 -0.4055  0.4948  0.4867
  103SOL    HW1  308   2.818   0.777   2.060  1.2502 -0.2147  1.2984
  103SOL    HW2  309   2.806   0.931   1.994  0.2707  0.6292 -3.1124
  104SOL     OW  310   0.382   0.369   2.886 -0.2101  0.3701 -0.8988
  104SOL    HW1  311   0.409   0.364   2.784  1.9524  0.1463 -1.2571
  104SOL    HW2  312   0.367   0.274   2.923 -0.5782 -1.4023  3.9271
  105SOL     OW  313   2.253   1.756   1.713  0.1122 -0.2328 -0.1627
  105SOL    HW1  314   2.172   1.803   1.665 -2.9131  1.0057 -0.4699
  105SOL    HW2  315   2.302   1.823   1.774  0.8670 -1.5627  1.6846
  106SOL     OW  316   1.457   0.356   0.424 -0.0440  0.0028 -0.0235
  106SOL    HW1  317   1.531   0.314   0.367 -0.2006 -0.5986  0.6665
  106SOL    HW2  318   1.492   0.391   0.508  2.8143  0.7245 -1.8063
  107SOL     OW  319   3.054   1.696   1.637  0.0294  0.0507  0.3367
  107SOL    HW1  320   3.023   1.654   1.549  0.3035  1.5610  2.1819
  107SOL    HW2  321   0.048   1.723   1.638 -0.1279 -1.7262  0.5153
  108SOL     OW  322   3.047   2.717   2.309 -0.1832  0.2709  0.0267
  108SOL    HW1  323   0.026   2.652   2.311 -1.3207  4.2228 -0.4239
  108SOL    HW2  324   3.077   2.815   2.319  2.1259 -0.2679 -2.3454
  109SOL     OW  325   1.769   0.302   0.030 -0.5223  0.3801  0.3143
  109SOL    HW1  326   1.739   0.389   0.068 -0.5721 -0.4468  1.5288
  109SOL    HW2  327   1.866   0.294   0.038 -0.6760 -0.7825  1.7087
  110SOL     OW  328   0.511   2.257   2.469 -0.2564 -0.1285  0.7089
  110SOL    HW1  329   0.574   2.246   2.388  0.0272 -3.0137 -0.9627
  110SOL    HW2  330   0.552   2.317   2.539 -0.4968  1.8015 -0.2746
  111SOL     OW  331   1.496   2.552   2.153 -0.3135 -0.2954 -0.0333
  111SOL    HW1  332   1.555   2.468   2.151  1.9964 -0.1886  2.7073
  111SOL    HW2  333   1.495   2.587   2.057 -2.3560 -0.7824  0.3931
  112SOL     OW  334   1.942   2.642   2.545 -0.3023  0.0938 -0.0003
  112SOL    HW1  335   1.993   2.621   2.630 -1.2170 -1.0374 -0.4557
  112SOL    HW2  336   1.857   2.703   2.564 -1.1981 -0.4236 -0.6593
  113SOL     OW  337   1.993   2.550   1.716  0.0926 -0.0216  0.0779
  113SOL    HW1  338   2.000   2.652   1.731  0.6941  0.5833 -0.7968
  113SOL    HW2  339   2.042   2.518   1.633  2.1854 -4.0614  1.8625
  114SOL     OW  340   2.892   0.604   0.451  0.1172 -0.1923  0.0271
  114SOL    HW1  341   2.859   0.560   0.364  1.7271  0.0695 -0.7238
  114SOL    HW2  342   2.814   0.648   0.495  2.6548 -2.0784  0.7703
  115SOL     OW  343   0.230   0.936   2.850 -0.3136 -0.2625 -0.7304
  115SOL    HW1  344   0.191   1.014   2.798  0.4342 -0.4026  3.1651
  115SOL    HW2  345   0.327   0.925   2.829 -0.7811 -0.5101  0.0411
  116SOL     OW  346   0.161   1.306   2.043 -0.3382  0.1119  0.3586
  116SOL    HW1  347   0.136   1.370   2.117 -0.9407  0.1583 -3.2911
  116SOL    HW2  348   0.256   1.326   1.999  2.2712  2.1030  0.7847
  117SOL     OW  349   2.616   0.139   0.610 -0.0198  0.5288  0.1136
  117SOL    HW1  350   2.622   0.102   0.703 -0.2868  0.0920 -2.1087
  117SOL    HW2  351   2.520   0.144   0.585  0.7404  0.2101  2.6234
  118SOL     OW  352   1.202   1.797   1.528  0.2390 -0.4333 -0.0094
  118SOL    HW1  353   1.266   1.720   1.531 -2.3023  1.5242 -0.8320
  118SOL    HW2  354   1.150   1.798   1.609  1.6513 -0.1377 -0.3395
  119SOL     OW  355   1.196   2.335   3.059 -0.3330  0.0254  0.3220
  119SOL    HW1  356   1.211   2.411   0.027  1.2174  0.7529 -0.2310
  119SOL    HW2  357   1.196   2.248   0.005  2.0344  1.3077 -1.7288
  120SOL     OW  358   0.514   0.951   2.956 -0.0295  0.2067  0.3398
  120SOL    HW1  359   0.531   0.857   2.999  0.8916 -3.0972  2.0752
  120SOL    HW2  360   0.568   0.965   2.871  0.3792 -0.7963 -2.1768
  121SOL     OW  361   2.148   2.701   1.173  0.1473 -0.0877  0.1877
  121SOL    HW1  362   2.063   2.710   1.127  0.7937 -0.5571 -1.0471
  121SOL    HW2  363   2.180   2.792   1.206  1.7176 -0.5786 -0.4358
  122SOL     OW  364   2.370   2.178   1.969 -0.1392  0.3297 -0.6184
  122SOL    HW1  365   2.435   2.188   2.048 -0.0067 -0.3533  1.4523
  122SOL    HW2  366   2.361   2.268   1.916 -2.7422  2.2267 -1.1017
  123SOL     OW  367   0.272   2.909   0.539  0.0395  0.0852 -0.2442
  123SOL    HW1  368   0.305   3.002   0.566 -0.3925  0.2983 -2.1806
  123SOL    HW2  369   0.176   2.892   0.567  0.4716 -2.2222 -0.4912
  124SOL     OW  370   2.027   0.698   2.520  0.0984 -0.4037  0.4333
  124SOL    HW1  371   2.013   0.789   2.476 -0.3225 -0.7370  0.5565
  124SOL    HW2  372   2.120   0.660   2.494 -0.1846 -0.5631 -2.2714
  125SOL     OW  373   0.389   1.370   0.574 -0.6806 -0.8100 -0.3578
  125SOL    HW1  374   0.468   1.316   0.543 -1.3623  1.4061  3.2584
  125SOL    HW2  375   0.405   1.470   0.575  0.7933  1.6256 -3.4046
  126SOL     OW  376   2.604   1.676   1.031 -0.4163  0.0054 -0.1250
  126SOL    HW1  377   2.643   1.658   1.128 -0.9179 -1.8211  0.8480
  126SOL    HW2  378   2.621   1.776   0.995 -0.1988  2.8773 -1.4606
  127SOL     OW  379   0.157   2.091   1.764 -0.3169  0.1240 -0.4158
  127SOL    HW1  380   0.112   2.098   1.677  0.6300  1.0651  3.7721
  127SOL    HW2  381   0.165   2.187   1.801  2.9413  1.0931  0.3065
  128SOL     OW  382   0.799   0.654   2.558 -0.0093 -0.3219 -0.2270
  128SOL    HW1  383   0.733   0.592   2.610 -1.9882  0.5813 -0.0611
  128SOL    HW2  384   0.784   0.751   2.586 -1.3266  2.0700  1.2735
  129SOL     OW  385   2.544   1.211   1.041 -0.2248  0.0065 -0.4626
  129SOL    HW1  386   2.621   1.155   0.997 -0.1718  0.1938 -0.9041
  129SOL    HW2  387   2.571   1.255   1.128 -1.8021 -0.2963 -0.1694
  130SOL     OW  388   2.542   1.365   1.518  0.0909  0.4249  0.0907
  130SOL    HW1  389   2.574   1.306   1.595  0.9518 -1.6702 -3.2748
  130SOL    HW2  390   2.524   1.460   1.545  0.3016 -2.5179  1.8367
  131SOL     OW  391   2.529   0.409   0.126  0.2864 -0.0662 -0.1461
  131SOL    HW1  392   2.543   0.510   0.141  0.5816  0.2370  1.1213
  131SOL    HW2  393   2.607   0.371   0.077 -1.4042  1.3027  1.2443
  132SOL     OW  394   2.720   2.178   1.974  0.1642 -0.7106 -0.2372
  132SOL    HW1  395   2.645   2.132   2.029 -0.8891  0.8451  2.7126
  132SOL    HW2  396   2.784   2.236   2.027 -0.8781 -0.4090 -1.1706
  133SOL     OW  397   0.459   1.131   1.083  0.0007  0.2906 -0.1119
  133SOL    HW1  398   0.407   1.081   1.011 -0.1782 -1.2811 -1.9086
  133SOL    HW2  399   0.554   1.159   1.053  1.2031 -1.5506 -1.8627
  134SOL     OW  400   0.190   1.315   0.151  0.2379 -0.1230 -0.1630
  134SOL    HW1  401   0.091   1.305   0.125 -0.4487  2.3925 -2.2903
  134SOL    HW2  402   0.213   1.404   0.198 -0.9559 -0.8434  2.4557
  135SOL     OW  403   2.237   1.313   1.548  0.2384 -0.1938 -0.5034
  135SOL    HW1  404   2.275   1.278   1.633 -1.4005  3.6971 -3.2378
  135SOL    HW2  405   2.176   1.391   1.571  3.7666 -2.3021 -2.0454
  136SOL     OW  406   2.675   0.730   0.569  0.3794  0.1537 -0.3208
  136SOL    HW1  407   2.603   0.756   0.502  0.0982 -0.7145 -0.8697
  136SOL    HW2  408   2.628   0.711   0.659  0.3322  0.0893  0.5986
  137SOL     OW  409   2.709   1.542   1.277  0.3145  0.0916 -0.1920
  137SOL    HW1  410   2.788   1.552   1.340  0.8187 -0.9367  1.0781
  137SOL    HW2  411   2.698   1.446   1.249  1.8206  1.8408  0.4791
  138SOL     OW  412   1.775   0.745   1.310 -0.3121 -0.1854  0.4513
  138SOL    HW1  413   1.838   0.825   1.305  1.7423 -0.0566 -3.0550
  138SOL    HW2  414   1.827   0.669   1.259  2.3683 -0.4023 -1.0444
  139SOL     OW  415   2.087   0.053   3.049  0.5882  0.3925 -0.3166
  139SOL    HW1  416   2.160   0.075   2.981  0.2655 -3.8866 -1.3533
  139SOL    HW2  417   2.133   3.094   0.016 -0.5449  1.0130  0.4964
  140SOL     OW  418   1.523   1.749   2.010 -1.0103 -0.9459  0.1736
  140SOL    HW1  419   1.576   1.713   2.088 -1.3334  1.2125 -2.2702
  140SOL    HW2  420   1.467   1.681   1.968  4.3070 -1.1572  1.5235
  141SOL     OW  421   2.129   1.801   0.975  0.2416  0.2089 -0.2373
  141SOL    HW1  422   2.212   1.842   1.016  0.5654  1.1567 -0.0432
  141SOL    HW2  423   2.071   1.757   1.045 -0.3552  0.7243 -0.5254
  142SOL     OW  424   0.029   1.000   0.185  0.0821 -0.5045 -0.1803
  142SOL    HW1  425   0.107   1.022   0.125 -1.2464  0.1801 -0.0462
  142SOL    HW2  426   0.050   0.923   0.247  0.6123  0.2009 -3.0798
  143SOL     OW  427   0.312   2.171   2.672 -0.2060  0.6202 -0.1475
  143SOL    HW1  428   0.241   2.110   2.637 -1.6453  0.1752 -0.0363
  143SOL    HW2  429   0.390   2.160   2.610 -1.0835  2.4611  1.4670
  144SOL     OW  430   0.836   0.166   1.732 -0.5376  0.1325 -0.1973
  144SOL    HW1  431   0.821   0.201   1.637  0.4710  2.6671  2.1391
  144SOL    HW2  432   0.905   0.092   1.734  0.2347 -0.3107 -1.2170
  145SOL     OW  433   2.561   1.042   0.468  0.2304 -0.7070 -0.0919
  145SOL    HW1  434   2.631   1.021   0.539  0.0057 -1.2129 -0.5307
  145SOL    HW2  435   2.525   1.138   0.487  1.1678 -0.4460 -0.5685
  146SOL     OW  436   2.507   2.535   0.090  0.3424  0.0018  0.1005
  146SOL    HW1  437   2.478   2.442   0.055 -0.0764 -2.1832  0.3689
  146SOL    HW2  438   2.432   2.602   0.081  0.7884  2.2894 -3.2031
  147SOL     OW  439   2.670   2.707   1.344 -0.2313 -0.1895  0.2966
  147SOL    HW1  440   2.645   2.797   1.388 -0.2284 -2.1767 -2.8414
  147SOL    HW2  441   2.682   2.716   1.244  0.4557 -0.7271 -0.3927
  148SOL     OW  442   1.644   0.013   2.364 -0.4363 -0.2205 -0.0695
  148SOL    HW1  443   1.551   0.051   2.386 -0.3291 -0.1387 -0.6101
  148SOL    HW2  444   1.633   3.011   2.359  0.5028  0.5833 -1.0706
  149SOL     OW  445   1.069   0.691   2.534  0.5571  0.3284  0.0120
  149SOL    HW1  446   1.127   0.634   2.472 -0.6023 -1.1234  0.5256
  149SOL    HW2  447   0.973   0.657   2.538 -0.4486 -1.2334 -1.4779
  150SOL     OW  448   0.974   2.984   0.369 -0.0121  0.0675  0.4557
  150SOL    HW1  449   0.941   3.041   0.449  0.2172 -0.9798 -3.6214
  150SOL    HW2  450   0.965   2.883   0.382 -0.8456 -2.2707  0.3072
  151SOL     OW  451   0.058   1.693   0.070 -0.0378  0.1915 -0.5586
  151SOL    HW1  452   3.086   1.758   0.034 -2.2496  2.4021  1.5374
  151SOL    HW2  453   0.093   1.628   0.000 -0.9285 -0.6352  3.2549
  152SOL     OW  454   0.104   1.060   0.505 -0.2185 -0.9322  0.0059
  152SOL    HW1  455   0.190   1.080   0.454  0.1121 -0.5663 -1.6888
  152SOL    HW2  456   0.054   0.991   0.453  1.6655  2.8614  0.8181
  153SOL     OW  457   2.439   3.088   0.909 -0.4198 -0.1516 -0.4482
  153SOL    HW1  458   2.525   3.056   0.862  3.8841  0.1804 -0.5076
  153SOL    HW2  459   2.375   3.017   0.932 -1.3945  2.6932  0.4483
  154SOL     OW  460   0.856   0.696   1.826  0.0286  0.3832 -0.5331
  154SOL    HW1  461   0.844   0.612   1.771 -4.1189  3.8088  2.4588
  154SOL    HW2  462   0.818   0.775   1.775  1.3263  2.2607 -1.4918
  155SOL     OW  463   2.972   1.627   0.944  0.2143 -0.0020  0.6981
  155SOL    HW1  464   2.888   1.565   0.926 -2.3627 -1.0729 -2.8890
  155SOL    HW2  465   2.948   1.720   0.919 -1.7135 -3.3212 -0.1446
  156SOL     OW  466   2.441   2.146   0.346 -0.0186  0.2239  0.2282
  156SOL    HW1  467   2.467   2.069   0.406 -0.4501  0.8614  1.0869
  156SOL    HW2  468   2.499   2.148   0.266 -1.4026  1.8780  0.5867
  157SOL     OW  469   1.063   2.933   0.906 -0.5659 -0.2894 -0.2014
  157SOL    HW1  470   0.993   2.860   0.906  2.4412  1.1667  2.2524
  157SOL    HW2  471   1.109   2.938   0.817 -1.3642 -1.9102 -0.7559
  158SOL     OW  472   2.306   0.401   2.843 -0.0132  0.2275 -0.0383
  158SOL    HW1  473   2.306   0.501   2.858 -2.1851 -0.7716  0.6750
  158SOL    HW2  474   2.365   0.385   2.760  2.6378 -0.3433 -0.3833
  159SOL     OW  475   0.499   3.060   0.273 -0.2442 -0.4111  0.3861
  159SOL    HW1  476   0.459   0.022   0.206 -1.0653 -0.2774 -1.2559
  159SOL    HW2  477   0.452   2.968   0.267 -0.3112  1.5414  0.8667
  160SOL     OW  478   1.253   2.105   0.130  0.5465 -0.0621  0.0255
  160SOL    HW1  479   1.279   2.019   0.084 -0.0532 -0.0271  0.8334
  160SOL    HW2  480   1.331   2.148   0.184  1.7954  0.8244  0.9884
  161SOL     OW  481   2.664   1.914   2.609  0.6228 -0.3798  0.0538
  161SOL    HW1  482   2.738   1.978   2.584 -0.4541 -1.3826  1.0528
  161SOL    HW2  483   2.577   1.956   2.588 -0.2526  1.9368  0.8659
  162SOL     OW  484   0.219   2.719   0.972 -0.5393  0.6408  0.3828
  162SOL    HW1  485   0.227   2.627   1.016  0.6124 -1.7569 -0.5947
  162SOL    HW2  486   0.260   2.718   0.878  0.4924 -1.3721 -1.3604
  163SOL     OW  487   2.004   0.417   2.820  0.0649  0.3127  0.2776
  163SOL    HW1  488   1.982   0.320   2.792  1.3558  1.4581  2.4595
  163SOL    HW2  489   2.100   0.435   2.829  0.6408 -3.6177  0.3758
  164SOL     OW  490   2.899   1.861   0.807  0.1346 -0.3925 -0.4863
  164SOL    HW1  491   2.844   1.821   0.731 -0.6679 -1.4927  1.3927
  164SOL    HW2  492   2.868   1.955   0.829  0.7428 -2.4789  2.6167
  165SOL     OW  493   2.588   0.080   1.742  0.1583  0.2951 -0.2547
  165SOL    HW1  494   2.678   0.030   1.738  2.7379  1.1743 -2.2787
  165SOL    HW2  495   2.518   0.040   1.672 -0.2706  0.2018 -1.4856
  166SOL     OW  496   2.165   0.412   0.669  0.2307  0.5835  0.6736
  166SOL    HW1  497   2.088   0.392   0.603  0.6311  0.2826  0.3273
  166SOL    HW2  498   2.182   0.325   0.721 -0.9111 -0.5166  2.1443
  167SOL     OW  499   0.641   0.211   0.849  0.7675 -0.0885  0.0525
  167SOL    HW1  500   0.703   0.191   0.929  0.7741 -0.0118 -0.4855
  167SOL    HW2  501   0.696   0.242   0.767  0.0092 -1.6188 -0.3914
  168SOL     OW  502   1.855   2.857   1.958  0.5508  0.3053  0.1939
  168SOL    HW1  503   1.824   2.762   1.942  0.6291 -1.7537 -0.8027
  168SOL    HW2  504   1.924   2.857   2.033  0.5095 -0.1643 -1.8746
  169SOL     OW  505   0.242   1.256   0.773 -0.3251 -0.3027 -0.1682
  169SOL    HW1  506   0.298   1.299   0.698 -2.3504 -0.2174  0.0089
  169SOL    HW2  507   0.145   1.278   0.776  2.3360 -2.2036  1.5437
  170SOL     OW  508   2.671   0.738   1.302  0.6296 -0.0532 -0.8274
  170SOL    HW1  509   2.594   0.722   1.238 -0.3248  0.9257 -0.2244
  170SOL    HW2  510   2.681   0.662   1.370  1.0663  1.8579 -0.5918
  171SOL     OW  511   0.921   2.451   1.708  0.1345  0.6556  0.0792
  171SOL    HW1  512   0.960   2.393   1.638  0.1428  4.4202  4.8374
  171SOL    HW2  513   0.977   2.437   1.791  1.0636  0.5698  0.8152
  172SOL     OW  514   0.135   2.437   1.319 -1.0899  0.1798 -0.9815
  172SOL    HW1  515   0.173   2.360   1.376  0.9887 -2.4699 -1.5070
  172SOL    HW2  516   0.137   2.533   1.369  0.9275  2.0263  0.0262
  173SOL     OW  517   1.270   0.266   3.043  0.9886 -0.4347  0.1426
  173SOL    HW1  518   1.186   0.262   0.001 -0.6756  0.6875  2.4893
  173SOL    HW2  519   1.350   0.282   0.003  1.2218 -1.7261 -1.6957
  174SOL     OW  520   1.511   0.103   2.698 -0.0128 -0.1809 -0.2818
  174SOL    HW1  521   1.469   0.191   2.728 -0.3261  0.8213  2.3754
  174SOL    HW2  522   1.488   0.086   2.604  0.5143  3.0605  0.9368
  175SOL     OW  523   1.850   2.502   3.075  0.4175 -0.1093  0.3059
  175SOL    HW1  524   1.876   2.408   3.059  2.2110  2.3440  1.7398
  175SOL    HW2  525   1.925   2.568   3.063 -2.1465  0.7404  2.0194
  176SOL     OW  526   1.857   0.097   2.754  0.3578 -0.7372 -0.1642
  176SOL    HW1  527   1.841   0.042   2.835  2.8382  1.2511 -4.1879
  176SOL    HW2  528   1.771   0.120   2.707  0.8208  1.5085  0.7314
  177SOL     OW  529   0.861   1.550   0.466  0.2479 -0.4076  0.0096
  177SOL    HW1  530   0.951   1.580   0.428  1.0245  0.2075 -0.5085
  177SOL    HW2  531   0.816   1.633   0.503 -0.3773  1.1236  0.2716
  178SOL     OW  532   3.084   1.891   2.484  0.0703 -0.8442 -0.5875
  178SOL    HW1  533   3.049   1.929   2.393 -0.6346  0.9516 -1.0189
  178SOL    HW2  534   3.059   1.791   2.488 -1.2374 -2.7680 -0.1841
  179SOL     OW  535   0.788   2.627   2.616 -0.3095  0.5830  0.1066
  179SOL    HW1  536   0.886   2.651   2.615 -0.0797 -1.5942  1.0610
  179SOL    HW2  537   0.724   2.705   2.647 -2.9183  1.1926 -1.8069
  180SOL     OW  538   2.040   1.897   1.591 -0.0655 -0.0761 -0.0974
  180SOL    HW1  539   2.010   1.935   1.684  0.9964 -2.2419  0.7974
  180SOL    HW2  540   1.966   1.839   1.554  0.9335  1.7755  0.0387
  181SOL     OW  541   1.591   1.195   2.203  0.4794  0.1678 -0.0792
  181SOL    HW1  542   1.648   1.115   2.174 -0.3227 -3.6040 -0.1962
  181SOL    HW2  543   1.575   1.193   2.304 -1.5938  0.9649  0.0482
  182SOL     OW  544   2.833   0.042   2.526 -0.4313 -0.4758 -0.1378
  182SOL    HW1  545   2.895   3.063   2.513  0.6153 -0.1999  0.2375
  182SOL    HW2  546   2.731   0.022   2.510  3.0024  0.5344 -1.6391
  183SOL     OW  547   1.404   0.738   2.684  0.4342  0.4421  0.2129
  183SOL    HW1  548   1.451   0.779   2.606 -1.2999  0.5293  2.3142
  183SOL    HW2  549   1.441   0.650   2.714 -1.4807  1.3647  0.9052
  184SOL     OW  550   0.670   1.005   1.433  0.1571 -0.1890  0.3028
  184SOL    HW1  551   0.715   1.084   1.478 -0.7317 -1.8197 -1.9056
  184SOL    HW2  552   0.577   1.035   1.395 -1.7601  1.2475  1.7723
  185SOL     OW  553   2.438   0.970   1.191  0.0983  0.0301 -0.1336
  185SOL    HW1  554   2.440   1.000   1.292  0.1262  1.4179  0.1410
  185SOL    HW2  555   2.517   1.007   1.141  0.6538 -0.9924 -1.5555
  186SOL     OW  556   0.659   1.662   2.546  0.1675 -0.1503 -0.3015
  186SOL    HW1  557   0.710   1.733   2.600 -1.0163 -0.7972 -0.7391
  186SOL    HW2  558   0.580   1.707   2.490 -0.7249 -1.3326 -1.5581
  187SOL     OW  559   2.386   1.445   0.321  0.8563  0.0106 -0.0686
  187SOL    HW1  560   2.344   1.354   0.308 -0.6128 -0.5271 -1.4175
  187SOL    HW2  561   2.415   1.486   0.231 -0.4586 -0.6021  0.6497
  188SOL     OW  562   0.202   1.830   0.591 -0.7361 -0.0111 -0.3021
  188SOL    HW1  563   0.204   1.875   0.684  2.0437 -1.0739  1.2590
  188SOL    HW2  564   0.226   1.901   0.523 -0.2632  0.5588  1.4599
  189SOL     OW  565   2.446   0.419   0.424 -0.1863  0.1954  0.0727
  189SOL    HW1  566   2.359   0.405   0.374 -2.8726  3.4649  1.2438
  189SOL    HW2  567   2.528   0.432   0.364 -0.5674 -0.8169  1.2321
  190SOL     OW  568   1.038   1.418   2.445  0.1061  0.3288 -0.1157
  190SOL    HW1  569   0.991   1.504   2.429  1.0899 -1.0045  0.0415
  190SOL    HW2  570   1.031   1.348   2.369 -0.6726 -0.0201 -0.5991
  191SOL     OW  571   2.220   0.132   1.989  0.4997  0.1934 -0.6266
  191SOL    HW1  572   2.240   0.233   1.999  0.1780  0.7909 -1.1169
  191SOL    HW2  573   2.186   0.116   1.896 -1.7024 -1.9929 -0.2820
  192SOL     OW  574   2.066   0.945   1.431 -0.0541 -0.5191  0.0537
  192SOL    HW1  575   2.041   1.038   1.463  0.4961 -1.1873  2.1888
  192SOL    HW2  576   2.045   0.934   1.332 -5.0291  0.0461 -0.2918
  193SOL     OW  577   0.736   0.339   0.640  0.2919 -0.6531 -0.1140
  193SOL    HW1  578   0.708   0.435   0.619  0.5667  0.7307 -1.5685
  193SOL    HW2  579   0.838   0.325   0.624  0.4008 -0.1260 -2.1489
  194SOL     OW  580   1.293   2.679   0.782 -0.3005  0.2175  0.3756
  194SOL    HW1  581   1.350   2.720   0.712  0.4478  2.5482 -0.4543
  194SOL    HW2  582   1.348   2.685   0.868  1.7406  1.8620  1.1129
  195SOL     OW  583   2.379   0.606   0.637  0.1033  0.8007  0.0260
  195SOL    HW1  584   2.443   0.553   0.576  0.8557  1.1427  1.9943
  195SOL    HW2  585   2.303   0.543   0.666 -0.4025 -0.4006  0.3450
  196SOL     OW  586   1.039   1.793   1.274 -0.1098  0.2667 -0.2874
  196SOL    HW1  587   1.064   1.889   1.253 -0.3924  1.4890  2.1247
  196SOL    HW2  588   1.079   1.770   1.367  3.5351 -0.9817  0.0680
  197SOL     OW  589   0.288   2.861   0.268 -0.7019  0.2819  0.0974
  197SOL    HW1  590   0.283   2.871   0.372 -1.9107 -2.0633 -0.3465
  197SOL    HW2  591   0.284   2.762   0.229 -0.5217 -0.5287 -1.3782
  198SOL     OW  592   0.751   1.071   0.753  0.9731 -0.0732  0.0988
  198SOL    HW1  593   0.708   0.998   0.701 -0.3209 -2.6549 -1.8595
  198SOL    HW2  594   0.780   1.148   0.693 -0.1592  4.7131  0.7215
  199SOL     OW  595   0.032   2.778   1.886 -0.2327 -0.2770 -0.1873
  199SOL    HW1  596   0.079   2.846   1.946 -0.4324 -1.0862 -1.1331
  199SOL    HW2  597   3.088   2.831   1.811 -1.8861 -1.3837 -0.5830
  200SOL     OW  598   2.218   2.069   2.892 -0.4724  0.3470 -0.0342
  200SOL    HW1  599   2.172   2.010   2.957  1.4919  0.5263 -1.9795
  200SOL    HW2  600   2.174   2.093   2.803 -0.4289 -2.9423  0.3810
  201SOL     OW  601   2.706   2.797   1.070  0.5613  0.3629 -0.5319
  201SOL    HW1  602   2.605   2.794   1.052  0.4569 -1.4683  0.5801
  201SOL    HW2  603   2.753   2.806   0.981 -0.9709 -1.5162 -1.4709
  202SOL     OW  604   2.804   0.473   0.224 -0.2021  0.8045  0.2394
  202SOL    HW1  605   2.728   0.535   0.206  3.1294 -2.4946 -0.8898
  202SOL    HW2  606   2.767   0.379   0.239  1.0408  0.3883 -0.1281
  203SOL     OW  607   1.232   1.495   2.126 -0.1414 -0.2808  0.0918
  203SOL    HW1  608   1.169   1.457   2.052 -1.5396  0.0172 -1.3045
  203SOL    HW2  609   1.194   1.580   2.174  0.2064  0.9723  0.2913
  204SOL     OW  610   0.865   1.402   2.118  0.0523 -0.0020 -0.0878
  204SOL    HW1  611   0.904   1.420   2.029 -0.8373 -0.6377  0.3738
  204SOL    HW2  612   0.916   1.329   2.172 -0.1655  0.4713  0.8200
  205SOL     OW  613   1.296   2.044   1.533  0.3116 -0.1872  0.2070
  205SOL    HW1  614   1.261   1.949   1.534 -1.7613 -1.5296 -0.4339
  205SOL    HW2  615   1.266   2.091   1.445 -0.2179 -0.5474 -5.3268
  206SOL     OW  616   0.049   0.192   2.888  0.3252  0.0319  0.0449
  206SOL    HW1  617   0.092   0.223   2.799  1.7140 -0.1175  1.6611
  206SOL    HW2  618   3.047   0.179   2.872  0.1467  1.7308  1.3162
  207SOL     OW  619   1.615   3.032   2.075 -0.1401 -0.1472  0.5742
  207SOL    HW1  620   1.671   2.950   2.049  2.2927 -0.7313 -0.6399
  207SOL    HW2  621   1.664   3.077   2.145 -0.3488 -4.2318 -1.1453
  208SOL     OW  622   0.794   2.206   1.933 -0.0622 -0.4951  0.5221
  208SOL    HW1  623   0.834   2.124   1.886  2.4608 -0.7145  0.7161
  208SOL    HW2  624   0.752   2.261   1.863  1.3360 -0.5040  2.1922
  209SOL     OW  625   1.738   1.328   2.727 -0.0645 -0.2961  0.1837
  209SOL    HW1  626   1.686   1.304   2.644  1.6152 -1.9175 -2.2559
  209SOL    HW2  627   1.716   1.266   2.802  0.8083  0.8719  1.5631
  210SOL     OW  628   2.980   0.353   0.756 -0.1345 -0.5694  0.3785
  210SOL    HW1  629   2.985   0.362   0.655 -3.7014 -1.7066  1.7243
  210SOL    HW2  630   2.913   0.423   0.787  1.7064  0.2836 -0.8201
  211SOL     OW  631   0.682   1.248   0.978 -0.1814  0.0769  0.2527
  211SOL    HW1  632   0.669   1.338   0.931 -3.4341  2.2670  1.2502
  211SOL    HW2  633   0.718   1.180   0.915 -1.4791 -0.0933  1.5177
  212SOL     OW  634   1.128   1.813   0.653 -0.4605  0.3617 -0.0690
  212SOL    HW1  635   1.069   1.779   0.724  2.1022  0.2206 -1.2025
  212SOL    HW2  636   1.108   1.756   0.573  2.7947  0.7834  0.8703
  213SOL     OW  637   1.524   3.087   1.695  0.4387  0.3870  0.3126
  213SOL    HW1  638   1.608   0.033   1.663 -1.0534 -0.5329  0.2270
  213SOL    HW2  639   1.442   0.030   1.659  1.0520  0.9544 -1.2561
  214SOL     OW  640   1.429   1.512   2.313  0.1012 -0.1700 -0.0768
  214SOL    HW1  641   1.385   1.534   2.399  1.2430 -0.1567 -2.9988
  214SOL    HW2  642   1.355   1.499   2.243 -0.8417 -1.7368  0.5439
  215SOL     OW  643   0.231   1.816   1.188 -0.0540  0.4944  0.0330
  215SOL    HW1  644   0.188   1.742   1.131 -0.6317  2.1900  0.1597
  215SOL    HW2  645   0.297   1.865   1.129 -2.1508 -0.0861  0.4796
  216SOL     OW  646   0.545   0.030   2.145 -0.1987 -0.1503 -0.0924
  216SOL    HW1  647   0.521   0.120   2.104  0.7220  0.5532  1.2402
  216SOL    HW2  648   0.639   0.037   2.188  1.6546 -1.5527  2.6795
  217SOL     OW  649   2.295   0.357   0.011  0.0782  0.4218 -0.5747
  217SOL    HW1  650   2.306   0.384   3.012  1.7008  0.6520  1.0584
  217SOL    HW2  651   2.378   0.392   0.065  1.3661  1.0909  0.6694
  218SOL     OW  652   2.083   1.765   2.160 -0.5159  0.2501 -0.1654
  218SOL    HW1  653   2.031   1.788   2.248 -1.2209  2.8912  0.4681
  218SOL    HW2  654   2.112   1.850   2.117 -1.5980 -0.8227  0.1037
  219SOL     OW  655   1.415   1.063   0.421  0.3964  0.6517 -0.0844
  219SOL    HW1  656   1.323   1.058   0.464 -1.1306  0.0530  1.7229
  219SOL    HW2  657   1.453   1.156   0.423  0.0806 -1.9538 -1.0158
  220SOL     OW  658   1.364   1.996   1.172  0.1906  0.0734 -0.3511
  220SOL    HW1  659   1.433   1.974   1.243 -1.9499 -0.4801  0.4575
  220SOL    HW2  660   1.265   2.000   1.207 -1.7849 -0.9537 -1.2297
  221SOL     OW  661   0.089   0.323   0.017  0.4833  0.6121  0.2210
  221SOL    HW1  662   0.123   0.413   3.094 -0.3594 -1.0632 -1.1943
  221SOL    HW2  663   0.066   0.266   3.034 -1.4496 -2.1089  3.1032
  222SOL     OW  664   1.309   2.681   1.573  0.3057  0.0381 -0.8287
  222SOL    HW1  665   1.330   2.581   1.578  1.0330  0.9354 -0.2136
  222SOL    HW2  666   1.361   2.729   1.504  0.1165 -1.9294 -1.2278
  223SOL     OW  667   1.393   2.892   2.771  0.0516 -0.7210  0.0207
  223SOL    HW1  668   1.478   2.945   2.802  1.8001 -0.0291 -0.6824
  223SOL    HW2  669   1.326   2.873   2.850 -1.3048 -2.7156 -0.8857
  224SOL     OW  670   2.678   1.276   1.277 -0.2245 -0.1016 -0.2193
  224SOL    HW1  671   2.634   1.308   1.361  2.4412  0.4225 -1.1024
  224SOL    HW2  672   2.761   1.216   1.294  0.4827  2.0440  0.3628
  225SOL     OW  673   0.816   1.216   1.561  0.0398 -0.0476  0.0631
  225SOL    HW1  674   0.837   1.214   1.661 -0.1507  0.2516 -1.1700
  225SOL    HW2  675   0.885   1.250   1.496 -0.7019 -1.7049  0.1609
  226SOL     OW  676   1.564   2.675   2.748 -0.4214 -0.4516 -0.4501
  226SOL    HW1  677   1.480   2.728   2.743  2.6451 -1.1590  1.6327
  226SOL    HW2  678   1.556   2.585   2.705 -1.1759 -0.3964  1.1385
  227SOL     OW  679   0.843   2.090   1.005  0.2269  0.4543  0.0705
  227SOL    HW1  680   0.780   2.096   0.921 -3.0474 -2.1870 -0.7534
  227SOL    HW2  681   0.844   2.179   1.052  1.9957 -0.0170  0.0187
  228SOL     OW  682   0.242   2.158   1.179  0.5594 -0.0690  0.1080
  228SOL    HW1  683   0.244   2.189   1.278 -0.0489  1.6691  3.0306
  228SOL    HW2  684   0.151   2.118   1.151 -0.7087 -1.9216 -0.7918
  229SOL     OW  685   2.222   1.190   0.253  0.1111 -0.0929  0.2398
  229SOL    HW1  686   2.154   1.266   0.252 -0.8418  0.7317  2.1078
  229SOL    HW2  687   2.264   1.171   0.161 -0.0859  0.0899  0.8345
  230SOL     OW  688   0.976   1.214   2.272  0.6499 -0.3070  0.1945
  230SOL    HW1  689   0.888   1.170   2.292 -1.8770 -1.2428  3.1755
  230SOL    HW2  690   1.045   1.146   2.245 -0.4089  0.0316 -1.0577
  231SOL     OW  691   1.601   1.860   1.781 -0.4335  0.6193 -0.3505
  231SOL    HW1  692   1.630   1.958   1.791 -1.0954 -0.3933  1.2954
  231SOL    HW2  693   1.574   1.819   1.868 -1.0798  1.4059  1.2380
  232SOL     OW  694   2.034   2.249   1.070 -0.2140  0.2631  0.2016
  232SOL    HW1  695   1.967   2.173   1.084 -0.3271 -0.7297  0.7443
  232SOL    HW2  696   2.005   2.326   1.127  2.5012 -2.4660 -1.4082
  233SOL     OW  697   1.543   2.442   2.578 -0.2459  0.0338  0.3609
  233SOL    HW1  698   1.623   2.395   2.527  1.2688 -0.4705 -0.4833
  233SOL    HW2  699   1.476   2.365   2.593  0.2010 -1.5517 -0.8993
  234SOL     OW  700   1.014   3.085   2.792  0.1345  0.2924 -0.5176
  234SOL    HW1  701   1.064   0.054   2.738 -0.5151  0.6407 -2.2942
  234SOL    HW2  702   0.945   3.032   2.740 -0.3807 -0.7221  1.5425
  235SOL     OW  703   2.789   2.527   0.050  0.3576 -0.3018  0.4442
  235SOL    HW1  704   2.830   2.594   0.112  0.5710 -1.6808 -1.1448
  235SOL    HW2  705   2.689   2.532   0.040  0.0968  0.9953 -0.0158
  236SOL     OW  706   1.994   2.419   2.402  0.0446 -0.4454 -0.0437
  236SOL    HW1  707   2.093   2.388   2.402  2.5780 -0.8137 -2.8157
  236SOL    HW2  708   1.979   2.503   2.459  0.2868  1.9774 -0.0936
  237SOL     OW  709   1.681   1.147   1.443 -0.3585  0.5632  0.2596
  237SOL    HW1  710   1.642   1.054   1.448 -0.1917 -0.1714 -1.9958
  237SOL    HW2  711   1.614   1.216   1.459 -1.5519 -0.2089 -2.5076
  238SOL     OW  712   2.181   0.186   2.388  0.1076  0.5767 -0.2210
  238SOL    HW1  713   2.173   0.105   2.328  1.6861  0.7620  1.3569
  238SOL    HW2  714   2.099   0.194   2.449 -1.1998  0.7855  2.3428
  239SOL     OW  715   0.587   1.629   1.858 -0.4842 -0.7214  0.4442
  239SOL    HW1  716   0.515   1.589   1.796 -2.5044  0.6659 -0.8878
  239SOL    HW2  717   0.598   1.568   1.941 -2.6844 -1.0278  2.8202
  240SOL     OW  718   0.012   2.164   0.604 -0.7125 -0.1940 -0.2473
  240SOL    HW1  719   3.087   2.246   0.662 -3.0957 -0.1831 -0.9545
  240SOL    HW2  720   0.033   2.190   0.506  1.0889  1.7633 -0.8809
  241SOL     OW  721   1.892   1.963   0.948  0.1369  0.0503 -0.0471
  241SOL    HW1  722   1.977   1.909   0.963 -0.4213 -0.0298 -1.5094
  241SOL    HW2  723   1.862   1.936   0.856 -0.1550 -0.9566  0.4581
  242SOL     OW  724   1.369   1.551   2.989  0.2017  0.4472 -0.0571
  242SOL    HW1  725   1.420   1.551   3.078 -0.5568 -1.6813 -1.9345
  242SOL    HW2  726   1.417   1.596   2.915  1.4984 -2.9095 -1.9849
  243SOL     OW  727   0.703   2.695   1.903 -0.0948 -0.2456  0.0445
  243SOL    HW1  728   0.609   2.676   1.869  1.1609 -2.3882  0.3978
  243SOL    HW2  729   0.770   2.695   1.829 -0.9518  0.5481  2.3806
  244SOL     OW  730   1.751   2.809   2.593 -0.0280  0.0631  0.2230
  244SOL    HW1  731   1.691   2.752   2.649  0.9627  2.9453  0.0383
  244SOL    HW2  732   1.693   2.841   2.508 -0.7878 -1.2406  0.5728
  245SOL     OW  733   1.324   3.061   0.441  0.4694  0.3679 -0.1221
  245SOL    HW1  734   1.417   3.079   0.478 -1.9385  1.7089  0.8925
  245SOL    HW2  735   1.296   0.024   0.373 -1.8889 -1.2962  1.0990
  246SOL     OW  736   1.184   3.097   3.040  0.3539 -0.1182 -0.5118
  246SOL    HW1  737   1.144   0.007   2.946 -0.4290  1.7004 -3.3161
  246SOL    HW2  738   1.221   0.089   3.060 -0.7120 -0.1207 -1.0288
  247SOL     OW  739   0.016   0.562   2.022 -0.3101  0.2896  0.2865
  247SOL    HW1  740   3.059   0.510   2.090 -1.3710  0.8501 -0.0015
  247SOL    HW2  741   3.092   0.530   1.931 -1.5067  0.2386 -0.5235
  248SOL     OW  742   0.775   1.017   2.241 -0.0185 -0.2369  0.6853
  248SOL    HW1  743   0.791   0.968   2.330 -0.2619 -3.3907  0.8393
  248SOL    HW2  744   0.779   0.951   2.164  0.8355 -0.9200 -0.6464
  249SOL     OW  745   2.185   0.369   0.329  0.5840 -0.1111  0.0681
  249SOL    HW1  746   2.155   0.435   0.256 -1.6458  0.5870 -0.6921
  249SOL    HW2  747   2.231   0.288   0.302 -1.8116 -0.8076  1.6946
  250SOL     OW  748   0.538   0.232   0.481  0.1332  0.4621 -0.7145
  250SOL    HW1  749   0.584   0.202   0.398 -1.0932 -1.5724  1.4179
  250SOL    HW2  750   0.602   0.253   0.559 -1.5180  0.2573  1.4282
  251SOL     OW  751   1.154   0.197   2.670 -0.4108  0.2620 -0.1260
  251SOL    HW1  752   1.237   0.255   2.687  0.2829  2.7457 -1.6025
  251SOL    HW2  753   1.187   0.127   2.601  2.1828  0.1503 -1.7580
  252SOL     OW  754   1.719   1.745   2.204  0.1993  0.2150 -0.7138
  252SOL    HW1  755   1.756   1.831   2.173  0.9331  0.5257 -2.0314
  252SOL    HW2  756   1.649   1.755   2.279  0.3786 -1.0557 -0.3517
  253SOL     OW  757   2.099   2.396   1.954 -0.5396 -0.2266 -0.2928
  253SOL    HW1  758   2.134   2.491   1.934 -0.8847  0.1991  0.5168
  253SOL    HW2  759   2.107   2.322   1.881 -1.5409 -1.4142 -1.8809
  254SOL     OW  760   1.102   2.173   1.828 -0.3381  0.3783  0.3392
  254SOL    HW1  761   1.204   2.174   1.813  0.7771 -3.1143 -1.0266
  254SOL    HW2  762   1.072   2.248   1.889 -0.7569 -0.8269 -2.3301
  255SOL     OW  763   0.993   0.936   0.860  0.2655 -0.1532  0.3088
  255SOL    HW1  764   0.909   0.987   0.839  1.4807 -2.0972  1.4874
  255SOL    HW2  765   1.041   0.884   0.784 -0.4892 -0.8140 -1.9207
  256SOL     OW  766   1.765   2.044   2.100 -0.8531  0.0090 -0.6038
  256SOL    HW1  767   1.854   2.081   2.067  0.0176  0.3778 -1.2575
  256SOL    HW2  768   1.765   2.042   2.201  0.0385 -0.2318  2.5768
  257SOL     OW  769   0.617   2.422   2.646  0.6164 -0.5559  0.4648
  257SOL    HW1  770   0.672   2.496   2.606 -1.9751 -0.6113  0.3883
  257SOL    HW2  771   0.583   2.445   2.741 -0.7087 -2.7400 -0.8745
  258SOL     OW  772   0.674   0.458   2.145  0.7021  0.6194 -0.7343
  258SOL    HW1  773   0.745   0.472   2.213 -3.8861  1.9952 -0.8678
  258SOL    HW2  774   0.717   0.402   2.069 -0.7584 -0.7282  1.6425
  259SOL     OW  775   0.862   0.494   2.330 -0.6810 -0.2410  0.1286
  259SOL    HW1  776   0.828   0.534   2.415  0.9900  1.0470  0.3366
  259SOL    HW2  777   0.943   0.543   2.299  1.6300 -0.4003  1.3744
  260SOL     OW  778   1.392   0.740   0.806 -0.6852  0.2997 -0.3324
  260SOL    HW1  779   1.379   0.751   0.905  0.3789  0.7564  0.4943
  260SOL    HW2  780   1.310   0.716   0.756 -1.1506 -0.3825 -1.7702
  261SOL     OW  781   0.603   3.094   2.665  0.1476  0.4713  0.3743
  261SOL    HW1  782   0.661   3.012   2.663 -0.5425  2.0110 -0.1973
  261SOL    HW2  783   0.632   0.051   2.585 -0.7148  0.5401 -0.4466
  262SOL     OW  784   2.414   3.032   2.677 -0.4433 -0.3685 -0.1346
  262SOL    HW1  785   2.450   3.047   2.770  1.1738  1.3085 -1.0087
  262SOL    HW2  786   2.312   3.055   2.666 -2.3542 -2.8311  1.4610
  263SOL     OW  787   0.243   1.895   2.568  0.1605 -0.5495 -0.1987
  263SOL    HW1  788   0.160   1.885   2.514  2.2446 -3.3584  1.7404
  263SOL    HW2  789   0.241   1.848   2.657  1.2235  2.0224 -1.6419
  264SOL     OW  790   0.604   1.405   1.219  0.1238  0.4234  0.3550
  264SOL    HW1  791   0.574   1.483   1.163 -0.3796 -0.9836  0.0791
  264SOL    HW2  792   0.656   1.347   1.156 -2.4659  2.1783  0.8584
  265SOL     OW  793   0.375   1.754   2.999 -0.5102 -0.7556  0.5078
  265SOL    HW1  794   0.323   1.680   3.041  2.5746  0.8991  1.4685
  265SOL    HW2  795   0.477   1.757   3.014 -0.6119  0.1590  0.5346
  266SOL     OW  796   1.161   1.050   0.522  0.5468  0.0082 -0.3002
  266SOL    HW1  797   1.145   1.114   0.601 -0.5016  0.5516  1.6386
  266SOL    HW2  798   1.124   0.959   0.551 -0.2413 -0.4681  2.1800
  267SOL     OW  799   2.453   0.901   0.065 -0.1397 -0.1423  0.3604
  267SOL    HW1  800   2.458   0.852   3.075  0.4408 -0.5781 -1.2589
  267SOL    HW2  801   2.369   0.872   0.119  1.3880  0.1445 -1.3142
  268SOL     OW  802   2.749   0.023   2.918  0.0076  0.0610 -0.6354
  268SOL    HW1  803   2.786   0.093   2.861 -2.7182 -2.1791  1.8827
  268SOL    HW2  804   2.786   3.035   2.887 -1.0098 -0.3058  0.2979
  269SOL     OW  805   1.544   0.404   2.531  0.3458  0.1620 -0.2689
  269SOL    HW1  806   1.561   0.488   2.586  0.2002  2.0172 -1.4547
  269SOL    HW2  807   1.472   0.415   2.459  1.3083 -1.0245 -2.4347
  270SOL     OW  808   0.838   1.182   2.706 -0.0919 -0.1211 -0.0508
  270SOL    HW1  809   0.780   1.252   2.672  0.3663  0.3910 -0.4046
  270SOL    HW2  810   0.932   1.215   2.706 -1.1107  1.7794 -2.6836
  271SOL     OW  811   2.665   1.016   0.213  0.1014 -0.5631 -0.0511
  271SOL    HW1  812   2.592   0.998   0.149  0.1146  0.9638  1.6703
  271SOL    HW2  813   2.632   1.025   0.307  0.8761 -0.3637 -2.8251
  272SOL     OW  814   2.597   1.744   2.787 -0.7472 -0.2661  0.3030
  272SOL    HW1  815   2.557   1.800   2.866  1.9013 -0.3743 -1.0374
  272SOL    HW2  816   2.629   1.812   2.717 -1.7032 -3.9881  2.1586
  273SOL     OW  817   2.078   0.603   0.200  0.2637 -0.7662  0.0188
  273SOL    HW1  818   2.004   0.641   0.262  2.5229  1.1395  0.6263
  273SOL    HW2  819   2.040   0.596   0.108  0.0023  1.5430  3.5075
  274SOL     OW  820   0.220   2.461   1.062 -0.5367 -0.1450 -0.5185
  274SOL    HW1  821   0.292   2.393   1.041  0.3246  0.4827  0.7747
  274SOL    HW2  822   0.194   2.462   1.163 -0.6586 -0.7122 -0.1606
  275SOL     OW  823   2.474   1.541   0.773  0.3142 -0.3424  0.8493
  275SOL    HW1  824   2.521   1.466   0.727 -0.5699  2.5141  1.1326
  275SOL    HW2  825   2.471   1.529   0.874 -0.6986  0.8609  0.4354
  276SOL     OW  826   0.125   1.127   2.672 -0.3627 -0.5679 -0.4342
  276SOL    HW1  827   0.178   1.116   2.587  0.4693  0.2390 -0.5742
  276SOL    HW2  828   0.030   1.090   2.665  0.8622 -0.1595 -0.2610
  277SOL     OW  829   1.691   2.321   1.207 -0.0101  0.0207 -0.1106
  277SOL    HW1  830   1.771   2.374   1.226 -2.2138 -0.3329  0.3741
  277SOL    HW2  831   1.721   2.224   1.199 -0.6367 -0.8398  2.2588
  278SOL     OW  832   1.256   0.466   1.650  0.3164  0.5305 -0.5938
  278SOL    HW1  833   1.221   0.430   1.737  3.3163 -0.0621 -0.2878
  278SOL    HW2  834   1.349   0.429   1.642 -2.3319  1.1179  0.3066
  279SOL     OW  835   1.570   1.618   0.564  0.5097 -0.4099  0.6985
  279SOL    HW1  836   1.537   1.654   0.651  0.3874  1.4567 -0.6752
  279SOL    HW2  837   1.546   1.681   0.492  0.0958 -4.5733  2.1215
  280SOL     OW  838   0.508   1.892   0.679 -0.2776 -0.5783 -0.3445
  280SOL    HW1  839   0.575   1.945   0.628 -0.3760  2.2732  1.7497
  280SOL    HW2  840   0.435   1.951   0.720 -3.5019 -0.4501  1.4323
  281SOL     OW  841   2.875   0.184   2.750 -0.6889 -0.0961 -0.2296
  281SOL    HW1  842   2.894   0.285   2.734 -0.5252  1.7821 -0.0240
  281SOL    HW2  843   2.883   0.124   2.665 -1.1314 -1.7619  0.2370
  282SOL     OW  844   0.231   0.994   0.862 -0.0233  0.2719 -0.5494
  282SOL    HW1  845   0.210   0.950   0.775 -0.0578 -0.2222  1.2505
  282SOL    HW2  846   0.232   1.098   0.855  0.7238  1.7826  1.5963
  283SOL     OW  847   1.923   1.924   0.373 -0.8756 -0.5577 -0.5989
  283SOL    HW1  848   2.015   1.968   0.391 -0.2431 -0.8859  0.1919
  283SOL    HW2  849   1.883   1.948   0.284  2.9008 -2.3529  3.1701
  284SOL     OW  850   1.139   1.092   0.248  0.2563 -0.0634  0.7245
  284SOL    HW1  851   1.163   1.058   0.338 -1.1709  1.5262 -0.4000
  284SOL    HW2  852   1.183   1.177   0.215 -1.6549  0.8394  3.3920
  285SOL     OW  853   2.318   0.671   2.858  0.4085 -0.3336  0.8495
  285SOL    HW1  854   2.396   0.726   2.887 -2.1248 -1.2564 -1.9876
  285SOL    HW2  855   2.249   0.727   2.805  0.2739  0.3357 -2.4646
  286SOL     OW  856   1.428   3.017   1.257 -0.3454  0.0130 -0.0151
  286SOL    HW1  857   1.345   2.990   1.205  0.8306 -0.8405 -0.2066
  286SOL    HW2  858   1.434   0.019   1.272  1.9872 -0.4391 -0.5853
  287SOL     OW  859   0.992   1.360   1.125  0.3493 -0.1816 -0.5014
  287SOL    HW1  860   1.062   1.380   1.055 -1.7601 -1.0572  1.2393
  287SOL    HW2  861   0.921   1.430   1.114 -1.6711  1.3363  0.3040
  288SOL     OW  862   1.588   3.054   2.903 -0.0125 -0.3191 -0.0512
  288SOL    HW1  863   1.685   3.029   2.924  0.1710 -0.9993 -1.8883
  288SOL    HW2  864   1.579   0.021   2.826  0.4158 -0.5466  0.0146
  289SOL     OW  865   0.164   1.532   2.237  0.4021  0.0146 -0.0576
  289SOL    HW1  866   0.158   1.598   2.162  0.3747 -1.4756  2.4716
  289SOL    HW2  867   0.089   1.540   2.305  2.3418 -1.2700 -0.1907
  290SOL     OW  868   1.807   2.246   0.889  0.2627 -0.2266 -0.0207
  290SOL    HW1  869   1.897   2.284   0.912 -3.5684 -1.2716 -1.0557
  290SOL    HW2  870   1.809   2.145   0.910 -1.0747 -1.7218  0.4459
  291SOL     OW  871   2.370   2.303   0.020 -0.2916 -0.3065 -0.1607
  291SOL    HW1  872   2.290   2.331   0.081 -0.8252  1.7685 -0.1800
  291SOL    HW2  873   2.346   2.287   3.025 -0.9377 -0.2007 -0.5132
  292SOL     OW  874   0.855   0.791   2.080  0.4056  0.2547  0.0162
  292SOL    HW1  875   0.946   0.801   2.122 -0.7050 -0.9051 -4.1199
  292SOL    HW2  876   0.864   0.747   1.989  3.4578 -0.7045 -0.7398
  293SOL     OW  877   2.003   2.800   0.777 -0.2679 -0.2194 -0.3490
  293SOL    HW1  878   2.014   2.899   0.750 -1.4075  0.0708  1.1608
  293SOL    HW2  879   2.088   2.747   0.751  1.5221 -0.6304 -0.3792
  294SOL     OW  880   0.363   0.352   2.583  0.1553 -0.4387 -0.4944
  294SOL    HW1  881   0.360   0.455   2.604  0.1689  1.4998  1.8349
  294SOL    HW2  882   0.432   0.330   2.516  0.2191 -2.3637  1.2311
  295SOL     OW  883   1.401   1.800   0.700 -0.1849 -0.0835 -0.2422
  295SOL    HW1  884   1.405   1.806   0.802  1.3122  0.2539 -1.8933
  295SOL    HW2  885   1.301   1.806   0.673  1.8590  1.6889  1.2689
  296SOL     OW  886   2.525   1.868   0.422 -0.1179  0.7517  0.5275
  296SOL    HW1  887   2.597   1.843   0.351  2.2598  1.5576  0.9221
  296SOL    HW2  888   2.458   1.793   0.440  1.7279 -0.0708 -0.8498
  297SOL     OW  889   2.044   0.289   0.060  0.2876 -0.2007 -0.4865
  297SOL    HW1  890   2.038   0.204   0.014 -1.0799  2.2429  1.0223
  297SOL    HW2  891   2.139   0.328   0.060  1.4173 -1.1446 -1.0642
  298SOL     OW  892   1.219   2.285   2.228 -0.1682 -0.0052  0.0308
  298SOL    HW1  893   1.172   2.358   2.174  2.6801  2.9423  1.2626
  298SOL    HW2  894   1.316   2.270   2.195  0.5640  0.4428  0.8429
  299SOL     OW  895   1.262   2.783   2.568 -0.2204 -0.4215 -0.1755
  299SOL    HW1  896   1.328   2.844   2.614 -2.0050  0.8525 -1.1089
  299SOL    HW2  897   1.314   2.727   2.500  0.5326  0.1777  0.7171
  300SOL     OW  898   2.144   3.035   2.711  0.2539 -0.0550  0.0810
  300SOL    HW1  899   2.066   3.058   2.644  1.1945  2.5815 -1.0637
  300SOL    HW2  900   2.183   0.015   2.756 -0.2064  0.0900 -0.3646
  301SOL     OW  901   1.500   1.326   1.540  0.0908 -0.7392 -0.3763
  301SOL    HW1  902   1.514   1.306   1.641 -1.9075  0.8936 -0.2601
  301SOL    HW2  903   1.404   1.325   1.509 -0.1863  0.2830 -3.6636
  302SOL     OW  904   2.622   2.604   0.347 -0.2922 -0.5139  0.0488
  302SOL    HW1  905   2.727   2.615   0.339  2.7638 -0.6095 -0.6009
  302SOL    HW2  906   2.588   2.593   0.253  0.4544  0.4603  1.4852
  303SOL     OW  907   2.678   2.410   2.475 -0.0389 -0.3982  0.2066
  303SOL    HW1  908   2.721   2.491   2.440 -1.1553  2.0381 -1.8110
  303SOL    HW2  909   2.703   2.324   2.421  0.8513 -0.2302  1.6423
  304SOL     OW  910   2.777   0.504   1.787 -0.0962 -0.2414  0.3275
  304SOL    HW1  911   2.788   0.591   1.729 -0.4961 -0.0006 -0.3999
  304SOL    HW2  912   2.756   0.533   1.883 -0.0243 -0.5923 -2.9408
  305SOL     OW  913   0.911   1.970   1.823  0.3736 -0.2629 -0.3736
  305SOL    HW1  914   0.939   1.882   1.860  1.7137  2.4226 -2.4156
  305SOL    HW2  915   0.983   2.036   1.821 -0.0516 -1.6859 -0.6278
  306SOL     OW  916   2.802   0.736   1.672 -0.3680  0.0586  0.2059
  306SOL    HW1  917   2.805   0.789   1.590  0.6230 -3.0805  3.7168
  306SOL    HW2  918   2.803   0.797   1.756 -1.4308 -0.6154 -0.1000
  307SOL     OW  919   1.541   1.255   1.789 -0.0816 -0.2079  0.1381
  307SOL    HW1  920   1.474   1.300   1.849 -2.1544  2.2829 -4.9982
  307SOL    HW2  921   1.544   1.155   1.806  2.3182 -0.9360  3.1228
  308SOL     OW  922   2.747   1.485   0.886 -0.3940 -0.0626 -0.7612
  308SOL    HW1  923   2.697   1.566   0.927 -1.5634  2.1995  1.4022
  308SOL    HW2  924   2.695   1.433   0.817  0.2949 -0.6291 -0.8722
  309SOL     OW  925   2.344   1.472   1.310  0.2073  0.2097 -1.0283
  309SOL    HW1  926   2.387   1.559   1.337  0.4768 -1.8832  2.5746
  309SOL    HW2  927   2.351   1.399   1.382  0.2949 -1.0405 -2.2227
  310SOL     OW  928   2.663   1.678   2.435 -0.5083  0.2276  0.4835
  310SOL    HW1  929   2.627   1.762   2.483 -3.1585  0.4892  2.0133
  310SOL    HW2  930   2.691   1.612   2.508 -1.2894  2.8734 -2.1008
  311SOL     OW  931   0.108   2.354   3.074  0.3006  0.1458 -0.2789
  311SOL    HW1  932   0.050   2.403   0.045 -3.5000 -1.4393 -1.1757
  311SOL    HW2  933   0.080   2.260   3.059  2.1339 -0.0669  1.8940
  312SOL     OW  934   2.356   1.555   1.038  0.2191 -0.3942 -0.1903
  312SOL    HW1  935   2.354   1.497   1.121  0.3916  0.3674 -1.9138
  312SOL    HW2  936   2.432   1.626   1.040 -0.1533  1.2217 -1.0552
  313SOL     OW  937   2.638   0.137   1.069  0.0617 -0.1240 -0.4542
  313SOL    HW1  938   2.602   0.057   1.014 -0.7145 -2.1698 -2.6108
  313SOL    HW2  939   2.644   0.217   1.006  0.8146  2.6804 -0.0134
  314SOL     OW  940   1.064   1.695   0.376 -0.0248 -0.2758 -0.1033
  314SOL    HW1  941   1.012   1.760   0.314 -0.4314  1.6051 -1.8939
  314SOL    HW2  942   1.144   1.653   0.331 -1.4484  0.0556  0.6448
  315SOL     OW  943   1.205   2.562   2.136 -0.5156  0.5550  0.0676
  315SOL    HW1  944   1.178   2.619   2.211  0.7825 -0.7647 -1.1784
  315SOL    HW2  945   1.307   2.565   2.123  0.7555 -2.2991 -0.1648
  316SOL     OW  946   3.022   1.255   0.266  0.7185  0.4292  0.1668
  316SOL    HW1  947   3.092   1.280   0.334  1.2822 -0.2938 -0.1195
  316SOL    HW2  948   3.040   1.161   0.232 -0.1693  1.4623  0.4231
  317SOL     OW  949   0.913   0.138   0.412  0.2741 -0.2600 -0.4953
  317SOL    HW1  950   0.993   0.092   0.366 -1.6013  1.8054 -0.7123
  317SOL    HW2  951   0.885   0.095   0.502 -1.8805 -0.3973 -2.1439
  318SOL     OW  952   2.881   2.673   0.269 -0.3535 -0.1570 -0.4774
  318SOL    HW1  953   2.882   2.770   0.243 -1.6978 -3.0735  0.1074
  318SOL    HW2  954   2.960   2.646   0.323  0.3275  0.0743 -0.3204
  319SOL     OW  955   0.678   1.377   2.598 -0.3704  0.2747  0.1628
  319SOL    HW1  956   0.601   1.339   2.652  0.9276  0.0312 -1.8756
  319SOL    HW2  957   0.668   1.476   2.595 -1.9811 -1.8127  3.8127
  320SOL     OW  958   0.645   2.376   1.753 -0.2973  0.1838  0.6643
  320SOL    HW1  959   0.733   2.423   1.731 -0.2947 -0.6030 -0.4889
  320SOL    HW2  960   0.588   2.427   1.816  2.1059 -1.8492 -0.9978
  321SOL     OW  961   1.650   2.244   2.835  0.5701  0.0565 -0.1086
  321SOL    HW1  962   1.625   2.334   2.798  0.1594 -0.6482 -1.9187
  321SOL    HW2  963   1.568   2.195   2.869 -3.3219  1.3162  0.6904
  322SOL     OW  964   2.827   1.131   1.990  1.0736 -0.2299 -0.3669
  322SOL    HW1  965   2.799   1.160   2.084  0.0445  1.8010  1.2845
  322SOL    HW2  966   2.924   1.116   1.986 -0.8976  3.3050  1.5805
  323SOL     OW  967   2.264   0.853   0.585  0.0313 -0.0894  0.2509
  323SOL    HW1  968   2.321   0.766   0.582 -0.2414  1.4776  2.2182
  323SOL    HW2  969   2.218   0.855   0.495  2.0976  0.7212  0.1308
  324SOL     OW  970   0.233   2.634   2.990  0.2936  0.0161  0.3981
  324SOL    HW1  971   0.317   2.588   2.980 -2.2680  3.6880  1.8539
  324SOL    HW2  972   0.220   2.713   2.928 -3.8306  0.0252  1.2101
  325SOL     OW  973   1.381   0.372   2.280 -0.6734  0.0492  0.2657
  325SOL    HW1  974   1.477   0.401   2.268 -2.2020  0.1801 -2.2981
  325SOL    HW2  975   1.347   0.356   2.183 -0.1246 -0.0661 -0.9320
  326SOL     OW  976   2.409   2.599   1.695  0.8964  0.3932  0.1708
  326SOL    HW1  977   2.503   2.630   1.711  0.0963  0.0949  0.6656
  326SOL    HW2  978   2.403   2.492   1.708 -2.0471 -2.4312  0.0145
  327SOL     OW  979   1.953   0.573   3.063 -0.2389 -0.0314 -0.1247
  327SOL    HW1  980   1.851   0.575   3.088 -0.9893 -0.7150  0.9118
  327SOL    HW2  981   1.972   0.548   2.965 -0.1650 -1.2633 -0.6725
  328SOL     OW  982   2.863   0.742   2.219  0.1142  0.1658 -0.3216
  328SOL    HW1  983   2.952   0.730   2.261 -3.1972 -1.6079 -1.7898
  328SOL    HW2  984   2.794   0.732   2.293 -0.4953  0.2128  2.5219
  329SOL     OW  985   1.421   0.147   1.878 -0.1002  0.0988  0.0794
  329SOL    HW1  986   1.376   0.071   1.933  1.2718  1.1176 -0.5242
  329SOL    HW2  987   1.506   0.121   1.824  3.0166 -0.2677 -3.2819
  330SOL     OW  988   2.891   1.838   1.428  0.5887 -0.1349  0.1662
  330SOL    HW1  989   2.978   1.862   1.382  0.4933 -2.9586 -0.7097
  330SOL    HW2  990   2.887   1.738   1.441 -0.6716  0.1231  0.2003
  331SOL     OW  991   0.597   1.463   2.069 -0.2648  0.6493 -0.2808
  331SOL    HW1  992   0.554   1.486   2.155 -0.8601  3.5684 -2.1262
  331SOL    HW2  993   0.689   1.432   2.091 -3.2540 -0.1260  1.3496
  332SOL     OW  994   0.107   2.650   1.462 -0.2071 -0.1332 -0.2361
  332SOL    HW1  995   0.132   2.681   1.558 -1.2262 -0.7458  0.5175
  332SOL    HW2  996   0.084   2.737   1.416  0.1162  0.8690  0.1550
  333SOL     OW  997   2.281   2.623   1.935 -0.2761 -0.0152 -0.1648
  333SOL    HW1  998   2.348   2.685   1.978  0.3827 -1.1085  1.0361
  333SOL    HW2  999   2.306   2.606   1.837  1.2182 -2.7855  0.0148
  334SOL     OW 1000   1.079   1.978   0.955 -0.8773 -0.1038  0.9020
  334SOL    HW1 1001   0.985   2.016   0.966  0.0512  0.1867  0.8323
  334SOL    HW2 1002   1.141   2.054   0.927 -0.9750 -0.4639 -1.6513
  335SOL     OW 1003   0.854   2.273   2.691  0.2705 -0.3622  0.0727
  335SOL    HW1 1004   0.778   2.311   2.742  2.8934  0.4006 -1.1636
  335SOL    HW2 1005   0.942   2.315   2.715 -0.8461 -1.7661 -2.0921
  336SOL     OW 1006   3.092   0.081   2.008  0.5907  0.4622 -0.0081
  336SOL    HW1 1007   3.098   0.113   1.912  0.7528 -1.3905 -3.2962
  336SOL    HW2 1008   0.061   0.004   2.029  1.3489  1.4735  2.2246
  337SOL     OW 1009   2.854   2.188   0.039  0.6474  0.1061 -0.0982
  337SOL    HW1 1010   2.875   2.159   0.136  1.7647 -2.5343  0.0308
  337SOL    HW2 1011   2.937   2.169   3.084  0.2966 -0.0414  2.5642
  338SOL     OW 1012   1.115   2.071   1.287  0.8005 -0.4032 -0.6954
  338SOL    HW1 1013   1.128   2.141   1.216 -0.2932 -0.9095  2.1241
  338SOL    HW2 1014   1.025   2.080   1.333  1.3468 -0.9474 -1.0350
  339SOL     OW 1015   3.007   0.283   2.224  0.2006  0.2026  0.3898
  339SOL    HW1 1016   2.905   0.291   2.230  2.1263  2.0641  1.3909
  339SOL    HW2 1017   3.049   0.228   2.143  2.7218 -0.6793 -2.8783
  340SOL     OW 1018   1.812   2.633   0.438  0.0169 -0.0127  0.3169
  340SOL    HW1 1019   1.744   2.588   0.371 -1.0290 -1.6182 -1.1591
  340SOL    HW2 1020   1.777   2.629   0.531  0.6145 -0.0546 -1.4424
  341SOL     OW 1021   1.641   1.520   1.155 -0.2898  0.1176  0.0239
  341SOL    HW1 1022   1.718   1.455   1.190 -0.2308 -0.3085  0.5289
  341SOL    HW2 1023   1.646   1.541   1.053 -0.7507  0.0451 -3.7027
  342SOL     OW 1024   0.422   1.636   0.578  0.0142 -0.7106  0.1566
  342SOL    HW1 1025   0.330   1.676   0.557  1.4648  1.0241 -0.2726
  342SOL    HW2 1026   0.483   1.708   0.615 -1.3027  0.7032 -0.7659
  343SOL     OW 1027   1.464   2.764   1.333 -0.1177  0.0196  0.2019
  343SOL    HW1 1028   1.558   2.734   1.353 -2.8520 -2.0955  0.5273
  343SOL    HW2 1029   1.458   2.864   1.327  1.4804 -0.5927 -1.6692
  344SOL     OW 1030   2.434   2.791   0.997  0.3082 -0.2124 -0.1474
  344SOL    HW1 1031   2.373   2.721   0.959 -0.3906  0.1206 -1.7001
  344SOL    HW2 1032   2.385   2.839   1.074 -3.0725  0.4481 -0.1439
  345SOL     OW 1033   2.751   2.293   2.706 -0.1013  0.3427  0.9535
  345SOL    HW1 1034   2.725   2.338   2.614 -3.3167  2.7944 -6.3204
  345SOL    HW2 1035   2.854   2.291   2.719 -0.5193 -0.7474  1.8714
  346SOL     OW 1036   0.302   2.066   0.788  0.6294  0.2311  0.3751
  346SOL    HW1 1037   0.210   2.070   0.827  0.3256 -0.0488 -0.2411
  346SOL    HW2 1038   0.308   2.113   0.693  0.7692  2.5180  1.4154
  347SOL     OW 1039   1.935   2.482   1.198 -0.4013 -0.3520 -0.2528
  347SOL    HW1 1040   2.012   2.497   1.264  0.5804 -0.4299  0.9670
  347SOL    HW2 1041   1.914   2.566   1.139 -0.3528 -0.0365 -0.7416
  348SOL     OW 1042   1.335   1.548   2.567  0.2972 -0.0738  0.8228
  348SOL    HW1 1043   1.326   1.448   2.576  2.5827  0.1684 -0.8449
  348SOL    HW2 1044   1.254   1.602   2.595 -2.6112  0.5686  0.7155
  349SOL     OW 1045   2.318   0.865   2.165 -0.5317  0.2150 -0.1452
  349SOL    HW1 1046   2.246   0.868   2.095 -0.7639  2.0087  1.9722
  349SOL    HW2 1047   2.339   0.959   2.199 -1.5569  0.5953 -0.5845
  350SOL     OW 1048   2.962   2.444   1.361  0.1476  0.0948 -0.0156
  350SOL    HW1 1049   2.932   2.520   1.305  0.2199 -2.2476  0.4748
  350SOL    HW2 1050   3.052   2.414   1.325 -2.6130  0.0496  1.9963
  351SOL     OW 1051   0.706   0.308   2.763  0.2334  0.1024 -0.0552
  351SOL    HW1 1052   0.675   0.237   2.832 -0.1806 -0.8086  1.6554
  351SOL    HW2 1053   0.805   0.334   2.771 -0.8682  1.6589  2.4010
  352SOL     OW 1054   0.580   2.374   1.308  0.0550  0.1153  0.1103
  352SOL    HW1 1055   0.542   2.315   1.383  1.5675  2.5733  1.5117
  352SOL    HW2 1056   0.549   2.466   1.328  2.5340 -3.3671  2.2211
  353SOL     OW 1057   0.814   0.962   2.498  0.1278  0.3235  0.5629
  353SOL    HW1 1058   0.768   1.031   2.559 -2.2078  1.0003 -1.3579
  353SOL    HW2 1059   0.911   0.950   2.520  0.9668 -0.9179 -1.2732
  354SOL     OW 1060   1.504   0.976   0.687  0.4304  0.7009 -0.3594
  354SOL    HW1 1061   1.466   0.893   0.725 -2.2579  1.8681  1.1196
  354SOL    HW2 1062   1.462   1.007   0.596 -2.3553  3.3989 -1.0276
  355SOL     OW 1063   2.695   0.237   0.344  0.2710  0.5136 -0.1157
  355SOL    HW1 1064   2.696   0.147   0.295 -0.4584  0.7611  2.4707
  355SOL    HW2 1065   2.675   0.224   0.444 -0.1728 -1.7971  4.0952
  356SOL     OW 1066   2.898   0.994   2.702 -0.3727  0.1217 -0.4997
  356SOL    HW1 1067   2.896   0.897   2.674 -1.5790 -0.4116  1.0655
  356SOL    HW2 1068   2.864   1.044   2.617 -2.8047  1.5296 -0.5235
  357SOL     OW 1069   0.878   2.711   1.708 -0.1180 -0.2174 -0.1958
  357SOL    HW1 1070   0.805   2.763   1.660  1.6403 -0.2565  2.4806
  357SOL    HW2 1071   0.889   2.618   1.668 -0.3787  1.5230  0.6935
  358SOL     OW 1072   2.280   1.473   2.522 -0.0054 -0.2275  0.3314
  358SOL    HW1 1073   2.284   1.527   2.434 -0.4032  1.4950  0.7635
  358SOL    HW2 1074   2.183   1.431   2.520 -1.4151  0.6182  0.9834
  359SOL     OW 1075   2.405   2.675   2.894 -0.5644  0.6018  0.2048
  359SOL    HW1 1076   2.423   2.715   2.802  4.0187  1.2327  1.0431
  359SOL    HW2 1077   2.431   2.575   2.897 -0.4711 -1.2802 -1.3690
  360SOL     OW 1078   2.091   0.698   0.727  0.0914  0.4646 -0.3586
  360SOL    HW1 1079   2.102   0.596   0.718  0.0319 -1.4271  2.6306
  360SOL    HW2 1080   2.168   0.743   0.680  2.4127 -2.0556 -0.0797
  361SOL     OW 1081   1.908   2.711   1.037  0.0295 -0.1696  0.3618
  361SOL    HW1 1082   1.843   2.785   1.052 -1.5210 -1.0418 -2.0575
  361SOL    HW2 1083   1.947   2.717   0.941  1.2118  1.1301 -0.3069
  362SOL     OW 1084   1.475   1.185   0.866  0.5359  0.0729  0.1842
  362SOL    HW1 1085   1.456   1.112   0.798  3.3649  1.3374 -0.8399
  362SOL    HW2 1086   1.548   1.251   0.841 -1.0792 -0.4345  2.0096
  363SOL     OW 1087   3.052   1.627   2.421  0.3868 -0.4665  0.5576
  363SOL    HW1 1088   2.981   1.638   2.349 -0.5695  0.2172 -1.0249
  363SOL    HW2 1089   3.027   1.555   2.488  0.5504  0.5592 -0.1301
  364SOL     OW 1090   1.259   0.668   1.466 -0.2372 -0.1786 -0.1916
  364SOL    HW1 1091   1.241   0.602   1.544  1.1086 -1.8447  1.0177
  364SOL    HW2 1092   1.353   0.651   1.427  1.1744 -1.3959 -1.3806
  365SOL     OW 1093   0.006   2.872   1.267  0.1093 -0.0591 -0.6662
  365SOL    HW1 1094   0.040   2.883   1.171 -0.8981  0.1802  0.1081
  365SOL    HW2 1095   3.037   2.942   1.289  0.1414 -2.0144  1.4558
  366SOL     OW 1096   2.937   1.488   0.161  0.0451 -0.0292  0.5829
  366SOL    HW1 1097   3.010   1.557   0.163 -0.4703 -0.9720  1.1540
  366SOL    HW2 1098   2.979   1.397   0.181 -1.1935  2.0147 -0.0610
  367SOL     OW 1099   0.005   2.085   3.034 -0.2321 -0.0211  0.5668
  367SOL    HW1 1100   0.095   2.053   3.070 -1.9314  0.4677 -1.7691
  367SOL    HW2 1101   3.039   2.010   3.047  2.2524 -0.2989 -0.8365
  368SOL     OW 1102   2.863   2.275   1.062  0.2740 -0.3751  0.4437
  368SOL    HW1 1103   2.770   2.295   1.104 -2.4018  0.6133 -0.0478
  368SOL    HW2 1104   2.922   2.359   1.057  1.2827 -0.8941  2.7190
  369SOL     OW 1105   0.384   0.427   0.368 -0.4958 -0.1020  0.1591
  369SOL    HW1 1106   0.429   0.451   0.278  0.0254  1.4659 -2.0821
  369SOL    HW2 1107   0.428   0.351   0.420 -0.8175  0.9094  0.3640
  370SOL     OW 1108   0.451   0.892   1.584  0.3666 -0.0231  0.4162
  370SOL    HW1 1109   0.474   0.987   1.560 -0.2289 -4.2189 -0.3669
  370SOL    HW2 1110   0.478   0.835   1.501  1.8398  0.7823  1.4012
  371SOL     OW 1111   2.202   1.929   0.676 -0.0764 -0.1023  0.1517
  371SOL    HW1 1112   2.101   1.938   0.666  3.7437  2.4527 -0.6867
  371SOL    HW2 1113   2.225   1.830   0.708  0.5180 -5.4560  1.9566
  372SOL     OW 1114   2.964   0.754   2.569  0.1231  0.2581 -0.2297
  372SOL    HW1 1115   3.003   0.708   2.651  0.6620  1.5782 -2.3869
  372SOL    HW2 1116   3.024   0.724   2.494 -2.7038  1.1982 -1.1009
  373SOL     OW 1117   2.973   1.524   0.624  0.1460  0.0922 -0.1330
  373SOL    HW1 1118   2.893   1.581   0.640  2.2170 -0.5530  0.9601
  373SOL    HW2 1119   2.951   1.453   0.558  0.6024 -0.8552  0.6984
  374SOL     OW 1120   0.723   2.351   0.112  0.5353  0.3998 -0.3035
  374SOL    HW1 1121   0.800   2.414   0.140  0.0230  0.2608 -0.4702
  374SOL    HW2 1122   0.657   2.331   0.186  1.3921 -0.9177 -1.0036
  375SOL     OW 1123   0.739   0.393   0.065  0.0788 -0.4809 -0.1617
  375SOL    HW1 1124   0.824   0.450   0.056  1.1756  0.0850 -0.9185
  375SOL    HW2 1125   0.749   0.330   0.142 -0.8306  3.3028  0.8241
  376SOL     OW 1126   0.157   2.975   2.055  0.4604 -0.7076  0.0605
  376SOL    HW1 1127   0.144   3.007   2.152  0.7775  1.6586  1.8560
  376SOL    HW2 1128   0.245   2.928   2.039 -0.2122 -0.6529  0.8460
  377SOL     OW 1129   0.615   1.898   2.234 -0.0142 -0.3915  0.5575
  377SOL    HW1 1130   0.688   1.898   2.302  2.7557 -0.0756 -0.8882
  377SOL    HW2 1131   0.652   1.901   2.138  1.2181 -0.2146  0.0991
  378SOL     OW 1132   1.062   0.812   0.633  0.9726 -0.5109  0.4685
  378SOL    HW1 1133   1.108   0.723   0.635  0.4147  3.7993  2.7986
  378SOL    HW2 1134   0.968   0.803   0.586  0.2408 -2.6036 -0.7090
  379SOL     OW 1135   1.121   1.497   3.083  0.0043  0.0247 -0.0075
  379SOL    HW1 1136   1.131   1.400   0.010  1.3188 -0.3979 -0.2107
  379SOL    HW2 1137   1.217   1.536   3.076  0.8594  1.8189  0.9829
  380SOL     OW 1138   0.012   2.069   1.985  0.5729  0.0940 -0.5761
  380SOL    HW1 1139   3.018   2.073   1.937 -0.5648  0.8955  1.0279
  380SOL    HW2 1140   0.086   2.051   1.915  2.5980  0.1529  0.6478
  381SOL     OW 1141   0.075   0.819   2.001  0.0360 -0.7396 -0.1457
  381SOL    HW1 1142   0.137   0.827   1.920  1.8151 -2.8189  0.2572
  381SOL    HW2 1143   0.055   0.720   2.022  1.9197  1.0349  1.1776
  382SOL     OW 1144   2.628   2.248   2.932  0.0717  0.3136 -0.0858
  382SOL    HW1 1145   2.673   2.263   2.840 -0.2201  1.5994  0.6244
  382SOL    HW2 1146   2.694   2.273   3.006 -1.1367 -0.7516 -0.2567
  383SOL     OW 1147   2.294   1.889   2.457  0.3137 -0.2778  0.0267
  383SOL    HW1 1148   2.303   1.795   2.424  0.7054  0.5277  2.2235
  383SOL    HW2 1149   2.251   1.883   2.549  1.3201  1.9734  1.3463
  384SOL     OW 1150   0.830   2.416   2.140  0.0399  0.0042 -0.3683
  384SOL    HW1 1151   0.757   2.483   2.133 -1.5038  0.8879  1.8197
  384SOL    HW2 1152   0.793   2.326   2.108  0.6546 -1.5436 -3.5848
  385SOL     OW 1153   2.634   1.950   1.003  0.1037 -0.5384  0.1655
  385SOL    HW1 1154   2.698   2.009   0.950 -0.7972 -0.2477 -1.6177
  385SOL    HW2 1155   2.663   1.949   1.098 -0.7141  1.6681 -2.0063
  386SOL     OW 1156   1.687   1.135   2.930 -0.1063 -0.0202  0.7771
  386SOL    HW1 1157   1.695   1.150   3.028  0.5832 -1.6874  0.0428
  386SOL    HW2 1158   1.603   1.084   2.915  0.4695 -0.8048 -0.4263
  387SOL     OW 1159   0.277   0.868   1.796 -0.1650  0.1388 -0.0529
  387SOL    HW1 1160   0.329   0.892   1.711 -1.1340 -2.4705  1.1057
  387SOL    HW2 1161   0.319   0.920   1.879  1.5142  0.1974  2.7724
  388SOL     OW 1162   2.801   0.912   1.442 -0.3377  0.1972  0.4573
  388SOL    HW1 1163   2.739   0.856   1.384 -1.6342 -1.5409  0.7683
  388SOL    HW2 1164   2.843   0.993   1.400 -0.3156 -0.1512 -0.2855
  389SOL     OW 1165   1.768   1.033   2.573  0.3719  0.4140 -0.0134
  389SOL    HW1 1166   1.840   0.998   2.509  3.0747  0.2145 -1.0237
  389SOL    HW2 1167   1.734   1.125   2.541 -2.1147 -0.2895  2.1262
  390SOL     OW 1168   1.970   2.296   0.657 -0.3398  0.4441 -0.2060
  390SOL    HW1 1169   2.052   2.256   0.709  2.0785  1.1117  0.5752
  390SOL    HW2 1170   1.887   2.307   0.721 -2.6152  1.4509  1.5681
  391SOL     OW 1171   1.736   2.693   0.702 -0.0257 -0.8121  0.4244
  391SOL    HW1 1172   1.825   2.741   0.732  1.0655 -0.5674  0.7327
  391SOL    HW2 1173   1.714   2.611   0.763 -1.0829 -2.1242 -1.8661
  392SOL     OW 1174   2.657   2.716   1.667 -0.0265  0.2276  0.2897
  392SOL    HW1 1175   2.748   2.708   1.619  0.4479  1.5225  0.6594
  392SOL    HW2 1176   2.596   2.789   1.626 -0.2805 -2.0264 -1.4311
  393SOL     OW 1177   1.928   1.891   2.844  0.1564 -0.2298  0.6298
  393SOL    HW1 1178   1.870   1.965   2.891 -0.0229  1.7480  0.9148
  393SOL    HW2 1179   2.001   1.851   2.904 -0.1576 -0.7012 -0.2160
  394SOL     OW 1180   0.543   2.782   2.760 -0.5141 -0.7389 -0.2090
  394SOL    HW1 1181   0.526   2.693   2.810  0.6677  1.2760 -2.4493
  394SOL    HW2 1182   0.488   2.793   2.676  1.8283  1.3382  2.8155
  395SOL     OW 1183   0.820   1.595   1.036  0.0766  0.4713 -0.2528
  395SOL    HW1 1184   0.750   1.547   0.978 -3.1053 -1.0610  0.0005
  395SOL    HW2 1185   0.783   1.658   1.106  0.3084 -1.5476 -1.6842
  396SOL     OW 1186   1.802   0.868   2.784 -0.8828  0.0827  0.5283
  396SOL    HW1 1187   1.805   0.928   2.700  3.1635 -0.9265 -1.1205
  396SOL    HW2 1188   1.782   0.924   2.869  0.3343  0.3958 -0.9558
  397SOL     OW 1189   0.014   0.611   2.967 -0.8248  0.2031  0.1607
  397SOL    HW1 1190   0.052   0.641   2.879 -3.0775 -0.7383  0.4058
  397SOL    HW2 1191   3.012   0.593   2.962  0.9197 -0.3163  1.2616
  398SOL     OW 1192   1.220   0.327   0.525  0.0588  0.1990  0.0711
  398SOL    HW1 1193   1.311   0.329   0.477  0.4343  1.0949 -1.6085
  398SOL    HW2 1194   1.217   0.262   0.601  0.7213  1.6531 -1.1166
  399SOL     OW 1195   1.882   0.018   1.860  0.3028  0.2097 -0.2013
  399SOL    HW1 1196   1.824   0.013   1.773 -0.2532  0.2270  0.3336
  399SOL    HW2 1197   1.896   3.024   1.895  0.6602  0.3156 -2.8733
  400SOL     OW 1198   2.777   2.144   2.411 -0.1821  0.2461  0.1423
  400SOL    HW1 1199   2.861   2.137   2.469 -3.3808  1.1830  0.4376
  400SOL    HW2 1200   2.784   2.089   2.326 -0.7433  0.2918  1.7904
  401SOL     OW 1201   0.700   0.167   0.245  0.3217  0.0415 -0.5801
  401SOL    HW1 1202   0.650   0.080   0.237  2.3085 -1.5212  0.3884
  401SOL    HW2 1203   0.783   0.156   0.296 -1.3650 -0.6556 -2.0814
  402SOL     OW 1204   0.254   2.215   1.464  0.2248 -0.0103  0.6180
  402SOL    HW1 1205   0.330   2.222   1.526 -0.3697 -0.3993 -0.0709
  402SOL    HW2 1206   0.165   2.184   1.506  0.3475  0.7243  0.3840
  403SOL     OW 1207   0.155   1.008   1.312  0.0845  0.1675 -0.0846
  403SOL    HW1 1208   0.103   1.084   1.267  2.6333  0.1687  0.0971
  403SOL    HW2 1209   0.099   0.948   1.368 -0.6043  0.9987 -0.8790
  404SOL     OW 1210   0.037   2.434   2.119 -0.3151  0.1531  0.4527
  404SOL    HW1 1211   0.091   2.351   2.118  0.6940  0.4012 -0.4981
  404SOL    HW2 1212   0.088   2.516   2.161  0.1033 -1.2511 -0.4801
  405SOL     OW 1213   2.743   0.292   2.209 -0.5364  0.3241  0.0842
  405SOL    HW1 1214   2.676   0.216   2.197  0.6088 -1.7620  1.0396
  405SOL    HW2 1215   2.699   0.370   2.262  0.5069  1.5766  1.1398
  406SOL     OW 1216   1.999   2.313   0.369 -0.2321  0.0065 -0.4628
  406SOL    HW1 1217   1.996   2.295   0.471 -1.1358 -1.9354  1.5839
  406SOL    HW2 1218   1.910   2.281   0.329  0.4749  0.9612 -3.1466
  407SOL     OW 1219   1.914   1.675   0.744  0.2543 -0.7592 -0.0193
  407SOL    HW1 1220   1.984   1.647   0.808  0.0140 -1.9363 -1.7482
  407SOL    HW2 1221   1.888   1.608   0.676  0.0556  1.0426 -1.1327
  408SOL     OW 1222   0.519   0.308   2.353 -0.5386  0.2226  0.4167
  408SOL    HW1 1223   0.452   0.260   2.291 -1.4334  0.5106  0.3419
  408SOL    HW2 1224   0.583   0.364   2.300 -2.3037 -2.1573  0.7673
  409SOL     OW 1225   2.744   1.756   0.597  0.0594  0.4104  0.2377
  409SOL    HW1 1226   2.666   1.793   0.646  3.8682 -0.6622  1.3008
  409SOL    HW2 1227   2.738   1.757   0.494 -1.1229 -0.9317 -0.9963
  410SOL     OW 1228   2.074   1.461   1.311 -0.4946 -0.4116 -0.2803
  410SOL    HW1 1229   2.171   1.448   1.290 -1.3350 -0.1589  1.5876
  410SOL    HW2 1230   2.060   1.482   1.410  0.5636  1.4811 -1.3209
  411SOL     OW 1231   0.019   0.814   0.418  0.0389 -0.3002  0.4250
  411SOL    HW1 1232   0.077   0.732   0.410  0.1004 -0.4073 -1.4391
  411SOL    HW2 1233   3.026   0.786   0.422 -1.0479 -0.6280  0.2146
  412SOL     OW 1234   1.686   0.585   0.115  0.6419 -0.0285  0.4473
  412SOL    HW1 1235   1.648   0.669   0.083  0.9231 -2.6170  0.1748
  412SOL    HW2 1236   1.734   0.612   0.203 -0.3282 -0.1742  2.2356
  413SOL     OW 1237   0.710   0.891   1.700  0.3358  0.4277  0.0981
  413SOL    HW1 1238   0.626   0.840   1.712  0.1885  2.5584 -0.8506
  413SOL    HW2 1239   0.718   0.913   1.603 -0.6866  3.2842  0.3755
  414SOL     OW 1240   3.098   1.263   3.053 -0.3657  0.2324  0.0797
  414SOL    HW1 1241   3.026   1.195   3.046  2.1111  0.2758 -1.4866
  414SOL    HW2 1242   0.014   1.305   2.961  1.1291  2.4645  0.7006
  415SOL     OW 1243   0.306   1.498   3.082  0.0814  0.3192 -0.0599
  415SOL    HW1 1244   0.404   1.468   3.069 -1.0238  1.2621  0.6682
  415SOL    HW2 1245   0.262   1.419   0.032 -0.0007  0.9526 -1.5419
  416SOL     OW 1246   1.452   0.836   0.235  0.2651  0.1096  0.8168
  416SOL    HW1 1247   1.439   0.767   0.306 -1.1404  0.2714 -2.3136
  416SOL    HW2 1248   1.434   0.932   0.270 -1.2361  3.2383  1.7454
  417SOL     OW 1249   0.442   0.411   0.859 -0.0187  0.2762  0.1766
  417SOL    HW1 1250   0.361   0.365   0.906 -2.0814 -1.4510  2.8410
  417SOL    HW2 1251   0.510   0.346   0.815  0.4479  2.5388 -0.5318
  418SOL     OW 1252   2.182   1.016   2.883 -0.6914  0.4007 -0.3346
  418SOL    HW1 1253   2.144   0.943   2.944 -0.2393  1.5853 -0.0629
  418SOL    HW2 1254   2.264   0.985   2.827  2.0023 -0.7885 -1.9667
  419SOL     OW 1255   0.494   0.443   0.121 -0.4028 -0.3484  0.4253
  419SOL    HW1 1256   0.437   0.452   0.034  1.7934 -1.3255  0.7583
  419SOL    HW2 1257   0.595   0.428   0.098  1.3589  1.3289 -0.8860
  420SOL     OW 1258   0.483   1.583   1.068 -0.0601  0.0769  0.4463
  420SOL    HW1 1259   0.438   1.507   1.019  0.3683 -0.3229 -0.8005
  420SOL    HW2 1260   0.455   1.670   1.018  0.0125  1.0463 -0.5449
  421SOL     OW 1261   0.448   2.171   3.100 -0.2041 -0.6764 -0.1959
  421SOL    HW1 1262   0.417   2.248   3.036 -1.9931  1.4664  0.5817
  421SOL    HW2 1263   0.366   2.115   0.019  2.2934 -0.2883  2.2719
  422SOL     OW 1264   2.225   0.260   1.539 -0.0922  0.3317  0.2355
  422SOL    HW1 1265   2.282   0.330   1.578 -0.7831 -0.5467 -0.2571
  422SOL    HW2 1266   2.208   0.186   1.609 -3.5372 -1.6297  0.1877
  423SOL     OW 1267   2.160   1.384   0.943  0.5754  0.0163  0.6265
  423SOL    HW1 1268   2.209   1.468   0.972 -0.1532  0.8507 -0.2253
  423SOL    HW2 1269   2.220   1.310   0.907 -2.1680 -0.9662  0.2040
  424SOL     OW 1270   2.096   1.434   0.188 -0.2644  0.3334  0.2496
  424SOL    HW1 1271   2.112   1.451   0.091  0.2010 -0.9470  0.2227
  424SOL    HW2 1272   2.105   1.518   0.241 -2.7783 -1.2810  0.5679
  425SOL     OW 1273   0.386   3.084   2.366  0.5288  0.3170  0.2196
  425SOL    HW1 1274   0.440   3.073   2.281 -3.1007 -0.0480  0.2797
  425SOL    HW2 1275   0.379   2.998   2.421  0.7452  0.7621  0.5398
  426SOL     OW 1276   2.402   2.755   2.622 -0.2215  0.0959 -0.4949
  426SOL    HW1 1277   2.385   2.855   2.629 -0.8232 -0.1979 -1.3068
  426SOL    HW2 1278   2.353   2.714   2.539 -1.7259 -0.7825 -3.2136
  427SOL     OW 1279   0.456   1.054   2.258 -0.2050 -0.3288 -0.2763
  427SOL    HW1 1280   0.495   0.973   2.311  2.1338 -1.8033  0.6351
  427SOL    HW2 1281   0.482   1.146   2.301  1.9442  4.6055 -1.5616
  428SOL     OW 1282   2.002   1.069   2.185 -0.0508  0.5565  0.3857
  428SOL    HW1 1283   2.035   1.042   2.088  0.7773  0.7774 -0.9559
  428SOL    HW2 1284   2.049   1.154   2.219 -0.0742  0.0368  0.9474
  429SOL     OW 1285   2.360   0.170   0.511 -0.9480 -0.2962 -0.3128
  429SOL    HW1 1286   2.363   0.145   0.414  0.1770  0.6761 -1.4987
  429SOL    HW2 1287   2.386   0.266   0.520 -2.0790 -0.9222 -2.3317
  430SOL     OW 1288   1.616   1.462   2.030  0.4784  0.4340  0.6597
  430SOL    HW1 1289   1.588   1.428   2.123 -0.3383 -2.1199 -0.5119
  430SOL    HW2 1290   1.537   1.477   1.968  0.4792  1.0336 -0.5378
  431SOL     OW 1291   2.729   1.927   1.623  0.0512  0.4990 -0.0085
  431SOL    HW1 1292   2.798   1.928   1.546 -0.1499 -0.1760 -0.8034
  431SOL    HW2 1293   2.639   1.959   1.592  0.2118 -0.4639  1.3703
  432SOL     OW 1294   1.117   2.834   1.697  0.1552  0.1828  0.3589
  432SOL    HW1 1295   1.185   2.783   1.645 -1.5793  1.5689  3.6507
  432SOL    HW2 1296   1.024   2.786   1.692 -0.1515 -3.6364  2.1617
  433SOL     OW 1297   1.726   2.932   1.031 -0.3226 -0.4542 -0.1060
  433SOL    HW1 1298   1.734   2.961   0.933  1.0787 -2.0036 -0.8040
  433SOL    HW2 1299   1.634   2.887   1.047 -1.9225  0.5652 -1.6937
  434SOL     OW 1300   0.464   2.195   2.013  0.2133  0.7988  0.0782
  434SOL    HW1 1301   0.434   2.154   1.924 -0.6506  0.8375  2.7358
  434SOL    HW2 1302   0.427   2.140   2.091 -1.8803  1.5527  1.0865
  435SOL     OW 1303   0.212   1.559   0.249  0.0269  0.4387  0.6245
  435SOL    HW1 1304   0.167   1.601   0.171  2.5690 -1.2065  1.8469
  435SOL    HW2 1305   0.170   1.599   0.330 -2.7351  2.9144 -0.7719
  436SOL     OW 1306   0.405   1.333   1.920 -0.4411  0.9850  0.0887
  436SOL    HW1 1307   0.407   1.363   1.823 -0.1624 -0.4745  1.0064
  436SOL    HW2 1308   0.492   1.363   1.963  2.7227 -1.8533  1.8037
  437SOL     OW 1309   1.202   0.753   2.885  0.1762 -0.2238 -0.0114
  437SOL    HW1 1310   1.244   0.706   2.969  0.7842 -3.9397  1.4185
  437SOL    HW2 1311   1.275   0.759   2.811  0.4154  1.3018 -2.0462
  438SOL     OW 1312   0.561   1.950   1.590  0.2037  0.0214  0.3217
  438SOL    HW1 1313   0.514   1.919   1.508  0.6766 -0.3870  2.3884
  438SOL    HW2 1314   0.654   1.906   1.590 -0.7115  0.0391  2.1314
  439SOL     OW 1315   2.140   1.812   3.012  0.1947 -0.0710 -0.5681
  439SOL    HW1 1316   2.172   1.840   0.009 -0.7524  3.7920 -0.5203
  439SOL    HW2 1317   2.132   1.709   2.993 -1.9529 -1.3940 -2.1123
  440SOL     OW 1318   1.505   0.501   0.658  0.1971  0.2024  0.0788
  440SOL    HW1 1319   1.468   0.425   0.711  1.6521  1.7549 -0.4210
  440SOL    HW2 1320   1.469   0.585   0.697  0.0500 -1.5608 -0.7859
  441SOL     OW 1321   0.530   2.624   1.413 -0.0554  0.0976 -0.1545
  441SOL    HW1 1322   0.475   2.583   1.488 -1.2299  2.3189 -0.1607
  441SOL    HW2 1323   0.493   2.713   1.386  0.3384 -3.3165 -0.5349
  442SOL     OW 1324   2.561   2.438   0.856  0.4610 -0.1730 -0.3280
  442SOL    HW1 1325   2.459   2.446   0.838 -3.3249  1.0318  0.3440
  442SOL    HW2 1326   2.598   2.359   0.808 -3.6906  0.8896  3.5242
  443SOL     OW 1327   2.486   0.739   2.557 -0.5114  0.2567  0.0104
  443SOL    HW1 1328   2.423   0.677   2.514  4.3460 -0.7969  0.0200
  443SOL    HW2 1329   2.455   0.778   2.647  0.7558  1.0195 -0.5260
  444SOL     OW 1330   1.542   0.867   2.485 -0.0857  0.3823  0.7739
  444SOL    HW1 1331   1.627   0.917   2.514 -0.4839 -0.6750  0.4187
  444SOL    HW2 1332   1.555   0.824   2.387  2.2063 -1.4155 -4.7165
  445SOL     OW 1333   2.740   2.380   1.789 -0.5810 -0.4320  0.3384
  445SOL    HW1 1334   2.733   2.308   1.861  0.1110  0.6352  1.2402
  445SOL    HW2 1335   2.729   2.474   1.826 -1.9858  2.4488  1.7638
  446SOL     OW 1336   0.055   1.644   0.458 -0.3196 -0.1678 -0.1640
  446SOL    HW1 1337   0.108   1.703   0.522  0.3486 -1.4451  1.5572
  446SOL    HW2 1338   3.077   1.606   0.512 -0.9757  2.2959  0.7435
  447SOL     OW 1339   0.939   2.395   0.798 -0.1076 -0.0210  0.4807
  447SOL    HW1 1340   0.952   2.440   0.890 -0.8450  1.9497  2.0583
  447SOL    HW2 1341   0.856   2.334   0.795  3.1565 -1.4723  1.5441
  448SOL     OW 1342   1.706   1.518   1.541  0.1311 -0.1210  0.1191
  448SOL    HW1 1343   1.772   1.470   1.605  2.4187 -1.5011  0.6307
  448SOL    HW2 1344   1.632   1.451   1.507  0.6003 -2.6139 -0.1299
  449SOL     OW 1345   0.751   1.870   2.716 -0.5501 -0.3472  0.4444
  449SOL    HW1 1346   0.664   1.907   2.757  0.6313  0.9129 -1.7617
  449SOL    HW2 1347   0.828   1.931   2.745 -0.8392 -0.5435 -0.1305
  450SOL     OW 1348   3.020   1.973   2.222 -0.0737 -0.1667 -0.1034
  450SOL    HW1 1349   2.981   1.880   2.217  1.1850  0.2239 -0.6299
  450SOL    HW2 1350   3.044   2.006   2.127 -1.9000  1.5195 -4.7003
  451SOL     OW 1351   1.879   0.512   1.700 -0.3581 -0.3432 -0.2508
  451SOL    HW1 1352   1.913   0.444   1.633 -1.9044 -0.4003  0.0447
  451SOL    HW2 1353   1.860   0.602   1.660 -1.3189 -0.5791 -0.0990
  452SOL     OW 1354   1.024   2.779   1.288  0.2562 -0.1619 -0.9426
  452SOL    HW1 1355   1.095   2.715   1.252  0.1064  0.8807  0.6619
  452SOL    HW2 1356   0.927   2.750   1.265 -2.6741 -0.2431 -0.2689
  453SOL     OW 1357   0.971   1.755   0.859 -0.1890 -0.3421  0.5837
  453SOL    HW1 1358   0.942   1.691   0.936 -1.5786 -1.4579  1.3932
  453SOL    HW2 1359   1.013   1.838   0.903 -0.0998 -2.8664 -1.9785
  454SOL     OW 1360   2.993   1.124   0.648  0.3932  0.1599  0.0555
  454SOL    HW1 1361   3.068   1.080   0.599 -1.5604  3.9275 -0.7321
  454SOL    HW2 1362   3.025   1.188   0.722 -1.3555 -1.0895 -0.9828
  455SOL     OW 1363   0.591   0.942   0.532  0.7535  0.1244 -0.6962
  455SOL    HW1 1364   0.570   1.037   0.495 -1.9216  2.5029 -1.0368
  455SOL    HW2 1365   0.533   0.884   0.474  0.3198 -0.2430  1.7491
  456SOL     OW 1366   2.278   2.415   0.874 -0.0879 -0.3501 -0.0937
  456SOL    HW1 1367   2.272   2.425   0.974  4.0945 -3.0923 -0.4682
  456SOL    HW2 1368   2.221   2.339   0.837  1.3779  0.4863  1.9698
  457SOL     OW 1369   1.434   2.681   0.161 -0.2438  0.5619  0.1531
  457SOL    HW1 1370   1.422   2.647   0.254 -2.2175 -1.1044 -2.2283
  457SOL    HW2 1371   1.514   2.625   0.122 -0.3462  0.7117 -1.2035
  458SOL     OW 1372   2.838   0.027   0.094 -0.2479 -0.2506 -0.3059
  458SOL    HW1 1373   2.826   3.039   0.139 -0.1914  1.1626 -2.8364
  458SOL    HW2 1374   2.795   0.018   0.005 -0.0156 -1.1466 -1.6343
  459SOL     OW 1375   2.128   0.050   1.737  0.2524  0.3179 -0.1990
  459SOL    HW1 1376   2.137   3.082   1.663  0.1562 -0.5601 -0.3794
  459SOL    HW2 1377   2.045   0.031   1.790 -1.2750  0.4330 -3.4198
  460SOL     OW 1378   3.083   0.507   0.186  0.6924 -0.2466  0.3790
  460SOL    HW1 1379   0.004   0.417   0.142 -1.4088 -2.9005 -0.7608
  460SOL    HW2 1380   2.983   0.529   0.178  2.7365  0.2498  1.4012
  461SOL     OW 1381   3.079   2.089   1.075  0.5493  0.1098 -0.0103
  461SOL    HW1 1382   3.098   2.056   0.981 -2.5035  1.9038  1.2077
  461SOL    HW2 1383   2.996   2.153   1.073 -1.4141  3.0298  0.8583
  462SOL     OW 1384   3.097   3.070   0.979  0.2056  0.3869 -0.0911
  462SOL    HW1 1385   0.095   0.004   0.982  0.5992 -0.8183 -1.2098
  462SOL    HW2 1386   3.043   0.021   1.047  1.6759 -0.3120 -1.0965
  463SOL     OW 1387   2.300   1.362   2.929  0.1810  0.0760 -0.7937
  463SOL    HW1 1388   2.322   1.284   2.993 -1.3974 -3.1467  0.6782
  463SOL    HW2 1389   2.338   1.335   2.842 -0.4397  0.3634  0.7264
  464SOL     OW 1390   0.727   2.730   1.227  0.2743 -0.0398 -0.1285
  464SOL    HW1 1391   0.666   2.776   1.163 -0.8044 -0.9585  0.3835
  464SOL    HW2 1392   0.675   2.666   1.290 -2.0034 -1.7882  0.9856
  465SOL     OW 1393   0.787   0.558   1.108 -0.0457  0.1680  0.1405
  465SOL    HW1 1394   0.819   0.623   1.182  0.9539 -0.4653  0.2799
  465SOL    HW2 1395   0.726   0.605   1.041  1.1840 -2.9047 -0.1564
  466SOL     OW 1396   1.471   2.216   2.184 -0.3083 -0.2879 -0.1000
  466SOL    HW1 1397   1.557   2.259   2.154 -1.1495 -0.5723  3.1848
  466SOL    HW2 1398   1.474   2.191   2.282  3.1457 -0.9005 -0.8989
  467SOL     OW 1399   0.804   0.282   1.966 -0.5421 -0.0229  0.0950
  467SOL    HW1 1400   0.824   0.219   2.046  1.2198 -3.2707 -0.7727
  467SOL    HW2 1401   0.821   0.238   1.875  0.1639  1.0141  0.4923
  468SOL     OW 1402   0.020   1.150   2.369 -0.0212  0.2713  0.1310
  468SOL    HW1 1403   0.060   1.079   2.306 -0.4120  1.0684 -0.9985
  468SOL    HW2 1404   0.086   1.223   2.405  0.8217  0.8230 -0.4741
  469SOL     OW 1405   1.011   2.707   0.441 -0.2237 -0.1118 -0.0904
  469SOL    HW1 1406   1.093   2.738   0.395 -1.6271  0.0034 -1.0653
  469SOL    HW2 1407   1.034   2.652   0.523 -1.0788  1.0886  0.6493
  470SOL     OW 1408   2.117   1.300   2.260  0.3675 -0.3333 -0.1551
  470SOL    HW1 1409   2.115   1.377   2.193 -0.8491  1.0786 -0.9538
  470SOL    HW2 1410   2.097   1.340   2.354  0.6088 -1.2742 -0.0474
  471SOL     OW 1411   1.020   2.420   2.857 -0.0939  0.0012 -0.2088
  471SOL    HW1 1412   1.091   2.374   2.914 -1.8986 -0.7402 -2.2599
  471SOL    HW2 1413   1.000   2.510   2.890 -0.0649 -1.9667 -1.2168
  472SOL     OW 1414   0.466   2.454   1.941  0.4312  0.1221 -0.2179
  472SOL    HW1 1415   0.490   2.368   1.993  0.1203  1.4148  2.2185
  472SOL    HW2 1416   0.367   2.446   1.911 -3.5534  1.8315 -0.2968
  473SOL     OW 1417   0.895   0.117   2.997  0.1492 -0.2603  0.2526
  473SOL    HW1 1418   0.926   0.043   2.936  1.1195  2.9872  0.2452
  473SOL    HW2 1419   0.791   0.121   3.007 -3.0919 -1.9750  4.0606
  474SOL     OW 1420   1.654   0.187   0.803  0.4321  0.5197 -0.3234
  474SOL    HW1 1421   1.675   0.091   0.785 -0.5351  0.3422  2.1286
  474SOL    HW2 1422   1.741   0.239   0.822  0.0672 -0.8418  0.3574
  475SOL     OW 1423   1.594   0.343   1.359 -0.1191 -0.1197  0.3640
  475SOL    HW1 1424   1.573   0.439   1.335  0.7661 -0.1537  2.3323
  475SOL    HW2 1425   1.688   0.307   1.339  0.5528 -2.3098  0.7546
  476SOL     OW 1426   0.180   0.831   1.104  0.2306 -0.2522 -0.4042
  476SOL    HW1 1427   0.153   0.889   1.183 -1.4571 -0.5881  1.1333
  476SOL    HW2 1428   0.204   0.887   1.020  0.5148 -0.4230 -1.8314
  477SOL     OW 1429   1.254   2.449   0.437  0.2386  0.2734 -0.4830
  477SOL    HW1 1430   1.324   2.522   0.434 -2.1511  0.5279  1.6182
  477SOL    HW2 1431   1.182   2.477   0.508  0.0706  1.3794  0.1330
  478SOL     OW 1432   0.190   2.600   2.247 -0.2317 -0.3622 -0.7114
  478SOL    HW1 1433   0.212   2.524   2.309  2.1016  3.4497 -2.6627
  478SOL    HW2 1434   0.271   2.659   2.235 -2.9429  2.4128 -2.0663
  479SOL     OW 1435   2.937   0.236   1.365 -0.2100  0.5533  0.6190
  479SOL    HW1 1436   2.846   0.268   1.397  0.8385 -0.0998  0.6561
  479SOL    HW2 1437   3.001   0.312   1.338  0.2653 -1.5679  1.8572
  480SOL     OW 1438   3.053   2.477   0.152 -0.1311 -0.4012 -0.0156
  480SOL    HW1 1439   3.035   2.573   0.124  2.4319  0.0927 -0.1769
  480SOL    HW2 1440   2.975   2.414   0.141  0.6284  0.3132  0.9068
  481SOL     OW 1441   2.422   1.964   1.793 -0.1896 -0.5312 -0.1435
  481SOL    HW1 1442   2.459   2.010   1.710  2.4885 -0.9729 -1.7847
  481SOL    HW2 1443   2.398   2.034   1.864 -0.3393  0.2471 -0.7458
  482SOL     OW 1444   1.538   1.874   2.419  0.0334  0.5071 -0.1330
  482SOL    HW1 1445   1.536   1.970   2.431 -0.7072 -1.3368 -1.3239
  482SOL    HW2 1446   1.450   1.838   2.443  0.8713 -0.9922 -0.4908
  483SOL     OW 1447   0.792   1.603   1.507  0.0533  0.3392 -0.0320
  483SOL    HW1 1448   0.786   1.630   1.409  2.0969  0.6067 -2.4093
  483SOL    HW2 1449   0.750   1.508   1.508  1.8238  0.6376 -2.7935
  484SOL     OW 1450   0.355   0.557   1.574 -0.0369  0.6175 -0.7947
  484SOL    HW1 1451   0.404   0.467   1.567  2.6843  0.2889  0.3947
  484SOL    HW2 1452   0.419   0.631   1.593  0.9094  1.7565  2.1602
  485SOL     OW 1453   2.338   1.122   3.060  0.4009  0.5245 -0.4281
  485SOL    HW1 1454   2.279   1.089   2.982  2.5582 -1.0615 -1.4836
  485SOL    HW2 1455   2.380   1.042   0.012  0.0179 -0.5110  0.2168
  486SOL     OW 1456   1.266   0.150   1.597 -0.1057 -0.1489  0.3232
  486SOL    HW1 1457   1.248   0.172   1.502  0.0449 -1.5994  0.1732
  486SOL    HW2 1458   1.320   0.223   1.644  1.8237  2.9796  2.0690
  487SOL     OW 1459   0.510   2.216   1.549 -0.1142  0.1068  0.5835
  487SOL    HW1 1460   0.544   2.272   1.622 -1.3387 -1.8649  0.3790
  487SOL    HW2 1461   0.551   2.122   1.562  0.4866  1.2768  1.0952
  488SOL     OW 1462   2.480   2.008   2.926 -0.4214  0.1574  0.2749
  488SOL    HW1 1463   2.385   2.007   2.910  5.6423 -0.1321 -2.4243
  488SOL    HW2 1464   2.521   2.100   2.915  2.1822 -1.5933 -0.7147
  489SOL     OW 1465   2.120   0.054   0.484 -0.6056  0.2108 -0.3115
  489SOL    HW1 1466   2.153   3.068   0.435  0.4650 -1.6435 -4.0474
  489SOL    HW2 1467   2.195   0.116   0.499 -0.4758 -3.3130 -1.2024
  490SOL     OW 1468   1.357   2.204   2.896 -0.3628  0.4578 -0.1908
  490SOL    HW1 1469   1.312   2.115   2.883  1.9691 -0.7728  1.0469
  490SOL    HW2 1470   1.292   2.259   2.958 -1.1020  0.6137  0.6223
  491SOL     OW 1471   0.451   1.455   1.670  0.3384 -0.2282  0.0043
  491SOL    HW1 1472   0.370   1.461   1.614  3.8443 -3.2850  2.3643
  491SOL    HW2 1473   0.526   1.446   1.600 -0.6429 -0.6998  1.0406
  492SOL     OW 1474   1.262   1.080   1.941  0.4277 -0.1061 -0.8110
  492SOL    HW1 1475   1.219   1.102   1.852  2.8452 -1.3315  2.1227
  492SOL    HW2 1476   1.317   1.159   1.969  2.1577  0.9518  0.8587
  493SOL     OW 1477   2.231   1.659   0.759  0.0578  0.4933  0.1505
  493SOL    HW1 1478   2.304   1.596   0.796  0.3317  0.1686  0.6116
  493SOL    HW2 1479   2.204   1.726   0.832 -2.8761 -2.8257  0.2390
  494SOL     OW 1480   0.410   1.938   0.998 -0.2509 -0.5718 -0.4301
  494SOL    HW1 1481   0.433   1.870   0.927  0.0314 -0.3610  0.8769
  494SOL    HW2 1482   0.365   2.015   0.951 -0.3304 -1.6723 -0.8385
  495SOL     OW 1483   2.223   2.617   0.687  0.0677  0.1979 -0.6468
  495SOL    HW1 1484   2.299   2.642   0.625 -0.2943  0.5090  0.9380
  495SOL    HW2 1485   2.240   2.533   0.736  0.6370 -0.5329 -3.6713
  496SOL     OW 1486   2.611   2.950   1.445 -0.4177  0.6945  0.6290
  496SOL    HW1 1487   2.672   3.009   1.385  3.9249 -1.0005  0.7896
  496SOL    HW2 1488   2.537   3.000   1.486  3.4072 -3.5684 -0.7337
  497SOL     OW 1489   2.271   0.940   2.479 -0.4795  0.7360  0.0005
  497SOL    HW1 1490   2.291   1.011   2.411  0.7173 -0.3131  1.1535
  497SOL    HW2 1491   2.314   0.851   2.455 -0.1345  2.3280  0.6351
  498SOL     OW 1492   0.020   2.122   1.544 -0.3094  0.1752  0.2378
  498SOL    HW1 1493   0.007   2.061   1.465 -2.9537 -0.5858 -1.0800
  498SOL    HW2 1494   3.033   2.167   1.565  1.4005  1.2638 -1.5121
  499SOL     OW 1495   1.062   2.388   1.981 -0.2123 -0.1385  0.5571
  499SOL    HW1 1496   0.979   2.368   2.036 -0.5171 -0.4894 -0.5420
  499SOL    HW2 1497   1.116   2.465   2.018 -0.7833 -0.3945 -1.5890
  500SOL     OW 1498   1.057   2.240   0.425  0.1258 -0.4256 -0.4492
  500SOL    HW1 1499   0.991   2.304   0.468 -1.3033 -1.9412  1.4654
  500SOL    HW2 1500   1.152   2.271   0.442  1.1083  0.0219  2.7136
  501SOL     OW 1501   1.774   2.996   1.389  0.3142  0.9431  0.0422
  501SOL    HW1 1502   1.696   3.020   1.326  0.5016  1.1195 -1.9840
  501SOL    HW2 1503   1.757   2.908   1.435  1.2745  2.4591  1.3032
  502SOL     OW 1504   2.382   0.443   1.652 -0.4484  0.5164 -0.2878
  502SOL    HW1 1505   2.341   0.533   1.676 -0.7586  2.4951 -0.6170
  502SOL    HW2 1506   2.432   0.404   1.736  1.9394 -2.8759  1.3959
  503SOL     OW 1507   2.708   1.242   2.269  0.4054 -0.2054  0.1095
  503SOL    HW1 1508   2.690   1.330   2.315 -1.6891  1.6691  1.7595
  503SOL    HW2 1509   2.618   1.199   2.238 -1.9329 -1.8761 -1.3130
  504SOL     OW 1510   1.565   0.904   1.443  0.0654 -0.2835  0.0942
  504SOL    HW1 1511   1.618   0.850   1.375  0.9607 -1.2611  1.9244
  504SOL    HW2 1512   1.466   0.891   1.438 -1.6619 -1.0685  0.6031
  505SOL     OW 1513   0.717   2.842   1.559  0.1052 -0.1227  0.3201
  505SOL    HW1 1514   0.785   2.896   1.506  1.8255 -0.1444 -2.3194
  505SOL    HW2 1515   0.642   2.789   1.509 -0.0573  3.1719  0.3999
  506SOL     OW 1516   0.196   0.209   0.230 -0.2661  0.6710 -0.5270
  506SOL    HW1 1517   0.162   0.259   0.149  3.1890  0.0813  0.1513
  506SOL    HW2 1518   0.182   0.269   0.313 -0.1741 -0.6260  1.2828
  507SOL     OW 1519   2.825   2.841   3.088  0.4209 -0.2987  0.4197
  507SOL    HW1 1520   2.899   2.769   3.096 -2.1131 -0.7608 -0.6068
  507SOL    HW2 1521   2.809   2.865   2.989  0.5142  3.4662  0.1325
  508SOL     OW 1522   1.081   0.376   1.853  0.0275 -0.2929 -0.2850
  508SOL    HW1 1523   1.077   0.276   1.836 -2.8985 -2.7685 -2.7740
  508SOL    HW2 1524   0.999   0.405   1.910 -0.4712 -1.1450 -2.8100
  509SOL     OW 1525   1.702   1.788   1.251 -0.4397 -0.1072 -0.3220
  509SOL    HW1 1526   1.619   1.839   1.285  2.4327  2.1923  0.8098
  509SOL    HW2 1527   1.681   1.699   1.213  1.8930  0.6736  0.3587
  510SOL     OW 1528   2.589   1.008   1.581 -0.3802 -0.2172  0.4029
  510SOL    HW1 1529   2.662   0.951   1.539  2.8809  1.8626 -0.7656
  510SOL    HW2 1530   2.510   1.005   1.520 -3.3518  0.4735 -1.4737
  511SOL     OW 1531   1.509   1.888   1.382  0.1840 -0.2047 -0.1891
  511SOL    HW1 1532   1.497   1.975   1.434  0.1135 -1.3620  1.1071
  511SOL    HW2 1533   1.496   1.811   1.449  0.4745 -0.1042 -0.5824
  512SOL     OW 1534   3.079   1.331   0.807 -0.0860  0.4069  0.1650
  512SOL    HW1 1535   3.050   1.416   0.760  0.3909  0.1509  1.7680
  512SOL    HW2 1536   3.021   1.318   0.890 -1.7500 -0.0700  1.9066
  513SOL     OW 1537   3.087   1.604   2.885 -0.7229  0.5546  0.0962
  513SOL    HW1 1538   0.008   1.518   2.834 -1.0918 -2.6906 -2.4356
  513SOL    HW2 1539   2.989   1.615   2.889  0.3314  1.2517  0.0731
  514SOL     OW 1540   2.575   2.115   2.218  0.4786  0.1746 -0.2846
  514SOL    HW1 1541   2.602   2.156   2.304 -1.2867 -1.2438 -2.6373
  514SOL    HW2 1542   2.571   2.015   2.228  2.1395  0.8389 -0.5699
  515SOL     OW 1543   2.257   1.122   0.648 -0.2020  0.1881  0.2165
  515SOL    HW1 1544   2.286   1.119   0.747 -0.0121 -0.5816  1.5457
  515SOL    HW2 1545   2.253   1.030   0.610 -1.5772 -0.2886  2.2524
  516SOL     OW 1546   2.544   2.907   0.056  0.2602  0.0752  0.1258
  516SOL    HW1 1547   2.640   2.882   0.034 -0.4749  0.5040  1.1734
  516SOL    HW2 1548   2.480   2.832   0.073  1.6969  2.9917 -2.0859
  517SOL     OW 1549   1.128   1.693   2.681 -0.3239 -0.1395  0.2075
  517SOL    HW1 1550   1.078   1.623   2.724  0.1299  2.9436 -1.7298
  517SOL    HW2 1551   1.069   1.740   2.608 -1.1049 -0.8219 -3.0279
  518SOL     OW 1552   0.186   0.169   2.256 -0.5579 -0.0841 -0.0682
  518SOL    HW1 1553   0.220   0.085   2.300 -1.2299  1.1184  0.2257
  518SOL    HW2 1554   0.088   0.174   2.281 -0.5747 -0.6035 -2.7212
  519SOL     OW 1555   0.728   1.514   2.957 -0.4808 -0.4119 -0.5412
  519SOL    HW1 1556   0.823   1.537   2.929  0.1695 -1.4531 -0.9272
  519SOL    HW2 1557   0.675   1.597   2.982 -1.8580  1.0611  0.6940
  520SOL     OW 1558   2.885   2.303   2.139 -0.0869  0.1731 -0.3764
  520SOL    HW1 1559   2.893   2.260   2.230  0.6280  1.0421  0.2338
  520SOL    HW2 1560   2.966   2.366   2.128  1.4147 -0.1424  2.5744
  521SOL     OW 1561   0.650   2.201   2.206 -0.8756  0.6124  0.6344
  521SOL    HW1 1562   0.646   2.100   2.213 -0.3556 -3.3052 -0.3719
  521SOL    HW2 1563   0.617   2.222   2.109 -2.0921  0.1253 -1.2859
  522SOL     OW 1564   1.956   2.822   1.684  0.0923 -0.4315  0.0700
  522SOL    HW1 1565   1.920   2.865   1.770  3.2342  0.4901  1.3666
  522SOL    HW2 1566   1.900   2.847   1.603  1.9740 -2.5289 -0.5477
  523SOL     OW 1567   2.015   1.986   1.860 -0.0521 -0.3112  0.8768
  523SOL    HW1 1568   2.080   2.002   1.938  0.5643 -0.6836 -1.1203
  523SOL    HW2 1569   1.958   1.905   1.882 -0.9641 -0.2465  1.8542
  524SOL     OW 1570   0.600   2.669   0.452  0.2388 -0.0483  0.1227
  524SOL    HW1 1571   0.673   2.642   0.384  1.2354 -0.6770  1.1800
  524SOL    HW2 1572   0.510   2.627   0.429 -1.1701 -0.2828  0.8448
  525SOL     OW 1573   0.159   0.593   0.379  0.3406  0.1737  0.4080
  525SOL    HW1 1574   0.092   0.559   0.308 -1.3983 -0.6729  1.5142
  525SOL    HW2 1575   0.242   0.531   0.382 -0.0451 -0.7289 -1.0766
  526SOL     OW 1576   0.869   3.067   0.648  0.5669  0.0013 -0.0943
  526SOL    HW1 1577   0.774   3.027   0.633 -2.2036  0.7317  0.1254
  526SOL    HW2 1578   0.880   3.078   0.750  2.1138 -2.8215 -0.5226
  527SOL     OW 1579   1.990   1.698   1.198 -0.2820 -0.0849  0.3926
  527SOL    HW1 1580   2.014   1.612   1.247 -1.4690 -1.1120  1.8175
  527SOL    HW2 1581   1.902   1.737   1.229 -1.6634  0.6242  0.0429
  528SOL     OW 1582   2.784   2.640   2.404 -0.4120  0.2589 -0.4323
  528SOL    HW1 1583   2.724   2.710   2.367 -1.2550 -0.9427 -0.9480
  528SOL    HW2 1584   2.886   2.660   2.386  0.0121  0.0931  2.5360
  529SOL     OW 1585   1.151   1.708   2.236  0.5311 -0.3235  0.2138
  529SOL    HW1 1586   1.170   1.763   2.154 -0.2476 -3.4139  0.7588
  529SOL    HW2 1587   1.091   1.758   2.300  1.4169  0.4137 -2.0843
  530SOL     OW 1588   1.292   1.280   0.076 -0.3810 -0.3582  0.3656
  530SOL    HW1 1589   1.364   1.353   0.072 -1.9941 -1.4835 -0.8383
  530SOL    HW2 1590   1.301   1.215   3.093  2.6403 -0.4732 -1.0794
  531SOL     OW 1591   0.431   1.123   0.063  0.3255  0.1521 -0.1251
  531SOL    HW1 1592   0.443   1.204   0.012  0.7245 -1.5669  1.9822
  531SOL    HW2 1593   0.430   1.039   0.004 -0.5819 -2.7116 -4.1522
  532SOL     OW 1594   1.704   1.367   0.801 -0.8552  0.6081  0.9768
  532SOL    HW1 1595   1.793   1.342   0.850 -0.1609  1.1842  3.7422
  532SOL    HW2 1596   1.681   1.462   0.826  0.6327  1.5708 -2.7287
  533SOL     OW 1597   0.710   0.132   2.472 -0.1416  0.3235  0.1365
  533SOL    HW1 1598   0.626   0.190   2.454 -0.2976  1.6673 -1.3663
  533SOL    HW2 1599   0.782   0.196   2.481 -3.7969 -1.5496 -1.6191
  534SOL     OW 1600   1.043   2.717   2.944  0.5896  0.5287  0.8451
  534SOL    HW1 1601   0.970   2.745   3.011  2.9355  1.1981  0.9405
  534SOL    HW2 1602   1.132   2.755   2.973 -1.5565 -1.4618 -0.3038
  535SOL     OW 1603   0.438   0.171   0.140 -0.1384  0.2638  0.2561
  535SOL    HW1 1604   0.349   0.191   0.191 -4.2421  0.9480  0.0408
  535SOL    HW2 1605   0.511   0.233   0.164 -3.8503 -3.2478 -1.9797
  536SOL     OW 1606   0.014   0.698   2.354 -0.1307  0.6520  0.1566
  536SOL    HW1 1607   0.026   0.793   2.329 -2.2221 -0.5224  2.2445
  536SOL    HW2 1608   0.095   0.636   2.321  2.3632 -0.8288  0.1838
  537SOL     OW 1609   1.134   0.177   1.352  0.1935 -0.1988  0.3725
  537SOL    HW1 1610   1.064   0.132   1.295  0.4574 -0.2558  0.2810
  537SOL    HW2 1611   1.133   0.279   1.333  1.1589 -0.7750  3.1032
  538SOL     OW 1612   0.656   1.911   0.313 -0.2359  0.4186  0.1232
  538SOL    HW1 1613   0.729   1.891   0.247 -4.7095 -0.8877 -1.8571
  538SOL    HW2 1614   0.603   1.826   0.320  1.1596 -0.9794  0.0168
  539SOL     OW 1615   2.499   1.184   2.079 -0.7185 -0.0514  0.4267
  539SOL    HW1 1616   2.495   1.115   2.003  0.1465  0.2085 -2.6720
  539SOL    HW2 1617   2.454   1.268   2.053 -1.5230 -2.9833  0.4757
  540SOL     OW 1618   2.102   1.502   2.071  0.4929  0.0141  0.1028
  540SOL    HW1 1619   2.012   1.462   2.046 -1.4969 -1.1164 -1.1914
  540SOL    HW2 1620   2.099   1.603   2.082  0.2581 -1.4274  0.8257
  541SOL     OW 1621   0.641   1.394   1.487 -0.3799  0.8463  0.1133
  541SOL    HW1 1622   0.682   1.302   1.508  0.9794 -1.1432  1.2132
  541SOL    HW2 1623   0.607   1.405   1.392 -0.2973  2.8816  0.2023
  542SOL     OW 1624   1.655   0.476   2.212 -0.0454 -0.3892  0.0258
  542SOL    HW1 1625   1.732   0.524   2.258  0.4130  0.2459  0.6666
  542SOL    HW2 1626   1.688   0.402   2.151 -0.2906 -1.1680 -0.6651
  543SOL     OW 1627   0.964   0.397   0.420 -0.0476 -0.2695  0.1173
  543SOL    HW1 1628   1.054   0.400   0.468 -0.0746 -2.1295  1.6584
  543SOL    HW2 1629   0.930   0.301   0.404 -0.2993 -0.3126  1.2809
  544SOL     OW 1630   2.660   1.867   2.222  0.1325 -0.3304 -0.8280
  544SOL    HW1 1631   2.645   1.844   2.121  0.5169  0.8224 -0.8771
  544SOL    HW2 1632   2.679   1.785   2.280  2.8199 -1.6821 -0.5282
  545SOL     OW 1633   1.695   2.112   1.851 -0.0913 -0.0684 -0.3112
  545SOL    HW1 1634   1.707   2.077   1.943  0.5605  0.2307 -1.9995
  545SOL    HW2 1635   1.745   2.201   1.849 -0.7718  1.5571 -2.2229
  546SOL     OW 1636   0.350   0.118   2.978 -0.0891 -0.5290 -0.0183
  546SOL    HW1 1637   0.262   0.065   2.997 -2.0046 -0.9538  0.9585
  546SOL    HW2 1638   0.383   0.153   3.071  1.5785  0.0153 -2.1888
  547SOL     OW 1639   2.118   0.989   0.389 -0.2947 -0.4120 -0.1618
  547SOL    HW1 1640   2.023   1.003   0.415 -0.7184 -2.7943  2.0621
  547SOL    HW2 1641   2.162   1.077   0.358 -0.0202  1.5020 -1.3019
  548SOL     OW 1642   2.132   1.817   2.667 -0.0828 -0.3890 -0.1052
  548SOL    HW1 1643   2.058   1.812   2.734  2.1826 -0.9570 -1.4329
  548SOL    HW2 1644   2.217   1.767   2.695 -0.7541 -0.0482  0.0468
  549SOL     OW 1645   1.904   0.350   0.543  0.2524 -0.3507 -0.0485
  549SOL    HW1 1646   1.919   0.292   0.460 -1.1896  0.6505 -1.6290
  549SOL    HW2 1647   1.869   0.443   0.522  0.2849  0.0191 -1.4133
  550SOL     OW 1648   2.623   2.227   0.675  0.3864  0.4609 -0.2412
  550SOL    HW1 1649   2.560   2.149   0.680 -0.5412 -0.5085  1.7035
  550SOL    HW2 1650   2.620   2.256   0.581 -0.1095 -0.7141  1.3977
  551SOL     OW 1651   0.832   0.270   1.481 -0.2418 -0.2770 -0.4458
  551SOL    HW1 1652   0.899   0.213   1.430 -0.2122  0.9052  1.2988
  551SOL    HW2 1653   0.760   0.303   1.419  0.9422  0.9876 -0.1499
  552SOL     OW 1654   0.158   2.605   2.601 -0.7196 -0.1255 -0.7480
  552SOL    HW1 1655   0.102   2.567   2.674  2.7478 -0.1216 -3.1341
  552SOL    HW2 1656   0.193   2.541   2.533 -2.4298  1.8917  3.1140
  553SOL     OW 1657   0.629   2.957   0.506  0.4935  0.5578 -0.0983
  553SOL    HW1 1658   0.563   2.992   0.438  3.8097  2.2777 -1.0832
  553SOL    HW2 1659   0.633   2.852   0.499  0.7881  0.8080 -0.1030
  554SOL     OW 1660   2.120   2.228   1.748 -0.1049 -0.3112 -0.0310
  554SOL    HW1 1661   2.071   2.145   1.777  0.9315  0.0694 -1.6057
  554SOL    HW2 1662   2.093   2.257   1.655 -2.1486 -0.7027  1.2508
  555SOL     OW 1663   1.370   2.175   1.764 -0.3608  0.1534 -0.2820
  555SOL    HW1 1664   1.349   2.126   1.678  0.4942  0.3401  1.0673
  555SOL    HW2 1665   1.391   2.111   1.840 -0.9149  0.1922  1.2375
  556SOL     OW 1666   1.397   1.446   1.240  0.6588  0.0522  0.0783
  556SOL    HW1 1667   1.325   1.514   1.207  0.2420 -1.0075  0.7391
  556SOL    HW2 1668   1.491   1.464   1.204 -0.9223 -1.4897 -1.8402
  557SOL     OW 1669   1.962   2.253   2.134 -0.1297  0.3662  0.2253
  557SOL    HW1 1670   2.010   2.318   2.068  1.9392  0.8428  0.0640
  557SOL    HW2 1671   2.023   2.200   2.185 -1.2003  4.5444 -1.9111
  558SOL     OW 1672   0.367   0.249   2.046 -0.3583  0.5279  0.0307
  558SOL    HW1 1673   0.293   0.217   2.109  1.4928  1.2336 -0.4013
  558SOL    HW2 1674   0.354   0.347   2.035 -1.8090 -2.4187  0.0062
  559SOL     OW 1675   2.353   2.956   1.191  0.6059 -0.2062  0.3145
  559SOL    HW1 1676   2.393   2.912   1.276  0.6440 -0.4862  4.5145
  559SOL    HW2 1677   2.309   3.052   1.201 -1.0050 -0.0886 -3.3236
  560SOL     OW 1678   0.850   2.432   0.479  0.0159  0.1107  0.3689
  560SOL    HW1 1679   0.848   2.504   0.409  1.5573 -1.3634  1.0669
  560SOL    HW2 1680   0.766   2.377   0.478  0.6469  1.6310 -1.7602
  561SOL     OW 1681   0.987   0.504   0.048 -0.3852 -0.6253  0.2151
  561SOL    HW1 1682   0.979   0.551   3.061  0.7830 -1.6322  1.6936
  561SOL    HW2 1683   1.054   0.539   0.114 -0.9646 -1.7296  1.1170
  562SOL     OW 1684   0.978   0.340   2.821  0.0263 -0.5724  0.5669
  562SOL    HW1 1685   0.956   0.284   2.903 -0.7700 -1.8056  0.0951
  562SOL    HW2 1686   1.048   0.291   2.762 -0.0345 -1.7620 -1.3195
  563SOL     OW 1687   1.543   1.963   2.723  0.2240 -0.4337 -0.4705
  563SOL    HW1 1688   1.621   2.025   2.708 -0.4660 -0.0352 -1.6633
  563SOL    HW2 1689   1.459   1.990   2.671  1.5135  4.0577  0.8106
  564SOL     OW 1690   2.759   0.991   0.644 -0.1299 -0.1197 -0.5600
  564SOL    HW1 1691   2.765   0.896   0.614 -3.2591  0.8839 -0.1295
  564SOL    HW2 1692   2.851   1.029   0.670  0.2204  0.7986  1.0209
  565SOL     OW 1693   1.361   0.314   2.791 -0.0355 -0.1569  0.2161
  565SOL    HW1 1694   1.343   0.294   2.888 -0.4912 -1.3249 -1.2766
  565SOL    HW2 1695   1.402   0.408   2.781  1.6769  1.5454 -1.3642
  566SOL     OW 1696   1.346   0.358   2.026 -0.3792 -0.3207  0.5799
  566SOL    HW1 1697   1.258   0.388   1.991  0.8770 -0.5098 -2.7260
  566SOL    HW2 1698   1.372   0.271   1.978  0.3855  0.1449  0.6165
  567SOL     OW 1699   2.645   1.345   0.681  0.0997  0.9357 -0.3188
  567SOL    HW1 1700   2.570   1.317   0.618  0.7676  1.1258 -0.3161
  567SOL    HW2 1701   2.732   1.335   0.630 -0.1597 -0.4280  0.5926
  568SOL     OW 1702   1.933   1.926   0.644 -0.0197  0.0731  0.3033
  568SOL    HW1 1703   1.910   1.904   0.545  0.4866  1.2924 -2.0181
  568SOL    HW2 1704   1.908   1.845   0.694  3.2499  2.1512 -3.2025
  569SOL     OW 1705   2.117   1.545   3.003  0.0140  0.0597  0.2422
  569SOL    HW1 1706   2.029   1.513   2.969 -1.6169 -0.9912  0.0056
  569SOL    HW2 1707   2.187   1.480   2.972 -0.0012 -1.5570 -2.7347
  570SOL     OW 1708   0.232   2.740   1.702 -0.2569 -0.0563  0.1345
  570SOL    HW1 1709   0.291   2.822   1.687  0.1719  1.6193  1.3412
  570SOL    HW2 1710   0.184   2.748   1.791  1.5699  2.4513 -3.7787
  571SOL     OW 1711   0.109   0.271   2.625 -0.4512 -0.1037  0.1271
  571SOL    HW1 1712   0.057   0.346   2.588  2.7624  2.8155  1.5214
  571SOL    HW2 1713   0.209   0.290   2.619  1.4292 -2.2617  0.4432
  572SOL     OW 1714   0.762   1.713   0.689 -0.1786  0.0889  0.0495
  572SOL    HW1 1715   0.716   1.796   0.677  0.7183 -3.4689  0.1524
  572SOL    HW2 1716   0.844   1.726   0.751 -1.4329  2.0424  1.5062
  573SOL     OW 1717   1.220   2.522   0.124 -0.1570 -0.0899 -0.3305
  573SOL    HW1 1718   1.288   2.592   0.088  1.3389 -0.2554  0.3852
  573SOL    HW2 1719   1.209   2.530   0.223  0.7364 -1.1410  0.9224
  574SOL     OW 1720   0.974   0.091   0.899 -0.5967 -0.6186 -0.0382
  574SOL    HW1 1721   0.967   0.164   0.967  0.6831  0.6182  1.3326
  574SOL    HW2 1722   1.015   0.006   0.934 -1.9779 -1.3045 -0.2164
  575SOL     OW 1723   3.099   0.846   1.507  0.2797  0.2107  0.0272
  575SOL    HW1 1724   3.000   0.847   1.481  1.1182  1.1318  0.2054
  575SOL    HW2 1725   0.013   0.892   1.596  0.2844  0.1150  1.2643
  576SOL     OW 1726   1.782   0.054   1.611  0.1618  0.2173 -0.3030
  576SOL    HW1 1727   1.818   0.149   1.589 -0.0658 -0.0020  0.6110
  576SOL    HW2 1728   1.799   3.094   1.532  1.3822  1.7067 -1.2147
  577SOL     OW 1729   3.087   1.094   1.985  0.1152 -0.1620 -0.0726
  577SOL    HW1 1730   0.025   1.013   2.028 -2.4826  2.7713 -2.1625
  577SOL    HW2 1731   0.052   1.172   2.015  2.1800 -1.2143 -0.4370
  578SOL     OW 1732   1.766   0.264   2.441  0.4878 -0.1394 -0.3465
  578SOL    HW1 1733   1.687   0.326   2.459  0.2142 -2.0942 -0.2309
  578SOL    HW2 1734   1.741   0.185   2.379  2.8147 -0.4662  1.1550
  579SOL     OW 1735   2.167   2.036   2.090  0.1175 -0.2712  0.3412
  579SOL    HW1 1736   2.234   2.096   2.041 -0.0480  0.8689  0.3028
  579SOL    HW2 1737   2.167   2.053   2.189  0.4878 -2.2184 -0.2342
  580SOL     OW 1738   1.894   1.470   2.895 -0.7152  0.3231  0.3956
  580SOL    HW1 1739   1.846   1.558   2.869  1.8499  1.4917 -0.0692
  580SOL    HW2 1740   1.871   1.391   2.838  2.5265  0.6842  2.5093
  581SOL     OW 1741   1.317   1.105   2.983 -0.1239  0.5722 -0.3918
  581SOL    HW1 1742   1.396   1.043   2.956 -0.0398 -0.8193 -1.3532
  581SOL    HW2 1743   1.224   1.058   2.984 -0.9087 -1.2401 -2.1901
  582SOL     OW 1744   0.888   2.095   1.425 -0.0967  0.2303  0.3464
  582SOL    HW1 1745   0.818   2.121   1.355 -0.3749 -0.1612 -0.1409
  582SOL    HW2 1746   0.858   2.017   1.482  0.4667  0.6552  0.1263
  583SOL     OW 1747   1.183   1.019   1.295 -0.7495 -0.0628  0.2654
  583SOL    HW1 1748   1.137   0.949   1.238 -1.2126 -0.3737  0.5221
  583SOL    HW2 1749   1.242   1.080   1.238 -0.5616 -0.1107 -1.7885
  584SOL     OW 1750   1.616   2.407   0.577  0.6077 -0.0947 -0.0475
  584SOL    HW1 1751   1.674   2.330   0.547  0.6461 -0.1853 -2.0552
  584SOL    HW2 1752   1.648   2.438   0.667 -2.7281 -0.4259 -1.9913
  585SOL     OW 1753   2.312   2.766   0.016 -0.1084 -0.4416 -0.3527
  585SOL    HW1 1754   2.361   2.734   3.029 -0.6090  0.5374 -1.1725
  585SOL    HW2 1755   2.212   2.759   0.009  2.4631 -0.7094  3.0540
  586SOL     OW 1756   2.798   2.106   0.861 -0.7183  0.4024  0.0585
  586SOL    HW1 1757   2.754   2.156   0.786  1.7359  1.5888  1.3280
  586SOL    HW2 1758   2.825   2.176   0.933  0.3110 -1.0888 -0.6738
  587SOL     OW 1759   0.985   1.753   3.069  0.5638 -0.2530  0.5410
  587SOL    HW1 1760   1.006   1.793   2.980  2.4009 -2.5901  1.1109
  587SOL    HW2 1761   1.029   1.661   3.077  1.8777  0.7452  0.1056
  588SOL     OW 1762   0.392   0.164   1.252  0.6353 -0.5222 -0.0083
  588SOL    HW1 1763   0.388   0.123   1.344  0.7266 -0.7928 -1.1983
  588SOL    HW2 1764   0.306   0.211   1.224  0.3082 -0.9894 -0.1593
  589SOL     OW 1765   1.183   0.579   0.659  0.0717 -0.0474 -0.3064
  589SOL    HW1 1766   1.121   0.564   0.744 -1.4563  3.8292  1.6195
  589SOL    HW2 1767   1.203   0.491   0.607  0.3162 -0.2024 -1.5155
  590SOL     OW 1768   2.151   2.379   0.170  0.1698  0.2378 -0.2396
  590SOL    HW1 1769   2.099   2.346   0.250  0.0339  1.2434 -4.7466
  590SOL    HW2 1770   2.129   2.476   0.160  1.4563  0.5994  2.4045
  591SOL     OW 1771   0.417   2.755   2.253  0.0139 -0.2921 -0.7622
  591SOL    HW1 1772   0.388   2.816   2.174 -0.1105  3.1328 -0.7351
  591SOL    HW2 1773   0.515   2.732   2.238 -0.1507  3.6828 -1.2563
  592SOL     OW 1774   2.952   1.334   2.240  0.8197 -0.5324  0.5025
  592SOL    HW1 1775   3.018   1.272   2.288  2.6907  1.5454 -0.5234
  592SOL    HW2 1776   2.859   1.293   2.248  3.7821 -1.5297  0.6857
  593SOL     OW 1777   1.824   1.346   1.243  0.0517  0.0685  0.2911
  593SOL    HW1 1778   1.919   1.372   1.275 -0.6079  0.1935  1.2349
  593SOL    HW2 1779   1.789   1.276   1.305  1.2692 -0.3017 -1.4396
  594SOL     OW 1780   2.742   1.341   2.887  0.1527 -0.4204  0.2567
  594SOL    HW1 1781   2.724   1.394   2.971  2.1850 -1.6300 -1.2948
  594SOL    HW2 1782   2.796   1.256   2.907  0.0666  0.2692  1.6768
  595SOL     OW 1783   0.808   0.793   0.535 -0.0855  0.0239  0.3880
  595SOL    HW1 1784   0.720   0.844   0.539  1.0059 -0.0916 -0.0910
  595SOL    HW2 1785   0.832   0.777   0.439  2.0488  1.5308 -1.5480
  596SOL     OW 1786   0.005   1.185   1.175  0.1945  0.3470  0.5056
  596SOL    HW1 1787   3.030   1.167   1.107 -0.9652  0.2060  1.1229
  596SOL    HW2 1788   0.025   1.284   1.179  0.7525 -2.1454 -0.9896
  597SOL     OW 1789   1.052   2.257   1.556 -0.0695 -0.3673  0.3371
  597SOL    HW1 1790   1.000   2.187   1.500 -2.1076  1.0225  0.4283
  597SOL    HW2 1791   1.097   2.221   1.639 -2.1357 -0.7354 -2.3198
  598SOL     OW 1792   2.375   2.335   1.744 -0.0579 -0.1242  0.2690
  598SOL    HW1 1793   2.280   2.292   1.732  0.3081  2.2086 -0.2219
  598SOL    HW2 1794   2.441   2.298   1.672  3.0934 -0.3756  0.6126
  599SOL     OW 1795   0.539   1.379   3.070  0.7506 -0.0248 -0.3349
  599SOL    HW1 1796   0.616   1.424   3.018 -0.6278  1.9676 -0.1341
  599SOL    HW2 1797   0.567   1.334   0.059  2.2154  1.6371  1.0935
  600SOL     OW 1798   0.746   0.709   2.971 -0.1805  0.2814  0.0423
  600SOL    HW1 1799   0.841   0.679   2.951  0.3468  0.8015  1.7261
  600SOL    HW2 1800   0.725   0.712   3.072 -0.8108 -0.9781 -2.3948
  601SOL     OW 1801   0.463   0.668   1.856  0.4116  0.0250 -0.5630
  601SOL    HW1 1802   0.386   0.731   1.827 -1.9747 -1.7302  0.8295
  601SOL    HW2 1803   0.526   0.718   1.918 -0.8421 -2.7500 -1.7246
  602SOL     OW 1804   0.388   2.518   0.386 -0.0775 -0.3929  0.1137
  602SOL    HW1 1805   0.325   2.490   0.463 -0.2868 -0.2723  0.5467
  602SOL    HW2 1806   0.333   2.545   0.302 -0.8454 -0.5748  0.3297
  603SOL     OW 1807   1.245   2.802   1.931 -0.1425 -0.2041  0.2365
  603SOL    HW1 1808   1.195   2.813   1.841 -2.9841  2.0085  1.3499
  603SOL    HW2 1809   1.181   2.763   1.999 -0.0116  0.8729  1.4838
  604SOL     OW 1810   0.327   2.346   2.894 -0.5107  0.5326  0.3645
  604SOL    HW1 1811   0.319   2.289   2.809  0.5447  1.5206 -1.2641
  604SOL    HW2 1812   0.248   2.337   2.955 -0.0139  0.4642 -3.5430
  605SOL     OW 1813   2.116   1.047   1.750  0.1074  0.2887 -0.0455
  605SOL    HW1 1814   2.045   1.055   1.676 -1.0627 -0.7111 -0.4037
  605SOL    HW2 1815   2.176   1.130   1.756 -0.1083  0.6664  0.6424
  606SOL     OW 1816   0.739   0.907   2.766  0.2200 -0.0645 -0.3038
  606SOL    HW1 1817   0.755   0.832   2.831 -1.0748  0.6697  1.6392
  606SOL    HW2 1818   0.817   0.971   2.768  2.8561  0.1287 -3.1871
  607SOL     OW 1819   0.855   0.829   1.272  0.5314  0.5376  0.4859
  607SOL    HW1 1820   0.898   0.788   1.352  2.2317  1.3568 -1.9756
  607SOL    HW2 1821   0.786   0.899   1.304  2.2074  2.2113 -2.0293
  608SOL     OW 1822   2.900   2.020   1.839  0.0050  0.1632 -0.0199
  608SOL    HW1 1823   2.825   2.075   1.882  1.6641 -0.8743  1.8536
  608SOL    HW2 1824   2.857   1.981   1.755 -1.9270 -0.8117 -0.8048
  609SOL     OW 1825   2.358   0.160   0.232 -0.8098 -0.1062 -0.2645
  609SOL    HW1 1826   2.433   0.211   0.184  2.6755  0.3418  0.3078
  609SOL    HW2 1827   2.346   0.070   0.190  2.1048 -1.3085 -0.5594
  610SOL     OW 1828   2.874   2.668   1.534 -0.3993 -0.1898  0.0368
  610SOL    HW1 1829   2.806   2.694   1.460 -1.3372 -2.4665  1.2550
  610SOL    HW2 1830   2.900   2.570   1.533 -0.0081 -3.4747  4.1674
  611SOL     OW 1831   1.706   2.200   0.292 -0.3666  0.6715  0.3874
  611SOL    HW1 1832   1.729   2.127   0.224 -0.2952  1.6097  2.5379
  611SOL    HW2 1833   1.719   2.167   0.391  0.3121 -2.9602  1.5936
  612SOL     OW 1834   0.638   3.055   1.708 -0.1957 -0.4322  0.0423
  612SOL    HW1 1835   0.656   2.969   1.657 -2.1935  0.2873  0.6537
  612SOL    HW2 1836   0.720   3.096   1.749 -1.0531 -1.0819 -0.0207
  613SOL     OW 1837   0.043   1.989   0.810  0.1389  0.1763  0.5509
  613SOL    HW1 1838   0.037   2.063   0.737 -0.9401  0.5213  0.3026
  613SOL    HW2 1839   3.062   1.926   0.803  3.3805  0.3641  0.9715
  614SOL     OW 1840   1.662   0.396   1.813  0.3455  0.2528  0.3074
  614SOL    HW1 1841   1.751   0.429   1.780  0.5089 -0.8767  0.5450
  614SOL    HW2 1842   1.680   0.335   1.892  1.4323 -0.0585 -2.4116
  615SOL     OW 1843   1.187   1.438   0.930 -0.2294 -0.5520 -0.1664
  615SOL    HW1 1844   1.248   1.496   0.986  0.9818  2.5888  3.0780
  615SOL    HW2 1845   1.147   1.482   0.848 -1.5981 -2.8521  0.3751
  616SOL     OW 1846   1.834   1.561   0.507  0.4469  0.1117  0.0547
  616SOL    HW1 1847   1.737   1.589   0.520 -0.3621 -2.0587 -0.2580
  616SOL    HW2 1848   1.833   1.469   0.471  0.1742  1.3879  2.6141
  617SOL     OW 1849   1.617   0.845   0.005 -0.3089  0.4178  0.2746
  617SOL    HW1 1850   1.553   0.839   0.087  0.4854 -0.8484 -2.1188
  617SOL    HW2 1851   1.675   0.930   0.012  2.9198  2.5675  1.6968
  618SOL     OW 1852   0.387   0.767   2.273 -0.1891  0.1876 -0.0147
  618SOL    HW1 1853   0.448   0.735   2.198  3.2762 -0.2582 -0.4057
  618SOL    HW2 1854   0.436   0.812   2.355 -2.5261  3.9257  1.6722
  619SOL     OW 1855   0.012   1.460   1.224 -0.8468  0.1060 -0.1839
  619SOL    HW1 1856   0.097   1.494   1.274 -1.2435  0.2663  1.0402
  619SOL    HW2 1857   0.009   1.499   1.130 -0.2600 -0.4812 -2.0229
  620SOL     OW 1858   2.129   2.634   2.757 -0.2068  0.3872 -0.3094
  620SOL    HW1 1859   2.228   2.616   2.767  1.5688  0.2800 -0.2586
  620SOL    HW2 1860   2.111   2.729   2.784  1.7257 -1.3642 -2.6877
  621SOL     OW 1861   2.939   1.852   3.083 -0.2234 -0.2650  0.4858
  621SOL    HW1 1862   2.924   1.785   3.009  1.3219 -0.7474 -2.1044
  621SOL    HW2 1863   2.856   1.888   0.029  1.5575 -0.3727  0.4378
  622SOL     OW 1864   1.403   0.124   2.405  0.3512  0.0640 -0.4355
  622SOL    HW1 1865   1.327   0.065   2.389 -1.0711  1.9661 -1.1657
  622SOL    HW2 1866   1.393   0.219   2.375 -0.5346  0.7023 -2.3441
  623SOL     OW 1867   0.839   2.294   1.172 -0.6883  0.3872 -0.0602
  623SOL    HW1 1868   0.767   2.343   1.223 -1.3693 -0.1152 -2.2440
  623SOL    HW2 1869   0.924   2.351   1.167 -1.5083  0.7179 -1.3563
  624SOL     OW 1870   0.191   2.853   2.770 -0.2803 -0.1191  0.2193
  624SOL    HW1 1871   0.220   2.770   2.719 -0.0441  2.8800  0.3572
  624SOL    HW2 1872   0.256   2.929   2.755 -0.2878 -1.7643 -0.9210
  625SOL     OW 1873   0.717   2.021   0.551  0.0834  0.3802  0.6080
  625SOL    HW1 1874   0.810   2.056   0.564  1.9819  1.7400  1.5789
  625SOL    HW2 1875   0.716   1.985   0.455  1.6021  1.5252 -1.2363
  626SOL     OW 1876   2.856   0.500   2.943  0.2787 -0.1559 -0.6134
  626SOL    HW1 1877   2.839   0.412   2.989 -0.2364  3.3040 -1.3860
  626SOL    HW2 1878   2.861   0.495   2.839 -0.7420  0.5187  1.3255
  627SOL     OW 1879   1.411   1.930   2.993 -0.0953 -0.5111  0.1976
  627SOL    HW1 1880   1.477   1.959   2.923 -2.0359 -0.4920  0.6019
  627SOL    HW2 1881   1.322   1.922   2.947 -0.8973 -2.4910 -0.1336
  628SOL     OW 1882   0.036   2.491   2.823 -0.2945 -0.0575 -0.1433
  628SOL    HW1 1883   0.089   2.487   2.909  2.2360 -0.0878  4.5727
  628SOL    HW2 1884   3.047   2.534   2.837  2.7017 -1.4908 -2.1880
  629SOL     OW 1885   0.818   2.931   2.658 -0.1627 -0.0921 -0.3341
  629SOL    HW1 1886   0.869   2.840   2.672  2.1654  0.9153 -1.0782
  629SOL    HW2 1887   0.832   2.972   2.565 -0.6367 -1.8915  0.2656
  630SOL     OW 1888   1.358   0.834   1.936  0.7078  0.0291  0.0206
  630SOL    HW1 1889   1.288   0.762   1.911 -0.3393 -2.7320 -0.6108
  630SOL    HW2 1890   1.314   0.930   1.947 -3.5886  1.5120  0.9171
  631SOL     OW 1891   1.712   0.956   0.318  0.4157 -0.4291 -0.2799
  631SOL    HW1 1892   1.749   0.972   0.411  2.5103 -0.3714 -1.2924
  631SOL    HW2 1893   1.633   0.891   0.308  1.1118  0.0198  2.2032
  632SOL     OW 1894   2.544   0.331   1.841  0.3274 -0.1018 -0.4652
  632SOL    HW1 1895   2.631   0.378   1.823 -0.7773 -1.4354 -1.4989
  632SOL    HW2 1896   2.559   0.234   1.813 -0.3044 -0.4685  0.5768
  633SOL     OW 1897   0.807   1.541   0.187 -0.3123  0.1062  0.2435
  633SOL    HW1 1898   0.909   1.551   0.166  1.2131  2.9036 -0.1991
  633SOL    HW2 1899   0.785   1.563   0.286  0.7615 -1.2174  3.4729
  634SOL     OW 1900   2.314   2.689   2.369 -0.9451 -0.4152 -0.4171
  634SOL    HW1 1901   2.306   2.591   2.345 -3.2104  3.0881 -0.6779
  634SOL    HW2 1902   2.225   2.740   2.361  2.3722 -0.2842 -0.7940
  635SOL     OW 1903   1.854   0.706   0.331  0.2140  0.8675  0.1194
  635SOL    HW1 1904   1.823   0.664   0.420  0.5718 -0.7079 -0.5917
  635SOL    HW2 1905   1.842   0.806   0.322  0.1644 -0.1804  1.7496
  636SOL     OW 1906   0.664   1.480   0.810 -0.0943  0.5606  0.3513
  636SOL    HW1 1907   0.690   1.407   0.740 -0.2930 -0.3345  0.0206
  636SOL    HW2 1908   0.669   1.566   0.758  0.7603  0.4252  1.7434
  637SOL     OW 1909   2.892   2.164   0.284  0.4536 -0.3476  0.1362
  637SOL    HW1 1910   2.902   2.085   0.343 -0.5101  1.2190 -1.6951
  637SOL    HW2 1911   2.812   2.221   0.304 -1.0216 -1.4412 -0.7559
  638SOL     OW 1912   1.446   2.630   2.420  0.3603 -0.0688  0.3199
  638SOL    HW1 1913   1.470   2.616   2.324 -0.6939  0.2769  2.1668
  638SOL    HW2 1914   1.472   2.548   2.477 -1.3853 -0.2975  0.8091
  639SOL     OW 1915   1.506   2.004   0.539  0.0922  0.9547  0.1633
  639SOL    HW1 1916   1.447   2.053   0.472 -0.7758 -0.7096 -0.5435
  639SOL    HW2 1917   1.453   1.940   0.604 -4.5485  0.4220  1.9016
  640SOL     OW 1918   1.939   0.182   0.307 -0.0024 -0.3435  0.4173
  640SOL    HW1 1919   2.006   0.110   0.336 -0.9836 -0.2022  0.8496
  640SOL    HW2 1920   1.977   0.246   0.237 -0.6550  3.9760 -1.4936
  641SOL     OW 1921   2.948   3.081   0.512 -0.0069 -0.0412  0.3773
  641SOL    HW1 1922   2.934   0.039   0.595  1.9158 -0.5743  1.5043
  641SOL    HW2 1923   2.962   0.042   0.433 -1.6558  2.0274  1.6535
  642SOL     OW 1924   0.477   0.330   1.551  0.2900  0.1513 -0.3783
  642SOL    HW1 1925   0.556   0.345   1.613 -1.4789  1.7548  2.1078
  642SOL    HW2 1926   0.505   0.328   1.455  0.2310 -0.7408 -0.2541
  643SOL     OW 1927   0.491   1.295   2.397  1.1088 -0.1039  0.3956
  643SOL    HW1 1928   0.573   1.310   2.447 -0.1999 -2.3351 -0.5427
  643SOL    HW2 1929   0.471   1.382   2.344  0.1367  0.3198 -1.0788
  644SOL     OW 1930   1.476   2.593   0.413  0.7591 -0.5261 -0.0396
  644SOL    HW1 1931   1.479   2.676   0.475  1.9803  0.8259  0.7336
  644SOL    HW2 1932   1.540   2.520   0.450 -0.1508 -1.5126  0.4646
  645SOL     OW 1933   1.764   1.993   0.141 -0.0723  0.1407  0.6200
  645SOL    HW1 1934   1.800   2.038   0.056  0.1392  1.1377 -3.5094
  645SOL    HW2 1935   1.688   1.926   0.114 -0.4929  1.4784  0.6784
  646SOL     OW 1936   3.096   1.353   2.768  0.2026 -0.3716 -0.5770
  646SOL    HW1 1937   0.062   1.285   2.742 -2.7641  0.8839  0.3161
  646SOL    HW2 1938   3.043   1.390   2.689 -0.0052 -1.9013  0.6798
  647SOL     OW 1939   0.855   0.276   1.054  0.1055  0.0057 -0.0826
  647SOL    HW1 1940   0.880   0.239   1.148  0.2769  0.5725 -1.0976
  647SOL    HW2 1941   0.827   0.371   1.067 -0.1187 -1.4499 -1.7314
  648SOL     OW 1942   1.531   0.598   1.307  0.3540 -0.0609  0.2262
  648SOL    HW1 1943   1.485   0.622   1.223  0.4195 -0.3919  3.7361
  648SOL    HW2 1944   1.603   0.663   1.318  1.5218 -0.7381 -2.4993
  649SOL     OW 1945   0.870   1.874   0.187  0.2555  0.2855  0.2443
  649SOL    HW1 1946   0.938   1.952   0.190  0.3881 -1.5376  0.8269
  649SOL    HW2 1947   0.889   1.823   0.102 -1.7065 -2.8417  1.1266
  650SOL     OW 1948   2.522   1.503   2.244  0.1769  0.4250  0.1566
  650SOL    HW1 1949   2.563   1.585   2.287  1.9339 -2.5600 -1.7716
  650SOL    HW2 1950   2.573   1.489   2.156  0.9724  1.7301  0.5106
  651SOL     OW 1951   1.353   2.244   2.606 -0.2238 -0.1901  0.1075
  651SOL    HW1 1952   1.343   2.232   2.710  1.7377 -1.9557  1.3831
  651SOL    HW2 1953   1.271   2.288   2.559  0.7996  2.0728 -0.7615
  652SOL     OW 1954   2.666   1.891   0.138  0.0701  0.2612  0.0361
  652SOL    HW1 1955   2.595   1.829   0.092 -2.5862 -0.5682 -2.5484
  652SOL    HW2 1956   2.635   1.989   0.129  1.4854  0.3340 -2.7974
  653SOL     OW 1957   0.268   0.004   1.023 -0.1087 -0.2896  0.3190
  653SOL    HW1 1958   0.331   0.013   0.944 -0.8528  0.9554  0.0677
  653SOL    HW2 1959   0.314   0.005   1.113  1.7152  0.2504  0.0528
  654SOL     OW 1960   2.572   0.076   2.204  0.5452 -0.6034 -0.1613
  654SOL    HW1 1961   2.568   0.038   2.299 -0.0977 -1.1343 -0.7510
  654SOL    HW2 1962   2.530   0.019   2.133  2.3988  1.3349  1.3297
  655SOL     OW 1963   0.578   2.855   0.989 -0.4030 -0.5517 -0.5770
  655SOL    HW1 1964   0.573   2.770   0.934  0.1377 -0.3773 -0.6004
  655SOL    HW2 1965   0.527   2.928   0.937  0.8745  1.4255 -0.1817
  656SOL     OW 1966   0.037   2.975   2.312  0.1939 -0.9005 -0.1289
  656SOL    HW1 1967   3.037   2.995   2.304 -0.4736  0.3574  0.4156
  656SOL    HW2 1968   0.078   3.021   2.393 -4.3296  0.8145 -0.6742
  657SOL     OW 1969   2.515   0.841   2.898  0.6753 -0.1235  0.2887
  657SOL    HW1 1970   2.520   0.930   2.851 -1.0300  2.7668  0.4809
  657SOL    HW2 1971   2.603   0.822   2.942 -1.5443  0.0086  1.3845
  658SOL     OW 1972   2.366   1.892   1.085  0.5566 -0.3222  0.4058
  658SOL    HW1 1973   2.391   1.811   1.140  2.5766  0.8450 -0.4186
  658SOL    HW2 1974   2.448   1.926   1.043 -1.4953 -0.4198  2.3199
  659SOL     OW 1975   2.218   2.919   0.418  0.5120 -0.7018  0.0701
  659SOL    HW1 1976   2.162   2.830   0.431  0.7946 -2.5868 -2.5927
  659SOL    HW2 1977   2.313   2.912   0.449  1.1449 -0.8890 -2.9293
  660SOL     OW 1978   1.591   1.275   2.486 -0.1458 -0.1625 -0.9050
  660SOL    HW1 1979   1.632   1.337   2.418  0.4340  0.7357  0.7037
  660SOL    HW2 1980   1.492   1.283   2.476  1.2121  1.8473 -1.8965
  661SOL     OW 1981   2.595   2.338   1.570 -0.0942 -0.1224 -0.2502
  661SOL    HW1 1982   2.634   2.255   1.522 -0.2162  1.0457  2.3624
  661SOL    HW2 1983   2.649   2.361   1.656  0.5474 -1.9794 -0.7932
  662SOL     OW 1984   0.674   0.732   0.142  0.0871  0.3408  0.1426
  662SOL    HW1 1985   0.571   0.722   0.118 -0.6897 -1.4138 -0.3829
  662SOL    HW2 1986   0.700   0.658   0.210  3.0309 -3.6345 -1.2665
  663SOL     OW 1987   2.150   2.180   0.809 -0.1309 -0.5311 -0.5335
  663SOL    HW1 1988   2.131   2.191   0.912  0.3188 -0.8252  3.4278
  663SOL    HW2 1989   2.184   2.090   0.787 -1.3596  1.6346  1.1385
  664SOL     OW 1990   0.745   1.725   1.272  0.4530 -1.4159  0.1608
  664SOL    HW1 1991   0.683   1.798   1.239  0.2850 -1.9796 -0.5001
  664SOL    HW2 1992   0.839   1.763   1.288  0.7310  1.3626  0.8198
  665SOL     OW 1993   1.694   2.360   2.120  0.1272 -0.2925  0.2449
  665SOL    HW1 1994   1.715   2.356   2.020  0.9589  1.3366  4.2841
  665SOL    HW2 1995   1.766   2.306   2.169  1.6030 -1.6059  0.0204
  666SOL     OW 1996   3.077   2.719   0.030 -0.3299  0.3962 -0.4001
  666SOL    HW1 1997   0.070   2.710   3.093 -0.5852 -0.8002 -0.2697
  666SOL    HW2 1998   3.078   2.802   0.090 -1.3954 -1.6803  1.2126
  667SOL     OW 1999   2.664   1.443   2.020 -0.5013 -0.0601  0.2332
  667SOL    HW1 2000   2.713   1.354   2.002 -0.1034 -1.1684 -1.0458
  667SOL    HW2 2001   2.735   1.516   1.998 -0.8505 -0.3970  1.0223
  668SOL     OW 2002   0.374   0.652   2.601  0.1074 -0.0369  0.0929
  668SOL    HW1 2003   0.420   0.738   2.566  1.0937  2.8220 -0.5979
  668SOL    HW2 2004   0.433   0.601   2.667 -1.1041  1.1405 -0.4337
  669SOL     OW 2005   1.996   2.279   3.058  0.4686 -0.1613  0.0249
  669SOL    HW1 2006   2.039   2.280   2.966  0.4447 -0.9788  0.1997
  669SOL    HW2 2007   2.055   2.316   0.028  0.4928  2.1304  2.2558
  670SOL     OW 2008   2.362   1.666   2.689  0.2975  0.2125 -0.6805
  670SOL    HW1 2009   2.447   1.659   2.749 -0.9160  0.4383 -0.8631
  670SOL    HW2 2010   2.347   1.586   2.629 -2.0607  0.8709  1.3729
  671SOL     OW 2011   0.357   1.712   0.857 -0.7260  0.0160 -0.1852
  671SOL    HW1 2012   0.351   1.697   0.758 -0.6580  1.3604 -0.9578
  671SOL    HW2 2013   0.267   1.708   0.903  0.1727  0.6276  3.3476
  672SOL     OW 2014   2.512   0.737   1.945 -0.3569 -0.1561 -0.3891
  672SOL    HW1 2015   2.477   0.696   2.036 -0.4810 -2.5111  0.5185
  672SOL    HW2 2016   2.612   0.758   1.955  0.6095  0.0904  0.0880
  673SOL     OW 2017   2.384   2.417   2.145 -0.1726 -0.1789 -0.1881
  673SOL    HW1 2018   2.479   2.443   2.117  0.3532  0.6124  1.1975
  673SOL    HW2 2019   2.314   2.471   2.096 -2.6049  1.3402 -0.0429
  674SOL     OW 2020   1.503   2.654   1.889  0.4935 -0.1773 -0.2280
  674SOL    HW1 2021   1.512   2.573   1.828  0.7078 -2.3525  0.6242
  674SOL    HW2 2022   1.412   2.694   1.896  2.0490 -1.3648 -0.8506
  675SOL     OW 2023   0.508   0.813   0.739  0.0192  0.4422 -0.4097
  675SOL    HW1 2024   0.528   0.881   0.664  0.4895  0.0907  0.5992
  675SOL    HW2 2025   0.408   0.797   0.752 -1.2740  2.8746 -2.7308
  676SOL     OW 2026   1.867   1.017   0.561  0.0840 -0.0758  0.0175
  676SOL    HW1 2027   1.822   0.971   0.643 -2.2985 -0.6592  0.6008
  676SOL    HW2 2028   1.959   1.052   0.599  2.5678 -0.2822  1.5779
  677SOL     OW 2029   2.922   1.416   2.543  0.3901 -0.2769  0.3738
  677SOL    HW1 2030   2.843   1.459   2.592  0.0394 -2.4107 -0.5053
  677SOL    HW2 2031   2.893   1.327   2.506 -0.3809  1.4167  0.6195
  678SOL     OW 2032   2.680   1.864   1.264 -0.8819  0.1889  0.5204
  678SOL    HW1 2033   2.769   1.872   1.325  2.0213  0.2881  0.7269
  678SOL    HW2 2034   2.615   1.794   1.309  0.9795 -1.9162  1.7900
  679SOL     OW 2035   2.070   2.698   0.468  0.3081  0.5666  0.5750
  679SOL    HW1 2036   2.108   2.651   0.550 -0.4392  1.1462  0.3987
  679SOL    HW2 2037   1.969   2.663   0.462 -3.9559 -3.0674 -0.3288
  680SOL     OW 2038   0.150   2.180   2.204 -0.1709  0.4067 -0.1951
  680SOL    HW1 2039   0.090   2.136   2.131 -0.3280  2.4997 -2.0334
  680SOL    HW2 2040   0.217   2.113   2.234 -1.5539 -0.1349 -0.3104
  681SOL     OW 2041   2.922   1.329   1.585  0.0714 -0.5623 -0.1570
  681SOL    HW1 2042   3.001   1.325   1.653 -0.0601  0.5544  1.0302
  681SOL    HW2 2043   2.838   1.299   1.636 -1.0125  0.4255  0.9335
  682SOL     OW 2044   1.172   2.234   0.864 -0.6932 -0.0255  0.6027
  682SOL    HW1 2045   1.094   2.295   0.839 -0.3015 -1.4593 -2.0860
  682SOL    HW2 2046   1.254   2.241   0.799  1.9774 -1.6398 -1.1416
  683SOL     OW 2047   2.193   1.124   1.144  0.4332 -0.2057  0.4284
  683SOL    HW1 2048   2.182   1.222   1.167 -0.4526 -1.1910  1.1926
  683SOL    HW2 2049   2.265   1.080   1.195 -3.4253  4.0256 -1.0167
  684SOL     OW 2050   0.216   1.721   2.778 -0.1634  0.2266 -0.5586
  684SOL    HW1 2051   0.127   1.683   2.799  1.1231  1.7004 -1.2855
  684SOL    HW2 2052   0.271   1.740   2.865  0.0738  0.0640 -1.4133
  685SOL     OW 2053   1.583   1.532   0.112 -0.4762  0.3392  0.5070
  685SOL    HW1 2054   1.668   1.494   0.073 -0.5095  0.3926 -0.8023
  685SOL    HW2 2055   1.582   1.503   0.212  0.2599 -3.3550  3.8677
  686SOL     OW 2056   3.006   0.606   1.098  0.8489  0.4334  0.0931
  686SOL    HW1 2057   3.018   0.561   1.189  3.2724 -0.2489  3.0641
  686SOL    HW2 2058   3.092   0.620   1.054 -0.9954  0.0137 -2.9347
  687SOL     OW 2059   0.908   2.213   2.445  0.1298  0.1057 -0.4011
  687SOL    HW1 2060   0.882   2.240   2.542  1.6626  1.6316  3.3968
  687SOL    HW2 2061   0.886   2.283   2.378  1.1191  0.7304  1.4636
  688SOL     OW 2062   0.216   1.778   1.659  0.3891 -0.4382 -0.1398
  688SOL    HW1 2063   0.282   1.757   1.584 -1.2512 -0.0595 -1.4640
  688SOL    HW2 2064   0.239   1.869   1.699 -2.2955  2.1482 -0.7144
  689SOL     OW 2065   1.797   0.954   1.770  0.2773  0.4809 -0.1387
  689SOL    HW1 2066   1.695   0.968   1.768  0.2032 -0.6838 -1.1186
  689SOL    HW2 2067   1.824   0.900   1.853  1.2964 -1.1354  0.0579
  690SOL     OW 2068   2.484   0.729   1.091  0.1251 -0.1098 -0.0368
  690SOL    HW1 2069   2.403   0.665   1.084 -2.2476 -0.7782 -2.7804
  690SOL    HW2 2070   2.450   0.821   1.112  1.0045 -1.3399  1.7086
  691SOL     OW 2071   0.811   1.865   1.563  0.1623  0.1974 -0.0723
  691SOL    HW1 2072   0.815   1.771   1.522 -1.5752  1.0548  0.8553
  691SOL    HW2 2073   0.860   1.876   1.654  1.4669 -2.2193  1.3467
  692SOL     OW 2074   1.941   0.281   1.556  0.7022 -0.2468  0.5075
  692SOL    HW1 2075   1.920   0.269   1.458 -2.0639  0.2213  1.1914
  692SOL    HW2 2076   2.037   0.260   1.571 -2.3423 -1.5163 -1.9966
  693SOL     OW 2077   0.140   0.920   2.230  0.8381  0.1494  0.1453
  693SOL    HW1 2078   0.237   0.892   2.247 -0.2522 -0.0164  0.3566
  693SOL    HW2 2079   0.113   0.883   2.142  0.0938  1.0887  0.6222
  694SOL     OW 2080   1.853   0.233   1.293  0.0945 -0.1281 -0.0161
  694SOL    HW1 2081   1.854   0.305   1.215 -1.0353 -0.4801 -0.9287
  694SOL    HW2 2082   1.789   0.153   1.272 -0.1231 -0.9878 -0.4420
  695SOL     OW 2083   1.238   1.384   1.716  0.1550  1.2590  0.4777
  695SOL    HW1 2084   1.234   1.414   1.617  0.7323 -0.1899  0.2143
  695SOL    HW2 2085   1.202   1.290   1.720 -0.7539  0.4330  0.0897
  696SOL     OW 2086   1.652   2.899   0.108 -0.0680  0.2424 -0.0011
  696SOL    HW1 2087   1.674   2.824   0.044 -0.6935  0.3833 -1.4096
  696SOL    HW2 2088   1.603   2.971   0.060  1.8846 -0.8624 -0.3968
  697SOL     OW 2089   0.764   0.556   0.362 -0.0598 -0.4116 -0.3479
  697SOL    HW1 2090   0.696   0.569   0.441 -0.5506  0.8715 -0.6529
  697SOL    HW2 2091   0.836   0.486   0.378 -0.3363  0.9895  1.2264
  698SOL     OW 2092   1.309   1.268   2.504 -0.5054 -0.4060 -0.3142
  698SOL    HW1 2093   1.212   1.301   2.491  1.4155  1.0492  0.2273
  698SOL    HW2 2094   1.310   1.173   2.530  0.0218 -0.2462  0.4509
  699SOL     OW 2095   1.382   1.177   1.137  0.0594  0.1137  0.2039
  699SOL    HW1 2096   1.373   1.269   1.190  3.5002  1.3920  2.5516
  699SOL    HW2 2097   1.401   1.196   1.037  0.3799  1.4358  2.6495
  700SOL     OW 2098   1.583   3.080   0.514  0.0946  0.6223  0.5567
  700SOL    HW1 2099   1.626   3.007   0.459 -1.9826 -0.3530  0.8360
  700SOL    HW2 2100   1.590   0.065   0.463 -0.6373  1.1105  0.8798
  701SOL     OW 2101   2.587   3.027   2.463 -0.0302 -0.0072  0.8768
  701SOL    HW1 2102   2.582   2.940   2.415  3.4402  0.3867  2.0281
  701SOL    HW2 2103   2.539   3.014   2.552  2.0876 -0.4826 -1.2622
  702SOL     OW 2104   1.041   0.248   0.070 -0.0018 -0.1900  0.1113
  702SOL    HW1 2105   1.012   0.341   0.047  1.8979 -1.3787 -1.2980
  702SOL    HW2 2106   0.987   0.174   0.022  0.7177 -0.0916 -0.4218
  703SOL     OW 2107   2.080   2.801   2.349  0.1629  0.1265  0.3887
  703SOL    HW1 2108   2.046   2.736   2.419 -0.0530  0.8728  0.3394
  703SOL    HW2 2109   2.058   2.896   2.378 -1.7227 -2.1491  1.3854
  704SOL     OW 2110   0.490   2.379   0.813  0.0699 -0.2683 -0.0567
  704SOL    HW1 2111   0.424   2.331   0.755  1.0153 -1.0094  2.7384
  704SOL    HW2 2112   0.495   2.340   0.906 -1.4073  0.4833 -0.2546
  705SOL     OW 2113   2.440   3.072   1.998 -0.0187  0.0385  0.2981
  705SOL    HW1 2114   2.485   3.099   1.913  1.4944  0.9998  3.3581
  705SOL    HW2 2115   2.356   0.028   2.007 -2.0213  2.2974 -0.1190
  706SOL     OW 2116   1.644   0.188   0.315 -0.6224  0.3768  0.2038
  706SOL    HW1 2117   1.744   0.200   0.318  0.9365  0.6241 -0.7156
  706SOL    HW2 2118   1.617   0.151   0.221  0.5834 -0.6804 -1.2835
  707SOL     OW 2119   1.141   1.910   2.048  0.2014  0.5453  0.3073
  707SOL    HW1 2120   1.225   1.958   2.008  1.4166  1.0476 -2.2154
  707SOL    HW2 2121   1.071   1.979   2.076  2.1021  2.4243 -1.8493
  708SOL     OW 2122   0.163   2.353   1.882  0.0570  0.2726  0.3676
  708SOL    HW1 2123   0.118   2.407   1.956  0.1017  3.1520  0.1282
  708SOL    HW2 2124   0.124   2.378   1.792  1.7869 -0.0802  3.1538
  709SOL     OW 2125   1.798   0.258   2.024 -0.1464 -0.3520  0.0331
  709SOL    HW1 2126   1.882   0.290   2.076  2.8112  1.0048  1.7161
  709SOL    HW2 2127   1.820   0.165   1.984  0.2163 -0.8780 -0.8354
  710SOL     OW 2128   2.068   0.517   1.899  0.1989  0.0717 -0.2193
  710SOL    HW1 2129   2.003   0.496   1.824  3.1873  0.0985  2.0710
  710SOL    HW2 2130   2.058   0.457   1.982 -0.3097 -3.4521  4.2606
  711SOL     OW 2131   0.753   2.056   3.090  0.1134  0.2672  0.0845
  711SOL    HW1 2132   0.680   2.125   0.005  1.0874 -2.6453  0.2320
  711SOL    HW2 2133   0.831   2.068   0.055  1.2759  0.4076 -3.0848
  712SOL     OW 2134   0.625   2.590   2.128  0.1221 -0.4161  0.2502
  712SOL    HW1 2135   0.545   2.543   2.087  1.4045  1.6620 -2.0325
  712SOL    HW2 2136   0.666   2.643   2.050  1.3039 -0.6127  1.2711
  713SOL     OW 2137   1.680   1.230   0.519  0.1688  0.3640 -0.2210
  713SOL    HW1 2138   1.690   1.282   0.607 -2.0848  2.0723  0.5965
  713SOL    HW2 2139   1.751   1.164   0.516 -2.6097 -0.1415  2.8066
  714SOL     OW 2140   0.641   1.982   1.158 -0.6637  0.2067 -0.4575
  714SOL    HW1 2141   0.557   1.962   1.101 -1.7013 -0.6086  0.7224
  714SOL    HW2 2142   0.726   2.005   1.107  1.3523 -1.3344  0.4246
  715SOL     OW 2143   2.049   2.884   2.889 -0.3302  0.4751  0.5329
  715SOL    HW1 2144   2.093   2.949   2.823  1.3713 -0.7106  0.4467
  715SOL    HW2 2145   1.961   2.919   2.928  1.7390 -1.1199 -0.6486
  716SOL     OW 2146   2.760   2.922   2.007 -0.0831  0.0729  0.1020
  716SOL    HW1 2147   2.820   2.847   2.035 -2.5057 -1.4170 -0.8473
  716SOL    HW2 2148   2.757   2.998   2.079 -0.3636  2.1758 -1.9505
  717SOL     OW 2149   0.311   1.162   0.313  0.0746 -0.3060 -0.0997
  717SOL    HW1 2150   0.367   1.111   0.246 -1.4519  2.7835 -1.2280
  717SOL    HW2 2151   0.262   1.232   0.258  0.4741 -1.1532 -1.8236
  718SOL     OW 2152   1.296   0.996   2.477 -0.0193  0.2086  0.4110
  718SOL    HW1 2153   1.239   0.972   2.560  0.8777  2.2272  0.6941
  718SOL    HW2 2154   1.390   0.950   2.486  2.0861 -1.5481  2.8993
  719SOL     OW 2155   2.713   1.471   3.100  0.0717  0.1943  0.1272
  719SOL    HW1 2156   2.787   1.459   0.072  1.5483  4.4072 -0.9617
  719SOL    HW2 2157   2.615   1.461   0.033 -1.8978  0.8787  1.2275
  720SOL     OW 2158   1.054   0.853   1.106 -0.2968  0.1375 -0.0060
  720SOL    HW1 2159   0.971   0.845   1.164  1.3285  0.8019 -0.3665
  720SOL    HW2 2160   1.034   0.896   1.017  1.2245 -2.0678  1.8019
  721SOL     OW 2161   2.608   0.663   0.181  0.0888 -0.5096  0.2151
  721SOL    HW1 2162   2.633   0.716   0.097  0.4926  0.4454  0.6786
  721SOL    HW2 2163   2.577   0.733   0.249 -1.8362 -0.7487 -0.2060
  722SOL     OW 2164   1.492   0.936   2.881 -0.3191 -0.3243  0.1246
  722SOL    HW1 2165   1.539   0.867   2.939  0.3289 -0.1331 -0.3150
  722SOL    HW2 2166   1.461   0.902   2.787 -1.3946  0.2970 -2.0436
  723SOL     OW 2167   0.118   1.340   0.444 -0.3611  0.0771 -0.0927
  723SOL    HW1 2168   0.157   1.433   0.450 -0.2163 -4.5978 -2.7500
  723SOL    HW2 2169   0.156   1.275   0.511 -3.1887 -1.0525 -1.1303
  724SOL     OW 2170   0.429   1.536   2.280  0.1617 -0.3775  0.1868
  724SOL    HW1 2171   0.330   1.524   2.258  1.1930  0.0455  2.7979
  724SOL    HW2 2172   0.447   1.625   2.322  0.2011 -2.2096 -2.4003
  725SOL     OW 2173   2.247   0.721   1.485 -0.0700  0.2497 -0.0757
  725SOL    HW1 2174   2.183   0.792   1.449 -1.4940 -2.8849 -0.8434
  725SOL    HW2 2175   2.275   0.737   1.582  1.2275 -0.5296  1.3800
  726SOL     OW 2176   1.703   2.891   0.367 -0.9920  0.6242 -0.3728
  726SOL    HW1 2177   1.658   2.875   0.276 -1.1754 -0.1816 -0.4183
  726SOL    HW2 2178   1.718   2.801   0.417  1.3629 -0.7248  2.7784
  727SOL     OW 2179   1.393   1.277   2.053  0.1573  0.2346 -0.0319
  727SOL    HW1 2180   1.480   1.266   2.102 -0.8335  0.8557  0.3028
  727SOL    HW2 2181   1.334   1.331   2.115 -0.8635 -0.0634  0.2970
  728SOL     OW 2182   1.483   2.476   1.097  0.5231  0.1905 -0.2685
  728SOL    HW1 2183   1.399   2.437   1.130  3.1016  1.2529  0.5807
  728SOL    HW2 2184   1.565   2.425   1.127 -4.7534 -0.0709 -1.7742
  729SOL     OW 2185   2.012   0.917   1.180  0.0307  0.1133 -0.2495
  729SOL    HW1 2186   2.078   0.994   1.157  0.7094 -0.2998 -1.5893
  729SOL    HW2 2187   2.036   0.831   1.133  2.6240  0.0609  2.6390
  730SOL     OW 2188   0.445   1.779   2.402 -0.2087  0.0011  0.0574
  730SOL    HW1 2189   0.492   1.843   2.338 -0.0564  0.1087  0.9366
  730SOL    HW2 2190   0.376   1.830   2.465  0.2200 -0.9834  1.0060
  731SOL     OW 2191   0.360   0.523   0.624 -0.0391  0.3817 -0.0100
  731SOL    HW1 2192   0.420   0.496   0.702  1.6198 -2.0698  1.0549
  731SOL    HW2 2193   0.385   0.473   0.538 -1.3056 -1.2513 -0.4162
  732SOL     OW 2194   0.901   0.809   0.243  0.0909 -0.0010  0.4113
  732SOL    HW1 2195   0.809   0.777   0.205 -1.7742 -1.4627 -0.1816
  732SOL    HW2 2196   0.951   0.873   0.177  0.5368  0.7191 -0.1435
  733SOL     OW 2197   0.711   2.206   0.784 -0.1220  0.7017 -0.0072
  733SOL    HW1 2198   0.709   2.167   0.687  0.5401 -2.2769  0.5038
  733SOL    HW2 2199   0.630   2.268   0.799 -0.9019  1.1886  0.4060
  734SOL     OW 2200   3.016   2.262   2.762  0.0333 -0.2341  0.4081
  734SOL    HW1 2201   3.065   2.352   2.785 -0.9399  2.0646 -0.1082
  734SOL    HW2 2202   3.018   2.194   2.835  0.5181  0.5218 -1.4613
  735SOL     OW 2203   0.977   0.681   1.469 -0.1180  0.4962  0.2531
  735SOL    HW1 2204   0.936   0.615   1.529  1.9076  1.5478  0.1388
  735SOL    HW2 2205   1.076   0.661   1.461 -1.7188  1.3656  1.3177
  736SOL     OW 2206   2.049   2.687   3.067  0.4626  0.6410  0.1744
  736SOL    HW1 2207   2.007   2.722   0.041  1.6735 -0.8869 -2.8035
  736SOL    HW2 2208   2.034   2.749   2.988 -1.4827  4.4416  0.1324
  737SOL     OW 2209   0.165   0.288   0.642 -0.6249  0.2202 -0.6408
  737SOL    HW1 2210   0.094   0.328   0.583  1.4320  0.8357  0.5167
  737SOL    HW2 2211   0.154   0.321   0.737 -1.4022  0.4465 -3.0748
  738SOL     OW 2212   2.219   0.193   0.808 -0.8321 -0.5055  0.2394
  738SOL    HW1 2213   2.291   0.234   0.872  0.3803  0.1186 -0.1464
  738SOL    HW2 2214   2.244   0.100   0.776 -4.3182  0.0370 -0.1619
  739SOL     OW 2215   1.706   2.472   0.235  0.1131 -0.7672  0.5787
  739SOL    HW1 2216   1.703   2.369   0.250  1.0324 -3.1193  2.9352
  739SOL    HW2 2217   1.767   2.495   0.155  1.7180  0.6017 -3.7130
  740SOL     OW 2218   1.399   0.312   0.844  0.4284 -0.2831  0.1038
  740SOL    HW1 2219   1.337   0.247   0.798  1.3203  0.3027  0.5276
  740SOL    HW2 2220   1.482   0.256   0.863 -0.4046  0.9551 -2.8661
  741SOL     OW 2221   2.574   0.672   0.829 -0.4207 -0.0069  0.6315
  741SOL    HW1 2222   2.542   0.720   0.910 -0.8209  0.7528 -1.9912
  741SOL    HW2 2223   2.508   0.595   0.804 -1.5073  1.1254  0.4867
  742SOL     OW 2224   0.957   2.110   2.134 -0.7600 -0.7752  0.4281
  742SOL    HW1 2225   0.969   2.169   2.218 -1.2430  0.3372 -0.9205
  742SOL    HW2 2226   0.896   2.151   2.063  0.8267 -0.3224  2.8801
  743SOL     OW 2227   1.879   0.751   1.990 -0.0018 -0.4297 -0.5095
  743SOL    HW1 2228   1.945   0.679   1.993 -0.5888  2.3046  0.8367
  743SOL    HW2 2229   1.789   0.721   1.945 -2.9848 -0.7458  0.2483
  744SOL     OW 2230   2.271   0.547   1.127 -0.0965 -0.0428  0.6569
  744SOL    HW1 2231   2.199   0.594   1.074  2.8840 -0.3256 -1.1227
  744SOL    HW2 2232   2.229   0.512   1.213 -0.3505 -0.7741 -2.6266
  745SOL     OW 2233   1.908   1.115   1.595 -0.0279  0.2861 -0.1844
  745SOL    HW1 2234   1.869   1.051   1.668  0.8548 -1.6663  0.9054
  745SOL    HW2 2235   1.836   1.151   1.532  1.7574 -1.4918 -0.7748
  746SOL     OW 2236   1.662   1.620   0.895  0.7042 -0.1101  0.0714
  746SOL    HW1 2237   1.743   1.674   0.858  1.2037  3.1964 -0.4139
  746SOL    HW2 2238   1.586   1.688   0.903 -1.4988  0.2325 -1.1467
  747SOL     OW 2239   1.910   1.316   0.975 -0.2122  0.1318 -0.2625
  747SOL    HW1 2240   2.011   1.337   0.971  0.1312 -0.9487  0.2132
  747SOL    HW2 2241   1.874   1.344   1.065  0.8006 -1.1246 -0.2235
  748SOL     OW 2242   0.352   2.262   0.590  0.1630 -0.3398  0.0785
  748SOL    HW1 2243   0.259   2.293   0.563 -0.2918 -2.0963 -1.4452
  748SOL    HW2 2244   0.416   2.276   0.515 -2.4123 -0.0872  1.5977
  749SOL     OW 2245   2.565   2.793   2.289  0.2154 -0.0058  0.2215
  749SOL    HW1 2246   2.474   2.764   2.320  1.5515  1.0924 -0.6690
  749SOL    HW2 2247   2.576   2.772   2.189  2.0248 -1.4840  1.1421
  750SOL     OW 2248   2.625   0.329   0.861 -0.2204  0.2469 -0.1743
  750SOL    HW1 2249   2.620   0.292   0.766  1.1815 -1.1944  1.8229
  750SOL    HW2 2250   2.686   0.413   0.858  1.9653 -0.9064 -2.2348
  751SOL     OW 2251   2.656   2.986   0.296  0.0808  0.2126 -0.4235
  751SOL    HW1 2252   2.758   2.966   0.299  1.1848 -3.6319 -0.1979
  751SOL    HW2 2253   2.611   2.959   0.210  0.0151  0.6836  2.0214
  752SOL     OW 2254   0.311   2.688   0.724 -0.7653  0.1210  0.0975
  752SOL    HW1 2255   0.406   2.658   0.721 -0.5321 -0.6211  0.1764
  752SOL    HW2 2256   0.297   2.784   0.687  1.9645  0.3431  0.7182
  753SOL     OW 2257   1.624   0.714   1.908 -0.3124 -0.4524 -0.2130
  753SOL    HW1 2258   1.556   0.786   1.891 -2.5295  1.9452 -0.4013
  753SOL    HW2 2259   1.576   0.626   1.936  1.2959  0.5153  0.5295
  754SOL     OW 2260   1.776   2.377   1.871  0.3046  0.1914  0.2864
  754SOL    HW1 2261   1.857   2.433   1.862  0.5536  1.3247 -0.0232
  754SOL    HW2 2262   1.691   2.412   1.821 -0.9214  0.1035  2.3825
  755SOL     OW 2263   3.017   0.346   0.470 -0.6166 -0.2011  0.6308
  755SOL    HW1 2264   3.002   0.445   0.449 -1.6299  0.3093  0.6990
  755SOL    HW2 2265   2.979   0.282   0.398 -2.3033 -2.4723  0.4270
  756SOL     OW 2266   1.485   1.663   2.767 -0.5107 -0.2453 -0.0353
  756SOL    HW1 2267   1.444   1.617   2.687  0.4447  3.5954  0.0209
  756SOL    HW2 2268   1.482   1.765   2.760 -0.3595  0.9477  0.5624
  757SOL     OW 2269   1.386   0.186   1.246  0.2476  0.7541 -0.4249
  757SOL    HW1 2270   1.450   0.250   1.291 -0.0945  0.9580  1.0464
  757SOL    HW2 2271   1.294   0.182   1.298  0.3065  0.0222  1.1674
  758SOL     OW 2272   0.460   0.057   1.516  0.8462 -0.2138 -0.2207
  758SOL    HW1 2273   0.407   0.137   1.554 -0.6893  2.3285 -0.0590
  758SOL    HW2 2274   0.544   0.045   1.576  3.0476 -2.7373  1.6930
  759SOL     OW 2275   0.454   0.670   1.156 -0.3085  0.3520  0.1682
  759SOL    HW1 2276   0.519   0.669   1.079  0.7567  0.4251  3.6686
  759SOL    HW2 2277   0.367   0.718   1.127 -1.4449  0.1760  0.4944
  760SOL     OW 2278   2.328   1.158   0.902 -0.4612  0.0381  0.1790
  760SOL    HW1 2279   2.417   1.192   0.946  2.2903  1.8448  1.3776
  760SOL    HW2 2280   2.274   1.113   0.975  1.9397 -0.8260 -0.3944
  761SOL     OW 2281   1.385   0.667   0.427  0.8375  0.7757  0.5903
  761SOL    HW1 2282   1.412   0.630   0.515 -0.2798 -1.0110 -1.2369
  761SOL    HW2 2283   1.286   0.640   0.409 -1.1154 -1.7079 -0.8925
  762SOL     OW 2284   2.248   2.146   1.226 -0.6400 -0.0040 -0.2639
  762SOL    HW1 2285   2.217   2.228   1.178  1.7521 -1.5603  1.0178
  762SOL    HW2 2286   2.280   2.074   1.163 -0.9038  1.3790 -0.6823
  763SOL     OW 2287   1.434   1.551   1.819 -0.2671  0.3489 -0.0353
  763SOL    HW1 2288   1.459   1.599   1.734 -3.1546 -1.5759 -0.3712
  763SOL    HW2 2289   1.349   1.501   1.799 -1.3212 -0.3331  1.9431
  764SOL     OW 2290   3.039   2.162   2.512  0.1144  0.0530 -0.2775
  764SOL    HW1 2291   3.082   2.068   2.508  1.6469  1.8870 -1.7338
  764SOL    HW2 2292   3.038   2.202   2.605  2.4966 -1.8180 -1.7481
  765SOL     OW 2293   1.004   2.505   1.049 -0.1922 -0.3478 -0.9364
  765SOL    HW1 2294   1.102   2.526   1.075  2.9242  0.6335  1.2934
  765SOL    HW2 2295   0.957   2.594   1.025 -0.3498  0.9763  0.1024
  766SOL     OW 2296   0.782   1.977   2.470 -0.2550  0.1770 -0.1176
  766SOL    HW1 2297   0.744   1.948   2.561 -1.2763 -1.4590  2.5210
  766SOL    HW2 2298   0.812   2.070   2.466  1.0983 -1.9040 -0.6912
  767SOL     OW 2299   1.900   0.504   2.359 -0.1759 -0.6789 -0.2891
  767SOL    HW1 2300   1.915   0.589   2.417  0.6086 -1.5218  1.6396
  767SOL    HW2 2301   1.860   0.428   2.413 -0.4089  1.0204  0.6995
  768SOL     OW 2302   1.035   2.737   2.667  0.0306 -0.7766 -0.2751
  768SOL    HW1 2303   1.131   2.741   2.626 -2.1099  1.1652  0.7616
  768SOL    HW2 2304   1.048   2.716   2.765  1.1715  1.8712 -3.1569
  769SOL     OW 2305   3.045   2.508   0.978  0.4810  0.1656  0.2428
  769SOL    HW1 2306   2.999   2.572   1.038 -0.5246 -2.1248  0.2326
  769SOL    HW2 2307   0.044   2.506   1.001 -2.5476 -0.7146  0.9225
  770SOL     OW 2308   0.647   2.907   2.989  0.0485 -0.1612 -0.4419
  770SOL    HW1 2309   0.629   2.857   2.901 -1.3839  1.5164 -1.3162
  770SOL    HW2 2310   0.628   3.011   2.985 -0.1738  0.9087  1.0010
  771SOL     OW 2311   1.150   2.398   2.478  0.1658  0.1547  0.2001
  771SOL    HW1 2312   1.195   2.382   2.383  1.2561 -0.3494 -0.5006
  771SOL    HW2 2313   1.051   2.422   2.464 -0.9613 -0.6901  0.4894
  772SOL     OW 2314   2.108   3.085   2.213 -0.0935  0.7086 -0.6633
  772SOL    HW1 2315   2.153   0.021   2.132  1.9139  0.5513  0.7264
  772SOL    HW2 2316   2.083   2.988   2.192  0.2384  0.8761 -1.6607
  773SOL     OW 2317   1.039   3.091   1.698 -0.0861  0.2270 -0.3214
  773SOL    HW1 2318   1.119   0.050   1.672  1.0296 -1.1119 -2.0633
  773SOL    HW2 2319   1.067   2.994   1.724  1.5166 -4.0627  0.8022
  774SOL     OW 2320   1.523   0.747   2.245 -0.2262  0.5256 -0.5729
  774SOL    HW1 2321   1.468   0.781   2.167  1.4963  1.1273  0.4946
  774SOL    HW2 2322   1.554   0.648   2.235 -0.2802 -0.3017 -2.7412
  775SOL     OW 2323   2.239   3.014   0.122 -0.4236  0.2637 -0.5748
  775SOL    HW1 2324   2.300   2.950   0.075 -2.5175  0.4638  3.4230
  775SOL    HW2 2325   2.219   2.978   0.217  1.6032 -0.8729  1.2919
  776SOL     OW 2326   2.467   0.997   1.848 -0.1041  0.2359 -0.2633
  776SOL    HW1 2327   2.482   0.985   1.747 -1.9620  2.5754 -2.3474
  776SOL    HW2 2328   2.457   0.911   1.900 -1.6017  1.1698  0.9218
  777SOL     OW 2329   2.869   1.146   2.483  0.2322 -0.1341 -0.1018
  777SOL    HW1 2330   2.955   1.139   2.432  0.9742  0.7009  0.4792
  777SOL    HW2 2331   2.800   1.148   2.408  0.5853  0.6929  1.3748
  778SOL     OW 2332   2.327   0.376   1.995  0.4518 -0.1936 -0.2837
  778SOL    HW1 2333   2.269   0.454   1.969  0.9206 -1.9651  0.2875
  778SOL    HW2 2334   2.412   0.373   1.940  2.9093 -0.2309 -0.1430
  779SOL     OW 2335   0.135   3.050   2.977  0.1914  0.3594  0.2282
  779SOL    HW1 2336   0.069   0.018   2.940  0.4868 -0.6510  1.0394
  779SOL    HW2 2337   0.137   2.961   2.935  1.5193  4.1329  2.2282
  780SOL     OW 2338   1.996   3.049   2.463  0.2668 -0.1080 -0.1494
  780SOL    HW1 2339   1.897   3.075   2.485 -1.9315 -0.5676 -0.2323
  780SOL    HW2 2340   2.017   3.077   2.366  0.7262  0.3760  0.2067
  781SOL     OW 2341   0.088   0.577   1.541 -0.2548 -0.5793 -0.2119
  781SOL    HW1 2342   0.078   0.678   1.543 -1.6132 -0.7187 -1.3553
  781SOL    HW2 2343   0.177   0.539   1.561 -1.0049 -1.4147 -0.9355
  782SOL     OW 2344   2.166   2.039   0.381  0.7183 -0.0201  0.1609
  782SOL    HW1 2345   2.197   2.136   0.373  0.1348 -0.8230 -1.7022
  782SOL    HW2 2346   2.186   2.000   0.473  0.5957  1.4363  0.0232
  783SOL     OW 2347   0.451   1.904   1.346  0.3786 -0.8826 -0.1705
  783SOL    HW1 2348   0.356   1.913   1.305  0.0989  0.4512  1.1057
  783SOL    HW2 2349   0.524   1.949   1.288 -1.0295  1.4485 -0.6636
  784SOL     OW 2350   2.283   0.670   2.366 -0.1113  0.1461  0.2404
  784SOL    HW1 2351   2.300   0.573   2.342 -2.3717  2.2449  1.5009
  784SOL    HW2 2352   2.275   0.730   2.284  1.6908 -1.1958  2.0096
  785SOL     OW 2353   0.173   0.298   1.170  0.3624 -0.4946  0.3533
  785SOL    HW1 2354   0.148   0.312   1.073  2.5392  0.0884 -1.0128
  785SOL    HW2 2355   0.214   0.382   1.214  0.6821 -0.8999  0.5586
  786SOL     OW 2356   1.937   2.831   0.191 -0.0030  0.0582 -0.1199
  786SOL    HW1 2357   1.854   2.889   0.203 -1.3012 -0.8147  1.7271
  786SOL    HW2 2358   1.953   2.766   0.268  0.6047  0.4905  3.2802
  787SOL     OW 2359   1.303   0.080   0.740  0.2672  0.0778 -0.3694
  787SOL    HW1 2360   1.227   0.022   0.725  3.2059 -0.1107 -0.1606
  787SOL    HW2 2361   1.381   0.026   0.777 -0.1156 -0.1680 -0.4709
  788SOL     OW 2362   0.145   1.608   0.987 -0.1177 -0.2595 -0.3967
  788SOL    HW1 2363   0.049   1.617   0.966  1.0884 -0.5698 -1.0122
  788SOL    HW2 2364   0.181   1.517   0.988 -0.4871  3.5170 -1.6676
  789SOL     OW 2365   2.741   0.523   2.048 -0.6491  0.6625  0.3863
  789SOL    HW1 2366   2.759   0.429   2.082 -0.1495 -0.0489 -2.2832
  789SOL    HW2 2367   2.767   0.599   2.110  1.0289  0.2807 -0.4028
  790SOL     OW 2368   0.985   0.616   2.913 -0.3831 -0.1894 -0.5949
  790SOL    HW1 2369   0.990   0.526   2.868 -0.6362  2.4727 -2.1604
  790SOL    HW2 2370   1.075   0.667   2.895  0.7007  0.0205 -0.2826
  791SOL     OW 2371   2.494   3.034   2.927 -0.0058  0.2328 -0.3165
  791SOL    HW1 2372   2.595   3.058   2.934 -0.2476 -0.9226  1.7325
  791SOL    HW2 2373   2.473   2.983   3.012  0.3490 -1.4551 -0.0442
  792SOL     OW 2374   1.209   0.938   1.536 -0.2676  0.0265  0.5658
  792SOL    HW1 2375   1.190   0.978   1.445  1.6710  1.9834  0.6949
  792SOL    HW2 2376   1.198   0.836   1.531 -1.3004  1.0891  0.2619
  793SOL     OW 2377   2.887   3.008   1.351 -0.3097 -0.5607 -0.2881
  793SOL    HW1 2378   2.873   3.053   1.440 -3.0018  0.1980 -1.3453
  793SOL    HW2 2379   2.911   3.074   1.282  1.6059 -4.3997  0.9773
  794SOL     OW 2380   2.905   3.058   2.203 -0.6540  0.5027 -0.4369
  794SOL    HW1 2381   2.864   0.038   2.250 -2.2373 -2.6260  1.7109
  794SOL    HW2 2382   2.955   3.093   2.120  2.8509  0.7425 -2.2243
  795SOL     OW 2383   0.563   1.955   2.879 -0.0155  0.2637 -0.0863
  795SOL    HW1 2384   0.549   2.047   2.920  2.9383 -2.0356  1.3835
  795SOL    HW2 2385   0.488   1.884   2.900 -3.9277 -2.2003 -0.0213
  796SOL     OW 2386   2.047   0.754   2.779  0.3586 -0.5358 -0.0551
  796SOL    HW1 2387   2.037   0.737   2.680  0.0585 -0.5772 -2.3189
  796SOL    HW2 2388   1.976   0.816   2.811  2.2856  2.0030 -0.4743
  797SOL     OW 2389   2.591   2.166   0.133  0.1249  0.2108  0.3570
  797SOL    HW1 2390   2.680   2.185   0.087 -1.0084  0.1695 -1.4837
  797SOL    HW2 2391   2.512   2.208   0.079 -1.7750 -0.8545  0.7580
  798SOL     OW 2392   3.068   0.459   1.321 -0.1621  0.3166 -0.0430
  798SOL    HW1 2393   3.097   0.515   1.398  1.5596  0.1932 -1.0190
  798SOL    HW2 2394   0.051   0.402   1.293  4.7184 -1.1015  2.6224
  799SOL     OW 2395   0.335   0.205   1.749  0.2130  0.0100  0.0431
  799SOL    HW1 2396   0.357   0.294   1.705  1.2348  0.9929  1.3457
  799SOL    HW2 2397   0.381   0.215   1.843  1.9666  2.0535  2.3165
  800SOL     OW 2398   0.242   1.995   3.095 -0.4839  0.0554  0.1272
  800SOL    HW1 2399   0.199   1.972   0.084  1.0233  4.9787 -2.7527
  800SOL    HW2 2400   0.276   1.911   3.047  3.6385 -3.2519  0.3416
  801SOL     OW 2401   1.506   1.886   0.948  0.2200 -0.8295  0.1233
  801SOL    HW1 2402   1.462   1.918   1.033 -1.2714  1.5304 -1.3605
  801SOL    HW2 2403   1.535   1.965   0.889  0.4510  0.4607 -3.3350
  802SOL     OW 2404   1.086   0.614   0.314 -0.1856 -0.1855 -0.1188
  802SOL    HW1 2405   1.021   0.545   0.337  2.4056 -0.1583 -0.4231
  802SOL    HW2 2406   1.037   0.702   0.300  0.3121 -0.6457 -0.0039
  803SOL     OW 2407   1.010   1.450   1.867 -0.3956 -0.2487  0.0266
  803SOL    HW1 2408   0.947   1.535   1.845 -1.8489  2.5827  0.9186
  803SOL    HW2 2409   1.094   1.443   1.808  1.9198 -0.3180 -1.5200
  804SOL     OW 2410   1.824   2.086   1.189 -0.3711  0.3156 -0.4932
  804SOL    HW1 2411   1.847   2.079   1.289 -0.2948 -0.3583  0.1384
  804SOL    HW2 2412   1.836   2.004   1.132  0.9831 -2.5606  0.5140
  805SOL     OW 2413   0.250   2.408   2.435 -0.3044  0.6256 -0.1590
  805SOL    HW1 2414   0.216   2.339   2.372  0.5046  1.6605 -0.3367
  805SOL    HW2 2415   0.339   2.378   2.479 -0.8679  0.1222  0.1231
  806SOL     OW 2416   1.029   2.963   0.111 -0.3747  0.4596  0.5008
  806SOL    HW1 2417   1.053   3.059   0.075  0.1308  2.6705  0.7768
  806SOL    HW2 2418   1.031   2.961   0.212 -1.0669 -3.1684  0.2894
  807SOL     OW 2419   2.429   1.015   2.701 -0.1502  0.4626 -0.1627
  807SOL    HW1 2420   2.451   1.114   2.708 -0.1682  0.7350 -0.3044
  807SOL    HW2 2421   2.363   1.001   2.626 -1.0292  0.4665  0.7412
  808SOL     OW 2422   1.555   2.111   0.778 -0.3089  0.7053 -0.6592
  808SOL    HW1 2423   1.523   2.097   0.678  1.5715 -2.5509 -3.8666
  808SOL    HW2 2424   1.600   2.196   0.800  0.3014 -2.8732 -0.1597
  809SOL     OW 2425   0.345   0.080   0.604  0.2716  0.3757 -0.1548
  809SOL    HW1 2426   0.432   0.109   0.569  1.5258  1.1748 -1.2740
  809SOL    HW2 2427   0.292   0.164   0.612  2.9072  1.3968  0.7546
  810SOL     OW 2428   1.176   1.171   0.759 -0.4300  0.0860  0.2155
  810SOL    HW1 2429   1.200   1.260   0.804  1.8885 -2.7405  2.1754
  810SOL    HW2 2430   1.139   1.105   0.830 -0.1466  2.7972  1.0589
  811SOL     OW 2431   1.493   2.783   1.035  0.2036 -0.1742 -0.5714
  811SOL    HW1 2432   1.517   2.693   1.085  1.5173 -2.6965 -0.4970
  811SOL    HW2 2433   1.400   2.817   1.064 -0.8163  0.7318  1.3455
  812SOL     OW 2434   1.011   0.294   0.717  0.7053  0.1227  0.1527
  812SOL    HW1 2435   1.000   0.368   0.787 -1.1831 -1.0365  1.1747
  812SOL    HW2 2436   1.021   0.204   0.760  4.4086 -1.3977 -0.6671
  813SOL     OW 2437   1.084   3.069   2.179  0.4334 -0.4426  0.6264
  813SOL    HW1 2438   1.032   2.981   2.171 -0.8213  0.5015 -1.8819
  813SOL    HW2 2439   1.183   3.067   2.146  0.8318  0.3404  0.7543
  814SOL     OW 2440   1.222   2.889   1.094 -0.0547 -0.4499 -0.5626
  814SOL    HW1 2441   1.173   2.860   1.179 -0.2430 -0.7703 -2.0177
  814SOL    HW2 2442   1.155   2.912   1.020 -0.5823 -1.4947  0.2619
  815SOL     OW 2443   0.243   2.620   0.157  0.2326  0.3470  0.5112
  815SOL    HW1 2444   0.233   2.623   0.056 -3.0370 -1.7283  1.3451
  815SOL    HW2 2445   0.163   2.567   0.192 -1.9571 -1.0949  0.8243
  816SOL     OW 2446   2.017   1.146   2.665 -0.5046  0.2428 -0.0776
  816SOL    HW1 2447   2.074   1.117   2.747  0.2925  2.4270 -0.4051
  816SOL    HW2 2448   1.936   1.091   2.650  1.5908 -1.7607 -0.2742
  817SOL     OW 2449   1.758   2.286   2.483 -0.2566 -0.6752  0.1527
  817SOL    HW1 2450   1.802   2.212   2.537  1.8844  1.2172  0.0101
  817SOL    HW2 2451   1.837   2.324   2.428  1.2921  0.0303 -2.7319
  818SOL     OW 2452   0.970   0.998   0.063  0.2574  0.2555  0.0507
  818SOL    HW1 2453   0.868   1.004   0.078 -0.8552  0.7848  0.3624
  818SOL    HW2 2454   1.021   1.044   0.140 -0.0551  0.8346  0.0064
  819SOL     OW 2455   1.551   1.827   0.108 -0.3482  0.3488 -0.0085
  819SOL    HW1 2456   1.495   1.874   0.038 -1.4812 -0.5105  0.9068
  819SOL    HW2 2457   1.572   1.731   0.082 -1.3779 -1.5234  0.7854
  820SOL     OW 2458   0.429   0.781   0.391 -0.2435 -0.2399  0.0701
  820SOL    HW1 2459   0.340   0.727   0.407  0.2713  0.4825 -1.0409
  820SOL    HW2 2460   0.445   0.785   0.290  2.2847  3.0268 -0.4335
  821SOL     OW 2461   0.501   2.916   1.383  0.5658  0.1190 -0.1937
  821SOL    HW1 2462   0.487   3.007   1.422  0.8813 -2.1632 -3.5294
  821SOL    HW2 2463   0.446   2.905   1.297 -1.4716  1.1597  0.9217
  822SOL     OW 2464   2.103   2.187   2.631 -0.1367 -0.0437  0.0176
  822SOL    HW1 2465   2.132   2.286   2.660  1.4152  2.6196  0.4171
  822SOL    HW2 2466   2.001   2.178   2.621  1.0029  0.3664  1.5436
  823SOL     OW 2467   0.591   0.725   2.082  0.6299 -0.1225  0.5097
  823SOL    HW1 2468   0.679   0.774   2.109  0.3976 -1.2563  1.7513
  823SOL    HW2 2469   0.599   0.623   2.087  0.4462 -0.3088  0.6885
  824SOL     OW 2470   2.396   0.000   1.541 -0.2122  0.4886  0.4308
  824SOL    HW1 2471   2.384   0.091   1.494 -0.1092  0.4144  0.5058
  824SOL    HW2 2472   2.314   3.032   1.545 -1.5450 -0.1009 -0.1834
  825SOL     OW 2473   0.454   1.302   2.768  0.8182 -0.1053  0.7165
  825SOL    HW1 2474   0.393   1.378   2.732 -0.5989  0.9463 -0.3493
  825SOL    HW2 2475   0.460   1.302   2.867  0.4922  0.5310 -2.4823
  826SOL     OW 2476   1.773   0.577   2.735 -0.3925  0.3799 -0.0358
  826SOL    HW1 2477   1.794   0.677   2.727  0.0345  1.9785  1.8287
  826SOL    HW2 2478   1.863   0.523   2.750  2.9594  2.3679  1.1710
  827SOL     OW 2479   0.910   2.497   2.421  0.1731 -0.7643 -0.5869
  827SOL    HW1 2480   0.837   2.539   2.481  1.4633 -2.5442 -2.1295
  827SOL    HW2 2481   0.888   2.501   2.322  0.5113 -2.3507  1.7000
  828SOL     OW 2482   3.027   2.895   1.650 -0.4889  0.0933  0.3821
  828SOL    HW1 2483   2.983   2.829   1.597  2.0134 -0.9720 -0.5148
  828SOL    HW2 2484   3.064   2.977   1.602  0.8403  1.2235 -0.1078
  829SOL     OW 2485   1.514   1.694   1.591  0.1411 -0.5876 -0.0648
  829SOL    HW1 2486   1.549   1.778   1.642  1.8973  3.2399  0.3073
  829SOL    HW2 2487   1.588   1.625   1.574  1.1475  1.1323  0.1081
  830SOL     OW 2488   0.864   1.098   1.823 -0.2329  0.4174 -0.7348
  830SOL    HW1 2489   0.794   1.041   1.786 -2.1420  1.8057  0.6522
  830SOL    HW2 2490   0.846   1.116   1.916  1.1123 -1.8449 -2.1975
  831SOL     OW 2491   2.775   1.730   0.325 -0.1608 -0.7660  0.3023
  831SOL    HW1 2492   2.741   1.797   0.257  0.5748  1.1563  1.3843
  831SOL    HW2 2493   2.830   1.654   0.282  0.7041 -1.7838  0.4326
  832SOL     OW 2494   1.211   2.826   0.307 -0.0265  0.7025  0.1744
  832SOL    HW1 2495   1.221   2.839   0.206  0.1098 -0.7311 -0.5631
  832SOL    HW2 2496   1.248   2.906   0.357 -0.9477 -0.1664 -1.0260
  833SOL     OW 2497   2.886   0.145   1.696  0.0526  0.2416 -0.5098
  833SOL    HW1 2498   2.857   0.069   1.759  0.4812 -0.3655  3.3802
  833SOL    HW2 2499   2.975   0.180   1.723 -1.4423  0.9731 -1.0242
  834SOL     OW 2500   0.154   0.617   0.959  0.2789  0.4535  0.5045
  834SOL    HW1 2501   0.178   0.693   1.019 -1.7759 -1.8080  0.8201
  834SOL    HW2 2502   0.163   0.643   0.861 -0.3649 -1.3568  2.3677
  835SOL     OW 2503   2.699   3.076   0.826  0.2820 -0.4009 -0.2633
  835SOL    HW1 2504   2.787   0.024   0.846  0.3427  0.6244 -2.9288
  835SOL    HW2 2505   2.715   2.978   0.823 -1.2914  2.6766  0.8183
  836SOL     OW 2506   1.183   1.976   2.857 -0.0677  0.1554  0.2273
  836SOL    HW1 2507   1.091   2.015   2.866 -0.0019  0.3761  1.0734
  836SOL    HW2 2508   1.200   1.942   2.765 -0.2502 -2.6221  0.3249
  837SOL     OW 2509   1.518   1.793   0.382  0.0761  0.0486 -0.0811
  837SOL    HW1 2510   1.557   1.805   0.285  0.4522 -1.3854 -1.4618
  837SOL    HW2 2511   1.516   1.877   0.438  0.1958 -3.6139  0.0030
  838SOL     OW 2512   2.732   0.713   2.440  0.4615  0.0610  0.0049
  838SOL    HW1 2513   2.817   0.712   2.500  2.3671 -0.9128  0.9582
  838SOL    HW2 2514   2.648   0.739   2.489 -0.8782  0.8810 -2.3145
  839SOL     OW 2515   0.513   0.881   2.492 -0.4837 -0.4590  0.6746
  839SOL    HW1 2516   0.470   0.959   2.544 -2.4921 -0.5632 -0.1834
  839SOL    HW2 2517   0.616   0.888   2.484 -2.0985  0.5562 -1.3424
  840SOL     OW 2518   1.043   0.970   2.914 -0.2818 -0.2833 -0.2500
  840SOL    HW1 2519   0.996   0.990   3.003 -1.1207  1.7267 -0.3333
  840SOL    HW2 2520   1.110   0.892   2.918 -0.5446  1.7348  0.4232
  841SOL     OW 2521   0.759   2.614   0.670  0.1097  0.5643  0.4805
  841SOL    HW1 2522   0.816   2.538   0.632 -0.1171  0.6849  0.4413
  841SOL    HW2 2523   0.675   2.635   0.613  0.1284 -1.0808  0.5122
  842SOL     OW 2524   0.643   0.588   0.599 -0.3820  0.1486 -0.5112
  842SOL    HW1 2525   0.553   0.632   0.589 -1.1484  0.5824  2.5900
  842SOL    HW2 2526   0.718   0.657   0.602 -0.2461 -1.7753 -1.8869
  843SOL     OW 2527   0.415   1.051   1.343  0.3179  0.1619 -0.1507
  843SOL    HW1 2528   0.419   1.088   1.244 -0.1170  1.4677 -0.6692
  843SOL    HW2 2529   0.316   1.023   1.360  0.9376  0.8444 -0.3427
  844SOL     OW 2530   2.117   2.381   2.846 -0.3972  0.0788 -0.2070
  844SOL    HW1 2531   2.105   2.479   2.822 -0.6176 -0.6535 -2.3746
  844SOL    HW2 2532   2.219   2.363   2.847 -2.5466 -0.0523 -0.7818
  845SOL     OW 2533   2.162   2.950   1.548 -0.5518  0.0357 -0.6316
  845SOL    HW1 2534   2.119   2.980   1.461  1.7988  0.2075 -0.1922
  845SOL    HW2 2535   2.115   2.870   1.593 -1.5899  0.8935  2.2564
  846SOL     OW 2536   1.976   0.947   2.424  0.0608 -0.0578  0.3354
  846SOL    HW1 2537   1.984   0.972   2.326 -0.8210 -1.3716  2.1278
  846SOL    HW2 2538   2.051   0.988   2.474 -2.3273  0.3668 -1.5108
  847SOL     OW 2539   2.110   2.827   2.072  0.6105 -0.2226 -0.0581
  847SOL    HW1 2540   2.104   2.787   2.167  0.5868  0.0051  1.0750
  847SOL    HW2 2541   2.174   2.767   2.014  1.3302  0.7222 -1.0027
  848SOL     OW 2542   0.068   2.946   0.161  0.2768  0.6635 -0.0355
  848SOL    HW1 2543   0.148   2.921   0.216 -0.4857 -2.1628 -1.0168
  848SOL    HW2 2544   0.101   2.993   0.078  1.6466 -2.0025  2.2665
  849SOL     OW 2545   0.376   2.856   1.153 -0.4313  0.1520  0.1512
  849SOL    HW1 2546   0.306   2.802   1.109  1.7602  2.3005 -0.4770
  849SOL    HW2 2547   0.454   2.865   1.088  3.8856 -1.5463 -1.2616
  850SOL     OW 2548   0.317   2.005   0.401 -0.5093  0.0461 -0.1719
  850SOL    HW1 2549   0.264   1.992   0.319  0.5032 -0.4962  0.7048
  850SOL    HW2 2550   0.399   2.071   0.379  3.9636  0.4425 -1.2596
  851SOL     OW 2551   2.083   0.844   3.067 -0.2423 -0.9409 -0.7321
  851SOL    HW1 2552   2.045   0.753   3.052 -1.9421 -1.2970 -0.2253
  851SOL    HW2 2553   2.125   0.850   0.060  1.8506  1.7940  0.7514
  852SOL     OW 2554   1.844   2.075   2.614  0.2072  0.6097 -0.5493
  852SOL    HW1 2555   1.829   2.024   2.528 -2.0944  2.7750  0.9432
  852SOL    HW2 2556   1.885   2.012   2.680  1.0126 -0.7969 -2.5008
  853SOL     OW 2557   0.529   2.141   0.258  0.1088 -0.5335  0.0873
  853SOL    HW1 2558   0.506   2.134   0.158 -3.6911 -1.0567 -1.5829
  853SOL    HW2 2559   0.585   2.061   0.289  0.4614  1.8651 -0.4313
  854SOL     OW 2560   1.759   1.002   2.099  0.5812 -0.1188 -0.1392
  854SOL    HW1 2561   1.744   0.901   2.075 -0.9225 -2.6710 -1.3102
  854SOL    HW2 2562   1.847   1.023   2.143  1.6164 -2.1003  0.1755
  855SOL     OW 2563   0.528   2.524   2.882 -0.4245  0.2958 -0.1780
  855SOL    HW1 2564   0.612   2.484   2.926 -0.0727  3.8284 -2.1676
  855SOL    HW2 2565   0.456   2.457   2.889  1.0743 -1.2226 -0.4972
  856SOL     OW 2566   0.402   2.929   2.043 -0.7032 -0.2769 -0.1730
  856SOL    HW1 2567   0.404   2.938   1.940 -1.8970  0.1549 -1.4333
  856SOL    HW2 2568   0.456   3.012   2.076 -1.7821  2.3454 -0.5666
  857SOL     OW 2569   0.620   0.448   1.777  0.1794 -0.4467 -0.0506
  857SOL    HW1 2570   0.674   0.413   1.856  0.2922  0.8955  3.5336
  857SOL    HW2 2571   0.564   0.527   1.810 -0.2816  0.1914  1.3192
  858SOL     OW 2572   0.358   1.886   2.052  0.3362 -0.1094  0.5627
  858SOL    HW1 2573   0.430   1.861   2.118  0.6654 -0.9474 -0.0651
  858SOL    HW2 2574   0.399   1.919   1.963 -0.4638 -0.1499  0.7949
  859SOL     OW 2575   2.117   2.314   1.449  0.6606 -0.6771 -0.3091
  859SOL    HW1 2576   2.142   2.262   1.363 -1.7230  3.1923  0.8158
  859SOL    HW2 2577   2.163   2.406   1.453 -0.7642 -0.7596  0.4185
  860SOL     OW 2578   1.747   0.591   0.561  0.0838  0.0856 -0.0743
  860SOL    HW1 2579   1.765   0.655   0.636 -1.2934 -3.4805 -3.4197
  860SOL    HW2 2580   1.668   0.533   0.588  0.7936  3.8449  2.3720
  861SOL     OW 2581   0.112   0.352   0.910 -0.4622  0.1999  0.5566
  861SOL    HW1 2582   0.138   0.449   0.932  2.4327 -0.0263  2.0774
  861SOL    HW2 2583   0.017   0.351   0.866  0.6234  2.1562  0.1828
  862SOL     OW 2584   2.385   1.091   1.420 -0.2670  0.1211 -0.6688
  862SOL    HW1 2585   2.294   1.092   1.462 -0.8082  0.6238 -2.1821
  862SOL    HW2 2586   2.419   1.188   1.424  1.0098  0.3715 -2.1469
  863SOL     OW 2587   0.378   1.375   1.348  0.0479 -0.3894  0.0645
  863SOL    HW1 2588   0.366   1.277   1.369 -0.1232 -0.1083 -1.6663
  863SOL    HW2 2589   0.466   1.394   1.296 -1.3776 -1.2795  1.0091
  864SOL     OW 2590   2.497   2.766   2.015  0.4761  0.5226 -0.1406
  864SOL    HW1 2591   2.587   2.733   1.980 -0.6899  0.1103 -0.3948
  864SOL    HW2 2592   2.494   2.869   2.006  0.7838  0.5967  1.3542
  865SOL     OW 2593   1.141   0.759   2.140  0.1759  0.6027 -0.3657
  865SOL    HW1 2594   1.147   0.859   2.163 -2.7428  1.3972 -1.2098
  865SOL    HW2 2595   1.170   0.746   2.044  1.5540  0.2575  0.0919
  866SOL     OW 2596   2.512   2.950   0.522 -0.6944  0.0354  0.4951
  866SOL    HW1 2597   2.554   3.018   0.584 -0.4182 -0.7657 -1.3937
  866SOL    HW2 2598   2.566   2.950   0.434 -3.1946 -0.6163  0.9041
  867SOL     OW 2599   2.833   2.829   0.833  0.1427  0.0140 -0.4552
  867SOL    HW1 2600   2.793   2.761   0.770  3.0289  1.3879 -0.2257
  867SOL    HW2 2601   2.933   2.815   0.841  0.0671  3.0118 -1.2429
  868SOL     OW 2602   1.772   1.675   2.803 -0.0508 -0.1280 -0.0093
  868SOL    HW1 2603   1.822   1.766   2.784  1.0751  1.2105 -0.2314
  868SOL    HW2 2604   1.668   1.687   2.804 -1.6689 -0.0349  0.1647
  869SOL     OW 2605   2.858   2.453   0.587 -0.0888 -0.2664  0.7043
  869SOL    HW1 2606   2.808   2.405   0.512  2.0398  1.5863  0.3030
  869SOL    HW2 2607   2.819   2.544   0.611 -2.7271  0.7189 -0.3523
  870SOL     OW 2608   3.036   1.921   0.423 -0.1275  0.4917 -0.4083
  870SOL    HW1 2609   3.047   1.980   0.505  0.4695 -0.8323  0.0637
  870SOL    HW2 2610   3.041   1.826   0.459 -0.4634  0.7586  0.0654
  871SOL     OW 2611   0.287   1.381   1.006  0.0263  0.1359  0.3288
  871SOL    HW1 2612   0.323   1.316   1.070  0.0562  0.6422  1.5389
  871SOL    HW2 2613   0.281   1.325   0.920  1.3775 -2.2606  1.0677
  872SOL     OW 2614   0.991   1.815   2.464  0.5654  0.1241 -0.1247
  872SOL    HW1 2615   0.954   1.731   2.424  2.0221 -0.6449  1.9168
  872SOL    HW2 2616   0.915   1.881   2.475  1.1073  0.2178 -2.3112
  873SOL     OW 2617   0.378   2.985   1.776 -0.0628 -0.6128 -0.1916
  873SOL    HW1 2618   0.313   3.064   1.772 -2.6257 -0.5451 -0.6887
  873SOL    HW2 2619   0.472   3.014   1.746  1.3761  1.8055 -1.9483
  874SOL     OW 2620   0.843   0.484   1.640  0.0979  0.1668 -0.3218
  874SOL    HW1 2621   0.748   0.476   1.683 -0.7827  0.7396 -1.0078
  874SOL    HW2 2622   0.858   0.399   1.580 -1.1584 -1.3078 -1.6624
  875SOL     OW 2623   2.903   0.089   1.135 -0.4721  0.3135 -0.5348
  875SOL    HW1 2624   2.924   0.138   1.224  0.7240  3.0473 -1.9543
  875SOL    HW2 2625   2.805   0.091   1.114 -0.4052 -1.6185  0.9307
  876SOL     OW 2626   0.552   1.185   0.434  0.3586  0.4622  0.4757
  876SOL    HW1 2627   0.455   1.159   0.410 -0.1758 -1.3979 -0.7813
  876SOL    HW2 2628   0.589   1.238   0.355  0.9072  0.8904 -3.0190
  877SOL     OW 2629   1.110   1.139   1.728  0.2788  0.1099  0.0847
  877SOL    HW1 2630   1.100   1.078   1.645 -0.6299  0.6302  0.4238
  877SOL    HW2 2631   1.018   1.143   1.775 -1.1795 -1.4614  0.0931
  878SOL     OW 2632   2.643   2.330   0.410  0.6708  0.4394 -0.0950
  878SOL    HW1 2633   2.566   2.266   0.392 -0.7418  1.3969 -0.3927
  878SOL    HW2 2634   2.617   2.417   0.371 -0.2809 -1.8380 -0.1256
  879SOL     OW 2635   2.709   1.666   1.728  0.3145 -0.2629 -0.4347
  879SOL    HW1 2636   2.787   1.607   1.747 -3.7870  2.1218 -1.9465
  879SOL    HW2 2637   2.735   1.746   1.674  0.5565 -0.3820  0.6840
  880SOL     OW 2638   1.111   2.525   0.644  0.3332  0.4509  0.5194
  880SOL    HW1 2639   1.029   2.481   0.685 -0.6073  2.6551  0.4449
  880SOL    HW2 2640   1.163   2.575   0.711  0.2139  0.1049 -1.3810
  881SOL     OW 2641   0.590   2.344   0.414  0.0300  0.1365 -0.6310
  881SOL    HW1 2642   0.575   2.271   0.342 -0.9700 -4.2541  0.1441
  881SOL    HW2 2643   0.517   2.414   0.409  0.7953 -1.8444  3.3851
  882SOL     OW 2644   1.833   0.709   0.792  0.2614  0.2658 -0.1958
  882SOL    HW1 2645   1.802   0.803   0.819 -2.9447 -0.8223 -1.6690
  882SOL    HW2 2646   1.933   0.708   0.777 -0.3169 -2.4749  1.6180
  883SOL     OW 2647   1.341   0.736   1.085 -0.3850 -0.2166 -0.3608
  883SOL    HW1 2648   1.255   0.782   1.121  0.7638  0.6483 -0.5231
  883SOL    HW2 2649   1.419   0.796   1.097 -3.3920  1.4761 -1.1723
  884SOL     OW 2650   2.921   2.945   0.287 -0.0372 -0.1877 -0.0728
  884SOL    HW1 2651   3.010   2.940   0.240  1.6036 -0.9855 -0.1947
  884SOL    HW2 2652   2.941   2.963   0.386  1.7065 -2.3933  0.9981
  885SOL     OW 2653   1.078   1.313   2.687 -0.0751  0.1658 -0.3898
  885SOL    HW1 2654   1.173   1.329   2.720 -1.7620  1.4375 -1.5212
  885SOL    HW2 2655   1.057   1.362   2.597  1.4901  1.7961 -1.6667
  886SOL     OW 2656   1.289   1.896   2.594 -0.4104 -0.1192  0.5492
  886SOL    HW1 2657   1.232   1.816   2.617  1.0777 -0.8913  1.1149
  886SOL    HW2 2658   1.251   1.958   2.525 -2.2343 -1.8672 -0.7710
  887SOL     OW 2659   1.115   0.431   1.259  0.2225 -0.1386 -0.0127
  887SOL    HW1 2660   1.161   0.416   1.165  1.3048  2.4979 -1.4353
  887SOL    HW2 2661   1.126   0.525   1.292  2.8516 -1.3242  1.4706
  888SOL     OW 2662   2.311   0.686   1.765 -0.1501  0.2085 -0.2502
  888SOL    HW1 2663   2.399   0.692   1.817 -1.3229 -3.4879 -0.9224
  888SOL    HW2 2664   2.231   0.693   1.832 -2.2289  0.5440  4.0736
  889SOL     OW 2665   0.171   2.500   0.586 -0.0278  0.0684 -0.0311
  889SOL    HW1 2666   0.203   2.578   0.644  0.5777 -1.3406 -0.5435
  889SOL    HW2 2667   0.094   2.453   0.633 -1.2004 -2.1813  2.1678
  890SOL     OW 2668   1.745   2.139   0.548  0.3348  0.0188  0.4171
  890SOL    HW1 2669   1.829   2.090   0.574  1.7295  0.0710 -0.1651
  890SOL    HW2 2670   1.658   2.084   0.543 -0.1941  0.4724  0.3397
  891SOL     OW 2671   2.883   0.951   0.083 -0.3807  0.1007 -0.6324
  891SOL    HW1 2672   2.976   0.965   0.132 -2.0159  2.7458  0.5531
  891SOL    HW2 2673   2.802   0.989   0.135 -0.5525  0.4614  0.0145
  892SOL     OW 2674   2.607   2.344   1.101 -0.4015  0.3216 -0.3976
  892SOL    HW1 2675   2.585   2.371   1.005  0.7554  0.8326 -1.6756
  892SOL    HW2 2676   2.552   2.403   1.164  2.0759  0.5132 -1.8388
  893SOL     OW 2677   1.249   0.473   1.031 -0.1535 -0.0857 -0.1408
  893SOL    HW1 2678   1.272   0.421   0.950  1.2589 -0.8759  1.7585
  893SOL    HW2 2679   1.305   0.555   1.051 -3.3179  2.2244 -0.4601
  894SOL     OW 2680   2.808   0.546   0.897 -0.3238  0.5885  0.2731
  894SOL    HW1 2681   2.740   0.617   0.883  2.2379 -1.4005 -0.9012
  894SOL    HW2 2682   2.871   0.579   0.970  0.7827  1.5546  2.1788
  895SOL     OW 2683   1.687   1.496   2.333  0.3637 -0.3935 -0.1971
  895SOL    HW1 2684   1.586   1.519   2.341  1.6292  1.9051 -0.9997
  895SOL    HW2 2685   1.740   1.569   2.280  1.3817 -1.5151 -3.2435
  896SOL     OW 2686   1.925   0.565   1.191 -0.2925 -0.5989  0.3354
  896SOL    HW1 2687   1.984   0.535   1.266 -1.5465  1.3119  0.4959
  896SOL    HW2 2688   1.901   0.485   1.134 -2.0793 -0.1532  1.8934
  897SOL     OW 2689   0.187   1.505   1.591 -0.2454 -0.2095 -0.9362
  897SOL    HW1 2690   0.194   1.574   1.662  0.1031 -2.4385 -0.1593
  897SOL    HW2 2691   0.176   1.535   1.493  1.6003 -1.8203  1.1943
  898SOL     OW 2692   2.037   2.568   2.174 -0.3756  0.9725 -0.0134
  898SOL    HW1 2693   2.046   2.504   2.095  0.2825 -2.4403 -0.6565
  898SOL    HW2 2694   2.026   2.513   2.259 -2.0064 -2.7082 -0.9295
  899SOL     OW 2695   1.262   1.664   1.154  0.0935 -0.0036 -0.0801
  899SOL    HW1 2696   1.299   1.754   1.119 -2.0634  2.1246 -0.4021
  899SOL    HW2 2697   1.174   1.676   1.208 -2.3869  1.2157  1.9071
  900SOL     OW 2698   1.176   2.090   2.429 -0.0642  0.1206  0.9165
  900SOL    HW1 2699   1.084   2.064   2.461 -0.7529  0.0705  0.9848
  900SOL    HW2 2700   1.177   2.178   2.375 -0.1978 -0.2109  1.3082
  901SOL     OW 2701   0.862   1.608   2.348 -0.3642  0.1019  0.2156
  901SOL    HW1 2702   0.857   1.583   2.249  0.0964  3.5020  1.2332
  901SOL    HW2 2703   0.775   1.582   2.391  2.1983 -1.9082 -2.6873
  902SOL     OW 2704   2.329   1.661   0.475  0.6679  0.0651 -0.1299
  902SOL    HW1 2705   2.365   1.582   0.425 -0.6987 -2.5164 -0.3426
  902SOL    HW2 2706   2.324   1.646   0.576 -2.0912  2.5314  0.2071
  903SOL     OW 2707   2.092   1.657   0.306 -0.1523 -0.6966  0.3891
  903SOL    HW1 2708   2.171   1.657   0.371 -0.2898 -1.3384 -0.1522
  903SOL    HW2 2709   2.010   1.698   0.344  1.0205 -0.7744 -0.3038
  904SOL     OW 2710   1.168   1.014   2.232  0.3672  0.1784  0.7963
  904SOL    HW1 2711   1.240   1.045   2.161  0.7116  0.9115  0.3620
  904SOL    HW2 2712   1.209   1.002   2.322 -2.8553  2.7287  0.6737
  905SOL     OW 2713   2.938   0.081   0.775  0.1362 -0.0201  0.1101
  905SOL    HW1 2714   2.943   0.185   0.783  0.1413  1.1993  1.2121
  905SOL    HW2 2715   3.004   0.036   0.840 -3.6988  0.5815  0.6398
  906SOL     OW 2716   0.127   1.929   0.220  0.5503  0.0551  0.5256
  906SOL    HW1 2717   0.113   1.837   0.204  0.3208  4.4501  0.6753
  906SOL    HW2 2718   0.059   1.956   0.287 -0.8886 -1.5829  1.3790
  907SOL     OW 2719   1.434   0.473   0.160 -0.2992 -0.1392 -0.1434
  907SOL    HW1 2720   1.535   0.471   0.136 -1.1961  0.3154  0.1584
  907SOL    HW2 2721   1.424   0.435   0.254  2.8337  1.1017 -0.3191
  908SOL     OW 2722   1.731   2.751   1.487  0.0736  0.2446  0.1676
  908SOL    HW1 2723   1.796   2.679   1.498 -3.1501  5.3303  0.7295
  908SOL    HW2 2724   1.672   2.768   1.570 -1.8918 -0.1529 -0.1893
  909SOL     OW 2725   2.614   0.555   1.522  0.4005  0.1787  0.7118
  909SOL    HW1 2726   2.522   0.512   1.546 -0.3306  1.7475  0.7458
  909SOL    HW2 2727   2.660   0.593   1.602  0.0018 -2.0826 -2.1410
  910SOL     OW 2728   1.180   3.089   2.450 -0.6368  0.9827  0.6630
  910SOL    HW1 2729   1.154   3.000   2.495  1.3008  0.6944  1.7301
  910SOL    HW2 2730   1.159   0.004   2.349  3.0686 -0.8380 -2.5204
  911SOL     OW 2731   2.316   1.124   2.270  0.0002  0.4965 -0.0353
  911SOL    HW1 2732   2.390   1.161   2.212  0.1936 -2.3671  1.4757
  911SOL    HW2 2733   2.243   1.190   2.288  0.4124 -2.6237  0.1107
  912SOL     OW 2734   2.489   2.028   1.542 -0.7208 -0.3415 -0.3286
  912SOL    HW1 2735   2.534   2.071   1.462 -0.0415 -0.2751  1.4303
  912SOL    HW2 2736   2.400   1.995   1.499  0.5650  0.0960 -1.6420
  913SOL     OW 2737   2.525   2.479   1.324 -0.0274  0.0318  0.5438
  913SOL    HW1 2738   2.527   2.425   1.406  0.0594 -0.2996 -2.6944
  913SOL    HW2 2739   2.585   2.557   1.337 -2.1222 -1.2973 -1.8662
  914SOL     OW 2740   2.421   1.729   1.373  0.2550  0.3063  0.3037
  914SOL    HW1 2741   2.445   1.699   1.472  1.5860  0.2796  0.0646
  914SOL    HW2 2742   2.345   1.791   1.385  1.0111 -3.6453 -2.5444
  915SOL     OW 2743   1.282   2.418   1.445  0.4225 -0.1856  0.3062
  915SOL    HW1 2744   1.204   2.366   1.488 -0.4771  0.9904 -1.4927
  915SOL    HW2 2745   1.372   2.375   1.447 -0.9850  2.1082 -0.3745
  916SOL     OW 2746   2.933   2.689   1.189 -0.2187 -0.1949 -0.0162
  916SOL    HW1 2747   3.005   2.751   1.229  1.5569  1.1957  0.7915
  916SOL    HW2 2748   2.855   2.750   1.164 -0.2448  1.1728 -0.2738
  917SOL     OW 2749   2.450   1.281   2.682 -0.0404 -0.1576  0.4528
  917SOL    HW1 2750   2.554   1.286   2.679  1.8780  0.2358 -3.4709
  917SOL    HW2 2751   2.411   1.334   2.606 -1.2956  0.3463  1.6094
  918SOL     OW 2752   1.789   1.943   2.386  0.6020  0.4304 -0.4260
  918SOL    HW1 2753   1.697   1.902   2.379  2.2244  1.3085  2.8127
  918SOL    HW2 2754   1.864   1.874   2.402  0.1338  0.9218  0.2074
  919SOL     OW 2755   1.658   2.086   1.566 -0.5924  0.5502 -0.3335
  919SOL    HW1 2756   1.678   2.102   1.661 -0.0008 -0.0706 -0.9270
  919SOL    HW2 2757   1.745   2.109   1.516  2.6652  1.5981  1.2426
  920SOL     OW 2758   0.625   0.085   2.916  0.4651  0.6363  0.2066
  920SOL    HW1 2759   0.631   0.045   2.821  1.2635 -1.2535  1.4581
  920SOL    HW2 2760   0.530   0.103   2.946 -1.6038 -2.6837 -0.2378
  921SOL     OW 2761   2.689   0.308   2.504 -0.3845 -0.0686  0.3803
  921SOL    HW1 2762   2.736   0.226   2.471  0.1999 -0.4085  1.3324
  921SOL    HW2 2763   2.653   0.364   2.426  2.4235 -2.4659 -0.3764
  922SOL     OW 2764   2.467   1.597   1.605 -0.2275 -0.1635  0.2878
  922SOL    HW1 2765   2.556   1.615   1.649 -0.4064  1.0907  1.3524
  922SOL    HW2 2766   2.391   1.611   1.673  0.7224  0.8357 -0.7098
  923SOL     OW 2767   0.980   2.106   0.169  0.3827 -0.0389 -0.4570
  923SOL    HW1 2768   0.967   2.174   0.244  0.3696  0.0824  0.6235
  923SOL    HW2 2769   1.081   2.104   0.149  0.9087 -0.5495 -3.7504
  924SOL     OW 2770   1.507   0.533   2.809 -0.4476 -0.1978  0.3547
  924SOL    HW1 2771   1.472   0.563   2.902 -0.8424  0.0026  2.4153
  924SOL    HW2 2772   1.613   0.538   2.802  1.2542  0.9500 -0.9635
  925SOL     OW 2773   2.484   0.818   0.371  0.0422  0.7208 -0.1100
  925SOL    HW1 2774   2.510   0.904   0.420  2.4906 -0.4138 -3.9348
  925SOL    HW2 2775   2.403   0.833   0.305  1.7740  1.4372 -1.3918
  926SOL     OW 2776   0.189   0.698   0.681  0.0481  0.1097 -0.2971
  926SOL    HW1 2777   0.241   0.611   0.650 -0.1684 -5.0558 -2.3760
  926SOL    HW2 2778   0.139   0.737   0.602 -0.0230  2.7923 -0.6948
  927SOL     OW 2779   0.766   1.307   0.613  0.0545 -0.1930 -0.6600
  927SOL    HW1 2780   0.702   1.262   0.549  1.2751  0.9357 -1.2765
  927SOL    HW2 2781   0.813   1.381   0.561  2.4595 -1.3099 -0.0688
  928SOL     OW 2782   0.110   0.005   2.559  0.3276  0.2745  0.0181
  928SOL    HW1 2783   0.195   3.082   2.610  1.0309  0.0851 -2.1019
  928SOL    HW2 2784   0.095   0.104   2.564  2.2039 -3.5030 -0.1751
  929SOL     OW 2785   2.540   0.182   1.316  0.1214  0.4837 -0.4669
  929SOL    HW1 2786   2.578   0.197   1.220  1.8010  3.2412 -1.4863
  929SOL    HW2 2787   2.607   0.208   1.387 -0.7604  0.1287  0.7093
  930SOL     OW 2788   1.923   2.135   1.469 -0.0206  0.6812  0.3912
  930SOL    HW1 2789   1.972   2.225   1.460 -1.8421  0.4477 -0.9189
  930SOL    HW2 2790   1.969   2.061   1.526  0.0949 -1.5186 -1.4620
  931SOL     OW 2791   1.773   1.057   1.093  0.1043  0.5335 -0.0186
  931SOL    HW1 2792   1.852   0.998   1.111 -0.6077  0.4779  1.7624
  931SOL    HW2 2793   1.799   1.150   1.069  1.0042  0.5078 -1.0479
  932SOL     OW 2794   2.839   0.806   1.071 -0.5149  0.1093  0.0386
  932SOL    HW1 2795   2.778   0.783   1.147  0.1433 -0.4354 -0.1057
  932SOL    HW2 2796   2.915   0.740   1.069 -2.5460  0.4671 -1.2426
  933SOL     OW 2797   2.582   1.764   1.956  0.0834  0.4479 -0.4506
  933SOL    HW1 2798   2.644   1.714   1.895 -1.4127  1.0157 -3.8141
  933SOL    HW2 2799   2.518   1.817   1.898  0.6909 -1.4423 -0.0846
  934SOL     OW 2800   1.674   0.063   1.165 -0.5541 -0.1805 -0.1967
  934SOL    HW1 2801   1.588   0.097   1.122  2.5555 -0.2127 -0.0486
  934SOL    HW2 2802   1.712   3.076   1.121  1.4629 -2.2767  1.9379
  935SOL     OW 2803   2.742   1.045   0.949  0.6570  0.1470 -0.4940
  935SOL    HW1 2804   2.747   0.950   0.985  1.8519  2.2302 -2.1257
  935SOL    HW2 2805   2.756   1.044   0.849  0.4376  0.4157 -0.7920
  936SOL     OW 2806   2.901   1.253   1.008  0.2486 -0.4139 -0.5005
  936SOL    HW1 2807   2.841   1.171   1.012  0.2009 -0.1028 -0.6403
  936SOL    HW2 2808   2.842   1.327   0.976  0.4050 -1.0855 -0.5772
  937SOL     OW 2809   1.506   2.798   0.605 -0.1404 -0.1830 -0.0563
  937SOL    HW1 2810   1.518   2.895   0.578 -1.1285 -1.7221 -1.5571
  937SOL    HW2 2811   1.589   2.764   0.653 -0.4608 -0.8781 -0.8744
  938SOL     OW 2812   3.064   2.411   0.711  0.5090 -0.8658 -0.0854
  938SOL    HW1 2813   2.980   2.421   0.645 -1.6875  1.7602 -0.4226
  938SOL    HW2 2814   3.041   2.451   0.802  1.2225  3.5169  1.0321
  939SOL     OW 2815   0.916   2.046   2.849  0.0361  0.1002  0.1898
  939SOL    HW1 2816   0.885   2.055   2.946  1.2669  0.8551  0.0749
  939SOL    HW2 2817   0.892   2.131   2.796  1.2061 -0.2488 -0.4796
  940SOL     OW 2818   2.661   2.708   2.693  0.8832  0.5566 -0.3435
  940SOL    HW1 2819   2.710   2.675   2.612  2.2417  0.3579  0.8151
  940SOL    HW2 2820   2.568   2.742   2.675 -1.8114  3.2039  0.7891
  941SOL     OW 2821   1.277   2.842   3.037 -0.3201 -0.5639 -0.4000
  941SOL    HW1 2822   1.230   2.937   3.042 -2.2676  1.0041 -0.7687
  941SOL    HW2 2823   1.342   2.820   0.015  2.7714 -0.5601  2.1563
  942SOL     OW 2824   1.848   1.763   1.473  0.2202 -0.3723  0.2704
  942SOL    HW1 2825   1.817   1.675   1.512 -0.1285  2.2266  0.8130
  942SOL    HW2 2826   1.783   1.792   1.400  1.9432  0.2811  3.1794
  943SOL     OW 2827   2.321   1.233   1.802  0.1107 -0.2333  0.3105
  943SOL    HW1 2828   2.390   1.166   1.823 -1.8322  2.3568 -0.9878
  943SOL    HW2 2829   2.319   1.306   1.873  1.7796 -1.9748  1.5846
  944SOL     OW 2830   2.103   0.906   1.982  0.2630 -0.1786 -0.5711
  944SOL    HW1 2831   2.112   0.962   1.898 -1.6851  0.7530  1.3302
  944SOL    HW2 2832   2.011   0.864   2.001 -0.0063 -0.5401  1.2367
  945SOL     OW 2833   0.039   0.016   1.536  0.6548 -0.4539 -0.7891
  945SOL    HW1 2834   0.107   0.016   1.463 -2.9044 -1.3055 -1.1667
  945SOL    HW2 2835   0.020   0.104   1.572 -0.9353 -2.0300 -0.4943
  946SOL     OW 2836   0.364   1.042   1.974  0.2058 -0.3265 -0.6763
  946SOL    HW1 2837   0.350   1.136   1.939 -1.5160 -3.9884 -3.0121
  946SOL    HW2 2838   0.383   1.034   2.076 -1.9835 -0.2039  1.0707
  947SOL     OW 2839   0.566   2.632   0.869 -0.5034 -0.5225 -0.4957
  947SOL    HW1 2840   0.660   2.617   0.835  2.7849  0.3954  1.4754
  947SOL    HW2 2841   0.510   2.547   0.870  2.6737 -2.9006  0.2068
  948SOL     OW 2842   0.074   1.033   1.712  0.5236 -0.0579  0.8468
  948SOL    HW1 2843   0.064   1.003   1.807  0.8454  0.4679  2.1636
  948SOL    HW2 2844   0.060   1.132   1.706 -0.2855  1.9964  0.9496
  949SOL     OW 2845   0.209   0.535   2.287 -0.2138 -0.2444 -0.3725
  949SOL    HW1 2846   0.284   0.604   2.271  2.8105 -0.0694  1.2562
  949SOL    HW2 2847   0.247   0.442   2.284 -0.9628  0.9826 -0.3420
  950SOL     OW 2848   0.594   0.630   0.927  0.4930 -0.1397  0.3069
  950SOL    HW1 2849   0.587   0.713   0.868  2.1744  0.2123 -2.0288
  950SOL    HW2 2850   0.538   0.552   0.887 -1.7680  0.2378 -0.4169
  951SOL     OW 2851   1.106   1.748   1.795 -0.4075 -0.6114 -0.2263
  951SOL    HW1 2852   1.158   1.787   1.875  0.0649 -0.4508  2.8026
  951SOL    HW2 2853   1.027   1.696   1.829  0.3522 -0.8910  0.6207
  952SOL     OW 2854   0.989   1.510   2.856 -0.0923  0.3540 -0.3453
  952SOL    HW1 2855   1.047   1.506   2.942  0.6653  0.2400  1.4449
  952SOL    HW2 2856   1.002   1.425   2.806 -1.7885  0.6129  0.8454
  953SOL     OW 2857   1.318   3.017   2.080 -0.7119 -0.7309  0.3858
  953SOL    HW1 2858   1.281   2.943   2.024  0.3761  2.3465  1.2155
  953SOL    HW2 2859   1.421   3.017   2.088 -0.0636  1.5346 -1.6889
  954SOL     OW 2860   2.435   1.272   0.523  0.4148 -0.4051  1.1380
  954SOL    HW1 2861   2.415   1.353   0.460 -0.4935  0.9535 -2.4865
  954SOL    HW2 2862   2.353   1.226   0.554  4.0525  2.8538  0.9781
  955SOL     OW 2863   0.342   2.091   2.349 -0.5425  0.1336 -0.0651
  955SOL    HW1 2864   0.418   2.143   2.393  0.3878 -1.6836  0.8001
  955SOL    HW2 2865   0.285   2.041   2.417  0.1514 -1.1481  0.9170
  956SOL     OW 2866   1.011   1.237   1.376 -0.1487  0.2012  0.1301
  956SOL    HW1 2867   1.057   1.153   1.350 -0.3789 -0.2457 -0.6149
  956SOL    HW2 2868   0.987   1.296   1.296 -0.5780 -1.2083 -1.3594
  957SOL     OW 2869   2.023   1.359   2.512 -0.4155 -0.5000  0.8854
  957SOL    HW1 2870   1.973   1.440   2.553 -0.7033  0.9524 -1.3201
  957SOL    HW2 2871   2.017   1.283   2.578 -0.1429  0.2610 -1.5652
  958SOL     OW 2872   1.633   2.456   0.859 -0.3394 -0.0730  0.0590
  958SOL    HW1 2873   1.555   2.474   0.924 -1.4388  0.6625  0.7811
  958SOL    HW2 2874   1.697   2.384   0.896  0.9717 -2.2603  1.3778
  959SOL     OW 2875   1.978   1.760   2.400 -0.0029  0.3075 -0.1839
  959SOL    HW1 2876   2.061   1.777   2.454 -3.6807 -0.0348  1.2810
  959SOL    HW2 2877   1.933   1.686   2.457  1.9736  0.5149  0.1281
  960SOL     OW 2878   0.261   0.520   3.057  0.8651  0.4708 -0.3182
  960SOL    HW1 2879   0.180   0.579   3.026 -0.3904  0.4061 -1.9783
  960SOL    HW2 2880   0.311   0.478   2.978 -1.8315  0.5066  0.3837
  961SOL     OW 2881   0.268   0.472   1.982  0.5719  0.6131 -0.4357
  961SOL    HW1 2882   0.171   0.493   2.000  0.4990  1.0879 -3.0419
  961SOL    HW2 2883   0.313   0.549   1.942 -2.0181 -2.0310  0.0238
  962SOL     OW 2884   1.294   1.598   0.272 -0.3803 -0.3042  0.0696
  962SOL    HW1 2885   1.363   1.667   0.278 -1.3414 -1.7219 -1.5897
  962SOL    HW2 2886   1.324   1.506   0.301 -1.9883  2.6099 -0.1819
  963SOL     OW 2887   1.813   2.103   2.997 -0.5768  0.1807 -0.5783
  963SOL    HW1 2888   1.881   2.176   3.022  2.2296  1.4662  0.5454
  963SOL    HW2 2889   1.735   2.147   2.944  1.6027 -0.9003  1.3025
  964SOL     OW 2890   1.133   2.992   0.659 -0.3490  0.2143 -0.1239
  964SOL    HW1 2891   1.035   2.997   0.638 -0.5105 -0.4704  0.1528
  964SOL    HW2 2892   1.177   2.986   0.567  0.4068 -2.4833 -2.6206
  965SOL     OW 2893   0.848   2.750   0.880  0.1375 -0.5857  0.3031
  965SOL    HW1 2894   0.822   2.699   0.792  0.9386 -0.6112 -0.6363
  965SOL    HW2 2895   0.771   2.809   0.904 -0.9557 -2.2859 -3.1377
  966SOL     OW 2896   2.820   1.653   2.936 -0.0428  0.9488  0.2854
  966SOL    HW1 2897   2.746   1.689   2.878  0.8250 -0.6316 -0.7170
  966SOL    HW2 2898   2.788   1.567   2.986 -2.1260 -0.8806 -0.4871
  967SOL     OW 2899   1.594   2.835   1.693  0.0830 -0.5373 -0.2443
  967SOL    HW1 2900   1.571   2.775   1.774  0.4393  2.0872  1.4546
  967SOL    HW2 2901   1.564   2.935   1.710 -0.4838  3.1768  1.4250
  968SOL     OW 2902   1.741   0.986   0.809  0.4788 -0.0706 -0.3059
  968SOL    HW1 2903   1.655   0.992   0.756  0.2144 -0.6658  0.1956
  968SOL    HW2 2904   1.741   1.052   0.886  0.2422  1.3652  0.2905
  969SOL     OW 2905   0.128   1.751   2.080 -0.0783 -0.3643  0.4706
  969SOL    HW1 2906   0.060   1.774   2.008  0.1900 -3.2034  1.8975
  969SOL    HW2 2907   0.212   1.807   2.068 -1.2533  2.7792 -4.0412
  970SOL     OW 2908   2.934   1.570   1.434  0.2540  0.2115 -0.1583
  970SOL    HW1 2909   2.997   1.539   1.357 -2.1869  0.3581  2.2613
  970SOL    HW2 2910   2.900   1.491   1.487 -0.8416 -1.9822  1.8467
  971SOL     OW 2911   1.495   0.325   1.610 -0.4875 -0.4477  0.1586
  971SOL    HW1 2912   1.538   0.326   1.517 -1.1245  0.6359 -0.0753
  971SOL    HW2 2913   1.560   0.356   1.680  0.0272 -1.4728 -0.8082
  972SOL     OW 2914   0.941   0.273   2.414  0.2809 -0.0684 -0.2856
  972SOL    HW1 2915   1.019   0.289   2.482  1.5150 -0.0215  2.0169
  972SOL    HW2 2916   0.909   0.357   2.366 -0.0302 -1.4277  2.0113
  973SOL     OW 2917   2.871   1.311   0.502 -0.1949  0.0571  0.3743
  973SOL    HW1 2918   2.897   1.304   0.407 -0.6253  1.6059  0.9150
  973SOL    HW2 2919   2.900   1.227   0.554 -0.8566 -1.0221  3.0868
  974SOL     OW 2920   1.860   1.365   2.004  0.1171  0.0379  0.5544
  974SOL    HW1 2921   1.776   1.422   2.010 -1.1860  2.2862 -1.7001
  974SOL    HW2 2922   1.838   1.272   2.039 -0.3312 -1.0736 -1.0006
  975SOL     OW 2923   0.003   2.894   0.587  0.0149 -0.2222  0.5980
  975SOL    HW1 2924   3.070   2.873   0.678 -0.1212  1.1698 -1.8739
  975SOL    HW2 2925   3.042   2.971   0.552  0.2618 -0.1338  0.6271
  976SOL     OW 2926   3.049   1.795   1.872  0.3307 -0.2067  0.0470
  976SOL    HW1 2927   3.063   1.759   1.778 -2.2848  1.3718  2.2557
  976SOL    HW2 2928   3.003   1.893   1.869 -0.5840  2.4505 -0.3594
  977SOL     OW 2929   0.858   2.777   0.026 -0.0444 -0.1493 -0.4382
  977SOL    HW1 2930   0.925   2.852   0.057 -0.9454  0.3505 -1.9578
  977SOL    HW2 2931   0.772   2.816   3.082 -0.4476 -1.7568 -1.5896
  978SOL     OW 2932   0.618   1.758   3.077  0.2097  0.4378 -0.1873
  978SOL    HW1 2933   0.576   1.732   0.070 -0.9395  2.1790  4.9628
  978SOL    HW2 2934   0.675   1.845   3.082  0.6162 -0.4103  0.5014
  979SOL     OW 2935   1.266   2.268   1.121 -0.3479 -0.3788  0.3281
  979SOL    HW1 2936   1.319   2.181   1.126 -0.7253  0.9129  0.4501
  979SOL    HW2 2937   1.234   2.277   1.024 -1.7367 -2.8990  0.8254
  980SOL     OW 2938   0.186   1.327   2.463  0.2465  0.0788  0.3470
  980SOL    HW1 2939   0.211   1.395   2.534 -0.8351  0.6329  0.3237
  980SOL    HW2 2940   0.260   1.315   2.394 -1.5084 -1.0871 -0.0996
  981SOL     OW 2941   2.724   0.775   3.045 -0.0647  0.0434 -0.5182
  981SOL    HW1 2942   2.793   0.830   3.097 -1.2004 -0.0420 -0.7606
  981SOL    HW2 2943   2.762   0.688   3.008  0.5762 -0.5558 -1.8509
  982SOL     OW 2944   2.825   2.891   2.816 -0.0022 -0.3149 -0.5779
  982SOL    HW1 2945   2.885   2.926   2.742 -2.6384  0.1212  0.4610
  982SOL    HW2 2946   2.775   2.813   2.774 -0.5785  1.6521  0.0951
  983SOL     OW 2947   2.121   0.502   1.376 -0.8471 -0.0155  0.1093
  983SOL    HW1 2948   2.163   0.580   1.419  0.7300  0.4226  1.6052
  983SOL    HW2 2949   2.143   0.418   1.429  2.3836  2.0510 -0.2371
  984SOL     OW 2950   0.868   0.136   2.187 -0.1990  0.1120 -0.2783
  984SOL    HW1 2951   0.863   0.193   2.275 -0.0571 -2.2441  1.1975
  984SOL    HW2 2952   0.954   0.081   2.183 -0.7021  0.9041  0.0424
  985SOL     OW 2953   1.399   2.015   1.983 -0.0786 -0.1203  0.2977
  985SOL    HW1 2954   1.456   1.934   1.995  2.7567  1.8749 -1.3327
  985SOL    HW2 2955   1.414   2.079   2.060  1.9989  0.0476 -0.6868
  986SOL     OW 2956   2.029   0.367   2.142 -0.1472  0.1246  0.5036
  986SOL    HW1 2957   1.983   0.414   2.220 -1.3344 -1.1072 -0.6594
  986SOL    HW2 2958   2.106   0.313   2.173 -0.9972  1.1687 -0.3689
  987SOL     OW 2959   2.353   0.392   2.307  0.2091  0.0858 -0.2814
  987SOL    HW1 2960   2.276   0.334   2.340  0.2514  0.0936  1.0228
  987SOL    HW2 2961   2.369   0.363   2.212 -2.3576  1.9103  1.5615
  988SOL     OW 2962   2.618   0.487   2.340 -0.0355  0.4200 -0.3102
  988SOL    HW1 2963   2.665   0.569   2.374 -1.4482 -0.9276 -1.9263
  988SOL    HW2 2964   2.520   0.493   2.363  2.2915  1.0334 -0.3550
  989SOL     OW 2965   2.392   2.351   2.844  0.3164  0.5026  0.6212
  989SOL    HW1 2966   2.469   2.301   2.883 -0.1402  0.5998  2.7593
  989SOL    HW2 2967   2.387   2.330   2.743  0.1421 -0.6431 -2.1027
  990SOL     OW 2968   0.391   0.730   0.105  0.3731 -0.1975  0.1997
  990SOL    HW1 2969   0.357   0.638   0.070 -6.0002 -2.9198  1.4195
  990SOL    HW2 2970   0.337   0.806   0.061 -1.4769  2.7324  1.8653
  991SOL     OW 2971   0.609   0.568   2.750 -0.2664 -0.0479 -0.2892
  991SOL    HW1 2972   0.641   0.469   2.759  1.1333 -2.4887 -1.5230
  991SOL    HW2 2973   0.639   0.620   2.827 -3.6773 -1.4153 -0.1916
  992SOL     OW 2974   2.967   1.700   2.182 -0.3245  0.2028  0.0556
  992SOL    HW1 2975   3.064   1.714   2.154  0.5335  0.1056 -1.6382
  992SOL    HW2 2976   2.918   1.647   2.114 -0.8084  2.1346  0.1148
  993SOL     OW 2977   0.486   3.074   0.830 -0.9954 -0.0460  0.0765
  993SOL    HW1 2978   0.424   3.096   0.750  0.6975  0.4656 -2.0826
  993SOL    HW2 2979   0.537   0.060   0.850 -0.3386  3.7042  2.4378
  994SOL     OW 2980   0.417   2.024   1.795 -0.2831 -0.4758  0.3610
  994SOL    HW1 2981   0.335   2.074   1.764 -1.9870  1.5771 -0.3077
  994SOL    HW2 2982   0.480   2.003   1.717  0.5869  0.7737  0.4531
  995SOL     OW 2983   2.446   1.825   0.012 -0.2008  0.3247  0.1589
  995SOL    HW1 2984   2.470   1.899   3.043  0.9607  1.8317 -1.3996
  995SOL    HW2 2985   2.376   1.857   0.079 -0.0531 -2.5138  1.7484
  996SOL     OW 2986   1.858   1.580   2.541 -0.4534  0.0851 -0.2836
  996SOL    HW1 2987   1.820   1.562   2.633 -0.9065 -1.2094  2.0059
  996SOL    HW2 2988   1.796   1.540   2.468 -0.6829 -0.3665 -0.2835
  997SOL     OW 2989   1.886   1.383   1.719  0.2054 -0.1043 -0.5438
  997SOL    HW1 2990   1.861   1.393   1.816  0.8433 -2.3092  1.5838
  997SOL    HW2 2991   1.907   1.287   1.695 -0.2322 -0.1166 -1.3181
  998SOL     OW 2992   2.470   1.997   0.648  0.1441  0.7630 -0.0014
  998SOL    HW1 2993   2.368   1.992   0.670 -4.4441 -0.4693  0.0892
  998SOL    HW2 2994   2.485   1.941   0.565 -0.8289 -0.1329 -1.1729
  999SOL     OW 2995   2.434   2.706   0.558  0.1736  0.1833 -0.5168
  999SOL    HW1 2996   2.455   2.809   0.544 -0.9931  3.3540  0.0022
  999SOL    HW2 2997   2.458   2.651   0.475 -0.7294 -2.6519 -1.7215
 1000SOL     OW 2998   0.796   2.981   2.396 -0.3797  0.1238 -0.0722
 1000SOL    HW1 2999   0.777   3.081   2.402  0.6374 -1.7814 -0.6211
 1000SOL    HW2 3000   0.817   2.954   2.300  0.1328  0.1179  1.6186
   3.10015   3.10015   3.10015
