1000 SPC/Fw water molecules t= 238.00000 step= 238000
 3000
    1SOL     OW    1   2.979   2.817   1.068 -0.6000  0.4408  0.3404
    1SOL    HW1    2   2.934   2.892   1.015 -0.3101 -0.8144 -0.7217
    1SOL    HW2    3   2.966   2.721   1.028 -0.7984 -1.9619  0.3792
    2SOL     OW    4   1.908   1.800   1.337 -0.3564  0.4640 -0.1859
    2SOL    HW1    5   1.819   1.778   1.383 -1.2599 -0.0153  2.9327
    2SOL    HW2    6   1.979   1.732   1.359 -0.2287  1.3757  2.2192
    3SOL     OW    7   1.650   2.494   2.839  0.0018  0.3130  0.6244
    3SOL    HW1    8   1.596   2.582   2.843  0.6579  1.5755  1.3822
    3SOL    HW2    9   1.731   2.497   2.779 -1.5785  0.7562 -1.6870
    4SOL     OW   10   1.900   1.998   2.057 -0.2892  0.2534 -0.3893
    4SOL    HW1   11   1.808   1.966   2.085  0.7217  1.4708 -0.2076
    4SOL    HW2   12   1.972   1.947   2.110 -0.2840 -0.4277 -1.2846
    5SOL     OW   13   1.336   1.223   1.499  0.1241 -0.5926 -0.4231
    5SOL    HW1   14   1.322   1.246   1.401 -0.1782  0.5012  2.8903
    5SOL    HW2   15   1.278   1.144   1.528 -1.8460 -3.3769 -0.1972
    6SOL     OW   16   2.332   0.052   0.080  0.0203  0.0745  0.4475
    6SOL    HW1   17   2.386   0.089   0.001 -4.9473 -0.3271 -0.5438
    6SOL    HW2   18   2.363   3.075   0.104  1.0229  2.0671 -0.2805
    7SOL     OW   19   2.875   1.588   1.655  0.1996 -0.3169  0.5823
    7SOL    HW1   20   2.863   1.562   1.754  0.5981 -1.2005  2.1930
    7SOL    HW2   21   2.956   1.534   1.615  0.2926  0.5644  0.3193
    8SOL     OW   22   1.135   0.490   1.086  0.2171  0.0063 -0.3238
    8SOL    HW1   23   1.128   0.579   1.035 -1.4079  1.5368  0.8552
    8SOL    HW2   24   1.193   0.425   1.032  1.4562 -2.6351  0.4406
    9SOL     OW   25   1.559   0.284   2.636 -0.2505 -0.6486 -0.3157
    9SOL    HW1   26   1.461   0.319   2.636 -2.7288  0.5161 -0.7754
    9SOL    HW2   27   1.612   0.325   2.560  0.1404 -3.0820  2.1908
   10SOL     OW   28   0.554   2.195   0.132 -0.2314 -0.6762  0.3052
   10SOL    HW1   29   0.504   2.105   0.114  0.2319 -3.5419  2.5697
   10SOL    HW2   30   0.563   2.211   0.234  1.0393  0.3058  2.3205
   11SOL     OW   31   1.032   0.909   0.284  0.2444 -0.1693 -0.4639
   11SOL    HW1   32   0.933   0.928   0.292  0.6016 -0.4265 -1.2508
   11SOL    HW2   33   1.085   0.996   0.280 -4.4766 -0.6630 -0.0205
   12SOL     OW   34   0.068   0.174   1.568  0.1847  0.4968  0.5000
   12SOL    HW1   35   0.012   0.238   1.622 -1.9290 -0.5084 -0.6258
   12SOL    HW2   36   0.158   0.219   1.555 -0.6282 -0.1287 -2.3875
   13SOL     OW   37   1.299   0.021   0.158 -0.0041 -0.3293  0.1689
   13SOL    HW1   38   1.226   0.051   0.094  1.7350  0.1811 -0.5917
   13SOL    HW2   39   1.292   0.053   0.252  0.1859 -0.8950 -0.8725
   14SOL     OW   40   1.260   2.363   1.180 -0.0469 -0.1368 -0.0977
   14SOL    HW1   41   1.287   2.397   1.273 -2.5786 -2.1418  1.9494
   14SOL    HW2   42   1.337   2.305   1.140 -0.0104 -2.0396 -0.1488
   15SOL     OW   43   2.577   1.092   1.596 -0.0423  0.5324  0.3523
   15SOL    HW1   44   2.674   1.118   1.574  1.3379 -0.4910  1.2446
   15SOL    HW2   45   2.568   1.012   1.661 -0.0759 -2.7058 -0.4586
   16SOL     OW   46   1.905   2.763   3.039  0.5592 -0.4342 -0.3449
   16SOL    HW1   47   1.866   2.858   3.026  0.4225  1.6102  1.3664
   16SOL    HW2   48   1.841   2.690   3.067 -2.0812 -2.3590 -0.3502
   17SOL     OW   49   0.937   3.098   1.331 -0.1554  0.1937 -0.3725
   17SOL    HW1   50   1.027   3.066   1.292 -2.7015  2.3313  0.1035
   17SOL    HW2   51   0.890   3.020   1.380  0.8707 -1.1597 -0.9160
   18SOL     OW   52   1.470   0.588   2.925 -0.0701  0.3710 -0.1772
   18SOL    HW1   53   1.430   0.494   2.959 -0.0157 -3.0758  2.4069
   18SOL    HW2   54   1.505   0.625   3.011 -0.7589 -1.9865  1.0653
   19SOL     OW   55   2.047   2.030   3.045  0.3302  0.5057 -0.1075
   19SOL    HW1   56   2.051   1.932   3.078  1.1469 -0.7780 -1.9079
   19SOL    HW2   57   2.112   2.093   3.090  0.0461 -2.0096  0.4034
   20SOL     OW   58   1.941   1.536   1.654 -0.3012  0.2341  0.1589
   20SOL    HW1   59   2.004   1.454   1.653  2.7671  0.6867 -3.7302
   20SOL    HW2   60   1.847   1.507   1.642 -0.0827 -0.5429  0.6327
   21SOL     OW   61   0.712   1.412   2.886  0.3171  0.0632  0.1041
   21SOL    HW1   62   0.793   1.475   2.871 -0.2618  0.9866 -0.5322
   21SOL    HW2   63   0.721   1.333   2.952 -1.0537  0.1197  0.0145
   22SOL     OW   64   2.001   2.819   1.387  0.4329 -0.0345  0.2548
   22SOL    HW1   65   1.900   2.822   1.391 -1.2824 -0.6952 -1.9479
   22SOL    HW2   66   2.037   2.887   1.315  2.7997  2.0559 -0.3470
   23SOL     OW   67   0.009   0.624   1.702  0.3937 -0.1973  0.4657
   23SOL    HW1   68   0.100   0.625   1.651  2.5370 -1.6288  1.8606
   23SOL    HW2   69   3.048   0.604   1.637 -0.6428  1.3544  0.9368
   24SOL     OW   70   2.168   2.656   1.035 -0.1863  0.2890  0.5014
   24SOL    HW1   71   2.179   2.650   1.134 -0.5509 -0.2914 -1.7145
   24SOL    HW2   72   2.109   2.585   0.997 -1.0859 -3.5741 -0.3131
   25SOL     OW   73   1.405   2.715   2.731 -0.3554 -0.0043  0.1145
   25SOL    HW1   74   1.487   2.735   2.677 -0.9215 -0.0121  1.5642
   25SOL    HW2   75   1.336   2.695   2.661  1.5630 -0.1549  1.8017
   26SOL     OW   76   1.884   2.802   2.729 -0.4846 -0.0681  0.0583
   26SOL    HW1   77   1.969   2.836   2.682 -0.0306 -4.3789 -1.0228
   26SOL    HW2   78   1.854   2.860   2.808 -0.2778  2.2011  2.5939
   27SOL     OW   79   0.213   1.804   2.635 -0.1050 -0.0551 -0.0236
   27SOL    HW1   80   0.164   1.895   2.637 -0.2923 -0.0156  0.0860
   27SOL    HW2   81   0.143   1.726   2.639 -2.0987  0.8170  0.9927
   28SOL     OW   82   2.847   1.113   1.523 -0.3887 -0.0168 -0.4890
   28SOL    HW1   83   2.845   1.166   1.437  3.1444 -0.9770  2.6440
   28SOL    HW2   84   2.922   1.152   1.583 -1.4357  2.6297 -0.1563
   29SOL     OW   85   2.423   2.495   1.637 -0.4152 -0.0001  0.3553
   29SOL    HW1   86   2.427   2.397   1.669 -0.8461  0.7433  0.0485
   29SOL    HW2   87   2.467   2.562   1.701 -2.1573  0.8763  1.6322
   30SOL     OW   88   1.371   0.354   3.023 -0.5809  0.1020  0.2798
   30SOL    HW1   89   1.345   0.402   3.111  1.9847  1.9868  2.6023
   30SOL    HW2   90   1.471   0.328   3.030  1.1185 -0.2281  0.5116
   31SOL     OW   91   2.560   2.690   1.777 -0.0038 -0.2831 -0.3826
   31SOL    HW1   92   2.509   2.773   1.810 -1.7187  1.0602  0.4990
   31SOL    HW2   93   2.616   2.718   1.699 -1.5775  0.4945  2.3632
   32SOL     OW   94   0.955   1.595   1.476  0.1307 -0.1129 -0.2960
   32SOL    HW1   95   0.861   1.614   1.509 -1.3633 -0.8697  1.1919
   32SOL    HW2   96   0.969   1.618   1.379 -0.7241 -2.6598  1.3751
   33SOL     OW   97   0.439   2.685   2.195  0.4660  0.4649  0.4591
   33SOL    HW1   98   0.442   2.585   2.198 -1.5791  1.2596  1.0906
   33SOL    HW2   99   0.376   2.707   2.115  1.5839 -2.5777 -0.0706
   34SOL     OW  100   1.564   3.108   0.604 -0.0907 -0.0750 -0.3673
   34SOL    HW1  101   1.479   0.043   0.634 -1.3277  0.7941  0.0586
   34SOL    HW2  102   1.637   3.100   0.680  3.7548 -0.3693 -2.6270
   35SOL     OW  103   2.079   0.009   0.847 -0.0571 -0.4188 -0.3406
   35SOL    HW1  104   2.022   3.084   0.775 -2.5105  4.0426 -0.3795
   35SOL    HW2  105   2.020   0.074   0.896  0.6104 -0.5837 -0.0723
   36SOL     OW  106   1.941   2.532   2.247 -0.7112  0.3895  0.5913
   36SOL    HW1  107   1.888   2.461   2.304 -0.6404 -1.8836  3.0420
   36SOL    HW2  108   1.995   2.486   2.172  1.2087  2.3379 -3.2347
   37SOL     OW  109   0.744   2.849   2.486 -0.5581  0.4501 -0.4187
   37SOL    HW1  110   0.687   2.858   2.405 -0.6264 -0.7130  4.4809
   37SOL    HW2  111   0.694   2.878   2.567  1.4538  0.1237  0.5872
   38SOL     OW  112   0.150   2.675   2.503  0.7108  0.8510  0.1057
   38SOL    HW1  113   0.186   2.582   2.487 -1.1154  1.4270 -0.6639
   38SOL    HW2  114   0.206   2.746   2.457  0.0651 -1.9316 -0.7402
   39SOL     OW  115   2.538   1.268   2.126  0.3625  0.1843 -0.1468
   39SOL    HW1  116   2.533   1.298   2.033 -0.5396 -1.6902  1.5770
   39SOL    HW2  117   2.452   1.276   2.176  0.3189  2.1583  2.5150
   40SOL     OW  118   0.325   2.823   3.112  0.2780  0.0889 -0.0701
   40SOL    HW1  119   0.414   2.826   0.056  0.6904  1.1969  3.4184
   40SOL    HW2  120   0.255   2.769   0.051 -2.5201  0.9463  0.7785
   41SOL     OW  121   1.868   0.675   1.019 -0.1785  0.4604 -0.0442
   41SOL    HW1  122   1.969   0.702   1.031  2.7675  0.5458  1.5918
   41SOL    HW2  123   1.821   0.721   0.936 -0.7795  0.8597 -1.2185
   42SOL     OW  124   0.528   0.362   1.065 -0.3934  0.2272 -0.7467
   42SOL    HW1  125   0.597   0.429   1.033 -2.7592  3.3531 -0.4640
   42SOL    HW2  126   0.439   0.399   1.038  3.6234  0.2987  1.9607
   43SOL     OW  127   2.643   1.415   2.973 -0.2835 -0.3687  0.3828
   43SOL    HW1  128   2.617   1.315   2.960 -1.6689  0.4154  0.3089
   43SOL    HW2  129   2.701   1.436   2.896 -4.2682 -1.2140  1.0519
   44SOL     OW  130   3.067   2.905   0.681  0.0978  0.1311  0.7032
   44SOL    HW1  131   0.042   2.908   0.719 -5.1896  3.5791 -4.3273
   44SOL    HW2  132   3.000   2.855   0.738  0.4547 -1.4635 -0.6993
   45SOL     OW  133   0.161   2.841   1.493 -0.1090  0.3046 -0.0220
   45SOL    HW1  134   0.171   2.911   1.561  1.2569  0.6752  0.4067
   45SOL    HW2  135   0.143   2.892   1.405  1.8407  1.6934 -1.4136
   46SOL     OW  136   2.379   2.546   2.390 -0.6177  0.5318  0.0092
   46SOL    HW1  137   2.365   2.439   2.400 -0.6020 -1.0537  1.1388
   46SOL    HW2  138   2.297   2.594   2.423 -0.3128 -2.8368  0.7564
   47SOL     OW  139   2.223   2.031   1.062  0.6351  0.7594 -0.2223
   47SOL    HW1  140   2.158   2.109   1.052 -1.6534 -1.1270 -1.3930
   47SOL    HW2  141   2.166   1.945   1.058 -1.0409  1.3685 -2.2450
   48SOL     OW  142   0.527   1.536   0.192  0.0850  0.5030 -0.3739
   48SOL    HW1  143   0.618   1.524   0.142  2.1034 -3.3489 -0.9439
   48SOL    HW2  144   0.517   1.461   0.262  1.7204 -1.3678 -0.7779
   49SOL     OW  145   2.954   0.325   2.543  0.8663  0.2077  0.0735
   49SOL    HW1  146   2.853   0.335   2.573 -2.2094  1.7545  4.8484
   49SOL    HW2  147   2.969   0.368   2.449  0.2251  0.4443 -0.6891
   50SOL     OW  148   2.243   0.855   0.235  0.3749 -0.5023  0.0216
   50SOL    HW1  149   2.150   0.885   0.228  3.6405 -1.7486 -0.9133
   50SOL    HW2  150   2.286   0.906   0.157  1.1180  1.6140  0.4927
   51SOL     OW  151   2.138   0.720   1.070 -0.2827 -0.4453 -0.4287
   51SOL    HW1  152   2.189   0.799   1.116  0.7381 -0.7377  3.7568
   51SOL    HW2  153   2.191   0.638   1.082  1.5497 -0.4735  1.3897
   52SOL     OW  154   1.330   1.319   2.914  0.2148  0.0240  0.5945
   52SOL    HW1  155   1.379   1.358   2.831  0.4731  2.5245 -1.4997
   52SOL    HW2  156   1.343   1.217   2.927  3.9743 -0.2812 -2.2854
   53SOL     OW  157   0.618   1.596   1.995 -0.5026  0.1543 -0.1341
   53SOL    HW1  158   0.551   1.538   2.047  0.2628 -0.5436  0.4837
   53SOL    HW2  159   0.653   1.537   1.917  0.4839 -0.4718 -1.6077
   54SOL     OW  160   2.163   0.404   1.023  0.7160  0.2134  0.0770
   54SOL    HW1  161   2.165   0.373   0.928  3.8670 -0.7442  1.2029
   54SOL    HW2  162   2.256   0.442   1.044  1.0821  2.1441 -1.4144
   55SOL     OW  163   2.437   2.312   1.133  0.7388  0.7358  0.6817
   55SOL    HW1  164   2.446   2.210   1.149  0.8925 -0.7634  2.6261
   55SOL    HW2  165   2.401   2.322   1.039  2.8090  0.5401  1.4779
   56SOL     OW  166   0.993   3.088   1.718 -0.2191  0.4007  0.3756
   56SOL    HW1  167   1.046   3.112   1.802 -1.8624 -1.7911  0.0445
   56SOL    HW2  168   1.033   3.109   1.626  0.8783 -0.1146 -1.6576
   57SOL     OW  169   1.682   1.502   0.049 -0.1364  0.1950 -0.0831
   57SOL    HW1  170   1.636   1.518   3.074 -0.3130  0.5155 -0.8598
   57SOL    HW2  171   1.785   1.517   0.042  4.5534 -0.3933  0.5512
   58SOL     OW  172   3.111   0.796   2.406 -0.4857  0.5443  0.3287
   58SOL    HW1  173   0.062   0.730   2.357 -0.7469 -0.4116  2.4407
   58SOL    HW2  174   0.054   0.862   2.462  1.8561  0.7981  3.3041
   59SOL     OW  175   0.810   2.604   2.759  0.0693  0.0228 -0.0079
   59SOL    HW1  176   0.906   2.647   2.761  1.0332  2.8472 -2.2772
   59SOL    HW2  177   0.815   2.507   2.730  0.1329 -0.5419  0.5837
   60SOL     OW  178   2.544   2.435   0.708 -0.3176 -0.4997 -0.0574
   60SOL    HW1  179   2.554   2.519   0.771 -0.3552  1.9507  1.9519
   60SOL    HW2  180   2.573   2.454   0.614  0.3899 -1.7572  1.4227
   61SOL     OW  181   1.210   2.133   0.690 -0.5246  0.0343 -0.6985
   61SOL    HW1  182   1.212   2.236   0.684 -0.1188  1.7087 -2.0780
   61SOL    HW2  183   1.201   2.089   0.599 -0.3023 -0.3682 -0.5770
   62SOL     OW  184   2.151   2.220   2.581 -0.1129 -0.0179  0.2485
   62SOL    HW1  185   2.187   2.169   2.664  0.0058 -0.2149 -0.6804
   62SOL    HW2  186   2.082   2.164   2.538  2.0653 -2.4064  2.1441
   63SOL     OW  187   2.173   2.821   3.074  0.0385 -0.0237  0.3249
   63SOL    HW1  188   2.078   2.794   3.067 -0.3578  0.2907 -0.6832
   63SOL    HW2  189   2.207   2.878   2.994 -1.5527  0.3480 -1.5236
   64SOL     OW  190   1.290   0.755   2.780 -0.3598  0.2702 -0.3371
   64SOL    HW1  191   1.348   0.690   2.839  1.3717  1.9844 -1.1207
   64SOL    HW2  192   1.313   0.765   2.678  1.3283  2.4792 -0.6259
   65SOL     OW  193   1.358   2.600   0.055 -0.1613 -0.1995  0.1641
   65SOL    HW1  194   1.280   2.593   3.101 -0.9595 -1.3966  1.3293
   65SOL    HW2  195   1.398   2.691   0.071 -0.0995  0.7090  0.3635
   66SOL     OW  196   0.350   1.304   1.765  0.1240  0.1787  0.1357
   66SOL    HW1  197   0.310   1.210   1.793 -1.0503 -1.6536  3.1943
   66SOL    HW2  198   0.282   1.377   1.775  0.0979  0.7778 -2.2135
   67SOL     OW  199   2.799   2.831   2.847  0.2862 -0.4009 -0.4051
   67SOL    HW1  200   2.703   2.837   2.871  3.2845 -0.4914 -1.6971
   67SOL    HW2  201   2.811   2.878   2.760  0.4972  2.0502 -0.2211
   68SOL     OW  202   0.677   2.394   1.232 -0.3874  0.6487 -0.2969
   68SOL    HW1  203   0.687   2.362   1.328 -1.0684 -1.1329 -1.5601
   68SOL    HW2  204   0.770   2.420   1.193 -0.6980 -0.3730 -1.0734
   69SOL     OW  205   0.559   2.207   0.421 -0.5062  0.3052  0.1830
   69SOL    HW1  206   0.592   2.300   0.434  0.0876 -1.6698  1.1497
   69SOL    HW2  207   0.619   2.151   0.479 -1.9309  1.2648 -2.5948
   70SOL     OW  208   2.508   1.135   2.675 -0.0658 -0.0992 -0.2698
   70SOL    HW1  209   2.571   1.054   2.663  1.5105 -0.6488 -1.5173
   70SOL    HW2  210   2.423   1.125   2.615  1.3774 -1.3070  0.0719
   71SOL     OW  211   0.727   1.011   2.533  0.3962 -0.3605 -0.0511
   71SOL    HW1  212   0.697   0.969   2.444  3.4464  0.8764  1.6660
   71SOL    HW2  213   0.726   1.114   2.524  0.5609  1.0194 -1.4051
   72SOL     OW  214   0.303   2.176   0.391 -0.2156 -0.2404 -0.3316
   72SOL    HW1  215   0.397   2.208   0.429  0.4333  3.0657  0.9494
   72SOL    HW2  216   0.298   2.209   0.293 -0.2992 -0.1722  0.0396
   73SOL     OW  217   1.129   1.416   0.375 -0.3407 -0.2010 -0.2801
   73SOL    HW1  218   1.120   1.443   0.472 -0.5696 -2.1330  0.2277
   73SOL    HW2  219   1.224   1.416   0.334  0.5688  3.9850 -2.4479
   74SOL     OW  220   2.604   0.029   0.233  0.1869  0.2008 -0.4850
   74SOL    HW1  221   2.531   0.038   0.165  0.0790  2.4206 -0.2041
   74SOL    HW2  222   2.613   0.118   0.284  1.0177 -0.6665  2.0830
   75SOL     OW  223   2.241   1.686   2.119 -0.2285 -0.1835 -0.4857
   75SOL    HW1  224   2.190   1.650   2.038  0.9736 -1.9060 -1.0251
   75SOL    HW2  225   2.342   1.698   2.100 -1.0297 -1.6752  1.7642
   76SOL     OW  226   2.002   2.564   1.576 -0.4079  0.1293 -0.1430
   76SOL    HW1  227   1.915   2.611   1.550  0.7561 -1.6978  1.6089
   76SOL    HW2  228   2.075   2.635   1.572  2.1295 -0.5713 -0.1437
   77SOL     OW  229   2.482   0.454   1.353 -0.1648  0.3600  0.5094
   77SOL    HW1  230   2.493   0.353   1.365 -0.9572 -2.1024 -1.5181
   77SOL    HW2  231   2.474   0.503   1.439 -0.3575  0.5575 -2.5011
   78SOL     OW  232   2.024   0.907   2.965 -0.6450  0.0681  0.1218
   78SOL    HW1  233   1.998   0.871   3.054  2.8451  1.2680  0.2687
   78SOL    HW2  234   2.019   0.825   2.895  1.7012 -2.2601 -1.5823
   79SOL     OW  235   0.293   1.497   2.295 -0.2582 -0.1629 -0.1246
   79SOL    HW1  236   0.282   1.598   2.273 -1.1400  1.6366 -0.1304
   79SOL    HW2  237   0.351   1.454   2.222 -2.7176  0.4128  1.0208
   80SOL     OW  238   1.602   1.002   1.288  0.0824 -0.1800  0.0294
   80SOL    HW1  239   1.661   1.011   1.204 -0.2269  1.5250  0.7913
   80SOL    HW2  240   1.522   0.947   1.271  1.5974  1.9379  0.3119
   81SOL     OW  241   1.126   0.354   1.311 -0.2462  0.1738  0.9351
   81SOL    HW1  242   1.037   0.379   1.351 -1.4261 -0.7860 -1.7286
   81SOL    HW2  243   1.138   0.398   1.217 -1.0796  0.6090 -0.3269
   82SOL     OW  244   1.334   2.357   1.907 -0.0251 -0.4475  0.5571
   82SOL    HW1  245   1.328   2.267   1.953  1.5405 -1.3508 -0.0920
   82SOL    HW2  246   1.275   2.346   1.826  2.6166 -0.1516  2.2963
   83SOL     OW  247   0.719   0.068   0.725 -0.1406  0.4297  0.0234
   83SOL    HW1  248   0.789   0.045   0.802  0.2665 -0.9823  2.1677
   83SOL    HW2  249   0.710   0.169   0.722 -1.8071  0.6725  0.9812
   84SOL     OW  250   0.175   0.924   3.059 -0.5513  0.2296  0.5751
   84SOL    HW1  251   0.277   0.933   3.061 -1.2632  0.1397 -0.7170
   84SOL    HW2  252   0.130   1.011   3.048  1.3924 -1.1266  0.2012
   85SOL     OW  253   2.789   2.538   1.815 -0.1215  0.0185  0.8048
   85SOL    HW1  254   2.831   2.580   1.734 -2.3322 -2.0423  2.5237
   85SOL    HW2  255   2.709   2.595   1.841  1.6589 -1.3710  1.3848
   86SOL     OW  256   2.934   2.655   1.604 -0.0619  0.1545  0.2772
   86SOL    HW1  257   2.969   2.731   1.661 -1.0159 -2.2006 -1.1271
   86SOL    HW2  258   2.974   2.659   1.508 -3.4857 -0.1830  1.8050
   87SOL     OW  259   0.036   2.988   0.031  0.4526  0.0019 -0.0549
   87SOL    HW1  260   0.104   2.943   3.086  2.4663 -1.3202 -0.1264
   87SOL    HW2  261   3.063   2.939   0.026 -0.6891  0.6142  2.9468
   88SOL     OW  262   0.347   1.990   1.201 -0.1852  0.5858 -0.6450
   88SOL    HW1  263   0.366   2.093   1.197 -1.1296  3.6229  0.5987
   88SOL    HW2  264   0.275   1.967   1.132  0.4505 -0.5554 -1.9200
   89SOL     OW  265   1.143   0.805   1.831  0.1121 -0.0850 -0.1034
   89SOL    HW1  266   1.122   0.719   1.780  1.4020 -0.2024  1.1405
   89SOL    HW2  267   1.243   0.828   1.818  3.0558  1.5336 -1.9019
   90SOL     OW  268   2.792   1.639   2.104 -0.2517 -0.1745 -0.8937
   90SOL    HW1  269   2.789   1.651   2.206 -0.6337  1.0923  2.6692
   90SOL    HW2  270   2.839   1.720   2.067 -0.3137 -3.3802 -1.5476
   91SOL     OW  271   1.430   1.759   0.784  0.7236 -0.0088 -0.1310
   91SOL    HW1  272   1.468   1.767   0.881 -1.7888 -1.3761  2.2919
   91SOL    HW2  273   1.337   1.712   0.788  0.4557 -1.4467  0.3677
   92SOL     OW  274   2.383   0.560   1.127 -0.4331  0.2262 -0.4377
   92SOL    HW1  275   2.461   0.627   1.115  0.4084  0.4736 -0.9653
   92SOL    HW2  276   2.385   0.532   1.224  0.4368 -0.6405  0.8169
   93SOL     OW  277   2.502   1.619   3.112 -0.1100 -0.4550  0.2144
   93SOL    HW1  278   2.411   1.606   3.068 -1.5991 -0.1898 -3.3592
   93SOL    HW2  279   2.564   1.550   3.081  0.1834  5.8686 -0.0516
   94SOL     OW  280   2.351   2.283   2.417 -0.6340  0.1954  0.0766
   94SOL    HW1  281   2.278   2.263   2.489 -0.4749  1.7225  0.0610
   94SOL    HW2  282   2.414   2.201   2.407 -1.4871 -1.8780 -1.7744
   95SOL     OW  283   1.974   0.466   1.201  0.2918 -0.7122 -0.0788
   95SOL    HW1  284   1.930   0.546   1.153  0.3450  1.2958 -0.4200
   95SOL    HW2  285   2.044   0.425   1.136  1.3614 -1.6776  0.4735
   96SOL     OW  286   2.767   2.997   1.728  0.4774 -0.1556  0.0073
   96SOL    HW1  287   2.743   3.038   1.822 -1.6288  0.6312  2.9494
   96SOL    HW2  288   2.689   2.995   1.662  0.6710  2.6342 -4.2183
   97SOL     OW  289   2.071   3.000   1.195 -0.1321 -0.8516 -0.6743
   97SOL    HW1  290   2.051   2.958   1.109 -0.8446  4.0358  3.0102
   97SOL    HW2  291   2.054   3.096   1.187 -0.6413  1.2347 -0.3451
   98SOL     OW  292   1.543   2.297   1.448 -0.7017  0.3921  0.1331
   98SOL    HW1  293   1.620   2.325   1.510  1.4248 -1.7463 -1.7004
   98SOL    HW2  294   1.578   2.235   1.380  0.7412  1.7781 -2.2105
   99SOL     OW  295   2.668   2.850   2.083 -0.2724 -0.4771 -0.0737
   99SOL    HW1  296   2.616   2.762   2.113 -0.5359  0.6007 -0.7935
   99SOL    HW2  297   2.766   2.852   2.109  0.8690  0.0554 -1.1836
  100SOL     OW  298   0.356   0.862   2.749  0.2757 -0.2184 -0.3141
  100SOL    HW1  299   0.403   0.908   2.830 -1.2291 -0.2416  0.8836
  100SOL    HW2  300   0.408   0.782   2.713 -0.8505  1.8272  1.4816
  101SOL     OW  301   1.968   0.745   0.069  0.2737 -0.2522 -0.4590
  101SOL    HW1  302   1.948   0.760   0.168 -0.1740 -2.2470  3.0531
  101SOL    HW2  303   2.038   0.672   0.050 -1.1541 -0.5217 -0.8390
  102SOL     OW  304   0.225   0.523   1.563 -0.3811 -0.0138 -0.0122
  102SOL    HW1  305   0.294   0.558   1.632  1.4049 -0.7791  2.0342
  102SOL    HW2  306   0.223   0.417   1.566 -1.5879 -2.3787  1.4346
  103SOL     OW  307   3.016   1.015   2.260 -0.3431  0.0624 -0.9566
  103SOL    HW1  308   3.032   0.927   2.313  1.2713 -2.7120  1.2154
  103SOL    HW2  309   2.937   1.070   2.293  1.9205  0.3919  0.4163
  104SOL     OW  310   0.259   0.266   2.654 -0.5948  0.2293 -0.3820
  104SOL    HW1  311   0.360   0.238   2.646  2.6755 -1.3311 -1.4476
  104SOL    HW2  312   0.218   0.276   2.560 -2.7391  1.3438  0.5504
  105SOL     OW  313   2.086   2.023   1.388 -0.2947  0.4490  0.6288
  105SOL    HW1  314   2.024   1.941   1.380 -0.1470  1.2359  2.1906
  105SOL    HW2  315   2.135   2.042   1.297  0.3870  1.1850 -1.1696
  106SOL     OW  316   1.817   0.356   0.514  0.2623  0.3412 -0.3401
  106SOL    HW1  317   1.865   0.319   0.433 -0.0741 -0.4683  0.9241
  106SOL    HW2  318   1.888   0.400   0.575  0.4680  0.1335 -1.8589
  107SOL     OW  319   0.173   1.933   1.688 -0.3766  0.3567 -0.4470
  107SOL    HW1  320   0.185   2.032   1.680 -1.1292 -1.6372 -0.0510
  107SOL    HW2  321   0.185   1.896   1.593 -0.6646  0.0121 -0.8353
  108SOL     OW  322   2.946   2.886   2.088  0.0396  0.2303 -0.4428
  108SOL    HW1  323   3.022   2.833   2.041 -1.2164 -1.1713 -0.6308
  108SOL    HW2  324   2.985   2.923   2.175 -1.3381 -2.2356  0.7044
  109SOL     OW  325   1.622   0.178   0.426 -0.0958  0.3684 -0.5421
  109SOL    HW1  326   1.685   0.235   0.483 -2.6909 -1.6267 -0.9454
  109SOL    HW2  327   1.596   0.101   0.480  2.7061  0.5349 -3.1258
  110SOL     OW  328   0.325   2.074   2.366  0.3872  0.2819 -0.3546
  110SOL    HW1  329   0.390   2.124   2.429 -1.0086  1.7612  0.7191
  110SOL    HW2  330   0.297   1.983   2.406 -0.5076 -2.9987  3.7778
  111SOL     OW  331   1.536   2.488   2.019  0.5816  0.4287  0.5371
  111SOL    HW1  332   1.591   2.411   2.053  0.1991  3.6790 -1.9983
  111SOL    HW2  333   1.456   2.453   1.965  3.3390 -1.4202  0.1138
  112SOL     OW  334   1.647   2.736   2.604  0.2983  0.0311  0.1429
  112SOL    HW1  335   1.705   2.806   2.649  2.1568  1.3944 -1.7477
  112SOL    HW2  336   1.685   2.644   2.593 -0.1826 -2.2894  0.0049
  113SOL     OW  337   1.746   2.371   1.603 -0.0912  0.1030 -0.4527
  113SOL    HW1  338   1.815   2.429   1.552 -0.2251 -0.2313 -0.6133
  113SOL    HW2  339   1.770   2.382   1.703  0.7151  4.1189 -1.6069
  114SOL     OW  340   2.849   0.716   0.790  0.4710  0.0027 -0.6655
  114SOL    HW1  341   2.802   0.805   0.759  0.2604  2.7853  2.4639
  114SOL    HW2  342   2.851   0.649   0.714  2.1069  1.1479 -2.0031
  115SOL     OW  343   0.434   0.960   3.012  0.3567 -0.4786  0.0242
  115SOL    HW1  344   0.476   1.048   3.035 -0.1682 -0.7554  1.1219
  115SOL    HW2  345   0.507   0.889   2.995 -3.0074 -1.5599 -1.2389
  116SOL     OW  346   0.085   1.331   2.349 -0.3071 -0.7073  0.2415
  116SOL    HW1  347   0.071   1.267   2.275  2.5869 -1.3363  2.8078
  116SOL    HW2  348   0.171   1.388   2.329  3.9763  1.9523  2.7051
  117SOL     OW  349   2.524   0.011   0.705 -0.5438  0.2296 -0.2871
  117SOL    HW1  350   2.601   0.047   0.761 -0.3224 -0.4494  2.0219
  117SOL    HW2  351   2.562   3.077   0.620  0.0522 -2.8766 -1.4046
  118SOL     OW  352   1.338   1.897   1.516 -0.1152 -0.1609 -0.6448
  118SOL    HW1  353   1.298   1.803   1.515 -0.7878  0.2472 -0.4248
  118SOL    HW2  354   1.426   1.893   1.566 -1.8429 -2.5798  2.4231
  119SOL     OW  355   0.806   2.331   2.733  0.4135 -0.3226 -0.0830
  119SOL    HW1  356   0.882   2.284   2.778  0.7033  1.1054 -0.1963
  119SOL    HW2  357   0.722   2.329   2.787  2.1962  2.4785 -1.8819
  120SOL     OW  358   0.606   0.789   2.947 -0.4623  0.0916 -0.1869
  120SOL    HW1  359   0.577   0.693   2.949 -0.2951  0.6416 -0.6392
  120SOL    HW2  360   0.661   0.812   2.864  0.1141  0.0728  0.3609
  121SOL     OW  361   1.743   2.523   1.168 -0.2599  0.2844  0.4143
  121SOL    HW1  362   1.763   2.613   1.120 -0.9180 -1.2979 -0.9644
  121SOL    HW2  363   1.733   2.452   1.095 -0.2915 -2.2527  1.2027
  122SOL     OW  364   2.390   2.249   1.727 -0.1089 -0.1745  0.3693
  122SOL    HW1  365   2.441   2.205   1.803  2.2477 -2.0143 -1.7086
  122SOL    HW2  366   2.323   2.183   1.686  0.7428  2.4112 -0.5390
  123SOL     OW  367   0.244   2.821   0.495 -0.1292  0.3057  0.2460
  123SOL    HW1  368   0.330   2.765   0.476 -0.2586 -2.7581 -0.3408
  123SOL    HW2  369   0.186   2.822   0.412 -0.3987 -0.8683  0.3357
  124SOL     OW  370   2.119   1.260   2.625 -0.1886 -0.5869  0.5534
  124SOL    HW1  371   2.191   1.331   2.646  0.5838 -0.5848 -0.4236
  124SOL    HW2  372   2.088   1.217   2.718 -0.4815 -1.8526  0.5107
  125SOL     OW  373   0.569   1.018   0.563  0.4193  0.4276  0.8041
  125SOL    HW1  374   0.657   0.990   0.603  1.4824  4.3957  1.6520
  125SOL    HW2  375   0.537   1.102   0.612 -1.3360  1.3072 -1.0779
  126SOL     OW  376   2.823   1.973   0.895  0.2232 -0.2125 -0.5656
  126SOL    HW1  377   2.820   2.073   0.870  1.1908 -1.4133  0.2087
  126SOL    HW2  378   2.912   1.939   0.930 -2.8110  0.4105  2.1146
  127SOL     OW  379   0.029   2.195   1.902 -0.4236  0.1425 -0.1271
  127SOL    HW1  380   0.089   2.221   1.820 -0.5088 -1.2769 -2.3175
  127SOL    HW2  381   0.064   2.132   1.972 -0.7579  0.4062  0.6540
  128SOL     OW  382   0.970   0.739   3.091 -0.6543 -0.1000  0.4292
  128SOL    HW1  383   0.989   0.644   0.019 -2.7041 -3.3350 -0.3102
  128SOL    HW2  384   0.885   0.782   0.009  0.4491 -1.6472 -0.3056
  129SOL     OW  385   2.546   1.051   1.061 -0.8783 -0.2047  0.2332
  129SOL    HW1  386   2.583   1.080   0.968  3.2174 -0.2139 -5.7811
  129SOL    HW2  387   2.619   1.003   1.110 -2.1880  2.7714 -2.2428
  130SOL     OW  388   2.325   1.167   1.504  0.0882 -0.9038 -0.1173
  130SOL    HW1  389   2.419   1.151   1.544  3.0492 -0.4661  1.5120
  130SOL    HW2  390   2.326   1.192   1.405  2.4316 -4.2374 -2.7648
  131SOL     OW  391   2.675   3.023   3.100 -0.4279 -0.9513  0.0392
  131SOL    HW1  392   2.677   2.929   0.007  1.4375  2.9992 -0.2616
  131SOL    HW2  393   2.700   3.082   0.063 -0.1129 -0.5326  0.7174
  132SOL     OW  394   2.871   2.283   1.782 -0.6433 -0.0051  0.0602
  132SOL    HW1  395   2.847   2.380   1.795 -0.8663 -0.6787  2.0586
  132SOL    HW2  396   2.961   2.262   1.826  0.2193  1.7005 -2.0775
  133SOL     OW  397   1.055   0.764   1.259  0.0648  0.3353 -0.0254
  133SOL    HW1  398   1.019   0.675   1.286  0.3928 -1.8394  0.6606
  133SOL    HW2  399   0.998   0.819   1.201  1.4437 -2.0497  0.5161
  134SOL     OW  400   0.097   1.336   0.531  0.4609  0.7451 -0.2130
  134SOL    HW1  401   3.110   1.337   0.522  1.8429  0.6322 -0.9644
  134SOL    HW2  402   0.141   1.296   0.452 -1.5427  0.7186 -2.5732
  135SOL     OW  403   2.071   1.019   1.568  0.3954 -0.7112  0.1950
  135SOL    HW1  404   2.157   1.071   1.566  0.4842 -3.4009  0.4225
  135SOL    HW2  405   1.991   1.079   1.589 -2.5576 -1.4543 -1.5561
  136SOL     OW  406   2.847   0.932   0.471 -0.0002 -0.1416 -0.7324
  136SOL    HW1  407   2.833   1.024   0.433 -0.0293 -0.0597 -0.5226
  136SOL    HW2  408   2.793   0.921   0.561 -0.5730 -0.3569  1.6937
  137SOL     OW  409   2.594   1.370   1.310  0.2439 -0.0995 -0.4482
  137SOL    HW1  410   2.680   1.336   1.267  2.1202  1.4216 -2.6294
  137SOL    HW2  411   2.519   1.308   1.279 -0.6830 -1.1539 -0.4278
  138SOL     OW  412   1.835   0.723   1.626 -0.1447 -0.1665 -0.1122
  138SOL    HW1  413   1.870   0.762   1.715 -1.3890 -0.9200 -2.2883
  138SOL    HW2  414   1.909   0.695   1.557  2.5461 -0.4792 -0.6235
  139SOL     OW  415   2.081   0.103   3.089 -0.7878  0.1509  0.5547
  139SOL    HW1  416   2.177   0.088   0.005  0.2554  1.7603  1.0191
  139SOL    HW2  417   2.001   0.086   0.037  0.3133 -4.1912 -4.1027
  140SOL     OW  418   1.477   1.977   1.911 -0.1011 -0.6937 -0.2216
  140SOL    HW1  419   1.398   2.040   1.922 -0.7873  2.4294 -2.7320
  140SOL    HW2  420   1.542   1.983   1.993 -1.0984  0.1834  1.3403
  141SOL     OW  421   1.900   2.042   0.721  0.4786 -0.3749 -0.4894
  141SOL    HW1  422   1.983   1.981   0.718  1.2960 -2.6255  0.2913
  141SOL    HW2  423   1.928   2.142   0.715  0.6628  1.8103  0.4582
  142SOL     OW  424   0.214   0.974   0.235  0.6913 -0.2714 -0.2363
  142SOL    HW1  425   0.199   0.949   0.138  1.5801 -2.2145  0.7915
  142SOL    HW2  426   0.127   0.980   0.289  0.1996 -3.1542  1.5679
  143SOL     OW  427   0.409   2.121   2.801 -0.3552  0.1351 -0.0410
  143SOL    HW1  428   0.311   2.148   2.780  2.0151 -0.3944  2.8192
  143SOL    HW2  429   0.413   2.019   2.825 -0.8341 -2.2126  1.6201
  144SOL     OW  430   1.116   0.105   1.497  0.2170 -0.4660  0.0263
  144SOL    HW1  431   1.031   0.071   1.444 -0.7424  0.1706 -0.3032
  144SOL    HW2  432   1.106   0.204   1.493  0.5626 -2.3516  0.5183
  145SOL     OW  433   2.367   1.316   0.472 -0.0587  0.2600  0.1543
  145SOL    HW1  434   2.404   1.288   0.381  1.8512 -0.8800 -0.3550
  145SOL    HW2  435   2.361   1.416   0.473  0.5294 -0.1703 -1.2262
  146SOL     OW  436   2.480   2.582   0.208  0.1058 -0.3325  0.0985
  146SOL    HW1  437   2.539   2.634   0.133 -0.2777 -0.3899 -1.7728
  146SOL    HW2  438   2.401   2.533   0.156  0.8959  1.8132 -0.8179
  147SOL     OW  439   2.179   2.622   1.301  0.0776 -0.6282  0.3383
  147SOL    HW1  440   2.277   2.616   1.327 -2.5372 -0.6144  3.2347
  147SOL    HW2  441   2.120   2.666   1.369 -1.6217  0.4320  0.9187
  148SOL     OW  442   1.530   2.881   2.262  0.1664  0.1098 -0.1409
  148SOL    HW1  443   1.616   2.877   2.325  0.0369 -0.8177 -0.0785
  148SOL    HW2  444   1.550   2.945   2.184  1.4662  0.0363 -0.6038
  149SOL     OW  445   1.254   0.534   2.412  0.1163 -0.3149 -0.4317
  149SOL    HW1  446   1.322   0.475   2.358  0.0222 -2.9340 -3.1540
  149SOL    HW2  447   1.293   0.620   2.445 -1.0219 -0.8346 -1.0044
  150SOL     OW  448   0.687   2.577   0.235 -0.3416 -0.1014  0.1541
  150SOL    HW1  449   0.780   2.556   0.190  0.5201 -0.2571  1.2583
  150SOL    HW2  450   0.678   2.534   0.329 -2.8982  0.8392  2.2000
  151SOL     OW  451   0.110   1.560   0.277  0.1497 -0.0116 -0.4610
  151SOL    HW1  452   0.013   1.585   0.279  0.9683  0.6529 -2.3331
  151SOL    HW2  453   0.123   1.493   0.203  1.3351  1.0109 -1.6665
  152SOL     OW  454   0.063   0.408   0.552 -0.4616  0.2230  0.3354
  152SOL    HW1  455   0.091   0.402   0.650  0.4415 -1.1239 -0.1946
  152SOL    HW2  456   0.004   0.331   0.518 -2.5775 -1.3713  1.2388
  153SOL     OW  457   2.347   3.103   0.928 -0.1833 -0.8356 -0.1855
  153SOL    HW1  458   2.246   0.001   0.912 -2.3770  0.5216 -2.3338
  153SOL    HW2  459   2.399   3.112   0.843 -0.7273  1.7810 -0.3221
  154SOL     OW  460   1.106   0.540   1.699 -0.3470  0.0643  0.1094
  154SOL    HW1  461   1.027   0.496   1.749 -0.6915 -1.2652 -1.3896
  154SOL    HW2  462   1.159   0.479   1.642  0.8090  2.5762  2.5815
  155SOL     OW  463   2.725   1.325   0.947  0.3112 -0.4979 -0.5066
  155SOL    HW1  464   2.624   1.348   0.939 -0.5873  0.1947 -0.5880
  155SOL    HW2  465   2.785   1.401   0.913  0.5665 -0.9948 -0.0206
  156SOL     OW  466   2.644   2.063   0.222  0.8235 -0.8149  0.2238
  156SOL    HW1  467   2.610   1.997   0.153  0.4140  1.8054 -1.3424
  156SOL    HW2  468   2.716   2.025   0.279 -0.0152  2.0776 -1.0304
  157SOL     OW  469   0.971   2.859   0.568 -0.2995 -0.2143 -0.2739
  157SOL    HW1  470   0.976   2.795   0.648  1.7192  0.0072  1.0953
  157SOL    HW2  471   0.994   2.810   0.479 -2.0469 -0.8189 -0.0927
  158SOL     OW  472   2.131   0.457   2.573 -0.2218 -0.3359  0.1295
  158SOL    HW1  473   2.209   0.494   2.623 -3.8355  2.9975  0.2799
  158SOL    HW2  474   2.156   0.365   2.538  1.3311  1.8194  0.2619
  159SOL     OW  475   0.356   0.114   0.151 -0.4458  0.7763 -0.5987
  159SOL    HW1  476   0.273   0.113   0.093 -0.3386 -0.2698  1.3227
  159SOL    HW2  477   0.340   0.111   0.253 -0.0890 -1.3827  1.6866
  160SOL     OW  478   1.218   2.066   0.033  0.1449  0.0907 -0.1480
  160SOL    HW1  479   1.217   1.974   3.107  0.4673  2.6042  3.4479
  160SOL    HW2  480   1.127   2.085   0.076 -0.1566  1.9451  0.6407
  161SOL     OW  481   2.670   1.850   2.529 -0.1059  0.1351 -0.6388
  161SOL    HW1  482   2.691   1.952   2.536  0.0318 -3.0102  0.3106
  161SOL    HW2  483   2.570   1.837   2.507  1.0623 -1.1836 -2.2179
  162SOL     OW  484   0.211   2.765   1.141  0.1748  0.3917  0.1567
  162SOL    HW1  485   0.307   2.767   1.176 -0.1924 -0.9026 -0.6999
  162SOL    HW2  486   0.151   2.843   1.176 -4.1851  3.8246 -0.4372
  163SOL     OW  487   2.228   0.450   2.898 -0.4487  0.2877  0.1115
  163SOL    HW1  488   2.142   0.403   2.862  0.0634 -0.0019 -2.0311
  163SOL    HW2  489   2.269   0.520   2.835 -1.3181 -1.9229 -0.7071
  164SOL     OW  490   2.873   1.572   0.871  0.4051  0.1619 -0.7970
  164SOL    HW1  491   2.898   1.604   0.780 -1.6384  1.8104  0.6997
  164SOL    HW2  492   2.785   1.619   0.895 -0.5745 -0.0869 -0.7991
  165SOL     OW  493   2.906   0.182   2.039 -0.0173  0.3600  0.3668
  165SOL    HW1  494   2.850   0.115   1.988  2.6766  0.7597  1.3057
  165SOL    HW2  495   2.881   0.278   2.025  0.4908  0.3363 -1.4496
  166SOL     OW  496   2.129   0.680   0.604 -0.6688 -0.1942 -0.3244
  166SOL    HW1  497   2.116   0.775   0.634 -1.1581 -0.1994  0.2980
  166SOL    HW2  498   2.221   0.654   0.568  1.4270  0.9378  0.0282
  167SOL     OW  499   0.483   0.397   0.486 -0.0279  0.2106 -0.0757
  167SOL    HW1  500   0.427   0.474   0.454  3.7990 -2.0810  0.8844
  167SOL    HW2  501   0.470   0.389   0.587 -0.6157 -0.7783  1.0910
  168SOL     OW  502   1.874   2.775   2.138  0.1856  0.5525 -0.0663
  168SOL    HW1  503   1.896   2.677   2.157  2.8840 -1.0364  1.2046
  168SOL    HW2  504   1.843   2.829   2.221  0.0737  0.0887  0.7822
  169SOL     OW  505   0.954   1.125   0.674 -0.0966  0.6102 -0.1802
  169SOL    HW1  506   0.938   1.150   0.580 -0.5152 -0.4645  2.4173
  169SOL    HW2  507   0.905   1.039   0.692 -0.4936  0.0338  1.5871
  170SOL     OW  508   2.868   0.597   1.554  0.7501 -0.1246 -0.1203
  170SOL    HW1  509   2.850   0.585   1.456  0.6003 -0.4920 -2.1406
  170SOL    HW2  510   2.788   0.570   1.613 -0.6763  0.8391  0.6433
  171SOL     OW  511   1.053   2.771   1.631  0.1364 -0.4134 -0.1332
  171SOL    HW1  512   1.117   2.757   1.558  0.7894  2.3090  2.4250
  171SOL    HW2  513   1.077   2.846   1.696 -1.7568 -0.1334 -3.1990
  172SOL     OW  514   0.198   2.575   1.552  0.2700  0.1085  0.0683
  172SOL    HW1  515   0.199   2.537   1.458  0.3914 -2.6304  0.5786
  172SOL    HW2  516   0.183   2.675   1.544 -2.6356  2.6672  0.1363
  173SOL     OW  517   1.205   0.270   2.819  0.6661  0.4305  0.6369
  173SOL    HW1  518   1.245   0.288   2.725  0.9483  1.3559  2.2966
  173SOL    HW2  519   1.263   0.317   2.890  0.9894  0.0730  0.8394
  174SOL     OW  520   1.746   0.020   2.491  0.0417 -0.2729 -0.4087
  174SOL    HW1  521   1.667   0.014   2.559 -1.3782 -1.2477 -0.5947
  174SOL    HW2  522   1.818   0.083   2.527 -1.5093 -0.8011 -1.2868
  175SOL     OW  523   1.749   2.557   0.012  0.1022 -0.2390  0.4010
  175SOL    HW1  524   1.781   2.591   0.107 -0.1060 -2.1843  1.6751
  175SOL    HW2  525   1.654   2.524   0.017 -1.1438  0.0402 -2.0120
  176SOL     OW  526   1.732   0.309   2.845  0.1034  0.3186  0.4066
  176SOL    HW1  527   1.764   0.405   2.866  3.1760  2.1007 -1.3468
  176SOL    HW2  528   1.690   0.296   2.754  3.4882 -0.4152  0.2283
  177SOL     OW  529   0.875   1.646   0.400  0.7706  0.6635 -0.0885
  177SOL    HW1  530   0.821   1.610   0.482 -2.1094 -0.7523  1.4885
  177SOL    HW2  531   0.821   1.721   0.366  1.7330 -2.3328 -0.4123
  178SOL     OW  532   2.978   2.126   2.420 -0.4512 -0.2207 -0.0316
  178SOL    HW1  533   3.006   2.219   2.450 -1.1222 -0.4153 -0.1413
  178SOL    HW2  534   3.019   2.058   2.483 -0.6141  1.9048 -2.9416
  179SOL     OW  535   0.544   2.471   2.507 -0.1894 -0.0427  0.4407
  179SOL    HW1  536   0.548   2.557   2.560  1.5266  0.5172  1.0825
  179SOL    HW2  537   0.595   2.494   2.415  0.8213 -0.1225 -1.8571
  180SOL     OW  538   2.056   1.821   1.062 -0.0104  0.2007  0.2637
  180SOL    HW1  539   2.073   1.754   1.139  0.6800  1.1267  0.8000
  180SOL    HW2  540   1.960   1.823   1.045  1.0876 -0.6520  1.0170
  181SOL     OW  541   1.760   0.905   2.290  0.2159  0.4213  0.1444
  181SOL    HW1  542   1.736   0.983   2.227  0.3867 -0.0108 -2.5769
  181SOL    HW2  543   1.781   0.939   2.386 -0.8253 -0.5275  0.0534
  182SOL     OW  544   2.756   2.909   2.420  0.2304  0.0394 -0.2551
  182SOL    HW1  545   2.761   2.818   2.380  0.5837  0.1582  2.8423
  182SOL    HW2  546   2.817   2.975   2.372 -1.6248 -0.9691  1.7228
  183SOL     OW  547   1.391   0.757   2.527  0.0298 -0.3096  0.2958
  183SOL    HW1  548   1.420   0.816   2.449 -0.1891  0.6251 -0.0647
  183SOL    HW2  549   1.469   0.704   2.563 -0.8257  1.0501  1.6576
  184SOL     OW  550   0.934   0.861   1.623  0.2355 -0.3128 -0.3669
  184SOL    HW1  551   1.011   0.860   1.686  3.8029 -0.1777 -1.9858
  184SOL    HW2  552   0.953   0.931   1.548 -0.4893  1.7815 -0.9027
  185SOL     OW  553   2.093   0.936   0.707 -0.0217  0.2054  0.1723
  185SOL    HW1  554   2.018   0.960   0.768  0.4163 -0.7581  0.2124
  185SOL    HW2  555   2.133   1.020   0.664 -0.5292 -2.6992 -0.7811
  186SOL     OW  556   0.349   1.803   2.869  0.3526 -0.3642  0.1698
  186SOL    HW1  557   0.446   1.773   2.848  1.8727  0.4641 -0.9774
  186SOL    HW2  558   0.289   1.794   2.787 -0.4873  1.9453  1.0530
  187SOL     OW  559   2.650   1.475   0.331 -0.1127  0.1684 -0.0683
  187SOL    HW1  560   2.654   1.575   0.334  0.3975 -3.3315 -1.4082
  187SOL    HW2  561   2.688   1.430   0.415  1.4119  0.4313  3.0638
  188SOL     OW  562   0.062   1.842   0.643 -0.1290  0.1410  0.4862
  188SOL    HW1  563   0.130   1.866   0.568 -0.3107 -0.9050  0.0767
  188SOL    HW2  564   0.110   1.836   0.733  2.6045 -1.0169 -1.1907
  189SOL     OW  565   2.368   0.621   0.175  0.4995  0.3199  0.3949
  189SOL    HW1  566   2.328   0.710   0.201 -1.2057  0.8437 -0.9863
  189SOL    HW2  567   2.465   0.606   0.208 -1.4225  0.1742  1.0833
  190SOL     OW  568   1.369   1.449   2.105 -0.2559 -0.5613 -0.5409
  190SOL    HW1  569   1.385   1.544   2.077  1.3268  0.0252 -1.5758
  190SOL    HW2  570   1.313   1.400   2.037  0.3859  4.7277  1.5783
  191SOL     OW  571   2.356   0.025   1.860 -0.0723  0.3140 -0.0753
  191SOL    HW1  572   2.312   0.043   1.772 -1.1289 -0.6572 -1.0634
  191SOL    HW2  573   2.293   0.052   1.937  1.0816  1.5180 -0.2614
  192SOL     OW  574   1.828   1.190   1.629  0.3517  0.4523  0.0075
  192SOL    HW1  575   1.827   1.259   1.553  1.7903  1.4333 -1.3002
  192SOL    HW2  576   1.772   1.106   1.622  1.3848 -1.1883  0.2077
  193SOL     OW  577   0.835   0.651   0.766  0.3192  0.4487 -0.4652
  193SOL    HW1  578   0.835   0.606   0.677  0.8245 -0.3834  0.9681
  193SOL    HW2  579   0.930   0.667   0.805  2.0066 -0.1843 -0.9651
  194SOL     OW  580   1.188   3.020   1.213 -0.1709  0.1688  0.1373
  194SOL    HW1  581   1.159   2.996   1.119 -2.7103  3.9190  0.4500
  194SOL    HW2  582   1.281   2.982   1.238  1.1494 -0.4470  0.3109
  195SOL     OW  583   2.398   0.633   0.552 -0.5149 -0.0967  0.5871
  195SOL    HW1  584   2.440   0.548   0.590  0.0799  0.1625  1.2595
  195SOL    HW2  585   2.462   0.693   0.502  0.9859  0.0822  0.1076
  196SOL     OW  586   0.985   2.110   1.460  0.0839 -0.1690  0.0277
  196SOL    HW1  587   1.030   2.112   1.367 -2.9689 -0.1847  2.1167
  196SOL    HW2  588   1.060   2.100   1.532 -1.1720  1.8311  1.5030
  197SOL     OW  589   0.444   2.697   0.399  0.7050  0.6669 -0.2655
  197SOL    HW1  590   0.502   2.699   0.480  0.7167 -2.0075  1.1298
  197SOL    HW2  591   0.505   2.708   0.315 -1.3752  1.2477 -0.6353
  198SOL     OW  592   0.789   0.926   0.757  0.2651  0.5013  0.2299
  198SOL    HW1  593   0.765   0.969   0.845  1.7122  0.0668 -2.5559
  198SOL    HW2  594   0.795   0.826   0.761  1.2914  1.3099 -1.5432
  199SOL     OW  595   0.088   3.071   1.737 -0.1865  0.5896  0.2760
  199SOL    HW1  596   0.081   0.027   1.665 -1.0076  0.1849  0.7068
  199SOL    HW2  597   0.185   3.040   1.744 -1.7094  1.1415 -1.0474
  200SOL     OW  598   2.259   1.840   2.747  0.3365 -0.3122  0.0070
  200SOL    HW1  599   2.197   1.763   2.768 -2.6069  0.5413 -0.7227
  200SOL    HW2  600   2.295   1.824   2.650  1.2072 -1.4745 -0.5871
  201SOL     OW  601   2.798   2.337   1.464  0.1029  0.2636 -0.2377
  201SOL    HW1  602   2.865   2.406   1.496  0.1872  1.5925  0.8522
  201SOL    HW2  603   2.748   2.287   1.541 -1.3653 -3.8046 -1.6063
  202SOL     OW  604   2.641   0.252   0.413 -0.2890 -0.2533 -0.0898
  202SOL    HW1  605   2.544   0.260   0.444 -1.0832  0.8040  0.5662
  202SOL    HW2  606   2.706   0.274   0.491 -2.6488  0.1944  0.5331
  203SOL     OW  607   1.284   2.074   2.245  0.1085 -0.0398 -0.7344
  203SOL    HW1  608   1.309   1.983   2.280 -2.2716  0.9303  1.6002
  203SOL    HW2  609   1.205   2.112   2.296 -1.1031  0.3742  0.6935
  204SOL     OW  610   1.001   1.440   1.690 -0.3578  0.3358 -0.2369
  204SOL    HW1  611   0.971   1.481   1.603  0.5863  1.0687 -2.6196
  204SOL    HW2  612   0.948   1.358   1.709  0.3512  1.3602  0.9700
  205SOL     OW  613   1.167   2.056   1.649 -0.4307 -0.0555  0.1635
  205SOL    HW1  614   1.233   2.013   1.582 -0.0690  1.5782  1.6145
  205SOL    HW2  615   1.135   1.986   1.715 -0.6751 -0.5785  0.5145
  206SOL     OW  616   0.203   0.500   2.762  0.2274 -0.3784 -0.0254
  206SOL    HW1  617   0.286   0.553   2.732  1.2934  0.6284 -0.9986
  206SOL    HW2  618   0.216   0.407   2.730 -2.6407  4.0069  1.3617
  207SOL     OW  619   1.541   2.976   1.998  0.0983  0.4410 -0.2957
  207SOL    HW1  620   1.447   2.963   1.957  1.4261 -0.2951  0.8497
  207SOL    HW2  621   1.592   2.894   1.976 -0.9759  2.3612  1.1042
  208SOL     OW  622   0.906   2.337   1.851  0.3116 -0.2408 -0.1966
  208SOL    HW1  623   0.921   2.335   1.953 -0.7899  3.4905 -0.0204
  208SOL    HW2  624   0.898   2.432   1.813  1.0153  2.6019 -1.5196
  209SOL     OW  625   2.034   1.172   2.860 -0.0757 -0.1701 -0.0164
  209SOL    HW1  626   2.039   1.081   2.909 -0.5945  0.8841  2.8090
  209SOL    HW2  627   1.938   1.196   2.836  2.1738  1.8618 -2.4376
  210SOL     OW  628   2.973   0.317   1.220  0.1459 -0.4582 -0.5446
  210SOL    HW1  629   2.968   0.332   1.122 -2.3724  0.6489  0.4089
  210SOL    HW2  630   2.919   0.389   1.266 -0.0520 -5.4530  0.0639
  211SOL     OW  631   0.888   0.933   1.136  0.4652  0.0062  0.1171
  211SOL    HW1  632   0.839   0.992   1.068 -0.4918  1.3608  0.9260
  211SOL    HW2  633   0.891   0.971   1.229  2.5217  0.4373  1.3699
  212SOL     OW  634   1.040   1.996   1.001  0.0583  0.0498  0.0525
  212SOL    HW1  635   0.949   1.950   1.006  0.1532  3.2731 -1.2606
  212SOL    HW2  636   1.063   2.015   0.907 -3.4039 -0.2175  0.2116
  213SOL     OW  637   1.736   0.182   1.659 -0.0994  0.1415 -0.0044
  213SOL    HW1  638   1.706   0.276   1.637  1.4309  1.1789  2.2080
  213SOL    HW2  639   1.777   0.178   1.751 -1.0949 -0.8977 -0.4640
  214SOL     OW  640   1.496   2.048   2.568  0.1240  0.5535  0.1185
  214SOL    HW1  641   1.518   2.139   2.526  0.8046  0.1186 -0.5656
  214SOL    HW2  642   1.532   2.047   2.665  1.4663  1.2277  2.7248
  215SOL     OW  643   3.035   1.896   1.238 -0.0099  0.1065  0.2622
  215SOL    HW1  644   2.974   1.966   1.283  0.1595  0.5496  1.6032
  215SOL    HW2  645   2.980   1.816   1.202  3.7432  2.7673 -0.2162
  216SOL     OW  646   0.561   0.069   2.283  0.0906  0.0832  0.8533
  216SOL    HW1  647   0.652   0.075   2.326 -4.6673  0.0837 -0.0963
  216SOL    HW2  648   0.500   0.015   2.340  1.2263 -2.8675  1.2079
  217SOL     OW  649   2.653   0.403   2.955 -0.1550 -0.2282 -0.4016
  217SOL    HW1  650   2.674   0.489   3.006  0.6904 -0.8164 -0.3828
  217SOL    HW2  651   2.731   0.348   2.935  1.2035  0.6346 -3.0493
  218SOL     OW  652   1.732   1.662   2.546  0.4168 -0.0535  0.2125
  218SOL    HW1  653   1.714   1.562   2.552 -0.0527 -1.2925  0.1901
  218SOL    HW2  654   1.767   1.700   2.634 -3.2549  1.5402 -1.8938
  219SOL     OW  655   1.634   1.143   0.221 -0.4012  0.0957  0.0956
  219SOL    HW1  656   1.664   1.235   0.250  0.2611 -2.1007 -0.8276
  219SOL    HW2  657   1.670   1.121   0.125  4.7467 -1.2657  0.3383
  220SOL     OW  658   1.479   1.849   1.040 -0.3880 -0.1069 -0.4236
  220SOL    HW1  659   1.406   1.862   1.107  0.0181 -1.7857  0.5961
  220SOL    HW2  660   1.497   1.936   0.989  2.3003  1.6970  1.0002
  221SOL     OW  661   0.201   0.661   3.109  0.0020  0.0072 -0.2582
  221SOL    HW1  662   0.148   0.745   3.092  0.9927 -0.5726 -1.8366
  221SOL    HW2  663   0.185   0.592   3.038 -1.6879  0.8670  2.0158
  222SOL     OW  664   1.227   2.688   1.444  0.4642 -0.7958 -0.7988
  222SOL    HW1  665   1.251   2.588   1.438 -0.6332 -1.1902 -0.1149
  222SOL    HW2  666   1.265   2.740   1.367 -1.0507  0.9567  0.4722
  223SOL     OW  667   1.308   0.020   2.871 -0.1975  0.6054  0.0266
  223SOL    HW1  668   1.273   0.118   2.858 -2.5299 -0.0541 -1.3389
  223SOL    HW2  669   1.370   0.021   2.950  0.7512 -1.0099 -1.4982
  224SOL     OW  670   2.735   0.948   1.241  0.5290 -0.7955  0.0985
  224SOL    HW1  671   2.795   0.875   1.206 -0.6190  0.2053 -4.3655
  224SOL    HW2  672   2.671   0.905   1.311  0.7616  1.8409  1.7164
  225SOL     OW  673   0.843   1.299   1.434  0.0118 -0.7470 -0.4504
  225SOL    HW1  674   0.860   1.364   1.358 -0.1133 -0.4220 -2.0201
  225SOL    HW2  675   0.744   1.274   1.432 -1.9678  0.9625 -1.0174
  226SOL     OW  676   1.499   2.835   2.951 -0.2900  0.3323  0.1509
  226SOL    HW1  677   1.439   2.869   3.024  0.6032 -1.1222 -0.0109
  226SOL    HW2  678   1.450   2.792   2.877  1.6328  0.1236  1.4184
  227SOL     OW  679   0.553   1.743   1.049  0.0537  0.3569 -0.0390
  227SOL    HW1  680   0.534   1.655   1.091 -0.6407  3.6343  1.8727
  227SOL    HW2  681   0.578   1.812   1.122  2.3774  1.2715 -2.2068
  228SOL     OW  682   0.480   2.747   1.233  0.4659  0.4180  0.0749
  228SOL    HW1  683   0.552   2.723   1.302  1.9829  2.4756 -1.4086
  228SOL    HW2  684   0.503   2.828   1.175  1.3574 -2.4098 -1.8713
  229SOL     OW  685   2.455   1.338   0.195 -0.2053 -0.0539  0.7082
  229SOL    HW1  686   2.534   1.381   0.238  3.3500 -0.7313 -1.9553
  229SOL    HW2  687   2.502   1.277   0.132  0.0213  2.9386  0.6651
  230SOL     OW  688   0.983   1.184   1.876  0.1187  0.2858  0.2510
  230SOL    HW1  689   0.906   1.194   1.809  1.0110 -0.8989  0.8462
  230SOL    HW2  690   0.990   1.087   1.917 -1.9433 -1.7050  0.2193
  231SOL     OW  691   1.577   1.856   1.685 -0.0171  0.1866  0.7141
  231SOL    HW1  692   1.650   1.925   1.658 -0.9924  0.0478 -0.5678
  231SOL    HW2  693   1.523   1.884   1.769  3.1177 -0.7447 -0.4500
  232SOL     OW  694   1.938   2.322   0.674 -0.2374  0.3003 -0.4125
  232SOL    HW1  695   1.878   2.408   0.683 -1.2872  0.1914  0.7524
  232SOL    HW2  696   1.964   2.297   0.579 -2.4886 -3.7708 -0.0159
  233SOL     OW  697   1.238   2.351   2.976 -0.2492  0.5573 -0.0686
  233SOL    HW1  698   1.290   2.320   2.896  0.2185 -0.4776  2.8088
  233SOL    HW2  699   1.233   2.282   3.052  0.9795  0.9064 -0.5459
  234SOL     OW  700   0.800   0.006   2.425 -0.0664 -0.4405 -0.0459
  234SOL    HW1  701   0.783   3.023   2.411  1.6115  1.1926  0.2696
  234SOL    HW2  702   0.816   0.033   2.524  4.6127 -0.6745  2.8017
  235SOL     OW  703   3.013   2.466   0.221 -0.0838  0.3004  0.0478
  235SOL    HW1  704   2.964   2.500   0.305 -1.1568  2.9271  1.4309
  235SOL    HW2  705   3.043   2.374   0.239 -2.1696 -1.8160  1.4376
  236SOL     OW  706   2.138   2.235   2.230 -0.5072 -0.6280  0.2834
  236SOL    HW1  707   2.056   2.197   2.270  2.4245  1.9707 -0.3498
  236SOL    HW2  708   2.202   2.287   2.292  2.3017  0.3395  0.4920
  237SOL     OW  709   1.596   1.277   1.302 -0.1986  0.4456 -0.4835
  237SOL    HW1  710   1.592   1.170   1.305 -0.9626  1.4419 -0.3792
  237SOL    HW2  711   1.577   1.322   1.209 -0.4262  0.8496  0.6542
  238SOL     OW  712   2.072   0.258   2.218  0.0166  0.2455 -0.1621
  238SOL    HW1  713   2.120   0.329   2.171 -1.0994  0.9380  0.2624
  238SOL    HW2  714   1.977   0.281   2.244 -0.7172  0.3443  1.8482
  239SOL     OW  715   0.617   1.415   1.796 -0.6937  0.0193  0.0369
  239SOL    HW1  716   0.516   1.398   1.786  0.2058  0.9967 -0.5913
  239SOL    HW2  717   0.667   1.335   1.758  2.0877 -0.7231  1.5194
  240SOL     OW  718   0.048   2.238   0.534 -0.4634  0.4586  0.1869
  240SOL    HW1  719   0.041   2.337   0.538  0.9307 -0.5900  2.3573
  240SOL    HW2  720   0.143   2.212   0.504  0.7712 -0.6019  0.8442
  241SOL     OW  721   1.738   2.052   0.519  0.3021  0.0024  0.8984
  241SOL    HW1  722   1.786   2.047   0.607  0.2624 -0.3338 -0.1079
  241SOL    HW2  723   1.661   1.984   0.508 -1.8740 -1.1662 -2.9380
  242SOL     OW  724   1.542   1.588   0.297 -0.1084  0.1733  0.3105
  242SOL    HW1  725   1.599   1.591   0.383  1.1410  1.2045  1.8970
  242SOL    HW2  726   1.602   1.608   0.216 -0.7086 -0.5095 -0.8944
  243SOL     OW  727   0.822   2.938   2.029  0.1049 -0.0514 -0.0600
  243SOL    HW1  728   0.888   2.983   1.966 -0.6973 -1.5382 -0.5293
  243SOL    HW2  729   0.728   2.925   1.983  2.8160 -0.8803  0.4856
  244SOL     OW  730   1.726   2.942   2.974 -0.2586 -0.0997  0.5306
  244SOL    HW1  731   1.705   3.039   2.958 -0.4204 -1.8096  0.7776
  244SOL    HW2  732   1.639   2.887   2.968  0.7590 -0.3193 -0.7917
  245SOL     OW  733   1.412   2.892   0.081 -0.3338  0.5505 -0.2660
  245SOL    HW1  734   1.482   2.851   0.141 -3.0682  1.7456 -2.0720
  245SOL    HW2  735   1.371   2.974   0.125 -0.7118 -2.1322 -0.6471
  246SOL     OW  736   0.947   0.297   2.709  0.7037 -0.0529 -0.6918
  246SOL    HW1  737   1.048   0.301   2.717 -2.8309  0.7586  1.2075
  246SOL    HW2  738   0.918   0.202   2.696  3.4432 -0.9221  0.0619
  247SOL     OW  739   0.304   0.630   1.951 -0.2842  0.0380 -0.0738
  247SOL    HW1  740   0.345   0.576   2.025  0.3002 -0.4084 -4.0184
  247SOL    HW2  741   0.206   0.653   1.964  1.6320 -0.0823  2.0605
  248SOL     OW  742   0.727   0.841   2.024  0.4082  0.6031  0.4721
  248SOL    HW1  743   0.705   0.738   2.021  1.4729  0.7925  1.1732
  248SOL    HW2  744   0.824   0.854   2.006 -1.0782 -0.4298  2.2009
  249SOL     OW  745   2.189   0.450   0.250  0.5223  0.2825  0.7862
  249SOL    HW1  746   2.223   0.356   0.274 -0.3573 -2.2914 -0.1926
  249SOL    HW2  747   2.269   0.512   0.232  1.5152  0.3542 -0.0143
  250SOL     OW  748   0.714   0.343   0.687 -0.1702  0.5819  0.0911
  250SOL    HW1  749   0.745   0.421   0.634  0.2163 -1.8639  2.3817
  250SOL    HW2  750   0.619   0.350   0.725 -1.0689 -1.1805  1.1046
  251SOL     OW  751   1.272   0.309   2.575  0.2101 -0.0677  0.9188
  251SOL    HW1  752   1.237   0.383   2.512  3.5676  1.9013  0.4409
  251SOL    HW2  753   1.297   0.227   2.519 -1.9741 -0.4724  0.6948
  252SOL     OW  754   1.644   1.903   2.127  0.0292  0.3112 -0.2284
  252SOL    HW1  755   1.665   1.823   2.073 -0.4239  0.6720  0.7849
  252SOL    HW2  756   1.668   1.896   2.226  2.7203  2.4164 -1.0738
  253SOL     OW  757   1.648   2.722   1.974  0.4718  0.1478  0.0026
  253SOL    HW1  758   1.608   2.627   1.982  1.0929 -0.2046  0.3261
  253SOL    HW2  759   1.724   2.741   2.039 -2.0293 -1.8460  0.7446
  254SOL     OW  760   0.785   1.955   1.946  0.4495 -0.0054  0.4152
  254SOL    HW1  761   0.810   1.993   2.038 -0.5157  0.2184  0.0964
  254SOL    HW2  762   0.867   1.922   1.899 -1.1011  2.3717  3.8921
  255SOL     OW  763   1.134   0.644   0.554  0.4712 -0.0562  0.5255
  255SOL    HW1  764   1.081   0.693   0.619  1.7495 -1.1108 -1.9758
  255SOL    HW2  765   1.078   0.632   0.472  1.3139 -1.9723  1.4256
  256SOL     OW  766   1.925   1.796   1.723 -0.0843 -0.2738 -0.1539
  256SOL    HW1  767   1.939   1.715   1.666  2.3503  2.4190  2.7040
  256SOL    HW2  768   1.874   1.869   1.676  1.2856 -1.2351  0.3534
  257SOL     OW  769   0.538   2.204   2.552  0.1852 -0.0032 -0.3867
  257SOL    HW1  770   0.559   2.302   2.544 -0.0478  1.2829  1.6882
  257SOL    HW2  771   0.532   2.177   2.647  1.0458  1.2276 -0.7386
  258SOL     OW  772   0.817   0.345   2.216  0.2007 -0.3457 -0.2038
  258SOL    HW1  773   0.882   0.269   2.194  1.1107  1.2524 -3.6077
  258SOL    HW2  774   0.761   0.323   2.298  1.8778 -1.2810  0.8350
  259SOL     OW  775   1.106   0.948   2.275  0.1827  0.4034  0.1075
  259SOL    HW1  776   1.069   0.878   2.337  1.7859 -0.4934 -0.1246
  259SOL    HW2  777   1.165   0.900   2.211  0.3097  1.0424 -0.2871
  260SOL     OW  778   1.413   0.670   0.609 -1.1366  0.3666 -0.5167
  260SOL    HW1  779   1.315   0.650   0.599  0.8100  2.5194 -0.2432
  260SOL    HW2  780   1.437   0.695   0.707  0.7176  0.1195  0.1760
  261SOL     OW  781   0.308   3.003   2.916 -0.7472  0.3602  0.2480
  261SOL    HW1  782   0.320   2.932   2.989  1.6388  1.7754 -0.4289
  261SOL    HW2  783   0.215   2.998   2.876  0.8767 -0.1871 -0.0621
  262SOL     OW  784   2.434   0.053   2.797 -0.4415 -0.3157 -0.4561
  262SOL    HW1  785   2.534   0.025   2.808 -0.1610 -2.5979 -0.6662
  262SOL    HW2  786   2.420   0.131   2.865 -2.9191  0.6669  1.3263
  263SOL     OW  787   0.093   2.191   0.033  0.8372  0.2376 -0.4154
  263SOL    HW1  788   0.025   2.194   0.110  3.7342 -0.9781 -0.0652
  263SOL    HW2  789   0.134   2.098   0.031 -2.0579 -0.0510  0.0310
  264SOL     OW  790   0.583   1.212   1.401 -0.1131 -0.1938 -0.2971
  264SOL    HW1  791   0.492   1.210   1.450  1.2655 -3.1762 -0.1213
  264SOL    HW2  792   0.575   1.198   1.301  1.4077 -0.6691 -0.0115
  265SOL     OW  793   0.458   1.371   0.412 -0.5085 -0.4347 -0.4077
  265SOL    HW1  794   0.371   1.323   0.402 -2.5052  0.5795  1.2966
  265SOL    HW2  795   0.515   1.320   0.477 -3.5186  2.1187  0.5486
  266SOL     OW  796   1.681   1.506   0.529  0.2970  0.2367  0.2257
  266SOL    HW1  797   1.748   1.557   0.580 -1.2016  1.9331  0.5389
  266SOL    HW2  798   1.722   1.445   0.458  1.8972 -2.8603  0.0437
  267SOL     OW  799   2.907   0.461   0.005  0.0550  0.2065  0.1419
  267SOL    HW1  800   2.874   0.366   3.105 -0.8951 -1.7503  0.1754
  267SOL    HW2  801   2.948   0.505   3.037 -3.1880 -0.5596 -0.1689
  268SOL     OW  802   0.074   2.998   2.782 -0.2457  0.2027 -0.2476
  268SOL    HW1  803   0.048   2.902   2.778 -0.8323 -0.3105  1.4598
  268SOL    HW2  804   0.023   3.049   2.704 -1.1771 -1.0749 -1.3917
  269SOL     OW  805   1.986   0.134   2.627 -0.6957  0.3510  0.5066
  269SOL    HW1  806   1.988   0.188   2.711  1.1161 -1.7085 -3.2150
  269SOL    HW2  807   2.072   0.159   2.578  1.4543 -2.5738  3.1089
  270SOL     OW  808   1.000   1.197   2.610  0.0917  0.2559 -0.1623
  270SOL    HW1  809   0.918   1.139   2.595  2.3905 -1.5992 -1.1405
  270SOL    HW2  810   1.024   1.205   2.710  1.8265 -3.2581 -1.3457
  271SOL     OW  811   2.718   1.163   0.305  0.3945  0.5962  0.3573
  271SOL    HW1  812   2.671   1.092   0.246 -1.3643  0.4242 -2.9402
  271SOL    HW2  813   2.807   1.195   0.267  0.2556  3.2774  1.2356
  272SOL     OW  814   2.857   1.717   2.687  0.7180 -0.2197 -0.0912
  272SOL    HW1  815   2.785   1.768   2.633 -0.2668  1.7534  0.3455
  272SOL    HW2  816   2.899   1.780   2.755 -0.5570 -0.4198  2.3009
  273SOL     OW  817   2.344   0.691   3.037 -0.1937  0.2608  0.4113
  273SOL    HW1  818   2.268   0.652   2.986  2.5131 -0.4618  1.3600
  273SOL    HW2  819   2.354   0.652   0.013  1.2043 -0.4234 -1.2371
  274SOL     OW  820   0.104   2.651   0.935 -0.4652  0.5604 -0.2012
  274SOL    HW1  821   0.134   2.712   0.860 -1.1339 -2.9908  0.0296
  274SOL    HW2  822   0.143   2.683   1.027  1.3889 -2.0869  0.3977
  275SOL     OW  823   2.136   1.602   0.671  0.5503 -0.0669  0.1246
  275SOL    HW1  824   2.204   1.577   0.600  1.2671  1.7452 -0.6117
  275SOL    HW2  825   2.144   1.693   0.715  1.3878  0.7221  2.5359
  276SOL     OW  826   0.169   1.277   2.832  0.0931  0.3516 -0.5817
  276SOL    HW1  827   0.270   1.283   2.826 -0.9221 -0.8368 -0.1741
  276SOL    HW2  828   0.122   1.255   2.746 -0.7491  0.8050  1.9970
  277SOL     OW  829   1.708   2.667   1.518 -0.1581  0.8245  0.6361
  277SOL    HW1  830   1.633   2.679   1.584  4.1136  0.1351 -0.9867
  277SOL    HW2  831   1.718   2.743   1.454 -1.2898 -0.2264 -1.8179
  278SOL     OW  832   1.682   0.449   1.890  0.1890  0.0098 -0.5704
  278SOL    HW1  833   1.607   0.392   1.917  1.4126  0.4275  1.6741
  278SOL    HW2  834   1.708   0.436   1.792 -0.5585 -1.0521  0.1017
  279SOL     OW  835   1.932   1.724   0.330 -0.0051 -0.8218 -0.0276
  279SOL    HW1  836   2.006   1.772   0.380  0.3755 -1.7556  1.1211
  279SOL    HW2  837   1.859   1.784   0.309  1.5465 -0.6578 -0.2545
  280SOL     OW  838   0.427   1.735   0.821 -0.4684 -0.3888  0.2586
  280SOL    HW1  839   0.471   1.678   0.749  0.7257 -0.0259  0.3540
  280SOL    HW2  840   0.486   1.748   0.905  0.1858  0.0823  0.0211
  281SOL     OW  841   3.033   0.048   2.611 -0.0732  0.0819  0.2507
  281SOL    HW1  842   3.018   0.144   2.625  0.3322 -1.4421 -1.1841
  281SOL    HW2  843   3.097   0.029   2.536 -0.3580 -0.0453  2.0395
  282SOL     OW  844   0.230   0.898   1.011  0.2833  0.0332 -0.2800
  282SOL    HW1  845   0.161   0.837   0.964 -1.4954 -1.3673  2.5878
  282SOL    HW2  846   0.181   0.955   1.081 -2.0760  1.9341  1.1159
  283SOL     OW  847   1.944   2.239   0.173  0.7217 -0.0835 -0.0156
  283SOL    HW1  848   2.038   2.227   0.130 -1.1615 -1.6404  2.4500
  283SOL    HW2  849   1.885   2.287   0.104 -1.8296 -1.8492 -0.8636
  284SOL     OW  850   1.462   1.485   0.664  0.2220 -0.0646 -0.2887
  284SOL    HW1  851   1.405   1.567   0.659 -0.5404 -2.2491 -2.0283
  284SOL    HW2  852   1.554   1.495   0.619 -0.5813 -0.7078 -1.9813
  285SOL     OW  853   2.697   0.021   2.859 -0.3520  0.2312 -0.4049
  285SOL    HW1  854   2.693   3.095   2.954  1.8864  0.5321  2.7168
  285SOL    HW2  855   2.736   3.076   2.787 -3.4612 -0.0048  0.4093
  286SOL     OW  856   1.375   3.039   1.525  0.1288 -0.0985  0.2426
  286SOL    HW1  857   1.396   2.976   1.446 -1.5454 -2.3877  0.6793
  286SOL    HW2  858   1.303   3.107   1.497  1.7648  0.6377  0.7217
  287SOL     OW  859   0.774   1.130   0.979 -0.0734  0.1806 -0.0633
  287SOL    HW1  860   0.797   1.184   0.898 -1.4521  0.1054  3.3199
  287SOL    HW2  861   0.693   1.161   1.026  2.7182 -0.0136 -1.8755
  288SOL     OW  862   1.609   0.084   2.992 -0.4390 -0.5150 -0.0007
  288SOL    HW1  863   1.640   0.161   2.936 -0.8755 -2.0310 -1.0279
  288SOL    HW2  864   1.604   0.119   3.089  0.0533 -0.8053 -0.0746
  289SOL     OW  865   0.014   1.485   2.866  0.2206 -0.2821  0.2884
  289SOL    HW1  866   3.101   1.509   2.771 -0.6885  0.7964  1.9045
  289SOL    HW2  867   0.082   1.414   2.863  0.0348  1.2414  0.4977
  290SOL     OW  868   1.605   2.247   0.701 -0.3392 -0.5363 -0.3751
  290SOL    HW1  869   1.550   2.313   0.647 -0.7232  0.1523 -2.8434
  290SOL    HW2  870   1.625   2.167   0.645 -1.3684 -1.1973 -1.0266
  291SOL     OW  871   2.267   2.121   2.784 -0.1512  0.4588  0.1654
  291SOL    HW1  872   2.206   2.136   2.866  3.4046  0.3247 -0.5861
  291SOL    HW2  873   2.260   2.026   2.751  1.1244 -0.5447 -1.5834
  292SOL     OW  874   0.988   0.941   2.020  0.3287  0.0151 -0.0633
  292SOL    HW1  875   1.011   0.937   2.120 -0.0443 -1.6435 -0.1216
  292SOL    HW2  876   1.068   0.900   1.974  0.6617  1.8827  0.5991
  293SOL     OW  877   2.005   2.875   0.969  0.4140 -0.1193  0.0899
  293SOL    HW1  878   2.042   2.945   0.904 -0.0407  0.0168 -2.3237
  293SOL    HW2  879   2.075   2.800   0.987  1.3018  1.1235  1.6238
  294SOL     OW  880   0.366   0.484   2.455  0.1073 -0.4868  0.2181
  294SOL    HW1  881   0.386   0.516   2.554  1.4166  1.8157  3.1952
  294SOL    HW2  882   0.445   0.442   2.413 -3.4533  0.0334  0.5395
  295SOL     OW  883   1.528   1.892   0.577 -0.1495 -0.0757 -0.2080
  295SOL    HW1  884   1.494   1.855   0.667  1.6705 -0.7209 -0.6526
  295SOL    HW2  885   1.458   1.875   0.500 -0.9012  2.8142 -1.6909
  296SOL     OW  886   2.429   1.947   0.059  0.0278 -0.2070  0.2024
  296SOL    HW1  887   2.465   1.949   3.080  0.5208 -2.1113 -0.2556
  296SOL    HW2  888   2.341   1.895   0.064  2.5812 -3.4065 -1.2996
  297SOL     OW  889   2.072   0.481   0.020  0.0876 -0.7805  0.0905
  297SOL    HW1  890   2.135   0.433   3.068  2.2625  0.2153  0.0317
  297SOL    HW2  891   2.088   0.479   0.116 -1.0845  1.7581 -1.6972
  298SOL     OW  892   1.171   2.453   2.449  0.0441 -0.2828 -0.3975
  298SOL    HW1  893   1.119   2.364   2.444 -0.1836 -1.5323  1.0589
  298SOL    HW2  894   1.273   2.450   2.458 -0.3431  0.4037  2.7536
  299SOL     OW  895   1.267   2.882   2.318  0.2870 -0.3160 -0.2200
  299SOL    HW1  896   1.366   2.881   2.291 -1.1871  0.1456 -1.3385
  299SOL    HW2  897   1.209   2.830   2.248  0.6345 -1.4633 -2.7323
  300SOL     OW  898   2.407   0.253   2.974  0.4546 -0.2182  0.1796
  300SOL    HW1  899   2.500   0.295   2.983  1.8510  1.8082  1.0222
  300SOL    HW2  900   2.336   0.324   2.962  0.8790  0.1901 -0.5731
  301SOL     OW  901   1.496   1.522   1.365 -0.2770 -0.0261  0.1071
  301SOL    HW1  902   1.541   1.431   1.365 -1.6969 -2.3874  3.9748
  301SOL    HW2  903   1.445   1.532   1.277  3.5004  2.1956  0.9299
  302SOL     OW  904   2.623   2.465   0.438 -1.0101  0.2023 -0.1669
  302SOL    HW1  905   2.722   2.481   0.457  0.8093 -1.9307  2.5418
  302SOL    HW2  906   2.584   2.528   0.367 -3.1447  0.7495 -0.9165
  303SOL     OW  907   2.823   2.668   2.348  0.4864 -0.1091 -0.1978
  303SOL    HW1  908   2.924   2.690   2.341  1.7561  1.8678  0.0936
  303SOL    HW2  909   2.801   2.635   2.252  0.8799  2.4196  0.3453
  304SOL     OW  910   0.029   0.645   1.953 -0.0945  0.8375  0.5175
  304SOL    HW1  911   0.022   0.634   1.851  1.7639  2.6168  1.6087
  304SOL    HW2  912   3.072   0.710   1.980  1.8729  1.5028  1.3956
  305SOL     OW  913   0.556   1.815   1.841 -0.2233  0.1585 -0.5968
  305SOL    HW1  914   0.552   1.732   1.902 -0.5601 -0.8782  2.9832
  305SOL    HW2  915   0.629   1.878   1.868  0.6032 -0.5459  1.0316
  306SOL     OW  916   2.958   0.964   1.954  0.4822  0.4370 -0.1723
  306SOL    HW1  917   3.000   1.030   2.020  0.3353  4.1425  1.3065
  306SOL    HW2  918   2.872   0.997   1.907 -3.8898  0.1394  0.8171
  307SOL     OW  919   1.741   1.303   1.877 -0.5201 -0.7196  0.0516
  307SOL    HW1  920   1.662   1.367   1.871  0.4305 -0.9488 -1.7280
  307SOL    HW2  921   1.761   1.266   1.785 -0.7827  2.3806  2.3755
  308SOL     OW  922   2.653   1.660   0.984 -0.0288 -0.4467  0.2855
  308SOL    HW1  923   2.595   1.587   1.020 -0.3634 -0.7253 -2.0687
  308SOL    HW2  924   2.599   1.746   0.978  2.4390 -1.0592  1.1025
  309SOL     OW  925   2.409   1.585   1.234  0.4000 -0.2036  0.3056
  309SOL    HW1  926   2.417   1.676   1.284 -1.0474  2.5424  1.6641
  309SOL    HW2  927   2.458   1.506   1.278 -1.3288 -1.7639  2.3842
  310SOL     OW  928   2.825   1.464   2.754 -0.2905 -0.2544 -0.3325
  310SOL    HW1  929   2.751   1.433   2.694 -0.6404  2.6417  1.5396
  310SOL    HW2  930   2.857   1.563   2.732 -0.0160 -0.3501  0.5180
  311SOL     OW  931   3.039   1.834   0.028 -0.1767 -0.7633 -0.1100
  311SOL    HW1  932   2.982   1.914   0.036  0.6898 -0.7849  0.6654
  311SOL    HW2  933   2.987   1.746   0.026 -0.2514  3.6137  1.1417
  312SOL     OW  934   2.463   1.419   0.968 -0.6337 -0.1212  0.5155
  312SOL    HW1  935   2.385   1.406   0.910  0.6808  0.1072 -0.5352
  312SOL    HW2  936   2.435   1.446   1.060  0.2219  0.6425  0.5177
  313SOL     OW  937   2.576   2.667   1.153  0.0910 -0.2231  0.4768
  313SOL    HW1  938   2.536   2.764   1.153 -0.8207 -0.4862 -1.8394
  313SOL    HW2  939   2.540   2.612   1.224  0.7448  1.7494 -3.0538
  314SOL     OW  940   1.121   1.752   0.473  0.5887  0.4622 -0.3665
  314SOL    HW1  941   1.154   1.702   0.558 -1.6117 -2.3854  3.4320
  314SOL    HW2  942   1.034   1.708   0.443 -1.0469 -3.4284  1.3703
  315SOL     OW  943   0.903   2.653   2.391  0.1591  0.3196  0.2976
  315SOL    HW1  944   0.949   2.588   2.455 -0.8067 -1.0104  0.3918
  315SOL    HW2  945   0.848   2.723   2.438 -2.0299  0.3900  1.3750
  316SOL     OW  946   0.150   0.850   0.640  0.5038  0.1977 -0.0700
  316SOL    HW1  947   0.237   0.880   0.600 -1.9963  1.2693  0.7155
  316SOL    HW2  948   0.103   0.782   0.577 -0.6561  0.5900 -1.3742
  317SOL     OW  949   0.964   0.248   0.369 -0.2795 -0.3096  0.3417
  317SOL    HW1  950   0.870   0.284   0.357 -0.0825  0.9439  1.2555
  317SOL    HW2  951   0.963   0.165   0.428 -1.1425 -0.1163 -1.6778
  318SOL     OW  952   2.881   2.560   0.436 -0.0363  0.2206  0.1262
  318SOL    HW1  953   2.959   2.533   0.495  0.5711  0.2234 -0.4716
  318SOL    HW2  954   2.874   2.662   0.415 -2.4748  0.3978 -1.6810
  319SOL     OW  955   0.712   1.311   2.546 -0.2070  0.5376 -0.1894
  319SOL    HW1  956   0.632   1.374   2.561 -0.7724  0.5521 -0.8312
  319SOL    HW2  957   0.799   1.361   2.562  0.7568 -0.7863  0.4005
  320SOL     OW  958   0.840   2.568   1.703  0.0294 -0.0129 -0.0105
  320SOL    HW1  959   0.923   2.623   1.703  0.1403  0.9673  1.4314
  320SOL    HW2  960   0.776   2.590   1.624 -3.8473  0.8277 -0.5352
  321SOL     OW  961   1.203   2.414   0.188  0.0228 -0.1642 -0.0784
  321SOL    HW1  962   1.247   2.341   0.243 -2.2206  2.0753 -0.6274
  321SOL    HW2  963   1.269   2.479   0.146 -1.1398 -0.0397 -1.8531
  322SOL     OW  964   2.614   1.017   2.164 -0.3958  0.1126 -0.0563
  322SOL    HW1  965   2.585   1.105   2.116  0.0125  2.6911 -0.7246
  322SOL    HW2  966   2.686   1.039   2.234  0.3940 -0.6334  0.5497
  323SOL     OW  967   2.466   0.848   0.393 -0.0362  0.4925  0.6717
  323SOL    HW1  968   2.368   0.844   0.352 -0.1918 -0.2500 -2.5384
  323SOL    HW2  969   2.522   0.901   0.327  0.5655 -0.7676  2.0185
  324SOL     OW  970   0.410   2.564   2.921  0.0287 -0.2202 -0.3690
  324SOL    HW1  971   0.312   2.580   2.947 -0.7357  0.8450  1.8714
  324SOL    HW2  972   0.462   2.542   3.009  1.5783  0.3838  2.8992
  325SOL     OW  973   1.670   0.399   2.403  0.4951 -0.0017  0.1135
  325SOL    HW1  974   1.710   0.491   2.388  0.4099  3.0777 -3.4556
  325SOL    HW2  975   1.711   0.339   2.333  1.8139  2.1485 -0.5925
  326SOL     OW  976   2.250   2.722   1.586 -0.2502  0.3346 -0.0214
  326SOL    HW1  977   2.328   2.659   1.579  1.6476  2.5866  0.8188
  326SOL    HW2  978   2.261   2.796   1.515  0.2617  1.5524  0.5737
  327SOL     OW  979   1.837   0.506   3.012 -0.0352 -0.2327  0.3606
  327SOL    HW1  980   1.750   0.496   3.064 -0.0708  0.9784 -1.1809
  327SOL    HW2  981   1.919   0.473   3.065 -0.3903 -2.0891  1.1142
  328SOL     OW  982   2.775   1.118   2.373 -0.5071 -0.0266  0.2187
  328SOL    HW1  983   2.733   1.203   2.405  0.3976 -0.6430  0.3979
  328SOL    HW2  984   2.791   1.060   2.456  0.2035  0.8737  1.4472
  329SOL     OW  985   1.444   0.314   1.972  0.0688 -0.2280 -0.1879
  329SOL    HW1  986   1.371   0.269   1.917  2.5095  0.2642 -1.4209
  329SOL    HW2  987   1.517   0.244   1.987  1.2914  0.2478  0.3314
  330SOL     OW  988   2.821   1.851   1.640 -0.3377  0.1291  0.0508
  330SOL    HW1  989   2.790   1.856   1.539  0.8923 -2.6193 -2.6115
  330SOL    HW2  990   2.856   1.756   1.648  0.0965 -1.3034 -3.2291
  331SOL     OW  991   0.426   1.396   2.100  0.1051  0.3088 -0.5247
  331SOL    HW1  992   0.425   1.356   2.007 -0.9798 -3.9838 -1.4327
  331SOL    HW2  993   0.489   1.344   2.158 -2.5334 -1.4679 -1.6661
  332SOL     OW  994   0.438   0.031   1.379 -0.5819  0.2191 -0.1732
  332SOL    HW1  995   0.496   0.044   1.292 -0.2677 -0.1399 -1.9547
  332SOL    HW2  996   0.416   0.118   1.423 -0.3883  0.5608 -0.9758
  333SOL     OW  997   2.210   2.805   1.852  0.5816 -0.5679  0.1227
  333SOL    HW1  998   2.298   2.846   1.868 -3.4810 -1.9487 -3.6721
  333SOL    HW2  999   2.201   2.765   1.759  0.8958  1.1785  2.8846
  334SOL     OW 1000   0.818   1.648   0.958 -0.0016 -0.0168 -0.3871
  334SOL    HW1 1001   0.740   1.698   0.999  0.8170 -1.0479 -2.2850
  334SOL    HW2 1002   0.892   1.708   0.926  0.8438  1.8423  1.6964
  335SOL     OW 1003   0.562   2.328   2.883 -0.4917 -0.0584 -0.5163
  335SOL    HW1 1004   0.512   2.418   2.883 -1.1288  0.5776 -0.3251
  335SOL    HW2 1005   0.505   2.248   2.877  1.5998  0.6966 -0.0935
  336SOL     OW 1006   0.038   0.083   1.990  0.4477 -1.0543 -0.2208
  336SOL    HW1 1007   0.034   0.059   1.891  1.1702  0.0782 -0.6277
  336SOL    HW2 1008   3.065   0.119   2.020 -0.4440 -0.6804 -0.5891
  337SOL     OW 1009   2.616   2.322   0.122  0.2153  0.3300  0.3224
  337SOL    HW1 1010   2.600   2.395   0.194  0.0240  1.1617  3.0226
  337SOL    HW2 1011   2.630   2.226   0.158  0.6058 -3.6658  0.8317
  338SOL     OW 1012   1.139   2.117   1.229 -0.0403  0.3105 -0.2079
  338SOL    HW1 1013   1.169   2.215   1.223  1.0032  0.3355  0.8186
  338SOL    HW2 1014   1.117   2.077   1.136 -1.3598  1.0065  0.6171
  339SOL     OW 1015   0.067   0.444   2.143  0.0060 -0.0598 -0.2609
  339SOL    HW1 1016   0.011   0.511   2.090  4.8779 -1.1391 -0.6972
  339SOL    HW2 1017   0.113   0.381   2.076 -0.7353  2.0716  2.2317
  340SOL     OW 1018   1.553   2.614   0.677  0.2155  0.1435  0.6799
  340SOL    HW1 1019   1.498   2.697   0.663  0.8854  2.7826 -1.1954
  340SOL    HW2 1020   1.498   2.526   0.663 -1.6986 -1.5005  1.8995
  341SOL     OW 1021   1.501   1.354   1.075 -0.3055  0.0205 -0.5458
  341SOL    HW1 1022   1.447   1.300   1.007 -1.9848 -2.5646  0.8514
  341SOL    HW2 1023   1.484   1.453   1.062  2.5041 -3.9632 -2.6492
  342SOL     OW 1024   0.233   1.366   0.849  0.0429 -0.0782  0.8018
  342SOL    HW1 1025   0.214   1.454   0.790 -4.1837  3.7618  0.6587
  342SOL    HW2 1026   0.183   1.295   0.791  3.1616 -0.2753 -1.1761
  343SOL     OW 1027   1.571   0.271   1.149  0.6222  0.0889 -0.2205
  343SOL    HW1 1028   1.561   0.343   1.079  0.0288 -2.3163  0.6396
  343SOL    HW2 1029   1.484   0.233   1.180  0.4167  0.0026  2.1099
  344SOL     OW 1030   1.969   2.396   1.292 -0.7368  0.2489  0.4046
  344SOL    HW1 1031   2.053   2.447   1.298 -0.3986  2.0790 -1.4063
  344SOL    HW2 1032   1.891   2.458   1.272 -2.5930  1.4533 -0.8871
  345SOL     OW 1033   2.928   2.435   2.954  0.2571 -0.6766 -0.4473
  345SOL    HW1 1034   2.915   2.487   2.871 -0.0063 -0.2958 -0.7461
  345SOL    HW2 1035   3.016   2.387   2.956 -5.6294  0.7226 -0.5517
  346SOL     OW 1036   0.149   1.485   1.065  0.0192  0.5194 -0.1608
  346SOL    HW1 1037   0.144   1.578   1.029  0.7999 -1.1470  0.4354
  346SOL    HW2 1038   0.199   1.432   0.992  0.0269 -2.7128  0.3029
  347SOL     OW 1039   1.787   2.541   0.761 -0.5943  0.2748 -0.4977
  347SOL    HW1 1040   1.700   2.573   0.717 -1.2566  1.9634 -3.7454
  347SOL    HW2 1041   1.781   2.544   0.864 -1.2743  0.7852  2.4032
  348SOL     OW 1042   1.120   1.451   2.537 -0.5881 -0.2586 -0.8403
  348SOL    HW1 1043   1.082   1.362   2.565  1.6348  0.3927 -1.3857
  348SOL    HW2 1044   1.062   1.495   2.465  0.3132  0.7258 -1.3503
  349SOL     OW 1045   2.321   1.274   2.285  0.5606 -0.6084  0.3769
  349SOL    HW1 1046   2.236   1.318   2.243 -4.0936 -0.3035 -2.8616
  349SOL    HW2 1047   2.289   1.192   2.338  0.5081 -2.1187  0.6232
  350SOL     OW 1048   0.136   2.474   1.301  0.5498 -0.6602 -0.4355
  350SOL    HW1 1049   0.108   2.373   1.295 -0.7941 -0.9291 -0.5017
  350SOL    HW2 1050   0.178   2.501   1.209 -0.7103  0.8203 -1.1362
  351SOL     OW 1051   0.558   0.207   2.654 -0.0490  0.5906 -0.0044
  351SOL    HW1 1052   0.581   0.215   2.755 -0.1203 -0.1828  0.9062
  351SOL    HW2 1053   0.621   0.272   2.611 -0.8527 -0.1258  0.7975
  352SOL     OW 1054   0.858   2.854   1.457  0.4340 -0.1969  0.1104
  352SOL    HW1 1055   0.933   2.827   1.523 -1.7543 -1.8427  0.1538
  352SOL    HW2 1056   0.768   2.809   1.478 -0.7109 -1.6429 -0.9136
  353SOL     OW 1057   0.938   0.796   2.468 -0.1375  0.3023  0.0693
  353SOL    HW1 1058   0.855   0.853   2.472  1.0718  0.0021  1.0434
  353SOL    HW2 1059   0.981   0.776   2.559  3.2835 -0.9002  2.4418
  354SOL     OW 1060   1.436   1.102   0.394  0.0607  0.0250  0.3092
  354SOL    HW1 1061   1.416   1.003   0.411  1.0565  0.5468  0.9966
  354SOL    HW2 1062   1.515   1.121   0.337 -1.1800  0.7332  1.8887
  355SOL     OW 1063   2.559   0.463   0.684  0.4308  0.3790  0.6696
  355SOL    HW1 1064   2.552   0.522   0.763 -0.6233  1.3492 -2.7309
  355SOL    HW2 1065   2.566   0.370   0.716 -1.5778  0.9276 -2.1753
  356SOL     OW 1066   2.772   1.033   2.622  0.0582 -0.4070  0.1307
  356SOL    HW1 1067   2.839   1.103   2.647 -1.9120 -3.2874 -0.9624
  356SOL    HW2 1068   2.806   0.942   2.641  1.6319  0.1681  0.6075
  357SOL     OW 1069   0.594   2.912   1.863  0.4388 -0.4101  0.4635
  357SOL    HW1 1070   0.637   2.960   1.787  3.3828 -0.1256 -2.3708
  357SOL    HW2 1071   0.558   2.819   1.837  0.7420 -0.8102  0.1685
  358SOL     OW 1072   2.944   1.228   2.708  0.2381  0.2320 -0.1909
  358SOL    HW1 1073   2.912   1.318   2.749 -0.2386  0.4293  1.2698
  358SOL    HW2 1074   3.040   1.229   2.670 -0.2043  1.1422  1.9201
  359SOL     OW 1075   2.523   2.791   2.893 -0.1935  0.2421 -0.0427
  359SOL    HW1 1076   2.434   2.838   2.887 -0.4737 -1.5041  0.4762
  359SOL    HW2 1077   2.513   2.696   2.857 -0.7831  1.4096 -1.9635
  360SOL     OW 1078   1.720   1.025   1.053 -0.2579  0.0466 -0.0365
  360SOL    HW1 1079   1.736   1.114   1.005  1.5459 -0.5876 -4.4335
  360SOL    HW2 1080   1.797   0.963   1.050  2.7367  0.6790 -1.9892
  361SOL     OW 1081   1.757   2.739   0.988  0.0660  0.1405 -0.2870
  361SOL    HW1 1082   1.698   2.818   1.014 -0.1691  1.1400  0.3288
  361SOL    HW2 1083   1.848   2.771   0.949 -0.5949  1.8934 -0.4997
  362SOL     OW 1084   1.346   1.212   0.893  0.2103  0.0029 -0.0875
  362SOL    HW1 1085   1.369   1.239   0.798 -0.3059  1.8773 -0.1945
  362SOL    HW2 1086   1.245   1.219   0.913 -0.3233 -0.8709  0.9892
  363SOL     OW 1087   0.018   2.032   2.632  0.0287 -0.5657  0.6501
  363SOL    HW1 1088   3.092   2.015   2.723 -0.6064  0.5921 -1.5651
  363SOL    HW2 1089   0.097   2.098   2.635 -1.9833 -2.0667 -0.1801
  364SOL     OW 1090   1.459   0.644   1.304  0.0621  0.9397  0.0582
  364SOL    HW1 1091   1.443   0.639   1.403 -0.1877 -1.9668 -1.0920
  364SOL    HW2 1092   1.529   0.578   1.264 -1.0609 -0.0496 -3.3603
  365SOL     OW 1093   0.061   2.971   1.212  0.0334 -0.3969  0.5066
  365SOL    HW1 1094   0.038   3.069   1.223 -1.1858  2.0329  2.5600
  365SOL    HW2 1095   3.095   2.920   1.171 -0.4338 -1.4041 -1.2814
  366SOL     OW 1096   2.977   1.400   0.424 -0.3354  0.4418  0.2718
  366SOL    HW1 1097   2.990   1.500   0.394  0.9587  1.8124  0.4528
  366SOL    HW2 1098   2.888   1.388   0.479  1.8474  1.7776  0.4380
  367SOL     OW 1099   2.955   1.912   2.846 -0.4619 -0.6482  0.4820
  367SOL    HW1 1100   2.882   1.980   2.823  0.8166  0.5543  1.7251
  367SOL    HW2 1101   2.960   1.890   2.948  0.2766  2.4965 -0.6064
  368SOL     OW 1102   2.854   2.070   1.288  0.2978 -0.0384  0.0700
  368SOL    HW1 1103   2.820   2.163   1.253  0.1551  3.2352  1.9895
  368SOL    HW2 1104   2.783   2.021   1.338 -0.9186  0.3423  2.3161
  369SOL     OW 1105   0.710   0.322   0.355  0.0381  0.3868 -0.8698
  369SOL    HW1 1106   0.686   0.346   0.262 -0.6581  2.3634  0.6922
  369SOL    HW2 1107   0.623   0.326   0.408  0.2062 -1.6485 -2.2555
  370SOL     OW 1108   0.642   0.541   1.359 -0.1536 -0.3132 -0.0846
  370SOL    HW1 1109   0.706   0.525   1.282 -0.6364  1.4342  0.0949
  370SOL    HW2 1110   0.702   0.575   1.438  0.7347 -0.3240  0.3492
  371SOL     OW 1111   2.458   1.742   0.239  0.0325 -0.1485  0.2875
  371SOL    HW1 1112   2.470   1.689   0.157  0.1450  1.6831  1.4622
  371SOL    HW2 1113   2.412   1.830   0.203 -0.4558  3.9874 -1.1758
  372SOL     OW 1114   0.201   0.955   2.570  0.7114  0.1092 -0.2805
  372SOL    HW1 1115   0.242   0.924   2.659 -1.8748  1.1748 -0.4930
  372SOL    HW2 1116   0.274   0.945   2.502 -2.1413 -0.9236  1.2737
  373SOL     OW 1117   2.526   1.307   0.680  0.2749 -0.4084 -0.6289
  373SOL    HW1 1118   2.459   1.313   0.604 -0.2127  1.8910 -0.3151
  373SOL    HW2 1119   2.508   1.377   0.751 -1.1516  0.6415 -0.4425
  374SOL     OW 1120   0.510   2.454   0.065  0.3252 -0.1223 -0.2287
  374SOL    HW1 1121   0.532   2.354   0.071  0.5244 -0.6400 -2.0718
  374SOL    HW2 1122   0.580   2.508   0.111  0.1822  1.0566 -1.3717
  375SOL     OW 1123   0.786   0.315   0.058  0.4738  0.2168 -0.8217
  375SOL    HW1 1124   0.803   0.330   3.074 -0.3855 -2.3066  1.3091
  375SOL    HW2 1125   0.742   0.224   0.079  0.5584 -1.0740 -1.0893
  376SOL     OW 1126   0.248   3.015   2.028 -0.1961 -0.4908 -0.9885
  376SOL    HW1 1127   0.164   3.070   2.041 -1.6624 -2.7339  1.3268
  376SOL    HW2 1128   0.329   3.078   2.025  0.7799 -0.8904  1.0855
  377SOL     OW 1129   0.514   1.876   2.242  0.1535  0.1538 -0.1379
  377SOL    HW1 1130   0.458   1.822   2.310  0.1289  0.2531  2.0354
  377SOL    HW2 1131   0.589   1.821   2.205  0.3090  0.4550  1.4020
  378SOL     OW 1132   1.428   0.829   0.396 -0.0540 -0.4933 -0.6019
  378SOL    HW1 1133   1.385   0.778   0.316 -0.7430 -0.8794 -0.5390
  378SOL    HW2 1134   1.413   0.778   0.483  2.1603  0.3020 -1.4558
  379SOL     OW 1135   1.393   1.362   0.288  0.5031 -0.1899  0.2159
  379SOL    HW1 1136   1.441   1.275   0.320 -1.3862  1.1930  1.4834
  379SOL    HW2 1137   1.456   1.442   0.305  0.2311 -0.0190  0.9457
  380SOL     OW 1138   2.633   2.107   2.172  0.1115  0.0816  0.1494
  380SOL    HW1 1139   2.729   2.073   2.164 -0.5056 -2.1902 -0.6215
  380SOL    HW2 1140   2.627   2.205   2.173 -2.6882 -1.8982 -0.9188
  381SOL     OW 1141   0.404   0.655   1.706  0.2103 -0.1123  0.3433
  381SOL    HW1 1142   0.434   0.754   1.693 -1.5609 -1.9705  0.2335
  381SOL    HW2 1143   0.361   0.649   1.798 -0.0269 -0.4492 -1.8855
  382SOL     OW 1144   2.722   2.234   2.985 -0.0941 -0.2564 -0.3825
  382SOL    HW1 1145   2.787   2.309   2.967 -1.6641 -1.8127 -0.9233
  382SOL    HW2 1146   2.666   2.255   3.066 -1.9426 -3.1711 -1.2373
  383SOL     OW 1147   2.055   1.844   2.244  0.5230 -0.2157  0.8095
  383SOL    HW1 1148   2.112   1.786   2.178 -1.2998  3.0705  0.4918
  383SOL    HW2 1149   1.980   1.779   2.275  0.2048 -3.4611 -1.1761
  384SOL     OW 1150   0.591   2.127   2.307  0.0337  0.1896 -0.0078
  384SOL    HW1 1151   0.549   2.038   2.289  0.2642 -0.0876  0.9432
  384SOL    HW2 1152   0.577   2.149   2.408  0.2280  1.3552  0.5948
  385SOL     OW 1153   2.703   2.223   0.759 -0.1502  0.6357 -0.1926
  385SOL    HW1 1154   2.758   2.241   0.845 -0.9632 -3.1598  1.2437
  385SOL    HW2 1155   2.646   2.302   0.733  0.1286 -2.1865  0.8843
  386SOL     OW 1156   1.686   0.709   0.052 -0.0927 -0.0184 -0.0324
  386SOL    HW1 1157   1.674   0.660   0.136 -1.2516  0.4189  1.2880
  386SOL    HW2 1158   1.789   0.708   0.039 -2.6628  2.5142 -1.8707
  387SOL     OW 1159   0.455   0.905   1.629  0.5645 -0.0737 -0.7119
  387SOL    HW1 1160   0.423   0.937   1.541  0.3185 -0.0691  1.9877
  387SOL    HW2 1161   0.550   0.941   1.652  0.3133 -2.6590 -0.0254
  388SOL     OW 1162   2.958   0.860   1.535 -0.6163  0.3602 -0.9437
  388SOL    HW1 1163   2.919   0.768   1.547  0.1844  0.6753 -1.7286
  388SOL    HW2 1164   2.882   0.928   1.541  1.9569 -3.6755  1.7143
  389SOL     OW 1165   1.811   1.037   2.559 -0.4935  0.3468  0.1634
  389SOL    HW1 1166   1.716   1.020   2.583  3.5081 -0.3456  2.0434
  389SOL    HW2 1167   1.826   1.137   2.536  0.3289  0.0742  0.3477
  390SOL     OW 1168   2.238   2.126   0.515  0.0059  0.1898  0.3720
  390SOL    HW1 1169   2.230   2.125   0.619  0.5265  1.2781  1.0199
  390SOL    HW2 1170   2.314   2.185   0.482 -0.7751 -0.2509 -1.1926
  391SOL     OW 1171   1.345   2.749   0.918  0.2410 -0.0224  0.2383
  391SOL    HW1 1172   1.381   2.787   0.828  3.9638  3.5950  0.2427
  391SOL    HW2 1173   1.417   2.684   0.956  0.6221 -1.4031 -0.9003
  392SOL     OW 1174   2.533   2.983   1.503  0.1339  0.3388 -0.1856
  392SOL    HW1 1175   2.581   2.898   1.534  1.1400 -1.2587  0.4362
  392SOL    HW2 1176   2.438   2.966   1.464 -0.1873  1.1852  0.0704
  393SOL     OW 1177   1.864   2.157   2.869  0.5959 -0.4860 -0.5397
  393SOL    HW1 1178   1.890   2.247   2.914 -2.9447  3.0146 -1.6962
  393SOL    HW2 1179   1.930   2.086   2.900 -0.7100 -1.8822 -0.4424
  394SOL     OW 1180   0.552   2.672   2.703 -0.0318  0.3024 -0.2343
  394SOL    HW1 1181   0.493   2.635   2.773 -1.0006 -1.9936 -1.7270
  394SOL    HW2 1182   0.651   2.665   2.721 -0.5201  0.1945  0.5319
  395SOL     OW 1183   0.556   1.217   1.133 -0.5381 -0.3483 -0.0502
  395SOL    HW1 1184   0.499   1.157   1.070 -1.9427 -0.8926  0.2772
  395SOL    HW2 1185   0.515   1.306   1.150 -0.9497  0.6681 -1.5678
  396SOL     OW 1186   1.901   1.276   2.474 -0.1825  0.3436  0.4751
  396SOL    HW1 1187   1.922   1.304   2.377 -0.3284 -0.7517 -0.5910
  396SOL    HW2 1188   1.981   1.282   2.538  0.4046 -0.6876 -0.7627
  397SOL     OW 1189   2.967   0.821   2.746  0.1291 -0.1998  0.0660
  397SOL    HW1 1190   2.948   0.731   2.697  0.4936  0.0339 -1.8878
  397SOL    HW2 1191   3.069   0.832   2.751 -0.7292  0.4387  2.3867
  398SOL     OW 1192   1.474   0.411   0.352  0.0602 -0.0527  0.2906
  398SOL    HW1 1193   1.529   0.333   0.384  0.5006  1.1851 -0.6582
  398SOL    HW2 1194   1.379   0.412   0.388  2.4145 -0.9431  1.2976
  399SOL     OW 1195   1.827   2.933   1.775 -0.1011  0.2288  0.5129
  399SOL    HW1 1196   1.741   2.952   1.723  0.3127 -0.1637 -1.4295
  399SOL    HW2 1197   1.809   2.883   1.861  0.8148  1.3693 -0.2098
  400SOL     OW 1198   0.002   2.465   1.971  0.3591  0.6536 -0.2078
  400SOL    HW1 1199   0.003   2.370   1.931  2.2424  0.7181 -0.3071
  400SOL    HW2 1200   0.056   2.532   1.911  1.2529 -0.7295 -1.0094
  401SOL     OW 1201   0.630   0.087   0.104 -0.2624  0.1694  0.5131
  401SOL    HW1 1202   0.528   0.087   0.121 -1.2752  0.5441 -2.5031
  401SOL    HW2 1203   0.647   0.016   0.036 -0.0810  3.0629  1.5575
  402SOL     OW 1204   0.475   2.507   1.531 -0.6020 -0.0694 -0.6028
  402SOL    HW1 1205   0.471   2.404   1.555  0.3576 -2.2470  3.5774
  402SOL    HW2 1206   0.381   2.542   1.512 -0.1420 -0.5082  1.3122
  403SOL     OW 1207   0.249   1.018   1.769 -0.1614 -0.5149 -0.0764
  403SOL    HW1 1208   0.159   0.967   1.768  0.7946 -1.1256 -1.6975
  403SOL    HW2 1209   0.330   0.984   1.717  0.0246  1.0331 -1.1013
  404SOL     OW 1210   2.801   2.561   2.102 -0.3934 -0.1036 -0.2731
  404SOL    HW1 1211   2.904   2.548   2.109  1.2280  1.4824 -0.2230
  404SOL    HW2 1212   2.769   2.553   2.006 -2.3858 -1.6591  1.1239
  405SOL     OW 1213   2.562   0.251   2.443  0.3464  0.1591 -0.2747
  405SOL    HW1 1214   2.499   0.178   2.474  0.3147 -0.7034  2.3504
  405SOL    HW2 1215   2.604   0.247   2.352 -1.0911  0.7072  0.1168
  406SOL     OW 1216   1.879   2.628   0.250 -0.6936 -0.2431 -0.5981
  406SOL    HW1 1217   1.968   2.590   0.286 -0.9628 -2.0176  2.2309
  406SOL    HW2 1218   1.806   2.631   0.316  3.2504 -0.8721  0.3726
  407SOL     OW 1219   2.020   1.456   0.376  0.0401 -0.2769 -0.1936
  407SOL    HW1 1220   2.020   1.409   0.469 -2.6807 -2.5948 -1.4875
  407SOL    HW2 1221   1.977   1.550   0.372 -0.7357  1.1961 -2.3301
  408SOL     OW 1222   0.435   0.465   2.127 -0.3767  0.3188  0.2409
  408SOL    HW1 1223   0.392   0.399   2.064  3.8040  0.1027 -1.3915
  408SOL    HW2 1224   0.489   0.411   2.199 -1.4096 -0.2737 -3.1740
  409SOL     OW 1225   2.959   1.671   0.371  0.0725 -0.3898 -0.2254
  409SOL    HW1 1226   2.856   1.699   0.371 -3.0902  0.3014 -0.4363
  409SOL    HW2 1227   3.015   1.749   0.343 -0.0266 -2.3035  0.4735
  410SOL     OW 1228   2.125   1.621   1.231 -0.4598  0.5787  0.3885
  410SOL    HW1 1229   2.226   1.602   1.227  0.6770  0.5908 -0.0213
  410SOL    HW2 1230   2.068   1.541   1.206  1.5091  0.3817  0.4722
  411SOL     OW 1231   0.063   0.642   0.413 -0.4784 -0.1325  0.0272
  411SOL    HW1 1232   0.030   0.612   0.321 -2.8442 -3.5973 -1.7487
  411SOL    HW2 1233   0.067   0.565   0.478  2.0521 -0.2811  0.8880
  412SOL     OW 1234   1.623   0.396   0.055  0.4216  0.4342  0.2379
  412SOL    HW1 1235   1.660   0.451   0.136  0.5588  0.8705  0.6555
  412SOL    HW2 1236   1.594   0.303   0.087  2.1006 -0.3202  1.5521
  413SOL     OW 1237   1.254   0.362   1.557  0.6058 -0.0100  0.3740
  413SOL    HW1 1238   1.315   0.439   1.580 -2.8087 -1.6621 -1.6859
  413SOL    HW2 1239   1.235   0.363   1.454 -1.5000 -1.3792 -4.9405
  414SOL     OW 1240   0.247   1.209   0.335  0.1743  0.2605 -0.4473
  414SOL    HW1 1241   0.257   1.115   0.303 -1.0021  0.3326  2.4320
  414SOL    HW2 1242   0.234   1.266   0.251 -1.2549 -1.6323  0.1133
  415SOL     OW 1243   0.187   1.576   0.618 -0.5562 -0.3410  0.4017
  415SOL    HW1 1244   0.110   1.636   0.621  2.0911 -1.4386  2.6378
  415SOL    HW2 1245   0.155   1.488   0.588 -0.6343  2.7657  1.1450
  416SOL     OW 1246   1.930   0.836   0.309  0.0487  0.2882 -0.3460
  416SOL    HW1 1247   1.834   0.837   0.345 -0.6212 -2.2574 -0.8022
  416SOL    HW2 1248   1.972   0.748   0.346  0.6435 -0.7722 -0.3961
  417SOL     OW 1249   3.008   0.204   0.442  0.3801  0.2416  0.0957
  417SOL    HW1 1250   3.050   0.109   0.448  2.3808 -0.8975 -0.6522
  417SOL    HW2 1251   3.052   0.247   0.360  0.2674  0.0169 -0.0085
  418SOL     OW 1252   2.593   0.977   0.148  0.3605 -0.5433 -0.1873
  418SOL    HW1 1253   2.657   0.950   0.076 -1.2814 -1.2231  2.2237
  418SOL    HW2 1254   2.504   1.001   0.103 -0.3099 -0.0754  1.0026
  419SOL     OW 1255   0.679   0.560   0.135 -1.0636  0.4650 -0.4647
  419SOL    HW1 1256   0.584   0.578   0.134  4.1794 -2.0052  0.2170
  419SOL    HW2 1257   0.709   0.476   0.086  2.5219 -1.8070  0.8144
  420SOL     OW 1258   0.488   1.236   0.698 -0.3540  0.1798  0.7863
  420SOL    HW1 1259   0.559   1.305   0.702  0.5109 -2.0945  0.7015
  420SOL    HW2 1260   0.406   1.273   0.740  1.3141  1.0924 -2.1798
  421SOL     OW 1261   0.429   1.932   0.104  0.1256  0.1692  0.0786
  421SOL    HW1 1262   0.429   1.883   0.192  0.1660  0.8911  0.4004
  421SOL    HW2 1263   0.333   1.931   0.061 -1.6713 -0.2100 -2.2771
  422SOL     OW 1264   2.507   0.217   1.746  0.5332  0.3399 -0.2773
  422SOL    HW1 1265   2.471   0.133   1.795 -0.2361  0.3089  0.4091
  422SOL    HW2 1266   2.509   0.198   1.645 -0.3836  0.5430 -1.5421
  423SOL     OW 1267   2.162   1.880   0.453 -0.2114  0.3219 -0.8735
  423SOL    HW1 1268   2.214   1.801   0.489 -2.1329  0.3054  1.1936
  423SOL    HW2 1269   2.212   1.966   0.472 -1.1869 -2.3869 -1.6575
  424SOL     OW 1270   1.857   1.415   2.878 -0.2611 -0.5601 -0.6745
  424SOL    HW1 1271   1.905   1.453   2.961 -0.5085 -2.2471  3.3025
  424SOL    HW2 1272   1.764   1.455   2.869  2.7193  1.5219  0.4196
  425SOL     OW 1273   0.299   2.892   2.412 -0.2062 -0.2443  0.1297
  425SOL    HW1 1274   0.326   2.915   2.509  0.2757 -0.2211  0.8384
  425SOL    HW2 1275   0.378   2.865   2.353  0.8482 -0.7897  0.4126
  426SOL     OW 1276   2.294   2.936   2.839  0.0112  0.0192 -1.0047
  426SOL    HW1 1277   2.331   3.031   2.841 -0.8730 -0.2622 -1.5007
  426SOL    HW2 1278   2.208   2.935   2.785  2.0535 -1.5094  3.3093
  427SOL     OW 1279   0.586   1.096   2.093 -0.0125 -0.3252  0.0619
  427SOL    HW1 1280   0.641   1.010   2.075  1.7653 -0.0706  2.7716
  427SOL    HW2 1281   0.633   1.164   2.149  0.8728 -0.4754  0.5200
  428SOL     OW 1282   2.299   1.562   2.371  0.1973 -0.3417 -0.3730
  428SOL    HW1 1283   2.336   1.466   2.365  2.5156  0.3609  0.5867
  428SOL    HW2 1284   2.274   1.603   2.276 -2.0426 -0.8846 -2.4057
  429SOL     OW 1285   2.365   0.197   0.600  0.4132 -0.3821 -0.3518
  429SOL    HW1 1286   2.334   0.171   0.504  0.0042 -1.8280  0.0052
  429SOL    HW2 1287   2.413   0.121   0.648 -0.5272  1.0360 -0.7380
  430SOL     OW 1288   1.669   1.367   2.533  0.6864  0.5543  0.1003
  430SOL    HW1 1289   1.754   1.317   2.516 -0.5713 -0.3957 -1.2605
  430SOL    HW2 1290   1.618   1.367   2.449  0.5435 -3.5556  3.9011
  431SOL     OW 1291   2.840   2.030   1.857 -0.8038  0.0546 -0.5240
  431SOL    HW1 1292   2.876   1.967   1.781  0.0674 -2.4914 -0.2176
  431SOL    HW2 1293   2.833   2.128   1.830 -1.2898 -1.9377  2.0619
  432SOL     OW 1294   0.729   2.668   2.023  0.5358 -0.5219  0.3428
  432SOL    HW1 1295   0.755   2.606   1.941  1.6053  0.9541 -2.0405
  432SOL    HW2 1296   0.782   2.756   2.018 -0.6703 -2.6040 -0.6644
  433SOL     OW 1297   1.533   2.961   1.019  0.2760 -0.1877  1.0397
  433SOL    HW1 1298   1.557   3.012   0.930  2.4476 -0.3567  0.2353
  433SOL    HW2 1299   1.462   2.891   1.007  1.3121  0.0902  1.3866
  434SOL     OW 1300   0.421   2.217   1.877  0.2869  0.3421  0.3458
  434SOL    HW1 1301   0.519   2.229   1.846  0.3751  3.3508  2.0911
  434SOL    HW2 1302   0.408   2.120   1.918  0.4977 -2.9257  0.3858
  435SOL     OW 1303   0.450   1.578   0.577  0.2345 -0.3529  0.7426
  435SOL    HW1 1304   0.475   1.497   0.522  0.7887  0.2790  2.3205
  435SOL    HW2 1305   0.347   1.591   0.595 -0.6594 -1.9104  0.2705
  436SOL     OW 1306   0.180   1.503   1.763 -0.0113  0.0471 -0.2071
  436SOL    HW1 1307   0.196   1.584   1.823 -1.0659 -1.8451 -0.4599
  436SOL    HW2 1308   0.106   1.524   1.692 -1.0239 -0.5612 -0.6125
  437SOL     OW 1309   1.287   0.504   0.136  0.1954 -0.4257  0.8401
  437SOL    HW1 1310   1.343   0.469   0.216  0.1403  0.2735 -2.5122
  437SOL    HW2 1311   1.308   0.600   0.118  1.8228 -1.1296  2.3275
  438SOL     OW 1312   0.567   1.859   1.286 -0.4517 -0.7963 -0.2640
  438SOL    HW1 1313   0.488   1.929   1.285 -0.2969  1.9501  1.6576
  438SOL    HW2 1314   0.529   1.774   1.322  3.7065  3.5100 -3.3137
  439SOL     OW 1315   1.439   1.787   2.640  0.2440  0.7399  0.2505
  439SOL    HW1 1316   1.445   1.879   2.595  0.1372  1.1808 -1.6610
  439SOL    HW2 1317   1.516   1.729   2.615  0.2695 -1.2068 -1.9827
  440SOL     OW 1318   1.569   0.468   0.963 -0.2912 -0.2248 -0.1188
  440SOL    HW1 1319   1.540   0.565   0.951  2.7740 -0.9666  0.6106
  440SOL    HW2 1320   1.665   0.452   0.931 -0.4562  3.2810  1.1010
  441SOL     OW 1321   0.632   2.712   1.479 -0.5940 -0.2487  0.1368
  441SOL    HW1 1322   0.570   2.641   1.512  0.2758  0.4764 -0.2666
  441SOL    HW2 1323   0.603   2.803   1.518 -0.2991  3.2183 -1.1916
  442SOL     OW 1324   2.335   2.352   0.877 -0.1857  0.2143 -0.7618
  442SOL    HW1 1325   2.394   2.380   0.798  0.7451 -0.1237  1.8830
  442SOL    HW2 1326   2.256   2.408   0.880  0.1375 -0.3649 -0.1152
  443SOL     OW 1327   2.860   0.725   2.279  0.1782 -0.3740 -0.1508
  443SOL    HW1 1328   2.775   0.746   2.329 -0.0482 -1.0024 -1.4062
  443SOL    HW2 1329   2.942   0.745   2.338  2.6014  2.6203 -2.6466
  444SOL     OW 1330   1.453   0.872   2.279 -0.4351 -0.4301 -0.0253
  444SOL    HW1 1331   1.551   0.885   2.254  0.0339  0.1861  2.0078
  444SOL    HW2 1332   1.406   0.842   2.197  0.8830  1.6415 -0.6692
  445SOL     OW 1333   2.729   2.305   1.198  0.3458 -0.1535 -0.2430
  445SOL    HW1 1334   2.766   2.320   1.295 -1.5510 -0.1602 -0.5844
  445SOL    HW2 1335   2.626   2.308   1.199  0.8865 -0.5428 -0.7599
  446SOL     OW 1336   0.137   1.141   0.714 -0.2160 -0.0839  0.1947
  446SOL    HW1 1337   0.148   1.042   0.703  1.2116 -1.4653  0.8173
  446SOL    HW2 1338   0.102   1.184   0.629 -0.5681 -0.2246  1.3683
  447SOL     OW 1339   0.604   2.086   0.748 -0.1204 -0.1392  0.0295
  447SOL    HW1 1340   0.576   2.167   0.799  3.0502 -5.1259 -1.4561
  447SOL    HW2 1341   0.520   2.030   0.734 -0.2878 -5.6686  2.6303
  448SOL     OW 1342   1.674   1.491   1.590 -0.2373  0.2850  0.4034
  448SOL    HW1 1343   1.637   1.513   1.686 -1.7164  0.3095  3.9072
  448SOL    HW2 1344   1.595   1.487   1.527 -0.3405 -4.6542  0.4906
  449SOL     OW 1345   0.609   1.699   2.831  0.5289  0.2651 -0.0422
  449SOL    HW1 1346   0.619   1.602   2.869 -0.9195 -0.0446  2.5673
  449SOL    HW2 1347   0.642   1.768   2.897 -1.4123  0.5354 -0.6332
  450SOL     OW 1348   2.461   2.089   1.954 -0.7577  0.2059  0.0352
  450SOL    HW1 1349   2.367   2.065   1.992 -0.1374  0.3985  1.0053
  450SOL    HW2 1350   2.521   2.107   2.032 -1.9110 -1.7702 -2.3505
  451SOL     OW 1351   2.358   0.441   1.894 -0.2780 -0.6839  0.1280
  451SOL    HW1 1352   2.403   0.361   1.855 -1.2503 -1.8676 -0.3421
  451SOL    HW2 1353   2.362   0.517   1.829  0.9519 -1.3597 -0.5118
  452SOL     OW 1354   0.916   2.487   1.123 -0.7650  0.4656  0.2013
  452SOL    HW1 1355   0.906   2.582   1.160  2.4422 -0.4025  1.6568
  452SOL    HW2 1356   1.014   2.480   1.099 -0.4884 -0.7628 -0.4360
  453SOL     OW 1357   0.850   1.402   0.879 -0.3849 -0.2807  0.2697
  453SOL    HW1 1358   0.814   1.396   0.788 -0.7354 -0.3524  2.1280
  453SOL    HW2 1359   0.841   1.499   0.915 -0.1753 -0.5890  0.3736
  454SOL     OW 1360   2.822   1.072   0.923 -0.4583 -0.2368 -0.2191
  454SOL    HW1 1361   2.922   1.065   0.939  2.7843  0.7050 -0.1216
  454SOL    HW2 1362   2.790   1.171   0.926 -1.3926  1.5526 -1.9350
  455SOL     OW 1363   0.282   0.188   0.417 -0.0603  0.3778 -0.2178
  455SOL    HW1 1364   0.197   0.240   0.390 -3.5480  0.5145 -2.5508
  455SOL    HW2 1365   0.366   0.244   0.428 -1.5533 -1.4586  2.0006
  456SOL     OW 1366   2.129   2.525   0.346 -0.1455 -0.1502  0.1987
  456SOL    HW1 1367   2.140   2.592   0.425  0.2706  1.0487  0.6658
  456SOL    HW2 1368   2.079   2.445   0.381  0.1107  2.4278  0.1818
  457SOL     OW 1369   1.116   2.748   0.089 -0.4853  0.1148  0.2678
  457SOL    HW1 1370   1.205   2.788   0.121  2.4937 -1.0509  2.1464
  457SOL    HW2 1371   1.138   2.689   0.003  1.6745  1.8420 -2.2515
  458SOL     OW 1372   2.863   2.982   0.267 -0.1559  0.2563 -0.2559
  458SOL    HW1 1373   2.867   2.936   0.172 -0.8401 -2.0483 -0.1785
  458SOL    HW2 1374   2.806   3.063   0.264  2.7272  0.1062 -0.0351
  459SOL     OW 1375   2.544   0.524   2.077  0.3348  0.0951 -0.6070
  459SOL    HW1 1376   2.540   0.476   2.168 -1.6228 -3.7053  0.5282
  459SOL    HW2 1377   2.479   0.492   2.005  2.9066 -1.6551  2.9799
  460SOL     OW 1378   3.104   0.561   0.177 -0.0919  0.4522  0.3027
  460SOL    HW1 1379   0.059   0.609   0.123 -1.7048 -0.6333 -0.0455
  460SOL    HW2 1380   3.021   0.544   0.120 -0.4905 -1.4333  0.0961
  461SOL     OW 1381   0.153   1.882   1.412 -0.3908  0.4253 -0.3513
  461SOL    HW1 1382   0.078   1.879   1.343  2.1039  0.2186  0.9823
  461SOL    HW2 1383   0.231   1.930   1.372 -1.8251 -0.2885 -2.0680
  462SOL     OW 1384   2.779   3.004   0.941  0.0105  0.2436  0.3371
  462SOL    HW1 1385   2.774   3.084   0.882  1.7088  0.0766  0.1720
  462SOL    HW2 1386   2.750   3.027   1.038 -2.3676 -0.9693  2.0204
  463SOL     OW 1387   2.985   1.213   0.219 -0.4803  0.0790  0.0168
  463SOL    HW1 1388   2.980   1.269   0.304  1.6738  1.9460  2.4382
  463SOL    HW2 1389   3.025   1.260   0.135  0.9170 -1.7674 -0.8195
  464SOL     OW 1390   0.536   2.535   1.044  0.0393  0.5783 -0.6848
  464SOL    HW1 1391   0.489   2.598   1.112 -1.0075  3.3445  2.2220
  464SOL    HW2 1392   0.607   2.476   1.085 -0.2636  1.9943 -2.0871
  465SOL     OW 1393   0.828   0.504   1.169 -0.1180  0.1443  0.5305
  465SOL    HW1 1394   0.915   0.468   1.130 -1.0375 -1.3575 -1.3237
  465SOL    HW2 1395   0.773   0.549   1.092  1.3465  1.7799 -0.4216
  466SOL     OW 1396   1.442   2.624   2.239 -0.4737  0.0397  0.2524
  466SOL    HW1 1397   1.476   2.579   2.154  3.0286  2.1727 -3.0969
  466SOL    HW2 1398   1.497   2.709   2.264 -1.0069 -0.7033  2.1453
  467SOL     OW 1399   0.977   0.314   1.911  0.4255  0.5118 -0.3422
  467SOL    HW1 1400   1.002   0.384   1.983 -0.8298  1.0183 -0.3093
  467SOL    HW2 1401   0.987   0.221   1.955  0.0582  2.5342  1.2146
  468SOL     OW 1402   0.356   0.887   2.322 -0.4830 -0.0654 -0.6756
  468SOL    HW1 1403   0.328   0.947   2.246  0.2459 -0.4979 -0.9927
  468SOL    HW2 1404   0.302   0.799   2.316 -0.6177 -0.2102  0.6474
  469SOL     OW 1405   0.793   2.300   0.678 -0.5565 -0.4488  0.6426
  469SOL    HW1 1406   0.799   2.365   0.755  0.9685  2.2853 -1.1483
  469SOL    HW2 1407   0.734   2.227   0.713 -0.5295  0.8946  0.2224
  470SOL     OW 1408   2.502   1.706   2.050 -0.0056  0.2443  0.5560
  470SOL    HW1 1409   2.593   1.664   2.066  0.3784 -1.9700  0.5952
  470SOL    HW2 1410   2.501   1.762   1.964  1.0209 -0.3718 -2.2407
  471SOL     OW 1411   1.060   3.017   2.844  0.1634 -0.3038 -0.0050
  471SOL    HW1 1412   1.011   3.036   2.929  1.6901 -0.9972  4.1152
  471SOL    HW2 1413   1.159   3.027   2.855 -2.4356 -2.3955 -1.0399
  472SOL     OW 1414   0.431   2.671   1.765  0.0788 -0.2472 -0.2646
  472SOL    HW1 1415   0.394   2.653   1.855 -2.1006  0.8933 -1.3282
  472SOL    HW2 1416   0.452   2.581   1.727 -1.2188 -0.0792  0.6547
  473SOL     OW 1417   0.838   0.055   2.689  0.7556  0.7126  0.0896
  473SOL    HW1 1418   0.887   3.093   2.726 -2.4417 -0.9209 -0.5482
  473SOL    HW2 1419   0.739   0.035   2.713  0.2917 -1.8129  0.2356
  474SOL     OW 1420   1.888   0.161   0.971  0.0309 -0.0077  0.7230
  474SOL    HW1 1421   1.920   0.154   1.066 -0.9472  0.4567  0.7735
  474SOL    HW2 1422   1.849   0.253   0.949  1.1463 -1.1511  0.2979
  475SOL     OW 1423   1.730   0.414   1.324 -0.1221 -0.5158  1.0061
  475SOL    HW1 1424   1.682   0.355   1.261  0.1784  2.6866 -0.5385
  475SOL    HW2 1425   1.828   0.435   1.302 -1.7229 -1.5959 -0.1389
  476SOL     OW 1426   0.439   1.077   0.941 -0.1031 -0.3045  0.5388
  476SOL    HW1 1427   0.348   1.041   0.968 -0.1539  0.9701 -2.7798
  476SOL    HW2 1428   0.438   1.080   0.839 -1.7369  0.3975 -2.0023
  477SOL     OW 1429   1.145   2.404   0.671 -0.2832  0.0172 -0.2413
  477SOL    HW1 1430   1.102   2.430   0.577 -3.0120  1.8136 -1.6957
  477SOL    HW2 1431   1.088   2.425   0.754 -0.8469  3.5681  2.7043
  478SOL     OW 1432   3.103   2.620   2.302 -0.1219  0.1050  0.1498
  478SOL    HW1 1433   0.045   2.662   2.379  0.4977  1.8998 -0.8758
  478SOL    HW2 1434   0.039   2.543   2.255  1.2009 -1.0605 -1.3268
  479SOL     OW 1435   2.598   0.603   0.914 -0.5130 -0.4174 -0.0587
  479SOL    HW1 1436   2.685   0.652   0.899 -0.9922 -0.1229 -1.5844
  479SOL    HW2 1437   2.515   0.662   0.898  1.7683 -0.2286 -0.6745
  480SOL     OW 1438   0.058   2.677   0.113 -0.1149 -0.3590  0.4364
  480SOL    HW1 1439   0.005   2.599   0.146  2.3794 -0.5070 -0.4075
  480SOL    HW2 1440   0.078   2.742   0.185 -1.5722  0.3944 -2.5821
  481SOL     OW 1441   2.200   2.095   1.620 -0.3716  0.0520  0.1837
  481SOL    HW1 1442   2.184   2.043   1.703 -0.2428  3.3138 -1.4874
  481SOL    HW2 1443   2.141   2.076   1.543 -1.9929 -1.8095 -1.0758
  482SOL     OW 1444   1.435   2.334   2.731 -0.7989  0.1922 -0.6464
  482SOL    HW1 1445   1.507   2.400   2.768  1.6824 -0.9276 -0.2889
  482SOL    HW2 1446   1.425   2.352   2.629 -1.0537 -1.3098 -2.8212
  483SOL     OW 1447   0.707   1.632   1.617  0.3880 -0.5988 -0.0043
  483SOL    HW1 1448   0.659   1.715   1.661  0.2249  0.3995 -0.0194
  483SOL    HW2 1449   0.672   1.539   1.648  0.0300 -2.0677  0.2481
  484SOL     OW 1450   0.462   0.325   1.348 -0.0339  0.0326 -0.1716
  484SOL    HW1 1451   0.513   0.410   1.376  0.3220  1.5548 -2.0618
  484SOL    HW2 1452   0.453   0.327   1.246 -0.7397  0.8932 -1.2942
  485SOL     OW 1453   2.284   1.205   3.017 -0.4729  0.3235  0.0754
  485SOL    HW1 1454   2.232   1.225   2.936  2.2416  0.0890  2.3250
  485SOL    HW2 1455   2.385   1.207   2.995 -1.3251  0.1001  1.1790
  486SOL     OW 1456   1.639   3.046   1.608  0.9391 -0.5131  0.2427
  486SOL    HW1 1457   1.660   0.028   1.630  0.2764 -0.3600 -0.3134
  486SOL    HW2 1458   1.547   3.039   1.558  0.9116  0.0114 -1.2339
  487SOL     OW 1459   0.422   2.239   1.471 -0.1182  0.4642  0.8682
  487SOL    HW1 1460   0.492   2.173   1.494 -2.3188 -1.2558 -1.5037
  487SOL    HW2 1461   0.432   2.256   1.373 -0.1643 -1.3330 -0.6496
  488SOL     OW 1462   2.468   2.305   2.767 -0.2018 -0.0079 -0.1302
  488SOL    HW1 1463   2.393   2.242   2.758  0.6997  0.6656  0.8549
  488SOL    HW2 1464   2.524   2.273   2.843 -1.0635 -1.6357 -2.3687
  489SOL     OW 1465   1.934   2.977   0.666  0.1258  0.7053 -0.1310
  489SOL    HW1 1466   1.937   2.877   0.657  0.8837 -0.0798  1.1499
  489SOL    HW2 1467   1.930   3.007   0.569  1.4388 -3.6860 -4.5563
  490SOL     OW 1468   1.016   2.220   2.856  0.1131 -0.2232 -0.2192
  490SOL    HW1 1469   1.075   2.168   2.794  1.0965  2.0085 -0.1220
  490SOL    HW2 1470   1.068   2.274   2.929  0.5571  1.4313  0.1613
  491SOL     OW 1471   0.489   1.638   1.407 -0.0923 -0.0429 -0.5156
  491SOL    HW1 1472   0.446   1.701   1.469  2.3201 -3.1050 -2.4314
  491SOL    HW2 1473   0.563   1.584   1.449 -0.6847 -0.4364 -2.0882
  492SOL     OW 1474   1.228   1.287   1.937  0.3707  0.2312  0.4988
  492SOL    HW1 1475   1.141   1.245   1.909  0.2524  1.0160  0.5357
  492SOL    HW2 1476   1.257   1.340   1.851  0.3572  0.2831 -1.6971
  493SOL     OW 1477   2.572   1.915   0.974 -0.0041  0.2130  0.5111
  493SOL    HW1 1478   2.550   1.971   1.058 -1.9978 -1.4437 -0.2656
  493SOL    HW2 1479   2.671   1.931   0.959  0.2121  2.2763  1.4246
  494SOL     OW 1480   0.118   1.924   1.065 -0.1446 -0.5545  0.2796
  494SOL    HW1 1481   0.071   2.004   1.010 -1.3188 -2.1992 -2.0145
  494SOL    HW2 1482   0.061   1.896   1.141  1.1270  2.9262 -2.2858
  495SOL     OW 1483   2.305   2.728   0.825 -0.1775  0.8663  0.2091
  495SOL    HW1 1484   2.405   2.703   0.836  1.3028 -0.8983  1.0368
  495SOL    HW2 1485   2.261   2.688   0.914  2.7353 -1.4803  3.6169
  496SOL     OW 1486   2.346   0.174   1.380 -0.2438 -0.0410  0.2527
  496SOL    HW1 1487   2.442   0.160   1.415 -0.0486  0.4634  0.0707
  496SOL    HW2 1488   2.282   0.126   1.442  1.6685  0.7383 -1.7068
  497SOL     OW 1489   2.280   0.916   2.758 -0.0334 -0.3460 -0.1824
  497SOL    HW1 1490   2.204   0.930   2.687 -0.4131 -0.3710 -0.2163
  497SOL    HW2 1491   2.243   0.921   2.853  2.4546 -0.0036 -0.9327
  498SOL     OW 1492   0.009   2.226   1.344 -0.3569 -0.9805 -0.1288
  498SOL    HW1 1493   3.037   2.180   1.332  2.9652 -1.2150  2.1788
  498SOL    HW2 1494   0.066   2.184   1.417 -0.2582  3.6045 -0.6197
  499SOL     OW 1495   0.840   2.031   2.198  0.1378  0.1340  0.4619
  499SOL    HW1 1496   0.757   2.063   2.249 -0.1148  0.8521 -0.3599
  499SOL    HW2 1497   0.925   2.079   2.235 -0.0327 -0.2672 -0.5634
  500SOL     OW 1498   1.149   2.036   0.448  0.1292  0.5136  0.8775
  500SOL    HW1 1499   1.056   2.058   0.420 -1.6685 -0.5923  2.3575
  500SOL    HW2 1500   1.161   1.935   0.460  1.1350 -2.2581  2.2822
  501SOL     OW 1501   1.727   2.919   1.390  0.3397  0.4850  0.5268
  501SOL    HW1 1502   1.720   3.005   1.334 -0.9776  1.2865  0.2680
  501SOL    HW2 1503   1.701   2.944   1.484  0.1453 -0.4780  0.0904
  502SOL     OW 1504   2.682   0.435   1.702 -0.5579 -0.1465 -0.4948
  502SOL    HW1 1505   2.736   0.432   1.787 -0.6229 -0.7278  2.5525
  502SOL    HW2 1506   2.619   0.354   1.697 -1.1855 -0.7161  0.6079
  503SOL     OW 1507   2.686   1.393   2.358 -0.0401 -0.2479  0.2424
  503SOL    HW1 1508   2.705   1.491   2.351 -3.4122 -0.2689  0.5668
  503SOL    HW2 1509   2.641   1.365   2.275  2.1765  0.7335  1.9493
  504SOL     OW 1510   1.668   0.934   1.555  0.2874  0.0419  0.6260
  504SOL    HW1 1511   1.740   0.866   1.583  0.8848 -0.3917 -0.0587
  504SOL    HW2 1512   1.667   0.948   1.453 -1.2765  0.5238  0.7221
  505SOL     OW 1513   0.562   2.966   1.539 -0.1594  0.1622 -0.2113
  505SOL    HW1 1514   0.627   3.029   1.594 -0.2379 -1.8290  1.4110
  505SOL    HW2 1515   0.519   3.013   1.458 -2.8524  0.8301 -1.3351
  506SOL     OW 1516   0.060   0.287   0.244 -0.0824 -0.1879 -0.7533
  506SOL    HW1 1517   0.062   0.389   0.214  2.3700  2.3051 -2.4757
  506SOL    HW2 1518   0.043   0.229   0.160  0.0363 -1.0536 -1.2056
  507SOL     OW 1519   2.849   2.600   0.055  0.1803 -0.2741 -0.9205
  507SOL    HW1 1520   2.875   2.540   3.093  0.6963 -4.0339 -0.3396
  507SOL    HW2 1521   2.891   2.557   0.138 -1.9793 -1.8758  0.7991
  508SOL     OW 1522   1.287   0.560   1.917  0.0290 -0.2180  0.4251
  508SOL    HW1 1523   1.234   0.545   1.834  1.8186  1.1451  1.7997
  508SOL    HW2 1524   1.338   0.484   1.950 -2.6724 -0.6925 -0.6497
  509SOL     OW 1525   1.759   1.840   1.087 -0.6057 -0.1623 -0.1156
  509SOL    HW1 1526   1.808   1.803   1.172  1.6776 -2.1153 -2.1866
  509SOL    HW2 1527   1.659   1.823   1.081  0.5605  1.2014 -2.7728
  510SOL     OW 1528   2.528   0.854   1.421  0.5573 -0.3114  0.1412
  510SOL    HW1 1529   2.540   0.769   1.468  1.8757  0.1173 -3.8712
  510SOL    HW2 1530   2.515   0.939   1.480  1.4233  0.4682 -0.6387
  511SOL     OW 1531   1.297   1.902   1.247  0.1557  0.1648 -0.0912
  511SOL    HW1 1532   1.244   1.988   1.242  0.3978 -0.6313  0.5515
  511SOL    HW2 1533   1.359   1.909   1.327 -0.7569  0.6980  0.2014
  512SOL     OW 1534   2.979   1.663   0.639  0.0334  0.2741  0.1173
  512SOL    HW1 1535   2.960   1.663   0.539 -2.1631  0.4706  1.5393
  512SOL    HW2 1536   3.038   1.738   0.671  1.4899 -2.2272  1.4288
  513SOL     OW 1537   0.223   1.298   0.082  0.0292  0.0981 -0.0885
  513SOL    HW1 1538   0.229   1.383   0.026  0.4595 -2.8092  0.0824
  513SOL    HW2 1539   0.147   1.234   0.048 -1.3005 -2.7558  0.5977
  514SOL     OW 1540   2.230   2.033   2.083 -0.2107  0.5136  0.4398
  514SOL    HW1 1541   2.268   1.980   2.163  1.6688  0.1905  1.1577
  514SOL    HW2 1542   2.191   2.122   2.116  1.4907  0.1359 -0.2719
  515SOL     OW 1543   2.186   1.161   0.580  0.4850 -0.2782  0.2706
  515SOL    HW1 1544   2.117   1.130   0.517  0.5979  1.1453  1.6188
  515SOL    HW2 1545   2.243   1.228   0.531  1.8217 -0.7937  0.8473
  516SOL     OW 1546   2.396   2.912   0.123  0.7431  0.5501 -0.5415
  516SOL    HW1 1547   2.310   2.857   0.094  0.3468 -2.1475  1.6584
  516SOL    HW2 1548   2.480   2.870   0.092 -0.7532 -2.2097  0.1242
  517SOL     OW 1549   0.954   1.548   2.855  0.7333  0.4859 -0.2346
  517SOL    HW1 1550   0.992   1.451   2.862 -1.0059 -1.9265  1.4535
  517SOL    HW2 1551   1.033   1.615   2.835  2.5476  1.2711 -1.4963
  518SOL     OW 1552   0.266   0.276   1.988  0.0627  0.4974 -0.3699
  518SOL    HW1 1553   0.326   0.257   1.908 -2.7116  0.8847 -0.4168
  518SOL    HW2 1554   0.192   0.202   1.996 -0.4618 -2.4157  1.3781
  519SOL     OW 1555   1.122   1.172   0.249  0.4148 -0.2911  0.3528
  519SOL    HW1 1556   1.213   1.132   0.239 -1.2127 -1.1776  0.1487
  519SOL    HW2 1557   1.117   1.252   0.311 -2.2580 -1.0991 -5.8034
  520SOL     OW 1558   2.616   2.375   2.180  0.3074 -0.1058 -0.1379
  520SOL    HW1 1559   2.535   2.427   2.213  0.1021  0.7542 -2.5764
  520SOL    HW2 1560   2.696   2.434   2.174 -2.7375 -0.3430  0.6332
  521SOL     OW 1561   0.403   1.967   2.022 -0.0144 -0.3744  0.9302
  521SOL    HW1 1562   0.445   1.935   2.107 -1.2752  0.9739 -1.1781
  521SOL    HW2 1563   0.423   1.901   1.944  0.1053 -0.5742  0.3490
  522SOL     OW 1564   1.337   2.967   1.820  0.2836 -0.2041 -0.2458
  522SOL    HW1 1565   1.261   2.915   1.862  2.0023  0.4165  0.7349
  522SOL    HW2 1566   1.325   3.003   1.726 -0.1630  0.3713  1.1051
  523SOL     OW 1567   1.862   2.166   1.408  0.2276  0.3401 -0.2512
  523SOL    HW1 1568   1.930   2.092   1.425 -3.7349  2.6126  1.5396
  523SOL    HW2 1569   1.902   2.257   1.387  0.9619  1.8723 -1.4832
  524SOL     OW 1570   0.664   2.442   0.491  0.6420 -0.1659  0.0424
  524SOL    HW1 1571   0.636   2.532   0.540  1.0524  5.1621 -2.1570
  524SOL    HW2 1572   0.710   2.384   0.564 -1.0917 -3.3075 -1.2949
  525SOL     OW 1573   2.832   0.306   0.615  0.0800  0.3476 -0.5071
  525SOL    HW1 1574   2.851   0.405   0.621 -1.0827 -2.9312 -1.1757
  525SOL    HW2 1575   2.891   0.261   0.545 -0.9794  0.3061  0.7167
  526SOL     OW 1576   0.939   0.006   0.506  0.5532  0.0096 -0.5380
  526SOL    HW1 1577   0.862   0.049   0.562 -0.4130 -0.7587 -2.2979
  526SOL    HW2 1578   0.946   3.022   0.534  0.1720  1.1572  1.3850
  527SOL     OW 1579   1.892   1.433   0.891  0.5706  0.1684 -0.4937
  527SOL    HW1 1580   1.820   1.363   0.870  1.8154 -0.5128 -3.9657
  527SOL    HW2 1581   1.880   1.505   0.822  1.6788  1.3560 -1.6519
  528SOL     OW 1582   2.756   2.485   2.581 -0.0538  0.1363 -0.2123
  528SOL    HW1 1583   2.757   2.557   2.511  1.8723 -5.2564 -0.5950
  528SOL    HW2 1584   2.727   2.393   2.545 -0.4641  2.1679 -2.0196
  529SOL     OW 1585   0.970   1.633   2.368  0.5124 -0.1551 -0.5086
  529SOL    HW1 1586   0.901   1.668   2.301 -2.5694  1.5862 -2.7108
  529SOL    HW2 1587   1.028   1.570   2.316 -2.5174  1.6184  1.8347
  530SOL     OW 1588   1.660   0.897   2.922  0.3190 -0.3485  0.2380
  530SOL    HW1 1589   1.630   0.818   2.973  0.0388  3.0307 -0.6856
  530SOL    HW2 1590   1.745   0.871   2.870  0.0880 -3.2179 -0.1333
  531SOL     OW 1591   0.364   0.868   0.477  0.2207  0.4112 -0.1172
  531SOL    HW1 1592   0.441   0.930   0.499 -4.7036 -2.0447  0.1503
  531SOL    HW2 1593   0.319   0.908   0.389  2.2127  0.2182 -0.2376
  532SOL     OW 1594   1.728   1.213   0.826 -0.1163  0.4334 -0.1756
  532SOL    HW1 1595   1.758   1.146   0.756  0.4276 -2.1201 -0.4787
  532SOL    HW2 1596   1.628   1.237   0.827 -2.4631  0.4342  0.8037
  533SOL     OW 1597   0.555   0.329   2.350 -0.1523  0.2691 -0.1586
  533SOL    HW1 1598   0.541   0.228   2.340  1.1468 -3.3003 -1.3952
  533SOL    HW2 1599   0.629   0.351   2.421  1.3752 -2.5772 -1.3278
  534SOL     OW 1600   0.583   3.063   2.839 -0.2493  0.1522  0.1091
  534SOL    HW1 1601   0.635   3.014   2.911 -4.2439 -0.0503 -0.7894
  534SOL    HW2 1602   0.487   3.051   2.859  2.9022 -0.7989  0.3691
  535SOL     OW 1603   0.418   0.337   0.010 -0.0393  0.4063  0.8977
  535SOL    HW1 1604   0.411   0.428   0.062 -1.3983  3.2086 -1.6949
  535SOL    HW2 1605   0.386   0.249   0.062 -2.0012 -1.5253  1.7248
  536SOL     OW 1606   0.632   0.797   2.339  0.1101 -0.5487  0.4782
  536SOL    HW1 1607   0.537   0.830   2.350  2.5740  0.0787 -0.3052
  536SOL    HW2 1608   0.662   0.817   2.244  0.1577 -1.4337  1.8846
  537SOL     OW 1609   1.320   0.153   1.236 -0.3755  0.3556  0.1824
  537SOL    HW1 1610   1.269   0.070   1.201  0.2892 -2.8132 -1.1477
  537SOL    HW2 1611   1.258   0.221   1.273  0.5051 -0.0677 -0.4969
  538SOL     OW 1612   0.862   1.895   0.125 -0.4119  0.0984  0.0038
  538SOL    HW1 1613   0.918   1.975   0.123 -1.6504 -0.3428 -1.2404
  538SOL    HW2 1614   0.912   1.814   0.092  1.0921  1.1051 -2.1303
  539SOL     OW 1615   2.542   1.338   1.866  0.0515 -0.6146  0.0148
  539SOL    HW1 1616   2.638   1.359   1.847  1.6184  2.1314  0.6048
  539SOL    HW2 1617   2.475   1.399   1.814 -1.7944 -1.6639 -2.1043
  540SOL     OW 1618   1.739   1.726   1.898  0.6989 -0.4427  0.0787
  540SOL    HW1 1619   1.657   1.728   1.836  3.8949  2.3712  0.2406
  540SOL    HW2 1620   1.816   1.753   1.839  0.7767  0.1736 -0.1555
  541SOL     OW 1621   0.773   1.214   1.694 -0.7074 -0.4371  0.9278
  541SOL    HW1 1622   0.738   1.120   1.711 -0.0450 -0.5070 -1.2060
  541SOL    HW2 1623   0.785   1.230   1.591 -1.2429 -1.3435 -0.1086
  542SOL     OW 1624   1.811   0.632   2.305 -0.0807  0.1421 -0.2468
  542SOL    HW1 1625   1.802   0.731   2.325 -2.5064 -0.0184 -0.9540
  542SOL    HW2 1626   1.845   0.621   2.208 -0.7087 -1.1145  2.0408
  543SOL     OW 1627   0.969   0.658   0.334 -0.0306  0.3597 -0.0973
  543SOL    HW1 1628   0.999   0.751   0.327 -0.5553 -1.7603  1.0684
  543SOL    HW2 1629   0.978   0.612   0.241 -0.1854 -0.3920 -1.2255
  544SOL     OW 1630   2.431   1.959   2.285  0.0025 -0.4162  0.2715
  544SOL    HW1 1631   2.442   1.873   2.235  2.1800  1.4819 -1.0354
  544SOL    HW2 1632   2.503   2.024   2.254 -0.9661 -2.5371  2.3393
  545SOL     OW 1633   1.781   2.007   1.607  0.2160 -0.0429 -0.2221
  545SOL    HW1 1634   1.788   2.075   1.527 -0.5879 -1.4491 -2.0847
  545SOL    HW2 1635   1.803   2.049   1.697  0.5763 -3.6410  0.2997
  546SOL     OW 1636   0.123   0.157   2.856  0.0802  0.3667  0.6339
  546SOL    HW1 1637   0.184   0.192   2.781 -0.4993  0.1678 -1.4011
  546SOL    HW2 1638   0.082   0.071   2.827  4.6699  2.1098  0.1493
  547SOL     OW 1639   2.336   0.971   0.012  0.4363 -0.0266  0.4656
  547SOL    HW1 1640   2.287   1.053   3.091 -0.2149 -4.0359 -1.3451
  547SOL    HW2 1641   2.358   0.899   3.054  4.1361  0.2409  0.2669
  548SOL     OW 1642   1.982   2.068   2.383  0.1211 -0.0296 -0.3851
  548SOL    HW1 1643   2.026   1.985   2.338  2.2282 -1.7897 -1.3812
  548SOL    HW2 1644   1.926   2.044   2.469 -0.8988  1.1121  1.5992
  549SOL     OW 1645   2.180   0.270   0.783 -0.1240  0.4804 -0.3420
  549SOL    HW1 1646   2.164   0.170   0.770 -2.3867  0.1174 -0.8234
  549SOL    HW2 1647   2.259   0.305   0.728  0.5328  0.2253 -2.6721
  550SOL     OW 1648   2.358   1.892   0.796 -0.0284 -0.1502 -0.0007
  550SOL    HW1 1649   2.402   1.947   0.720 -1.5666 -0.5282 -0.7605
  550SOL    HW2 1650   2.416   1.880   0.879 -0.5580  0.4581 -1.1731
  551SOL     OW 1651   1.230   0.251   1.793  0.1994 -0.0544 -0.3438
  551SOL    HW1 1652   1.131   0.255   1.811 -0.9779  0.9520  1.0388
  551SOL    HW2 1653   1.258   0.296   1.705 -0.2039  1.4544 -3.0385
  552SOL     OW 1654   0.263   2.430   2.500 -0.1927 -0.6963  0.2902
  552SOL    HW1 1655   0.245   2.376   2.418  2.6259  0.3184  1.3928
  552SOL    HW2 1656   0.362   2.433   2.513 -1.6033 -2.2483  0.0250
  553SOL     OW 1657   0.750   2.949   0.298  0.4318 -0.1527  0.4063
  553SOL    HW1 1658   0.816   3.019   0.260  2.3189 -0.4208  1.2945
  553SOL    HW2 1659   0.690   2.988   0.373 -0.1395  1.3353  2.1279
  554SOL     OW 1660   2.128   2.350   1.768  0.1067  0.2933  0.1298
  554SOL    HW1 1661   2.229   2.339   1.752 -3.4089 -0.5968  0.4306
  554SOL    HW2 1662   2.093   2.413   1.701 -0.4263 -2.7687  3.1981
  555SOL     OW 1663   1.243   2.105   1.978 -0.5298 -0.0651 -0.2115
  555SOL    HW1 1664   1.240   2.087   2.079  1.7088  1.4472  3.2208
  555SOL    HW2 1665   1.167   2.058   1.928  0.4755 -0.1149 -0.8144
  556SOL     OW 1666   1.376   1.593   1.131 -0.4450 -0.0433  0.1609
  556SOL    HW1 1667   1.413   1.689   1.126  0.0768 -2.4771  0.7412
  556SOL    HW2 1668   1.278   1.586   1.101 -3.2395 -0.5382 -1.5966
  557SOL     OW 1669   1.852   2.164   1.867  0.1240 -0.4156 -0.5763
  557SOL    HW1 1670   1.866   2.089   1.935  1.0578 -0.1982  1.9841
  557SOL    HW2 1671   1.934   2.217   1.870  0.5530 -1.5581 -3.5899
  558SOL     OW 1672   0.469   0.196   1.778 -0.1027  0.4324 -0.1213
  558SOL    HW1 1673   0.490   0.123   1.850 -0.6495  1.4682  3.8514
  558SOL    HW2 1674   0.553   0.244   1.749  0.7976  1.2823  3.1185
  559SOL     OW 1675   2.298   2.913   1.352 -0.0244  0.1760 -0.2604
  559SOL    HW1 1676   2.380   2.905   1.293  1.9831  1.8154  0.1574
  559SOL    HW2 1677   2.220   2.945   1.291  1.5229 -2.5886  0.5842
  560SOL     OW 1678   0.925   2.231   0.418 -0.1741 -0.0609 -0.0318
  560SOL    HW1 1679   0.878   2.236   0.506  1.3823 -1.4865 -1.0462
  560SOL    HW2 1680   0.990   2.308   0.425 -0.4910 -1.7077  2.8319
  561SOL     OW 1681   1.008   0.509   0.097  0.1603  0.1032  0.8946
  561SOL    HW1 1682   1.107   0.492   0.118  0.1985  1.3227  0.6241
  561SOL    HW2 1683   0.952   0.419   0.095 -0.3350  0.0106  2.8947
  562SOL     OW 1684   0.745   0.387   2.529  0.2965 -0.3459  0.2077
  562SOL    HW1 1685   0.832   0.368   2.569 -1.4723  2.2605 -0.2880
  562SOL    HW2 1686   0.712   0.487   2.540  0.6380  1.1183 -0.5400
  563SOL     OW 1687   1.588   2.090   2.822 -0.2143 -0.5213 -0.0601
  563SOL    HW1 1688   1.679   2.122   2.855  3.0759  1.5797  0.9427
  563SOL    HW2 1689   1.523   2.165   2.807 -0.3028 -1.3481  0.8715
  564SOL     OW 1690   2.695   0.927   0.692  0.5952 -0.0256 -0.3109
  564SOL    HW1 1691   2.595   0.930   0.696  0.9193  2.2137 -2.7693
  564SOL    HW2 1692   2.729   0.990   0.766 -1.5709  0.8021  2.0408
  565SOL     OW 1693   1.528   0.010   2.676  0.3989  0.0930 -0.1847
  565SOL    HW1 1694   1.543   0.109   2.678  0.0948 -0.8333  1.0172
  565SOL    HW2 1695   1.477   3.100   2.760 -2.7177 -0.5154 -1.6922
  566SOL     OW 1696   1.776   0.195   2.255  0.2335 -0.1913 -0.4281
  566SOL    HW1 1697   1.746   0.118   2.316  1.3496  0.0205  1.1747
  566SOL    HW2 1698   1.744   0.182   2.160  2.4687 -1.7922  0.9813
  567SOL     OW 1699   2.516   1.634   0.716 -0.0748  0.3488 -0.4088
  567SOL    HW1 1700   2.453   1.697   0.760  3.0698  0.0907 -1.2098
  567SOL    HW2 1701   2.605   1.688   0.701  1.7781  0.5144  0.5631
  568SOL     OW 1702   1.869   1.991   0.261  0.6849  0.1582 -0.1397
  568SOL    HW1 1703   1.870   2.071   0.195  0.2704  2.5269 -0.2043
  568SOL    HW2 1704   1.863   2.031   0.356  1.4908  0.2725 -1.6155
  569SOL     OW 1705   2.254   1.561   2.996  0.2613  0.3115  0.0706
  569SOL    HW1 1706   2.193   1.603   2.926  1.4324 -0.2775  1.0480
  569SOL    HW2 1707   2.202   1.497   3.049  0.5037 -0.8864 -2.7837
  570SOL     OW 1708   3.026   2.868   1.763  0.1122  0.0778 -0.0999
  570SOL    HW1 1709   2.931   2.911   1.766 -1.2632  1.0343 -1.6811
  570SOL    HW2 1710   3.096   2.938   1.757  1.9915 -0.6260 -2.2584
  571SOL     OW 1711   0.168   0.319   2.358  0.5618  0.0334  0.2982
  571SOL    HW1 1712   0.130   0.335   2.264 -1.4499 -2.8236  0.5459
  571SOL    HW2 1713   0.232   0.392   2.385  0.5393 -1.5586  0.8153
  572SOL     OW 1714   0.746   1.626   0.624 -0.0040 -0.1622  0.4380
  572SOL    HW1 1715   0.643   1.637   0.621  2.5781  1.2310 -1.4488
  572SOL    HW2 1716   0.788   1.704   0.674 -1.7340  2.4214 -1.5087
  573SOL     OW 1717   0.705   2.954   3.048 -0.0500  1.0122 -0.2546
  573SOL    HW1 1718   0.678   2.851   3.041 -1.7521 -2.5101 -1.0348
  573SOL    HW2 1719   0.792   2.959   3.100  0.2586  0.3111  0.7230
  574SOL     OW 1720   0.942   0.244   0.783 -0.0235 -0.7464  0.2322
  574SOL    HW1 1721   0.921   0.181   0.860  0.6021  0.9851 -2.1206
  574SOL    HW2 1722   0.866   0.306   0.755  1.0658  3.0936  2.0902
  575SOL     OW 1723   3.037   1.224   1.682 -0.2957 -0.1292  0.1085
  575SOL    HW1 1724   3.091   1.138   1.675 -2.6203  2.0414  0.5069
  575SOL    HW2 1725   3.029   1.261   1.776 -2.2994  2.6434  1.2294
  576SOL     OW 1726   2.022   0.379   1.632  0.0076 -1.1759  0.6497
  576SOL    HW1 1727   2.015   0.291   1.576  0.4814 -2.0001 -2.1898
  576SOL    HW2 1728   2.019   0.468   1.574 -0.3346  3.5098 -0.8957
  577SOL     OW 1729   0.051   1.181   2.108  0.5764  0.0886  0.6304
  577SOL    HW1 1730   3.115   1.107   2.156  1.8498 -0.3140 -1.6213
  577SOL    HW2 1731   0.145   1.145   2.095  0.9987  0.6785  3.6421
  578SOL     OW 1732   1.790   2.900   2.371 -0.4702  0.1733 -0.2005
  578SOL    HW1 1733   1.774   2.987   2.417 -3.1263  0.4943 -0.2515
  578SOL    HW2 1734   1.831   2.832   2.434 -1.1994 -0.8530 -1.7497
  579SOL     OW 1735   2.132   1.914   1.827 -0.6527  0.2002  0.0500
  579SOL    HW1 1736   2.123   1.957   1.919  1.4909  0.8808 -1.2697
  579SOL    HW2 1737   2.039   1.884   1.795  2.8616  0.4806 -1.0702
  580SOL     OW 1738   1.873   1.665   2.323  0.1796  0.2141 -0.1028
  580SOL    HW1 1739   1.813   1.667   2.401 -2.2187 -2.2446  0.7679
  580SOL    HW2 1740   1.830   1.624   2.239 -0.4893 -0.9879  1.3522
  581SOL     OW 1741   1.412   1.041   2.914  0.2299  0.1007  0.0228
  581SOL    HW1 1742   1.354   0.964   2.889  0.5797 -0.0068  0.2338
  581SOL    HW2 1743   1.511   1.018   2.889  2.3909  0.9174 -1.6036
  582SOL     OW 1744   0.743   2.209   1.510  0.3233 -0.0103 -0.2792
  582SOL    HW1 1745   0.746   2.211   1.610  0.0231 -1.9004  0.7015
  582SOL    HW2 1746   0.832   2.176   1.477 -1.3363  1.5730  3.0685
  583SOL     OW 1747   1.319   1.202   1.220  0.0844 -0.2310  0.1175
  583SOL    HW1 1748   1.273   1.129   1.161 -1.7538  1.9151 -1.5730
  583SOL    HW2 1749   1.397   1.242   1.172 -0.2937 -1.8935  0.7855
  584SOL     OW 1750   1.408   2.415   0.579  0.1006  0.2699  0.0352
  584SOL    HW1 1751   1.388   2.362   0.496  0.1930 -0.4703  1.8263
  584SOL    HW2 1752   1.322   2.424   0.631  0.8024 -0.3519 -2.2297
  585SOL     OW 1753   2.606   2.735   0.021  0.0183 -0.2040 -0.1507
  585SOL    HW1 1754   2.698   2.689   0.027  1.6930  0.6231  0.4386
  585SOL    HW2 1755   2.571   2.748   3.041 -2.1587  0.6442 -0.2107
  586SOL     OW 1756   2.673   1.833   0.687 -0.3531  0.3827  0.0674
  586SOL    HW1 1757   2.738   1.843   0.765  0.1816 -0.7163 -1.3744
  586SOL    HW2 1758   2.606   1.912   0.677  0.5070  3.0051 -1.7710
  587SOL     OW 1759   1.052   1.494   0.108 -0.3852 -0.3782 -0.4104
  587SOL    HW1 1760   1.138   1.453   0.064  0.1409 -1.3720  1.4635
  587SOL    HW2 1761   1.044   1.467   0.206 -0.3199 -1.7148  0.6357
  588SOL     OW 1762   0.474   0.337   0.767  0.0263  0.1375 -0.0622
  588SOL    HW1 1763   0.409   0.256   0.766 -1.7250 -2.3638 -0.6517
  588SOL    HW2 1764   0.434   0.400   0.833  1.1790 -1.5919 -0.2685
  589SOL     OW 1765   1.220   0.335   0.476  0.7072 -0.3115  0.1550
  589SOL    HW1 1766   1.128   0.313   0.438 -1.4118 -2.4353  1.9379
  589SOL    HW2 1767   1.216   0.400   0.553 -0.3832  1.6935  0.7871
  590SOL     OW 1768   2.247   2.452   0.125  0.3361  0.2603  0.1386
  590SOL    HW1 1769   2.224   2.497   0.213  1.0694 -0.1166  0.0634
  590SOL    HW2 1770   2.203   2.501   0.051  1.5159  1.8712  4.1679
  591SOL     OW 1771   0.292   2.757   1.988  0.2328  0.1778 -0.0231
  591SOL    HW1 1772   0.266   2.854   2.010  0.2787  2.1493 -0.8098
  591SOL    HW2 1773   0.218   2.720   1.929  1.5634 -0.1721  2.0325
  592SOL     OW 1774   3.028   1.546   2.339  0.1570 -0.5596 -0.4421
  592SOL    HW1 1775   3.069   1.451   2.340  2.6476 -1.4481 -0.0228
  592SOL    HW2 1776   3.069   1.595   2.260 -1.2299 -1.0205 -1.8160
  593SOL     OW 1777   1.986   1.409   1.143 -0.3172  0.3693  0.2499
  593SOL    HW1 1778   1.938   1.374   1.227  1.6302 -4.3092  0.9091
  593SOL    HW2 1779   1.931   1.434   1.065 -0.3516  0.7142  2.0783
  594SOL     OW 1780   0.481   1.225   3.076  0.4713  0.5909 -0.4314
  594SOL    HW1 1781   0.467   1.283   2.989 -0.2051  0.1337 -2.8157
  594SOL    HW2 1782   0.420   1.255   0.031  6.6356 -0.3170 -2.5204
  595SOL     OW 1783   1.098   1.297   0.998 -0.0229  0.1713  0.1243
  595SOL    HW1 1784   1.114   1.214   1.057 -0.3963 -3.5068 -1.5582
  595SOL    HW2 1785   1.002   1.295   0.975  1.3383  0.1254  0.4145
  596SOL     OW 1786   2.832   1.205   1.259 -0.3409  1.0200  0.4656
  596SOL    HW1 1787   2.793   1.111   1.248  1.7000  1.3160 -1.5439
  596SOL    HW2 1788   2.856   1.256   1.173 -0.1370 -2.1156 -2.0257
  597SOL     OW 1789   1.179   2.312   1.708  1.0703  0.1818  0.5669
  597SOL    HW1 1790   1.087   2.341   1.734  0.4443 -1.4916  1.2136
  597SOL    HW2 1791   1.174   2.210   1.693 -0.9541  1.1533  1.1523
  598SOL     OW 1792   2.248   2.641   2.061 -0.3071  0.1110  0.0660
  598SOL    HW1 1793   2.172   2.594   2.116 -3.3148 -2.1150  1.8581
  598SOL    HW2 1794   2.229   2.646   1.962  0.7761 -1.3688  1.0197
  599SOL     OW 1795   1.023   1.069   3.071 -0.0879 -0.4597 -0.0009
  599SOL    HW1 1796   1.044   1.063   0.056 -1.2964  1.9749  0.2182
  599SOL    HW2 1797   1.014   0.977   3.036  1.5619  1.0470  1.8727
  600SOL     OW 1798   1.027   0.789   2.788 -0.6043 -0.3627 -0.0588
  600SOL    HW1 1799   1.024   0.793   2.891 -0.9959  0.9491 -0.6086
  600SOL    HW2 1800   1.128   0.785   2.772 -2.9616  2.0264 -0.7589
  601SOL     OW 1801   0.806   0.630   1.571  0.0296 -0.3938 -0.1186
  601SOL    HW1 1802   0.853   0.720   1.596  1.7118  1.8575 -1.8171
  601SOL    HW2 1803   0.758   0.583   1.649 -0.4948 -2.3702  2.3189
  602SOL     OW 1804   0.275   2.441   0.684 -0.7971 -0.3428 -0.0602
  602SOL    HW1 1805   0.261   2.344   0.705  2.7039  1.3019 -0.3321
  602SOL    HW2 1806   0.281   2.462   0.584  2.7894 -0.8770 -3.2811
  603SOL     OW 1807   0.920   2.386   2.109 -0.2718  0.3142 -0.0565
  603SOL    HW1 1808   0.854   2.435   2.169 -2.6463 -1.3583  0.9755
  603SOL    HW2 1809   1.016   2.428   2.115 -0.7460  1.3503  3.2029
  604SOL     OW 1810   0.190   1.905   3.085  0.5959 -0.1795 -0.3156
  604SOL    HW1 1811   0.212   1.880   2.991  1.8789  1.3494 -0.5896
  604SOL    HW2 1812   0.101   1.860   3.115  0.0378  0.3695  1.2703
  605SOL     OW 1813   2.108   1.578   1.915  0.0759 -0.1623 -0.2776
  605SOL    HW1 1814   2.029   1.613   1.860 -2.9909  1.9023 -1.8343
  605SOL    HW2 1815   2.132   1.489   1.873 -1.6140 -2.2181 -0.4412
  606SOL     OW 1816   1.069   1.270   2.880 -0.3462 -0.1242 -0.1098
  606SOL    HW1 1817   1.046   1.206   2.953  0.5239  0.5277 -2.3333
  606SOL    HW2 1818   1.164   1.307   2.896 -1.3938 -2.0203 -1.5455
  607SOL     OW 1819   1.133   1.025   1.106 -0.7808  0.2143  0.0559
  607SOL    HW1 1820   1.204   0.966   1.147 -0.3012 -0.1369 -1.4449
  607SOL    HW2 1821   1.044   1.001   1.145  1.6018 -1.2464 -2.1202
  608SOL     OW 1822   2.947   1.848   2.026 -0.0009  0.1206  0.8100
  608SOL    HW1 1823   2.885   1.901   1.965 -1.0228 -3.4258 -1.5893
  608SOL    HW2 1824   3.006   1.913   2.082 -0.1212 -1.2325 -1.1906
  609SOL     OW 1825   2.254   0.144   0.346 -0.1301  0.2186 -0.1767
  609SOL    HW1 1826   2.290   0.139   0.251 -3.2257 -1.9540  1.1588
  609SOL    HW2 1827   2.199   0.060   0.378  0.6401 -1.7306  2.7673
  610SOL     OW 1828   3.036   2.673   1.363 -0.0050  0.0099 -0.0503
  610SOL    HW1 1829   2.989   2.687   1.272  0.2758 -0.0183 -0.7054
  610SOL    HW2 1830   3.109   2.600   1.356  1.0930 -1.9875 -2.0736
  611SOL     OW 1831   1.661   2.292   0.367  0.1065 -0.9861  0.0245
  611SOL    HW1 1832   1.632   2.266   0.274 -3.0721 -0.7564  0.0374
  611SOL    HW2 1833   1.723   2.225   0.408 -0.5761  1.2970  0.3600
  612SOL     OW 1834   0.732   0.001   1.688 -0.0484 -0.0986  0.0415
  612SOL    HW1 1835   0.831   3.096   1.697  0.4368 -0.2157 -0.9054
  612SOL    HW2 1836   0.708   0.100   1.685  1.3941 -1.3621 -0.2261
  613SOL     OW 1837   3.007   2.057   0.644 -0.3390  0.0289  0.0084
  613SOL    HW1 1838   3.056   2.144   0.625  1.1156  1.5553  0.6648
  613SOL    HW2 1839   3.072   1.979   0.634 -2.7731  1.0009  0.2165
  614SOL     OW 1840   2.064   0.376   1.917  0.4609 -0.4393 -0.3380
  614SOL    HW1 1841   2.164   0.408   1.921 -0.0035  1.2859  2.1853
  614SOL    HW2 1842   2.030   0.373   1.826  0.2615  3.4291  2.2821
  615SOL     OW 1843   1.120   1.583   1.008 -0.1427  0.3609 -0.6022
  615SOL    HW1 1844   1.098   1.649   1.082 -0.1900 -2.2253  0.3885
  615SOL    HW2 1845   1.058   1.498   1.023 -2.4494 -0.9602  0.2005
  616SOL     OW 1846   1.862   1.800   0.017  0.8929  0.2080 -0.3237
  616SOL    HW1 1847   1.833   1.835   0.105 -1.3031  0.8854 -1.2794
  616SOL    HW2 1848   1.807   1.847   3.063  0.6836  1.4038  1.6332
  617SOL     OW 1849   1.943   0.193   0.313 -0.0431 -0.5082  0.7290
  617SOL    HW1 1850   1.999   0.135   0.372  3.8020  1.0755  2.1114
  617SOL    HW2 1851   1.906   0.141   0.234  0.0478 -1.5036  2.8544
  618SOL     OW 1852   0.686   0.634   2.573  0.0630 -0.3894  0.1825
  618SOL    HW1 1853   0.679   0.673   2.479  0.4340 -0.1285  2.9489
  618SOL    HW2 1854   0.722   0.708   2.634 -1.3485  0.0380 -2.0705
  619SOL     OW 1855   2.849   1.693   1.188 -0.0697  0.1843 -0.4739
  619SOL    HW1 1856   2.914   1.616   1.169  0.4341 -1.3972 -0.6650
  619SOL    HW2 1857   2.764   1.683   1.128  1.7150  0.1849 -0.2955
  620SOL     OW 1858   2.066   2.932   2.586  0.3613 -0.0973  0.1112
  620SOL    HW1 1859   2.036   3.023   2.615  1.4371 -1.0063 -0.0869
  620SOL    HW2 1860   2.106   2.937   2.494  1.6837  1.1089  2.2255
  621SOL     OW 1861   2.745   1.773   3.085  0.1457  0.3253  0.2087
  621SOL    HW1 1862   2.820   1.706   3.061 -0.1140 -0.4301  2.2912
  621SOL    HW2 1863   2.659   1.713   3.102 -1.5540 -2.3774  0.5294
  622SOL     OW 1864   1.650   0.111   1.992 -0.0737 -0.2971  0.1133
  622SOL    HW1 1865   1.601   0.023   1.997  2.3829  0.6235  1.2612
  622SOL    HW2 1866   1.748   0.103   1.959 -0.9970 -1.6344 -1.9017
  623SOL     OW 1867   0.539   2.284   0.902  0.2319  0.3876  0.0539
  623SOL    HW1 1868   0.539   2.382   0.898 -0.3277 -1.8945 -0.6208
  623SOL    HW2 1869   0.451   2.250   0.942  2.0652 -1.5797  0.1011
  624SOL     OW 1870   0.091   0.144   0.002 -0.0951 -0.2880  0.2967
  624SOL    HW1 1871   0.077   0.042   0.006  0.5158 -1.7148  0.1374
  624SOL    HW2 1872   0.098   0.173   3.021 -3.1716 -0.6727  1.4091
  625SOL     OW 1873   0.811   1.895   0.754 -0.7739 -0.3115  0.8092
  625SOL    HW1 1874   0.779   1.967   0.814  0.9244  0.6303 -0.3693
  625SOL    HW2 1875   0.793   1.926   0.658  0.3829 -1.0095  1.6197
  626SOL     OW 1876   2.844   0.221   2.978  0.0910 -0.1427  0.0717
  626SOL    HW1 1877   2.934   0.240   2.931 -0.1079 -2.6167 -0.1350
  626SOL    HW2 1878   2.799   0.139   2.937 -1.3273 -1.9343  1.0418
  627SOL     OW 1879   1.175   1.716   2.740 -0.4261 -0.0273  0.3040
  627SOL    HW1 1880   1.263   1.722   2.693  1.4967 -0.4126  0.0166
  627SOL    HW2 1881   1.108   1.771   2.684  0.6647  0.6166 -1.1423
  628SOL     OW 1882   0.162   2.585   2.963  0.3586  0.3543 -0.2916
  628SOL    HW1 1883   0.132   2.627   2.872  1.6116 -0.3026 -2.2876
  628SOL    HW2 1884   0.109   2.620   3.044  1.5607  1.5698  1.0870
  629SOL     OW 1885   0.370   2.887   2.670  0.2803 -0.0288  0.6407
  629SOL    HW1 1886   0.351   2.925   2.764 -0.3064 -1.4530 -1.3278
  629SOL    HW2 1887   0.396   2.788   2.664  1.9413  0.3808 -1.9420
  630SOL     OW 1888   1.431   1.113   1.973 -0.1202  0.3050 -0.1137
  630SOL    HW1 1889   1.456   1.082   1.879 -2.2159 -0.7640 -2.0920
  630SOL    HW2 1890   1.351   1.178   1.964 -0.6809  3.0389 -2.0987
  631SOL     OW 1891   1.992   1.215   0.186 -0.5446 -0.0543  0.5077
  631SOL    HW1 1892   1.961   1.173   0.101 -2.2707  1.8609 -0.7858
  631SOL    HW2 1893   2.051   1.300   0.166 -0.3131  0.1650 -1.1228
  632SOL     OW 1894   2.809   0.474   1.964 -0.1381 -0.1344 -0.7423
  632SOL    HW1 1895   2.865   0.562   1.965  1.8301 -1.1684 -0.1124
  632SOL    HW2 1896   2.730   0.477   2.029 -3.6454  1.5906  0.2502
  633SOL     OW 1897   0.769   1.488   0.102 -0.3176  0.2164 -0.4769
  633SOL    HW1 1898   0.865   1.504   0.127 -1.7509 -2.7207  0.0174
  633SOL    HW2 1899   0.762   1.406   0.040 -0.3812 -2.4050  0.7596
  634SOL     OW 1900   2.123   2.646   2.446  0.4641 -0.1637  0.6529
  634SOL    HW1 1901   2.054   2.598   2.389 -0.4500 -0.3408 -0.4970
  634SOL    HW2 1902   2.136   2.737   2.400  0.0211 -1.5485 -2.3396
  635SOL     OW 1903   1.989   0.589   0.396 -0.0336  0.7222  0.1622
  635SOL    HW1 1904   2.034   0.626   0.476  2.2985  1.7261 -1.5218
  635SOL    HW2 1905   2.049   0.519   0.352 -1.3560 -1.4199 -0.7406
  636SOL     OW 1906   0.693   1.375   0.606  0.2062  0.1424  0.1274
  636SOL    HW1 1907   0.761   1.325   0.555 -2.6725  3.4046  1.5375
  636SOL    HW2 1908   0.711   1.472   0.599 -0.3744 -1.2433 -1.3233
  637SOL     OW 1909   3.046   2.197   0.262 -0.0992 -0.5550 -0.1546
  637SOL    HW1 1910   2.959   2.153   0.261  1.6762 -0.0379 -2.0212
  637SOL    HW2 1911   3.090   2.214   0.356  0.5762 -0.9733  2.7505
  638SOL     OW 1912   1.222   2.723   2.517 -0.0522  0.2368  1.1594
  638SOL    HW1 1913   1.235   2.777   2.431  0.2917 -0.9162 -0.0538
  638SOL    HW2 1914   1.197   2.628   2.487  0.2833  2.4588 -2.2723
  639SOL     OW 1915   1.432   1.980   0.174 -0.2414  0.0616  0.1593
  639SOL    HW1 1916   1.358   2.035   0.129 -0.0067 -1.6686 -3.0587
  639SOL    HW2 1917   1.396   1.930   0.254  0.7525 -2.4654 -0.1473
  640SOL     OW 1918   1.745   0.005   0.789  0.2695 -0.1375 -0.0729
  640SOL    HW1 1919   1.798   0.057   0.858 -0.2176  1.6339 -0.3211
  640SOL    HW2 1920   1.813   3.066   0.733  0.2284  0.3139  3.1204
  641SOL     OW 1921   3.066   3.043   0.461  0.0692 -0.1750  0.5277
  641SOL    HW1 1922   3.057   2.991   0.547 -2.2772 -2.3422 -2.0586
  641SOL    HW2 1923   2.985   3.039   0.399  3.6634  1.2189 -1.6787
  642SOL     OW 1924   0.901   0.385   1.482  0.3228 -0.3365 -0.6115
  642SOL    HW1 1925   0.818   0.333   1.497  0.9757 -0.0725 -1.6343
  642SOL    HW2 1926   0.888   0.483   1.521  1.1805  1.9995 -0.2430
  643SOL     OW 1927   0.669   1.301   2.240  0.2820  0.3617  0.0340
  643SOL    HW1 1928   0.689   1.322   2.339 -0.0079  2.4094  2.0591
  643SOL    HW2 1929   0.743   1.335   2.179 -3.3341  1.6976  0.1646
  644SOL     OW 1930   0.898   2.478   0.085  0.4632 -0.3067  0.3242
  644SOL    HW1 1931   0.848   2.388   0.059  0.8169  0.1206  0.3763
  644SOL    HW2 1932   0.995   2.467   0.097 -0.1527  1.2461  2.1754
  645SOL     OW 1933   1.559   2.207   0.136  0.6587  1.0544  0.5063
  645SOL    HW1 1934   1.545   2.232   0.035  1.7705 -1.3980 -0.5605
  645SOL    HW2 1935   1.535   2.104   0.150 -1.0995 -3.0852 -0.4331
  646SOL     OW 1936   0.228   1.520   3.035 -0.4215  0.9627 -0.1312
  646SOL    HW1 1937   0.152   1.506   2.966 -0.1219 -0.1094  1.1111
  646SOL    HW2 1938   0.269   1.609   3.022 -0.3157 -0.4475 -0.6657
  647SOL     OW 1939   0.869   0.074   0.970  0.0374 -0.5195 -0.0146
  647SOL    HW1 1940   0.857   3.093   1.003 -0.9620  0.6759 -0.4928
  647SOL    HW2 1941   0.829   0.133   1.039  1.9142 -1.7346 -0.5689
  648SOL     OW 1942   1.713   0.471   1.603  0.4752  0.1173 -0.1406
  648SOL    HW1 1943   1.713   0.448   1.506 -0.7338 -0.5383  1.6781
  648SOL    HW2 1944   1.765   0.555   1.624 -1.3075 -1.3437  0.8143
  649SOL     OW 1945   1.223   1.829   2.979  0.3830  0.0303  0.0260
  649SOL    HW1 1946   1.225   1.807   2.879 -0.8242 -0.4319  0.6715
  649SOL    HW2 1947   1.140   1.794   3.019  1.5374 -0.9086 -3.7535
  650SOL     OW 1948   2.760   1.658   2.374  0.2926 -0.0037  0.2686
  650SOL    HW1 1949   2.723   1.735   2.425  5.0613  2.2167 -3.6016
  650SOL    HW2 1950   2.856   1.633   2.399  2.4977 -0.4740  1.4553
  651SOL     OW 1951   1.156   2.612   2.980  0.3783 -0.0461  0.0389
  651SOL    HW1 1952   1.168   2.511   2.963  1.6401 -1.7818 -0.7005
  651SOL    HW2 1953   1.129   2.668   2.898  0.1747  1.5817 -1.2520
  652SOL     OW 1954   2.850   2.030   3.082  0.2692 -0.1795  0.3808
  652SOL    HW1 1955   2.792   1.948   3.083  0.5368  1.1710 -0.4104
  652SOL    HW2 1956   2.818   2.107   3.024  1.1923 -0.4388  1.1091
  653SOL     OW 1957   0.271   0.052   1.060  0.1327  0.4006  0.3023
  653SOL    HW1 1958   0.331   3.109   1.120 -0.1850 -1.0383 -0.4826
  653SOL    HW2 1959   0.196   0.097   1.117 -1.5017  2.3397  0.4077
  654SOL     OW 1960   2.202   0.213   2.458  0.2669 -0.3716 -0.0244
  654SOL    HW1 1961   2.179   0.232   2.361  1.8705 -2.1129 -1.9328
  654SOL    HW2 1962   2.265   0.136   2.474 -0.6499  1.7746 -1.4804
  655SOL     OW 1963   0.519   3.023   0.818  0.0049  0.2286 -0.7262
  655SOL    HW1 1964   0.581   3.092   0.782  0.2419 -1.7400  0.3199
  655SOL    HW2 1965   0.433   3.018   0.759  2.7218  1.2422  1.3616
  656SOL     OW 1966   3.020   3.053   2.292  0.3229 -0.2116  0.0207
  656SOL    HW1 1967   2.967   0.018   2.252 -0.3999  2.8780 -2.1260
  656SOL    HW2 1968   3.102   3.088   2.340 -0.3160 -0.8375  3.3277
  657SOL     OW 1969   2.587   0.594   2.679  0.5470 -0.0442 -0.3569
  657SOL    HW1 1970   2.591   0.634   2.583 -1.5887 -1.6640  0.2213
  657SOL    HW2 1971   2.646   0.512   2.678 -2.0714  2.5329 -0.5393
  658SOL     OW 1972   2.217   2.130   0.796 -0.3244  0.7150 -0.5002
  658SOL    HW1 1973   2.192   2.059   0.863 -0.6114  1.7156 -1.4160
  658SOL    HW2 1974   2.266   2.209   0.839  0.9835 -0.3552 -1.3659
  659SOL     OW 1975   1.922   2.921   0.223  0.4347  0.2896 -0.3269
  659SOL    HW1 1976   1.846   2.879   0.273  0.7576 -3.3394 -1.1444
  659SOL    HW2 1977   1.959   2.857   0.154  0.0252  0.1841  1.5101
  660SOL     OW 1978   1.524   1.006   2.583  0.3809  0.3136 -0.0051
  660SOL    HW1 1979   1.463   1.049   2.512 -3.0174 -2.3542 -4.0896
  660SOL    HW2 1980   1.473   0.929   2.621 -0.2818  1.1446  2.2805
  661SOL     OW 1981   2.452   2.494   1.345  0.0404  0.8504 -0.6011
  661SOL    HW1 1982   2.429   2.427   1.272  2.9527 -0.3664  3.8844
  661SOL    HW2 1983   2.437   2.445   1.435 -0.7434  1.9266  1.7118
  662SOL     OW 1984   0.794   1.004   0.297  0.4504 -0.2427  0.0597
  662SOL    HW1 1985   0.767   0.952   0.214  0.4083  0.8355  1.1433
  662SOL    HW2 1986   0.711   1.018   0.351  0.7031 -0.1356 -1.7641
  663SOL     OW 1987   2.012   2.273   0.424  0.0827 -0.2622  0.3375
  663SOL    HW1 1988   2.092   2.212   0.439  2.4133 -0.5333  2.3632
  663SOL    HW2 1989   1.975   2.254   0.329  1.6114 -0.8091  0.4271
  664SOL     OW 1990   0.832   1.879   1.364  0.2612  0.0009 -0.1268
  664SOL    HW1 1991   0.733   1.897   1.335 -2.8245  1.3666  0.3515
  664SOL    HW2 1992   0.871   1.949   1.424 -1.1383 -0.2659  0.9992
  665SOL     OW 1993   1.706   2.289   2.113  0.3697 -0.0110 -0.0131
  665SOL    HW1 1994   1.768   2.239   2.172 -0.3246  0.9059 -0.6996
  665SOL    HW2 1995   1.734   2.288   2.015 -0.9595  2.9272  0.2529
  666SOL     OW 1996   0.262   2.366   0.164 -0.5323 -0.2405  0.1398
  666SOL    HW1 1997   0.342   2.414   0.123 -2.4851  1.3644  0.8333
  666SOL    HW2 1998   0.205   2.312   0.097 -0.3185  0.9847  0.1292
  667SOL     OW 1999   2.398   1.519   1.693 -0.7085 -0.1528  0.0382
  667SOL    HW1 2000   2.366   1.617   1.709  0.3714  2.6405 -2.3343
  667SOL    HW2 2001   2.485   1.518   1.642 -4.0053 -1.9923  0.6046
  668SOL     OW 2002   0.462   0.600   2.714  0.1266 -0.5529  0.4566
  668SOL    HW1 2003   0.550   0.616   2.662  1.7724  2.5892 -3.2854
  668SOL    HW2 2004   0.479   0.579   2.817 -0.5871 -1.1315  1.1812
  669SOL     OW 2005   1.911   2.389   3.011  0.2802  0.2335 -0.8478
  669SOL    HW1 2006   1.838   2.452   3.035  0.2957 -0.0684  0.9577
  669SOL    HW2 2007   2.003   2.435   3.020  0.6129 -0.3947  1.4307
  670SOL     OW 2008   2.490   1.884   2.889 -0.2949  0.1153  0.2885
  670SOL    HW1 2009   2.402   1.858   2.850  0.8668  2.8345 -1.2480
  670SOL    HW2 2010   2.551   1.804   2.892 -2.6227  1.8590 -1.7060
  671SOL     OW 2011   0.112   1.359   1.336  0.3569 -0.1175  0.2192
  671SOL    HW1 2012   0.112   1.431   1.270 -1.0494 -2.7921  1.0485
  671SOL    HW2 2013   0.112   1.267   1.286  2.4939 -4.6189 -0.3476
  672SOL     OW 2014   2.448   0.924   2.353 -0.1681  0.0272 -0.2060
  672SOL    HW1 2015   2.497   0.971   2.275  2.1948  0.5166 -1.7747
  672SOL    HW2 2016   2.386   0.997   2.388  0.0499  0.4149 -1.5460
  673SOL     OW 2017   2.486   2.674   2.168  0.5289 -0.5293  0.1189
  673SOL    HW1 2018   2.461   2.642   2.259 -0.6656  0.4315  0.4584
  673SOL    HW2 2019   2.406   2.663   2.107 -1.9372  0.3650 -0.3545
  674SOL     OW 2020   1.174   2.475   2.151  0.0963 -0.3774 -0.8301
  674SOL    HW1 2021   1.245   2.471   2.074 -0.8261  1.6513 -1.9269
  674SOL    HW2 2022   1.218   2.467   2.244  2.2781 -0.1731  1.6500
  675SOL     OW 2023   0.462   0.722   1.012  0.4954 -0.0304 -0.0789
  675SOL    HW1 2024   0.477   0.728   1.113  1.7875 -0.9653 -0.0885
  675SOL    HW2 2025   0.391   0.789   0.999 -0.1330  0.8894 -1.3728
  676SOL     OW 2026   1.805   1.039   0.639  0.0399  0.3014  0.2451
  676SOL    HW1 2027   1.715   1.006   0.597 -1.8857 -1.2002 -3.5937
  676SOL    HW2 2028   1.874   1.047   0.569  0.4613  0.5470  1.0045
  677SOL     OW 2029   3.110   1.608   2.611 -0.2436  0.5863  0.2010
  677SOL    HW1 2030   3.086   1.569   2.525 -0.9979 -0.9324 -0.5260
  677SOL    HW2 2031   3.029   1.653   2.652 -2.4856 -2.3461 -3.8460
  678SOL     OW 2032   2.717   1.846   1.395  0.4807  0.1436 -0.0585
  678SOL    HW1 2033   2.779   1.783   1.350  1.1309  0.6954 -3.2283
  678SOL    HW2 2034   2.612   1.828   1.390 -3.7093 -1.0712 -0.8582
  679SOL     OW 2035   1.930   2.715   0.620  0.1453  0.3224  0.3316
  679SOL    HW1 2036   2.030   2.703   0.599 -3.0332 -0.5852  2.0291
  679SOL    HW2 2037   1.889   2.639   0.680 -0.0781 -3.7466  0.8062
  680SOL     OW 2038   0.421   2.314   2.168 -0.4580 -0.3171  0.3179
  680SOL    HW1 2039   0.486   2.248   2.213 -1.9099  2.0340 -1.7366
  680SOL    HW2 2040   0.447   2.310   2.069 -0.1568  2.3503 -0.7738
  681SOL     OW 2041   2.853   1.493   1.903  0.0055  0.1662 -0.0837
  681SOL    HW1 2042   2.937   1.437   1.925 -0.5907 -0.2708 -0.1236
  681SOL    HW2 2043   2.829   1.540   1.990 -0.8932  0.9759  0.5135
  682SOL     OW 2044   0.757   2.042   0.999 -0.0151  0.2131  0.1254
  682SOL    HW1 2045   0.666   2.080   0.968  0.8381 -0.9713  1.3289
  682SOL    HW2 2046   0.802   2.111   1.059 -1.3865  3.2160 -0.4184
  683SOL     OW 2047   2.162   1.240   1.049  1.1861  0.0961  0.1712
  683SOL    HW1 2048   2.189   1.283   0.957  1.7603 -1.9940  0.6287
  683SOL    HW2 2049   2.091   1.297   1.099  3.7119 -0.0898  0.8125
  684SOL     OW 2050   2.955   1.580   3.084  0.6120 -0.9408  0.0088
  684SOL    HW1 2051   3.022   1.550   3.015 -0.9272 -0.3409  1.5474
  684SOL    HW2 2052   2.893   1.510   0.008  0.3778 -0.6574  0.4598
  685SOL     OW 2053   1.724   1.109   3.088  0.5169  0.0405  0.1043
  685SOL    HW1 2054   1.705   1.015   3.056 -0.0015  0.7675 -2.2523
  685SOL    HW2 2055   1.740   1.165   3.003  1.0238  1.9155 -4.1080
  686SOL     OW 2056   0.172   0.638   1.324 -0.2551 -0.2676 -0.3660
  686SOL    HW1 2057   0.265   0.649   1.290  1.7228 -1.2553  3.1458
  686SOL    HW2 2058   0.175   0.588   1.412  1.7449 -0.7689  2.0132
  687SOL     OW 2059   1.168   2.068   2.659 -0.1621 -0.4363  0.4451
  687SOL    HW1 2060   1.136   1.998   2.591 -3.0925  1.1307  0.3153
  687SOL    HW2 2061   1.269   2.071   2.671  1.0582  0.9673  1.8705
  688SOL     OW 2062   0.413   1.795   1.624 -0.5824 -0.6227  0.1912
  688SOL    HW1 2063   0.313   1.801   1.640  0.4155  0.4895 -1.6880
  688SOL    HW2 2064   0.479   1.819   1.699  2.0877 -1.2559 -2.2322
  689SOL     OW 2065   1.488   1.054   1.703  0.2704 -0.3354 -0.2344
  689SOL    HW1 2066   1.467   1.143   1.657 -1.7864 -0.9555  0.0138
  689SOL    HW2 2067   1.560   1.004   1.649  2.3721 -0.0074 -1.2145
  690SOL     OW 2068   2.355   0.863   1.200  0.2049  0.0483  0.1672
  690SOL    HW1 2069   2.419   0.839   1.275 -0.8226 -1.9879 -1.0773
  690SOL    HW2 2070   2.404   0.924   1.135 -0.2657  1.3213  2.3202
  691SOL     OW 2071   0.685   2.196   1.810 -0.6924 -0.2161  0.2205
  691SOL    HW1 2072   0.718   2.119   1.867 -1.0090 -2.5722  1.0029
  691SOL    HW2 2073   0.765   2.259   1.805  1.3873  3.0900 -2.2356
  692SOL     OW 2074   1.979   0.139   1.227 -0.3297 -0.4372  0.1617
  692SOL    HW1 2075   2.002   0.237   1.238  0.4529  2.3998 -0.4690
  692SOL    HW2 2076   1.949   0.101   1.316  1.1259  0.0265  1.9447
  693SOL     OW 2077   0.328   1.055   2.073 -0.2565 -0.1499  0.5417
  693SOL    HW1 2078   0.415   1.082   2.120  0.7108  0.4601  2.1209
  693SOL    HW2 2079   0.361   0.994   1.993  1.9949 -1.2365 -1.1667
  694SOL     OW 2080   1.945   0.086   1.500  0.8470 -0.2032  0.0081
  694SOL    HW1 2081   1.968   3.112   1.545 -0.1558 -4.0004  0.7765
  694SOL    HW2 2082   1.861   0.126   1.545  3.5857  3.5069 -1.9622
  695SOL     OW 2083   1.349   1.399   1.717 -0.2416  0.4050  0.2272
  695SOL    HW1 2084   1.297   1.479   1.692 -1.9053 -3.2191  1.0350
  695SOL    HW2 2085   1.358   1.339   1.639  1.0423  1.2381  0.7873
  696SOL     OW 2086   1.525   2.766   0.305  0.2170 -0.1728  0.6879
  696SOL    HW1 2087   1.589   2.818   0.366  0.8736 -1.2450 -1.5977
  696SOL    HW2 2088   1.537   2.669   0.314 -2.1185  2.4720 -0.8094
  697SOL     OW 2089   0.814   0.553   0.516  0.4152 -0.4388 -0.5378
  697SOL    HW1 2090   0.780   0.478   0.459  2.9453  0.1462  0.4514
  697SOL    HW2 2091   0.864   0.617   0.453 -0.3575  0.7316 -0.5951
  698SOL     OW 2092   1.350   1.560   2.438  0.5983  0.2871 -0.0458
  698SOL    HW1 2093   1.255   1.529   2.473 -2.6325  0.4013 -1.1601
  698SOL    HW2 2094   1.402   1.497   2.379  2.8763  0.3848  3.8481
  699SOL     OW 2095   1.437   0.971   0.988 -0.1011 -0.6191  0.1722
  699SOL    HW1 2096   1.535   0.984   1.013 -0.7708 -0.4536  2.4820
  699SOL    HW2 2097   1.393   1.056   0.951 -0.7800 -1.9436  2.7904
  700SOL     OW 2098   1.408   2.882   0.691 -0.1790  0.4305 -0.4368
  700SOL    HW1 2099   1.351   2.852   0.607  0.1533 -0.2611 -0.8909
  700SOL    HW2 2100   1.469   2.959   0.665  0.5742 -1.3401 -1.3451
  701SOL     OW 2101   2.395   0.048   2.518 -0.5448 -0.0631  0.4446
  701SOL    HW1 2102   2.385   0.056   2.621  1.9801 -2.6317 -1.0666
  701SOL    HW2 2103   2.403   3.065   2.493 -1.1928 -0.7564  0.2726
  702SOL     OW 2104   1.102   0.095   3.101  0.1450 -0.4054 -0.0823
  702SOL    HW1 2105   1.118   0.147   3.015  1.5937  2.1709  0.2128
  702SOL    HW2 2106   1.012   0.112   0.033  1.7220 -0.3535  0.4179
  703SOL     OW 2107   2.473   2.898   2.339 -0.4159 -0.3605 -0.7221
  703SOL    HW1 2108   2.484   2.845   2.253 -2.1820 -0.6418  2.6330
  703SOL    HW2 2109   2.570   2.898   2.383  3.5684 -0.2112  2.2442
  704SOL     OW 2110   0.220   2.429   1.049 -0.2089  0.3354 -0.1002
  704SOL    HW1 2111   0.215   2.344   0.992  2.7208  1.0538  0.0485
  704SOL    HW2 2112   0.182   2.509   0.999  0.4540 -0.7195 -0.2417
  705SOL     OW 2113   2.655   0.214   2.192  0.0745 -0.2156 -0.6487
  705SOL    HW1 2114   2.730   0.193   2.130 -1.3249  0.0832  0.0455
  705SOL    HW2 2115   2.579   0.165   2.152  1.9883  0.9496  1.5837
  706SOL     OW 2116   1.867   0.042   0.116  0.4596  0.2351 -0.4017
  706SOL    HW1 2117   1.888   3.067   0.159  2.5161  0.4076 -1.1492
  706SOL    HW2 2118   1.785   0.037   0.059 -0.0340 -0.5323  0.1917
  707SOL     OW 2119   1.068   1.914   1.879 -1.0098  0.2787 -0.8142
  707SOL    HW1 2120   1.054   1.893   1.980 -0.9710  0.9417  1.4728
  707SOL    HW2 2121   1.105   1.834   1.828  3.0931  1.7224  0.0999
  708SOL     OW 2122   0.086   2.643   1.789 -0.2699  0.0568  0.3953
  708SOL    HW1 2123   0.126   2.607   1.701  1.4393  1.0290 -0.6939
  708SOL    HW2 2124   0.012   2.711   1.781  2.2301  1.9968 -0.7810
  709SOL     OW 2125   1.903   0.145   1.933  0.9898  0.1426 -0.5373
  709SOL    HW1 2126   1.957   0.221   1.970 -0.6531  0.3266 -1.8219
  709SOL    HW2 2127   1.950   0.053   1.931 -2.6250  2.1361  1.0729
  710SOL     OW 2128   2.240   0.784   2.209 -0.4182 -0.6213  0.5070
  710SOL    HW1 2129   2.214   0.869   2.157 -0.6761 -1.1882 -1.7338
  710SOL    HW2 2130   2.311   0.807   2.277 -0.6421 -1.2737 -0.1838
  711SOL     OW 2131   0.963   2.151   0.163  0.0054  0.2276 -0.7057
  711SOL    HW1 2132   0.941   2.177   0.257  3.0754  1.3118 -0.5085
  711SOL    HW2 2133   0.898   2.195   0.101  0.6703 -0.1424  0.6350
  712SOL     OW 2134   0.712   2.505   2.268 -0.4300  0.1927  0.0320
  712SOL    HW1 2135   0.769   2.572   2.329  1.1234  1.6256  0.3883
  712SOL    HW2 2136   0.699   2.536   2.174  1.4540 -1.6364  0.2991
  713SOL     OW 2137   1.743   1.386   0.300 -0.0820 -0.1631 -0.4246
  713SOL    HW1 2138   1.728   1.423   0.201 -2.7879  2.9199 -1.4356
  713SOL    HW2 2139   1.841   1.363   0.313 -0.9282  0.4374  0.8969
  714SOL     OW 2140   0.435   1.476   1.179 -0.1052  0.3911 -0.2481
  714SOL    HW1 2141   0.334   1.466   1.166 -0.3280 -0.3386  0.9789
  714SOL    HW2 2142   0.457   1.545   1.244  0.4163 -0.3415 -5.2386
  715SOL     OW 2143   2.016   0.261   2.866 -0.2506 -0.1274 -0.6765
  715SOL    HW1 2144   1.920   0.279   2.889  0.1965 -3.3847 -3.9837
  715SOL    HW2 2145   2.054   0.198   2.943  0.4096 -1.0084 -1.2308
  716SOL     OW 2146   2.706   3.104   1.963  0.4678  0.1242  0.2742
  716SOL    HW1 2147   2.611   0.021   1.992 -3.0138  1.1809 -0.8174
  716SOL    HW2 2148   2.731   3.010   2.005  1.6252 -0.7174  3.3315
  717SOL     OW 2149   3.099   0.797   0.864 -0.1931 -0.2877  0.0267
  717SOL    HW1 2150   0.039   0.802   0.777 -1.9591  1.5539  1.2564
  717SOL    HW2 2151   3.007   0.769   0.843  1.6327  2.6767  1.1925
  718SOL     OW 2152   1.038   1.196   2.324  0.4875 -0.4974  0.0108
  718SOL    HW1 2153   1.047   1.204   2.422 -0.8195 -1.3062 -3.4972
  718SOL    HW2 2154   1.064   1.099   2.298 -1.4503 -1.7981  0.2732
  719SOL     OW 2155   2.791   1.402   0.089  0.1531 -0.4194  0.5796
  719SOL    HW1 2156   2.753   1.427   0.178 -0.1944 -1.8447 -1.6597
  719SOL    HW2 2157   2.717   1.391   0.016  1.3377  0.5986 -2.7186
  720SOL     OW 2158   1.107   0.959   0.843  0.3518 -0.0605 -0.6463
  720SOL    HW1 2159   1.107   0.992   0.939  2.1654  0.6877 -3.2145
  720SOL    HW2 2160   1.062   1.023   0.778  2.3868  0.2385 -1.4038
  721SOL     OW 2161   2.636   0.605   0.216 -0.1366 -0.5954 -0.2018
  721SOL    HW1 2162   2.672   0.605   0.120  0.1073  1.5666  1.1101
  721SOL    HW2 2163   2.719   0.616   0.275  1.7401 -0.3799 -1.1486
  722SOL     OW 2164   1.896   0.700   2.821 -0.6982 -0.2007 -0.0641
  722SOL    HW1 2165   1.885   0.624   2.889 -2.0866 -3.0127 -2.5907
  722SOL    HW2 2166   1.915   0.665   2.727 -1.3476  0.0244  0.5918
  723SOL     OW 2167   2.870   0.690   0.338  0.1070 -0.0422 -0.3868
  723SOL    HW1 2168   2.960   0.681   0.289  0.0165 -0.0581 -0.9174
  723SOL    HW2 2169   2.859   0.788   0.376  2.2781 -2.6916  1.2936
  724SOL     OW 2170   0.877   1.381   2.077 -0.0449  0.1981  0.2090
  724SOL    HW1 2171   0.902   1.313   2.007 -0.0803 -1.4558 -0.7950
  724SOL    HW2 2172   0.969   1.400   2.121  2.3169  1.8802 -0.2609
  725SOL     OW 2173   2.113   1.037   2.104  0.5121  0.0519 -0.0400
  725SOL    HW1 2174   2.188   1.100   2.079 -0.5402  0.9852 -0.0284
  725SOL    HW2 2175   2.022   1.075   2.077 -0.5953  1.7350  1.8875
  726SOL     OW 2176   1.727   2.887   0.442 -0.6016  0.3628  0.4466
  726SOL    HW1 2177   1.760   2.822   0.515  0.7720  0.1748  2.1407
  726SOL    HW2 2178   1.676   2.964   0.486  0.0593  1.6697  0.4879
  727SOL     OW 2179   1.510   1.323   2.304 -0.4603 -0.0630  0.2887
  727SOL    HW1 2180   1.438   1.255   2.341  0.7142 -0.8211  3.4114
  727SOL    HW2 2181   1.476   1.369   2.220  1.1359 -0.4545 -0.8959
  728SOL     OW 2182   1.489   2.579   1.285 -0.3867  0.3371 -0.0450
  728SOL    HW1 2183   1.457   2.531   1.367 -0.9761  0.2562  0.7938
  728SOL    HW2 2184   1.594   2.565   1.277 -0.3500 -3.2455 -0.7137
  729SOL     OW 2185   2.023   0.986   0.983  0.1273  0.2748 -0.1071
  729SOL    HW1 2186   2.076   1.070   1.009 -0.7301 -1.6516  2.5032
  729SOL    HW2 2187   2.065   0.896   1.011  0.6332 -1.1310 -0.1324
  730SOL     OW 2188   0.438   1.446   2.527 -0.0469 -0.2935  0.0837
  730SOL    HW1 2189   0.511   1.469   2.459  1.3040 -1.7920 -0.2002
  730SOL    HW2 2190   0.351   1.488   2.495 -0.4181  0.8636 -2.6041
  731SOL     OW 2191   0.289   0.121   0.804  0.2496 -0.0593 -0.8362
  731SOL    HW1 2192   0.292   0.051   0.728  1.3985  0.7285  0.9943
  731SOL    HW2 2193   0.272   0.080   0.897 -3.3341  0.8024 -1.8857
  732SOL     OW 2194   1.287   0.789   0.170  0.3724 -0.9244  0.0803
  732SOL    HW1 2195   1.319   0.882   0.148 -1.1568 -1.6821 -0.9261
  732SOL    HW2 2196   1.191   0.785   0.145 -1.4700 -0.2882 -0.0643
  733SOL     OW 2197   0.339   1.961   0.699  0.3362 -0.0313 -0.5235
  733SOL    HW1 2198   0.380   1.878   0.746  1.3160 -2.9129  3.6968
  733SOL    HW2 2199   0.328   1.943   0.603  0.7731  0.8291  2.0771
  734SOL     OW 2200   0.064   2.321   2.919 -0.1414  0.1813  0.8395
  734SOL    HW1 2201   0.117   2.408   2.932  3.5101  0.4427  1.2169
  734SOL    HW2 2202   0.076   2.265   3.002  1.1874  0.0380 -3.4104
  735SOL     OW 2203   1.302   0.854   1.263  0.2576 -0.3449  0.2417
  735SOL    HW1 2204   1.212   0.806   1.267  1.2530 -2.1336 -0.0628
  735SOL    HW2 2205   1.370   0.775   1.262  0.2565 -1.2030 -2.8130
  736SOL     OW 2206   2.153   2.530   2.960 -0.4751  0.4579  0.0990
  736SOL    HW1 2207   2.184   2.624   2.973 -1.1946 -2.2363 -1.2657
  736SOL    HW2 2208   2.167   2.498   2.862 -1.4927  0.0454  0.2353
  737SOL     OW 2209   2.747   0.136   0.814  0.3346  0.2970 -0.2376
  737SOL    HW1 2210   2.788   0.201   0.750 -0.1620 -1.6935  1.5055
  737SOL    HW2 2211   2.709   0.193   0.888  1.0210 -1.6804 -2.0846
  738SOL     OW 2212   2.476   0.127   1.135 -0.1819 -0.1228  0.0794
  738SOL    HW1 2213   2.407   0.137   1.209  1.2873  3.6290  0.8187
  738SOL    HW2 2214   2.428   0.107   1.048 -1.4969  1.1347  1.4000
  739SOL     OW 2215   1.677   2.557   0.410 -0.1810 -0.8254  0.0056
  739SOL    HW1 2216   1.676   2.453   0.408 -2.1880 -3.0246  1.4289
  739SOL    HW2 2217   1.634   2.589   0.497  2.8283  0.0477  0.5420
  740SOL     OW 2218   1.837   0.426   0.913  0.4221 -0.0303  0.0415
  740SOL    HW1 2219   1.863   0.509   0.962  2.1246 -2.2428  1.0099
  740SOL    HW2 2220   1.882   0.435   0.822 -0.2491  1.0758  1.8761
  741SOL     OW 2221   2.420   0.934   0.669 -0.1391 -0.0971  0.0676
  741SOL    HW1 2222   2.381   1.030   0.668  0.0283  1.7911  2.1838
  741SOL    HW2 2223   2.439   0.897   0.578  0.0492  1.6567  2.4740
  742SOL     OW 2224   1.067   1.857   2.148 -0.2882  0.4449  0.0723
  742SOL    HW1 2225   1.149   1.836   2.203  2.0655  1.3156  0.3573
  742SOL    HW2 2226   0.991   1.894   2.204 -1.8614  0.2790 -0.2146
  743SOL     OW 2227   1.925   0.807   1.867  0.0521  0.3287 -0.0320
  743SOL    HW1 2228   1.966   0.902   1.882  3.6961  2.4455  1.2256
  743SOL    HW2 2229   1.964   0.739   1.935 -2.0795 -2.3187  0.2569
  744SOL     OW 2230   2.184   0.790   1.481 -0.1143 -0.4700 -0.3594
  744SOL    HW1 2231   2.256   0.814   1.415 -1.7374 -1.0210  1.8196
  744SOL    HW2 2232   2.134   0.872   1.510  1.0989 -0.6439 -1.2919
  745SOL     OW 2233   1.828   1.385   1.392  0.6385  0.4010  0.1104
  745SOL    HW1 2234   1.796   1.450   1.463 -0.9526 -0.0614  1.8216
  745SOL    HW2 2235   1.751   1.332   1.351  1.3031 -0.1594  0.6012
  746SOL     OW 2236   2.095   1.827   0.795 -0.2035 -0.1777  0.0728
  746SOL    HW1 2237   2.090   1.811   0.896  0.8255  1.3250 -4.1895
  746SOL    HW2 2238   2.186   1.868   0.782 -0.9232  0.1024  0.8252
  747SOL     OW 2239   2.203   1.361   0.804 -0.1486 -0.0691 -0.1172
  747SOL    HW1 2240   2.177   1.457   0.780  0.8528 -3.2714 -0.4264
  747SOL    HW2 2241   2.166   1.298   0.735 -1.4439  0.6598  0.0609
  748SOL     OW 2242   0.256   2.172   0.856  0.2784  0.1005 -0.2078
  748SOL    HW1 2243   0.154   2.163   0.872  0.8908  1.1251 -2.2694
  748SOL    HW2 2244   0.292   2.089   0.807 -0.5056  1.0831  4.2987
  749SOL     OW 2245   2.464   3.096   2.118  0.1699  0.0222  0.3253
  749SOL    HW1 2246   2.476   3.030   2.195 -0.9827  1.0197  1.1708
  749SOL    HW2 2247   2.364   3.108   2.097 -2.0150 -0.5157 -2.8376
  750SOL     OW 2248   2.361   0.747   0.880 -0.0942  0.7746 -0.2462
  750SOL    HW1 2249   2.267   0.753   0.924 -1.8202  0.9270 -0.5115
  750SOL    HW2 2250   2.359   0.797   0.793  0.7727  0.7079  2.2691
  751SOL     OW 2251   2.547   2.994   0.461  0.0483  0.7931 -0.0067
  751SOL    HW1 2252   2.473   2.930   0.444 -1.8310  0.4866 -0.4102
  751SOL    HW2 2253   2.558   3.062   0.386 -0.8192 -2.9773 -0.6781
  752SOL     OW 2254   0.199   2.804   0.750  0.5942 -0.0990  0.1415
  752SOL    HW1 2255   0.278   2.773   0.802 -0.6048 -1.5938  0.0488
  752SOL    HW2 2256   0.214   2.802   0.648  2.3010  0.0387 -1.1625
  753SOL     OW 2257   1.885   0.577   2.048  0.3188 -0.0954  0.3432
  753SOL    HW1 2258   1.810   0.554   1.983 -2.0987  1.0278  0.3704
  753SOL    HW2 2259   1.966   0.515   2.037 -1.1716  0.4752  1.4993
  754SOL     OW 2260   1.278   2.662   1.734 -0.0249  0.2469  0.0625
  754SOL    HW1 2261   1.229   2.651   1.644  0.9722 -0.8272  1.4585
  754SOL    HW2 2262   1.380   2.676   1.721 -1.4424 -1.5145  1.4571
  755SOL     OW 2263   2.795   0.565   0.581  0.2776 -0.2993 -0.5456
  755SOL    HW1 2264   2.798   0.606   0.489  0.3898 -1.6501 -0.6959
  755SOL    HW2 2265   2.700   0.535   0.610 -0.8971 -0.2879  1.6601
  756SOL     OW 2266   1.000   1.702   3.080 -0.1791  0.0935  0.2407
  756SOL    HW1 2267   1.023   1.631   0.037 -0.7456 -1.0586  1.7393
  756SOL    HW2 2268   0.941   1.659   3.010 -1.4176 -2.3939  3.8220
  757SOL     OW 2269   1.170   0.107   0.851 -0.2305  0.1249  0.1919
  757SOL    HW1 2270   1.157   0.011   0.892  0.3208 -1.8833 -0.2542
  757SOL    HW2 2271   1.082   0.146   0.811 -0.0078 -0.7167 -2.0020
  758SOL     OW 2272   0.827   0.203   1.196 -0.2751 -0.6355 -0.3396
  758SOL    HW1 2273   0.844   0.303   1.198  0.4716  0.3964  1.4318
  758SOL    HW2 2274   0.895   0.157   1.257  2.1926 -0.7237 -0.9710
  759SOL     OW 2275   0.319   0.507   0.922 -0.1571  0.3458 -0.0220
  759SOL    HW1 2276   0.371   0.593   0.917  2.8954 -4.0366 -0.4929
  759SOL    HW2 2277   0.236   0.519   0.979  2.2836 -0.5258 -2.5855
  760SOL     OW 2278   2.376   1.215   1.215 -0.1478 -0.3787  0.1605
  760SOL    HW1 2279   2.437   1.149   1.168 -0.9793 -0.1730 -0.1163
  760SOL    HW2 2280   2.287   1.220   1.165  0.0670 -2.1435 -0.2247
  761SOL     OW 2281   1.704   0.628   0.583 -0.5002 -0.4463 -0.1963
  761SOL    HW1 2282   1.607   0.650   0.568 -1.4144  0.4852  2.0466
  761SOL    HW2 2283   1.739   0.535   0.554 -0.5103 -2.5778 -2.5315
  762SOL     OW 2284   2.066   2.416   0.901  0.0672  0.1713  0.4532
  762SOL    HW1 2285   2.022   2.392   0.811  0.2491 -0.0784 -0.1568
  762SOL    HW2 2286   2.066   2.337   0.962  1.7283  2.1160  0.8251
  763SOL     OW 2287   1.544   1.506   1.843  0.0674 -0.5006 -0.0564
  763SOL    HW1 2288   1.493   1.582   1.885  0.1422 -0.1604 -1.6066
  763SOL    HW2 2289   1.472   1.442   1.812 -1.6838 -0.1235  1.7746
  764SOL     OW 2290   2.709   2.130   2.520 -0.0966  0.2886 -0.1243
  764SOL    HW1 2291   2.784   2.147   2.453 -0.8010 -0.0913 -0.2491
  764SOL    HW2 2292   2.751   2.115   2.611  0.1208 -3.3976  3.2059
  765SOL     OW 2293   0.790   2.460   0.900  0.4112  0.0767  0.3213
  765SOL    HW1 2294   0.733   2.541   0.919 -3.0719  1.6865 -0.6640
  765SOL    HW2 2295   0.841   2.433   0.979 -2.1787  0.7532 -0.3664
  766SOL     OW 2296   0.386   1.774   2.438 -0.3485  0.0556 -0.1682
  766SOL    HW1 2297   0.305   1.788   2.499 -0.8997  0.3416 -1.7791
  766SOL    HW2 2298   0.472   1.793   2.492  3.4801 -1.3269  1.8098
  767SOL     OW 2299   2.058   0.899   2.591 -0.1785 -0.0353  0.0416
  767SOL    HW1 2300   1.980   0.966   2.575  2.8407  0.2271 -0.5006
  767SOL    HW2 2301   2.031   0.796   2.589 -0.2478 -0.5353  0.5585
  768SOL     OW 2302   1.063   2.757   2.752 -0.3229 -0.3178  0.3270
  768SOL    HW1 2303   1.122   2.757   2.669 -1.0214  1.0869  0.8309
  768SOL    HW2 2304   1.055   2.852   2.791  0.1861 -0.1017 -1.1633
  769SOL     OW 2305   3.004   2.468   0.932  0.6033 -0.0675  0.3376
  769SOL    HW1 2306   2.938   2.521   0.990 -0.2868 -1.0189  1.6965
  769SOL    HW2 2307   3.096   2.515   0.929  1.0702  2.4668  1.4794
  770SOL     OW 2308   0.544   2.809   0.149 -0.4044 -0.0565 -0.4020
  770SOL    HW1 2309   0.583   2.716   0.149 -2.0547  1.8204  2.5311
  770SOL    HW2 2310   0.606   2.877   0.194  2.6836 -0.3095 -2.0316
  771SOL     OW 2311   1.084   2.185   2.401 -0.0733  0.5007 -0.4919
  771SOL    HW1 2312   1.102   2.166   2.498 -0.7081 -0.3655  1.7770
  771SOL    HW2 2313   0.989   2.224   2.395 -2.6433 -2.4600  0.8661
  772SOL     OW 2314   2.200   0.077   2.073 -0.3591 -0.5685  0.1690
  772SOL    HW1 2315   2.151   0.151   2.124 -0.0276  0.6521  1.1253
  772SOL    HW2 2316   2.144   3.109   2.066  1.4777 -0.7221 -1.5959
  773SOL     OW 2317   1.098   0.063   1.975  0.5383  0.3213 -0.5208
  773SOL    HW1 2318   1.198   0.065   1.965 -0.0981 -2.1464  0.5036
  773SOL    HW2 2319   1.073   0.052   2.072  0.5508  0.4399 -2.9656
  774SOL     OW 2320   1.384   0.823   1.722 -0.1032 -0.4957  0.1416
  774SOL    HW1 2321   1.408   0.923   1.707  0.3531  0.9012 -0.7374
  774SOL    HW2 2322   1.456   0.787   1.787 -0.7850 -1.2654  1.4758
  775SOL     OW 2323   2.102   3.024   0.413 -0.5045 -0.1895  0.1925
  775SOL    HW1 2324   2.153   2.950   0.459  0.2781  3.0155  0.4269
  775SOL    HW2 2325   2.051   2.989   0.330  0.3646  0.4338 -0.3923
  776SOL     OW 2326   2.291   1.165   1.882 -0.4385  0.2664  0.6103
  776SOL    HW1 2327   2.384   1.204   1.855  0.2787 -0.6325  0.4874
  776SOL    HW2 2328   2.222   1.204   1.821  0.2142  0.4893  2.3278
  777SOL     OW 2329   0.069   1.198   2.584 -0.1181  0.0946 -0.8103
  777SOL    HW1 2330   0.121   1.112   2.575  1.4219  1.1960 -1.4784
  777SOL    HW2 2331   0.071   1.255   2.500  0.5462 -0.4803  2.0814
  778SOL     OW 2332   2.310   1.099   2.494  0.3386  0.3123  0.0289
  778SOL    HW1 2333   2.277   1.010   2.528  0.5773  0.3562 -1.5650
  778SOL    HW2 2334   2.254   1.177   2.529 -0.9645 -1.9871  2.0912
  779SOL     OW 2335   3.048   0.324   2.803 -0.0677  0.0690  0.3005
  779SOL    HW1 2336   0.022   0.283   2.829  0.0346  0.1704  0.4949
  779SOL    HW2 2337   3.036   0.342   2.704 -1.2522 -1.1150 -0.6587
  780SOL     OW 2338   2.172   2.882   2.323  0.1050  0.8635  0.2680
  780SOL    HW1 2339   2.131   2.918   2.235  0.6210  2.5327 -0.4335
  780SOL    HW2 2340   2.273   2.891   2.315  1.6881  0.9133  0.3466
  781SOL     OW 2341   0.003   0.941   1.732 -0.0645  0.3654 -0.4976
  781SOL    HW1 2342   3.061   0.926   1.813 -0.4816  0.0509 -0.3637
  781SOL    HW2 2343   3.070   0.917   1.647 -1.9187 -0.6651  0.2245
  782SOL     OW 2344   2.227   2.166   0.072 -0.6958  0.1040 -0.5180
  782SOL    HW1 2345   2.287   2.114   0.137  0.8570 -0.2344 -1.8101
  782SOL    HW2 2346   2.254   2.263   0.071 -0.7230 -2.7506 -0.0442
  783SOL     OW 2347   0.432   2.262   1.201  0.2762 -0.1945  0.3069
  783SOL    HW1 2348   0.367   2.338   1.181  0.8550  1.4961  2.1009
  783SOL    HW2 2349   0.530   2.296   1.194 -0.3109  1.7328  1.4239
  784SOL     OW 2350   2.609   0.711   2.437  0.0344  0.4162  0.2483
  784SOL    HW1 2351   2.554   0.629   2.413 -0.4268  0.1819 -0.8391
  784SOL    HW2 2352   2.551   0.795   2.419 -1.4196  2.3193  1.9676
  785SOL     OW 2353   0.070   0.142   1.273 -0.3459 -0.1300 -0.2745
  785SOL    HW1 2354   3.101   0.194   1.233 -1.8895  2.7624  1.7190
  785SOL    HW2 2355   0.076   0.164   1.375 -1.0100 -0.4003  0.3865
  786SOL     OW 2356   1.259   2.834   0.451 -0.0705 -0.6085  0.0737
  786SOL    HW1 2357   1.330   2.802   0.387 -1.5099 -0.7079 -0.8041
  786SOL    HW2 2358   1.230   2.931   0.430 -1.3005  0.8860  2.0751
  787SOL     OW 2359   1.331   0.137   0.625  0.2692  0.5246 -0.7254
  787SOL    HW1 2360   1.304   0.221   0.570  0.2248 -1.2054  2.0487
  787SOL    HW2 2361   1.266   0.113   0.699  1.4635 -0.5820 -0.4761
  788SOL     OW 2362   2.992   1.471   1.087 -0.0766  0.0732  0.4690
  788SOL    HW1 2363   2.951   1.503   1.001  1.3142 -2.1343  0.0561
  788SOL    HW2 2364   3.089   1.455   1.070 -3.5480  1.0375 -0.6258
  789SOL     OW 2365   2.884   0.720   1.990  0.1137 -0.0572 -0.0104
  789SOL    HW1 2366   2.922   0.815   1.976  0.8590  0.0700  1.5136
  789SOL    HW2 2367   2.852   0.716   2.087 -2.3760  2.2955 -0.8561
  790SOL     OW 2368   0.851   0.430   2.927  0.6086 -0.2795  0.2551
  790SOL    HW1 2369   0.879   0.353   2.865  0.2894 -0.6017 -0.3667
  790SOL    HW2 2370   0.923   0.499   2.930 -0.8891  0.9590 -0.2901
  791SOL     OW 2371   2.913   2.862   3.112  0.5068 -0.1771 -0.7637
  791SOL    HW1 2372   2.905   2.866   3.009  0.7686 -0.4553  1.2578
  791SOL    HW2 2373   2.875   2.773   0.034  2.1966  0.8267  2.0547
  792SOL     OW 2374   1.589   0.722   1.890 -0.5310  0.0222  0.2233
  792SOL    HW1 2375   1.605   0.625   1.917  0.3474  0.0101  1.8447
  792SOL    HW2 2376   1.669   0.775   1.913 -1.3622 -0.7833 -0.3684
  793SOL     OW 2377   2.813   0.541   1.269  0.2286 -0.2360  0.1218
  793SOL    HW1 2378   2.718   0.520   1.250 -1.6243  2.4841 -0.4386
  793SOL    HW2 2379   2.834   0.621   1.206 -1.8443  1.6082 -4.3685
  794SOL     OW 2380   2.947   0.456   2.318 -0.5962  0.1507 -0.2987
  794SOL    HW1 2381   2.896   0.530   2.271  0.5655 -3.4905 -0.9802
  794SOL    HW2 2382   3.044   0.462   2.289 -1.3373 -0.4574  0.6256
  795SOL     OW 2383   0.653   1.858   3.057  0.8789 -0.2004  0.6045
  795SOL    HW1 2384   0.560   1.869   3.098 -4.1845 -3.9522  0.3161
  795SOL    HW2 2385   0.721   1.870   0.015 -2.9793 -1.6755 -1.7385
  796SOL     OW 2386   2.587   0.731   2.922 -0.7488  0.5878 -0.6228
  796SOL    HW1 2387   2.498   0.711   2.962  1.1139 -0.5867 -0.5190
  796SOL    HW2 2388   2.592   0.700   2.825  0.8584 -0.7929 -0.9274
  797SOL     OW 2389   2.718   2.028   2.786 -0.5327  0.3467  0.6481
  797SOL    HW1 2390   2.628   1.975   2.801  0.3147 -2.5919  1.6392
  797SOL    HW2 2391   2.720   2.111   2.841 -0.8441 -1.3689 -0.2225
  798SOL     OW 2392   2.827   0.156   1.398  0.2784 -0.9026  0.7774
  798SOL    HW1 2393   2.891   0.146   1.476  0.4521  0.1728  0.5129
  798SOL    HW2 2394   2.876   0.202   1.318  3.0141  1.0200 -2.8613
  799SOL     OW 2395   0.315   0.273   1.569  0.2857  0.1696  0.5314
  799SOL    HW1 2396   0.373   0.305   1.490 -1.6896  0.7740 -1.0817
  799SOL    HW2 2397   0.371   0.214   1.633  0.3667 -0.2889 -0.5785
  800SOL     OW 2398   0.325   1.733   0.289 -0.4116 -0.7115  0.3365
  800SOL    HW1 2399   0.254   1.660   0.315 -0.9637  1.3040 -0.6321
  800SOL    HW2 2400   0.407   1.689   0.248 -0.9046  2.1961 -1.3145
  801SOL     OW 2401   1.865   1.667   0.697  0.0074  0.2020 -0.1290
  801SOL    HW1 2402   1.864   1.748   0.757 -1.2721 -2.7143 -2.1385
  801SOL    HW2 2403   1.958   1.653   0.656  0.6558  0.3613 -1.3722
  802SOL     OW 2404   1.391   1.044   0.087 -0.3122 -0.1149  0.4847
  802SOL    HW1 2405   1.394   1.021   3.101  0.5022 -0.8826 -3.4002
  802SOL    HW2 2406   1.469   1.101   0.120  1.1548 -0.1720 -0.1081
  803SOL     OW 2407   1.138   1.660   1.809 -0.1918 -0.0710 -0.4709
  803SOL    HW1 2408   1.168   1.636   1.715 -0.3925 -0.7885 -0.1642
  803SOL    HW2 2409   1.064   1.597   1.839 -0.7595 -1.0396 -0.2748
  804SOL     OW 2410   1.710   2.352   0.950  0.1065 -0.2538 -0.2477
  804SOL    HW1 2411   1.740   2.268   1.000 -1.2287  0.3071  2.9170
  804SOL    HW2 2412   1.696   2.334   0.848 -1.2733 -0.8438 -1.9084
  805SOL     OW 2413   0.156   2.395   2.226 -0.0570  0.5088  0.1647
  805SOL    HW1 2414   0.114   2.410   2.133 -0.9402 -0.2826 -2.8334
  805SOL    HW2 2415   0.252   2.367   2.217  1.2989  3.3628 -0.3466
  806SOL     OW 2416   0.904   0.071   0.182  0.0667 -0.5448 -0.0203
  806SOL    HW1 2417   0.952   0.140   0.242  1.3372  0.8479 -0.4090
  806SOL    HW2 2418   0.806   0.103   0.176  0.5813  0.6236 -1.0275
  807SOL     OW 2419   2.571   1.159   2.972  0.1381  0.2425 -0.5667
  807SOL    HW1 2420   2.619   1.070   2.999  0.6619 -1.0714  0.3351
  807SOL    HW2 2421   2.554   1.149   2.871  1.1317 -2.1600  1.7395
  808SOL     OW 2422   1.468   2.087   0.873 -0.7440  0.3050 -0.2583
  808SOL    HW1 2423   1.518   2.148   0.808  1.9040 -1.5502 -0.5424
  808SOL    HW2 2424   1.390   2.052   0.820 -2.2238  1.6955  0.6840
  809SOL     OW 2425   0.331   3.084   0.585 -0.3051  0.4552  0.4282
  809SOL    HW1 2426   0.279   2.999   0.558 -3.1907 -0.7877 -1.3564
  809SOL    HW2 2427   0.304   0.039   0.518 -0.8613 -1.6698 -2.2338
  810SOL     OW 2428   1.195   1.634   0.724 -0.0095 -0.4502  0.2202
  810SOL    HW1 2429   1.173   1.636   0.825  1.0423  2.2684  0.4826
  810SOL    HW2 2430   1.165   1.539   0.693 -1.8395 -1.3604 -1.2952
  811SOL     OW 2431   1.445   2.882   1.299  0.0077  0.0369 -0.0107
  811SOL    HW1 2432   1.455   2.782   1.278  0.3718  0.3203 -2.2758
  811SOL    HW2 2433   1.537   2.923   1.291  0.3191 -1.3436  2.2091
  812SOL     OW 2434   1.196   3.116   0.416 -0.4756 -0.6622  0.0458
  812SOL    HW1 2435   1.099   3.103   0.440  4.3322  1.1616  0.9936
  812SOL    HW2 2436   1.235   0.030   0.506  0.9158 -2.6195 -0.6456
  813SOL     OW 2437   0.976   0.111   2.239 -0.2762 -0.5393  0.0072
  813SOL    HW1 2438   1.069   0.135   2.269  0.3048  2.4322  1.2104
  813SOL    HW2 2439   0.924   0.069   2.316 -1.9451  2.9684 -0.5282
  814SOL     OW 2440   0.795   2.792   1.174 -0.6332  0.2527 -0.0478
  814SOL    HW1 2441   0.853   2.816   1.255  0.6980  1.1579  3.3453
  814SOL    HW2 2442   0.720   2.859   1.160  2.4456 -0.3855 -2.2314
  815SOL     OW 2443   0.261   2.509   0.414 -0.6416  0.4218 -0.2925
  815SOL    HW1 2444   0.274   2.445   0.338  2.5421 -0.5267  2.2961
  815SOL    HW2 2445   0.333   2.580   0.407 -1.0664 -0.7287  0.9546
  816SOL     OW 2446   2.343   1.434   2.749 -0.4034  0.7477  0.2697
  816SOL    HW1 2447   2.334   1.479   2.837  0.8950 -0.6639  1.0717
  816SOL    HW2 2448   2.438   1.437   2.708 -2.1842  1.0565  1.9710
  817SOL     OW 2449   1.871   2.538   2.647 -0.3249 -0.1390 -0.1401
  817SOL    HW1 2450   1.957   2.490   2.671 -2.7158 -0.8977  2.3444
  817SOL    HW2 2451   1.878   2.632   2.673  0.0576 -2.8339 -1.5216
  818SOL     OW 2452   1.381   1.246   0.630  0.1151 -0.3380 -0.5107
  818SOL    HW1 2453   1.407   1.198   0.546 -2.5308  1.2085  4.2780
  818SOL    HW2 2454   1.422   1.337   0.636 -1.8618 -3.4552 -0.2982
  819SOL     OW 2455   1.462   1.809   3.087 -0.2445 -0.4154  0.2233
  819SOL    HW1 2456   1.459   1.874   0.047 -0.6736  1.5262 -0.8195
  819SOL    HW2 2457   1.370   1.796   3.049  2.0838  0.4246  1.4696
  820SOL     OW 2458   0.730   0.823   0.087 -0.3446 -0.3736  0.2758
  820SOL    HW1 2459   0.682   0.834   3.114 -0.9072 -2.5113 -0.2283
  820SOL    HW2 2460   0.726   0.726   0.111 -0.5908  1.9954  0.9308
  821SOL     OW 2461   0.589   0.095   1.170  0.1402  0.4686  0.0485
  821SOL    HW1 2462   0.558   0.162   1.102  1.5249 -3.6861  0.9395
  821SOL    HW2 2463   0.683   0.130   1.191  1.9295  2.1703  1.7262
  822SOL     OW 2464   1.858   2.354   2.437 -0.0579  0.7631  0.5268
  822SOL    HW1 2465   1.874   2.260   2.464 -1.6898 -1.3356 -0.4491
  822SOL    HW2 2466   1.825   2.407   2.517 -0.2497 -0.9245  0.6861
  823SOL     OW 2467   1.033   0.469   2.151 -0.1575  0.0919 -0.3263
  823SOL    HW1 2468   1.112   0.434   2.200  0.2141 -0.7546  1.7858
  823SOL    HW2 2469   0.944   0.429   2.182 -1.4444 -0.7014 -0.3328
  824SOL     OW 2470   2.232   0.066   1.633  0.2639  0.4306  0.4778
  824SOL    HW1 2471   2.183   0.152   1.615 -2.9720 -0.0171 -1.4088
  824SOL    HW2 2472   2.168   3.101   1.627  1.7653  0.0292  0.1624
  825SOL     OW 2473   0.762   1.219   3.061  0.1390  0.6354 -0.6685
  825SOL    HW1 2474   0.818   1.136   3.089  0.2937  0.3167  2.9547
  825SOL    HW2 2475   0.665   1.209   3.096 -2.2304 -0.1219  0.3937
  826SOL     OW 2476   1.954   0.642   2.553 -0.5162  0.1113  0.2116
  826SOL    HW1 2477   2.016   0.560   2.561  1.5110 -1.6859 -1.1041
  826SOL    HW2 2478   1.891   0.637   2.468  0.0934 -0.6766 -1.8214
  827SOL     OW 2479   0.822   2.271   2.442  0.4147  0.8877  0.2011
  827SOL    HW1 2480   0.742   2.284   2.379  0.7353  4.4057  1.3015
  827SOL    HW2 2481   0.812   2.337   2.518  1.3554  0.2699  1.1617
  828SOL     OW 2482   2.590   0.128   1.496  0.3983 -0.1059 -0.0747
  828SOL    HW1 2483   2.675   0.162   1.449  1.9347  0.5584 -0.0884
  828SOL    HW2 2484   2.580   0.026   1.510  0.1121 -0.5631  0.8613
  829SOL     OW 2485   1.230   1.638   1.533  0.3032 -0.6410 -0.0698
  829SOL    HW1 2486   1.282   1.584   1.464  0.7088 -1.2201  0.2152
  829SOL    HW2 2487   1.131   1.646   1.511  0.3671 -0.5349  0.1723
  830SOL     OW 2488   0.699   0.954   1.730 -0.4662  0.2317 -0.3544
  830SOL    HW1 2489   0.769   0.908   1.672 -0.9436  1.3276 -4.2265
  830SOL    HW2 2490   0.708   0.945   1.831  0.5612 -0.0920  3.6270
  831SOL     OW 2491   3.094   1.893   0.313  0.1227  0.0182 -0.3145
  831SOL    HW1 2492   3.101   1.861   0.217  1.8334 -0.2743  2.2813
  831SOL    HW2 2493   0.068   1.923   0.358  1.4685 -0.2600  0.7424
  832SOL     OW 2494   0.965   2.725   0.306  0.3777  0.7953  0.2773
  832SOL    HW1 2495   0.869   2.768   0.298 -1.5920  0.5238 -0.2561
  832SOL    HW2 2496   1.016   2.717   0.219 -1.0090  0.9360 -1.3001
  833SOL     OW 2497   3.014   0.358   1.681  0.1212 -0.3650 -0.1848
  833SOL    HW1 2498   2.923   0.370   1.635 -3.0439  0.0179 -1.5189
  833SOL    HW2 2499   3.048   0.440   1.733  0.6388  0.1386  2.1434
  834SOL     OW 2500   3.103   1.085   0.946 -0.5375  0.3916  0.2445
  834SOL    HW1 2501   0.036   1.141   0.875  0.0361  1.7646 -0.5432
  834SOL    HW2 2502   3.104   0.989   0.917 -2.2452 -2.3621  1.4007
  835SOL     OW 2503   2.478   2.933   1.132 -0.2268 -0.2679 -0.1488
  835SOL    HW1 2504   2.416   2.990   1.071  0.4657  0.0593 -2.5706
  835SOL    HW2 2505   2.564   2.985   1.147 -0.7962 -1.3064 -2.3816
  836SOL     OW 2506   1.032   1.827   2.551 -0.0614 -0.1080 -0.2436
  836SOL    HW1 2507   0.955   1.870   2.598  4.3194 -1.6787  0.4692
  836SOL    HW2 2508   1.008   1.748   2.496 -1.5167  0.8712  1.7491
  837SOL     OW 2509   1.670   1.859   2.919  0.2722  0.6545 -0.2024
  837SOL    HW1 2510   1.585   1.831   2.971  0.0764 -0.5822 -1.1176
  837SOL    HW2 2511   1.644   1.941   2.864  2.0215  0.2109 -1.5734
  838SOL     OW 2512   0.194   0.636   2.305  0.0559  0.2699  0.5642
  838SOL    HW1 2513   0.258   0.578   2.369  2.5785 -1.6617  0.8467
  838SOL    HW2 2514   0.165   0.582   2.223 -3.5596  0.8601 -1.3608
  839SOL     OW 2515   0.757   0.832   2.730  0.6842  0.2260 -0.3045
  839SOL    HW1 2516   0.757   0.900   2.653  0.1038  1.3047 -0.6203
  839SOL    HW2 2517   0.846   0.836   2.781  1.9572 -0.0913  0.8646
  840SOL     OW 2518   1.749   0.533   0.258  0.2983 -0.1247 -0.7153
  840SOL    HW1 2519   1.842   0.546   0.302 -2.2827 -1.4519 -0.0832
  840SOL    HW2 2520   1.683   0.507   0.333 -1.1042 -1.2060 -0.0981
  841SOL     OW 2521   0.628   2.677   0.621  0.6618 -0.2686  0.2460
  841SOL    HW1 2522   0.582   2.654   0.711  2.1020 -2.0514  2.1168
  841SOL    HW2 2523   0.691   2.758   0.623  0.0389  3.5362  0.6219
  842SOL     OW 2524   0.340   0.620   0.420  0.0067  0.1829 -0.1334
  842SOL    HW1 2525   0.239   0.619   0.423 -1.0931 -0.3528  0.6490
  842SOL    HW2 2526   0.377   0.714   0.447  0.7954 -0.5583  0.9608
  843SOL     OW 2527   0.443   0.739   1.283 -0.0921  0.2483 -0.5968
  843SOL    HW1 2528   0.525   0.694   1.320 -2.2927  0.3201 -0.8401
  843SOL    HW2 2529   0.418   0.819   1.336  1.1364  0.3567 -2.2312
  844SOL     OW 2530   2.151   2.471   2.683  0.0375  1.4471 -0.2526
  844SOL    HW1 2531   2.153   2.547   2.616  0.6729 -0.6218 -2.8614
  844SOL    HW2 2532   2.153   2.378   2.637 -0.4477 -0.3036  3.7508
  845SOL     OW 2533   2.058   2.974   1.612 -0.7703 -0.2609  0.2735
  845SOL    HW1 2534   1.986   2.952   1.680  1.5600  1.1671 -2.3247
  845SOL    HW2 2535   2.072   2.900   1.541  2.3214 -1.0275 -0.6967
  846SOL     OW 2536   2.410   1.780   2.497 -0.0628 -0.0786 -0.3043
  846SOL    HW1 2537   2.356   1.696   2.469  0.0528 -1.0672  2.8307
  846SOL    HW2 2538   2.409   1.853   2.423 -2.3429  0.5266 -1.7451
  847SOL     OW 2539   2.064   2.946   2.052  0.0517  0.2984 -0.1259
  847SOL    HW1 2540   1.992   2.875   2.080 -1.6986 -1.6798  0.0542
  847SOL    HW2 2541   2.105   2.912   1.969  0.9194  0.6926  2.6775
  848SOL     OW 2542   0.094   2.906   0.276  0.2845  0.4552 -0.0069
  848SOL    HW1 2543   0.093   2.953   0.186  0.5557  0.8243  0.5442
  848SOL    HW2 2544   0.040   2.959   0.347 -0.9327 -1.2281  0.9369
  849SOL     OW 2545   0.595   2.962   1.066 -0.1338 -0.4440  0.1611
  849SOL    HW1 2546   0.614   3.052   1.101 -0.4365 -0.4249 -1.5914
  849SOL    HW2 2547   0.558   2.979   0.974  1.7627  2.4967  0.8704
  850SOL     OW 2548   0.150   1.706   0.914 -0.2387 -0.1753  0.5584
  850SOL    HW1 2549   0.121   1.778   0.982  0.5071  1.9148  1.3162
  850SOL    HW2 2550   0.244   1.710   0.873  1.2211 -2.0567  0.0947
  851SOL     OW 2551   2.736   0.939   3.026  0.0097  0.4961 -0.7378
  851SOL    HW1 2552   2.701   0.862   2.969  3.2909  2.9976  1.2445
  851SOL    HW2 2553   2.827   0.975   2.998  0.2108 -0.6764  3.0532
  852SOL     OW 2554   1.889   2.032   2.628 -0.6053 -0.1715  0.2328
  852SOL    HW1 2555   1.880   1.933   2.643  1.2899  0.4584  1.7050
  852SOL    HW2 2556   1.870   2.086   2.716 -1.3642  1.2233  1.0348
  853SOL     OW 2557   0.664   1.806   0.306 -0.3226 -0.4773  0.2299
  853SOL    HW1 2558   0.632   1.707   0.297 -1.7505  1.0196 -0.9669
  853SOL    HW2 2559   0.740   1.835   0.245  0.6795  0.1071 -0.5191
  854SOL     OW 2560   1.646   1.107   2.155  0.3092  0.4005  0.8157
  854SOL    HW1 2561   1.580   1.094   2.076 -0.5603 -1.7962 -0.0361
  854SOL    HW2 2562   1.612   1.183   2.214 -2.0488 -3.3898 -2.8204
  855SOL     OW 2563   0.764   2.252   3.099 -0.4233  0.1249 -0.4132
  855SOL    HW1 2564   0.686   2.204   0.036 -0.3486  2.6176  0.8095
  855SOL    HW2 2565   0.732   2.274   3.005  1.1489  0.1362 -2.8169
  856SOL     OW 2566   0.506   0.010   2.014  0.0184  0.0888  0.0922
  856SOL    HW1 2567   0.526   3.046   1.953  0.5949  0.0379  2.7529
  856SOL    HW2 2568   0.557   0.009   2.102  0.8895  0.6229 -0.5164
  857SOL     OW 2569   0.756   0.272   1.690  0.2077  0.3645  0.6002
  857SOL    HW1 2570   0.854   0.264   1.717 -2.5595  0.7491 -3.5434
  857SOL    HW2 2571   0.716   0.353   1.731 -0.9450  1.2151  0.4491
  858SOL     OW 2572   0.201   2.077   2.145 -0.5935  0.1928  0.3067
  858SOL    HW1 2573   0.258   2.097   2.229 -2.0636 -1.5477  1.4520
  858SOL    HW2 2574   0.270   2.030   2.082 -2.0652 -1.4079 -0.2742
  859SOL     OW 2575   2.037   2.211   1.087 -0.2021  0.0092 -0.3787
  859SOL    HW1 2576   2.027   2.285   1.150 -0.2506 -2.5056  1.1766
  859SOL    HW2 2577   1.947   2.166   1.071  0.2718  3.4082  0.7777
  860SOL     OW 2578   2.000   0.474   0.718  0.4811  0.3565  0.4832
  860SOL    HW1 2579   2.054   0.389   0.736  0.0845  0.7106  1.1666
  860SOL    HW2 2580   2.055   0.554   0.692 -2.1226  1.5597  0.9328
  861SOL     OW 2581   0.081   0.576   1.054  0.2283 -0.3332 -0.4482
  861SOL    HW1 2582   0.076   0.571   1.152 -2.0207  0.4883 -0.5192
  861SOL    HW2 2583   3.104   0.569   1.010 -2.2516  0.9247  1.5075
  862SOL     OW 2584   2.287   0.659   1.699  0.1971 -0.3080 -0.0493
  862SOL    HW1 2585   2.284   0.723   1.779 -0.7036  1.2913 -1.5853
  862SOL    HW2 2586   2.237   0.703   1.624 -0.5399 -0.5180  2.4959
  863SOL     OW 2587   0.316   1.254   1.486 -0.4767  0.6831  0.5236
  863SOL    HW1 2588   0.319   1.298   1.575 -0.9132 -1.7367 -3.2617
  863SOL    HW2 2589   0.239   1.292   1.432 -1.4016 -3.2359 -0.8436
  864SOL     OW 2590   2.462   2.907   1.908 -0.0455 -0.0324 -0.1794
  864SOL    HW1 2591   2.542   2.904   1.974 -0.2572 -1.2229 -0.0036
  864SOL    HW2 2592   2.426   3.002   1.900  2.0464 -1.3853  1.3405
  865SOL     OW 2593   1.433   0.373   2.260 -0.3876 -0.3122  0.7871
  865SOL    HW1 2594   1.450   0.369   2.157  2.1456 -0.2389 -1.1013
  865SOL    HW2 2595   1.520   0.373   2.313 -0.2826  2.0777  1.3975
  866SOL     OW 2596   2.198   2.688   0.580 -0.2924  0.4774  0.5189
  866SOL    HW1 2597   2.229   2.701   0.679 -1.7488  1.2950 -3.3127
  866SOL    HW2 2598   2.265   2.734   0.519 -0.6426  0.3869  0.9856
  867SOL     OW 2599   2.564   2.660   0.875 -0.1605  0.0407 -0.1049
  867SOL    HW1 2600   2.637   2.718   0.827  1.1794  2.4465  0.5504
  867SOL    HW2 2601   2.582   2.659   0.974  0.6202  0.2070 -4.4852
  868SOL     OW 2602   1.634   1.566   2.886  0.1716  0.2125  0.2600
  868SOL    HW1 2603   1.549   1.531   2.843 -1.3429 -0.8023 -1.0163
  868SOL    HW2 2604   1.625   1.664   2.911 -0.8704  1.7573 -0.4024
  869SOL     OW 2605   2.534   2.059   0.669 -0.5402 -0.2560  0.2255
  869SOL    HW1 2606   2.613   2.112   0.715  0.5303 -0.4474 -1.3697
  869SOL    HW2 2607   2.491   2.118   0.596 -0.1403 -1.7706 -1.1871
  870SOL     OW 2608   2.853   2.010   0.395 -0.5014 -0.2858  0.1580
  870SOL    HW1 2609   2.938   1.968   0.356  2.0933  3.4265 -2.3575
  870SOL    HW2 2610   2.863   2.048   0.488 -0.6601  1.2049 -1.3907
  871SOL     OW 2611   0.371   1.000   1.395 -0.0731 -0.0174  0.0247
  871SOL    HW1 2612   0.333   1.080   1.441 -1.4775 -0.1540 -1.5424
  871SOL    HW2 2613   0.325   0.994   1.307 -1.1172  0.4178  0.5281
  872SOL     OW 2614   0.652   1.573   2.399 -0.4972 -0.4481 -0.1279
  872SOL    HW1 2615   0.688   1.611   2.313  1.6366  1.3033 -0.9618
  872SOL    HW2 2616   0.648   1.642   2.473  0.0668  1.9234 -0.6408
  873SOL     OW 2617   0.324   2.936   1.710  0.6558  0.3144  0.0977
  873SOL    HW1 2618   0.342   2.850   1.765 -2.1320  1.3844 -1.5079
  873SOL    HW2 2619   0.405   2.952   1.647  0.4667 -3.0229  0.8688
  874SOL     OW 2620   1.228   0.732   2.122 -0.2854 -0.2806 -0.1284
  874SOL    HW1 2621   1.248   0.711   2.025 -0.2629 -1.6147  1.2771
  874SOL    HW2 2622   1.206   0.648   2.172 -3.0235  1.9230  1.4068
  875SOL     OW 2623   2.693   3.085   1.197 -0.0504 -0.5332  0.1384
  875SOL    HW1 2624   2.729   3.108   1.290 -2.2448 -0.4659  0.1108
  875SOL    HW2 2625   2.630   0.043   1.161 -1.5273  0.6133  0.9153
  876SOL     OW 2626   0.880   1.254   0.428  0.3307  0.1162  0.0287
  876SOL    HW1 2627   0.849   1.175   0.371 -2.5983  2.6532 -1.5624
  876SOL    HW2 2628   0.952   1.309   0.381 -1.4182  0.5549  3.1336
  877SOL     OW 2629   1.198   0.965   1.509 -0.0623  0.0257  0.1711
  877SOL    HW1 2630   1.226   0.899   1.581 -0.5941 -2.1351 -0.4479
  877SOL    HW2 2631   1.214   0.913   1.424  0.3217  0.6522  0.1721
  878SOL     OW 2632   2.496   2.213   0.443 -0.0731  0.1661 -0.0410
  878SOL    HW1 2633   2.529   2.163   0.364 -2.1844  3.4376 -0.1668
  878SOL    HW2 2634   2.538   2.303   0.452 -1.5193 -0.0467  0.8986
  879SOL     OW 2635   2.593   1.866   1.803 -0.0703 -0.3707 -0.1297
  879SOL    HW1 2636   2.669   1.865   1.734  0.2047  1.4495  0.4676
  879SOL    HW2 2637   2.609   1.942   1.869  1.4794 -0.3826  0.5811
  880SOL     OW 2638   1.165   2.550   0.998 -0.1972 -0.0496 -0.2569
  880SOL    HW1 2639   1.230   2.615   0.955 -1.3912 -0.2872 -0.2327
  880SOL    HW2 2640   1.216   2.477   1.048  0.6402 -0.9176  1.2535
  881SOL     OW 2641   0.779   1.986   0.483  0.5560 -0.4276  0.2518
  881SOL    HW1 2642   0.711   1.939   0.423 -1.3893 -0.9864  3.3172
  881SOL    HW2 2643   0.837   2.057   0.439 -0.6103  0.7213 -0.9283
  882SOL     OW 2644   1.990   1.077   0.406 -0.6412 -0.5460  0.2754
  882SOL    HW1 2645   2.003   1.138   0.321  3.5842  3.8032 -4.8645
  882SOL    HW2 2646   1.978   0.978   0.382 -1.0638  0.8883  0.1675
  883SOL     OW 2647   1.518   0.746   0.863 -0.2667 -0.3464  0.1439
  883SOL    HW1 2648   1.481   0.831   0.901 -1.8980 -1.8767 -1.3911
  883SOL    HW2 2649   1.616   0.756   0.835  2.2084  0.9338 -1.1294
  884SOL     OW 2650   2.785   2.841   0.486 -0.6211 -0.1252  0.2084
  884SOL    HW1 2651   2.829   2.872   0.398 -1.9255  2.4041  1.4539
  884SOL    HW2 2652   2.691   2.886   0.485  1.0745 -0.2552 -1.5303
  885SOL     OW 2653   1.088   1.437   2.231 -0.3730  0.3811 -0.2897
  885SOL    HW1 2654   1.067   1.348   2.278 -0.7151 -0.1828 -1.0753
  885SOL    HW2 2655   1.186   1.455   2.209  0.0348  1.6191  3.3093
  886SOL     OW 2656   1.252   1.800   2.348 -0.0548  0.2756 -0.8599
  886SOL    HW1 2657   1.208   1.815   2.440 -1.1111 -1.0485  0.7265
  886SOL    HW2 2658   1.309   1.715   2.346 -0.4340  0.3956 -1.0020
  887SOL     OW 2659   1.185   0.701   0.906  0.1397  0.1289 -0.1569
  887SOL    HW1 2660   1.282   0.700   0.925 -2.2237  0.5466  0.0899
  887SOL    HW2 2661   1.157   0.794   0.877 -0.8147  0.9440 -0.0729
  888SOL     OW 2662   2.564   0.794   1.987  0.1273 -0.2144 -0.2118
  888SOL    HW1 2663   2.541   0.705   2.029  0.3525  1.3481  1.4897
  888SOL    HW2 2664   2.606   0.853   2.057 -3.2659 -0.2735 -1.3484
  889SOL     OW 2665   3.097   2.104   0.911 -0.1326 -0.1041  0.3772
  889SOL    HW1 2666   3.052   2.089   0.824  0.2698  3.1159  3.3516
  889SOL    HW2 2667   3.034   2.150   0.973 -0.2936  0.8485 -0.1338
  890SOL     OW 2668   1.325   2.228   0.347 -0.2783 -0.3801 -0.4449
  890SOL    HW1 2669   1.417   2.213   0.309  1.9188 -0.0321 -0.5866
  890SOL    HW2 2670   1.280   2.144   0.385 -0.7180 -0.8608 -1.1878
  891SOL     OW 2671   3.022   0.571   2.906  0.2079  0.6491  0.5303
  891SOL    HW1 2672   3.029   0.485   2.854  0.3713  1.6613  0.8682
  891SOL    HW2 2673   3.072   0.652   2.868  1.4685  2.3657 -1.3747
  892SOL     OW 2674   2.872   2.244   0.989  0.0675  0.5632  0.1547
  892SOL    HW1 2675   2.921   2.329   0.961 -1.5190  0.4675  0.6104
  892SOL    HW2 2676   2.842   2.264   1.082  2.4176  3.6459 -0.1923
  893SOL     OW 2677   1.277   0.375   0.889  0.2805  0.2518 -0.0990
  893SOL    HW1 2678   1.261   0.279   0.872  1.2494  0.9267  0.8741
  893SOL    HW2 2679   1.374   0.393   0.913  0.2839 -1.9236 -1.3120
  894SOL     OW 2680   3.004   0.324   0.953  0.6529  0.0258 -0.1443
  894SOL    HW1 2681   3.104   0.349   0.917  4.9221  2.3830 -2.1879
  894SOL    HW2 2682   2.960   0.249   0.896 -1.6770 -1.6182 -2.8390
  895SOL     OW 2683   2.069   1.590   2.779 -0.3787  0.7079 -0.3292
  895SOL    HW1 2684   2.068   1.620   2.680 -0.9333  1.4009  1.7368
  895SOL    HW2 2685   2.016   1.505   2.792 -0.6077 -0.0376 -0.0150
  896SOL     OW 2686   2.016   0.590   1.469  0.5645 -0.8722 -0.0533
  896SOL    HW1 2687   2.082   0.669   1.466  0.7423 -0.2892  1.2583
  896SOL    HW2 2688   2.027   0.543   1.376  3.4764 -0.8972 -1.1730
  897SOL     OW 2689   3.099   1.453   1.556 -0.5490  0.0442 -0.0354
  897SOL    HW1 2690   3.062   1.365   1.600 -0.5004 -1.2196 -0.5267
  897SOL    HW2 2691   0.016   1.435   1.462 -0.9953  0.1065  1.8498
  898SOL     OW 2692   2.034   2.362   2.006  0.2328 -0.6415 -0.4722
  898SOL    HW1 2693   2.082   2.370   1.913 -0.0494 -0.7525 -3.7860
  898SOL    HW2 2694   2.080   2.286   2.057  0.4457  0.0281 -1.5453
  899SOL     OW 2695   1.074   1.755   1.226  0.1185  0.8654 -0.1811
  899SOL    HW1 2696   1.156   1.809   1.236  1.0138 -2.2184  0.0045
  899SOL    HW2 2697   0.998   1.819   1.253 -1.2482  0.3110 -1.4890
  900SOL     OW 2698   1.451   2.428   2.455 -0.7619 -0.2474  0.2292
  900SOL    HW1 2699   1.493   2.356   2.397  0.0880  1.7444 -1.4663
  900SOL    HW2 2700   1.444   2.519   2.398 -2.8443  0.5432  0.0923
  901SOL     OW 2701   0.763   1.724   2.173 -0.0887 -0.2121  0.5422
  901SOL    HW1 2702   0.737   1.672   2.089  0.5501  0.5969  1.0195
  901SOL    HW2 2703   0.844   1.786   2.158  1.6247 -0.2492  1.0881
  902SOL     OW 2704   2.163   1.427   0.152 -0.1192  0.1934 -0.3941
  902SOL    HW1 2705   2.252   1.380   0.151  1.5051 -2.0375 -0.3633
  902SOL    HW2 2706   2.136   1.474   0.239 -2.6512  0.4043 -1.1183
  903SOL     OW 2707   1.972   1.548   0.005 -0.0168  0.0648  0.2295
  903SOL    HW1 2708   2.048   1.545   0.074 -2.5274  1.0006  1.2677
  903SOL    HW2 2709   1.932   1.643   3.115 -0.7651  0.0821 -0.6401
  904SOL     OW 2710   1.361   1.091   2.372 -0.5203  0.0301 -0.2947
  904SOL    HW1 2711   1.403   1.005   2.345 -1.1366  1.9841  2.6881
  904SOL    HW2 2712   1.259   1.090   2.353 -0.7482  1.6759  0.5728
  905SOL     OW 2713   2.607   0.321   0.968  0.4298 -0.0070 -0.3834
  905SOL    HW1 2714   2.551   0.276   1.041 -0.5173 -1.7467  0.4849
  905SOL    HW2 2715   2.590   0.419   0.958  0.0085 -2.3998 -1.5929
  906SOL     OW 2716   0.225   1.914   0.439 -0.0334  0.2278  0.0037
  906SOL    HW1 2717   0.261   2.007   0.419  0.2112  0.4609  0.4409
  906SOL    HW2 2718   0.266   1.835   0.387 -0.4901 -0.7343  0.7809
  907SOL     OW 2719   1.544   0.127   0.148 -0.4736 -0.3609  0.1434
  907SOL    HW1 2720   1.451   0.090   0.157  0.5994 -0.6035 -0.9871
  907SOL    HW2 2721   1.589   0.127   0.241  0.2629 -0.3544 -1.0945
  908SOL     OW 2722   1.525   2.758   1.718 -0.4476  0.2501 -0.3407
  908SOL    HW1 2723   1.567   2.733   1.808 -0.3294 -1.4235  2.1778
  908SOL    HW2 2724   1.488   2.852   1.715  0.9045 -0.7766 -0.2397
  909SOL     OW 2725   2.625   0.841   1.730 -0.0093  0.1750  0.4198
  909SOL    HW1 2726   2.585   0.758   1.681  1.4113 -2.4113 -2.1465
  909SOL    HW2 2727   2.627   0.819   1.832  0.1265 -0.6580 -1.7874
  910SOL     OW 2728   1.348   0.007   2.459 -0.1312 -0.2693  0.3180
  910SOL    HW1 2729   1.396   3.113   2.547 -1.6777  1.6330  0.3518
  910SOL    HW2 2730   1.296   3.037   2.449  1.6727  0.9426 -0.7438
  911SOL     OW 2731   2.606   1.377   2.616 -0.2783  0.2583  0.2134
  911SOL    HW1 2732   2.575   1.281   2.636 -1.3730 -1.4005  0.4336
  911SOL    HW2 2733   2.637   1.385   2.522 -1.3000 -1.3399  0.2296
  912SOL     OW 2734   2.425   2.048   1.467 -0.4155  0.7256 -0.3795
  912SOL    HW1 2735   2.493   2.088   1.526 -1.8076 -2.0525 -0.5049
  912SOL    HW2 2736   2.334   2.053   1.510  1.0791 -1.9325  0.5974
  913SOL     OW 2737   2.637   2.210   1.620  0.1128  0.2699 -0.3301
  913SOL    HW1 2738   2.544   2.235   1.653  0.1928  0.8033  0.4456
  913SOL    HW2 2739   2.706   2.205   1.698 -1.7985  2.6098  0.6616
  914SOL     OW 2740   2.466   2.025   1.177  0.0136 -0.2616 -0.1184
  914SOL    HW1 2741   2.467   1.977   1.270  1.5912 -1.7980  2.7612
  914SOL    HW2 2742   2.371   2.026   1.137 -0.6126 -1.6312 -1.8992
  915SOL     OW 2743   1.304   2.430   1.454 -0.1363 -0.6723  0.4641
  915SOL    HW1 2744   1.239   2.407   1.527 -1.4576 -2.4617  1.3831
  915SOL    HW2 2745   1.389   2.370   1.455  1.5129  0.5530  0.2169
  916SOL     OW 2746   2.828   2.568   1.116  0.1680 -0.6099  0.0455
  916SOL    HW1 2747   2.755   2.638   1.128 -1.2545 -1.0753 -0.9234
  916SOL    HW2 2748   2.789   2.483   1.157 -2.2823  0.0747 -3.2876
  917SOL     OW 2749   2.949   1.032   2.905  0.0073  0.8843  0.0755
  917SOL    HW1 2750   2.957   0.939   2.857 -1.1199 -1.8888  1.7805
  917SOL    HW2 2751   2.935   1.103   2.830 -0.2589  1.3258 -0.4939
  918SOL     OW 2752   1.864   1.775   2.737  0.0900  0.5468  0.2667
  918SOL    HW1 2753   1.807   1.778   2.820 -0.6644  0.8773 -1.3452
  918SOL    HW2 2754   1.946   1.715   2.753  0.0322 -2.9238 -0.3360
  919SOL     OW 2755   1.646   2.059   1.290 -0.4526 -0.1733 -0.0892
  919SOL    HW1 2756   1.660   1.959   1.280  0.9484 -0.3411  0.7413
  919SOL    HW2 2757   1.736   2.110   1.303 -1.2321  0.7673 -1.3408
  920SOL     OW 2758   0.585   0.213   2.927  0.2757 -0.2182 -0.1300
  920SOL    HW1 2759   0.563   0.116   2.900  0.1454 -0.0728  1.2532
  920SOL    HW2 2760   0.521   0.241   3.006  1.1271 -1.1078  1.2566
  921SOL     OW 2761   2.821   3.018   2.655  0.0802  0.0663 -0.6354
  921SOL    HW1 2762   2.795   2.970   2.571  0.1760 -1.8570 -0.0895
  921SOL    HW2 2763   2.902   3.082   2.637 -0.1587 -0.7031  1.4037
  922SOL     OW 2764   2.418   1.785   1.432  0.1518 -0.4887  0.4033
  922SOL    HW1 2765   2.395   1.739   1.519  1.7294  1.1197 -2.6168
  922SOL    HW2 2766   2.398   1.885   1.440  0.1784  1.7553  0.7643
  923SOL     OW 2767   0.789   2.018   2.834  0.1267 -0.2457  0.1362
  923SOL    HW1 2768   0.750   1.974   2.914 -0.3506  0.2563 -0.0636
  923SOL    HW2 2769   0.876   2.062   2.853 -0.6351  1.6905 -0.5137
  924SOL     OW 2770   1.629   0.687   2.647 -0.1895  0.2987 -0.2230
  924SOL    HW1 2771   1.646   0.635   2.737  1.1971 -1.1634  0.5617
  924SOL    HW2 2772   1.704   0.752   2.627 -0.1101  0.3525  0.9468
  925SOL     OW 2773   3.094   1.011   0.345 -0.0919  0.1296  0.2116
  925SOL    HW1 2774   3.057   1.087   0.291 -3.8329 -1.3347  2.3073
  925SOL    HW2 2775   3.021   0.959   0.392  2.4654 -0.1392 -0.2613
  926SOL     OW 2776   0.138   0.342   0.823 -0.0419  0.3041  0.2824
  926SOL    HW1 2777   0.183   0.254   0.792  0.4468 -0.8651  3.0157
  926SOL    HW2 2778   0.213   0.405   0.846 -0.6515  1.1085  1.9126
  927SOL     OW 2779   1.124   1.373   0.649  0.3435 -0.6001  0.6408
  927SOL    HW1 2780   1.192   1.294   0.650  0.5421  0.3568  2.4100
  927SOL    HW2 2781   1.041   1.343   0.703 -0.0404 -1.6089  0.9542
  928SOL     OW 2782   0.131   0.017   2.423  0.0774 -0.2238  0.3160
  928SOL    HW1 2783   0.201   3.057   2.435  1.5996 -1.1248  0.4205
  928SOL    HW2 2784   0.163   0.098   2.371 -1.1892 -1.8056  0.3968
  929SOL     OW 2785   2.509   0.616   1.574 -0.0369 -0.4248  0.4760
  929SOL    HW1 2786   2.411   0.612   1.606 -1.3666 -1.8982 -2.4239
  929SOL    HW2 2787   2.574   0.554   1.620  0.3269  3.4472 -0.6010
  930SOL     OW 2788   1.833   2.080   0.976 -0.0009 -0.0863  0.5518
  930SOL    HW1 2789   1.851   2.054   0.877  0.6675  2.1245 -1.7725
  930SOL    HW2 2790   1.779   2.011   1.026  2.6022 -1.4509  1.7017
  931SOL     OW 2791   1.775   0.783   0.776 -0.0677 -0.3409 -0.0323
  931SOL    HW1 2792   1.754   0.726   0.690  0.3986 -0.3866 -0.1433
  931SOL    HW2 2793   1.820   0.870   0.747 -1.3709  1.4152  1.1270
  932SOL     OW 2794   3.109   0.849   1.316 -0.8143 -0.6435  0.3266
  932SOL    HW1 2795   3.055   0.860   1.401  1.0841 -1.9152  1.4822
  932SOL    HW2 2796   0.046   0.763   1.322  1.7422 -2.6873 -1.1227
  933SOL     OW 2797   2.351   1.772   1.721  0.6807  0.1230 -0.0186
  933SOL    HW1 2798   2.443   1.813   1.748  2.5002  2.3051  0.4166
  933SOL    HW2 2799   2.275   1.812   1.776 -1.3991  2.4238  2.3760
  934SOL     OW 2800   1.679   0.002   1.196  0.6007 -0.7695  0.2916
  934SOL    HW1 2801   1.682   0.103   1.189  1.1578 -0.6533 -1.2875
  934SOL    HW2 2802   1.615   3.076   1.127  0.9536 -0.1760 -1.4517
  935SOL     OW 2803   0.103   1.090   1.205  0.1935 -0.3082 -0.1351
  935SOL    HW1 2804   0.074   1.018   1.269 -1.8989 -0.1165  0.7767
  935SOL    HW2 2805   0.035   1.096   1.131  0.9035  0.2116 -0.6258
  936SOL     OW 2806   2.899   0.755   1.129  0.0805 -0.3798  0.0358
  936SOL    HW1 2807   2.976   0.791   1.180 -0.5023 -0.6257 -2.2352
  936SOL    HW2 2808   2.906   0.759   1.029 -2.2679  1.3953  0.7647
  937SOL     OW 2809   1.133   2.953   0.933 -0.0347  0.4895  0.5940
  937SOL    HW1 2810   1.054   2.885   0.935  2.7576  0.6433  2.9641
  937SOL    HW2 2811   1.219   2.903   0.919  0.4111  3.8177  0.1116
  938SOL     OW 2812   3.077   2.476   0.607  0.0220 -0.2768  0.3435
  938SOL    HW1 2813   3.042   2.465   0.701 -1.5483  0.8965  0.2820
  938SOL    HW2 2814   0.011   2.564   0.598  0.6414 -1.8698  0.5573
  939SOL     OW 2815   0.640   1.788   2.553  0.0809  0.2135 -0.2035
  939SOL    HW1 2816   0.695   1.874   2.546  1.6728  0.2077  3.2602
  939SOL    HW2 2817   0.632   1.764   2.653  3.1503  2.0500 -2.1105
  940SOL     OW 2818   2.930   2.602   2.746  0.2158  0.1335  0.2362
  940SOL    HW1 2819   2.885   2.538   2.678  2.0797  0.4296 -2.5436
  940SOL    HW2 2820   2.861   2.654   2.797 -1.9487 -3.3228  1.1495
  941SOL     OW 2821   0.964   2.965   0.026  0.0944 -0.0078 -0.3384
  941SOL    HW1 2822   0.947   3.035   0.094 -1.0067 -0.3926  0.2401
  941SOL    HW2 2823   1.026   2.890   0.060  1.6943 -2.3125  0.7100
  942SOL     OW 2824   1.648   1.762   1.415 -0.5382  0.6926  0.0703
  942SOL    HW1 2825   1.587   1.683   1.389 -2.1112  1.7003  1.9502
  942SOL    HW2 2826   1.639   1.791   1.511 -0.1173 -2.8478  0.4341
  943SOL     OW 2827   2.199   1.345   1.675  0.3037 -0.5952 -0.1676
  943SOL    HW1 2828   2.233   1.274   1.606  0.1309  0.0208 -0.7344
  943SOL    HW2 2829   2.272   1.415   1.688  0.4469  2.1387  1.5060
  944SOL     OW 2830   1.892   1.190   2.079 -0.8737 -0.0170  0.2409
  944SOL    HW1 2831   1.860   1.218   1.982 -0.3347 -1.6311 -2.1101
  944SOL    HW2 2832   1.815   1.139   2.122 -2.7824 -1.0104 -0.9093
  945SOL     OW 2833   2.693   2.733   1.540 -0.4941  0.1365 -0.7923
  945SOL    HW1 2834   2.684   2.638   1.502  0.0988 -2.7499  1.8321
  945SOL    HW2 2835   2.793   2.755   1.549 -0.2718  3.1576 -1.9915
  946SOL     OW 2836   0.950   1.067   1.368  0.0471 -0.2370  0.2944
  946SOL    HW1 2837   0.895   1.153   1.369 -0.6620 -0.0177  0.1430
  946SOL    HW2 2838   1.031   1.081   1.428 -2.2231 -1.2253 -3.3691
  947SOL     OW 2839   0.415   2.631   0.812  0.1861 -0.1063  0.4208
  947SOL    HW1 2840   0.429   2.602   0.911  0.6635  1.2089 -0.6653
  947SOL    HW2 2841   0.369   2.563   0.756  0.0501  2.9943  2.6354
  948SOL     OW 2842   0.002   1.360   1.903 -0.0148  0.2881  0.6498
  948SOL    HW1 2843   0.027   1.323   1.992 -1.4349  0.1357 -0.7170
  948SOL    HW2 2844   0.074   1.421   1.862  1.9217  2.0336  0.4776
  949SOL     OW 2845   0.675   0.570   2.068 -0.2936  0.1779 -0.3131
  949SOL    HW1 2846   0.725   0.487   2.104  0.5424 -1.9941 -0.7451
  949SOL    HW2 2847   0.578   0.565   2.092 -0.6486  2.4871 -2.2529
  950SOL     OW 2848   0.688   0.586   0.962  0.1226 -0.1827 -0.7921
  950SOL    HW1 2849   0.622   0.662   0.983 -0.6436  3.5965 -0.5920
  950SOL    HW2 2850   0.747   0.613   0.882  0.1446  0.9608 -0.2787
  951SOL     OW 2851   1.345   1.689   2.004 -0.4975 -0.5783  0.5656
  951SOL    HW1 2852   1.379   1.774   2.048  0.5520  0.7253  2.7225
  951SOL    HW2 2853   1.290   1.721   1.923  2.1789  0.9719 -1.0296
  952SOL     OW 2854   1.271   1.382   0.047  0.5596 -0.4197  0.2652
  952SOL    HW1 2855   1.329   1.364   0.130 -0.6765  0.0125 -0.3691
  952SOL    HW2 2856   1.313   1.360   3.073 -1.7777  0.4093  0.8997
  953SOL     OW 2857   1.055   2.779   2.166 -0.3545 -0.4585 -0.0650
  953SOL    HW1 2858   0.992   2.851   2.148  0.0531 -0.4767 -0.6184
  953SOL    HW2 2859   1.016   2.709   2.231  0.2019  0.7125  1.0450
  954SOL     OW 2860   2.359   1.598   0.483  0.1696  0.5284 -0.4643
  954SOL    HW1 2861   2.423   1.584   0.561  2.6641 -2.8947 -2.0661
  954SOL    HW2 2862   2.413   1.640   0.407 -0.3724 -2.2367  1.3656
  955SOL     OW 2863   0.186   2.243   2.692  0.3541  0.5679  0.5646
  955SOL    HW1 2864   0.210   2.304   2.616 -0.0090 -1.3826  2.4075
  955SOL    HW2 2865   0.137   2.289   2.770  0.8265 -2.2613 -1.4771
  956SOL     OW 2866   0.777   1.568   1.266  0.8025 -0.1300  0.1571
  956SOL    HW1 2867   0.776   1.546   1.164  2.1334  3.6076 -2.5526
  956SOL    HW2 2868   0.795   1.669   1.287  1.0822  1.5580 -1.2250
  957SOL     OW 2869   2.076   1.692   2.532 -0.5533 -0.1363  0.5083
  957SOL    HW1 2870   1.996   1.707   2.466  2.2481  0.5373 -2.8739
  957SOL    HW2 2871   2.146   1.627   2.495 -1.5780 -3.9375 -0.3319
  958SOL     OW 2872   1.512   2.555   0.984 -0.4556 -0.3609 -0.2017
  958SOL    HW1 2873   1.574   2.476   0.966  3.8921 -1.6898  0.1928
  958SOL    HW2 2874   1.501   2.566   1.082 -0.9095  0.7538 -1.0934
  959SOL     OW 2875   1.658   1.887   2.391  0.0014 -0.2885 -0.1540
  959SOL    HW1 2876   1.685   1.804   2.437  3.7919  1.4527 -0.5932
  959SOL    HW2 2877   1.669   1.969   2.454  0.6256 -0.4475  2.3427
  960SOL     OW 2878   0.106   0.736   2.819  0.2470 -0.5744 -0.0129
  960SOL    HW1 2879   0.186   0.798   2.830  1.0336 -0.9168 -1.6876
  960SOL    HW2 2880   0.133   0.641   2.803  0.3958  1.1218 -0.3681
  961SOL     OW 2881   0.651   0.514   1.778 -0.2175 -0.4141  0.0684
  961SOL    HW1 2882   0.670   0.518   1.876  0.5586  1.0552 -2.4342
  961SOL    HW2 2883   0.574   0.569   1.755  3.5355 -1.2176  1.5114
  962SOL     OW 2884   1.361   1.805   0.363  0.1506  0.0619 -0.1328
  962SOL    HW1 2885   1.263   1.790   0.395 -3.5896 -1.0199  1.8816
  962SOL    HW2 2886   1.409   1.724   0.324  2.1015  2.4123  3.2936
  963SOL     OW 2887   1.510   2.329   3.020 -0.3651  0.1827 -0.3573
  963SOL    HW1 2888   1.575   2.388   2.972  1.3749 -2.1791  1.5672
  963SOL    HW2 2889   1.431   2.386   3.052  1.5507  1.9396  0.3737
  964SOL     OW 2890   1.035   2.491   0.425 -0.7075  0.6512  0.0947
  964SOL    HW1 2891   1.122   2.489   0.373  0.6165 -1.5007 -0.8130
  964SOL    HW2 2892   0.987   2.578   0.399  0.0031 -0.6444  0.2417
  965SOL     OW 2893   0.964   2.749   0.958  0.1311 -0.4786 -0.1049
  965SOL    HW1 2894   0.994   2.660   0.936  0.4749  0.9954 -1.4087
  965SOL    HW2 2895   0.903   2.756   1.039  1.1884  0.8207 -0.3810
  966SOL     OW 2896   0.027   1.171   3.068  0.1465  0.4145  0.2142
  966SOL    HW1 2897   0.078   1.218   2.990  0.3530 -0.5064 -2.9294
  966SOL    HW2 2898   3.060   1.125   3.034 -1.0154  0.0828 -1.4091
  967SOL     OW 2899   1.149   2.821   1.899 -0.5529  1.1767 -0.1799
  967SOL    HW1 2900   1.107   2.785   1.984  1.8649 -0.6903  0.8905
  967SOL    HW2 2901   1.187   2.751   1.837 -0.8022  2.3668 -1.0287
  968SOL     OW 2902   1.685   0.912   0.369  0.3957  0.7601  0.0587
  968SOL    HW1 2903   1.596   0.866   0.366  0.6001 -1.2848 -1.2165
  968SOL    HW2 2904   1.693   0.993   0.307  2.1950  2.3020  1.0309
  969SOL     OW 2905   0.098   1.738   2.188 -0.6171  0.3922 -0.2452
  969SOL    HW1 2906   0.125   1.741   2.090  0.2348 -0.7955  0.8654
  969SOL    HW2 2907   0.037   1.816   2.219  1.2031 -2.6357 -1.2635
  970SOL     OW 2908   2.638   1.520   1.572  0.0480  0.6189 -0.0045
  970SOL    HW1 2909   2.647   1.476   1.477 -1.2016 -1.1372 -1.4695
  970SOL    HW2 2910   2.730   1.556   1.613  1.3158 -1.5248  0.0999
  971SOL     OW 2911   1.423   0.612   1.580  0.4448 -0.2946 -0.6232
  971SOL    HW1 2912   1.518   0.580   1.602  0.1602  1.0890  1.9988
  971SOL    HW2 2913   1.395   0.703   1.630  0.7648  2.3003 -0.2398
  972SOL     OW 2914   0.462   3.101   2.529  0.0929 -0.1293 -0.3026
  972SOL    HW1 2915   0.452   3.019   2.589  2.4902  1.1988  0.2172
  972SOL    HW2 2916   0.495   0.065   2.589  1.3731  1.7245  2.2828
  973SOL     OW 2917   2.741   1.318   0.531  0.5459 -0.0174 -0.4695
  973SOL    HW1 2918   2.717   1.254   0.453  1.5930 -1.8243 -3.0476
  973SOL    HW2 2919   2.671   1.305   0.608 -1.1725 -0.5604 -1.1119
  974SOL     OW 2920   2.052   1.370   2.230 -0.0348 -0.2024  0.0204
  974SOL    HW1 2921   2.007   1.305   2.165  0.6022  0.7746 -1.5358
  974SOL    HW2 2922   2.020   1.464   2.213  1.2218 -0.3975 -1.4569
  975SOL     OW 2923   2.770   2.800   0.778 -0.4548  0.0808  0.3885
  975SOL    HW1 2924   2.805   2.809   0.680 -1.3252  1.2216  0.2000
  975SOL    HW2 2925   2.786   2.885   0.833 -1.7169 -0.7382  0.6440
  976SOL     OW 2926   0.126   1.746   1.910  0.4353 -0.4925  0.3557
  976SOL    HW1 2927   0.140   1.812   1.836 -1.0678 -0.3459 -3.0252
  976SOL    HW2 2928   0.032   1.761   1.950  0.2130  1.3357  0.9902
  977SOL     OW 2929   0.759   2.658   3.050 -0.6793 -0.7047  0.3809
  977SOL    HW1 2930   0.757   2.621   2.955 -1.1193  0.7682  2.1859
  977SOL    HW2 2931   0.824   2.606   3.112  2.6534 -0.2041  0.3226
  978SOL     OW 2932   0.795   2.011   2.559  0.1719  0.6059  0.0404
  978SOL    HW1 2933   0.775   2.024   2.657 -0.1429  2.2578 -4.4946
  978SOL    HW2 2934   0.799   2.094   2.503  0.4390 -1.8637 -1.0798
  979SOL     OW 2935   1.439   2.180   1.133  0.3248  0.2296  0.3453
  979SOL    HW1 2936   1.510   2.134   1.191  0.3442  0.3842  0.4372
  979SOL    HW2 2937   1.439   2.141   1.037  0.4842 -3.1780 -0.5754
  980SOL     OW 2938   0.451   1.380   2.794  0.0907  0.4298  0.1495
  980SOL    HW1 2939   0.436   1.424   2.703 -2.6828  2.8705 -1.9422
  980SOL    HW2 2940   0.554   1.364   2.810 -1.2107  1.8957  0.9981
  981SOL     OW 2941   2.703   0.359   2.639  0.5344 -0.1977  0.2203
  981SOL    HW1 2942   2.641   0.330   2.563 -0.7851 -0.5486 -2.3522
  981SOL    HW2 2943   2.674   0.309   2.727 -0.8853 -1.1649  1.4635
  982SOL     OW 2944   0.057   2.722   2.747 -0.4889  0.5333 -0.2950
  982SOL    HW1 2945   0.088   2.714   2.654 -1.6184 -3.4372  1.7223
  982SOL    HW2 2946   3.079   2.683   2.747  1.6149 -0.4075  1.0665
  983SOL     OW 2947   2.308   0.874   1.867  0.7661  0.0214  0.0186
  983SOL    HW1 2948   2.290   0.973   1.864 -3.1604 -0.2603  1.1225
  983SOL    HW2 2949   2.402   0.858   1.898 -1.9169  0.8313 -0.3235
  984SOL     OW 2950   1.257   0.155   2.259 -0.3052  0.0335 -0.4307
  984SOL    HW1 2951   1.326   0.229   2.253  3.3025  3.1082  1.8500
  984SOL    HW2 2952   1.279   0.091   2.331 -1.0720  1.3000 -2.1718
  985SOL     OW 2953   1.524   2.198   2.313  0.6575 -0.6299 -0.3424
  985SOL    HW1 2954   1.429   2.158   2.288 -2.7590  0.3087 -0.2194
  985SOL    HW2 2955   1.580   2.205   2.236 -1.2028  0.2844  5.3321
  986SOL     OW 2956   2.220   0.535   2.263  0.3968 -0.1050 -0.3590
  986SOL    HW1 2957   2.231   0.614   2.202 -0.2805 -2.4908 -0.0424
  986SOL    HW2 2958   2.159   0.552   2.347 -0.5359 -0.9196 -0.3680
  987SOL     OW 2959   2.480   0.493   2.368  0.2027 -0.2058 -0.4404
  987SOL    HW1 2960   2.388   0.496   2.319  0.0854  1.2389 -1.3139
  987SOL    HW2 2961   2.510   0.398   2.394  1.0585 -0.0718  1.3706
  988SOL     OW 2962   2.339   0.627   2.733  0.2580  0.0006  0.0256
  988SOL    HW1 2963   2.439   0.604   2.719  1.7376  0.0380 -0.7106
  988SOL    HW2 2964   2.328   0.728   2.721  0.4960 -1.5374  0.6559
  989SOL     OW 2965   2.557   2.542   2.788  0.7017 -0.1101  0.0516
  989SOL    HW1 2966   2.500   2.453   2.779 -0.3223 -4.6661  2.8449
  989SOL    HW2 2967   2.608   2.560   2.699  2.8903  1.0002  1.1020
  990SOL     OW 2968   0.402   0.571   0.154  0.5314  0.4704  0.0852
  990SOL    HW1 2969   0.383   0.598   0.250  0.7537 -0.6594  1.6883
  990SOL    HW2 2970   0.340   0.629   0.094 -1.3963  1.2487 -1.9705
  991SOL     OW 2971   0.578   0.515   2.949 -0.3576  0.2151 -0.1469
  991SOL    HW1 2972   0.531   0.426   2.977 -1.9593  0.1416 -0.8769
  991SOL    HW2 2973   0.681   0.499   2.931 -0.8084 -0.2657  1.6940
  992SOL     OW 2974   3.083   1.979   2.216 -0.5307 -0.2814 -0.5007
  992SOL    HW1 2975   3.045   2.035   2.292  1.4529 -1.5046  0.8904
  992SOL    HW2 2976   0.060   2.012   2.184  0.7573  0.8019 -0.9750
  993SOL     OW 2977   0.602   3.066   0.514  0.2214  0.0703 -0.2543
  993SOL    HW1 2978   0.503   3.073   0.528 -0.7492  0.9870  0.8425
  993SOL    HW2 2979   0.660   3.102   0.591 -0.3108 -2.0657 -0.2926
  994SOL     OW 2980   0.216   2.214   1.686 -0.1046 -0.1111  0.1323
  994SOL    HW1 2981   0.293   2.214   1.757  2.2472 -0.8563 -1.2933
  994SOL    HW2 2982   0.246   2.262   1.603 -0.6025 -1.3302 -1.7764
  995SOL     OW 2983   2.194   1.831   0.113  0.2647  0.7199 -0.2620
  995SOL    HW1 2984   2.122   1.874   0.168  0.1528 -2.0382 -1.1097
  995SOL    HW2 2985   2.193   1.730   0.122 -1.4407 -0.3803  0.7180
  996SOL     OW 2986   1.470   1.443   2.706  0.0815 -0.4993 -0.2569
  996SOL    HW1 2987   1.400   1.483   2.647  1.5954 -1.8358 -2.3111
  996SOL    HW2 2988   1.530   1.386   2.648  0.0179  2.6831  3.0154
  997SOL     OW 2989   1.778   1.537   2.094  0.0944  0.0418 -0.3088
  997SOL    HW1 2990   1.765   1.611   2.027 -0.0777  2.2648  0.7428
  997SOL    HW2 2991   1.769   1.444   2.053 -2.0085  1.0564 -0.6970
  998SOL     OW 2992   2.696   1.743   0.411 -0.3125  0.0321 -0.8599
  998SOL    HW1 2993   2.689   1.817   0.482  0.3732 -0.3676 -1.7057
  998SOL    HW2 2994   2.626   1.762   0.339 -0.8825 -2.5089  2.9873
  999SOL     OW 2995   2.350   2.805   0.376  0.6187  0.7119  0.5329
  999SOL    HW1 2996   2.407   2.727   0.339 -0.2171  0.0743 -2.4263
  999SOL    HW2 2997   2.310   2.859   0.302 -1.2521 -0.7773  2.1661
 1000SOL     OW 2998   0.639   2.874   2.241  0.0124 -0.4266  0.0180
 1000SOL    HW1 2999   0.559   2.814   2.218 -2.3507 -0.5655  0.2733
 1000SOL    HW2 3000   0.714   2.881   2.168  3.3420  0.3600  1.0150
   3.11557   3.11557   3.11557
