1000 SPC/Fw water molecules t= 146.00000 step= 146000
 3000
    1SOL     OW    1   2.393   2.726   0.787 -0.1147 -0.5818  0.1161
    1SOL    HW1    2   2.494   2.737   0.778  0.7415 -2.8821 -0.9908
    1SOL    HW2    3   2.367   2.630   0.754  0.5652 -0.7492 -2.2133
    2SOL     OW    4   1.662   1.838   2.271  0.1038 -0.2680  0.3773
    2SOL    HW1    5   1.762   1.861   2.276  0.3771  2.1945  0.5283
    2SOL    HW2    6   1.613   1.866   2.350  3.5042 -3.9974 -1.9571
    3SOL     OW    7   1.774   2.547   2.190 -0.2937  0.2925  0.1501
    3SOL    HW1    8   1.762   2.638   2.238 -0.4568  0.8105  1.0949
    3SOL    HW2    9   1.868   2.505   2.204  1.9119  0.1286  1.2590
    4SOL     OW   10   1.717   2.619   1.943 -0.2795 -0.0990  0.1788
    4SOL    HW1   11   1.745   2.603   2.039  1.7826 -1.0214  0.5388
    4SOL    HW2   12   1.741   2.537   1.886  0.8975 -1.6915  1.0139
    5SOL     OW   13   0.490   0.626   1.310  0.5314  0.3172  0.1803
    5SOL    HW1   14   0.576   0.585   1.276  0.1313 -0.3035  2.6697
    5SOL    HW2   15   0.416   0.554   1.333 -0.2878 -2.8703 -0.0151
    6SOL     OW   16   2.513   0.989   2.820 -0.2436  0.3024  0.0599
    6SOL    HW1   17   2.507   0.924   2.898 -0.7552 -3.3707 -0.1090
    6SOL    HW2   18   2.514   0.943   2.728  2.8544  0.1434  0.1619
    7SOL     OW   19   0.702   0.535   1.146  0.0991  0.3673 -0.1202
    7SOL    HW1   20   0.681   0.439   1.117 -0.1060  1.1505  3.9037
    7SOL    HW2   21   0.672   0.602   1.076  1.7887 -1.2825  1.1002
    8SOL     OW   22   1.090   2.399   1.439 -0.2842 -0.0814  0.4618
    8SOL    HW1   23   0.987   2.383   1.449  1.7139 -1.1774  0.1939
    8SOL    HW2   24   1.149   2.359   1.510  1.5891 -1.7676  1.5445
    9SOL     OW   25   0.665   1.075   0.398  0.3495  0.4565  0.2044
    9SOL    HW1   26   0.661   1.107   0.302 -0.6782  1.1662  0.9940
    9SOL    HW2   27   0.570   1.074   0.439  0.9155  0.8935 -0.3204
   10SOL     OW   28   0.757   2.401   2.762  0.4445  0.1587  0.0360
   10SOL    HW1   29   0.677   2.445   2.719  1.3539  0.9100  0.6135
   10SOL    HW2   30   0.830   2.472   2.775 -3.9237  1.2110 -1.9168
   11SOL     OW   31   0.149   1.650   0.086  0.0748 -0.5787 -0.5403
   11SOL    HW1   32   0.070   1.716   0.099 -4.6238  2.0355  0.0224
   11SOL    HW2   33   0.183   1.660   3.066  1.8430  2.4138 -2.8582
   12SOL     OW   34   0.473   3.031   1.284  0.0892 -0.2639  0.5038
   12SOL    HW1   35   0.373   3.025   1.268 -0.8039  1.2535  0.7715
   12SOL    HW2   36   0.496   0.052   1.307  2.5785 -0.4965 -2.2119
   13SOL     OW   37   0.828   2.707   0.264 -0.4362 -0.4371 -0.2412
   13SOL    HW1   38   0.802   2.617   0.305  2.3988 -2.0332  0.4976
   13SOL    HW2   39   0.828   2.702   0.167 -1.3849  2.0838  2.1644
   14SOL     OW   40   1.419   1.746   0.991 -0.2120 -0.3122  0.1139
   14SOL    HW1   41   1.503   1.789   0.957 -1.9460  0.0818  0.3098
   14SOL    HW2   42   1.388   1.779   1.083 -2.1260 -1.1327  0.7368
   15SOL     OW   43   2.583   0.821   2.259  0.7147 -0.4884  0.1940
   15SOL    HW1   44   2.588   0.743   2.324 -2.9428 -0.7306 -1.0073
   15SOL    HW2   45   2.528   0.899   2.298 -2.7297  2.0947  1.5178
   16SOL     OW   46   1.633   2.998   2.917  0.1345 -0.1321 -0.3591
   16SOL    HW1   47   1.635   2.958   3.012  1.1176  0.4412  0.6665
   16SOL    HW2   48   1.720   3.044   2.890  0.2153 -0.9096  1.5703
   17SOL     OW   49   0.628   2.535   2.019  0.0379 -0.2047 -0.2301
   17SOL    HW1   50   0.681   2.596   2.082 -0.9048  2.5207 -0.3979
   17SOL    HW2   51   0.583   2.591   1.951 -1.3049  0.6490  1.4146
   18SOL     OW   52   1.744   1.078   0.161 -0.3913 -0.2738  0.4856
   18SOL    HW1   53   1.702   1.082   0.065 -0.9331 -1.8403 -0.0173
   18SOL    HW2   54   1.824   1.143   0.161  0.6571  0.4430  1.0065
   19SOL     OW   55   2.406   2.249   2.761 -0.1779  0.2187  0.2411
   19SOL    HW1   56   2.401   2.205   2.849 -2.1375 -0.9321 -0.0649
   19SOL    HW2   57   2.463   2.199   2.695 -1.7568 -1.9932  1.2847
   20SOL     OW   58   2.068   1.717   2.427 -0.8749  0.3160  0.1671
   20SOL    HW1   59   2.069   1.630   2.369 -0.9670 -0.4138 -2.2410
   20SOL    HW2   60   1.998   1.697   2.496  0.2294 -0.4619  0.0623
   21SOL     OW   61   0.414   2.110   2.928  0.2034 -0.0162 -0.1919
   21SOL    HW1   62   0.381   2.135   3.024 -0.5193 -0.1766  1.9739
   21SOL    HW2   63   0.357   2.030   2.898  0.8843 -0.2207  1.1664
   22SOL     OW   64   2.164   2.876   1.442  0.0798 -0.0832 -0.6705
   22SOL    HW1   65   2.220   2.838   1.526  2.5451 -0.7663  1.7476
   22SOL    HW2   66   2.211   2.961   1.401 -0.3405  2.7276 -3.3574
   23SOL     OW   67   0.022   1.279   1.559 -0.1879 -0.0100  0.0311
   23SOL    HW1   68   0.099   1.323   1.613  0.0457  1.5484 -0.5229
   23SOL    HW2   69   0.049   1.242   1.467  0.3997 -1.3171 -0.9543
   24SOL     OW   70   2.379   1.935   1.745 -0.2519 -0.1707 -0.2827
   24SOL    HW1   71   2.397   1.837   1.750 -1.6341 -1.2606  0.6555
   24SOL    HW2   72   2.343   1.965   1.656  0.0634  1.6801  1.8427
   25SOL     OW   73   2.056   2.892   2.704  0.2101  0.1191  0.3450
   25SOL    HW1   74   2.154   2.863   2.700 -0.3606  2.9230 -0.4163
   25SOL    HW2   75   1.998   2.818   2.653 -3.2941 -1.0895  1.5959
   26SOL     OW   76   1.048   2.971   0.518  0.3002 -0.3024 -0.2115
   26SOL    HW1   77   1.140   2.929   0.530  0.6219  2.3721  2.2657
   26SOL    HW2   78   1.062   3.067   0.546 -0.3834 -2.1771 -0.0739
   27SOL     OW   79   1.037   1.917   3.016 -0.5490 -0.0994  0.0743
   27SOL    HW1   80   1.034   1.951   0.033  0.4833 -1.2994 -1.1196
   27SOL    HW2   81   0.942   1.902   2.985 -0.0438  0.1696  0.3989
   28SOL     OW   82   3.035   1.850   1.449 -0.1423 -0.2664  0.3597
   28SOL    HW1   83   0.050   1.875   1.413 -0.8312  0.4892  3.4601
   28SOL    HW2   84   2.962   1.918   1.429 -2.7024 -1.4208  1.3593
   29SOL     OW   85   2.373   2.214   2.181 -0.3568  0.5623  0.5981
   29SOL    HW1   86   2.384   2.314   2.201 -3.0255 -0.1896  1.2234
   29SOL    HW2   87   2.359   2.159   2.266  2.1894  1.5476  1.0003
   30SOL     OW   88   0.987   2.708   1.174  0.0139 -0.3173  0.2987
   30SOL    HW1   89   0.991   2.800   1.220 -0.4575  2.9478  0.5694
   30SOL    HW2   90   0.962   2.719   1.074  0.1009 -0.6658 -3.6612
   31SOL     OW   91   2.948   2.098   2.046 -0.3397 -0.1313 -0.1757
   31SOL    HW1   92   2.886   2.029   2.007  0.1477  1.7479 -0.3090
   31SOL    HW2   93   3.044   2.083   2.030 -1.6798 -0.8535  1.1262
   32SOL     OW   94   1.181   1.047   2.081  0.2093  0.2053  0.0735
   32SOL    HW1   95   1.156   1.105   1.999  0.4314  1.2772 -1.7259
   32SOL    HW2   96   1.223   1.095   2.159 -1.7966 -4.1458 -1.1881
   33SOL     OW   97   0.438   2.993   2.569 -0.3639 -0.0703  0.6375
   33SOL    HW1   98   0.341   2.973   2.589  0.6027  2.8543  0.7807
   33SOL    HW2   99   0.492   2.915   2.591  0.4328  3.9728  1.4771
   34SOL     OW  100   1.568   0.024   1.412  0.1914 -0.4348  0.2491
   34SOL    HW1  101   1.609   3.005   1.393  0.6000 -3.4733 -0.1258
   34SOL    HW2  102   1.585   0.090   1.336  0.2938  2.2035  0.8532
   35SOL     OW  103   2.054   0.506   0.918  0.0306 -0.3577  0.0852
   35SOL    HW1  104   2.038   0.424   0.857  1.6774 -0.6828  0.1064
   35SOL    HW2  105   1.970   0.550   0.943  1.7826  0.8836  0.5990
   36SOL     OW  106   1.982   2.803   2.310  0.0154 -0.1188  0.0524
   36SOL    HW1  107   2.086   2.806   2.320  2.8112  0.2806  0.1962
   36SOL    HW2  108   1.948   2.817   2.210 -1.3428  0.2375  0.3156
   37SOL     OW  109   1.401   2.585   2.401  0.2110 -0.6691  0.6815
   37SOL    HW1  110   1.307   2.604   2.429  2.6242  0.0382 -0.7736
   37SOL    HW2  111   1.403   2.509   2.331  1.1341 -0.2702 -2.4417
   38SOL     OW  112   2.516   0.584   2.784 -0.3173  0.1885 -0.0865
   38SOL    HW1  113   2.481   0.620   2.873 -0.1810  0.3067 -1.4737
   38SOL    HW2  114   2.567   0.495   2.797 -0.7719 -2.0668  0.6646
   39SOL     OW  115   1.811   2.129   2.352 -0.1306  0.3856  0.0110
   39SOL    HW1  116   1.768   2.091   2.434  0.7442 -0.5291  0.1427
   39SOL    HW2  117   1.860   2.058   2.296  2.4777 -1.3067 -2.1912
   40SOL     OW  118   0.336   0.177   2.992 -0.1817 -0.3628 -0.4653
   40SOL    HW1  119   0.394   0.203   2.911  1.8888 -0.4464 -0.5405
   40SOL    HW2  120   0.313   0.076   2.988  0.0219 -0.2044  2.2629
   41SOL     OW  121   1.436   0.808   1.577  0.1942 -0.2381 -0.0058
   41SOL    HW1  122   1.444   0.909   1.554 -3.3512 -0.6108  0.9154
   41SOL    HW2  123   1.346   0.765   1.541  0.6585 -1.1578  0.3570
   42SOL     OW  124   0.331   0.296   1.569 -0.4390 -0.6238 -0.5919
   42SOL    HW1  125   0.289   0.205   1.561  1.3317  0.5978  2.4233
   42SOL    HW2  126   0.433   0.292   1.574  2.5458  1.1634 -2.2904
   43SOL     OW  127   1.670   0.874   2.041  0.7926 -0.4953 -0.3895
   43SOL    HW1  128   1.670   0.977   2.060 -1.2114  0.2066 -2.7335
   43SOL    HW2  129   1.766   0.833   2.024  0.7677  0.7247  1.9930
   44SOL     OW  130   0.054   2.820   2.414 -0.1173 -0.1701  0.6214
   44SOL    HW1  131   0.107   2.855   2.494 -1.0515 -1.9552  0.4114
   44SOL    HW2  132   3.066   2.896   2.382 -0.1338  3.1726 -1.5971
   45SOL     OW  133   0.201   2.431   1.139 -0.3501  0.1119  0.1571
   45SOL    HW1  134   0.228   2.534   1.147 -0.5291  1.0890 -0.2511
   45SOL    HW2  135   0.248   2.396   1.054  0.2567  0.5477  0.1256
   46SOL     OW  136   2.290   2.238   1.923  0.0294 -0.2283  0.0311
   46SOL    HW1  137   2.198   2.287   1.928 -1.5168 -0.1021  0.3320
   46SOL    HW2  138   2.337   2.239   2.011 -1.0561 -0.5647  2.8533
   47SOL     OW  139   1.760   1.949   1.559 -0.3228  0.2303  0.6790
   47SOL    HW1  140   1.739   1.957   1.659 -1.1396  1.0599  0.2617
   47SOL    HW2  141   1.787   1.850   1.537 -1.8882  0.0140 -0.1269
   48SOL     OW  142   0.423   1.884   0.502  0.5177  0.0104  0.3763
   48SOL    HW1  143   0.398   1.788   0.525  0.5213  0.2005 -0.7862
   48SOL    HW2  144   0.497   1.913   0.563 -3.0211 -0.1690 -1.1426
   49SOL     OW  145   2.946   0.660   1.991 -0.6562  0.3454  0.0199
   49SOL    HW1  146   3.012   0.628   2.066  1.2907 -0.6137  1.4833
   49SOL    HW2  147   2.880   0.724   2.033  0.9541  1.4452 -0.0349
   50SOL     OW  148   2.292   0.575   0.812  0.3896 -0.5941  0.3230
   50SOL    HW1  149   2.210   0.536   0.856  3.9684 -0.4592  0.1627
   50SOL    HW2  150   2.353   0.641   0.869 -0.5042 -0.7236  4.0296
   51SOL     OW  151   1.275   0.546   0.833 -0.1460 -0.0672 -0.3978
   51SOL    HW1  152   1.184   0.572   0.871 -0.8649 -2.4478 -0.4089
   51SOL    HW2  153   1.354   0.577   0.895  3.0074  2.1332  0.8639
   52SOL     OW  154   1.228   1.132   0.133 -0.2822  0.2077  0.0439
   52SOL    HW1  155   1.310   1.113   0.073 -0.8383  2.1757  0.0485
   52SOL    HW2  156   1.246   1.112   0.231  0.6094  0.1593 -1.7533
   53SOL     OW  157   1.094   2.211   2.541 -0.0713 -0.2688 -0.0647
   53SOL    HW1  158   0.996   2.190   2.548  2.6232  0.5191 -1.4518
   53SOL    HW2  159   1.123   2.275   2.614  0.1445 -0.2010 -1.9753
   54SOL     OW  160   1.655   0.751   1.720 -0.7160 -0.0837 -0.1426
   54SOL    HW1  161   1.697   0.679   1.659  0.0156  1.4130 -0.7743
   54SOL    HW2  162   1.572   0.780   1.677  1.3058 -0.9709  0.2308
   55SOL     OW  163   1.938   2.863   0.688 -0.1420  0.6469  0.4571
   55SOL    HW1  164   1.975   2.816   0.608 -2.0830  0.3032 -0.0853
   55SOL    HW2  165   1.855   2.818   0.725 -1.5983 -0.7382  1.9751
   56SOL     OW  166   0.764   2.587   1.269  0.4563 -0.0416  0.2460
   56SOL    HW1  167   0.847   2.624   1.222 -0.2976 -1.1394 -0.0324
   56SOL    HW2  168   0.705   2.664   1.298 -0.3761  0.2939  0.3299
   57SOL     OW  169   2.082   1.020   0.099  0.1476 -0.7789  0.2705
   57SOL    HW1  170   2.175   1.043   0.142  1.6441  0.9951 -0.5871
   57SOL    HW2  171   2.016   1.093   0.122 -1.3532 -2.2673 -0.2121
   58SOL     OW  172   3.073   1.174   2.170  0.1274 -0.1039 -0.7393
   58SOL    HW1  173   0.021   1.224   2.258  1.4798  1.2381  3.6035
   58SOL    HW2  174   3.041   1.236   2.095 -0.8193 -0.7316  0.2228
   59SOL     OW  175   0.944   2.384   2.297  0.5100 -0.6291  0.2408
   59SOL    HW1  176   1.014   2.428   2.354  0.3903  0.8320 -0.7792
   59SOL    HW2  177   0.876   2.325   2.348 -3.1238 -2.6460  4.9047
   60SOL     OW  178   2.518   2.542   1.093  0.0179  0.5203  0.3666
   60SOL    HW1  179   2.416   2.557   1.088  2.9737  1.8827 -0.2728
   60SOL    HW2  180   2.565   2.591   1.016  0.5074  0.6870  0.3429
   61SOL     OW  181   1.408   1.805   0.402 -0.3363 -0.2734 -0.0161
   61SOL    HW1  182   1.343   1.737   0.442  1.9788 -0.3422 -2.1690
   61SOL    HW2  183   1.444   1.874   0.476 -4.2616 -0.5214  0.8246
   62SOL     OW  184   2.141   2.733   2.959  0.1111 -0.3579 -0.1940
   62SOL    HW1  185   2.197   2.752   3.045 -2.1457  2.2106  1.8731
   62SOL    HW2  186   2.153   2.809   2.890  1.0368 -0.3397  1.2044
   63SOL     OW  187   1.853   0.258   0.376  0.0862  0.0487 -0.0757
   63SOL    HW1  188   1.923   0.305   0.431 -0.3306  0.4501  1.4061
   63SOL    HW2  189   1.795   0.320   0.324  1.7574  2.7239  2.5754
   64SOL     OW  190   0.830   1.096   2.494  0.4527  0.6603 -0.2195
   64SOL    HW1  191   0.876   1.127   2.411 -1.0128 -1.2696  0.1392
   64SOL    HW2  192   0.795   1.002   2.473 -0.6980  0.4181 -1.0046
   65SOL     OW  193   1.166   2.314   0.611  0.6989  0.1891  0.0854
   65SOL    HW1  194   1.245   2.356   0.661  0.0587 -0.3932  1.8911
   65SOL    HW2  195   1.186   2.209   0.609 -0.9328 -1.0677 -0.6378
   66SOL     OW  196   0.604   1.337   1.704  0.3855  0.4620  0.5146
   66SOL    HW1  197   0.674   1.312   1.773  1.0923  0.0839 -1.1718
   66SOL    HW2  198   0.551   1.417   1.730  1.3053  0.4368 -1.8804
   67SOL     OW  199   2.487   0.297   2.329 -0.0043  0.2398  0.4972
   67SOL    HW1  200   2.494   0.247   2.241 -1.4533 -0.8227  1.0047
   67SOL    HW2  201   2.585   0.327   2.351  2.9985 -1.7504  2.0681
   68SOL     OW  202   0.875   0.835   1.422  0.3697 -0.0517  0.3445
   68SOL    HW1  203   0.863   0.736   1.416  2.1014  1.1435  1.0673
   68SOL    HW2  204   0.825   0.867   1.506  2.3618 -1.5469  0.4786
   69SOL     OW  205   1.738   2.810   0.414 -0.5192 -0.3196  0.4044
   69SOL    HW1  206   1.725   2.909   0.389  0.8893 -0.6813  2.1141
   69SOL    HW2  207   1.838   2.789   0.420  1.3942 -1.0918  0.4543
   70SOL     OW  208   3.001   0.928   2.313  0.2303 -0.0743  0.1705
   70SOL    HW1  209   2.942   0.888   2.241  1.1852 -0.1848 -2.4469
   70SOL    HW2  210   3.026   1.019   2.280 -1.0114 -3.2758 -1.6821
   71SOL     OW  211   2.871   1.580   0.019  0.3409 -0.3809  0.2087
   71SOL    HW1  212   2.822   1.496   3.059 -4.5968 -1.9242 -2.6161
   71SOL    HW2  213   2.881   1.654   3.024  0.0515  1.4402  1.2107
   72SOL     OW  214   0.033   1.614   0.415 -0.0639 -0.6415 -0.3550
   72SOL    HW1  215   0.115   1.609   0.476  1.6599  2.3534 -1.2910
   72SOL    HW2  216   3.047   1.678   0.464  0.7559 -3.1671  1.2260
   73SOL     OW  217   0.869   1.339   0.702  0.6822  0.3840 -0.2394
   73SOL    HW1  218   0.927   1.261   0.732 -2.1311 -2.1181  1.2823
   73SOL    HW2  219   0.878   1.349   0.597 -1.9722 -0.6872 -3.6855
   74SOL     OW  220   0.298   1.852   1.979  0.4126  0.3527 -0.1157
   74SOL    HW1  221   0.274   1.776   2.046 -1.6631 -3.2913 -1.8375
   74SOL    HW2  222   0.376   1.828   1.920  1.2084  1.4394 -0.4554
   75SOL     OW  223   1.604   1.460   1.725  0.0915 -0.3167  0.0887
   75SOL    HW1  224   1.530   1.398   1.698  2.6042  1.4939  0.2962
   75SOL    HW2  225   1.629   1.462   1.827 -0.7081  1.3321  5.2229
   76SOL     OW  226   2.088   2.614   1.441 -0.2045 -0.1884  0.1603
   76SOL    HW1  227   2.181   2.565   1.436  0.6204  1.0416 -1.3228
   76SOL    HW2  228   2.095   2.716   1.438  0.4520  1.3021  1.3087
   77SOL     OW  229   2.610   1.339   1.365 -0.0461  0.6396  0.3245
   77SOL    HW1  230   2.710   1.335   1.389  4.2384 -1.6902  0.9068
   77SOL    HW2  231   2.568   1.246   1.354 -1.9631 -1.1419 -2.1233
   78SOL     OW  232   1.432   0.903   0.408  0.0067 -0.5593  1.4604
   78SOL    HW1  233   1.364   0.979   0.417 -0.4803  1.9674  1.0528
   78SOL    HW2  234   1.446   0.849   0.492 -0.0082  0.0943 -0.0652
   79SOL     OW  235   2.441   1.521   1.431 -0.1650 -0.2717 -0.3633
   79SOL    HW1  236   2.376   1.524   1.359  1.0156  0.3461  1.0302
   79SOL    HW2  237   2.511   1.447   1.417  0.9813  0.5998  0.1465
   80SOL     OW  238   0.808   0.556   1.398 -0.2005  0.1994  0.2158
   80SOL    HW1  239   0.770   0.563   1.305 -1.7167  1.1860 -0.9364
   80SOL    HW2  240   0.865   0.473   1.415 -2.5413  2.8398  1.5589
   81SOL     OW  241   0.988   3.003   0.849  0.4414 -0.2592  0.7895
   81SOL    HW1  242   1.066   3.015   0.781  2.6007 -0.7169  1.2775
   81SOL    HW2  243   0.985   0.009   0.904  1.9922 -1.6967 -1.6062
   82SOL     OW  244   1.406   3.049   1.652 -0.3873 -0.3498  0.3140
   82SOL    HW1  245   1.457   3.074   1.567  3.4889  1.0825  1.1920
   82SOL    HW2  246   1.328   2.987   1.635 -0.6810 -0.6027 -1.4960
   83SOL     OW  247   1.231   2.039   0.651  0.1411 -0.2551 -0.1172
   83SOL    HW1  248   1.214   2.024   0.750  0.9036  0.0981 -1.3239
   83SOL    HW2  249   1.179   1.968   0.601 -0.6691  1.1819 -1.7887
   84SOL     OW  250   0.199   1.633   2.872 -0.4404  0.1626 -0.1563
   84SOL    HW1  251   0.122   1.571   2.832 -0.0797 -1.5060 -0.9284
   84SOL    HW2  252   0.289   1.600   2.838 -0.7992  1.9728 -0.9707
   85SOL     OW  253   0.127   2.175   1.084 -0.7772 -0.1281  0.2360
   85SOL    HW1  254   0.032   2.143   1.116 -1.8321  0.0421  0.4224
   85SOL    HW2  255   0.137   2.273   1.101 -1.8678 -1.1959 -1.0417
   86SOL     OW  256   2.349   2.464   1.462 -0.4114 -0.1848 -0.6230
   86SOL    HW1  257   2.337   2.503   1.553 -1.8437 -2.6426  0.2554
   86SOL    HW2  258   2.331   2.362   1.469 -2.1205 -2.1205  1.4321
   87SOL     OW  259   0.102   1.826   0.759  0.4778 -0.2903  0.2289
   87SOL    HW1  260   0.150   1.746   0.792  0.3732  0.6229 -0.5087
   87SOL    HW2  261   0.142   1.905   0.804  1.3787 -1.0572 -1.8684
   88SOL     OW  262   0.991   1.194   1.351 -0.8413 -0.2848  0.3375
   88SOL    HW1  263   0.923   1.267   1.332 -1.2344  1.8748  0.7292
   88SOL    HW2  264   0.979   1.117   1.284 -0.3686  1.0010 -3.2860
   89SOL     OW  265   0.985   2.827   2.133  0.9557  0.2277 -0.3981
   89SOL    HW1  266   1.008   2.927   2.125  0.1230  0.7882  1.0212
   89SOL    HW2  267   1.070   2.773   2.142 -1.6251 -2.2053 -0.7886
   90SOL     OW  268   0.170   2.092   1.520  0.2324 -0.2042  0.5530
   90SOL    HW1  269   0.105   2.058   1.592  2.4915  1.4013 -0.1652
   90SOL    HW2  270   0.263   2.112   1.560 -3.6461 -0.2717 -1.2846
   91SOL     OW  271   1.399   1.828   1.598  0.3711 -0.1165 -0.5622
   91SOL    HW1  272   1.408   1.781   1.689  2.8571 -0.3532  2.3865
   91SOL    HW2  273   1.440   1.773   1.523 -0.2060  0.9168  3.6708
   92SOL     OW  274   2.302   2.772   1.655 -0.4792  0.5485  0.5169
   92SOL    HW1  275   2.349   2.682   1.670 -2.2333 -2.3453  0.2566
   92SOL    HW2  276   2.359   2.848   1.682 -0.5531 -0.2331  0.3245
   93SOL     OW  277   2.989   1.293   2.667 -0.0834  0.0750 -0.1823
   93SOL    HW1  278   3.049   1.278   2.587  0.9335 -0.4751  0.3582
   93SOL    HW2  279   2.911   1.233   2.648  2.3394 -1.7282 -1.9274
   94SOL     OW  280   2.568   2.834   2.137 -0.0042  0.3655 -0.1796
   94SOL    HW1  281   2.616   2.784   2.210  0.0759 -0.1720  2.6473
   94SOL    HW2  282   2.597   2.799   2.050  0.2808 -1.2812  0.3849
   95SOL     OW  283   1.317   0.602   1.900 -0.7917  0.6774 -0.1332
   95SOL    HW1  284   1.415   0.585   1.916 -1.3475  1.1340 -0.8035
   95SOL    HW2  285   1.283   0.693   1.936 -0.2412  0.1163  1.5127
   96SOL     OW  286   2.539   0.642   1.537 -0.5407 -0.0097 -0.2603
   96SOL    HW1  287   2.576   0.649   1.440  1.7009 -0.4535 -1.7963
   96SOL    HW2  288   2.495   0.550   1.554 -0.3077 -2.6309  2.6722
   97SOL     OW  289   2.119   0.360   1.605 -0.7162 -0.5544 -0.3018
   97SOL    HW1  290   2.049   0.364   1.682  0.5638  0.0323  1.2948
   97SOL    HW2  291   2.081   0.337   1.514  0.1352 -0.8288  0.5831
   98SOL     OW  292   1.679   2.841   1.328 -0.0636 -0.2832  0.3750
   98SOL    HW1  293   1.777   2.873   1.316  3.3428 -0.2603 -0.0587
   98SOL    HW2  294   1.664   2.751   1.368  0.2610 -0.5766 -0.6091
   99SOL     OW  295   2.650   0.299   1.714 -0.1240  0.0853 -0.3643
   99SOL    HW1  296   2.661   0.314   1.612  0.5192  2.3825  1.0304
   99SOL    HW2  297   2.720   0.363   1.757 -0.0112  0.4164 -1.6581
  100SOL     OW  298   2.713   1.460   1.867 -0.0372 -0.2582 -0.0246
  100SOL    HW1  299   2.722   1.468   1.969 -0.3643 -0.5184 -0.2372
  100SOL    HW2  300   2.615   1.461   1.845  1.9356 -1.4812  2.0322
  101SOL     OW  301   1.446   0.442   0.675 -0.6412  0.3462 -0.4534
  101SOL    HW1  302   1.533   0.425   0.732 -3.1116 -0.8780  1.8405
  101SOL    HW2  303   1.371   0.482   0.736  0.7822  0.9415 -0.7647
  102SOL     OW  304   0.629   1.041   1.289  0.4432  0.4203 -0.3616
  102SOL    HW1  305   0.558   1.113   1.282  1.1386 -1.0842  0.4735
  102SOL    HW2  306   0.598   0.964   1.353  1.4558 -0.4903  3.1994
  103SOL     OW  307   2.804   0.425   0.044 -0.1050  0.4955  0.2402
  103SOL    HW1  308   2.885   0.451   3.066  0.6356 -1.8082 -0.7417
  103SOL    HW2  309   2.768   0.495   0.110 -1.6335  1.5594  1.3966
  104SOL     OW  310   2.739   0.033   1.738  0.1800  0.6076  0.1463
  104SOL    HW1  311   2.819   0.054   1.681 -0.6611  0.6424  1.8534
  104SOL    HW2  312   2.679   0.118   1.745 -0.7603 -1.6219  3.5171
  105SOL     OW  313   1.903   0.721   2.069 -0.4166 -0.3152 -0.6204
  105SOL    HW1  314   1.983   0.675   2.033  1.0391  4.1631  0.9019
  105SOL    HW2  315   1.875   0.707   2.171 -0.9628  1.3527 -0.6411
  106SOL     OW  316   1.665   0.155   0.922  0.0566  0.3161  0.1989
  106SOL    HW1  317   1.659   0.086   0.848 -0.8849  0.7236 -0.7398
  106SOL    HW2  318   1.570   0.186   0.936 -0.1020 -0.4486  0.2701
  107SOL     OW  319   0.551   1.069   0.886 -0.4485  0.1435  0.4630
  107SOL    HW1  320   0.580   0.998   0.820 -2.6317 -0.5864 -0.2307
  107SOL    HW2  321   0.462   1.037   0.926  2.0246  1.2786  0.5009
  108SOL     OW  322   2.779   0.334   2.081 -0.3863 -0.4426  0.1467
  108SOL    HW1  323   2.825   0.380   2.002  1.9192  1.6959 -0.2757
  108SOL    HW2  324   2.792   0.232   2.082  0.3594  1.8271  0.2686
  109SOL     OW  325   2.317   0.808   0.225 -0.1124 -0.1641 -0.5451
  109SOL    HW1  326   2.356   0.898   0.214 -2.3017 -2.9212 -1.4697
  109SOL    HW2  327   2.362   0.756   0.295 -1.5977 -1.8176 -2.4017
  110SOL     OW  328   0.254   2.314   2.567 -0.7969 -0.7293 -0.4846
  110SOL    HW1  329   0.251   2.391   2.499  1.4635  1.0506 -1.6707
  110SOL    HW2  330   0.161   2.304   2.615 -1.0043 -1.4708 -0.1806
  111SOL     OW  331   2.027   0.036   2.172 -0.4969  0.2770  0.8936
  111SOL    HW1  332   2.077   0.109   2.117 -1.5208  0.8419 -0.0817
  111SOL    HW2  333   1.928   0.057   2.179  0.2475 -1.1196  1.8324
  112SOL     OW  334   2.248   2.746   0.350  0.0056 -0.0155 -0.2683
  112SOL    HW1  335   2.265   2.762   0.251  1.6611 -1.0686  0.8681
  112SOL    HW2  336   2.338   2.747   0.398 -2.3613 -1.9612 -0.2486
  113SOL     OW  337   2.274   2.003   1.492 -0.0241 -0.1204  0.0607
  113SOL    HW1  338   2.353   1.986   1.427  0.1115 -1.5141 -1.4873
  113SOL    HW2  339   2.288   2.089   1.549 -0.9482 -0.5387 -1.7201
  114SOL     OW  340   2.646   0.967   0.945 -0.1070  0.0679  0.3676
  114SOL    HW1  341   2.565   0.996   0.886 -0.2568 -0.9280  1.2850
  114SOL    HW2  342   2.710   0.917   0.884 -0.1431  1.8480 -0.1408
  115SOL     OW  343   2.958   1.774   0.197  0.2753 -0.0750  0.0613
  115SOL    HW1  344   3.035   1.726   0.242 -1.8474 -3.3087  0.2911
  115SOL    HW2  345   2.919   1.714   0.125  1.6218  2.4148  0.5231
  116SOL     OW  346   0.122   1.473   1.953 -0.0822 -0.8462  0.1939
  116SOL    HW1  347   0.053   1.401   1.968  2.5500  1.0047 -0.0378
  116SOL    HW2  348   0.152   1.525   2.038 -0.1637  2.8277 -0.7297
  117SOL     OW  349   2.493   0.002   0.404 -0.5708  1.0104 -0.4896
  117SOL    HW1  350   2.440   0.011   0.495 -2.0582  0.3183  1.9139
  117SOL    HW2  351   2.422   0.008   0.330 -1.4598  0.9787  0.6586
  118SOL     OW  352   0.421   2.202   1.622 -0.7843  0.4183 -0.2715
  118SOL    HW1  353   0.460   2.270   1.692 -0.2332 -1.1826  3.1233
  118SOL    HW2  354   0.409   2.247   1.531  1.5353  0.5704 -2.0585
  119SOL     OW  355   1.661   1.868   0.985 -0.0518 -0.4745 -0.1345
  119SOL    HW1  356   1.693   1.782   0.941 -0.9143 -3.1097  1.5400
  119SOL    HW2  357   1.688   1.865   1.086 -3.8132 -0.6121  1.8323
  120SOL     OW  358   0.260   1.754   2.403  0.2615  0.6730  0.3066
  120SOL    HW1  359   0.353   1.752   2.444 -2.5568 -0.0335 -1.2468
  120SOL    HW2  360   0.218   1.848   2.407 -1.5079  0.4903 -0.1483
  121SOL     OW  361   2.843   2.024   1.422  0.1959  0.0302  0.0858
  121SOL    HW1  362   2.763   2.080   1.389  0.4722  0.7697  1.6999
  121SOL    HW2  363   2.823   1.981   1.508  0.4477  2.1555 -2.4282
  122SOL     OW  364   2.178   1.242   2.353 -0.1545 -0.0902  0.3262
  122SOL    HW1  365   2.237   1.239   2.269  2.9483 -0.3460 -1.2606
  122SOL    HW2  366   2.234   1.256   2.434 -0.7311 -1.2440 -1.5853
  123SOL     OW  367   0.018   3.043   0.720  0.5120  0.2857  0.6879
  123SOL    HW1  368   3.008   3.009   0.761 -1.3881  1.2604  1.2594
  123SOL    HW2  369   0.091   2.969   0.702 -2.4755 -2.4839 -0.5054
  124SOL     OW  370   1.581   1.011   2.743 -0.2773 -0.2838 -0.1389
  124SOL    HW1  371   1.667   1.023   2.693 -3.8377  0.2988  3.1238
  124SOL    HW2  372   1.506   1.004   2.678 -1.3257  0.9096 -2.4909
  125SOL     OW  373   0.474   1.564   2.783  0.6957 -0.1512 -0.7474
  125SOL    HW1  374   0.531   1.607   2.863  3.6376  1.5224  1.7036
  125SOL    HW2  375   0.457   1.466   2.809  1.2181 -0.2712  1.8701
  126SOL     OW  376   2.824   2.005   0.163 -0.0250 -0.2825 -0.0823
  126SOL    HW1  377   2.883   2.070   0.220 -0.6088 -1.2525  0.0800
  126SOL    HW2  378   2.857   1.912   0.174 -1.5827  3.9060 -4.4757
  127SOL     OW  379   0.728   1.560   1.099  0.4194 -0.2235 -0.4105
  127SOL    HW1  380   0.794   1.563   1.020 -0.3684 -3.6698 -1.7155
  127SOL    HW2  381   0.633   1.542   1.067 -0.4619 -0.3593  1.0327
  128SOL     OW  382   1.240   0.723   0.340  0.3760  0.1063 -0.0843
  128SOL    HW1  383   1.310   0.796   0.349 -1.2873 -0.0932 -2.9161
  128SOL    HW2  384   1.278   0.634   0.363  0.0334  2.7562  1.5510
  129SOL     OW  385   2.338   1.828   1.116  0.3253  0.1128  0.2453
  129SOL    HW1  386   2.261   1.850   1.052  3.2186 -0.2153 -2.5614
  129SOL    HW2  387   2.418   1.785   1.067  1.7652  2.1005 -3.2981
  130SOL     OW  388   2.011   1.632   0.936  0.6155 -0.1505 -0.0834
  130SOL    HW1  389   2.109   1.605   0.928  0.7770  1.2985 -0.7793
  130SOL    HW2  390   1.964   1.563   0.995  1.2805  2.0760 -0.6815
  131SOL     OW  391   0.014   0.951   2.763  0.0937 -0.2313  0.1337
  131SOL    HW1  392   0.041   0.983   2.856 -0.5971 -0.2861  2.6079
  131SOL    HW2  393   0.101   0.944   2.706  0.6266  1.5898  2.4828
  132SOL     OW  394   2.517   1.762   2.081  0.3632 -0.2563  0.2264
  132SOL    HW1  395   2.525   1.863   2.076  0.5961 -2.6656 -3.0651
  132SOL    HW2  396   2.500   1.723   1.990  0.1650 -1.8865 -1.7695
  133SOL     OW  397   3.033   1.053   0.048  0.1226 -0.2576 -0.1555
  133SOL    HW1  398   3.067   1.065   0.144  1.9636  0.2084 -1.4350
  133SOL    HW2  399   3.033   1.134   3.069 -2.7441 -2.7246  2.1037
  134SOL     OW  400   0.304   1.268   0.061  0.0420 -0.3527 -0.0931
  134SOL    HW1  401   0.313   1.186   0.116 -1.2921  3.6147 -3.2002
  134SOL    HW2  402   0.209   1.305   0.074  0.9678  0.4231 -1.8112
  135SOL     OW  403   2.183   1.464   0.641 -0.4971 -0.3470  0.0054
  135SOL    HW1  404   2.225   1.510   0.724 -3.4763 -1.7636 -0.9399
  135SOL    HW2  405   2.224   1.500   0.554  1.4708 -1.3357 -1.4980
  136SOL     OW  406   2.006   1.484   1.351  0.3895 -0.3154  0.2900
  136SOL    HW1  407   1.964   1.470   1.259 -1.3355 -1.0193  0.1270
  136SOL    HW2  408   2.101   1.516   1.338  1.0150  0.3762  1.2193
  137SOL     OW  409   2.567   2.094   0.802 -0.3089  0.5454 -0.5530
  137SOL    HW1  410   2.474   2.086   0.837  1.8001 -1.5743  1.0336
  137SOL    HW2  411   2.569   2.124   0.704  2.5570 -1.1414 -1.0400
  138SOL     OW  412   1.305   0.155   1.335  0.0800 -0.0906  0.6012
  138SOL    HW1  413   1.293   0.051   1.329  0.8468 -1.7361  0.0711
  138SOL    HW2  414   1.297   0.186   1.428 -3.4647 -1.9729 -2.2698
  139SOL     OW  415   2.388   0.066   0.135  0.3709 -0.4119  0.2631
  139SOL    HW1  416   2.340   0.046   0.046 -1.4915 -0.6269  0.3382
  139SOL    HW2  417   2.485   0.077   0.109 -1.5616 -1.4817 -1.3409
  140SOL     OW  418   1.407   2.175   2.776  0.2427  0.3149 -0.9233
  140SOL    HW1  419   1.380   2.090   2.726 -3.0195  0.2229  0.7328
  140SOL    HW2  420   1.495   2.153   2.823  0.8846  1.0774  1.1356
  141SOL     OW  421   0.727   0.933   1.652 -0.3084 -0.1650  0.0358
  141SOL    HW1  422   0.638   0.979   1.671 -0.4131 -2.3819 -3.0972
  141SOL    HW2  423   0.768   0.890   1.734  1.6695 -1.1079 -0.0782
  142SOL     OW  424   2.640   3.017   0.084  0.1379  0.1074 -0.5720
  142SOL    HW1  425   2.660   0.043   0.091  1.1518  3.4480 -2.5142
  142SOL    HW2  426   2.719   2.968   0.037 -2.5852  0.5482  0.1021
  143SOL     OW  427   0.696   2.161   2.926 -0.7202  0.3596  0.7895
  143SOL    HW1  428   0.714   2.245   2.871 -0.2092  1.5714 -1.5143
  143SOL    HW2  429   0.598   2.145   2.940  1.8923  2.1679 -1.1047
  144SOL     OW  430   1.149   2.602   2.921  0.0810 -0.6060  0.1348
  144SOL    HW1  431   1.220   2.672   2.936  0.7822  0.1219 -0.8714
  144SOL    HW2  432   1.120   2.562   3.013 -1.6357  0.3910  1.0115
  145SOL     OW  433   2.467   1.792   0.042 -0.0580 -0.1847  0.5374
  145SOL    HW1  434   2.524   1.867   3.070  0.5365  2.5950 -1.0228
  145SOL    HW2  435   2.375   1.780   3.074  0.9536 -0.7670  0.8544
  146SOL     OW  436   2.790   2.671   3.020  0.2142 -0.0358  0.3541
  146SOL    HW1  437   2.821   2.759   2.971 -1.4733  3.1271  0.4081
  146SOL    HW2  438   2.868   2.609   3.045  1.2071 -3.1712 -1.7547
  147SOL     OW  439   2.650   2.185   1.334 -0.1897 -0.2046  0.1337
  147SOL    HW1  440   2.671   2.258   1.400  0.9852 -0.1110  3.2999
  147SOL    HW2  441   2.629   2.230   1.246 -0.4682 -0.5583  1.8621
  148SOL     OW  442   1.707   0.365   0.155 -0.0364  0.2434 -0.5285
  148SOL    HW1  443   1.741   0.422   0.080  1.0068  0.3484  0.6384
  148SOL    HW2  444   1.647   0.288   0.122  1.5148  1.1296  2.5483
  149SOL     OW  445   1.077   1.357   2.618 -0.3876  0.5899  0.3105
  149SOL    HW1  446   1.092   1.287   2.687  0.6450 -0.5402 -1.4128
  149SOL    HW2  447   0.986   1.403   2.634 -1.7349 -1.4705  0.1734
  150SOL     OW  448   0.741   2.490   0.413 -0.1232 -0.1270  0.1627
  150SOL    HW1  449   0.727   2.391   0.403 -1.5727 -0.0133  0.1042
  150SOL    HW2  450   0.710   2.523   0.502  0.0559 -0.5621 -0.4421
  151SOL     OW  451   0.620   1.630   3.001 -0.3895  0.1110  0.2552
  151SOL    HW1  452   0.632   1.539   3.041  2.1253  2.4221 -2.5914
  151SOL    HW2  453   0.701   1.663   2.954 -2.0840 -1.6966 -5.4711
  152SOL     OW  454   2.801   1.273   0.474  0.2457 -0.4567  1.0864
  152SOL    HW1  455   2.801   1.349   0.543 -0.8253 -0.5753  0.2163
  152SOL    HW2  456   2.792   1.182   0.521  0.8071 -1.3768 -0.4349
  153SOL     OW  457   2.473   2.495   0.482  0.4319  0.4563  0.0110
  153SOL    HW1  458   2.406   2.498   0.562 -0.3000 -2.8894  0.5794
  153SOL    HW2  459   2.497   2.585   0.443  0.6844  1.0319  0.1144
  154SOL     OW  460   0.661   3.043   0.901 -0.2987 -0.4178  0.3202
  154SOL    HW1  461   0.588   0.007   0.848  1.7753 -0.1699  1.2036
  154SOL    HW2  462   0.756   3.061   0.860  1.6729 -2.2276 -0.5361
  155SOL     OW  463   0.264   2.020   0.910  0.2625  0.3198 -0.0350
  155SOL    HW1  464   0.302   2.088   0.847 -2.1549  1.0981  1.7785
  155SOL    HW2  465   0.211   2.059   0.986 -0.4934 -0.1967  1.2134
  156SOL     OW  466   2.641   2.386   0.073  0.3528  0.6719 -0.2371
  156SOL    HW1  467   2.668   2.326   3.073  2.1225 -0.5096 -0.5276
  156SOL    HW2  468   2.725   2.412   0.124 -0.5817  1.6928 -1.0116
  157SOL     OW  469   1.027   2.039   1.418  0.4611  0.1585 -0.3090
  157SOL    HW1  470   0.930   2.069   1.440 -1.9570  0.0154 -0.6278
  157SOL    HW2  471   1.055   1.960   1.477 -1.6841  3.1969  0.2048
  158SOL     OW  472   1.828   0.541   3.076 -0.1074 -0.6705  0.6612
  158SOL    HW1  473   1.873   0.503   2.989 -1.1159  2.0401  0.7282
  158SOL    HW2  474   1.886   0.619   0.033  1.5136 -1.1049 -0.4451
  159SOL     OW  475   0.979   0.285   2.839  0.4585  0.4116  0.0994
  159SOL    HW1  476   0.919   0.363   2.866 -1.0847 -0.7584  2.2213
  159SOL    HW2  477   1.052   0.315   2.773 -0.8878  0.2100 -2.4338
  160SOL     OW  478   1.313   1.466   0.139 -0.6459  0.4854  0.7527
  160SOL    HW1  479   1.273   1.563   0.134 -2.1587  0.1733 -0.9977
  160SOL    HW2  480   1.245   1.409   0.181  1.2628  3.0492  0.8547
  161SOL     OW  481   3.071   2.214   2.942  0.1333 -0.1930  0.1538
  161SOL    HW1  482   0.021   2.210   2.845 -1.3533 -0.7122 -0.5668
  161SOL    HW2  483   0.002   2.118   2.979  1.6548  3.0821 -2.9956
  162SOL     OW  484   0.684   2.626   0.990  0.1955 -0.6140  0.3336
  162SOL    HW1  485   0.776   2.668   0.988  0.8055  0.8592 -2.5845
  162SOL    HW2  486   0.622   2.688   1.041  3.4821 -0.9940  2.6764
  163SOL     OW  487   2.669   1.138   2.999  0.4960 -0.4135  0.1249
  163SOL    HW1  488   2.623   1.091   2.920  0.8344 -1.5124  0.4777
  163SOL    HW2  489   2.747   1.077   3.027 -0.1851 -0.7434 -4.0417
  164SOL     OW  490   0.112   2.781   2.855 -0.3565  0.1268  0.6731
  164SOL    HW1  491   0.121   2.730   2.945  0.5622 -0.9549 -0.9275
  164SOL    HW2  492   0.033   2.739   2.805  3.5369  1.6176  3.3522
  165SOL     OW  493   2.145   0.223   1.209 -0.0260 -0.0219 -0.5045
  165SOL    HW1  494   2.175   0.320   1.193 -1.4959  0.8362 -1.2349
  165SOL    HW2  495   2.105   0.185   1.124 -0.5850  0.2901  1.2050
  166SOL     OW  496   1.960   0.288   1.400  0.6879 -0.2617  0.0241
  166SOL    HW1  497   1.873   0.252   1.435  1.9762 -1.2209  0.0369
  166SOL    HW2  498   1.994   0.228   1.328  0.7715  0.0779 -0.4333
  167SOL     OW  499   0.951   0.286   1.965 -0.8446 -0.1284 -0.4070
  167SOL    HW1  500   0.851   0.292   1.960  0.2056  1.6530  2.5038
  167SOL    HW2  501   0.975   0.323   2.057 -0.7238  2.0013  0.7407
  168SOL     OW  502   2.423   0.429   1.851 -0.4772 -0.4915  0.7876
  168SOL    HW1  503   2.478   0.359   1.904  2.4307 -0.9899  0.9516
  168SOL    HW2  504   2.329   0.438   1.886 -0.3908 -1.5993 -0.7451
  169SOL     OW  505   0.549   1.404   0.166  0.0440 -0.1917 -0.5315
  169SOL    HW1  506   0.519   1.486   0.219 -0.3933  3.0404 -1.6368
  169SOL    HW2  507   0.466   1.347   0.143  1.3653 -0.7364 -0.5549
  170SOL     OW  508   0.235   1.386   1.739 -0.3766  0.2733  0.2718
  170SOL    HW1  509   0.265   1.285   1.751  0.3277 -3.0907 -1.2453
  170SOL    HW2  510   0.179   1.420   1.818  2.7820 -0.3936 -0.2267
  171SOL     OW  511   1.343   2.111   1.996 -0.1349  0.1689  0.2459
  171SOL    HW1  512   1.312   2.205   1.977  1.5102  0.1191  0.8191
  171SOL    HW2  513   1.293   2.047   1.932 -1.3823 -0.7984 -2.3795
  172SOL     OW  514   0.415   2.375   1.408  0.1807 -0.0068  0.5603
  172SOL    HW1  515   0.385   2.473   1.418 -0.3769  2.3046 -0.7907
  172SOL    HW2  516   0.484   2.365   1.327  1.2946  1.0881 -2.6447
  173SOL     OW  517   1.199   2.741   0.800 -0.7518  0.2766 -0.2016
  173SOL    HW1  518   1.244   2.760   0.707 -0.5940  0.6414 -2.5484
  173SOL    HW2  519   1.138   2.657   0.793 -1.8940 -1.6501  0.9307
  174SOL     OW  520   1.232   2.885   0.157 -0.7153 -0.7633 -0.0008
  174SOL    HW1  521   1.323   2.896   0.196  0.5432  3.4132 -1.0470
  174SOL    HW2  522   1.188   2.818   0.219  0.6830 -0.7536 -1.6974
  175SOL     OW  523   0.949   1.058   2.732  0.1956 -0.0201  1.0391
  175SOL    HW1  524   0.900   1.113   2.800 -1.1179 -0.4281  1.8597
  175SOL    HW2  525   0.897   1.058   2.644  1.8207  1.0377  1.4589
  176SOL     OW  526   1.638   0.819   0.254 -0.3651 -0.4723 -0.3059
  176SOL    HW1  527   1.685   0.906   0.227 -0.5911 -0.0507 -2.2587
  176SOL    HW2  528   1.562   0.847   0.315 -0.1446 -0.0131 -1.1927
  177SOL     OW  529   1.371   0.856   0.876  0.1706 -0.1583  0.4295
  177SOL    HW1  530   1.268   0.850   0.895 -0.8113  0.6304 -1.6590
  177SOL    HW2  531   1.410   0.911   0.951 -1.2599 -1.2128 -0.2599
  178SOL     OW  532   2.713   1.583   2.734 -0.5521 -0.3283 -0.3339
  178SOL    HW1  533   2.730   1.525   2.815  0.8127 -0.1979 -1.4110
  178SOL    HW2  534   2.714   1.539   2.645  0.5958 -0.7411  1.9863
  179SOL     OW  535   0.806   2.659   3.056  0.2794  0.1866 -0.1286
  179SOL    HW1  536   0.847   2.638   2.964  1.2244  1.4498  1.1656
  179SOL    HW2  537   0.793   2.570   0.029 -0.0312  1.6727 -1.2917
  180SOL     OW  538   1.853   1.399   1.605  0.2117  0.0775  0.0851
  180SOL    HW1  539   1.904   1.414   1.518  3.8636  0.0770  1.0879
  180SOL    HW2  540   1.756   1.397   1.606  1.8058 -0.6547 -0.3651
  181SOL     OW  541   0.947   1.183   2.227  0.1519  0.0166  0.1777
  181SOL    HW1  542   0.952   1.121   2.144 -0.9887 -0.8295 -1.2397
  181SOL    HW2  543   1.028   1.167   2.284 -0.5342  0.8283 -1.9167
  182SOL     OW  544   0.057   0.756   2.463 -0.1676  0.3623 -0.1169
  182SOL    HW1  545   0.131   0.811   2.512  1.7756 -0.7202  0.6971
  182SOL    HW2  546   3.076   0.820   2.404  0.3675  1.8424 -0.5817
  183SOL     OW  547   1.217   0.142   2.419  0.2218  0.1978 -0.2137
  183SOL    HW1  548   1.305   0.141   2.362  0.0078  0.1131 -0.4836
  183SOL    HW2  549   1.180   0.050   2.442 -2.1497  1.7720  1.3711
  184SOL     OW  550   3.050   0.457   1.401 -0.2229 -0.9947 -0.8158
  184SOL    HW1  551   2.996   0.501   1.328 -0.7468 -2.1165  0.1600
  184SOL    HW2  552   3.017   0.365   1.406  1.2963  3.2703 -0.8017
  185SOL     OW  553   2.517   1.652   0.998  0.0550  0.5972 -0.9172
  185SOL    HW1  554   2.593   1.707   0.957 -0.4116 -1.0408 -3.1790
  185SOL    HW2  555   2.545   1.553   1.014  0.1268 -0.5924  1.8340
  186SOL     OW  556   0.375   2.024   2.585  0.6438 -0.2325 -0.2428
  186SOL    HW1  557   0.455   1.972   2.545  1.9487  3.1343 -1.0354
  186SOL    HW2  558   0.359   2.109   2.534 -0.5093 -0.3671  0.8899
  187SOL     OW  559   2.609   1.956   2.959 -0.0549 -0.6136  0.1175
  187SOL    HW1  560   2.698   1.986   2.990 -0.0055 -0.0416 -0.9709
  187SOL    HW2  561   2.537   2.033   2.973 -2.6727  1.4753  0.5506
  188SOL     OW  562   0.720   2.216   0.365 -0.0435  0.0455  0.7149
  188SOL    HW1  563   0.791   2.149   0.396  2.3070 -1.8492 -0.8880
  188SOL    HW2  564   0.652   2.155   0.321  4.4638 -0.5751  0.3797
  189SOL     OW  565   2.311   1.086   0.216 -0.2130 -0.5060 -0.0527
  189SOL    HW1  566   2.297   1.132   0.309  0.0996  0.2510  2.9077
  189SOL    HW2  567   2.359   1.153   0.155  1.4333  0.8991 -2.4970
  190SOL     OW  568   0.901   1.844   2.181 -0.8465 -0.3168 -0.0222
  190SOL    HW1  569   0.848   1.915   2.130 -0.1194  1.6068 -1.7213
  190SOL    HW2  570   0.950   1.787   2.112  0.8405  1.1626  0.6325
  191SOL     OW  571   2.376   0.433   1.586  0.4365  0.2962 -0.3014
  191SOL    HW1  572   2.409   0.422   1.683  1.2546 -0.6981  0.9916
  191SOL    HW2  573   2.281   0.398   1.575  0.7412  0.0083  1.8000
  192SOL     OW  574   2.009   0.028   1.860  0.0022  0.2841  0.0300
  192SOL    HW1  575   1.991   0.124   1.874 -0.8469 -0.8400 -0.2840
  192SOL    HW2  576   1.938   3.069   1.796  0.2991  0.7720 -1.2293
  193SOL     OW  577   0.115   0.743   0.835  0.6787 -0.5645  0.2170
  193SOL    HW1  578   0.099   0.805   0.919  0.1834  1.8860  0.0825
  193SOL    HW2  579   0.072   0.649   0.847  0.9614 -0.5759 -2.1784
  194SOL     OW  580   1.449   2.555   1.636 -0.4405 -0.3659  0.2787
  194SOL    HW1  581   1.475   2.456   1.620  1.1606 -1.1723  1.7535
  194SOL    HW2  582   1.406   2.563   1.730 -0.0307 -0.1405  1.1086
  195SOL     OW  583   2.574   0.608   1.060  0.5394 -0.3322  0.0396
  195SOL    HW1  584   2.601   0.577   0.962 -0.1595  0.2365 -0.2744
  195SOL    HW2  585   2.492   0.669   1.046 -1.2715 -1.2655 -0.3803
  196SOL     OW  586   1.615   2.127   2.000  0.3172 -0.1224 -0.0278
  196SOL    HW1  587   1.646   2.208   2.058 -3.1978 -1.0869  1.7226
  196SOL    HW2  588   1.510   2.122   2.007 -0.5417 -0.5717 -0.9647
  197SOL     OW  589   0.258   3.005   2.964 -0.3550  0.0013 -0.2651
  197SOL    HW1  590   0.176   2.966   2.918 -2.1758  3.9122  1.7410
  197SOL    HW2  591   0.246   2.997   3.069  2.1204 -0.7157  1.3428
  198SOL     OW  592   1.024   1.153   0.758  0.2667  0.3320 -0.0081
  198SOL    HW1  593   1.120   1.150   0.731 -0.2446 -2.0944  1.0740
  198SOL    HW2  594   0.987   1.066   0.724  2.4358  2.1791  0.9768
  199SOL     OW  595   2.316   0.841   1.703  0.2222  0.5752 -0.2856
  199SOL    HW1  596   2.378   0.872   1.637 -0.1333 -1.9474  2.6772
  199SOL    HW2  597   2.266   0.918   1.753 -0.0604  0.2625 -1.0108
  200SOL     OW  598   2.245   2.577   2.427 -0.3343 -0.1838  0.2114
  200SOL    HW1  599   2.253   2.670   2.383 -1.3679  1.8608  0.2617
  200SOL    HW2  600   2.283   2.588   2.525 -0.9348  0.5578  2.5102
  201SOL     OW  601   2.513   0.096   1.278  0.2732  0.3799  0.2093
  201SOL    HW1  602   2.561   0.007   1.296  0.9532 -1.4820  0.1607
  201SOL    HW2  603   2.498   0.099   1.176 -0.0982 -2.5416 -0.9930
  202SOL     OW  604   2.006   0.097   0.219  0.2491  0.0725 -0.7353
  202SOL    HW1  605   2.088   0.043   0.251 -2.2311  1.5268 -2.4448
  202SOL    HW2  606   1.963   0.158   0.293 -0.3281  1.6053 -0.1167
  203SOL     OW  607   1.372   1.876   2.167  0.3228 -0.1928 -0.4763
  203SOL    HW1  608   1.367   1.948   2.093  0.6585 -2.2929  0.5282
  203SOL    HW2  609   1.444   1.896   2.234  0.3874 -1.5603 -1.3682
  204SOL     OW  610   0.795   1.502   2.624 -0.0936 -0.1604 -0.1398
  204SOL    HW1  611   0.753   1.409   2.621 -1.1571  1.8152 -0.9840
  204SOL    HW2  612   0.818   1.530   2.526  0.1262 -0.0040 -2.4140
  205SOL     OW  613   1.009   1.710   1.446  0.5521  0.0019 -0.0437
  205SOL    HW1  614   1.033   1.653   1.365 -1.9804 -0.7177  0.6885
  205SOL    HW2  615   0.910   1.719   1.457  0.0511 -0.8912 -0.1115
  206SOL     OW  616   2.991   0.512   2.919 -0.0884  0.4357 -0.1256
  206SOL    HW1  617   3.009   0.565   2.835 -0.0104 -0.3748  0.0610
  206SOL    HW2  618   2.984   0.407   2.903  0.3297 -1.9216 -0.4419
  207SOL     OW  619   1.717   2.783   2.316 -0.8560  0.4870  0.2795
  207SOL    HW1  620   1.817   2.801   2.316  1.0648  0.0761  0.6544
  207SOL    HW2  621   1.668   2.833   2.244  0.4951 -1.3354  0.3455
  208SOL     OW  622   0.584   2.380   1.184  0.3442 -0.1454  0.2766
  208SOL    HW1  623   0.668   2.438   1.210  3.8372  1.9737  0.5715
  208SOL    HW2  624   0.594   2.359   1.084  1.2772  2.4013  0.4373
  209SOL     OW  625   1.473   1.212   2.279  0.2961 -0.0297  0.1644
  209SOL    HW1  626   1.380   1.210   2.322 -0.0359  2.2253 -2.3317
  209SOL    HW2  627   1.529   1.279   2.334  0.0671  1.4851  3.0552
  210SOL     OW  628   1.913   0.732   1.307  0.0684 -0.7679 -0.3592
  210SOL    HW1  629   1.976   0.763   1.232  1.7542  3.2281 -1.2597
  210SOL    HW2  630   1.850   0.656   1.280  1.2493  1.8326  0.1739
  211SOL     OW  631   0.808   2.867   0.488 -0.4494 -0.2353  0.0188
  211SOL    HW1  632   0.824   2.803   0.408  0.3085  2.5282 -0.5829
  211SOL    HW2  633   0.905   2.896   0.525  2.8742 -0.2796  1.9198
  212SOL     OW  634   1.890   1.686   0.346 -0.0602  0.1247  0.1734
  212SOL    HW1  635   1.801   1.715   0.307  0.8673 -2.2352  3.1963
  212SOL    HW2  636   1.906   1.722   0.444 -3.1460 -1.2852 -2.0354
  213SOL     OW  637   1.684   0.250   2.838  0.2102  0.5487 -0.3539
  213SOL    HW1  638   1.611   0.314   2.832  3.8365 -2.7957  1.0600
  213SOL    HW2  639   1.769   0.302   2.855 -1.6179  1.0447 -0.4117
  214SOL     OW  640   1.111   1.465   2.287 -0.1445 -0.1441 -0.3331
  214SOL    HW1  641   1.120   1.426   2.191 -1.1836  1.3709  0.8972
  214SOL    HW2  642   1.149   1.557   2.296 -0.3045  0.6801 -0.7488
  215SOL     OW  643   0.748   1.766   0.288  0.2473  0.0465  0.6430
  215SOL    HW1  644   0.664   1.790   0.233 -2.7008  1.8048 -2.0597
  215SOL    HW2  645   0.722   1.718   0.373  2.6130  1.0187 -3.8686
  216SOL     OW  646   0.040   2.854   1.923  0.0529  0.7838 -0.1587
  216SOL    HW1  647   3.074   2.924   1.864  0.5103 -1.0450  0.7150
  216SOL    HW2  648   0.099   2.891   1.993  0.1219 -1.5845  0.9548
  217SOL     OW  649   2.445   1.077   0.813  0.1995 -0.2696 -0.0072
  217SOL    HW1  650   2.401   1.161   0.854 -0.6816  1.9109 -1.9999
  217SOL    HW2  651   2.405   1.061   0.720 -1.0246  0.7678  0.5591
  218SOL     OW  652   1.676   1.457   1.985  0.1485  0.2647 -0.4517
  218SOL    HW1  653   1.635   1.466   2.080 -1.3245  0.8172  1.4590
  218SOL    HW2  654   1.779   1.443   1.990  1.8570 -2.6114  0.4115
  219SOL     OW  655   2.040   1.641   0.131  0.5413  0.5373 -0.5331
  219SOL    HW1  656   1.977   1.605   0.056 -1.3155  0.6036 -1.8074
  219SOL    HW2  657   2.000   1.666   0.223  0.6795 -1.6227  0.2275
  220SOL     OW  658   1.330   1.324   0.907  0.4130 -0.8235 -0.0103
  220SOL    HW1  659   1.329   1.339   0.805 -2.4210  0.7221 -0.5186
  220SOL    HW2  660   1.409   1.370   0.952  0.7414  0.5342  4.2691
  221SOL     OW  661   0.853   0.521   2.886  0.3825  0.8132 -0.3642
  221SOL    HW1  662   0.864   0.624   2.882  2.1123 -1.3090 -0.2009
  221SOL    HW2  663   0.831   0.480   2.978 -0.6042 -0.4641  0.1688
  222SOL     OW  664   1.202   1.352   0.422  0.2117 -0.6744 -0.2480
  222SOL    HW1  665   1.256   1.378   0.508  1.7894 -0.1996  5.7184
  222SOL    HW2  666   1.177   1.250   0.431 -2.7802  0.5758  1.0340
  223SOL     OW  667   1.129   2.902   2.801 -0.6288  0.4979 -0.7866
  223SOL    HW1  668   1.210   2.882   2.859  1.2166  4.2469 -0.5784
  223SOL    HW2  669   1.041   2.910   2.848  1.0257  0.3459  0.2300
  224SOL     OW  670   2.266   0.033   1.354  0.4741 -0.5602  0.0684
  224SOL    HW1  671   2.215   0.105   1.308  2.4262 -1.8226 -1.0434
  224SOL    HW2  672   2.364   0.063   1.339 -0.7563 -1.3006 -0.2804
  225SOL     OW  673   0.489   0.230   1.305  0.0353 -0.0204 -0.3303
  225SOL    HW1  674   0.387   0.218   1.298  0.4158 -0.5391 -0.3804
  225SOL    HW2  675   0.521   0.310   1.253 -0.6636  0.9113  2.1540
  226SOL     OW  676   1.219   1.523   2.839 -0.4322 -0.1948 -0.3060
  226SOL    HW1  677   1.172   1.460   2.775  1.3663 -0.9544  2.3827
  226SOL    HW2  678   1.321   1.508   2.828 -1.3260  1.0106 -2.5979
  227SOL     OW  679   1.114   1.517   1.249  0.5640 -0.1842  0.1737
  227SOL    HW1  680   1.097   1.458   1.162 -1.7688 -1.5830 -2.6878
  227SOL    HW2  681   1.204   1.500   1.288 -0.8791 -1.9049  0.1423
  228SOL     OW  682   0.552   1.627   0.756  0.2984  0.1410 -0.0434
  228SOL    HW1  683   0.522   1.565   0.825  0.0283  0.8098  0.1348
  228SOL    HW2  684   0.546   1.722   0.797 -1.3488 -1.0202 -1.1577
  229SOL     OW  685   1.388   0.523   3.063  0.6831  0.1157 -0.1031
  229SOL    HW1  686   1.341   0.598   3.012 -0.6450  1.4886 -0.2822
  229SOL    HW2  687   1.482   0.554   0.005  2.1097 -0.0443 -2.2765
  230SOL     OW  688   1.259   0.444   2.346  0.5097  0.1297  0.1848
  230SOL    HW1  689   1.307   0.530   2.319  0.9462 -3.0591 -0.6331
  230SOL    HW2  690   1.322   0.364   2.333  1.4039 -1.2690 -1.2585
  231SOL     OW  691   1.212   1.739   2.383  0.0262 -0.1240 -0.4646
  231SOL    HW1  692   1.122   1.784   2.403  2.5166 -0.6106 -4.2557
  231SOL    HW2  693   1.255   1.775   2.299 -2.7467  3.6674  3.0598
  232SOL     OW  694   2.313   2.068   0.918  0.4810  0.5740  0.3571
  232SOL    HW1  695   2.317   2.112   1.015  1.2294  1.0236  1.3575
  232SOL    HW2  696   2.240   1.995   0.911  1.1065 -0.4205 -0.9268
  233SOL     OW  697   2.667   2.811   0.252  0.2445 -0.0933  0.3373
  233SOL    HW1  698   2.698   2.750   0.181  0.6006  0.2043  0.1643
  233SOL    HW2  699   2.627   2.892   0.203  0.7161 -0.6762  2.3799
  234SOL     OW  700   0.955   0.021   2.667  0.1685 -0.2081  0.4489
  234SOL    HW1  701   0.936   0.092   2.739 -2.0707 -0.5685  1.9696
  234SOL    HW2  702   1.032   3.029   2.688 -0.6225 -2.5887  0.6011
  235SOL     OW  703   2.605   0.158   2.766  0.3326 -0.0993  0.3532
  235SOL    HW1  704   2.512   0.172   2.811 -0.3466 -0.4855  2.1909
  235SOL    HW2  705   2.659   0.247   2.769  1.4079  0.4481 -0.6105
  236SOL     OW  706   2.064   2.411   1.988 -0.0559 -0.4194 -0.0699
  236SOL    HW1  707   2.051   2.418   2.089  1.8638  1.5822  1.7781
  236SOL    HW2  708   1.995   2.348   1.953  1.4100  3.9665 -0.8929
  237SOL     OW  709   0.764   1.378   2.184  0.1245 -0.0910  0.3505
  237SOL    HW1  710   0.783   1.470   2.225  1.8361 -0.0301  2.1208
  237SOL    HW2  711   0.845   1.311   2.198  2.2601 -1.2173  1.1675
  238SOL     OW  712   1.715   0.092   2.615 -0.5525 -0.0934 -0.0133
  238SOL    HW1  713   1.732   0.141   2.705  1.0948  1.4694 -0.6999
  238SOL    HW2  714   1.798   0.046   2.581 -2.9157  3.9758  1.9876
  239SOL     OW  715   0.028   1.981   1.710  0.9696  0.3022  0.3092
  239SOL    HW1  716   0.054   2.019   1.797  1.3737  0.5031 -6.7977
  239SOL    HW2  717   0.036   1.881   1.707  0.7482  1.4945  1.7827
  240SOL     OW  718   3.038   2.544   0.693  0.3651 -0.4600 -0.5713
  240SOL    HW1  719   2.952   2.504   0.727 -1.6255  0.5285 -1.9396
  240SOL    HW2  720   3.072   2.477   0.623 -0.0818 -0.6796  0.6481
  241SOL     OW  721   2.138   1.314   1.082 -1.0600 -0.0598  0.0420
  241SOL    HW1  722   2.056   1.376   1.076 -0.6503 -1.0094  1.4858
  241SOL    HW2  723   2.106   1.227   1.121 -0.7051  0.0201  0.4396
  242SOL     OW  724   1.777   2.056   2.612 -0.2729  0.3165 -0.2313
  242SOL    HW1  725   1.878   2.059   2.645  1.4117 -1.4000  2.2015
  242SOL    HW2  726   1.719   2.062   2.696 -2.1097 -1.1335  3.6008
  243SOL     OW  727   0.582   2.550   1.581  0.5687 -0.0817  0.3224
  243SOL    HW1  728   0.524   2.575   1.500 -1.5171  0.8648 -1.2753
  243SOL    HW2  729   0.653   2.620   1.599 -1.6663  0.6303  0.3776
  244SOL     OW  730   2.306   3.061   2.987  0.2558  0.0476  0.0166
  244SOL    HW1  731   2.277   0.035   2.902 -1.6196  0.3708 -0.5124
  244SOL    HW2  732   2.367   2.985   2.952  1.4832 -2.2309  0.2662
  245SOL     OW  733   1.358   2.926   0.913  0.4547  0.0495  0.3445
  245SOL    HW1  734   1.393   2.897   1.002  1.0338  3.7415  1.5381
  245SOL    HW2  735   1.296   2.853   0.879 -0.9924  2.0581 -0.1114
  246SOL     OW  736   1.551   2.478   0.261  0.1514  0.0203  0.2098
  246SOL    HW1  737   1.645   2.522   0.270 -0.4353 -1.5171  0.2216
  246SOL    HW2  738   1.551   2.390   0.217 -0.2440 -0.4431  2.3129
  247SOL     OW  739   1.014   0.353   2.218  0.2851 -0.0182  0.3925
  247SOL    HW1  740   0.975   0.310   2.297  2.9410 -0.9379 -0.7668
  247SOL    HW2  741   1.090   0.408   2.254 -2.9818  1.1153 -0.1108
  248SOL     OW  742   0.548   1.792   1.874 -0.2884  0.5607 -0.4285
  248SOL    HW1  743   0.649   1.809   1.867 -1.5951 -2.0625  1.2712
  248SOL    HW2  744   0.527   1.695   1.843 -1.4346 -2.1948  0.5335
  249SOL     OW  745   2.086   0.395   0.427  0.1284  0.5328 -0.2164
  249SOL    HW1  746   2.150   0.376   0.353 -1.5713  1.3154 -0.6612
  249SOL    HW2  747   2.037   0.483   0.413  0.4082 -0.4747  0.7256
  250SOL     OW  748   0.188   0.493   0.618  0.1450  0.5488 -0.0987
  250SOL    HW1  749   0.232   0.432   0.689  0.2294 -1.7207  2.2774
  250SOL    HW2  750   0.250   0.516   0.540  2.4121 -1.0418  0.2644
  251SOL     OW  751   1.917   0.394   2.887 -0.3024 -0.2049  0.2848
  251SOL    HW1  752   1.972   0.414   2.802 -1.3759  0.1598 -0.0575
  251SOL    HW2  753   1.948   0.310   2.931 -1.0633  1.0188  1.6606
  252SOL     OW  754   1.765   1.713   2.024 -0.0932 -0.0064 -0.3032
  252SOL    HW1  755   1.737   1.760   2.111 -0.4927 -2.6625  2.3260
  252SOL    HW2  756   1.715   1.625   2.005 -0.6827  0.1288  0.4890
  253SOL     OW  757   2.624   2.313   1.762  0.0065 -0.0246 -0.1019
  253SOL    HW1  758   2.645   2.359   1.851 -0.6683 -1.8000 -1.3366
  253SOL    HW2  759   2.628   2.213   1.767  2.5715  2.0186 -0.1074
  254SOL     OW  760   3.046   1.580   1.212 -0.2895 -0.4422 -0.2640
  254SOL    HW1  761   3.025   1.498   1.271  2.2301  1.5990  0.3364
  254SOL    HW2  762   0.068   1.601   1.213 -1.5392 -0.0149  0.1910
  255SOL     OW  763   1.045   0.485   1.227 -0.1126  0.2248  0.4904
  255SOL    HW1  764   1.016   0.416   1.296 -1.7749  1.1091 -0.1808
  255SOL    HW2  765   1.119   0.545   1.271  2.3034 -0.5831  1.4961
  256SOL     OW  766   2.065   2.321   1.574 -0.2171  0.3741 -0.2544
  256SOL    HW1  767   2.024   2.411   1.553 -0.1932 -0.1348 -1.5814
  256SOL    HW2  768   1.991   2.253   1.563  1.5982 -1.8800  0.5371
  257SOL     OW  769   0.581   2.776   2.609 -0.0608 -0.1082 -0.3115
  257SOL    HW1  770   0.666   2.819   2.642 -2.9305  0.4889  0.1464
  257SOL    HW2  771   0.561   2.686   2.654 -3.1823  3.4200 -0.6563
  258SOL     OW  772   0.930   2.219   0.026  0.0307  0.7570  0.4064
  258SOL    HW1  773   0.963   2.151   0.093  0.1319 -1.7996 -1.7614
  258SOL    HW2  774   0.867   2.178   3.034  0.7534  0.8228 -0.8216
  259SOL     OW  775   1.005   0.033   2.115  0.5665 -0.0454  0.0006
  259SOL    HW1  776   1.101   0.059   2.115 -1.4866  1.7821  0.4742
  259SOL    HW2  777   0.953   0.057   2.029 -0.7080 -0.8939 -0.1250
  260SOL     OW  778   1.807   0.585   1.012 -0.4640 -0.0830 -0.2783
  260SOL    HW1  779   1.786   0.687   1.007 -1.9300  2.8718 -0.9471
  260SOL    HW2  780   1.784   0.538   1.102  0.1561 -0.0639 -1.1612
  261SOL     OW  781   0.581   0.329   2.489  0.3613 -0.7545 -0.2401
  261SOL    HW1  782   0.527   0.417   2.485 -1.0684  1.3551 -1.9375
  261SOL    HW2  783   0.677   0.343   2.515  2.0752 -1.6613  0.5117
  262SOL     OW  784   0.132   2.051   1.945 -0.0420  0.1452 -0.5769
  262SOL    HW1  785   0.206   2.108   1.921 -3.9323 -3.7467  2.2694
  262SOL    HW2  786   0.170   1.955   1.966  0.5276 -2.1748  0.5640
  263SOL     OW  787   2.924   1.564   2.336  0.2587  0.3913  0.2303
  263SOL    HW1  788   2.889   1.649   2.301 -1.9766  1.8326  0.0103
  263SOL    HW2  789   3.004   1.579   2.397  0.9669 -0.0666  3.5608
  264SOL     OW  790   0.772   1.071   1.072 -0.4249  0.3362  0.5525
  264SOL    HW1  791   0.712   1.066   1.156  0.4057  1.1253  3.3671
  264SOL    HW2  792   0.715   1.104   0.994 -1.2104 -2.1812  1.7508
  265SOL     OW  793   1.098   2.357   0.937 -0.1917  0.2825 -0.3527
  265SOL    HW1  794   1.038   2.276   0.918  1.1256  3.3469 -3.9170
  265SOL    HW2  795   1.121   2.380   1.037  1.5407 -1.6616  0.8142
  266SOL     OW  796   1.555   1.028   1.042 -0.1433 -0.1273 -0.4902
  266SOL    HW1  797   1.574   1.081   1.128  2.3359 -0.0207 -0.0101
  266SOL    HW2  798   1.581   1.086   0.961 -0.3175  0.5275  1.4815
  267SOL     OW  799   2.485   1.253   0.097 -0.2820 -0.0615  0.4529
  267SOL    HW1  800   2.543   1.243   0.181 -1.5656 -1.3583 -1.0506
  267SOL    HW2  801   2.541   1.238   0.013  2.2376 -0.7434  0.5387
  268SOL     OW  802   1.266   0.364   0.199  0.0501 -0.1418  0.3503
  268SOL    HW1  803   1.325   0.404   0.276  2.5698  1.9624 -1.3069
  268SOL    HW2  804   1.300   0.399   0.108 -0.8398 -0.6343 -0.7741
  269SOL     OW  805   2.333   0.621   2.600 -0.5399 -0.1463 -0.0136
  269SOL    HW1  806   2.423   0.610   2.652  3.4357 -0.3783  1.0699
  269SOL    HW2  807   2.262   0.654   2.667 -1.9983  0.3113 -0.8927
  270SOL     OW  808   0.242   0.843   0.099 -0.1364 -0.0447 -0.6233
  270SOL    HW1  809   0.201   0.780   0.171  0.5953 -1.6386  0.0782
  270SOL    HW2  810   0.172   0.907   0.059  1.8742 -0.0111  1.2075
  271SOL     OW  811   2.598   1.161   0.315 -0.8656  0.1577 -1.1090
  271SOL    HW1  812   2.515   1.137   0.368 -0.1127 -1.2577 -0.6630
  271SOL    HW2  813   2.661   1.221   0.372 -1.6361 -0.1477 -0.7370
  272SOL     OW  814   2.998   2.654   2.710 -0.3714 -0.0508  0.1170
  272SOL    HW1  815   3.044   2.622   2.625  2.0243 -1.2053  1.0165
  272SOL    HW2  816   2.935   2.581   2.746  0.4750  2.4267  0.3713
  273SOL     OW  817   2.883   2.960   2.995  0.3749  0.3230 -0.3686
  273SOL    HW1  818   2.956   3.013   3.045  0.6006 -0.1786 -0.2041
  273SOL    HW2  819   2.877   2.994   2.902  1.2598  0.1487  1.5133
  274SOL     OW  820   0.647   2.369   0.893 -0.3343  0.1684  0.1330
  274SOL    HW1  821   0.678   2.457   0.936  1.2631  1.0435  0.2819
  274SOL    HW2  822   0.722   2.348   0.825  1.9418 -0.0313  1.5595
  275SOL     OW  823   2.698   1.513   0.217 -0.2996  0.5055 -0.6353
  275SOL    HW1  824   2.770   1.554   0.153 -0.7149 -0.3629 -1.0613
  275SOL    HW2  825   2.736   1.436   0.272  1.7625 -0.4369  0.5774
  276SOL     OW  826   2.914   1.172   1.710 -0.3259 -0.0870  0.0368
  276SOL    HW1  827   2.858   1.108   1.653 -1.0856  1.7193  2.1972
  276SOL    HW2  828   2.996   1.195   1.659  1.9387 -0.0327 -1.5555
  277SOL     OW  829   2.000   0.141   0.995  0.5955  0.6465 -0.6259
  277SOL    HW1  830   2.044   0.055   0.967 -3.1414  1.3399 -0.1341
  277SOL    HW2  831   1.980   0.196   0.915  1.3600 -0.0689  2.6226
  278SOL     OW  832   1.379   2.389   2.229  0.6083  0.4052  0.1127
  278SOL    HW1  833   1.470   2.368   2.190  1.7242 -0.0410 -3.5093
  278SOL    HW2  834   1.324   2.299   2.241 -0.7256 -1.6928  0.2908
  279SOL     OW  835   1.687   1.786   0.624 -0.1591  0.0880  0.0190
  279SOL    HW1  836   1.786   1.813   0.628  1.2326 -0.1697 -0.1478
  279SOL    HW2  837   1.617   1.864   0.646 -0.2731  1.5748  1.1020
  280SOL     OW  838   0.250   1.281   1.136 -0.4596  0.3339  0.3273
  280SOL    HW1  839   0.229   1.354   1.068  1.2073 -0.2038 -0.3063
  280SOL    HW2  840   0.343   1.289   1.183  3.8384  1.5024  0.5081
  281SOL     OW  841   0.052   1.309   2.428  0.0063  0.3112 -0.5090
  281SOL    HW1  842   0.146   1.300   2.391 -0.9845 -0.0868  0.5576
  281SOL    HW2  843   0.037   1.408   2.459 -0.1458  0.8496 -0.7628
  282SOL     OW  844   0.757   1.409   0.017  0.1431  0.1520 -0.7730
  282SOL    HW1  845   0.675   1.405   0.081 -1.7188 -0.1133  0.9208
  282SOL    HW2  846   0.845   1.423   0.066 -2.5103  0.7664  2.5145
  283SOL     OW  847   2.321   2.353   0.012 -0.0228 -0.2164  0.5507
  283SOL    HW1  848   2.224   2.386   0.017 -3.0721 -0.5289  0.7717
  283SOL    HW2  849   2.364   2.363   0.105  0.3123 -0.4907 -1.1055
  284SOL     OW  850   0.805   3.076   0.296  0.3460 -0.0859  0.1930
  284SOL    HW1  851   0.804   2.996   0.359  3.5561  2.3689  1.7117
  284SOL    HW2  852   0.897   0.013   0.262 -0.4075 -1.6877  1.8798
  285SOL     OW  853   2.339   1.172   2.774 -0.0232 -0.4492  0.3211
  285SOL    HW1  854   2.407   1.097   2.792  2.6228  0.3691  0.0369
  285SOL    HW2  855   2.363   1.255   2.832  0.4607  0.9250 -0.8112
  286SOL     OW  856   1.864   2.522   1.301 -0.1767  0.2132  0.4687
  286SOL    HW1  857   1.899   2.552   1.388  0.4444 -1.1096  1.0941
  286SOL    HW2  858   1.761   2.513   1.308  2.3946  2.4820  1.8582
  287SOL     OW  859   1.079   0.305   0.556  0.0132 -0.1546  0.6366
  287SOL    HW1  860   1.041   0.306   0.460  1.2582  1.0018 -1.5949
  287SOL    HW2  861   1.099   0.401   0.583  1.7739  1.7111 -0.4128
  288SOL     OW  862   1.144   2.554   2.530  0.1090 -0.7810 -0.1273
  288SOL    HW1  863   1.134   2.490   2.611 -0.6331  0.0820  0.9375
  288SOL    HW2  864   1.183   2.645   2.565 -0.2908  0.1777 -2.7133
  289SOL     OW  865   0.237   1.627   1.247 -0.3253 -0.6849  0.4858
  289SOL    HW1  866   0.226   1.680   1.334  2.6849 -2.8297 -2.6099
  289SOL    HW2  867   0.267   1.532   1.273 -1.7727  1.0607  0.4106
  290SOL     OW  868   1.471   2.075   0.930  0.4753 -0.3111 -0.4807
  290SOL    HW1  869   1.495   2.127   1.016  1.6838 -2.9702 -0.9238
  290SOL    HW2  870   1.524   1.993   0.924 -3.1165  3.2854 -0.8551
  291SOL     OW  871   1.584   2.868   0.088 -0.4467  0.3881 -0.2743
  291SOL    HW1  872   1.528   2.781   0.087  1.0683  1.7243  0.5827
  291SOL    HW2  873   1.563   2.927   0.170 -0.5945 -2.0047  0.9462
  292SOL     OW  874   0.599   0.330   1.625  0.1255  0.3053 -0.4738
  292SOL    HW1  875   0.611   0.428   1.620  1.6483 -2.8027  1.7994
  292SOL    HW2  876   0.649   0.301   1.709 -1.2048 -0.8291  0.1406
  293SOL     OW  877   2.311   2.198   1.154 -0.0459  0.2252 -0.3384
  293SOL    HW1  878   2.395   2.249   1.182  0.8098 -1.1662  4.5711
  293SOL    HW2  879   2.232   2.242   1.194  0.2592  1.5147 -0.5245
  294SOL     OW  880   0.703   0.549   2.134 -0.2137 -0.1121  0.0324
  294SOL    HW1  881   0.629   0.491   2.095  0.6785  0.4121  1.7511
  294SOL    HW2  882   0.695   0.552   2.236  0.5227  1.1065  1.3825
  295SOL     OW  883   1.502   1.725   1.346  0.1930 -0.3429 -0.0893
  295SOL    HW1  884   1.433   1.787   1.306  1.6909  1.1527 -1.7554
  295SOL    HW2  885   1.591   1.754   1.310  1.4229 -0.4890  1.9162
  296SOL     OW  886   2.576   2.029   0.284  0.0926  0.0380 -0.2052
  296SOL    HW1  887   2.658   2.023   0.225 -0.7084 -2.7940  1.5318
  296SOL    HW2  888   2.486   2.048   0.234  1.6594  0.3368  0.4168
  297SOL     OW  889   2.198   3.013   0.287 -0.0966 -0.0201  0.1926
  297SOL    HW1  890   2.269   3.040   0.219  0.6462 -0.1685 -0.1657
  297SOL    HW2  891   2.219   2.921   0.323  0.6185  3.4343 -2.5937
  298SOL     OW  892   0.836   2.857   2.636  0.0463 -0.9414 -0.3397
  298SOL    HW1  893   0.897   2.822   2.564 -0.9282 -0.5664 -1.4176
  298SOL    HW2  894   0.849   2.957   2.646 -1.3421 -0.6703 -1.6186
  299SOL     OW  895   1.026   2.097   2.009  0.2493  0.5821  0.2526
  299SOL    HW1  896   0.983   2.189   1.997 -0.4536 -0.5774 -1.4987
  299SOL    HW2  897   1.090   2.093   2.091 -1.8023 -0.1292  1.8036
  300SOL     OW  898   0.030   0.162   2.318 -0.2505  0.5473 -0.3825
  300SOL    HW1  899   0.096   0.126   2.386 -1.5071  1.2629 -1.3294
  300SOL    HW2  900   3.021   0.198   2.364 -1.6666 -0.6399 -2.3644
  301SOL     OW  901   1.013   0.849   1.993  0.1790 -0.0545  0.2172
  301SOL    HW1  902   1.020   0.751   2.026  2.3562 -0.9605  1.8385
  301SOL    HW2  903   1.088   0.898   2.033 -2.5149  1.4538 -3.9264
  302SOL     OW  904   0.042   2.350   0.513 -0.4272 -0.0051 -0.2397
  302SOL    HW1  905   0.132   2.361   0.463 -0.2291  2.2514  0.2986
  302SOL    HW2  906   3.066   2.269   0.488  1.1080  1.5364  1.0275
  303SOL     OW  907   2.426   2.532   1.757 -0.2975 -0.0737 -0.2446
  303SOL    HW1  908   2.489   2.452   1.742 -0.3430  1.5098  0.9161
  303SOL    HW2  909   2.386   2.530   1.854 -1.4978  1.8162  1.1617
  304SOL     OW  910   2.820   0.922   1.600  0.4464 -0.4184  0.6530
  304SOL    HW1  911   2.871   0.864   1.660 -2.4782  0.6133  0.4986
  304SOL    HW2  912   2.867   0.928   1.508  1.4755 -2.1175  2.4027
  305SOL     OW  913   0.861   1.422   1.300  0.1192  0.5748  0.0769
  305SOL    HW1  914   0.959   1.457   1.304  2.6190  1.6044 -1.4481
  305SOL    HW2  915   0.809   1.467   1.223  0.6913 -1.6034 -0.3449
  306SOL     OW  916   0.470   1.489   2.077 -0.1778 -0.4033 -0.4502
  306SOL    HW1  917   0.494   1.390   2.077  0.5707 -0.1251 -1.4283
  306SOL    HW2  918   0.549   1.553   2.111  2.2265  0.4353 -0.8381
  307SOL     OW  919   0.657   0.601   1.624  0.2236  0.4405 -0.5018
  307SOL    HW1  920   0.734   0.638   1.684  2.0973 -2.5390 -3.0489
  307SOL    HW2  921   0.695   0.596   1.528  1.2668  1.4676  0.2859
  308SOL     OW  922   2.914   1.250   1.162  0.1328 -0.1690  0.2632
  308SOL    HW1  923   2.938   1.303   1.245 -1.4025 -0.9783  1.6688
  308SOL    HW2  924   2.846   1.179   1.184  0.3630  1.7210 -0.7588
  309SOL     OW  925   2.572   1.407   1.107 -0.1533  0.0275 -0.1425
  309SOL    HW1  926   2.585   1.403   1.210 -3.7643 -2.5222 -0.4595
  309SOL    HW2  927   2.628   1.344   1.052 -0.7271 -0.6348  0.8073
  310SOL     OW  928   3.028   2.219   2.643 -0.0559  0.3779  0.1085
  310SOL    HW1  929   2.950   2.205   2.706  0.6015 -0.3229 -0.0593
  310SOL    HW2  930   3.026   2.149   2.572 -0.3220  3.3203  1.4078
  311SOL     OW  931   2.741   2.562   2.473 -0.0046 -0.5102 -0.5596
  311SOL    HW1  932   2.763   2.644   2.414 -1.5372  0.7813 -0.7767
  311SOL    HW2  933   2.683   2.588   2.555  2.5094 -2.1273  1.8190
  312SOL     OW  934   2.146   2.043   3.075 -0.1730  0.1812  0.0030
  312SOL    HW1  935   2.054   2.077   0.036  0.1325  1.5625 -0.9381
  312SOL    HW2  936   2.147   1.943   3.048 -1.7853 -1.2872 -0.4796
  313SOL     OW  937   2.686   2.721   0.739 -0.0881 -0.3002  1.1110
  313SOL    HW1  938   2.765   2.750   0.802  1.3115  0.3244  2.0341
  313SOL    HW2  939   2.718   2.720   0.641  0.7493 -0.4834 -0.2382
  314SOL     OW  940   1.946   1.248   0.151  0.1413  0.4813 -0.9133
  314SOL    HW1  941   1.926   1.302   0.237  0.1241 -0.6034 -2.1852
  314SOL    HW2  942   1.989   1.302   0.079 -0.0421 -1.3359  3.1921
  315SOL     OW  943   1.319   2.893   2.254  0.5148  0.0565  0.2527
  315SOL    HW1  944   1.394   2.937   2.305 -2.5861  2.4972  0.8870
  315SOL    HW2  945   1.234   2.910   2.311 -2.1568 -0.7252 -1.2088
  316SOL     OW  946   2.827   0.912   3.044 -0.3005  0.0293 -0.3753
  316SOL    HW1  947   2.909   0.969   3.070  0.9305  1.7333 -0.4588
  316SOL    HW2  948   2.836   0.859   2.954 -1.3499 -1.6592 -0.3883
  317SOL     OW  949   0.584   2.775   0.063 -0.0408 -0.0832  0.2903
  317SOL    HW1  950   0.528   2.785   3.052  0.6230 -1.3366 -0.3373
  317SOL    HW2  951   0.668   2.735   0.025 -2.5440 -0.3173 -0.5815
  318SOL     OW  952   2.359   2.466   0.728 -0.2052 -0.2414  0.2034
  318SOL    HW1  953   2.290   2.423   0.793 -1.6608 -0.7555 -1.4491
  318SOL    HW2  954   2.458   2.447   0.758 -0.1798  3.1006  1.4112
  319SOL     OW  955   1.243   1.781   2.885 -0.4051 -0.2866 -0.5999
  319SOL    HW1  956   1.220   1.681   2.863 -1.1658 -0.8504 -0.9381
  319SOL    HW2  957   1.172   1.822   2.948 -0.3374 -0.6276 -0.3409
  320SOL     OW  958   0.609   2.023   1.678  0.1871  0.6219  0.1492
  320SOL    HW1  959   0.600   1.971   1.762  2.1324  1.3396 -1.3789
  320SOL    HW2  960   0.528   2.085   1.659  2.2982  1.0703  0.8920
  321SOL     OW  961   1.610   2.700   2.546 -0.8438  0.5240 -0.6669
  321SOL    HW1  962   1.525   2.649   2.508 -1.6178 -1.9489 -0.5867
  321SOL    HW2  963   1.658   2.739   2.466  0.0614  0.8084  5.8120
  322SOL     OW  964   2.793   1.461   2.123  0.0370  0.0126  0.4471
  322SOL    HW1  965   2.839   1.510   2.205  1.2003  2.6586  2.6577
  322SOL    HW2  966   2.768   1.366   2.148 -0.8286  2.7722 -0.9956
  323SOL     OW  967   2.374   0.776   1.005  0.6910  0.8021 -0.3688
  323SOL    HW1  968   2.400   0.872   0.985  0.8749 -2.0065 -1.2171
  323SOL    HW2  969   2.335   0.761   1.098  1.1959  0.7509  2.3070
  324SOL     OW  970   2.662   0.002   2.267 -0.2079  0.0969 -0.3357
  324SOL    HW1  971   2.585   3.017   2.246  0.8079  0.2341  0.1199
  324SOL    HW2  972   2.652   0.033   2.364  0.3419 -0.1695 -2.2143
  325SOL     OW  973   1.064   0.747   2.633  0.1639  0.1998 -0.0557
  325SOL    HW1  974   0.981   0.749   2.695  0.5670 -1.6864 -1.2143
  325SOL    HW2  975   1.042   0.703   2.544 -2.0192 -1.6730  2.5718
  326SOL     OW  976   1.679   2.977   2.095 -0.5139 -0.4751  0.1324
  326SOL    HW1  977   1.701   3.071   2.125 -0.5849  4.5627  0.7903
  326SOL    HW2  978   1.755   2.928   2.057 -1.8865  2.1486  1.4590
  327SOL     OW  979   2.203   0.414   0.042  0.0246 -0.1033  0.3747
  327SOL    HW1  980   2.135   0.349   0.007  1.9455 -1.3675 -0.1994
  327SOL    HW2  981   2.248   0.377   0.126 -0.2259 -1.0709  1.6188
  328SOL     OW  982   0.063   1.575   2.498 -0.4222  0.1673 -0.2805
  328SOL    HW1  983   0.055   1.567   2.597 -3.3530 -3.1344 -0.3585
  328SOL    HW2  984   0.126   1.644   2.461  0.3702 -0.3502 -0.3062
  329SOL     OW  985   1.838   2.995   1.693 -0.2149 -0.1668 -0.0487
  329SOL    HW1  986   1.761   2.931   1.702 -0.3319  0.8188 -1.4787
  329SOL    HW2  987   1.871   2.986   1.599 -1.2574 -3.3694 -0.9660
  330SOL     OW  988   0.325   1.011   1.059 -0.3912  0.6049 -0.2890
  330SOL    HW1  989   0.247   0.947   1.066  4.4401 -0.8509 -0.9317
  330SOL    HW2  990   0.312   1.104   1.093  0.7565 -2.8775  1.0899
  331SOL     OW  991   0.259   1.633   2.166  0.7347  0.7577  0.0926
  331SOL    HW1  992   0.343   1.578   2.144  0.5540  3.0705 -0.0658
  331SOL    HW2  993   0.266   1.675   2.261  0.5080  1.3551  0.6829
  332SOL     OW  994   3.021   2.736   1.440  0.0929  0.0964  0.7733
  332SOL    HW1  995   3.041   2.818   1.499 -2.4736  0.0460 -0.2257
  332SOL    HW2  996   2.923   2.709   1.447  0.4659 -0.7728 -1.4391
  333SOL     OW  997   2.356   0.072   0.640  0.1010 -0.7705 -0.5490
  333SOL    HW1  998   2.303   3.064   0.655  0.4948  0.2111  0.0371
  333SOL    HW2  999   2.306   0.160   0.658  0.5184  1.6378  2.2193
  334SOL     OW 1000   0.623   2.021   0.612 -0.0555  0.2429  0.2432
  334SOL    HW1 1001   0.712   2.018   0.563  1.2490  1.0432  2.3062
  334SOL    HW2 1002   0.593   2.116   0.621  1.3110  0.6714 -0.9630
  335SOL     OW 1003   0.097   2.611   0.007 -0.3859 -0.1316 -0.1188
  335SOL    HW1 1004   0.010   2.572   3.055  3.3246  0.6058  1.1120
  335SOL    HW2 1005   0.174   2.559   3.042 -0.5776 -0.4432 -4.2988
  336SOL     OW 1006   2.926   2.686   2.055  0.3013  0.4435 -0.3146
  336SOL    HW1 1007   2.935   2.588   2.032 -1.6402  0.4068 -1.4191
  336SOL    HW2 1008   2.991   2.754   2.011 -1.9867  2.0866  0.4357
  337SOL     OW 1009   2.213   2.197   2.582  0.1006  0.2748 -0.1878
  337SOL    HW1 1010   2.261   2.226   2.667 -1.4931 -2.0404  0.4819
  337SOL    HW2 1011   2.276   2.151   2.510  1.6006  0.7711 -1.8695
  338SOL     OW 1012   0.669   0.197   0.457 -0.6010  0.6235  0.4945
  338SOL    HW1 1013   0.639   0.290   0.433 -0.0357  0.5258  0.7885
  338SOL    HW2 1014   0.734   0.151   0.394 -1.2446 -2.5780  2.7083
  339SOL     OW 1015   0.180   0.739   2.050 -0.0243 -0.7108 -0.5813
  339SOL    HW1 1016   0.109   0.696   2.110  0.1889  2.1676  3.5088
  339SOL    HW2 1017   0.151   0.833   2.016 -1.4717 -2.3906 -1.6262
  340SOL     OW 1018   1.728   0.005   0.332  0.7124  0.2023  0.1990
  340SOL    HW1 1019   1.784   0.087   0.326 -0.3122 -2.3725 -1.7731
  340SOL    HW2 1020   1.638   0.017   0.287  0.2094  1.5542 -0.3126
  341SOL     OW 1021   2.023   0.856   1.064 -0.4958  0.2618  0.4174
  341SOL    HW1 1022   1.941   0.876   1.010  1.6579  0.1054  0.4970
  341SOL    HW2 1023   2.077   0.776   1.029 -0.3210 -3.0916 -1.6262
  342SOL     OW 1024   2.320   2.817   0.083  0.1366 -0.4064  0.2331
  342SOL    HW1 1025   2.336   2.891   0.010  2.0084  1.0339 -3.5397
  342SOL    HW2 1026   2.390   2.746   0.071 -0.1331  2.0535  0.4039
  343SOL     OW 1027   1.410   2.134   1.592 -0.5101 -0.2365 -0.3012
  343SOL    HW1 1028   1.491   2.195   1.611 -0.6079 -0.6532  0.8483
  343SOL    HW2 1029   1.439   2.035   1.583 -1.0807  0.8148  0.9886
  344SOL     OW 1030   2.266   2.600   1.091  0.0297  0.0862  0.4251
  344SOL    HW1 1031   2.211   2.682   1.063 -0.0354 -1.2908 -1.6952
  344SOL    HW2 1032   2.211   2.540   1.156 -0.9039  0.5691  3.0393
  345SOL     OW 1033   2.875   2.418   0.215 -0.3367  0.1943 -0.3542
  345SOL    HW1 1034   2.908   2.494   0.282  1.2857  1.2105  1.0964
  345SOL    HW2 1035   2.901   2.325   0.252  0.8357 -0.1567  1.1438
  346SOL     OW 1036   2.675   1.839   0.858 -0.6072 -0.1243  0.4440
  346SOL    HW1 1037   2.623   1.925   0.851  1.1748 -0.1616  1.5922
  346SOL    HW2 1038   2.766   1.854   0.907 -1.9941 -1.0972  2.7947
  347SOL     OW 1039   1.728   1.976   1.826  0.0311 -0.2858  0.2390
  347SOL    HW1 1040   1.676   2.045   1.881  0.8479 -0.9201 -1.0239
  347SOL    HW2 1041   1.728   1.885   1.872 -1.6253  0.1381 -1.2738
  348SOL     OW 1042   0.503   1.644   2.513 -0.1005 -0.2510 -0.0073
  348SOL    HW1 1043   0.543   1.561   2.472 -0.9590  1.5207  0.5627
  348SOL    HW2 1044   0.490   1.630   2.613  1.7087 -1.0790 -0.3054
  349SOL     OW 1045   2.365   1.315   0.932 -1.2530  0.3643  0.4193
  349SOL    HW1 1046   2.278   1.296   0.979  3.2803  0.1393 -1.0553
  349SOL    HW2 1047   2.432   1.346   0.999 -1.5456  0.0962 -2.2983
  350SOL     OW 1048   2.890   2.521   1.090 -0.4389  0.1043 -0.5977
  350SOL    HW1 1049   2.814   2.586   1.095  0.5175 -0.2303  0.7695
  350SOL    HW2 1050   2.896   2.467   1.184 -0.8018 -2.0920  2.3571
  351SOL     OW 1051   0.699   0.022   2.028 -0.1690  0.0154 -0.1894
  351SOL    HW1 1052   0.597   0.015   2.046 -2.6350  1.1247 -1.7918
  351SOL    HW2 1053   0.751   3.049   2.099  1.7355  0.3095 -1.0997
  352SOL     OW 1054   0.912   1.516   0.882  0.0796  0.2567  0.0221
  352SOL    HW1 1055   0.961   1.469   0.953 -0.7116  2.9272 -0.4430
  352SOL    HW2 1056   0.904   1.457   0.798 -0.1673  1.2379 -2.8434
  353SOL     OW 1057   1.284   1.538   2.536  0.0205 -0.4045  0.0852
  353SOL    HW1 1058   1.276   1.628   2.484  1.7762  2.8031 -2.4017
  353SOL    HW2 1059   1.197   1.488   2.557 -1.1062  0.5291  0.5681
  354SOL     OW 1060   1.325   0.132   0.940 -0.0058  0.4285 -0.2699
  354SOL    HW1 1061   1.317   0.028   0.957 -0.9727 -0.3604  0.2134
  354SOL    HW2 1062   1.275   0.179   1.015  0.5267  1.4415 -1.1899
  355SOL     OW 1063   2.716   1.479   0.644 -0.0824 -0.2347  0.1033
  355SOL    HW1 1064   2.626   1.441   0.663 -0.1003 -1.1573 -2.8433
  355SOL    HW2 1065   2.701   1.581   0.628 -1.8890  0.8103 -0.0244
  356SOL     OW 1066   2.408   1.599   2.312  0.0949 -0.4641 -0.1256
  356SOL    HW1 1067   2.395   1.673   2.383 -3.8184 -0.4963 -0.2120
  356SOL    HW2 1068   2.448   1.651   2.233  0.8813  0.5333 -2.4710
  357SOL     OW 1069   0.385   2.660   1.408  0.0732  0.0270 -0.1885
  357SOL    HW1 1070   0.290   2.679   1.367 -2.0871 -0.6640  0.5995
  357SOL    HW2 1071   0.448   2.741   1.392  3.6486  1.0776 -1.2363
  358SOL     OW 1072   2.237   0.657   1.510  0.1939 -0.5003 -0.0065
  358SOL    HW1 1073   2.305   0.583   1.525 -1.3823 -0.4417 -0.4321
  358SOL    HW2 1074   2.264   0.732   1.573  1.0591 -0.3473 -1.5047
  359SOL     OW 1075   2.095   2.551   2.768  0.1471 -0.3404 -0.1342
  359SOL    HW1 1076   2.037   2.592   2.702  2.2630 -1.5892  1.1620
  359SOL    HW2 1077   2.107   2.616   2.853 -0.6453  3.0723 -1.3926
  360SOL     OW 1078   0.933   0.356   0.790 -0.3325 -0.0624 -0.1672
  360SOL    HW1 1079   0.977   0.441   0.826  0.7092 -0.0079  1.3979
  360SOL    HW2 1080   0.984   0.326   0.706 -0.5106 -2.2120  1.3107
  361SOL     OW 1081   1.844   0.007   1.203 -0.0623 -0.0258 -0.1633
  361SOL    HW1 1082   1.764   0.061   1.221  0.7232 -2.1741 -3.6191
  361SOL    HW2 1083   1.890   0.041   1.117  0.6256 -1.5630  0.3921
  362SOL     OW 1084   1.271   1.048   0.685 -0.2257  0.0051  0.2233
  362SOL    HW1 1085   1.348   1.100   0.639  3.3834  1.8411 -0.0247
  362SOL    HW2 1086   1.314   0.969   0.738  0.6955 -0.6121 -0.1916
  363SOL     OW 1087   2.221   1.489   2.552 -0.2989  0.0165 -0.1316
  363SOL    HW1 1088   2.269   1.518   2.634 -0.2588  1.3280 -0.8149
  363SOL    HW2 1089   2.281   1.506   2.471  1.0030  0.3251 -2.2726
  364SOL     OW 1090   0.252   0.233   1.060  0.1969  0.5342  0.2073
  364SOL    HW1 1091   0.308   0.233   0.973  2.3204  0.7501 -2.4906
  364SOL    HW2 1092   0.250   0.324   1.100 -0.5330  0.5312 -1.8254
  365SOL     OW 1093   0.185   2.725   0.251  0.1180 -0.2318 -0.6380
  365SOL    HW1 1094   0.148   2.671   0.172  0.1030  1.0543 -2.4171
  365SOL    HW2 1095   0.110   2.769   0.307 -0.4510 -2.1486 -0.1267
  366SOL     OW 1096   2.404   2.122   3.012 -0.3702  0.8141 -0.0133
  366SOL    HW1 1097   2.314   2.074   3.024  2.0122  2.1653  0.7347
  366SOL    HW2 1098   2.392   2.218   3.053 -1.2926  2.1383  3.0167
  367SOL     OW 1099   2.820   2.473   2.758 -0.9082  0.2399  0.2982
  367SOL    HW1 1100   2.812   2.372   2.732  0.5696 -1.8714 -0.9053
  367SOL    HW2 1101   2.817   2.493   2.856  0.5377 -0.3373 -4.8745
  368SOL     OW 1102   0.267   1.753   0.978 -0.0863  0.2859  0.2231
  368SOL    HW1 1103   0.281   1.741   1.079 -1.0835 -1.7898 -2.5371
  368SOL    HW2 1104   0.266   1.854   0.952  0.8760  2.2808  0.5102
  369SOL     OW 1105   0.897   2.642   2.804  0.3050  0.1818  0.2343
  369SOL    HW1 1106   0.869   2.722   2.746  1.4161  1.0711  0.6569
  369SOL    HW2 1107   0.993   2.637   2.825 -3.8158 -1.4213 -0.7856
  370SOL     OW 1108   0.065   0.943   0.631  0.0767 -0.0228  0.3580
  370SOL    HW1 1109   0.012   1.018   0.683  1.7129  0.8636  2.2135
  370SOL    HW2 1110   0.084   0.868   0.697  2.1914 -0.1198  1.6364
  371SOL     OW 1111   1.943   2.636   1.054 -0.5032  0.7278 -0.2878
  371SOL    HW1 1112   1.966   2.612   0.958  0.1793 -0.2559  1.5471
  371SOL    HW2 1113   1.911   2.558   1.103  3.1258  3.6367 -1.2855
  372SOL     OW 1114   0.225   0.894   2.602 -0.3192  0.0071 -0.6120
  372SOL    HW1 1115   0.284   0.970   2.558 -1.6873  1.5490 -2.3503
  372SOL    HW2 1116   0.284   0.828   2.653  1.8702 -0.2979 -0.5907
  373SOL     OW 1117   2.988   1.798   0.575 -0.1113 -0.2821 -0.0638
  373SOL    HW1 1118   2.893   1.769   0.599  0.8397 -1.1161 -0.0545
  373SOL    HW2 1119   3.051   1.803   0.658  2.8351  0.6089  1.8311
  374SOL     OW 1120   0.272   2.391   0.358 -0.6334  0.1503 -0.4761
  374SOL    HW1 1121   0.267   2.428   0.265 -0.1217  4.4901  0.5972
  374SOL    HW2 1122   0.312   2.460   0.421 -0.0414 -0.5232 -1.2605
  375SOL     OW 1123   0.341   0.499   0.386  0.0831  0.0633  0.8403
  375SOL    HW1 1124   0.439   0.526   0.396 -1.5284  1.4006  0.0879
  375SOL    HW2 1125   0.317   0.455   0.295 -0.5191 -0.0047  2.6498
  376SOL     OW 1126   0.370   2.284   1.934 -0.3563  0.2503 -0.5506
  376SOL    HW1 1127   0.441   2.299   1.865  0.5015  3.4347  0.9652
  376SOL    HW2 1128   0.277   2.319   1.908 -1.8687  0.0793  0.3245
  377SOL     OW 1129   1.784   2.518   2.928  0.0495 -0.2734 -0.5137
  377SOL    HW1 1130   1.688   2.540   2.952  1.5163 -2.9639 -1.2417
  377SOL    HW2 1131   1.780   2.475   2.836 -0.3552 -0.5744  1.4814
  378SOL     OW 1132   0.901   0.535   0.441  0.6051 -0.2343 -0.8949
  378SOL    HW1 1133   0.953   0.479   0.378 -1.7258  1.0441  1.7345
  378SOL    HW2 1134   0.960   0.571   0.517 -4.0750 -1.9981 -3.8372
  379SOL     OW 1135   0.675   1.639   0.506  0.0478  0.0622  0.2317
  379SOL    HW1 1136   0.615   1.661   0.590 -1.6187 -0.9044  2.3947
  379SOL    HW2 1137   0.743   1.563   0.529  2.0009 -3.2140  1.7699
  380SOL     OW 1138   0.383   2.134   1.177 -0.6886  0.2439  0.3614
  380SOL    HW1 1139   0.285   2.168   1.163 -2.2128 -0.4334  1.5297
  380SOL    HW2 1140   0.442   2.215   1.191  1.4823  1.1507 -1.9496
  381SOL     OW 1141   0.510   1.090   1.651 -0.7998 -0.1312  0.0093
  381SOL    HW1 1142   0.552   1.180   1.651 -0.5202 -0.0672 -1.6020
  381SOL    HW2 1143   0.422   1.099   1.699 -0.4688  2.2564 -0.6446
  382SOL     OW 1144   2.269   2.071   0.490 -0.0449  0.2962 -0.1726
  382SOL    HW1 1145   2.352   2.089   0.551 -2.0437  0.6586  2.7273
  382SOL    HW2 1146   2.293   2.081   0.393 -0.8419 -0.3497 -2.4128
  383SOL     OW 1147   2.767   1.769   2.240 -0.2985 -0.1742 -0.2263
  383SOL    HW1 1148   2.692   1.749   2.174 -1.1288 -0.9373 -0.5645
  383SOL    HW2 1149   2.739   1.819   2.325 -2.1990 -0.5622 -2.0576
  384SOL     OW 1150   0.141   1.991   2.333  0.1669  0.1256  0.3225
  384SOL    HW1 1151   0.179   2.075   2.291  1.1943  0.0739 -1.5425
  384SOL    HW2 1152   0.107   1.925   2.260 -0.8798 -1.6707 -0.2277
  385SOL     OW 1153   2.847   2.094   0.788 -0.0783  0.3080 -0.4130
  385SOL    HW1 1154   2.880   2.027   0.857  0.7370  0.0238 -3.1655
  385SOL    HW2 1155   2.747   2.102   0.795  3.2666  0.3876  1.7232
  386SOL     OW 1156   1.775   0.865   0.943  0.1854 -0.2290  0.2288
  386SOL    HW1 1157   1.770   0.856   0.840 -0.4487 -0.5502 -2.4279
  386SOL    HW2 1158   1.696   0.920   0.978  1.0370 -1.7665 -1.6987
  387SOL     OW 1159   0.326   0.565   1.924  0.4235  0.6238 -0.5255
  387SOL    HW1 1160   0.264   0.638   1.963  0.7678  1.3869  1.2022
  387SOL    HW2 1161   0.405   0.605   1.867  0.1819  2.3217 -0.8014
  388SOL     OW 1162   2.381   0.979   2.357  0.3640 -0.3555 -0.1223
  388SOL    HW1 1163   2.394   1.068   2.407  0.1363  0.3856  0.1995
  388SOL    HW2 1164   2.300   0.931   2.393  2.5354 -0.2470  1.7569
  389SOL     OW 1165   1.783   1.151   2.035 -0.1343 -0.1926  0.1838
  389SOL    HW1 1166   1.790   1.227   1.966 -0.4448  0.0116 -1.1826
  389SOL    HW2 1167   1.867   1.090   2.019  0.3819 -2.0808  1.9140
  390SOL     OW 1168   1.879   2.445   0.445  0.1176  0.7658  0.0467
  390SOL    HW1 1169   1.866   2.493   0.357  2.7132  0.8474  1.9417
  390SOL    HW2 1170   1.826   2.366   0.456  2.8055  2.6389 -1.5484
  391SOL     OW 1171   1.971   2.127   1.261  0.4976 -0.6322  0.3352
  391SOL    HW1 1172   1.903   2.123   1.182  3.3220  1.5099 -0.5721
  391SOL    HW2 1173   2.012   2.037   1.277  0.1059  1.5255 -1.8216
  392SOL     OW 1174   2.717   2.780   1.091 -0.6635  0.2089  0.2615
  392SOL    HW1 1175   2.630   2.791   1.045  0.9535 -3.2026  0.4831
  392SOL    HW2 1176   2.708   2.809   1.190 -1.4682 -0.6458  2.0899
  393SOL     OW 1177   2.204   1.767   3.029 -0.6698 -0.2166  0.1066
  393SOL    HW1 1178   2.150   1.720   0.021  0.0270  0.0300 -0.8806
  393SOL    HW2 1179   2.160   1.766   2.935  1.4272  1.2803 -2.2943
  394SOL     OW 1180   3.073   0.036   2.617 -0.3343 -0.1539  0.3003
  394SOL    HW1 1181   0.029   0.128   2.622 -0.4458 -1.3714 -1.0170
  394SOL    HW2 1182   2.984   0.031   2.663 -0.4987 -0.5036 -0.8193
  395SOL     OW 1183   1.112   0.840   0.901 -0.1147  0.2471 -0.4077
  395SOL    HW1 1184   1.055   0.879   0.974 -0.5973  0.5862 -1.4127
  395SOL    HW2 1185   1.071   0.853   0.809  3.6927  1.5794 -1.4770
  396SOL     OW 1186   1.203   0.858   2.877  0.1243 -0.5584  0.3133
  396SOL    HW1 1187   1.160   0.799   2.803 -2.9002 -1.4056 -0.8403
  396SOL    HW2 1188   1.301   0.860   2.889 -2.7860 -5.6305 -1.8624
  397SOL     OW 1189   0.387   0.541   2.399 -0.9100 -0.4226 -0.2814
  397SOL    HW1 1190   0.360   0.635   2.423  0.5826  2.3986 -0.1207
  397SOL    HW2 1191   0.324   0.503   2.329  0.2954  0.4047 -3.3159
  398SOL     OW 1192   1.063   0.083   2.998 -1.0615 -0.1751  0.2833
  398SOL    HW1 1193   1.032   0.161   2.941 -2.0874 -0.2129 -1.5949
  398SOL    HW2 1194   1.011   3.074   2.970 -1.5794 -0.7357 -1.2906
  399SOL     OW 1195   2.063   2.825   1.825 -0.1916 -0.1923  0.0817
  399SOL    HW1 1196   2.146   2.793   1.777  0.1654 -0.2392 -2.6903
  399SOL    HW2 1197   2.037   2.922   1.807 -0.2217  3.9159  1.2313
  400SOL     OW 1198   0.558   1.905   2.435 -0.1743  0.1554 -0.2221
  400SOL    HW1 1199   0.549   1.806   2.445 -2.4564 -0.5516  0.1043
  400SOL    HW2 1200   0.556   1.937   2.337 -0.2583 -1.1394 -0.2059
  401SOL     OW 1201   0.808   0.492   2.602  0.1657  0.1367 -0.4617
  401SOL    HW1 1202   0.849   0.408   2.568 -0.2275  2.0522 -0.0241
  401SOL    HW2 1203   0.816   0.494   2.702 -0.4918  0.5917 -3.9545
  402SOL     OW 1204   2.955   2.364   2.049 -0.0412  0.0894 -0.5314
  402SOL    HW1 1205   2.956   2.260   2.040  1.1730 -1.8094  1.4903
  402SOL    HW2 1206   2.858   2.396   2.037  0.7083 -1.3228 -1.2430
  403SOL     OW 1207   0.477   1.211   2.042  0.0385  0.2264 -0.3088
  403SOL    HW1 1208   0.536   1.145   2.098  0.8769 -1.5580  0.2776
  403SOL    HW2 1209   0.479   1.200   1.940 -0.8701 -1.0031 -2.4919
  404SOL     OW 1210   3.065   2.502   1.627  0.2308 -0.0733 -0.4331
  404SOL    HW1 1211   0.006   2.413   1.587  0.7468  4.0925  0.6313
  404SOL    HW2 1212   3.028   2.575   1.568 -1.5423  1.9076  0.6594
  405SOL     OW 1213   0.177   0.417   1.731  0.1875 -0.3619  0.2163
  405SOL    HW1 1214   0.234   0.434   1.817 -0.0293 -0.2280 -1.3354
  405SOL    HW2 1215   0.240   0.370   1.663  0.6801  0.1929  2.4108
  406SOL     OW 1216   1.770   2.218   3.013 -0.0208  0.1703  0.1664
  406SOL    HW1 1217   1.842   2.172   3.071 -1.3976  2.1975  0.7821
  406SOL    HW2 1218   1.824   2.278   2.948  2.6546  1.5860  1.1666
  407SOL     OW 1219   1.463   1.143   2.007  0.4184 -0.3143 -0.3792
  407SOL    HW1 1220   1.452   1.167   2.105  0.0935  0.5889  0.6448
  407SOL    HW2 1221   1.563   1.137   1.989 -2.4043 -0.1987  0.1002
  408SOL     OW 1222   0.553   0.124   2.682  0.1049 -0.3179  0.0289
  408SOL    HW1 1223   0.508   0.036   2.654  0.4975  2.7770  0.3154
  408SOL    HW2 1224   0.609   0.162   2.604 -0.2268  0.2334  0.7765
  409SOL     OW 1225   0.175   1.972   0.410  0.6201  0.2138 -0.0771
  409SOL    HW1 1226   0.090   1.970   0.472 -0.5832  0.1244  0.9727
  409SOL    HW2 1227   0.258   1.929   0.452  2.7011  0.8485  1.0908
  410SOL     OW 1228   2.582   1.761   0.367  0.1008  0.3617  0.3607
  410SOL    HW1 1229   2.585   1.859   0.350 -2.1884  0.6168  1.9411
  410SOL    HW2 1230   2.609   1.709   0.283  0.7806 -1.8238 -2.9051
  411SOL     OW 1231   2.857   0.441   0.991 -0.5982  0.0259  0.1605
  411SOL    HW1 1232   2.768   0.446   0.947 -0.9781  1.7622  3.3707
  411SOL    HW2 1233   2.876   0.343   1.013 -3.2653  0.7659  0.4619
  412SOL     OW 1234   1.442   0.785   1.213 -0.2347 -0.2576  0.0543
  412SOL    HW1 1235   1.530   0.816   1.247 -1.0559 -1.5719 -0.0742
  412SOL    HW2 1236   1.380   0.861   1.198 -0.2514 -3.6636 -2.6939
  413SOL     OW 1237   0.528   2.854   1.060  0.3090  0.1212  0.5822
  413SOL    HW1 1238   0.579   2.924   1.004  0.8135 -0.5091  0.6924
  413SOL    HW2 1239   0.504   2.897   1.151 -2.1028  1.4653  0.7159
  414SOL     OW 1240   2.948   1.757   2.926 -0.4410 -0.4186 -0.1502
  414SOL    HW1 1241   2.910   1.796   2.840 -1.2635 -0.7509  1.7854
  414SOL    HW2 1242   3.018   1.819   2.970  1.6649  0.2014 -1.1037
  415SOL     OW 1243   0.401   2.327   2.784  0.2420  0.1071  0.2129
  415SOL    HW1 1244   0.426   2.247   2.843 -1.6730 -0.5916 -0.4367
  415SOL    HW2 1245   0.338   2.306   2.707  1.7054  0.1101  0.2097
  416SOL     OW 1246   1.372   0.497   0.422 -0.0847 -0.5919  0.2976
  416SOL    HW1 1247   1.465   0.525   0.386  2.2426  1.0410  0.0662
  416SOL    HW2 1248   1.396   0.473   0.519 -1.1943  1.7636  0.9969
  417SOL     OW 1249   0.156   1.203   0.553 -0.5605  0.3242  0.1803
  417SOL    HW1 1250   0.241   1.179   0.503 -1.9202  1.0028  1.3096
  417SOL    HW2 1251   0.116   1.127   0.612 -0.4468  1.5020  2.7767
  418SOL     OW 1252   2.660   1.229   2.177 -0.2719 -0.3719 -0.8258
  418SOL    HW1 1253   2.564   1.262   2.169 -1.4603 -3.8376 -0.4008
  418SOL    HW2 1254   2.673   1.190   2.271 -0.3550 -2.0378  1.2512
  419SOL     OW 1255   0.327   0.638   3.027 -0.1763 -0.3419 -0.3611
  419SOL    HW1 1256   0.328   0.706   0.026 -1.7778  1.9309 -0.8627
  419SOL    HW2 1257   0.259   0.559   3.056  0.1620 -0.8062 -0.3692
  420SOL     OW 1258   0.471   1.463   0.949 -0.2773 -0.3005  0.2497
  420SOL    HW1 1259   0.366   1.463   0.947 -2.6344 -0.9109  0.1659
  420SOL    HW2 1260   0.509   1.405   0.874 -0.7249 -0.9394 -1.8285
  421SOL     OW 1261   0.832   2.320   0.698 -0.1149 -0.3870  0.1448
  421SOL    HW1 1262   0.885   2.255   0.756  0.4971  3.4893  1.6749
  421SOL    HW2 1263   0.899   2.376   0.641 -0.0708  1.9183  0.1746
  422SOL     OW 1264   3.016   0.927   1.410  0.0447 -0.2290  0.7581
  422SOL    HW1 1265   0.018   0.987   1.393 -0.3573 -2.7075 -0.2441
  422SOL    HW2 1266   3.051   0.838   1.446  3.3967 -1.3751 -0.9022
  423SOL     OW 1267   1.337   1.490   1.390 -0.6075 -0.5406 -0.3913
  423SOL    HW1 1268   1.300   1.487   1.483 -0.4886  0.3405 -3.1144
  423SOL    HW2 1269   1.404   1.568   1.389  1.3863 -0.3724  1.1398
  424SOL     OW 1270   2.165   0.983   2.908  0.2979 -0.2422 -0.1701
  424SOL    HW1 1271   2.147   1.019   3.004  0.8573  1.5441  1.9616
  424SOL    HW2 1272   2.226   1.051   2.859 -0.2583  0.0761 -1.7198
  425SOL     OW 1273   3.011   0.302   1.726 -0.2444 -0.3324  0.5841
  425SOL    HW1 1274   0.026   0.347   1.726  0.1335 -0.3561  3.0414
  425SOL    HW2 1275   2.935   0.366   1.748 -1.9345  1.7581 -4.4319
  426SOL     OW 1276   2.593   2.625   2.691 -0.1724 -0.4349  0.6683
  426SOL    HW1 1277   2.657   2.567   2.742  1.8318 -0.2405  1.1926
  426SOL    HW2 1278   2.498   2.591   2.710 -1.2675 -0.1597  1.6805
  427SOL     OW 1279   1.047   0.725   2.337 -0.5462  0.2703  0.1256
  427SOL    HW1 1280   1.148   0.721   2.337 -0.5580  0.6797  0.3373
  427SOL    HW2 1281   1.013   0.681   2.251  1.3535 -1.2625  0.7879
  428SOL     OW 1282   1.996   1.000   2.017  0.0899 -0.1824  0.1170
  428SOL    HW1 1283   2.092   1.002   1.977  0.5600  0.2455 -0.6659
  428SOL    HW2 1284   1.970   0.907   2.039 -0.2145  2.8116  0.1522
  429SOL     OW 1285   0.009   2.837   0.457 -0.3943 -0.4302  0.0482
  429SOL    HW1 1286   0.084   2.844   0.524 -0.8349  2.7085 -0.6867
  429SOL    HW2 1287   3.025   2.917   0.461 -2.7801  1.7022  1.0850
  430SOL     OW 1288   2.043   1.478   2.278 -0.0221  0.1234  0.3967
  430SOL    HW1 1289   2.121   1.417   2.303  2.3892  0.5877 -0.7359
  430SOL    HW2 1290   1.954   1.432   2.298 -4.0146  0.5376  3.1724
  431SOL     OW 1291   0.238   1.941   1.313 -0.1934 -0.0131 -0.0291
  431SOL    HW1 1292   0.222   2.016   1.383  0.5859 -1.2117  0.2323
  431SOL    HW2 1293   0.293   1.980   1.232  1.9240 -1.7962 -2.2084
  432SOL     OW 1294   1.653   0.268   2.410 -0.6474  0.0022 -0.6940
  432SOL    HW1 1295   1.674   0.230   2.504  0.4569 -0.4656  1.4300
  432SOL    HW2 1296   1.691   0.359   2.394 -1.3686 -0.2766 -1.6135
  433SOL     OW 1297   1.463   2.998   1.954 -0.0183  0.5365  0.7243
  433SOL    HW1 1298   1.495   2.979   1.861  0.8945 -1.2031 -0.2187
  433SOL    HW2 1299   1.547   2.999   2.016  1.4576  0.6471  2.5730
  434SOL     OW 1300   0.410   2.775   2.119  0.0419 -0.1875  0.1822
  434SOL    HW1 1301   0.478   2.787   2.195  0.7487 -1.0858  0.8797
  434SOL    HW2 1302   0.321   2.749   2.160 -1.1491  1.6358 -1.2771
  435SOL     OW 1303   0.388   2.195   0.111  0.4709 -0.3249 -0.3152
  435SOL    HW1 1304   0.401   2.296   0.131  1.3120  1.6424  2.9012
  435SOL    HW2 1305   0.456   2.144   0.172  0.9409  2.1013  0.3207
  436SOL     OW 1306   0.461   0.739   1.767 -0.1055 -0.1482  0.2323
  436SOL    HW1 1307   0.544   0.695   1.725 -0.6576  0.8647 -2.6892
  436SOL    HW2 1308   0.414   0.793   1.694 -3.7889  0.8767 -2.5850
  437SOL     OW 1309   0.606   2.819   2.352 -0.0103 -0.1222 -0.2145
  437SOL    HW1 1310   0.615   2.925   2.346  0.9344  1.2924  1.2204
  437SOL    HW2 1311   0.592   2.793   2.449 -1.5093  3.7105 -0.1112
  438SOL     OW 1312   0.728   1.712   1.523  0.3448 -0.3282  0.2346
  438SOL    HW1 1313   0.709   1.784   1.594  0.4023 -0.0887  2.1568
  438SOL    HW2 1314   0.692   1.621   1.558 -0.9061 -1.7609  1.1399
  439SOL     OW 1315   2.149   0.724   2.782 -0.5017  0.1711  0.8502
  439SOL    HW1 1316   2.132   0.825   2.789  1.9994 -2.2863 -0.1240
  439SOL    HW2 1317   2.178   0.685   2.873 -1.3053 -0.1710  0.3731
  440SOL     OW 1318   0.822   0.460   0.092  0.1561  0.2007 -0.2226
  440SOL    HW1 1319   0.745   0.391   0.077 -0.6759  1.5838 -1.6165
  440SOL    HW2 1320   0.813   0.513   0.172  0.8269  0.3916 -0.5792
  441SOL     OW 1321   0.814   2.399   1.473  0.1331  0.2355 -0.5578
  441SOL    HW1 1322   0.785   2.477   1.420  0.0448 -0.1995  1.5388
  441SOL    HW2 1323   0.757   2.318   1.450  2.8001  2.2676 -2.3968
  442SOL     OW 1324   2.980   1.529   0.753  0.6235  0.0926 -0.3848
  442SOL    HW1 1325   2.899   1.543   0.694 -0.6175  1.4445  0.3887
  442SOL    HW2 1326   2.951   1.500   0.846  1.4939 -0.9388  1.3905
  443SOL     OW 1327   2.531   2.047   2.650 -0.3716 -0.0445  0.4287
  443SOL    HW1 1328   2.606   2.033   2.583  0.0361 -1.0611  0.5864
  443SOL    HW2 1329   2.502   1.953   2.688 -0.4905 -0.6926  1.1011
  444SOL     OW 1330   1.728   1.090   2.968 -0.1324  0.2165 -0.1884
  444SOL    HW1 1331   1.807   1.126   2.916 -0.7394 -0.4650 -0.2407
  444SOL    HW2 1332   1.653   1.054   2.909 -0.1526 -3.4486  0.6048
  445SOL     OW 1333   2.641   2.704   1.891  0.0682 -0.1441 -0.5387
  445SOL    HW1 1334   2.724   2.748   1.842  2.1965  2.0028  0.0235
  445SOL    HW2 1335   2.575   2.659   1.827  0.1021 -1.4467 -1.5186
  446SOL     OW 1336   0.032   1.176   1.016  0.0389 -0.3040 -0.5947
  446SOL    HW1 1337   0.110   1.239   1.023  0.8260 -2.0545 -1.4248
  446SOL    HW2 1338   3.030   1.216   1.068 -1.3043  0.9057 -0.0341
  447SOL     OW 1339   1.021   1.934   1.157 -0.6083  0.0298 -0.4146
  447SOL    HW1 1340   1.011   1.967   1.254 -1.8882  0.5832  0.1721
  447SOL    HW2 1341   0.941   1.871   1.133 -1.2225  0.5675 -1.0650
  448SOL     OW 1342   1.171   1.051   1.652  0.2843 -0.3287 -0.1486
  448SOL    HW1 1343   1.192   1.107   1.568  3.3308  0.3725 -0.1467
  448SOL    HW2 1344   1.194   0.956   1.626 -0.9923  0.6588 -1.6572
  449SOL     OW 1345   2.820   2.167   2.307 -0.4402 -0.1933 -0.5089
  449SOL    HW1 1346   2.760   2.248   2.300  0.9392  0.1901  0.8584
  449SOL    HW2 1347   2.860   2.149   2.216 -0.5621  2.0876  2.0694
  450SOL     OW 1348   0.070   1.687   1.737 -0.3325 -0.6312  0.1630
  450SOL    HW1 1349   3.046   1.665   1.744 -1.8158 -2.7253 -0.5420
  450SOL    HW2 1350   0.124   1.623   1.793 -0.1904  0.1311  0.6011
  451SOL     OW 1351   2.195   0.483   1.142 -0.7252  0.0970 -0.1686
  451SOL    HW1 1352   2.202   0.577   1.181 -0.0691  1.7937  0.3365
  451SOL    HW2 1353   2.126   0.478   1.067 -1.2286 -2.0318  2.8896
  452SOL     OW 1354   0.589   1.319   0.765 -0.1241  0.5756 -0.4719
  452SOL    HW1 1355   0.575   1.231   0.809 -0.4708  0.1843 -0.4982
  452SOL    HW2 1356   0.687   1.335   0.746 -0.8488  0.5301  1.6758
  453SOL     OW 1357   1.526   1.997   0.610  0.1409 -0.3022  0.9454
  453SOL    HW1 1358   1.423   2.009   0.608 -5.0665  0.7835  0.0797
  453SOL    HW2 1359   1.567   2.073   0.664 -0.6434  1.1554  0.4163
  454SOL     OW 1360   0.541   1.800   0.138  0.2123 -0.4353  1.0490
  454SOL    HW1 1361   0.570   1.755   0.052  0.4322 -1.0784 -1.4898
  454SOL    HW2 1362   0.474   1.743   0.187 -0.4833  0.9956  0.8600
  455SOL     OW 1363   1.190   1.078   0.424  0.2211 -0.1790  0.0434
  455SOL    HW1 1364   1.099   1.031   0.407 -1.6800 -0.6630 -0.6569
  455SOL    HW2 1365   1.211   1.059   0.524 -0.1626  1.6915  0.7805
  456SOL     OW 1366   2.076   2.370   1.174 -0.0467  0.5613  0.2989
  456SOL    HW1 1367   2.035   2.288   1.213  1.3814  2.3572  1.9437
  456SOL    HW2 1368   2.024   2.448   1.216 -0.1813  0.3594 -0.8041
  457SOL     OW 1369   1.912   3.073   2.877 -0.2501  0.1078  0.2911
  457SOL    HW1 1370   1.896   3.046   2.975  0.9748  0.5225  0.1228
  457SOL    HW2 1371   1.974   3.011   2.831  1.2994  0.9746  0.8393
  458SOL     OW 1372   2.556   0.912   0.506 -0.1048 -0.3491 -0.3340
  458SOL    HW1 1373   2.530   0.834   0.445  0.1449  0.8101  0.7991
  458SOL    HW2 1374   2.469   0.956   0.537 -0.0542  0.1331 -0.3317
  459SOL     OW 1375   2.892   0.239   2.483  0.2609  0.0797 -0.0793
  459SOL    HW1 1376   2.890   0.216   2.582 -1.7250 -0.4202 -1.1392
  459SOL    HW2 1377   2.816   0.304   2.451 -0.8396  0.8488  1.1507
  460SOL     OW 1378   2.838   0.837   2.770 -0.5560  0.0025  0.0609
  460SOL    HW1 1379   2.787   0.892   2.705  2.5947 -2.1190  1.9266
  460SOL    HW2 1380   2.936   0.865   2.768 -2.2673  1.8409  1.1704
  461SOL     OW 1381   2.856   2.365   0.861  0.0915  0.4702 -0.1932
  461SOL    HW1 1382   2.880   2.400   0.954 -1.6473 -2.5825  0.1800
  461SOL    HW2 1383   2.874   2.266   0.847  1.2778 -0.4600 -0.1889
  462SOL     OW 1384   3.047   2.920   1.653  1.3848 -0.8849  0.4509
  462SOL    HW1 1385   3.016   3.013   1.617 -1.1305 -0.1910  1.2027
  462SOL    HW2 1386   0.067   2.912   1.664 -0.7012 -0.9724 -0.9866
  463SOL     OW 1387   2.313   1.778   2.524 -0.3782 -0.3997  0.3584
  463SOL    HW1 1388   2.348   1.715   2.596 -1.5547  0.1267 -1.1898
  463SOL    HW2 1389   2.213   1.761   2.504 -1.5670  0.4279  0.9174
  464SOL     OW 1390   0.639   2.803   1.382 -0.2068  0.3906 -0.3101
  464SOL    HW1 1391   0.681   2.777   1.470 -1.9868  0.2331 -1.3650
  464SOL    HW2 1392   0.609   2.905   1.379  2.1805  0.9966 -1.7148
  465SOL     OW 1393   0.739   0.167   1.415 -0.4364  0.1738  0.4554
  465SOL    HW1 1394   0.744   0.115   1.324 -3.0121  0.0282 -1.5996
  465SOL    HW2 1395   0.644   0.194   1.440  0.4939 -1.8451 -0.3484
  466SOL     OW 1396   1.435   2.598   1.903  0.2688  0.0994 -0.1076
  466SOL    HW1 1397   1.525   2.608   1.942 -1.7018 -1.8724  0.0018
  466SOL    HW2 1398   1.372   2.674   1.921  3.2509  0.0919  0.4368
  467SOL     OW 1399   0.619   2.019   1.238  0.2078 -0.2358  0.4759
  467SOL    HW1 1400   0.643   1.918   1.240 -1.1936 -1.5959  2.7387
  467SOL    HW2 1401   0.524   2.035   1.203  1.0061 -0.3144 -3.0154
  468SOL     OW 1402   2.741   1.447   2.498 -0.6122  0.0685 -0.4268
  468SOL    HW1 1403   2.829   1.471   2.450  1.5747 -1.0780 -2.0331
  468SOL    HW2 1404   2.659   1.485   2.447 -0.2314  1.4073 -2.7650
  469SOL     OW 1405   1.066   1.839   0.565  0.7010 -0.6333 -0.0058
  469SOL    HW1 1406   1.112   1.755   0.532 -0.6978 -0.5383 -1.9566
  469SOL    HW2 1407   1.013   1.816   0.649 -0.1639 -1.5439  2.7702
  470SOL     OW 1408   2.157   1.196   1.588  0.6054 -0.0404  0.0427
  470SOL    HW1 1409   2.234   1.251   1.613 -0.7249 -2.6320 -1.1897
  470SOL    HW2 1410   2.067   1.228   1.627  2.2841 -1.2758  2.4293
  471SOL     OW 1411   0.334   2.489   2.996 -0.0021  0.5045 -0.5124
  471SOL    HW1 1412   0.363   2.423   2.922  1.6765 -2.8243 -0.8115
  471SOL    HW2 1413   0.405   2.484   3.069 -1.2299 -0.6206 -0.0837
  472SOL     OW 1414   2.891   1.824   1.982  0.2756  0.5345 -1.0551
  472SOL    HW1 1415   2.871   1.754   1.909 -0.3488 -0.7688 -0.6055
  472SOL    HW2 1416   2.842   1.800   2.075  2.7773 -3.5426  1.3787
  473SOL     OW 1417   1.068   0.021   0.176  0.6808 -0.0974 -0.1744
  473SOL    HW1 1418   1.116   3.008   0.169  0.7540 -1.6796 -0.5156
  473SOL    HW2 1419   1.068   0.066   0.086  0.7059 -1.6739  2.0821
  474SOL     OW 1420   2.613   2.482   0.807  0.7409 -0.0658 -0.8372
  474SOL    HW1 1421   2.646   2.570   0.772 -1.9030 -2.1320 -0.6714
  474SOL    HW2 1422   2.697   2.423   0.834  2.2951 -1.2327 -0.2805
  475SOL     OW 1423   1.947   2.615   1.670  0.1440  0.8231 -0.3831
  475SOL    HW1 1424   2.018   2.625   1.596  0.2743  1.2479  0.9584
  475SOL    HW2 1425   1.952   2.690   1.737  0.0928  0.2323  0.0437
  476SOL     OW 1426   0.637   0.860   0.719  0.0842 -0.3972  0.1810
  476SOL    HW1 1427   0.582   0.791   0.668  1.3644  0.5430  2.2702
  476SOL    HW2 1428   0.684   0.813   0.798  1.2526 -0.8990  2.4509
  477SOL     OW 1429   0.559   1.920   0.878 -0.0087  0.3187  0.2032
  477SOL    HW1 1430   0.466   1.953   0.896 -0.0733  1.1557 -2.9696
  477SOL    HW2 1431   0.584   1.946   0.786  1.2311  0.0601  1.3219
  478SOL     OW 1432   0.074   2.463   2.240 -0.0641  0.1462  0.2979
  478SOL    HW1 1433   0.039   2.437   2.333 -0.7444  0.1023  1.2720
  478SOL    HW2 1434   0.004   2.437   2.166  1.1457 -1.5720  4.0367
  479SOL     OW 1435   0.074   0.665   1.586  0.0279 -0.2474 -0.7189
  479SOL    HW1 1436   0.118   0.609   1.660 -0.0812 -0.1916 -0.6048
  479SOL    HW2 1437   0.037   0.609   1.512  0.3820  1.9700  2.1609
  480SOL     OW 1438   2.954   2.456   3.032  0.4975  0.0466 -0.4383
  480SOL    HW1 1439   3.000   2.371   2.993 -2.8501  1.7600 -0.6707
  480SOL    HW2 1440   2.940   2.440   0.056 -1.0896  1.1335  0.8048
  481SOL     OW 1441   1.946   1.912   2.269 -0.5408 -0.1900  0.6043
  481SOL    HW1 1442   1.993   1.860   2.341 -2.1834  1.3549  2.5417
  481SOL    HW2 1443   1.981   1.878   2.178 -1.6390 -1.3049  1.3605
  482SOL     OW 1444   1.571   2.246   0.135  0.1679 -0.2422  0.2647
  482SOL    HW1 1445   1.489   2.253   0.068 -0.4552 -0.0181 -0.1701
  482SOL    HW2 1446   1.654   2.230   0.079  1.1740 -0.9367 -1.1346
  483SOL     OW 1447   0.537   1.917   2.157 -0.0672 -0.2784 -0.6508
  483SOL    HW1 1448   0.610   1.930   2.082  1.8410  0.4732 -2.1793
  483SOL    HW2 1449   0.443   1.919   2.115 -0.5501 -0.3583  2.8594
  484SOL     OW 1450   2.910   0.593   1.211 -0.6208  0.2946  0.3749
  484SOL    HW1 1451   2.904   0.547   1.115  0.1717 -1.8057 -1.9622
  484SOL    HW2 1452   2.911   0.691   1.191 -1.9418 -0.7409 -1.7080
  485SOL     OW 1453   2.315   0.990   0.563  0.6013 -0.1078 -0.5321
  485SOL    HW1 1454   2.275   0.895   0.564  2.6670 -2.8256  0.0275
  485SOL    HW2 1455   2.247   1.062   0.542 -0.2497 -1.0723  0.3136
  486SOL     OW 1456   1.435   0.257   2.253 -0.3581  0.1566 -0.2476
  486SOL    HW1 1457   1.479   0.277   2.163  1.1520 -2.6125 -0.6276
  486SOL    HW2 1458   1.505   0.260   2.330  2.0174  1.0208 -1.0407
  487SOL     OW 1459   1.071   1.359   1.031  0.1348  0.4754 -0.3828
  487SOL    HW1 1460   1.041   1.266   1.063  0.7257  1.6925 -0.8554
  487SOL    HW2 1461   1.159   1.349   0.987 -6.4165 -1.7418 -1.4584
  488SOL     OW 1462   2.373   1.381   2.905  0.9473  0.0727 -0.0649
  488SOL    HW1 1463   2.358   1.455   2.837  0.4644 -0.2867 -1.6553
  488SOL    HW2 1464   2.407   1.423   2.992  2.9910  2.7187 -1.7911
  489SOL     OW 1465   2.305   0.315   0.281 -0.1969  0.5673  0.0041
  489SOL    HW1 1466   2.347   0.300   0.370  0.1021  1.1363 -2.8169
  489SOL    HW2 1467   2.317   0.233   0.223 -0.2884  1.3618 -1.2724
  490SOL     OW 1468   1.505   2.624   0.517  0.2876  0.3774 -0.3441
  490SOL    HW1 1469   1.594   2.678   0.513  0.4559 -0.8954  3.2196
  490SOL    HW2 1470   1.485   2.582   0.426 -0.6876 -1.3435 -1.8525
  491SOL     OW 1471   0.906   0.933   0.659  0.2360 -0.2305 -0.6904
  491SOL    HW1 1472   0.811   0.894   0.677 -0.4795 -1.4269 -0.1259
  491SOL    HW2 1473   0.927   0.936   0.559  0.4016  2.1036  1.3911
  492SOL     OW 1474   1.532   0.198   0.019 -0.2996  0.1710  0.2634
  492SOL    HW1 1475   1.611   0.160   3.043 -0.1111  0.8330  0.0166
  492SOL    HW2 1476   1.449   0.189   3.036  0.7716 -2.2839 -2.9104
  493SOL     OW 1477   1.921   2.087   0.150  0.1249 -0.1704 -0.1071
  493SOL    HW1 1478   1.955   2.150   0.226  0.3376  0.0299  0.2358
  493SOL    HW2 1479   1.840   2.032   0.167 -0.1753  0.8955 -1.6311
  494SOL     OW 1480   0.384   1.118   0.431  0.3090  0.3512 -0.6318
  494SOL    HW1 1481   0.420   1.216   0.444 -1.3937  2.1211  0.3473
  494SOL    HW2 1482   0.379   1.090   0.334  0.3238  1.4089 -0.0083
  495SOL     OW 1483   2.945   2.731   0.879 -0.2693  0.4012  0.0698
  495SOL    HW1 1484   2.934   2.674   0.965 -0.3525 -1.5487  0.1757
  495SOL    HW2 1485   3.028   2.699   0.829  0.8524 -2.0355 -1.9415
  496SOL     OW 1486   2.227   0.066   1.650  0.4059 -0.2526 -0.1401
  496SOL    HW1 1487   2.181   0.036   1.571  0.1801  1.3468  3.2997
  496SOL    HW2 1488   2.195   0.159   1.664 -0.7058 -0.4109 -2.5399
  497SOL     OW 1489   1.902   1.616   2.642  0.0472  0.3355 -0.8716
  497SOL    HW1 1490   1.928   1.514   2.623 -0.6008 -0.8174  1.4495
  497SOL    HW2 1491   1.802   1.620   2.669 -1.8457  0.1711  2.2535
  498SOL     OW 1492   0.954   1.771   0.812  0.1346 -0.8858 -0.4007
  498SOL    HW1 1493   0.894   1.840   0.861 -0.8513  3.6111 -0.3054
  498SOL    HW2 1494   0.942   1.676   0.842  0.8855  0.4019  0.0973
  499SOL     OW 1495   0.741   2.126   1.457  1.0001  0.2704  0.5109
  499SOL    HW1 1496   0.691   2.081   1.379  2.2750  2.4807  2.1521
  499SOL    HW2 1497   0.691   2.104   1.548 -0.3430 -0.8256  2.7154
  500SOL     OW 1498   1.057   2.021   0.195 -0.3469  0.1770  0.4505
  500SOL    HW1 1499   1.016   2.014   0.285  2.6374 -1.9346 -1.2263
  500SOL    HW2 1500   1.143   2.082   0.203  2.6449  1.5487 -0.9305
  501SOL     OW 1501   2.552   2.911   1.280  0.4666  0.2211 -0.1369
  501SOL    HW1 1502   2.491   2.915   1.200  1.8961 -0.2879 -1.3010
  501SOL    HW2 1503   2.538   2.821   1.331  0.6031  0.2239  1.3825
  502SOL     OW 1504   0.267   0.875   1.583  0.1194  0.7830 -0.1712
  502SOL    HW1 1505   0.205   0.792   1.578  1.9927  0.8006  1.2904
  502SOL    HW2 1506   0.348   0.865   1.514 -0.2320  3.8996 -2.9241
  503SOL     OW 1507   1.931   0.637   1.591  0.0594  0.0089 -0.6141
  503SOL    HW1 1508   2.017   0.595   1.567 -1.4884  0.6891  1.3510
  503SOL    HW2 1509   1.871   0.651   1.511  0.1566  1.0538 -1.8965
  504SOL     OW 1510   1.350   0.701   2.281 -0.4150 -0.0903 -0.0913
  504SOL    HW1 1511   1.440   0.699   2.324 -0.8189  0.7618  0.8775
  504SOL    HW2 1512   1.350   0.754   2.193  0.2132 -0.7311  0.1679
  505SOL     OW 1513   0.589   0.006   2.370 -0.2878 -0.2739 -0.0660
  505SOL    HW1 1514   0.682   0.036   2.409 -1.1911  1.1109 -0.3178
  505SOL    HW2 1515   0.520   3.065   2.442  2.0242 -1.4358  1.4771
  506SOL     OW 1516   0.295   0.448   1.350 -0.0876 -0.2031  0.1302
  506SOL    HW1 1517   0.321   0.388   1.429 -0.8352 -0.9889  0.6151
  506SOL    HW2 1518   0.193   0.454   1.346 -1.6348  0.7725  0.7837
  507SOL     OW 1519   1.323   0.150   2.887 -0.0174  0.2259 -0.0076
  507SOL    HW1 1520   1.236   0.124   2.931  2.2796 -1.9171  1.6984
  507SOL    HW2 1521   1.343   0.079   2.817 -3.8642 -1.3597 -3.0276
  508SOL     OW 1522   2.108   0.185   2.525 -0.3726 -0.0045  1.4210
  508SOL    HW1 1523   2.149   0.210   2.433  0.0915  1.2553  0.4105
  508SOL    HW2 1524   2.025   0.120   2.511 -3.0556 -1.1822  0.7404
  509SOL     OW 1525   0.749   1.312   1.914  0.6639 -0.0241 -0.3334
  509SOL    HW1 1526   0.800   1.228   1.942  0.4068 -2.1274  2.7708
  509SOL    HW2 1527   0.743   1.366   2.004  2.1786 -0.1966 -0.5899
  510SOL     OW 1528   3.022   1.134   0.767 -0.1121 -0.1606  0.1208
  510SOL    HW1 1529   3.057   1.141   0.860 -1.2609 -0.5861 -1.6438
  510SOL    HW2 1530   2.940   1.197   0.762  0.1627  1.0304 -1.9445
  511SOL     OW 1531   1.750   1.642   0.849  0.5365 -0.3952 -0.6463
  511SOL    HW1 1532   1.728   1.679   0.757 -1.1371 -2.0824  1.6791
  511SOL    HW2 1533   1.851   1.628   0.869 -2.2589  1.1599  0.8373
  512SOL     OW 1534   0.552   1.331   0.496  0.5458 -0.2202 -0.5372
  512SOL    HW1 1535   0.639   1.347   0.449 -1.0169  2.4317  0.4491
  512SOL    HW2 1536   0.557   1.315   0.597 -0.8054  1.3778 -1.3623
  513SOL     OW 1537   0.541   2.288   0.610  0.7921  0.0251 -0.0688
  513SOL    HW1 1538   0.504   2.377   0.569 -2.2207  3.2867 -0.6284
  513SOL    HW2 1539   0.635   2.303   0.653  1.4557  1.1339  2.0830
  514SOL     OW 1540   2.652   1.963   2.411  0.4623 -0.2438 -0.2734
  514SOL    HW1 1541   2.553   1.990   2.386 -2.4698 -0.9753  0.2439
  514SOL    HW2 1542   2.717   2.032   2.370  2.2134 -0.4140 -2.7454
  515SOL     OW 1543   2.490   0.777   3.023 -0.4698  0.7293 -0.3269
  515SOL    HW1 1544   2.390   0.765   3.032  4.3238  0.3439  1.1181
  515SOL    HW2 1545   2.530   0.799   0.037  1.0414 -2.5853  1.5801
  516SOL     OW 1546   1.888   0.047   0.661  0.2605  0.2709  0.5610
  516SOL    HW1 1547   1.909   3.024   0.669 -2.6494 -0.2036 -1.0821
  516SOL    HW2 1548   1.845   0.064   0.571 -0.2939  1.0108 -1.7336
  517SOL     OW 1549   1.173   2.165   2.908 -0.1743 -0.1256  0.4091
  517SOL    HW1 1550   1.123   2.071   2.921 -0.8387 -5.3679  2.3743
  517SOL    HW2 1551   1.255   2.155   2.845 -1.2034 -1.5250 -1.1130
  518SOL     OW 1552   0.867   0.711   1.776  0.4516  0.1457  0.3297
  518SOL    HW1 1553   0.915   0.621   1.771 -1.6076  1.3125  0.9308
  518SOL    HW2 1554   0.902   0.762   1.854  1.8780 -1.9724 -1.1934
  519SOL     OW 1555   0.051   1.371   0.090  0.0672  0.0412 -0.1533
  519SOL    HW1 1556   0.083   1.468   0.068 -0.6632 -0.2232 -0.1560
  519SOL    HW2 1557   3.069   1.362   0.174 -1.4663  0.6899  0.8694
  520SOL     OW 1558   2.121   2.026   1.881 -0.0955  0.2334 -0.4053
  520SOL    HW1 1559   2.216   2.063   1.870  0.0546 -0.6867 -0.6548
  520SOL    HW2 1560   2.117   1.977   1.967  0.0232 -0.3767 -2.1517
  521SOL     OW 1561   0.955   2.719   2.416 -0.0757 -0.9205 -0.2469
  521SOL    HW1 1562   0.883   2.685   2.357  1.0227 -0.4559  2.3153
  521SOL    HW2 1563   1.024   2.645   2.417 -0.0493 -1.5146 -0.3495
  522SOL     OW 1564   2.153   0.281   2.046  0.3915 -0.2970  0.0436
  522SOL    HW1 1565   2.161   0.364   1.991 -0.3851 -1.4038  1.8948
  522SOL    HW2 1566   2.183   0.292   2.144 -1.5004 -0.8778 -0.3626
  523SOL     OW 1567   1.674   2.152   1.265 -0.2472 -0.2832 -0.0472
  523SOL    HW1 1568   1.585   2.194   1.230 -0.2875  0.9970 -1.2870
  523SOL    HW2 1569   1.701   2.178   1.360  0.8487 -0.1713  0.7808
  524SOL     OW 1570   1.251   2.230   0.212 -0.4232  0.1536  0.3731
  524SOL    HW1 1571   1.233   2.307   0.274  0.7067 -0.1041 -3.2428
  524SOL    HW2 1572   1.293   2.265   0.126  0.4962 -0.3404 -0.0101
  525SOL     OW 1573   0.101   0.502   0.044 -0.6041 -0.3571 -0.5172
  525SOL    HW1 1574   0.030   0.540   3.066  1.2817 -1.1609  4.7770
  525SOL    HW2 1575   0.103   0.546   0.138 -0.1994  0.5024  0.6148
  526SOL     OW 1576   1.121   2.713   0.331 -0.0641  0.9238  0.2138
  526SOL    HW1 1577   1.020   2.732   0.335 -0.9992  1.1577 -1.8776
  526SOL    HW2 1578   1.164   2.750   0.414  0.2964 -1.4984 -2.1588
  527SOL     OW 1579   2.720   1.745   0.610  0.1588 -0.6410  0.1919
  527SOL    HW1 1580   2.684   1.775   0.702  1.8759  0.4263 -1.5951
  527SOL    HW2 1581   2.652   1.764   0.537 -1.6370  2.0992  0.7289
  528SOL     OW 1582   0.400   0.767   2.215  0.4423  0.3023  1.0097
  528SOL    HW1 1583   0.311   0.765   2.165 -1.7796 -3.3467 -0.4055
  528SOL    HW2 1584   0.482   0.772   2.150  0.6736 -2.8875  1.2538
  529SOL     OW 1585   1.654   1.627   2.721 -0.5765  0.3344 -0.2789
  529SOL    HW1 1586   1.602   1.545   2.753  3.3989 -1.3063  2.3608
  529SOL    HW2 1587   1.599   1.684   2.654 -0.1791 -0.0698 -1.6413
  530SOL     OW 1588   1.909   1.082   2.377 -0.7676  0.1856 -0.0646
  530SOL    HW1 1589   1.816   1.050   2.356  0.2804  0.2029  1.0249
  530SOL    HW2 1590   1.932   1.164   2.318 -0.4777  1.1926 -0.9614
  531SOL     OW 1591   0.550   2.473   2.618 -0.4133 -0.0325 -0.0947
  531SOL    HW1 1592   0.499   2.507   2.539 -1.3181 -1.4984  1.3347
  531SOL    HW2 1593   0.489   2.417   2.679  3.0192  1.1250 -0.6501
  532SOL     OW 1594   2.462   1.368   0.693  0.0160 -0.3290  0.9055
  532SOL    HW1 1595   2.397   1.359   0.609 -3.2741  1.5172 -1.6763
  532SOL    HW2 1596   2.410   1.357   0.780 -0.4509  0.6737  3.2406
  533SOL     OW 1597   2.954   0.091   1.589  0.4779 -0.4493 -0.3327
  533SOL    HW1 1598   2.985   0.174   1.642 -1.2741  0.4815 -1.7693
  533SOL    HW2 1599   2.925   0.116   1.498  0.9208 -0.5929  0.8973
  534SOL     OW 1600   0.660   3.058   2.910  0.2586  0.0211 -0.2564
  534SOL    HW1 1601   0.631   0.049   2.840  1.6291 -1.8633  0.6940
  534SOL    HW2 1602   0.600   3.056   2.994 -1.8042 -1.7054  3.8424
  535SOL     OW 1603   0.328   0.344   0.147 -0.5057  0.6809 -0.3248
  535SOL    HW1 1604   0.304   0.320   0.049  0.8770  3.3249  0.4172
  535SOL    HW2 1605   0.299   0.265   0.210  0.1865 -0.6257  0.4308
  536SOL     OW 1606   0.715   1.774   1.251 -0.5110 -0.1361  0.5352
  536SOL    HW1 1607   0.722   1.747   1.351  1.6868 -0.1467 -0.2719
  536SOL    HW2 1608   0.705   1.693   1.186 -0.9339  0.8596  0.7563
  537SOL     OW 1609   0.986   2.611   1.708 -0.0954  0.1571 -0.1423
  537SOL    HW1 1610   1.081   2.610   1.747  4.0658 -1.4151  0.5825
  537SOL    HW2 1611   0.947   2.514   1.707 -1.2873 -0.1331 -1.1951
  538SOL     OW 1612   0.070   1.926   3.006  0.0152 -0.2586 -0.5429
  538SOL    HW1 1613   0.120   1.938   0.021  1.7477 -0.7346  2.6996
  538SOL    HW2 1614   0.134   1.911   2.931  0.8155  0.5739  1.7967
  539SOL     OW 1615   2.911   1.016   2.555 -0.1940 -0.3217  0.0112
  539SOL    HW1 1616   2.966   1.002   2.638 -0.4401  0.2941  1.1034
  539SOL    HW2 1617   2.945   0.957   2.476 -1.8933 -0.2444 -1.7987
  540SOL     OW 1618   1.764   0.490   2.328  0.4609  0.0002  0.6104
  540SOL    HW1 1619   1.690   0.554   2.359 -0.4754  1.0576 -0.1015
  540SOL    HW2 1620   1.857   0.538   2.338 -0.1467  0.5561 -0.2269
  541SOL     OW 1621   0.489   0.399   2.062  0.3620 -0.0891  0.1122
  541SOL    HW1 1622   0.458   0.329   2.128  0.3075 -0.2167 -0.7481
  541SOL    HW2 1623   0.417   0.470   2.038 -0.1431  1.8085 -1.0247
  542SOL     OW 1624   1.850   3.000   0.043 -0.4113 -0.3980 -0.5547
  542SOL    HW1 1625   1.776   2.931   0.054 -1.4993  4.1764 -1.9034
  542SOL    HW2 1626   1.895   3.017   0.130 -2.6050  0.9949  2.3194
  543SOL     OW 1627   1.284   0.112   0.333  0.1949  0.6643  0.2620
  543SOL    HW1 1628   1.284   0.210   0.299  1.9061  2.1761  0.9744
  543SOL    HW2 1629   1.206   0.064   0.290  1.5061 -1.1892 -3.8131
  544SOL     OW 1630   2.494   1.657   1.772 -0.0257  0.3155  0.6028
  544SOL    HW1 1631   2.452   1.567   1.753  1.9923 -1.8357  0.7691
  544SOL    HW2 1632   2.539   1.696   1.694  2.8120 -0.8790 -0.2226
  545SOL     OW 1633   2.106   1.886   1.319 -0.1054 -0.2750  0.8522
  545SOL    HW1 1634   2.162   1.840   1.247  0.0301  0.4756 -1.6178
  545SOL    HW2 1635   2.170   1.924   1.396  1.4133  1.2310  0.1598
  546SOL     OW 1636   0.432   3.064   2.094 -0.3695  0.4506  0.0637
  546SOL    HW1 1637   0.335   0.025   2.084 -1.8981 -1.8684  1.0394
  546SOL    HW2 1638   0.427   2.965   2.080  1.0184  0.2082 -0.9496
  547SOL     OW 1639   1.481   0.781   0.649 -0.4824 -0.4163 -0.2856
  547SOL    HW1 1640   1.440   0.794   0.743 -2.3176 -0.2130 -0.7914
  547SOL    HW2 1641   1.542   0.700   0.644 -1.9331 -2.2047  0.6183
  548SOL     OW 1642   1.510   2.390   2.587  0.6558  0.3229 -0.0009
  548SOL    HW1 1643   1.439   2.449   2.540 -2.4406  1.0704 -0.3359
  548SOL    HW2 1644   1.476   2.303   2.629 -1.2350 -1.3078  0.3538
  549SOL     OW 1645   2.044   0.707   0.301  0.5985 -0.7132 -0.0240
  549SOL    HW1 1646   2.126   0.769   0.296 -0.8420  1.6606  3.6750
  549SOL    HW2 1647   2.012   0.663   0.212  0.9553 -1.7682 -0.5201
  550SOL     OW 1648   3.006   2.079   0.539  0.7369  0.1897  0.4514
  550SOL    HW1 1649   2.950   2.109   0.614  0.2455 -0.2419 -2.7166
  550SOL    HW2 1650   2.995   1.979   0.527 -0.6147 -1.2382  0.5843
  551SOL     OW 1651   1.215   2.645   2.138  0.1649 -0.5163  0.3086
  551SOL    HW1 1652   1.269   2.717   2.183 -0.6131 -0.5094 -0.9687
  551SOL    HW2 1653   1.268   2.561   2.117 -2.7929 -1.6759 -0.2006
  552SOL     OW 1654   2.990   2.433   2.474  0.1958 -0.3200  0.0650
  552SOL    HW1 1655   3.002   2.349   2.532  0.8394 -2.0882 -1.6827
  552SOL    HW2 1656   2.897   2.481   2.479  1.5047 -2.1516 -2.8985
  553SOL     OW 1657   0.088   0.222   0.749 -0.4265  0.4666 -0.6528
  553SOL    HW1 1658   0.101   0.259   0.843  0.3455 -0.2371  1.7323
  553SOL    HW2 1659   0.058   0.125   0.757  1.1526  1.0083  0.7672
  554SOL     OW 1660   2.311   2.243   1.643 -0.0726  0.7286 -0.3666
  554SOL    HW1 1661   2.220   2.283   1.620  2.1594  3.9771  0.5742
  554SOL    HW2 1662   2.326   2.233   1.742  1.0749 -1.4823 -0.7703
  555SOL     OW 1663   1.648   2.316   2.192 -0.0497 -0.0857  0.1570
  555SOL    HW1 1664   1.703   2.255   2.246 -2.1061 -0.3941 -0.7378
  555SOL    HW2 1665   1.694   2.407   2.173 -0.0736  0.3165  1.0670
  556SOL     OW 1666   1.238   1.210   1.445 -0.9533  0.4958  0.2347
  556SOL    HW1 1667   1.287   1.294   1.442 -3.7087 -2.6168 -0.0339
  556SOL    HW2 1668   1.148   1.216   1.403 -0.1386 -0.2631  0.4017
  557SOL     OW 1669   2.046   2.457   2.263 -0.5729 -0.0222 -0.4993
  557SOL    HW1 1670   2.026   2.400   2.342 -1.8822 -0.4359 -0.1558
  557SOL    HW2 1671   2.119   2.521   2.280 -1.4764 -3.7996 -2.9211
  558SOL     OW 1672   0.245   2.916   1.730 -0.3865  0.0024 -0.3662
  558SOL    HW1 1673   0.279   2.826   1.696 -2.3975  0.1223 -1.3616
  558SOL    HW2 1674   0.217   2.902   1.829  0.5043 -0.9936  0.8040
  559SOL     OW 1675   2.222   2.915   0.682 -0.3020  0.2380  0.4586
  559SOL    HW1 1676   2.276   2.831   0.710  1.1884 -0.9270  2.0125
  559SOL    HW2 1677   2.125   2.893   0.660 -0.1530  0.0987  1.1705
  560SOL     OW 1678   1.671   2.757   0.745 -0.2556  0.6496 -0.4909
  560SOL    HW1 1679   1.612   2.711   0.814 -0.9090  3.3626  3.0465
  560SOL    HW2 1680   1.655   2.860   0.751 -0.3172  1.2459 -0.6262
  561SOL     OW 1681   0.934   0.166   0.991 -0.2107  0.4084 -0.4476
  561SOL    HW1 1682   0.911   0.237   0.921  0.7138  0.4008  1.0139
  561SOL    HW2 1683   1.025   0.193   1.033  0.5741  0.3275 -2.3161
  562SOL     OW 1684   0.488   0.902   2.437 -0.0402 -0.5006  0.1415
  562SOL    HW1 1685   0.456   0.837   2.366  3.5256  0.3990  0.3606
  562SOL    HW2 1686   0.428   0.985   2.442  0.4967  1.5050  1.6496
  563SOL     OW 1687   1.526   1.915   2.498  0.2326  0.1549 -0.2175
  563SOL    HW1 1688   1.603   1.950   2.551 -1.7924 -1.6578  0.0573
  563SOL    HW2 1689   1.435   1.926   2.546 -0.6290 -1.8312 -2.1498
  564SOL     OW 1690   2.705   1.070   1.175 -0.1726  0.5576 -0.4177
  564SOL    HW1 1691   2.627   1.074   1.241  0.2511 -2.3464 -3.7856
  564SOL    HW2 1692   2.669   1.040   1.083  0.8460 -0.5564 -1.8966
  565SOL     OW 1693   0.997   0.900   3.036 -0.0667  0.0006  0.2672
  565SOL    HW1 1694   1.085   0.895   2.979  0.9137  0.6818 -0.3263
  565SOL    HW2 1695   0.924   0.836   3.002  0.6066 -0.5825 -0.5418
  566SOL     OW 1696   2.311   0.165   2.796 -0.1613  0.3003 -0.3967
  566SOL    HW1 1697   2.295   0.180   2.701 -2.7548  2.1619  1.2007
  566SOL    HW2 1698   2.242   0.220   2.851 -0.5762 -1.2604  2.6231
  567SOL     OW 1699   2.111   1.156   0.454  0.5512  0.2621  0.2762
  567SOL    HW1 1700   2.054   1.218   0.518 -0.3828  1.9856  4.5394
  567SOL    HW2 1701   2.048   1.096   0.402  1.0977 -1.1329 -0.1045
  568SOL     OW 1702   1.697   1.742   2.949  0.0211 -0.3747 -0.2945
  568SOL    HW1 1703   1.599   1.734   2.985 -0.5690 -1.9581 -1.2674
  568SOL    HW2 1704   1.709   1.704   2.859  1.6848 -0.7047 -1.3556
  569SOL     OW 1705   2.098   1.367   3.003  0.5525 -0.2064  0.0778
  569SOL    HW1 1706   2.022   1.437   2.990 -0.9172  2.4193  0.3606
  569SOL    HW2 1707   2.183   1.392   2.953  1.9309  2.6590  1.3520
  570SOL     OW 1708   0.585   2.356   1.778 -0.0285  0.1279 -0.4033
  570SOL    HW1 1709   0.623   2.424   1.711  0.4615 -0.6094 -2.1066
  570SOL    HW2 1710   0.656   2.340   1.847 -2.7717 -1.8940 -1.2755
  571SOL     OW 1711   0.252   1.094   1.752 -0.1065  0.2994 -1.0195
  571SOL    HW1 1712   0.260   1.009   1.697 -0.4146  1.5988  0.6773
  571SOL    HW2 1713   0.175   1.075   1.814 -0.5931 -1.5728 -0.5969
  572SOL     OW 1714   1.181   1.625   0.423 -0.2064  0.0271  0.3595
  572SOL    HW1 1715   1.178   1.526   0.410 -0.1305  2.3410  1.9579
  572SOL    HW2 1716   1.176   1.668   0.330 -0.9856 -0.0440 -0.6893
  573SOL     OW 1717   1.788   2.189   0.458 -0.1959  0.3282  0.5005
  573SOL    HW1 1718   1.763   2.115   0.389  0.6229  0.7768  4.0888
  573SOL    HW2 1719   1.713   2.198   0.526 -1.6831 -1.8546 -1.1551
  574SOL     OW 1720   0.774   0.058   1.172  0.5396 -1.0306 -0.5431
  574SOL    HW1 1721   0.719   0.001   1.110  1.9771  0.5969 -1.1543
  574SOL    HW2 1722   0.829   0.119   1.113  0.7948  1.6147 -0.0962
  575SOL     OW 1723   0.354   1.191   1.405 -0.0016  0.1251 -0.0651
  575SOL    HW1 1724   0.381   1.134   1.488 -1.6932  0.4916  0.3964
  575SOL    HW2 1725   0.353   1.291   1.425  0.3613 -0.5177 -0.0905
  576SOL     OW 1726   2.475   2.854   1.010 -0.3301  0.2574 -0.2211
  576SOL    HW1 1727   2.431   2.948   0.983 -2.0390  3.1269 -0.1166
  576SOL    HW2 1728   2.431   2.784   0.951 -1.5300 -1.8008  0.3236
  577SOL     OW 1729   0.850   1.064   1.970 -0.0198  0.3666  0.0499
  577SOL    HW1 1730   0.899   0.977   1.977 -0.4745  0.8494  0.7234
  577SOL    HW2 1731   0.760   1.060   2.021  0.0414  0.2282 -4.1118
  578SOL     OW 1732   1.882   0.985   2.652  0.1184  0.0993 -0.3887
  578SOL    HW1 1733   1.893   1.034   2.560 -2.9883 -0.6494 -2.0385
  578SOL    HW2 1734   1.933   1.040   2.726  2.6239  2.9975  3.3263
  579SOL     OW 1735   1.611   2.323   1.588  0.0837 -0.2317  0.2234
  579SOL    HW1 1736   1.659   2.378   1.664  1.0439  0.1859 -1.9088
  579SOL    HW2 1737   1.685   2.271   1.547 -2.2550  2.1207  1.2863
  580SOL     OW 1738   1.529   1.428   2.476 -0.1333 -0.0948 -0.0759
  580SOL    HW1 1739   1.567   1.386   2.557  0.9758  0.3311 -1.8734
  580SOL    HW2 1740   1.431   1.455   2.485  0.6205 -2.6567 -2.8594
  581SOL     OW 1741   1.197   1.209   2.338 -0.3810  0.4249  0.5344
  581SOL    HW1 1742   1.194   1.174   2.435  1.3567 -2.9135  3.4669
  581SOL    HW2 1743   1.177   1.311   2.328  0.3453  0.0389 -0.0315
  582SOL     OW 1744   0.897   1.180   1.609 -0.3049  0.1217 -0.5008
  582SOL    HW1 1745   0.852   1.092   1.622  2.9354  3.7472  1.6009
  582SOL    HW2 1746   0.930   1.180   1.510 -1.2671 -1.3512  1.2457
  583SOL     OW 1747   1.081   1.180   1.871  0.3086  0.3247 -0.3195
  583SOL    HW1 1748   1.095   1.123   1.787  0.4136  0.6107  0.2675
  583SOL    HW2 1749   0.988   1.160   1.910 -0.5541 -0.0209 -0.7746
  584SOL     OW 1750   2.473   2.791   0.496  0.2858 -0.3479 -0.3109
  584SOL    HW1 1751   2.537   2.803   0.573 -0.1482 -0.7265 -1.2016
  584SOL    HW2 1752   2.473   2.874   0.436 -0.4183 -1.1333  2.4108
  585SOL     OW 1753   2.017   0.192   3.032 -0.8616 -0.3608  0.0398
  585SOL    HW1 1754   2.009   0.117   2.964  0.8198 -1.5474  2.1304
  585SOL    HW2 1755   2.028   0.146   0.045 -1.5436  2.6351 -1.4461
  586SOL     OW 1756   2.959   2.086   1.160  0.5819 -0.2643  0.2933
  586SOL    HW1 1757   2.949   2.180   1.191  1.7613 -4.5523 -1.4170
  586SOL    HW2 1758   2.923   2.026   1.238 -1.0876 -0.2964  0.2602
  587SOL     OW 1759   1.457   1.825   3.068  0.7570 -0.9167 -0.0005
  587SOL    HW1 1760   1.433   1.889   0.067  0.6785 -0.3447  0.1333
  587SOL    HW2 1761   1.375   1.802   3.016 -1.2703 -0.6534 -0.4987
  588SOL     OW 1762   0.393   0.341   0.840  0.6341 -0.2742  0.1314
  588SOL    HW1 1763   0.487   0.317   0.808  0.6270  0.1455  2.5543
  588SOL    HW2 1764   0.386   0.437   0.868 -1.3305 -0.9339  1.0822
  589SOL     OW 1765   1.178   0.111   0.722 -0.5435 -0.2110  0.3287
  589SOL    HW1 1766   1.148   0.187   0.660  0.1615  1.7999 -0.4454
  589SOL    HW2 1767   1.222   0.143   0.809  0.6877 -0.2892  0.1927
  590SOL     OW 1768   1.302   1.167   2.827 -0.2758 -0.3155  0.1242
  590SOL    HW1 1769   1.263   1.076   2.803 -3.0757 -2.1487  2.4054
  590SOL    HW2 1770   1.228   1.218   2.877 -0.9127  0.1823 -0.0962
  591SOL     OW 1771   2.667   2.387   2.278  0.5305  0.0433  1.0188
  591SOL    HW1 1772   2.568   2.411   2.265 -1.8332  0.0760  0.4719
  591SOL    HW2 1773   2.702   2.444   2.355  0.2717 -3.4643  1.6428
  592SOL     OW 1774   2.311   1.436   1.673  0.0929  0.1934 -0.0080
  592SOL    HW1 1775   2.239   1.509   1.681  2.3265  0.5486  1.6027
  592SOL    HW2 1776   2.373   1.454   1.593  0.8895 -1.0560 -0.9171
  593SOL     OW 1777   1.155   0.847   1.459  0.2944  0.1046  0.0502
  593SOL    HW1 1778   1.181   0.789   1.381  1.1125  1.1414 -1.1392
  593SOL    HW2 1779   1.053   0.860   1.452 -1.4375 -1.7804 -1.3598
  594SOL     OW 1780   2.713   1.166   2.450  0.7006 -0.5008  0.1896
  594SOL    HW1 1781   2.736   1.260   2.477 -2.3635  0.7110  1.4212
  594SOL    HW2 1782   2.783   1.101   2.480  0.7536 -0.0736  0.6789
  595SOL     OW 1783   0.058   0.135   0.409 -0.2960  0.4328  0.0199
  595SOL    HW1 1784   0.051   0.161   0.503 -2.4607 -2.4057 -3.9692
  595SOL    HW2 1785   3.055   0.076   0.384  0.4816 -1.2466  0.4313
  596SOL     OW 1786   2.907   1.474   0.998  0.6044  0.6238  0.1556
  596SOL    HW1 1787   2.879   1.379   1.018 -1.0311  1.4432  0.2459
  596SOL    HW2 1788   2.921   1.533   1.076 -0.3733 -0.3602 -0.3429
  597SOL     OW 1789   1.551   1.546   0.500  0.0882  0.6606 -0.3180
  597SOL    HW1 1790   1.584   1.634   0.540 -0.6136 -2.5289  1.5217
  597SOL    HW2 1791   1.625   1.515   0.438  0.7175  0.1018 -0.9926
  598SOL     OW 1792   0.328   2.653   1.684 -0.0683 -0.2380  0.0615
  598SOL    HW1 1793   0.342   2.635   1.583  0.7482  0.0832 -0.0356
  598SOL    HW2 1794   0.306   2.570   1.734  1.5066  3.8684  1.1738
  599SOL     OW 1795   3.054   1.532   2.778  0.4885 -0.6589  0.5948
  599SOL    HW1 1796   3.018   1.450   2.732  2.1391 -0.5239  1.4630
  599SOL    HW2 1797   2.981   1.576   2.835 -0.4637 -0.4180  0.8859
  600SOL     OW 1798   0.630   1.010   0.003 -0.3026  0.1521  0.3247
  600SOL    HW1 1799   0.719   1.030   0.046 -0.5058 -0.7308 -2.0449
  600SOL    HW2 1800   0.640   0.915   3.039  2.3656  0.0375 -0.3878
  601SOL     OW 1801   0.715   0.815   0.974 -0.1848 -0.2630 -0.4372
  601SOL    HW1 1802   0.622   0.800   1.015 -0.0357 -0.6465  2.0569
  601SOL    HW2 1803   0.753   0.903   1.012 -0.1048 -0.0062  1.0594
  602SOL     OW 1804   1.174   2.451   0.360  0.1932  0.0056 -0.4967
  602SOL    HW1 1805   1.154   2.551   0.337 -0.7893  1.6193  0.0260
  602SOL    HW2 1806   1.184   2.441   0.460  0.9769  2.4059 -0.7811
  603SOL     OW 1807   1.279   2.350   1.900 -0.1123  0.0379 -0.4292
  603SOL    HW1 1808   1.353   2.416   1.886 -0.6186  0.5850  0.6048
  603SOL    HW2 1809   1.209   2.369   1.971  0.2480  0.8838  0.1034
  604SOL     OW 1810   0.391   0.352   2.758  0.4101  0.5247 -0.1027
  604SOL    HW1 1811   0.431   0.390   2.843  0.7213 -2.5377 -1.9287
  604SOL    HW2 1812   0.445   0.268   2.731  1.2744  0.0241  1.2371
  605SOL     OW 1813   2.526   1.084   1.373  0.9446 -0.0885  0.1261
  605SOL    HW1 1814   2.424   1.082   1.355  1.2755 -0.4729 -1.2531
  605SOL    HW2 1815   2.545   1.016   1.443 -0.1627  1.4522 -3.9352
  606SOL     OW 1816   0.859   1.650   2.881  0.4151  0.0085  0.2220
  606SOL    HW1 1817   0.831   1.748   2.872 -0.5482  0.1225 -2.3199
  606SOL    HW2 1818   0.813   1.590   2.807  0.3889 -1.8309 -2.0941
  607SOL     OW 1819   0.603   3.057   0.114  0.0707  0.0660 -0.0774
  607SOL    HW1 1820   0.554   2.969   0.121 -0.3745 -0.7828 -0.6199
  607SOL    HW2 1821   0.677   3.077   0.182  1.2640  1.7200  0.6987
  608SOL     OW 1822   2.258   1.932   2.152 -0.0687  0.9156  0.2283
  608SOL    HW1 1823   2.327   1.921   2.080 -1.2490  0.0603  0.5599
  608SOL    HW2 1824   2.179   1.879   2.122 -1.6225  0.5249 -1.5980
  609SOL     OW 1825   2.796   0.184   0.673  0.0667 -0.5989  0.2902
  609SOL    HW1 1826   2.819   0.096   0.718  1.6739 -0.5821  1.3537
  609SOL    HW2 1827   2.696   0.203   0.698 -3.0030  2.6980 -0.7674
  610SOL     OW 1828   0.331   2.367   0.900 -0.4089 -0.1482 -0.1120
  610SOL    HW1 1829   0.330   2.290   0.833 -0.7134  1.4572  0.5909
  610SOL    HW2 1830   0.427   2.405   0.900 -1.2808  0.0737  0.3946
  611SOL     OW 1831   1.573   1.427   0.163 -0.3435  0.0214 -1.1319
  611SOL    HW1 1832   1.587   1.377   0.252 -0.5426 -0.8011  1.1956
  611SOL    HW2 1833   1.476   1.435   0.145  0.0061 -0.4453 -3.1157
  612SOL     OW 1834   0.502   2.729   1.869 -0.6370 -0.2115  0.0611
  612SOL    HW1 1835   0.476   2.721   1.968 -0.0926 -3.9424 -2.3245
  612SOL    HW2 1836   0.435   2.691   1.805  0.0064  2.2457  0.4481
  613SOL     OW 1837   0.676   2.742   0.675  0.0352 -0.4074  0.0696
  613SOL    HW1 1838   0.722   2.692   0.750  0.3976  0.7743  0.5124
  613SOL    HW2 1839   0.735   2.811   0.625  1.1661  1.9514  0.6292
  614SOL     OW 1840   2.304   0.016   1.924  0.2744  0.0669  0.4280
  614SOL    HW1 1841   2.202   0.025   1.943 -0.8697 -0.0399  3.1635
  614SOL    HW2 1842   2.322   0.019   1.823 -1.5049  2.9151 -0.4807
  615SOL     OW 1843   1.658   1.229   0.362  0.1747  0.0424  0.6352
  615SOL    HW1 1844   1.683   1.175   0.275  1.6133  1.2968  2.1302
  615SOL    HW2 1845   1.730   1.294   0.375 -2.4468 -1.1232  3.2998
  616SOL     OW 1846   1.859   1.403   0.372  0.1839  0.1398  0.3685
  616SOL    HW1 1847   1.867   1.500   0.360 -0.7049 -3.2856  3.5663
  616SOL    HW2 1848   1.894   1.386   0.471  2.1178 -0.1782  2.0350
  617SOL     OW 1849   1.165   1.007   2.566  0.2432  0.1979  0.0510
  617SOL    HW1 1850   1.145   0.910   2.564 -2.1295  0.6121 -1.5146
  617SOL    HW2 1851   1.113   1.045   2.643 -1.2537  0.1095 -1.2576
  618SOL     OW 1852   0.669   2.960   1.798  0.2241  0.3232  0.4428
  618SOL    HW1 1853   0.617   2.868   1.803 -4.1664 -2.4381  1.5974
  618SOL    HW2 1854   0.663   3.011   1.890 -0.7568  0.0317  0.2388
  619SOL     OW 1855   2.828   1.659   1.474 -0.2738 -1.0290 -0.6441
  619SOL    HW1 1856   2.898   1.732   1.445 -0.6598  1.7948  0.3431
  619SOL    HW2 1857   2.733   1.701   1.483 -2.2458  0.6159  0.2821
  620SOL     OW 1858   2.821   0.594   2.665  0.3115 -0.5213 -0.0276
  620SOL    HW1 1859   2.828   0.677   2.729 -0.6005  0.3059  0.2255
  620SOL    HW2 1860   2.912   0.546   2.665  3.4457 -0.4948  1.5424
  621SOL     OW 1861   2.362   2.015   2.371  0.2506  0.2092 -0.2083
  621SOL    HW1 1862   2.324   1.972   2.289  2.1190  0.7143 -0.5697
  621SOL    HW2 1863   2.355   1.947   2.450  0.1763  2.1350  1.3892
  622SOL     OW 1864   0.961   0.603   2.118 -0.3683  0.3083  0.0593
  622SOL    HW1 1865   0.858   0.606   2.105  1.0035 -0.0827  1.2996
  622SOL    HW2 1866   0.987   0.508   2.154  0.6023 -2.2816 -2.5875
  623SOL     OW 1867   0.649   1.002   2.159 -0.5259  0.2746 -0.4654
  623SOL    HW1 1868   0.715   0.964   2.224 -1.8875  2.9945  2.4691
  623SOL    HW2 1869   0.593   0.933   2.112  0.4754  2.3092  1.4436
  624SOL     OW 1870   2.641   0.922   0.180  0.7733 -0.4490 -0.6118
  624SOL    HW1 1871   2.626   1.007   0.232  2.3950 -1.5762  1.3552
  624SOL    HW2 1872   2.696   0.944   0.096 -0.1277  0.4720 -0.0300
  625SOL     OW 1873   0.798   1.938   0.969 -0.0280 -0.7849 -0.5573
  625SOL    HW1 1874   0.707   1.893   0.949  0.3659  0.6148 -0.8608
  625SOL    HW2 1875   0.784   2.010   1.045  0.2299  1.9245  2.4428
  626SOL     OW 1876   1.920   0.723   2.639  0.0902  0.3762  0.1531
  626SOL    HW1 1877   1.975   0.664   2.698 -3.8899 -0.0069  1.1353
  626SOL    HW2 1878   1.903   0.821   2.670  1.2101  0.2496 -0.8290
  627SOL     OW 1879   1.537   2.747   2.790 -0.0330 -0.4188  0.1649
  627SOL    HW1 1880   1.591   2.830   2.819 -1.6228 -1.4515 -0.7622
  627SOL    HW2 1881   1.578   2.722   2.696  0.7685  1.3478 -1.2974
  628SOL     OW 1882   2.268   2.816   2.317 -0.5363  0.0765  0.3038
  628SOL    HW1 1883   2.265   2.912   2.358 -0.9778 -0.3647 -1.1735
  628SOL    HW2 1884   2.334   2.825   2.235  4.3533  0.1158 -2.5441
  629SOL     OW 1885   0.901   0.022   2.352  0.5643  0.1578  0.3114
  629SOL    HW1 1886   0.937   0.028   2.256  1.4927 -1.4981  1.8300
  629SOL    HW2 1887   0.973   3.067   2.413  1.6323  1.2759 -0.6045
  630SOL     OW 1888   0.900   0.274   2.457  0.0233 -0.1325 -0.0826
  630SOL    HW1 1889   0.982   0.265   2.516 -0.7385  2.7559 -0.7088
  630SOL    HW2 1890   0.875   0.186   2.410  1.2005  0.2171  0.5377
  631SOL     OW 1891   1.950   1.322   0.623  0.3113  0.8191  0.1482
  631SOL    HW1 1892   1.889   1.298   0.703 -1.1304  1.7065  1.1060
  631SOL    HW2 1893   2.026   1.384   0.653  0.2858 -0.3984  1.8829
  632SOL     OW 1894   2.091   0.705   1.817 -0.3302  0.5533 -0.2536
  632SOL    HW1 1895   2.170   0.759   1.788 -0.6262  0.4414  0.5589
  632SOL    HW2 1896   2.030   0.681   1.738 -0.7336 -0.8050 -0.9763
  633SOL     OW 1897   1.191   1.723   0.178 -0.1102  0.2625  0.1656
  633SOL    HW1 1898   1.104   1.733   0.129 -1.1524 -0.6544  1.1536
  633SOL    HW2 1899   1.259   1.796   0.160  0.9686  1.1235  0.5263
  634SOL     OW 1900   2.465   3.011   1.661  0.1089  0.4508 -0.0600
  634SOL    HW1 1901   2.405   0.000   1.617  0.4542  0.9749  2.2482
  634SOL    HW2 1902   2.551   3.054   1.682 -2.1182  0.0140  3.7631
  635SOL     OW 1903   1.714   0.431   0.808  0.2894  0.2672 -0.2400
  635SOL    HW1 1904   1.728   0.496   0.884  1.7049  1.5370  0.3526
  635SOL    HW2 1905   1.754   0.341   0.828 -0.9317  2.1992  0.5186
  636SOL     OW 1906   0.868   1.104   0.098  0.0268  0.3705  0.2629
  636SOL    HW1 1907   0.927   1.189   0.108  1.0166 -0.1252 -2.5359
  636SOL    HW2 1908   0.929   1.033   0.051  0.6367 -1.3656 -0.7084
  637SOL     OW 1909   2.806   2.156   3.022  0.1009 -0.1997  1.0416
  637SOL    HW1 1910   2.803   2.104   0.032 -0.6020  1.0350 -0.1408
  637SOL    HW2 1911   2.902   2.161   2.984 -0.2101 -0.5169 -0.6546
  638SOL     OW 1912   1.485   2.506   2.876  0.0525 -0.1335  0.3258
  638SOL    HW1 1913   1.502   2.601   2.844 -0.8393  0.8050 -0.1868
  638SOL    HW2 1914   1.511   2.435   2.806  0.7734 -1.3989  2.5348
  639SOL     OW 1915   1.566   1.505   0.961  0.0070  0.1490 -0.8697
  639SOL    HW1 1916   1.480   1.562   0.973  3.4029  0.4522  1.8471
  639SOL    HW2 1917   1.627   1.552   0.896 -2.6348  0.1077 -1.4925
  640SOL     OW 1918   2.003   2.697   0.478  0.2761 -0.2943 -0.4590
  640SOL    HW1 1919   2.088   2.700   0.423 -0.1061  1.0080  0.1531
  640SOL    HW2 1920   1.965   2.607   0.496 -1.8124 -1.1844  0.0668
  641SOL     OW 1921   2.984   0.249   2.865 -0.0529  0.4776  0.1295
  641SOL    HW1 1922   2.946   0.163   2.823 -0.1073  2.6887 -0.3412
  641SOL    HW2 1923   3.046   0.228   2.942  0.5183 -0.5459  1.9318
  642SOL     OW 1924   2.914   0.881   1.150 -0.3944 -0.9587 -0.2368
  642SOL    HW1 1925   2.833   0.936   1.124 -0.0665  0.4946 -1.1285
  642SOL    HW2 1926   2.948   0.911   1.240  2.0251  3.9217 -0.3658
  643SOL     OW 1927   0.641   1.678   2.161 -0.3552  0.1509  0.1808
  643SOL    HW1 1928   0.572   1.755   2.159  1.0856 -0.2160 -0.0452
  643SOL    HW2 1929   0.734   1.720   2.176 -3.2262  0.3631  1.1357
  644SOL     OW 1930   1.906   2.291   0.815 -0.2090 -0.0408 -0.4187
  644SOL    HW1 1931   2.001   2.271   0.789 -2.7084  0.1535 -0.8885
  644SOL    HW2 1932   1.877   2.386   0.792 -4.5281 -0.3850 -0.6307
  645SOL     OW 1933   1.871   2.099   1.002  0.1806  0.7504 -0.3254
  645SOL    HW1 1934   1.896   2.177   0.943  2.1686 -2.9210  1.3897
  645SOL    HW2 1935   1.792   2.048   0.961  0.6440  0.5383 -1.9030
  646SOL     OW 1936   1.148   2.388   2.762 -0.4831  0.0392  0.1734
  646SOL    HW1 1937   1.166   2.304   2.816  0.0981  1.2121  0.5458
  646SOL    HW2 1938   1.173   2.467   2.819  0.3888 -1.5244  0.0735
  647SOL     OW 1939   0.784   2.769   1.609 -0.0422  0.1298  0.1456
  647SOL    HW1 1940   0.865   2.714   1.636 -0.9315  0.8334  0.4804
  647SOL    HW2 1941   0.773   2.851   1.672  1.2038 -2.4909 -0.3656
  648SOL     OW 1942   1.636   0.406   1.649 -0.7083  0.1766  0.7459
  648SOL    HW1 1943   1.695   0.337   1.594 -0.9408 -1.9692 -1.4813
  648SOL    HW2 1944   1.572   0.356   1.711 -1.8800 -0.7295 -2.7185
  649SOL     OW 1945   1.685   2.001   0.278  0.0996  0.3798  0.1259
  649SOL    HW1 1946   1.620   2.079   0.266  1.0839  1.1447  0.0131
  649SOL    HW2 1947   1.652   1.906   0.259  2.8757 -2.8373  0.8246
  650SOL     OW 1948   2.064   1.580   1.681 -0.0005  0.1753 -0.6125
  650SOL    HW1 1949   1.973   1.535   1.680  1.8803  1.4262 -0.5824
  650SOL    HW2 1950   2.052   1.683   1.674 -0.3189  1.1105 -1.6548
  651SOL     OW 1951   1.798   2.601   0.253  0.0405  0.2856 -0.4992
  651SOL    HW1 1952   1.754   2.692   0.277  0.2437  2.7524  0.2886
  651SOL    HW2 1953   1.849   2.612   0.161 -0.6208 -3.2484  0.8195
  652SOL     OW 1954   0.539   2.040   0.270 -0.2779 -1.0379 -0.0784
  652SOL    HW1 1955   0.478   2.023   0.349 -1.4097  1.1658 -0.1107
  652SOL    HW2 1956   0.537   1.968   0.199 -1.9601  0.8174 -0.4993
  653SOL     OW 1957   2.536   2.642   1.358  0.0030 -0.0855 -0.2934
  653SOL    HW1 1958   2.477   2.581   1.411 -0.0285  2.9794 -0.2418
  653SOL    HW2 1959   2.545   2.613   1.259 -0.3940  1.2724 -1.7860
  654SOL     OW 1960   2.801   2.841   1.730  0.3460 -0.7871  0.0173
  654SOL    HW1 1961   2.905   2.850   1.721  0.5144  1.0564 -0.6124
  654SOL    HW2 1962   2.760   2.938   1.736  0.9043  0.8791 -0.4789
  655SOL     OW 1963   2.929   1.875   0.944 -0.5946 -0.1809  0.0731
  655SOL    HW1 1964   3.018   1.827   0.943 -2.2750 -1.4026 -1.7880
  655SOL    HW2 1965   2.912   1.931   1.025 -0.5737  1.0220  1.3238
  656SOL     OW 1966   2.915   2.994   2.352 -0.1727 -0.1409  0.2981
  656SOL    HW1 1967   2.986   3.064   2.328  0.2551 -1.1932  1.1411
  656SOL    HW2 1968   2.819   3.029   2.328 -1.7435  0.1832 -0.2570
  657SOL     OW 1969   2.689   1.412   2.961  0.6954 -0.4268  0.7135
  657SOL    HW1 1970   2.711   1.309   2.959  1.5027 -3.5082 -1.3752
  657SOL    HW2 1971   2.596   1.429   2.992  1.1773 -0.7625 -0.6064
  658SOL     OW 1972   2.085   1.898   0.919  0.2951  0.0965 -0.1558
  658SOL    HW1 1973   2.028   1.980   0.919  2.9431 -1.8924  0.5703
  658SOL    HW2 1974   2.033   1.812   0.907  1.9260 -0.1703  0.0928
  659SOL     OW 1975   1.456   0.550   1.048 -0.4744 -0.1190  0.0786
  659SOL    HW1 1976   1.434   0.636   1.096 -0.7896 -1.1220 -2.3805
  659SOL    HW2 1977   1.455   0.470   1.114 -0.4869 -1.1592 -1.2218
  660SOL     OW 1978   1.693   1.356   2.989  0.2156  0.0613 -0.5237
  660SOL    HW1 1979   1.733   1.260   2.992 -1.4893 -0.3735 -2.6331
  660SOL    HW2 1980   1.653   1.382   3.077  1.1597  0.6344 -0.5465
  661SOL     OW 1981   0.301   2.190   0.706 -0.2414 -0.3799 -0.2981
  661SOL    HW1 1982   0.235   2.196   0.624 -2.8975  0.6953 -2.6079
  661SOL    HW2 1983   0.396   2.221   0.676 -0.5867 -0.9748  3.8397
  662SOL     OW 1984   0.019   0.594   2.206 -0.1867  0.1807  0.0024
  662SOL    HW1 1985   0.014   0.653   2.288 -0.0825 -3.5878 -2.9079
  662SOL    HW2 1986   0.047   0.495   2.232 -0.2446 -2.7627 -1.3000
  663SOL     OW 1987   1.834   1.273   0.889  0.5624 -0.2935  0.0205
  663SOL    HW1 1988   1.747   1.237   0.849  1.8826  0.6713 -0.1691
  663SOL    HW2 1989   1.889   1.193   0.924 -0.6934 -0.5827  3.4474
  664SOL     OW 1990   0.932   0.787   1.168 -0.1650  0.0646 -0.2822
  664SOL    HW1 1991   0.908   0.817   1.260  1.0878  0.1961 -0.2058
  664SOL    HW2 1992   0.874   0.713   1.134  1.6671  1.5171 -0.0396
  665SOL     OW 1993   1.281   2.783   2.610  0.5196 -0.2544  0.0768
  665SOL    HW1 1994   1.229   2.834   2.681 -1.1611 -2.0395  1.8296
  665SOL    HW2 1995   1.371   2.761   2.652 -3.0993  1.9465  1.2273
  666SOL     OW 1996   2.591   3.075   2.540  0.5008  0.1704  0.3409
  666SOL    HW1 1997   2.641   2.988   2.565 -2.5640 -1.2606  0.0119
  666SOL    HW2 1998   2.589   0.066   2.614  1.5408 -0.8908 -0.5045
  667SOL     OW 1999   2.406   1.342   1.917 -0.5189  0.2023  0.2179
  667SOL    HW1 2000   2.371   1.342   1.818 -0.8655  4.2068 -1.6824
  667SOL    HW2 2001   2.429   1.248   1.945 -1.0846  2.1877 -1.1365
  668SOL     OW 2002   0.329   1.112   2.470 -0.2442 -0.1486  0.1990
  668SOL    HW1 2003   0.306   1.174   2.549  0.3843  0.5532  0.7907
  668SOL    HW2 2004   0.345   1.166   2.383  1.2269 -2.2670 -2.2804
  669SOL     OW 2005   1.973   2.318   2.492  0.1061  0.4228 -0.0183
  669SOL    HW1 2006   1.920   2.255   2.426  1.4800  0.3215 -0.0850
  669SOL    HW2 2007   2.059   2.275   2.522 -0.8883  1.2329 -1.8348
  670SOL     OW 2008   2.483   1.089   1.941  0.3828 -0.1517  0.2634
  670SOL    HW1 2009   2.585   1.114   1.932 -0.3882  2.3685  0.0308
  670SOL    HW2 2010   2.467   0.988   1.943 -0.7395  0.5331  0.3287
  671SOL     OW 2011   2.472   1.530   0.031 -0.4457 -0.3549 -0.5492
  671SOL    HW1 2012   2.558   1.516   0.090  0.1872 -2.2445  3.7364
  671SOL    HW2 2013   2.464   1.633   0.024  3.0655 -1.5552 -1.3521
  672SOL     OW 2014   2.774   1.087   1.946  0.0965 -0.4434 -0.5672
  672SOL    HW1 2015   2.863   1.096   1.901 -0.1420 -0.4987 -0.0671
  672SOL    HW2 2016   2.770   1.150   2.024 -0.4745  1.5370 -1.8872
  673SOL     OW 2017   2.560   0.904   1.558 -0.3178 -0.2010 -0.1765
  673SOL    HW1 2018   2.655   0.908   1.594 -0.4343 -2.1039  2.4467
  673SOL    HW2 2019   2.534   0.803   1.543 -0.4915 -0.6607 -1.8292
  674SOL     OW 2020   2.084   1.857   1.676 -0.3532  0.1576  0.2902
  674SOL    HW1 2021   2.088   1.910   1.761 -0.5585  4.1999  1.7388
  674SOL    HW2 2022   2.132   1.907   1.600 -0.8626  0.3037  1.3125
  675SOL     OW 2023   0.363   0.624   0.853  0.4644 -0.0882  0.3458
  675SOL    HW1 2024   0.396   0.678   0.931 -0.2207 -2.6422 -0.5592
  675SOL    HW2 2025   0.270   0.647   0.820  0.8082 -2.0200  0.9441
  676SOL     OW 2026   1.634   1.175   1.278  0.3039  0.1712 -0.1547
  676SOL    HW1 2027   1.648   1.276   1.255  1.6438 -0.0960 -1.6317
  676SOL    HW2 2028   1.722   1.127   1.297  1.8895 -2.6973 -0.5560
  677SOL     OW 2029   2.410   1.354   2.196 -0.0143  1.1662  0.0682
  677SOL    HW1 2030   2.396   1.368   2.099  0.7055 -0.0551  1.9478
  677SOL    HW2 2031   2.420   1.442   2.246 -1.6209 -2.4288 -1.6125
  678SOL     OW 2032   0.152   1.455   0.647  0.2523  0.1675 -0.2244
  678SOL    HW1 2033   0.159   1.357   0.619 -0.0840  3.2217  0.5880
  678SOL    HW2 2034   0.058   1.475   0.676 -1.1797  2.4053 -0.6963
  679SOL     OW 2035   2.763   2.696   0.494 -0.2608 -0.1114 -0.6489
  679SOL    HW1 2036   2.742   2.744   0.403  0.9850 -1.7600 -2.0877
  679SOL    HW2 2037   2.847   2.636   0.484 -0.9629 -0.7259  0.0564
  680SOL     OW 2038   2.927   2.370   1.320 -0.4518 -0.1721 -0.0433
  680SOL    HW1 2039   3.029   2.354   1.340  2.4479  0.2538 -2.9530
  680SOL    HW2 2040   2.865   2.375   1.401  2.9641  1.2747 -0.1789
  681SOL     OW 2041   0.529   1.348   1.191  0.1433 -0.0667 -0.4013
  681SOL    HW1 2042   0.528   1.414   1.112  0.3837 -0.0801 -2.2444
  681SOL    HW2 2043   0.560   1.396   1.274 -0.0554 -0.1830 -0.0237
  682SOL     OW 2044   1.548   2.588   0.918  0.3799 -0.1268 -0.2739
  682SOL    HW1 2045   1.477   2.582   0.985  0.8631 -0.0972 -1.6876
  682SOL    HW2 2046   1.624   2.531   0.952  1.5832  0.4957  0.7418
  683SOL     OW 2047   2.288   1.620   0.856  0.1158  0.0958 -0.7212
  683SOL    HW1 2048   2.372   1.627   0.916 -0.6433 -2.3822 -0.1059
  683SOL    HW2 2049   2.274   1.705   0.809  1.7403 -3.4264  1.8150
  684SOL     OW 2050   0.738   2.036   2.015 -0.3368 -0.1716  0.1990
  684SOL    HW1 2051   0.719   2.135   2.016  0.9031 -0.7633 -2.2834
  684SOL    HW2 2052   0.794   2.009   1.934 -1.1900  1.8991  2.5679
  685SOL     OW 2053   2.274   1.503   0.218 -0.5582 -0.5501 -0.2830
  685SOL    HW1 2054   2.353   1.497   0.152 -0.2125  1.7380 -1.9281
  685SOL    HW2 2055   2.194   1.538   0.175  2.6937 -1.8923  1.4727
  686SOL     OW 2056   3.001   0.413   0.616  0.2614 -0.1080  0.1823
  686SOL    HW1 2057   2.965   0.324   0.645 -0.8722  1.9147  2.7120
  686SOL    HW2 2058   0.030   0.408   0.591  2.6295  2.9788  3.3449
  687SOL     OW 2059   1.454   2.634   0.087 -0.4558  0.2780  0.4002
  687SOL    HW1 2060   1.482   2.579   0.168  2.1794  1.6643 -1.9559
  687SOL    HW2 2061   1.457   2.565   0.014 -0.4902  1.0643  0.1616
  688SOL     OW 2062   2.050   1.754   2.051 -0.1862  0.6099 -0.2521
  688SOL    HW1 2063   2.118   1.674   2.031  3.3405 -0.6954 -2.5280
  688SOL    HW2 2064   1.957   1.729   2.016 -0.8981 -0.9926 -0.9746
  689SOL     OW 2065   2.512   0.819   1.995 -0.3514  0.3218 -0.7146
  689SOL    HW1 2066   2.536   0.754   1.918  0.7296 -0.5012 -0.7761
  689SOL    HW2 2067   2.568   0.790   2.079  2.2839 -0.0360  2.6980
  690SOL     OW 2068   1.783   0.487   1.258 -0.7147  0.2142  0.7030
  690SOL    HW1 2069   1.709   0.512   1.322 -0.7377  2.5461 -1.4925
  690SOL    HW2 2070   1.832   0.407   1.299  0.5623  2.3138 -0.6124
  691SOL     OW 2071   1.124   1.873   1.605 -0.0788 -0.0050 -0.0422
  691SOL    HW1 2072   1.092   1.794   1.553  0.7407 -1.8785  0.9984
  691SOL    HW2 2073   1.228   1.875   1.613  2.6321 -0.8616  0.2775
  692SOL     OW 2074   1.602   0.299   2.016 -0.3638  0.0783 -0.4650
  692SOL    HW1 2075   1.606   0.400   2.011  3.7513  0.5146  2.2090
  692SOL    HW2 2076   1.572   0.264   1.926  0.8617 -3.4574 -0.7978
  693SOL     OW 2077   0.542   1.092   2.837  0.4381 -0.3903 -0.1473
  693SOL    HW1 2078   0.555   1.082   2.937 -0.0870  0.8536 -1.7949
  693SOL    HW2 2079   0.574   1.008   2.785 -0.1591 -0.0654 -0.2676
  694SOL     OW 2080   2.110   2.853   1.155 -0.3102 -0.3948  0.5001
  694SOL    HW1 2081   2.017   2.808   1.142 -1.4636 -2.6376 -0.2146
  694SOL    HW2 2082   2.127   2.883   1.250 -2.6978 -0.1160 -2.1311
  695SOL     OW 2083   1.643   1.539   2.264 -0.2810  0.3802 -0.1356
  695SOL    HW1 2084   1.647   1.641   2.271  0.1795 -1.4170 -0.9683
  695SOL    HW2 2085   1.606   1.498   2.352  0.6703  1.3023  2.3631
  696SOL     OW 2086   1.445   0.388   1.279  0.3833  0.5516  0.4008
  696SOL    HW1 2087   1.395   0.298   1.288  1.6028  0.4753  1.5932
  696SOL    HW2 2088   1.385   0.462   1.311  1.4172 -2.7194 -1.0392
  697SOL     OW 2089   1.478   0.235   1.779  0.5445 -0.1035 -0.2086
  697SOL    HW1 2090   1.475   0.147   1.730 -2.3338  1.5760  0.6441
  697SOL    HW2 2091   1.387   0.260   1.820 -0.3146  1.2903 -0.5475
  698SOL     OW 2092   1.818   1.329   2.265  0.0354 -0.0964 -0.2432
  698SOL    HW1 2093   1.817   1.272   2.178  0.0777 -0.4361  2.0211
  698SOL    HW2 2094   1.761   1.410   2.245  1.4977  0.7139 -0.4337
  699SOL     OW 2095   1.478   1.072   1.470 -0.0525 -0.0143 -0.4660
  699SOL    HW1 2096   1.519   1.100   1.380  0.4429 -0.1489 -0.1662
  699SOL    HW2 2097   1.381   1.104   1.470 -2.4497 -2.4991 -2.0774
  700SOL     OW 2098   1.490   3.067   0.216 -0.0457  0.2864  0.1843
  700SOL    HW1 2099   1.507   0.056   0.139 -2.2756  0.4455 -1.7860
  700SOL    HW2 2100   1.414   0.032   0.271 -1.1237  0.2928  0.1108
  701SOL     OW 2101   0.259   0.040   1.543  0.0594  0.7387 -0.2744
  701SOL    HW1 2102   0.252   3.035   1.606 -2.1119  0.4818  1.0416
  701SOL    HW2 2103   0.252   0.003   1.448  0.7165 -0.1972  0.6286
  702SOL     OW 2104   1.271   2.795   0.535 -0.4242  0.5566  0.2684
  702SOL    HW1 2105   1.317   2.888   0.527 -1.5468  2.3385 -0.6900
  702SOL    HW2 2106   1.333   2.719   0.555  0.3134 -0.3806 -0.8838
  703SOL     OW 2107   2.480   0.200   2.050 -0.5213  1.0493 -0.3196
  703SOL    HW1 2108   2.552   0.153   1.996  1.6526  2.0993  0.8079
  703SOL    HW2 2109   2.385   0.164   2.025 -1.9919  0.9328 -0.5153
  704SOL     OW 2110   1.211   2.022   0.922 -0.4135  0.4079 -0.5407
  704SOL    HW1 2111   1.174   1.972   1.005  0.9765 -4.5886  1.3417
  704SOL    HW2 2112   1.309   2.036   0.945  1.3728 -0.0354  1.8625
  705SOL     OW 2113   2.976   1.322   1.966  0.7070 -0.5161  0.6193
  705SOL    HW1 2114   2.919   1.405   1.994 -2.4963 -1.6279 -1.8586
  705SOL    HW2 2115   2.942   1.290   1.872 -0.9862 -0.6979  1.0763
  706SOL     OW 2116   1.352   3.056   0.570  0.1142  0.5406  0.4518
  706SOL    HW1 2117   1.355   0.044   0.485  1.3608  0.6027 -2.4646
  706SOL    HW2 2118   1.303   0.033   0.646  0.9331 -1.3204  0.6130
  707SOL     OW 2119   1.160   2.176   2.266 -0.0546  0.0877  0.0445
  707SOL    HW1 2120   1.092   2.254   2.273 -0.0016  0.0413 -0.0367
  707SOL    HW2 2121   1.180   2.156   2.364 -2.3834  1.2196  0.4532
  708SOL     OW 2122   0.108   2.321   1.405  0.1065 -0.1462 -0.2408
  708SOL    HW1 2123   0.141   2.234   1.448  0.8389 -2.3665  0.0196
  708SOL    HW2 2124   0.167   2.359   1.329  2.0752  1.2047 -1.1220
  709SOL     OW 2125   1.902   0.388   2.099 -0.3648  0.3421  0.7206
  709SOL    HW1 2126   1.977   0.319   2.107  1.4941 -0.1038  1.2063
  709SOL    HW2 2127   1.853   0.399   2.184 -1.3082 -0.9925  2.6386
  710SOL     OW 2128   2.636   0.324   1.441  0.2733 -0.0173 -0.0866
  710SOL    HW1 2129   2.543   0.295   1.414 -0.5559  0.2454 -1.4797
  710SOL    HW2 2130   2.635   0.428   1.438  0.6276  3.2382  1.3803
  711SOL     OW 2131   0.208   2.617   0.799  0.3728  0.1191 -0.1937
  711SOL    HW1 2132   0.250   2.529   0.817  1.2284  0.5682 -0.4764
  711SOL    HW2 2133   0.113   2.607   0.761 -1.5537 -3.0529 -0.9220
  712SOL     OW 2134   0.387   2.509   2.389 -0.3757 -0.4912 -0.0745
  712SOL    HW1 2135   0.397   2.436   2.318  0.8864  0.3149 -0.9859
  712SOL    HW2 2136   0.327   2.585   2.351 -1.4231 -0.4740 -1.8580
  713SOL     OW 2137   1.624   0.702   0.032  0.9947 -0.3447 -0.5575
  713SOL    HW1 2138   1.625   0.755   0.124  1.0410 -1.3536  2.8940
  713SOL    HW2 2139   1.707   0.646   0.018 -1.4880 -0.6897  2.2923
  714SOL     OW 2140   1.640   1.738   0.237  0.4790  0.8749  0.1869
  714SOL    HW1 2141   1.638   1.689   0.146 -1.5807 -0.8086 -3.5309
  714SOL    HW2 2142   1.544   1.734   0.275 -0.1532  1.0977  3.0384
  715SOL     OW 2143   2.705   0.162   0.386 -0.0049  0.1983 -0.0825
  715SOL    HW1 2144   2.619   0.109   0.405 -0.8894 -0.2756 -2.8277
  715SOL    HW2 2145   2.762   0.194   0.464  0.0269  0.7727  0.2900
  716SOL     OW 2146   0.442   0.225   2.260 -0.1997 -0.0882 -0.6028
  716SOL    HW1 2147   0.492   0.269   2.340  0.3895  1.4999 -0.4844
  716SOL    HW2 2148   0.462   0.127   2.244 -4.0888  2.9399  0.4781
  717SOL     OW 2149   0.147   0.292   2.622 -0.2511  0.2680 -0.2503
  717SOL    HW1 2150   0.209   0.336   2.692  0.4659 -1.8568 -0.5761
  717SOL    HW2 2151   0.208   0.245   2.556  1.8001  2.3359  0.7006
  718SOL     OW 2152   1.136   0.563   0.589 -0.0975  0.4916  0.4998
  718SOL    HW1 2153   1.183   0.550   0.678 -0.7242  0.4209  1.0312
  718SOL    HW2 2154   1.175   0.638   0.530  0.7965  0.0195  4.1391
  719SOL     OW 2155   2.748   2.185   2.763 -0.2102 -0.4865  0.6146
  719SOL    HW1 2156   2.677   2.129   2.712 -0.4969  1.4011  1.5861
  719SOL    HW2 2157   2.748   2.171   2.862 -2.6552 -0.4466 -4.2218
  720SOL     OW 2158   1.624   0.608   1.464 -0.0655 -0.8056  0.1699
  720SOL    HW1 2159   1.600   0.527   1.518  0.6568  0.3085 -3.2740
  720SOL    HW2 2160   1.564   0.684   1.492  1.3557 -1.1752  2.5009
  721SOL     OW 2161   2.854   0.795   0.718  0.5070 -0.3418  0.3270
  721SOL    HW1 2162   2.860   0.795   0.619  1.1194 -1.4530  1.7707
  721SOL    HW2 2163   2.949   0.785   0.764 -0.4785  0.8699  2.2290
  722SOL     OW 2164   1.294   1.936   2.644 -0.0352 -0.0359  0.1144
  722SOL    HW1 2165   1.218   1.923   2.578 -0.1164 -2.3770  0.2505
  722SOL    HW2 2166   1.255   1.898   2.736  0.1930 -1.9498  0.5908
  723SOL     OW 2167   0.629   0.506   0.462  0.2416  0.1528 -0.5015
  723SOL    HW1 2168   0.728   0.497   0.482 -0.4790 -1.4906 -0.8559
  723SOL    HW2 2169   0.586   0.575   0.525  5.7402 -0.7480  0.6615
  724SOL     OW 2170   1.166   1.912   1.886 -0.3854 -0.0667 -0.8206
  724SOL    HW1 2171   1.159   1.876   1.794 -2.2584 -1.6571  2.5234
  724SOL    HW2 2172   1.094   1.980   1.899  1.9822 -1.8773 -1.9961
  725SOL     OW 2173   0.116   1.110   1.325 -0.1031  0.1042 -0.2466
  725SOL    HW1 2174   0.101   1.131   1.227  0.3211  3.2017  3.3500
  725SOL    HW2 2175   0.209   1.151   1.355 -0.5639  0.6031 -0.8430
  726SOL     OW 2176   1.704   0.615   0.613 -0.2114 -0.0307 -0.0320
  726SOL    HW1 2177   1.720   0.536   0.680  0.4751 -0.4887  1.7619
  726SOL    HW2 2178   1.686   0.578   0.522  0.2615 -1.6722  0.7551
  727SOL     OW 2179   1.642   0.981   2.365 -0.0942  0.7777  0.6115
  727SOL    HW1 2180   1.624   1.067   2.316  1.6017  0.2072  1.7097
  727SOL    HW2 2181   1.562   0.953   2.425 -0.9488 -0.4937  1.8570
  728SOL     OW 2182   1.597   2.524   1.342  0.2028  0.6267  0.3360
  728SOL    HW1 2183   1.557   2.523   1.432  2.7097 -4.2636  0.4034
  728SOL    HW2 2184   1.526   2.512   1.276 -0.4562 -0.8972  2.0174
  729SOL     OW 2185   1.276   0.525   1.553  0.3315  0.6005  0.2582
  729SOL    HW1 2186   1.267   0.427   1.548  0.7519  2.7390 -1.0276
  729SOL    HW2 2187   1.272   0.562   1.647 -1.0813  2.6726  0.0244
  730SOL     OW 2188   0.897   2.014   1.731  0.2335  0.0228  0.7660
  730SOL    HW1 2189   0.884   2.115   1.708  0.7941  1.9501 -1.7179
  730SOL    HW2 2190   0.977   1.981   1.680  1.1368  1.7354  0.1383
  731SOL     OW 2191   0.596   0.267   0.077  0.1049 -0.5480 -0.4295
  731SOL    HW1 2192   0.504   0.260   0.123 -1.2844 -2.1568  0.0398
  731SOL    HW2 2193   0.644   0.178   0.072 -0.7971 -1.5419  3.0208
  732SOL     OW 2194   0.686   0.737   3.019  0.6032 -0.2909 -0.4521
  732SOL    HW1 2195   0.702   0.708   0.043  0.1262  2.2326  2.5727
  732SOL    HW2 2196   0.641   0.667   2.960 -0.7311  1.2926 -0.6455
  733SOL     OW 2197   1.396   1.642   1.783  0.0615  0.0292 -0.0531
  733SOL    HW1 2198   1.487   1.615   1.752 -2.3361  1.3891  1.6540
  733SOL    HW2 2199   1.326   1.579   1.750 -0.7401 -0.7840 -1.5780
  734SOL     OW 2200   2.806   2.756   2.286  0.0039 -0.0517 -0.2489
  734SOL    HW1 2201   2.840   2.847   2.308  1.1738  0.9299  0.4843
  734SOL    HW2 2202   2.843   2.722   2.200  3.5053 -0.6379  3.0932
  735SOL     OW 2203   0.910   2.753   0.902 -0.0863 -0.5962  0.2993
  735SOL    HW1 2204   0.953   2.847   0.893  2.9306  2.0179  0.8376
  735SOL    HW2 2205   0.946   2.685   0.833 -0.5657 -0.3749 -0.7924
  736SOL     OW 2206   1.422   0.917   2.518 -0.6542 -0.6701  0.0952
  736SOL    HW1 2207   1.430   0.819   2.535 -0.0092 -0.1755 -1.1721
  736SOL    HW2 2208   1.329   0.956   2.528 -0.8058 -0.9010 -0.0597
  737SOL     OW 2209   3.023   0.900   0.377 -0.4335 -0.3405  0.3671
  737SOL    HW1 2210   0.001   0.899   0.464  0.2573  0.5919 -0.1991
  737SOL    HW2 2211   3.047   0.976   0.311 -1.1503  1.6633 -2.6243
  738SOL     OW 2212   0.172   2.739   1.277  0.0450 -0.2244  0.8090
  738SOL    HW1 2213   0.082   2.731   1.327  1.8183 -0.3434  1.6685
  738SOL    HW2 2214   0.178   2.710   1.180  1.1164  0.2906 -0.1364
  739SOL     OW 2215   1.559   3.024   0.741  0.4513  0.5751 -0.4334
  739SOL    HW1 2216   1.481   2.985   0.796  2.5468 -1.0256 -1.9074
  739SOL    HW2 2217   1.522   3.054   0.651  2.1344  0.3830  1.1696
  740SOL     OW 2218   1.439   2.806   1.152 -0.0512 -0.6915  0.2299
  740SOL    HW1 2219   1.525   2.842   1.200  1.8700 -0.6346  1.4498
  740SOL    HW2 2220   1.356   2.839   1.207 -1.8281 -1.2307  0.9129
  741SOL     OW 2221   1.932   0.743   0.568 -0.4155 -0.6528  0.6188
  741SOL    HW1 2222   1.838   0.704   0.590 -0.6204 -2.0546 -0.0725
  741SOL    HW2 2223   1.966   0.716   0.477 -1.4509  0.8561  1.6218
  742SOL     OW 2224   1.176   2.254   1.659 -0.5139  0.3702 -0.1880
  742SOL    HW1 2225   1.212   2.299   1.741 -1.6314  0.3711 -2.1821
  742SOL    HW2 2226   1.253   2.191   1.633 -0.2854  1.4522 -1.4326
  743SOL     OW 2227   2.282   0.774   2.139  0.0926  0.2463  0.1479
  743SOL    HW1 2228   2.266   0.865   2.169  0.3611 -0.9088 -2.5075
  743SOL    HW2 2229   2.364   0.776   2.075  1.2073 -0.0615  2.1566
  744SOL     OW 2230   2.233   0.328   0.652 -0.0675 -0.1996  0.7655
  744SOL    HW1 2231   2.189   0.354   0.563 -0.3480 -1.7394  2.8584
  744SOL    HW2 2232   2.287   0.406   0.683 -1.1358 -3.2729 -2.4583
  745SOL     OW 2233   2.184   1.521   1.960 -0.1718  0.0508 -0.4510
  745SOL    HW1 2234   2.114   1.524   1.887  2.2760  0.8257  1.0438
  745SOL    HW2 2235   2.268   1.459   1.946 -0.7392  0.5911  0.3836
  746SOL     OW 2236   1.224   1.669   0.799 -0.2204 -0.3610 -0.0503
  746SOL    HW1 2237   1.129   1.705   0.823 -1.6866  1.2923 -1.5870
  746SOL    HW2 2238   1.296   1.714   0.857  0.1575  2.1686 -2.2631
  747SOL     OW 2239   2.017   1.090   1.185  0.3635 -0.6614  0.1136
  747SOL    HW1 2240   1.956   1.085   1.270 -2.1615  0.3400  2.4272
  747SOL    HW2 2241   2.018   1.001   1.139  1.3988 -0.8853  0.4113
  748SOL     OW 2242   0.249   2.969   0.146 -0.5854 -0.1345 -0.7619
  748SOL    HW1 2243   0.273   3.062   0.179  1.3205  0.7047 -1.4838
  748SOL    HW2 2244   0.244   2.899   0.224  0.5817 -2.3311 -0.7257
  749SOL     OW 2245   0.166   0.059   2.102  0.0579 -0.1652  0.3552
  749SOL    HW1 2246   0.094   0.060   2.029  0.5739  1.0838  0.0847
  749SOL    HW2 2247   0.128   0.107   2.188  1.3949  2.9447  1.8206
  750SOL     OW 2248   1.619   2.783   1.727  0.5936 -0.3140  0.3730
  750SOL    HW1 2249   1.658   2.725   1.803  0.4589  1.8396 -0.7937
  750SOL    HW2 2250   1.542   2.736   1.680 -1.5345  1.0898  0.3839
  751SOL     OW 2251   2.767   0.528   0.556  0.5351  0.3270  0.5445
  751SOL    HW1 2252   2.773   0.617   0.501  1.1666 -1.5412 -0.9643
  751SOL    HW2 2253   2.860   0.483   0.571 -0.7055  0.3145  2.9545
  752SOL     OW 2254   0.267   2.951   0.928 -0.1517 -0.1367 -0.0443
  752SOL    HW1 2255   0.338   2.948   0.999 -1.0448 -0.3295  0.3039
  752SOL    HW2 2256   0.298   2.997   0.840  2.1736 -1.8130 -3.8187
  753SOL     OW 2257   0.962   0.303   1.406  0.1795 -0.2137 -0.5822
  753SOL    HW1 2258   0.884   0.233   1.400 -0.8907  0.4440  0.8693
  753SOL    HW2 2259   1.024   0.261   1.468  1.2879  1.7000 -1.5150
  754SOL     OW 2260   0.768   2.660   2.222  0.0164 -0.3967 -0.2832
  754SOL    HW1 2261   0.698   2.726   2.264  0.6935 -0.0122 -0.1037
  754SOL    HW2 2262   0.852   2.711   2.188  0.8898  1.6774  2.2438
  755SOL     OW 2263   2.333   1.668   0.450  0.5048 -0.5239  0.5585
  755SOL    HW1 2264   2.422   1.711   0.431 -2.2295 -1.1401 -1.2311
  755SOL    HW2 2265   2.313   1.597   0.378 -1.8373 -1.3777 -0.3793
  756SOL     OW 2266   2.038   2.044   2.696  0.1327 -0.1358 -0.0437
  756SOL    HW1 2267   2.025   2.083   2.788  1.1803 -0.0990 -0.5386
  756SOL    HW2 2268   2.093   2.116   2.645  2.0311 -0.5928 -0.9034
  757SOL     OW 2269   1.619   0.173   1.195  0.4092 -0.5178 -0.5882
  757SOL    HW1 2270   1.548   0.243   1.207  0.4161 -1.0682 -1.0236
  757SOL    HW2 2271   1.667   0.186   1.107 -0.8087  0.6538 -0.6326
  758SOL     OW 2272   1.375   2.480   0.698  0.0024  0.0395  0.4554
  758SOL    HW1 2273   1.434   2.514   0.778  2.1373  2.5183  1.4522
  758SOL    HW2 2274   1.422   2.519   0.615 -0.7795  1.4101 -0.5475
  759SOL     OW 2275   2.399   0.351   1.004  0.3884 -0.1911 -0.2373
  759SOL    HW1 2276   2.478   0.413   0.995 -4.4197 -1.7457 -0.8095
  759SOL    HW2 2277   2.313   0.400   1.031 -2.7403 -1.9998 -1.4725
  760SOL     OW 2278   2.229   1.052   1.357  0.3162 -0.1608  0.0443
  760SOL    HW1 2279   2.197   1.085   1.448  2.3912  2.8719 -1.5924
  760SOL    HW2 2280   2.155   1.072   1.288  0.9618  1.1148  1.0252
  761SOL     OW 2281   0.489   0.672   0.615 -0.0717 -0.0660  0.6299
  761SOL    HW1 2282   0.406   0.710   0.561 -1.2076 -0.0695 -0.4197
  761SOL    HW2 2283   0.452   0.644   0.710 -1.2985 -1.7039  3.3117
  762SOL     OW 2284   1.712   1.876   1.247 -0.0955  0.2297 -0.0055
  762SOL    HW1 2285   1.782   1.845   1.318  4.0292 -3.1322  1.3271
  762SOL    HW2 2286   1.697   1.976   1.258  2.5253 -4.9467  0.6059
  763SOL     OW 2287   0.986   1.454   1.722  0.7405  0.1691 -0.3206
  763SOL    HW1 2288   0.948   1.372   1.668 -1.9895 -2.5567 -1.6572
  763SOL    HW2 2289   0.928   1.468   1.805 -0.4625 -0.1088 -0.3756
  764SOL     OW 2290   0.033   1.815   2.144 -0.4014 -0.0795  0.2446
  764SOL    HW1 2291   3.049   1.819   2.061  0.8665 -0.4523 -0.3892
  764SOL    HW2 2292   0.098   1.737   2.135 -2.1435 -0.2146 -1.3320
  765SOL     OW 2293   1.445   2.257   1.159  0.2111 -0.1857  0.1890
  765SOL    HW1 2294   1.370   2.205   1.208 -1.4713  0.0431  2.7228
  765SOL    HW2 2295   1.415   2.353   1.133 -1.6819  0.0547  1.4387
  766SOL     OW 2296   0.218   2.685   2.259  0.2363  0.1727  0.1480
  766SOL    HW1 2297   0.170   2.750   2.324 -2.8877  1.8238  2.2148
  766SOL    HW2 2298   0.160   2.606   2.234  0.7390  0.5936 -1.9687
  767SOL     OW 2299   1.468   0.645   2.682  0.2444  0.0013  0.5294
  767SOL    HW1 2300   1.470   0.696   2.770  0.4217 -0.6007 -1.2615
  767SOL    HW2 2301   1.458   0.543   2.704 -2.1650 -0.3992  1.1254
  768SOL     OW 2302   1.384   2.309   3.033 -0.6096 -0.3991 -0.4994
  768SOL    HW1 2303   1.412   2.388   2.973 -0.0833 -0.1651 -0.8790
  768SOL    HW2 2304   1.305   2.264   2.985  0.5982  2.0450  1.7404
  769SOL     OW 2305   0.307   2.670   1.045 -0.4061  0.0951  0.4415
  769SOL    HW1 2306   0.270   2.672   0.950  0.4063  2.8861 -2.3837
  769SOL    HW2 2307   0.399   2.725   1.054  2.2414 -0.7592  0.6371
  770SOL     OW 2308   1.477   0.816   2.913  0.0537  0.0982  0.2487
  770SOL    HW1 2309   1.544   0.865   2.853 -0.5454  0.1069 -1.1112
  770SOL    HW2 2310   1.523   0.759   2.988  0.4161 -0.7096 -0.5210
  771SOL     OW 2311   0.273   0.131   2.453 -0.1069 -0.0502 -0.1873
  771SOL    HW1 2312   0.324   0.054   2.490 -0.1123  0.2356  1.8948
  771SOL    HW2 2313   0.322   0.174   2.373 -4.4978 -1.3442  0.8331
  772SOL     OW 2314   1.932   2.872   2.048  0.1696  0.0716  0.4925
  772SOL    HW1 2315   1.968   2.967   2.065  0.6982 -1.6809 -2.5678
  772SOL    HW2 2316   1.977   2.839   1.960  1.9261  1.5693 -2.6414
  773SOL     OW 2317   0.800   2.332   1.952  0.6363  0.8140  0.8233
  773SOL    HW1 2318   0.846   2.318   1.861 -1.2810 -3.4704 -2.3225
  773SOL    HW2 2319   0.752   2.424   1.973  0.5992  5.6157  1.2422
  774SOL     OW 2320   1.216   0.247   1.869 -0.2631 -0.0891 -0.4142
  774SOL    HW1 2321   1.230   0.171   1.938 -2.0499  0.7370 -1.5672
  774SOL    HW2 2322   1.134   0.299   1.893 -1.3540  0.9546  1.5983
  775SOL     OW 2323   2.052   2.389   0.049  0.0080 -0.1625  0.3974
  775SOL    HW1 2324   2.044   2.320   0.121 -0.1169  0.1079 -1.8744
  775SOL    HW2 2325   2.015   2.478   0.079  1.6080 -1.4343 -0.8501
  776SOL     OW 2326   2.237   0.603   2.337 -0.3463 -0.4686 -0.7864
  776SOL    HW1 2327   2.285   0.628   2.425  0.0334 -0.4887 -0.8638
  776SOL    HW2 2328   2.270   0.661   2.258  0.3414 -0.8962 -0.8103
  777SOL     OW 2329   2.412   1.222   2.503  0.1395 -0.1133 -0.1127
  777SOL    HW1 2330   2.389   1.180   2.592  0.1591  0.0313 -3.0004
  777SOL    HW2 2331   2.515   1.227   2.495  1.7750 -1.6189  0.4808
  778SOL     OW 2332   2.128   0.897   2.460 -0.4156 -0.3896 -0.2741
  778SOL    HW1 2333   2.052   0.839   2.434  3.9746  0.7739 -0.9177
  778SOL    HW2 2334   2.099   0.993   2.457  1.4192 -0.2886 -1.5945
  779SOL     OW 2335   0.088   0.229   3.072 -0.1071 -0.2314 -0.2729
  779SOL    HW1 2336   0.172   0.205   3.013 -1.2590  0.8219 -0.8852
  779SOL    HW2 2337   0.096   0.327   0.031 -2.8675  1.6230  1.0810
  780SOL     OW 2338   2.711   0.409   2.839  0.3803 -0.7479 -0.1622
  780SOL    HW1 2339   2.766   0.476   2.788  0.2060 -2.1055 -2.5945
  780SOL    HW2 2340   2.724   0.408   2.941 -2.4991 -0.6785 -0.0331
  781SOL     OW 2341   0.200   3.013   1.310  0.9357 -0.1794  0.0367
  781SOL    HW1 2342   0.138   3.064   1.244 -0.7959 -0.4877  0.5266
  781SOL    HW2 2343   0.189   2.910   1.312  0.8299 -1.1814  0.2618
  782SOL     OW 2344   1.862   2.543   0.735 -0.2403 -0.0356  0.0097
  782SOL    HW1 2345   1.796   2.622   0.730  2.1032 -0.4283  0.5337
  782SOL    HW2 2346   1.878   2.506   0.644  0.1445 -0.1858  1.5590
  783SOL     OW 2347   0.636   1.428   1.461 -0.2651  0.0313  0.3637
  783SOL    HW1 2348   0.725   1.411   1.417  3.2379  1.6761 -0.4981
  783SOL    HW2 2349   0.634   1.374   1.546 -1.2475  0.2427  1.4098
  784SOL     OW 2350   1.163   0.320   2.616 -0.4034  0.2671 -0.7105
  784SOL    HW1 2351   1.208   0.244   2.565 -0.5013  1.2268  0.2959
  784SOL    HW2 2352   1.183   0.405   2.567 -0.2751 -3.3253  1.5217
  785SOL     OW 2353   2.412   0.070   1.024  0.0840 -0.3305  0.2683
  785SOL    HW1 2354   2.399   0.176   1.027 -0.9342  1.8062  0.4415
  785SOL    HW2 2355   2.322   0.027   1.029  1.1207  0.9146 -0.0661
  786SOL     OW 2356   1.227   2.651   1.496 -0.0427 -0.1069  0.6132
  786SOL    HW1 2357   1.311   2.607   1.537  0.8140 -0.0313 -0.1650
  786SOL    HW2 2358   1.157   2.587   1.460 -1.2756  1.0646 -0.1446
  787SOL     OW 2359   1.762   0.183   1.544  1.1565  0.2823 -0.1274
  787SOL    HW1 2360   1.682   0.137   1.504 -1.0719  0.8531  0.6794
  787SOL    HW2 2361   1.813   0.123   1.604 -1.9762  1.6075 -0.5093
  788SOL     OW 2362   0.045   1.151   0.295  0.0006  0.4451  0.2009
  788SOL    HW1 2363   0.113   1.153   0.371  0.1064 -0.7923  0.1853
  788SOL    HW2 2364   3.073   1.239   0.289  1.5625 -1.1905 -1.3185
  789SOL     OW 2365   0.813   1.798   1.851 -0.2463 -0.2056 -0.0436
  789SOL    HW1 2366   0.861   1.872   1.797  2.3296  4.3099 -0.3432
  789SOL    HW2 2367   0.883   1.747   1.906 -0.1487 -0.4468 -1.3480
  790SOL     OW 2368   0.665   0.604   2.403 -0.4774 -0.1378 -0.3757
  790SOL    HW1 2369   0.731   0.573   2.473 -0.0239  2.0315 -0.1347
  790SOL    HW2 2370   0.572   0.587   2.433 -2.1238  1.6343  0.6727
  791SOL     OW 2371   2.208   0.714   0.603  0.3393  0.2481 -0.3126
  791SOL    HW1 2372   2.110   0.709   0.622  1.2202 -1.3080 -2.1293
  791SOL    HW2 2373   2.257   0.672   0.685  0.1282 -0.2080 -2.8899
  792SOL     OW 2374   1.199   2.881   1.624 -0.2373  0.3931  0.3954
  792SOL    HW1 2375   1.193   2.882   1.722 -0.3106  0.1835 -0.3932
  792SOL    HW2 2376   1.209   2.786   1.587  0.7801 -2.2654 -1.0968
  793SOL     OW 2377   0.394   0.064   0.760 -0.4099  0.3476 -0.6403
  793SOL    HW1 2378   0.340   0.147   0.775  3.2625  0.4059 -2.2982
  793SOL    HW2 2379   0.402   0.045   0.661 -3.5630 -0.4164  0.0114
  794SOL     OW 2380   0.082   0.999   1.970 -0.3644  0.7286  0.6899
  794SOL    HW1 2381   0.056   1.061   2.042 -0.9965 -2.6668  2.0008
  794SOL    HW2 2382   0.005   0.941   1.931 -2.1424 -0.5622 -1.6460
  795SOL     OW 2383   0.636   2.312   2.393 -0.0568  0.4357  0.4653
  795SOL    HW1 2384   0.597   2.373   2.460 -1.4817  0.9841 -0.3945
  795SOL    HW2 2385   0.587   2.306   2.304 -2.9350 -0.8979 -1.9739
  796SOL     OW 2386   2.233   0.329   2.302  0.3248 -0.7206 -0.0506
  796SOL    HW1 2387   2.212   0.430   2.306 -1.8862  1.8528 -0.6477
  796SOL    HW2 2388   2.335   0.315   2.308  3.3958 -0.2018  0.5209
  797SOL     OW 2389   2.346   2.517   2.721  0.1211 -0.1604 -0.1410
  797SOL    HW1 2390   2.360   2.414   2.731 -0.2479  1.4202 -2.6756
  797SOL    HW2 2391   2.247   2.537   2.742  0.3852  0.2202  0.1758
  798SOL     OW 2392   3.036   0.064   1.919  0.3807 -0.2030  0.0167
  798SOL    HW1 2393   3.036   0.139   1.843 -0.3553  1.6050 -1.3944
  798SOL    HW2 2394   2.947   0.061   1.978 -3.4122 -0.0935  2.8417
  799SOL     OW 2395   0.477   2.354   2.172  0.4766  0.0382  0.3321
  799SOL    HW1 2396   0.419   2.351   2.085  1.8182 -0.0637 -2.4803
  799SOL    HW2 2397   0.543   2.429   2.150 -1.2317  0.7092 -0.5035
  800SOL     OW 2398   0.139   2.081   0.150  0.3944  0.1454 -0.0320
  800SOL    HW1 2399   0.236   2.118   0.138  2.4409 -0.7103 -0.6571
  800SOL    HW2 2400   0.137   2.011   0.223  0.5673  0.7448 -2.4013
  801SOL     OW 2401   1.674   1.472   1.240 -0.4039  0.0315  0.2876
  801SOL    HW1 2402   1.615   1.498   1.321  0.0540 -2.3851 -3.1399
  801SOL    HW2 2403   1.617   1.481   1.152 -0.7260 -1.3020 -0.5501
  802SOL     OW 2404   2.807   0.762   0.444 -0.4865  0.3166  0.1045
  802SOL    HW1 2405   2.885   0.826   0.421  0.2273 -0.2880  0.5524
  802SOL    HW2 2406   2.723   0.819   0.454  1.0866 -0.7188  0.2920
  803SOL     OW 2407   1.168   1.382   2.029  0.1106  0.0458  1.3041
  803SOL    HW1 2408   1.266   1.401   2.001 -0.0620 -0.3195 -3.0974
  803SOL    HW2 2409   1.132   1.309   1.962  0.1072  0.1682 -1.8977
  804SOL     OW 2410   1.887   1.437   1.075 -0.2837  0.3449 -0.2033
  804SOL    HW1 2411   1.806   1.460   1.131  1.5333 -2.2262 -1.4721
  804SOL    HW2 2412   1.857   1.365   1.002  0.8051 -3.8432 -2.6423
  805SOL     OW 2413   2.872   1.861   2.683 -0.0901  0.1136  0.7927
  805SOL    HW1 2414   2.907   1.912   2.602 -0.9487  0.8468 -0.2535
  805SOL    HW2 2415   2.845   1.765   2.651  0.0588 -1.2331 -1.9517
  806SOL     OW 2416   0.474   2.466   0.147 -0.5806  0.8100  0.2276
  806SOL    HW1 2417   0.573   2.444   0.165 -0.7647  0.6948  2.6557
  806SOL    HW2 2418   0.452   2.545   0.200  0.5402  0.6209  0.0987
  807SOL     OW 2419   2.310   1.633   2.774 -0.3265  0.2649 -0.2018
  807SOL    HW1 2420   2.385   1.701   2.767  1.4782  0.2558  1.2504
  807SOL    HW2 2421   2.219   1.680   2.773  0.6971  0.5077  0.8378
  808SOL     OW 2422   1.291   1.874   1.217 -0.1749  0.0867  0.6195
  808SOL    HW1 2423   1.195   1.854   1.178  0.7476 -0.8274 -2.2289
  808SOL    HW2 2424   1.290   1.966   1.256  0.7431  0.7465 -1.0329
  809SOL     OW 2425   0.086   0.659   0.276  0.3648  0.2036 -0.0404
  809SOL    HW1 2426   3.072   0.697   0.301 -2.3673 -0.4295 -1.0841
  809SOL    HW2 2427   0.128   0.616   0.356 -0.8482 -0.3265  0.8300
  810SOL     OW 2428   1.025   1.307   0.150  0.2507  0.3701 -0.2485
  810SOL    HW1 2429   1.107   1.236   0.175  2.7311 -2.7880  0.5130
  810SOL    HW2 2430   0.990   1.360   0.225 -1.5285 -1.9728 -2.8264
  811SOL     OW 2431   1.726   2.425   1.069  0.0549 -0.3664  0.1504
  811SOL    HW1 2432   1.779   2.345   1.099  0.7711  2.2995  0.8971
  811SOL    HW2 2433   1.676   2.466   1.148  0.3576  0.8162 -0.0479
  812SOL     OW 2434   1.234   2.871   1.308 -0.5947 -0.1871 -0.1030
  812SOL    HW1 2435   1.229   2.790   1.366  1.6373  1.2317 -1.1197
  812SOL    HW2 2436   1.138   2.902   1.292  1.5070 -1.8011  0.0123
  813SOL     OW 2437   0.825   0.080   1.691 -0.3716 -0.0586  0.3346
  813SOL    HW1 2438   0.766   0.138   1.630 -0.6680  1.9265  0.5409
  813SOL    HW2 2439   0.772   0.019   1.750  1.8081  1.6200 -1.7292
  814SOL     OW 2440   1.070   2.417   2.065  0.1788  0.1155 -0.1152
  814SOL    HW1 2441   1.091   2.512   2.081  0.1606 -3.3542  0.9129
  814SOL    HW2 2442   1.015   2.394   2.147 -0.6276  1.5184 -0.5907
  815SOL     OW 2443   0.424   2.753   2.938  0.3499  0.0783 -0.3794
  815SOL    HW1 2444   0.370   2.668   2.921 -0.2191  2.1794  1.3766
  815SOL    HW2 2445   0.370   2.837   2.926 -0.9783 -1.3847  1.4838
  816SOL     OW 2446   2.241   0.669   3.068  0.3120 -0.0131 -0.0897
  816SOL    HW1 2447   2.238   0.567   0.009  1.3902 -0.1748  0.1988
  816SOL    HW2 2448   2.241   0.725   0.078 -2.5813 -0.4738  2.2619
  817SOL     OW 2449   2.450   2.531   2.258  0.8919  0.0072  0.2457
  817SOL    HW1 2450   2.422   2.568   2.167 -0.4792  1.7304 -1.1516
  817SOL    HW2 2451   2.368   2.536   2.325 -0.7496 -0.3288  0.6047
  818SOL     OW 2452   0.922   0.971   0.392 -0.0717 -0.1672 -0.0038
  818SOL    HW1 2453   0.941   0.919   0.306 -1.7230  0.9216 -1.1556
  818SOL    HW2 2454   0.824   1.000   0.397 -4.6083 -0.8772  2.3419
  819SOL     OW 2455   1.940   1.201   2.833 -0.6020 -0.1669  0.4272
  819SOL    HW1 2456   1.958   1.240   2.740 -0.1873 -0.2222  2.8611
  819SOL    HW2 2457   2.024   1.226   2.888  1.4969  1.9794 -1.2143
  820SOL     OW 2458   0.289   1.311   2.640 -0.1027  0.0002 -0.4193
  820SOL    HW1 2459   0.316   1.391   2.585  2.9257 -0.5532 -2.4029
  820SOL    HW2 2460   0.340   1.314   2.732  1.6968 -1.3169 -0.8657
  821SOL     OW 2461   0.447   0.047   0.503 -0.5159  0.1638  0.0279
  821SOL    HW1 2462   0.525   0.107   0.486 -1.4792  0.6206  1.9242
  821SOL    HW2 2463   0.470   3.024   0.500  1.9980  0.5368 -1.8919
  822SOL     OW 2464   2.513   2.634   3.068  0.1828 -0.3067  0.0681
  822SOL    HW1 2465   2.504   2.536   0.007 -1.4677  0.7886 -0.2132
  822SOL    HW2 2466   2.608   2.667   3.053 -0.0108 -0.1229 -0.7397
  823SOL     OW 2467   1.483   3.073   2.698 -0.3268  0.1094 -0.0871
  823SOL    HW1 2468   1.527   3.052   2.788  3.2305 -0.9369 -0.6167
  823SOL    HW2 2469   1.545   0.052   2.637  0.2767  2.4647 -2.0000
  824SOL     OW 2470   2.686   2.455   2.008  0.1210 -0.4024 -0.4867
  824SOL    HW1 2471   2.700   2.556   1.992  3.2723  2.3564  1.7120
  824SOL    HW2 2472   2.655   2.439   2.103 -0.0801  0.4563 -0.9595
  825SOL     OW 2473   2.996   2.029   2.467  0.6067  0.2682 -0.1544
  825SOL    HW1 2474   0.007   2.016   2.412 -0.1197  1.2312 -0.8795
  825SOL    HW2 2475   2.918   2.051   2.406 -0.7084  0.5260 -0.3796
  826SOL     OW 2476   1.980   0.752   0.018 -0.2226  0.0937  0.0090
  826SOL    HW1 2477   1.989   0.848   0.052 -1.4486  1.1678  2.0355
  826SOL    HW2 2478   2.067   0.721   3.053 -0.4494 -0.7275  3.1074
  827SOL     OW 2479   2.876   1.638   1.740 -0.3138  0.2751 -0.1969
  827SOL    HW1 2480   2.880   1.620   1.640  1.5030 -0.8759  0.5370
  827SOL    HW2 2481   2.832   1.562   1.791 -0.3467 -2.5180  0.4796
  828SOL     OW 2482   2.893   0.182   1.074 -0.0124 -0.5148 -0.3548
  828SOL    HW1 2483   2.977   0.140   1.038  0.7019 -3.6564 -2.5083
  828SOL    HW2 2484   2.813   0.121   1.054 -0.6989 -0.3473  0.5101
  829SOL     OW 2485   0.787   1.931   2.597  0.7570 -0.0462 -0.1395
  829SOL    HW1 2486   0.804   2.032   2.600 -0.4800  1.2872 -0.3957
  829SOL    HW2 2487   0.701   1.919   2.540  2.3009 -1.0078  0.0505
  830SOL     OW 2488   0.525   0.844   1.451  0.2456 -0.3575  0.3451
  830SOL    HW1 2489   0.607   0.850   1.510 -0.1043  0.0792  0.4662
  830SOL    HW2 2490   0.507   0.752   1.402 -0.5986 -3.1684 -3.9463
  831SOL     OW 2491   2.545   1.784   2.732  0.1174  0.3767  0.7205
  831SOL    HW1 2492   2.607   1.704   2.716  2.8074 -1.7204 -1.8923
  831SOL    HW2 2493   2.593   1.842   2.794  0.0468 -0.5647  0.1789
  832SOL     OW 2494   1.920   2.663   0.011 -0.2337 -0.1490 -0.2463
  832SOL    HW1 2495   1.881   2.598   3.019 -1.7450 -1.7627 -0.8767
  832SOL    HW2 2496   2.007   2.695   3.047  1.7135 -1.8971 -0.0100
  833SOL     OW 2497   0.670   0.269   1.890 -0.9378  0.1353 -0.1585
  833SOL    HW1 2498   0.682   0.170   1.919 -0.6814  0.8485 -0.6177
  833SOL    HW2 2499   0.594   0.309   1.947 -1.6704 -0.4972 -1.2764
  834SOL     OW 2500   2.886   0.223   1.348 -0.1528 -0.4683 -0.3614
  834SOL    HW1 2501   2.889   0.186   1.253  0.2394 -1.4829  1.1998
  834SOL    HW2 2502   2.796   0.268   1.375  1.1628 -1.2465  3.1591
  835SOL     OW 2503   2.532   0.382   0.479  0.5307  0.3292  0.4016
  835SOL    HW1 2504   2.602   0.460   0.490 -0.8328  1.8590 -3.1449
  835SOL    HW2 2505   2.584   0.298   0.455  2.3547  0.8955 -2.1414
  836SOL     OW 2506   1.359   1.965   0.185 -0.1010 -0.2690 -1.0347
  836SOL    HW1 2507   1.358   1.914   0.278 -2.1458 -1.5144  3.4978
  836SOL    HW2 2508   1.350   2.067   0.199 -0.8758  1.0714  1.8068
  837SOL     OW 2509   1.956   1.813   0.629  0.0498  0.0630  0.2078
  837SOL    HW1 2510   2.035   1.750   0.628 -1.8776  0.6940  0.0078
  837SOL    HW2 2511   1.983   1.907   0.639 -3.8884 -5.7681  3.0331
  838SOL     OW 2512   1.632   0.703   2.403 -0.3228  0.2373 -0.0124
  838SOL    HW1 2513   1.668   0.685   2.494 -1.1324 -0.4840 -3.0639
  838SOL    HW2 2514   1.675   0.796   2.368  0.0028  3.0561 -0.1743
  839SOL     OW 2515   0.562   1.408   2.389 -0.0920 -0.0593  0.2766
  839SOL    HW1 2516   0.590   1.366   2.473 -2.3538 -1.1126 -1.8941
  839SOL    HW2 2517   0.630   1.388   2.315 -0.6807  0.5427  0.1138
  840SOL     OW 2518   0.851   1.389   0.420  0.6007  0.3966  0.2999
  840SOL    HW1 2519   0.857   1.456   0.337  0.9400 -0.1062 -2.8101
  840SOL    HW2 2520   0.836   1.294   0.387 -2.0810 -0.5917 -0.9619
  841SOL     OW 2521   1.656   2.213   0.719 -0.4285  0.4919  0.0258
  841SOL    HW1 2522   1.595   2.237   0.797 -0.6134 -0.2753 -0.6091
  841SOL    HW2 2523   1.755   2.223   0.751 -1.9451 -1.7812 -0.7822
  842SOL     OW 2524   0.537   0.488   2.971  0.0855  0.7396  0.2521
  842SOL    HW1 2525   0.460   0.548   2.997 -0.1587 -0.4682  2.3624
  842SOL    HW2 2526   0.544   0.417   3.044  0.3551  0.1562  1.0749
  843SOL     OW 2527   0.649   0.293   0.739 -0.3773 -0.5844  0.5243
  843SOL    HW1 2528   0.750   0.310   0.763 -0.1673  0.7639 -3.0857
  843SOL    HW2 2529   0.640   0.236   0.656  1.0165 -0.2775  1.6769
  844SOL     OW 2530   1.952   3.054   2.516  0.1593 -0.4742 -0.2720
  844SOL    HW1 2531   2.016   2.999   2.578  2.7555 -0.7610 -0.7907
  844SOL    HW2 2532   1.952   3.003   2.427 -1.1585  0.1001  1.8241
  845SOL     OW 2533   0.119   2.424   1.850  0.3848 -0.0443 -0.4141
  845SOL    HW1 2534   0.044   2.416   1.921 -2.3415 -0.5103 -1.1175
  845SOL    HW2 2535   0.091   2.465   1.765 -0.9095 -0.8868  1.5544
  846SOL     OW 2536   1.983   1.343   2.595 -0.1339  0.0929 -0.6936
  846SOL    HW1 2537   2.081   1.369   2.590 -0.6603  1.9783  0.4462
  846SOL    HW2 2538   1.949   1.328   2.501 -1.6143  1.3126 -0.4711
  847SOL     OW 2539   0.611   0.796   2.018 -1.1351  0.9364 -1.0300
  847SOL    HW1 2540   0.577   0.778   1.926  0.6638  3.2499 -0.1802
  847SOL    HW2 2541   0.659   0.713   2.062  2.7747 -4.0554 -2.2198
  848SOL     OW 2542   2.479   2.869   2.921 -0.2037  0.2576  0.2833
  848SOL    HW1 2543   2.464   2.769   2.941 -1.7724 -0.0009 -2.1083
  848SOL    HW2 2544   2.574   2.901   2.949  2.5611 -3.0096  3.9590
  849SOL     OW 2545   0.448   2.703   0.264  0.0047 -0.6164  0.1581
  849SOL    HW1 2546   0.352   2.712   0.230 -1.9055  0.3955 -0.4225
  849SOL    HW2 2547   0.516   2.728   0.193  0.6958  1.4854  2.2672
  850SOL     OW 2548   1.038   2.531   0.755 -0.2612  0.4635  0.2040
  850SOL    HW1 2549   1.064   2.485   0.841  0.2763  0.5040  1.0828
  850SOL    HW2 2550   1.088   2.493   0.679 -2.1298  2.4079  1.7796
  851SOL     OW 2551   2.140   0.404   2.683  0.2297  0.2003 -0.4698
  851SOL    HW1 2552   2.102   0.330   2.620 -2.7925 -0.5547 -2.2391
  851SOL    HW2 2553   2.228   0.436   2.648 -0.9111 -2.4721  0.2330
  852SOL     OW 2554   1.510   3.002   2.397 -0.0871 -0.1698  0.3387
  852SOL    HW1 2555   1.609   3.005   2.379 -0.6169 -1.8561 -0.7824
  852SOL    HW2 2556   1.480   3.009   2.493 -0.4547 -2.9317 -3.1984
  853SOL     OW 2557   2.994   2.590   0.396 -0.2559  0.5615  0.1505
  853SOL    HW1 2558   3.026   2.529   0.471 -0.6822  0.4504  1.4896
  853SOL    HW2 2559   3.030   2.688   0.406  0.4666  0.9736  1.5202
  854SOL     OW 2560   1.979   0.630   2.379  0.0342  0.1931 -0.1954
  854SOL    HW1 2561   1.980   0.674   2.474 -1.4218 -0.7344 -0.7040
  854SOL    HW2 2562   2.071   0.613   2.338  0.7018  0.3678 -2.5992
  855SOL     OW 2563   0.474   2.560   0.509 -0.3135  0.6232 -0.0022
  855SOL    HW1 2564   0.467   2.623   0.585  1.3047 -3.1327 -2.3124
  855SOL    HW2 2565   0.475   2.611   0.421 -1.0257 -2.1804  1.0197
  856SOL     OW 2566   0.169   2.922   2.633  0.0850  0.3381 -0.6810
  856SOL    HW1 2567   0.114   3.009   2.626 -0.8195  0.8333  0.1837
  856SOL    HW2 2568   0.129   2.871   2.711 -1.0600  2.3165 -0.4083
  857SOL     OW 2569   1.047   0.052   1.531  0.0806  0.3058  0.0350
  857SOL    HW1 2570   1.081   3.038   1.559 -1.4988  0.2740 -0.4526
  857SOL    HW2 2571   0.973   0.083   1.594 -0.3222 -1.1647  0.5563
  858SOL     OW 2572   2.619   2.049   1.811  0.5536 -0.3980 -0.2709
  858SOL    HW1 2573   2.693   1.994   1.775 -0.8522 -0.7428  0.1457
  858SOL    HW2 2574   2.527   2.010   1.788  1.8131 -0.9373  0.2715
  859SOL     OW 2575   1.907   2.206   1.876 -0.3221 -0.2861  0.3504
  859SOL    HW1 2576   1.824   2.152   1.857  2.6828  1.9136  0.4016
  859SOL    HW2 2577   1.983   2.141   1.888 -2.2494  0.6284 -0.9733
  860SOL     OW 2578   1.631   0.546   0.331  0.3124 -0.1294 -0.4038
  860SOL    HW1 2579   1.638   0.646   0.308 -0.6755  2.9099 -2.0630
  860SOL    HW2 2580   1.652   0.485   0.252 -0.5767 -0.6490  0.7023
  861SOL     OW 2581   2.644   0.477   0.823  0.0806  0.1824  0.6361
  861SOL    HW1 2582   2.691   0.522   0.744  2.1708 -1.9027 -1.9320
  861SOL    HW2 2583   2.608   0.387   0.788  1.3428 -0.7324 -1.0132
  862SOL     OW 2584   1.141   2.948   2.446 -0.1642 -0.4387 -0.0500
  862SOL    HW1 2585   1.218   2.896   2.492 -0.5793 -0.8494  2.0439
  862SOL    HW2 2586   1.066   2.883   2.439 -0.8793  2.7746  0.0612
  863SOL     OW 2587   0.452   0.758   1.066  0.1618 -0.1908 -0.1213
  863SOL    HW1 2588   0.460   0.713   1.160  1.2880 -1.2166  3.0952
  863SOL    HW2 2589   0.420   0.854   1.075 -0.6267 -1.7807  0.5573
  864SOL     OW 2590   2.800   0.073   2.032  0.3549  0.6138  0.4886
  864SOL    HW1 2591   2.760   0.034   1.949 -0.0166  0.3548  2.5276
  864SOL    HW2 2592   2.758   0.037   2.118  1.7419 -1.3139 -0.8368
  865SOL     OW 2593   0.785   1.231   2.883 -0.1410  0.0705  0.6363
  865SOL    HW1 2594   0.770   1.306   2.952  1.7516 -0.1597  2.2218
  865SOL    HW2 2595   0.705   1.167   2.894  0.8435  0.6515 -1.3847
  866SOL     OW 2596   0.014   3.067   0.080  0.0582 -0.2803 -0.2504
  866SOL    HW1 2597   0.032   0.091   0.061  0.8434  1.2098 -0.6114
  866SOL    HW2 2598   0.099   3.028   0.119  2.3376  2.2037  0.8840
  867SOL     OW 2599   2.728   2.846   2.602  0.1902  0.0607 -0.2546
  867SOL    HW1 2600   2.667   2.766   2.634  0.7455 -2.5468  2.3888
  867SOL    HW2 2601   2.792   2.810   2.528  1.8116 -1.2786  0.7649
  868SOL     OW 2602   1.446   1.063   3.043 -0.0940  0.0938  0.3802
  868SOL    HW1 2603   1.467   0.970   3.012 -1.1536 -0.3757  0.0080
  868SOL    HW2 2604   1.388   1.114   2.971 -2.8671  2.1144  0.3273
  869SOL     OW 2605   0.345   1.618   0.565 -0.4870  0.3240  0.3474
  869SOL    HW1 2606   0.421   1.596   0.628 -1.5177  0.9623 -3.5011
  869SOL    HW2 2607   0.267   1.552   0.579 -0.1119  2.5859 -0.7631
  870SOL     OW 2608   2.250   1.809   0.682  0.3847 -0.4367 -0.2466
  870SOL    HW1 2609   2.227   1.906   0.639 -1.1388  1.0511  0.1021
  870SOL    HW2 2610   2.282   1.749   0.604  0.5173 -0.1255 -2.2681
  871SOL     OW 2611   1.040   1.085   1.048  0.0014 -0.1733  0.2682
  871SOL    HW1 2612   1.058   1.081   0.951  3.5302  1.5828  3.1230
  871SOL    HW2 2613   0.940   1.069   1.071 -1.8081  2.0499 -1.6963
  872SOL     OW 2614   1.339   1.619   2.073  0.0377  0.4410  0.4885
  872SOL    HW1 2615   1.354   1.627   1.973 -1.2284  2.1417  0.8791
  872SOL    HW2 2616   1.366   1.704   2.116  1.8711 -0.3185 -3.2877
  873SOL     OW 2617   0.978   1.847   2.431  0.0635  0.8620 -0.4104
  873SOL    HW1 2618   0.906   1.879   2.496 -0.9328 -2.6397 -2.5422
  873SOL    HW2 2619   0.948   1.860   2.332 -1.8777 -0.8222 -1.5577
  874SOL     OW 2620   0.952   2.138   0.839 -0.3783  0.3571  0.1324
  874SOL    HW1 2621   1.049   2.125   0.873 -0.0053 -0.0740  1.8976
  874SOL    HW2 2622   0.892   2.062   0.878 -1.6323  1.2903  1.6239
  875SOL     OW 2623   2.566   0.169   0.803  0.0040 -0.4079 -0.7195
  875SOL    HW1 2624   2.513   0.114   0.733 -0.5253 -0.9811 -1.8286
  875SOL    HW2 2625   2.507   0.206   0.876 -0.0520 -0.3693  0.0210
  876SOL     OW 2626   0.760   0.698   0.229  0.1210 -0.0924 -0.4875
  876SOL    HW1 2627   0.727   0.660   0.317  1.8460 -0.2159  0.4764
  876SOL    HW2 2628   0.861   0.719   0.223  2.1192  2.5410 -2.1087
  877SOL     OW 2629   2.666   0.581   1.309 -0.1676  0.9900 -0.2715
  877SOL    HW1 2630   2.622   0.610   1.224  0.9771  0.8485 -1.8686
  877SOL    HW2 2631   2.769   0.580   1.298 -0.2781  2.8023  3.0812
  878SOL     OW 2632   2.199   2.334   0.900  0.1161 -0.2081  0.1292
  878SOL    HW1 2633   2.137   2.351   0.983 -0.3072  0.3521  2.0526
  878SOL    HW2 2634   2.235   2.236   0.891 -1.8956 -2.1024 -1.2837
  879SOL     OW 2635   2.573   1.778   1.513  0.4877  0.6453 -0.2471
  879SOL    HW1 2636   2.564   1.854   1.447  0.1884  0.0118  0.7901
  879SOL    HW2 2637   2.512   1.699   1.483 -2.1452  0.1372 -1.8647
  880SOL     OW 2638   1.380   2.534   1.136 -0.3056  0.6059 -0.1732
  880SOL    HW1 2639   1.380   2.638   1.149 -0.1013  1.7047 -2.3209
  880SOL    HW2 2640   1.281   2.500   1.141 -1.1890 -0.1235 -1.0295
  881SOL     OW 2641   0.769   2.422   0.112 -0.0615  0.1954  0.1891
  881SOL    HW1 2642   0.768   2.404   0.212  1.1620  2.2467 -2.3770
  881SOL    HW2 2643   0.802   2.336   0.058  3.4810 -3.5984 -2.4913
  882SOL     OW 2644   1.838   0.946   1.748  0.5777 -0.5656 -0.4919
  882SOL    HW1 2645   1.772   0.868   1.737 -0.3253 -0.3323  1.9071
  882SOL    HW2 2646   1.917   0.904   1.790 -1.6623 -1.3330 -0.2670
  883SOL     OW 2647   1.276   0.097   2.082 -0.2310 -0.3580  0.0875
  883SOL    HW1 2648   1.330   0.161   2.138 -0.3170 -0.7163 -1.2547
  883SOL    HW2 2649   1.333   0.024   2.034  0.8184 -2.6261  0.5689
  884SOL     OW 2650   2.732   0.659   0.188 -0.5275  0.0017  0.6314
  884SOL    HW1 2651   2.706   0.757   0.173 -0.0966  2.2707  1.1207
  884SOL    HW2 2652   2.768   0.644   0.277 -0.3374 -2.2211 -0.8545
  885SOL     OW 2653   1.061   1.279   2.938  0.0196 -0.8613  0.1093
  885SOL    HW1 2654   1.083   1.274   3.038 -0.1090 -0.3439 -1.8743
  885SOL    HW2 2655   0.960   1.267   2.926 -0.3059  0.7812  0.5806
  886SOL     OW 2656   1.508   1.378   2.789  0.4187  0.0088  0.0289
  886SOL    HW1 2657   1.565   1.361   2.874 -1.1221  0.8276 -2.6369
  886SOL    HW2 2658   1.426   1.312   2.781 -2.7205 -3.7422 -1.1856
  887SOL     OW 2659   1.081   0.525   1.806  0.5756 -0.4870 -0.3536
  887SOL    HW1 2660   1.025   0.464   1.865 -2.2652  0.9135  0.7606
  887SOL    HW2 2661   1.175   0.529   1.843  0.2106  1.2638 -0.0860
  888SOL     OW 2662   2.589   0.635   1.812 -0.9156 -0.4253 -0.3598
  888SOL    HW1 2663   2.534   0.552   1.833  1.0279  0.0481 -3.3998
  888SOL    HW2 2664   2.567   0.672   1.719  5.0836  1.9126  2.2324
  889SOL     OW 2665   0.218   2.846   0.632  0.6653 -0.5045  0.1595
  889SOL    HW1 2666   0.241   2.791   0.713 -0.0895  0.4935 -1.6529
  889SOL    HW2 2667   0.298   2.863   0.573 -1.2872 -0.8597 -0.3146
  890SOL     OW 2668   2.991   2.172   0.288  0.1409 -0.0503 -0.3079
  890SOL    HW1 2669   3.015   2.137   0.382 -3.3713  2.7685  0.0691
  890SOL    HW2 2670   3.074   2.167   0.227 -2.2426  1.0773  0.2962
  891SOL     OW 2671   1.027   1.585   3.061  0.4206 -0.3607  0.2591
  891SOL    HW1 2672   0.958   1.616   2.991  2.0339 -2.2197 -1.7035
  891SOL    HW2 2673   1.101   1.541   3.005  2.5116  2.9461  0.4844
  892SOL     OW 2674   2.847   2.991   0.814  0.3025 -0.1500  0.2590
  892SOL    HW1 2675   2.784   3.015   0.892 -0.9906  4.0361 -1.3887
  892SOL    HW2 2676   2.887   2.898   0.820  1.1717  1.2561  0.2185
  893SOL     OW 2677   0.974   2.962   1.273  0.1530  0.1713 -0.1579
  893SOL    HW1 2678   0.997   3.007   1.365  1.1643  1.6083  4.6359
  893SOL    HW2 2679   0.921   3.026   1.217  0.7168  1.9142 -0.1914
  894SOL     OW 2680   2.761   1.035   0.613  0.1721  0.6857 -0.1877
  894SOL    HW1 2681   2.677   0.994   0.571 -2.2402 -0.9343 -0.6208
  894SOL    HW2 2682   2.801   0.970   0.683  1.0365 -0.0847 -0.4480
  895SOL     OW 2683   2.277   2.547   2.008 -0.0939 -0.4072  0.4482
  895SOL    HW1 2684   2.184   2.503   1.987 -0.8786  1.0879 -0.2607
  895SOL    HW2 2685   2.269   2.650   2.013 -0.3464 -0.3567  2.0407
  896SOL     OW 2686   1.242   0.251   1.595  0.7818  0.0482  0.0248
  896SOL    HW1 2687   1.186   0.171   1.568 -0.4292  3.2253  1.3902
  896SOL    HW2 2688   1.236   0.275   1.692  2.0297 -0.2991 -3.4399
  897SOL     OW 2689   1.043   1.716   2.012  0.1296  0.4543 -0.1987
  897SOL    HW1 2690   1.106   1.638   2.019  0.9870  1.8300 -1.0075
  897SOL    HW2 2691   1.092   1.801   1.977  0.5937  0.8549  0.5582
  898SOL     OW 2692   1.790   2.439   1.749  0.1716 -0.2051  0.0115
  898SOL    HW1 2693   1.854   2.520   1.726 -1.1793  2.5567 -1.2118
  898SOL    HW2 2694   1.835   2.363   1.792 -1.0994  0.6073 -2.1033
  899SOL     OW 2695   1.045   0.585   0.973  0.2357  0.2297  0.0406
  899SOL    HW1 2696   1.052   0.540   1.066 -0.2349  0.7210 -0.2915
  899SOL    HW2 2697   1.046   0.685   0.981 -1.3347 -2.4464 -0.8534
  900SOL     OW 2698   1.768   2.427   2.651 -0.0509 -0.1658  0.0905
  900SOL    HW1 2699   1.669   2.405   2.622  0.5691  2.4098 -3.2611
  900SOL    HW2 2700   1.843   2.382   2.596  2.4647  2.2965  0.1887
  901SOL     OW 2701   0.828   2.217   2.564  0.6700 -0.9845 -0.2006
  901SOL    HW1 2702   0.814   2.263   2.657  2.4736  1.7407  3.3966
  901SOL    HW2 2703   0.762   2.261   2.498 -2.0489  1.8705  1.6622
  902SOL     OW 2704   2.316   1.327   0.411 -0.8819  0.3554 -0.1905
  902SOL    HW1 2705   2.305   1.381   0.324  1.4756  0.8228 -0.0424
  902SOL    HW2 2706   2.227   1.272   0.427 -1.7515  0.9775  1.5548
  903SOL     OW 2707   1.923   0.980   0.360  0.1202  0.1568  0.1514
  903SOL    HW1 2708   1.849   1.010   0.302 -0.3476  1.5534  1.0392
  903SOL    HW2 2709   1.964   0.889   0.333  1.0904 -0.4448  1.7938
  904SOL     OW 2710   0.863   0.806   2.792 -0.3643  0.2390  0.0205
  904SOL    HW1 2711   0.766   0.811   2.778  2.8881  1.7198  1.5076
  904SOL    HW2 2712   0.907   0.889   2.757  0.7174 -0.2776  1.1718
  905SOL     OW 2713   2.006   0.265   0.762 -0.3158 -0.4959 -0.0935
  905SOL    HW1 2714   1.953   0.188   0.722  2.2759  2.0123  0.6934
  905SOL    HW2 2715   2.101   0.275   0.717  1.3009 -0.7501 -1.7089
  906SOL     OW 2716   2.740   2.395   1.520 -0.2715 -0.3059  0.0514
  906SOL    HW1 2717   2.695   2.356   1.605 -0.4640 -0.4863 -1.8827
  906SOL    HW2 2718   2.750   2.494   1.535  0.3067 -0.6821  1.0482
  907SOL     OW 2719   1.017   0.777   0.197  0.0545 -0.0884  0.2575
  907SOL    HW1 2720   1.112   0.756   0.236  2.4212 -0.1281  2.3712
  907SOL    HW2 2721   1.020   0.809   0.101  1.0525 -0.6586  3.1754
  908SOL     OW 2722   1.928   2.994   1.435 -0.0672 -0.0082 -0.0770
  908SOL    HW1 2723   2.021   2.951   1.439 -0.5562 -1.0463 -0.9388
  908SOL    HW2 2724   1.912   3.034   1.342  0.0197 -0.4559 -1.3880
  909SOL     OW 2725   2.236   0.729   1.240 -0.1756 -0.0568  0.1206
  909SOL    HW1 2726   2.221   0.671   1.322 -0.6664  1.8034 -0.0676
  909SOL    HW2 2727   2.262   0.820   1.270 -0.4799  0.3663 -0.4122
  910SOL     OW 2728   1.257   2.825   1.916  0.0413 -0.1860 -0.7039
  910SOL    HW1 2729   1.328   2.896   1.938  0.9293  0.2172 -0.0838
  910SOL    HW2 2730   1.188   2.822   1.992  0.1135  0.6734  1.1328
  911SOL     OW 2731   2.725   0.404   2.335 -0.4372  0.2240 -0.4226
  911SOL    HW1 2732   2.703   0.502   2.359  1.4962  1.8111  0.7581
  911SOL    HW2 2733   2.757   0.379   2.241 -0.2458 -0.1932 -1.7021
  912SOL     OW 2734   2.930   1.418   1.386  0.1729 -0.1672  0.5515
  912SOL    HW1 2735   2.899   1.513   1.403 -1.5565 -2.9565 -0.1736
  912SOL    HW2 2736   2.991   1.387   1.462 -1.2725  1.2191 -1.0047
  913SOL     OW 2737   2.824   1.932   1.680 -0.0739  0.5190  0.2980
  913SOL    HW1 2738   2.833   1.829   1.677  1.8666  0.7416  0.4029
  913SOL    HW2 2739   2.918   1.972   1.696 -0.3256 -0.6035 -1.4723
  914SOL     OW 2740   1.841   1.020   1.389  0.0986  0.2006  0.2223
  914SOL    HW1 2741   1.865   0.925   1.358 -0.6098 -0.3680  1.0567
  914SOL    HW2 2742   1.838   1.019   1.490  0.4922 -0.5677 -3.9739
  915SOL     OW 2743   1.252   0.622   1.312 -0.4650  0.6257 -0.0494
  915SOL    HW1 2744   1.260   0.592   1.409  0.2273 -1.4350  0.8223
  915SOL    HW2 2745   1.338   0.666   1.282  1.0723 -2.7631  0.3837
  916SOL     OW 2746   2.759   2.686   1.519 -0.8415 -0.6828 -0.5326
  916SOL    HW1 2747   2.668   2.675   1.471  2.0379 -1.2699 -0.0905
  916SOL    HW2 2748   2.756   2.768   1.579 -1.0656  0.1286  1.1857
  917SOL     OW 2749   2.316   2.111   0.211 -0.3163  0.3624  0.6455
  917SOL    HW1 2750   2.247   2.111   0.135  2.1704  1.3228 -1.9854
  917SOL    HW2 2751   2.357   2.201   0.237  1.0345 -0.4404 -1.4265
  918SOL     OW 2752   1.920   2.689   2.586 -0.0115 -0.2476  0.1021
  918SOL    HW1 2753   1.888   2.747   2.508  0.1971 -1.0907  1.4989
  918SOL    HW2 2754   1.839   2.630   2.610  0.3203  1.9251 -1.6227
  919SOL     OW 2755   1.287   2.140   1.352  0.2912 -0.2521 -0.0967
  919SOL    HW1 2756   1.339   2.173   1.434  2.5552 -0.0651 -0.7301
  919SOL    HW2 2757   1.187   2.134   1.371 -1.0575 -1.6444  1.4060
  920SOL     OW 2758   0.180   0.376   2.242 -0.3467 -0.3386  0.6660
  920SOL    HW1 2759   0.130   0.287   2.266  0.2422 -2.6931  2.7766
  920SOL    HW2 2760   0.254   0.350   2.179  4.2276 -0.7008  0.0420
  921SOL     OW 2761   3.016   0.820   1.778  0.1222 -0.5195 -0.0909
  921SOL    HW1 2762   3.012   0.766   1.870 -0.8777 -2.5356  3.3009
  921SOL    HW2 2763   3.053   0.761   1.704 -1.2756 -1.8022  1.2654
  922SOL     OW 2764   2.013   2.075   0.621  0.3498 -0.0617 -0.0611
  922SOL    HW1 2765   1.939   2.133   0.582  1.3946  2.2657 -0.3185
  922SOL    HW2 2766   2.091   2.055   0.552  1.8257 -2.8239 -0.8929
  923SOL     OW 2767   0.773   1.901   2.881 -0.1200  0.1188  0.3128
  923SOL    HW1 2768   0.734   1.899   2.788  0.2538 -0.1659  2.4117
  923SOL    HW2 2769   0.742   1.991   2.921  0.2086  3.2655 -0.0182
  924SOL     OW 2770   1.010   0.344   0.284  0.1828 -0.1508  0.4868
  924SOL    HW1 2771   0.950   0.323   0.203 -0.6371  0.3686  1.8496
  924SOL    HW2 2772   1.108   0.359   0.254 -0.3272 -1.2477 -1.1715
  925SOL     OW 2773   2.433   0.659   0.474 -0.3886 -0.0115  0.1028
  925SOL    HW1 2774   2.361   0.688   0.542  2.8953  0.0852 -0.4000
  925SOL    HW2 2775   2.439   0.559   0.451 -0.4379  2.2374 -0.3217
  926SOL     OW 2776   0.065   0.908   1.028 -0.0806 -0.1559  0.2530
  926SOL    HW1 2777   0.051   1.006   1.000  1.3928  0.8675  0.9055
  926SOL    HW2 2778   3.063   0.874   1.089 -0.2931  0.3504  1.0945
  927SOL     OW 2779   3.040   1.222   2.928 -0.2254  0.0910  0.2572
  927SOL    HW1 2780   3.047   1.246   2.829 -1.7570  1.0903 -0.0489
  927SOL    HW2 2781   3.076   1.294   2.992 -0.7883 -0.2705  2.2801
  928SOL     OW 2782   2.620   0.640   2.477  0.2475  0.7349 -0.5310
  928SOL    HW1 2783   2.544   0.684   2.526 -0.0633  1.8766 -0.8805
  928SOL    HW2 2784   2.698   0.618   2.545  0.8789 -2.6974  1.8478
  929SOL     OW 2785   2.705   3.073   1.068 -0.2141  0.1734 -0.3491
  929SOL    HW1 2786   2.614   0.035   1.036 -2.2193 -0.9702 -1.7105
  929SOL    HW2 2787   2.698   2.989   1.126  0.6151 -1.8106 -0.7330
  930SOL     OW 2788   1.961   1.220   1.801 -0.2028  0.1718 -0.4709
  930SOL    HW1 2789   1.919   1.127   1.805  1.3355  2.7008  1.1089
  930SOL    HW2 2790   1.913   1.280   1.736  1.4148 -1.1864  4.4347
  931SOL     OW 2791   1.464   1.194   0.566 -0.2511  0.1719  0.1596
  931SOL    HW1 2792   1.523   1.207   0.486 -0.1001 -0.7315  2.8684
  931SOL    HW2 2793   1.452   1.287   0.606  0.0896 -1.5457  0.9155
  932SOL     OW 2794   2.696   1.245   0.885  0.3184  0.2065  0.1530
  932SOL    HW1 2795   2.646   1.299   0.814  0.7212  0.6639 -2.0742
  932SOL    HW2 2796   2.697   1.146   0.882 -1.7854  1.5537 -0.3684
  933SOL     OW 2797   2.474   1.967   1.319 -0.4743  0.1827  0.4822
  933SOL    HW1 2798   2.447   1.963   1.223  5.7681  0.2281  1.6406
  933SOL    HW2 2799   2.523   2.049   1.329  1.0925 -0.7706  0.2467
  934SOL     OW 2800   1.764   0.137   2.206 -0.0230  0.1307  0.6864
  934SOL    HW1 2801   1.733   0.181   2.293  2.3402  0.3134 -0.1393
  934SOL    HW2 2802   1.718   0.188   2.126  0.2189  1.2066 -0.5337
  935SOL     OW 2803   0.198   1.446   0.933  0.0139  0.1159  0.2110
  935SOL    HW1 2804   0.169   1.425   0.836 -1.3590  1.3578  0.2050
  935SOL    HW2 2805   0.203   1.545   0.952  0.1758 -2.2941 -0.3427
  936SOL     OW 2806   0.290   0.837   0.492  0.1107  0.0740 -0.8022
  936SOL    HW1 2807   0.202   0.873   0.528  1.2787 -1.5911  0.0953
  936SOL    HW2 2808   0.360   0.911   0.479 -1.2119 -0.4082  0.3244
  937SOL     OW 2809   2.187   3.015   0.955 -0.4585 -0.5376  0.0150
  937SOL    HW1 2810   2.160   2.935   1.011  3.6973 -0.0388 -1.2036
  937SOL    HW2 2811   2.190   2.985   0.859 -1.2421 -0.4693 -0.2940
  938SOL     OW 2812   2.523   2.165   0.546 -0.2904  0.3139  0.2276
  938SOL    HW1 2813   2.563   2.115   0.462  0.8053 -1.6073 -0.8353
  938SOL    HW2 2814   2.526   2.267   0.532 -1.2423 -0.3038  2.8269
  939SOL     OW 2815   0.885   1.975   0.409 -0.2508 -0.3083  0.2058
  939SOL    HW1 2816   0.824   1.916   0.353 -0.0172  2.7013  0.2845
  939SOL    HW2 2817   0.940   1.913   0.469  4.1429  0.7948  2.2366
  940SOL     OW 2818   2.825   0.003   2.743  0.3815 -0.6248  0.1520
  940SOL    HW1 2819   2.799   2.983   2.706 -2.0020 -3.4785 -0.9731
  940SOL    HW2 2820   2.740   0.064   2.741  2.7946 -3.0279  0.1358
  941SOL     OW 2821   1.441   0.410   2.813  0.5784  0.1864 -0.4907
  941SOL    HW1 2822   1.393   0.320   2.793 -0.7618  0.3017  0.5075
  941SOL    HW2 2823   1.418   0.449   2.907 -2.2606  1.7283 -0.5314
  942SOL     OW 2824   1.250   0.970   1.196  0.2756 -0.4654  0.2985
  942SOL    HW1 2825   1.223   1.020   1.283  0.5825  1.1800 -0.0844
  942SOL    HW2 2826   1.187   1.001   1.122  3.2718  0.2595  1.7825
  943SOL     OW 2827   1.435   1.211   1.705  0.1447 -0.3608  0.2242
  943SOL    HW1 2828   1.413   1.175   1.795  0.2456 -0.0114 -3.2565
  943SOL    HW2 2829   1.435   1.136   1.635  0.9283 -1.5862 -1.4521
  944SOL     OW 2830   1.382   0.840   2.046  0.0170 -0.0067  0.0680
  944SOL    HW1 2831   1.333   0.926   2.036  3.0902 -1.0253  0.7509
  944SOL    HW2 2832   1.480   0.861   2.039 -0.0553  1.7762 -1.2540
  945SOL     OW 2833   2.921   3.043   0.363  0.1776  0.7041 -0.1473
  945SOL    HW1 2834   2.832   0.016   0.349  0.4288  1.4427 -3.5338
  945SOL    HW2 2835   2.965   3.022   0.274 -0.0169  2.1254  0.9103
  946SOL     OW 2836   2.826   0.485   1.808  0.0324 -0.4528 -0.8825
  946SOL    HW1 2837   2.881   0.538   1.879  2.6569 -0.0542 -0.6308
  946SOL    HW2 2838   2.746   0.545   1.783  2.2046  0.8164 -1.0919
  947SOL     OW 2839   0.457   2.849   0.507 -0.0259 -0.3605  0.4663
  947SOL    HW1 2840   0.523   2.816   0.578  0.6257 -0.7276  1.3532
  947SOL    HW2 2841   0.483   2.813   0.420  1.3073 -0.1111  4.2049
  948SOL     OW 2842   2.217   1.055   1.853 -0.0692 -0.2904 -0.3170
  948SOL    HW1 2843   2.315   1.079   1.881  5.6230 -0.3616  1.4275
  948SOL    HW2 2844   2.164   1.138   1.825 -1.9286  0.9224  1.0187
  949SOL     OW 2845   0.599   0.853   2.692  0.3972 -0.2301  0.0973
  949SOL    HW1 2846   0.577   0.857   2.591 -1.5283 -2.4895 -3.9268
  949SOL    HW2 2847   0.543   0.784   2.743  1.4825  0.7052  1.1659
  950SOL     OW 2848   0.630   0.292   1.042  0.0865 -0.0338  0.2160
  950SOL    HW1 2849   0.619   0.211   1.104  1.5003  3.6509 -2.8550
  950SOL    HW2 2850   0.625   0.268   0.942 -0.3889 -0.4873 -1.0430
  951SOL     OW 2851   0.901   1.577   2.386 -0.1382  0.2820  0.0107
  951SOL    HW1 2852   0.917   1.674   2.393  1.8854  1.5403  0.5307
  951SOL    HW2 2853   0.988   1.528   2.355  2.1234  2.1495  1.8320
  952SOL     OW 2854   0.897   1.557   0.216 -0.2375 -0.0134  0.0528
  952SOL    HW1 2855   0.950   1.575   0.133 -0.1204 -0.2719 -0.9643
  952SOL    HW2 2856   0.853   1.646   0.242  0.3429 -0.6955  1.3610
  953SOL     OW 2857   2.328   3.054   2.472 -0.1420 -0.3223  0.0094
  953SOL    HW1 2858   2.259   0.047   2.485  0.3902 -0.5949 -2.3543
  953SOL    HW2 2859   2.423   3.068   2.506 -0.7467  0.5839 -0.6179
  954SOL     OW 2860   1.635   1.137   0.803  0.5991  0.4965 -0.8599
  954SOL    HW1 2861   1.679   1.063   0.746  0.3552  1.1531  0.8724
  954SOL    HW2 2862   1.542   1.158   0.758 -3.1225  0.7718  1.6148
  955SOL     OW 2863   0.219   2.231   2.236 -0.1566 -0.4044 -0.3419
  955SOL    HW1 2864   0.316   2.250   2.232 -3.0833 -0.3746 -0.9871
  955SOL    HW2 2865   0.167   2.323   2.227 -1.5619  3.2351  0.1344
  956SOL     OW 2866   1.591   0.592   1.958  0.2615  0.3467  1.1745
  956SOL    HW1 2867   1.614   0.635   2.049  2.6461  1.9912  0.4369
  956SOL    HW2 2868   1.620   0.653   1.886 -1.8106  0.4289 -0.0265
  957SOL     OW 2869   1.639   2.049   2.852  0.0797 -0.2295 -0.4406
  957SOL    HW1 2870   1.642   1.957   2.902  0.5216 -0.0309  0.8267
  957SOL    HW2 2871   1.687   2.128   2.908 -0.5743  3.5613  1.6669
  958SOL     OW 2872   0.901   2.309   1.710  0.7931 -0.0779 -0.3192
  958SOL    HW1 2873   1.000   2.291   1.700 -3.0986 -0.1765 -3.0564
  958SOL    HW2 2874   0.861   2.338   1.621  1.1737 -0.7680  0.2424
  959SOL     OW 2875   1.992   2.292   2.868  0.5483 -0.0012 -0.2937
  959SOL    HW1 2876   2.000   2.372   2.805 -0.9642  3.0902 -0.3370
  959SOL    HW2 2877   2.041   2.318   2.951  2.1718 -0.2014 -3.1844
  960SOL     OW 2878   0.011   0.523   2.656 -0.1658  0.7085 -0.2532
  960SOL    HW1 2879   0.024   0.578   2.573  3.4750  0.1004  0.8111
  960SOL    HW2 2880   0.053   0.431   2.642  0.3273 -2.2727 -0.6587
  961SOL     OW 2881   0.809   0.858   2.355  0.1566  0.7212  0.5711
  961SOL    HW1 2882   0.726   0.796   2.356 -1.7019 -1.3546 -2.0214
  961SOL    HW2 2883   0.898   0.807   2.368  0.3726  2.5360  0.0300
  962SOL     OW 2884   0.663   1.288   2.618  0.0334  0.6701 -0.1210
  962SOL    HW1 2885   0.652   1.266   2.715 -1.5520 -0.0225 -0.5294
  962SOL    HW2 2886   0.717   1.218   2.576 -0.7192 -0.4820 -0.7389
  963SOL     OW 2887   2.427   2.353   0.268  0.4112 -0.2179  0.2109
  963SOL    HW1 2888   2.505   2.369   0.207  1.1550  1.5396  1.7352
  963SOL    HW2 2889   2.439   2.407   0.353  0.0430 -0.6591  1.1843
  964SOL     OW 2890   1.132   2.452   1.174  0.7062 -0.1373  0.3536
  964SOL    HW1 2891   1.113   2.423   1.269  1.1096  0.3270 -0.0511
  964SOL    HW2 2892   1.080   2.541   1.157 -2.9906 -1.2036  2.4829
  965SOL     OW 2893   1.352   1.445   0.648 -0.4718 -0.2610 -0.1120
  965SOL    HW1 2894   1.417   1.484   0.583 -0.2640 -0.1823  2.4412
  965SOL    HW2 2895   1.290   1.516   0.700  0.7802 -0.2932 -0.2011
  966SOL     OW 2896   0.362   1.642   0.238 -0.0137 -0.2509 -0.0682
  966SOL    HW1 2897   0.351   1.627   0.338  0.5649 -2.7168 -0.7612
  966SOL    HW2 2898   0.276   1.648   0.187  0.1541  0.3665 -0.6781
  967SOL     OW 2899   1.921   0.339   1.803  0.1214  0.4263 -0.2683
  967SOL    HW1 2900   1.920   0.363   1.903  0.4046  0.4841  2.8215
  967SOL    HW2 2901   1.836   0.360   1.752 -1.5347 -0.0878 -1.3273
  968SOL     OW 2902   1.749   0.936   0.667  0.6374  0.4310 -0.2261
  968SOL    HW1 2903   1.827   0.913   0.610 -1.7041  1.3723 -1.0189
  968SOL    HW2 2904   1.662   0.902   0.627 -0.0583  1.1683  2.1803
  969SOL     OW 2905   0.323   1.314   2.288  0.7739  0.6258 -0.3265
  969SOL    HW1 2906   0.322   1.307   2.189  1.1949 -1.1541  0.8669
  969SOL    HW2 2907   0.409   1.361   2.317  0.1307  0.8806 -1.2182
  970SOL     OW 2908   2.273   1.578   1.223 -0.1256 -0.0312  0.4227
  970SOL    HW1 2909   2.310   1.504   1.159  0.2595 -1.1029  1.6498
  970SOL    HW2 2910   2.311   1.666   1.187  0.2554 -0.6465 -0.4132
  971SOL     OW 2911   0.086   0.032   1.075 -0.7835  0.2020  0.3045
  971SOL    HW1 2912   0.146   0.116   1.073  0.7770  2.2997  0.0736
  971SOL    HW2 2913   0.134   3.037   1.024  1.2183 -1.1387  3.4580
  972SOL     OW 2914   0.403   0.688   2.771  0.6934  0.0202  0.0443
  972SOL    HW1 2915   0.414   0.591   2.750  1.6351  0.0469  2.2228
  972SOL    HW2 2916   0.364   0.700   2.864 -0.6285 -1.0203 -3.3766
  973SOL     OW 2917   3.070   0.514   0.870  0.5292  0.4183  0.1640
  973SOL    HW1 2918   3.065   0.486   0.771  1.0504 -1.5983 -0.9351
  973SOL    HW2 2919   2.979   0.486   0.915 -0.3165 -0.8247  0.7348
  974SOL     OW 2920   2.200   0.545   1.991  0.4229 -0.4419  0.6546
  974SOL    HW1 2921   2.193   0.601   2.075 -0.3997 -1.2609 -4.8340
  974SOL    HW2 2922   2.148   0.590   1.915 -0.1341 -1.0773  1.1567
  975SOL     OW 2923   2.672   0.199   0.103  0.0712 -0.0998 -0.5756
  975SOL    HW1 2924   2.675   0.193   0.206 -3.1250 -3.7098  2.2482
  975SOL    HW2 2925   2.720   0.286   0.077 -2.3316 -0.5714 -0.0569
  976SOL     OW 2926   0.366   1.475   1.432 -0.2346  0.1087 -0.0308
  976SOL    HW1 2927   0.465   1.491   1.450  3.2203 -0.0314 -1.4590
  976SOL    HW2 2928   0.312   1.547   1.481  0.9415 -2.7014 -2.0702
  977SOL     OW 2929   1.096   2.433   0.055  0.1523  0.3104  0.3766
  977SOL    HW1 2930   1.107   2.423   0.153 -1.0385 -0.4422  2.4053
  977SOL    HW2 2931   1.036   2.356   0.018  2.0702  2.0491  2.2548
  978SOL     OW 2932   0.406   1.319   2.863 -0.9779 -0.5934 -0.1335
  978SOL    HW1 2933   0.363   1.317   2.955  0.6019  1.8401  2.1969
  978SOL    HW2 2934   0.459   1.232   2.849  1.6424  1.6412 -1.2421
  979SOL     OW 2935   1.887   1.730   1.427  0.2801 -0.4764  0.1699
  979SOL    HW1 2936   1.919   1.633   1.442  0.2144 -0.0882  2.6525
  979SOL    HW2 2937   1.964   1.791   1.396 -1.6083 -1.4924 -0.3414
  980SOL     OW 2938   0.456   1.534   1.822  0.5903 -0.7193  0.3112
  980SOL    HW1 2939   0.365   1.500   1.786  0.1044 -3.5291 -0.4052
  980SOL    HW2 2940   0.465   1.521   1.924 -0.9623  1.5243 -2.1033
  981SOL     OW 2941   2.988   1.390   0.302 -0.1107  0.2336 -0.4806
  981SOL    HW1 2942   3.045   1.468   0.338  1.5965  1.1039  0.9729
  981SOL    HW2 2943   2.930   1.351   0.373 -1.2095  0.0805  0.1356
  982SOL     OW 2944   2.313   2.815   2.026  0.0240 -0.5272  0.3395
  982SOL    HW1 2945   2.278   2.900   1.978  1.4573  0.9543 -1.1558
  982SOL    HW2 2946   2.409   2.830   2.054 -0.4859 -0.6928 -0.0919
  983SOL     OW 2947   1.158   0.265   1.123  0.1292  0.8699 -0.4308
  983SOL    HW1 2948   1.191   0.221   1.210  0.5631  1.4727  2.0589
  983SOL    HW2 2949   1.139   0.367   1.143 -1.2210  0.4296 -3.2657
  984SOL     OW 2950   1.329   2.820   2.944 -0.2564  0.0432 -0.4229
  984SOL    HW1 2951   1.419   2.801   2.899 -1.3887 -0.0586 -0.1283
  984SOL    HW2 2952   1.333   2.818   3.047 -1.7977  1.5335  2.4250
  985SOL     OW 2953   1.823   2.197   1.478  0.6130  0.0558 -0.2702
  985SOL    HW1 2954   1.812   2.102   1.514  0.7712 -0.2335 -0.9583
  985SOL    HW2 2955   1.892   2.185   1.401 -0.1123 -2.4497 -1.2330
  986SOL     OW 2956   2.315   2.816   2.680 -0.5647  0.0979 -0.4734
  986SOL    HW1 2957   2.352   2.858   2.596  0.2180 -1.9316 -2.0013
  986SOL    HW2 2958   2.387   2.801   2.750  1.5221  1.3557 -0.6121
  987SOL     OW 2959   2.812   0.861   2.125 -0.1392 -0.1611 -0.1024
  987SOL    HW1 2960   2.732   0.843   2.185 -0.0313 -0.3453 -1.0389
  987SOL    HW2 2961   2.777   0.913   2.042  1.1521  1.9899  0.8294
  988SOL     OW 2962   2.485   0.869   2.596  0.0887 -0.5286  0.7070
  988SOL    HW1 2963   2.393   0.825   2.612  0.0194  0.4001 -0.8434
  988SOL    HW2 2964   2.476   0.923   2.511  0.8317 -0.7925 -0.6021
  989SOL     OW 2965   1.927   1.399   2.015 -0.1106  0.1135  0.0307
  989SOL    HW1 2966   1.967   1.342   1.943 -1.5737  0.2979  3.1764
  989SOL    HW2 2967   2.001   1.457   2.062  2.8292  2.0580  0.9473
  990SOL     OW 2968   0.422   1.023   0.182  0.0225  0.0421  0.5401
  990SOL    HW1 2969   0.507   1.041   0.125 -0.1211  1.0064 -2.0467
  990SOL    HW2 2970   0.377   0.934   0.149 -2.5008 -1.5418 -1.0644
  991SOL     OW 2971   0.281   1.903   2.820 -0.3058  0.0619 -0.1319
  991SOL    HW1 2972   0.256   1.803   2.820  1.0263 -0.2393  1.5909
  991SOL    HW2 2973   0.318   1.927   2.726 -1.0320 -1.3040  0.3481
  992SOL     OW 2974   2.539   2.034   2.075 -0.1178  0.5590  0.0022
  992SOL    HW1 2975   2.553   2.043   1.971  0.7982 -0.6687 -3.2729
  992SOL    HW2 2976   2.485   2.113   2.110  0.0638 -1.5179  0.1425
  993SOL     OW 2977   0.301   0.116   0.300 -0.0311 -0.0195  0.2109
  993SOL    HW1 2978   0.365   0.093   0.375  2.1016 -0.6121 -0.0303
  993SOL    HW2 2979   0.207   0.135   0.335  0.0294  1.5222 -2.1428
  994SOL     OW 2980   0.243   1.712   1.514  0.2869  0.4624 -0.1672
  994SOL    HW1 2981   0.175   1.687   1.588  1.8963 -1.4243  1.3644
  994SOL    HW2 2982   0.253   1.814   1.503  0.5571  0.1534 -1.7704
  995SOL     OW 2983   2.074   1.771   2.772  0.1547  0.2335 -0.3353
  995SOL    HW1 2984   2.008   1.715   2.718 -1.6183  1.1308 -0.6471
  995SOL    HW2 2985   2.059   1.868   2.747 -0.9342  0.5743 -1.0721
  996SOL     OW 2986   1.882   1.550   3.017  0.0675 -0.1085  0.2012
  996SOL    HW1 2987   1.824   1.479   2.985  3.3929 -1.4773  1.7532
  996SOL    HW2 2988   1.829   1.639   3.033  0.9951 -1.4369 -1.7190
  997SOL     OW 2989   1.240   1.426   1.656 -0.1416  0.1631  0.7270
  997SOL    HW1 2990   1.140   1.426   1.670  0.7245 -0.7017  0.5537
  997SOL    HW2 2991   1.283   1.333   1.672  3.1729  1.0384 -0.7039
  998SOL     OW 2992   2.572   2.288   1.062 -0.1964 -0.2555  0.3661
  998SOL    HW1 2993   2.528   2.378   1.039 -1.0320 -0.0478 -0.6189
  998SOL    HW2 2994   2.616   2.240   0.988 -0.9327  1.2270 -0.5665
  999SOL     OW 2995   2.057   2.277   0.329 -0.0888 -0.3165  0.2781
  999SOL    HW1 2996   2.011   2.340   0.394 -2.2348  3.2719  2.1508
  999SOL    HW2 2997   2.130   2.226   0.376  1.7305 -0.3886  0.0864
 1000SOL     OW 2998   0.895   2.932   2.981  0.6079  0.1153  0.2945
 1000SOL    HW1 2999   0.868   2.839   3.018  0.0595 -2.7592  0.8443
 1000SOL    HW2 3000   0.810   2.989   2.966 -1.3598  1.3413 -1.0445
   3.07726   3.07726   3.07726
